977 TIP4P/2005f water molecules t=   1.99000 step= 1990
 3908
    1SOL     OW    1   0.447   0.730   0.174 -0.0390  0.3616 -0.0437
    1SOL    HW1    2   0.373   0.680   0.139  0.3125  0.0341  1.2380
    1SOL    HW2    3   0.483   0.661   0.230  0.1709 -1.2042  0.8227
    1SOL     MW    4   0.442   0.714   0.177  0.0350  0.1118  0.2397
    2SOL     OW    5   0.279   2.980   1.135  0.2162  0.1776 -0.4094
    2SOL    HW1    6   0.305   3.071   1.111 -2.5522 -0.8918 -4.4321
    2SOL    HW2    7   0.185   2.988   1.149  1.0987  1.3768 -0.0291
    2SOL     MW    8   0.270   2.993   1.134 -0.0326  0.1947 -0.8900
    3SOL     OW    9   2.687   0.339   0.867 -0.2247 -0.8944  0.4415
    3SOL    HW1   10   2.727   0.417   0.825  0.4251  1.9122  0.2207
    3SOL    HW2   11   2.678   0.362   0.963 -0.2979  0.0549 -3.9055
    3SOL     MW   12   2.691   0.352   0.874 -0.1486 -0.3988 -0.1612
    4SOL     OW   13   2.933   1.704   0.560  0.1779 -0.1319 -0.3067
    4SOL    HW1   14   2.881   1.783   0.544 -1.1187 -1.2334  1.7623
    4SOL    HW2   15   3.006   1.701   0.485  0.7191 -0.7421 -1.9679
    4SOL     MW   16   2.936   1.714   0.548  0.0782 -0.3577 -0.2529
    5SOL     OW   17   1.618   1.488   0.639 -0.0263  0.9077  0.4448
    5SOL    HW1   18   1.650   1.444   0.721  1.0413  1.8040  0.8397
    5SOL    HW2   19   1.528   1.514   0.647  2.8287  0.0681 -0.6813
    5SOL     MW   20   1.610   1.485   0.651  0.4913  0.9151  0.3483
    6SOL     OW   21   0.744   1.444   0.624 -0.5955 -0.0108 -0.2342
    6SOL    HW1   22   0.649   1.428   0.618 -3.4301  1.0310  0.8198
    6SOL    HW2   23   0.772   1.365   0.667 -0.4839  1.5248 -2.3682
    6SOL     MW   24   0.735   1.432   0.629 -0.9548  0.3293 -0.3767
    7SOL     OW   25   1.966   1.017   0.059 -0.7174 -0.3974 -0.0359
    7SOL    HW1   26   2.038   1.079   0.090  0.7285  0.1837 -0.9046
    7SOL    HW2   27   1.923   0.982   0.143 -1.3098 -0.8303  2.9167
    7SOL     MW   28   1.969   1.020   0.074 -0.6048 -0.3779  0.2390
    8SOL     OW   29   0.877   1.404   0.994 -0.1671 -0.1833 -0.1340
    8SOL    HW1   30   0.919   1.467   1.050 -0.5900 -2.8487  1.4649
    8SOL    HW2   31   0.895   1.319   1.041  2.0873  0.5708  1.8405
    8SOL     MW   32   0.885   1.401   1.008  0.0745 -0.4355  0.3375
    9SOL     OW   33   0.895   0.542   1.310  0.8019  0.0725  0.4628
    9SOL    HW1   34   0.859   0.455   1.301 -0.8990  2.8906  0.7200
    9SOL    HW2   35   0.965   0.535   1.373  1.9034 -1.2437 -1.1054
    9SOL     MW   36   0.899   0.529   1.318  0.7228  0.2707  0.2899
   10SOL     OW   37   0.328   0.847   0.489  0.2839  0.3368 -0.3109
   10SOL    HW1   38   0.418   0.882   0.477  2.0417  0.0383  0.1811
   10SOL    HW2   39   0.293   0.891   0.565  1.2196  0.5472 -0.0186
   10SOL     MW   40   0.335   0.858   0.497  0.6393  0.3251 -0.2074
   11SOL     OW   41   0.733   1.073   1.452  0.2718 -0.8641 -0.0970
   11SOL    HW1   42   0.788   1.084   1.529 -1.6058  0.3647  0.4083
   11SOL    HW2   43   0.778   1.001   1.413  0.9144  0.0955  0.7766
   11SOL     MW   44   0.746   1.065   1.457  0.1089 -0.5754  0.0849
   12SOL     OW   45   0.001   1.091   0.903  0.2554  0.6219 -0.0019
   12SOL    HW1   46   0.014   1.175   0.944  0.4889  1.8024  1.4912
   12SOL    HW2   47   0.012   1.118   0.814 -0.5966  0.4437  0.2847
   12SOL     MW   48   0.004   1.105   0.896  0.1738  0.7541  0.2329
   13SOL     OW   49   1.876   1.404   1.280 -0.0689 -0.3092 -0.6696
   13SOL    HW1   50   1.912   1.316   1.260  0.8737  1.0281 -2.1986
   13SOL    HW2   51   1.954   1.461   1.270 -0.1136  2.6300 -1.3470
   13SOL     MW   52   1.891   1.400   1.276  0.0495  0.2551 -0.9607
   14SOL     OW   53   0.554   0.246   1.870 -0.5562 -0.0596  0.0481
   14SOL    HW1   54   0.570   0.173   1.806  0.1154  1.9311  1.1379
   14SOL    HW2   55   0.573   0.325   1.823  0.9446 -0.2445  0.9916
   14SOL     MW   56   0.558   0.247   1.855 -0.2696  0.1786  0.3164
   15SOL     OW   57   1.981   0.409   0.977 -0.4209 -0.5925 -0.2378
   15SOL    HW1   58   1.999   0.486   1.027  1.1612  1.6703  0.6879
   15SOL    HW2   59   2.032   0.413   0.892  2.7767  0.4773  2.9418
   15SOL     MW   60   1.990   0.419   0.973  0.2097 -0.1528  0.3039
   16SOL     OW   61   0.207   1.831   0.284  0.3150  0.4215  1.0751
   16SOL    HW1   62   0.305   1.806   0.293 -1.5418 -0.0422 -0.5769
   16SOL    HW2   63   0.213   1.925   0.315  2.3543  1.2900  2.0471
   16SOL     MW   64   0.221   1.840   0.289  0.3391  0.4749  0.9854
   17SOL     OW   65   1.125   0.814   1.381  0.1605 -0.4087  0.2581
   17SOL    HW1   66   1.156   0.802   1.473 -1.2993 -0.4726  1.0557
   17SOL    HW2   67   1.036   0.838   1.377  0.5847  2.1389  0.5347
   17SOL     MW   68   1.117   0.815   1.393  0.0238 -0.0810  0.3998
   18SOL     OW   69   0.010   1.683   0.347 -0.2877  0.5251 -0.1873
   18SOL    HW1   70   0.092   1.733   0.335 -0.1137 -1.7852 -0.4377
   18SOL    HW2   71  -0.004   1.632   0.268  0.5292  0.6313  0.3560
   18SOL     MW   72   0.019   1.683   0.335 -0.1569  0.2343 -0.1487
   19SOL     OW   73   0.057   1.372   0.939 -0.8177 -0.5486 -0.1581
   19SOL    HW1   74   0.090   1.410   0.861 -0.1845 -2.6064 -1.0277
   19SOL    HW2   75  -0.042   1.389   0.937 -1.8458 -0.7670 -0.1465
   19SOL     MW   76   0.048   1.379   0.928 -0.8698 -0.8489 -0.2713
   20SOL     OW   77   0.474   2.133   1.266  0.5065  0.1509 -0.0973
   20SOL    HW1   78   0.463   2.047   1.224  0.0046  2.6821 -0.8982
   20SOL    HW2   79   0.393   2.149   1.317 -3.1419 -0.2485  0.8393
   20SOL     MW   80   0.462   2.124   1.267 -0.0411  0.4321 -0.0794
   21SOL     OW   81   0.592   0.951   0.463 -0.1449  0.4652 -0.0330
   21SOL    HW1   82   0.669   0.914   0.505 -0.4187 -1.6673 -1.2450
   21SOL    HW2   83   0.622   0.954   0.375  0.9654 -3.6372  2.7482
   21SOL     MW   84   0.606   0.946   0.457 -0.0345 -0.3574  0.1741
   22SOL     OW   85   1.537   0.775   0.936 -0.2777 -0.0686  0.0740
   22SOL    HW1   86   1.516   0.703   0.880  0.9682 -1.2336  0.1394
   22SOL    HW2   87   1.453   0.798   0.967  0.7025  0.3024 -2.5591
   22SOL     MW   88   1.523   0.768   0.933  0.0160 -0.1734 -0.2648
   23SOL     OW   89   3.076   0.825   0.713 -0.5507 -0.2705  0.3750
   23SOL    HW1   90   3.111   0.744   0.752 -1.7451 -0.0384  0.2648
   23SOL    HW2   91   3.167   0.867   0.690  2.2944  1.7967  0.7687
   23SOL     MW   92   3.093   0.820   0.715 -0.3329  0.0329  0.4124
   24SOL     OW   93   2.021   2.167   0.018 -0.1105 -0.5407 -0.2623
   24SOL    HW1   94   2.006   2.142   0.117 -0.6928 -0.1845 -0.8424
   24SOL    HW2   95   2.067   2.089  -0.023 -0.4858 -0.1224 -0.2764
   24SOL     MW   96   2.025   2.154   0.025 -0.2368 -0.4385 -0.3407
   25SOL     OW   97   0.224   1.514   0.388  0.5254  0.6811 -0.5611
   25SOL    HW1   98   0.154   1.574   0.392  3.6046 -1.6791 -0.4396
   25SOL    HW2   99   0.240   1.537   0.297 -3.4807  2.5758 -2.9489
   25SOL     MW  100   0.217   1.525   0.377  0.4031  0.6197 -0.8602
   26SOL     OW  101   1.968   1.024   0.342  0.5924  0.5504  0.3248
   26SOL    HW1  102   1.926   1.085   0.405  0.0458 -0.5805 -0.8826
   26SOL    HW2  103   2.047   1.068   0.304 -0.1169 -1.1044  1.5003
   26SOL     MW  104   1.973   1.038   0.345  0.4267  0.1828  0.3205
   27SOL     OW  105   1.850   1.332   0.170 -0.7584 -0.1481  0.0254
   27SOL    HW1  106   1.787   1.406   0.192  0.2837  0.4371 -0.2359
   27SOL    HW2  107   1.897   1.317   0.254  0.1117 -2.4741  0.2132
   27SOL     MW  108   1.848   1.340   0.184 -0.5061 -0.3778  0.0157
   28SOL     OW  109   0.420   0.899   2.050 -0.5546 -0.4830 -0.0816
   28SOL    HW1  110   0.453   0.903   2.136 -0.6891  0.9176  1.4138
   28SOL    HW2  111   0.322   0.891   2.065 -1.3515 -0.2940 -0.0997
   28SOL     MW  112   0.411   0.899   2.063 -0.6775 -0.2733  0.1133
   29SOL     OW  113   0.198   1.441   0.684  0.2271  0.1844 -0.1932
   29SOL    HW1  114   0.203   1.530   0.651 -1.3053 -1.0339  0.8210
   29SOL    HW2  115   0.156   1.394   0.613 -1.9661  1.8532 -1.0474
   29SOL     MW  116   0.193   1.447   0.671 -0.2644  0.2439 -0.1721
   30SOL     OW  117   0.720   1.245   1.231 -0.7457 -0.5399 -0.5869
   30SOL    HW1  118   0.627   1.249   1.217 -0.3957  1.3449 -0.4921
   30SOL    HW2  119   0.728   1.169   1.298  0.1664  0.0021 -0.0656
   30SOL     MW  120   0.709   1.235   1.238 -0.5792 -0.2197 -0.5056
   31SOL     OW  121   0.431   0.264   0.210 -0.3896  0.2056  0.4203
   31SOL    HW1  122   0.466   0.216   0.278 -0.9174  1.1372  1.5912
   31SOL    HW2  123   0.442   0.210   0.129  0.9060  2.1471  2.0922
   31SOL     MW  124   0.437   0.251   0.208 -0.2883  0.5847  0.7954
   32SOL     OW  125   2.720   0.963   1.051  0.3079 -0.4443  0.3358
   32SOL    HW1  126   2.667   0.881   1.048 -3.9565  0.6911  0.2637
   32SOL    HW2  127   2.750   0.977   1.133 -1.6238 -0.0510 -3.1736
   32SOL     MW  128   2.717   0.954   1.061 -0.5096 -0.2426 -0.1367
   33SOL     OW  129   1.647   1.349   0.401  0.6569  0.3263  0.1088
   33SOL    HW1  130   1.674   1.270   0.448 -1.1053 -1.9604  0.9221
   33SOL    HW2  131   1.625   1.410   0.474 -0.7814 -2.1323  0.7188
   33SOL     MW  132   1.648   1.347   0.417  0.2346 -0.2998  0.2966
   34SOL     OW  133   1.164   1.969   1.174 -0.1368 -0.8253 -0.1693
   34SOL    HW1  134   1.088   1.994   1.229  1.4325  0.7257  2.2350
   34SOL    HW2  135   1.250   1.992   1.225  2.5260 -1.9813  0.3292
   34SOL     MW  136   1.165   1.975   1.188  0.4216 -0.7732  0.2137
   35SOL     OW  137   0.347   0.110   1.666 -0.3742  0.1910 -0.1354
   35SOL    HW1  138   0.347   0.100   1.764  3.0273 -0.1941 -0.2067
   35SOL    HW2  139   0.297   0.032   1.632 -0.8258  0.1840  0.0456
   35SOL     MW  140   0.340   0.099   1.675  0.0150  0.1393 -0.1209
   36SOL     OW  141   1.911   2.019   0.608 -0.7544  0.1700 -0.2065
   36SOL    HW1  142   1.843   2.012   0.539 -1.1591  1.5777  1.4750
   36SOL    HW2  143   1.947   1.933   0.626 -1.6323  2.3927  0.6696
   36SOL     MW  144   1.907   2.007   0.601 -0.9236  0.6490  0.1310
   37SOL     OW  145   1.701   2.022   0.960 -0.3071 -0.7465  0.5726
   37SOL    HW1  146   1.649   1.966   0.902 -1.5407  2.1273  0.0826
   37SOL    HW2  147   1.641   2.059   1.023  1.5416 -1.3480  0.6101
   37SOL     MW  148   1.686   2.019   0.961 -0.2260 -0.4467  0.5129
   38SOL     OW  149   2.842   0.984   0.090  0.3171 -0.1241  0.3069
   38SOL    HW1  150   2.903   0.951   0.151 -1.8900 -1.6682  0.9039
   38SOL    HW2  151   2.898   0.967   0.010 -0.4275  0.3902  3.1021
   38SOL     MW  152   2.858   0.977   0.088 -0.0723 -0.2600  0.7545
   39SOL     OW  153   1.490   0.561   0.662 -0.8146 -0.1893  0.1351
   39SOL    HW1  154   1.497   0.509   0.742 -0.8385  2.6261  0.1191
   39SOL    HW2  155   1.421   0.618   0.682 -0.5371 -1.0260 -0.0847
   39SOL     MW  156   1.482   0.562   0.675 -0.7812  0.0718  0.1040
   40SOL     OW  157   1.254   1.864   0.225 -0.1514 -0.0139 -0.2285
   40SOL    HW1  158   1.314   1.800   0.259  1.1720  1.2980  1.0683
   40SOL    HW2  159   1.224   1.912   0.305 -1.6164 -0.7035 -1.2327
   40SOL     MW  160   1.258   1.862   0.240 -0.1701  0.0682 -0.1899
   41SOL     OW  161   0.494   0.504   1.536 -0.1188 -0.0341 -0.1976
   41SOL    HW1  162   0.564   0.562   1.491  2.5986 -3.1833  0.0998
   41SOL    HW2  163   0.419   0.532   1.483  0.3492  0.3746  0.3651
   41SOL     MW  164   0.493   0.515   1.523  0.3015 -0.3957 -0.0841
   42SOL     OW  165   1.307   2.923   1.982  0.6598  0.8002 -0.1026
   42SOL    HW1  166   1.232   2.969   2.006  1.6429  0.7053 -0.3574
   42SOL    HW2  167   1.325   2.872   2.062  0.5883 -0.6023  3.1325
   42SOL     MW  168   1.299   2.922   1.996  0.7800  0.6026  0.2906
   43SOL     OW  169   1.417   0.160   1.689  0.2033  0.1902 -0.0658
   43SOL    HW1  170   1.471   0.112   1.628  1.6664  0.1789 -1.1753
   43SOL    HW2  171   1.328   0.130   1.691 -0.0685  1.6086 -1.8294
   43SOL     MW  172   1.413   0.150   1.681  0.3605  0.3758 -0.4449
   44SOL     OW  173   1.189   0.851   0.951  0.5180 -0.2724 -0.2815
   44SOL    HW1  174   1.171   0.943   0.972 -1.7580 -1.9530 -0.4023
   44SOL    HW2  175   1.143   0.803   1.024 -1.6895  0.0529  0.6788
   44SOL     MW  176   1.180   0.857   0.963 -0.0736 -0.4512 -0.1707
   45SOL     OW  177   1.284   0.786   0.694 -0.5911 -0.3012 -0.3327
   45SOL    HW1  178   1.249   0.802   0.781 -2.8713  0.5761  0.4346
   45SOL    HW2  179   1.203   0.759   0.643 -0.5916  0.3286  1.2354
   45SOL     MW  180   1.268   0.785   0.699 -0.8920 -0.1023 -0.0246
   46SOL     OW  181   0.450   1.134   0.690  0.0399 -0.1704 -0.1951
   46SOL    HW1  182   0.492   1.174   0.615  0.3121  3.2935 -2.7300
   46SOL    HW2  183   0.436   1.213   0.754  2.4613  0.9235  0.6820
   46SOL     MW  184   0.453   1.150   0.689  0.3953  0.4309 -0.4138
   47SOL     OW  185   0.126   2.026   1.946 -0.0221  0.2607  0.2102
   47SOL    HW1  186   0.154   1.945   1.894  0.3272 -1.4557 -0.1796
   47SOL    HW2  187   0.130   1.993   2.033  0.1160 -0.1226  2.4272
   47SOL     MW  188   0.131   2.011   1.951  0.0422 -0.0163  0.4513
   48SOL     OW  189   1.283   0.531   1.049 -0.1256  0.3118  0.2454
   48SOL    HW1  190   1.243   0.489   0.975  0.4993 -0.4459  3.2960
   48SOL    HW2  191   1.219   0.588   1.092 -0.2044  1.8532  1.4693
   48SOL     MW  192   1.270   0.533   1.045 -0.0536  0.4152  0.8094
   49SOL     OW  193   1.786   0.700   1.524  0.1834 -0.0239 -0.1703
   49SOL    HW1  194   1.822   0.637   1.585 -0.3038 -0.7607 -0.5935
   49SOL    HW2  195   1.797   0.667   1.432  2.4299 -0.9581 -1.4941
   49SOL     MW  196   1.792   0.687   1.520  0.4155 -0.2444 -0.4008
   50SOL     OW  197   1.247   1.262   0.602 -0.6098  0.7621 -0.6347
   50SOL    HW1  198   1.180   1.243   0.674  0.1812  0.1709 -2.3448
   50SOL    HW2  199   1.302   1.180   0.594 -1.6436 -2.4599 -0.1085
   50SOL     MW  200   1.246   1.249   0.610 -0.6419  0.2590 -0.7909
   51SOL     OW  201   0.319   2.892   0.876  0.1257 -0.0424  0.3740
   51SOL    HW1  202   0.404   2.847   0.872  0.3586  1.8795 -1.1015
   51SOL    HW2  203   0.301   2.914   0.967  0.4870 -0.5910  0.2769
   51SOL     MW  204   0.328   2.889   0.887  0.2041  0.1388  0.1665
   52SOL     OW  205   0.799   1.849   0.466 -0.0854  0.1417  0.0665
   52SOL    HW1  206   0.775   1.943   0.469  0.7846  0.4178  3.2644
   52SOL    HW2  207   0.818   1.825   0.374 -1.1028 -1.7391 -0.6426
   52SOL     MW  208   0.798   1.858   0.454 -0.1048 -0.0700  0.3949
   53SOL     OW  209   0.450   2.154   0.637 -0.3680 -0.1137 -0.6336
   53SOL    HW1  210   0.450   2.121   0.549  1.4506  0.0578  1.8573
   53SOL    HW2  211   0.458   2.247   0.619 -0.0258 -0.0792  0.8866
   53SOL     MW  212   0.451   2.162   0.623 -0.0829 -0.0865 -0.1044
   54SOL     OW  213   2.006   0.960   0.676 -0.6527 -0.5543 -0.2170
   54SOL    HW1  214   2.058   0.926   0.607 -3.3576 -1.4530 -0.7374
   54SOL    HW2  215   1.967   0.877   0.700 -0.7451  1.0240  1.5789
   54SOL     MW  216   2.008   0.944   0.670 -1.0218 -0.4646 -0.0487
   55SOL     OW  217   0.429   1.528   1.737 -0.0968 -0.2411  0.0825
   55SOL    HW1  218   0.375   1.567   1.666  0.9516  0.1608  0.1610
   55SOL    HW2  219   0.501   1.481   1.694  1.0875 -1.2741 -0.4779
   55SOL     MW  220   0.431   1.527   1.722  0.1978 -0.3244  0.0189
   56SOL     OW  221   0.691   0.902   0.211 -0.5810 -0.5841  0.1280
   56SOL    HW1  222   0.718   0.971   0.149 -0.2774 -1.7375  0.9760
   56SOL    HW2  223   0.600   0.882   0.191  2.0034 -0.5399 -1.4817
   56SOL     MW  224   0.682   0.908   0.200 -0.2000 -0.7304  0.0275
   57SOL     OW  225   1.083   1.338   1.199  0.7070  0.2861 -0.0933
   57SOL    HW1  226   1.176   1.356   1.199 -1.4794 -2.5712 -1.1972
   57SOL    HW2  227   1.067   1.258   1.252 -0.7376  0.4755 -0.6102
   57SOL     MW  228   1.093   1.330   1.206  0.2279 -0.0659 -0.3072
   58SOL     OW  229   0.416   1.243   1.291 -0.0529  0.4315 -0.6069
   58SOL    HW1  230   0.413   1.344   1.298  0.0585  0.1630 -0.9654
   58SOL    HW2  231   0.429   1.200   1.375 -0.0337 -2.2442 -0.3607
   58SOL     MW  232   0.418   1.251   1.303 -0.0357  0.0430 -0.6217
   59SOL     OW  233   1.489   1.679   0.400 -0.3208  0.3646  0.2205
   59SOL    HW1  234   1.546   1.737   0.445  0.1039  0.1149  0.5146
   59SOL    HW2  235   1.403   1.698   0.439  3.4499 -0.5507 -0.2409
   59SOL     MW  236   1.485   1.689   0.411  0.2328  0.2109  0.1984
   60SOL     OW  237   3.049   0.154   1.593 -0.0221  0.1821 -0.2503
   60SOL    HW1  238   2.961   0.192   1.589  2.5035 -0.7991  0.1620
   60SOL    HW2  239   3.062   0.123   1.679  1.2991  2.7307  0.5083
   60SOL     MW  240   3.039   0.155   1.604  0.4854  0.3889 -0.0958
   61SOL     OW  241   1.986   1.384   3.021  0.0023  0.1673  0.2708
   61SOL    HW1  242   1.944   1.381   3.107  3.3701  4.2716 -1.0630
   61SOL    HW2  243   2.055   1.312   3.026  1.2205 -2.5699 -0.6432
   61SOL     MW  244   1.990   1.374   3.033  0.6074  0.3477 -0.0258
   62SOL     OW  245   0.535   1.801   0.517 -0.1654 -0.2701 -0.0665
   62SOL    HW1  246   0.631   1.804   0.506  2.7004  0.6319  0.1078
   62SOL    HW2  247   0.515   1.708   0.530  0.4251  0.6750 -0.5793
   62SOL     MW  248   0.545   1.789   0.517  0.2906 -0.0264 -0.1112
   63SOL     OW  249   1.692   0.658   0.502 -0.1096 -0.1066 -0.3464
   63SOL    HW1  250   1.670   0.742   0.463 -0.1291 -0.6101 -1.1342
   63SOL    HW2  251   1.624   0.634   0.570 -0.6303 -0.0524 -1.8053
   63SOL     MW  252   1.680   0.666   0.506 -0.1808 -0.1659 -0.6428
   64SOL     OW  253   0.187   1.722   0.637 -0.1773  0.5553  0.3543
   64SOL    HW1  254   0.248   1.799   0.652  1.9783 -0.6657 -0.3301
   64SOL    HW2  255   0.098   1.729   0.684 -2.0212  1.9485 -0.0608
   64SOL     MW  256   0.183   1.733   0.645 -0.1362  0.5780  0.2092
   65SOL     OW  257   1.568   2.321   0.391 -0.0498 -0.2491 -0.4508
   65SOL    HW1  258   1.640   2.378   0.392 -0.8986 -0.9186 -0.1802
   65SOL    HW2  259   1.507   2.359   0.451  2.2101 -1.8713 -1.6732
   65SOL     MW  260   1.569   2.334   0.399  0.1364 -0.5514 -0.5764
   66SOL     OW  261   0.388   0.588   0.520 -0.0939 -0.0131 -0.3563
   66SOL    HW1  262   0.430   0.570   0.438 -0.0876  0.6089  0.6985
   66SOL    HW2  263   0.373   0.686   0.512 -1.5016  0.0099  0.3784
   66SOL     MW  264   0.392   0.599   0.508 -0.2788  0.0720 -0.1202
   67SOL     OW  265   1.361   0.101   1.944  0.4614 -0.0334  0.3169
   67SOL    HW1  266   1.400   0.123   1.860 -0.8295 -1.5858  0.7971
   67SOL    HW2  267   1.367   0.008   1.942  0.6856 -0.3365  0.5361
   67SOL     MW  268   1.367   0.092   1.932  0.3207 -0.2783  0.4092
   68SOL     OW  269   0.811   0.116   2.843  0.0158  0.4858  0.3313
   68SOL    HW1  270   0.781   0.198   2.808  1.1433  1.0599  0.1207
   68SOL    HW2  271   0.881   0.146   2.905  2.3283  0.1389 -1.0164
   68SOL     MW  272   0.816   0.131   2.847  0.4697  0.5158  0.1257
   69SOL     OW  273   1.079   0.269   1.963 -0.3224  0.5734  0.0198
   69SOL    HW1  274   1.163   0.290   2.012 -0.3463  1.5490  0.2925
   69SOL    HW2  275   1.032   0.201   2.022  1.0182  1.1060  0.6066
   69SOL     MW  276   1.084   0.263   1.977 -0.1487  0.7724  0.1332
   70SOL     OW  277   0.556   1.654   1.141  0.3598  0.1224  0.3351
   70SOL    HW1  278   0.635   1.702   1.156 -2.3342  3.2782 -2.5200
   70SOL    HW2  279   0.557   1.601   1.064 -0.4039 -2.5783  0.6446
   70SOL     MW  280   0.566   1.654   1.133 -0.0964  0.1824 -0.0008
   71SOL     OW  281   1.561   0.655   1.230  0.1909 -0.0243 -0.0288
   71SOL    HW1  282   1.518   0.724   1.283 -1.0191  1.3876  1.4343
   71SOL    HW2  283   1.551   0.682   1.138 -3.4770  0.8825 -3.4068
   71SOL     MW  284   1.554   0.668   1.225 -0.4527  0.2816 -0.2815
   72SOL     OW  285   0.783   1.815   1.089  0.1291 -0.2447  0.0378
   72SOL    HW1  286   0.795   1.888   1.028 -0.2716  1.0741  1.8529
   72SOL    HW2  287   0.857   1.755   1.083  3.1775  3.2026  1.5377
   72SOL     MW  288   0.794   1.817   1.080  0.4784  0.3842  0.4752
   73SOL     OW  289   1.083   0.704   1.156 -0.0600  0.2299  0.4725
   73SOL    HW1  290   1.016   0.642   1.190 -2.3419  2.3649  0.4284
   73SOL    HW2  291   1.108   0.759   1.240 -0.9582  0.7133  0.5534
   73SOL     MW  292   1.077   0.703   1.172 -0.4796  0.5753  0.4773
   74SOL     OW  293   2.814   0.132   0.985  0.0867  0.6915  0.2278
   74SOL    HW1  294   2.907   0.118   0.972 -0.0885 -0.7411 -1.7264
   74SOL    HW2  295   2.789   0.197   0.920  1.2129  0.7842  1.1846
   74SOL     MW  296   2.823   0.138   0.975  0.2122  0.5147  0.0962
   75SOL     OW  297   1.465   1.302   0.200  0.2910 -0.3499  0.1057
   75SOL    HW1  298   1.508   1.294   0.117 -1.6730 -1.4231  2.5733
   75SOL    HW2  299   1.532   1.297   0.268 -0.7055 -0.0935 -0.5656
   75SOL     MW  300   1.480   1.300   0.198 -0.0996 -0.4577  0.3427
   76SOL     OW  301   3.026   0.681   0.438  0.4052  0.0889  0.0097
   76SOL    HW1  302   3.046   0.729   0.520  2.6795  1.8403 -1.9138
   76SOL    HW2  303   3.100   0.617   0.441 -0.4217  1.3154  0.5874
   76SOL     MW  304   3.038   0.679   0.449  0.5962  0.4818 -0.1679
   77SOL     OW  305   0.868   0.601   0.440  0.0716  0.2529 -0.4066
   77SOL    HW1  306   0.843   0.642   0.359  0.4980  0.3456  0.6553
   77SOL    HW2  307   0.858   0.499   0.435 -1.5682 -0.4716 -0.3932
   77SOL     MW  308   0.864   0.593   0.429 -0.0885  0.1695 -0.2647
   78SOL     OW  309   0.747   0.865   1.117 -0.0661  0.0028  0.2898
   78SOL    HW1  310   0.746   0.951   1.077  0.2841  0.6660 -0.3157
   78SOL    HW2  311   0.651   0.852   1.140  0.7786  0.5078  1.6647
   78SOL     MW  312   0.734   0.875   1.115  0.0915  0.1569  0.3913
   79SOL     OW  313   1.940   1.504   0.596  0.4236 -0.0903 -0.1399
   79SOL    HW1  314   1.842   1.494   0.596  0.7355  0.8684 -0.0548
   79SOL    HW2  315   1.974   1.453   0.670  1.0582  4.3043  0.4013
   79SOL     MW  316   1.932   1.496   0.605  0.5485  0.6160 -0.0572
   80SOL     OW  317   0.231   0.978   0.254  0.0849 -0.5009 -0.9449
   80SOL    HW1  318   0.152   0.942   0.208 -0.9034 -0.9251  0.8025
   80SOL    HW2  319   0.256   0.909   0.319 -1.1461  0.4246 -0.0670
   80SOL     MW  320   0.224   0.964   0.257 -0.2079 -0.4348 -0.5985
   81SOL     OW  321   1.765   1.828   0.251  0.3293  0.1066 -0.4639
   81SOL    HW1  322   1.724   1.736   0.235 -0.3393  0.0009  0.7909
   81SOL    HW2  323   1.724   1.895   0.195  0.1760  2.1175 -1.9437
   81SOL     MW  324   1.754   1.824   0.241  0.2209  0.3579 -0.4936
   82SOL     OW  325   0.925   1.033   0.527 -0.3157  0.1556 -0.6007
   82SOL    HW1  326   0.861   1.088   0.474 -0.9506 -0.0370  1.0241
   82SOL    HW2  327   0.881   0.949   0.552 -2.0529  1.2817 -0.4241
   82SOL     MW  328   0.911   1.029   0.523 -0.6287  0.2788 -0.3630
   83SOL     OW  329   0.008   0.755   1.456 -0.6337  0.7555 -0.2838
   83SOL    HW1  330   0.020   0.811   1.381 -1.1928 -0.6660 -1.0223
   83SOL    HW2  331   0.047   0.670   1.434  0.3815  1.9045 -0.6946
   83SOL     MW  332   0.015   0.751   1.444 -0.5735  0.7196 -0.4354
   84SOL     OW  333   0.004   0.181   0.921  0.1519 -0.4820 -0.4836
   84SOL    HW1  334   0.029   0.266   0.962  0.5728  0.3610 -0.4651
   84SOL    HW2  335   0.006   0.113   0.992 -1.6097 -1.6536  2.4262
   84SOL     MW  336   0.007   0.183   0.936 -0.0250 -0.5254 -0.0972
   85SOL     OW  337   0.407   0.475   0.759  1.1888  0.6129 -0.1061
   85SOL    HW1  338   0.393   0.512   0.669 -0.2671  0.8613 -1.8240
   85SOL    HW2  339   0.361   0.389   0.761  1.9303 -1.7869 -0.1759
   85SOL     MW  340   0.399   0.469   0.747  1.0946  0.3291 -0.3420
   86SOL     OW  341   1.291   0.227   1.206  0.2924 -0.3160 -0.2120
   86SOL    HW1  342   1.251   0.303   1.160 -0.7212 -0.9504  1.8022
   86SOL    HW2  343   1.385   0.254   1.221 -0.1626 -0.6412  1.6605
   86SOL     MW  344   1.298   0.240   1.202  0.0986 -0.4426  0.3008
   87SOL     OW  345   0.946   1.576   1.199  0.1317 -0.2411  0.2697
   87SOL    HW1  346   1.028   1.631   1.188  0.0167 -2.6282  0.7043
   87SOL    HW2  347   0.984   1.491   1.225 -0.5850 -0.4917 -0.3271
   87SOL     MW  348   0.962   1.572   1.201  0.0219 -0.5891  0.2483
   88SOL     OW  349   1.202   1.119   1.029  0.1037  0.1126  0.5630
   88SOL    HW1  350   1.295   1.126   1.022  0.6983  1.5950 -1.5259
   88SOL    HW2  351   1.180   1.169   1.106  2.1648  0.7453  0.0682
   88SOL     MW  352   1.211   1.126   1.038  0.4541  0.3916  0.2221
   89SOL     OW  353   1.789   0.714   0.224 -0.1193 -0.2681  0.0551
   89SOL    HW1  354   1.752   0.645   0.284 -2.0118 -2.0085 -1.0264
   89SOL    HW2  355   1.878   0.735   0.267  0.2966 -1.1126  0.8419
   89SOL     MW  356   1.796   0.708   0.238 -0.3141 -0.6092  0.0162
   90SOL     OW  357   0.728   1.178   2.758 -0.3056  0.0508 -0.3345
   90SOL    HW1  358   0.726   1.085   2.757 -0.5986 -1.4060  1.6186
   90SOL    HW2  359   0.772   1.210   2.834  0.2729  1.7329 -2.4400
   90SOL     MW  360   0.734   1.170   2.768 -0.2680  0.0805 -0.3546
   91SOL     OW  361   2.227   0.623   0.541 -0.6038 -0.1686  0.3559
   91SOL    HW1  362   2.279   0.697   0.516 -0.2746 -0.8225  0.6783
   91SOL    HW2  363   2.269   0.560   0.484  1.8876  2.2102  0.7789
   91SOL     MW  364   2.239   0.624   0.530 -0.2316  0.0590  0.4543
   92SOL     OW  365   1.640   0.941   0.496 -0.6550 -0.2251 -0.2546
   92SOL    HW1  366   1.556   0.967   0.538 -0.2376 -0.1137 -0.0100
   92SOL    HW2  367   1.639   0.962   0.398 -1.2685  0.9412 -0.2820
   92SOL     MW  368   1.629   0.947   0.489 -0.6809 -0.0566 -0.2260
   93SOL     OW  369   1.103   0.213   0.387  0.2468 -0.1270 -0.0749
   93SOL    HW1  370   1.018   0.252   0.405 -1.2814 -0.5971  3.1936
   93SOL    HW2  371   1.124   0.250   0.301  1.2745 -0.6080  0.2840
   93SOL     MW  372   1.094   0.223   0.378  0.1808 -0.2525  0.4037
   94SOL     OW  373   1.891   1.374   1.538 -0.4466 -0.2528 -0.0254
   94SOL    HW1  374   1.873   1.379   1.442  0.6020 -1.4937 -2.1944
   94SOL    HW2  375   1.829   1.300   1.575  0.0476 -2.4254  0.1793
   94SOL     MW  376   1.881   1.365   1.530 -0.2430 -0.7032 -0.2846
   95SOL     OW  377   0.626   1.499   0.924 -0.0674  0.1271 -0.3445
   95SOL    HW1  378   0.714   1.461   0.940  2.6921 -0.9245  2.3656
   95SOL    HW2  379   0.571   1.427   0.887  1.6477  0.3251 -0.5689
   95SOL     MW  380   0.630   1.484   0.921  0.5230  0.0145 -0.0165
   96SOL     OW  381   1.298   1.814   1.747  0.1206 -0.6394  0.3938
   96SOL    HW1  382   1.234   1.841   1.812 -0.0197 -0.3818  2.3523
   96SOL    HW2  383   1.268   1.727   1.721 -0.3482 -1.0599 -1.1845
   96SOL     MW  384   1.286   1.806   1.752  0.0403 -0.6609  0.4440
   97SOL     OW  385   1.086   1.552   0.846  0.6779  0.2561  0.0330
   97SOL    HW1  386   1.097   1.619   0.909  2.6821 -1.7428 -0.1055
   97SOL    HW2  387   0.993   1.552   0.821  0.0616 -1.9540 -0.3564
   97SOL     MW  388   1.075   1.561   0.851  0.8610 -0.2992 -0.0366
   98SOL     OW  389   1.376   1.415   1.220  0.0463  0.0342  0.1283
   98SOL    HW1  390   1.446   1.438   1.277  1.2469  1.1402 -0.1280
   98SOL    HW2  391   1.420   1.412   1.136 -2.1243  2.5303 -0.2234
   98SOL     MW  392   1.391   1.418   1.217 -0.0817  0.5095  0.0481
   99SOL     OW  393   1.549   0.348   1.292 -0.3062  0.2062  0.0384
   99SOL    HW1  394   1.562   0.428   1.248  0.6071  1.4548  1.8283
   99SOL    HW2  395   1.487   0.362   1.365  0.8949  0.2355 -1.5971
   99SOL     MW  396   1.542   0.361   1.296 -0.0273  0.3748  0.0588
  100SOL     OW  397   1.062   1.133   1.381 -0.2665 -0.5880 -0.2790
  100SOL    HW1  398   1.062   1.192   1.455  0.0403 -0.9299 -1.4376
  100SOL    HW2  399   1.044   1.052   1.418 -1.8082  1.1917 -2.0520
  100SOL     MW  400   1.060   1.130   1.396 -0.4294 -0.3983 -0.6658
  101SOL     OW  401   0.559   1.259   0.467  0.1401  0.5865 -0.4552
  101SOL    HW1  402   0.502   1.199   0.418  0.2271 -1.7373 -0.3360
  101SOL    HW2  403   0.647   1.235   0.461 -0.2989 -0.2654  2.5998
  101SOL     MW  404   0.563   1.248   0.460  0.0936  0.1675 -0.0364
  102SOL     OW  405   2.908   0.599   1.025  0.1542 -0.2679 -0.3035
  102SOL    HW1  406   2.967   0.685   1.026  2.2462  1.0872  0.1650
  102SOL    HW2  407   2.856   0.600   1.108  1.1317 -0.2767 -2.1079
  102SOL     MW  408   2.909   0.611   1.036  0.5592 -0.0903 -0.4797
  103SOL     OW  409   1.890   0.277   1.794 -0.0770  0.4608  0.4262
  103SOL    HW1  410   1.882   0.183   1.790 -0.1746  0.2426  0.9644
  103SOL    HW2  411   1.862   0.297   1.881  0.7529 -0.8737 -0.3782
  103SOL     MW  412   1.885   0.267   1.805  0.0196  0.2559  0.3911
  104SOL     OW  413   0.060   1.543   1.676  0.2937 -0.0529  0.2564
  104SOL    HW1  414   0.108   1.467   1.707 -1.1819 -1.9071  1.6360
  104SOL    HW2  415  -0.029   1.518   1.678  0.4945 -2.3637  0.1877
  104SOL     MW  416   0.055   1.529   1.680  0.1255 -0.6024  0.4293
  105SOL     OW  417   0.146   1.206   0.446  0.3922  0.1436  0.8742
  105SOL    HW1  418   0.175   1.130   0.395  0.6622 -0.7049 -0.3407
  105SOL    HW2  419   0.186   1.287   0.412 -1.1039  1.0810 -1.5504
  105SOL     MW  420   0.155   1.206   0.435  0.2305  0.1553  0.3940
  106SOL     OW  421   0.850   0.249   0.884 -0.6114  0.7969  0.4917
  106SOL    HW1  422   0.792   0.327   0.871 -0.4113  0.2779 -1.0179
  106SOL    HW2  423   0.935   0.292   0.866 -0.2420 -0.0608  1.7723
  106SOL     MW  424   0.854   0.265   0.880 -0.5363  0.6152  0.4614
  107SOL     OW  425   0.808   2.138   2.889  0.2501 -0.7755  0.4008
  107SOL    HW1  426   0.715   2.106   2.895 -1.1045 -1.2626 -1.1822
  107SOL    HW2  427   0.849   2.112   2.977  0.4305 -2.9062  2.2168
  107SOL     MW  428   0.801   2.130   2.902  0.0952 -1.1209  0.4315
  108SOL     OW  429   1.316   1.538   1.669 -0.5980  0.0971  1.1490
  108SOL    HW1  430   1.286   1.509   1.588  3.8692  0.4391 -1.5092
  108SOL    HW2  431   1.411   1.543   1.668  0.4413  1.0986 -2.5860
  108SOL     MW  432   1.325   1.535   1.658  0.1285  0.2744  0.3055
  109SOL     OW  433   2.022   0.751   0.358  0.4631  0.1248 -0.7310
  109SOL    HW1  434   2.021   0.844   0.369 -1.4945 -1.5896  0.1878
  109SOL    HW2  435   2.013   0.710   0.445  0.6410 -0.2248  0.6784
  109SOL     MW  436   2.021   0.758   0.371  0.2283 -0.1475 -0.4238
  110SOL     OW  437   0.387   1.910   0.713 -0.1918  0.0428 -0.8597
  110SOL    HW1  438   0.449   1.865   0.655 -1.4879 -0.0751  0.8563
  110SOL    HW2  439   0.392   2.001   0.688 -1.9517 -0.4188 -0.3936
  110SOL     MW  440   0.396   1.916   0.702 -0.5950 -0.0336 -0.5718
  111SOL     OW  441   0.849   0.849   1.368  0.1259  0.0563 -0.1031
  111SOL    HW1  442   0.837   0.838   1.271 -1.9861 -1.6448 -1.2126
  111SOL    HW2  443   0.791   0.789   1.418  0.2704  2.3207  3.0665
  111SOL     MW  444   0.839   0.840   1.362 -0.1337  0.1307  0.1687
  112SOL     OW  445   1.299   1.177   1.662  0.3838  0.4992  0.2809
  112SOL    HW1  446   1.212   1.222   1.657 -1.7131  2.6208 -0.6723
  112SOL    HW2  447   1.282   1.086   1.635 -2.4532  0.4233 -0.6014
  112SOL     MW  448   1.285   1.171   1.657 -0.2672  0.7691  0.0387
  113SOL     OW  449   1.252   3.000   1.709  0.1618  0.1182  0.0255
  113SOL    HW1  450   1.277   2.954   1.792  1.4902  0.4758  0.2236
  113SOL    HW2  451   1.215   2.937   1.643 -2.4862  1.3216 -0.7543
  113SOL     MW  452   1.250   2.985   1.712 -0.0123  0.3242 -0.0512
  114SOL     OW  453   0.326   2.883   1.842 -0.2451 -0.0401 -0.1593
  114SOL    HW1  454   0.421   2.888   1.829  1.1417 -1.7564  1.8902
  114SOL    HW2  455   0.313   2.918   1.927  1.0300 -1.7882 -0.7272
  114SOL     MW  456   0.337   2.888   1.851  0.1062 -0.4972  0.0362
  115SOL     OW  457   0.491   0.854   1.164 -0.6888 -0.6190 -0.0376
  115SOL    HW1  458   0.471   0.771   1.117 -0.7708 -0.3231  0.4196
  115SOL    HW2  459   0.422   0.868   1.229  2.4110  0.8804 -1.3470
  115SOL     MW  460   0.480   0.845   1.166 -0.2906 -0.3821 -0.1501
  116SOL     OW  461   0.736   1.102   0.977  0.5433  0.1517 -0.1033
  116SOL    HW1  462   0.766   1.147   0.896  0.1013  0.6292 -1.0036
  116SOL    HW2  463   0.748   1.161   1.057 -0.7995  0.2159  1.4664
  116SOL     MW  464   0.742   1.116   0.977  0.3078  0.2232 -0.0150
  117SOL     OW  465   1.078   1.278   0.816 -0.4064  0.4214  0.6242
  117SOL    HW1  466   1.124   1.228   0.879 -1.0971 -0.0241  1.5690
  117SOL    HW2  467   1.091   1.371   0.829  0.3856 -0.1449 -2.0735
  117SOL     MW  468   1.085   1.284   0.826 -0.3930  0.2879  0.3930
  118SOL     OW  469   3.056   2.921   1.857 -0.7712 -0.4356  0.0949
  118SOL    HW1  470   3.075   2.979   1.936  0.6514  2.6475  2.0735
  118SOL    HW2  471   2.980   2.964   1.812 -0.7219  2.1153  1.1925
  118SOL     MW  472   3.048   2.934   1.861 -0.5770  0.3078  0.5008
  119SOL     OW  473   0.389   1.509   1.288  0.1794 -0.4027  0.3154
  119SOL    HW1  474   0.429   1.583   1.239 -0.2644  0.6293  0.1523
  119SOL    HW2  475   0.304   1.503   1.240 -1.4678  0.3119  1.1129
  119SOL     MW  476   0.383   1.518   1.275 -0.0965 -0.1723  0.3991
  120SOL     OW  477   0.287   0.844   0.966 -0.6417 -0.9931  0.4957
  120SOL    HW1  478   0.287   0.887   1.048  0.4170 -0.3395 -0.3586
  120SOL    HW2  479   0.377   0.842   0.932 -0.8448 -0.9644 -0.1420
  120SOL     MW  480   0.299   0.849   0.972 -0.5288 -0.9031  0.2988
  121SOL     OW  481   1.749   1.152   1.623 -0.3448 -0.1359  0.1390
  121SOL    HW1  482   1.675   1.148   1.559 -1.1842  0.9626 -1.3185
  121SOL    HW2  483   1.812   1.085   1.594  1.3455  1.8153 -0.5166
  121SOL     MW  484   1.748   1.143   1.611 -0.2325  0.2665 -0.1398
  122SOL     OW  485   0.179   0.631   0.804  0.0820  0.2901 -0.1961
  122SOL    HW1  486   0.267   0.585   0.792  0.9917  0.7598  3.0552
  122SOL    HW2  487   0.201   0.704   0.862  2.0863  0.2297  0.8423
  122SOL     MW  488   0.193   0.634   0.810  0.4665  0.3441  0.3699
  123SOL     OW  489   1.821   1.130   0.550  0.0381  0.4513 -0.3100
  123SOL    HW1  490   1.746   1.072   0.537  0.5618 -1.6820  0.3217
  123SOL    HW2  491   1.884   1.063   0.587 -1.5427 -0.6053 -1.0626
  123SOL     MW  492   1.820   1.114   0.553 -0.1014  0.0304 -0.3259
  124SOL     OW  493   0.685   0.480   0.814  0.4610 -0.2629  0.3240
  124SOL    HW1  494   0.594   0.492   0.791 -1.7701 -0.0711  0.4342
  124SOL    HW2  495   0.721   0.570   0.807 -0.2643  0.8281  0.8945
  124SOL     MW  496   0.678   0.493   0.810  0.0710 -0.0937  0.4138
  125SOL     OW  497   0.640   1.766   1.749 -0.6699 -0.1580  0.6041
  125SOL    HW1  498   0.662   1.731   1.664 -2.0266  1.5989 -1.2647
  125SOL    HW2  499   0.609   1.859   1.731 -0.7389 -0.6946  1.0866
  125SOL     MW  500   0.639   1.773   1.735 -0.8580  0.0030  0.4212
  126SOL     OW  501   2.092   1.568   1.844  0.1258  0.1577 -0.6496
  126SOL    HW1  502   2.124   1.663   1.856 -0.2160  0.9524 -0.4376
  126SOL    HW2  503   2.146   1.511   1.898 -0.2022 -0.3556 -0.6351
  126SOL     MW  504   2.103   1.573   1.852  0.0374  0.1949 -0.6197
  127SOL     OW  505   0.554   0.793   1.850  0.6675 -0.0064 -0.0335
  127SOL    HW1  506   0.652   0.801   1.848 -1.1414 -4.0460  1.0327
  127SOL    HW2  507   0.508   0.830   1.929  0.6345  0.9568  1.8174
  127SOL     MW  508   0.561   0.799   1.860  0.4245 -0.4123  0.3514
  128SOL     OW  509   1.738   0.736   2.869 -0.3662 -0.0046  0.2029
  128SOL    HW1  510   1.798   0.714   2.798 -1.0098  1.1960  0.5093
  128SOL    HW2  511   1.753   0.831   2.891 -0.8745  0.4968  0.0840
  128SOL     MW  512   1.748   0.745   2.863 -0.5182  0.2200  0.2277
  129SOL     OW  513   1.625   0.947   0.190 -0.4693 -0.1174  0.6999
  129SOL    HW1  514   1.550   0.891   0.188  0.4943 -2.8890  1.4828
  129SOL    HW2  515   1.695   0.885   0.182  2.3205  0.7884  1.8842
  129SOL     MW  516   1.625   0.931   0.189  0.0259 -0.3636  0.9594
  130SOL     OW  517   0.872   1.464   0.385 -0.0167  0.2441  0.0996
  130SOL    HW1  518   0.833   1.454   0.474 -3.3389  1.5979  0.3512
  130SOL    HW2  519   0.967   1.481   0.399  3.1209 -0.0369  1.6702
  130SOL     MW  520   0.879   1.465   0.398 -0.0411  0.3857  0.3400
  131SOL     OW  521   0.047   0.837   0.063  0.0186 -0.1955  0.4882
  131SOL    HW1  522   0.040   0.851  -0.031 -2.0549 -2.4314 -1.2022
  131SOL    HW2  523   0.096   0.752   0.071  1.3193  3.3899  0.8579
  131SOL     MW  524   0.052   0.828   0.052 -0.0834 -0.0175  0.3140
  132SOL     OW  525   2.684   0.087   1.228 -0.0819  0.5309 -0.2530
  132SOL    HW1  526   2.737   0.084   1.145 -0.9625 -0.8946 -0.7106
  132SOL    HW2  527   2.609   0.030   1.194  1.3609  0.8413 -1.0106
  132SOL     MW  528   2.681   0.079   1.212 -0.0077  0.3838 -0.4133
  133SOL     OW  529   1.088   0.139   1.733 -0.0819  0.1304  0.0473
  133SOL    HW1  530   1.139   0.056   1.744  1.9345  0.7791 -1.0476
  133SOL    HW2  531   1.099   0.193   1.812  0.6591 -1.7002 -0.7776
  133SOL     MW  532   1.096   0.135   1.745  0.2819 -0.0256 -0.2060
  134SOL     OW  533   1.395   2.469   1.482 -0.5338 -0.3461 -0.0837
  134SOL    HW1  534   1.348   2.546   1.439 -0.0366  0.5484  0.7103
  134SOL    HW2  535   1.429   2.498   1.570  1.9235  1.0336  3.7835
  134SOL     MW  536   1.393   2.483   1.488 -0.1440 -0.0460  0.5313
  135SOL     OW  537   2.974   1.003   2.909 -0.2830  0.2614 -0.4091
  135SOL    HW1  538   3.044   1.052   2.943 -1.5711 -1.6298 -2.3764
  135SOL    HW2  539   2.900   1.069   2.905 -1.7770 -2.4255  1.2988
  135SOL     MW  540   2.973   1.018   2.913 -0.6500 -0.3426 -0.4433
  136SOL     OW  541   0.147   1.990   0.833  0.0232  0.0294  0.1354
  136SOL    HW1  542   0.073   1.932   0.848 -0.0545 -1.7844 -2.6922
  136SOL    HW2  543   0.215   1.938   0.798  2.5364  2.6347  0.0783
  136SOL     MW  544   0.146   1.975   0.830  0.3445  0.1338 -0.2452
  137SOL     OW  545   0.733   2.094   0.639 -0.3143 -0.1611  0.2461
  137SOL    HW1  546   0.741   2.065   0.731 -0.9670 -2.1188  1.3399
  137SOL    HW2  547   0.640   2.121   0.637  0.7809 -0.3274  0.2951
  137SOL     MW  548   0.722   2.094   0.651 -0.2559 -0.4414  0.3969
  138SOL     OW  549   0.524   0.610   1.030 -0.0723 -0.5082 -0.2984
  138SOL    HW1  550   0.452   0.552   1.003 -2.7424  2.1065 -0.4720
  138SOL    HW2  551   0.598   0.581   0.989  1.0966 -0.2357 -0.6114
  138SOL     MW  552   0.524   0.598   1.021 -0.2703 -0.1273 -0.3626
  139SOL     OW  553   2.804   0.475   1.312 -0.8748  0.0006 -0.4687
  139SOL    HW1  554   2.903   0.453   1.299  1.6427 -0.0681  0.6322
  139SOL    HW2  555   2.811   0.543   1.383  1.4484 -1.1230 -0.4384
  139SOL     MW  556   2.818   0.481   1.320 -0.2361 -0.1567 -0.3194
  140SOL     OW  557   0.875   0.473   1.966 -0.2292 -0.4559  0.3686
  140SOL    HW1  558   0.951   0.413   1.953  1.3735  0.1178 -1.6072
  140SOL    HW2  559   0.844   0.453   2.051  0.5332 -1.6858  3.2116
  140SOL     MW  560   0.881   0.463   1.976  0.0829 -0.5425  0.4831
  141SOL     OW  561   1.133   0.680   1.718 -0.0535 -0.3002  0.0994
  141SOL    HW1  562   1.130   0.603   1.650  2.2345  1.3689 -1.8933
  141SOL    HW2  563   1.206   0.658   1.782  1.8792 -0.4811  2.0590
  141SOL     MW  564   1.142   0.667   1.718  0.5034 -0.1039  0.0950
  142SOL     OW  565   0.830   1.207   0.730  0.6609  0.0848  0.6270
  142SOL    HW1  566   0.834   1.145   0.660 -0.1386 -0.8598 -0.9001
  142SOL    HW2  567   0.925   1.213   0.757  1.3422  1.5959 -1.7324
  142SOL     MW  568   0.843   1.200   0.724  0.6453  0.1595  0.1142
  143SOL     OW  569   1.795   0.847   1.003 -0.4059  0.8559 -0.8774
  143SOL    HW1  570   1.842   0.780   0.962  0.7337 -0.0992 -1.9993
  143SOL    HW2  571   1.710   0.842   0.960 -3.2476  1.6750 -0.7630
  143SOL     MW  572   1.790   0.838   0.991 -0.6305  0.8380 -1.0103
  144SOL     OW  573   0.231   1.334   1.747 -0.4933 -0.1433 -0.4111
  144SOL    HW1  574   0.300   1.393   1.765 -2.1352 -2.3163  1.7544
  144SOL    HW2  575   0.184   1.324   1.827  1.1408  0.4956  2.3461
  144SOL     MW  576   0.234   1.341   1.760 -0.4943 -0.3457  0.2384
  145SOL     OW  577   0.239   0.478   1.192  0.7819 -0.5072 -0.0986
  145SOL    HW1  578   0.280   0.393   1.213  1.4382  0.6624  0.1962
  145SOL    HW2  579   0.175   0.469   1.119 -1.7542  1.5502  0.0636
  145SOL     MW  580   0.236   0.466   1.185  0.5339 -0.0814 -0.0383
  146SOL     OW  581   0.806   1.966   1.539  0.5254  0.1038 -0.9857
  146SOL    HW1  582   0.858   1.985   1.457  1.0827 -0.4241  0.9674
  146SOL    HW2  583   0.765   1.884   1.512  1.3658  0.6671 -1.0974
  146SOL     MW  584   0.808   1.958   1.524  0.7098  0.1085 -0.7428
  147SOL     OW  585   0.387   0.523   3.001 -0.1005  0.6950 -0.1220
  147SOL    HW1  586   0.306   0.513   3.059 -0.6813 -0.9788 -0.7591
  147SOL    HW2  587   0.366   0.594   2.935 -2.1116 -0.0536  0.2120
  147SOL     MW  588   0.373   0.531   3.000 -0.4424  0.3753 -0.1620
  148SOL     OW  589   0.052   0.920   1.268  0.2801  1.0954 -0.2022
  148SOL    HW1  590   0.142   0.902   1.294  1.7105 -1.3319 -0.0473
  148SOL    HW2  591   0.040   1.013   1.285 -0.0216 -0.9346 -0.8042
  148SOL     MW  592   0.062   0.930   1.273  0.4290  0.5073 -0.2612
  149SOL     OW  593   1.542   1.183   1.458  0.5126 -0.0546 -0.0231
  149SOL    HW1  594   1.469   1.187   1.525 -1.8635  1.0106  4.0633
  149SOL    HW2  595   1.545   1.277   1.433 -1.4003  0.9955 -0.0976
  149SOL     MW  596   1.533   1.196   1.464 -0.0533  0.2245  0.5062
  150SOL     OW  597   1.715   1.419   0.878 -0.3177 -0.5795 -0.1120
  150SOL    HW1  598   1.773   1.340   0.880 -2.0312 -4.1036 -0.5371
  150SOL    HW2  599   1.773   1.492   0.851 -0.0461  0.8713  0.2852
  150SOL     MW  600   1.731   1.418   0.875 -0.5079 -0.8531 -0.1157
  151SOL     OW  601   1.601   1.824   0.785  0.0789 -0.1277 -0.4642
  151SOL    HW1  602   1.593   1.873   0.707  0.1463 -3.1922 -0.5122
  151SOL    HW2  603   1.527   1.766   0.785 -2.9916  0.3293 -1.5439
  151SOL     MW  604   1.590   1.823   0.775 -0.3173 -0.4717 -0.6130
  152SOL     OW  605   0.640   1.390   1.628  0.1715  0.5545  0.1457
  152SOL    HW1  606   0.689   1.431   1.550 -0.7210 -2.4774 -2.9265
  152SOL    HW2  607   0.606   1.305   1.601  0.7823  2.9132  2.0028
  152SOL     MW  608   0.642   1.384   1.614  0.1343  0.4657 -0.0146
  153SOL     OW  609   2.634   1.242   0.718  0.4271  0.3646 -0.2380
  153SOL    HW1  610   2.699   1.190   0.675 -0.4805  0.8439  3.2756
  153SOL    HW2  611   2.559   1.175   0.718  2.6176  1.2745  3.0955
  153SOL     MW  612   2.633   1.226   0.713  0.5964  0.5479  0.6654
  154SOL     OW  613   0.158   1.798   1.783  0.3548 -0.2009  0.1868
  154SOL    HW1  614   0.126   1.703   1.772 -2.1486 -0.3255 -1.3506
  154SOL    HW2  615   0.243   1.776   1.817 -0.4502  0.9747 -1.8433
  154SOL     MW  616   0.165   1.783   1.786 -0.0817 -0.0622 -0.2839
  155SOL     OW  617   1.170   0.721   0.285  0.5248 -0.0684  0.1916
  155SOL    HW1  618   1.179   0.685   0.367  0.1256  1.3588 -2.6432
  155SOL    HW2  619   1.142   0.815   0.305 -0.8031  2.2545  0.6883
  155SOL     MW  620   1.168   0.729   0.298  0.2969  0.4264 -0.1169
  156SOL     OW  621   1.582   3.087   1.108  0.1906 -0.1844 -0.4026
  156SOL    HW1  622   1.619   3.143   1.185  0.8100  1.6444  2.1159
  156SOL    HW2  623   1.608   3.000   1.134  1.0408  0.8699 -1.3856
  156SOL     MW  624   1.590   3.083   1.122  0.3845  0.1960 -0.2000
  157SOL     OW  625   1.298   1.090   0.178  0.6056 -0.2965  0.3817
  157SOL    HW1  626   1.268   1.046   0.258 -0.0072  0.7162  0.5194
  157SOL    HW2  627   1.350   1.161   0.211 -0.3107 -1.5280  1.1557
  157SOL     MW  628   1.301   1.093   0.193  0.4038 -0.3254  0.5020
  158SOL     OW  629   0.284   1.613   2.360 -0.3281 -0.4041  0.2470
  158SOL    HW1  630   0.235   1.614   2.282 -0.2978 -0.3139  1.5105
  158SOL    HW2  631   0.252   1.696   2.390  1.3198  1.1342 -3.8334
  158SOL     MW  632   0.273   1.624   2.353 -0.1067 -0.1892 -0.1247
  159SOL     OW  633   1.231   1.724   0.486  0.2444 -0.0698 -0.0887
  159SOL    HW1  634   1.191   1.656   0.426 -0.1769  0.3699 -1.5922
  159SOL    HW2  635   1.164   1.751   0.555 -3.3976 -1.1066 -0.5778
  159SOL     MW  636   1.217   1.719   0.487 -0.2917 -0.1486 -0.3516
  160SOL     OW  637   0.496   1.163   1.543 -0.1941 -0.4212 -0.2790
  160SOL    HW1  638   0.467   1.098   1.605  0.7549 -0.8409 -3.1739
  160SOL    HW2  639   0.565   1.122   1.493  0.8769 -2.4453 -0.3470
  160SOL     MW  640   0.501   1.149   1.545  0.0724 -0.7436 -0.6699
  161SOL     OW  641   0.506   2.295   2.668  0.1333  0.9176 -0.1243
  161SOL    HW1  642   0.419   2.288   2.641  2.9319 -1.7884 -0.2624
  161SOL    HW2  643   0.546   2.226   2.612  0.4680 -2.4017 -3.1385
  161SOL     MW  644   0.500   2.285   2.657  0.5467  0.1226 -0.5402
  162SOL     OW  645   1.069   1.797   1.894 -0.4118 -0.0635  0.5758
  162SOL    HW1  646   1.096   1.885   1.910 -0.1741 -1.1495  3.0359
  162SOL    HW2  647   0.979   1.816   1.919  0.2970 -1.4097  2.3980
  162SOL     MW  648   1.060   1.811   1.899 -0.2869 -0.3844  1.1408
  163SOL     OW  649   2.049   3.075   0.830 -0.3626  0.4184  0.4649
  163SOL    HW1  650   2.031   3.149   0.771  1.6206 -1.8904  1.2688
  163SOL    HW2  651   1.974   3.017   0.831  0.2399  3.1679  0.4987
  163SOL     MW  652   2.036   3.077   0.822 -0.0215  0.4766  0.5754
  164SOL     OW  653   0.259   0.228   0.802  0.0411 -0.1719 -0.1960
  164SOL    HW1  654   0.163   0.225   0.803  1.1108 -1.0237 -0.3248
  164SOL    HW2  655   0.290   0.145   0.761  0.2257  0.2039 -2.2473
  164SOL     MW  656   0.251   0.217   0.797  0.2066 -0.2347 -0.4836
  165SOL     OW  657   1.105   1.255   0.302 -0.2519  0.2255 -0.4417
  165SOL    HW1  658   1.115   1.244   0.399 -0.9699 -1.0359 -0.7786
  165SOL    HW2  659   1.149   1.177   0.279  1.9606 -1.2001 -0.5320
  165SOL     MW  660   1.112   1.243   0.312 -0.0547 -0.1291 -0.4981
  166SOL     OW  661   0.338   1.171   1.030  0.3993 -0.1144 -0.3702
  166SOL    HW1  662   0.360   1.162   1.125 -1.0575 -1.3017 -0.3799
  166SOL    HW2  663   0.249   1.136   1.009 -2.5060  1.7814 -0.6339
  166SOL     MW  664   0.329   1.165   1.040 -0.1762 -0.0209 -0.4063
  167SOL     OW  665   0.815   1.199   0.360  0.3413  0.5848 -0.1793
  167SOL    HW1  666   0.845   1.289   0.349  1.2832  3.1100 -4.0181
  167SOL    HW2  667   0.861   1.160   0.285  2.6181  1.0786  0.5024
  167SOL     MW  668   0.825   1.205   0.348  0.7660  0.9831 -0.5959
  168SOL     OW  669   1.720   1.656   3.047  0.3271  0.3724 -0.2908
  168SOL    HW1  670   1.654   1.723   3.027  0.1252 -1.8733 -3.5647
  168SOL    HW2  671   1.710   1.578   2.985  2.5107 -1.0140  0.8553
  168SOL     MW  672   1.710   1.654   3.037  0.5886 -0.1069 -0.5716
  169SOL     OW  673   0.284   0.849   1.393  0.0293 -0.7515  1.1582
  169SOL    HW1  674   0.250   0.769   1.424 -0.1837  1.2438 -1.7930
  169SOL    HW2  675   0.301   0.893   1.476  0.7696  3.3957  0.0806
  169SOL     MW  676   0.282   0.844   1.408  0.0989  0.0590  0.6267
  170SOL     OW  677   1.050   1.561   1.486 -0.2064 -0.5558  0.3142
  170SOL    HW1  678   1.019   1.631   1.553  0.4586 -2.2823  0.9848
  170SOL    HW2  679   1.009   1.572   1.404  0.4008 -1.4768 -1.7703
  170SOL     MW  680   1.041   1.572   1.484 -0.0385 -0.9051  0.1276
  171SOL     OW  681   0.452   1.553   0.537 -0.3266  0.4729  0.5401
  171SOL    HW1  682   0.381   1.555   0.470  1.0874  0.0628  2.4198
  171SOL    HW2  683   0.424   1.513   0.619 -1.1094 -2.0019  1.8721
  171SOL     MW  684   0.439   1.548   0.539 -0.2433  0.0923  0.9639
  172SOL     OW  685   0.775   0.286   1.281 -0.9485  0.0903 -0.6390
  172SOL    HW1  686   0.772   0.226   1.210  2.8970  2.4079 -1.2618
  172SOL    HW2  687   0.811   0.235   1.356 -2.2823 -4.4623 -0.6299
  172SOL     MW  688   0.779   0.271   1.281 -0.6171 -0.2046 -0.7200
  173SOL     OW  689   0.472   1.768   0.268 -0.2716 -0.2027 -0.1430
  173SOL    HW1  690   0.517   1.683   0.263 -0.3542  0.2053 -0.4891
  173SOL    HW2  691   0.477   1.793   0.364  0.8858  1.9233 -0.5798
  173SOL     MW  692   0.478   1.760   0.280 -0.1298  0.1317 -0.2463
  174SOL     OW  693   1.883   0.945   1.493 -0.8088  0.2312  0.6331
  174SOL    HW1  694   1.846   0.859   1.525  1.6898 -3.4222  1.0580
  174SOL    HW2  695   1.857   0.966   1.401 -2.9348  0.5656 -0.2234
  174SOL     MW  696   1.875   0.936   1.485 -0.7596 -0.2067  0.5762
  175SOL     OW  697   0.590   1.514   0.249 -0.3296  0.3776  0.5506
  175SOL    HW1  698   0.585   1.446   0.311  0.7690 -0.5483 -4.1990
  175SOL    HW2  699   0.677   1.542   0.235 -1.1219 -1.1244 -0.6128
  175SOL     MW  700   0.601   1.509   0.255 -0.2892  0.0572 -0.2296
  176SOL     OW  701   0.123   1.496   1.162 -0.4096 -0.2125 -0.3483
  176SOL    HW1  702   0.108   1.442   1.081 -0.3394  0.4125  0.6582
  176SOL    HW2  703   0.045   1.480   1.209  0.5019  0.9322  1.7181
  176SOL     MW  704   0.110   1.487   1.157 -0.2801  0.0210  0.0572
  177SOL     OW  705   0.542   0.246   1.439  0.1792 -0.0846 -0.3498
  177SOL    HW1  706   0.601   0.272   1.372 -0.2361 -1.6806 -0.1317
  177SOL    HW2  707   0.507   0.326   1.476  0.4597 -0.9120 -0.6186
  177SOL     MW  708   0.545   0.260   1.435  0.1614 -0.4044 -0.3565
  178SOL     OW  709   0.022   0.696   2.893  0.4188  0.1785 -0.1934
  178SOL    HW1  710  -0.039   0.673   2.828  1.7342 -0.2914  2.1515
  178SOL    HW2  711   0.114   0.685   2.857 -3.6244 -0.6005  1.3029
  178SOL     MW  712   0.026   0.692   2.880  0.0589  0.0137  0.3134
  179SOL     OW  713   1.586   1.463   1.409 -0.0266  0.0166  0.2728
  179SOL    HW1  714   1.608   1.495   1.496 -0.3492 -2.4047  2.9452
  179SOL    HW2  715   1.649   1.503   1.351  0.5021 -1.3678 -0.9783
  179SOL     MW  716   1.597   1.473   1.413  0.0006 -0.4855  0.4604
  180SOL     OW  717   3.100   0.207   0.391 -0.2838 -0.5787 -0.4182
  180SOL    HW1  718   3.028   0.243   0.331 -0.3676  2.4927 -0.2612
  180SOL    HW2  719   3.103   0.277   0.454 -0.5829  1.5157 -0.7335
  180SOL     MW  720   3.091   0.221   0.391 -0.3343  0.1028 -0.4391
  181SOL     OW  721   1.036   1.339   3.100 -0.5818  0.5303 -0.1345
  181SOL    HW1  722   1.088   1.417   3.121  2.3588  1.2091  1.3690
  181SOL    HW2  723   1.104   1.284   3.064  0.3071 -1.2996 -1.4992
  181SOL     MW  724   1.051   1.342   3.098 -0.0766  0.3784 -0.1162
  182SOL     OW  725   0.397   0.971   1.719  0.6437  0.1822  0.0996
  182SOL    HW1  726   0.313   0.932   1.727  1.2948  3.1997  1.8546
  182SOL    HW2  727   0.456   0.904   1.762 -2.3760  0.3458  1.1970
  182SOL     MW  728   0.394   0.957   1.726  0.3312  0.6019  0.4760
  183SOL     OW  729   1.535   1.728   1.240  0.4552 -0.1517 -0.1494
  183SOL    HW1  730   1.623   1.759   1.254  0.4607  1.0160 -0.3734
  183SOL    HW2  731   1.506   1.692   1.330 -1.1511 -0.4363  3.4905
  183SOL     MW  732   1.542   1.727   1.254  0.2440 -0.0352  0.3013
  184SOL     OW  733   0.852   0.635   1.726 -0.3165 -0.1614  0.4713
  184SOL    HW1  734   0.934   0.683   1.730  0.2228  0.7261 -1.5726
  184SOL    HW2  735   0.841   0.585   1.806 -2.4039 -0.3409 -0.1569
  184SOL     MW  736   0.861   0.635   1.737 -0.5208 -0.0680  0.1187
  185SOL     OW  737   1.077   0.961   1.825 -0.1859  0.4387 -0.0836
  185SOL    HW1  738   1.056   0.868   1.856 -0.1147 -3.5777 -0.9712
  185SOL    HW2  739   1.127   1.003   1.898 -0.3637  1.5466 -2.0397
  185SOL     MW  740   1.081   0.954   1.839 -0.2000  0.0549 -0.4588
  186SOL     OW  741   0.265   1.635   1.524 -0.1678 -0.2531 -0.1548
  186SOL    HW1  742   0.267   1.583   1.449 -0.1857  0.6649  0.4769
  186SOL    HW2  743   0.181   1.616   1.572 -0.4494  1.7277  0.2095
  186SOL     MW  744   0.254   1.626   1.521 -0.2073  0.1294 -0.0234
  187SOL     OW  745   1.424   0.866   1.326 -0.0625  0.0290 -0.4532
  187SOL    HW1  746   1.450   0.883   1.416  0.3506  0.1802 -2.0333
  187SOL    HW2  747   1.333   0.875   1.338 -0.8797  1.9719  0.8517
  187SOL     MW  748   1.416   0.869   1.340 -0.1158  0.3053 -0.4895
  188SOL     OW  749   1.869   1.188   0.924  0.0451 -0.5853 -0.5395
  188SOL    HW1  750   1.888   1.197   1.019 -0.1614 -0.8655 -0.2336
  188SOL    HW2  751   1.817   1.111   0.922  0.0130  0.9212  1.1482
  188SOL     MW  752   1.865   1.179   0.937  0.0136 -0.4235 -0.2765
  189SOL     OW  753   0.745   0.750   0.876 -0.2682 -0.2919  0.4707
  189SOL    HW1  754   0.664   0.800   0.858  0.6657  0.5762 -0.1725
  189SOL    HW2  755   0.767   0.779   0.962  0.5881 -2.7596  0.2017
  189SOL     MW  756   0.738   0.760   0.885 -0.0320 -0.5030  0.3504
  190SOL     OW  757   1.843   0.335   2.079  0.2492  0.4687  0.5202
  190SOL    HW1  758   1.864   0.280   2.159 -1.2470 -2.0415  0.1366
  190SOL    HW2  759   1.916   0.395   2.066 -1.4560 -2.5871 -0.3292
  190SOL     MW  760   1.856   0.335   2.088 -0.1732 -0.2657  0.3575
  191SOL     OW  761   1.520   1.090   1.194  0.2569  0.1862 -0.0281
  191SOL    HW1  762   1.524   1.129   1.287  3.8330 -0.1607 -0.0668
  191SOL    HW2  763   1.486   1.001   1.217  0.3755 -2.3298  0.0912
  191SOL     MW  764   1.516   1.083   1.210  0.7444 -0.1915 -0.0175
  192SOL     OW  765   0.535   2.196   2.934 -0.0811 -0.3269  0.1258
  192SOL    HW1  766   0.529   2.238   2.847 -1.3147 -0.1788  1.6390
  192SOL    HW2  767   0.486   2.119   2.919  0.9269 -0.8380 -0.7285
  192SOL     MW  768   0.528   2.192   2.921 -0.1108 -0.3748  0.2127
  193SOL     OW  769   0.844   1.643   0.772  0.0010  0.0349 -0.0401
  193SOL    HW1  770   0.782   1.640   0.855 -0.0079 -1.7787 -0.4612
  193SOL    HW2  771   0.798   1.566   0.724  3.1571 -2.8578  0.2928
  193SOL     MW  772   0.830   1.632   0.777  0.4163 -0.5860 -0.0517
  194SOL     OW  773   0.398   1.360   0.844  0.0886  0.1412  0.9191
  194SOL    HW1  774   0.375   1.302   0.924  2.0003  0.3645  0.0048
  194SOL    HW2  775   0.313   1.380   0.803 -0.8069 -2.9983 -1.3496
  194SOL     MW  776   0.384   1.355   0.849  0.2226 -0.2436  0.4991
  195SOL     OW  777   1.222   1.148   3.011  0.2803  0.1755 -0.3005
  195SOL    HW1  778   1.271   1.098   3.077  0.7796 -4.3529 -1.2010
  195SOL    HW2  779   1.156   1.081   2.991  1.3271 -0.2619  1.4360
  195SOL     MW  780   1.219   1.132   3.017  0.4843 -0.4797 -0.1902
  196SOL     OW  781   2.280   0.959   0.542  0.3485 -0.3741 -0.1336
  196SOL    HW1  782   2.321   0.954   0.459 -0.9594 -0.8924  2.4258
  196SOL    HW2  783   2.241   1.052   0.535  0.9053 -1.1481 -1.0436
  196SOL     MW  784   2.280   0.971   0.530  0.2494 -0.5446  0.0841
  197SOL     OW  785   0.659   1.246   2.255 -0.1681  0.2842  0.6530
  197SOL    HW1  786   0.681   1.177   2.193 -0.3494  1.1003  2.6319
  197SOL    HW2  787   0.702   1.321   2.213  1.6577  1.5724  0.9250
  197SOL     MW  788   0.667   1.247   2.241  0.0489  0.5618  0.9500
  198SOL     OW  789   2.896   1.372   1.061  0.1641 -0.2275 -0.0715
  198SOL    HW1  790   2.867   1.455   1.035  0.1046  0.7181  3.0233
  198SOL    HW2  791   2.811   1.316   1.047 -3.7260  0.7659  1.0687
  198SOL     MW  792   2.881   1.375   1.056 -0.3570  0.0284  0.4872
  199SOL     OW  793   0.663   1.193   1.833  0.6380  0.5642 -0.8462
  199SOL    HW1  794   0.567   1.163   1.861 -2.0269 -3.2175 -0.3913
  199SOL    HW2  795   0.653   1.285   1.801  0.6261 -3.2471  0.6380
  199SOL     MW  796   0.649   1.201   1.832  0.2848 -0.4376 -0.5904
  200SOL     OW  797   1.912   2.983   1.309  0.3992  0.9497  0.0732
  200SOL    HW1  798   1.982   2.993   1.236  0.7858 -0.0346 -0.6090
  200SOL    HW2  799   1.878   3.075   1.313 -1.5717 -0.1190 -0.1301
  200SOL     MW  800   1.917   2.996   1.300  0.1901  0.6788 -0.0436
  201SOL     OW  801   1.229   0.339   0.836  0.5496  0.4381 -0.1168
  201SOL    HW1  802   1.186   0.255   0.818  1.3985  1.4531  1.3094
  201SOL    HW2  803   1.314   0.305   0.866 -1.6650 -0.7805  1.1767
  201SOL     MW  804   1.234   0.324   0.838  0.3694  0.4112  0.2421
  202SOL     OW  805   1.386   1.689   0.987  0.1083  0.6257 -0.1710
  202SOL    HW1  806   1.421   1.603   0.959 -0.3194 -3.0260 -0.2763
  202SOL    HW2  807   1.446   1.705   1.061 -0.0822  0.6734 -0.0624
  202SOL     MW  808   1.399   1.680   0.993  0.0268  0.1502 -0.1705
  203SOL     OW  809   3.071   0.440   1.317 -0.2672 -0.2480 -0.4670
  203SOL    HW1  810   3.085   0.339   1.328 -1.3428 -2.2850  1.2138
  203SOL    HW2  811   3.119   0.473   1.239 -2.7435  1.9454 -0.7970
  203SOL     MW  812   3.079   0.431   1.308 -0.7358 -0.2273 -0.2888
  204SOL     OW  813   1.010   1.822   0.629 -0.6174  0.4718 -0.0110
  204SOL    HW1  814   0.959   1.776   0.700 -0.8513 -1.5091  2.2443
  204SOL    HW2  815   0.939   1.829   0.565 -1.1516  1.5222  0.3151
  204SOL     MW  816   0.994   1.817   0.630 -0.7188  0.3490  0.3296
  205SOL     OW  817   1.363   2.993   1.376  0.0527  0.0014 -0.1076
  205SOL    HW1  818   1.399   3.030   1.294  1.8399  1.1976 -0.8063
  205SOL    HW2  819   1.311   3.064   1.407  0.1230 -2.1925  2.9754
  205SOL     MW  820   1.361   3.007   1.370  0.2978 -0.1303  0.2070
  206SOL     OW  821   0.322   2.873   1.397 -0.2083  0.0845  0.3508
  206SOL    HW1  822   0.330   2.898   1.306  1.3409 -0.2717  0.5777
  206SOL    HW2  823   0.412   2.880   1.431  1.4991 -0.4608 -0.1468
  206SOL     MW  824   0.335   2.877   1.390  0.2214 -0.0345  0.3151
  207SOL     OW  825   0.825   1.696   0.224  0.0520 -0.3934  0.1233
  207SOL    HW1  826   0.908   1.735   0.196  0.3339 -1.3997  0.1509
  207SOL    HW2  827   0.859   1.627   0.280 -0.5314 -1.6081 -1.1478
  207SOL     MW  828   0.840   1.692   0.228  0.0122 -0.6864 -0.0408
  208SOL     OW  829   0.738   1.493   1.366 -1.0318 -0.6394  0.0188
  208SOL    HW1  830   0.799   1.555   1.316  1.4372  0.3588  0.0860
  208SOL    HW2  831   0.717   1.430   1.303  4.6866 -0.1107  1.7278
  208SOL     MW  832   0.743   1.492   1.351  0.0485 -0.4379  0.2532
  209SOL     OW  833   1.610   0.465   2.805  0.5852 -0.7052  0.0496
  209SOL    HW1  834   1.668   0.530   2.775 -0.3052  0.2546 -1.7270
  209SOL    HW2  835   1.663   0.409   2.859  0.6270  2.0917 -0.7464
  209SOL     MW  836   1.625   0.466   2.808  0.4733 -0.2095 -0.2898
  210SOL     OW  837   1.447   1.405   0.909  0.1577 -0.6919  0.5058
  210SOL    HW1  838   1.545   1.423   0.896  1.1160  0.4888 -1.6653
  210SOL    HW2  839   1.400   1.441   0.832 -0.3978  2.0711  1.1989
  210SOL     MW  840   1.454   1.412   0.897  0.2109 -0.1716  0.3108
  211SOL     OW  841   1.765   0.282   0.866  0.7235 -0.4553 -0.0584
  211SOL    HW1  842   1.752   0.307   0.779  1.6212 -2.8314  2.8667
  211SOL    HW2  843   1.841   0.321   0.915  3.5226 -0.5295  0.9300
  211SOL     MW  844   1.773   0.291   0.861  1.2113 -0.7786  0.4580
  212SOL     OW  845   0.405   1.192   0.220 -0.0859  0.1880  0.2527
  212SOL    HW1  846   0.349   1.117   0.220  0.1260  0.2494 -2.4841
  212SOL    HW2  847   0.482   1.169   0.179  2.3605 -1.5572 -0.6734
  212SOL     MW  848   0.407   1.179   0.215  0.2648 -0.0342 -0.2305
  213SOL     OW  849   0.423   1.781   3.077  0.4670 -0.6232  0.2093
  213SOL    HW1  850   0.430   1.792   3.172  2.4454 -1.9016 -0.9077
  213SOL    HW2  851   0.494   1.840   3.041 -0.0563  0.7531  1.2453
  213SOL     MW  852   0.434   1.790   3.085  0.6590 -0.6103  0.1986
  214SOL     OW  853   0.595   0.324   2.146  0.1405 -0.2835  0.2733
  214SOL    HW1  854   0.522   0.390   2.155 -1.2635  0.5545  1.1123
  214SOL    HW2  855   0.588   0.314   2.048 -1.6515 -1.0427  3.1186
  214SOL     MW  856   0.585   0.331   2.135 -0.2812 -0.2731  0.7594
  215SOL     OW  857   0.618   0.593   2.522  0.8703  0.4490  0.5223
  215SOL    HW1  858   0.542   0.610   2.466 -1.8221 -1.4992  0.2863
  215SOL    HW2  859   0.575   0.524   2.575  0.4994  0.0916  1.7410
  215SOL     MW  860   0.603   0.586   2.521  0.4661  0.1448  0.6520
  216SOL     OW  861   2.902   3.052   2.808 -0.6261 -0.0414 -0.0241
  216SOL    HW1  862   2.811   3.027   2.783  1.3500 -0.0433  2.2563
  216SOL    HW2  863   2.915   3.133   2.763 -0.2891 -1.2837 -0.4955
  216SOL     MW  864   2.892   3.059   2.799 -0.3209 -0.2055  0.2146
  217SOL     OW  865   0.928   1.102   0.125  0.3934  0.0035 -0.2324
  217SOL    HW1  866   0.962   1.054   0.050  4.6662  1.3139 -0.9825
  217SOL    HW2  867   0.953   1.196   0.111  1.1564 -1.5216 -2.1179
  217SOL     MW  868   0.936   1.108   0.113  1.0578 -0.0248 -0.5802
  218SOL     OW  869   0.820   1.435   2.597 -0.1920  0.2226  0.1584
  218SOL    HW1  870   0.781   1.362   2.649 -0.6738 -0.0876 -0.3889
  218SOL    HW2  871   0.900   1.465   2.651 -0.1156  1.2836  1.8947
  218SOL     MW  872   0.825   1.429   2.611 -0.2455  0.3217  0.3153
  219SOL     OW  873   1.056   0.421   2.493 -0.5279 -0.1835  0.1128
  219SOL    HW1  874   1.106   0.413   2.406 -0.2396 -2.1545 -1.0497
  219SOL    HW2  875   1.005   0.499   2.479 -0.2708 -0.0642 -1.7357
  219SOL     MW  876   1.056   0.430   2.480 -0.4559 -0.4278 -0.2845
  220SOL     OW  877   1.644   0.496   2.185  0.1422  0.2904  0.2266
  220SOL    HW1  878   1.585   0.533   2.125 -0.7156 -1.1354  0.9628
  220SOL    HW2  879   1.690   0.426   2.136  1.9754  0.1672 -0.3118
  220SOL     MW  880   1.642   0.491   2.170  0.2709  0.0860  0.2527
  221SOL     OW  881   0.325   1.375   2.931 -0.5773 -0.1707 -0.1423
  221SOL    HW1  882   0.372   1.295   2.922 -1.5780  1.1813 -1.8225
  221SOL    HW2  883   0.389   1.435   2.890  1.2553  0.7069 -1.4748
  221SOL     MW  884   0.339   1.373   2.924 -0.4676  0.1235 -0.5398
  222SOL     OW  885   0.505   0.917   2.693 -0.0488  0.4593 -0.6248
  222SOL    HW1  886   0.427   0.910   2.638 -0.4752  0.9943  0.8599
  222SOL    HW2  887   0.537   0.830   2.713  1.1315  0.7563  0.6507
  222SOL     MW  888   0.499   0.905   2.688  0.0506  0.5691 -0.2606
  223SOL     OW  889   3.027   2.062   2.564 -0.1258 -0.1551 -0.0709
  223SOL    HW1  890   3.051   2.004   2.638  0.3961  0.4862 -0.3259
  223SOL    HW2  891   3.099   2.127   2.560  1.7422 -0.3288  0.1071
  223SOL     MW  892   3.040   2.063   2.574  0.1895 -0.0934 -0.0811
  224SOL     OW  893   1.440   0.553   2.432 -0.1783 -0.8251  0.2928
  224SOL    HW1  894   1.528   0.531   2.472  0.4667  0.8301  0.5271
  224SOL    HW2  895   1.431   0.649   2.445  0.5660  0.4827 -0.5975
  224SOL     MW  896   1.450   0.562   2.439  0.0050 -0.4341  0.2062
  225SOL     OW  897   2.908   1.488   2.177  0.0807 -0.4779  0.1177
  225SOL    HW1  898   2.966   1.556   2.144 -0.9937 -1.8363  0.4677
  225SOL    HW2  899   2.840   1.533   2.234  0.8354  1.7043  0.9318
  225SOL     MW  900   2.907   1.503   2.180  0.0385 -0.3692  0.2713
  226SOL     OW  901   0.433   1.546   2.757 -0.1766  0.0192 -0.2958
  226SOL    HW1  902   0.514   1.563   2.711  0.6634 -0.1781  0.6800
  226SOL    HW2  903   0.381   1.625   2.741 -1.3342  1.4414  2.4150
  226SOL     MW  904   0.437   1.559   2.748 -0.2185  0.1808  0.1906
  227SOL     OW  905   0.497   1.154   2.890 -0.4476  0.0354  0.8187
  227SOL    HW1  906   0.572   1.202   2.847  0.3626  0.4990 -1.5583
  227SOL    HW2  907   0.485   1.074   2.830 -1.4712 -1.0101  0.8086
  227SOL     MW  908   0.506   1.150   2.876 -0.4758 -0.0414  0.5037
  228SOL     OW  909   0.794   1.129   2.049  0.4371  0.0237  0.6874
  228SOL    HW1  910   0.736   1.153   1.971 -1.3601 -0.5922  2.0727
  228SOL    HW2  911   0.861   1.197   2.056  1.3041 -2.4061  0.4268
  228SOL     MW  912   0.795   1.141   2.039  0.3144 -0.3781  0.8358
  229SOL     OW  913   0.129   0.573   0.037 -0.3846 -0.0515 -0.2816
  229SOL    HW1  914   0.074   0.580  -0.045  2.1302  1.0480 -0.3719
  229SOL    HW2  915   0.098   0.493   0.083 -3.4885  0.5062  2.2826
  229SOL     MW  916   0.117   0.563   0.032 -0.4623  0.1671  0.0448
  230SOL     OW  917   1.716   1.382   2.200 -0.6397 -0.5508  0.5640
  230SOL    HW1  918   1.656   1.388   2.277 -1.6675 -0.5110  1.9060
  230SOL    HW2  919   1.764   1.301   2.197 -3.1724 -2.6356 -3.2605
  230SOL     MW  920   1.714   1.372   2.210 -1.1094 -0.8206  0.2365
  231SOL     OW  921   2.735   1.217   2.181  0.2861  0.1710 -0.2427
  231SOL    HW1  922   2.775   1.298   2.149 -1.1966 -0.0590 -1.8042
  231SOL    HW2  923   2.653   1.209   2.133  2.6366  0.4446 -2.0243
  231SOL     MW  924   2.729   1.227   2.171  0.4006  0.1768 -0.6838
  232SOL     OW  925   2.277   0.862   1.999 -0.0138 -0.5345 -0.1857
  232SOL    HW1  926   2.190   0.904   1.972 -2.0370 -3.2628 -2.0174
  232SOL    HW2  927   2.264   0.791   2.061 -2.3139  0.8109 -0.3716
  232SOL     MW  928   2.264   0.858   2.004 -0.5842 -0.7170 -0.4519
  233SOL     OW  929   2.109   0.457   2.019 -0.0391 -0.1474 -0.0436
  233SOL    HW1  930   2.146   0.374   2.012 -0.8039 -3.6749  3.2216
  233SOL    HW2  931   2.117   0.473   2.115  2.1583  0.1436  0.3036
  233SOL     MW  932   2.115   0.448   2.031  0.1499 -0.5744  0.4330
  234SOL     OW  933   0.248   1.040   2.623 -0.1205  0.0764 -0.0870
  234SOL    HW1  934   0.183   1.054   2.556  2.4808 -0.6041 -0.5439
  234SOL    HW2  935   0.288   1.123   2.633 -3.9711  0.4905 -3.1576
  234SOL     MW  936   0.245   1.052   2.616 -0.2853  0.0413 -0.5524
  235SOL     OW  937   1.147   0.054   2.810  0.5491 -0.0381 -0.2471
  235SOL    HW1  938   1.158   0.069   2.907  1.4058 -0.3611  0.0570
  235SOL    HW2  939   1.109   0.138   2.783  0.5012 -1.4910  0.2270
  235SOL     MW  940   1.143   0.067   2.819  0.6558 -0.2724 -0.1444
  236SOL     OW  941   2.978   0.619   0.173  0.0627 -0.2336  0.3713
  236SOL    HW1  942   2.988   0.660   0.265 -0.1590 -0.3640  1.5989
  236SOL    HW2  943   3.042   0.660   0.117 -1.6768 -0.8471  1.8935
  236SOL     MW  944   2.988   0.630   0.178 -0.1961 -0.3317  0.7341
  237SOL     OW  945   1.929   1.126   2.151 -0.2211  0.0242  0.3410
  237SOL    HW1  946   1.867   1.110   2.085  1.8457  2.5274 -0.0674
  237SOL    HW2  947   2.007   1.142   2.109 -2.2659  3.6693 -0.7889
  237SOL     MW  948   1.931   1.126   2.137 -0.2182  0.8354  0.1380
  238SOL     OW  949   1.130   1.695   2.942  0.8682 -0.0273  0.9151
  238SOL    HW1  950   1.080   1.613   2.912  0.3427  1.3874  0.2958
  238SOL    HW2  951   1.213   1.667   2.976 -0.1092 -3.0412  0.3650
  238SOL     MW  952   1.134   1.680   2.942  0.6699 -0.2383  0.7608
  239SOL     OW  953   1.204   1.298   2.397  0.8140  0.1395 -0.2241
  239SOL    HW1  954   1.117   1.338   2.398  0.7022  3.4357  0.6449
  239SOL    HW2  955   1.227   1.286   2.489 -0.9152  1.2489 -1.0758
  239SOL     MW  956   1.196   1.302   2.409  0.5711  0.7208 -0.2218
  240SOL     OW  957   0.597   0.859   2.288 -0.1707  0.3715 -1.0919
  240SOL    HW1  958   0.658   0.895   2.357 -0.1982  0.6169 -1.4272
  240SOL    HW2  959   0.660   0.841   2.221 -0.0415 -0.8878  0.0021
  240SOL     MW  960   0.613   0.861   2.288 -0.1573  0.2378 -0.9918
  241SOL     OW  961   0.652   0.452   3.093 -0.4136 -0.0762 -0.3801
  241SOL    HW1  962   0.692   0.529   3.145 -1.7378  2.7474 -1.1858
  241SOL    HW2  963   0.565   0.480   3.063 -1.6028  2.1581 -0.0674
  241SOL     MW  964   0.645   0.466   3.096 -0.7452  0.5911 -0.4452
  242SOL     OW  965   1.487   1.624   2.293  0.1288  0.4986 -0.0970
  242SOL    HW1  966   1.434   1.699   2.314  1.2535 -0.9936  0.5606
  242SOL    HW2  967   1.429   1.577   2.234 -0.6449 -0.8153  0.3079
  242SOL     MW  968   1.472   1.627   2.288  0.1751  0.1283  0.0432
  243SOL     OW  969   0.956   0.177   2.464 -0.0088 -0.0600 -0.2136
  243SOL    HW1  970   1.025   0.133   2.415 -2.6903 -0.4810 -0.5018
  243SOL    HW2  971   0.995   0.256   2.491 -3.0720 -0.6925  0.4189
  243SOL     MW  972   0.970   0.182   2.461 -0.7667 -0.1990 -0.1682
  244SOL     OW  973   0.099   0.728   2.331 -0.0548 -0.7250 -0.9433
  244SOL    HW1  974   0.073   0.820   2.333  0.0816  1.4740 -0.3561
  244SOL    HW2  975   0.191   0.722   2.330  2.0480 -1.3286 -0.9608
  244SOL     MW  976   0.107   0.739   2.331  0.2407 -0.5145 -0.8681
  245SOL     OW  977   1.213   0.109   2.381  0.3532  0.0566 -0.3792
  245SOL    HW1  978   1.291   0.070   2.338  1.8002 -2.0482  1.9880
  245SOL    HW2  979   1.213   0.056   2.456 -0.9810  0.7989 -2.6476
  245SOL     MW  980   1.223   0.096   2.386  0.3681 -0.1231 -0.3661
  246SOL     OW  981   1.187   1.045   2.123  0.8325 -0.7509  0.4891
  246SOL    HW1  982   1.105   1.014   2.156  0.7404  0.0506  0.1776
  246SOL    HW2  983   1.257   1.003   2.174  0.4280  0.2676  1.3272
  246SOL     MW  984   1.186   1.035   2.134  0.7670 -0.5108  0.5586
  247SOL     OW  985   0.775   0.656   0.161  0.3787 -0.3406  0.4339
  247SOL    HW1  986   0.749   0.755   0.172  0.8797  0.9867  0.8704
  247SOL    HW2  987   0.871   0.653   0.133 -2.8408  0.4605 -0.8280
  247SOL     MW  988   0.784   0.668   0.159  0.0200 -0.0597  0.3250
  248SOL     OW  989   0.362   1.296   2.602 -0.1676 -0.5182  0.4149
  248SOL    HW1  990   0.371   1.323   2.511  1.2604  0.8290  1.5974
  248SOL    HW2  991   0.375   1.377   2.654  1.0179  0.2203  0.6323
  248SOL     MW  992   0.365   1.310   2.597  0.1772 -0.2430  0.5996
  249SOL     OW  993   3.032   1.852   2.788  0.2344 -0.0881  0.0774
  249SOL    HW1  994   2.960   1.819   2.846 -0.8976 -1.0263  0.1589
  249SOL    HW2  995   3.117   1.859   2.825  0.1228  0.0755  0.0396
  249SOL     MW  996   3.034   1.849   2.801  0.0703 -0.1903  0.0832
  250SOL     OW  997   2.311   0.706   2.250  0.2376  0.1997  0.5950
  250SOL    HW1  998   2.281   0.617   2.282  2.7954 -3.1034 -0.5663
  250SOL    HW2  999   2.285   0.768   2.320 -0.6011  3.5626  2.3335
  250SOL     MW 1000   2.304   0.702   2.263  0.4644  0.2076  0.6711
  251SOL     OW 1001   0.122   0.872   1.959 -0.4199 -1.0046 -0.0987
  251SOL    HW1 1002   0.070   0.795   1.961  1.2518  2.0977 -0.2272
  251SOL    HW2 1003   0.130   0.886   1.861  3.6894 -0.3021  1.4067
  251SOL     MW 1004   0.116   0.864   1.946  0.3428 -0.5026  0.0829
  252SOL     OW 1005   1.753   0.998   2.903  0.6868 -0.5477 -0.3482
  252SOL    HW1 1006   1.735   1.056   2.979 -0.0785 -1.5171 -0.8231
  252SOL    HW2 1007   1.836   1.035   2.866 -1.3693  0.7132  2.1036
  252SOL     MW 1008   1.761   1.011   2.908  0.3146 -0.5092 -0.0873
  253SOL     OW 1009   1.113   1.670   2.551 -0.0555 -0.3143 -0.6658
  253SOL    HW1 1010   1.076   1.615   2.480 -0.4930 -0.5498 -0.2360
  253SOL    HW2 1011   1.058   1.760   2.538  2.6592 -1.5653 -3.5397
  253SOL     MW 1012   1.100   1.675   2.540  0.2450 -0.5104 -0.9883
  254SOL     OW 1013   0.961   0.979   2.265 -0.5942 -0.9650 -0.2054
  254SOL    HW1 1014   0.898   0.935   2.209 -0.6922  3.7046  0.1646
  254SOL    HW2 1015   0.915   1.057   2.298  2.0053 -0.1709  0.9928
  254SOL     MW 1016   0.946   0.983   2.262 -0.2642 -0.2441  0.0015
  255SOL     OW 1017   0.869   2.435   2.137 -0.0007 -0.0918 -0.4557
  255SOL    HW1 1018   0.788   2.381   2.130  1.4829  1.4811 -0.1220
  255SOL    HW2 1019   0.931   2.378   2.194  1.5009  2.5972  1.3550
  255SOL     MW 1020   0.866   2.421   2.144  0.3932  0.4705 -0.1727
  256SOL     OW 1021   1.315   2.787   3.074 -0.4930  0.1196  0.3579
  256SOL    HW1 1022   1.350   2.705   3.108 -0.5934 -1.7247 -2.1661
  256SOL    HW2 1023   1.373   2.797   2.993  0.6205 -3.2061 -0.5435
  256SOL     MW 1024   1.327   2.778   3.068 -0.3593 -0.5625 -0.0940
  257SOL     OW 1025   0.101   1.951   0.056 -0.2898 -0.1661 -0.4008
  257SOL    HW1 1026   0.119   1.900   0.139  0.1153  1.4610  1.2594
  257SOL    HW2 1027   0.135   1.897  -0.020 -0.1699  0.2370 -0.1827
  257SOL     MW 1028   0.108   1.937   0.057 -0.2205  0.1018 -0.1530
  258SOL     OW 1029   0.716   0.956   2.530  0.0955 -0.4109  0.1651
  258SOL    HW1 1030   0.756   1.048   2.525 -0.7619 -2.0318  2.4333
  258SOL    HW2 1031   0.642   0.958   2.588  2.4322  2.6449  1.1256
  258SOL     MW 1032   0.711   0.969   2.537  0.2906 -0.2216  0.5911
  259SOL     OW 1033   0.814   0.453   2.258  0.2786  0.5302 -0.1955
  259SOL    HW1 1034   0.730   0.414   2.236  1.3142 -1.1064  1.0683
  259SOL    HW2 1035   0.866   0.375   2.285  0.3731  1.0404  0.7509
  259SOL     MW 1036   0.810   0.438   2.259  0.4277  0.3815  0.0961
  260SOL     OW 1037   0.665   0.097   1.658  0.2802  0.2107  0.3376
  260SOL    HW1 1038   0.594   0.136   1.611  0.0192  2.2250 -2.0475
  260SOL    HW2 1039   0.745   0.133   1.618  1.5412  3.4068  0.8892
  260SOL     MW 1040   0.667   0.107   1.647  0.4122  0.8982  0.0957
  261SOL     OW 1041   1.023   0.735   2.023  0.4465  0.6712 -0.1077
  261SOL    HW1 1042   1.093   0.757   2.085  2.5055  0.1154 -1.5343
  261SOL    HW2 1043   1.008   0.637   2.021  1.2439 -1.7785  1.9918
  261SOL     MW 1044   1.030   0.725   2.031  0.8234  0.2746 -0.0189
  262SOL     OW 1045   1.129   0.337   0.149 -0.2869  0.4086 -0.2772
  262SOL    HW1 1046   1.221   0.353   0.121 -1.3218 -0.9426 -0.2943
  262SOL    HW2 1047   1.079   0.301   0.075 -3.9321  2.7985 -0.6359
  262SOL     MW 1048   1.134   0.335   0.135 -0.9044  0.5457 -0.3268
  263SOL     OW 1049   0.363   0.034   2.451  0.1790  0.3425  0.1918
  263SOL    HW1 1050   0.302   0.107   2.472  0.0622  1.4682 -2.5820
  263SOL    HW2 1051   0.418   0.062   2.368  1.2248 -0.7185 -1.9720
  263SOL     MW 1052   0.362   0.048   2.443  0.3016  0.3511 -0.4596
  264SOL     OW 1053   1.541   1.484   1.989  0.0355  0.2362  0.2518
  264SOL    HW1 1054   1.487   1.408   1.971  1.7255 -1.7553  0.8830
  264SOL    HW2 1055   1.589   1.466   2.070 -3.0185  1.5916 -1.6727
  264SOL     MW 1056   1.541   1.472   1.998 -0.1444  0.1523  0.0812
  265SOL     OW 1057   0.698   2.779   2.316 -0.1990  0.1335 -0.2634
  265SOL    HW1 1058   0.790   2.751   2.328  1.8589  0.2250  0.1975
  265SOL    HW2 1059   0.686   2.796   2.411  0.5183  2.7311  1.0709
  265SOL     MW 1060   0.708   2.777   2.330  0.1671  0.4883 -0.0265
  266SOL     OW 1061   0.795   0.851   2.094 -0.0021 -0.0270 -0.4905
  266SOL    HW1 1062   0.798   0.938   2.050  1.0684 -1.4917  0.0987
  266SOL    HW2 1063   0.877   0.799   2.063 -0.2294 -0.0211  0.5568
  266SOL     MW 1064   0.806   0.856   2.084  0.1091 -0.2195 -0.2746
  267SOL     OW 1065   1.331   1.763   2.696 -0.3489  0.1760 -0.5075
  267SOL    HW1 1066   1.391   1.697   2.662  1.4430  2.2154  0.1774
  267SOL    HW2 1067   1.243   1.738   2.664  2.5532  0.8570 -0.3439
  267SOL     MW 1068   1.327   1.751   2.687  0.2704  0.5349 -0.3956
  268SOL     OW 1069   0.084   0.878   1.693 -0.3845 -0.0669  0.3333
  268SOL    HW1 1070   0.005   0.929   1.726  0.1813  0.2443  0.4050
  268SOL    HW2 1071   0.062   0.827   1.609  0.9610 -0.2491 -2.4769
  268SOL     MW 1072   0.071   0.878   1.686 -0.1323 -0.0499 -0.0280
  269SOL     OW 1073   1.309   1.801   2.392 -0.3039  0.1546 -0.0794
  269SOL    HW1 1074   1.350   1.833   2.472 -4.7097 -0.0551  2.0355
  269SOL    HW2 1075   1.223   1.776   2.413 -0.4755 -0.5612 -0.9122
  269SOL     MW 1076   1.303   1.802   2.405 -0.9078  0.0325  0.0898
  270SOL     OW 1077   1.109   0.477   1.521 -0.2061 -0.3117 -0.3913
  270SOL    HW1 1078   1.052   0.417   1.569 -1.0344 -0.7255 -1.4593
  270SOL    HW2 1079   1.193   0.431   1.511 -2.3233  2.0284 -0.6176
  270SOL     MW 1080   1.112   0.463   1.526 -0.5947 -0.0576 -0.5621
  271SOL     OW 1081   0.708   0.108   2.537 -0.1678  0.2481 -0.0855
  271SOL    HW1 1082   0.724   0.047   2.608 -0.4360 -1.6656 -1.6497
  271SOL    HW2 1083   0.800   0.143   2.521 -0.3529 -1.4045  3.4093
  271SOL     MW 1084   0.722   0.105   2.544 -0.2276 -0.2224  0.1692
  272SOL     OW 1085   1.473   2.791   2.845  0.1512  0.2638  0.1253
  272SOL    HW1 1086   1.444   2.772   2.752  0.6128 -3.8628 -3.8545
  272SOL    HW2 1087   1.527   2.869   2.834 -0.3508 -1.7749 -0.6562
  272SOL     MW 1088   1.476   2.798   2.831  0.1458 -0.5497 -0.5029
  273SOL     OW 1089   1.421   0.806   2.846 -0.1788  0.3510  0.3160
  273SOL    HW1 1090   1.513   0.784   2.858  1.5718  3.9034 -1.5168
  273SOL    HW2 1091   1.413   0.899   2.843 -0.4764 -0.6352  0.4630
  273SOL     MW 1092   1.432   0.815   2.847  0.0129  0.6896  0.0936
  274SOL     OW 1093   1.433   0.725   0.171  0.5064  1.2888  0.2050
  274SOL    HW1 1094   1.456   0.631   0.174 -0.9501  2.6758  0.4070
  274SOL    HW2 1095   1.351   0.733   0.231  0.1630  1.5421 -0.7118
  274SOL     MW 1096   1.426   0.714   0.179  0.2689  1.5052  0.1107
  275SOL     OW 1097   1.907   0.536   1.709  0.3579 -0.5904 -0.3891
  275SOL    HW1 1098   1.928   0.558   1.798 -1.6248  0.8927  2.0167
  275SOL    HW2 1099   1.880   0.444   1.720  0.3724 -0.0044  1.7154
  275SOL     MW 1100   1.906   0.526   1.722  0.0982 -0.3174  0.2060
  276SOL     OW 1101   0.436   1.157   1.957 -0.5369 -0.0617  0.4658
  276SOL    HW1 1102   0.431   1.065   1.970 -1.5522  0.9094 -0.1555
  276SOL    HW2 1103   0.364   1.204   2.004 -0.5426  0.7844 -0.6371
  276SOL     MW 1104   0.426   1.151   1.965 -0.6716  0.1780  0.2383
  277SOL     OW 1105   2.006   1.165   2.437  0.6275 -0.0493  0.0366
  277SOL    HW1 1106   2.051   1.241   2.477 -1.2802  3.0450  0.2350
  277SOL    HW2 1107   1.939   1.196   2.377 -2.6136 -1.7456 -0.5025
  277SOL     MW 1108   2.003   1.179   2.434 -0.0518  0.1352 -0.0084
  278SOL     OW 1109   1.478   0.647   1.609  0.5932  0.6531 -0.2249
  278SOL    HW1 1110   1.464   0.627   1.711  0.0721  0.6485  2.0682
  278SOL    HW2 1111   1.569   0.678   1.596  1.3999 -0.4463  2.3746
  278SOL     MW 1112   1.488   0.648   1.621  0.6309  0.5074  0.4207
  279SOL     OW 1113   0.498   0.079   2.230 -0.3436  0.2633  0.2195
  279SOL    HW1 1114   0.572   0.041   2.289 -1.6359  1.8743  1.1132
  279SOL    HW2 1115   0.546   0.157   2.205 -2.3649  1.7680 -1.4450
  279SOL     MW 1116   0.514   0.084   2.234 -0.7808  0.6744  0.1178
  280SOL     OW 1117   1.452   1.000   2.249  0.2715  0.3660 -0.1466
  280SOL    HW1 1118   1.539   1.018   2.213  0.7967  0.4781  1.7766
  280SOL    HW2 1119   1.457   0.948   2.329  0.9893 -0.5469  0.3000
  280SOL     MW 1120   1.464   0.996   2.255  0.4355  0.2604  0.1661
  281SOL     OW 1121   1.381   1.080   2.804 -0.3665  0.3297  0.7967
  281SOL    HW1 1122   1.454   1.141   2.801  2.1872 -1.0059 -0.1489
  281SOL    HW2 1123   1.332   1.111   2.877  1.6350  0.1379 -0.0069
  281SOL     MW 1124   1.384   1.092   2.813  0.2345  0.1281  0.5659
  282SOL     OW 1125   1.069   1.308   1.619  0.0902 -0.3813  0.0618
  282SOL    HW1 1126   1.035   1.391   1.594 -0.1919  0.6841 -2.9298
  282SOL    HW2 1127   0.996   1.248   1.630 -1.1312  0.8483  0.8912
  282SOL     MW 1128   1.055   1.311   1.617 -0.1082 -0.0785 -0.2235
  283SOL     OW 1129   0.772   1.302   3.024 -0.8715  0.0386  0.7721
  283SOL    HW1 1130   0.859   1.332   3.056  0.1776 -1.3755 -1.7215
  283SOL    HW2 1131   0.715   1.371   3.050  0.5834  0.9762 -1.3454
  283SOL     MW 1132   0.776   1.315   3.032 -0.5411 -0.0243  0.1637
  284SOL     OW 1133   0.373   0.714   2.356 -0.4116  0.0778 -0.0777
  284SOL    HW1 1134   0.433   0.788   2.327  1.7190 -1.8355 -0.8638
  284SOL    HW2 1135   0.380   0.655   2.283 -0.2747  0.4265 -0.5451
  284SOL     MW 1136   0.382   0.716   2.343 -0.1124 -0.1287 -0.2431
  285SOL     OW 1137   0.881   0.921   2.769  0.2914  0.2702  0.0978
  285SOL    HW1 1138   0.912   0.953   2.683  1.5252  2.0560  2.5633
  285SOL    HW2 1139   0.803   0.854   2.758 -0.5204 -3.0783  0.3081
  285SOL     MW 1140   0.875   0.916   2.756  0.3471  0.0640  0.4509
  286SOL     OW 1141   1.055   1.499   2.742 -0.0225 -0.2056  0.1192
  286SOL    HW1 1142   1.104   1.419   2.728 -1.1577 -2.4827 -0.9065
  286SOL    HW2 1143   1.091   1.564   2.672 -1.0888 -1.7359  1.1748
  286SOL     MW 1144   1.066   1.497   2.731 -0.3129 -0.7080  0.1231
  287SOL     OW 1145   1.098   0.966   0.330 -0.1852  0.1567 -0.0676
  287SOL    HW1 1146   1.051   0.989   0.409  1.8586  3.1697 -0.4777
  287SOL    HW2 1147   1.029   0.977   0.263 -1.7132 -0.5493  1.8110
  287SOL     MW 1148   1.083   0.971   0.332 -0.1171  0.4610  0.1262
  288SOL     OW 1149   1.501   0.723   2.086 -0.2986 -0.0200  0.0990
  288SOL    HW1 1150   1.436   0.735   2.150  1.8417 -2.3467 -4.1535
  288SOL    HW2 1151   1.544   0.810   2.084  0.0181  2.1492  1.9673
  288SOL     MW 1152   1.498   0.736   2.094  0.0256 -0.0408 -0.2156
  289SOL     OW 1153   1.045   1.027   2.563  0.5696  0.4468 -0.1052
  289SOL    HW1 1154   1.096   0.948   2.535  0.3066 -1.8677  1.1611
  289SOL    HW2 1155   0.976   1.034   2.491 -2.3715  1.0666 -1.6644
  289SOL     MW 1156   1.043   1.017   2.550  0.1469  0.2232 -0.1439
  290SOL     OW 1157   0.702   0.659   1.480  0.6173 -0.2838  0.6267
  290SOL    HW1 1158   0.741   0.603   1.412 -2.6288 -0.1962  0.8061
  290SOL    HW2 1159   0.740   0.629   1.564  0.5363  2.0592 -2.0464
  290SOL     MW 1160   0.712   0.648   1.482  0.1783  0.0369  0.2977
  291SOL     OW 1161   0.163   0.356   0.208 -0.0300  0.2173  0.0506
  291SOL    HW1 1162   0.247   0.309   0.206  2.3546  0.0955  3.4083
  291SOL    HW2 1163   0.102   0.303   0.256 -1.0413  1.5768 -0.7345
  291SOL     MW 1164   0.166   0.343   0.214  0.1511  0.3806  0.3901
  292SOL     OW 1165   1.030   0.600   0.087 -0.0331 -0.1172 -0.2694
  292SOL    HW1 1166   1.092   0.652   0.141  1.3915 -3.3011 -0.1870
  292SOL    HW2 1167   1.058   0.509   0.115  0.4800  0.9283  0.4131
  292SOL     MW 1168   1.042   0.595   0.097  0.2226 -0.3993 -0.1684
  293SOL     OW 1169   0.082   0.136   2.492  0.0865  0.4887 -0.7091
  293SOL    HW1 1170   0.062   0.075   2.417  1.1760 -0.1281 -2.2553
  293SOL    HW2 1171  -0.004   0.154   2.539  2.9128  0.1550  1.0061
  293SOL     MW 1172   0.068   0.130   2.488  0.6032  0.3633 -0.6868
  294SOL     OW 1173   1.249   0.401   2.283  0.4303 -0.6771  0.1632
  294SOL    HW1 1174   1.323   0.433   2.339 -1.6564 -1.5122 -0.9343
  294SOL    HW2 1175   1.258   0.308   2.310 -0.3300 -1.0198  1.3242
  294SOL     MW 1176   1.260   0.393   2.294  0.0547 -0.8325  0.1716
  295SOL     OW 1177   0.907   0.636   2.453  0.0378 -0.3230 -0.7611
  295SOL    HW1 1178   0.856   0.585   2.388  1.7989  0.8615 -0.7464
  295SOL    HW2 1179   0.841   0.695   2.482 -0.1439 -1.2392 -0.5701
  295SOL     MW 1180   0.892   0.637   2.448  0.2462 -0.2876 -0.7340
  296SOL     OW 1181   1.356   0.358   2.045 -0.5006  0.0294 -0.0981
  296SOL    HW1 1182   1.369   0.264   2.035 -1.5009 -2.6127 -1.3041
  296SOL    HW2 1183   1.325   0.370   2.134  0.2669 -1.4195  0.2630
  296SOL     MW 1184   1.354   0.347   2.056 -0.5313 -0.5104 -0.2096
  297SOL     OW 1185   1.356   0.373   1.537  0.4782  0.1997 -0.1784
  297SOL    HW1 1186   1.405   0.452   1.562 -2.4607  0.6412  1.2642
  297SOL    HW2 1187   1.383   0.293   1.591  1.4204  1.7744 -3.6051
  297SOL     MW 1188   1.366   0.373   1.547  0.2148  0.4657 -0.4402
  298SOL     OW 1189   1.691   0.927   2.127  0.3334  0.3222 -0.5787
  298SOL    HW1 1190   1.689   0.953   2.033  0.9025  1.5278 -2.8728
  298SOL    HW2 1191   1.751   0.849   2.136  0.4176 -0.9848  1.6778
  298SOL     MW 1192   1.698   0.920   2.116  0.4196  0.3088 -0.5837
  299SOL     OW 1193   0.609   1.130   0.050 -0.4339 -0.3145 -0.4982
  299SOL    HW1 1194   0.555   1.135  -0.029  0.7799  0.3796  1.7458
  299SOL    HW2 1195   0.698   1.162   0.029  0.1911 -0.8495 -0.5880
  299SOL     MW 1196   0.613   1.135   0.037 -0.1913 -0.2935 -0.2140
  300SOL     OW 1197   1.201   1.257   2.658 -0.2179  0.2579 -0.0055
  300SOL    HW1 1198   1.138   1.192   2.642  2.7561 -0.0226  2.6295
  300SOL    HW2 1199   1.272   1.209   2.696 -0.5359  1.1628  0.6043
  300SOL     MW 1200   1.202   1.242   2.661  0.1325  0.3403  0.4226
  301SOL     OW 1201   1.424   1.014   0.650 -0.0623 -0.3503 -0.6219
  301SOL    HW1 1202   1.433   1.038   0.740 -3.3891 -0.0996  1.8286
  301SOL    HW2 1203   1.373   0.934   0.661  0.3915 -2.6198  0.2471
  301SOL     MW 1204   1.418   1.006   0.663 -0.4414 -0.6167 -0.1839
  302SOL     OW 1205   0.245   1.592   2.092  0.2809  0.1358  0.0760
  302SOL    HW1 1206   0.225   1.499   2.089 -0.3292 -1.1151 -3.6532
  302SOL    HW2 1207   0.159   1.634   2.072  0.7565 -0.3956 -0.6719
  302SOL     MW 1208   0.231   1.585   2.089  0.2632 -0.0993 -0.5147
  303SOL     OW 1209   0.333   1.832   2.692  0.4966  0.3028 -0.0421
  303SOL    HW1 1210   0.276   1.824   2.611 -1.1953 -0.3722 -1.3387
  303SOL    HW2 1211   0.270   1.850   2.763  0.5781 -2.3355 -1.0723
  303SOL     MW 1212   0.318   1.833   2.690  0.2841 -0.1344 -0.3491
  304SOL     OW 1213   0.572   2.134   2.457  0.2558  0.0309  0.0256
  304SOL    HW1 1214   0.617   2.213   2.416 -0.3380  0.2591  2.2826
  304SOL    HW2 1215   0.621   2.055   2.431  0.9384  0.5583  0.9092
  304SOL     MW 1216   0.585   2.134   2.448  0.2675  0.1306  0.4400
  305SOL     OW 1217   1.132   0.598   0.525  0.6424 -0.2879  0.2061
  305SOL    HW1 1218   1.038   0.581   0.515 -0.1688  3.7428 -0.1939
  305SOL    HW2 1219   1.183   0.509   0.550  0.2318 -3.9518  0.7259
  305SOL     MW 1220   1.127   0.584   0.527  0.4812 -0.2395  0.2219
  306SOL     OW 1221   1.131   1.535   0.308 -0.0800 -0.2106 -0.0656
  306SOL    HW1 1222   1.132   1.436   0.298 -1.6276 -0.0291  2.0113
  306SOL    HW2 1223   1.204   1.548   0.244  1.5440  1.9851  1.2695
  306SOL     MW 1224   1.141   1.524   0.298 -0.0699  0.1030  0.3846
  307SOL     OW 1225   1.401   0.606   1.868 -0.9146  0.9192 -0.1657
  307SOL    HW1 1226   1.383   0.515   1.899 -0.5972  0.7089 -2.8716
  307SOL    HW2 1227   1.434   0.656   1.947  0.7247 -2.5972 -1.4628
  307SOL     MW 1228   1.403   0.601   1.883 -0.6564  0.4275 -0.6938
  308SOL     OW 1229   2.256   0.583   2.707  0.1281 -0.0765 -0.3714
  308SOL    HW1 1230   2.349   0.611   2.722  2.0089  0.4872 -0.0334
  308SOL    HW2 1231   2.205   0.663   2.696 -1.9400 -0.3539 -0.2284
  308SOL     MW 1232   2.262   0.597   2.707  0.1034 -0.0387 -0.3079
  309SOL     OW 1233   0.564   0.497   0.301  0.1773 -0.7500  0.0194
  309SOL    HW1 1234   0.631   0.539   0.242  2.0806  2.5557  1.7837
  309SOL    HW2 1235   0.551   0.410   0.254 -3.9530 -2.9894  1.7982
  309SOL     MW 1236   0.571   0.491   0.287 -0.1165 -0.6093  0.4869
  310SOL     OW 1237   0.415   0.551   1.833  0.6679  0.2562  0.1007
  310SOL    HW1 1238   0.421   0.524   1.740 -1.2837 -0.2466  0.2682
  310SOL    HW2 1239   0.480   0.621   1.844 -0.2469  1.5195  0.4507
  310SOL     MW 1240   0.424   0.557   1.823  0.2897  0.3565  0.1690
  311SOL     OW 1241   2.012   0.680   1.927  0.4767 -0.0829  0.3380
  311SOL    HW1 1242   1.964   0.707   2.007 -1.6473 -2.3975 -0.0045
  311SOL    HW2 1243   2.064   0.600   1.953  0.9312 -2.6225 -0.9689
  311SOL     MW 1244   2.013   0.673   1.941  0.2564 -0.7234  0.1204
  312SOL     OW 1245   1.781   2.378   0.188  0.4443 -0.5767  0.6758
  312SOL    HW1 1246   1.829   2.404   0.269  1.8636 -0.0309 -0.9477
  312SOL    HW2 1247   1.708   2.444   0.191  0.6796 -2.6543 -0.2631
  312SOL     MW 1248   1.778   2.390   0.199  0.6626 -0.7788  0.3377
  313SOL     OW 1249   0.067   1.175   3.034 -0.0859  0.5478 -0.4879
  313SOL    HW1 1250   0.046   1.205   3.121  1.3955  2.2375 -1.4942
  313SOL    HW2 1251   0.052   1.248   2.976  1.5680 -1.7273 -0.2488
  313SOL     MW 1252   0.062   1.188   3.038  0.3278  0.4706 -0.5891
  314SOL     OW 1253   2.216   2.853   3.064 -0.2320 -0.0935  0.1153
  314SOL    HW1 1254   2.157   2.894   2.996  1.1924 -0.2754  3.6446
  314SOL    HW2 1255   2.270   2.918   3.092 -0.2242 -0.5082 -1.2196
  314SOL     MW 1256   2.216   2.867   3.058 -0.0431 -0.1722  0.4048
  315SOL     OW 1257   1.507   1.865   3.031  0.1729  0.5295 -0.0336
  315SOL    HW1 1258   1.452   1.923   3.087 -0.1183  2.2492  1.8662
  315SOL    HW2 1259   1.540   1.921   2.966 -0.5690 -0.5747  0.2517
  315SOL     MW 1260   1.504   1.880   3.030  0.0366  0.6107  0.2547
  316SOL     OW 1261   1.227   0.685   2.687  0.1431 -0.3923 -0.0473
  316SOL    HW1 1262   1.292   0.734   2.734  2.5503  2.8008 -0.8516
  316SOL    HW2 1263   1.164   0.649   2.749 -2.9761  0.9354 -0.4059
  316SOL     MW 1264   1.227   0.686   2.701  0.0491  0.2042 -0.2007
  317SOL     OW 1265   0.648   1.629   2.539 -0.2249 -0.6265  0.2933
  317SOL    HW1 1266   0.716   1.561   2.543  1.3406  0.9375  0.1745
  317SOL    HW2 1267   0.611   1.610   2.453  1.1301 -0.8647 -4.5524
  317SOL     MW 1268   0.652   1.618   2.528  0.1605 -0.4515 -0.3617
  318SOL     OW 1269   1.346   0.371   2.858 -0.3694 -0.3725  0.1696
  318SOL    HW1 1270   1.274   0.438   2.839 -1.6539 -1.9972  0.2769
  318SOL    HW2 1271   1.428   0.412   2.825 -2.6263 -1.5446 -1.5502
  318SOL     MW 1272   1.347   0.385   2.851 -0.8367 -0.7415 -0.0431
  319SOL     OW 1273   0.809   0.502   2.869 -0.3990  0.3112  0.1906
  319SOL    HW1 1274   0.795   0.448   2.796  1.0957  5.3415  2.9414
  319SOL    HW2 1275   0.758   0.476   2.945 -2.1591 -0.3003  0.2676
  319SOL     MW 1276   0.800   0.492   2.869 -0.4340  0.8942  0.5637
  320SOL     OW 1277   1.009   1.307   2.052 -0.0970  0.5632  0.3823
  320SOL    HW1 1278   1.065   1.242   2.094 -0.5915  0.1699  0.1095
  320SOL    HW2 1279   1.064   1.372   2.002  0.9304  2.1873  2.1194
  320SOL     MW 1280   1.023   1.307   2.051 -0.0267  0.7256  0.5755
  321SOL     OW 1281   1.016   0.940   3.029 -0.4045  0.2918  0.0518
  321SOL    HW1 1282   0.975   0.912   2.938  2.1175 -4.8109 -1.3611
  321SOL    HW2 1283   1.082   0.866   3.052  2.6271 -1.0378 -2.1448
  321SOL     MW 1284   1.020   0.927   3.020  0.3282 -0.5569 -0.4244
  322SOL     OW 1285   1.307   0.897   1.619 -0.3971  0.0403 -0.5771
  322SOL    HW1 1286   1.356   0.817   1.630  1.0221  0.8752 -0.2332
  322SOL    HW2 1287   1.244   0.903   1.689 -0.1988  1.2254 -0.4483
  322SOL     MW 1288   1.305   0.887   1.630 -0.1837  0.3069 -0.5147
  323SOL     OW 1289   1.125   1.513   1.905 -0.0472  0.2052 -0.3044
  323SOL    HW1 1290   1.137   1.509   1.811 -1.3738  0.1825 -1.2320
  323SOL    HW2 1291   1.082   1.597   1.918 -0.1480 -1.9486  2.0361
  323SOL     MW 1292   1.121   1.524   1.894 -0.2355 -0.0819 -0.1180
  324SOL     OW 1293   1.426   0.827   2.467 -0.0422 -0.1110 -0.3919
  324SOL    HW1 1294   1.331   0.846   2.489  2.2455 -2.7080 -1.0602
  324SOL    HW2 1295   1.460   0.875   2.540  2.1518 -0.8481  0.7813
  324SOL     MW 1296   1.418   0.836   2.479  0.5491 -0.5509 -0.3253
  325SOL     OW 1297   1.083   0.539   2.901 -0.1134 -0.0715 -0.2433
  325SOL    HW1 1298   1.076   0.579   2.991  1.4888 -0.4558  0.5253
  325SOL    HW2 1299   0.994   0.522   2.870 -2.7219  2.6070  1.6538
  325SOL     MW 1300   1.070   0.542   2.909 -0.2462  0.2312  0.1084
  326SOL     OW 1301   0.395   1.353   2.340  0.5793 -0.1078 -0.4140
  326SOL    HW1 1302   0.481   1.312   2.331 -1.4851  0.3217 -0.3896
  326SOL    HW2 1303   0.402   1.446   2.323 -0.9287  0.2847 -2.0367
  326SOL     MW 1304   0.407   1.360   2.336  0.1080  0.0007 -0.6249
  327SOL     OW 1305   1.954   0.733   2.420  0.0880 -0.0294 -0.4071
  327SOL    HW1 1306   1.928   0.700   2.507  0.6694 -2.2909  0.4802
  327SOL    HW2 1307   1.972   0.826   2.437 -1.1160  0.5683  0.8221
  327SOL     MW 1308   1.953   0.741   2.434  0.0059 -0.2489 -0.1279
  328SOL     OW 1309   0.251   1.300   2.115 -0.3523 -0.5031  0.2228
  328SOL    HW1 1310   0.201   1.227   2.132 -0.2427  1.9671 -0.3273
  328SOL    HW2 1311   0.292   1.326   2.196 -2.8081  1.0720 -0.2191
  328SOL     MW 1312   0.250   1.294   2.128 -0.6619  0.0306  0.0919
  329SOL     OW 1313   0.041   0.169   1.338  0.4509  0.3905 -0.3927
  329SOL    HW1 1314  -0.016   0.164   1.425  0.5002  0.4406  0.0593
  329SOL    HW2 1315   0.123   0.211   1.363  0.4608  1.4112  0.8862
  329SOL     MW 1316   0.044   0.174   1.353  0.4587  0.5318 -0.1644
  330SOL     OW 1317   0.338   0.096   1.942  0.3999 -0.0873 -0.2692
  330SOL    HW1 1318   0.414   0.154   1.920  0.7690  0.5926  1.8470
  330SOL    HW2 1319   0.381   0.055   2.015  1.8853  0.8807 -1.7644
  330SOL     MW 1320   0.353   0.098   1.949  0.6445  0.1301 -0.1873
  331SOL     OW 1321   0.833   1.196   2.445  1.1036 -0.4211  0.3331
  331SOL    HW1 1322   0.757   1.213   2.392 -1.6423  4.2853  2.0544
  331SOL    HW2 1323   0.846   1.256   2.519 -3.6246 -1.8254 -0.5777
  331SOL     MW 1324   0.825   1.207   2.448  0.1174  0.0146  0.4400
  332SOL     OW 1325   1.397   1.627   2.969 -0.0252 -0.1511  0.1767
  332SOL    HW1 1326   1.374   1.645   2.876  3.9276 -0.9110 -2.4910
  332SOL    HW2 1327   1.420   1.717   3.000 -1.5769  0.8525  0.3839
  332SOL     MW 1328   1.397   1.641   2.961  0.2916 -0.1190 -0.1480
  333SOL     OW 1329   1.706   1.433   2.911 -0.2029  0.5494  0.0855
  333SOL    HW1 1330   1.802   1.415   2.896  0.4147 -0.2133 -1.7090
  333SOL    HW2 1331   1.687   1.359   2.971  0.8599  2.7482  0.4104
  333SOL     MW 1332   1.716   1.421   2.917  0.0188  0.7389 -0.1084
  334SOL     OW 1333   1.275   3.054   2.604 -0.4925  0.0733 -0.3973
  334SOL    HW1 1334   1.225   3.070   2.689 -4.5134  3.7426  0.7301
  334SOL    HW2 1335   1.357   3.098   2.622 -2.1395 -0.0440 -1.1579
  334SOL     MW 1336   1.279   3.062   2.617 -1.2403  0.5419 -0.3489
  335SOL     OW 1337   1.258   0.808   3.063  0.2136 -0.1352  0.7302
  335SOL    HW1 1338   1.318   0.790   3.135 -2.4902  1.1420  0.4407
  335SOL    HW2 1339   1.322   0.801   2.983 -0.0502  1.4638 -3.6500
  335SOL     MW 1340   1.274   0.805   3.062 -0.1780  0.2443  0.1141
  336SOL     OW 1341   0.893   1.115   1.662  0.7071 -0.2998 -0.6096
  336SOL    HW1 1342   0.820   1.138   1.721 -1.8010  1.5290  0.3245
  336SOL    HW2 1343   0.950   1.055   1.718  2.4186  0.3838  1.0174
  336SOL     MW 1344   0.891   1.110   1.677  0.6020  0.0317 -0.2717
  337SOL     OW 1345   0.523   1.921   2.857  0.0363  0.0193 -0.0971
  337SOL    HW1 1346   0.475   1.897   2.778  0.3350  1.6426 -1.3759
  337SOL    HW2 1347   0.609   1.885   2.838  0.7828 -1.1461 -1.7298
  337SOL     MW 1348   0.528   1.913   2.844  0.1742  0.0797 -0.4812
  338SOL     OW 1349   1.139   0.802   2.453  0.2285  0.1454 -0.0064
  338SOL    HW1 1350   1.052   0.762   2.438  2.4006  1.1505  0.4881
  338SOL    HW2 1351   1.175   0.749   2.531 -1.9419 -0.1566  0.4182
  338SOL     MW 1352   1.133   0.790   2.461  0.2287  0.2382  0.1149
  339SOL     OW 1353   1.304   1.258   1.976  0.0189  0.3591  0.0671
  339SOL    HW1 1354   1.335   1.217   1.897 -0.6335 -0.9351  1.9663
  339SOL    HW2 1355   1.255   1.194   2.021  0.1679  0.9297  0.3556
  339SOL     MW 1356   1.302   1.244   1.972 -0.0475  0.2636  0.3557
  340SOL     OW 1357   1.328   1.552   0.130 -0.3803  0.2963  0.3590
  340SOL    HW1 1358   1.363   1.548   0.034 -0.6448  0.6284  0.8034
  340SOL    HW2 1359   1.366   1.471   0.170  1.0684 -1.8739 -1.2667
  340SOL     MW 1360   1.338   1.541   0.122 -0.2241  0.0538  0.2031
  341SOL     OW 1361   0.065   1.393   2.839 -0.1151  0.0227 -0.0294
  341SOL    HW1 1362   0.154   1.359   2.872  2.3797 -1.6655  0.4287
  341SOL    HW2 1363   0.082   1.397   2.744 -0.6528 -3.1290  0.0424
  341SOL     MW 1364   0.079   1.389   2.831  0.1431 -0.6159  0.0405
  342SOL     OW 1365   1.381   0.346   0.024  0.0796 -0.3452 -0.5044
  342SOL    HW1 1366   1.449   0.380   0.081  1.5258  0.0749 -0.5881
  342SOL    HW2 1367   1.390   0.384  -0.063  1.2625 -2.1675 -1.5301
  342SOL     MW 1368   1.391   0.356   0.020  0.4265 -0.5302 -0.6508
  343SOL     OW 1369   0.256   0.303   2.117  0.2078  0.3019  0.6247
  343SOL    HW1 1370   0.273   0.235   2.053  0.2347  0.8318 -1.6857
  343SOL    HW2 1371   0.164   0.292   2.146 -0.2248  0.1748  0.9985
  343SOL     MW 1372   0.246   0.293   2.112  0.1542  0.3550  0.3692
  344SOL     OW 1373   1.658   2.104   0.189 -0.1629  0.4820  0.6855
  344SOL    HW1 1374   1.662   2.136   0.098  0.3809  0.8748 -2.2473
  344SOL    HW2 1375   1.632   2.189   0.244 -1.3648  2.4651  0.9199
  344SOL     MW 1376   1.655   2.120   0.184 -0.2497  0.7954  0.3294
  345SOL     OW 1377   0.599   1.585   2.261 -0.1873 -0.0371 -0.4806
  345SOL    HW1 1378   0.540   1.615   2.196 -0.9698  1.6095  0.3683
  345SOL    HW2 1379   0.681   1.579   2.218 -1.2979  0.5298 -0.1130
  345SOL     MW 1380   0.602   1.588   2.247 -0.4371  0.2549 -0.3201
  346SOL     OW 1381   1.648   1.183   0.020  0.1933  0.0414 -0.1479
  346SOL    HW1 1382   1.712   1.231   0.067 -2.1816 -2.0960 -0.0225
  346SOL    HW2 1383   1.635   1.108   0.071  1.1984 -0.2306  0.5832
  346SOL     MW 1384   1.655   1.180   0.033  0.0125 -0.2765 -0.0349
  347SOL     OW 1385   1.232   0.737   2.205 -0.4224 -0.2050  0.2285
  347SOL    HW1 1386   1.241   0.646   2.238 -1.5505 -0.1183 -1.0360
  347SOL    HW2 1387   1.209   0.787   2.282  1.2292 -2.3168 -0.1031
  347SOL     MW 1388   1.230   0.731   2.219 -0.3533 -0.4722  0.0179
  348SOL     OW 1389   1.291   2.539   1.954  0.2141 -0.0289  0.3883
  348SOL    HW1 1390   1.318   2.459   2.008  2.0916 -0.3702 -0.1875
  348SOL    HW2 1391   1.338   2.616   1.985  2.5727  2.4200  0.4125
  348SOL     MW 1392   1.301   2.539   1.966  0.7730  0.2492  0.3155
  349SOL     OW 1393   1.460   0.118   2.766  0.3791  0.2110  0.0467
  349SOL    HW1 1394   1.387   0.173   2.789  1.5678 -2.7743 -2.2439
  349SOL    HW2 1395   1.509   0.106   2.850  2.1996  1.7774 -0.2469
  349SOL     MW 1396   1.457   0.123   2.780  0.7762  0.0238 -0.2942
  350SOL     OW 1397   1.870   0.623   2.650 -0.4176  0.0681 -0.2763
  350SOL    HW1 1398   1.815   0.558   2.601 -1.1129 -2.9821 -1.8047
  350SOL    HW2 1399   1.934   0.575   2.709  0.2024 -1.1022  0.3313
  350SOL     MW 1400   1.871   0.608   2.652 -0.4276 -0.4888 -0.3978
  351SOL     OW 1401   0.182   1.103   1.554  0.6039 -0.0682 -0.4146
  351SOL    HW1 1402   0.144   1.026   1.599  1.9907  0.6426  3.1231
  351SOL    HW2 1403   0.223   1.160   1.619 -0.5743  0.6973 -0.4683
  351SOL     MW 1404   0.182   1.100   1.568  0.6315  0.1266  0.0451
  352SOL     OW 1405   0.759   1.779   2.812 -0.5102 -0.2380 -0.1023
  352SOL    HW1 1406   0.784   1.699   2.860 -1.1209 -1.0903 -0.6688
  352SOL    HW2 1407   0.750   1.751   2.722 -0.3309 -3.4151  0.2848
  352SOL     MW 1408   0.761   1.765   2.806 -0.5671 -0.7697 -0.1260
  353SOL     OW 1409   3.093   2.513   2.671  0.1576 -0.6841 -0.2161
  353SOL    HW1 1410   3.171   2.461   2.669 -1.1480 -1.9809  0.3963
  353SOL    HW2 1411   3.105   2.585   2.603  2.8074  0.4897 -0.0408
  353SOL     MW 1412   3.105   2.516   2.662  0.3349 -0.7003 -0.1122
  354SOL     OW 1413   0.345   2.455   0.815 -0.2954  0.6048 -0.4749
  354SOL    HW1 1414   0.387   2.402   0.888  0.7594 -0.0208  0.9853
  354SOL    HW2 1415   0.273   2.396   0.792 -0.5789  0.6649  3.0652
  354SOL     MW 1416   0.341   2.440   0.821 -0.1937  0.5302  0.1848
  355SOL     OW 1417   0.095   2.294   0.362 -0.7403  0.6600  0.0342
  355SOL    HW1 1418   0.021   2.242   0.356  1.0460 -0.7198  1.6751
  355SOL    HW2 1419   0.074   2.345   0.442  1.7134  1.3869  3.4918
  355SOL     MW 1420   0.082   2.294   0.372 -0.1809  0.5739  0.7069
  356SOL     OW 1421   0.771   2.946   1.012 -0.0116 -0.1586  0.0017
  356SOL    HW1 1422   0.831   2.927   0.940 -0.4330  2.5999  0.6867
  356SOL    HW2 1423   0.689   2.918   0.978  1.1080 -0.1105 -1.7794
  356SOL     MW 1424   0.768   2.940   0.998  0.0805  0.2117 -0.1429
  357SOL     OW 1425   1.894   2.809   0.448  0.3639 -0.3598  0.3446
  357SOL    HW1 1426   1.848   2.763   0.518  0.2561 -1.5836  0.1087
  357SOL    HW2 1427   1.983   2.774   0.448  0.8098  0.0035  0.4744
  357SOL     MW 1428   1.900   2.798   0.457  0.4085 -0.4733  0.3306
  358SOL     OW 1429   0.373   0.124   1.020  0.3321 -0.2025  1.0188
  358SOL    HW1 1430   0.473   0.126   1.015  1.3508 -0.3673 -0.8301
  358SOL    HW2 1431   0.342   0.188   0.955  1.3004  2.2754  0.7320
  358SOL     MW 1432   0.382   0.133   1.011  0.5943  0.1027  0.7370
  359SOL     OW 1433   0.874   2.952   1.922 -0.7875  0.3943  0.2881
  359SOL    HW1 1434   0.855   2.864   1.966  0.8617 -0.7954  1.5265
  359SOL    HW2 1435   0.873   2.934   1.826 -0.2803  0.3986  2.9814
  359SOL     MW 1436   0.872   2.938   1.915 -0.5030  0.2379  0.8068
  360SOL     OW 1437   0.566   2.779   0.893 -0.0878  0.5660  0.4735
  360SOL    HW1 1438   0.608   2.745   0.813  1.3001  1.8790  2.2065
  360SOL    HW2 1439   0.571   2.697   0.944  0.4130 -2.9109 -1.7434
  360SOL     MW 1440   0.572   2.763   0.889  0.1614  0.2805  0.4097
  361SOL     OW 1441   0.090   2.715   1.322 -0.1739 -0.1503 -0.6268
  361SOL    HW1 1442   0.005   2.748   1.364 -1.0936 -1.7699 -0.4617
  361SOL    HW2 1443   0.160   2.747   1.384 -0.4309  0.3601  3.5093
  361SOL     MW 1444   0.088   2.723   1.336 -0.3291 -0.2967 -0.0593
  362SOL     OW 1445   1.412   2.433   0.582 -0.1097  0.3540  0.3310
  362SOL    HW1 1446   1.458   2.366   0.636  2.5736 -0.2025  0.3596
  362SOL    HW2 1447   1.470   2.510   0.572  0.5385  0.8102  0.4556
  362SOL     MW 1448   1.426   2.434   0.587  0.3298  0.3407  0.3512
  363SOL     OW 1449   0.337   3.080   0.662 -0.1876 -0.0631  0.1409
  363SOL    HW1 1450   0.344   3.028   0.740 -1.5125 -2.2135  0.7069
  363SOL    HW2 1451   0.256   3.066   0.619 -0.2622 -2.2296  0.9436
  363SOL     MW 1452   0.327   3.071   0.667 -0.3722 -0.6326  0.3215
  364SOL     OW 1453   0.796   0.263   0.130  0.3120  0.0515 -0.2409
  364SOL    HW1 1454   0.739   0.192   0.167 -0.9013 -1.3408  0.5118
  364SOL    HW2 1455   0.735   0.312   0.076  1.6336  0.1208  2.5638
  364SOL     MW 1456   0.780   0.260   0.128  0.3263 -0.1230  0.2285
  365SOL     OW 1457   0.919   2.019   1.281  0.1444 -0.0045 -0.2399
  365SOL    HW1 1458   0.869   2.105   1.254 -0.5632  0.7294  0.7350
  365SOL    HW2 1459   0.878   1.948   1.232  4.5831  0.7772  1.8274
  365SOL     MW 1460   0.907   2.021   1.271  0.6367  0.1955  0.1615
  366SOL     OW 1461   2.860   2.634   0.947 -0.0716 -0.1480  0.1875
  366SOL    HW1 1462   2.936   2.611   1.006 -2.7093 -0.8254  1.3352
  366SOL    HW2 1463   2.896   2.650   0.858 -3.2097  1.4013 -0.6423
  366SOL     MW 1464   2.875   2.633   0.943 -0.8337 -0.0329  0.2295
  367SOL     OW 1465   1.312   3.075   0.990  0.4131  0.1346 -0.2901
  367SOL    HW1 1466   1.393   3.083   1.033 -0.1866 -1.4538 -0.8006
  367SOL    HW2 1467   1.324   3.065   0.900 -0.1994  3.2589  1.6496
  367SOL     MW 1468   1.324   3.075   0.984  0.2532  0.3372 -0.1015
  368SOL     OW 1469   1.770   0.405   0.580  0.3966  0.4066 -0.0590
  368SOL    HW1 1470   1.818   0.351   0.524 -0.5675  1.0577  0.8549
  368SOL    HW2 1471   1.755   0.487   0.528 -1.5089  3.2380 -1.8286
  368SOL     MW 1472   1.774   0.409   0.566  0.0180  0.8661 -0.1719
  369SOL     OW 1473   0.181   2.476   1.756 -0.6917  0.7776 -0.6107
  369SOL    HW1 1474   0.274   2.486   1.768 -1.6785  2.1647 -1.3965
  369SOL    HW2 1475   0.157   2.568   1.733  0.0112 -0.3751 -1.0292
  369SOL     MW 1476   0.190   2.490   1.755 -0.7292  0.8085 -0.7696
  370SOL     OW 1477   0.657   0.107   1.040 -0.0255 -0.5899 -0.3662
  370SOL    HW1 1478   0.710   0.137   0.965 -2.3062 -0.1976 -0.2651
  370SOL    HW2 1479   0.681   0.013   1.053 -0.4955 -1.1509  2.6468
  370SOL     MW 1480   0.667   0.099   1.032 -0.3884 -0.6122  0.0447
  371SOL     OW 1481   1.101   2.895   1.481 -0.3377 -0.1716  0.3307
  371SOL    HW1 1482   1.143   2.821   1.439  0.4622  1.7589 -1.0169
  371SOL    HW2 1483   1.121   2.968   1.420 -2.0987 -0.4353 -0.3719
  371SOL     MW 1484   1.109   2.895   1.467 -0.4645  0.0483  0.0602
  372SOL     OW 1485   0.831   2.290   0.464 -0.2119 -0.3848 -0.2877
  372SOL    HW1 1486   0.793   2.211   0.508 -0.7056  0.1308 -1.6108
  372SOL    HW2 1487   0.869   2.255   0.381 -0.7329 -0.5137 -0.1310
  372SOL     MW 1488   0.831   2.275   0.459 -0.3458 -0.3338 -0.4416
  373SOL     OW 1489   2.812   2.965   1.405  0.1363  0.2551 -0.0906
  373SOL    HW1 1490   2.873   2.963   1.329 -2.0485 -0.3994  1.2590
  373SOL    HW2 1491   2.768   3.048   1.395  0.5584  0.6445 -1.1117
  373SOL     MW 1492   2.814   2.976   1.394 -0.0963  0.2201 -0.0473
  374SOL     OW 1493   1.561   0.450   0.203  0.1841  0.4393  0.2828
  374SOL    HW1 1494   1.653   0.426   0.207 -1.0195 -0.5365 -2.6804
  374SOL    HW2 1495   1.531   0.412   0.280  1.5374 -0.0002 -0.1755
  374SOL     MW 1496   1.569   0.442   0.214  0.2038  0.2526 -0.1687
  375SOL     OW 1497   1.093   1.987   2.189 -0.3381 -0.6347 -0.1589
  375SOL    HW1 1498   1.117   1.977   2.282  0.8107 -0.1861 -2.3433
  375SOL    HW2 1499   1.002   1.954   2.185  0.8578  0.9233  0.8974
  375SOL     MW 1500   1.084   1.981   2.201 -0.0287 -0.3700 -0.3078
  376SOL     OW 1501   0.809   2.534   0.104  0.0371  0.0270 -0.0117
  376SOL    HW1 1502   0.743   2.479   0.158 -4.0367 -1.6994  1.3513
  376SOL    HW2 1503   0.806   2.511   0.015 -0.3654 -0.4369 -1.3858
  376SOL     MW 1504   0.800   2.524   0.100 -0.5535 -0.2620 -0.0131
  377SOL     OW 1505   1.316   2.068   0.962  0.4464 -0.5490 -0.5189
  377SOL    HW1 1506   1.251   2.042   0.898 -3.6777 -2.7845  0.5104
  377SOL    HW2 1507   1.287   2.016   1.040 -0.7514  1.2921 -0.8012
  377SOL     MW 1508   1.304   2.058   0.964 -0.2558 -0.6011 -0.4203
  378SOL     OW 1509   0.866   2.874   1.664  0.2375  0.0517  0.3529
  378SOL    HW1 1510   0.861   2.786   1.633  0.2084  0.4774  2.5367
  378SOL    HW2 1511   0.950   2.898   1.614  0.5518  0.7162 -0.1785
  378SOL     MW 1512   0.877   2.865   1.654  0.2751  0.1955  0.5709
  379SOL     OW 1513   1.029   1.522   2.343 -0.2962 -0.2805 -0.2151
  379SOL    HW1 1514   0.962   1.547   2.280  0.8959 -1.1956  0.2675
  379SOL    HW2 1515   1.116   1.527   2.316 -0.9909 -1.3085  1.2033
  379SOL     MW 1516   1.032   1.526   2.331 -0.2306 -0.5368  0.0357
  380SOL     OW 1517   0.913   0.195   1.495  0.0075 -0.0674 -0.2524
  380SOL    HW1 1518   0.906   0.111   1.449 -0.9329  0.5997 -0.3560
  380SOL    HW2 1519   0.965   0.196   1.572  0.2542 -1.3529  0.3428
  380SOL     MW 1520   0.919   0.184   1.499 -0.0840 -0.1490 -0.1876
  381SOL     OW 1521   0.818   2.026   0.913 -0.1648 -0.4377  0.4998
  381SOL    HW1 1522   0.909   2.026   0.888 -1.1061 -3.5507  0.0038
  381SOL    HW2 1523   0.819   2.105   0.968  1.7886  0.8239 -0.0184
  381SOL     MW 1524   0.830   2.036   0.917 -0.0313 -0.6820  0.3660
  382SOL     OW 1525   0.842   0.115   0.642  0.3685  0.4683 -0.1440
  382SOL    HW1 1526   0.815   0.160   0.720  0.6785  1.3666 -1.1474
  382SOL    HW2 1527   0.803   0.022   0.646 -3.0322 -0.8859  1.6392
  382SOL     MW 1528   0.833   0.108   0.653 -0.0393  0.4081 -0.0411
  383SOL     OW 1529   0.661   0.037   0.205 -0.2342  0.1054 -0.6834
  383SOL    HW1 1530   0.718  -0.040   0.181  0.5508  0.3507 -0.0732
  383SOL    HW2 1531   0.625  -0.007   0.280  0.8873  1.4399 -4.0274
  383SOL     MW 1532   0.664   0.021   0.212  0.0174  0.3139 -1.0441
  384SOL     OW 1533   0.829   2.930   0.675  0.6454  0.1441  0.4131
  384SOL    HW1 1534   0.909   2.943   0.727 -0.1240  0.2515 -1.2352
  384SOL    HW2 1535   0.814   2.834   0.681  2.8415 -1.1545  0.5041
  384SOL     MW 1536   0.837   2.919   0.682  0.8336 -0.0130  0.2077
  385SOL     OW 1537   1.378   2.015   1.576  0.5825 -0.9424 -0.3987
  385SOL    HW1 1538   1.452   2.062   1.620  1.9016 -0.5389  2.9757
  385SOL    HW2 1539   1.357   1.939   1.628  0.5093 -1.6170  0.4223
  385SOL     MW 1540   1.385   2.011   1.588  0.7469 -0.9781  0.1549
  386SOL     OW 1541   1.505   0.407   0.899  0.1525  0.0367  0.0509
  386SOL    HW1 1542   1.463   0.428   0.982  1.6992 -0.9018 -0.4224
  386SOL    HW2 1543   1.584   0.358   0.925 -2.9571 -1.4815  0.9233
  386SOL     MW 1544   1.509   0.404   0.913 -0.0537 -0.2874  0.1036
  387SOL     OW 1545   0.820   2.262   1.570 -0.0850 -1.1528  0.5259
  387SOL    HW1 1546   0.909   2.303   1.536  1.6897  1.8020 -0.1658
  387SOL    HW2 1547   0.831   2.175   1.541  1.8786  2.6147 -2.5904
  387SOL     MW 1548   0.833   2.256   1.561  0.4082 -0.2658  0.0235
  388SOL     OW 1549   1.504   2.788   1.522  0.0239  0.2857 -0.2853
  388SOL    HW1 1550   1.440   2.838   1.467  0.9124 -0.1876 -0.8413
  388SOL    HW2 1551   1.554   2.732   1.462 -0.8227 -1.1664 -1.2919
  388SOL     MW 1552   1.502   2.787   1.507  0.0295  0.0316 -0.4914
  389SOL     OW 1553   0.397   0.128   3.073 -0.5429  0.4606  0.4456
  389SOL    HW1 1554   0.471   0.073   3.043  2.4137 -1.3393  0.3655
  389SOL    HW2 1555   0.390   0.187   2.996  0.8900  2.1082  1.1439
  389SOL     MW 1556   0.406   0.128   3.059  0.0363  0.4405  0.5271
  390SOL     OW 1557   1.359   3.089   0.703  0.0901  0.0430  0.4867
  390SOL    HW1 1558   1.339   3.051   0.615  0.7547  2.1762  1.3753
  390SOL    HW2 1559   1.426   3.150   0.675  1.6432  3.1973 -0.7845
  390SOL     MW 1560   1.365   3.092   0.688  0.3827  0.7406  0.4362
  391SOL     OW 1561   0.332   2.228   1.481  0.4783  0.8706 -0.6490
  391SOL    HW1 1562   0.313   2.219   1.575 -2.5547 -1.1171 -0.3492
  391SOL    HW2 1563   0.295   2.317   1.454  0.8619 -1.2905 -2.7005
  391SOL     MW 1564   0.325   2.239   1.490  0.1288  0.3232 -0.8801
  392SOL     OW 1565   1.931   2.111   0.275 -0.4185  0.3358 -0.6336
  392SOL    HW1 1566   1.959   2.188   0.333 -0.4914 -0.4137  0.3954
  392SOL    HW2 1567   1.855   2.142   0.226  0.2879  0.1234 -0.0764
  392SOL     MW 1568   1.925   2.125   0.276 -0.3349  0.2089 -0.4243
  393SOL     OW 1569   0.247   2.985   2.780 -0.0218  0.9249 -0.3000
  393SOL    HW1 1570   0.329   2.984   2.736  0.2449  0.4766  0.2028
  393SOL    HW2 1571   0.214   3.074   2.781  0.3315 -0.2402 -2.0307
  393SOL     MW 1572   0.253   2.997   2.775  0.0600  0.7121 -0.4620
  394SOL     OW 1573   0.973   1.762   1.637  0.0971  0.4214  0.2088
  394SOL    HW1 1574   1.011   1.785   1.727 -0.3059 -1.4141  3.4517
  394SOL    HW2 1575   0.924   1.840   1.606 -0.2415  1.8145 -0.0793
  394SOL     MW 1576   0.972   1.775   1.645 -0.0008  0.3630  0.5987
  395SOL     OW 1577   0.934   2.935   2.699 -0.3561  0.1128 -0.1140
  395SOL    HW1 1578   0.975   3.015   2.726 -3.0678 -3.4052  0.4574
  395SOL    HW2 1579   1.005   2.877   2.673  0.2188 -0.8200 -0.3353
  395SOL     MW 1580   0.949   2.938   2.699 -0.6380 -0.4744 -0.0678
  396SOL     OW 1581   0.719   1.878   2.449 -0.8262 -0.2496  0.3458
  396SOL    HW1 1582   0.806   1.870   2.491  1.4152  2.6726 -2.2919
  396SOL    HW2 1583   0.671   1.799   2.471  0.0126 -1.4114  0.8967
  396SOL     MW 1584   0.724   1.867   2.457 -0.4198 -0.0174  0.0705
  397SOL     OW 1585   1.054   2.327   1.431 -0.0241  0.2113  0.8321
  397SOL    HW1 1586   1.074   2.328   1.338 -0.5861  1.6272  0.3499
  397SOL    HW2 1587   1.123   2.302   1.487 -0.7561 -0.3051 -3.4272
  397SOL     MW 1588   1.065   2.324   1.426 -0.1948  0.3300  0.2065
  398SOL     OW 1589   0.719   2.663   0.701 -0.3225 -0.8693 -0.1445
  398SOL    HW1 1590   0.701   2.669   0.611 -0.6022  0.3971  0.8743
  398SOL    HW2 1591   0.764   2.577   0.712  1.1740  1.6156  0.6279
  398SOL     MW 1592   0.723   2.652   0.690 -0.1619 -0.3743  0.0918
  399SOL     OW 1593   0.336   2.113   0.354  0.4097  0.0659 -0.3070
  399SOL    HW1 1594   0.265   2.169   0.374  0.4832  0.4257  1.7049
  399SOL    HW2 1595   0.369   2.137   0.269  1.0617  1.5116 -0.8507
  399SOL     MW 1596   0.331   2.123   0.345  0.5054  0.3041 -0.1133
  400SOL     OW 1597   0.632   1.961   0.146  0.9145  0.5186 -0.2636
  400SOL    HW1 1598   0.579   2.039   0.142 -0.5900 -1.9147  1.1014
  400SOL    HW2 1599   0.590   1.889   0.189 -0.8493 -0.1467 -0.8428
  400SOL     MW 1600   0.619   1.962   0.151  0.4832  0.1098 -0.1599
  401SOL     OW 1601   0.866   2.046   0.040  0.8378  0.4443  0.4141
  401SOL    HW1 1602   0.941   1.985   0.059  3.3944  0.2243  2.4563
  401SOL    HW2 1603   0.782   2.009   0.075 -3.0548 -1.7228 -3.0398
  401SOL     MW 1604   0.865   2.033   0.047  0.6615  0.1293  0.2278
  402SOL     OW 1605   0.579   3.032   1.863  0.1981 -0.7523  0.0892
  402SOL    HW1 1606   0.666   3.059   1.897 -1.2666  1.3495  1.1552
  402SOL    HW2 1607   0.596   3.023   1.772 -3.9225  1.9257  0.6333
  402SOL     MW 1608   0.592   3.034   1.856 -0.5388 -0.1216  0.3017
  403SOL     OW 1609   0.139   0.513   0.443 -0.1692  0.0947 -0.1524
  403SOL    HW1 1610   0.222   0.520   0.486 -3.1861 -1.3170 -2.0577
  403SOL    HW2 1611   0.161   0.453   0.371  1.4241 -1.5844 -0.1648
  403SOL     MW 1612   0.153   0.506   0.439 -0.3570 -0.3131 -0.4054
  404SOL     OW 1613   1.026   2.994   0.847  0.5498  0.0580  0.6177
  404SOL    HW1 1614   1.097   2.928   0.834 -1.1301 -3.9211  0.3893
  404SOL    HW2 1615   1.062   3.081   0.814  0.2645  2.4378  0.7553
  404SOL     MW 1616   1.040   2.997   0.841  0.2905 -0.1530  0.6058
  405SOL     OW 1617   0.482   2.499   1.470 -0.5548 -0.1892 -0.4324
  405SOL    HW1 1618   0.493   2.570   1.407  2.0712  1.7575 -0.3847
  405SOL    HW2 1619   0.535   2.437   1.426 -2.9563  1.0666 -0.6931
  405SOL     MW 1620   0.490   2.500   1.456 -0.5252  0.2334 -0.4605
  406SOL     OW 1621   0.427   2.335   1.053 -0.0584  0.1834  0.2712
  406SOL    HW1 1622   0.328   2.343   1.053  0.6080  2.2474 -2.0280
  406SOL    HW2 1623   0.441   2.273   1.122  0.0364 -0.3320  1.7511
  406SOL     MW 1624   0.415   2.328   1.062  0.0420  0.3877  0.1631
  407SOL     OW 1625   0.020   2.635   1.064 -0.1985  0.7644  0.3744
  407SOL    HW1 1626   0.074   2.667   1.136  1.4226  1.1677  2.1939
  407SOL    HW2 1627   0.067   2.661   0.985 -0.7736  1.6121  0.4534
  407SOL     MW 1628   0.033   2.642   1.063 -0.0605  0.9294  0.6249
  408SOL     OW 1629   2.096   2.207   0.731 -0.2711 -0.3375  0.2686
  408SOL    HW1 1630   2.033   2.214   0.805  0.1900  2.6994 -0.6690
  408SOL    HW2 1631   2.045   2.147   0.671 -1.7918 -1.8616  0.2341
  408SOL     MW 1632   2.081   2.200   0.733 -0.4109 -0.1379  0.1404
  409SOL     OW 1633   1.621   0.076   0.826 -0.8251 -0.6206  0.2926
  409SOL    HW1 1634   1.690   0.144   0.839 -2.2454  0.0408 -0.3314
  409SOL    HW2 1635   1.591   0.055   0.918  0.3303 -0.6919 -1.1789
  409SOL     MW 1636   1.626   0.082   0.840 -0.8600 -0.5427  0.0161
  410SOL     OW 1637   1.099   2.479   1.183  0.0652  0.5707 -0.1996
  410SOL    HW1 1638   1.041   2.500   1.108 -1.2345  1.9957 -1.3971
  410SOL    HW2 1639   1.171   2.440   1.135 -1.1008  1.7469  1.9214
  410SOL     MW 1640   1.101   2.477   1.167 -0.2601  0.9139 -0.0778
  411SOL     OW 1641   1.990   2.941   2.938  0.0282 -0.1947 -0.4332
  411SOL    HW1 1642   1.961   2.929   2.850 -2.0117 -0.4419  2.2817
  411SOL    HW2 1643   1.971   3.035   2.960  0.7329 -0.4177  0.9538
  411SOL     MW 1644   1.983   2.952   2.929 -0.1480 -0.2568  0.1080
  412SOL     OW 1645   1.101   2.225   0.638 -0.1614 -0.4824 -0.5279
  412SOL    HW1 1646   1.118   2.313   0.668 -0.9076 -0.3021 -0.0085
  412SOL    HW2 1647   1.014   2.223   0.602  3.3003 -1.4754 -1.1034
  412SOL     MW 1648   1.092   2.236   0.637  0.1969 -0.5896 -0.5353
  413SOL     OW 1649   0.561   2.665   0.066  0.3904  0.0934 -0.3033
  413SOL    HW1 1650   0.636   2.624   0.100 -3.0810 -0.1862 -1.0535
  413SOL    HW2 1651   0.582   2.657  -0.029 -2.5764 -0.0686 -1.9188
  413SOL     MW 1652   0.574   2.659   0.058 -0.4591  0.0351 -0.6154
  414SOL     OW 1653   2.082   3.047   1.097  0.0229  0.5639  0.4714
  414SOL    HW1 1654   2.174   3.054   1.104  1.7863 -0.0860  0.9243
  414SOL    HW2 1655   2.060   3.042   1.004  0.3541  2.1234  0.5150
  414SOL     MW 1656   2.091   3.047   1.086  0.2992  0.6839  0.5369
  415SOL     OW 1657   1.659   2.852   1.215  0.6011  0.9083  0.6245
  415SOL    HW1 1658   1.707   2.853   1.299 -1.1509 -1.5008 -0.4166
  415SOL    HW2 1659   1.704   2.776   1.167  1.6424  0.0675 -1.0840
  415SOL     MW 1660   1.672   2.842   1.220  0.5073  0.4795  0.2617
  416SOL     OW 1661   0.666   1.753   1.479 -0.9610 -0.0280  0.5872
  416SOL    HW1 1662   0.586   1.770   1.436  2.3152 -1.6078  3.8743
  416SOL    HW2 1663   0.686   1.668   1.435 -0.8081 -0.6253 -1.4421
  416SOL     MW 1664   0.658   1.744   1.468 -0.5086 -0.3152  0.7531
  417SOL     OW 1665   0.933   0.062   2.108 -0.2952 -0.5947  0.2262
  417SOL    HW1 1666   0.864   0.061   2.177  0.9975 -1.3907  3.3318
  417SOL    HW2 1667   0.919  -0.007   2.036  0.0897 -4.6859  0.2884
  417SOL     MW 1668   0.922   0.053   2.107 -0.0739 -1.2395  0.6441
  418SOL     OW 1669   0.760   2.881   0.148  0.3197  0.6382 -0.8069
  418SOL    HW1 1670   0.842   2.891   0.097 -0.0170  1.3453  1.1927
  418SOL    HW2 1671   0.693   2.840   0.099 -0.1507 -0.8477  0.3914
  418SOL     MW 1672   0.762   2.877   0.135  0.2132  0.5354 -0.3849
  419SOL     OW 1673   0.614   2.712   1.288 -0.2444 -0.0996 -0.9203
  419SOL    HW1 1674   0.604   2.806   1.307  1.1177  0.3207  1.2820
  419SOL    HW2 1675   0.699   2.692   1.316 -0.0722  2.8939  0.7349
  419SOL     MW 1676   0.624   2.722   1.294 -0.0420  0.3508 -0.4114
  420SOL     OW 1677   0.823   2.237   1.139 -0.1804  0.2624 -0.4748
  420SOL    HW1 1678   0.754   2.271   1.192  0.7619 -0.3334  0.2540
  420SOL    HW2 1679   0.856   2.311   1.089 -1.1417  1.2692  0.0009
  420SOL     MW 1680   0.818   2.251   1.140 -0.1829  0.3166 -0.3159
  421SOL     OW 1681   2.916   0.129   0.033 -0.0972  0.1508 -0.7434
  421SOL    HW1 1682   2.832   0.090   0.014  2.5613 -0.3296  0.2152
  421SOL    HW2 1683   2.964   0.052   0.049 -0.3682 -2.0746  1.3540
  421SOL     MW 1684   2.911   0.114   0.033  0.2178 -0.2062 -0.3402
  422SOL     OW 1685   0.872   2.452   0.984 -0.0920 -0.0833  0.4333
  422SOL    HW1 1686   0.784   2.480   1.003 -1.5864  1.5674 -0.9043
  422SOL    HW2 1687   0.875   2.432   0.892  1.0711 -1.5233 -0.4389
  422SOL     MW 1688   0.861   2.453   0.974 -0.1357 -0.0555  0.1417
  423SOL     OW 1689   1.568   0.060   0.453 -0.3546 -0.2846 -0.3129
  423SOL    HW1 1690   1.592   0.056   0.361 -0.7140  0.9192 -0.9193
  423SOL    HW2 1691   1.557   0.153   0.459  0.9567  0.1856 -2.4624
  423SOL     MW 1692   1.569   0.072   0.442 -0.2290 -0.0638 -0.6765
  424SOL     OW 1693   0.645   2.322   1.346 -0.1829  0.0601 -0.7157
  424SOL    HW1 1694   0.574   2.258   1.342 -0.5734  1.8174  0.7511
  424SOL    HW2 1695   0.692   2.308   1.433  0.6755 -1.0043  0.6843
  424SOL     MW 1696   0.642   2.312   1.357 -0.1212  0.1515 -0.3374
  425SOL     OW 1697   1.765   2.797   2.038 -0.1056 -0.2332 -0.0657
  425SOL    HW1 1698   1.750   2.827   1.947  1.3761  1.4806  2.0366
  425SOL    HW2 1699   1.790   2.703   2.041  0.9701 -1.1095 -1.6241
  425SOL     MW 1700   1.766   2.789   2.026  0.2318 -0.1227  0.0061
  426SOL     OW 1701   0.806   1.753   1.969 -0.0373 -0.3832  0.6994
  426SOL    HW1 1702   0.733   1.766   1.898  0.6167  2.8716  0.5835
  426SOL    HW2 1703   0.796   1.812   2.048  3.1682  3.3061  1.0105
  426SOL     MW 1704   0.795   1.763   1.970  0.4719  0.5331  0.7252
  427SOL     OW 1705   0.390   1.766   1.895  0.1087 -0.0269  0.7087
  427SOL    HW1 1706   0.439   1.705   1.845 -0.8298 -4.2555 -0.3988
  427SOL    HW2 1707   0.344   1.715   1.964  1.5738  1.2774  2.3482
  427SOL     MW 1708   0.391   1.751   1.897  0.1782 -0.4127  0.7789
  428SOL     OW 1709   0.611   2.534   1.039 -0.3184 -0.1372  0.4422
  428SOL    HW1 1710   0.546   2.465   1.055 -2.7656  1.3553 -0.9524
  428SOL    HW2 1711   0.598   2.587   1.121 -3.3137  2.6130 -3.8076
  428SOL     MW 1712   0.601   2.532   1.052 -1.0365  0.4226 -0.3025
  429SOL     OW 1713   1.240   2.814   1.072 -0.8868  0.0864 -0.0049
  429SOL    HW1 1714   1.162   2.816   1.127 -1.6881 -1.5785  1.0456
  429SOL    HW2 1715   1.260   2.911   1.052  0.8106 -1.1455  0.0602
  429SOL     MW 1716   1.233   2.827   1.077 -0.7685 -0.2958  0.1423
  430SOL     OW 1717   1.204   2.789   0.782  0.1675 -0.0805  0.2709
  430SOL    HW1 1718   1.186   2.732   0.860 -1.6703 -2.5891 -2.3130
  430SOL    HW2 1719   1.158   2.748   0.704 -0.3587 -3.7105 -1.6681
  430SOL     MW 1720   1.196   2.776   0.782 -0.1444 -0.8904 -0.3259
  431SOL     OW 1721   0.374   1.874   1.095  0.7096 -0.0192 -0.4705
  431SOL    HW1 1722   0.433   1.802   1.123 -2.4723 -0.6626  0.5119
  431SOL    HW2 1723   0.370   1.889   0.999  1.2766  1.3693 -2.7395
  431SOL     MW 1724   0.382   1.867   1.086  0.3646  0.0791 -0.6402
  432SOL     OW 1725   0.022   3.084   1.114 -0.1234 -0.5355 -0.0911
  432SOL    HW1 1726   0.048   3.131   1.202  1.2164  0.2868  2.3640
  432SOL    HW2 1727  -0.054   3.026   1.117  0.4285  4.6211 -0.3393
  432SOL     MW 1728   0.015   3.082   1.126  0.1262  0.2533  0.2001
  433SOL     OW 1729   0.617   2.948   1.482 -0.4198  0.2442 -0.1675
  433SOL    HW1 1730   0.625   3.043   1.503 -0.1063  0.6491  1.1831
  433SOL    HW2 1731   0.688   2.919   1.530 -2.1418  0.6988 -1.6174
  433SOL     MW 1732   0.627   2.957   1.491 -0.6056  0.3576 -0.1806
  434SOL     OW 1733   1.503   2.807   1.806  0.3019 -0.4110  0.0620
  434SOL    HW1 1734   1.468   2.830   1.890  0.9683 -0.1615 -0.9518
  434SOL    HW2 1735   1.456   2.847   1.736 -1.4397  0.0334  0.0701
  434SOL     MW 1736   1.492   2.816   1.808  0.1600 -0.3194 -0.0707
  435SOL     OW 1737   2.743   1.824   0.311  0.6029  0.9235  0.3444
  435SOL    HW1 1738   2.807   1.854   0.240  3.4881 -2.7281 -2.0159
  435SOL    HW2 1739   2.656   1.806   0.277 -1.8427  0.4317  1.7169
  435SOL     MW 1740   2.740   1.825   0.297  0.6609  0.3769  0.2141
  436SOL     OW 1741   1.413   2.768   0.337  1.1613 -0.9665  0.0847
  436SOL    HW1 1742   1.466   2.761   0.415 -2.0662  1.0263 -4.5806
  436SOL    HW2 1743   1.369   2.850   0.360  0.3114  0.0311 -1.4603
  436SOL     MW 1744   1.414   2.778   0.351  0.6233 -0.5719 -0.7347
  437SOL     OW 1745   0.878   3.090   1.309  0.1200 -0.0451  0.0672
  437SOL    HW1 1746   0.944   3.129   1.246  0.7756 -1.2544 -0.5869
  437SOL    HW2 1747   0.876   3.000   1.279  1.7881 -2.3934 -0.7931
  437SOL     MW 1748   0.887   3.083   1.297  0.4266 -0.5145 -0.1326
  438SOL     OW 1749   0.827   2.690   2.042 -0.2329  0.1359  0.0849
  438SOL    HW1 1750   0.861   2.614   2.093 -0.5317  2.7906  2.2402
  438SOL    HW2 1751   0.755   2.648   1.987 -1.6588 -2.2367 -0.9918
  438SOL     MW 1752   0.822   2.674   2.041 -0.4604  0.1731  0.2272
  439SOL     OW 1753   1.207   2.084   0.402  0.7517  0.1786 -0.1604
  439SOL    HW1 1754   1.173   2.094   0.490  0.9837  0.3944  1.2555
  439SOL    HW2 1755   1.182   2.164   0.359  1.3985 -1.2112  1.2336
  439SOL     MW 1756   1.199   2.096   0.408  0.8677  0.0237  0.2103
  440SOL     OW 1757   1.835   2.757   3.058  0.0107  0.5540  0.2952
  440SOL    HW1 1758   1.805   2.781   3.148  2.2664  0.8743 -1.7750
  440SOL    HW2 1759   1.902   2.818   3.038  1.7516 -0.7335  0.1719
  440SOL     MW 1760   1.840   2.768   3.067  0.5380  0.4264  0.0058
  441SOL     OW 1761   0.500   2.718   0.473  0.1484  0.2694 -0.0130
  441SOL    HW1 1762   0.453   2.667   0.406 -1.3765  1.6004  2.2979
  441SOL    HW2 1763   0.497   2.813   0.436 -0.5955  0.4772  0.9144
  441SOL     MW 1764   0.494   2.724   0.459 -0.1509  0.4724  0.4143
  442SOL     OW 1765   0.008   2.395   0.607 -0.1599 -0.9633 -0.6021
  442SOL    HW1 1766   0.014   2.487   0.620 -1.3526  0.2814  0.7212
  442SOL    HW2 1767  -0.079   2.368   0.639  1.1616 -2.6653  2.0113
  442SOL     MW 1768  -0.003   2.404   0.613 -0.1429 -1.0237 -0.0827
  443SOL     OW 1769   1.474   1.751   1.945 -0.0306 -0.5102  0.6439
  443SOL    HW1 1770   1.405   1.784   1.890  0.5842  0.1746  0.7252
  443SOL    HW2 1771   1.457   1.660   1.977  0.8434  1.5432 -1.3274
  443SOL     MW 1772   1.463   1.744   1.942  0.1658 -0.1489  0.3945
  444SOL     OW 1773   0.867   2.586   1.640 -0.2421  0.2195  0.3286
  444SOL    HW1 1774   0.954   2.547   1.655  0.5841  0.5633  0.0689
  444SOL    HW2 1775   0.812   2.559   1.717 -0.0650 -0.7288 -0.0893
  444SOL     MW 1776   0.871   2.577   1.652 -0.1097  0.1397  0.2392
  445SOL     OW 1777   1.208   0.094   1.439  0.7077  0.5166  0.2699
  445SOL    HW1 1778   1.123   0.127   1.463  0.5387 -2.0781  2.0688
  445SOL    HW2 1779   1.244   0.156   1.374  0.3982 -0.3908 -2.1006
  445SOL     MW 1780   1.201   0.107   1.433  0.6445  0.0545  0.1945
  446SOL     OW 1781   2.675   2.809   1.037 -0.1453  0.3276 -0.7239
  446SOL    HW1 1782   2.666   2.862   0.953 -0.9265  1.0145 -1.1116
  446SOL    HW2 1783   2.730   2.734   1.015  1.1972 -0.6612  0.8215
  446SOL     MW 1784   2.681   2.806   1.023 -0.0712  0.2877 -0.5712
  447SOL     OW 1785   0.055   1.962   1.589  0.0709  0.2598  0.3218
  447SOL    HW1 1786   0.091   1.896   1.654 -1.4334  1.4503  2.0329
  447SOL    HW2 1787  -0.010   1.912   1.540 -1.1379 -3.7479 -1.2667
  447SOL     MW 1788   0.051   1.946   1.591 -0.2870 -0.1119  0.3380
  448SOL     OW 1789   1.744   2.374   1.684  0.8804  0.0135  0.3407
  448SOL    HW1 1790   1.674   2.308   1.677  0.2641  1.2198 -2.7490
  448SOL    HW2 1791   1.697   2.453   1.714  3.2699 -0.8881  1.0309
  448SOL     MW 1792   1.728   2.376   1.687  1.1144  0.0537  0.0241
  449SOL     OW 1793   0.924   2.908   0.382 -0.2653  0.1150  0.1748
  449SOL    HW1 1794   0.871   2.892   0.301 -0.8465 -0.9851  0.5034
  449SOL    HW2 1795   0.879   2.971   0.433  1.7032 -0.8788  0.0295
  449SOL     MW 1796   0.911   2.914   0.378 -0.0822 -0.1612  0.1990
  450SOL     OW 1797   1.222   2.484   0.749  0.3140  0.5097  0.3230
  450SOL    HW1 1798   1.241   2.428   0.828  1.5860 -2.0023  1.0633
  450SOL    HW2 1799   1.294   2.467   0.678  0.3008  0.3187  0.6740
  450SOL     MW 1800   1.234   2.474   0.750  0.4801  0.1530  0.4670
  451SOL     OW 1801   0.577   2.026   1.661  0.3752  0.0217 -0.4902
  451SOL    HW1 1802   0.659   2.023   1.616  1.4684  0.9482 -0.1616
  451SOL    HW2 1803   0.520   2.005   1.586  0.9147  0.5324 -1.3286
  451SOL     MW 1804   0.581   2.023   1.645  0.5906  0.2113 -0.5575
  452SOL     OW 1805   0.313   2.634   0.006 -0.2484 -0.2532  0.1619
  452SOL    HW1 1806   0.404   2.665   0.025 -0.2472  2.0747 -2.8294
  452SOL    HW2 1807   0.284   2.708  -0.038  0.5410 -0.7788  1.9964
  452SOL     MW 1808   0.321   2.648   0.003 -0.1441 -0.0154  0.0093
  453SOL     OW 1809   0.200   3.003   1.602 -0.1734 -0.1581  0.2638
  453SOL    HW1 1810   0.212   2.926   1.656  2.0911  1.2354  0.8210
  453SOL    HW2 1811   0.247   2.979   1.520  1.5890 -3.1069  0.9520
  453SOL     MW 1812   0.208   2.990   1.598  0.3579 -0.3633  0.4281
  454SOL     OW 1813   0.965   2.838   1.163  0.5274  0.3117  0.1449
  454SOL    HW1 1814   0.923   2.776   1.221  2.8356  3.2127 -0.0472
  454SOL    HW2 1815   0.890   2.880   1.112 -0.6856  0.3083  0.8884
  454SOL     MW 1816   0.949   2.835   1.164  0.6719  0.6940  0.2177
  455SOL     OW 1817   1.737   2.818   0.209 -0.5206  0.0453  0.3937
  455SOL    HW1 1818   1.794   2.823   0.285 -2.5713 -1.4937 -1.7599
  455SOL    HW2 1819   1.682   2.743   0.228 -0.6709  2.1147 -0.7205
  455SOL     MW 1820   1.737   2.809   0.221 -0.8110  0.1153 -0.0375
  456SOL     OW 1821   2.800   0.225   1.440  0.2562 -0.0038 -0.2226
  456SOL    HW1 1822   2.786   0.200   1.347 -0.3474  1.3953 -2.0779
  456SOL    HW2 1823   2.794   0.320   1.439  0.7222 -0.6573  2.3539
  456SOL     MW 1824   2.797   0.234   1.428  0.2380  0.0946 -0.1275
  457SOL     OW 1825   0.807   1.603   3.042 -0.4909 -0.5400  0.0298
  457SOL    HW1 1826   0.708   1.579   3.036 -1.4349 -0.4669  0.3196
  457SOL    HW2 1827   0.820   1.643   3.128 -0.3784  0.5970 -1.0721
  457SOL     MW 1828   0.796   1.605   3.053 -0.6006 -0.3804 -0.0773
  458SOL     OW 1829   1.340   1.516   0.684  0.4122  0.1159 -0.4250
  458SOL    HW1 1830   1.263   1.550   0.728 -1.4317  0.4163  2.3894
  458SOL    HW2 1831   1.316   1.442   0.617  0.2933 -2.5134  1.4348
  458SOL     MW 1832   1.327   1.511   0.681  0.1532 -0.1914  0.1917
  459SOL     OW 1833   1.598   3.047   0.205 -0.3075 -0.1243 -0.5770
  459SOL    HW1 1834   1.642   2.964   0.197  0.0232  1.7128 -0.5347
  459SOL    HW2 1835   1.554   3.058   0.118 -0.2339  1.3392  1.3151
  459SOL     MW 1836   1.598   3.037   0.192 -0.2541  0.3112 -0.3218
  460SOL     OW 1837   1.748   2.251   0.653 -0.3658  0.6589 -0.2281
  460SOL    HW1 1838   1.663   2.215   0.660  2.6382 -2.0651  2.1773
  460SOL    HW2 1839   1.803   2.177   0.642 -2.3905  1.9785  1.1222
  460SOL     MW 1840   1.744   2.237   0.652 -0.2366  0.4736  0.2675
  461SOL     OW 1841   0.481   2.410   0.574  0.8505  0.0176  0.8394
  461SOL    HW1 1842   0.488   2.489   0.523 -1.7490  0.3390 -2.4007
  461SOL    HW2 1843   0.455   2.442   0.661 -2.5183  1.4291  1.5690
  461SOL     MW 1844   0.478   2.425   0.578  0.0630  0.2463  0.5082
  462SOL     OW 1845   0.336   0.244   1.269 -0.1305 -0.0369 -0.5970
  462SOL    HW1 1846   0.369   0.212   1.186 -2.1514  0.9125  0.4484
  462SOL    HW2 1847   0.418   0.255   1.314 -1.2639  0.0160 -0.8974
  462SOL     MW 1848   0.351   0.241   1.264 -0.5467  0.0953 -0.4987
  463SOL     OW 1849   1.113   0.119   0.727 -0.2579  0.0449  0.0619
  463SOL    HW1 1850   1.178   0.054   0.707  1.0413  1.6569 -1.6488
  463SOL    HW2 1851   1.026   0.100   0.684 -2.6045  0.5291 -0.9123
  463SOL     MW 1852   1.110   0.108   0.719 -0.3961  0.3215 -0.2924
  464SOL     OW 1853   0.729   3.064   2.320  0.2195  0.6240 -0.2480
  464SOL    HW1 1854   0.698   2.971   2.333  2.8146  0.3754  0.4434
  464SOL    HW2 1855   0.718   3.107   2.404 -0.1511 -2.8419  0.8096
  464SOL     MW 1856   0.724   3.057   2.333  0.5130  0.1339 -0.0172
  465SOL     OW 1857   0.858   0.322   0.431 -0.3317 -0.2963  0.5681
  465SOL    HW1 1858   0.815   0.249   0.480  0.2999  0.3686  0.2414
  465SOL    HW2 1859   0.840   0.298   0.341 -4.2595 -1.6550  2.7830
  465SOL     MW 1860   0.850   0.309   0.426 -0.7666 -0.3879  0.8173
  466SOL     OW 1861   1.087   2.016   0.805 -0.8229 -0.5936 -0.1373
  466SOL    HW1 1862   1.051   1.940   0.744 -1.9313 -4.1758  2.4060
  466SOL    HW2 1863   1.096   2.088   0.736 -0.4438 -0.6470 -3.2487
  466SOL     MW 1864   1.083   2.016   0.788 -0.9191 -1.0733 -0.2123
  467SOL     OW 1865   1.301   2.329   1.070 -0.0565  0.2003  0.4396
  467SOL    HW1 1866   1.387   2.353   1.107 -0.5536 -1.8199 -1.5464
  467SOL    HW2 1867   1.303   2.234   1.048 -0.1345 -0.4279  1.2018
  467SOL     MW 1868   1.312   2.320   1.072 -0.1324 -0.1491  0.2781
  468SOL     OW 1869   0.394   2.635   1.961 -0.4158 -0.5891 -0.0473
  468SOL    HW1 1870   0.388   2.570   1.896 -1.2739 -2.6752 -1.6998
  468SOL    HW2 1871   0.365   2.712   1.908 -1.2175  3.0710 -2.8033
  468SOL     MW 1872   0.389   2.636   1.946 -0.6348 -0.3814 -0.6290
  469SOL     OW 1873   0.347   2.178   1.775  0.5542 -0.0860 -0.3565
  469SOL    HW1 1874   0.271   2.125   1.779  0.1572 -1.0477 -2.9733
  469SOL    HW2 1875   0.424   2.118   1.762 -0.8408 -0.7393  0.6019
  469SOL     MW 1876   0.347   2.163   1.774  0.3178 -0.2991 -0.5753
  470SOL     OW 1877   3.061   2.609   0.110  0.6006  0.4459 -0.5090
  470SOL    HW1 1878   2.976   2.609   0.163 -1.3493 -0.0125  1.5042
  470SOL    HW2 1879   3.030   2.606   0.020  2.1146 -2.6618 -2.0863
  470SOL     MW 1880   3.045   2.608   0.105  0.5431 -0.0246 -0.4515
  471SOL     OW 1881   1.246   2.681   1.391 -0.2011 -0.0244  0.1641
  471SOL    HW1 1882   1.171   2.633   1.354 -0.4021 -1.1430  3.4089
  471SOL    HW2 1883   1.300   2.702   1.313  2.7031 -0.0553  1.0326
  471SOL     MW 1884   1.244   2.677   1.375  0.1556 -0.1761  0.7068
  472SOL     OW 1885   2.973   2.117   0.388 -0.1919 -0.1735  0.5115
  472SOL    HW1 1886   2.966   2.050   0.319 -0.0802  0.0337 -1.5900
  472SOL    HW2 1887   2.921   2.062   0.456  0.8845 -0.8106 -0.4553
  472SOL     MW 1888   2.965   2.101   0.388 -0.0352 -0.2302  0.1067
  473SOL     OW 1889   0.890   2.597   1.363  0.2162  0.6564  0.3440
  473SOL    HW1 1890   0.937   2.520   1.330 -2.5703  0.9814 -2.7675
  473SOL    HW2 1891   0.862   2.576   1.456  0.9003 -2.9664 -2.4506
  473SOL     MW 1892   0.892   2.584   1.371 -0.0612  0.2213 -0.4353
  474SOL     OW 1893   0.803   2.253   1.862  0.3710 -0.0349  0.3585
  474SOL    HW1 1894   0.888   2.269   1.910 -0.1301  0.0567  1.0225
  474SOL    HW2 1895   0.827   2.260   1.763  0.5288  1.8717 -1.7357
  474SOL     MW 1896   0.817   2.256   1.855  0.3257  0.2288  0.1698
  475SOL     OW 1897   1.594   3.090   1.558  0.1807 -0.0108  0.2808
  475SOL    HW1 1898   1.525   3.056   1.494 -0.2115 -2.2611 -0.6835
  475SOL    HW2 1899   1.651   3.020   1.589 -0.7209 -0.5193  2.1128
  475SOL     MW 1900   1.592   3.077   1.554  0.0100 -0.3748  0.3953
  476SOL     OW 1901   1.465   2.685   1.200  0.4527  0.1575 -0.2504
  476SOL    HW1 1902   1.429   2.694   1.114  0.7954  0.2408  1.7761
  476SOL    HW2 1903   1.532   2.754   1.204 -0.9161 -0.6956  0.8630
  476SOL     MW 1904   1.469   2.695   1.189  0.3173  0.0560  0.1639
  477SOL     OW 1905   0.888   2.455   0.690  1.0304 -0.0596  1.1257
  477SOL    HW1 1906   0.937   2.532   0.658 -1.4280  0.0039  2.1501
  477SOL    HW2 1907   0.853   2.416   0.611  1.3323  0.4130  1.0887
  477SOL     MW 1908   0.890   2.460   0.675  0.7459  0.0111  1.2560
  478SOL     OW 1909   0.154   2.681   0.832 -0.5621 -0.3119 -0.4047
  478SOL    HW1 1910   0.202   2.764   0.844  0.5213  1.0773 -0.6939
  478SOL    HW2 1911   0.223   2.618   0.834 -0.0725  1.8808  1.4199
  478SOL     MW 1912   0.169   2.684   0.834 -0.3546  0.1607 -0.2021
  479SOL     OW 1913   1.399   1.984   1.307  0.0674  0.0751  0.3327
  479SOL    HW1 1914   1.407   1.988   1.404  2.2731 -0.5131 -0.7269
  479SOL    HW2 1915   1.428   1.898   1.285 -2.0142  2.2139 -0.4063
  479SOL     MW 1916   1.404   1.973   1.317  0.0838  0.2797  0.0954
  480SOL     OW 1917   1.899   2.455   1.339  0.0590  0.0098 -0.5136
  480SOL    HW1 1918   1.965   2.424   1.401  2.3592 -0.9945  1.7191
  480SOL    HW2 1919   1.933   2.428   1.255  0.4834 -0.7863  0.9751
  480SOL     MW 1920   1.912   2.448   1.336  0.4185 -0.2277 -0.0226
  481SOL     OW 1921   1.052   0.064   1.100 -1.1553 -0.1059 -0.0716
  481SOL    HW1 1922   1.027  -0.002   1.033 -0.5637  0.1958 -0.3579
  481SOL    HW2 1923   1.148   0.058   1.100  0.2184 -1.4353  0.1519
  481SOL     MW 1924   1.061   0.055   1.091 -0.8960 -0.2415 -0.0799
  482SOL     OW 1925   1.126   3.068   0.261  0.8303 -0.6924 -0.0208
  482SOL    HW1 1926   1.054   3.021   0.298 -0.0880  0.3383  1.4848
  482SOL    HW2 1927   1.117   3.158   0.305 -0.7250 -1.2175  2.0972
  482SOL     MW 1928   1.116   3.074   0.271  0.5039 -0.6257  0.4573
  483SOL     OW 1929   0.514   3.005   0.402  0.0252 -0.4059 -0.0423
  483SOL    HW1 1930   0.434   2.989   0.351  1.4234 -2.0313 -1.2652
  483SOL    HW2 1931   0.496   3.057   0.479  0.1490 -0.0191 -1.9296
  483SOL     MW 1932   0.501   3.010   0.406  0.2260 -0.5693 -0.4526
  484SOL     OW 1933   1.890   2.036   1.462  0.1126  0.0144  0.2210
  484SOL    HW1 1934   1.951   2.106   1.481 -1.5411  0.5278 -0.5902
  484SOL    HW2 1935   1.861   2.024   1.554 -0.7715  1.1078  2.0442
  484SOL     MW 1936   1.894   2.044   1.477 -0.2222  0.2264  0.3545
  485SOL     OW 1937   0.607   2.413   0.247 -0.4983 -0.2461  0.2752
  485SOL    HW1 1938   0.656   2.381   0.318  0.3410  0.5230 -1.4338
  485SOL    HW2 1939   0.539   2.476   0.280 -2.4961 -2.2567 -0.9345
  485SOL     MW 1940   0.604   2.417   0.261 -0.6512 -0.4099 -0.1099
  486SOL     OW 1941   0.135   2.418   1.459 -0.3222  0.6490  0.1141
  486SOL    HW1 1942   0.095   2.503   1.433 -1.2967 -0.9110 -3.9736
  486SOL    HW2 1943   0.146   2.431   1.556 -0.9025  3.4435  0.2405
  486SOL     MW 1944   0.131   2.431   1.469 -0.5273  0.8119 -0.4085
  487SOL     OW 1945   1.119   1.740   1.058 -0.3366  0.3479  0.0738
  487SOL    HW1 1946   1.130   1.822   1.096 -2.6670 -3.1086 -2.0039
  487SOL    HW2 1947   1.209   1.710   1.038 -0.0604 -0.0155 -1.3693
  487SOL     MW 1948   1.133   1.747   1.060 -0.6077 -0.1561 -0.3907
  488SOL     OW 1949   1.637   1.886   0.485  0.2281 -0.0058  0.3203
  488SOL    HW1 1950   1.695   1.883   0.402  1.1026 -0.3308 -0.6273
  488SOL    HW2 1951   1.566   1.953   0.464  0.5790  0.6648  1.1733
  488SOL     MW 1952   1.635   1.895   0.472  0.3898  0.0398  0.3078
  489SOL     OW 1953   0.779   0.796   0.594  0.1195 -0.3867  0.0379
  489SOL    HW1 1954   0.812   0.720   0.542  1.4690  1.7234  2.2497
  489SOL    HW2 1955   0.764   0.765   0.686  0.4678 -0.6515 -3.2386
  489SOL     MW 1956   0.781   0.782   0.599  0.3435 -0.1433 -0.1026
  490SOL     OW 1957   1.467   2.082   0.456  0.0374  0.0266  0.0386
  490SOL    HW1 1958   1.508   2.164   0.425  0.4125 -3.1592 -0.8689
  490SOL    HW2 1959   1.381   2.085   0.405 -1.0771  1.7620 -0.9081
  490SOL     MW 1960   1.461   2.093   0.445 -0.0602 -0.1648 -0.2060
  491SOL     OW 1961   1.321   3.017   0.431  0.0262 -0.2406 -0.2467
  491SOL    HW1 1962   1.390   3.092   0.417 -0.3544  1.8657 -1.1729
  491SOL    HW2 1963   1.246   3.029   0.367  1.1960 -4.1840 -2.7424
  491SOL     MW 1964   1.320   3.029   0.421  0.1303 -0.4830 -0.6982
  492SOL     OW 1965   1.491   2.182   0.698  0.3261  0.0556 -0.3370
  492SOL    HW1 1966   1.463   2.138   0.609 -1.1214 -2.8794 -0.9037
  492SOL    HW2 1967   1.439   2.127   0.757 -1.3285  0.4847  1.5914
  492SOL     MW 1968   1.480   2.169   0.694 -0.0832 -0.2750 -0.1574
  493SOL     OW 1969   0.283   2.974   0.271 -0.2366  0.6514  0.4849
  493SOL    HW1 1970   0.235   3.014   0.345  0.6667 -1.3331  0.1293
  493SOL    HW2 1971   0.258   3.037   0.202 -2.7273 -2.3634  0.3370
  493SOL     MW 1972   0.273   2.988   0.272 -0.4460 -0.0082  0.4185
  494SOL     OW 1973   0.458   2.459   1.743  0.5300  0.1668  0.4313
  494SOL    HW1 1974   0.421   2.373   1.769  1.3168  1.1467  1.2485
  494SOL    HW2 1975   0.456   2.477   1.642  0.5485 -0.8120 -3.9570
  494SOL     MW 1976   0.453   2.450   1.733  0.6363  0.1670 -0.0399
  495SOL     OW 1977   2.827   1.749   2.573  0.5018 -0.3384  0.2157
  495SOL    HW1 1978   2.858   1.844   2.563 -1.2616 -0.6046  0.6041
  495SOL    HW2 1979   2.805   1.745   2.666  1.2301  2.6887 -3.1416
  495SOL     MW 1980   2.828   1.761   2.584  0.3652  0.0259 -0.1760
  496SOL     OW 1981   2.883   2.363   2.635 -0.3058  0.1115  0.3237
  496SOL    HW1 1982   2.916   2.290   2.682  1.7114 -0.2049 -1.1952
  496SOL    HW2 1983   2.957   2.428   2.646  0.9420 -1.5136 -3.7493
  496SOL     MW 1984   2.897   2.362   2.642  0.1250 -0.1447 -0.4141
  497SOL     OW 1985   1.551   2.244   2.682  0.2135  0.2709  0.0881
  497SOL    HW1 1986   1.517   2.187   2.616 -0.6679 -0.5837  3.1339
  497SOL    HW2 1987   1.554   2.183   2.754 -2.4198  1.4863 -0.6878
  497SOL     MW 1988   1.547   2.228   2.683 -0.2503  0.3185  0.3876
  498SOL     OW 1989   1.452   2.659   2.377  0.1383 -0.0368  0.5577
  498SOL    HW1 1990   1.470   2.563   2.380 -0.3999  2.0420  0.8383
  498SOL    HW2 1991   1.538   2.695   2.396 -1.2194  0.6827 -0.8290
  498SOL     MW 1992   1.466   2.651   2.380 -0.1118  0.3324  0.4118
  499SOL     OW 1993   0.978   0.181   3.059 -0.3479  1.0209 -0.5193
  499SOL    HW1 1994   0.911   0.197   3.125 -0.4189 -0.2463  0.5175
  499SOL    HW2 1995   1.035   0.116   3.099 -0.2093 -1.7345  1.7543
  499SOL     MW 1996   0.976   0.175   3.073 -0.3389  0.4902 -0.0825
  500SOL     OW 1997   1.007   2.525   2.779 -0.1352 -0.3799  0.2957
  500SOL    HW1 1998   1.078   2.496   2.840  1.6172 -1.3037 -1.4883
  500SOL    HW2 1999   0.924   2.508   2.830 -1.1201  0.4243 -0.3995
  500SOL     MW 2000   1.006   2.519   2.794 -0.0339 -0.3957 -0.0314
  501SOL     OW 2001   1.753   2.188   3.037 -0.0646  0.3954 -0.9791
  501SOL    HW1 2002   1.733   2.273   2.998  1.2820 -0.0283 -0.4052
  501SOL    HW2 2003   1.840   2.200   3.067  1.3133 -0.8364  0.0737
  501SOL     MW 2004   1.762   2.201   3.036  0.2948  0.1770 -0.7645
  502SOL     OW 2005   0.103   2.789   2.944 -0.2815 -0.1302  0.3714
  502SOL    HW1 2006   0.035   2.722   2.926  0.9345 -2.5628 -2.7236
  502SOL    HW2 2007   0.127   2.833   2.860 -2.2510 -2.4633  0.3543
  502SOL     MW 2008   0.097   2.786   2.931 -0.3809 -0.7590 -0.0392
  503SOL     OW 2009   1.101   2.940   2.180  0.3790 -0.0163 -0.2289
  503SOL    HW1 2010   1.075   2.871   2.121  0.3649 -0.3946  2.8983
  503SOL    HW2 2011   1.041   3.008   2.165  0.4337 -0.5676  1.4307
  503SOL     MW 2012   1.089   2.940   2.170  0.3844 -0.1390  0.4027
  504SOL     OW 2013   0.113   2.713   2.091 -0.3809  0.2124 -0.4450
  504SOL    HW1 2014   0.197   2.669   2.075  3.3868  1.4634 -0.3083
  504SOL    HW2 2015   0.050   2.658   2.047 -2.9344 -0.4416 -2.4017
  504SOL     MW 2016   0.116   2.700   2.083 -0.2207  0.2912 -0.6851
  505SOL     OW 2017   1.719   2.673   2.716 -0.1094 -0.2051  0.4380
  505SOL    HW1 2018   1.674   2.701   2.641  0.4772  0.2034  0.1020
  505SOL    HW2 2019   1.649   2.665   2.780  1.7758  0.5314 -0.5568
  505SOL     MW 2020   1.704   2.675   2.715  0.2167 -0.0540  0.2624
  506SOL     OW 2021   1.694   3.024   2.853  0.3730  0.0118 -0.4522
  506SOL    HW1 2022   1.735   2.960   2.911 -0.4739  0.9529  0.9861
  506SOL    HW2 2023   1.744   3.025   2.769  0.0903 -1.1430 -0.5456
  506SOL     MW 2024   1.706   3.016   2.849  0.2240 -0.0164 -0.2748
  507SOL     OW 2025   0.782   2.879   2.915 -0.4977  0.1816 -0.1713
  507SOL    HW1 2026   0.843   2.895   2.839  1.7656  0.3029 -0.4723
  507SOL    HW2 2027   0.710   2.938   2.912  1.4870 -0.0898 -2.5703
  507SOL     MW 2028   0.780   2.889   2.905  0.0628  0.1618 -0.5275
  508SOL     OW 2029   1.128   2.070   2.439  0.5394  0.5044  0.1389
  508SOL    HW1 2030   1.201   2.056   2.509 -0.1846 -4.3792 -0.0125
  508SOL    HW2 2031   1.110   2.161   2.431  2.7689 -1.1541 -0.5414
  508SOL     MW 2032   1.135   2.080   2.447  0.7380 -0.3588  0.0292
  509SOL     OW 2033   0.570   2.579   2.907 -0.0409  0.2914  0.1633
  509SOL    HW1 2034   0.583   2.606   2.817 -0.9720 -1.0487  0.4368
  509SOL    HW2 2035   0.479   2.559   2.899  0.3055 -0.8099  3.2953
  509SOL     MW 2036   0.560   2.580   2.894 -0.1180 -0.0307  0.6126
  510SOL     OW 2037   1.487   2.511   1.746  0.1147  0.6737  0.6274
  510SOL    HW1 2038   1.488   2.607   1.741  0.0030  0.1156  0.6436
  510SOL    HW2 2039   1.416   2.497   1.803  0.5177  0.1750  0.5832
  510SOL     MW 2040   1.478   2.522   1.753  0.1531  0.5343  0.6237
  511SOL     OW 2041   0.426   2.636   2.492  0.1297  0.1985  0.0910
  511SOL    HW1 2042   0.500   2.592   2.528 -0.1211  1.0180  2.4771
  511SOL    HW2 2043   0.437   2.633   2.389  0.7277  0.9542 -0.7767
  511SOL     MW 2044   0.437   2.630   2.483  0.1755  0.4064  0.2913
  512SOL     OW 2045   1.016   1.915   2.813  0.7158 -0.1765  0.2732
  512SOL    HW1 2046   0.927   1.918   2.847  0.0361  2.9392 -0.6930
  512SOL    HW2 2047   1.058   1.834   2.846  1.1934  0.2547  1.6954
  512SOL     MW 2048   1.010   1.904   2.822  0.6892  0.2915  0.3334
  513SOL     OW 2049   1.504   2.384   2.366  0.8052 -0.6650  0.0735
  513SOL    HW1 2050   1.573   2.402   2.433  2.8745  0.9830 -0.1392
  513SOL    HW2 2051   1.502   2.288   2.378 -1.8879 -2.2784  0.9656
  513SOL     MW 2052   1.513   2.374   2.377  0.7229 -0.6605  0.1632
  514SOL     OW 2053   0.248   2.419   2.639  0.7109  0.4613  0.3570
  514SOL    HW1 2054   0.303   2.481   2.591 -0.6128  3.0689  1.1242
  514SOL    HW2 2055   0.262   2.441   2.730 -1.0277  1.8314 -2.4741
  514SOL     MW 2056   0.257   2.430   2.645  0.3068  0.9861  0.0847
  515SOL     OW 2057   1.198   2.046   1.929 -0.1345 -0.3671  0.2403
  515SOL    HW1 2058   1.151   2.133   1.912 -0.1060  1.4455  1.8147
  515SOL    HW2 2059   1.196   2.040   2.030  2.5391 -1.2261  0.5468
  515SOL     MW 2060   1.192   2.057   1.940  0.2220 -0.2413  0.4885
  516SOL     OW 2061   1.435   2.478   3.050  0.3455  0.2578  0.4480
  516SOL    HW1 2062   1.503   2.480   2.978 -0.6490  0.7980  0.1037
  516SOL    HW2 2063   1.350   2.464   3.005  1.0681 -2.2090  2.5527
  516SOL     MW 2064   1.433   2.477   3.034  0.3096  0.0036  0.6803
  517SOL     OW 2065   0.578   2.406   2.076 -0.7351 -0.4193 -0.2533
  517SOL    HW1 2066   0.584   2.487   2.019  1.2641  1.6028 -3.7971
  517SOL    HW2 2067   0.480   2.386   2.083 -0.4108 -0.5576  0.3119
  517SOL     MW 2068   0.566   2.414   2.069 -0.4286 -0.1707 -0.6463
  518SOL     OW 2069   1.918   0.106   3.021  0.2381  0.4826 -0.0482
  518SOL    HW1 2070   1.891   0.154   2.939  1.5176 -1.3349  0.7655
  518SOL    HW2 2071   1.837   0.109   3.076 -0.2017  1.4027 -1.2567
  518SOL     MW 2072   1.904   0.113   3.017  0.3489  0.3642 -0.1003
  519SOL     OW 2073   0.698   2.513   1.852 -0.5050 -0.4587  0.3508
  519SOL    HW1 2074   0.727   2.423   1.890  2.0631  2.2519 -2.1421
  519SOL    HW2 2075   0.609   2.499   1.809  1.9838  2.0299 -1.0640
  519SOL     MW 2076   0.690   2.499   1.851  0.1622  0.2273 -0.1648
  520SOL     OW 2077   1.158   2.149   2.904 -0.2123 -0.3861  0.3019
  520SOL    HW1 2078   1.101   2.082   2.871  0.0929  0.2924 -0.1870
  520SOL    HW2 2079   1.204   2.113   2.980 -0.7021 -0.0225 -3.4194
  520SOL     MW 2080   1.157   2.136   2.910 -0.2366 -0.2486 -0.2536
  521SOL     OW 2081   1.790   1.958   2.238 -0.1137  0.0917 -0.2926
  521SOL    HW1 2082   1.771   1.990   2.153 -2.2880 -0.4314  0.8755
  521SOL    HW2 2083   1.779   1.863   2.241  3.8670  1.5521  2.5543
  521SOL     MW 2084   1.786   1.950   2.227  0.1246  0.2154  0.2372
  522SOL     OW 2085   2.868   2.608   2.218 -0.0629  0.0557 -0.3959
  522SOL    HW1 2086   2.938   2.538   2.228 -2.1160 -0.0779 -1.2193
  522SOL    HW2 2087   2.817   2.619   2.300 -2.5616  0.1837 -2.6520
  522SOL     MW 2088   2.870   2.600   2.230 -0.6635  0.0549 -0.8022
  523SOL     OW 2089   0.823   1.523   2.104 -0.2764 -0.0347  0.5514
  523SOL    HW1 2090   0.831   1.591   2.035  2.2366  0.7737  2.5578
  523SOL    HW2 2091   0.871   1.448   2.074  0.1179  1.3245  0.6780
  523SOL     MW 2092   0.830   1.522   2.091  0.1072  0.2513  0.8328
  524SOL     OW 2093   0.800   2.421   2.939 -0.6242 -0.3261 -0.0788
  524SOL    HW1 2094   0.709   2.461   2.944 -0.1889  5.0322 -1.9771
  524SOL    HW2 2095   0.796   2.333   2.905 -1.2812  2.3189 -1.9344
  524SOL     MW 2096   0.787   2.415   2.935 -0.6534  0.7298 -0.5741
  525SOL     OW 2097   0.343   2.305   2.035  0.0944  0.9066  0.8019
  525SOL    HW1 2098   0.352   2.261   2.119  2.7777  1.1186 -1.4100
  525SOL    HW2 2099   0.371   2.240   1.963  3.6161  3.7127 -1.2492
  525SOL     MW 2100   0.348   2.291   2.037  0.9131  1.3048  0.2394
  526SOL     OW 2101   0.656   2.132   2.047 -0.2097  0.1004 -0.8188
  526SOL    HW1 2102   0.711   2.149   1.968 -2.8608  2.7153 -1.5851
  526SOL    HW2 2103   0.626   2.219   2.069 -0.5125  0.7545  0.1120
  526SOL     MW 2104   0.659   2.145   2.039 -0.5995  0.5317 -0.7971
  527SOL     OW 2105   1.386   1.941   2.151 -0.0980 -0.8729 -0.2388
  527SOL    HW1 2106   1.336   1.903   2.226  1.0684 -1.0659  2.0294
  527SOL    HW2 2107   1.416   1.870   2.098 -0.1385 -0.1177 -0.2956
  527SOL     MW 2108   1.383   1.926   2.154  0.0506 -0.7987  0.0530
  528SOL     OW 2109   0.591   3.066   2.916  0.2490 -0.2508 -0.2505
  528SOL    HW1 2110   0.672   3.120   2.904 -0.5708  0.3195  1.1819
  528SOL    HW2 2111   0.533   3.084   2.844  0.9010 -0.4776  0.2799
  528SOL     MW 2112   0.594   3.075   2.905  0.2268 -0.2055  0.0085
  529SOL     OW 2113   1.058   2.288   1.932  0.3670 -0.4473 -0.2238
  529SOL    HW1 2114   1.059   2.308   2.026 -0.5162 -1.5218 -1.9545
  529SOL    HW2 2115   1.064   2.376   1.889  0.5856 -1.4016 -1.0480
  529SOL     MW 2116   1.059   2.303   1.939  0.2793 -0.7150 -0.5609
  530SOL     OW 2117   1.170   2.443   2.972 -0.0103  0.0166 -0.6025
  530SOL    HW1 2118   1.128   2.448   3.063  0.5301  0.4687  0.5703
  530SOL    HW2 2119   1.161   2.349   2.949 -1.0952 -0.7445  0.3685
  530SOL     MW 2120   1.163   2.431   2.981 -0.0821 -0.0242 -0.3196
  531SOL     OW 2121   0.982   1.887   2.549  0.4303  0.4377  0.5287
  531SOL    HW1 2122   1.021   1.964   2.509 -1.1245  0.1405  2.2947
  531SOL    HW2 2123   0.983   1.920   2.640  0.3672  2.2255  2.9252
  531SOL     MW 2124   0.987   1.901   2.555  0.2168  0.6344  1.0779
  532SOL     OW 2125   1.805   0.262   2.825  0.2122  1.0614  0.2308
  532SOL    HW1 2126   1.745   0.244   2.759 -0.1516  0.4294  0.4162
  532SOL    HW2 2127   1.869   0.323   2.783 -2.4423  3.7710 -0.7043
  532SOL     MW 2128   1.806   0.268   2.810 -0.1860  1.3355  0.1319
  533SOL     OW 2129   1.957   2.525   3.084 -0.3888 -0.3653 -0.1954
  533SOL    HW1 2130   1.902   2.468   3.137 -0.5477  1.1473  0.5490
  533SOL    HW2 2131   1.904   2.604   3.064  1.4407  0.6440  1.0011
  533SOL     MW 2132   1.943   2.528   3.088 -0.1684 -0.0326  0.0607
  534SOL     OW 2133   1.715   2.421   2.556  0.3227  0.5585 -0.0629
  534SOL    HW1 2134   1.685   2.353   2.613  0.2470  0.5961 -1.0622
  534SOL    HW2 2135   1.797   2.434   2.598  0.3869  0.3873 -0.0332
  534SOL     MW 2136   1.722   2.414   2.569  0.3212  0.5409 -0.1908
  535SOL     OW 2137   1.869   2.321   1.919 -0.0795  0.0792  0.8870
  535SOL    HW1 2138   1.822   2.321   1.832  0.9404  0.3549  2.0865
  535SOL    HW2 2139   1.962   2.308   1.902 -2.4225 -0.8477 -2.4912
  535SOL     MW 2140   1.875   2.319   1.905 -0.2541 -0.0067  0.5995
  536SOL     OW 2141   0.477   1.895   2.121  0.0150  0.1889  0.0768
  536SOL    HW1 2142   0.451   1.854   2.039 -1.0366 -0.5886 -1.0610
  536SOL    HW2 2143   0.508   1.982   2.099 -0.6320  1.4734  0.1458
  536SOL     MW 2144   0.477   1.901   2.107 -0.2091  0.2558 -0.0642
  537SOL     OW 2145   1.044   0.300   2.751  0.0305  0.0979 -0.5673
  537SOL    HW1 2146   1.082   0.346   2.827  1.5203  0.3431  1.8155
  537SOL    HW2 2147   1.038   0.356   2.674  0.4338  1.2794 -2.6059
  537SOL     MW 2148   1.049   0.313   2.751  0.2802  0.2861 -0.5219
  538SOL     OW 2149   1.444   0.078   0.010  0.5029  0.0868 -0.4207
  538SOL    HW1 2150   1.424   0.172   0.014 -1.7379 -0.6636  3.4437
  538SOL    HW2 2151   1.360   0.052  -0.020  0.2192  1.2165 -0.2971
  538SOL     MW 2152   1.430   0.087   0.007  0.1698  0.1369  0.1055
  539SOL     OW 2153   0.704   2.825   2.583 -0.5199 -0.8958  0.0478
  539SOL    HW1 2154   0.785   2.854   2.622 -0.0422 -0.7944 -0.8331
  539SOL    HW2 2155   0.709   2.725   2.602 -1.5687 -1.1543 -0.1420
  539SOL     MW 2156   0.715   2.816   2.591 -0.5953 -0.9165 -0.0934
  540SOL     OW 2157   0.298   2.480   2.892  0.2448  0.0702  0.6566
  540SOL    HW1 2158   0.301   2.540   2.968  0.5910  1.7383 -1.2821
  540SOL    HW2 2159   0.302   2.394   2.933 -1.4191  0.1743  1.2438
  540SOL     MW 2160   0.299   2.477   2.908  0.0709  0.3040  0.4783
  541SOL     OW 2161   0.258   2.955   2.155 -0.4701  0.1495  0.4390
  541SOL    HW1 2162   0.211   2.873   2.153  0.3517 -0.8559 -0.7779
  541SOL    HW2 2163   0.348   2.933   2.183 -0.5349  1.1657  1.2380
  541SOL     MW 2164   0.264   2.942   2.159 -0.3702  0.1509  0.3839
  542SOL     OW 2165   0.940   2.272   2.675  0.0383  0.6381  0.2343
  542SOL    HW1 2166   0.890   2.222   2.743 -1.8293 -0.8070  0.0731
  542SOL    HW2 2167   0.975   2.347   2.722  2.1609  0.0835  0.1693
  542SOL     MW 2168   0.938   2.276   2.690  0.0719  0.3742  0.2045
  543SOL     OW 2169   1.650   2.456   2.877  0.3970 -0.6898  0.5063
  543SOL    HW1 2170   1.619   2.390   2.807 -1.0457  1.4632  0.0889
  543SOL    HW2 2171   1.722   2.506   2.837  1.1814 -1.1064 -1.2811
  543SOL     MW 2172   1.656   2.454   2.862  0.3102 -0.4607  0.2154
  544SOL     OW 2173   0.681   0.330   2.699  0.3077 -0.2395 -0.7404
  544SOL    HW1 2174   0.596   0.316   2.732 -0.5064  1.5727 -0.1315
  544SOL    HW2 2175   0.695   0.262   2.634  1.7689  1.3274  0.1750
  544SOL     MW 2176   0.672   0.319   2.695  0.3931  0.2064 -0.5393
  545SOL     OW 2177   1.538   2.106   2.392 -0.0648 -0.0942 -0.1400
  545SOL    HW1 2178   1.485   2.087   2.317 -2.1182 -0.5043 -0.8596
  545SOL    HW2 2179   1.630   2.070   2.374 -0.8260 -2.4288  0.5162
  545SOL     MW 2180   1.543   2.099   2.379 -0.4362 -0.4564 -0.1484
  546SOL     OW 2181   2.938   1.960   0.145  0.5235 -0.0524  0.0113
  546SOL    HW1 2182   2.921   2.025   0.080 -0.8568 -1.4137  1.2267
  546SOL    HW2 2183   3.032   1.945   0.121  1.8855 -0.9104 -0.5366
  546SOL     MW 2184   2.948   1.967   0.134  0.5211 -0.3453  0.0994
  547SOL     OW 2185   0.171   0.065   0.108 -0.0595 -0.0636  0.1352
  547SOL    HW1 2186   0.250   0.088   0.053  1.0838 -1.6205  1.2453
  547SOL    HW2 2187   0.112   0.032   0.043  1.4641 -2.3163 -1.0095
  547SOL     MW 2188   0.173   0.064   0.092  0.2924 -0.5663  0.1306
  548SOL     OW 2189   0.360   2.550   0.279 -0.3740 -0.8654  0.5811
  548SOL    HW1 2190   0.326   2.581   0.190  1.4424  0.1175  0.0074
  548SOL    HW2 2191   0.295   2.494   0.309 -0.7639  3.2390  0.7802
  548SOL     MW 2192   0.347   2.547   0.271 -0.1858 -0.1942  0.5317
  549SOL     OW 2193   0.818   1.947   2.187  0.1095 -0.2867  1.0573
  549SOL    HW1 2194   0.750   2.005   2.150 -1.0535  0.5395 -0.8880
  549SOL    HW2 2195   0.793   1.901   2.267  0.8098 -0.0840  0.3207
  549SOL     MW 2196   0.806   1.949   2.193  0.0485 -0.1509  0.7035
  550SOL     OW 2197   1.769   1.662   2.499 -0.3444  0.4436 -0.1815
  550SOL    HW1 2198   1.779   1.655   2.398  1.4013 -2.0344 -3.4055
  550SOL    HW2 2199   1.743   1.752   2.528 -0.1147 -0.6874  0.1408
  550SOL     MW 2200   1.767   1.673   2.490 -0.0838 -0.0326 -0.5643
  551SOL     OW 2201   0.919   2.225   0.229  0.0297 -0.0045 -0.0529
  551SOL    HW1 2202   1.006   2.256   0.234 -0.8212 -0.8472 -0.8671
  551SOL    HW2 2203   0.909   2.150   0.163  1.7794 -2.2520 -1.0074
  551SOL     MW 2204   0.929   2.219   0.221  0.1483 -0.4122 -0.2863
  552SOL     OW 2205   1.771   1.694   2.233 -0.1935 -0.5730  0.3924
  552SOL    HW1 2206   1.679   1.655   2.217 -0.6216 -0.2650 -0.4139
  552SOL    HW2 2207   1.817   1.643   2.162 -3.9458 -1.6930 -0.8090
  552SOL     MW 2208   1.765   1.682   2.222 -0.7450 -0.6801  0.1275
  553SOL     OW 2209   1.260   2.271   1.617 -0.2328  0.5888 -0.3040
  553SOL    HW1 2210   1.310   2.195   1.631 -1.1343  1.6729  0.2552
  553SOL    HW2 2211   1.319   2.331   1.559 -0.5580  0.8925  0.9220
  553SOL     MW 2212   1.274   2.269   1.611 -0.3947  0.7719 -0.0685
  554SOL     OW 2213   0.491   3.007   2.669 -0.3653  0.5694 -0.0977
  554SOL    HW1 2214   0.453   3.034   2.582 -0.4590 -2.0147 -3.2711
  554SOL    HW2 2215   0.554   2.937   2.648 -0.5023  2.6223  1.5506
  554SOL     MW 2216   0.494   3.002   2.655 -0.3958  0.4993 -0.2989
  555SOL     OW 2217   0.665   2.526   2.612 -0.0636  0.2012 -0.4514
  555SOL    HW1 2218   0.611   2.443   2.635 -1.3019 -0.6042  0.7551
  555SOL    HW2 2219   0.745   2.500   2.569  0.5181 -1.7405  0.5506
  555SOL     MW 2220   0.669   2.512   2.609 -0.1502 -0.1612 -0.1600
  556SOL     OW 2221   1.042   1.808   0.071 -0.7557 -0.0822  0.5616
  556SOL    HW1 2222   1.050   1.756  -0.012  0.6440  0.5012 -0.0489
  556SOL    HW2 2223   1.126   1.805   0.113 -1.1282  0.4567 -2.0055
  556SOL     MW 2224   1.054   1.801   0.066 -0.6201  0.0659  0.1423
  557SOL     OW 2225   1.037   2.689   0.556 -0.4124 -0.0539  0.0419
  557SOL    HW1 2226   1.092   2.643   0.498 -2.0115  0.0427  0.5332
  557SOL    HW2 2227   0.978   2.755   0.503 -0.9938  1.3672 -1.3554
  557SOL     MW 2228   1.036   2.692   0.541 -0.7001  0.1463 -0.0777
  558SOL     OW 2229   0.166   2.215   3.007 -0.1932 -0.1538 -0.1340
  558SOL    HW1 2230   0.117   2.132   3.018  1.8151 -0.2288  2.9401
  558SOL    HW2 2231   0.125   2.281   3.072 -2.2758  3.3429  0.2686
  558SOL     MW 2232   0.154   2.213   3.017 -0.2030  0.2976  0.3247
  559SOL     OW 2233   1.070   2.272   2.208 -0.7250 -0.0674 -0.5093
  559SOL    HW1 2234   1.153   2.288   2.165  0.7907 -0.2591 -0.0488
  559SOL    HW2 2235   1.060   2.175   2.211 -1.0487 -0.3985 -2.0637
  559SOL     MW 2236   1.080   2.261   2.203 -0.5678 -0.1364 -0.6536
  560SOL     OW 2237   2.149   2.645   0.161 -0.1243  0.0954 -0.1766
  560SOL    HW1 2238   2.162   2.715   0.100 -0.5270 -1.3689  1.0561
  560SOL    HW2 2239   2.096   2.583   0.111 -0.7922 -0.1378  2.5963
  560SOL     MW 2240   2.144   2.646   0.147 -0.2655 -0.1286  0.3519
  561SOL     OW 2241   0.473   2.200   0.140 -0.6736 -0.3982 -0.5023
  561SOL    HW1 2242   0.498   2.188   0.048  4.1664 -0.7770  1.1233
  561SOL    HW2 2243   0.508   2.290   0.158 -2.3625  0.9161 -0.9013
  561SOL     MW 2244   0.481   2.210   0.130 -0.2578 -0.2748 -0.3405
  562SOL     OW 2245   0.625   2.380   2.336  0.0175  0.5006  0.3831
  562SOL    HW1 2246   0.592   2.429   2.252 -3.1797 -0.3375 -0.9091
  562SOL    HW2 2247   0.715   2.411   2.361 -0.9288  0.0657  0.7334
  562SOL     MW 2248   0.633   2.390   2.329 -0.5292  0.3326  0.2589
  563SOL     OW 2249   1.249   0.354   0.567  0.1492  0.4136 -0.6052
  563SOL    HW1 2250   1.202   0.288   0.518  0.3518 -1.4253 -4.4336
  563SOL    HW2 2251   1.215   0.332   0.657  1.6240 -2.2669 -0.0525
  563SOL     MW 2252   1.238   0.342   0.573  0.3705 -0.1827 -1.0374
  564SOL     OW 2253   0.992   2.736   2.349  0.7186 -0.3239  0.0761
  564SOL    HW1 2254   1.034   2.810   2.295 -1.8094  2.2248 -2.1224
  564SOL    HW2 2255   1.037   2.745   2.442  0.1225  0.5122 -0.5352
  564SOL     MW 2256   1.004   2.747   2.354  0.3064  0.1227 -0.2946
  565SOL     OW 2257   2.786   2.724   2.611  1.1209 -0.2447 -0.0556
  565SOL    HW1 2258   2.775   2.819   2.611  1.1753  0.1086  0.9911
  565SOL    HW2 2259   2.712   2.685   2.558 -3.4253 -2.8766 -0.5805
  565SOL     MW 2260   2.775   2.731   2.604  0.5283 -0.5454  0.0132
  566SOL     OW 2261   2.167   1.892   2.328  0.0979 -0.1985 -0.3013
  566SOL    HW1 2262   2.146   1.873   2.236 -1.1812  1.3890 -3.5461
  566SOL    HW2 2263   2.240   1.960   2.316  0.8981 -1.4924  0.7424
  566SOL     MW 2264   2.174   1.899   2.314  0.0347 -0.1598 -0.5917
  567SOL     OW 2265   1.174   3.062   3.080  0.2400 -0.6703  0.3389
  567SOL    HW1 2266   1.168   3.072   3.175 -0.3030 -0.7931 -1.6414
  567SOL    HW2 2267   1.227   2.977   3.082  1.8699 -1.8523 -0.2163
  567SOL     MW 2268   1.180   3.052   3.093  0.3834 -0.8425  0.0043
  568SOL     OW 2269   1.640   2.027   2.838 -0.7507 -0.2361 -0.2317
  568SOL    HW1 2270   1.707   2.054   2.900 -0.4690  1.1315 -0.8813
  568SOL    HW2 2271   1.685   1.979   2.763 -0.3323  2.0863  1.3342
  568SOL     MW 2272   1.655   2.024   2.836 -0.6583  0.2507 -0.1108
  569SOL     OW 2273   0.099   2.246   2.437 -0.4597 -0.3277  0.2908
  569SOL    HW1 2274   0.031   2.273   2.382  1.3017  1.5954 -1.9083
  569SOL    HW2 2275   0.139   2.325   2.468 -5.0502  0.8588 -0.2721
  569SOL     MW 2276   0.095   2.260   2.434 -0.8329  0.0826 -0.0736
  570SOL     OW 2277   1.515   0.338   0.454  0.0600  0.0984  0.1178
  570SOL    HW1 2278   1.434   0.343   0.507  0.6634  4.1101 -1.1293
  570SOL    HW2 2279   1.583   0.377   0.515 -1.3454  2.3134 -0.7804
  570SOL     MW 2280   1.513   0.344   0.469 -0.0458  0.9199 -0.1652
  571SOL     OW 2281   1.322   2.314   2.134  0.8779 -0.0190  0.0518
  571SOL    HW1 2282   1.380   2.347   2.205  1.9343  1.4996 -0.5352
  571SOL    HW2 2283   1.378   2.255   2.087 -0.8043  2.1057 -0.9322
  571SOL     MW 2284   1.337   2.310   2.137  0.7953  0.4617 -0.1555
  572SOL     OW 2285   1.061   2.563   0.123 -0.5399 -0.2379 -0.4375
  572SOL    HW1 2286   1.054   2.647   0.085  3.4115 -0.8084  6.1317
  572SOL    HW2 2287   0.963   2.536   0.129 -1.7879  0.9163  0.0542
  572SOL     MW 2288   1.047   2.570   0.119 -0.1832 -0.1609  0.4941
  573SOL     OW 2289   1.161   2.325   0.268 -0.4421 -0.2658 -0.4433
  573SOL    HW1 2290   1.242   2.318   0.210  1.3424 -3.8176 -0.7968
  573SOL    HW2 2291   1.182   2.406   0.314 -0.7173 -0.7302 -1.1204
  573SOL     MW 2292   1.174   2.335   0.266 -0.2430 -0.7957 -0.5792
  574SOL     OW 2293   1.202   2.583   0.371  0.7127  0.5483 -0.7251
  574SOL    HW1 2294   1.267   2.647   0.352  1.0826 -2.0295  0.5150
  574SOL    HW2 2295   1.148   2.584   0.294  2.4366 -2.1189  0.7272
  574SOL     MW 2296   1.204   2.591   0.358  0.9890 -0.1437 -0.3699
  575SOL     OW 2297   0.030   2.191   1.740 -0.7211 -0.1500  0.5357
  575SOL    HW1 2298   0.029   2.109   1.692 -1.4308  0.6346  0.6956
  575SOL    HW2 2299   0.051   2.172   1.831 -1.2864 -3.8301  1.2032
  575SOL     MW 2300   0.033   2.178   1.745 -0.8893 -0.5320  0.6449
  576SOL     OW 2301   2.908   1.839   1.935  0.1231 -0.4560 -0.0411
  576SOL    HW1 2302   2.919   1.930   1.897 -0.4732 -0.7589 -0.9950
  576SOL    HW2 2303   2.842   1.810   1.866  2.0478 -1.5917  2.4017
  576SOL     MW 2304   2.901   1.847   1.921  0.2984 -0.6458  0.1553
  577SOL     OW 2305   2.132   0.139   0.063  0.5915 -0.4182  0.2404
  577SOL    HW1 2306   2.057   0.120   0.005 -1.5439 -1.1366  0.1115
  577SOL    HW2 2307   2.114   0.093   0.146  0.5776  2.3991 -0.9559
  577SOL     MW 2308   2.119   0.130   0.066  0.3079 -0.1413  0.0655
  578SOL     OW 2309   1.988   2.096   2.364  0.3421  0.1438 -0.1264
  578SOL    HW1 2310   1.925   2.043   2.323  2.5367 -3.7868  1.5601
  578SOL    HW2 2311   2.072   2.042   2.378  2.4064 -0.5603  0.5957
  578SOL     MW 2312   1.991   2.082   2.361  0.9040 -0.4677  0.1914
  579SOL     OW 2313   0.878   2.445   2.473 -0.3170 -0.1873  0.1534
  579SOL    HW1 2314   0.898   2.372   2.538  1.3081 -2.8922  3.0398
  579SOL    HW2 2315   0.961   2.462   2.424  1.3265  0.1615  1.7864
  579SOL     MW 2316   0.892   2.438   2.475  0.1143 -0.4981  0.7497
  580SOL     OW 2317   0.978   2.813   0.014  0.2435  0.0619  0.5402
  580SOL    HW1 2318   1.052   2.854  -0.033 -0.1537 -0.3897 -0.6751
  580SOL    HW2 2319   0.897   2.787  -0.050 -2.2194  0.2992 -0.2877
  580SOL     MW 2320   0.977   2.815  -0.001 -0.1338  0.0336  0.2706
  581SOL     OW 2321   1.119   2.481   1.732  0.0094  1.0226 -0.2869
  581SOL    HW1 2322   1.188   2.502   1.797 -0.2275 -1.5928  0.0052
  581SOL    HW2 2323   1.155   2.401   1.692 -1.2045 -0.2028 -0.8051
  581SOL     MW 2324   1.133   2.473   1.736 -0.1820  0.5159 -0.3168
  582SOL     OW 2325   0.008   2.916   2.663 -0.0237 -0.6577 -0.1856
  582SOL    HW1 2326  -0.066   2.966   2.697  3.6309 -0.5687  0.0127
  582SOL    HW2 2327   0.097   2.955   2.688  0.9539 -2.5213  3.2386
  582SOL     MW 2328   0.010   2.928   2.671  0.5874 -0.8919  0.2924
  583SOL     OW 2329   1.967   2.382   2.669  0.0704  0.2978  0.3181
  583SOL    HW1 2330   2.044   2.396   2.614 -2.0461  0.3078 -1.6656
  583SOL    HW2 2331   1.955   2.284   2.673  0.0424 -1.3003 -0.6788
  583SOL     MW 2332   1.976   2.371   2.662 -0.2125  0.0883 -0.0752
  584SOL     OW 2333   0.211   1.886   2.177 -0.2086  0.5700  0.1033
  584SOL    HW1 2334   0.200   1.900   2.267  0.1766 -0.7107 -2.9481
  584SOL    HW2 2335   0.307   1.902   2.170  0.4458  0.9162  4.1826
  584SOL     MW 2336   0.222   1.890   2.188 -0.0715  0.4467  0.2389
  585SOL     OW 2337   1.556   2.564   0.180  0.1228 -0.7417 -0.0660
  585SOL    HW1 2338   1.522   2.558   0.085  1.0464  2.2998 -0.0284
  585SOL    HW2 2339   1.495   2.617   0.231  0.4302 -0.3052 -0.3904
  585SOL     MW 2340   1.543   2.571   0.175  0.2852 -0.2828 -0.1038
  586SOL     OW 2341   1.370   2.783   2.603  0.3425  0.2852  0.1969
  586SOL    HW1 2342   1.377   2.748   2.513 -2.0133  3.3148  1.8331
  586SOL    HW2 2343   1.342   2.878   2.591  0.2217 -1.1407  0.5104
  586SOL     MW 2344   1.367   2.791   2.590  0.0157  0.4968  0.4541
  587SOL     OW 2345   1.261   1.516   2.152 -0.8247 -0.3357 -0.1513
  587SOL    HW1 2346   1.271   1.425   2.133 -1.7421 -0.8352  1.7504
  587SOL    HW2 2347   1.203   1.541   2.076 -0.1568 -1.4962 -4.5145
  587SOL     MW 2348   1.255   1.507   2.140 -0.8576 -0.5547 -0.4761
  588SOL     OW 2349   1.298   2.042   2.638  0.2605 -0.2173  0.2366
  588SOL    HW1 2350   1.348   1.972   2.675  0.1442  1.9578  1.5342
  588SOL    HW2 2351   1.250   2.077   2.712 -0.7659 -0.6604 -0.3466
  588SOL     MW 2352   1.298   2.037   2.652  0.1097  0.0113  0.3308
  589SOL     OW 2353   1.314   2.053   0.005 -0.2026 -0.0110 -0.2700
  589SOL    HW1 2354   1.340   2.140   0.028 -1.0185  0.2174 -0.2045
  589SOL    HW2 2355   1.286   2.014   0.085 -1.7501 -0.9965  0.3220
  589SOL     MW 2356   1.314   2.059   0.019 -0.5144 -0.1109 -0.1833
  590SOL     OW 2357   0.478   2.667   2.232 -0.8370 -0.5286  0.1108
  590SOL    HW1 2358   0.473   2.679   2.134  0.2230  0.2800  0.8757
  590SOL    HW2 2359   0.562   2.716   2.267  2.1517  0.0786  1.2703
  590SOL     MW 2360   0.488   2.675   2.224 -0.3029 -0.3418  0.3647
  591SOL     OW 2361   2.209   0.650   0.181 -0.2184 -0.3841  0.2272
  591SOL    HW1 2362   2.147   0.689   0.236  0.2425 -1.7332 -0.1794
  591SOL    HW2 2363   2.196   0.684   0.095  1.9292 -1.4538 -0.0854
  591SOL     MW 2364   2.199   0.660   0.177  0.1258 -0.7033  0.1323
  592SOL     OW 2365   1.653   2.935   0.692  0.0032  0.4413 -0.9746
  592SOL    HW1 2366   1.633   3.026   0.706  0.4787  0.3815 -0.2045
  592SOL    HW2 2367   1.724   2.918   0.759 -1.2190  0.6498  1.1105
  592SOL     MW 2368   1.660   2.945   0.703 -0.0953  0.4609 -0.5979
  593SOL     OW 2369   1.904   0.707   0.686  0.2805 -0.4542  0.0774
  593SOL    HW1 2370   1.834   0.706   0.623 -0.1526 -1.6974  2.0410
  593SOL    HW2 2371   1.934   0.617   0.697 -0.2116  2.4376  0.5444
  593SOL     MW 2372   1.899   0.695   0.679  0.1584 -0.2367  0.3981
  594SOL     OW 2373   2.828   1.110   1.367 -0.3044 -0.3474  0.1750
  594SOL    HW1 2374   2.923   1.129   1.349  1.0358 -1.9759 -1.6322
  594SOL    HW2 2375   2.778   1.198   1.353  2.0851  1.2871 -0.6423
  594SOL     MW 2376   2.834   1.124   1.363  0.1877 -0.3466 -0.1713
  595SOL     OW 2377   0.530   0.932   0.860  0.2154 -0.1557  0.1913
  595SOL    HW1 2378   0.508   0.995   0.789  0.1708 -0.5223 -1.7794
  595SOL    HW2 2379   0.566   0.986   0.932 -1.1974  1.7240 -3.1967
  595SOL     MW 2380   0.532   0.947   0.861  0.0231  0.0440 -0.5157
  596SOL     OW 2381   2.418   1.316   0.488  0.1807  0.1512 -0.2118
  596SOL    HW1 2382   2.416   1.393   0.427  2.0303  2.3077  1.1686
  596SOL    HW2 2383   2.461   1.348   0.568  0.1544  2.8234 -0.3175
  596SOL     MW 2384   2.423   1.330   0.490  0.4213  0.7883 -0.0437
  597SOL     OW 2385   2.233   0.695   1.641 -0.1555  0.3409 -0.2251
  597SOL    HW1 2386   2.268   0.624   1.706  0.7723  1.0533  0.2470
  597SOL    HW2 2387   2.184   0.649   1.574  0.1837  3.2322  1.3723
  597SOL     MW 2388   2.231   0.679   1.641  0.0117  0.8164  0.0479
  598SOL     OW 2389   2.606   1.001   2.869  0.6281  0.0424  0.2473
  598SOL    HW1 2390   2.569   0.939   2.807  0.6327  0.4908  1.9010
  598SOL    HW2 2391   2.698   1.012   2.849 -1.7100  1.2645 -1.7278
  598SOL     MW 2392   2.613   0.994   2.858  0.3202  0.2628  0.2049
  599SOL     OW 2393   3.007   0.564   2.227  0.6322  0.5589  0.2676
  599SOL    HW1 2394   3.068   0.615   2.281 -4.9753  1.3613 -0.6965
  599SOL    HW2 2395   3.025   0.569   2.129 -0.8231  2.3733 -3.3559
  599SOL     MW 2396   3.018   0.572   2.221 -0.2996  0.9042 -0.3377
  600SOL     OW 2397   1.844   1.651   0.842  0.2408 -0.4223 -0.2147
  600SOL    HW1 2398   1.860   1.720   0.907 -2.0645  2.0193 -1.5870
  600SOL    HW2 2399   1.771   1.683   0.789 -0.3268  0.7459 -1.4822
  600SOL     MW 2400   1.837   1.665   0.844 -0.1382  0.0540 -0.5630
  601SOL     OW 2401   2.532   0.781   0.853 -0.4237  0.0845 -0.3441
  601SOL    HW1 2402   2.526   0.761   0.951  1.0699 -1.0032 -0.1819
  601SOL    HW2 2403   2.478   0.709   0.807  0.2479 -1.1491 -0.9475
  601SOL     MW 2404   2.524   0.769   0.860 -0.1380 -0.2218 -0.4023
  602SOL     OW 2405   2.254   1.975   0.781  0.2183  0.5352  0.1239
  602SOL    HW1 2406   2.187   1.915   0.766 -1.5244 -1.3828  1.5698
  602SOL    HW2 2407   2.210   2.058   0.756  1.5485 -1.5709 -0.8604
  602SOL     MW 2408   2.239   1.978   0.776  0.1639  0.0043  0.1848
  603SOL     OW 2409   3.034   1.325   1.996  0.2308 -0.3786  0.2985
  603SOL    HW1 2410   3.007   1.382   2.076 -0.4512 -1.9161  1.5713
  603SOL    HW2 2411   3.048   1.234   2.017  2.0571  0.9629  0.8921
  603SOL     MW 2412   3.032   1.321   2.009  0.3818 -0.4045  0.5447
  604SOL     OW 2413   2.035   1.371   0.369  0.2597  0.3909  0.7227
  604SOL    HW1 2414   2.080   1.288   0.398  1.3670 -0.0648 -0.7015
  604SOL    HW2 2415   1.993   1.411   0.446 -1.0759  0.6891  2.0376
  604SOL     MW 2416   2.035   1.366   0.383  0.2296  0.3701  0.7083
  605SOL     OW 2417   2.459   1.448   0.787  0.5012  0.3007 -0.3834
  605SOL    HW1 2418   2.451   1.524   0.732 -0.4570 -0.3307 -0.4668
  605SOL    HW2 2419   2.542   1.411   0.755 -0.9444  0.6373 -2.1624
  605SOL     MW 2420   2.469   1.453   0.776  0.1841  0.2618 -0.6291
  606SOL     OW 2421   2.684   1.803   1.763  0.0785 -0.2783  0.0491
  606SOL    HW1 2422   2.628   1.839   1.831 -0.3098 -0.5626  1.2838
  606SOL    HW2 2423   2.676   1.711   1.772  0.8542  0.8646 -0.0223
  606SOL     MW 2424   2.676   1.796   1.773  0.1296 -0.1650  0.2026
  607SOL     OW 2425   2.392   1.045   3.074 -0.0059  0.3340 -0.4456
  607SOL    HW1 2426   2.468   1.056   3.013 -1.5113  1.5364  1.1496
  607SOL    HW2 2427   2.425   1.014   3.160 -1.6205  0.7619 -1.6505
  607SOL     MW 2428   2.406   1.043   3.078 -0.4176  0.5491 -0.3941
  608SOL     OW 2429   1.929   0.243   0.413  0.4166  0.4207 -0.0700
  608SOL    HW1 2430   1.920   0.267   0.324 -0.0747 -0.5602 -0.8874
  608SOL    HW2 2431   1.895   0.149   0.425 -1.5583  1.0281 -1.9154
  608SOL     MW 2432   1.923   0.233   0.403  0.0912  0.3714 -0.4214
  609SOL     OW 2433   2.090   1.908   3.065 -0.1768 -0.4020  0.1162
  609SOL    HW1 2434   2.064   1.824   3.025  1.7193 -1.3184 -3.3578
  609SOL    HW2 2435   2.080   1.896   3.161  1.4901  1.3493 -0.3754
  609SOL     MW 2436   2.085   1.895   3.073  0.2933 -0.2919 -0.4071
  610SOL     OW 2437   1.762   0.987   1.233 -0.0715  0.5965 -0.1761
  610SOL    HW1 2438   1.774   0.902   1.179 -0.6885 -3.5377  1.5800
  610SOL    HW2 2439   1.677   1.025   1.220 -0.9993  1.2092 -0.1445
  610SOL     MW 2440   1.752   0.981   1.224 -0.2753  0.1319  0.0597
  611SOL     OW 2441   2.493   1.677   0.575  0.5900  0.1995  0.6485
  611SOL    HW1 2442   2.470   1.647   0.485  1.7598 -0.6325 -1.1509
  611SOL    HW2 2443   2.493   1.775   0.578 -1.7134  0.5898 -0.6525
  611SOL     MW 2444   2.490   1.686   0.564  0.4404  0.1412  0.2395
  612SOL     OW 2445   2.918   2.876   0.357  0.5344  0.5341 -0.3319
  612SOL    HW1 2446   2.930   2.888   0.450  3.1600  1.5542 -0.4303
  612SOL    HW2 2447   3.005   2.858   0.326 -2.1030  0.6757 -1.7273
  612SOL     MW 2448   2.931   2.875   0.365  0.5328  0.6874 -0.5290
  613SOL     OW 2449   1.450   1.119   0.925  0.3008  0.0657 -0.0486
  613SOL    HW1 2450   1.455   1.217   0.910 -0.0596 -0.1030 -0.8621
  613SOL    HW2 2451   1.490   1.114   1.011 -2.2397  2.7754 -1.7293
  613SOL     MW 2452   1.456   1.132   0.934 -0.0820  0.4010 -0.3777
  614SOL     OW 2453   2.117   0.555   1.459 -0.1279  0.0490  0.0727
  614SOL    HW1 2454   2.126   0.469   1.512 -0.7355 -0.0916  1.9595
  614SOL    HW2 2455   2.027   0.555   1.440  3.4341  2.5925  2.2837
  614SOL     MW 2456   2.106   0.544   1.464  0.2619  0.3660  0.6134
  615SOL     OW 2457   2.425   0.745   0.333  0.2303  0.3900 -0.1968
  615SOL    HW1 2458   2.498   0.677   0.342  0.5047 -1.5704 -0.9922
  615SOL    HW2 2459   2.359   0.705   0.272 -1.7968  1.6356 -0.6097
  615SOL     MW 2460   2.426   0.731   0.326 -0.0010  0.2957 -0.3563
  616SOL     OW 2461   2.559   0.368   1.663  0.0592  0.1210 -0.1214
  616SOL    HW1 2462   2.530   0.299   1.600 -1.5701 -0.2976 -1.9024
  616SOL    HW2 2463   2.558   0.439   1.604 -0.2912 -0.9507  0.7856
  616SOL     MW 2464   2.555   0.368   1.647 -0.2020 -0.0756 -0.2367
  617SOL     OW 2465   2.828   0.606   1.793  0.3460  0.1115  0.6888
  617SOL    HW1 2466   2.755   0.604   1.853  2.2987 -0.8447 -0.3891
  617SOL    HW2 2467   2.844   0.510   1.774  1.1210 -1.3441 -2.5820
  617SOL     MW 2468   2.820   0.593   1.799  0.7059 -0.2067  0.1150
  618SOL     OW 2469   2.848   0.198   1.994 -0.9360 -0.3989 -0.4551
  618SOL    HW1 2470   2.791   0.268   2.022 -0.8507  1.1977  1.3544
  618SOL    HW2 2471   2.937   0.230   1.999 -1.0233  3.4873  1.6459
  618SOL     MW 2472   2.852   0.211   1.998 -0.9363  0.3245  0.0609
  619SOL     OW 2473   2.738   0.728   0.036  0.2138  0.1021 -0.2136
  619SOL    HW1 2474   2.759   0.820   0.044  0.2700  0.0886 -0.1520
  619SOL    HW2 2475   2.797   0.692   0.097 -1.0979 -0.1575  2.5610
  619SOL     MW 2476   2.749   0.736   0.045  0.0481  0.0661  0.1606
  620SOL     OW 2477   2.224   0.984   0.880 -0.0962 -0.0010  0.6385
  620SOL    HW1 2478   2.299   1.029   0.840  1.3179 -0.9368 -2.6067
  620SOL    HW2 2479   2.156   0.985   0.815  1.7698 -3.0160 -0.1594
  620SOL     MW 2480   2.225   0.990   0.866  0.3366 -0.5223  0.1051
  621SOL     OW 2481   1.518   2.158   1.994  0.3829 -0.2869 -0.5123
  621SOL    HW1 2482   1.459   2.086   2.014  0.1925  0.5885  2.7049
  621SOL    HW2 2483   1.607   2.129   2.014 -0.4016 -1.5387  1.0651
  621SOL     MW 2484   1.522   2.145   1.999  0.2543 -0.3365  0.1203
  622SOL     OW 2485   2.631   0.300   0.201  0.1136  0.0330  0.3734
  622SOL    HW1 2486   2.712   0.346   0.199 -0.7186  2.3509 -1.0927
  622SOL    HW2 2487   2.651   0.221   0.159  2.9456 -0.6393 -0.1218
  622SOL     MW 2488   2.644   0.296   0.196  0.3775  0.2501  0.1146
  623SOL     OW 2489   2.344   2.722   0.806  0.2265 -0.1480 -0.3439
  623SOL    HW1 2490   2.420   2.776   0.778  1.9312  1.7467  0.9123
  623SOL    HW2 2491   2.331   2.750   0.902  1.0000  6.1201  1.9727
  623SOL     MW 2492   2.352   2.733   0.815  0.5535  0.9290  0.1275
  624SOL     OW 2493   2.142   1.628   3.009  0.3184  0.5068  0.0868
  624SOL    HW1 2494   2.064   1.570   3.012  0.3823 -1.8790 -1.0897
  624SOL    HW2 2495   2.176   1.635   3.099 -1.5098  1.1345 -1.4566
  624SOL     MW 2496   2.137   1.622   3.021  0.0856  0.2749 -0.2720
  625SOL     OW 2497   2.131   1.968   1.026  0.2726  0.1548  0.3277
  625SOL    HW1 2498   2.177   1.905   1.077 -1.0001  1.7512  1.2150
  625SOL    HW2 2499   2.198   1.986   0.960 -0.5541 -0.9799  0.1196
  625SOL     MW 2500   2.146   1.962   1.024 -0.0044  0.2157  0.4173
  626SOL     OW 2501   0.117   1.851   2.476 -0.1499 -0.1500  0.2395
  626SOL    HW1 2502   0.049   1.778   2.473 -1.7551 -0.6152 -2.1296
  626SOL    HW2 2503   0.054   1.922   2.504 -1.1456  0.7708  2.7386
  626SOL     MW 2504   0.100   1.851   2.479 -0.4930 -0.0899  0.2567
  627SOL     OW 2505   2.588   0.855   2.619 -0.7872 -0.0693  0.4565
  627SOL    HW1 2506   2.495   0.886   2.614 -1.4173  0.1375  0.3111
  627SOL    HW2 2507   2.592   0.789   2.543 -1.2093 -0.9126 -1.0845
  627SOL     MW 2508   2.576   0.850   2.609 -0.9260 -0.1533  0.2340
  628SOL     OW 2509   2.361   1.365   1.259  0.0638 -0.1380 -0.3461
  628SOL    HW1 2510   2.333   1.285   1.217  1.7334 -2.6991 -0.4374
  628SOL    HW2 2511   2.405   1.413   1.187  2.8851  0.1531 -1.1110
  628SOL     MW 2512   2.363   1.361   1.244  0.6563 -0.4375 -0.4591
  629SOL     OW 2513   1.854   0.583   1.258  0.1863  0.0479  0.0732
  629SOL    HW1 2514   1.915   0.598   1.184 -0.9872 -0.1364 -0.0182
  629SOL    HW2 2515   1.770   0.602   1.220  0.8449  0.6623 -0.6908
  629SOL     MW 2516   1.851   0.588   1.243  0.1184  0.1047 -0.0397
  630SOL     OW 2517   2.359   1.952   3.073  0.0061 -0.2830  0.1316
  630SOL    HW1 2518   2.389   1.990   2.989  0.2324  0.1924  0.6304
  630SOL    HW2 2519   2.267   1.934   3.073  3.9530 -2.0675 -1.0948
  630SOL     MW 2520   2.351   1.955   3.062  0.5567 -0.4557  0.0356
  631SOL     OW 2521   2.106   1.863   1.486  0.0805 -0.6768  0.1391
  631SOL    HW1 2522   2.070   1.797   1.547 -1.9261 -2.0485  0.0370
  631SOL    HW2 2523   2.030   1.922   1.475 -1.5374 -2.3099  0.2371
  631SOL     MW 2524   2.091   1.862   1.493 -0.3977 -1.0732  0.1386
  632SOL     OW 2525   0.387   1.896   1.466  0.1492  0.2749  0.1622
  632SOL    HW1 2526   0.314   1.963   1.459 -0.8782 -0.1050 -1.8713
  632SOL    HW2 2527   0.355   1.805   1.466  0.9039 -1.4238 -1.8753
  632SOL     MW 2528   0.373   1.893   1.465  0.1132  0.0006 -0.3749
  633SOL     OW 2529   2.656   0.564   0.354 -0.0615 -0.2212 -0.4397
  633SOL    HW1 2530   2.712   0.553   0.433  2.4552 -2.1798 -1.0066
  633SOL    HW2 2531   2.585   0.497   0.350 -0.9167  0.3856  1.5063
  633SOL     MW 2532   2.654   0.554   0.364  0.1577 -0.3996 -0.2578
  634SOL     OW 2533   2.759   0.023   0.632  0.1627 -0.2860 -0.0983
  634SOL    HW1 2534   2.787   0.117   0.630  0.4981  0.8286  0.3981
  634SOL    HW2 2535   2.747  -0.005   0.540 -0.9272 -1.1708  0.9367
  634SOL     MW 2536   2.761   0.031   0.619  0.0631 -0.2557  0.1037
  635SOL     OW 2537   2.684   0.042   1.803  0.2886 -0.2396 -0.0703
  635SOL    HW1 2538   2.732  -0.023   1.751 -0.8868 -3.3452 -2.5527
  635SOL    HW2 2539   2.748   0.079   1.863 -0.4982  0.3184  1.9435
  635SOL     MW 2540   2.699   0.038   1.804  0.0297 -0.5757 -0.1321
  636SOL     OW 2541   2.703   1.634   0.741  0.0614  0.1792  0.6411
  636SOL    HW1 2542   2.646   1.635   0.661  0.1948  0.7470 -0.6933
  636SOL    HW2 2543   2.671   1.715   0.783 -0.9560  0.8084 -2.3572
  636SOL     MW 2544   2.691   1.645   0.736 -0.0553  0.3371  0.0694
  637SOL     OW 2545   2.956   1.476   0.685 -0.1699  0.3168 -0.0963
  637SOL    HW1 2546   2.989   1.564   0.659 -0.5908  3.1662 -1.7813
  637SOL    HW2 2547   2.861   1.494   0.683 -0.9897 -1.9387  0.7747
  637SOL     MW 2548   2.948   1.490   0.681 -0.3336  0.3952 -0.2037
  638SOL     OW 2549   2.822   0.537   0.565 -0.0424  0.1437  0.1394
  638SOL    HW1 2550   2.892   0.590   0.528 -2.0110 -0.1284 -0.5842
  638SOL    HW2 2551   2.808   0.587   0.648 -0.2223 -0.7037 -0.6559
  638SOL     MW 2552   2.829   0.550   0.571 -0.3259 -0.0040 -0.0610
  639SOL     OW 2553   1.862   3.079   0.479 -0.1653 -0.3596 -0.2379
  639SOL    HW1 2554   1.773   3.080   0.466  1.3311  0.0972 -0.8698
  639SOL    HW2 2555   1.891   2.988   0.479  2.9646  2.1839  0.0091
  639SOL     MW 2556   1.854   3.067   0.477  0.4451  0.0362 -0.2887
  640SOL     OW 2557   0.297   1.415   0.105 -0.3211 -0.6086  0.0773
  640SOL    HW1 2558   0.314   1.388   0.012 -0.0251  0.2922  2.7068
  640SOL    HW2 2559   0.333   1.341   0.150  0.7711  1.8780 -2.9071
  640SOL     MW 2560   0.304   1.402   0.099 -0.1380 -0.1617  0.0305
  641SOL     OW 2561   2.374   0.408   0.413  0.2578  0.3130  0.0124
  641SOL    HW1 2562   2.363   0.349   0.336 -0.6690 -0.5399 -1.0207
  641SOL    HW2 2563   2.368   0.344   0.485 -0.5602 -0.9353  1.2732
  641SOL     MW 2564   2.372   0.392   0.412  0.0276  0.0358  0.0424
  642SOL     OW 2565   0.109   3.061   0.499  0.2057  0.2281  0.4044
  642SOL    HW1 2566   0.068   3.136   0.453 -1.1994 -0.9254  2.8245
  642SOL    HW2 2567   0.045   3.038   0.567 -1.7860  0.4163 -0.1704
  642SOL     MW 2568   0.095   3.068   0.502 -0.2425  0.1008  0.6479
  643SOL     OW 2569   2.147   0.348   1.639 -0.3182  0.4993  0.0730
  643SOL    HW1 2570   2.066   0.349   1.691  0.2300 -1.3322 -3.6451
  643SOL    HW2 2571   2.132   0.276   1.577  2.5001 -1.5612 -0.6740
  643SOL     MW 2572   2.134   0.339   1.638  0.1260 -0.0142 -0.5161
  644SOL     OW 2573   2.690   1.879   0.937  0.0038 -0.5827 -0.1170
  644SOL    HW1 2574   2.663   1.833   1.012  3.1768  0.6315 -3.0503
  644SOL    HW2 2575   2.617   1.936   0.916  1.0320 -0.0308  1.0029
  644SOL     MW 2576   2.677   1.880   0.944  0.5581 -0.3497 -0.3563
  645SOL     OW 2577   2.810   0.943   0.784 -0.0927 -0.7876 -0.2050
  645SOL    HW1 2578   2.904   0.939   0.778 -0.2291 -2.5525 -1.1286
  645SOL    HW2 2579   2.795   0.968   0.875 -3.7078 -1.2320 -0.2058
  645SOL     MW 2580   2.821   0.946   0.795 -0.5877 -1.0791 -0.3269
  646SOL     OW 2581   0.103   2.261   0.841 -0.5528 -0.3124 -1.2721
  646SOL    HW1 2582   0.104   2.172   0.834  1.8338  1.1904 -4.7439
  646SOL    HW2 2583   0.059   2.282   0.756  0.5254 -1.6708 -0.5582
  646SOL     MW 2584   0.097   2.252   0.829 -0.0956 -0.2933 -1.6360
  647SOL     OW 2585   2.759   0.415   3.041 -0.8107 -0.0903  0.6296
  647SOL    HW1 2586   2.678   0.369   3.041 -0.1431 -1.6923 -2.7120
  647SOL    HW2 2587   2.741   0.505   3.058 -0.2428 -0.2871  0.9262
  647SOL     MW 2588   2.746   0.421   3.043 -0.6477 -0.3277  0.2279
  648SOL     OW 2589   2.067   0.646   1.088 -0.0584  0.5714 -0.0959
  648SOL    HW1 2590   2.143   0.594   1.119 -0.5440  0.5988 -1.1590
  648SOL    HW2 2591   2.099   0.736   1.076 -1.2307 -0.0613  0.2056
  648SOL     MW 2592   2.081   0.651   1.090 -0.2771  0.4915 -0.1964
  649SOL     OW 2593   2.395   2.643   1.295 -0.2114  0.0435  0.1969
  649SOL    HW1 2594   2.486   2.676   1.298 -1.6313  0.5102  0.5226
  649SOL    HW2 2595   2.404   2.558   1.247  0.9756 -0.4778 -1.8177
  649SOL     MW 2596   2.408   2.636   1.289 -0.2421  0.0363 -0.0259
  650SOL     OW 2597   2.788   0.266   0.534  0.4100  0.2997 -0.2360
  650SOL    HW1 2598   2.792   0.363   0.533  1.1162 -0.2265  2.1144
  650SOL    HW2 2599   2.793   0.243   0.441 -1.2023 -0.9023  0.3070
  650SOL     MW 2600   2.789   0.275   0.521  0.2905  0.0717  0.1457
  651SOL     OW 2601   0.047   0.461   1.006  0.5274  0.1554 -0.0852
  651SOL    HW1 2602   0.096   0.507   0.937  1.9992  0.0845 -3.4291
  651SOL    HW2 2603  -0.044   0.503   1.005 -2.9980  0.9825 -0.8777
  651SOL     MW 2604   0.041   0.473   0.997  0.2565  0.2551 -0.6310
  652SOL     OW 2605   2.354   1.430   2.909  0.2106  0.5717  0.3595
  652SOL    HW1 2606   2.434   1.467   2.873  1.1050 -0.0545  2.3974
  652SOL    HW2 2607   2.301   1.508   2.925  1.5188  3.8075  0.4821
  652SOL     MW 2608   2.358   1.445   2.906  0.5012  0.9160  0.6446
  653SOL     OW 2609   1.816   0.393   0.160 -0.3470  0.0929 -0.7271
  653SOL    HW1 2610   1.816   0.303   0.128 -0.0103  0.8641  0.9077
  653SOL    HW2 2611   1.840   0.457   0.089 -0.6435 -0.0326 -0.6419
  653SOL     MW 2612   1.819   0.390   0.146 -0.3417  0.1781 -0.5002
  654SOL     OW 2613   2.465   1.035   0.711  0.1902  0.2880 -0.2005
  654SOL    HW1 2614   2.388   1.013   0.651 -1.8414 -0.4670 -1.4712
  654SOL    HW2 2615   2.505   0.949   0.748 -2.1212  0.4431  1.6231
  654SOL     MW 2616   2.460   1.021   0.708 -0.3828  0.2089 -0.1276
  655SOL     OW 2617   3.035   0.938   0.354  0.7124  0.0319  0.3531
  655SOL    HW1 2618   2.981   0.986   0.420 -0.2733 -0.2567  1.8644
  655SOL    HW2 2619   3.033   0.847   0.385 -0.1018  0.8545  0.3263
  655SOL     MW 2620   3.028   0.932   0.367  0.4749  0.1023  0.5489
  656SOL     OW 2621   1.741   2.664   1.422  0.1041  0.1425  0.0631
  656SOL    HW1 2622   1.775   2.663   1.510 -3.6351  1.0865  1.7799
  656SOL    HW2 2623   1.807   2.614   1.372  1.9202  1.5114  0.7148
  656SOL     MW 2624   1.754   2.657   1.427 -0.1496  0.4477  0.3756
  657SOL     OW 2625   0.103   1.809   1.143 -0.0117  0.2881  0.4433
  657SOL    HW1 2626   0.189   1.840   1.110  1.4288  0.0675  0.3735
  657SOL    HW2 2627   0.113   1.722   1.185 -2.2533 -1.2366 -1.3215
  657SOL     MW 2628   0.116   1.802   1.144 -0.1174  0.0578  0.2012
  658SOL     OW 2629   2.610   1.368   0.198  0.2010  0.6858  0.2719
  658SOL    HW1 2630   2.617   1.287   0.258  0.4067 -1.8862 -1.1517
  658SOL    HW2 2631   2.654   1.436   0.245 -1.9539 -0.2534 -1.7801
  658SOL     MW 2632   2.617   1.366   0.212 -0.0562  0.2226 -0.1867
  659SOL     OW 2633   2.170   1.445   0.983  0.6378  0.4505 -0.3729
  659SOL    HW1 2634   2.230   1.449   1.061 -1.3802  2.8099 -1.2686
  659SOL    HW2 2635   2.113   1.522   0.980  1.6989 -0.4619 -0.1984
  659SOL     MW 2636   2.170   1.456   0.993  0.5116  0.6414 -0.4681
  660SOL     OW 2637   2.051   1.584   1.576  0.0761 -0.0199  0.2794
  660SOL    HW1 2638   2.075   1.597   1.667 -0.2511 -0.2987  0.2643
  660SOL    HW2 2639   1.992   1.503   1.564  0.2655 -1.9119  0.8763
  660SOL     MW 2640   2.046   1.575   1.587  0.0579 -0.3063  0.3562
  661SOL     OW 2641   2.396   1.018   0.251  0.2171  0.0350 -0.5620
  661SOL    HW1 2642   2.466   1.057   0.301  2.3669  1.1558  1.4591
  661SOL    HW2 2643   2.412   0.922   0.259 -0.3853 -3.0651  1.8642
  661SOL     MW 2644   2.407   1.010   0.258  0.4213 -0.2261  0.0248
  662SOL     OW 2645   2.543   2.978   0.788  0.4281 -0.5777  0.1837
  662SOL    HW1 2646   2.487   3.052   0.773  1.6016 -0.4232  0.3519
  662SOL    HW2 2647   2.630   3.009   0.752  1.4240  0.3870  0.2408
  662SOL     MW 2648   2.547   2.992   0.781  0.7143 -0.4301  0.2134
  663SOL     OW 2649   2.757   1.540   0.380  0.3840  0.1592 -0.5758
  663SOL    HW1 2650   2.750   1.630   0.360 -0.3804 -1.2620  3.0070
  663SOL    HW2 2651   2.825   1.539   0.437 -1.4427 -1.0648 -2.8073
  663SOL     MW 2652   2.765   1.551   0.385  0.0422 -0.1898 -0.3975
  664SOL     OW 2653   2.511   1.527   1.594 -0.4459  0.4464  0.0175
  664SOL    HW1 2654   2.491   1.613   1.554  1.7130  0.6666 -1.9956
  664SOL    HW2 2655   2.428   1.478   1.597 -1.5652  1.5501  1.9279
  664SOL     MW 2656   2.497   1.532   1.589 -0.3087  0.6210  0.0039
  665SOL     OW 2657   2.821   0.794   2.185 -0.7573  0.0604 -0.2566
  665SOL    HW1 2658   2.794   0.855   2.116 -0.8161  1.0887  0.3487
  665SOL    HW2 2659   2.899   0.742   2.159 -3.0384  0.9083  0.5541
  665SOL     MW 2660   2.828   0.795   2.172 -1.0660  0.3080 -0.0698
  666SOL     OW 2661   2.851   2.958   1.691  0.6856  0.2676 -0.1509
  666SOL    HW1 2662   2.829   2.950   1.599  0.1372 -2.4736  1.2504
  666SOL    HW2 2663   2.798   2.884   1.732 -0.5775 -2.9478  1.0638
  666SOL     MW 2664   2.841   2.947   1.684  0.4466 -0.5183  0.1943
  667SOL     OW 2665   1.956   2.677   1.730 -0.8502 -0.2913  0.5664
  667SOL    HW1 2666   1.990   2.642   1.815  0.4791  2.2261 -0.9110
  667SOL    HW2 2667   2.038   2.731   1.695 -1.7791 -0.6845 -0.2057
  667SOL     MW 2668   1.971   2.679   1.736 -0.7974 -0.0110  0.2696
  668SOL     OW 2669   2.760   0.611   0.812  0.2564  0.3264 -0.0658
  668SOL    HW1 2670   2.821   0.620   0.886 -0.0300  1.2470  0.8047
  668SOL    HW2 2671   2.709   0.690   0.829  0.3959  1.2210  3.2579
  668SOL     MW 2672   2.761   0.623   0.824  0.2370  0.5659  0.4876
  669SOL     OW 2673   0.233   0.979   0.726  0.4952 -0.0051 -0.3472
  669SOL    HW1 2674   0.255   0.940   0.815 -0.9029 -1.5333 -1.2298
  669SOL    HW2 2675   0.309   1.041   0.711 -2.4982  0.6214 -0.8995
  669SOL     MW 2676   0.246   0.982   0.735 -0.0842 -0.1240 -0.5365
  670SOL     OW 2677   2.925   0.326   0.225 -0.2318 -0.2344 -0.4686
  670SOL    HW1 2678   2.916   0.268   0.141 -0.5811  0.0720  0.0423
  670SOL    HW2 2679   2.953   0.410   0.192 -3.7562  0.0721  1.2395
  670SOL     MW 2680   2.927   0.329   0.209 -0.7429 -0.1535 -0.1758
  671SOL     OW 2681   2.070   3.012   1.508 -0.3159 -0.4533 -0.2342
  671SOL    HW1 2682   2.015   2.979   1.435  0.2896 -2.4428  1.1588
  671SOL    HW2 2683   2.012   3.033   1.580  1.2912 -0.3755 -0.1926
  671SOL     MW 2684   2.055   3.010   1.508 -0.0240 -0.7055 -0.0449
  672SOL     OW 2685   1.789   1.812   1.292  0.0562 -0.2003  0.0443
  672SOL    HW1 2686   1.808   1.888   1.352  0.3407 -2.9688 -0.5967
  672SOL    HW2 2687   1.827   1.841   1.213 -0.7476  0.5240 -1.0619
  672SOL     MW 2688   1.797   1.826   1.290 -0.0123 -0.4700 -0.1863
  673SOL     OW 2689   2.819   1.078   0.554  0.1188 -0.0985  0.6975
  673SOL    HW1 2690   2.810   1.014   0.620 -0.0105 -3.7821 -2.9928
  673SOL    HW2 2691   2.891   1.132   0.579 -0.6022 -0.4701 -1.1668
  673SOL     MW 2692   2.827   1.076   0.566  0.0066 -0.6336 -0.0354
  674SOL     OW 2693   2.470   3.053   1.133  0.1089  0.2594 -0.3660
  674SOL    HW1 2694   2.432   3.107   1.060  0.5518  0.7716  0.6115
  674SOL    HW2 2695   2.495   2.968   1.086  2.3438  0.4507  0.1493
  674SOL     MW 2696   2.468   3.049   1.117  0.4622  0.3522 -0.1691
  675SOL     OW 2697   3.030   0.838   1.030  0.0977  0.4107 -0.1744
  675SOL    HW1 2698   3.056   0.871   1.119  3.5604 -1.0794  0.5317
  675SOL    HW2 2699   3.071   0.918   0.985  2.1237  1.3274 -3.9079
  675SOL     MW 2700   3.038   0.853   1.036  0.8219  0.3351 -0.5738
  676SOL     OW 2701   2.909   1.400   1.762  0.2497  0.6205  0.4301
  676SOL    HW1 2702   2.882   1.322   1.721 -0.9709  1.7866 -2.2808
  676SOL    HW2 2703   2.940   1.379   1.846 -0.7755  1.8282 -2.6726
  676SOL     MW 2704   2.910   1.387   1.767 -0.0466  0.9337 -0.3370
  677SOL     OW 2705   2.476   0.708   1.908 -0.1856 -0.4830  0.3139
  677SOL    HW1 2706   2.456   0.610   1.893 -1.9282 -2.2696  1.5851
  677SOL    HW2 2707   2.387   0.747   1.908  2.0642 -1.3852  0.2229
  677SOL     MW 2708   2.462   0.701   1.906 -0.1187 -0.8378  0.4697
  678SOL     OW 2709   2.368   1.557   0.318 -0.4006 -0.1450  0.0951
  678SOL    HW1 2710   2.283   1.585   0.356  0.1105  1.2646 -1.1899
  678SOL    HW2 2711   2.353   1.506   0.234 -0.5903 -0.0142  1.2273
  678SOL     MW 2712   2.355   1.554   0.312 -0.3582  0.0583  0.0750
  679SOL     OW 2713   2.287   0.485   1.267 -0.0915  0.5201  0.0553
  679SOL    HW1 2714   2.262   0.397   1.241  0.4703  1.7032  2.7739
  679SOL    HW2 2715   2.217   0.510   1.325  0.1465  0.0047  0.4687
  679SOL     MW 2716   2.275   0.477   1.271  0.0140  0.6082  0.4685
  680SOL     OW 2717   2.396   0.198   1.496  0.0688  0.1469  0.0894
  680SOL    HW1 2718   2.310   0.209   1.468  1.1419 -0.5243  1.1760
  680SOL    HW2 2719   2.426   0.107   1.468  0.0020  1.3824 -2.6957
  680SOL     MW 2720   2.388   0.188   1.488  0.2016  0.2214 -0.1347
  681SOL     OW 2721   0.234   0.567   1.434  0.3763 -0.4401  0.1038
  681SOL    HW1 2722   0.206   0.495   1.483  3.5107  1.0553  2.8188
  681SOL    HW2 2723   0.232   0.544   1.335 -2.1633 -2.1710 -1.3123
  681SOL     MW 2724   0.230   0.554   1.428  0.4547 -0.4712  0.2752
  682SOL     OW 2725   3.063   2.857   1.539  0.7159  0.8409 -0.5877
  682SOL    HW1 2726   3.133   2.924   1.535 -1.2671 -0.0860 -3.1311
  682SOL    HW2 2727   2.992   2.897   1.593 -3.9892 -1.9328 -2.7632
  682SOL     MW 2728   3.063   2.871   1.546 -0.1665  0.3526 -1.2103
  683SOL     OW 2729   2.123   0.767   3.035 -0.2442  0.1671  0.0169
  683SOL    HW1 2730   2.035   0.718   3.042  1.1206 -0.6400  0.8893
  683SOL    HW2 2731   2.112   0.867   3.054  3.4300  1.0298  0.8655
  683SOL     MW 2732   2.110   0.774   3.038  0.4206  0.1745  0.2440
  684SOL     OW 2733   2.041   1.789   0.678  0.1864  0.3166  0.0938
  684SOL    HW1 2734   2.101   1.735   0.624  0.0403  0.4038  2.3248
  684SOL    HW2 2735   1.984   1.726   0.728  0.3040 -2.2113 -0.4331
  684SOL     MW 2736   2.041   1.774   0.677  0.1826 -0.0055  0.3186
  685SOL     OW 2737   2.615   1.718   1.152  0.0159 -0.6850  0.3598
  685SOL    HW1 2738   2.657   1.694   1.233  2.6510  1.7377 -0.2181
  685SOL    HW2 2739   2.589   1.637   1.115  0.5376 -1.9503  0.3243
  685SOL     MW 2740   2.617   1.704   1.158  0.4324 -0.5323  0.2789
  686SOL     OW 2741   2.863   0.647   1.515 -0.2075  0.4537 -0.5009
  686SOL    HW1 2742   2.860   0.641   1.609  1.3424  0.4831  1.4474
  686SOL    HW2 2743   2.952   0.681   1.497 -0.9869 -1.7638  0.0765
  686SOL     MW 2744   2.874   0.650   1.525 -0.1059  0.1650 -0.1676
  687SOL     OW 2745   2.193   0.243   1.165  0.1937  0.2098 -0.0394
  687SOL    HW1 2746   2.259   0.205   1.105 -0.8328 -0.3602  1.9510
  687SOL    HW2 2747   2.107   0.262   1.131 -1.5033  0.3687  1.5550
  687SOL     MW 2748   2.190   0.240   1.152 -0.1656  0.1556  0.4336
  688SOL     OW 2749   2.427   0.578   1.475 -0.1505 -0.1050 -0.3120
  688SOL    HW1 2750   2.378   0.542   1.399 -1.1248 -1.3137 -0.8970
  688SOL    HW2 2751   2.365   0.636   1.525 -2.1846 -0.9774 -0.3759
  688SOL     MW 2752   2.413   0.581   1.472 -0.5475 -0.3796 -0.3976
  689SOL     OW 2753   2.451   0.717   3.001 -0.6948 -0.6642  0.2169
  689SOL    HW1 2754   2.388   0.740   3.068 -1.0083  0.0856 -0.1675
  689SOL    HW2 2755   2.535   0.743   3.042  1.3640 -2.1833  1.0886
  689SOL     MW 2756   2.454   0.723   3.015 -0.4645 -0.7657  0.2812
  690SOL     OW 2757   2.056   0.956   1.863  0.0313 -0.3392  0.5201
  690SOL    HW1 2758   2.050   0.860   1.870  1.2870 -1.9649  1.2177
  690SOL    HW2 2759   2.100   0.980   1.786 -0.3195 -0.5254  0.0895
  690SOL     MW 2760   2.061   0.947   1.854  0.1507 -0.5783  0.5553
  691SOL     OW 2761   2.421   0.287   0.854 -0.5993  0.4446 -0.3658
  691SOL    HW1 2762   2.519   0.308   0.870 -1.0020 -2.2913 -1.0585
  691SOL    HW2 2763   2.389   0.368   0.804 -1.3012  2.1286 -1.8913
  691SOL     MW 2764   2.429   0.300   0.849 -0.7451  0.3059 -0.6585
  692SOL     OW 2765   2.780   1.656   1.376  0.5350 -0.2968 -0.1897
  692SOL    HW1 2766   2.722   1.692   1.439 -0.5913  2.6299 -2.8506
  692SOL    HW2 2767   2.848   1.723   1.372  2.1700  2.0982  2.3842
  692SOL     MW 2768   2.781   1.670   1.384  0.6021  0.4054 -0.2012
  693SOL     OW 2769   2.193   0.418   3.085 -0.3809  0.1422 -0.0101
  693SOL    HW1 2770   2.170   0.332   3.125 -0.2536 -2.9173  1.3612
  693SOL    HW2 2771   2.167   0.485   3.145  4.0738 -0.9393  1.4580
  693SOL     MW 2772   2.186   0.416   3.098  0.2237 -0.4042  0.3645
  694SOL     OW 2773   1.955   1.171   1.174 -0.1680 -0.0776  0.1342
  694SOL    HW1 2774   2.050   1.142   1.156 -0.0056 -1.8303  1.9765
  694SOL    HW2 2775   1.915   1.090   1.211 -2.4120  2.1649 -0.2321
  694SOL     MW 2776   1.963   1.156   1.176 -0.4426 -0.0130  0.3290
  695SOL     OW 2777   2.957   1.409   1.331  0.8220 -0.1911 -0.0267
  695SOL    HW1 2778   2.937   1.390   1.235  0.8045 -0.8497 -1.6612
  695SOL    HW2 2779   2.884   1.440   1.380  1.8848 -1.7530  2.6089
  695SOL     MW 2780   2.944   1.411   1.325  0.9599 -0.4841  0.1054
  696SOL     OW 2781   2.072   1.320   0.769 -0.0398 -0.4022  0.5323
  696SOL    HW1 2782   2.119   1.354   0.850  0.8341  2.4403 -0.5358
  696SOL    HW2 2783   2.017   1.254   0.817  1.4133 -0.2426  4.1404
  696SOL     MW 2784   2.071   1.315   0.786  0.2672 -0.0061  0.8674
  697SOL     OW 2785   2.917   1.034   2.267  0.0024 -0.1585  0.1052
  697SOL    HW1 2786   2.838   1.094   2.241 -0.1471  1.3440 -0.1030
  697SOL    HW2 2787   2.876   0.947   2.261  1.2652  1.5944  2.4793
  697SOL     MW 2788   2.902   1.031   2.263  0.1493  0.2710  0.3910
  698SOL     OW 2789   2.479   0.380   3.069 -0.6054  0.4858  0.0943
  698SOL    HW1 2790   2.395   0.408   3.050  2.0520 -2.5779 -1.7207
  698SOL    HW2 2791   2.494   0.391   3.166  0.6871 -0.3316 -0.5749
  698SOL     MW 2792   2.470   0.385   3.079 -0.0843 -0.0263 -0.2334
  699SOL     OW 2793   1.876   1.543   2.000  0.0082 -0.0410  0.5118
  699SOL    HW1 2794   1.833   1.471   2.038 -1.8147  1.3617 -2.1950
  699SOL    HW2 2795   1.934   1.517   1.925 -0.9905  0.4453 -2.7974
  699SOL     MW 2796   1.878   1.530   1.995 -0.3641  0.2083 -0.2819
  700SOL     OW 2797   2.728   0.883   1.546 -0.1084 -0.3745 -1.1225
  700SOL    HW1 2798   2.769   0.960   1.514 -2.0046  2.5212  1.0068
  700SOL    HW2 2799   2.787   0.810   1.533  1.3534  0.1882 -1.5644
  700SOL     MW 2800   2.741   0.884   1.540 -0.1657  0.0818 -0.8998
  701SOL     OW 2801   1.656   1.052   2.552  0.3896 -0.1032  0.1892
  701SOL    HW1 2802   1.742   1.042   2.586 -2.8860 -0.9592 -1.9578
  701SOL    HW2 2803   1.628   1.134   2.589  2.6487 -1.0380 -3.4182
  701SOL     MW 2804   1.663   1.062   2.561  0.2555 -0.3395 -0.5700
  702SOL     OW 2805   2.083   0.477   0.727 -0.1907 -0.7054 -0.0387
  702SOL    HW1 2806   2.099   0.398   0.682 -0.7762 -1.1481  3.3665
  702SOL    HW2 2807   2.120   0.542   0.663 -0.0749  0.6718  1.3030
  702SOL     MW 2808   2.090   0.475   0.713 -0.2526 -0.5821  0.5876
  703SOL     OW 2809   2.658   1.249   1.005  0.0190  0.0727 -0.3774
  703SOL    HW1 2810   2.640   1.247   0.910  0.7616  1.0547 -1.3105
  703SOL    HW2 2811   2.685   1.161   1.029 -1.3639  0.5267 -1.2660
  703SOL     MW 2812   2.659   1.237   0.995 -0.0655  0.2622 -0.6178
  704SOL     OW 2813   3.078   1.254   0.201 -0.4041 -0.2375 -0.0693
  704SOL    HW1 2814   2.991   1.245   0.164  0.7165 -3.7313 -0.4499
  704SOL    HW2 2815   3.078   1.223   0.290 -1.0628 -1.4962 -2.5477
  704SOL     MW 2816   3.066   1.249   0.208 -0.3432 -0.8646 -0.4465
  705SOL     OW 2817   2.032   1.651   1.290 -0.4792  0.2384 -0.4886
  705SOL    HW1 2818   1.951   1.712   1.299 -1.0127 -0.3407 -3.1162
  705SOL    HW2 2819   2.054   1.641   1.385  1.3884  1.7775  2.8564
  705SOL     MW 2820   2.024   1.657   1.303 -0.3032  0.3650 -0.3939
  706SOL     OW 2821   3.053   1.201   0.634 -0.1250  0.0274  0.1829
  706SOL    HW1 2822   3.142   1.195   0.590 -0.0477 -0.8475 -3.1993
  706SOL    HW2 2823   3.025   1.291   0.645  0.3176  0.2375  0.3524
  706SOL     MW 2824   3.061   1.212   0.630 -0.0564 -0.0603 -0.2410
  707SOL     OW 2825   2.308   0.046   0.939 -0.8079  0.1550 -0.2220
  707SOL    HW1 2826   2.328   0.136   0.902  1.8032  0.1819  0.4744
  707SOL    HW2 2827   2.238   0.009   0.890 -3.4982  1.3703 -3.4536
  707SOL     MW 2828   2.302   0.053   0.928 -0.8183  0.3189 -0.5565
  708SOL     OW 2829   2.377   1.427   0.079 -0.5546  0.2324  0.4695
  708SOL    HW1 2830   2.464   1.396   0.105 -0.4759  0.5778  0.9635
  708SOL    HW2 2831   2.371   1.417  -0.017  0.7617 -1.2929 -0.5586
  708SOL     MW 2832   2.388   1.421   0.070 -0.3706  0.0767  0.3990
  709SOL     OW 2833   1.668   1.558   0.198 -0.0370 -0.5898 -0.7817
  709SOL    HW1 2834   1.673   1.591   0.103 -0.0598  3.3733 -1.0669
  709SOL    HW2 2835   1.583   1.594   0.236  2.5667  0.9919 -0.4513
  709SOL     MW 2836   1.657   1.568   0.190  0.3035  0.1418 -0.7758
  710SOL     OW 2837   2.214   1.119   1.134 -0.6402  0.2621 -0.3527
  710SOL    HW1 2838   2.216   1.064   1.053 -1.9818 -2.5333 -0.8408
  710SOL    HW2 2839   2.262   1.069   1.197  0.2618 -1.4455 -3.7344
  710SOL     MW 2840   2.221   1.105   1.132 -0.6982 -0.3321 -0.8633
  711SOL     OW 2841   2.381   0.116   1.761  0.2490 -0.1106  0.2646
  711SOL    HW1 2842   2.472   0.083   1.757 -2.0361  1.3288 -2.1583
  711SOL    HW2 2843   2.378   0.152   1.671  3.1952  0.2837  0.1560
  711SOL     MW 2844   2.393   0.116   1.749  0.3362  0.1313 -0.0694
  712SOL     OW 2845   1.892   0.639   3.075  0.1918 -0.1156  0.4467
  712SOL    HW1 2846   1.822   0.659   3.015 -0.4562 -1.4212  1.3961
  712SOL    HW2 2847   1.862   0.663   3.168 -2.4280 -3.1664 -1.6808
  712SOL     MW 2848   1.878   0.645   3.080 -0.2393 -0.6904  0.2912
  713SOL     OW 2849   2.590   0.708   1.119  0.0675  0.0448  0.2206
  713SOL    HW1 2850   2.556   0.621   1.131 -1.7036 -1.5825 -0.1703
  713SOL    HW2 2851   2.574   0.743   1.207  0.7606 -0.7550 -0.0231
  713SOL     MW 2852   2.583   0.701   1.132 -0.0747 -0.2754  0.1369
  714SOL     OW 2853   2.276   0.212   1.994 -0.2671  0.5689  0.6260
  714SOL    HW1 2854   2.298   0.145   2.059 -0.3698  0.1014 -0.6106
  714SOL    HW2 2855   2.335   0.211   1.918 -2.1171 -1.6860  0.9091
  714SOL     MW 2856   2.286   0.203   1.992 -0.5248  0.2097  0.5002
  715SOL     OW 2857   1.844   1.976   1.718 -0.0803  0.0297  0.4712
  715SOL    HW1 2858   1.929   2.005   1.761  0.7640  0.5338 -0.9040
  715SOL    HW2 2859   1.817   1.898   1.763  1.2006 -0.3876 -0.3595
  715SOL     MW 2860   1.852   1.970   1.730  0.2001  0.0412  0.1802
  716SOL     OW 2861   2.429   0.540   0.732 -0.3869  0.0342 -0.0309
  716SOL    HW1 2862   2.505   0.557   0.685  1.7132  0.0224  0.4211
  716SOL    HW2 2863   2.362   0.585   0.685 -0.8350  0.9136 -1.7090
  716SOL     MW 2864   2.430   0.548   0.719 -0.1690  0.1486 -0.1927
  717SOL     OW 2865   2.777   1.669   2.836  0.1998  0.0567  0.7923
  717SOL    HW1 2866   2.847   1.625   2.883 -1.4570  1.3007  0.9831
  717SOL    HW2 2867   2.726   1.716   2.901 -0.8733  4.9971  0.2957
  717SOL     MW 2868   2.779   1.669   2.851 -0.1604  0.8727  0.7520
  718SOL     OW 2869   2.659   1.322   1.379 -0.4973  0.5122  0.5792
  718SOL    HW1 2870   2.578   1.287   1.339  1.8780  1.1935  0.4971
  718SOL    HW2 2871   2.626   1.369   1.458 -0.7479 -0.3392  2.6540
  718SOL     MW 2872   2.644   1.324   1.384 -0.2169  0.4898  0.8421
  719SOL     OW 2873   2.179   1.204   0.522 -0.3142 -0.6115  0.0879
  719SOL    HW1 2874   2.258   1.263   0.524 -0.7778 -0.0338 -3.4206
  719SOL    HW2 2875   2.136   1.221   0.614 -0.4852  1.3747  0.9493
  719SOL     MW 2876   2.184   1.214   0.534 -0.3979 -0.2732 -0.2614
  720SOL     OW 2877   2.802   1.246   0.059 -0.1366  0.0001  0.3773
  720SOL    HW1 2878   2.802   1.149   0.087 -2.3315 -1.7322  0.9741
  720SOL    HW2 2879   2.726   1.283   0.105 -0.9746  2.0384  1.0356
  720SOL     MW 2880   2.792   1.238   0.069 -0.5368  0.0405  0.5429
  721SOL     OW 2881   2.539   0.794   1.369 -0.3504 -0.0012  0.4236
  721SOL    HW1 2882   2.512   0.720   1.424  2.0043 -0.5474  0.1966
  721SOL    HW2 2883   2.602   0.828   1.434  2.2329 -0.5627  2.7705
  721SOL     MW 2884   2.544   0.789   1.385  0.3011 -0.1474  0.7033
  722SOL     OW 2885   2.621   1.150   0.381  0.2659  0.4558 -0.0411
  722SOL    HW1 2886   2.569   1.209   0.435 -1.0066 -0.2316 -1.4641
  722SOL    HW2 2887   2.706   1.133   0.421 -1.1204  0.7537  2.6371
  722SOL     MW 2888   2.625   1.156   0.393 -0.0849  0.4044  0.1245
  723SOL     OW 2889   2.266   1.399   1.544  0.0116  0.6593 -0.0171
  723SOL    HW1 2890   2.254   1.382   1.451  1.6213  2.1951  0.0646
  723SOL    HW2 2891   2.194   1.457   1.557  2.2857  2.0195 -4.3473
  723SOL     MW 2892   2.255   1.404   1.533  0.5240  1.0414 -0.5777
  724SOL     OW 2893   2.445   0.204   0.604  0.4786 -0.6575 -0.2758
  724SOL    HW1 2894   2.423   0.241   0.692  3.0150  2.0025  1.3777
  724SOL    HW2 2895   2.539   0.194   0.608 -0.8108 -3.4331 -0.7484
  724SOL     MW 2896   2.455   0.208   0.616  0.6431 -0.6728 -0.1200
  725SOL     OW 2897   2.623   0.382   1.129  0.1246  0.0759 -0.4916
  725SOL    HW1 2898   2.694   0.416   1.183 -2.3242 -2.3343 -0.4514
  725SOL    HW2 2899   2.586   0.309   1.181 -0.3901 -0.4933  0.0452
  725SOL     MW 2900   2.628   0.377   1.143 -0.2664 -0.3172 -0.4154
  726SOL     OW 2901   2.440   2.460   0.421 -0.7014  0.1904 -0.2659
  726SOL    HW1 2902   2.458   2.553   0.419 -2.1004 -1.1220  2.3881
  726SOL    HW2 2903   2.395   2.443   0.507  0.2528 -1.9424  2.9831
  726SOL     MW 2904   2.436   2.470   0.432 -0.7601 -0.2642  0.5130
  727SOL     OW 2905   2.835   0.310   1.749 -0.3305  0.5082  0.0654
  727SOL    HW1 2906   2.749   0.289   1.714 -1.7231 -1.3825  0.1745
  727SOL    HW2 2907   2.839   0.257   1.832 -0.2985 -2.5359  2.8191
  727SOL     MW 2908   2.824   0.300   1.755 -0.5100 -0.1429  0.4431
  728SOL     OW 2909   2.805   1.241   2.880  0.4045  0.4173  0.4833
  728SOL    HW1 2910   2.831   1.321   2.843 -2.7598 -1.3634 -0.4740
  728SOL    HW2 2911   2.818   1.250   2.973  0.5454  0.8316 -0.8874
  728SOL     MW 2912   2.810   1.253   2.887  0.0056  0.2370  0.1761
  729SOL     OW 2913   2.479   1.494   1.055 -1.2226 -0.5193  0.0313
  729SOL    HW1 2914   2.523   1.408   1.064 -0.0177  0.5276  1.3020
  729SOL    HW2 2915   2.459   1.488   0.960 -1.0195 -0.2331 -0.2514
  729SOL     MW 2916   2.482   1.482   1.044 -1.0368 -0.3434  0.1617
  730SOL     OW 2917   2.174   1.164   0.197  0.2701  0.0896 -0.1111
  730SOL    HW1 2918   2.255   1.108   0.214  2.2316 -0.9120 -2.3297
  730SOL    HW2 2919   2.213   1.253   0.203 -0.3814  0.9289  1.2597
  730SOL     MW 2920   2.190   1.168   0.200  0.4430  0.0682 -0.2230
  731SOL     OW 2921   2.792   1.975   2.948  0.4035  0.0859  0.4159
  731SOL    HW1 2922   2.744   1.977   2.863 -0.6822 -0.4511 -2.2620
  731SOL    HW2 2923   2.886   1.985   2.936 -0.5235  0.4481  0.1161
  731SOL     MW 2924   2.798   1.976   2.935  0.1380  0.0628  0.0230
  732SOL     OW 2925   2.337   0.993   1.340  0.0246 -0.4034  0.9299
  732SOL    HW1 2926   2.278   1.002   1.411  2.4328  2.6328 -0.8733
  732SOL    HW2 2927   2.404   0.930   1.364 -0.4329  0.3899  0.0898
  732SOL     MW 2928   2.338   0.986   1.353  0.2820  0.1018  0.5811
  733SOL     OW 2929   2.413   2.689   2.966  0.3629  0.1404 -0.4904
  733SOL    HW1 2930   2.331   2.729   3.005 -1.3991 -2.6692 -0.0926
  733SOL    HW2 2931   2.389   2.601   2.989  2.1989  0.2592  1.4870
  733SOL     MW 2932   2.399   2.682   2.974  0.3727 -0.2146 -0.1770
  734SOL     OW 2933   1.539   0.250   2.545  0.4865 -0.4249  0.1495
  734SOL    HW1 2934   1.508   0.199   2.621 -0.6594 -1.1697  0.3574
  734SOL    HW2 2935   1.511   0.196   2.475  2.3954 -0.2124 -1.5335
  734SOL     MW 2936   1.531   0.236   2.546  0.5871 -0.4951 -0.0452
  735SOL     OW 2937   3.031   0.883   2.653 -0.5363  0.4504  0.3080
  735SOL    HW1 2938   3.046   0.789   2.675 -1.0385 -1.2412 -1.3376
  735SOL    HW2 2939   3.027   0.926   2.739  3.3095 -0.0967  1.9935
  735SOL     MW 2940   3.032   0.876   2.667 -0.0952  0.1550  0.3132
  736SOL     OW 2941   0.164   0.579   2.556  0.1210 -0.3574 -0.2716
  736SOL    HW1 2942   0.141   0.644   2.491  0.6306  0.8398 -0.7264
  736SOL    HW2 2943   0.223   0.512   2.520 -0.9955 -0.2571  0.9387
  736SOL     MW 2944   0.169   0.579   2.543  0.0409 -0.1862 -0.1719
  737SOL     OW 2945   2.998   0.607   2.658  0.3498  0.6075  0.6902
  737SOL    HW1 2946   2.926   0.614   2.592  0.2974  2.2256 -0.8563
  737SOL    HW2 2947   3.079   0.581   2.614 -1.1418  1.2756  1.7598
  737SOL     MW 2948   2.999   0.605   2.643  0.1461  0.9091  0.6272
  738SOL     OW 2949   0.146   0.446   1.848  0.1227  0.4772 -0.6186
  738SOL    HW1 2950   0.236   0.462   1.871  0.1355  3.2840 -1.0138
  738SOL    HW2 2951   0.144   0.441   1.750 -0.4236  2.4563  0.2821
  738SOL     MW 2952   0.158   0.447   1.838  0.0523  1.1087 -0.5519
  739SOL     OW 2953   2.508   0.959   2.127  0.3265 -0.0460  0.3057
  739SOL    HW1 2954   2.422   0.962   2.087 -0.2375  0.8415 -1.0316
  739SOL    HW2 2955   2.571   0.913   2.075  1.7638 -0.6950 -0.2562
  739SOL     MW 2956   2.505   0.953   2.115  0.4417 -0.0145  0.0552
  740SOL     OW 2957   0.183   1.800   2.946 -0.4180 -0.2222  0.1179
  740SOL    HW1 2958   0.165   1.709   2.945 -5.2462 -0.5378 -2.8487
  740SOL    HW2 2959   0.282   1.812   2.963  2.3588 -1.8637 -0.0001
  740SOL     MW 2960   0.194   1.789   2.948 -0.6886 -0.4804 -0.2891
  741SOL     OW 2961   2.299   1.182   2.702 -0.0818 -0.3563 -0.2482
  741SOL    HW1 2962   2.248   1.257   2.655 -1.4603  0.5476 -1.0719
  741SOL    HW2 2963   2.259   1.179   2.792  1.4233  1.0239 -0.0921
  741SOL     MW 2964   2.287   1.191   2.707 -0.0651 -0.0549 -0.3363
  742SOL     OW 2965   1.531   1.282   2.392 -0.0109  0.9891  0.1487
  742SOL    HW1 2966   1.448   1.284   2.340  0.8102  0.6425 -0.7617
  742SOL    HW2 2967   1.527   1.195   2.432 -0.1230  0.3811  0.5186
  742SOL     MW 2968   1.520   1.270   2.391  0.0826  0.8632  0.0774
  743SOL     OW 2969   2.570   1.257   2.683  0.3109  0.6051 -0.0732
  743SOL    HW1 2970   2.474   1.219   2.693 -0.4316 -1.3724 -2.0323
  743SOL    HW2 2971   2.623   1.206   2.746 -0.4669  3.1593  1.3751
  743SOL     MW 2972   2.565   1.245   2.693  0.1103  0.6811 -0.1406
  744SOL     OW 2973   2.720   0.927   1.898  0.7887  0.4302 -0.4987
  744SOL    HW1 2974   2.663   0.980   1.839  0.2847 -0.4162 -0.8493
  744SOL    HW2 2975   2.686   0.838   1.889  0.3915 -0.5277 -0.1111
  744SOL     MW 2976   2.708   0.922   1.889  0.6698  0.1921 -0.4938
  745SOL     OW 2977   1.724   0.445   2.462 -0.0426  0.0321 -0.2580
  745SOL    HW1 2978   1.695   0.462   2.372 -0.9716 -4.0488 -1.7795
  745SOL    HW2 2979   1.664   0.372   2.495 -1.3098  0.9643  1.5443
  745SOL     MW 2980   1.712   0.437   2.455 -0.3324 -0.3833 -0.2210
  746SOL     OW 2981   1.614   1.563   1.681 -0.3352  0.0062 -0.1989
  746SOL    HW1 2982   1.650   1.648   1.703  1.2833 -3.6191  1.1309
  746SOL    HW2 2983   1.604   1.523   1.767 -1.0382 -0.9747 -2.8293
  746SOL     MW 2984   1.617   1.569   1.695 -0.2144 -0.6015 -0.3705
  747SOL     OW 2985   2.559   1.139   1.800  0.2550  0.7852  0.1188
  747SOL    HW1 2986   2.465   1.138   1.772 -0.2988 -0.3193 -1.9380
  747SOL    HW2 2987   2.568   1.171   1.884  1.1262 -1.5681  0.3536
  747SOL     MW 2988   2.548   1.143   1.807  0.2969  0.3290 -0.1216
  748SOL     OW 2989   0.066   0.122   1.849 -0.4861 -0.1544 -0.1477
  748SOL    HW1 2990   0.161   0.096   1.850  0.5238 -0.7949  1.9235
  748SOL    HW2 2991   0.074   0.205   1.892 -0.7714  0.2207  1.7145
  748SOL     MW 2992   0.080   0.129   1.854 -0.3905 -0.1894  0.3713
  749SOL     OW 2993   2.538   0.626   2.768 -0.7873  0.7961 -0.9847
  749SOL    HW1 2994   2.563   0.707   2.718 -1.7600  0.4552 -1.3250
  749SOL    HW2 2995   2.512   0.663   2.855 -1.7547 -0.5630 -1.7453
  749SOL     MW 2996   2.538   0.642   2.773 -1.0433  0.5718 -1.1300
  750SOL     OW 2997   2.097   3.092   1.937  0.7087  0.3327 -0.1953
  750SOL    HW1 2998   2.141   3.177   1.954  1.1985  0.2234  0.7914
  750SOL    HW2 2999   2.169   3.027   1.934  0.0092 -2.2464  1.4476
  750SOL     MW 3000   2.112   3.095   1.939  0.6810 -0.0220  0.1517
  751SOL     OW 3001   0.268   0.335   2.375 -0.4895 -0.2824  0.8900
  751SOL    HW1 3002   0.183   0.300   2.403 -0.4861 -0.7176 -5.6601
  751SOL    HW2 3003   0.284   0.308   2.279 -1.1724  1.1143 -0.5826
  751SOL     MW 3004   0.259   0.327   2.366 -0.5792 -0.1555 -0.1685
  752SOL     OW 3005   2.127   0.836   2.712 -0.4948  0.0049 -0.5262
  752SOL    HW1 3006   2.200   0.884   2.672  1.2686  1.7993  1.2586
  752SOL    HW2 3007   2.147   0.827   2.808 -0.5730 -0.3740  0.8475
  752SOL     MW 3008   2.139   0.841   2.719 -0.2724  0.1917 -0.1095
  753SOL     OW 3009   2.770   0.117   2.426 -0.1811  0.2313 -0.5948
  753SOL    HW1 3010   2.760   0.024   2.399 -2.2760  2.0225  0.4673
  753SOL    HW2 3011   2.751   0.166   2.348 -0.5762  0.2479 -0.6982
  753SOL     MW 3012   2.766   0.111   2.412 -0.5096  0.4698 -0.4683
  754SOL     OW 3013   2.270   2.952   2.636  0.1407  0.3748  0.1055
  754SOL    HW1 3014   2.317   2.977   2.556 -1.5050 -1.3672  0.7330
  754SOL    HW2 3015   2.332   2.893   2.682 -0.5648 -2.6505  0.8672
  754SOL     MW 3016   2.284   2.948   2.632 -0.1695 -0.2542  0.2888
  755SOL     OW 3017   2.724   1.542   2.424 -0.2776 -0.3679 -0.3991
  755SOL    HW1 3018   2.755   1.462   2.474 -1.0292 -3.9366 -0.6694
  755SOL    HW2 3019   2.765   1.623   2.464  0.3774 -2.3429 -1.3770
  755SOL     MW 3020   2.733   1.542   2.436 -0.2903 -1.0994 -0.5638
  756SOL     OW 3021   2.197   1.199   2.946 -0.0666  0.1126 -0.2272
  756SOL    HW1 3022   2.227   1.294   2.941  0.7182  0.2271 -3.6085
  756SOL    HW2 3023   2.265   1.152   2.998  0.7679  0.8127 -0.8473
  756SOL     MW 3024   2.210   1.205   2.952  0.1470  0.2201 -0.7552
  757SOL     OW 3025   2.162   0.959   1.571  0.0404  0.0362  0.2627
  757SOL    HW1 3026   2.183   0.863   1.573 -0.6818  1.1244 -1.7482
  757SOL    HW2 3027   2.067   0.958   1.543 -1.7370  2.0377 -1.2000
  757SOL     MW 3028   2.152   0.946   1.568 -0.2894  0.4439 -0.1956
  758SOL     OW 3029   2.191   1.769   2.600 -0.0146 -0.2460 -0.3970
  758SOL    HW1 3030   2.173   1.786   2.504 -0.5505  0.8785 -0.4070
  758SOL    HW2 3031   2.284   1.763   2.602 -1.2382  1.0674  0.5909
  758SOL     MW 3032   2.201   1.770   2.588 -0.2468  0.0757 -0.2680
  759SOL     OW 3033   1.552   1.262   2.692 -0.2388 -0.7114 -0.5321
  759SOL    HW1 3034   1.514   1.310   2.617 -0.1022 -1.1845  0.4025
  759SOL    HW2 3035   1.608   1.332   2.734 -0.9805 -2.6539  1.0974
  759SOL     MW 3036   1.554   1.278   2.688 -0.3186 -1.0301 -0.1938
  760SOL     OW 3037   2.668   1.958   2.699 -0.5461  0.0613  0.0480
  760SOL    HW1 3038   2.599   1.889   2.679  0.0186  2.4246 -0.2893
  760SOL    HW2 3039   2.691   1.987   2.611  0.4381  1.7836 -0.8267
  760SOL     MW 3040   2.662   1.953   2.685 -0.3417  0.6004 -0.1119
  761SOL     OW 3041   2.209   0.359   2.531 -0.1052 -0.3228 -0.5109
  761SOL    HW1 3042   2.130   0.313   2.568 -1.3190 -1.8518  2.2175
  761SOL    HW2 3043   2.241   0.422   2.593 -2.4698  0.1160 -1.2206
  761SOL     MW 3044   2.203   0.361   2.544 -0.5773 -0.4666 -0.2445
  762SOL     OW 3045   3.072   0.284   2.132  0.1617  0.2696 -0.1163
  762SOL    HW1 3046   3.065   0.207   2.190  0.3025  0.6573  0.0666
  762SOL    HW2 3047   3.050   0.360   2.189 -1.1914  1.3429  1.1585
  762SOL     MW 3048   3.068   0.283   2.147  0.0018  0.4624  0.0760
  763SOL     OW 3049   2.371   1.035   2.345 -0.0719  0.4322  0.6359
  763SOL    HW1 3050   2.411   0.984   2.278  0.2667  2.9403  2.5494
  763SOL    HW2 3051   2.438   1.094   2.374 -0.8217  0.0447 -2.5855
  763SOL     MW 3052   2.385   1.036   2.340 -0.1262  0.7120  0.4634
  764SOL     OW 3053   0.420   0.308   2.853  0.0216  0.1082 -0.3328
  764SOL    HW1 3054   0.342   0.257   2.819  0.3325  1.4320 -1.2419
  764SOL    HW2 3055   0.397   0.396   2.883 -0.5940 -0.8503 -1.2505
  764SOL     MW 3056   0.407   0.313   2.852 -0.0186  0.1564 -0.5738
  765SOL     OW 3057   2.739   2.942   2.381  0.0635 -0.2875 -0.1652
  765SOL    HW1 3058   2.697   2.971   2.297  0.4970  0.8823 -0.8280
  765SOL    HW2 3059   2.825   2.917   2.348 -0.3679  1.1446  0.4677
  765SOL     MW 3060   2.744   2.943   2.365  0.0638  0.0558 -0.1692
  766SOL     OW 3061   1.906   2.998   2.133  0.0574  0.0318 -0.5926
  766SOL    HW1 3062   1.970   3.031   2.067  0.8648 -0.3548 -2.5481
  766SOL    HW2 3063   1.868   2.923   2.096 -0.2618  0.1438  4.7134
  766SOL     MW 3064   1.910   2.993   2.119  0.1218 -0.0044 -0.1505
  767SOL     OW 3065   2.669   0.591   2.075  0.3432 -0.5607 -0.1497
  767SOL    HW1 3066   2.713   0.660   2.123 -0.5040 -0.0174 -0.3499
  767SOL    HW2 3067   2.588   0.639   2.048  1.0468  1.6519  2.5599
  767SOL     MW 3068   2.664   0.606   2.077  0.3243 -0.1971  0.1814
  768SOL     OW 3069   2.980   1.563   2.962  0.3378 -0.1195  0.3944
  768SOL    HW1 3070   3.008   1.557   3.058  0.4249  1.2434 -0.0499
  768SOL    HW2 3071   3.028   1.497   2.922 -0.0153  2.1460 -3.5409
  768SOL     MW 3072   2.990   1.553   2.969  0.3027  0.3592 -0.1835
  769SOL     OW 3073   2.535   0.630   2.440 -0.1881  0.1511  0.2007
  769SOL    HW1 3074   2.523   0.661   2.356  3.2531 -1.1100  0.5505
  769SOL    HW2 3075   2.622   0.592   2.444 -0.0957  3.7390  1.2656
  769SOL     MW 3076   2.545   0.629   2.430  0.2781  0.4581  0.3874
  770SOL     OW 3077   3.065   1.609   2.510  0.5719  0.2088 -0.0614
  770SOL    HW1 3078   2.994   1.638   2.565 -1.3146 -2.2615 -3.1222
  770SOL    HW2 3079   3.060   1.509   2.499  1.0888 -1.7068 -0.3895
  770SOL     MW 3080   3.055   1.600   2.516  0.3912 -0.3699 -0.5085
  771SOL     OW 3081   3.057   0.637   1.943 -0.0593  0.6719 -0.6803
  771SOL    HW1 3082   2.975   0.607   1.904 -1.6951 -1.4847  3.6008
  771SOL    HW2 3083   3.130   0.583   1.917 -2.9236 -0.0467  1.6270
  771SOL     MW 3084   3.056   0.626   1.934 -0.6531  0.2925  0.1890
  772SOL     OW 3085   0.032   3.087   2.245  0.1558  0.2852 -0.5962
  772SOL    HW1 3086  -0.015   3.008   2.263  1.3763 -1.0387  1.3115
  772SOL    HW2 3087   0.110   3.051   2.193  1.1228 -0.4956  0.4623
  772SOL     MW 3088   0.036   3.072   2.241  0.4444  0.0075 -0.2049
  773SOL     OW 3089   2.496   2.799   2.719 -0.6205 -0.0551 -0.9167
  773SOL    HW1 3090   2.473   2.736   2.651  0.1569  2.8339 -0.3161
  773SOL    HW2 3091   2.476   2.747   2.796 -0.3803  2.5712 -1.3364
  773SOL     MW 3092   2.490   2.783   2.720 -0.4863  0.6726 -0.8928
  774SOL     OW 3093   2.317   1.159   1.701 -0.7040  0.4523 -0.8881
  774SOL    HW1 3094   2.313   1.242   1.647  1.3159  0.4562  0.0454
  774SOL    HW2 3095   2.266   1.092   1.656 -0.9568 -1.0865  1.1166
  774SOL     MW 3096   2.310   1.162   1.688 -0.4709  0.2498 -0.5004
  775SOL     OW 3097   2.318   2.920   2.344  0.1330 -0.3273 -0.3222
  775SOL    HW1 3098   2.315   2.999   2.291  2.1310 -1.2683  0.9415
  775SOL    HW2 3099   2.382   2.862   2.305  4.3624 -0.7065 -0.6018
  775SOL     MW 3100   2.326   2.923   2.332  0.9547 -0.5015 -0.1924
  776SOL     OW 3101   0.032   1.491   0.093  0.3456 -0.4324  0.2889
  776SOL    HW1 3102   0.135   1.488   0.095  1.3762 -0.6353  0.2712
  776SOL    HW2 3103   0.022   1.395   0.127 -0.1728  0.6024 -2.2741
  776SOL     MW 3104   0.044   1.478   0.098  0.4132 -0.3226 -0.0516
  777SOL     OW 3105   2.967   1.008   1.790  0.1494  0.4149  0.2077
  777SOL    HW1 3106   2.925   1.062   1.730  1.7024 -1.6919  0.6987
  777SOL    HW2 3107   2.894   0.962   1.828  3.0321 -4.3385 -1.9772
  777SOL     MW 3108   2.951   1.009   1.787  0.7346 -0.4902 -0.0158
  778SOL     OW 3109   2.916   0.369   2.788  0.3487  0.2689  0.1112
  778SOL    HW1 3110   2.903   0.385   2.881 -1.1310  1.5449 -0.3212
  778SOL    HW2 3111   2.950   0.457   2.750  2.5968  1.6513 -1.0801
  778SOL     MW 3112   2.919   0.383   2.795  0.4501  0.6197 -0.1031
  779SOL     OW 3113   2.103   0.512   2.299  0.3363 -0.0296 -0.7611
  779SOL    HW1 3114   2.053   0.580   2.347 -1.3904 -2.8968  0.2908
  779SOL    HW2 3115   2.111   0.455   2.375  1.2909  2.8916  1.0172
  779SOL     MW 3116   2.097   0.513   2.315  0.2344 -0.0225 -0.3877
  780SOL     OW 3117   0.203   0.168   2.798 -0.4283  0.4219  0.0047
  780SOL    HW1 3118   0.158   0.215   2.872  0.4817 -0.0813  2.0614
  780SOL    HW2 3119   0.160   0.186   2.717 -0.9900  0.5006 -0.1623
  780SOL     MW 3120   0.192   0.177   2.797 -0.3824  0.3659  0.2541
  781SOL     OW 3121   3.067   1.337   2.370  0.1150  0.1564 -0.2520
  781SOL    HW1 3122   3.006   1.384   2.316  1.3227 -1.3594  1.9473
  781SOL    HW2 3123   3.129   1.293   2.318  0.8840 -0.9914  0.8694
  781SOL     MW 3124   3.067   1.338   2.356  0.3758 -0.1951  0.1862
  782SOL     OW 3125   0.549   1.526   3.073  0.1209  0.3708  0.2689
  782SOL    HW1 3126   0.497   1.606   3.081  1.5673  0.0472 -3.4161
  782SOL    HW2 3127   0.547   1.493   3.162 -2.1902  1.1821 -2.4114
  782SOL     MW 3128   0.542   1.532   3.085  0.0068  0.4352 -0.5709
  783SOL     OW 3129   2.799   0.589   2.453  0.1081 -0.0427  0.1609
  783SOL    HW1 3130   2.840   0.555   2.370 -1.6702 -1.5739 -0.5949
  783SOL    HW2 3131   2.758   0.525   2.518 -0.3476  1.3565 -0.6983
  783SOL     MW 3132   2.799   0.576   2.451 -0.1866 -0.0601 -0.0522
  784SOL     OW 3133   0.207   0.914   2.853 -0.0887  0.3750 -0.1718
  784SOL    HW1 3134   0.241   0.956   2.926 -0.9109  0.0516 -2.4590
  784SOL    HW2 3135   0.217   0.977   2.780  0.4189  0.2000  4.9004
  784SOL     MW 3136   0.213   0.928   2.853 -0.1302  0.3093  0.1957
  785SOL     OW 3137   0.369   0.555   2.122  0.6776 -0.0894 -0.2135
  785SOL    HW1 3138   0.378   0.576   2.028  2.6009  1.1923  1.3193
  785SOL    HW2 3139   0.315   0.484   2.145 -0.2031  3.8799  0.1417
  785SOL     MW 3140   0.363   0.549   2.113  0.8151  0.6034  0.0356
  786SOL     OW 3141   2.053   0.453   2.822  0.3148 -0.4812 -0.0977
  786SOL    HW1 3142   2.082   0.441   2.915  0.6754  1.9187  1.5803
  786SOL    HW2 3143   2.131   0.499   2.771  0.7597  0.5120 -2.4361
  786SOL     MW 3144   2.067   0.457   2.827  0.4211 -0.0335 -0.1849
  787SOL     OW 3145   2.489   0.146   2.893  0.2204  0.1269 -0.3382
  787SOL    HW1 3146   2.505   0.143   2.797 -1.1814  0.1520  0.9147
  787SOL    HW2 3147   2.491   0.242   2.917 -0.7253  0.8749 -0.3093
  787SOL     MW 3148   2.492   0.158   2.883 -0.0893  0.2289 -0.1691
  788SOL     OW 3149   2.980   2.858   2.301  0.3401 -1.2456  0.0884
  788SOL    HW1 3150   2.964   2.781   2.248  1.5388 -0.5358  1.6331
  788SOL    HW2 3151   3.027   2.811   2.364 -3.2090  2.5776  0.0458
  788SOL     MW 3152   2.984   2.842   2.302  0.0300 -0.6475  0.2866
  789SOL     OW 3153   0.082   0.278   3.022  0.0474 -0.1400 -0.6040
  789SOL    HW1 3154  -0.008   0.246   3.027 -0.3126  0.8628 -0.0558
  789SOL    HW2 3155   0.122   0.246   3.102  0.5548 -2.0333  1.8486
  789SOL     MW 3156   0.076   0.269   3.033  0.0668 -0.2575 -0.2081
  790SOL     OW 3157   0.045   1.014   2.459  0.5919 -0.2344 -0.1231
  790SOL    HW1 3158   0.014   0.959   2.537 -0.3324 -1.0338 -1.3096
  790SOL    HW2 3159  -0.037   1.049   2.425 -1.9962 -1.0837 -1.8297
  790SOL     MW 3160   0.030   1.011   2.465  0.1285 -0.4519 -0.5049
  791SOL     OW 3161   2.677   0.416   2.655 -0.2788 -0.0494  0.4539
  791SOL    HW1 3162   2.618   0.493   2.678 -0.4131 -1.7805 -0.3417
  791SOL    HW2 3163   2.740   0.411   2.724 -3.1516 -0.5696  0.4535
  791SOL     MW 3164   2.678   0.426   2.667 -0.6756 -0.3465  0.3489
  792SOL     OW 3165   2.469   0.264   2.387  0.4101  0.2028  0.3075
  792SOL    HW1 3166   2.405   0.327   2.416  2.3647 -1.5287  0.6538
  792SOL    HW2 3167   2.490   0.217   2.472 -4.5713 -0.7505  3.6341
  792SOL     MW 3168   2.463   0.266   2.402  0.0107 -0.1515  0.7921
  793SOL     OW 3169   1.771   1.022   1.868  0.8659  0.2009 -0.2906
  793SOL    HW1 3170   1.746   1.064   1.780 -0.1560 -0.5359  0.9865
  793SOL    HW2 3171   1.843   0.965   1.849 -3.0228  0.8582 -0.3809
  793SOL     MW 3172   1.777   1.020   1.854  0.2180  0.1904 -0.1340
  794SOL     OW 3173   1.412   2.299   0.150 -0.3280 -0.1127 -0.3141
  794SOL    HW1 3174   1.436   2.360   0.075 -0.8327 -1.6193 -0.6686
  794SOL    HW2 3175   1.476   2.328   0.218  0.0906 -1.1863  0.4852
  794SOL     MW 3176   1.424   2.311   0.149 -0.3394 -0.4532 -0.2554
  795SOL     OW 3177   2.339   0.931   2.596  0.0316  0.2485  0.3520
  795SOL    HW1 3178   2.325   1.020   2.629 -2.5674  0.5066 -1.8017
  795SOL    HW2 3179   2.327   0.932   2.500 -1.0288 -0.9946  1.8243
  795SOL     MW 3180   2.335   0.943   2.588 -0.4512  0.1185  0.2621
  796SOL     OW 3181   0.281   0.671   2.780  0.4725  0.0807  0.5149
  796SOL    HW1 3182   0.278   0.767   2.786 -3.0309 -0.7860  2.1092
  796SOL    HW2 3183   0.232   0.654   2.698  0.6054  0.3814  0.8792
  796SOL     MW 3184   0.274   0.681   2.770  0.0278  0.0061  0.7733
  797SOL     OW 3185   2.580   0.166   2.608 -0.1223  0.1722  0.1304
  797SOL    HW1 3186   2.590   0.257   2.629 -0.8887  2.0322  1.1723
  797SOL    HW2 3187   2.644   0.149   2.534  1.0943  0.7640  0.7898
  797SOL     MW 3188   2.590   0.176   2.601 -0.0629  0.4957  0.3549
  798SOL     OW 3189   2.338   0.064   2.219  0.2005  0.1227 -0.4525
  798SOL    HW1 3190   2.350   0.125   2.295  0.3104 -1.4454  0.9250
  798SOL    HW2 3191   2.430   0.036   2.200  0.6475  0.4666  1.8273
  798SOL     MW 3192   2.352   0.069   2.226  0.2740 -0.0388  0.0300
  799SOL     OW 3193   2.519   2.878   0.212 -0.1171  0.1013  0.6867
  799SOL    HW1 3194   2.573   2.844   0.139 -0.0159 -0.6647  0.1828
  799SOL    HW2 3195   2.465   2.948   0.170  0.5379  0.2850  1.0417
  799SOL     MW 3196   2.519   2.883   0.197 -0.0173  0.0245  0.6671
  800SOL     OW 3197   1.895   3.092   1.729  0.0494  0.5401  0.0318
  800SOL    HW1 3198   1.849   3.008   1.748  0.9811  0.5226  1.8251
  800SOL    HW2 3199   1.962   3.086   1.796  0.3718 -2.5742 -0.4545
  800SOL     MW 3200   1.898   3.080   1.740  0.2149  0.1269  0.2042
  801SOL     OW 3201   2.851   1.305   2.546  0.1475 -0.4634 -0.6778
  801SOL    HW1 3202   2.834   1.223   2.591  0.4844 -0.1282 -0.3737
  801SOL    HW2 3203   2.927   1.286   2.487  0.9736  0.7089  1.8744
  801SOL     MW 3204   2.859   1.291   2.544  0.3010 -0.2645 -0.3009
  802SOL     OW 3205   2.565   1.505   2.752 -0.4975 -0.2164 -0.1652
  802SOL    HW1 3206   2.566   1.416   2.707  0.9081 -0.7756 -1.0258
  802SOL    HW2 3207   2.648   1.528   2.804 -0.1782  0.1381  1.0980
  802SOL     MW 3208   2.576   1.496   2.753 -0.2699 -0.2434 -0.1121
  803SOL     OW 3209   2.260   1.334   1.974  0.2327  0.3420  0.2965
  803SOL    HW1 3210   2.240   1.292   2.062  1.5877 -0.1619 -1.0590
  803SOL    HW2 3211   2.248   1.266   1.907 -0.8415 -1.9937  1.3516
  803SOL     MW 3212   2.256   1.320   1.977  0.2697 -0.0327  0.2569
  804SOL     OW 3213   2.360   3.093   0.059 -0.5564  0.1484  0.4918
  804SOL    HW1 3214   2.279   3.155   0.034  1.2697  2.3472 -0.3458
  804SOL    HW2 3215   2.439   3.131   0.019 -0.5841  0.1742 -1.6820
  804SOL     MW 3216   2.360   3.106   0.051 -0.3191  0.4419  0.0944
  805SOL     OW 3217   2.792   1.034   2.635 -0.0135  0.1855  0.0446
  805SOL    HW1 3218   2.711   0.978   2.627 -0.6892 -0.8748  1.1319
  805SOL    HW2 3219   2.869   0.974   2.637 -0.9605 -0.2299 -0.5294
  805SOL     MW 3220   2.791   1.019   2.635 -0.2276 -0.0092  0.1123
  806SOL     OW 3221   2.671   0.330   2.191  0.5769 -0.2304  0.1269
  806SOL    HW1 3222   2.600   0.309   2.256 -0.0296  0.1332 -0.0260
  806SOL    HW2 3223   2.642   0.417   2.160  0.9950  3.9690 -0.8944
  806SOL     MW 3224   2.658   0.339   2.195  0.5521  0.3716 -0.0280
  807SOL     OW 3225   0.053   1.082   2.117 -0.2335 -0.2819 -0.1893
  807SOL    HW1 3226   0.060   1.006   2.058 -3.0939  0.3813 -1.4095
  807SOL    HW2 3227  -0.030   1.066   2.168 -0.4392  0.6431  3.0705
  807SOL     MW 3228   0.043   1.070   2.116 -0.6380 -0.0723  0.0798
  808SOL     OW 3229   2.654   3.024   2.739  0.0156 -1.0736 -0.9331
  808SOL    HW1 3230   2.613   2.937   2.728 -1.3255 -1.0459 -0.4093
  808SOL    HW2 3231   2.603   3.089   2.687 -2.3898 -1.2620 -0.0295
  808SOL     MW 3232   2.642   3.021   2.731 -0.4787 -1.0948 -0.7447
  809SOL     OW 3233   2.553   1.245   2.410  0.1673  0.3254 -0.0938
  809SOL    HW1 3234   2.559   1.239   2.502 -3.0171  0.2836  0.6941
  809SOL    HW2 3235   2.641   1.259   2.375  2.5021 -1.5430  1.1169
  809SOL     MW 3236   2.565   1.246   2.417  0.0552  0.0734  0.1699
  810SOL     OW 3237   2.200   1.235   2.252 -0.0791 -0.1447  0.0221
  810SOL    HW1 3238   2.269   1.162   2.273  0.3886 -2.1569 -0.7157
  810SOL    HW2 3239   2.128   1.214   2.314  1.3219 -2.2748  0.0425
  810SOL     MW 3240   2.200   1.223   2.263  0.1674 -0.6912 -0.0725
  811SOL     OW 3241   1.486   0.058   2.260  0.0498 -0.1284  0.8532
  811SOL    HW1 3242   1.567   0.036   2.303 -1.8008  2.3708  1.5036
  811SOL    HW2 3243   1.490   0.058   2.163  0.6687  0.6728 -2.6404
  811SOL     MW 3244   1.497   0.055   2.253 -0.1127  0.3070  0.4781
  812SOL     OW 3245   1.486   2.734   2.104 -0.1709 -0.3315  0.1132
  812SOL    HW1 3246   1.580   2.746   2.099  1.2753  0.8095  0.0407
  812SOL    HW2 3247   1.464   2.705   2.191 -1.1982 -1.7968 -1.0876
  812SOL     MW 3248   1.495   2.732   2.115 -0.1156 -0.3743 -0.0548
  813SOL     OW 3249   1.844   0.723   2.161 -0.2038  0.3961  1.0617
  813SOL    HW1 3250   1.779   0.649   2.166 -1.4116 -1.2598 -0.1139
  813SOL    HW2 3251   1.892   0.737   2.245  1.8020  0.0664 -0.9882
  813SOL     MW 3252   1.842   0.715   2.172 -0.0985  0.1341  0.6362
  814SOL     OW 3253   2.806   1.175   1.663 -0.4195  0.2340  0.4435
  814SOL    HW1 3254   2.714   1.168   1.692 -0.2873 -0.1230 -0.2262
  814SOL    HW2 3255   2.795   1.170   1.573 -1.0036 -0.1696  0.9871
  814SOL     MW 3256   2.793   1.173   1.655 -0.4791  0.1336  0.4268
  815SOL     OW 3257   2.490   1.670   2.366 -0.3281 -0.4056  0.3060
  815SOL    HW1 3258   2.421   1.598   2.357 -0.9133  3.5136  1.4695
  815SOL    HW2 3259   2.581   1.628   2.373  3.7482 -0.4786 -2.1655
  815SOL     MW 3260   2.493   1.655   2.366  0.1325  0.1018  0.1334
  816SOL     OW 3261   0.705   0.725   2.772  0.4502  0.0719  0.1604
  816SOL    HW1 3262   0.751   0.650   2.817  0.1760 -2.8186 -0.4189
  816SOL    HW2 3263   0.686   0.680   2.686 -1.3873  1.0438  1.2099
  816SOL     MW 3264   0.708   0.710   2.766  0.1716 -0.1812  0.2224
  817SOL     OW 3265   0.017   1.188   1.338  0.5524 -0.1177  0.4855
  817SOL    HW1 3266   0.082   1.182   1.405  0.9067 -1.0065 -2.1610
  817SOL    HW2 3267  -0.042   1.268   1.352 -0.4335  1.8784  0.1716
  817SOL     MW 3268   0.018   1.198   1.349  0.4691  0.0284  0.0949
  818SOL     OW 3269   1.918   1.023   2.663 -0.0165 -0.1054 -0.1967
  818SOL    HW1 3270   1.952   1.078   2.587  2.4857  0.9356 -0.4210
  818SOL    HW2 3271   1.983   0.951   2.674  0.6964 -0.8308 -0.1250
  818SOL     MW 3272   1.931   1.021   2.654  0.4077 -0.0637 -0.2169
  819SOL     OW 3273   1.977   0.175   2.326  0.4946 -0.3372  0.0852
  819SOL    HW1 3274   2.067   0.143   2.302 -0.5503  0.6262 -1.0462
  819SOL    HW2 3275   1.984   0.178   2.423 -0.9806  1.3348 -0.8369
  819SOL     MW 3276   1.990   0.171   2.336  0.1621  0.0105 -0.1858
  820SOL     OW 3277   2.472   1.740   2.633 -0.2283 -0.1413  0.0344
  820SOL    HW1 3278   2.499   1.658   2.678  0.2622 -0.4556 -2.0071
  820SOL    HW2 3279   2.483   1.717   2.540  1.4190  1.1920  0.3976
  820SOL     MW 3280   2.477   1.726   2.627  0.0537 -0.0068 -0.1870
  821SOL     OW 3281   2.531   1.319   2.001  0.5032 -0.2936 -0.2027
  821SOL    HW1 3282   2.580   1.389   1.958  0.5859  0.6411 -1.5401
  821SOL    HW2 3283   2.434   1.330   1.973  0.0606 -0.2266 -0.0157
  821SOL     MW 3284   2.524   1.330   1.992  0.4557 -0.1614 -0.3545
  822SOL     OW 3285   2.891   2.629   1.424 -0.6493  0.4483 -0.2835
  822SOL    HW1 3286   2.806   2.661   1.399  1.5148 -1.4059 -0.7930
  822SOL    HW2 3287   2.923   2.693   1.482  0.3037 -1.5315  0.7146
  822SOL     MW 3288   2.884   2.642   1.429 -0.2380 -0.0576 -0.2190
  823SOL     OW 3289   2.363   0.467   1.826 -0.1929 -0.5766  0.0780
  823SOL    HW1 3290   2.431   0.426   1.770  1.2923  0.0242 -0.6633
  823SOL    HW2 3291   2.291   0.403   1.825  0.6874  2.0019 -0.0814
  823SOL     MW 3292   2.362   0.453   1.818  0.1192 -0.1571 -0.0408
  824SOL     OW 3293   2.154   1.367   2.562  1.0441  0.2388 -0.0709
  824SOL    HW1 3294   2.211   1.413   2.498 -2.4896  1.4175  2.3744
  824SOL    HW2 3295   2.122   1.446   2.609  2.6227  1.4767 -1.4251
  824SOL     MW 3296   2.157   1.383   2.560  0.7861  0.5576  0.0730
  825SOL     OW 3297   2.083   2.335   0.355 -0.0138  0.6018 -0.5825
  825SOL    HW1 3298   2.111   2.360   0.270  0.7799  1.8080 -0.8497
  825SOL    HW2 3299   2.163   2.311   0.401  1.0913 -0.7678  0.6208
  825SOL     MW 3300   2.097   2.335   0.350  0.2367  0.5803 -0.4590
  826SOL     OW 3301   1.839   2.438   0.460  0.3006 -0.3065  0.1855
  826SOL    HW1 3302   1.824   2.383   0.535  0.6144 -0.1811  0.3330
  826SOL    HW2 3303   1.934   2.458   0.451  2.5776 -2.4391 -0.6205
  826SOL     MW 3304   1.849   2.434   0.469  0.6424 -0.5713  0.0986
  827SOL     OW 3305   1.869   2.244   0.907 -0.3679  0.1321  0.3932
  827SOL    HW1 3306   1.798   2.269   0.847  1.0832  1.0940  0.1126
  827SOL    HW2 3307   1.837   2.156   0.939 -2.5428  0.8159 -0.3935
  827SOL     MW 3308   1.856   2.236   0.903 -0.4634  0.3492  0.2524
  828SOL     OW 3309   0.053   2.682   0.528  0.0137  0.4225  0.5375
  828SOL    HW1 3310   0.132   2.700   0.579 -0.3140 -1.0931 -0.2474
  828SOL    HW2 3311   0.068   2.724   0.445 -1.5153 -0.1867  0.6772
  828SOL     MW 3312   0.066   2.690   0.524 -0.2313  0.1421  0.4523
  829SOL     OW 3313   2.919   2.902   1.133 -0.5972  0.0653 -0.2030
  829SOL    HW1 3314   2.836   2.882   1.085  2.8027 -0.2628 -0.3809
  829SOL    HW2 3315   2.972   2.820   1.125 -1.7346  2.0234  0.4303
  829SOL     MW 3316   2.915   2.889   1.126 -0.2987  0.2804 -0.1429
  830SOL     OW 3317   2.518   2.884   2.013  0.4273  0.6299  0.1164
  830SOL    HW1 3318   2.430   2.884   1.961 -0.5916 -0.4025 -0.2973
  830SOL    HW2 3319   2.589   2.851   1.951 -0.0179 -0.0406 -2.6650
  830SOL     MW 3320   2.516   2.880   1.998  0.2341  0.4052 -0.3052
  831SOL     OW 3321   2.446   2.389   1.190  0.0749 -0.4647  0.3316
  831SOL    HW1 3322   2.430   2.327   1.260 -1.5776  1.7396  4.8252
  831SOL    HW2 3323   2.535   2.364   1.172 -0.2687  0.5563 -1.7201
  831SOL     MW 3324   2.456   2.378   1.197 -0.1885 -0.0391  0.6538
  832SOL     OW 3325   2.413   2.122   1.875  0.2005 -0.2738 -0.7579
  832SOL    HW1 3326   2.444   2.207   1.913  1.7101 -1.6194  0.8877
  832SOL    HW2 3327   2.494   2.092   1.833  3.8716 -1.2203  0.1200
  832SOL     MW 3328   2.428   2.129   1.874  0.8840 -0.5762 -0.4250
  833SOL     OW 3329   1.625   2.512   0.844  0.1120  0.7447  0.2804
  833SOL    HW1 3330   1.586   2.490   0.931  1.5870  0.2469 -1.5504
  833SOL    HW2 3331   1.561   2.574   0.812  0.8921  0.6168 -0.8662
  833SOL     MW 3332   1.612   2.517   0.851  0.4095  0.6621 -0.1125
  834SOL     OW 3333   2.240   2.432   0.619  0.4703  0.2837  0.1312
  834SOL    HW1 3334   2.183   2.371   0.668 -0.4858  1.1006 -0.2820
  834SOL    HW2 3335   2.323   2.451   0.684  1.0385  0.1690 -1.6835
  834SOL     MW 3336   2.244   2.427   0.634  0.4191  0.3764 -0.1628
  835SOL     OW 3337   1.882   2.621   0.709  0.4770 -0.0632  0.1067
  835SOL    HW1 3338   1.814   2.557   0.748 -1.7693 -2.6167  2.0141
  835SOL    HW2 3339   1.963   2.593   0.744 -2.8820 -2.1339 -2.1514
  835SOL     MW 3340   1.884   2.609   0.719 -0.2626 -0.6733  0.0604
  836SOL     OW 3341   2.071   2.083   1.829 -0.1017  0.2964  0.4440
  836SOL    HW1 3342   2.137   2.016   1.844  1.1316  1.6365 -1.7246
  836SOL    HW2 3343   2.126   2.162   1.816  1.7450 -0.0110  0.6157
  836SOL     MW 3344   2.087   2.084   1.829  0.3047  0.4326  0.1805
  837SOL     OW 3345   2.088   0.189   0.628  0.4226  0.1636 -0.5458
  837SOL    HW1 3346   2.032   0.219   0.557  1.6624  0.3381 -2.5332
  837SOL    HW2 3347   2.131   0.113   0.591 -2.9396 -0.2279  0.2461
  837SOL     MW 3348   2.086   0.183   0.614  0.1426  0.1350 -0.7035
  838SOL     OW 3349   2.910   2.060   0.963 -1.2173  0.1277  0.5371
  838SOL    HW1 3350   2.837   1.996   0.960  1.4100  0.8384 -2.3269
  838SOL    HW2 3351   2.960   2.041   1.045  0.5808  0.5532  0.0366
  838SOL     MW 3352   2.907   2.049   0.973 -0.6334  0.2776  0.0932
  839SOL     OW 3353   1.553   2.453   1.092  0.8645  0.3619 -0.0617
  839SOL    HW1 3354   1.544   2.515   1.170  0.9915 -1.2801 -1.1922
  839SOL    HW2 3355   1.588   2.371   1.127  1.2310 -4.7068  2.0310
  839SOL     MW 3356   1.557   2.451   1.107  0.9297 -0.5235  0.0653
  840SOL     OW 3357   2.358   2.091   2.322 -0.0210 -0.5115 -0.0683
  840SOL    HW1 3358   2.327   2.173   2.273  0.0287  0.9509 -1.3166
  840SOL    HW2 3359   2.406   2.133   2.397 -1.5542  1.9562 -1.2214
  840SOL     MW 3360   2.360   2.107   2.325 -0.2167  0.0070 -0.3852
  841SOL     OW 3361   2.207   2.330   0.103 -0.6634 -0.1263  0.2249
  841SOL    HW1 3362   2.240   2.381   0.028 -1.1397  1.4382 -1.1511
  841SOL    HW2 3363   2.139   2.274   0.059 -1.9527  1.1010 -0.1926
  841SOL     MW 3364   2.202   2.330   0.087 -0.8963  0.2421 -0.0117
  842SOL     OW 3365   2.702   1.969   1.486  0.3154  0.3274 -0.2950
  842SOL    HW1 3366   2.638   1.899   1.496  1.5355 -0.3356 -0.5061
  842SOL    HW2 3367   2.699   2.009   1.398  0.8846  0.4326 -1.6340
  842SOL     MW 3368   2.693   1.965   1.475  0.5514  0.2538 -0.4995
  843SOL     OW 3369   2.741   2.746   1.822  0.3954 -0.3488 -0.0413
  843SOL    HW1 3370   2.805   2.706   1.880  2.1832  0.5713  2.6952
  843SOL    HW2 3371   2.693   2.670   1.786  1.5405  2.0202  1.7751
  843SOL     MW 3372   2.743   2.731   1.825  0.7823  0.0851  0.5594
  844SOL     OW 3373   2.710   2.360   1.134  0.3521  0.1607  0.1063
  844SOL    HW1 3374   2.714   2.374   1.036  0.3824 -0.1583  0.0598
  844SOL    HW2 3375   2.792   2.381   1.170  2.8823 -1.3057  0.1311
  844SOL     MW 3376   2.721   2.365   1.126  0.6900 -0.0749  0.1035
  845SOL     OW 3377   2.819   2.620   0.239  0.1460  0.2159 -0.4571
  845SOL    HW1 3378   2.809   2.557   0.317 -3.7485 -1.2873  1.3361
  845SOL    HW2 3379   2.833   2.706   0.281  2.1362  2.5569 -0.4803
  845SOL     MW 3380   2.819   2.623   0.255 -0.1053  0.3264 -0.2236
  846SOL     OW 3381   1.483   2.746   0.776  0.5647 -0.1765 -0.1632
  846SOL    HW1 3382   1.527   2.825   0.747  0.0194 -0.6851 -1.8796
  846SOL    HW2 3383   1.388   2.762   0.768  1.8440  0.7278 -1.4437
  846SOL     MW 3384   1.476   2.759   0.771  0.6615 -0.1243 -0.5586
  847SOL     OW 3385   2.424   1.829   0.227  0.0057  0.2760 -0.1260
  847SOL    HW1 3386   2.411   1.734   0.249 -1.4362 -2.9301  3.2144
  847SOL    HW2 3387   2.395   1.845   0.131  0.2688 -0.0433 -2.9238
  847SOL     MW 3388   2.418   1.819   0.217 -0.1499 -0.1892 -0.0544
  848SOL     OW 3389   2.709   2.106   1.237 -0.5219 -0.5156  0.4624
  848SOL    HW1 3390   2.683   2.136   1.147 -2.5747 -0.1711  0.1571
  848SOL    HW2 3391   2.798   2.070   1.230  0.6795 -1.0828 -1.5398
  848SOL     MW 3392   2.717   2.105   1.224 -0.6343 -0.5450  0.1580
  849SOL     OW 3393   1.875   2.857   0.841  0.3533  0.2554  0.2384
  849SOL    HW1 3394   1.836   2.843   0.931  1.1170 -0.9517  1.6022
  849SOL    HW2 3395   1.887   2.764   0.802  3.1067 -1.1107  1.5686
  849SOL     MW 3396   1.871   2.843   0.847  0.8173 -0.0841  0.5939
  850SOL     OW 3397   2.333   1.912   1.624  0.3882 -0.3328  0.1504
  850SOL    HW1 3398   2.262   1.887   1.562  1.5281 -0.8939 -1.2081
  850SOL    HW2 3399   2.338   2.008   1.618 -0.1402  0.1183  1.6007
  850SOL     MW 3400   2.324   1.921   1.615  0.4689 -0.3473  0.1625
  851SOL     OW 3401   2.565   2.230   0.367 -0.6887 -0.0964 -0.3909
  851SOL    HW1 3402   2.582   2.219   0.275 -0.0680  0.2794 -1.0741
  851SOL    HW2 3403   2.515   2.306   0.386 -1.5145 -2.1450 -2.7992
  851SOL     MW 3404   2.561   2.238   0.357 -0.7158 -0.3171 -0.7988
  852SOL     OW 3405   2.347   2.061   0.386 -0.1768  0.2631 -0.4531
  852SOL    HW1 3406   2.415   2.129   0.369  1.8477  0.3877  1.2294
  852SOL    HW2 3407   2.377   1.984   0.334 -0.9949  2.4022 -2.2045
  852SOL     MW 3408   2.360   2.060   0.377 -0.0176  0.5617 -0.4622
  853SOL     OW 3409   2.516   2.396   1.929  0.4103  0.3144  0.0454
  853SOL    HW1 3410   2.531   2.446   1.848 -1.2747 -0.0738 -1.9439
  853SOL    HW2 3411   2.606   2.387   1.964  1.8317 -0.3384 -0.4693
  853SOL     MW 3412   2.530   2.401   1.923  0.3755  0.1771 -0.2850
  854SOL     OW 3413   2.894   2.287   0.747  0.0730 -0.0304  0.3679
  854SOL    HW1 3414   2.807   2.248   0.722  1.4803  0.9141 -0.0264
  854SOL    HW2 3415   2.921   2.231   0.820  0.8650  0.2340 -3.0758
  854SOL     MW 3416   2.886   2.274   0.753  0.3631  0.1291 -0.1385
  855SOL     OW 3417   2.824   2.371   0.406  0.0931 -0.5339 -0.3803
  855SOL    HW1 3418   2.756   2.306   0.412  0.5745 -0.7807  0.5206
  855SOL    HW2 3419   2.904   2.321   0.414  0.7654 -0.1259  1.7012
  855SOL     MW 3420   2.825   2.355   0.408  0.2453 -0.5126  0.0132
  856SOL     OW 3421   2.055   1.829   0.244 -0.4331  0.0712 -0.0909
  856SOL    HW1 3422   1.962   1.812   0.227  1.3134 -1.8307 -2.2096
  856SOL    HW2 3423   2.047   1.913   0.288  0.5856  0.0593 -0.7032
  856SOL     MW 3424   2.042   1.838   0.248 -0.0682 -0.1813 -0.4513
  857SOL     OW 3425   2.459   1.960   0.619 -0.1672 -0.5962  0.8640
  857SOL    HW1 3426   2.430   1.996   0.539  0.1327 -2.3116  1.3050
  857SOL    HW2 3427   2.377   1.967   0.672 -3.9716  2.3473 -0.8099
  857SOL     MW 3428   2.444   1.966   0.616 -0.6296 -0.4342  0.7013
  858SOL     OW 3429   2.979   2.675   1.928 -0.1166 -0.4719  0.0586
  858SOL    HW1 3430   3.011   2.766   1.908  2.2426  0.7863  1.8281
  858SOL    HW2 3431   2.979   2.622   1.849  0.5672 -0.0053  2.2209
  858SOL     MW 3432   2.983   2.680   1.915  0.2849 -0.2444  0.5773
  859SOL     OW 3433   1.768   2.661   1.051 -0.3860  0.4200  0.1505
  859SOL    HW1 3434   1.714   2.593   1.002 -0.2487 -1.7344 -1.9000
  859SOL    HW2 3435   1.834   2.610   1.094  2.6441  0.5322  2.6370
  859SOL     MW 3436   1.770   2.645   1.050  0.0319  0.1506  0.2081
  860SOL     OW 3437   2.643   2.554   0.034  0.0154  0.0557 -0.3329
  860SOL    HW1 3438   2.725   2.578   0.072 -0.6010 -1.1057 -2.5129
  860SOL    HW2 3439   2.645   2.608  -0.039 -2.2201 -1.1993  0.3204
  860SOL     MW 3440   2.654   2.564   0.029 -0.3609 -0.2631 -0.5343
  861SOL     OW 3441   1.560   2.188   1.161 -0.0420 -0.6040 -0.0488
  861SOL    HW1 3442   1.593   2.240   1.239 -1.3429  0.6194  0.0460
  861SOL    HW2 3443   1.491   2.132   1.192  0.7324 -0.2522  0.5559
  861SOL     MW 3444   1.556   2.187   1.176 -0.1114 -0.3961  0.0435
  862SOL     OW 3445   2.511   1.765   1.445 -0.2098  0.0032 -0.2189
  862SOL    HW1 3446   2.454   1.842   1.475  0.4846 -0.1876  1.6309
  862SOL    HW2 3447   2.479   1.732   1.361  0.9658  0.6380  0.1594
  862SOL     MW 3448   2.499   1.771   1.438  0.0369  0.0618  0.0751
  863SOL     OW 3449   2.884   1.647   0.966 -0.0330  0.3654 -0.1648
  863SOL    HW1 3450   2.851   1.704   1.033 -0.7399  2.4901 -1.3317
  863SOL    HW2 3451   2.831   1.667   0.891 -0.2661 -0.7382  1.3541
  863SOL     MW 3452   2.872   1.657   0.965 -0.1571  0.5001 -0.1184
  864SOL     OW 3453   3.062   1.773   0.799  0.3555 -0.1785  0.3800
  864SOL    HW1 3454   3.012   1.732   0.869  1.1279 -1.7780 -0.1225
  864SOL    HW2 3455   3.012   1.742   0.725  1.2397 -0.8442  1.5506
  864SOL     MW 3456   3.049   1.764   0.799  0.5741 -0.4774  0.4682
  865SOL     OW 3457   2.433   2.184   0.109 -0.4284  0.5513  0.0066
  865SOL    HW1 3458   2.391   2.111   0.065 -1.3470  0.4366  0.5463
  865SOL    HW2 3459   2.350   2.228   0.133 -1.9414  1.3675  0.0249
  865SOL     MW 3460   2.416   2.181   0.106 -0.7492  0.6439  0.0803
  866SOL     OW 3461   2.716   2.334   1.543 -0.0027  0.5531  0.3660
  866SOL    HW1 3462   2.723   2.255   1.596 -0.5553 -2.8279  2.6250
  866SOL    HW2 3463   2.790   2.322   1.476  1.5652 -0.9054  0.6236
  866SOL     MW 3464   2.727   2.322   1.541  0.1312 -0.0854  0.6980
  867SOL     OW 3465   0.115   2.718   1.701 -0.1329  0.0075  0.4130
  867SOL    HW1 3466   0.105   2.755   1.785 -0.7261 -0.1877  0.1849
  867SOL    HW2 3467   0.050   2.754   1.640 -2.9242 -0.0851  2.4776
  867SOL     MW 3468   0.105   2.728   1.704 -0.5794 -0.0305  0.6553
  868SOL     OW 3469   2.733   2.579   0.570 -0.1018 -0.1658  0.4285
  868SOL    HW1 3470   2.742   2.504   0.514 -1.1942 -1.5914 -0.0325
  868SOL    HW2 3471   2.652   2.619   0.547 -0.5782  0.7463  1.1975
  868SOL     MW 3472   2.724   2.575   0.560 -0.3088 -0.2336  0.4692
  869SOL     OW 3473   1.964   2.443   1.076  0.1317 -0.7464  0.3399
  869SOL    HW1 3474   2.037   2.483   1.027  3.4265 -0.2966  2.2351
  869SOL    HW2 3475   1.945   2.364   1.028  3.3561 -0.6947 -1.1368
  869SOL     MW 3476   1.971   2.438   1.063  0.9918 -0.6803  0.3951
  870SOL     OW 3477   2.187   3.090   0.461  0.7054  0.3511  0.2900
  870SOL    HW1 3478   2.257   3.122   0.409  2.6219 -0.5167  0.6462
  870SOL    HW2 3479   2.216   2.999   0.477  0.7526  3.2545  0.6364
  870SOL     MW 3480   2.200   3.082   0.456  0.9645  0.6197  0.3827
  871SOL     OW 3481   2.490   2.066   0.913 -0.0207  0.4837 -0.1615
  871SOL    HW1 3482   2.415   2.032   0.864  3.4261  0.9898  0.9388
  871SOL    HW2 3483   2.444   2.149   0.931  1.6075 -2.3175 -1.0590
  871SOL     MW 3484   2.474   2.072   0.909  0.6489  0.1809 -0.1348
  872SOL     OW 3485   2.096   2.486   1.617 -0.0840  0.3471 -0.1766
  872SOL    HW1 3486   2.025   2.544   1.646  0.4022  0.9641  0.1005
  872SOL    HW2 3487   2.051   2.404   1.590 -0.6279  0.7593 -0.5828
  872SOL     MW 3488   2.080   2.483   1.617 -0.0916  0.4829 -0.1936
  873SOL     OW 3489   2.881   2.108   1.833  0.3645  0.2861  0.0182
  873SOL    HW1 3490   2.872   2.153   1.917  1.0840 -0.9771 -0.0268
  873SOL    HW2 3491   2.952   2.145   1.783  1.2557  0.2925 -0.9680
  873SOL     MW 3492   2.890   2.119   1.838  0.5770  0.1203 -0.1179
  874SOL     OW 3493   2.344   1.452   2.396  0.1666  0.1598  0.3838
  874SOL    HW1 3494   2.281   1.407   2.327 -0.3315  1.7905  1.2162
  874SOL    HW2 3495   2.421   1.394   2.399 -2.3950  1.2532 -0.9516
  874SOL     MW 3496   2.345   1.439   2.387 -0.2371  0.5192  0.3174
  875SOL     OW 3497   2.311   2.275   0.981 -0.4048 -0.4329 -0.4372
  875SOL    HW1 3498   2.339   2.336   0.913  0.5216 -0.5394  0.1684
  875SOL    HW2 3499   2.356   2.312   1.057 -1.7021  0.0835 -3.3585
  875SOL     MW 3500   2.321   2.288   0.982 -0.4538 -0.3788 -0.7427
  876SOL     OW 3501   0.043   2.193   1.285  0.0307 -0.1819 -0.0152
  876SOL    HW1 3502   0.097   2.257   1.232 -1.4089  2.8097 -0.9749
  876SOL    HW2 3503   0.089   2.174   1.365 -0.3516  1.0240 -1.8636
  876SOL     MW 3504   0.056   2.199   1.289 -0.2097  0.3719 -0.3857
  877SOL     OW 3505   0.084   2.797   0.268 -0.0011 -0.3404  0.0699
  877SOL    HW1 3506   0.158   2.848   0.235 -2.6093 -2.4319 -0.0700
  877SOL    HW2 3507   0.048   2.743   0.199 -0.2743  2.5002  1.5343
  877SOL     MW 3508   0.089   2.797   0.254 -0.3813 -0.2415  0.2446
  878SOL     OW 3509   2.268   1.756   1.170 -0.2148  0.2965  0.6707
  878SOL    HW1 3510   2.178   1.741   1.209  2.0186  1.5572 -2.5028
  878SOL    HW2 3511   2.313   1.685   1.124  0.9978 -0.3394 -1.4257
  878SOL     MW 3512   2.262   1.745   1.169  0.2399  0.3790 -0.0246
  879SOL     OW 3513   2.684   2.453   0.871  0.0339 -0.3804  0.2609
  879SOL    HW1 3514   2.742   2.524   0.910  0.5395 -1.3094  0.7005
  879SOL    HW2 3515   2.745   2.416   0.806  2.4790  0.9422  0.6216
  879SOL     MW 3516   2.700   2.458   0.867  0.4232 -0.3284  0.3665
  880SOL     OW 3517   2.646   2.173   0.679  0.7542  0.1561 -0.9813
  880SOL    HW1 3518   2.594   2.106   0.733  0.3311 -2.1231  3.0184
  880SOL    HW2 3519   2.583   2.195   0.617 -0.0132 -0.6663  0.1612
  880SOL     MW 3520   2.631   2.167   0.678  0.5971 -0.2531 -0.3029
  881SOL     OW 3521   2.934   2.674   0.709 -0.5187 -0.1868 -0.5455
  881SOL    HW1 3522   2.867   2.646   0.647  1.9321  1.6332 -0.0192
  881SOL    HW2 3523   3.015   2.701   0.655  2.5012  1.1557 -1.3477
  881SOL     MW 3524   2.936   2.674   0.694  0.2031  0.2305 -0.5819
  882SOL     OW 3525   2.278   2.899   1.894  0.2665 -0.5000 -0.3653
  882SOL    HW1 3526   2.246   2.883   1.806 -0.0339  1.1537 -1.6713
  882SOL    HW2 3527   2.236   2.831   1.947 -4.0633  0.5520  2.5920
  882SOL     MW 3528   2.268   2.888   1.889 -0.3444 -0.1430 -0.1474
  883SOL     OW 3529   2.426   2.179   1.349  0.0676 -0.1960  0.6507
  883SOL    HW1 3530   2.497   2.141   1.299  0.2355 -1.1536 -1.4522
  883SOL    HW2 3531   2.346   2.152   1.302 -0.5721  0.1569  2.9169
  883SOL     MW 3532   2.425   2.171   1.336  0.0053 -0.2758  0.6723
  884SOL     OW 3533   1.892   1.848   1.035  0.0130  0.3595  0.3480
  884SOL    HW1 3534   1.818   1.913   0.998 -1.6615  2.7328 -0.0781
  884SOL    HW2 3535   1.981   1.884   1.020  0.5108  1.1220  2.2429
  884SOL     MW 3536   1.894   1.862   1.028 -0.1422  0.7732  0.5418
  885SOL     OW 3537   2.910   2.456   1.734  0.2996 -0.2127  0.6442
  885SOL    HW1 3538   2.983   2.406   1.708  0.3690  0.7744 -0.7783
  885SOL    HW2 3539   2.855   2.460   1.655 -0.5325  0.6509 -0.2386
  885SOL     MW 3540   2.913   2.450   1.720  0.1990  0.0315  0.3400
  886SOL     OW 3541   2.925   2.355   1.337  0.3723 -0.2281  0.5148
  886SOL    HW1 3542   3.012   2.327   1.303  0.6402 -0.0751  2.4906
  886SOL    HW2 3543   2.929   2.443   1.372 -0.6340 -3.4400  2.5175
  886SOL     MW 3544   2.937   2.363   1.337  0.2748 -0.6317  1.0397
  887SOL     OW 3545   2.352   2.582   1.553  0.4810 -0.3342  0.0540
  887SOL    HW1 3546   2.363   2.603   1.458  1.1155  0.7979  1.5534
  887SOL    HW2 3547   2.271   2.535   1.560  2.1614 -0.5782 -1.8273
  887SOL     MW 3548   2.343   2.579   1.541  0.7865 -0.2170  0.0036
  888SOL     OW 3549   2.067   2.266   1.462  0.4345 -0.1119  0.0091
  888SOL    HW1 3550   2.093   2.243   1.375 -0.8597 -0.3995 -0.7247
  888SOL    HW2 3551   2.136   2.233   1.511 -0.1519  0.0170 -0.4019
  888SOL     MW 3552   2.080   2.258   1.457  0.1864 -0.1328 -0.1420
  889SOL     OW 3553   2.307   1.943   2.049  0.3358  0.3553 -0.4508
  889SOL    HW1 3554   2.380   1.917   2.106 -0.7958 -2.5391  0.4564
  889SOL    HW2 3555   2.338   2.020   1.994  1.6491 -0.2549  0.8150
  889SOL     MW 3556   2.321   1.950   2.049  0.3598 -0.1071 -0.1641
  890SOL     OW 3557   0.048   2.358   0.094 -0.0558  0.1257 -0.2312
  890SOL    HW1 3558   0.039   2.453   0.095 -0.2720  0.3265  1.3799
  890SOL    HW2 3559   0.069   2.333   0.184  1.1793 -0.5064  0.2193
  890SOL     MW 3560   0.049   2.367   0.106  0.0787  0.0688  0.0408
  891SOL     OW 3561   3.006   1.975   1.213  0.1963  0.6086  0.0893
  891SOL    HW1 3562   3.075   1.912   1.185 -1.0676 -0.0484 -1.0739
  891SOL    HW2 3563   3.070   2.045   1.243 -1.5267  0.4680  0.6517
  891SOL     MW 3564   3.024   1.976   1.214 -0.1978  0.5033  0.0100
  892SOL     OW 3565   2.422   2.346   2.766  0.0285  0.2672  0.5850
  892SOL    HW1 3566   2.425   2.252   2.798 -1.0409 -2.0773  2.2666
  892SOL    HW2 3567   2.505   2.388   2.793 -0.3979  0.2400 -3.6114
  892SOL     MW 3568   2.434   2.339   2.774 -0.1689 -0.0457  0.2532
  893SOL     OW 3569   1.632   2.359   1.376  0.0034 -0.1443 -0.4258
  893SOL    HW1 3570   1.567   2.404   1.432 -1.0380  0.3353  1.8451
  893SOL    HW2 3571   1.712   2.404   1.406 -2.4670  3.2273  0.5608
  893SOL     MW 3572   1.634   2.371   1.388 -0.4600  0.3638  0.0040
  894SOL     OW 3573   2.790   1.982   0.537 -0.0843  0.0624  0.0973
  894SOL    HW1 3574   2.729   2.042   0.588  2.1518 -0.3274 -0.8859
  894SOL    HW2 3575   2.744   1.942   0.459 -3.1840 -1.0503  0.2439
  894SOL     MW 3576   2.776   1.985   0.533 -0.1982 -0.1358 -0.0131
  895SOL     OW 3577   2.161   2.167   1.222 -0.6924 -0.0775  0.2706
  895SOL    HW1 3578   2.184   2.214   1.146  1.5116 -1.2966  0.5036
  895SOL    HW2 3579   2.111   2.092   1.181  0.4081  0.7288  1.4194
  895SOL     MW 3580   2.157   2.163   1.207 -0.2564 -0.1320  0.4529
  896SOL     OW 3581   2.348   2.809   1.084 -0.4434 -0.6774  0.2021
  896SOL    HW1 3582   2.382   2.764   1.164  1.4563  1.5328  0.4784
  896SOL    HW2 3583   2.335   2.899   1.108 -1.6896  0.8760 -2.9095
  896SOL     MW 3584   2.351   2.815   1.098 -0.3572 -0.1808 -0.1720
  897SOL     OW 3585   3.102   3.037   3.015 -0.6771 -0.5957 -0.0454
  897SOL    HW1 3586   3.150   2.954   2.989  0.6712  3.0328 -0.1457
  897SOL    HW2 3587   3.019   3.035   2.971  1.8925 -0.9107  2.6097
  897SOL     MW 3588   3.097   3.026   3.006 -0.1602 -0.1585  0.2917
  898SOL     OW 3589   2.132   0.172   1.414 -0.1504  0.1017 -0.3895
  898SOL    HW1 3590   2.103   0.079   1.438 -0.4201 -0.8687  0.6153
  898SOL    HW2 3591   2.152   0.177   1.317 -0.6514  3.3631  1.1435
  898SOL     MW 3592   2.131   0.160   1.404 -0.2521  0.4040 -0.0546
  899SOL     OW 3593   2.961   2.959   0.622 -0.6694  0.1304 -0.2281
  899SOL    HW1 3594   2.961   2.901   0.693 -0.7187  2.5510 -2.1360
  899SOL    HW2 3595   2.893   3.022   0.649  1.9306 -3.3149 -0.0440
  899SOL     MW 3596   2.952   2.959   0.635 -0.3329 -0.0048 -0.4555
  900SOL     OW 3597   0.137   2.390   1.084  0.1693 -0.2994  0.3405
  900SOL    HW1 3598   0.091   2.475   1.086  1.7247  1.3181 -0.6979
  900SOL    HW2 3599   0.124   2.354   0.996  0.6218 -0.9321  0.5709
  900SOL     MW 3600   0.129   2.396   1.073  0.4342 -0.1695  0.2339
  901SOL     OW 3601   1.761   2.859   1.761 -0.0182 -0.2228 -0.0610
  901SOL    HW1 3602   1.829   2.796   1.749  0.2271 -2.5556 -0.8634
  901SOL    HW2 3603   1.667   2.830   1.745 -0.3926  1.4713  1.2811
  901SOL     MW 3604   1.758   2.846   1.757 -0.0352 -0.3071  0.0102
  902SOL     OW 3605   2.631   2.122   1.717  0.1100  0.8112  0.4277
  902SOL    HW1 3606   2.636   2.070   1.637 -3.5890 -0.0913 -1.8939
  902SOL    HW2 3607   2.719   2.117   1.755  0.4110  0.8009  0.0840
  902SOL     MW 3608   2.643   2.114   1.712 -0.3383  0.6907  0.0760
  903SOL     OW 3609   1.589   2.635   0.532  0.4344 -0.1690 -0.0874
  903SOL    HW1 3610   1.677   2.611   0.558  1.6853 -1.3519 -0.8876
  903SOL    HW2 3611   1.560   2.677   0.617 -1.4089  2.1896  2.8986
  903SOL     MW 3612   1.597   2.638   0.547  0.3562 -0.0139  0.2010
  904SOL     OW 3613   2.592   2.521   1.691  0.3296 -0.1963  0.4860
  904SOL    HW1 3614   2.511   2.533   1.643  0.4272 -0.1655 -3.5608
  904SOL    HW2 3615   2.640   2.471   1.626  1.6067  0.4203  1.1253
  904SOL     MW 3616   2.588   2.516   1.676  0.5110 -0.1109  0.0364
  905SOL     OW 3617   2.314   2.506   2.065 -0.5347 -0.6360  0.2013
  905SOL    HW1 3618   2.390   2.461   2.024 -1.2083 -1.9576  1.4133
  905SOL    HW2 3619   2.291   2.447   2.140 -1.0941  1.7014  2.7182
  905SOL     MW 3620   2.321   2.492   2.069 -0.6974 -0.5020  0.6933
  906SOL     OW 3621   2.434   2.482   0.800 -0.2982  0.2658 -0.6291
  906SOL    HW1 3622   2.533   2.478   0.799  0.6040 -2.1780 -3.7329
  906SOL    HW2 3623   2.413   2.578   0.810  3.2375 -0.1728 -1.6328
  906SOL     MW 3624   2.444   2.494   0.801  0.2873 -0.1145 -1.1710
  907SOL     OW 3625   2.643   2.739   1.319 -0.0713 -0.2765  0.3955
  907SOL    HW1 3626   2.663   2.820   1.355  0.1707 -3.2555 -1.9627
  907SOL    HW2 3627   2.655   2.761   1.228  1.4703  1.7089 -1.1118
  907SOL     MW 3628   2.647   2.753   1.312  0.1640 -0.4076 -0.1145
  908SOL     OW 3629   2.671   2.289   3.073 -0.3590 -0.1942  0.3942
  908SOL    HW1 3630   2.606   2.242   3.109 -0.6639  0.7862  0.5586
  908SOL    HW2 3631   2.660   2.385   3.109 -0.0509  0.6420 -0.9298
  908SOL     MW 3632   2.661   2.296   3.083 -0.3586  0.0454  0.2412
  909SOL     OW 3633   1.712   0.096   1.345  0.3113  0.0624  0.3198
  909SOL    HW1 3634   1.664   0.179   1.347 -2.8582 -0.6024 -0.6275
  909SOL    HW2 3635   1.676   0.046   1.416  0.8122  0.2450 -3.1100
  909SOL     MW 3636   1.701   0.100   1.354 -0.0408 -0.0012 -0.2577
  910SOL     OW 3637   2.158   1.666   0.447 -0.2232  0.5258 -0.6392
  910SOL    HW1 3638   2.075   1.613   0.465 -0.7821  0.0992 -0.2565
  910SOL    HW2 3639   2.133   1.728   0.377 -0.2898 -2.5528  0.9402
  910SOL     MW 3640   2.144   1.667   0.440 -0.3057  0.0633 -0.3803
  911SOL     OW 3641   2.290   2.201   1.613 -1.2896  0.1799 -0.1474
  911SOL    HW1 3642   2.318   2.208   1.706 -2.5955  3.7552  0.5546
  911SOL    HW2 3643   2.367   2.217   1.569  1.4592  0.9225  1.1679
  911SOL     MW 3644   2.303   2.204   1.620 -1.0992  0.7496  0.1188
  912SOL     OW 3645   2.946   1.877   1.455  0.6290  0.0698  0.1483
  912SOL    HW1 3646   2.969   1.910   1.364  2.0803  0.5210 -1.5170
  912SOL    HW2 3647   2.874   1.935   1.489 -1.1765 -0.1222 -2.5598
  912SOL     MW 3648   2.939   1.889   1.448  0.5823  0.1040 -0.4288
  913SOL     OW 3649   2.706   3.052   0.371  0.1064 -0.7102  0.7870
  913SOL    HW1 3650   2.785   2.993   0.366 -0.0485 -1.3394  0.0700
  913SOL    HW2 3651   2.649   3.002   0.312 -0.0307 -2.5362 -2.2970
  913SOL     MW 3652   2.709   3.037   0.363  0.0679 -1.0341  0.2855
  914SOL     OW 3653   2.634   1.792   3.090 -0.3097  0.4247  0.1608
  914SOL    HW1 3654   2.691   1.865   3.070  2.3837 -1.7392  2.5322
  914SOL    HW2 3655   2.551   1.838   3.114 -1.3534 -2.2557 -0.3279
  914SOL     MW 3656   2.631   1.808   3.091 -0.0920 -0.2144  0.4092
  915SOL     OW 3657   1.810   0.117   0.169  0.0593  0.6197 -0.5392
  915SOL    HW1 3658   1.893   0.067   0.196  3.2328  1.4815 -1.0110
  915SOL    HW2 3659   1.742   0.057   0.194 -2.1583  0.8908 -0.7230
  915SOL     MW 3660   1.812   0.103   0.176  0.1854  0.7692 -0.6257
  916SOL     OW 3661   1.780   2.064   1.983 -0.3365 -0.2458  0.5953
  916SOL    HW1 3662   1.821   2.153   1.984  0.2384 -1.4869 -2.6962
  916SOL    HW2 3663   1.813   2.030   1.902  0.5797 -3.2113  0.3867
  916SOL     MW 3664   1.790   2.071   1.973 -0.1398 -0.8008  0.1335
  917SOL     OW 3665   2.491   2.201   2.530 -0.6793 -0.2560  0.1916
  917SOL    HW1 3666   2.466   2.249   2.613  0.6557  2.5986 -0.7327
  917SOL    HW2 3667   2.571   2.243   2.501  3.4296 -1.5593 -2.0372
  917SOL     MW 3668   2.498   2.212   2.537  0.0390 -0.0514 -0.2244
  918SOL     OW 3669   2.009   1.579   2.667 -0.5826 -0.5228 -0.3518
  918SOL    HW1 3670   1.939   1.587   2.600 -0.2293  2.0571  0.4927
  918SOL    HW2 3671   2.073   1.650   2.651 -3.8059 -1.5920 -0.0297
  918SOL     MW 3672   2.008   1.590   2.656 -0.9613 -0.3235 -0.1979
  919SOL     OW 3673   3.046   2.370   2.230  0.4308  0.1359  0.4166
  919SOL    HW1 3674   2.983   2.301   2.214 -0.7947 -0.6111  1.1982
  919SOL    HW2 3675   3.087   2.381   2.144 -0.3135 -2.7400 -1.4862
  919SOL     MW 3676   3.043   2.362   2.216  0.1709 -0.3421  0.2686
  920SOL     OW 3677   2.640   2.852   3.047  0.7073 -0.6410  0.3350
  920SOL    HW1 3678   2.551   2.823   3.036  0.4814  0.3349  1.4106
  920SOL    HW2 3679   2.680   2.797   2.978 -1.9114  0.0715 -0.4252
  920SOL     MW 3680   2.633   2.841   3.037  0.3320 -0.4183  0.3766
  921SOL     OW 3681   2.396   2.590   2.556 -0.0834 -0.3981 -0.1651
  921SOL    HW1 3682   2.481   2.602   2.505  0.3713  3.6260  0.2974
  921SOL    HW2 3683   2.404   2.507   2.606  1.1627 -3.8395 -0.5363
  921SOL     MW 3684   2.408   2.581   2.556  0.1410 -0.3212 -0.1530
  922SOL     OW 3685   2.135   2.644   0.439 -0.0522  0.0371  0.7449
  922SOL    HW1 3686   2.155   2.609   0.353 -1.3462 -0.9011  1.5419
  922SOL    HW2 3687   2.155   2.563   0.496  3.3810 -5.3603 -1.4423
  922SOL     MW 3688   2.140   2.629   0.435  0.2300 -0.7988  0.5615
  923SOL     OW 3689   2.182   2.805   1.653 -0.1540 -0.2230  0.2269
  923SOL    HW1 3690   2.238   2.743   1.597 -0.4206  2.2934 -0.7698
  923SOL    HW2 3691   2.173   2.886   1.602  0.8174 -0.2570  1.5126
  923SOL     MW 3692   2.188   2.807   1.639 -0.0610  0.1046  0.2650
  924SOL     OW 3693   1.086   2.731   2.615  0.2780  0.3419 -0.1503
  924SOL    HW1 3694   1.184   2.728   2.614  0.9356  0.9973  0.0400
  924SOL    HW2 3695   1.057   2.659   2.665 -1.9531  0.5039  2.3074
  924SOL     MW 3696   1.095   2.721   2.622  0.0704  0.4498  0.1991
  925SOL     OW 3697   2.957   0.164   2.636  0.2561  0.3089  0.1492
  925SOL    HW1 3698   2.882   0.148   2.575 -1.1291 -2.0389 -0.5125
  925SOL    HW2 3699   2.938   0.245   2.690 -1.8957 -1.8883 -0.3149
  925SOL     MW 3700   2.945   0.173   2.635 -0.2105 -0.2908  0.0006
  926SOL     OW 3701   2.787   2.437   2.000  0.0110  0.5335  0.7013
  926SOL    HW1 3702   2.824   2.512   2.064 -0.1596  3.1969  1.0888
  926SOL    HW2 3703   2.831   2.452   1.915  0.0720 -0.6507 -0.6825
  926SOL     MW 3704   2.798   2.449   1.997 -0.0034  0.7287  0.5698
  927SOL     OW 3705   2.377   0.120   0.311  0.3265 -0.2058  0.1428
  927SOL    HW1 3706   2.464   0.123   0.344 -1.0587  1.6940  0.7705
  927SOL    HW2 3707   2.383   0.084   0.224 -1.0512  0.3835 -1.5794
  927SOL     MW 3708   2.389   0.115   0.304 -0.0380  0.1226 -0.0016
  928SOL     OW 3709   2.147   2.355   1.852 -0.8890 -0.3871  0.5535
  928SOL    HW1 3710   2.178   2.396   1.772 -0.1127  0.1233  0.4899
  928SOL    HW2 3711   2.192   2.391   1.926  1.0775  4.0400 -2.3286
  928SOL     MW 3712   2.157   2.365   1.851 -0.5271  0.2644  0.1648
  929SOL     OW 3713   2.698   2.354   2.424  0.3228 -0.0680 -0.2433
  929SOL    HW1 3714   2.762   2.304   2.373 -0.6091 -2.2626 -1.4547
  929SOL    HW2 3715   2.745   2.350   2.510  2.2297  1.1163  0.5443
  929SOL     MW 3716   2.713   2.347   2.429  0.4515 -0.2013 -0.2992
  930SOL     OW 3717   2.037   2.829   2.678 -0.4657  0.1974 -0.1311
  930SOL    HW1 3718   2.043   2.744   2.722 -1.2776  1.8790 -1.6766
  930SOL    HW2 3719   2.126   2.858   2.651 -1.2957  0.4443 -1.5377
  930SOL     MW 3720   2.050   2.822   2.680 -0.6824  0.4518 -0.5206
  931SOL     OW 3721   0.024   2.719   2.494 -0.1890 -0.4190  0.0565
  931SOL    HW1 3722   0.011   2.784   2.560 -1.2671  2.2609 -2.3740
  931SOL    HW2 3723   0.099   2.756   2.452 -0.7975 -0.5215  1.6663
  931SOL     MW 3724   0.032   2.732   2.497 -0.4115 -0.0790 -0.0518
  932SOL     OW 3725   2.800   2.006   2.439  0.7999 -0.3300 -0.2171
  932SOL    HW1 3726   2.881   2.036   2.476 -0.9968  0.0648 -0.2858
  932SOL    HW2 3727   2.803   2.005   2.344  3.2677  1.1096  0.0864
  932SOL     MW 3728   2.811   2.010   2.431  0.8885 -0.0880 -0.1861
  933SOL     OW 3729   2.075   2.810   2.258 -0.2757  0.2535  0.0284
  933SOL    HW1 3730   2.162   2.845   2.291 -0.1640  2.8658 -0.2688
  933SOL    HW2 3731   2.033   2.883   2.214 -2.2530 -3.0741  3.0420
  933SOL     MW 3732   2.081   2.825   2.257 -0.5218  0.1591  0.3868
  934SOL     OW 3733   1.984   2.662   2.471 -0.2379  0.3072 -0.2532
  934SOL    HW1 3734   1.998   2.713   2.547 -4.3381  0.3986  1.2398
  934SOL    HW2 3735   2.019   2.713   2.402  1.3329 -2.8554  2.0688
  934SOL     MW 3736   1.990   2.676   2.472 -0.5717 -0.0980  0.2502
  935SOL     OW 3737   2.670   1.526   1.822  0.1827 -0.3573 -0.0055
  935SOL    HW1 3738   2.759   1.489   1.814 -0.4526  1.2354  0.0383
  935SOL    HW2 3739   2.625   1.502   1.740  1.5096  0.4721  1.3132
  935SOL     MW 3740   2.676   1.518   1.810  0.2739 -0.0377  0.1742
  936SOL     OW 3741   2.931   2.188   3.089  0.2955 -0.0693 -0.9053
  936SOL    HW1 3742   2.978   2.262   3.121  0.5402 -6.4013  0.2328
  936SOL    HW2 3743   2.837   2.210   3.080 -1.1662 -0.0344 -1.2201
  936SOL     MW 3744   2.925   2.201   3.092  0.1349 -0.9001 -0.7967
  937SOL     OW 3745   1.927   2.110   2.625 -0.3006 -0.2313  0.2732
  937SOL    HW1 3746   1.989   2.047   2.664 -2.3355 -1.5696 -0.4167
  937SOL    HW2 3747   1.942   2.111   2.532 -2.5003  1.7807  0.5026
  937SOL     MW 3748   1.937   2.102   2.618 -0.8593 -0.1424  0.2125
  938SOL     OW 3749   2.206   1.795   1.836 -0.1223 -0.0502  0.2366
  938SOL    HW1 3750   2.273   1.825   1.781 -1.0140 -0.8106 -0.5932
  938SOL    HW2 3751   2.228   1.846   1.919 -0.3216 -2.7810 -2.5099
  938SOL     MW 3752   2.218   1.806   1.839 -0.2662 -0.5108 -0.2353
  939SOL     OW 3753   2.744   2.010   2.074 -0.5732  0.0199 -0.4879
  939SOL    HW1 3754   2.791   1.935   2.032 -1.4356 -1.8134  1.7240
  939SOL    HW2 3755   2.677   1.972   2.129 -1.9322  0.7432  0.1468
  939SOL     MW 3756   2.741   1.995   2.076 -0.8663 -0.1266 -0.1123
  940SOL     OW 3757   2.213   0.082   2.779  0.2028 -0.3377 -0.0282
  940SOL    HW1 3758   2.225  -0.007   2.744 -3.2063  3.5916 -0.8064
  940SOL    HW2 3759   2.291   0.112   2.826  1.8957 -0.4161 -1.1770
  940SOL     MW 3760   2.225   0.074   2.780 -0.0236  0.1704 -0.2825
  941SOL     OW 3761   0.096   2.384   1.998  0.2989 -0.7271 -0.2777
  941SOL    HW1 3762   0.180   2.342   2.027 -1.6495  0.0183 -1.3036
  941SOL    HW2 3763   0.114   2.405   1.902 -0.7417 -2.3788 -3.4163
  941SOL     MW 3764   0.109   2.381   1.989 -0.0955 -0.8467 -0.8272
  942SOL     OW 3765   2.832   2.236   2.182  0.2101  0.0025  0.1497
  942SOL    HW1 3766   2.819   2.314   2.115 -2.0916 -1.9203  0.4521
  942SOL    HW2 3767   2.786   2.152   2.143  0.8757  0.7720 -2.3606
  942SOL     MW 3768   2.824   2.235   2.168 -0.0058 -0.1497 -0.1416
  943SOL     OW 3769   0.346   2.190   2.288 -0.3025 -0.4187  0.7486
  943SOL    HW1 3770   0.262   2.195   2.338 -1.6055 -1.1486  0.7767
  943SOL    HW2 3771   0.419   2.169   2.347 -0.0069  0.2522  0.4023
  943SOL     MW 3772   0.344   2.188   2.302 -0.4354 -0.4265  0.7066
  944SOL     OW 3773   2.110   2.672   1.987 -0.5572  0.4544  0.0546
  944SOL    HW1 3774   2.185   2.613   2.002  1.3761  0.0369  3.0631
  944SOL    HW2 3775   2.080   2.691   2.071  0.7538  0.5888 -2.4729
  944SOL     MW 3776   2.116   2.666   2.000 -0.1292  0.4170  0.1180
  945SOL     OW 3777   2.744   2.663   2.874  0.3783  0.3984  0.1579
  945SOL    HW1 3778   2.711   2.567   2.861 -3.9170 -4.2183 -0.2017
  945SOL    HW2 3779   2.753   2.694   2.782 -0.3994 -0.8044 -0.9199
  945SOL     MW 3780   2.741   2.655   2.860 -0.2911 -0.3694 -0.0317
  946SOL     OW 3781   2.464   2.696   2.211 -0.3603  0.1678 -0.3382
  946SOL    HW1 3782   2.503   2.760   2.140 -1.1763 -1.4092  0.5389
  946SOL    HW2 3783   2.417   2.622   2.157 -0.0993  1.4348  1.2507
  946SOL     MW 3784   2.463   2.695   2.195 -0.4335  0.1269 -0.0129
  947SOL     OW 3785   2.047   3.053   0.253  0.6102 -0.3181  0.3574
  947SOL    HW1 3786   2.110   2.992   0.229 -1.2549  0.2775 -0.9261
  947SOL    HW2 3787   2.071   3.063   0.345 -2.8984  1.5494  0.1792
  947SOL     MW 3788   2.059   3.046   0.262 -0.0988  0.0069  0.1645
  948SOL     OW 3789   1.841   3.026   2.630  0.5142 -0.0325  0.0683
  948SOL    HW1 3790   1.906   2.955   2.634  0.4477  1.1171 -0.1470
  948SOL    HW2 3791   1.809   3.011   2.540  0.3530  0.8820 -0.4985
  948SOL     MW 3792   1.845   3.014   2.618  0.4841  0.2399 -0.0349
  949SOL     OW 3793   2.539   1.887   2.215 -0.0535  0.5802  0.1488
  949SOL    HW1 3794   2.518   1.806   2.268  0.2218 -0.4648 -0.9167
  949SOL    HW2 3795   2.496   1.958   2.263 -0.6458  0.4861 -0.3723
  949SOL     MW 3796   2.530   1.886   2.229 -0.0953  0.4299 -0.0605
  950SOL     OW 3797   2.257   2.452   2.954  0.1888  0.6646 -0.1701
  950SOL    HW1 3798   2.295   2.415   2.876 -0.7150 -0.0852 -0.9788
  950SOL    HW2 3799   2.186   2.510   2.916  0.6332  0.5611  0.2309
  950SOL     MW 3800   2.252   2.455   2.939  0.1282  0.5520 -0.2239
  951SOL     OW 3801   3.035   2.208   2.842 -0.4112 -0.3273 -0.4097
  951SOL    HW1 3802   2.998   2.208   2.930 -0.9278  1.5775  0.2330
  951SOL    HW2 3803   3.125   2.216   2.855 -0.2642 -1.6829 -0.2240
  951SOL     MW 3804   3.042   2.209   2.856 -0.4600 -0.2549 -0.3004
  952SOL     OW 3805   3.086   1.691   2.090  0.1820 -0.5282 -0.2782
  952SOL    HW1 3806   3.018   1.743   2.036 -0.8952 -0.5866  0.9519
  952SOL    HW2 3807   3.127   1.758   2.146  0.8191  0.4986 -2.0738
  952SOL     MW 3808   3.082   1.707   2.090  0.1239 -0.4004 -0.3529
  953SOL     OW 3809   1.868   1.753   2.849 -0.1066 -0.4254  0.4848
  953SOL    HW1 3810   1.812   1.718   2.918 -1.1632  2.2939 -1.0828
  953SOL    HW2 3811   1.927   1.684   2.812  1.7417 -0.3345  0.6648
  953SOL     MW 3812   1.868   1.740   2.853 -0.0022 -0.0546  0.3017
  954SOL     OW 3813   2.444   2.068   2.806  0.8139 -0.1730  0.2831
  954SOL    HW1 3814   2.369   2.047   2.751  0.0333 -0.8840  0.9699
  954SOL    HW2 3815   2.525   2.053   2.753 -0.9994 -2.3661  1.2577
  954SOL     MW 3816   2.445   2.063   2.792  0.4717 -0.5561  0.5023
  955SOL     OW 3817   1.500   1.556   2.553  0.3087  0.5283 -0.2740
  955SOL    HW1 3818   1.469   1.545   2.468 -2.6237 -2.9893  0.0889
  955SOL    HW2 3819   1.588   1.584   2.540 -0.7171 -0.7143  1.6640
  955SOL     MW 3820   1.508   1.559   2.540 -0.2135 -0.0998  0.0296
  956SOL     OW 3821   2.679   2.418   2.825 -0.1014  0.0213 -0.1688
  956SOL    HW1 3822   2.684   2.360   2.907 -3.5898 -0.7818 -0.1167
  956SOL    HW2 3823   2.748   2.396   2.760  0.6238  1.7815  0.8613
  956SOL     MW 3824   2.689   2.408   2.827 -0.4660  0.1476 -0.0260
  957SOL     OW 3825   2.279   2.861   0.537  0.2899 -0.1657  0.6078
  957SOL    HW1 3826   2.218   2.789   0.513 -0.5851 -0.0824 -1.5898
  957SOL    HW2 3827   2.278   2.855   0.638 -0.1415  0.1561  3.7713
  957SOL     MW 3828   2.271   2.851   0.547  0.1175 -0.1122  0.7353
  958SOL     OW 3829   2.041   2.582   2.838 -0.2296 -0.7560 -0.2529
  958SOL    HW1 3830   1.993   2.530   2.778  2.9545  0.5507 -1.6614
  958SOL    HW2 3831   2.014   2.550   2.927  0.9979  1.6265  0.5617
  958SOL     MW 3832   2.031   2.571   2.842  0.3525 -0.2693 -0.3313
  959SOL     OW 3833   2.524   2.721   0.462 -0.1260 -0.6127 -0.2809
  959SOL    HW1 3834   2.541   2.744   0.372  0.8771 -4.1969  1.4949
  959SOL    HW2 3835   2.443   2.769   0.482 -0.2420  1.3226  1.6054
  959SOL     MW 3836   2.515   2.730   0.453 -0.0089 -0.8302  0.2023
  960SOL     OW 3837   1.856   2.349   2.317 -0.3552 -0.3240 -0.2235
  960SOL    HW1 3838   1.925   2.287   2.344  1.1825  1.2286 -3.1559
  960SOL    HW2 3839   1.806   2.378   2.401 -1.4319  1.4254  2.5138
  960SOL     MW 3840   1.858   2.345   2.332 -0.2943  0.1117 -0.2493
  961SOL     OW 3841   2.203   2.306   2.231  0.1869 -0.3802 -0.5167
  961SOL    HW1 3842   2.117   2.263   2.222 -0.3746 -1.0566  0.6100
  961SOL    HW2 3843   2.186   2.352   2.321 -0.2838  2.5289 -0.6606
  961SOL     MW 3844   2.189   2.306   2.242  0.0507 -0.0856 -0.3870
  962SOL     OW 3845   2.173   1.991   2.785  0.0454 -1.3509 -0.2225
  962SOL    HW1 3846   2.156   1.983   2.882 -0.6231 -1.9760  0.6546
  962SOL    HW2 3847   2.165   1.910   2.740 -1.2640  1.4755  2.3386
  962SOL     MW 3848   2.170   1.980   2.792 -0.2156 -1.0604  0.2311
  963SOL     OW 3849   1.832   2.544   2.085  0.0141 -0.4613  0.0675
  963SOL    HW1 3850   1.828   2.494   2.165 -1.5470  0.3768  0.0377
  963SOL    HW2 3851   1.828   2.478   2.016  0.9654 -1.5727  0.3358
  963SOL     MW 3852   1.831   2.529   2.086 -0.0664 -0.4974  0.0990
  964SOL     OW 3853   1.765   1.908   2.645 -0.0091  0.3032 -0.0321
  964SOL    HW1 3854   1.806   1.987   2.615  1.5879 -2.9798 -0.2861
  964SOL    HW2 3855   1.816   1.869   2.721 -0.3020 -0.9428  0.5800
  964SOL     MW 3856   1.777   1.913   2.651  0.1629 -0.2943  0.0152
  965SOL     OW 3857   2.112   2.572   0.801 -0.5017  0.1823 -1.1442
  965SOL    HW1 3858   2.148   2.520   0.726 -0.7532 -0.4285 -0.6966
  965SOL    HW2 3859   2.175   2.641   0.817  0.3426  0.8026  0.7705
  965SOL     MW 3860   2.125   2.575   0.793 -0.4235  0.1836 -0.8325
  966SOL     OW 3861   2.638   2.621   2.411 -0.4201 -0.2256 -0.0189
  966SOL    HW1 3862   2.596   2.659   2.330 -0.0889 -3.0967  0.0589
  966SOL    HW2 3863   2.634   2.524   2.399  1.5193 -0.4825  0.2254
  966SOL     MW 3864   2.632   2.613   2.399 -0.1205 -0.6383  0.0236
  967SOL     OW 3865   2.640   0.046   3.093  0.2546  0.0491 -0.5363
  967SOL    HW1 3866   2.673  -0.038   3.072 -2.2246  2.6469 -0.7504
  967SOL    HW2 3867   2.618   0.091   3.008 -1.9801 -0.3584  2.4684
  967SOL     MW 3868   2.642   0.041   3.079 -0.3674  0.3381 -0.1681
  968SOL     OW 3869   2.995   2.578   2.941 -0.0582 -0.4659  0.1826
  968SOL    HW1 3870   2.905   2.614   2.931 -4.1313 -1.4493  0.4113
  968SOL    HW2 3871   3.037   2.567   2.851  2.3481  2.1686 -0.7201
  968SOL     MW 3872   2.989   2.581   2.927 -0.2781 -0.2480  0.0936
  969SOL     OW 3873   1.588   2.148   1.725 -0.3323  0.8288 -0.0769
  969SOL    HW1 3874   1.668   2.106   1.749 -0.4251  0.7426  0.4191
  969SOL    HW2 3875   1.550   2.173   1.806  0.2712 -2.4576 -2.9454
  969SOL     MW 3876   1.594   2.145   1.739 -0.2649  0.3838 -0.3900
  970SOL     OW 3877   1.723   1.752   1.823 -0.0103  0.2116 -0.2811
  970SOL    HW1 3878   1.772   1.685   1.871  0.8981  0.6740 -0.6039
  970SOL    HW2 3879   1.637   1.765   1.865  3.0918  1.4588  0.4706
  970SOL     MW 3880   1.718   1.745   1.835  0.5189  0.4372 -0.2245
  971SOL     OW 3881   1.763   3.067   2.354 -0.5668 -0.6259 -0.0325
  971SOL    HW1 3882   1.810   3.028   2.278 -0.3229 -0.3048  0.8928
  971SOL    HW2 3883   1.803   3.153   2.357 -0.3764  1.3182 -1.1798
  971SOL     MW 3884   1.775   3.073   2.345 -0.5095 -0.3270 -0.0618
  972SOL     OW 3885   0.252   2.872   2.435 -0.5045 -0.0631 -0.0283
  972SOL    HW1 3886   0.325   2.816   2.464 -0.3315 -1.8729  0.8089
  972SOL    HW2 3887   0.284   2.960   2.423 -1.6826 -1.6058  0.5927
  972SOL     MW 3888   0.266   2.876   2.438 -0.6371 -0.5054  0.1641
  973SOL     OW 3889   2.613   3.097   2.154 -0.1029  0.7420  0.1771
  973SOL    HW1 3890   2.585   3.032   2.085 -0.6726  1.0746 -0.3005
  973SOL    HW2 3891   2.626   3.187   2.118 -3.7555  2.9752 -0.6328
  973SOL     MW 3892   2.611   3.100   2.140 -0.6600  1.0805  0.0072
  974SOL     OW 3893   2.003   0.164   2.612  0.2161  0.0929  0.3341
  974SOL    HW1 3894   2.094   0.154   2.654 -0.6676  0.1409  0.1546
  974SOL    HW2 3895   1.954   0.086   2.643 -0.2555 -0.1650 -1.1604
  974SOL     MW 3896   2.009   0.152   2.621  0.0373  0.0652  0.1133
  975SOL     OW 3897   2.158   2.446   2.470  0.0461  0.6562 -0.2768
  975SOL    HW1 3898   2.239   2.497   2.493 -0.4199  2.5093 -1.7816
  975SOL    HW2 3899   2.086   2.506   2.449  3.5340 -1.8585 -2.0049
  975SOL     MW 3900   2.159   2.460   2.470  0.4448  0.5689 -0.7033
  976SOL     OW 3901   0.169   0.342   1.597  0.1258 -0.5149 -0.3519
  976SOL    HW1 3902   0.219   0.258   1.605 -2.1594 -1.5722 -0.3421
  976SOL    HW2 3903   0.080   0.307   1.583  2.4576 -0.3737  0.3738
  976SOL     MW 3904   0.164   0.326   1.596  0.1320 -0.6358 -0.2548
  977SOL     OW 3905   1.702   2.741   2.429 -0.8178 -0.1700  0.5713
  977SOL    HW1 3906   1.794   2.710   2.450 -0.4274 -0.4019  1.6513
  977SOL    HW2 3907   1.714   2.806   2.361  3.1768  1.3247  0.0180
  977SOL     MW 3908   1.716   2.746   2.423 -0.2393 -0.0034  0.6408
   3.10000   3.10000   3.10000
