977 TIP4P/2005f water molecules t=   1.13000 step= 1130
 3908
    1SOL     OW    1   0.415   0.783   3.097  0.1389  0.1593 -0.8551
    1SOL    HW1    2   0.371   0.829   3.029  0.3770 -1.1666  0.1693
    1SOL    HW2    3   0.344   0.724   3.134 -2.2384 -0.5292 -1.2462
    1SOL     MW    4   0.400   0.781   3.093 -0.1434 -0.1064 -0.7715
    2SOL     OW    5   0.332   3.044   1.164 -0.0978 -0.4276 -0.5694
    2SOL    HW1    6   0.365   3.130   1.129 -1.5830  4.7112  1.5106
    2SOL    HW2    7   0.238   3.067   1.178  0.1368 -0.5462 -1.7487
    2SOL     MW    8   0.324   3.058   1.161 -0.2628  0.2348 -0.4506
    3SOL     OW    9   2.584   0.412   0.991 -0.4813 -0.4199  0.0430
    3SOL    HW1   10   2.610   0.464   0.925 -0.1575 -1.8232  2.7861
    3SOL    HW2   11   2.554   0.477   1.056 -2.1562 -3.2429 -1.8298
    3SOL     MW   12   2.584   0.427   0.991 -0.6596 -0.9775  0.1579
    4SOL     OW   13   2.939   1.710   0.528  0.7670  0.3040 -0.0108
    4SOL    HW1   14   2.875   1.777   0.500 -0.5097  1.1810 -0.3517
    4SOL    HW2   15   3.001   1.682   0.463 -1.2228  0.3221 -0.8590
    4SOL     MW   16   2.939   1.715   0.516  0.3360  0.4221 -0.1677
    5SOL     OW   17   1.715   1.496   0.524 -0.2828  0.2859 -0.2096
    5SOL    HW1   18   1.718   1.449   0.607 -1.1492 -0.5162  1.2009
    5SOL    HW2   19   1.620   1.524   0.527  1.1579  1.7744  1.5100
    5SOL     MW   20   1.703   1.493   0.535 -0.2071  0.3765  0.2034
    6SOL     OW   21   0.802   1.344   0.590  0.2193 -0.3750  0.2179
    6SOL    HW1   22   0.713   1.369   0.619 -0.0695  0.3155 -0.1962
    6SOL    HW2   23   0.846   1.294   0.661 -1.3640 -1.6061  1.1330
    6SOL     MW   24   0.796   1.341   0.603 -0.0277 -0.4463  0.2840
    7SOL     OW   25   2.080   1.027   0.022 -0.1589  0.1458 -0.0909
    7SOL    HW1   26   2.076   1.112  -0.025  1.5139  0.5620  2.3098
    7SOL    HW2   27   2.140   1.045   0.092  0.3363 -0.1802  1.1711
    7SOL     MW   28   2.087   1.040   0.025  0.1271  0.1577  0.3923
    8SOL     OW   29   0.913   1.459   1.176  0.3493  0.2728  0.2666
    8SOL    HW1   30   1.008   1.452   1.189 -0.9560 -1.3999  0.1665
    8SOL    HW2   31   0.879   1.377   1.203 -0.5923  1.1431  0.9972
    8SOL     MW   32   0.921   1.447   1.181  0.0529  0.1669  0.3498
    9SOL     OW   33   1.002   0.522   1.391 -0.1098 -0.0820 -0.1681
    9SOL    HW1   34   0.973   0.441   1.342  2.3164 -0.1807  0.1620
    9SOL    HW2   35   1.061   0.481   1.452 -1.5262  0.9224  0.3407
    9SOL     MW   36   1.006   0.506   1.393  0.0234  0.0375 -0.0574
   10SOL     OW   37   0.224   0.776   0.483  0.1128  0.2834  0.2427
   10SOL    HW1   38   0.308   0.816   0.452  1.4490 -0.6914 -2.0607
   10SOL    HW2   39   0.212   0.827   0.566  1.2191 -0.2911 -0.6603
   10SOL     MW   40   0.233   0.788   0.490  0.4351  0.0790 -0.1804
   11SOL     OW   41   0.803   1.142   1.598 -0.5814 -0.2629 -0.2596
   11SOL    HW1   42   0.814   1.131   1.690 -0.2871  2.9808 -3.4324
   11SOL    HW2   43   0.799   1.053   1.565  0.3282 -1.9038  4.7881
   11SOL     MW   44   0.804   1.129   1.606 -0.4226 -0.0515 -0.0122
   12SOL     OW   45   0.013   1.058   0.891 -0.2624 -0.4677  0.4009
   12SOL    HW1   46   0.049   1.111   0.961  1.4630  2.2799 -0.7168
   12SOL    HW2   47  -0.033   1.117   0.835 -1.7141 -1.0122 -2.8523
   12SOL     MW   48   0.011   1.072   0.893 -0.2263 -0.1770 -0.1758
   13SOL     OW   49   1.854   1.431   1.348  0.3185 -0.3271  0.4094
   13SOL    HW1   50   1.876   1.369   1.281  1.6650 -2.1234  3.3419
   13SOL    HW2   51   1.869   1.522   1.315  0.7028 -0.0776  2.5135
   13SOL     MW   52   1.859   1.435   1.335  0.5468 -0.5312  1.0739
   14SOL     OW   53   0.558   0.387   1.865 -0.2976 -0.4093 -0.1043
   14SOL    HW1   54   0.504   0.308   1.867  0.8069  1.1102  2.8396
   14SOL    HW2   55   0.620   0.377   1.797 -0.3464  0.0668 -2.4493
   14SOL     MW   56   0.559   0.375   1.857 -0.1583 -0.1460 -0.0253
   15SOL     OW   57   1.971   0.349   1.055  0.0451 -0.3353  0.0598
   15SOL    HW1   58   1.940   0.428   1.102  0.5532  0.0201  2.5391
   15SOL    HW2   59   2.027   0.382   0.982 -3.3380  1.2370  0.2169
   15SOL     MW   60   1.975   0.364   1.051 -0.3342 -0.0809  0.4076
   16SOL     OW   61   0.187   1.797   0.303 -0.0042  0.0947 -0.7099
   16SOL    HW1   62   0.275   1.765   0.338 -1.7168 -2.1342 -0.0875
   16SOL    HW2   63   0.190   1.892   0.328  0.1174  3.0345 -0.7591
   16SOL     MW   64   0.199   1.805   0.311 -0.2141  0.1885 -0.6343
   17SOL     OW   65   1.066   0.931   1.446 -0.4936  0.0096  0.0409
   17SOL    HW1   66   1.096   0.896   1.528 -2.4891  1.3233 -0.7564
   17SOL    HW2   67   0.975   0.895   1.446 -0.5087  0.4981  1.5082
   17SOL     MW   68   1.058   0.922   1.457 -0.7589  0.2474  0.1293
   18SOL     OW   69   0.047   1.574   0.377  0.6527 -0.0344 -1.1651
   18SOL    HW1   70   0.097   1.642   0.337 -2.8335  0.7562  2.6064
   18SOL    HW2   71   0.027   1.515   0.306  0.8740  0.3493  1.8953
   18SOL     MW   72   0.051   1.575   0.362  0.2219  0.1205 -0.2637
   19SOL     OW   73   0.074   1.284   1.039 -0.1784 -0.5554 -0.0094
   19SOL    HW1   74   0.129   1.338   0.973 -1.9180  2.1848  3.1810
   19SOL    HW2   75  -0.014   1.329   1.041  0.6961  1.9507 -0.5359
   19SOL     MW   76   0.069   1.297   1.031 -0.2925  0.1368  0.3421
   20SOL     OW   77   0.448   2.164   1.178 -0.3873  0.1917 -0.4651
   20SOL    HW1   78   0.402   2.105   1.121 -2.0725  0.1386 -1.2973
   20SOL    HW2   79   0.389   2.184   1.256  1.9907 -0.1445  0.9500
   20SOL     MW   80   0.434   2.159   1.181 -0.2959  0.1404 -0.3882
   21SOL     OW   81   0.466   0.878   0.423  0.4299  0.2144 -0.0646
   21SOL    HW1   82   0.527   0.841   0.489  1.5545  0.5009 -1.5944
   21SOL    HW2   83   0.501   0.849   0.340  1.7819  0.7122 -0.0140
   21SOL     MW   84   0.479   0.869   0.421  0.7567  0.3179 -0.2598
   22SOL     OW   85   1.575   0.657   1.036 -0.6453  0.6401 -0.5204
   22SOL    HW1   86   1.523   0.654   0.958  0.1084 -0.4268  1.6490
   22SOL    HW2   87   1.543   0.729   1.085 -0.8806 -0.2115  1.1735
   22SOL     MW   88   1.564   0.666   1.032 -0.5769  0.3870 -0.0107
   23SOL     OW   89   3.036   0.687   0.704 -0.2045 -0.1388  0.5317
   23SOL    HW1   90   3.077   0.612   0.754  1.0274 -0.2316  0.8668
   23SOL    HW2   91   3.094   0.763   0.717 -1.5873  0.8518  2.1970
   23SOL     MW   92   3.049   0.687   0.713 -0.2244 -0.0203  0.7956
   24SOL     OW   93   2.025   2.202   0.041  0.4270  0.4602  0.2912
   24SOL    HW1   94   2.053   2.176   0.128 -3.5296 -1.1006  1.2778
   24SOL    HW2   95   2.042   2.119  -0.013  1.4320 -1.2692 -0.6462
   24SOL     MW   96   2.031   2.187   0.045  0.0376  0.0261  0.2977
   25SOL     OW   97   0.220   1.420   0.559 -0.6913 -0.0177 -0.3296
   25SOL    HW1   98   0.183   1.490   0.512  1.4218  0.1885  0.0189
   25SOL    HW2   99   0.315   1.432   0.567  2.7153 -1.0568  0.1881
   25SOL     MW  100   0.228   1.431   0.554  0.0370 -0.1276 -0.2153
   26SOL     OW  101   2.080   1.051   0.323 -0.6358 -0.4130 -0.7012
   26SOL    HW1  102   2.010   1.086   0.383  0.3987 -2.0371  1.6670
   26SOL    HW2  103   2.137   1.120   0.278  0.3385 -2.9703  0.7609
   26SOL     MW  104   2.078   1.065   0.325 -0.3708 -0.9647 -0.1958
   27SOL     OW  105   1.983   1.453   0.222 -0.1288  0.5170 -0.1033
   27SOL    HW1  106   1.896   1.490   0.203 -0.5878 -2.1383  0.9199
   27SOL    HW2  107   2.022   1.514   0.283 -0.4776  0.1861 -0.4155
   27SOL     MW  108   1.977   1.466   0.228 -0.2353  0.1230 -0.0095
   28SOL     OW  109   0.441   0.993   1.957 -0.0336 -0.1093 -0.0695
   28SOL    HW1  110   0.484   1.006   2.034  0.9384 -1.0165 -1.2461
   28SOL    HW2  111   0.362   0.943   1.971  1.9344 -0.1247  1.9165
   28SOL     MW  112   0.437   0.988   1.969  0.3543 -0.2310  0.0373
   29SOL     OW  113   0.206   1.446   0.865  0.1788  0.1630 -0.2205
   29SOL    HW1  114   0.204   1.542   0.858  1.7151 -1.7525 -1.5479
   29SOL    HW2  115   0.215   1.416   0.772 -0.5079 -0.7351 -0.5868
   29SOL     MW  116   0.207   1.455   0.852  0.2909 -0.2082 -0.4440
   30SOL     OW  117   0.803   1.200   1.247 -0.1105  0.0502  0.1926
   30SOL    HW1  118   0.717   1.209   1.295 -2.1280  1.1448 -0.1281
   30SOL    HW2  119   0.878   1.187   1.314  1.5262  1.6084  2.9578
   30SOL     MW  120   0.802   1.199   1.262 -0.1607  0.4002  0.5151
   31SOL     OW  121   0.441   0.256   0.156 -0.4960 -0.0498 -0.2180
   31SOL    HW1  122   0.451   0.171   0.200  1.1651 -1.3147  2.9993
   31SOL    HW2  123   0.460   0.230   0.065  0.3566 -1.5788  0.8320
   31SOL     MW  124   0.445   0.241   0.150 -0.1644 -0.4185  0.3450
   32SOL     OW  125   2.819   0.963   1.184 -0.3504  0.1670 -0.2088
   32SOL    HW1  126   2.754   0.898   1.154 -1.7061 -2.3558  0.8365
   32SOL    HW2  127   2.907   0.945   1.148 -0.4499  1.7304  1.1838
   32SOL     MW  128   2.822   0.952   1.175 -0.5424  0.0404  0.1128
   33SOL     OW  129   1.699   1.303   0.326 -0.7353  0.2020  0.2242
   33SOL    HW1  130   1.759   1.234   0.350  1.7515 -0.9194 -1.9221
   33SOL    HW2  131   1.708   1.370   0.396  0.4456 -0.2012  1.9193
   33SOL     MW  132   1.708   1.303   0.339 -0.2514  0.0008  0.1647
   34SOL     OW  133   1.214   1.920   1.105  0.1714  0.4558 -0.1062
   34SOL    HW1  134   1.126   1.946   1.130 -0.1027 -0.4143  0.9820
   34SOL    HW2  135   1.276   1.946   1.176  0.2712 -1.4442  1.9520
   34SOL     MW  136   1.211   1.927   1.118  0.1484  0.0903  0.3090
   35SOL     OW  137   0.382   0.151   1.851  0.0822 -0.4998 -0.6983
   35SOL    HW1  138   0.397   0.087   1.922  0.5224  0.6494 -1.1034
   35SOL    HW2  139   0.429   0.120   1.772 -1.8656  1.7669  0.0842
   35SOL     MW  140   0.391   0.139   1.850 -0.1167 -0.0491 -0.6485
   36SOL     OW  141   1.966   1.962   0.598  0.0891 -0.1277 -0.5187
   36SOL    HW1  142   1.997   1.947   0.505  1.4414 -3.4397  0.3348
   36SOL    HW2  143   1.955   1.874   0.629 -0.0903 -0.1938 -0.5699
   36SOL     MW  144   1.969   1.948   0.590  0.2438 -0.5734 -0.4129
   37SOL     OW  145   1.791   1.978   0.965 -0.4382  0.4239  0.3159
   37SOL    HW1  146   1.744   1.901   0.921  1.3702  1.8173  1.3950
   37SOL    HW2  147   1.716   2.023   1.009  0.4393  0.9496  1.5942
   37SOL     MW  148   1.775   1.974   0.965 -0.0838  0.6771  0.6270
   38SOL     OW  149   2.805   0.939   0.154  0.1024 -0.0712 -0.0219
   38SOL    HW1  150   2.798   0.906   0.247 -0.0614 -1.1948 -0.0224
   38SOL    HW2  151   2.880   0.888   0.127  0.7317  0.4643 -2.3927
   38SOL     MW  152   2.814   0.928   0.163  0.1638 -0.1488 -0.3348
   39SOL     OW  153   1.431   0.610   0.811 -0.2422 -0.1628  0.0088
   39SOL    HW1  154   1.405   0.524   0.849 -0.6993  0.6348  1.2129
   39SOL    HW2  155   1.374   0.630   0.743  1.4767 -1.9402  0.3634
   39SOL     MW  156   1.420   0.602   0.807 -0.0757 -0.2921  0.2145
   40SOL     OW  157   1.177   1.920   0.308 -0.5815 -0.2647  0.1724
   40SOL    HW1  158   1.202   1.842   0.362  1.0279 -0.5247  0.6413
   40SOL    HW2  159   1.219   1.997   0.351  1.7067 -1.4798  2.1251
   40SOL     MW  160   1.186   1.920   0.321 -0.0673 -0.4593  0.4919
   41SOL     OW  161   0.563   0.510   1.572 -0.1819 -0.0907 -0.5438
   41SOL    HW1  162   0.652   0.550   1.571  0.2774 -0.5558  0.3693
   41SOL    HW2  163   0.527   0.516   1.660  1.4067 -0.7068 -4.5207
   41SOL     MW  164   0.570   0.516   1.583  0.0883 -0.2333 -0.9481
   42SOL     OW  165   1.270   3.003   2.019 -0.5612  0.0272  0.0622
   42SOL    HW1  166   1.176   3.001   2.043 -2.8614 -0.9985  0.7518
   42SOL    HW2  167   1.317   2.948   2.083 -0.6867 -1.6956 -1.5027
   42SOL     MW  168   1.264   2.995   2.031 -0.8812 -0.3354 -0.0533
   43SOL     OW  169   1.520   0.121   1.706 -0.6606  0.1606  0.5751
   43SOL    HW1  170   1.577   0.093   1.632  4.1590  1.4966  2.1590
   43SOL    HW2  171   1.433   0.080   1.690 -3.1307  0.7306 -0.5962
   43SOL     MW  172   1.516   0.112   1.694 -0.3506  0.4121  0.6295
   44SOL     OW  173   1.121   0.793   1.000  0.3417 -0.5012 -0.6621
   44SOL    HW1  174   1.142   0.880   0.965 -1.0963  0.6724 -1.0325
   44SOL    HW2  175   1.129   0.805   1.094  3.2766  1.6945  1.1515
   44SOL     MW  176   1.125   0.806   1.008  0.5392 -0.0566 -0.4717
   45SOL     OW  177   1.232   0.758   0.631 -0.2197  0.0334  0.2747
   45SOL    HW1  178   1.159   0.806   0.665 -2.1019 -2.7062 -0.0107
   45SOL    HW2  179   1.203   0.692   0.562 -1.0976 -1.9785 -1.1900
   45SOL     MW  180   1.219   0.756   0.626 -0.5838 -0.5935  0.0438
   46SOL     OW  181   0.577   1.138   0.593  0.5208 -0.1223 -0.1163
   46SOL    HW1  182   0.539   1.147   0.505 -1.0037 -1.6199  1.8052
   46SOL    HW2  183   0.662   1.087   0.587  0.1196 -4.3615 -2.9098
   46SOL     MW  184   0.583   1.133   0.581  0.2667 -0.8792 -0.2314
   47SOL     OW  185   0.234   2.012   1.969  0.3219 -0.7286 -0.2690
   47SOL    HW1  186   0.308   1.948   1.990 -1.5625 -1.9740  1.1343
   47SOL    HW2  187   0.224   2.066   2.052  0.5612 -1.7337  0.2951
   47SOL     MW  188   0.243   2.011   1.983  0.1048 -1.0255 -0.0094
   48SOL     OW  189   1.082   0.517   1.083  0.5809  0.2977  0.1402
   48SOL    HW1  190   0.994   0.504   1.058 -1.5101  1.6694  0.8549
   48SOL    HW2  191   1.112   0.596   1.031  0.8565  0.2897  0.1243
   48SOL     MW  192   1.074   0.526   1.072  0.3414  0.4776  0.2324
   49SOL     OW  193   1.694   0.688   1.569 -0.2325  0.0776  0.1755
   49SOL    HW1  194   1.686   0.638   1.654  0.1705 -0.3175  1.4760
   49SOL    HW2  195   1.759   0.638   1.516  0.8523  0.2662 -2.3851
   49SOL     MW  196   1.702   0.675   1.573 -0.0362  0.0503  0.0092
   50SOL     OW  197   1.315   1.091   0.510 -0.3868  0.6471 -0.1403
   50SOL    HW1  198   1.265   1.142   0.574  0.1228  0.5240 -0.3016
   50SOL    HW2  199   1.365   1.023   0.552 -0.2281  1.1236 -0.3509
   50SOL     MW  200   1.315   1.089   0.524 -0.2987  0.6937 -0.1894
   51SOL     OW  201   0.353   2.938   0.911 -0.2193  0.3704  0.0197
   51SOL    HW1  202   0.443   2.894   0.918  0.6005  0.3567  2.9727
   51SOL    HW2  203   0.347   2.979   1.004 -0.7033  1.0671  0.3929
   51SOL     MW  204   0.364   2.938   0.924 -0.1750  0.4605  0.4586
   52SOL     OW  205   0.806   1.722   0.415  0.7612  0.4814  0.1613
   52SOL    HW1  206   0.769   1.798   0.378  0.1485 -1.4299 -1.2875
   52SOL    HW2  207   0.839   1.669   0.339 -0.8596  0.3897  0.2866
   52SOL     MW  208   0.805   1.725   0.400  0.4665  0.2171 -0.0133
   53SOL     OW  209   0.453   2.124   0.463 -0.1779  0.4968  0.2382
   53SOL    HW1  210   0.394   2.122   0.389  0.3330 -1.0845 -2.5849
   53SOL    HW2  211   0.418   2.191   0.527  0.0019  1.3354 -2.3325
   53SOL     MW  212   0.440   2.133   0.461 -0.0868  0.3988 -0.4735
   54SOL     OW  213   1.993   0.920   0.802 -0.2045 -0.4209 -0.0001
   54SOL    HW1  214   2.022   0.950   0.716  1.2302 -0.5150  0.1027
   54SOL    HW2  215   2.001   0.822   0.796  0.4303 -1.8115 -0.0514
   54SOL     MW  216   1.997   0.911   0.790  0.0685 -0.6168  0.0067
   55SOL     OW  217   0.538   1.562   1.607 -0.5473 -0.1735 -0.3514
   55SOL    HW1  218   0.497   1.613   1.534  1.4888  1.6244 -0.6563
   55SOL    HW2  219   0.609   1.506   1.572  2.8228  1.8709 -0.1284
   55SOL     MW  220   0.542   1.562   1.593  0.1660  0.3335 -0.3622
   56SOL     OW  221   0.616   0.846   0.186  0.0625  0.2114 -0.0441
   56SOL    HW1  222   0.652   0.931   0.206  1.0460 -1.1802  2.0617
   56SOL    HW2  223   0.564   0.859   0.107  0.1919 -0.7413  1.8390
   56SOL     MW  224   0.614   0.859   0.178  0.2093 -0.0979  0.4822
   57SOL     OW  225   1.195   1.271   1.164  0.3767  0.5402 -0.6481
   57SOL    HW1  226   1.286   1.261   1.145 -1.4349  0.3032  0.3038
   57SOL    HW2  227   1.188   1.227   1.246 -0.6978  0.7854  1.1263
   57SOL     MW  228   1.206   1.264   1.172 -0.0041  0.5413 -0.2884
   58SOL     OW  229   0.522   1.239   1.355  0.3504 -0.1499  0.2970
   58SOL    HW1  230   0.520   1.330   1.321  0.1891 -2.1258 -2.8611
   58SOL    HW2  231   0.518   1.228   1.454 -1.9773 -1.8189 -0.1145
   58SOL     MW  232   0.521   1.249   1.364  0.0220 -0.6308 -0.1740
   59SOL     OW  233   1.546   1.693   0.361 -0.3963 -0.0176 -0.1136
   59SOL    HW1  234   1.584   1.750   0.432 -0.3725  3.1377 -1.5791
   59SOL    HW2  235   1.455   1.713   0.373  2.8003 -1.1742  0.1995
   59SOL     MW  236   1.539   1.703   0.372  0.0286  0.2461 -0.2657
   60SOL     OW  237   0.044   0.228   1.673 -0.8316  0.2400  0.0111
   60SOL    HW1  238  -0.044   0.241   1.686  2.7421  3.3026  1.2328
   60SOL    HW2  239   0.067   0.150   1.728  0.6484 -0.1647  0.8540
   60SOL     MW  240   0.035   0.220   1.682 -0.1649  0.5907  0.2835
   61SOL     OW  241   2.010   1.413   3.057 -0.5385 -0.3672 -0.3325
   61SOL    HW1  242   2.013   1.403   3.156 -2.7969  0.0526  1.2263
   61SOL    HW2  243   2.092   1.374   3.020 -0.6985  0.2754 -0.8702
   61SOL     MW  244   2.021   1.406   3.065 -0.8576 -0.2270 -0.1978
   62SOL     OW  245   0.594   1.676   0.585  0.2981 -0.8784 -0.7236
   62SOL    HW1  246   0.683   1.683   0.546 -0.5708  2.4045  0.1596
   62SOL    HW2  247   0.571   1.589   0.592 -3.6161 -0.0408  2.1235
   62SOL     MW  248   0.603   1.666   0.581 -0.3330 -0.3347 -0.2314
   63SOL     OW  249   1.693   0.691   0.710  0.2454  0.0321 -0.0413
   63SOL    HW1  250   1.706   0.780   0.674  0.1998 -0.8120 -1.1961
   63SOL    HW2  251   1.607   0.690   0.751  1.7300 -0.1640  1.6537
   63SOL     MW  252   1.684   0.703   0.711  0.4353 -0.1051  0.0300
   64SOL     OW  253   0.220   1.734   0.849 -0.1156  0.0782  0.5189
   64SOL    HW1  254   0.277   1.768   0.785 -1.3843  0.1648 -0.7359
   64SOL    HW2  255   0.141   1.775   0.822  0.0245 -0.1888  1.0069
   64SOL     MW  256   0.217   1.744   0.837 -0.2645  0.0544  0.4177
   65SOL     OW  257   1.589   2.303   0.417 -0.0176 -0.5962  0.5193
   65SOL    HW1  258   1.674   2.271   0.446 -0.2224  2.9049 -1.3363
   65SOL    HW2  259   1.537   2.336   0.491  1.7906  0.7639 -1.4443
   65SOL     MW  260   1.594   2.303   0.430  0.1939  0.0452  0.0154
   66SOL     OW  261   0.300   0.516   0.533  0.2061  0.1803 -0.3241
   66SOL    HW1  262   0.374   0.502   0.465  2.1496 -2.4964 -3.0170
   66SOL    HW2  263   0.280   0.610   0.525  0.4806  0.6142  2.0400
   66SOL     MW  264   0.307   0.527   0.523  0.4987 -0.1156 -0.3675
   67SOL     OW  265   1.474   0.100   1.979  0.1486  0.8301 -0.4545
   67SOL    HW1  266   1.497   0.104   1.881  1.2200  0.5734 -1.6922
   67SOL    HW2  267   1.438   0.010   1.981 -2.7628 -1.3448  0.3457
   67SOL     MW  268   1.473   0.089   1.967 -0.0942  0.5093 -0.5123
   68SOL     OW  269   0.700   0.038   2.983  0.3626  0.0713  0.2476
   68SOL    HW1  270   0.723   0.082   2.896  1.8574 -0.0208 -1.7498
   68SOL    HW2  271   0.789   0.045   3.026  0.4997  0.8424 -2.1102
   68SOL     MW  272   0.715   0.045   2.977  0.5779  0.1609 -0.3270
   69SOL     OW  273   1.020   0.198   1.977 -0.2434 -0.0020 -0.0749
   69SOL    HW1  274   1.106   0.226   2.012 -1.1270 -0.7292 -0.2161
   69SOL    HW2  275   1.007   0.108   2.006 -2.4785 -1.5269  0.7180
   69SOL     MW  276   1.030   0.190   1.985 -0.6549 -0.2991  0.0111
   70SOL     OW  277   0.578   1.752   1.174 -0.2929  0.5834  0.1552
   70SOL    HW1  278   0.630   1.710   1.245 -1.8546  1.3863 -1.6929
   70SOL    HW2  279   0.652   1.803   1.136 -0.2938  0.8806 -1.7244
   70SOL     MW  280   0.595   1.753   1.179 -0.4991  0.7285 -0.3366
   71SOL     OW  281   1.592   0.472   1.245 -0.0240  0.2830  0.1194
   71SOL    HW1  282   1.548   0.550   1.287  0.7224  0.3167  1.0426
   71SOL    HW2  283   1.612   0.493   1.153 -0.6901  0.3705 -0.3904
   71SOL     MW  284   1.589   0.485   1.238 -0.0134  0.2990  0.1740
   72SOL     OW  285   0.797   1.860   1.028  0.2875  0.3379  0.6138
   72SOL    HW1  286   0.801   1.918   0.948  1.6164  0.1082  3.2797
   72SOL    HW2  287   0.806   1.767   0.998 -0.8033 -1.0313 -2.3831
   72SOL     MW  288   0.798   1.856   1.013  0.3189  0.1270  0.5702
   73SOL     OW  289   1.172   0.746   1.297 -0.2144  0.0946  0.2155
   73SOL    HW1  290   1.113   0.673   1.317 -1.1379 -1.7253  0.4513
   73SOL    HW2  291   1.140   0.813   1.365  0.4301  0.7405  0.7648
   73SOL     MW  292   1.160   0.745   1.309 -0.2512 -0.0603  0.3191
   74SOL     OW  293   2.761   0.195   1.098  0.3020  0.1996  1.3049
   74SOL    HW1  294   2.802   0.154   1.020  0.1746 -0.8311 -0.8489
   74SOL    HW2  295   2.713   0.268   1.055 -0.0372 -0.8599  0.1126
   74SOL     MW  296   2.760   0.199   1.082  0.2404 -0.0762  0.8634
   75SOL     OW  297   1.553   1.458   0.139  0.6526  0.0121 -0.3211
   75SOL    HW1  298   1.615   1.530   0.152  0.7269 -1.6545  2.2537
   75SOL    HW2  299   1.594   1.400   0.200 -1.9147 -0.3473 -2.6000
   75SOL     MW  300   1.567   1.460   0.149  0.3237 -0.2552 -0.2820
   76SOL     OW  301   2.942   0.540   0.480  0.2674  0.1700 -0.1166
   76SOL    HW1  302   2.983   0.601   0.544  0.8588 -0.4897  0.2134
   76SOL    HW2  303   3.016   0.506   0.432 -0.2649 -1.8365  0.6701
   76SOL     MW  304   2.957   0.544   0.482  0.2752 -0.1818  0.0308
   77SOL     OW  305   0.836   0.574   0.478  0.0630 -0.2992 -0.0515
   77SOL    HW1  306   0.806   0.599   0.390  0.7797  1.5658  0.5541
   77SOL    HW2  307   0.788   0.493   0.504  0.1126  0.5991 -1.0737
   77SOL     MW  308   0.826   0.567   0.470  0.1641  0.0654 -0.1064
   78SOL     OW  309   0.757   0.899   1.222  0.2903  0.0276 -0.7247
   78SOL    HW1  310   0.797   0.962   1.171  0.4520 -1.0947 -0.6553
   78SOL    HW2  311   0.668   0.892   1.181 -1.7450  0.0787  1.4231
   78SOL     MW  312   0.750   0.907   1.210  0.0431 -0.1138 -0.4321
   79SOL     OW  313   1.907   1.667   0.608 -0.5950 -0.1337  0.1345
   79SOL    HW1  314   1.845   1.613   0.558 -1.9740 -1.0627 -1.4816
   79SOL    HW2  315   1.917   1.620   0.691  1.5983  0.9545  1.2662
   79SOL     MW  316   1.900   1.654   0.612 -0.4876 -0.1127  0.0706
   80SOL     OW  317   0.059   0.930   0.316 -0.2041 -0.3747  0.1435
   80SOL    HW1  318  -0.035   0.922   0.343 -1.4833  0.3624 -0.7837
   80SOL    HW2  319   0.111   0.862   0.351 -1.4740 -0.1452 -1.1800
   80SOL     MW  320   0.054   0.920   0.324 -0.5404 -0.2472 -0.1535
   81SOL     OW  321   1.891   1.853   0.309 -0.3987 -0.1887  0.0740
   81SOL    HW1  322   1.867   1.769   0.261  2.5086 -0.0099  0.0093
   81SOL    HW2  323   1.832   1.927   0.274 -0.4165 -0.1490  1.3427
   81SOL     MW  324   1.880   1.852   0.298 -0.0175 -0.1599  0.2329
   82SOL     OW  325   0.809   1.005   0.544  0.0144 -0.0258 -0.0066
   82SOL    HW1  326   0.794   1.024   0.446  1.0520 -1.1251 -0.6775
   82SOL    HW2  327   0.774   0.923   0.566  0.6331 -0.0970 -0.6049
   82SOL     MW  328   0.803   0.997   0.534  0.2330 -0.1802 -0.1741
   83SOL     OW  329   0.075   0.681   1.444  0.7135  0.0498 -0.0022
   83SOL    HW1  330   0.107   0.754   1.390  0.5535  0.5472  0.2882
   83SOL    HW2  331   0.158   0.644   1.477  0.0404 -1.2572  3.8704
   83SOL     MW  332   0.090   0.686   1.441  0.6036 -0.0570  0.5471
   84SOL     OW  333   0.104   0.196   0.988 -0.1594 -0.1866 -0.8066
   84SOL    HW1  334   0.059   0.281   1.010 -0.8946 -0.3724  1.5018
   84SOL    HW2  335   0.076   0.139   1.058 -0.2755  0.2291  0.5293
   84SOL     MW  336   0.095   0.200   1.000 -0.2717 -0.1562 -0.3257
   85SOL     OW  337   0.455   0.466   0.742  0.0823  0.1132  0.0542
   85SOL    HW1  338   0.399   0.487   0.663 -1.1991  0.5570 -1.5775
   85SOL    HW2  339   0.425   0.386   0.774 -0.2701  3.7509  0.4701
   85SOL     MW  340   0.444   0.458   0.736 -0.1333  0.6517 -0.1062
   86SOL     OW  341   1.170   0.239   1.109  0.0835  0.4752  0.1319
   86SOL    HW1  342   1.119   0.317   1.116 -1.1406  1.5308  1.7833
   86SOL    HW2  343   1.252   0.247   1.158 -1.6315 -2.7654  1.8271
   86SOL     MW  344   1.174   0.250   1.116 -0.3043  0.1869  0.5735
   87SOL     OW  345   1.209   1.545   1.278 -0.5097 -0.5354 -0.6407
   87SOL    HW1  346   1.215   1.581   1.190 -2.5280  1.3579  0.4759
   87SOL    HW2  347   1.223   1.457   1.263 -2.5409  0.5591 -1.6034
   87SOL     MW  348   1.212   1.538   1.265 -1.0440 -0.1412 -0.6204
   88SOL     OW  349   1.190   1.060   0.961 -0.0939 -0.2662  0.4016
   88SOL    HW1  350   1.280   1.031   0.934  2.9529 -3.5150  2.2615
   88SOL    HW2  351   1.209   1.131   1.027  0.9127  0.1853 -1.1038
   88SOL     MW  352   1.204   1.065   0.966  0.4409 -0.6353  0.4484
   89SOL     OW  353   1.747   0.750   0.363  0.2767  0.3748  0.0359
   89SOL    HW1  354   1.753   0.656   0.383 -0.0878  1.1655 -0.1836
   89SOL    HW2  355   1.837   0.771   0.324  0.1816  2.8023 -1.1707
   89SOL     MW  356   1.759   0.740   0.360  0.2161  0.7994 -0.1522
   90SOL     OW  357   0.815   1.065   2.800 -0.0175 -0.1640 -0.1806
   90SOL    HW1  358   0.864   0.986   2.792 -1.5076  3.4202  1.4375
   90SOL    HW2  359   0.827   1.111   2.883 -1.4454  3.6142 -0.9401
   90SOL     MW  360   0.823   1.060   2.810 -0.4025  0.8074 -0.0673
   91SOL     OW  361   2.155   0.666   0.477  0.3670 -0.3645  1.2037
   91SOL    HW1  362   2.226   0.700   0.417 -0.0955  3.4320 -0.9789
   91SOL    HW2  363   2.160   0.575   0.448 -0.5147 -1.8692  1.0804
   91SOL     MW  364   2.165   0.659   0.465  0.1897 -0.0621  0.8995
   92SOL     OW  365   1.751   0.913   0.563 -0.1429  0.1935 -0.1009
   92SOL    HW1  366   1.659   0.930   0.570  2.8173 -0.8639  0.4225
   92SOL    HW2  367   1.760   0.847   0.488 -1.4216 -1.9608  0.9448
   92SOL     MW  368   1.740   0.906   0.554  0.0789 -0.2303  0.1062
   93SOL     OW  369   0.977   0.235   0.433  0.7937 -0.4564 -0.0612
   93SOL    HW1  370   0.885   0.259   0.444  1.3938 -1.4541 -0.2543
   93SOL    HW2  371   0.997   0.256   0.338 -0.6877 -1.1594 -1.5580
   93SOL     MW  372   0.967   0.241   0.422  0.6774 -0.6808 -0.2842
   94SOL     OW  373   1.860   1.377   1.677  0.4914  0.3018 -0.8667
   94SOL    HW1  374   1.879   1.380   1.579 -2.4585  2.1781  1.2490
   94SOL    HW2  375   1.839   1.286   1.700 -1.2073  0.9484 -0.7316
   94SOL     MW  376   1.859   1.366   1.667 -0.1220  0.6347 -0.5697
   95SOL     OW  377   0.805   1.563   0.953  0.3086 -0.5689 -0.2032
   95SOL    HW1  378   0.835   1.514   1.028 -0.4537  0.3245  1.6986
   95SOL    HW2  379   0.711   1.575   0.970 -0.2285 -1.0619 -0.0802
   95SOL     MW  380   0.796   1.558   0.965  0.1371 -0.5161  0.0639
   96SOL     OW  381   1.290   1.877   1.681  0.6775 -0.1547  0.1818
   96SOL    HW1  382   1.198   1.879   1.687  0.7450 -1.2550 -0.8201
   96SOL    HW2  383   1.312   1.795   1.641 -0.5011  5.2490  0.9333
   96SOL     MW  384   1.281   1.867   1.677  0.5309  0.4131  0.1487
   97SOL     OW  385   1.180   1.447   0.861 -0.7013 -0.2805  0.4327
   97SOL    HW1  386   1.201   1.512   0.927  0.8956  0.4070 -0.6282
   97SOL    HW2  387   1.117   1.485   0.793 -0.3764 -0.7358  0.5687
   97SOL     MW  388   1.174   1.461   0.861 -0.4477 -0.2498  0.3107
   98SOL     OW  389   1.441   1.285   1.087  0.1678  0.0619  0.4136
   98SOL    HW1  390   1.483   1.311   1.167  1.1224  0.8903  0.5608
   98SOL    HW2  391   1.425   1.364   1.037  3.6800 -1.5814  2.0483
   98SOL     MW  392   1.445   1.299   1.091  0.7571 -0.0456  0.6487
   99SOL     OW  393   1.382   0.284   1.279  0.2183 -0.5363 -0.2515
   99SOL    HW1  394   1.446   0.355   1.249 -0.7929 -0.4223 -0.4866
   99SOL    HW2  395   1.327   0.329   1.345  0.4994 -1.2940  1.3192
   99SOL     MW  396   1.383   0.299   1.284  0.1220 -0.6213 -0.0753
  100SOL     OW  397   1.039   1.190   1.388 -0.4008  0.3897 -0.3279
  100SOL    HW1  398   1.068   1.236   1.471  1.9147 -1.4432 -0.4671
  100SOL    HW2  399   1.054   1.095   1.415 -2.4971 -0.4002  0.0658
  100SOL     MW  400   1.045   1.183   1.402 -0.3719  0.0436 -0.2943
  101SOL     OW  401   0.503   1.175   0.309 -0.0942  0.2415 -0.7545
  101SOL    HW1  402   0.446   1.108   0.276 -0.0032 -0.0032 -1.4597
  101SOL    HW2  403   0.596   1.145   0.285 -1.0160 -0.8687 -1.6001
  101SOL     MW  404   0.508   1.162   0.302 -0.2038  0.0627 -0.9591
  102SOL     OW  405   2.898   0.651   0.980  0.7137 -0.3018 -0.5839
  102SOL    HW1  406   2.944   0.722   1.017  1.2794  1.6292 -0.7172
  102SOL    HW2  407   2.847   0.632   1.061 -0.3317  1.3452  0.2145
  102SOL     MW  408   2.897   0.658   0.996  0.6504  0.1702 -0.4962
  103SOL     OW  409   1.678   0.296   1.868 -0.0474 -0.2985  0.0600
  103SOL    HW1  410   1.683   0.226   1.808  1.0297  0.7036 -0.8745
  103SOL    HW2  411   1.628   0.261   1.944 -0.5613  1.1666 -2.9785
  103SOL     MW  412   1.672   0.282   1.870  0.0269  0.0270 -0.4642
  104SOL     OW  413   0.146   1.505   1.616 -0.1477 -0.6250  0.1088
  104SOL    HW1  414   0.200   1.432   1.617  1.6583 -0.2766  0.3938
  104SOL    HW2  415   0.062   1.476   1.577  1.7973  0.5420 -0.8872
  104SOL     MW  416   0.142   1.491   1.611  0.3472 -0.4251  0.0150
  105SOL     OW  417   0.056   1.223   0.397 -0.4346 -0.0906  0.0502
  105SOL    HW1  418   0.108   1.143   0.382  3.0462 -3.4331 -0.3984
  105SOL    HW2  419   0.116   1.286   0.435  1.1171 -0.5159 -0.4969
  105SOL     MW  420   0.071   1.221   0.400  0.2294 -0.5878 -0.0811
  106SOL     OW  421   0.824   0.350   1.001 -0.1814  0.3660  0.4717
  106SOL    HW1  422   0.776   0.433   0.988 -0.7184 -0.3564 -0.9689
  106SOL    HW2  423   0.872   0.344   0.915 -0.0166 -0.0387  1.2749
  106SOL     MW  424   0.824   0.360   0.988 -0.2305  0.2173  0.3876
  107SOL     OW  425   0.799   2.192   2.922  0.1300 -0.0495  0.1691
  107SOL    HW1  426   0.720   2.151   2.885 -0.9726  1.8900 -0.7751
  107SOL    HW2  427   0.795   2.154   3.013 -3.3246  0.0660  0.1536
  107SOL     MW  428   0.788   2.181   2.929 -0.4713  0.2217  0.0425
  108SOL     OW  429   1.323   1.631   1.633  0.5937  0.4076  0.0433
  108SOL    HW1  430   1.237   1.606   1.581  0.2050 -3.2614 -2.4751
  108SOL    HW2  431   1.391   1.571   1.601 -1.6376  0.8738  2.4466
  108SOL     MW  432   1.320   1.620   1.622  0.2480 -0.0150  0.0281
  109SOL     OW  433   1.988   0.780   0.255  0.9209  0.4447 -0.0773
  109SOL    HW1  434   2.007   0.875   0.270 -2.4475  2.5477 -1.0806
  109SOL    HW2  435   2.021   0.731   0.334  0.3756  0.3629 -0.6753
  109SOL     MW  436   1.995   0.786   0.268  0.4045  0.7114 -0.2886
  110SOL     OW  437   0.374   1.868   0.630  0.6534  0.6127 -0.4681
  110SOL    HW1  438   0.444   1.805   0.638 -1.5721  3.1364  2.3848
  110SOL    HW2  439   0.410   1.938   0.572  0.2056  0.5478 -0.4455
  110SOL     MW  440   0.388   1.869   0.623  0.3007  0.9371 -0.0887
  111SOL     OW  441   0.803   0.895   1.485 -0.6011 -0.3393 -0.3056
  111SOL    HW1  442   0.798   0.893   1.385 -0.8747 -0.1124 -1.7403
  111SOL    HW2  443   0.773   0.813   1.518 -0.1365  1.1471  0.1626
  111SOL     MW  444   0.798   0.884   1.476 -0.5759 -0.1132 -0.4331
  112SOL     OW  445   1.292   1.117   1.633 -0.0393 -0.0376 -0.1961
  112SOL    HW1  446   1.227   1.189   1.632  0.4048 -0.1617 -0.0457
  112SOL    HW2  447   1.232   1.045   1.636  1.7179 -1.2710  0.4893
  112SOL     MW  448   1.276   1.117   1.633  0.2511 -0.2167 -0.0858
  113SOL     OW  449   1.269   3.072   1.739  0.3710 -0.0399 -0.4281
  113SOL    HW1  450   1.253   3.048   1.833 -3.2340  1.1324  0.8137
  113SOL    HW2  451   1.285   2.993   1.686 -1.0494 -3.4714  0.8202
  113SOL     MW  452   1.269   3.058   1.744 -0.2921 -0.3380 -0.0996
  114SOL     OW  453   0.272   2.846   1.933 -0.3465 -0.2993 -0.3176
  114SOL    HW1  454   0.310   2.912   1.985  1.7302  0.0766 -0.2103
  114SOL    HW2  455   0.287   2.870   1.844 -2.6854 -0.8081  0.8271
  114SOL     MW  456   0.279   2.858   1.928 -0.3811 -0.3168 -0.1524
  115SOL     OW  457   0.513   0.851   1.125 -0.4567  0.3643 -0.0574
  115SOL    HW1  458   0.496   0.755   1.137 -1.7682 -1.0119 -1.0977
  115SOL    HW2  459   0.465   0.899   1.198 -0.9249  0.5778  0.7671
  115SOL     MW  460   0.504   0.844   1.136 -0.6915  0.2109 -0.0859
  116SOL     OW  461   0.793   1.065   0.973 -0.2979 -0.3182  0.0460
  116SOL    HW1  462   0.838   1.100   0.895 -0.4568 -1.9769  2.7164
  116SOL    HW2  463   0.844   1.111   1.049 -1.2867 -0.4845  2.3814
  116SOL     MW  464   0.806   1.076   0.973 -0.4493 -0.5590  0.7065
  117SOL     OW  465   1.187   1.202   0.726 -0.2353 -0.1307 -0.0769
  117SOL    HW1  466   1.192   1.148   0.811 -0.5716  0.9096 -0.3614
  117SOL    HW2  467   1.187   1.293   0.759 -1.6355  0.8707  2.7952
  117SOL     MW  468   1.187   1.207   0.742 -0.4644  0.1387  0.2645
  118SOL     OW  469   3.033   2.960   1.661  0.0381 -0.0642 -0.6235
  118SOL    HW1  470   3.086   3.029   1.709  1.6135 -0.0233  3.0466
  118SOL    HW2  471   2.963   3.008   1.613  0.0155 -1.3083 -0.8062
  118SOL     MW  472   3.031   2.976   1.661  0.2430 -0.2230 -0.1634
  119SOL     OW  473   0.467   1.485   1.205 -0.3336  0.8368 -0.2756
  119SOL    HW1  474   0.518   1.549   1.152 -0.3820 -0.0615  0.0026
  119SOL    HW2  475   0.376   1.478   1.172  0.9318 -2.3991 -0.1028
  119SOL     MW  476   0.462   1.493   1.194 -0.1730  0.2914 -0.2161
  120SOL     OW  477   0.307   0.767   0.954  0.0391  0.2296 -0.1502
  120SOL    HW1  478   0.247   0.745   1.022  0.2720  1.7997 -0.9756
  120SOL    HW2  479   0.379   0.812   0.996 -1.4001  1.9490 -0.0733
  120SOL     MW  480   0.309   0.770   0.969 -0.1201  0.6636 -0.2490
  121SOL     OW  481   1.757   1.122   1.712  0.3982 -0.2638 -0.2872
  121SOL    HW1  482   1.661   1.143   1.728  1.9233 -1.6781 -2.3798
  121SOL    HW2  483   1.759   1.068   1.635  1.1480 -2.1382 -0.5868
  121SOL     MW  484   1.745   1.117   1.704  0.6984 -0.6977 -0.6028
  122SOL     OW  485   0.141   0.528   0.800  0.4316 -0.5106 -0.0851
  122SOL    HW1  486   0.168   0.450   0.751  0.2123 -1.9387  1.6123
  122SOL    HW2  487   0.227   0.571   0.823  0.9393 -0.6685  2.3903
  122SOL     MW  488   0.155   0.523   0.797  0.4696 -0.7199  0.4655
  123SOL     OW  489   1.901   1.137   0.502 -0.7204 -0.0235  0.2612
  123SOL    HW1  490   1.843   1.063   0.533  0.4877 -0.7343  1.0833
  123SOL    HW2  491   1.965   1.163   0.569 -0.2008  1.5969 -2.1114
  123SOL     MW  492   1.902   1.130   0.515 -0.4924  0.0965  0.0566
  124SOL     OW  493   0.632   0.571   0.935 -0.4031  0.2609 -0.5671
  124SOL    HW1  494   0.569   0.538   0.872 -2.4366 -1.3904  2.4377
  124SOL    HW2  495   0.643   0.670   0.926 -2.2797 -0.5608 -1.6121
  124SOL     MW  496   0.625   0.580   0.926 -0.9190 -0.0654 -0.3085
  125SOL     OW  497   0.660   1.778   1.719  0.6297 -0.1817  0.3744
  125SOL    HW1  498   0.603   1.703   1.692  1.4041  1.7369 -1.0021
  125SOL    HW2  499   0.611   1.860   1.696 -2.1598  2.9244 -2.2079
  125SOL     MW  500   0.646   1.779   1.713  0.3639  0.4813 -0.1479
  126SOL     OW  501   2.106   1.588   1.960  0.4582  0.0345 -0.0577
  126SOL    HW1  502   2.171   1.661   1.960  1.8490 -0.5760  1.4352
  126SOL    HW2  503   2.155   1.511   1.988 -1.6480 -0.7445 -1.5326
  126SOL     MW  504   2.121   1.587   1.964  0.3638 -0.1488 -0.0554
  127SOL     OW  505   0.608   0.793   1.828 -0.5066  0.1535  0.4799
  127SOL    HW1  506   0.687   0.748   1.861  0.2398 -1.7593 -0.7945
  127SOL    HW2  507   0.589   0.872   1.880  0.1807  1.6111  0.2969
  127SOL     MW  508   0.616   0.798   1.839 -0.3174  0.0934  0.2876
  128SOL     OW  509   1.732   0.724   2.916 -0.5755 -0.1728 -0.4495
  128SOL    HW1  510   1.777   0.705   2.834 -0.3887  0.2248  1.8613
  128SOL    HW2  511   1.741   0.820   2.925 -2.2572  1.3198  1.9468
  128SOL     MW  512   1.739   0.734   2.906 -0.7727  0.0766  0.1715
  129SOL     OW  513   1.600   0.945   0.177  0.8087 -0.2762 -0.4633
  129SOL    HW1  514   1.548   0.864   0.165 -2.1248 -0.2652 -0.6995
  129SOL    HW2  515   1.643   0.915   0.258  0.6489 -0.9323  0.3100
  129SOL     MW  516   1.599   0.930   0.186  0.4006 -0.3613 -0.3925
  130SOL     OW  517   0.744   1.391   0.320 -0.3027  0.0155  0.1338
  130SOL    HW1  518   0.778   1.375   0.410  2.2888 -0.4339 -2.0928
  130SOL    HW2  519   0.805   1.457   0.283  1.0404  1.2702 -2.4550
  130SOL     MW  520   0.756   1.397   0.327  0.2165  0.1218 -0.5015
  131SOL     OW  521   3.047   0.836   0.034  0.3337  0.4032  0.1830
  131SOL    HW1  522   3.028   0.879  -0.045  0.9757  0.7340  2.9559
  131SOL    HW2  523   3.143   0.823   0.029 -1.3781  0.0343 -1.3495
  131SOL     MW  524   3.057   0.840   0.023  0.1925  0.3982  0.3466
  132SOL     OW  525   2.670   0.137   1.338  0.0721  0.3425  0.4151
  132SOL    HW1  526   2.691   0.167   1.242 -0.2030  0.8533 -1.0923
  132SOL    HW2  527   2.600   0.072   1.330 -1.0034  0.2385 -0.9430
  132SOL     MW  528   2.664   0.133   1.325 -0.1061  0.3962  0.0370
  133SOL     OW  529   1.054   0.160   1.707 -0.2037 -0.5379  0.8150
  133SOL    HW1  530   1.108   0.082   1.694  1.8726  0.3564 -2.0832
  133SOL    HW2  531   1.045   0.166   1.803  1.4035  1.6456  0.4551
  133SOL     MW  532   1.060   0.150   1.718  0.2823 -0.1318  0.3851
  134SOL     OW  533   1.422   2.534   1.406  0.1696  0.2469 -0.0852
  134SOL    HW1  534   1.365   2.605   1.391  0.0950  1.0186  1.8544
  134SOL    HW2  535   1.444   2.541   1.500  1.6320 -0.0725 -0.2852
  134SOL     MW  536   1.417   2.544   1.417  0.3527  0.3065  0.1443
  135SOL     OW  537   2.998   0.996   2.898  0.3744  0.1297 -0.5280
  135SOL    HW1  538   3.082   1.055   2.901  1.0424  2.0691 -1.1136
  135SOL    HW2  539   2.924   1.062   2.903  2.3165  0.7488  0.5634
  135SOL     MW  540   2.999   1.012   2.899  0.7188  0.4673 -0.4612
  136SOL     OW  541   0.177   2.014   0.796  0.2390  0.2859 -0.2340
  136SOL    HW1  542   0.087   1.975   0.783 -1.4607 -0.7525  0.4157
  136SOL    HW2  543   0.234   1.978   0.729 -0.6006 -0.8620  1.1098
  136SOL     MW  544   0.172   2.004   0.785 -0.0960 -0.0026  0.0290
  137SOL     OW  545   0.694   2.019   0.529 -0.2070 -0.3740 -0.2321
  137SOL    HW1  546   0.684   2.002   0.624 -0.0129 -2.0328  1.4833
  137SOL    HW2  547   0.606   2.049   0.503 -0.3716  0.8012 -2.0262
  137SOL     MW  548   0.681   2.020   0.538 -0.2031 -0.4378 -0.2425
  138SOL     OW  549   0.502   0.589   1.167 -0.1036 -0.1413 -0.0327
  138SOL    HW1  550   0.409   0.567   1.153 -2.0563  2.2115  2.5843
  138SOL    HW2  551   0.549   0.576   1.081  0.7240 -0.3057 -0.7038
  138SOL     MW  552   0.496   0.584   1.154 -0.2520  0.1474  0.2240
  139SOL     OW  553   2.816   0.600   1.250  0.0829 -0.3725 -0.5540
  139SOL    HW1  554   2.875   0.529   1.283  1.9793 -1.8366 -0.6673
  139SOL    HW2  555   2.847   0.676   1.302  3.2972 -1.6203 -2.6542
  139SOL     MW  556   2.828   0.601   1.261  0.7572 -0.7303 -0.8461
  140SOL     OW  557   0.940   0.448   2.051  0.1175  0.7715 -0.0986
  140SOL    HW1  558   0.970   0.381   1.996  0.0439  3.2534 -0.3615
  140SOL    HW2  559   0.967   0.430   2.142  0.1436 -2.4541 -2.5100
  140SOL     MW  560   0.948   0.437   2.056  0.1112  0.6734 -0.4514
  141SOL     OW  561   1.031   0.625   1.761 -0.5234 -0.5750  0.1552
  141SOL    HW1  562   1.060   0.543   1.716 -1.8358  0.4527 -1.4134
  141SOL    HW2  563   1.103   0.692   1.757 -0.3827 -0.0326 -2.6780
  141SOL     MW  564   1.045   0.623   1.755 -0.6780 -0.3679 -0.4256
  142SOL     OW  565   0.900   1.163   0.750 -0.5131 -0.2030 -0.4009
  142SOL    HW1  566   0.859   1.107   0.678  0.7348  0.2594  1.3750
  142SOL    HW2  567   0.995   1.164   0.733 -1.3027  0.7791  0.0116
  142SOL     MW  568   0.907   1.156   0.738 -0.4527 -0.0124 -0.1122
  143SOL     OW  569   1.827   0.754   1.062 -0.3176  0.1846  0.5015
  143SOL    HW1  570   1.880   0.737   0.987 -1.9442 -0.5637 -0.8799
  143SOL    HW2  571   1.735   0.731   1.041  0.8875  0.3725 -0.5552
  143SOL     MW  572   1.822   0.749   1.050 -0.3732  0.1106  0.1798
  144SOL     OW  573   0.292   1.286   1.643  0.1953 -0.0361  0.4735
  144SOL    HW1  574   0.368   1.226   1.626  1.9692  2.7167 -1.9340
  144SOL    HW2  575   0.287   1.287   1.741  0.6499  2.1803 -0.2000
  144SOL     MW  576   0.301   1.278   1.654  0.4894  0.6196  0.0670
  145SOL     OW  577   0.250   0.495   1.180  0.3127 -0.2876  0.1708
  145SOL    HW1  578   0.260   0.407   1.218 -0.1991  0.6951 -0.2826
  145SOL    HW2  579   0.161   0.502   1.126  2.4126  3.7974  0.5245
  145SOL     MW  580   0.239   0.484   1.178  0.5223  0.3810  0.1577
  146SOL     OW  581   0.856   1.978   1.405 -0.1863 -0.0512  0.2457
  146SOL    HW1  582   0.891   2.006   1.317  0.2475 -0.2189 -1.4571
  146SOL    HW2  583   0.758   1.966   1.397  0.5173  0.2443 -0.8322
  146SOL     MW  584   0.848   1.980   1.392 -0.0362 -0.0343 -0.1212
  147SOL     OW  585   0.386   0.447   3.007 -0.4294  0.2052  0.4981
  147SOL    HW1  586   0.327   0.456   3.080 -0.1498  1.2017  2.1548
  147SOL    HW2  587   0.370   0.525   2.952 -1.7873 -0.9145 -1.1257
  147SOL     MW  588   0.376   0.459   3.010 -0.5717  0.1889  0.5024
  148SOL     OW  589   0.126   0.949   1.315  0.1008  0.4249  0.1510
  148SOL    HW1  590   0.219   0.973   1.307 -2.8524 -0.7683 -4.1322
  148SOL    HW2  591   0.108   0.997   1.394 -2.3491 -0.7727  0.3598
  148SOL     MW  592   0.136   0.958   1.324 -0.6121  0.1095 -0.3866
  149SOL     OW  593   1.410   1.155   1.365  0.2580 -0.6242  0.4978
  149SOL    HW1  594   1.397   1.153   1.461  2.7633  0.5906 -0.6025
  149SOL    HW2  595   1.477   1.220   1.347 -0.6101 -2.1682  0.5659
  149SOL     MW  596   1.417   1.163   1.376  0.4740 -0.6676  0.3616
  150SOL     OW  597   1.753   1.368   0.758 -0.6233  0.6265 -0.2052
  150SOL    HW1  598   1.781   1.287   0.806 -0.6311  2.5605 -0.8133
  150SOL    HW2  599   1.822   1.424   0.793 -1.1180 -1.1960 -2.9714
  150SOL     MW  600   1.766   1.365   0.769 -0.6896  0.6412 -0.6504
  151SOL     OW  601   1.665   1.785   0.826  0.0484 -0.0188 -0.4107
  151SOL    HW1  602   1.661   1.790   0.732  0.2589 -2.7656 -2.6792
  151SOL    HW2  603   1.604   1.711   0.855 -1.6406  1.4098  0.5523
  151SOL     MW  604   1.657   1.776   0.818 -0.1467 -0.1927 -0.5829
  152SOL     OW  605   0.783   1.411   1.567  0.0916  0.0903  0.7920
  152SOL    HW1  606   0.792   1.318   1.581 -0.7235  1.8411  2.8986
  152SOL    HW2  607   0.843   1.450   1.633  0.3814  0.3564  1.1523
  152SOL     MW  608   0.792   1.404   1.578  0.0223  0.3564  1.1175
  153SOL     OW  609   2.622   1.222   0.810  0.1221 -0.1058 -0.0232
  153SOL    HW1  610   2.684   1.188   0.735  0.2940 -1.0177 -2.5818
  153SOL    HW2  611   2.554   1.159   0.809  0.4185 -1.6828  1.3147
  153SOL     MW  612   2.621   1.209   0.800  0.1839 -0.4342 -0.1843
  154SOL     OW  613   0.177   1.765   1.711 -0.2042 -0.2875  0.0646
  154SOL    HW1  614   0.135   1.682   1.714  2.1876  1.0322 -2.1846
  154SOL    HW2  615   0.267   1.746   1.697 -1.2940 -0.3978  1.9818
  154SOL     MW  616   0.183   1.752   1.710 -0.0324 -0.1279  0.0208
  155SOL     OW  617   1.183   0.648   0.238 -0.4710 -0.0573 -0.0780
  155SOL    HW1  618   1.174   0.633   0.330 -0.1434  0.2887 -2.5110
  155SOL    HW2  619   1.167   0.745   0.233  2.1271  2.3036  0.5154
  155SOL     MW  620   1.179   0.659   0.250 -0.0850  0.2999 -0.3207
  156SOL     OW  621   1.508   3.013   1.092  0.3004 -0.5580 -0.2670
  156SOL    HW1  622   1.576   3.066   1.135  0.4161  0.6848 -0.1614
  156SOL    HW2  623   1.530   2.922   1.112 -0.0235 -2.7373 -0.2246
  156SOL     MW  624   1.520   3.008   1.101  0.2729 -0.6816 -0.2475
  157SOL     OW  625   1.454   1.175   0.106 -0.7588  0.5255 -0.1314
  157SOL    HW1  626   1.486   1.083   0.142  1.0245 -1.4034  2.6477
  157SOL    HW2  627   1.540   1.216   0.104  0.7187 -1.1586 -2.0128
  157SOL     MW  628   1.470   1.168   0.111 -0.3286  0.0488 -0.0129
  158SOL     OW  629   0.462   1.613   2.225 -1.1925  0.2841  0.1773
  158SOL    HW1  630   0.482   1.681   2.160  1.2233 -0.8588  0.3255
  158SOL    HW2  631   0.391   1.651   2.274  2.0203 -0.6348  0.1664
  158SOL     MW  632   0.455   1.627   2.223 -0.4498  0.0121  0.1954
  159SOL     OW  633   1.268   1.684   0.467 -0.3742  0.4697 -0.2135
  159SOL    HW1  634   1.229   1.620   0.401 -2.2088  0.5446 -0.8449
  159SOL    HW2  635   1.193   1.706   0.521  1.0300 -1.1390 -1.7110
  159SOL     MW  636   1.253   1.678   0.465 -0.4310  0.2674 -0.4944
  160SOL     OW  637   0.519   1.113   1.614 -0.0177  0.7458 -0.2878
  160SOL    HW1  638   0.500   1.018   1.597 -1.7068  0.4995 -0.4941
  160SOL    HW2  639   0.612   1.117   1.625 -1.0716 -1.7981 -2.4342
  160SOL     MW  640   0.529   1.101   1.613 -0.3796  0.3777 -0.5982
  161SOL     OW  641   0.506   2.276   2.545  0.0689  0.0741 -0.0017
  161SOL    HW1  642   0.416   2.292   2.579  1.4433  0.6781 -0.5986
  161SOL    HW2  643   0.503   2.202   2.484 -1.2239 -1.2094 -0.5828
  161SOL     MW  644   0.494   2.269   2.541  0.0796 -0.0156 -0.1571
  162SOL     OW  645   1.078   1.785   1.909  0.4927  0.0498 -0.0003
  162SOL    HW1  646   1.103   1.860   1.970  1.8833  0.3452 -1.5581
  162SOL    HW2  647   0.982   1.767   1.908  1.4626  0.2647 -4.5963
  162SOL     MW  648   1.069   1.793   1.917  0.8041  0.1171 -0.8122
  163SOL     OW  649   2.114   3.056   0.857  0.2750 -0.7466 -0.1488
  163SOL    HW1  650   2.109   3.128   0.785 -1.2072 -0.5271 -4.0356
  163SOL    HW2  651   2.088   2.974   0.817 -1.4215  0.5579  0.6338
  163SOL     MW  652   2.110   3.054   0.842 -0.1444 -0.5455 -0.5584
  164SOL     OW  653   0.327   0.211   0.808 -0.0846  0.0277  0.6189
  164SOL    HW1  654   0.251   0.202   0.869  0.5515 -0.6213 -0.3953
  164SOL    HW2  655   0.331   0.134   0.760 -0.1510  0.6185  0.5297
  164SOL     MW  656   0.318   0.200   0.810 -0.0095  0.0200  0.4733
  165SOL     OW  657   1.364   1.308   0.356 -0.0480 -0.1506  0.1336
  165SOL    HW1  658   1.353   1.227   0.406 -2.3540  3.9816  0.9711
  165SOL    HW2  659   1.409   1.288   0.272 -1.9703 -0.4948  0.4296
  165SOL     MW  660   1.368   1.295   0.351 -0.6059  0.3492  0.2831
  166SOL     OW  661   0.517   1.203   0.990  0.0294 -0.0741  0.1185
  166SOL    HW1  662   0.489   1.221   1.077  1.2710 -1.4321 -2.0727
  166SOL    HW2  663   0.605   1.162   0.996 -0.6698  0.3299 -3.8455
  166SOL     MW  664   0.525   1.200   1.002  0.1010 -0.2000 -0.6936
  167SOL     OW  665   0.808   1.082   0.280  0.3406 -0.1863  0.1716
  167SOL    HW1  666   0.817   1.175   0.287  0.8946  3.1807 -0.1459
  167SOL    HW2  667   0.891   1.073   0.240 -1.9816 -3.0152 -2.3226
  167SOL     MW  668   0.820   1.093   0.276  0.1073 -0.1153 -0.1994
  168SOL     OW  669   1.691   1.654   3.029 -0.0401 -0.0005  0.0646
  168SOL    HW1  670   1.625   1.723   3.031  2.4004  3.1188  1.5014
  168SOL    HW2  671   1.651   1.581   2.984  2.4062 -1.4873  1.3901
  168SOL     MW  672   1.677   1.654   3.023  0.6046  0.2149  0.4290
  169SOL     OW  673   0.393   0.993   1.332 -0.3653  0.0942 -0.4971
  169SOL    HW1  674   0.411   0.934   1.408 -3.0943 -0.0721  0.1664
  169SOL    HW2  675   0.443   1.077   1.341  2.3219 -1.1430 -0.3124
  169SOL     MW  676   0.402   0.996   1.343 -0.3708 -0.0910 -0.3852
  170SOL     OW  677   1.084   1.567   1.519 -0.8465  0.3503  0.0046
  170SOL    HW1  678   1.023   1.638   1.537  2.4965  0.0246  2.1611
  170SOL    HW2  679   1.121   1.581   1.433 -1.1652  0.7092 -1.2540
  170SOL     MW  680   1.081   1.578   1.510 -0.4475  0.3547  0.1231
  171SOL     OW  681   0.547   1.412   0.625  0.5201 -0.0516  0.3356
  171SOL    HW1  682   0.522   1.422   0.719 -0.3121 -2.1023  1.3120
  171SOL    HW2  683   0.552   1.314   0.608 -2.0866 -0.8730 -2.3335
  171SOL     MW  684   0.544   1.400   0.635  0.0664 -0.4305  0.1123
  172SOL     OW  685   0.889   0.285   1.285 -0.1416 -0.1850  0.0081
  172SOL    HW1  686   0.899   0.266   1.188  4.1204  0.0267 -2.1960
  172SOL    HW2  687   0.805   0.327   1.296  0.3213 -3.3332  1.4164
  172SOL     MW  688   0.879   0.288   1.273  0.4818 -0.5724 -0.0969
  173SOL     OW  689   0.449   1.728   0.315  0.2440  0.8059 -0.9667
  173SOL    HW1  690   0.440   1.650   0.257 -1.9561  1.2003 -0.7029
  173SOL    HW2  691   0.504   1.698   0.386 -0.9622  0.6451  2.4125
  173SOL     MW  692   0.455   1.713   0.317 -0.2054  0.8367 -0.4860
  174SOL     OW  693   1.858   0.920   1.506 -0.1938 -0.5651 -0.6611
  174SOL    HW1  694   1.789   0.857   1.535 -0.5628 -1.2326  0.2605
  174SOL    HW2  695   1.834   0.951   1.419 -1.1332  1.1528 -2.4592
  174SOL     MW  696   1.845   0.915   1.499 -0.3665 -0.4265 -0.7768
  175SOL     OW  697   0.500   1.463   0.223  0.1922  0.4077 -0.2384
  175SOL    HW1  698   0.425   1.395   0.226 -1.5658 -1.8603  0.5295
  175SOL    HW2  699   0.566   1.411   0.256 -2.4530 -1.5585  1.1953
  175SOL     MW  700   0.499   1.447   0.228 -0.3888 -0.1510  0.0521
  176SOL     OW  701   0.199   1.492   1.172  0.0285  0.5168  0.2569
  176SOL    HW1  702   0.167   1.414   1.116 -0.4020 -2.8438  0.4074
  176SOL    HW2  703   0.125   1.494   1.239  0.5616 -2.9052 -2.7619
  176SOL     MW  704   0.185   1.482   1.173  0.0420 -0.3781 -0.1215
  177SOL     OW  705   0.644   0.421   1.341 -0.9542 -0.3612 -0.3285
  177SOL    HW1  706   0.615   0.491   1.276 -1.4095 -4.1694  1.0600
  177SOL    HW2  707   0.609   0.437   1.428  0.1799 -2.6787 -0.2157
  177SOL     MW  708   0.636   0.432   1.344 -0.8647 -1.1694 -0.1305
  178SOL     OW  709   3.062   0.583   2.945  0.1584 -0.0108 -0.0153
  178SOL    HW1  710   2.978   0.587   2.985  0.3715  0.5617 -0.6968
  178SOL    HW2  711   3.036   0.542   2.858 -0.8436  0.5218 -0.7151
  178SOL     MW  712   3.047   0.578   2.939  0.0543  0.1350 -0.1976
  179SOL     OW  713   1.583   1.388   1.302 -0.3719  0.3426  0.7274
  179SOL    HW1  714   1.569   1.401   1.397  0.8974  1.7189 -2.0463
  179SOL    HW2  715   1.675   1.375   1.282 -1.9848  0.2436  0.4369
  179SOL     MW  716   1.593   1.388   1.312 -0.4173  0.5111  0.3231
  180SOL     OW  717   3.002   0.245   0.456 -0.5698  0.3228  0.4257
  180SOL    HW1  718   2.947   0.261   0.376 -1.3243 -0.3767 -0.6742
  180SOL    HW2  719   3.089   0.291   0.433  0.7023  0.7461 -0.5303
  180SOL     MW  720   3.006   0.253   0.442 -0.5015  0.2864  0.1544
  181SOL     OW  721   1.114   1.337   3.083 -0.4395  0.1783 -0.3518
  181SOL    HW1  722   1.173   1.404   3.108 -1.4580 -1.9740 -0.0909
  181SOL    HW2  723   1.163   1.274   3.031 -1.3656  2.5547 -2.7550
  181SOL     MW  724   1.128   1.338   3.079 -0.6961  0.2078 -0.6345
  182SOL     OW  725   0.454   0.842   1.567 -0.0036 -0.3624 -0.1857
  182SOL    HW1  726   0.357   0.853   1.602  1.0727  0.2283  1.3349
  182SOL    HW2  727   0.505   0.828   1.647 -4.5946 -0.3442  3.2404
  182SOL     MW  728   0.448   0.841   1.582 -0.4673 -0.2820  0.4670
  183SOL     OW  729   1.588   1.612   1.160 -0.2150  1.0219  0.6807
  183SOL    HW1  730   1.587   1.686   1.217  3.5609  0.7903  1.5057
  183SOL    HW2  731   1.593   1.541   1.223 -0.9862  1.4386  1.6337
  183SOL     MW  732   1.588   1.613   1.176  0.1815  1.0463  0.9153
  184SOL     OW  733   0.840   0.685   1.948  0.1462  0.2895 -0.5791
  184SOL    HW1  734   0.912   0.697   1.890 -2.4522  0.1118 -0.3176
  184SOL    HW2  735   0.860   0.596   1.986  1.3632  2.3307  0.1118
  184SOL     MW  736   0.852   0.675   1.945 -0.0361  0.5353 -0.4534
  185SOL     OW  737   1.154   0.971   1.910 -0.4717  0.2265 -0.0489
  185SOL    HW1  738   1.164   0.883   1.961 -2.5994 -0.0607  0.5972
  185SOL    HW2  739   1.191   1.033   1.967 -1.0293 -2.1870 -0.2422
  185SOL     MW  740   1.160   0.968   1.924 -0.8260 -0.1298  0.0109
  186SOL     OW  741   0.376   1.653   1.409  0.2903 -1.0088 -0.2409
  186SOL    HW1  742   0.393   1.601   1.331 -1.2161  2.1800  0.7561
  186SOL    HW2  743   0.311   1.616   1.465  0.4857  0.7472  2.4594
  186SOL     MW  744   0.370   1.641   1.406  0.1173 -0.3564  0.2469
  187SOL     OW  745   1.482   0.715   1.330  0.3420  0.1759 -0.0614
  187SOL    HW1  746   1.503   0.705   1.423  5.9075 -1.4007 -2.1096
  187SOL    HW2  747   1.385   0.717   1.320  1.6391  0.2466  1.1964
  187SOL     MW  748   1.472   0.714   1.341  1.2475 -0.0228 -0.1657
  188SOL     OW  749   1.886   1.163   0.910  0.0446 -0.3077  0.3414
  188SOL    HW1  750   1.882   1.156   1.005  0.4708 -1.8432  0.5432
  188SOL    HW2  751   1.921   1.084   0.868 -0.2170 -1.1783  2.6325
  188SOL     MW  752   1.890   1.152   0.917  0.0663 -0.6251  0.6703
  189SOL     OW  753   0.667   0.838   0.866  0.4506  0.2841  0.5702
  189SOL    HW1  754   0.583   0.888   0.841  1.4638 -1.7134  2.2108
  189SOL    HW2  755   0.738   0.901   0.893  0.5838 -2.8300 -0.2169
  189SOL     MW  756   0.665   0.853   0.866  0.6018 -0.3903  0.6828
  190SOL     OW  757   1.914   0.238   2.180 -0.3379  0.0651 -0.4009
  190SOL    HW1  758   1.962   0.230   2.262 -0.0568 -2.3156  0.3548
  190SOL    HW2  759   1.980   0.278   2.116  1.2071  0.1609  2.0222
  190SOL     MW  760   1.929   0.242   2.182 -0.0969 -0.2364  0.0185
  191SOL     OW  761   1.502   0.948   1.186  0.7096 -0.1375 -0.4577
  191SOL    HW1  762   1.447   1.011   1.234  0.3231 -0.5030 -3.7673
  191SOL    HW2  763   1.491   0.867   1.241 -1.5763 -0.1355 -1.6094
  191SOL     MW  764   1.493   0.946   1.200  0.3570 -0.1855 -1.0463
  192SOL     OW  765   0.596   2.089   2.760 -0.5555  0.4997 -0.5270
  192SOL    HW1  766   0.574   2.123   2.676  0.9696 -1.0859  0.9542
  192SOL    HW2  767   0.648   2.004   2.753 -0.0848 -1.6766  2.1697
  192SOL     MW  768   0.600   2.082   2.748 -0.2922  0.0034  0.0242
  193SOL     OW  769   0.946   1.538   0.722 -0.5711  0.8512  0.3762
  193SOL    HW1  770   0.890   1.562   0.792  0.8135  3.0178 -0.3008
  193SOL    HW2  771   0.897   1.457   0.688  0.0033 -1.2137 -1.5573
  193SOL     MW  772   0.932   1.530   0.727 -0.3126  0.8646  0.0318
  194SOL     OW  773   0.530   1.490   0.935 -0.2472  0.0341 -0.5800
  194SOL    HW1  774   0.535   1.406   0.984  0.2197 -1.7404  0.4641
  194SOL    HW2  775   0.437   1.502   0.928  0.5222  0.9647  0.4818
  194SOL     MW  776   0.518   1.480   0.941 -0.0841 -0.0772 -0.3022
  195SOL     OW  777   1.297   1.171   2.958  0.1338  0.2232 -0.4057
  195SOL    HW1  778   1.336   1.175   3.044  0.8998 -0.7456 -1.8396
  195SOL    HW2  779   1.225   1.108   2.972  1.4877 -1.2293  0.0054
  195SOL     MW  780   1.293   1.163   2.971  0.4135 -0.0963 -0.5407
  196SOL     OW  781   2.183   0.998   0.580 -0.0374 -0.1869 -0.7297
  196SOL    HW1  782   2.175   0.993   0.490  1.0664  2.3197 -0.0499
  196SOL    HW2  783   2.201   1.094   0.598  3.0029  1.7722  0.7716
  196SOL     MW  784   2.184   1.010   0.571  0.5094  0.4023 -0.4419
  197SOL     OW  785   0.666   1.328   2.100 -0.0103  1.1804 -0.0437
  197SOL    HW1  786   0.665   1.231   2.066  0.7312  0.0860  2.3359
  197SOL    HW2  787   0.617   1.383   2.036  1.1585  1.1449  0.7835
  197SOL     MW  788   0.660   1.323   2.087  0.2417  1.0313  0.3794
  198SOL     OW  789   2.931   1.381   1.051 -0.4472  0.4373 -0.2505
  198SOL    HW1  790   2.896   1.433   0.980  0.3225 -2.2968 -1.5697
  198SOL    HW2  791   2.858   1.328   1.075 -1.2360  1.8715  0.9594
  198SOL     MW  792   2.917   1.381   1.045 -0.4497  0.2658 -0.2649
  199SOL     OW  793   0.510   1.408   1.885  0.7386 -0.0929 -0.0259
  199SOL    HW1  794   0.441   1.346   1.895  0.4689 -0.8349 -0.3270
  199SOL    HW2  795   0.577   1.354   1.840  0.4638 -0.5302  1.5573
  199SOL     MW  796   0.510   1.393   1.881  0.6667 -0.2485  0.1433
  200SOL     OW  797   1.903   2.912   1.384 -0.2162 -0.5304  0.8069
  200SOL    HW1  798   1.938   2.917   1.291 -0.1189  0.5148 -3.1173
  200SOL    HW2  799   1.816   2.956   1.379  2.2002  0.4879 -0.2570
  200SOL     MW  800   1.896   2.919   1.371  0.1155 -0.2581  0.1487
  201SOL     OW  801   1.019   0.314   0.801 -0.3752  0.8698 -0.2997
  201SOL    HW1  802   1.016   0.226   0.773 -1.9112  0.9275  0.7823
  201SOL    HW2  803   1.116   0.333   0.787  0.0470  2.4834  0.5069
  201SOL     MW  804   1.032   0.305   0.795 -0.5221  1.0903 -0.0505
  202SOL     OW  805   1.522   1.560   0.898 -0.1916  0.1499 -0.1982
  202SOL    HW1  806   1.537   1.470   0.862  0.4242  0.5860 -0.4647
  202SOL    HW2  807   1.561   1.569   0.987  0.5590  2.2238 -1.0729
  202SOL     MW  808   1.529   1.549   0.905 -0.0113  0.4811 -0.3488
  203SOL     OW  809   2.998   0.453   1.383  0.3158  0.2007  0.4936
  203SOL    HW1  810   3.043   0.367   1.368  0.9079  3.4295  1.4347
  203SOL    HW2  811   3.066   0.507   1.422 -0.2581 -0.3255  3.1619
  203SOL     MW  812   3.013   0.449   1.386  0.3182  0.5573  0.9698
  204SOL     OW  813   1.013   1.769   0.575 -0.3449 -0.0796  0.5162
  204SOL    HW1  814   1.002   1.693   0.634  0.2859 -1.9510  1.5556
  204SOL    HW2  815   0.937   1.769   0.517  1.1286  2.7535 -0.3649
  204SOL     MW  816   1.002   1.759   0.575 -0.0673  0.0473  0.5371
  205SOL     OW  817   1.385   0.024   1.327  0.4453 -0.5336  0.0748
  205SOL    HW1  818   1.390  -0.008   1.240 -4.4536 -0.2101  0.2629
  205SOL    HW2  819   1.387   0.120   1.310 -4.5947 -0.6591 -0.0999
  205SOL     MW  820   1.386   0.033   1.313 -0.8660 -0.5074  0.0765
  206SOL     OW  821   0.479   3.040   1.400  0.3287  0.4944 -0.4301
  206SOL    HW1  822   0.446   3.026   1.307  2.2513  2.9704 -0.7384
  206SOL    HW2  823   0.518   2.956   1.431  0.5079 -0.1183  0.2500
  206SOL     MW  824   0.480   3.027   1.391  0.6060  0.7403 -0.3810
  207SOL     OW  825   0.917   1.575   0.203  0.6997  0.9777 -0.2142
  207SOL    HW1  826   0.930   1.659   0.157 -0.7955  1.7824 -1.7437
  207SOL    HW2  827   1.008   1.545   0.230 -1.0722 -0.3202  1.0919
  207SOL     MW  828   0.931   1.582   0.200  0.2686  0.9126 -0.2437
  208SOL     OW  829   0.748   1.627   1.334  0.0417  0.3204 -0.4452
  208SOL    HW1  830   0.801   1.638   1.411  0.3003  0.1632 -1.1232
  208SOL    HW2  831   0.790   1.575   1.265  0.3344  1.0796  1.4422
  208SOL     MW  832   0.761   1.622   1.335  0.1144  0.3998 -0.2856
  209SOL     OW  833   1.565   0.467   2.929  0.0538  0.6997 -0.2025
  209SOL    HW1  834   1.581   0.563   2.935  0.3314  2.2649 -2.0158
  209SOL    HW2  835   1.639   0.428   2.874  0.8394 -1.1140 -2.3303
  209SOL     MW  836   1.577   0.475   2.923  0.1941  0.6669 -0.7225
  210SOL     OW  837   1.502   1.284   0.763 -0.6411  0.3182 -0.1926
  210SOL    HW1  838   1.594   1.310   0.754  0.7718  2.2260 -0.6871
  210SOL    HW2  839   1.455   1.342   0.704  2.1605  1.0851 -0.5273
  210SOL     MW  840   1.508   1.295   0.754 -0.0850  0.6711 -0.3020
  211SOL     OW  841   1.727   0.234   0.963  0.0242 -0.0696 -0.0282
  211SOL    HW1  842   1.697   0.286   0.890 -1.1833  1.2295  0.2654
  211SOL    HW2  843   1.809   0.279   0.987 -0.1805  2.1409  0.5824
  211SOL     MW  844   1.734   0.247   0.957 -0.1622  0.3934  0.0911
  212SOL     OW  845   0.283   1.043   0.163 -0.2857  0.3292  0.3524
  212SOL    HW1  846   0.205   0.993   0.195 -0.1247 -2.5024 -0.4856
  212SOL    HW2  847   0.340   0.975   0.127  1.4910 -1.1838  2.6242
  212SOL     MW  848   0.280   1.027   0.162 -0.0300 -0.2441  0.5416
  213SOL     OW  849   0.520   1.717   3.022 -0.3097 -0.1888 -0.2246
  213SOL    HW1  850   0.521   1.795   3.086 -0.3583  1.4618 -1.2358
  213SOL    HW2  851   0.562   1.758   2.943 -3.7000  0.5136 -0.5273
  213SOL     MW  852   0.526   1.733   3.020 -0.7635  0.1217 -0.3979
  214SOL     OW  853   0.664   0.365   2.152  0.2984  0.1505  0.4130
  214SOL    HW1  854   0.576   0.417   2.164 -0.2368  1.0887  0.1687
  214SOL    HW2  855   0.675   0.373   2.058 -0.4454 -1.5031 -1.6621
  214SOL     MW  856   0.654   0.373   2.141  0.1297  0.0561  0.1069
  215SOL     OW  857   0.490   0.716   2.659  0.3323 -0.5054 -0.0429
  215SOL    HW1  858   0.480   0.688   2.569 -0.8247 -3.7427 -3.5890
  215SOL    HW2  859   0.416   0.672   2.706  0.5297  2.9248  3.3584
  215SOL     MW  860   0.479   0.706   2.653  0.2057 -0.4799 -0.0620
  216SOL     OW  861   2.950   3.012   2.705  0.6131 -0.4637  0.3395
  216SOL    HW1  862   2.894   3.059   2.766 -1.6244  1.9540  1.4748
  216SOL    HW2  863   3.018   3.076   2.692  1.2392 -1.1871  1.4483
  216SOL     MW  864   2.952   3.026   2.711  0.4005 -0.2401  0.6356
  217SOL     OW  865   1.046   1.111   0.133  0.3435  0.7034  0.0228
  217SOL    HW1  866   1.086   1.051   0.072  0.4225 -0.0314  0.2730
  217SOL    HW2  867   1.091   1.189   0.105  0.1116 -1.4999 -0.2250
  217SOL     MW  868   1.057   1.114   0.121  0.3233  0.3158  0.0231
  218SOL     OW  869   0.924   1.347   2.581 -0.0127  0.5677  0.7255
  218SOL    HW1  870   0.920   1.265   2.630  3.1088  1.5639 -0.0216
  218SOL    HW2  871   0.996   1.401   2.619 -1.2348  1.1546  1.3442
  218SOL     MW  872   0.933   1.343   2.592  0.2379  0.7765  0.7085
  219SOL     OW  873   1.118   0.356   2.631 -0.3413 -0.1265  0.0775
  219SOL    HW1  874   1.188   0.421   2.645  1.1339  2.5182 -2.3256
  219SOL    HW2  875   1.038   0.404   2.613  2.8421  0.0803 -1.5217
  219SOL     MW  876   1.117   0.371   2.631  0.2733  0.2497 -0.4506
  220SOL     OW  877   1.751   0.458   2.212  0.1250  0.0669  0.2549
  220SOL    HW1  878   1.674   0.462   2.149 -2.0940 -1.0979  1.6658
  220SOL    HW2  879   1.799   0.385   2.180 -1.5879  0.8662 -1.2065
  220SOL     MW  880   1.747   0.449   2.199 -0.3937  0.0187  0.2483
  221SOL     OW  881   0.354   1.306   2.942 -0.0462  0.1796 -0.3758
  221SOL    HW1  882   0.428   1.248   2.925 -0.2828 -0.1091  1.6178
  221SOL    HW2  883   0.366   1.360   2.862 -2.9380  1.3408 -0.8440
  221SOL     MW  884   0.365   1.306   2.930 -0.4589  0.2947 -0.1745
  222SOL     OW  885   0.418   0.980   2.674  0.5873  0.2273 -0.1796
  222SOL    HW1  886   0.360   0.991   2.600 -0.8830 -1.7716  2.5077
  222SOL    HW2  887   0.466   0.897   2.668 -0.2457  1.3354 -2.9380
  222SOL     MW  888   0.416   0.970   2.663  0.2834  0.1098 -0.1890
  223SOL     OW  889   0.077   2.029   2.505  0.0907 -0.1961 -0.1504
  223SOL    HW1  890   0.120   1.982   2.578 -0.1831 -2.4416 -0.5385
  223SOL    HW2  891   0.082   2.121   2.531  0.2628 -1.3503 -0.9941
  223SOL     MW  892   0.084   2.035   2.518  0.0773 -0.6447 -0.3129
  224SOL     OW  893   1.574   0.758   2.581  0.2908  0.0479 -0.7201
  224SOL    HW1  894   1.551   0.795   2.665 -1.9912 -2.1172 -0.3612
  224SOL    HW2  895   1.555   0.829   2.518  0.4792  0.8960 -3.0579
  224SOL     MW  896   1.569   0.772   2.584  0.0146 -0.1258 -0.9811
  225SOL     OW  897   2.930   1.455   2.277  0.3752  0.1190 -0.3384
  225SOL    HW1  898   2.984   1.523   2.233  1.9984  1.9434 -1.6654
  225SOL    HW2  899   2.858   1.499   2.314  4.5166  1.5684 -0.2705
  225SOL     MW  900   2.928   1.470   2.276  1.1358  0.5509 -0.5045
  226SOL     OW  901   0.427   1.495   2.738 -0.6069 -0.1900  0.5427
  226SOL    HW1  902   0.507   1.490   2.682  0.2222  1.4501 -1.2139
  226SOL    HW2  903   0.421   1.586   2.750  1.9665  0.8629  2.8588
  226SOL     MW  904   0.437   1.506   2.732 -0.1579  0.1653  0.6165
  227SOL     OW  905   0.547   1.129   2.872  0.3441  0.5012  0.0732
  227SOL    HW1  906   0.640   1.118   2.859  0.1186 -1.4429  1.2388
  227SOL    HW2  907   0.503   1.069   2.814 -0.0235  1.7700  2.8505
  227SOL     MW  908   0.553   1.120   2.863  0.2659  0.4121  0.5934
  228SOL     OW  909   0.717   1.084   2.032  0.1283  0.4374 -0.3475
  228SOL    HW1  910   0.796   1.115   1.982 -0.4723  1.9152  0.6738
  228SOL    HW2  911   0.753   1.066   2.118  0.0433 -0.0508  0.7329
  228SOL     MW  912   0.732   1.086   2.037  0.0379  0.5680 -0.0702
  229SOL     OW  913   0.166   0.648   0.027 -0.6574  0.0677  0.4183
  229SOL    HW1  914   0.101   0.647  -0.042 -0.3999  0.3007  3.3401
  229SOL    HW2  915   0.156   0.566   0.070 -0.2235  0.2897  1.2127
  229SOL     MW  916   0.156   0.637   0.024 -0.5661  0.1278  0.9086
  230SOL     OW  917   1.688   1.315   2.010  0.4702  0.5694  0.0010
  230SOL    HW1  918   1.620   1.303   2.080  0.7987 -0.2720  2.7601
  230SOL    HW2  919   1.757   1.252   2.033 -0.2196 -0.0686 -0.1917
  230SOL     MW  920   1.688   1.305   2.022  0.4226  0.3742  0.3396
  231SOL     OW  921   2.743   1.268   2.218  0.5212  0.3869  0.0037
  231SOL    HW1  922   2.811   1.334   2.220  4.1694  1.2701 -0.0669
  231SOL    HW2  923   2.704   1.264   2.132  2.3952  2.1782  0.8792
  231SOL     MW  924   2.747   1.276   2.207  1.2498  0.7397  0.1099
  232SOL     OW  925   2.246   0.870   2.004  0.1657 -0.6595  0.1558
  232SOL    HW1  926   2.167   0.871   1.946  0.0082  1.2403  0.0309
  232SOL    HW2  927   2.212   0.842   2.085  0.7813  0.3008 -2.1862
  232SOL     MW  928   2.231   0.866   2.007  0.2261 -0.2821 -0.1697
  233SOL     OW  929   2.096   0.433   2.079  0.2928 -0.1843  0.1876
  233SOL    HW1  930   2.175   0.384   2.064 -0.3720 -1.7824 -2.9998
  233SOL    HW2  931   2.107   0.492   2.157 -1.3152  0.8948 -1.8071
  233SOL     MW  932   2.108   0.434   2.087 -0.0071 -0.2528 -0.4961
  234SOL     OW  933   0.211   1.063   2.486 -0.2911 -0.0146  0.1545
  234SOL    HW1  934   0.118   1.062   2.461 -1.6029 -0.9518 -0.5061
  234SOL    HW2  935   0.227   1.143   2.540  3.9021 -1.1151  1.6642
  234SOL     MW  936   0.201   1.073   2.490  0.0891 -0.2834  0.2665
  235SOL     OW  937   1.128   3.059   2.768 -0.1073 -0.3222  0.0254
  235SOL    HW1  938   1.155   3.016   2.853  0.5591  1.7352 -0.2615
  235SOL    HW2  939   1.106   3.149   2.793 -2.3614 -0.5544 -2.9747
  235SOL     MW  940   1.129   3.066   2.782 -0.3168 -0.0814 -0.4083
  236SOL     OW  941   2.912   0.618   0.136  0.2081 -0.5404  0.1042
  236SOL    HW1  942   2.833   0.658   0.096  1.6409 -1.6188 -0.9679
  236SOL    HW2  943   2.971   0.692   0.111  0.6475  1.4194 -0.6723
  236SOL     MW  944   2.909   0.633   0.127  0.4551 -0.4241 -0.1397
  237SOL     OW  945   2.018   1.145   2.212  0.0670  0.5058  0.4693
  237SOL    HW1  946   1.955   1.122   2.144 -2.1534  0.4585  0.3439
  237SOL    HW2  947   2.056   1.058   2.253  1.1139  0.9292  1.8441
  237SOL     MW  948   2.014   1.130   2.209 -0.0878  0.5554  0.6342
  238SOL     OW  949   1.082   1.811   2.952 -0.0052 -0.1534  0.4644
  238SOL    HW1  950   1.033   1.727   2.944  0.5739  0.8350 -2.8875
  238SOL    HW2  951   1.169   1.782   2.929 -1.3073 -0.0156 -0.5587
  238SOL     MW  952   1.087   1.796   2.948 -0.1006 -0.0048 -0.1128
  239SOL     OW  953   1.295   1.429   2.388 -0.4920  0.1431  0.3507
  239SOL    HW1  954   1.199   1.449   2.378 -1.2703  1.9816  0.5119
  239SOL    HW2  955   1.298   1.339   2.434  2.1502  0.9281 -0.6756
  239SOL     MW  956   1.283   1.420   2.393 -0.2461  0.4892  0.2366
  240SOL     OW  957   0.638   0.900   2.323 -0.4117  0.2635 -0.1134
  240SOL    HW1  958   0.661   0.939   2.413  0.0629 -0.3495  1.2298
  240SOL    HW2  959   0.719   0.859   2.293 -0.2631  2.6040  1.0057
  240SOL     MW  960   0.652   0.900   2.331 -0.3294  0.4914  0.2115
  241SOL     OW  961   0.676   0.388   0.011  0.3188 -0.1515  0.1131
  241SOL    HW1  962   0.688   0.450   0.084 -0.8401  2.2800 -0.6396
  241SOL    HW2  963   0.613   0.431  -0.046 -1.1629  2.4030  0.2714
  241SOL     MW  964   0.669   0.402   0.013 -0.0296  0.5063  0.0347
  242SOL     OW  965   1.490   1.735   2.326 -0.0957  0.3797 -0.0950
  242SOL    HW1  966   1.439   1.808   2.363 -3.0661 -1.7919  0.9575
  242SOL    HW2  967   1.438   1.691   2.256 -0.0576  0.8444  0.7451
  242SOL     MW  968   1.476   1.739   2.322 -0.4826  0.1545  0.1547
  243SOL     OW  969   1.015   0.173   2.468 -0.6903  0.1055 -0.1380
  243SOL    HW1  970   1.076   0.145   2.398 -2.3208 -2.7003  0.5829
  243SOL    HW2  971   1.056   0.246   2.524 -1.3003 -0.1551  0.3550
  243SOL     MW  972   1.028   0.179   2.466 -0.9859 -0.2991  0.0221
  244SOL     OW  973   0.213   0.807   2.360 -0.5365  0.0871 -0.1276
  244SOL    HW1  974   0.210   0.897   2.385 -0.8243 -0.0728 -0.3276
  244SOL    HW2  975   0.305   0.782   2.373 -0.4024 -0.2584 -2.7022
  244SOL     MW  976   0.225   0.815   2.365 -0.5568  0.0205 -0.4937
  245SOL     OW  977   1.214   0.171   2.296 -0.0393 -0.4009  0.0468
  245SOL    HW1  978   1.291   0.121   2.279  0.4789  0.3752 -0.0272
  245SOL    HW2  979   1.254   0.245   2.352 -1.3644 -0.3066  1.0349
  245SOL     MW  980   1.230   0.174   2.301 -0.1457 -0.2861  0.1674
  246SOL     OW  981   1.239   1.162   2.085  0.3640  0.3526 -0.0423
  246SOL    HW1  982   1.185   1.121   2.155 -0.4788 -0.4885 -0.3692
  246SOL    HW2  983   1.326   1.197   2.120 -0.5449 -1.3601 -0.4546
  246SOL     MW  984   1.243   1.162   2.099  0.1329  0.0157 -0.1398
  247SOL     OW  985   0.760   0.581   0.205 -0.5619  0.2631  0.0591
  247SOL    HW1  986   0.735   0.659   0.158  1.0054  0.1884 -0.9950
  247SOL    HW2  987   0.854   0.563   0.168  1.7012 -1.0749  0.4408
  247SOL     MW  988   0.769   0.589   0.194 -0.0565  0.0767 -0.0296
  248SOL     OW  989   0.309   1.296   2.607  0.0182  0.0562  0.2251
  248SOL    HW1  990   0.360   1.291   2.526  2.2081 -1.8861  1.4346
  248SOL    HW2  991   0.341   1.374   2.654 -3.8863 -1.5481  0.5069
  248SOL     MW  992   0.320   1.306   2.603 -0.2080 -0.4117  0.4219
  249SOL     OW  993   0.162   1.874   2.742 -0.4499 -0.2429  0.7501
  249SOL    HW1  994   0.132   1.804   2.677 -0.5699 -0.9740  0.0863
  249SOL    HW2  995   0.183   1.830   2.822 -2.6610 -1.6779  0.0155
  249SOL     MW  996   0.161   1.859   2.744 -0.7575 -0.5287  0.5656
  250SOL     OW  997   2.174   0.927   2.295 -0.1856 -0.4137  0.2267
  250SOL    HW1  998   2.239   0.863   2.276  1.4537  3.8639  0.0207
  250SOL    HW2  999   2.234   0.985   2.341  1.1309 -1.0444 -2.0173
  250SOL     MW 1000   2.191   0.926   2.299  0.2044  0.0675 -0.0966
  251SOL     OW 1001   0.180   0.928   1.939  0.1931 -0.1641 -0.5005
  251SOL    HW1 1002   0.128   0.860   1.986 -4.3165 -1.2656  0.3735
  251SOL    HW2 1003   0.174   0.890   1.848  2.2365  1.6105  0.5983
  251SOL     MW 1004   0.172   0.914   1.933 -0.1323 -0.0753 -0.2402
  252SOL     OW 1005   1.735   1.011   2.891  0.0599 -0.6759  0.0016
  252SOL    HW1 1006   1.752   1.078   2.960  1.4126  1.6960  0.0401
  252SOL    HW2 1007   1.811   1.024   2.829  0.6324 -0.3135 -0.8164
  252SOL     MW 1008   1.748   1.021   2.892  0.3139 -0.3151 -0.1012
  253SOL     OW 1009   1.156   1.780   2.542 -0.4860 -0.3501 -0.4541
  253SOL    HW1 1010   1.182   1.801   2.448 -0.5714 -1.7321  1.7986
  253SOL    HW2 1011   1.071   1.827   2.553 -0.8223 -0.7614  0.5085
  253SOL     MW 1012   1.148   1.789   2.531 -0.5416 -0.5867 -0.0299
  254SOL     OW 1013   1.043   1.049   2.240 -0.5570  0.2987  0.0941
  254SOL    HW1 1014   1.006   0.988   2.302 -1.5878 -0.6340 -0.3288
  254SOL    HW2 1015   0.990   1.134   2.259 -0.6381  0.8686  1.3770
  254SOL     MW 1016   1.031   1.052   2.251 -0.7037  0.2508  0.2075
  255SOL     OW 1017   0.806   2.559   2.123 -0.0784  0.1508 -0.1135
  255SOL    HW1 1018   0.723   2.511   2.110  1.3539 -0.5542 -2.0537
  255SOL    HW2 1019   0.870   2.486   2.128 -1.7787  0.6413  0.8644
  255SOL     MW 1020   0.803   2.543   2.122 -0.1138  0.1225 -0.2405
  256SOL     OW 1021   1.336   2.712   2.936 -0.3237 -0.3766 -0.1566
  256SOL    HW1 1022   1.284   2.643   2.886 -2.2957  1.6599 -1.5534
  256SOL    HW2 1023   1.393   2.753   2.872  1.6622  2.6996  1.5167
  256SOL     MW 1024   1.337   2.708   2.921 -0.3219  0.2980 -0.1201
  257SOL     OW 1025   0.186   1.923   0.036 -0.1852  0.0253  0.1811
  257SOL    HW1 1026   0.213   1.872   0.111  1.3841 -0.5859  2.8157
  257SOL    HW2 1027   0.223   1.871  -0.036  0.0321  0.3289 -0.1557
  257SOL     MW 1028   0.194   1.909   0.036  0.0506 -0.0153  0.4843
  258SOL     OW 1029   0.813   1.044   2.503 -0.1441 -0.3590  0.3433
  258SOL    HW1 1030   0.798   1.121   2.452 -0.3776 -0.6971  5.5047
  258SOL    HW2 1031   0.787   1.062   2.595  0.8831 -2.3630 -0.9243
  258SOL     MW 1032   0.808   1.056   2.508 -0.0394 -0.6680  0.8571
  259SOL     OW 1033   0.894   0.375   2.327  0.7644 -0.1356  0.1882
  259SOL    HW1 1034   0.803   0.375   2.289  0.2765  4.0615 -1.7241
  259SOL    HW2 1035   0.909   0.291   2.369  1.0903 -0.8959 -1.4071
  259SOL     MW 1036   0.884   0.364   2.327  0.7430  0.3179 -0.2746
  260SOL     OW 1037   0.538   0.102   1.628 -0.2262  0.5124  0.9181
  260SOL    HW1 1038   0.511   0.097   1.533 -0.1719  0.4343 -0.3306
  260SOL    HW2 1039   0.636   0.129   1.615  1.1230  0.5712  2.0213
  260SOL     MW 1040   0.548   0.105   1.614 -0.0410  0.5099  0.8989
  261SOL     OW 1041   1.173   0.731   2.041  0.0902  0.1126 -0.2057
  261SOL    HW1 1042   1.173   0.720   2.135  0.8735  2.2041  1.7722
  261SOL    HW2 1043   1.144   0.652   2.004  1.6437  1.4046 -0.0955
  261SOL     MW 1044   1.170   0.719   2.049  0.3985  0.5590  0.0698
  262SOL     OW 1045   1.050   0.294   0.162  0.1382 -0.0925 -0.1900
  262SOL    HW1 1046   1.147   0.304   0.147  1.3659  3.5457 -0.8068
  262SOL    HW2 1047   1.014   0.222   0.108  1.4477 -0.5997  1.8256
  262SOL     MW 1048   1.058   0.286   0.153  0.4729  0.3206 -0.0055
  263SOL     OW 1049   0.430   0.031   2.461  0.4937 -0.1176  0.4723
  263SOL    HW1 1050   0.350   0.085   2.445  0.0877 -0.4595  1.3894
  263SOL    HW2 1051   0.483   0.060   2.386  0.5018  0.4958  0.0089
  263SOL     MW 1052   0.426   0.042   2.449  0.4412 -0.0818  0.5322
  264SOL     OW 1053   1.495   1.350   1.809  0.5101 -0.2133  0.0624
  264SOL    HW1 1054   1.492   1.253   1.808  0.6835  0.9872 -2.5742
  264SOL    HW2 1055   1.571   1.372   1.860 -2.1496  0.8297  0.0708
  264SOL     MW 1056   1.504   1.340   1.815  0.1820  0.0827 -0.2844
  265SOL     OW 1057   0.772   2.806   2.223  1.0883  0.4935 -0.6093
  265SOL    HW1 1058   0.787   2.713   2.195 -1.3675  0.2587 -0.2967
  265SOL    HW2 1059   0.778   2.796   2.318 -0.9549 -1.5433  0.0682
  265SOL     MW 1060   0.775   2.792   2.232  0.4947  0.1938 -0.4787
  266SOL     OW 1061   0.850   0.762   2.215 -0.6755 -0.0340  0.0620
  266SOL    HW1 1062   0.852   0.755   2.121  0.0497  0.9007 -0.3177
  266SOL    HW2 1063   0.884   0.683   2.250  1.9875  1.3934  1.8733
  266SOL     MW 1064   0.855   0.751   2.208 -0.2284  0.2776  0.2509
  267SOL     OW 1065   1.395   1.772   2.688 -0.6580  0.0856 -0.4483
  267SOL    HW1 1066   1.448   1.694   2.665  0.9704 -2.4802  0.9422
  267SOL    HW2 1067   1.311   1.753   2.637 -2.9677  2.5862 -3.4483
  267SOL     MW 1068   1.391   1.759   2.678 -0.7479  0.0770 -0.6607
  268SOL     OW 1069   0.207   0.855   1.654  0.0812  0.4028  0.1234
  268SOL    HW1 1070   0.168   0.936   1.620 -0.1638 -0.2325  0.5422
  268SOL    HW2 1071   0.138   0.795   1.629  0.8225  3.0476  0.1549
  268SOL     MW 1072   0.192   0.858   1.647  0.1467  0.6680  0.1828
  269SOL     OW 1073   1.392   1.998   2.337 -0.1913  0.3682 -0.2810
  269SOL    HW1 1074   1.458   2.064   2.339 -0.5314  0.2712  2.4038
  269SOL    HW2 1075   1.329   2.057   2.380  1.4494 -4.3121  1.8612
  269SOL     MW 1076   1.392   2.014   2.343 -0.0197 -0.2621  0.3559
  270SOL     OW 1077   1.128   0.429   1.624  0.5170  0.2665 -0.1286
  270SOL    HW1 1078   1.118   0.338   1.660  2.2385 -0.1781  1.0969
  270SOL    HW2 1079   1.219   0.434   1.602  2.3523 -1.4258 -2.1718
  270SOL     MW 1080   1.139   0.418   1.626  0.9863 -0.0155 -0.2364
  271SOL     OW 1081   0.832   0.021   2.595 -0.3674 -0.0678 -0.4302
  271SOL    HW1 1082   0.876  -0.057   2.633 -0.1742 -0.7553  1.5217
  271SOL    HW2 1083   0.906   0.075   2.554 -2.5345  1.8386  1.5860
  271SOL     MW 1084   0.848   0.018   2.595 -0.6278  0.0930  0.0934
  272SOL     OW 1085   1.516   2.833   2.776  0.1443 -0.2597  0.2915
  272SOL    HW1 1086   1.473   2.861   2.692 -2.0354  0.9017 -1.8717
  272SOL    HW2 1087   1.564   2.914   2.809 -1.8881  0.1862  0.8042
  272SOL     MW 1088   1.516   2.848   2.769 -0.4114 -0.0477  0.0738
  273SOL     OW 1089   1.508   0.917   2.797  0.2564  0.0569  0.2701
  273SOL    HW1 1090   1.596   0.956   2.825 -0.9555 -1.1001  0.7966
  273SOL    HW2 1091   1.466   0.988   2.752 -1.5441 -1.3501 -0.9166
  273SOL     MW 1092   1.514   0.931   2.795 -0.1411 -0.2814  0.1830
  274SOL     OW 1093   1.428   0.716   0.122 -0.8678  0.0777  0.2367
  274SOL    HW1 1094   1.470   0.630   0.135  1.3743  0.4759  0.0896
  274SOL    HW2 1095   1.343   0.698   0.169  0.7526 -0.7212  0.6272
  274SOL     MW 1096   1.422   0.702   0.130 -0.3582  0.0248  0.2688
  275SOL     OW 1097   1.647   0.547   1.778 -0.4608 -0.4415  0.3204
  275SOL    HW1 1098   1.714   0.568   1.847  2.6670 -0.9982 -1.4379
  275SOL    HW2 1099   1.645   0.451   1.789  0.4617  0.4219  0.5993
  275SOL     MW 1100   1.656   0.537   1.788  0.0736 -0.4010  0.1252
  276SOL     OW 1101   0.309   1.239   1.933  0.0329  0.2443 -0.2348
  276SOL    HW1 1102   0.344   1.157   1.955 -1.4953  1.2958  1.6277
  276SOL    HW2 1103   0.260   1.272   2.011  2.7150  0.0044  1.7225
  276SOL     MW 1104   0.307   1.233   1.946  0.1852  0.3514  0.2692
  277SOL     OW 1105   1.908   1.153   2.461  0.3479 -0.2856  0.3940
  277SOL    HW1 1106   1.960   1.218   2.511  0.5197 -0.8065  1.9560
  277SOL    HW2 1107   1.925   1.178   2.370 -4.0575 -0.9354 -0.2509
  277SOL     MW 1108   1.917   1.164   2.456 -0.2107 -0.4400  0.5150
  278SOL     OW 1109   1.425   0.685   1.681  0.2405  0.1517 -0.6401
  278SOL    HW1 1110   1.392   0.640   1.763 -0.6790  1.0588 -1.2388
  278SOL    HW2 1111   1.519   0.688   1.683 -1.9070 -0.5215  0.2379
  278SOL     MW 1112   1.433   0.680   1.692 -0.1642  0.1826 -0.6032
  279SOL     OW 1113   0.594   0.117   2.246 -0.4929  0.5255 -0.2826
  279SOL    HW1 1114   0.675   0.065   2.272  1.2241 -1.8179 -1.2965
  279SOL    HW2 1115   0.625   0.187   2.190 -1.1564  0.5250 -2.1737
  279SOL     MW 1116   0.609   0.119   2.242 -0.3539  0.2163 -0.6659
  280SOL     OW 1117   1.472   0.955   2.159  0.0627 -0.1886  0.3342
  280SOL    HW1 1118   1.529   0.889   2.118 -0.8226  1.0848  0.2206
  280SOL    HW2 1119   1.478   0.951   2.252 -2.4547  2.4918 -1.5648
  280SOL     MW 1120   1.480   0.946   2.166 -0.3862  0.3330  0.0687
  281SOL     OW 1121   1.350   1.318   2.743 -0.2658  0.2707  0.0574
  281SOL    HW1 1122   1.445   1.327   2.743 -1.5344 -3.8071  1.8594
  281SOL    HW2 1123   1.336   1.265   2.824 -0.4530 -1.6592 -0.4299
  281SOL     MW 1124   1.361   1.312   2.754 -0.4579 -0.5219  0.2309
  282SOL     OW 1125   1.082   1.281   1.635 -0.0368  0.3807 -0.0844
  282SOL    HW1 1126   1.061   1.376   1.623  2.3993  2.0114 -1.1578
  282SOL    HW2 1127   1.049   1.258   1.723 -2.0906 -2.4043 -2.4766
  282SOL     MW 1128   1.075   1.291   1.645  0.0136  0.2284 -0.5417
  283SOL     OW 1129   0.808   1.249   3.001  0.5833  0.3667  0.5566
  283SOL    HW1 1130   0.855   1.233   3.087 -1.2641 -1.9507  1.6368
  283SOL    HW2 1131   0.794   1.345   3.000 -0.0696 -1.2921 -0.9152
  283SOL     MW 1132   0.812   1.260   3.012  0.2534 -0.1579  0.5049
  284SOL     OW 1133   0.467   0.690   2.390 -0.2194  0.7381  0.0715
  284SOL    HW1 1134   0.521   0.760   2.348 -1.9424 -0.3411 -1.7375
  284SOL    HW2 1135   0.462   0.623   2.318 -0.5085 -3.3226 -0.2700
  284SOL     MW 1136   0.474   0.690   2.375 -0.4849  0.0600 -0.2123
  285SOL     OW 1137   0.974   0.824   2.814 -0.3751 -0.0281  0.0321
  285SOL    HW1 1138   1.027   0.833   2.736 -1.9899 -1.5439  1.0898
  285SOL    HW2 1139   0.890   0.782   2.788 -0.2402 -0.1548  2.0879
  285SOL     MW 1140   0.970   0.819   2.801 -0.5703 -0.2448  0.4429
  286SOL     OW 1141   1.129   1.499   2.677  0.2981 -0.6362  0.0568
  286SOL    HW1 1142   1.210   1.450   2.692 -1.0849  1.7679  1.3715
  286SOL    HW2 1143   1.148   1.577   2.623  2.1623  1.7614 -0.8315
  286SOL     MW 1144   1.142   1.503   2.672  0.3616 -0.0027  0.1130
  287SOL     OW 1145   1.142   0.930   0.364  0.2400 -0.1013  0.3253
  287SOL    HW1 1146   1.181   0.990   0.432  0.9944  1.1664 -1.6054
  287SOL    HW2 1147   1.125   0.985   0.291  0.7405 -0.5436 -2.7154
  287SOL     MW 1148   1.145   0.945   0.364  0.4056  0.0076 -0.3306
  288SOL     OW 1149   1.550   0.565   2.058 -0.3326  0.0096 -0.4508
  288SOL    HW1 1150   1.519   0.588   2.146 -1.6712  0.2924  1.0266
  288SOL    HW2 1151   1.569   0.645   2.013 -2.1862  2.4431  0.9970
  288SOL     MW 1152   1.549   0.579   2.063 -0.7538  0.3680 -0.0648
  289SOL     OW 1153   1.096   0.988   2.598 -0.1552 -0.8405  0.1231
  289SOL    HW1 1154   1.127   0.902   2.579  0.2700 -0.0930 -0.7785
  289SOL    HW2 1155   1.003   0.985   2.565  0.4392  1.4613 -0.3814
  289SOL     MW 1156   1.088   0.976   2.591 -0.0207 -0.4382 -0.0624
  290SOL     OW 1157   0.815   0.613   1.585 -0.8277 -0.3759  0.0010
  290SOL    HW1 1158   0.872   0.589   1.507  4.5819 -0.0045  0.9398
  290SOL    HW2 1159   0.874   0.622   1.659 -1.3913  1.2771 -1.7100
  290SOL     MW 1160   0.830   0.611   1.584 -0.1883 -0.1088 -0.1009
  291SOL     OW 1161   0.186   0.377   0.136 -0.1429  0.2862 -0.0690
  291SOL    HW1 1162   0.278   0.356   0.139 -0.3944 -1.0246  0.1800
  291SOL    HW2 1163   0.156   0.326   0.057 -1.9701 -0.6848  1.3221
  291SOL     MW 1164   0.194   0.368   0.126 -0.4172 -0.0148  0.1474
  292SOL     OW 1165   0.992   0.554   0.065  0.5652 -0.1784  0.2135
  292SOL    HW1 1166   1.052   0.596   0.126  1.5508  1.2662  1.1572
  292SOL    HW2 1167   1.010   0.461   0.089 -0.3802  2.3284  2.6253
  292SOL     MW 1168   1.002   0.547   0.076  0.5705  0.3429  0.6562
  293SOL     OW 1169   0.159   0.120   2.431  0.0500 -0.1926  0.2790
  293SOL    HW1 1170   0.112   0.068   2.364  2.5081  0.3803  0.1275
  293SOL    HW2 1171   0.093   0.126   2.497 -1.4240 -0.7109 -3.4963
  293SOL     MW 1172   0.144   0.114   2.431  0.1799 -0.1854 -0.2391
  294SOL     OW 1173   1.451   0.588   2.336  0.1496 -0.2777 -0.2154
  294SOL    HW1 1174   1.523   0.620   2.383 -2.3854 -3.7392  0.5795
  294SOL    HW2 1175   1.428   0.510   2.383  0.8280  1.9328  1.1057
  294SOL     MW 1176   1.457   0.582   2.348 -0.0954 -0.4428  0.0638
  295SOL     OW 1177   0.934   0.534   2.537 -0.4112 -0.1822 -0.0803
  295SOL    HW1 1178   0.922   0.487   2.452  0.0735  0.5022 -1.1630
  295SOL    HW2 1179   0.855   0.569   2.562 -0.7542 -2.2148  1.4588
  295SOL     MW 1180   0.922   0.533   2.529 -0.3925 -0.3601 -0.0201
  296SOL     OW 1181   1.278   0.276   2.046 -0.1597  0.0163 -0.6430
  296SOL    HW1 1182   1.354   0.215   2.037  0.0669  1.9149  1.4870
  296SOL    HW2 1183   1.241   0.257   2.135  0.6566  0.4593 -0.4971
  296SOL     MW 1184   1.283   0.266   2.057 -0.0221  0.3253 -0.3427
  297SOL     OW 1185   1.407   0.410   1.575  0.0193  0.2380 -0.4205
  297SOL    HW1 1186   1.423   0.495   1.626  3.1582 -0.4179  1.0792
  297SOL    HW2 1187   1.439   0.338   1.633  0.3229  1.8382  0.0867
  297SOL     MW 1188   1.414   0.412   1.590  0.4735  0.3626 -0.1557
  298SOL     OW 1189   1.640   0.816   1.978 -0.2326  0.2151  0.3725
  298SOL    HW1 1190   1.673   0.898   1.942  2.0652  0.8932  3.5340
  298SOL    HW2 1191   1.706   0.813   2.049 -0.7139  5.0243 -1.3048
  298SOL     MW 1192   1.653   0.826   1.983  0.0071  0.9391  0.5683
  299SOL     OW 1193   0.561   1.098   0.043  0.0689 -0.0616  0.6185
  299SOL    HW1 1194   0.577   1.111  -0.051 -4.4801  0.1147 -2.4340
  299SOL    HW2 1195   0.516   1.176   0.065  2.8454  1.9396 -4.4591
  299SOL     MW 1196   0.557   1.110   0.033 -0.1650  0.2257 -0.4542
  300SOL     OW 1197   1.302   1.159   2.532  0.3236  0.0228 -0.9000
  300SOL    HW1 1198   1.216   1.113   2.528 -1.8458  1.9938 -0.3123
  300SOL    HW2 1199   1.312   1.203   2.617  0.1788 -1.9798 -0.7240
  300SOL     MW 1200   1.292   1.159   2.542  0.0183  0.0187 -0.7993
  301SOL     OW 1201   1.466   0.897   0.652  0.6638  0.9320  0.3832
  301SOL    HW1 1202   1.473   0.936   0.741  0.3548  1.9139 -1.0502
  301SOL    HW2 1203   1.391   0.842   0.643  0.7906 -1.2736  4.2166
  301SOL     MW 1204   1.457   0.895   0.663  0.6397  0.7706  0.6999
  302SOL     OW 1205   0.134   1.581   2.000 -0.3325  0.3653  0.3992
  302SOL    HW1 1206   0.156   1.519   2.069 -1.3401  1.2025  3.1384
  302SOL    HW2 1207   0.075   1.629   2.052  2.2736 -0.6346  1.0127
  302SOL     MW 1208   0.129   1.580   2.016 -0.1216  0.3438  0.8415
  303SOL     OW 1209   0.427   1.812   2.655  0.4822  0.0305  0.5853
  303SOL    HW1 1210   0.385   1.793   2.570  1.1973 -1.1643  2.9748
  303SOL    HW2 1211   0.349   1.831   2.703  1.1891 -1.7139 -1.8177
  303SOL     MW 1212   0.411   1.812   2.650  0.6699 -0.3573  0.5835
  304SOL     OW 1213   0.538   2.071   2.393 -0.3938 -0.2543 -0.1432
  304SOL    HW1 1214   0.603   2.094   2.325 -1.4156 -2.7871  0.1058
  304SOL    HW2 1215   0.576   1.987   2.418 -1.0721  1.9298 -2.2670
  304SOL     MW 1216   0.552   2.063   2.388 -0.6181 -0.3003 -0.3906
  305SOL     OW 1217   1.117   0.558   0.486 -0.5269 -0.3704  0.1978
  305SOL    HW1 1218   1.023   0.565   0.511  0.1397 -0.4962  0.8231
  305SOL    HW2 1219   1.162   0.492   0.536  0.9502  1.5604  0.3674
  305SOL     MW 1220   1.110   0.550   0.496 -0.2441 -0.1323  0.3027
  306SOL     OW 1221   1.168   1.502   0.275  0.2934  0.6931  0.2557
  306SOL    HW1 1222   1.222   1.424   0.306 -0.5094  1.0645  2.3102
  306SOL    HW2 1223   1.210   1.524   0.194  0.7101  2.6512  1.0973
  306SOL     MW 1224   1.181   1.495   0.268  0.2424  1.0005  0.6378
  307SOL     OW 1225   1.345   0.513   1.883 -0.2007 -0.6886 -0.5430
  307SOL    HW1 1226   1.307   0.443   1.940  1.5603  0.7262 -0.6379
  307SOL    HW2 1227   1.437   0.521   1.924  0.5342 -2.2428  2.2334
  307SOL     MW 1228   1.352   0.505   1.896  0.1286 -0.7070 -0.1892
  308SOL     OW 1229   2.161   0.564   2.723  0.1582  0.1774 -0.6393
  308SOL    HW1 1230   2.257   0.547   2.732  3.0551  3.2639  0.2669
  308SOL    HW2 1231   2.158   0.653   2.699  1.0427  0.7560  1.6763
  308SOL     MW 1232   2.173   0.573   2.721  0.6571  0.6610 -0.2142
  309SOL     OW 1233   0.471   0.485   0.330 -0.3434  0.7784 -0.1483
  309SOL    HW1 1234   0.560   0.517   0.313  2.2804 -1.4051  0.8072
  309SOL    HW2 1235   0.463   0.401   0.285 -1.8665  1.4620  0.0902
  309SOL     MW 1236   0.481   0.478   0.322 -0.1982  0.5805  0.0093
  310SOL     OW 1237   0.432   0.615   1.946 -0.0189 -0.2432 -0.7533
  310SOL    HW1 1238   0.479   0.524   1.935 -0.2208 -3.8013 -0.8879
  310SOL    HW2 1239   0.488   0.675   1.896  1.1463 -0.4691  0.7632
  310SOL     MW 1240   0.446   0.611   1.938  0.1082 -0.7425 -0.5710
  311SOL     OW 1241   1.858   0.595   1.950  0.0844  0.0591 -0.4707
  311SOL    HW1 1242   1.849   0.635   2.035 -0.2236 -4.4689  1.0533
  311SOL    HW2 1243   1.920   0.526   1.972  0.0394 -1.0817  1.8305
  311SOL     MW 1244   1.865   0.591   1.964  0.0378 -0.6888  0.0340
  312SOL     OW 1245   1.819   2.510   0.144 -0.6830 -0.1477  0.2109
  312SOL    HW1 1246   1.898   2.501   0.194  0.8746 -0.0463 -0.9637
  312SOL    HW2 1247   1.755   2.563   0.198 -0.4958 -0.3590 -0.3947
  312SOL     MW 1248   1.821   2.516   0.158 -0.4528 -0.1622 -0.0240
  313SOL     OW 1249   0.149   1.122   2.960 -0.4627  0.0105 -0.5814
  313SOL    HW1 1250   0.111   1.138   3.050  1.3213  0.1865 -0.5842
  313SOL    HW2 1251   0.228   1.175   2.971 -1.1370 -3.0628  4.1156
  313SOL     MW 1252   0.154   1.131   2.973 -0.3163 -0.3717  0.0379
  314SOL     OW 1253   2.170   2.998   2.945 -0.3935  0.5097  0.1646
  314SOL    HW1 1254   2.118   3.051   2.887 -0.8357 -0.7013 -0.1160
  314SOL    HW2 1255   2.204   3.061   3.009  0.6043 -1.2167 -0.7968
  314SOL     MW 1256   2.167   3.013   2.946 -0.3202  0.1221  0.0008
  315SOL     OW 1257   1.541   1.888   3.058 -0.0073 -0.9992 -0.2616
  315SOL    HW1 1258   1.469   1.921   3.110 -2.3735  1.3341 -0.1378
  315SOL    HW2 1259   1.563   1.964   3.001  0.0011  0.0374 -1.1866
  315SOL     MW 1260   1.535   1.902   3.057 -0.3184 -0.5546 -0.3673
  316SOL     OW 1261   1.321   0.550   2.711  0.1550 -1.1053 -0.1673
  316SOL    HW1 1262   1.402   0.609   2.693  2.0150  2.2954  0.6799
  316SOL    HW2 1263   1.284   0.572   2.800  1.2907  0.7242  1.9560
  316SOL     MW 1264   1.327   0.561   2.721  0.5502 -0.4152  0.2246
  317SOL     OW 1265   0.672   1.452   2.591 -0.1000  0.1549  0.0525
  317SOL    HW1 1266   0.754   1.406   2.580  1.0673  0.9741 -0.5235
  317SOL    HW2 1267   0.664   1.488   2.496 -1.7392 -0.9649 -3.6845
  317SOL     MW 1268   0.682   1.451   2.577 -0.1623  0.1153 -0.5166
  318SOL     OW 1269   1.327   0.335   2.965 -0.1317  0.1606 -0.0137
  318SOL    HW1 1270   1.243   0.389   2.954 -0.1880  0.9186  2.1106
  318SOL    HW2 1271   1.401   0.399   2.955 -3.2354  0.1461  0.1717
  318SOL     MW 1272   1.326   0.350   2.963 -0.5487  0.2587  0.2910
  319SOL     OW 1273   0.823   0.443   2.863  0.5860 -0.2231  0.2862
  319SOL    HW1 1274   0.785   0.362   2.825  0.8262 -2.2139  1.1438
  319SOL    HW2 1275   0.792   0.427   2.952  0.1611  2.8970 -1.9757
  319SOL     MW 1276   0.814   0.430   2.870  0.5616 -0.0741  0.1009
  320SOL     OW 1277   1.077   1.360   2.025 -0.1582  0.0109 -0.4368
  320SOL    HW1 1278   1.138   1.285   2.044 -0.4388 -2.1930 -1.6283
  320SOL    HW2 1279   1.129   1.420   1.966  1.1222 -0.1196  1.3663
  320SOL     MW 1280   1.092   1.358   2.020 -0.0263 -0.2971 -0.3561
  321SOL     OW 1281   1.144   0.949   3.007 -0.1130 -0.3310 -0.2340
  321SOL    HW1 1282   1.066   0.909   2.975  0.2900  0.3409 -1.5141
  321SOL    HW2 1283   1.205   0.888   2.973 -2.7103  2.4712 -2.0842
  321SOL     MW 1284   1.142   0.936   2.999 -0.4025  0.1274 -0.6470
  322SOL     OW 1285   1.197   0.849   1.667 -0.1164 -0.1454  0.1086
  322SOL    HW1 1286   1.282   0.807   1.661 -1.3638  1.3713 -1.1437
  322SOL    HW2 1287   1.204   0.888   1.754  1.1759  0.0635  0.9648
  322SOL     MW 1288   1.209   0.849   1.678 -0.1105  0.0823  0.0563
  323SOL     OW 1289   1.215   1.528   1.874  0.2180  0.2818  0.0536
  323SOL    HW1 1290   1.276   1.546   1.805 -0.9392 -0.6373 -0.9831
  323SOL    HW2 1291   1.163   1.604   1.862  2.7501  0.3420  2.5718
  323SOL     MW 1292   1.216   1.540   1.863  0.3994  0.1685  0.2491
  324SOL     OW 1293   1.492   0.973   2.429 -0.3121 -0.8403 -0.2149
  324SOL    HW1 1294   1.417   1.018   2.461 -0.8081  3.7701 -0.1199
  324SOL    HW2 1295   1.554   1.050   2.433 -2.9501  0.8761  1.8813
  324SOL     MW 1296   1.490   0.989   2.434 -0.7256 -0.0056  0.0742
  325SOL     OW 1297   1.101   0.513   2.913  0.5027 -0.0756  0.0384
  325SOL    HW1 1298   1.101   0.582   2.975 -1.2810 -0.6020 -0.2599
  325SOL    HW2 1299   1.005   0.522   2.881 -1.4511 -0.3306  0.3990
  325SOL     MW 1300   1.088   0.523   2.917  0.0096 -0.1787  0.0466
  326SOL     OW 1301   0.467   1.366   2.324  0.1673 -0.1126  0.4479
  326SOL    HW1 1302   0.543   1.307   2.294 -0.6095 -1.0111  0.0578
  326SOL    HW2 1303   0.476   1.458   2.287  0.5032 -2.8172  0.9126
  326SOL     MW 1304   0.478   1.370   2.315  0.1092 -0.5880  0.4577
  327SOL     OW 1305   1.911   0.792   2.440 -0.1112  0.1121  0.0249
  327SOL    HW1 1306   1.886   0.756   2.531 -1.2926  1.2996  0.8946
  327SOL    HW2 1307   1.968   0.873   2.448  0.9375  0.5767  0.0964
  327SOL     MW 1308   1.915   0.798   2.453 -0.1287  0.3301  0.1491
  328SOL     OW 1309   0.199   1.405   2.193 -0.3194  0.2472 -0.3851
  328SOL    HW1 1310   0.147   1.327   2.211 -0.0507  1.1496 -2.3270
  328SOL    HW2 1311   0.283   1.390   2.231 -0.6441  2.2305 -0.4061
  328SOL     MW 1312   0.203   1.393   2.200 -0.3268  0.6280 -0.6441
  329SOL     OW 1313   0.121   0.238   1.407 -0.1259  0.2805  0.0919
  329SOL    HW1 1314   0.105   0.241   1.503 -3.7393 -1.0091 -0.7232
  329SOL    HW2 1315   0.219   0.228   1.398 -0.6787 -0.0421 -1.6887
  329SOL     MW 1316   0.132   0.237   1.419 -0.6756  0.0677 -0.2506
  330SOL     OW 1317   0.386   3.090   2.079  0.3154  0.0324  0.1281
  330SOL    HW1 1318   0.464   3.115   2.133 -0.0392 -1.6260  0.4122
  330SOL    HW2 1319   0.324   3.040   2.134  0.3163 -2.7812 -1.7436
  330SOL     MW 1320   0.388   3.087   2.093  0.2687 -0.5576 -0.0814
  331SOL     OW 1321   0.848   1.239   2.311 -0.5733 -0.0096  0.8439
  331SOL    HW1 1322   0.798   1.271   2.235  2.0168 -0.9952 -2.2660
  331SOL    HW2 1323   0.886   1.322   2.341  0.0652  0.0957 -0.7452
  331SOL     MW 1324   0.846   1.254   2.305 -0.1473 -0.1258  0.2239
  332SOL     OW 1325   1.356   1.713   2.953  0.1043 -0.6668 -0.0839
  332SOL    HW1 1326   1.359   1.699   2.857  1.1639 -1.1437 -1.3137
  332SOL    HW2 1327   1.433   1.767   2.970 -0.0539 -0.5708  1.0348
  332SOL     MW 1328   1.366   1.718   2.943  0.2232 -0.7170 -0.0986
  333SOL     OW 1329   1.725   1.393   2.966  0.1270 -0.5527  0.4007
  333SOL    HW1 1330   1.814   1.401   2.985  1.4273  2.7305 -1.2806
  333SOL    HW2 1331   1.689   1.341   3.037  0.6204 -0.2758 -0.3589
  333SOL     MW 1332   1.732   1.387   2.978  0.3637 -0.0830  0.0786
  334SOL     OW 1333   1.312   0.044   2.558 -0.3013  0.5352 -0.3168
  334SOL    HW1 1334   1.237   0.051   2.620  0.6550  0.3960 -1.0724
  334SOL    HW2 1335   1.379   0.087   2.609 -2.6137  2.3467  0.9496
  334SOL     MW 1336   1.311   0.051   2.573 -0.4802  0.7558 -0.2494
  335SOL     OW 1337   1.329   0.772   2.951 -0.4275 -0.1038 -0.0143
  335SOL    HW1 1338   1.358   0.750   3.042  0.1676  2.6043 -1.0833
  335SOL    HW2 1339   1.410   0.817   2.921  1.0369 -0.6901  1.7934
  335SOL     MW 1340   1.344   0.775   2.959 -0.1558  0.1762  0.0832
  336SOL     OW 1341   0.948   1.152   1.875  0.2450  0.2854 -0.0638
  336SOL    HW1 1342   0.989   1.224   1.912 -2.4967  0.2547  0.6937
  336SOL    HW2 1343   1.010   1.083   1.898 -0.1116 -1.2472  1.2575
  336SOL     MW 1344   0.962   1.153   1.883 -0.1638  0.0791  0.2105
  337SOL     OW 1345   0.651   1.826   2.801  0.2756 -0.4240 -0.8655
  337SOL    HW1 1346   0.568   1.833   2.749 -1.2656 -1.1060 -0.5796
  337SOL    HW2 1347   0.710   1.767   2.759  0.5250 -0.6686 -0.9844
  337SOL     MW 1348   0.648   1.819   2.788  0.1052 -0.5463 -0.8435
  338SOL     OW 1349   1.142   0.726   2.575 -0.1917 -0.1465  0.7252
  338SOL    HW1 1350   1.066   0.662   2.563  0.6547 -1.6673  2.0765
  338SOL    HW2 1351   1.212   0.664   2.607 -0.7014 -0.6936  1.0722
  338SOL     MW 1352   1.141   0.710   2.578 -0.1473 -0.4193  0.9493
  339SOL     OW 1353   1.486   1.074   1.832  0.1451  0.1361  0.3470
  339SOL    HW1 1354   1.404   1.061   1.791  0.5649 -0.8206  1.5470
  339SOL    HW2 1355   1.468   1.031   1.917 -1.5010 -0.4373 -0.1702
  339SOL     MW 1356   1.473   1.067   1.838 -0.0167 -0.0658  0.4371
  340SOL     OW 1357   1.302   1.536   0.046 -0.4858 -0.0187 -0.2790
  340SOL    HW1 1358   1.311   1.583  -0.038  0.4462  1.1362  2.4739
  340SOL    HW2 1359   1.393   1.514   0.068  1.7163 -0.0004 -0.1517
  340SOL     MW 1360   1.315   1.540   0.038 -0.0723  0.1361  0.1010
  341SOL     OW 1361   0.051   1.365   2.755 -0.4556 -0.0190 -0.0331
  341SOL    HW1 1362   0.116   1.301   2.781 -1.9131 -3.8220 -2.4436
  341SOL    HW2 1363   0.036   1.337   2.661 -0.6175  0.3717  0.3970
  341SOL     MW 1364   0.057   1.353   2.746 -0.6693 -0.4692 -0.2944
  342SOL     OW 1365   1.316   0.326   0.145  0.0382  0.5605  0.3227
  342SOL    HW1 1366   1.377   0.391   0.176 -0.2306 -2.7436 -0.1053
  342SOL    HW2 1367   1.314   0.333   0.047 -1.4096  1.6600 -2.1430
  342SOL     MW 1368   1.324   0.336   0.136 -0.1883  0.2696 -0.0591
  343SOL     OW 1369   0.260   0.270   2.085 -0.3536  0.2073 -0.2020
  343SOL    HW1 1370   0.254   0.169   2.088  0.5998 -1.4451  2.2846
  343SOL    HW2 1371   0.185   0.299   2.034  0.6683  3.1760 -0.1380
  343SOL     MW 1372   0.249   0.260   2.079 -0.0930  0.3810  0.1345
  344SOL     OW 1373   1.697   2.019   0.184 -0.2652  0.6902 -0.0677
  344SOL    HW1 1374   1.720   2.090   0.120 -0.3690  0.1685 -0.7566
  344SOL    HW2 1375   1.622   1.972   0.142 -2.8105 -1.1640 -0.7936
  344SOL     MW 1376   1.690   2.022   0.170 -0.6147  0.3767 -0.2543
  345SOL     OW 1377   0.719   1.557   2.346 -0.4368 -0.1740  0.4073
  345SOL    HW1 1378   0.634   1.562   2.301  1.4770 -0.2326 -0.4178
  345SOL    HW2 1379   0.785   1.556   2.278 -0.5742 -0.5433 -1.2778
  345SOL     MW 1380   0.717   1.558   2.331 -0.2025 -0.2304  0.0761
  346SOL     OW 1381   1.763   1.133   0.047  0.1178  0.3892  0.4967
  346SOL    HW1 1382   1.848   1.110   0.084  2.5797  3.8216  0.6771
  346SOL    HW2 1383   1.704   1.070   0.085 -0.0565 -0.1165 -2.2293
  346SOL     MW 1384   1.766   1.122   0.057  0.4196  0.7754  0.1609
  347SOL     OW 1385   1.171   0.648   2.302 -0.1530 -0.5620 -0.4064
  347SOL    HW1 1386   1.263   0.620   2.307 -2.2162 -2.5716 -0.6690
  347SOL    HW2 1387   1.162   0.696   2.386  0.8065  2.4138  2.4602
  347SOL     MW 1388   1.181   0.651   2.314 -0.2986 -0.4345 -0.0628
  348SOL     OW 1389   1.336   2.649   1.901 -0.6671 -0.2470 -0.1455
  348SOL    HW1 1390   1.388   2.569   1.933 -0.0282 -0.5610 -1.1164
  348SOL    HW2 1391   1.350   2.725   1.958  0.1086 -3.1762 -1.4960
  348SOL     MW 1392   1.345   2.648   1.913 -0.4805 -0.6749 -0.4518
  349SOL     OW 1393   1.451   0.233   2.738  0.0318 -0.2922 -0.2094
  349SOL    HW1 1394   1.396   0.270   2.809  1.4281  2.3284 -0.0804
  349SOL    HW2 1395   1.535   0.214   2.785  2.3602 -3.5818  1.0439
  349SOL     MW 1396   1.455   0.235   2.753  0.5232 -0.3804 -0.0270
  350SOL     OW 1397   1.840   0.612   2.654  0.1080 -0.6000 -0.1358
  350SOL    HW1 1398   1.786   0.573   2.587 -0.1366 -1.6061  2.9571
  350SOL    HW2 1399   1.906   0.541   2.678  0.0235  1.6790  1.9021
  350SOL     MW 1400   1.841   0.597   2.648  0.0646 -0.4321  0.5412
  351SOL     OW 1401   0.114   1.100   1.558  0.3900  0.6856  0.3919
  351SOL    HW1 1402   0.046   1.096   1.630 -2.8818  0.3392  0.0784
  351SOL    HW2 1403   0.178   1.178   1.579  0.1687  1.5054 -3.8966
  351SOL     MW 1404   0.114   1.110   1.571 -0.0709  0.7480 -0.2153
  352SOL     OW 1405   0.833   1.642   2.705  0.8545  0.4836  0.6270
  352SOL    HW1 1406   0.890   1.601   2.769  0.9285  2.9690  0.2829
  352SOL    HW2 1407   0.782   1.567   2.670 -1.4015 -0.7555 -0.7201
  352SOL     MW 1408   0.833   1.627   2.709  0.5666  0.6480  0.4039
  353SOL     OW 1409   3.067   2.530   2.682 -0.0392 -0.2086  0.5799
  353SOL    HW1 1410   3.164   2.536   2.702  3.1139  0.1336  3.3865
  353SOL    HW2 1411   3.045   2.615   2.649 -1.1308  0.2078  0.7139
  353SOL     MW 1412   3.077   2.542   2.680  0.2328 -0.1085  0.9679
  354SOL     OW 1413   0.265   2.477   0.821  0.3929 -0.2255  0.2172
  354SOL    HW1 1414   0.310   2.441   0.895  0.6967 -0.7041 -0.1426
  354SOL    HW2 1415   0.196   2.409   0.823  0.9586 -2.3683  0.1431
  354SOL     MW 1416   0.262   2.463   0.831  0.5077 -0.5714  0.1599
  355SOL     OW 1417   0.010   2.253   0.402 -0.1746 -0.0252  0.2840
  355SOL    HW1 1418  -0.080   2.219   0.397  1.5065 -0.4842  0.0942
  355SOL    HW2 1419   0.012   2.312   0.479  1.3637 -2.4326 -1.1916
  355SOL     MW 1420  -0.002   2.256   0.412  0.2502 -0.4034  0.0642
  356SOL     OW 1421   0.838   2.793   0.990  0.3433 -0.4830  0.0163
  356SOL    HW1 1422   0.867   2.858   0.915 -0.4610  1.7471  0.3055
  356SOL    HW2 1423   0.744   2.793   0.983  0.1140 -1.0623  2.0188
  356SOL     MW 1424   0.830   2.802   0.979  0.2069 -0.2652  0.3187
  357SOL     OW 1425   1.776   2.933   0.387  0.3638 -0.5745 -0.3289
  357SOL    HW1 1426   1.710   2.875   0.425 -0.1156 -1.0830 -1.0117
  357SOL    HW2 1427   1.843   2.872   0.358 -0.0042  2.1477 -0.0735
  357SOL     MW 1428   1.776   2.918   0.388  0.2520 -0.2825 -0.3853
  358SOL     OW 1429   0.458   0.171   1.047 -0.2372 -0.0328  0.0030
  358SOL    HW1 1430   0.544   0.133   1.032 -0.8443 -0.1034 -1.2518
  358SOL    HW2 1431   0.421   0.195   0.966 -0.4070  1.9733  0.3872
  358SOL     MW 1432   0.465   0.169   1.035 -0.3397  0.2225 -0.1119
  359SOL     OW 1433   0.867   2.886   1.843  0.0618  0.2720  0.4752
  359SOL    HW1 1434   0.840   2.795   1.838  0.8102  0.4264  0.0266
  359SOL    HW2 1435   0.879   2.908   1.749 -0.0508 -1.7787 -2.9136
  359SOL     MW 1436   0.865   2.877   1.830  0.1457  0.0218 -0.0311
  360SOL     OW 1437   0.574   2.784   0.913 -0.0849  0.0372  0.0135
  360SOL    HW1 1438   0.563   2.728   0.837 -0.8864 -0.0602  1.5416
  360SOL    HW2 1439   0.578   2.720   0.987 -0.1895  2.7457 -0.6823
  360SOL     MW 1440   0.573   2.768   0.913 -0.2044  0.3817  0.1233
  361SOL     OW 1441   0.180   2.615   1.367 -0.1008 -0.2238 -0.2405
  361SOL    HW1 1442   0.161   2.681   1.431  0.1174  0.7006 -1.0515
  361SOL    HW2 1443   0.277   2.627   1.357  0.4495  2.4649 -0.2972
  361SOL     MW 1444   0.190   2.625   1.374  0.0006  0.2529 -0.3550
  362SOL     OW 1445   1.474   2.416   0.659 -0.7734  0.7386  0.0981
  362SOL    HW1 1446   1.484   2.371   0.748  0.4569  0.8941  0.3356
  362SOL    HW2 1447   1.514   2.505   0.667 -0.4180  1.1738  0.5160
  362SOL     MW 1448   1.480   2.422   0.672 -0.5642  0.8166  0.1846
  363SOL     OW 1449   0.299   3.056   0.673  0.0035 -0.1046  0.5446
  363SOL    HW1 1450   0.299   3.014   0.757 -0.5111  1.4850 -0.6649
  363SOL    HW2 1451   0.213   3.052   0.628 -0.3284  1.6303  1.8905
  363SOL     MW 1452   0.288   3.050   0.678 -0.1082  0.3340  0.5626
  364SOL     OW 1453   0.745   0.199   0.208 -0.1275  0.0293  0.3163
  364SOL    HW1 1454   0.682   0.128   0.216  1.6580  1.9019  0.9612
  364SOL    HW2 1455   0.705   0.251   0.133  0.2134  0.6632  0.9217
  364SOL     MW 1456   0.731   0.197   0.199  0.1531  0.3600  0.4813
  365SOL     OW 1457   0.963   2.028   1.166 -0.2642 -0.0154  0.4449
  365SOL    HW1 1458   0.932   2.101   1.122 -0.5157 -1.6794  0.6470
  365SOL    HW2 1459   0.924   1.957   1.107 -1.8015  1.4257  0.5443
  365SOL     MW 1460   0.954   2.028   1.153 -0.5002 -0.0448  0.4847
  366SOL     OW 1461   2.866   2.696   1.015  0.0359 -0.0695 -0.3165
  366SOL    HW1 1462   2.953   2.697   1.067 -0.0676  1.4106 -1.0192
  366SOL    HW2 1463   2.884   2.702   0.918  0.8270 -1.3029 -2.0968
  366SOL     MW 1464   2.880   2.697   1.009  0.1266 -0.0369 -0.6441
  367SOL     OW 1465   1.222   2.984   0.891  0.0408 -0.2582  0.4874
  367SOL    HW1 1466   1.228   3.059   0.826 -0.6906  0.4710 -1.4274
  367SOL    HW2 1467   1.205   2.904   0.842  1.2856  0.8120  0.1615
  367SOL     MW 1468   1.221   2.983   0.876  0.1085 -0.0208  0.1918
  368SOL     OW 1469   1.656   0.407   0.728 -0.2814 -0.7840  0.4328
  368SOL    HW1 1470   1.735   0.376   0.682 -0.7988 -0.7887  0.0644
  368SOL    HW2 1471   1.674   0.501   0.729  3.0198 -0.9343 -0.3270
  368SOL     MW 1472   1.669   0.415   0.722  0.0859 -0.8045  0.2839
  369SOL     OW 1473   0.162   2.446   1.791  0.6872 -0.2066  0.2481
  369SOL    HW1 1474   0.260   2.448   1.791 -1.5972  0.9269 -0.1727
  369SOL    HW2 1475   0.126   2.541   1.787 -2.5193  2.6617  0.5521
  369SOL     MW 1476   0.170   2.459   1.790 -0.0373  0.3214  0.2327
  370SOL     OW 1477   0.717   0.094   0.986 -0.0397  0.3066 -0.6589
  370SOL    HW1 1478   0.711   0.187   1.001 -2.1866 -3.2972 -1.4927
  370SOL    HW2 1479   0.807   0.071   0.992  1.0610  1.0772 -2.5065
  370SOL     MW 1480   0.728   0.103   0.989 -0.1778 -0.0672 -1.0127
  371SOL     OW 1481   1.337   2.913   1.524  0.1787  0.4079 -0.2888
  371SOL    HW1 1482   1.262   2.859   1.491 -2.2578  1.6577  1.7699
  371SOL    HW2 1483   1.321   2.994   1.476 -0.3412  0.2238  0.2235
  371SOL     MW 1484   1.325   2.916   1.513 -0.2114  0.5485  0.0504
  372SOL     OW 1485   0.746   2.302   0.463  0.1411 -0.1876  0.2127
  372SOL    HW1 1486   0.742   2.213   0.492  0.0093 -1.2334 -2.7603
  372SOL    HW2 1487   0.788   2.287   0.368  0.8409 -1.0528 -3.9282
  372SOL     MW 1488   0.751   2.288   0.454  0.2160 -0.4397 -0.7259
  373SOL     OW 1489   2.792   3.012   1.447  0.5860  0.1830  0.1186
  373SOL    HW1 1490   2.868   2.992   1.396 -0.0593  0.3306 -1.5949
  373SOL    HW2 1491   2.756   3.088   1.407  0.0700 -0.1402  0.9890
  373SOL     MW 1492   2.797   3.020   1.435  0.4328  0.1598  0.0074
  374SOL     OW 1493   1.542   0.445   0.216 -0.2673  0.5766 -0.0194
  374SOL    HW1 1494   1.575   0.355   0.213 -1.0161 -0.5955 -0.3926
  374SOL    HW2 1495   1.525   0.461   0.306  1.6543  0.1014  0.3524
  374SOL     MW 1496   1.544   0.435   0.227 -0.1126  0.3593 -0.0196
  375SOL     OW 1497   0.979   2.108   2.258 -0.3781  0.3735  0.0585
  375SOL    HW1 1498   1.042   2.096   2.335 -1.3304 -2.3274 -0.0316
  375SOL    HW2 1499   1.002   2.050   2.185  4.2317  0.7113  1.8671
  375SOL     MW 1500   0.990   2.099   2.258  0.1045  0.0617  0.2852
  376SOL     OW 1501   0.750   2.543   0.091  0.1799  0.3802  0.3698
  376SOL    HW1 1502   0.710   2.487   0.157  4.1538  0.7006 -1.0868
  376SOL    HW2 1503   0.749   2.480   0.020  0.3802 -3.5674 -1.4911
  376SOL     MW 1504   0.745   2.528   0.090  0.7307 -0.0984 -0.0679
  377SOL     OW 1505   1.285   2.017   0.851 -0.5469  0.0016 -0.0780
  377SOL    HW1 1506   1.204   2.001   0.796  2.4085  1.8371  0.7913
  377SOL    HW2 1507   1.257   1.990   0.936 -0.5805 -1.0277 -1.1504
  377SOL     MW 1508   1.271   2.011   0.855 -0.1614  0.1080 -0.1048
  378SOL     OW 1509   0.885   2.841   1.572 -0.1301  0.2785 -0.1647
  378SOL    HW1 1510   0.876   2.745   1.556 -1.3567 -1.4285 -1.9596
  378SOL    HW2 1511   0.903   2.891   1.491 -1.0787  0.0737 -0.1570
  378SOL     MW 1512   0.886   2.835   1.559 -0.4171  0.0263 -0.4005
  379SOL     OW 1513   1.157   1.757   2.264  0.3059 -0.4136  0.1303
  379SOL    HW1 1514   1.081   1.699   2.250 -0.1003 -1.0898  0.1654
  379SOL    HW2 1515   1.214   1.708   2.207  3.5553  1.6678  1.0285
  379SOL     MW 1516   1.154   1.743   2.254  0.6811 -0.2282  0.2534
  380SOL     OW 1517   0.810   0.116   1.604  0.8520  0.0273 -0.9013
  380SOL    HW1 1518   0.832   0.061   1.533 -0.2627 -1.1191  3.6421
  380SOL    HW2 1519   0.895   0.149   1.637  0.3229  3.2687 -2.3055
  380SOL     MW 1520   0.824   0.113   1.599  0.6351  0.3037 -0.4871
  381SOL     OW 1521   0.795   2.006   0.794 -0.0060  0.0688  0.1794
  381SOL    HW1 1522   0.882   1.993   0.757 -0.0248 -3.6158 -0.8901
  381SOL    HW2 1523   0.789   2.095   0.813 -2.3755 -1.0222 -0.6808
  381SOL     MW 1524   0.805   2.016   0.792 -0.3211 -0.5613 -0.0752
  382SOL     OW 1525   0.728   0.078   0.723 -0.1397  0.1151 -0.4066
  382SOL    HW1 1526   0.713   0.095   0.820 -1.8329  0.5446  1.4562
  382SOL    HW2 1527   0.704  -0.008   0.689  2.1533  1.3340  2.0068
  382SOL     MW 1528   0.723   0.069   0.731 -0.0606  0.3326  0.1576
  383SOL     OW 1529   0.545   3.100   0.258  0.2512  0.5814 -0.2777
  383SOL    HW1 1530   0.585   3.042   0.192  1.5939  2.2058  0.6248
  383SOL    HW2 1531   0.517   3.050   0.329 -0.3158  1.0962 -0.2101
  383SOL     MW 1532   0.547   3.086   0.259  0.3535  0.8637 -0.1497
  384SOL     OW 1533   0.698   2.910   0.625 -0.4789  0.0681  0.0099
  384SOL    HW1 1534   0.781   2.905   0.674  1.0195  0.8726  0.0705
  384SOL    HW2 1535   0.641   2.839   0.653  0.9269 -0.9512 -0.1377
  384SOL     MW 1536   0.701   2.900   0.635 -0.0957  0.0398 -0.0016
  385SOL     OW 1537   1.376   2.070   1.530 -0.0161 -0.0353 -0.4024
  385SOL    HW1 1538   1.454   2.115   1.571 -3.2130  0.6095  1.2780
  385SOL    HW2 1539   1.351   1.997   1.585  4.3273  3.2730  1.6035
  385SOL     MW 1540   1.383   2.067   1.543  0.1352  0.4863  0.0839
  386SOL     OW 1541   1.304   0.385   0.892 -0.2307 -0.1535 -0.2466
  386SOL    HW1 1542   1.230   0.388   0.950 -0.4775  0.7529  2.0584
  386SOL    HW2 1543   1.349   0.303   0.909 -0.8115  1.0971 -4.6311
  386SOL     MW 1544   1.300   0.375   0.902 -0.3399  0.1311 -0.5210
  387SOL     OW 1545   0.840   2.206   1.542  0.4445  0.4774 -0.4625
  387SOL    HW1 1546   0.887   2.277   1.495  0.2110 -0.1822  0.0147
  387SOL    HW2 1547   0.853   2.130   1.484  0.3243  0.0725  2.0515
  387SOL     MW 1548   0.848   2.205   1.529  0.3978  0.3369 -0.0678
  388SOL     OW 1549   1.524   2.765   1.181  0.2298 -0.0299  0.0883
  388SOL    HW1 1550   1.430   2.744   1.196  0.9029 -0.4179 -1.4191
  388SOL    HW2 1551   1.539   2.697   1.117 -1.8520  0.4239  1.7890
  388SOL     MW 1552   1.513   2.753   1.174  0.0439 -0.0212  0.1138
  389SOL     OW 1553   0.439   0.125   3.011 -0.0670  0.7732 -0.3773
  389SOL    HW1 1554   0.524   0.085   3.033 -2.5994 -0.0359  1.3480
  389SOL    HW2 1555   0.442   0.176   2.927 -0.8772 -0.3001 -1.8491
  389SOL     MW 1556   0.451   0.126   3.003 -0.5080  0.5248 -0.3438
  390SOL     OW 1557   1.294   0.085   0.698  0.7333  0.2051  0.8302
  390SOL    HW1 1558   1.342   0.052   0.617 -0.3967 -1.1113 -1.3132
  390SOL    HW2 1559   1.360   0.115   0.758 -2.4290  0.1196 -0.5156
  390SOL     MW 1560   1.309   0.085   0.695  0.1670  0.0202  0.3699
  391SOL     OW 1561   0.343   2.234   1.416 -0.4884 -0.2872  0.2148
  391SOL    HW1 1562   0.306   2.145   1.434 -0.9319  0.4402 -1.7676
  391SOL    HW2 1563   0.262   2.279   1.429 -0.3507  2.7532  0.2822
  391SOL     MW 1564   0.327   2.229   1.420 -0.5288  0.2099 -0.0379
  392SOL     OW 1565   2.014   2.213   0.311 -0.0271 -0.3750 -0.0539
  392SOL    HW1 1566   2.073   2.181   0.377 -0.7136  2.6768 -1.1604
  392SOL    HW2 1567   1.971   2.280   0.369  0.8170 -1.8739 -0.0509
  392SOL     MW 1568   2.016   2.218   0.327 -0.0063 -0.1701 -0.1995
  393SOL     OW 1569   0.248   2.971   2.798  0.6590  0.1518 -0.1785
  393SOL    HW1 1570   0.345   2.948   2.781  1.3909 -1.6376 -1.0577
  393SOL    HW2 1571   0.251   3.067   2.801  0.2720 -1.8344  1.7577
  393SOL     MW 1572   0.261   2.980   2.796  0.7045 -0.3463 -0.0390
  394SOL     OW 1573   0.866   1.750   1.541  0.8983 -0.2118 -0.3389
  394SOL    HW1 1574   0.786   1.767   1.596 -0.2137  1.0188 -0.3659
  394SOL    HW2 1575   0.880   1.840   1.498 -1.6886 -2.4201 -1.3099
  394SOL     MW 1576   0.857   1.764   1.542  0.4103 -0.3408 -0.4706
  395SOL     OW 1577   0.955   2.854   2.662 -0.3611  1.3550  0.2443
  395SOL    HW1 1578   1.016   2.912   2.703 -0.2429  0.1532  0.5930
  395SOL    HW2 1579   1.014   2.809   2.599 -0.7510  1.6526 -1.0727
  395SOL     MW 1580   0.971   2.856   2.659 -0.3970  1.2357  0.1166
  396SOL     OW 1581   0.712   1.849   2.378 -0.2061 -0.2339  0.1523
  396SOL    HW1 1582   0.780   1.860   2.449  2.9134 -2.9058  1.2381
  396SOL    HW2 1583   0.702   1.756   2.378 -1.4821  3.5144 -0.7242
  396SOL     MW 1584   0.720   1.839   2.387  0.0371 -0.0919  0.1799
  397SOL     OW 1585   1.016   2.330   1.355  0.0553  0.4791  1.0288
  397SOL    HW1 1586   1.052   2.352   1.271  0.7227 -0.4150  1.9335
  397SOL    HW2 1587   1.092   2.326   1.412 -0.7388 -0.3606 -3.4183
  397SOL     MW 1588   1.031   2.332   1.351  0.0386  0.2504  0.5614
  398SOL     OW 1589   0.543   2.666   0.680  0.8146 -0.1288  0.0953
  398SOL    HW1 1590   0.460   2.641   0.646 -0.4220  0.8258 -3.0281
  398SOL    HW2 1591   0.599   2.587   0.681 -0.1597  2.3993  1.5273
  398SOL     MW 1592   0.540   2.652   0.676  0.5229  0.3307 -0.1279
  399SOL     OW 1593   0.227   2.093   0.291 -0.1840 -0.0438 -0.5517
  399SOL    HW1 1594   0.151   2.143   0.318 -1.7754 -1.5778  0.2781
  399SOL    HW2 1595   0.248   2.111   0.194 -0.8439  1.0343  0.0269
  399SOL     MW 1596   0.219   2.102   0.282 -0.4811 -0.1039 -0.3659
  400SOL     OW 1597   0.517   1.933   0.088  0.0906 -0.4190  0.1194
  400SOL    HW1 1598   0.451   1.998   0.061 -1.4453 -0.3815 -0.6476
  400SOL    HW2 1599   0.492   1.906   0.179  1.0927  2.9427  2.0977
  400SOL     MW 1600   0.505   1.938   0.096  0.0202  0.0295  0.2792
  401SOL     OW 1601   0.765   2.051   0.058  0.7795 -0.4837 -0.1615
  401SOL    HW1 1602   0.838   1.993   0.096 -0.5804  0.7804  0.7035
  401SOL    HW2 1603   0.676   2.011   0.059 -0.2759  0.6440  0.1702
  401SOL     MW 1604   0.763   2.038   0.063  0.4608 -0.1681 -0.0036
  402SOL     OW 1605   0.605   2.975   1.748  0.3970 -0.2990 -0.2265
  402SOL    HW1 1606   0.691   2.955   1.776 -0.5184 -0.6227 -2.0919
  402SOL    HW2 1607   0.609   3.057   1.696 -1.3094 -1.2678 -3.1193
  402SOL     MW 1608   0.617   2.983   1.745  0.0511 -0.4696 -0.8543
  403SOL     OW 1609   0.098   0.421   0.393  0.3243 -0.0405  0.1377
  403SOL    HW1 1610   0.180   0.459   0.434  1.1914 -0.2949 -1.4977
  403SOL    HW2 1611   0.123   0.400   0.302 -2.4360 -5.2369  2.2813
  403SOL     MW 1612   0.112   0.423   0.387  0.0745 -0.7597  0.2047
  404SOL     OW 1613   0.960   2.922   0.759  0.3451 -0.6501  0.0353
  404SOL    HW1 1614   1.012   2.846   0.729  0.0029 -0.3482 -2.4821
  404SOL    HW2 1615   0.977   2.997   0.700 -0.8543  0.8662  0.1667
  404SOL     MW 1616   0.969   2.922   0.747  0.1417 -0.4102 -0.2795
  405SOL     OW 1617   0.536   2.427   1.538  0.3123  0.5271  0.1481
  405SOL    HW1 1618   0.525   2.492   1.465 -0.0153  1.9080 -0.9897
  405SOL    HW2 1619   0.481   2.348   1.517  0.7087 -1.5110 -1.0833
  405SOL     MW 1620   0.527   2.425   1.526  0.3214  0.4404 -0.1645
  406SOL     OW 1621   0.362   2.400   1.064 -0.1366  0.1412 -0.3920
  406SOL    HW1 1622   0.274   2.413   1.096 -0.3179  1.3241  0.5469
  406SOL    HW2 1623   0.397   2.320   1.108 -1.0455 -0.8236  0.1799
  406SOL     MW 1624   0.355   2.391   1.074 -0.2805  0.1700 -0.1926
  407SOL     OW 1625   0.014   2.661   1.150  0.3510  0.5031 -0.1065
  407SOL    HW1 1626   0.079   2.654   1.227  0.6446 -0.9534  1.4079
  407SOL    HW2 1627   0.069   2.698   1.076  0.9624  1.1187  2.9039
  407SOL     MW 1628   0.029   2.665   1.150  0.4704  0.3922  0.4905
  408SOL     OW 1629   2.172   2.173   0.634 -0.5836 -0.1070 -0.4639
  408SOL    HW1 1630   2.146   2.219   0.715  1.3296  1.9637  0.3731
  408SOL    HW2 1631   2.101   2.110   0.626  1.8871  0.2295 -1.2221
  408SOL     MW 1632   2.159   2.171   0.644 -0.0052  0.2106 -0.4535
  409SOL     OW 1633   1.430   0.150   0.940 -0.2117 -0.0437 -0.0497
  409SOL    HW1 1634   1.527   0.168   0.929  0.6780 -3.1744  0.8322
  409SOL    HW2 1635   1.430   0.067   0.986  0.5753  0.5289  0.2533
  409SOL     MW 1636   1.443   0.142   0.945  0.0095 -0.3812  0.1066
  410SOL     OW 1637   1.109   2.441   1.105 -0.4596 -0.2097  0.2080
  410SOL    HW1 1638   1.048   2.498   1.066 -0.5566  1.8044  0.7926
  410SOL    HW2 1639   1.141   2.374   1.035 -0.7827 -1.0892 -1.4923
  410SOL     MW 1640   1.105   2.440   1.091 -0.5150 -0.0600  0.0608
  411SOL     OW 1641   1.966   0.069   2.866 -0.2561 -0.6286 -0.1122
  411SOL    HW1 1642   1.902   0.017   2.824 -1.3498 -0.9490 -0.3752
  411SOL    HW2 1643   1.921   0.136   2.917 -1.8167  2.1582 -0.8886
  411SOL     MW 1644   1.952   0.071   2.867 -0.6063 -0.3032 -0.2493
  412SOL     OW 1645   1.044   2.260   0.577  0.5872  0.5821 -0.5079
  412SOL    HW1 1646   1.106   2.327   0.611 -0.3021  3.0027  0.4079
  412SOL    HW2 1647   0.973   2.307   0.532  1.3128 -3.9759  2.9781
  412SOL     MW 1648   1.043   2.275   0.575  0.5656  0.3001  0.0729
  413SOL     OW 1649   0.580   2.724   3.071 -0.6407 -0.1781 -0.3726
  413SOL    HW1 1650   0.648   2.654   3.109  2.4407 -1.3174  4.4808
  413SOL    HW2 1651   0.616   2.752   2.991  0.4216 -0.3571  2.7348
  413SOL     MW 1652   0.594   2.719   3.065 -0.0940 -0.3521  0.6778
  414SOL     OW 1653   1.895   2.981   1.092  0.2778 -0.2787  0.3748
  414SOL    HW1 1654   1.834   3.051   1.119 -0.8115 -0.1710  2.0482
  414SOL    HW2 1655   1.966   3.024   1.050 -0.6001  0.8434  0.9418
  414SOL     MW 1656   1.896   2.996   1.090  0.0182 -0.1165  0.6704
  415SOL     OW 1657   1.847   2.700   1.072  0.0978  0.8831 -0.2723
  415SOL    HW1 1658   1.814   2.684   1.163  2.0764  1.5548  1.8026
  415SOL    HW2 1659   1.860   2.794   1.060  1.3240  1.3616 -0.5147
  415SOL     MW 1660   1.844   2.710   1.082  0.5207  1.0348 -0.0305
  416SOL     OW 1661   0.548   1.996   1.360  0.1693 -0.0220  0.0795
  416SOL    HW1 1662   0.531   2.048   1.280 -1.1763 -0.1863  1.5135
  416SOL    HW2 1663   0.538   1.906   1.326  2.4056 -2.0997 -3.1985
  416SOL     MW 1664   0.544   1.991   1.345  0.2868 -0.3178 -0.1638
  417SOL     OW 1665   0.982   3.035   2.056 -0.2013 -0.7931 -0.2022
  417SOL    HW1 1666   0.929   3.025   2.130 -0.2281 -0.3284  0.6835
  417SOL    HW2 1667   0.931   2.982   1.984  2.6794 -0.5574 -2.1990
  417SOL     MW 1668   0.968   3.027   2.056  0.1752 -0.7007 -0.3488
  418SOL     OW 1669   0.682   2.932   0.100 -0.5012  0.1756 -0.1879
  418SOL    HW1 1670   0.763   2.946   0.047 -0.9036  0.3292 -1.2439
  418SOL    HW2 1671   0.636   2.850   0.056 -5.0557  0.2112  1.4417
  418SOL     MW 1672   0.687   2.923   0.087 -1.1552  0.2005 -0.1123
  419SOL     OW 1673   0.490   2.601   1.351  0.3937  0.1661  0.4228
  419SOL    HW1 1674   0.511   2.684   1.391  1.0646 -2.0448 -1.5058
  419SOL    HW2 1675   0.533   2.602   1.262  1.7976  4.1246  1.1827
  419SOL     MW 1676   0.498   2.612   1.345  0.6675  0.3966  0.2686
  420SOL     OW 1677   0.863   2.259   1.002  0.1401 -0.4563  0.5780
  420SOL    HW1 1678   0.806   2.267   1.077  0.2091  1.3437 -1.2911
  420SOL    HW2 1679   0.886   2.356   0.989 -0.1087  0.7857 -2.4800
  420SOL     MW 1680   0.858   2.273   1.010  0.1164 -0.0550 -0.0721
  421SOL     OW 1681   2.943   0.172   3.037 -0.1624  0.5140 -0.0654
  421SOL    HW1 1682   2.875   0.114   3.010  1.6391  1.4876  1.2612
  421SOL    HW2 1683   2.998   0.104   3.073 -3.5707  1.1261  0.8950
  421SOL     MW 1684   2.941   0.155   3.038 -0.3744  0.7232  0.2363
  422SOL     OW 1685   0.898   2.518   0.937  0.2602  0.1057  0.5709
  422SOL    HW1 1686   0.893   2.612   0.952  0.1967  1.4773 -0.3934
  422SOL    HW2 1687   0.864   2.501   0.845 -0.0406 -0.7724 -0.9578
  422SOL     MW 1688   0.892   2.528   0.927  0.2121  0.1708  0.2420
  423SOL     OW 1689   1.458   0.078   0.473 -0.0668  0.1001 -0.2688
  423SOL    HW1 1690   1.473   0.086   0.380  1.8221 -0.4454 -0.5077
  423SOL    HW2 1691   1.425   0.164   0.484  1.1041  1.4025  0.0948
  423SOL     MW 1692   1.456   0.091   0.462  0.3369  0.2000 -0.2523
  424SOL     OW 1693   0.675   2.296   1.207 -0.0163  0.5015  0.3685
  424SOL    HW1 1694   0.600   2.228   1.206 -1.1494 -1.0995  1.4419
  424SOL    HW2 1695   0.678   2.313   1.301 -0.3615  1.2645  1.8282
  424SOL     MW 1696   0.666   2.289   1.219 -0.2114  0.3910  0.7027
  425SOL     OW 1697   1.709   2.803   2.041  0.1310 -0.2897 -0.2848
  425SOL    HW1 1698   1.679   2.836   1.955 -3.5547  2.5581  0.4094
  425SOL    HW2 1699   1.768   2.727   2.038  0.2942  1.2247 -0.6729
  425SOL     MW 1700   1.713   2.797   2.030 -0.3338  0.2858 -0.2444
  426SOL     OW 1701   0.836   1.694   1.970  0.0056 -0.0073  0.2286
  426SOL    HW1 1702   0.767   1.710   1.902 -1.7133  0.1492  0.2171
  426SOL    HW2 1703   0.815   1.753   2.041 -1.5247 -2.1835 -0.2653
  426SOL     MW 1704   0.824   1.704   1.970 -0.4231 -0.2738  0.1619
  427SOL     OW 1705   0.386   1.653   1.886  0.4143  0.4125 -0.3026
  427SOL    HW1 1706   0.421   1.567   1.883  2.5185  1.3268  1.3426
  427SOL    HW2 1707   0.294   1.651   1.918  0.4664 -1.2187  0.2303
  427SOL     MW 1708   0.378   1.641   1.890  0.6988  0.3179 -0.0152
  428SOL     OW 1709   0.615   2.584   1.087 -0.4973 -0.5596 -0.7544
  428SOL    HW1 1710   0.700   2.548   1.105  0.0000  0.8748 -5.8720
  428SOL    HW2 1711   0.549   2.511   1.077 -2.2580 -1.4873 -5.4984
  428SOL     MW 1712   0.618   2.569   1.088 -0.6640 -0.4927 -2.0556
  429SOL     OW 1713   1.254   2.780   1.142 -0.2849  0.1978 -0.0127
  429SOL    HW1 1714   1.159   2.776   1.163  1.5635 -0.3288  1.6215
  429SOL    HW2 1715   1.263   2.849   1.077 -0.2273  1.0136  1.9603
  429SOL     MW 1716   1.243   2.788   1.137 -0.0334  0.2359  0.4632
  430SOL     OW 1717   1.145   2.733   0.706  0.3089 -0.3150  0.2823
  430SOL    HW1 1718   1.147   2.642   0.728 -0.1050 -0.4328  2.4281
  430SOL    HW2 1719   1.095   2.718   0.619  0.0715 -0.3441 -1.3366
  430SOL     MW 1720   1.139   2.719   0.697  0.2229 -0.3344  0.3518
  431SOL     OW 1721   0.357   1.939   1.041  0.2249  0.4380 -0.2359
  431SOL    HW1 1722   0.443   1.893   1.035  1.4761 -1.9273 -2.0795
  431SOL    HW2 1723   0.311   1.933   0.953 -1.0398 -0.0896 -0.8566
  431SOL     MW 1724   0.363   1.932   1.028  0.2231  0.0563 -0.5610
  432SOL     OW 1725   0.075   0.034   1.236  0.3487  0.1430 -0.4118
  432SOL    HW1 1726   0.079   0.104   1.306 -0.4696 -3.8525  0.6805
  432SOL    HW2 1727   0.004  -0.029   1.259  1.1421  2.6117 -2.6579
  432SOL     MW 1728   0.066   0.035   1.248  0.3454 -0.0584 -0.5640
  433SOL     OW 1729   0.602   2.803   1.505 -0.2820 -0.1519 -0.2464
  433SOL    HW1 1730   0.576   2.837   1.592  2.2098 -0.6759  3.8260
  433SOL    HW2 1731   0.690   2.831   1.512 -1.4567 -0.6954  1.6548
  433SOL     MW 1732   0.610   2.811   1.518 -0.1082 -0.2927  0.5418
  434SOL     OW 1733   1.583   2.816   1.522  0.6179 -0.5435  0.1586
  434SOL    HW1 1734   1.492   2.823   1.486 -0.3857 -0.4734 -0.5121
  434SOL    HW2 1735   1.630   2.782   1.444  1.3339  2.3789 -0.1057
  434SOL     MW 1736   1.577   2.812   1.507  0.5800 -0.1486  0.0353
  435SOL     OW 1737   2.860   1.787   0.202  0.0203  0.0004 -0.6917
  435SOL    HW1 1738   2.939   1.833   0.172 -0.6183 -0.0513  1.5482
  435SOL    HW2 1739   2.802   1.755   0.122 -2.0136 -0.3663 -1.5783
  435SOL     MW 1740   2.862   1.789   0.188 -0.3323 -0.0548 -0.5131
  436SOL     OW 1741   1.373   2.677   0.449  0.6921 -0.4381  0.2557
  436SOL    HW1 1742   1.441   2.666   0.518  0.1020  1.3912  2.7854
  436SOL    HW2 1743   1.327   2.756   0.454  1.3591 -0.6641  0.6778
  436SOL     MW 1744   1.376   2.686   0.459  0.7023 -0.2265  0.6451
  437SOL     OW 1745   0.866   2.984   1.347  0.1807  0.2434  0.1865
  437SOL    HW1 1746   0.934   3.055   1.332  3.2863 -1.1367  3.1554
  437SOL    HW2 1747   0.902   2.913   1.296  0.6774  0.6717 -1.6085
  437SOL     MW 1748   0.880   2.984   1.338  0.6560  0.1178  0.3414
  438SOL     OW 1749   0.810   2.608   1.860 -0.0513 -0.4090  0.6011
  438SOL    HW1 1750   0.789   2.616   1.950  2.4864 -0.9589  1.9269
  438SOL    HW2 1751   0.781   2.518   1.830 -0.5744  0.9545  0.4415
  438SOL     MW 1752   0.804   2.597   1.868  0.2145 -0.3016  0.7550
  439SOL     OW 1753   1.244   2.161   0.414  0.0880 -0.4369 -0.2903
  439SOL    HW1 1754   1.186   2.210   0.472  1.0450 -1.0232 -1.1148
  439SOL    HW2 1755   1.220   2.204   0.332 -1.4146 -0.0334  0.7803
  439SOL     MW 1756   1.233   2.173   0.411  0.0160 -0.4610 -0.2578
  440SOL     OW 1757   1.769   3.036   3.065 -0.0274 -0.1819 -0.1503
  440SOL    HW1 1758   1.724   2.975   3.126  1.5174 -2.1349  0.5127
  440SOL    HW2 1759   1.855   2.998   3.054 -3.3882 -0.3348  0.0718
  440SOL     MW 1760   1.775   3.023   3.071 -0.2670 -0.4598 -0.0335
  441SOL     OW 1761   0.315   2.641   0.470  0.2605  0.3497  0.0954
  441SOL    HW1 1762   0.303   2.640   0.373  1.1017 -0.6980 -3.0891
  441SOL    HW2 1763   0.367   2.722   0.480 -2.5061 -0.2826 -3.3176
  441SOL     MW 1764   0.320   2.652   0.459  0.0064  0.1280 -0.7751
  442SOL     OW 1765   0.006   2.412   0.612  0.3196 -0.1990  0.0167
  442SOL    HW1 1766   0.011   2.504   0.592 -0.7625  2.5210 -0.2689
  442SOL    HW2 1767  -0.088   2.393   0.624  0.3412 -2.7090  0.3404
  442SOL     MW 1768  -0.006   2.422   0.611  0.1797 -0.1713  0.0217
  443SOL     OW 1769   1.412   1.795   1.904  0.3833 -0.3987  0.2926
  443SOL    HW1 1770   1.340   1.815   1.847  0.3961  0.7358  1.5198
  443SOL    HW2 1771   1.379   1.723   1.962  0.2288  1.4342  2.5109
  443SOL     MW 1772   1.398   1.788   1.904  0.3646 -0.0072  0.7472
  444SOL     OW 1773   0.858   2.563   1.532 -0.3042  0.2374 -0.2179
  444SOL    HW1 1774   0.901   2.494   1.587 -0.0885 -2.1544  1.2976
  444SOL    HW2 1775   0.763   2.544   1.524 -0.4716  3.2407  1.0742
  444SOL     MW 1776   0.851   2.551   1.538 -0.2978  0.3181  0.1525
  445SOL     OW 1777   1.045   0.079   1.336  0.4139 -0.5221 -0.3373
  445SOL    HW1 1778   0.980   0.148   1.317  1.7114 -0.0172 -0.8768
  445SOL    HW2 1779   1.123   0.108   1.295 -0.3738  3.3173  0.6154
  445SOL     MW 1780   1.047   0.092   1.328  0.4812  0.0511 -0.2828
  446SOL     OW 1781   2.739   2.917   1.116 -0.0784  0.0694  0.0580
  446SOL    HW1 1782   2.675   2.954   1.052 -1.0179 -1.7819 -0.0093
  446SOL    HW2 1783   2.772   2.837   1.069  1.2357 -1.2817 -1.4659
  446SOL     MW 1784   2.735   2.911   1.101 -0.0290 -0.3531 -0.1519
  447SOL     OW 1785   0.063   2.015   1.644 -0.6654 -0.2819 -0.3563
  447SOL    HW1 1786   0.091   1.943   1.700 -0.7394  0.9613  0.3030
  447SOL    HW2 1787  -0.011   1.976   1.588  0.6402 -2.1779 -2.4405
  447SOL     MW 1788   0.057   2.000   1.644 -0.5029 -0.3681 -0.5443
  448SOL     OW 1789   1.753   2.426   1.624  0.3283 -0.0159  0.4851
  448SOL    HW1 1790   1.717   2.334   1.615 -2.7525 -0.3111 -1.0973
  448SOL    HW2 1791   1.678   2.480   1.663 -0.9630  1.1032  1.2324
  448SOL     MW 1792   1.738   2.421   1.628 -0.2485  0.0928  0.3749
  449SOL     OW 1793   0.816   2.880   0.351  0.8698  0.6001 -0.4516
  449SOL    HW1 1794   0.769   2.886   0.265 -0.2695 -2.2114  0.6013
  449SOL    HW2 1795   0.755   2.882   0.431 -1.6067  0.0244  1.4948
  449SOL     MW 1796   0.802   2.881   0.350  0.3927  0.1532 -0.0558
  450SOL     OW 1797   1.203   2.457   0.729  0.0450 -0.2474 -0.4329
  450SOL    HW1 1798   1.177   2.380   0.788 -4.2268 -2.4462  1.8501
  450SOL    HW2 1799   1.294   2.451   0.711  0.7911  0.2367 -0.3548
  450SOL     MW 1800   1.211   2.446   0.735 -0.4202 -0.4737 -0.1214
  451SOL     OW 1801   0.553   2.073   1.618 -0.2041 -0.3133 -0.3207
  451SOL    HW1 1802   0.619   2.139   1.627  0.4508 -1.7573  1.6382
  451SOL    HW2 1803   0.524   2.059   1.524 -1.5032  0.3648 -1.9087
  451SOL     MW 1804   0.558   2.080   1.607 -0.2891 -0.4144 -0.2718
  452SOL     OW 1805   0.281   2.699   0.014 -0.0570 -0.3106  0.2674
  452SOL    HW1 1806   0.356   2.740  -0.030 -0.5228  1.2915  2.7231
  452SOL    HW2 1807   0.207   2.739  -0.039  0.0128 -1.6357  0.3151
  452SOL     MW 1808   0.281   2.709   0.001 -0.1092 -0.2741  0.5977
  453SOL     OW 1809   0.342   2.986   1.648  0.0912  0.4003 -0.1268
  453SOL    HW1 1810   0.431   2.974   1.673  1.2681 -0.2622 -3.5723
  453SOL    HW2 1811   0.353   3.039   1.564 -0.3943 -0.6754 -1.6981
  453SOL     MW 1812   0.355   2.991   1.640  0.1824  0.1710 -0.7887
  454SOL     OW 1813   0.993   2.774   1.212 -0.3903  0.3005 -0.2192
  454SOL    HW1 1814   0.909   2.722   1.227 -0.5307  0.7138  2.4379
  454SOL    HW2 1815   0.980   2.812   1.127  1.1532 -0.7041 -0.3206
  454SOL     MW 1816   0.980   2.772   1.203 -0.2052  0.2225  0.1180
  455SOL     OW 1817   1.614   2.932   0.155 -0.3317  0.3180 -0.3793
  455SOL    HW1 1818   1.691   2.937   0.217  0.8042  0.2842 -0.2244
  455SOL    HW2 1819   1.582   2.837   0.158  2.4905 -1.6232 -0.1516
  455SOL     MW 1820   1.620   2.920   0.164  0.1905  0.0574 -0.3288
  456SOL     OW 1821   2.760   0.349   1.482 -0.5835 -0.3739 -0.0209
  456SOL    HW1 1822   2.733   0.273   1.423 -1.2797 -3.0813 -1.9234
  456SOL    HW2 1823   2.836   0.400   1.439  0.4164  2.0636 -0.9416
  456SOL     MW 1824   2.766   0.346   1.468 -0.5434 -0.4095 -0.3934
  457SOL     OW 1825   0.976   1.549   2.932 -0.2066 -0.4153  0.6123
  457SOL    HW1 1826   0.914   1.542   3.005 -1.6969 -1.7386  3.8921
  457SOL    HW2 1827   1.033   1.471   2.933  1.1426  0.7388  0.4414
  457SOL     MW 1828   0.975   1.538   2.942 -0.2252 -0.4376  1.0225
  458SOL     OW 1829   1.440   1.475   0.562 -0.9334 -0.2497  0.1737
  458SOL    HW1 1830   1.391   1.556   0.549 -0.2524  1.4545  1.8973
  458SOL    HW2 1831   1.406   1.418   0.492 -2.9582 -0.8269  0.1955
  458SOL     MW 1832   1.429   1.478   0.551 -1.1107 -0.1010  0.4040
  459SOL     OW 1833   1.475   0.078   0.188  0.8887 -0.5190  0.2370
  459SOL    HW1 1834   1.505  -0.007   0.152 -0.9469 -1.8923  0.8665
  459SOL    HW2 1835   1.410   0.105   0.127  2.9939 -2.1729  0.1352
  459SOL     MW 1836   1.470   0.070   0.175  0.9242 -0.9184  0.3067
  460SOL     OW 1837   1.747   2.151   0.614  0.3793  0.1337 -0.5037
  460SOL    HW1 1838   1.670   2.179   0.665 -0.8638 -0.2851 -0.4913
  460SOL    HW2 1839   1.763   2.059   0.636  1.5654  0.2518 -0.1440
  460SOL     MW 1840   1.739   2.142   0.623  0.3718  0.0940 -0.4546
  461SOL     OW 1841   0.366   2.376   0.574  0.0218 -0.1165  0.0932
  461SOL    HW1 1842   0.380   2.449   0.510  0.5886  0.1029 -1.1746
  461SOL    HW2 1843   0.324   2.415   0.646  0.7282 -0.1882 -1.3806
  461SOL     MW 1844   0.362   2.391   0.575  0.1898 -0.0970 -0.2686
  462SOL     OW 1845   0.404   0.286   1.286 -0.3152 -0.1529 -0.3440
  462SOL    HW1 1846   0.405   0.241   1.198 -1.4349 -0.8455 -1.6075
  462SOL    HW2 1847   0.487   0.331   1.288 -1.5048 -1.4861 -0.7752
  462SOL     MW 1848   0.415   0.286   1.274 -0.6199 -0.4202 -0.5676
  463SOL     OW 1849   0.990   0.075   0.649  0.5718  0.1288  0.2953
  463SOL    HW1 1850   0.977   0.141   0.576 -2.8883  0.5720 -0.8704
  463SOL    HW2 1851   0.898   0.067   0.671  2.9885  1.2855  1.8909
  463SOL     MW 1852   0.976   0.082   0.642  0.4341  0.3399  0.3520
  464SOL     OW 1853   0.819   3.072   2.299 -0.2182 -0.4909 -0.2187
  464SOL    HW1 1854   0.807   2.979   2.288  0.5899  1.0990 -0.2114
  464SOL    HW2 1855   0.791   3.089   2.396 -0.3311 -0.5989  0.0552
  464SOL     MW 1856   0.814   3.062   2.311 -0.1265 -0.2954 -0.1816
  465SOL     OW 1857   0.725   0.291   0.491  0.4352 -0.1618  0.3359
  465SOL    HW1 1858   0.689   0.226   0.550 -1.3833  0.4227  0.7015
  465SOL    HW2 1859   0.705   0.280   0.395  0.8383  0.3455  0.2538
  465SOL     MW 1860   0.717   0.281   0.486  0.2484 -0.0177  0.3733
  466SOL     OW 1861   1.055   2.010   0.711 -0.4021 -0.4134  0.1661
  466SOL    HW1 1862   1.079   1.944   0.648 -0.7680  0.5883 -1.0572
  466SOL    HW2 1863   1.055   2.089   0.657 -3.2949 -0.8279 -2.0349
  466SOL     MW 1864   1.058   2.012   0.696 -0.8321 -0.3359 -0.2857
  467SOL     OW 1865   1.222   2.282   0.930  0.0330 -0.2635  0.1279
  467SOL    HW1 1866   1.319   2.305   0.927  0.3603 -0.2229 -0.9561
  467SOL    HW2 1867   1.222   2.191   0.905  0.6530 -0.7330 -0.3470
  467SOL     MW 1868   1.235   2.273   0.926  0.1580 -0.3201 -0.0778
  468SOL     OW 1869   0.375   2.604   2.030 -0.1750  0.3410 -0.0085
  468SOL    HW1 1870   0.392   2.547   1.949 -3.3072 -0.1261  1.8838
  468SOL    HW2 1871   0.311   2.673   1.995  0.2788 -0.4039 -0.1742
  468SOL     MW 1872   0.369   2.606   2.014 -0.5284  0.1811  0.2193
  469SOL     OW 1873   0.361   2.197   1.805  0.0306 -0.0372  0.4827
  469SOL    HW1 1874   0.303   2.129   1.838  0.7198 -0.4487 -1.6860
  469SOL    HW2 1875   0.404   2.157   1.724  0.1957 -0.6710 -1.8062
  469SOL     MW 1876   0.359   2.182   1.799  0.1433 -0.1751 -0.1054
  470SOL     OW 1877   3.009   2.602   0.096  0.4134  0.0185  0.3715
  470SOL    HW1 1878   2.939   2.576   0.160 -0.0540 -0.7653 -4.0561
  470SOL    HW2 1879   2.971   2.591   0.005  2.2600  1.5665 -1.0665
  470SOL     MW 1880   2.995   2.597   0.092  0.5954  0.1193 -0.4024
  471SOL     OW 1881   1.181   2.711   1.465  0.3028  0.0606 -0.1095
  471SOL    HW1 1882   1.134   2.645   1.525  1.6833 -1.3324  0.0717
  471SOL    HW2 1883   1.129   2.718   1.384  1.7317  0.2724  0.0115
  471SOL     MW 1884   1.168   2.703   1.463  0.6735 -0.0952 -0.0697
  472SOL     OW 1885   2.864   2.102   0.350 -0.4015 -0.5608 -0.5836
  472SOL    HW1 1886   2.925   2.056   0.296 -2.0229 -3.4024 -2.4398
  472SOL    HW2 1887   2.845   2.034   0.416  1.8109 -0.6026 -0.3819
  472SOL     MW 1888   2.870   2.087   0.352 -0.3236 -0.9412 -0.8019
  473SOL     OW 1889   0.823   2.548   1.263  0.2099 -0.5927  0.6099
  473SOL    HW1 1890   0.844   2.456   1.254 -1.6128 -2.4033 -1.6927
  473SOL    HW2 1891   0.869   2.570   1.344 -0.2128 -3.5306  0.1028
  473SOL     MW 1892   0.832   2.539   1.272 -0.0864 -1.2192  0.2392
  474SOL     OW 1893   0.866   2.111   1.796  0.0792  0.1738  0.0426
  474SOL    HW1 1894   0.950   2.146   1.821 -2.0615 -1.6373  1.9853
  474SOL    HW2 1895   0.865   2.121   1.698 -1.1320 -0.0751  0.7395
  474SOL     MW 1896   0.877   2.117   1.786 -0.3630 -0.0980  0.3908
  475SOL     OW 1897   1.649   3.090   1.491 -0.0540 -0.7915 -0.2698
  475SOL    HW1 1898   1.567   3.115   1.438 -3.7266 -0.8221 -0.5421
  475SOL    HW2 1899   1.623   3.004   1.528  1.0708 -1.4977  0.7360
  475SOL     MW 1900   1.635   3.082   1.489 -0.3902 -0.8887 -0.1730
  476SOL     OW 1901   1.415   2.609   0.977  0.3368  0.2535  0.4543
  476SOL    HW1 1902   1.351   2.646   1.031  1.1351 -0.7815  2.1186
  476SOL    HW2 1903   1.433   2.667   0.907  0.6995  0.0393  2.7161
  476SOL     MW 1904   1.409   2.621   0.975  0.4900  0.0887  0.9723
  477SOL     OW 1905   0.773   2.499   0.655 -0.0574  0.1868  0.8641
  477SOL    HW1 1906   0.810   2.569   0.605 -1.3582  0.1280  0.1147
  477SOL    HW2 1907   0.751   2.429   0.590  0.0471  3.2746 -2.3417
  477SOL     MW 1908   0.775   2.499   0.640 -0.2152  0.5864  0.3422
  478SOL     OW 1909   0.164   2.721   0.925  0.3215 -0.2527 -0.2733
  478SOL    HW1 1910   0.227   2.788   0.907  0.7613  1.3631  2.7055
  478SOL    HW2 1911   0.175   2.652   0.853 -2.8478  0.6072  0.0626
  478SOL     MW 1912   0.174   2.721   0.913 -0.0387  0.0739  0.1640
  479SOL     OW 1913   1.438   1.983   1.264  0.1068 -0.0682 -0.4859
  479SOL    HW1 1914   1.402   2.036   1.338  1.7281  1.0460  2.1849
  479SOL    HW2 1915   1.526   1.956   1.289 -1.0723  0.5791  0.1978
  479SOL     MW 1916   1.445   1.986   1.277  0.1651  0.1643 -0.0433
  480SOL     OW 1917   1.887   2.392   1.301  0.0030  0.4373 -0.8517
  480SOL    HW1 1918   1.838   2.318   1.332 -1.2248  0.7175  0.3528
  480SOL    HW2 1919   1.944   2.355   1.236 -1.2605  0.9434 -0.0102
  480SOL     MW 1920   1.888   2.378   1.296 -0.3257  0.5410 -0.5817
  481SOL     OW 1921   0.998   0.052   1.000  0.0820 -0.4779 -0.9376
  481SOL    HW1 1922   1.050  -0.011   0.949  1.9603  0.0950 -0.3335
  481SOL    HW2 1923   1.067   0.097   1.044 -0.0487  0.6402  0.8045
  481SOL     MW 1924   1.014   0.050   0.999  0.3126 -0.2548 -0.6281
  482SOL     OW 1925   1.033   3.017   0.264  0.2999 -0.0267 -0.2738
  482SOL    HW1 1926   0.956   2.963   0.278 -1.6547  3.6945 -1.0389
  482SOL    HW2 1927   1.018   3.099   0.312 -0.0858 -0.7123  0.8061
  482SOL     MW 1928   1.021   3.021   0.272 -0.0089  0.3738 -0.2323
  483SOL     OW 1929   0.414   2.907   0.471  0.0096 -0.0205 -0.1574
  483SOL    HW1 1930   0.343   2.922   0.409  0.5234 -1.9537 -0.2650
  483SOL    HW2 1931   0.399   2.968   0.543  0.9607 -0.8308 -0.5209
  483SOL     MW 1932   0.402   2.917   0.472  0.2028 -0.3825 -0.2195
  484SOL     OW 1933   1.691   1.869   1.386  0.7376  0.0241  0.5170
  484SOL    HW1 1934   1.749   1.945   1.374 -1.0794  0.7620 -0.8173
  484SOL    HW2 1935   1.647   1.894   1.466 -0.0908  1.3686 -1.1765
  484SOL     MW 1936   1.693   1.882   1.395  0.3885  0.2988  0.1175
  485SOL     OW 1937   0.555   2.375   0.227  0.0832 -0.7430  0.2371
  485SOL    HW1 1938   0.592   2.373   0.316 -2.5679 -0.6824 -2.1780
  485SOL    HW2 1939   0.464   2.406   0.246  0.1217  0.7096  0.4480
  485SOL     MW 1940   0.548   2.379   0.241 -0.2615 -0.5434 -0.0537
  486SOL     OW 1941   0.153   2.409   1.510  0.3969 -0.0717  0.4591
  486SOL    HW1 1942   0.159   2.497   1.461 -0.5043 -0.8364  3.0110
  486SOL    HW2 1943   0.157   2.420   1.609 -1.1377  0.4035  0.6815
  486SOL     MW 1944   0.154   2.422   1.517  0.0755 -0.1099  0.8251
  487SOL     OW 1945   1.288   1.645   1.043  0.2453  0.4467  0.1536
  487SOL    HW1 1946   1.273   1.738   1.054 -1.8797 -0.1228 -0.1691
  487SOL    HW2 1947   1.374   1.630   1.000  3.0170 -2.9716 -3.1346
  487SOL     MW 1948   1.297   1.655   1.039  0.3307 -0.0795 -0.3228
  488SOL     OW 1949   1.661   1.854   0.530  0.5523 -0.4445  0.0547
  488SOL    HW1 1950   1.742   1.871   0.492 -1.8881  0.3870  0.7219
  488SOL    HW2 1951   1.593   1.920   0.505  0.2763 -1.1031  1.8970
  488SOL     MW 1952   1.662   1.865   0.522  0.1939 -0.4216  0.3858
  489SOL     OW 1953   0.641   0.777   0.610  0.1325  0.2485  0.5086
  489SOL    HW1 1954   0.702   0.716   0.577 -1.2606  2.2123 -2.9689
  489SOL    HW2 1955   0.645   0.787   0.705  0.0575 -0.9053 -0.0674
  489SOL     MW 1956   0.650   0.770   0.619 -0.0612  0.3554 -0.0262
  490SOL     OW 1957   1.486   2.027   0.417  0.5211  0.6543 -0.0476
  490SOL    HW1 1958   1.552   2.086   0.396 -1.3422 -1.2236  0.8503
  490SOL    HW2 1959   1.400   2.078   0.411 -0.3950  0.8162 -0.1936
  490SOL     MW 1960   1.483   2.041   0.414  0.1544  0.4279  0.0516
  491SOL     OW 1961   1.220   2.941   0.470  0.5669  0.0909 -0.5729
  491SOL    HW1 1962   1.280   3.012   0.462  1.2688  0.8123  1.0168
  491SOL    HW2 1963   1.153   2.953   0.405 -0.9906 -0.9816  1.5174
  491SOL     MW 1964   1.219   2.952   0.460  0.4540  0.0446 -0.0873
  492SOL     OW 1965   1.512   2.091   0.743 -0.0084  0.0688  0.2088
  492SOL    HW1 1966   1.478   2.081   0.655 -1.2607  1.2492  1.6393
  492SOL    HW2 1967   1.438   2.051   0.795 -1.5746 -1.2159  2.0766
  492SOL     MW 1968   1.498   2.084   0.738 -0.3803  0.0550  0.6440
  493SOL     OW 1969   0.210   2.982   0.318  0.3305  0.0829  0.0892
  493SOL    HW1 1970   0.178   3.055   0.372  0.3890 -0.1630 -1.5611
  493SOL    HW2 1971   0.226   3.023   0.230 -1.0693 -1.0758 -1.3578
  493SOL     MW 1972   0.208   2.997   0.313  0.1535 -0.1024 -0.3194
  494SOL     OW 1973   0.432   2.456   1.796 -0.3431 -0.4918  0.0515
  494SOL    HW1 1974   0.448   2.360   1.802  0.6713 -0.0762 -2.6264
  494SOL    HW2 1975   0.468   2.484   1.716  0.1329  0.9665 -1.6219
  494SOL     MW 1976   0.439   2.447   1.787 -0.1465 -0.2446 -0.5226
  495SOL     OW 1977   2.903   1.683   2.591 -0.3855 -0.3021  0.1139
  495SOL    HW1 1978   2.901   1.777   2.580  1.1685 -1.1753  1.6139
  495SOL    HW2 1979   2.896   1.657   2.681 -0.1450  0.4399 -3.3018
  495SOL     MW 1980   2.902   1.692   2.602 -0.1487 -0.3194 -0.1388
  496SOL     OW 1981   2.910   2.306   2.680  0.4678 -0.3495 -0.2151
  496SOL    HW1 1982   2.922   2.216   2.718  1.8112 -3.5054  0.6075
  496SOL    HW2 1983   2.980   2.376   2.695  1.0486 -0.7046 -0.7715
  496SOL     MW 1984   2.920   2.303   2.687  0.7217 -0.8127 -0.1800
  497SOL     OW 1985   1.575   2.252   2.640 -0.4737  0.1254 -0.2706
  497SOL    HW1 1986   1.486   2.234   2.610 -0.2554  2.5830 -1.0650
  497SOL    HW2 1987   1.595   2.178   2.699 -0.1379 -0.1708  1.1696
  497SOL     MW 1988   1.566   2.240   2.644 -0.4006  0.4106 -0.1854
  498SOL     OW 1989   1.541   2.733   2.387  0.3173 -0.0980 -0.1401
  498SOL    HW1 1990   1.513   2.640   2.372  2.6049  0.0890 -0.6155
  498SOL    HW2 1991   1.624   2.740   2.435  0.9465  1.0730  4.2245
  498SOL     MW 1992   1.548   2.722   2.391  0.7021  0.0812  0.3731
  499SOL     OW 1993   0.943   0.088   0.019  0.2918 -0.0618  0.1263
  499SOL    HW1 1994   0.904   0.086   0.106  0.4306  2.5123 -0.6824
  499SOL    HW2 1995   0.979  -0.001   0.006 -2.3464  3.1452 -1.1715
  499SOL     MW 1996   0.943   0.076   0.029 -0.0379  0.7010 -0.1516
  500SOL     OW 1997   1.147   2.550   2.760  0.3296  0.4008  0.3642
  500SOL    HW1 1998   1.176   2.496   2.834 -0.9313 -1.0924  0.6905
  500SOL    HW2 1999   1.052   2.552   2.780 -1.4077  1.9814 -1.0825
  500SOL     MW 2000   1.138   2.543   2.772 -0.0660  0.4123  0.2163
  501SOL     OW 2001   1.769   2.226   3.066 -0.3746 -0.4292 -0.0328
  501SOL    HW1 2002   1.749   2.325   3.078  0.7382  3.5143  1.3709
  501SOL    HW2 2003   1.862   2.213   3.095  0.5736  1.3914  0.0451
  501SOL     MW 2004   1.779   2.238   3.072 -0.1027  0.3313  0.1627
  502SOL     OW 2005   0.083   2.804   2.965  0.4189  0.0135 -0.1927
  502SOL    HW1 2006   0.014   2.761   2.925  0.2319  0.8818  2.9344
  502SOL    HW2 2007   0.146   2.836   2.898  0.0122 -2.6142  1.4539
  502SOL     MW 2008   0.082   2.803   2.951  0.3406 -0.2186  0.4371
  503SOL     OW 2009   1.106   2.682   2.082  0.3647  0.0210  0.5173
  503SOL    HW1 2010   1.159   2.653   2.010  0.8561  2.4319 -1.0016
  503SOL    HW2 2011   1.031   2.730   2.049 -1.8403  3.0206  2.9461
  503SOL     MW 2012   1.103   2.685   2.068  0.1386  0.7349  0.6374
  504SOL     OW 2013   3.091   2.698   2.078 -0.1063  0.4415  0.1223
  504SOL    HW1 2014   3.130   2.610   2.082  1.0324  0.1346  0.4132
  504SOL    HW2 2015   2.997   2.699   2.089  1.5896 -2.9660  1.4995
  504SOL     MW 2016   3.084   2.687   2.080  0.2677 -0.0486  0.3424
  505SOL     OW 2017   1.719   2.613   2.858  0.6823 -0.0138  0.0606
  505SOL    HW1 2018   1.736   2.640   2.769  0.3754  1.3567  0.8216
  505SOL    HW2 2019   1.649   2.673   2.881 -0.8903 -0.4198 -0.3847
  505SOL     MW 2020   1.712   2.625   2.849  0.4343  0.1135  0.1023
  506SOL     OW 2021   1.575   3.087   2.872  0.1220 -0.1914  0.0447
  506SOL    HW1 2022   1.618   3.103   2.957 -0.3354 -0.7565  0.1886
  506SOL    HW2 2023   1.649   3.086   2.811 -0.1556  1.9334  2.0499
  506SOL     MW 2024   1.590   3.089   2.875  0.0251  0.0144  0.3282
  507SOL     OW 2025   0.888   2.649   2.846 -0.0585 -0.3660 -0.0050
  507SOL    HW1 2026   0.920   2.721   2.796 -1.8117  0.1489 -0.9336
  507SOL    HW2 2027   0.793   2.661   2.827 -1.0510  4.4976  0.0720
  507SOL     MW 2028   0.879   2.660   2.837 -0.4207  0.3436 -0.1174
  508SOL     OW 2029   1.140   2.099   2.490 -0.3617 -0.3209 -0.7042
  508SOL    HW1 2030   1.194   2.081   2.564 -0.7660 -0.9518 -3.0767
  508SOL    HW2 2031   1.082   2.179   2.520 -2.7621  1.8034  1.5728
  508SOL     MW 2032   1.140   2.107   2.504 -0.7318 -0.1238 -0.7168
  509SOL     OW 2033   0.630   2.606   2.742  0.5577 -0.2007 -0.4223
  509SOL    HW1 2034   0.634   2.551   2.663 -2.5362 -0.4851  1.0194
  509SOL    HW2 2035   0.551   2.568   2.792  0.2432  0.5708  0.6555
  509SOL     MW 2036   0.620   2.593   2.738  0.1080 -0.1365 -0.0899
  510SOL     OW 2037   1.490   2.611   1.654 -0.3121 -0.4351 -0.2719
  510SOL    HW1 2038   1.516   2.697   1.620  2.6567  2.2499 -2.4716
  510SOL    HW2 2039   1.446   2.627   1.739  0.0998  2.7012 -0.7147
  510SOL     MW 2040   1.488   2.625   1.661  0.1339  0.3330 -0.6205
  511SOL     OW 2041   0.420   2.623   2.452  0.5158  0.0113  0.0511
  511SOL    HW1 2042   0.506   2.578   2.455 -5.6300  1.3237  0.9864
  511SOL    HW2 2043   0.435   2.677   2.373 -0.8684 -0.2840  0.0490
  511SOL     MW 2044   0.433   2.624   2.442 -0.4777  0.1455  0.1742
  512SOL     OW 2045   0.975   2.037   2.794  0.2730 -1.0268 -0.6396
  512SOL    HW1 2046   0.907   2.086   2.840 -0.5058  0.5473 -1.3130
  512SOL    HW2 2047   0.974   1.961   2.848  1.5043  1.2356  1.6647
  512SOL     MW 2048   0.966   2.034   2.807  0.3327 -0.5206 -0.4244
  513SOL     OW 2049   1.575   2.475   2.278 -0.6224 -0.4486  0.6788
  513SOL    HW1 2050   1.617   2.511   2.201  1.1032  1.2257  0.8804
  513SOL    HW2 2051   1.649   2.448   2.333  1.5056  0.2591  0.1342
  513SOL     MW 2052   1.591   2.476   2.275 -0.1140 -0.1343  0.6335
  514SOL     OW 2053   0.257   2.497   2.631  0.6619 -0.6690 -0.2430
  514SOL    HW1 2054   0.298   2.548   2.560 -1.4172  0.4880  2.3101
  514SOL    HW2 2055   0.326   2.512   2.699  2.4149  2.3882  0.3014
  514SOL     MW 2056   0.272   2.506   2.630  0.6188 -0.1129  0.1657
  515SOL     OW 2057   1.141   2.016   2.033 -0.0052 -0.0905 -0.5723
  515SOL    HW1 2058   1.152   2.103   1.980 -1.9289  1.6000 -1.4587
  515SOL    HW2 2059   1.223   2.017   2.082  2.0919 -0.1842 -1.1669
  515SOL     MW 2060   1.153   2.028   2.032  0.0177  0.1202 -0.7677
  516SOL     OW 2061   1.480   2.522   0.020 -0.1029  0.5884  0.1698
  516SOL    HW1 2062   1.494   2.494  -0.070 -0.9103  0.0614  1.4241
  516SOL    HW2 2063   1.428   2.603   0.002  0.1381  1.5636 -0.5894
  516SOL     MW 2064   1.475   2.529   0.006 -0.1776  0.6475  0.2351
  517SOL     OW 2065   0.574   2.442   2.117  0.5657  0.2094 -0.3423
  517SOL    HW1 2066   0.521   2.524   2.106  0.2630  1.0753 -0.7174
  517SOL    HW2 2067   0.506   2.380   2.094 -3.3506 -1.1870 -1.3256
  517SOL     MW 2068   0.558   2.444   2.113  0.0090  0.1394 -0.5215
  518SOL     OW 2069   1.745   0.197   3.068  0.0069 -0.1009 -0.1487
  518SOL    HW1 2070   1.712   0.247   3.141 -2.1734  3.6025  1.4609
  518SOL    HW2 2071   1.743   0.102   3.093 -4.0804 -0.1937  1.5603
  518SOL     MW 2072   1.741   0.191   3.081 -0.8201  0.3755  0.2892
  519SOL     OW 2073   0.728   2.358   1.781  0.2556 -1.0417  0.1032
  519SOL    HW1 2074   0.758   2.269   1.793  1.9776 -1.3280  2.1682
  519SOL    HW2 2075   0.668   2.353   1.704  2.8640 -0.4411 -1.3750
  519SOL     MW 2076   0.724   2.346   1.772  0.8269 -1.0002  0.1806
  520SOL     OW 2077   1.212   2.120   2.974  1.1957 -0.3889  0.0188
  520SOL    HW1 2078   1.130   2.099   2.926  0.6837 -0.5925  1.5976
  520SOL    HW2 2079   1.232   2.053   3.037 -0.0510 -0.1363 -2.6490
  520SOL     MW 2080   1.203   2.108   2.976  0.9637 -0.3824 -0.1248
  521SOL     OW 2081   1.747   2.039   2.159  0.7411  0.1358  0.3595
  521SOL    HW1 2082   1.808   2.043   2.080 -0.2401  1.0238  1.0669
  521SOL    HW2 2083   1.695   1.962   2.144  1.8023 -0.0266 -1.1591
  521SOL     MW 2084   1.748   2.030   2.147  0.7516  0.2315  0.2524
  522SOL     OW 2085   2.873   2.535   2.231  0.1997  0.0822  0.0098
  522SOL    HW1 2086   2.943   2.474   2.253  1.1166  0.0734  2.2213
  522SOL    HW2 2087   2.896   2.607   2.281 -0.6140  1.4409  0.2287
  522SOL     MW 2088   2.885   2.537   2.240  0.2133  0.2603  0.3304
  523SOL     OW 2089   0.965   1.548   2.187 -0.0808 -0.7887  0.4024
  523SOL    HW1 2090   0.939   1.598   2.108  1.1158 -1.7036 -0.4661
  523SOL    HW2 2091   0.995   1.473   2.139 -0.1781 -0.6216 -1.9589
  523SOL     MW 2092   0.966   1.545   2.170  0.0642 -0.8874 -0.0237
  524SOL     OW 2093   0.694   2.436   2.940 -0.2592 -0.0066 -0.2074
  524SOL    HW1 2094   0.704   2.491   2.870  0.0672 -0.6667  0.9769
  524SOL    HW2 2095   0.745   2.350   2.917 -0.2316 -0.9087 -0.6531
  524SOL     MW 2096   0.702   2.432   2.928 -0.2125 -0.2127 -0.1099
  525SOL     OW 2097   0.340   2.284   2.080 -0.6288  0.0991  0.1414
  525SOL    HW1 2098   0.324   2.225   2.150 -0.8144 -0.5055  2.6682
  525SOL    HW2 2099   0.359   2.232   2.000 -2.7320  0.7738  1.4780
  525SOL     MW 2100   0.341   2.269   2.078 -0.9308  0.1083  0.6512
  526SOL     OW 2101   0.661   2.023   1.967 -0.6649  0.3440  0.5022
  526SOL    HW1 2102   0.734   2.032   1.906 -1.9802  1.9860 -1.4950
  526SOL    HW2 2103   0.661   2.088   2.039 -1.0273 -3.2044  1.2817
  526SOL     MW 2104   0.670   2.033   1.968 -0.8862  0.0925  0.3415
  527SOL     OW 2105   1.442   2.018   2.086  0.0025 -0.1340 -0.6258
  527SOL    HW1 2106   1.411   1.998   2.175 -0.5703  1.6308 -2.6667
  527SOL    HW2 2107   1.438   1.944   2.022 -1.7641  0.4120  1.2138
  527SOL     MW 2108   1.438   2.005   2.089 -0.3061  0.1709 -0.6524
  528SOL     OW 2109   0.688   2.915   2.850 -0.5301  0.8666  0.1089
  528SOL    HW1 2110   0.659   2.986   2.909  0.1419  1.0273 -0.3093
  528SOL    HW2 2111   0.632   2.920   2.769 -0.0257  0.3807 -0.1731
  528SOL     MW 2112   0.677   2.925   2.847 -0.3749  0.8237  0.0165
  529SOL     OW 2113   1.099   2.240   1.885 -0.0413  0.0389 -0.1031
  529SOL    HW1 2114   1.047   2.275   1.968 -1.0139 -1.9521  1.8647
  529SOL    HW2 2115   1.119   2.316   1.827  0.7105 -2.5591  2.6565
  529SOL     MW 2116   1.095   2.255   1.888 -0.0704 -0.5666  0.5207
  530SOL     OW 2117   1.149   2.389   3.009  0.0761  0.4814  0.5406
  530SOL    HW1 2118   1.130   2.431   3.093 -0.2222  1.3315  1.6097
  530SOL    HW2 2119   1.166   2.295   3.012  2.9798  0.3352  0.0124
  530SOL     MW 2120   1.149   2.382   3.021  0.4199  0.5743  0.6120
  531SOL     OW 2121   0.888   1.871   2.582  0.1369  0.4745  0.2608
  531SOL    HW1 2122   0.918   1.942   2.641  0.7985 -2.4252 -0.6319
  531SOL    HW2 2123   0.883   1.786   2.626 -0.3495 -0.7194 -1.2377
  531SOL     MW 2124   0.891   1.869   2.596  0.1600 -0.0656 -0.0547
  532SOL     OW 2125   1.763   0.304   2.827  0.3663 -0.0444 -0.6825
  532SOL    HW1 2126   1.745   0.270   2.917 -0.9070  0.4637 -1.1387
  532SOL    HW2 2127   1.840   0.355   2.842 -0.7957 -2.7094 -1.7875
  532SOL     MW 2128   1.771   0.306   2.841  0.0450 -0.3290 -0.8885
  533SOL     OW 2129   1.912   2.629   3.026  0.0239 -0.3051  0.2304
  533SOL    HW1 2130   1.871   2.587   3.100 -0.4891  0.0223  0.0423
  533SOL    HW2 2131   1.843   2.621   2.959  3.7187 -0.5550  3.3650
  533SOL     MW 2132   1.898   2.623   3.027  0.4437 -0.2948  0.6192
  534SOL     OW 2133   1.756   2.422   2.496 -0.0734 -0.0778  0.6189
  534SOL    HW1 2134   1.697   2.355   2.540 -1.7493  0.0496 -1.1961
  534SOL    HW2 2135   1.833   2.411   2.554 -2.5133  2.3401  0.9510
  534SOL     MW 2136   1.758   2.411   2.510 -0.6164  0.2580  0.4233
  535SOL     OW 2137   1.901   2.363   1.839 -0.2640  0.3034  0.0081
  535SOL    HW1 2138   1.855   2.399   1.761 -0.1164 -0.1967  0.3294
  535SOL    HW2 2139   2.000   2.377   1.829  0.0685 -1.0526  1.4487
  535SOL     MW 2140   1.908   2.370   1.827 -0.2007  0.0585  0.2406
  536SOL     OW 2141   0.437   1.870   2.053  0.1817  0.3853 -0.3017
  536SOL    HW1 2142   0.418   1.808   1.975  0.7181  2.6074 -0.1368
  536SOL    HW2 2143   0.513   1.916   2.024  0.9264 -0.3234  2.6842
  536SOL     MW 2144   0.444   1.868   2.038  0.3508  0.5850  0.1140
  537SOL     OW 2145   1.051   0.222   2.846  0.8252  0.5542 -0.1582
  537SOL    HW1 2146   0.978   0.249   2.907 -1.2443 -1.9253 -1.2929
  537SOL    HW2 2147   1.064   0.287   2.771 -0.8842  1.6080  0.0234
  537SOL     MW 2148   1.043   0.234   2.844  0.3266  0.3661 -0.2839
  538SOL     OW 2149   1.362   0.067   3.020 -0.5754  0.0909  0.8348
  538SOL    HW1 2150   1.329   0.155   3.002  0.3602 -0.1746 -0.5663
  538SOL    HW2 2151   1.425   0.054   2.946 -1.7575  0.0229  0.3551
  538SOL     MW 2152   1.366   0.077   3.008 -0.6079  0.0469  0.5867
  539SOL     OW 2153   0.736   2.785   2.493 -0.0846  0.1875 -0.3917
  539SOL    HW1 2154   0.806   2.828   2.543 -1.3752 -2.6228  0.1913
  539SOL    HW2 2155   0.744   2.695   2.523 -1.8937  1.3016 -0.0461
  539SOL     MW 2156   0.746   2.779   2.504 -0.4935 -0.0363 -0.2692
  540SOL     OW 2157   0.428   2.449   2.851  0.4008  0.9257  0.0507
  540SOL    HW1 2158   0.494   2.413   2.912 -2.1861 -0.8451  1.2416
  540SOL    HW2 2159   0.351   2.430   2.906 -0.2693 -2.0463 -0.9497
  540SOL     MW 2160   0.427   2.441   2.867 -0.0289  0.2999  0.0758
  541SOL     OW 2161   0.187   2.907   2.191 -0.4936 -0.4907 -0.0531
  541SOL    HW1 2162   0.147   2.844   2.138  2.5195 -0.1682 -0.3219
  541SOL    HW2 2163   0.219   2.871   2.274  0.6248 -1.2435  1.4979
  541SOL     MW 2164   0.186   2.894   2.195  0.0515 -0.5475  0.1160
  542SOL     OW 2165   1.014   2.274   2.663 -0.0551  0.0463 -0.2504
  542SOL    HW1 2166   0.991   2.208   2.729  1.1905  2.0273 -0.0089
  542SOL    HW2 2167   1.077   2.335   2.711  0.2003  1.1478  1.7232
  542SOL     MW 2168   1.019   2.273   2.678  0.1429  0.4530  0.0419
  543SOL     OW 2169   1.492   2.433   2.851  0.5922 -0.0743  0.1941
  543SOL    HW1 2170   1.508   2.359   2.787  0.9972  0.1536 -2.3888
  543SOL    HW2 2171   1.572   2.492   2.836  2.4135 -0.4325 -2.0685
  543SOL     MW 2172   1.504   2.431   2.841  0.8860 -0.0915 -0.4452
  544SOL     OW 2173   0.722   0.190   2.769 -0.2420 -0.1832  0.1002
  544SOL    HW1 2174   0.632   0.227   2.763 -3.1274  1.7246 -0.4612
  544SOL    HW2 2175   0.751   0.129   2.700  2.3123  1.0868  0.1538
  544SOL     MW 2176   0.714   0.187   2.759 -0.2857  0.2361  0.0332
  545SOL     OW 2177   1.586   2.202   2.328 -0.2451  0.1186  0.1735
  545SOL    HW1 2178   1.577   2.295   2.310  1.0188 -0.2100  2.3998
  545SOL    HW2 2179   1.626   2.159   2.253 -0.5491 -0.7679  0.5761
  545SOL     MW 2180   1.590   2.208   2.316 -0.1184 -0.0417  0.5203
  546SOL     OW 2181   3.036   1.987   0.128  0.1744 -0.1368  0.7289
  546SOL    HW1 2182   3.008   2.064   0.077 -0.4382 -0.0863 -2.3365
  546SOL    HW2 2183   3.132   1.980   0.103  0.7685 -0.2568 -0.8225
  546SOL     MW 2184   3.045   1.996   0.118  0.1719 -0.1460  0.1198
  547SOL     OW 2185   0.226   3.055   0.041 -0.4631  0.4252 -0.7673
  547SOL    HW1 2186   0.288   3.100  -0.007 -5.6456 -1.4645 -1.7554
  547SOL    HW2 2187   0.138   3.087   0.012 -0.5754  1.0201 -2.5725
  547SOL     MW 2188   0.223   3.065   0.031 -1.1617  0.2544 -1.1359
  548SOL     OW 2189   0.301   2.515   0.207 -0.0005 -0.0008  0.6176
  548SOL    HW1 2190   0.300   2.582   0.129  0.2878  1.2725 -0.6010
  548SOL    HW2 2191   0.213   2.478   0.213  1.2932  0.5441 -1.3079
  548SOL     MW 2192   0.289   2.519   0.197  0.2083  0.2391  0.2028
  549SOL     OW 2193   0.855   1.889   2.141 -0.0820  0.1729 -0.5332
  549SOL    HW1 2194   0.797   1.943   2.093 -4.0035 -1.9960  2.6593
  549SOL    HW2 2195   0.813   1.881   2.232 -2.4889 -0.3761 -0.4654
  549SOL     MW 2196   0.842   1.895   2.147 -0.9170 -0.1857 -0.1031
  550SOL     OW 2197   1.782   1.728   2.603  0.2158 -0.2186 -0.2176
  550SOL    HW1 2198   1.787   1.719   2.507  0.3663  0.1549 -1.0472
  550SOL    HW2 2199   1.760   1.813   2.635 -0.5809  2.3144 -2.5874
  550SOL     MW 2200   1.779   1.738   2.595  0.1306  0.1649 -0.6397
  551SOL     OW 2201   0.830   2.285   0.204 -0.1755  0.1053  0.1053
  551SOL    HW1 2202   0.928   2.278   0.200  0.7293  0.4633 -2.1601
  551SOL    HW2 2203   0.787   2.217   0.153 -1.4171  1.3845  0.3631
  551SOL     MW 2204   0.837   2.275   0.197 -0.2199  0.3213 -0.1596
  552SOL     OW 2205   1.759   1.679   2.319 -0.4472 -0.0072 -0.9946
  552SOL    HW1 2206   1.669   1.703   2.299  3.4739 -0.1546 -0.7003
  552SOL    HW2 2207   1.778   1.645   2.228  1.2083 -1.4143  4.1613
  552SOL     MW 2208   1.749   1.678   2.304  0.2885 -0.2123 -0.2755
  553SOL     OW 2209   1.253   2.318   1.494 -0.2173 -0.4908  0.3478
  553SOL    HW1 2210   1.292   2.231   1.507  0.3057  2.0473  0.3637
  553SOL    HW2 2211   1.311   2.375   1.441 -0.1773  2.6011  2.2907
  553SOL     MW 2212   1.266   2.314   1.489 -0.1430  0.2520  0.6063
  554SOL     OW 2213   0.525   2.923   2.635 -0.5374  0.5509 -0.1859
  554SOL    HW1 2214   0.490   3.004   2.595  0.8860 -1.7145  1.6269
  554SOL    HW2 2215   0.575   2.878   2.562  1.1761  0.9647 -1.2634
  554SOL     MW 2216   0.527   2.928   2.620 -0.1235  0.3066 -0.0889
  555SOL     OW 2217   0.680   2.485   2.503 -1.1178 -0.1442 -0.2606
  555SOL    HW1 2218   0.621   2.404   2.516  0.3888 -0.7002 -0.4614
  555SOL    HW2 2219   0.765   2.459   2.465  3.1795  0.9856 -1.0961
  555SOL     MW 2220   0.684   2.471   2.500 -0.3520 -0.0685 -0.3973
  556SOL     OW 2221   0.970   1.878   0.126  0.0443  0.1040 -0.5718
  556SOL    HW1 2222   0.994   1.841   0.043 -0.0010 -4.4000  1.6821
  556SOL    HW2 2223   1.056   1.886   0.177  2.1344 -0.0101 -0.5196
  556SOL     MW 2224   0.985   1.874   0.122  0.3141 -0.5053 -0.2675
  557SOL     OW 2225   0.947   2.689   0.507  0.0778 -0.7241 -0.2975
  557SOL    HW1 2226   0.987   2.638   0.442 -2.1560  0.7611  1.6335
  557SOL    HW2 2227   0.907   2.765   0.457  0.5092  2.7109 -1.6252
  557SOL     MW 2228   0.947   2.692   0.492 -0.1600 -0.0749 -0.2179
  558SOL     OW 2229   0.209   2.336   3.016 -0.3245  0.1505  0.0263
  558SOL    HW1 2230   0.140   2.288   2.968 -2.1784 -0.3294  2.0578
  558SOL    HW2 2231   0.153   2.354   3.096 -1.0861  1.2196 -0.2244
  558SOL     MW 2232   0.192   2.332   3.020 -0.6696  0.2282  0.2613
  559SOL     OW 2233   0.984   2.339   2.111  0.7898 -0.1569 -0.0946
  559SOL    HW1 2234   1.057   2.382   2.154  0.7303 -2.5787 -0.0588
  559SOL    HW2 2235   0.973   2.246   2.154  2.7934 -0.0134 -0.4780
  559SOL     MW 2236   0.992   2.332   2.123  1.0463 -0.4575 -0.1405
  560SOL     OW 2237   1.988   2.891   0.025  0.2119  0.4096 -0.2845
  560SOL    HW1 2238   2.047   2.946  -0.029 -2.5095 -1.0439 -0.5149
  560SOL    HW2 2239   1.971   2.804  -0.019  2.7198 -1.1257 -0.1107
  560SOL     MW 2240   1.994   2.887   0.012  0.1837  0.0153 -0.2919
  561SOL     OW 2241   0.411   2.194   0.057 -0.3892 -0.5987 -0.6493
  561SOL    HW1 2242   0.352   2.253   0.006  1.2581 -0.7844 -0.7694
  561SOL    HW2 2243   0.469   2.262   0.100 -0.2316  0.0588 -0.9377
  561SOL     MW 2244   0.411   2.211   0.056 -0.1511 -0.5365 -0.7032
  562SOL     OW 2245   0.687   2.186   2.191  0.4986  0.5575  0.5310
  562SOL    HW1 2246   0.650   2.268   2.161  1.8543  2.7920 -0.1395
  562SOL    HW2 2247   0.766   2.210   2.248  0.3409 -2.4097  0.3647
  562SOL     MW 2248   0.693   2.200   2.194  0.6566  0.4609  0.4206
  563SOL     OW 2249   1.220   0.308   0.571  0.0478 -0.0332  0.0892
  563SOL    HW1 2250   1.141   0.284   0.520  0.5021  2.3378  0.5319
  563SOL    HW2 2251   1.231   0.236   0.630  1.5384  0.3255  0.5919
  563SOL     MW 2252   1.211   0.295   0.572  0.3044  0.3270  0.2139
  564SOL     OW 2253   1.123   2.516   2.296  0.5395 -0.3253 -0.0187
  564SOL    HW1 2254   1.110   2.577   2.224  2.1643 -0.4899 -0.2755
  564SOL    HW2 2255   1.111   2.575   2.378 -0.6459 -1.1695 -0.2306
  564SOL     MW 2256   1.120   2.532   2.297  0.5974 -0.4584 -0.0806
  565SOL     OW 2257   2.831   2.738   2.649 -0.2698  0.4744 -0.0348
  565SOL    HW1 2258   2.875   2.820   2.623 -1.3699  0.6247 -1.0836
  565SOL    HW2 2259   2.774   2.697   2.580  0.3161  0.7044  2.7990
  565SOL     MW 2260   2.829   2.743   2.636 -0.3376  0.5246  0.2007
  566SOL     OW 2261   2.151   1.849   2.349 -0.3227  0.3271  0.6438
  566SOL    HW1 2262   2.161   1.836   2.255 -0.1597 -2.3613  0.7829
  566SOL    HW2 2263   2.200   1.931   2.359 -3.3249 -1.9936 -0.0987
  566SOL     MW 2264   2.159   1.858   2.338 -0.6973 -0.3338  0.5642
  567SOL     OW 2265   1.187   2.925   3.007 -0.0321  0.3991  0.5039
  567SOL    HW1 2266   1.253   2.989   3.035 -1.0138 -1.9760  2.9922
  567SOL    HW2 2267   1.237   2.837   2.975  1.3212  0.8400  2.6038
  567SOL     MW 2268   1.202   2.921   3.006  0.0169  0.1439  1.1093
  568SOL     OW 2269   1.583   2.118   2.883  0.4868  0.6183  0.6470
  568SOL    HW1 2270   1.623   2.159   2.957 -0.9919 -2.7292  1.2398
  568SOL    HW2 2271   1.650   2.070   2.831  2.5117 -1.7500 -2.3321
  568SOL     MW 2272   1.597   2.117   2.886  0.5589 -0.1358  0.3321
  569SOL     OW 2273   0.180   2.290   2.458 -0.2104  1.1035  0.3986
  569SOL    HW1 2274   0.112   2.321   2.399  1.3230  0.4831 -0.6060
  569SOL    HW2 2275   0.199   2.351   2.530  0.9293 -0.7256 -0.5044
  569SOL     MW 2276   0.173   2.302   2.460  0.1423  0.7803  0.1469
  570SOL     OW 2277   1.471   0.378   0.493  0.9446 -0.2623  0.3568
  570SOL    HW1 2278   1.375   0.376   0.520 -1.2663 -0.0115  0.8914
  570SOL    HW2 2279   1.520   0.390   0.574 -0.7247  0.3332  1.2966
  570SOL     MW 2280   1.465   0.379   0.507  0.4327 -0.1507  0.5513
  571SOL     OW 2281   1.488   2.450   2.005 -0.7857 -0.1120 -0.1912
  571SOL    HW1 2282   1.470   2.432   2.098  2.0483  2.2415  1.9046
  571SOL    HW2 2283   1.521   2.366   1.975  1.1797 -1.1177 -1.4097
  571SOL     MW 2284   1.490   2.437   2.013 -0.1524  0.0658 -0.0755
  572SOL     OW 2285   1.070   2.599   0.107  0.2066 -0.3292  0.0690
  572SOL    HW1 2286   1.083   2.687   0.071  1.0648 -0.0386  1.7799
  572SOL    HW2 2287   0.980   2.559   0.074  0.7704 -1.6761 -0.0135
  572SOL     MW 2288   1.060   2.605   0.098  0.3942 -0.4685  0.2839
  573SOL     OW 2289   1.104   2.275   0.197  0.1743 -0.0675 -0.2842
  573SOL    HW1 2290   1.165   2.288   0.126 -0.1205 -0.6260  1.7399
  573SOL    HW2 2291   1.102   2.367   0.238 -0.9603  1.5889 -0.3813
  573SOL     MW 2292   1.112   2.289   0.193 -0.0143  0.0774 -0.0299
  574SOL     OW 2293   1.126   2.514   0.362 -0.0806 -0.1708  0.1634
  574SOL    HW1 2294   1.205   2.550   0.398  0.4984  0.0737 -0.3840
  574SOL    HW2 2295   1.126   2.554   0.272  1.0823 -1.7172  1.4270
  574SOL     MW 2296   1.136   2.524   0.355  0.1492 -0.3426  0.2579
  575SOL     OW 2297   3.073   2.207   1.809 -0.5170 -0.4895  0.1826
  575SOL    HW1 2298   3.108   2.140   1.745 -1.1155 -0.5279  1.7194
  575SOL    HW2 2299   3.146   2.264   1.823 -3.5599  1.5924  1.8406
  575SOL     MW 2300   3.087   2.206   1.802 -0.9974 -0.2199  0.6041
  576SOL     OW 2301   2.785   1.769   2.107  0.5189 -0.4348 -0.0162
  576SOL    HW1 2302   2.796   1.834   2.035 -1.1664  1.9816  2.0828
  576SOL    HW2 2303   2.697   1.732   2.098  1.9751  0.2208 -1.2357
  576SOL     MW 2304   2.775   1.772   2.096  0.4887 -0.0295  0.0998
  577SOL     OW 2305   2.060   0.209   0.094 -0.0899  0.2146 -0.2322
  577SOL    HW1 2306   1.991   0.266   0.067  0.4561 -1.9595  1.1575
  577SOL    HW2 2307   2.026   0.158   0.167  0.8586 -2.3989 -0.5699
  577SOL     MW 2308   2.047   0.210   0.100  0.1073 -0.4171 -0.0934
  578SOL     OW 2309   1.941   2.023   2.356 -0.1162  0.6908 -0.5330
  578SOL    HW1 2310   1.868   2.007   2.286 -1.5002 -0.9758  1.1650
  578SOL    HW2 2311   2.005   1.953   2.350 -1.4602 -0.6009 -3.2553
  578SOL     MW 2312   1.940   2.012   2.346 -0.4761  0.3005 -0.6682
  579SOL     OW 2313   0.908   2.378   2.416  0.0735  0.0828  0.5356
  579SOL    HW1 2314   0.952   2.364   2.498 -2.1908 -0.6727 -0.7463
  579SOL    HW2 2315   0.968   2.426   2.360 -0.6142 -1.2051 -0.4331
  579SOL     MW 2316   0.922   2.382   2.420 -0.3160 -0.1868  0.2386
  580SOL     OW 2317   0.923   2.899   3.061  0.0301 -0.3828  0.8905
  580SOL    HW1 2318   1.016   2.880   3.040  0.2104  0.0693  1.3912
  580SOL    HW2 2319   0.874   2.844   3.002  0.5547 -1.1594 -1.4771
  580SOL     MW 2320   0.929   2.889   3.050  0.1231 -0.4256  0.6442
  581SOL     OW 2321   1.127   2.457   1.700 -0.2458  0.4035 -0.2920
  581SOL    HW1 2322   1.180   2.532   1.741  2.4745  2.8862 -0.0882
  581SOL    HW2 2323   1.174   2.432   1.616  2.7500 -0.6742 -1.3269
  581SOL     MW 2324   1.140   2.464   1.695  0.5084  0.5889 -0.4016
  582SOL     OW 2325   0.051   2.782   2.607  0.0862 -0.0456  0.1922
  582SOL    HW1 2326   0.063   2.867   2.650  0.5698 -0.1893 -1.2056
  582SOL    HW2 2327   0.127   2.785   2.549  0.8526  0.2796 -0.7938
  582SOL     MW 2328   0.063   2.793   2.605  0.2512 -0.0216 -0.1224
  583SOL     OW 2329   1.991   2.400   2.653 -0.0756 -0.3347 -0.0022
  583SOL    HW1 2330   2.071   2.426   2.596  1.7366  0.0995  0.5470
  583SOL    HW2 2331   1.989   2.300   2.644  0.0013  1.0442 -0.8151
  583SOL     MW 2332   2.001   2.390   2.645  0.1736 -0.0955 -0.0370
  584SOL     OW 2333   0.116   1.861   2.231 -0.9262  0.1000  0.6589
  584SOL    HW1 2334   0.117   1.888   2.136 -1.8586 -2.4539  0.1421
  584SOL    HW2 2335   0.149   1.931   2.287  2.5728  0.0267 -1.4254
  584SOL     MW 2336   0.120   1.874   2.226 -0.5876 -0.2466  0.3157
  585SOL     OW 2337   1.575   2.657   0.224  0.6066 -0.7321 -0.1626
  585SOL    HW1 2338   1.550   2.614   0.141  0.2048 -0.2756  0.2120
  585SOL    HW2 2339   1.488   2.655   0.276 -2.0140 -0.9244  1.6497
  585SOL     MW 2340   1.560   2.651   0.219  0.2078 -0.6972  0.1260
  586SOL     OW 2341   1.356   2.867   2.549  0.3100  0.0157  0.4350
  586SOL    HW1 2342   1.433   2.836   2.490  1.0168  1.3505  1.8837
  586SOL    HW2 2343   1.347   2.961   2.536 -0.8400 -2.9257 -0.1566
  586SOL     MW 2344   1.365   2.875   2.539  0.2515 -0.1962  0.5481
  587SOL     OW 2345   1.342   1.598   2.127 -0.1369  0.1939 -0.7015
  587SOL    HW1 2346   1.353   1.531   2.200  0.0625 -0.8585  0.0604
  587SOL    HW2 2347   1.307   1.552   2.052  0.2195  1.2885  1.0779
  587SOL     MW 2348   1.339   1.583   2.127 -0.0635  0.1995 -0.3662
  588SOL     OW 2349   1.312   2.079   2.702 -0.2432 -0.0663 -0.4667
  588SOL    HW1 2350   1.342   1.992   2.731  0.7725 -1.6851  0.8230
  588SOL    HW2 2351   1.299   2.127   2.782  0.8551  2.8884  0.7919
  588SOL     MW 2352   1.314   2.074   2.716  0.0357  0.1099 -0.1305
  589SOL     OW 2353   1.355   2.005   0.116  0.6787 -0.5150 -0.3998
  589SOL    HW1 2354   1.381   2.097   0.127  0.4597  1.2293  0.3266
  589SOL    HW2 2355   1.295   1.977   0.182 -0.9672  1.0605  0.2497
  589SOL     MW 2356   1.351   2.013   0.126  0.4327 -0.0770 -0.2182
  590SOL     OW 2357   0.496   2.768   2.218 -0.0876  0.1140  0.5153
  590SOL    HW1 2358   0.451   2.735   2.139 -1.2966 -2.2993  1.3823
  590SOL    HW2 2359   0.588   2.784   2.206 -1.8133 -1.6551  2.8742
  590SOL     MW 2360   0.502   2.766   2.206 -0.4748 -0.4378  0.9409
  591SOL     OW 2361   2.255   0.635   3.104  0.0620  0.2730 -0.1406
  591SOL    HW1 2362   2.202   0.695   3.059  3.0854 -1.0096  2.1988
  591SOL    HW2 2363   2.332   0.653   3.057  0.2298 -0.7270 -3.3392
  591SOL     MW 2364   2.258   0.645   3.092  0.4831 -0.0281 -0.2540
  592SOL     OW 2365   1.761   2.952   0.779 -0.2449  0.0066 -0.0954
  592SOL    HW1 2366   1.735   3.023   0.723  0.9519 -2.6849  0.5209
  592SOL    HW2 2367   1.852   2.927   0.765 -1.5448  1.7215 -1.5447
  592SOL     MW 2368   1.770   2.958   0.770 -0.2585 -0.1223 -0.2053
  593SOL     OW 2369   1.958   0.646   0.808  0.1766  0.0136  0.3101
  593SOL    HW1 2370   1.870   0.635   0.765 -0.6613 -0.6744 -0.6410
  593SOL    HW2 2371   2.007   0.566   0.786  2.7474  0.2682  1.2285
  593SOL     MW 2372   1.953   0.634   0.799  0.4052 -0.0436  0.3058
  594SOL     OW 2373   2.783   1.174   1.402 -0.4842  0.1107 -0.1917
  594SOL    HW1 2374   2.876   1.199   1.418  3.1234  0.1385 -0.4055
  594SOL    HW2 2375   2.783   1.101   1.336 -0.1097 -1.4009 -1.0400
  594SOL     MW 2376   2.795   1.167   1.396  0.0412 -0.0850 -0.3319
  595SOL     OW 2377   0.440   0.989   0.804 -0.0003 -0.3419  0.0585
  595SOL    HW1 2378   0.453   1.041   0.730 -2.2895 -0.6365  3.2121
  595SOL    HW2 2379   0.464   1.052   0.877  0.7915  1.2853  2.0489
  595SOL     MW 2380   0.445   1.004   0.804 -0.1979 -0.1660  0.7372
  596SOL     OW 2381   2.486   1.334   0.574 -0.2913 -0.2649 -0.4068
  596SOL    HW1 2382   2.534   1.411   0.540 -0.8397 -0.7117  1.8516
  596SOL    HW2 2383   2.537   1.310   0.650  3.0644 -1.0201 -1.3641
  596SOL     MW 2384   2.499   1.341   0.580  0.0791 -0.4235 -0.2351
  597SOL     OW 2385   2.195   0.676   1.622 -0.0882 -0.1163  0.3783
  597SOL    HW1 2386   2.216   0.614   1.690 -1.4303  0.4666 -1.1176
  597SOL    HW2 2387   2.127   0.634   1.572  1.5675  1.4619  3.8499
  597SOL     MW 2388   2.189   0.662   1.624 -0.0468  0.1688  0.6390
  598SOL     OW 2389   2.561   1.038   2.777 -0.3360  0.3083 -0.3427
  598SOL    HW1 2390   2.573   0.998   2.689 -0.3490  0.8357 -1.2308
  598SOL    HW2 2391   2.651   1.072   2.807  1.2916  1.0848 -2.5671
  598SOL     MW 2392   2.574   1.037   2.769 -0.1230  0.4803 -0.7533
  599SOL     OW 2393   2.979   0.386   2.045  0.5529  0.0436 -0.0034
  599SOL    HW1 2394   3.011   0.408   2.132 -1.4011  2.7963 -0.5709
  599SOL    HW2 2395   2.951   0.468   2.002 -2.8262  1.0597  0.8511
  599SOL     MW 2396   2.979   0.400   2.051 -0.1508  0.5408  0.0345
  600SOL     OW 2397   1.860   1.596   0.877 -0.2273 -0.3533  0.4871
  600SOL    HW1 2398   1.915   1.641   0.943  0.1658  2.1196 -2.9455
  600SOL    HW2 2399   1.800   1.669   0.856 -1.5633  0.7263 -0.5386
  600SOL     MW 2400   1.860   1.612   0.883 -0.3517  0.1154 -0.1011
  601SOL     OW 2401   2.515   0.762   0.820 -0.0054  0.4025 -0.5582
  601SOL    HW1 2402   2.520   0.789   0.913  0.2912  0.6110 -0.7406
  601SOL    HW2 2403   2.430   0.719   0.813 -2.0913 -1.2810 -1.2438
  601SOL     MW 2404   2.504   0.760   0.832 -0.2415  0.2079 -0.6727
  602SOL     OW 2405   2.292   1.936   0.774 -0.8408 -0.5150 -0.2515
  602SOL    HW1 2406   2.263   1.844   0.758  0.3855 -0.9953 -2.6361
  602SOL    HW2 2407   2.254   1.994   0.706 -3.4767  1.2443  1.6164
  602SOL     MW 2408   2.283   1.931   0.763 -1.0268 -0.3463 -0.3196
  603SOL     OW 2409   0.012   1.345   1.824 -0.4335 -0.0251  0.1466
  603SOL    HW1 2410   0.072   1.419   1.833  0.4329 -1.8084  1.4595
  603SOL    HW2 2411   0.048   1.273   1.877  1.0970  2.4874  0.4759
  603SOL     MW 2412   0.025   1.345   1.832 -0.1173  0.0711  0.3633
  604SOL     OW 2413   2.116   1.539   0.471 -0.4138  0.0797 -0.1411
  604SOL    HW1 2414   2.129   1.447   0.489 -2.7662  0.4115 -1.3271
  604SOL    HW2 2415   2.048   1.560   0.526  1.5886 -0.0731 -2.6893
  604SOL     MW 2416   2.108   1.529   0.480 -0.4600  0.1033 -0.6338
  605SOL     OW 2417   2.540   1.476   0.857 -0.3680  0.3295  0.3189
  605SOL    HW1 2418   2.545   1.538   0.787 -0.0356 -1.7004  3.2982
  605SOL    HW2 2419   2.574   1.395   0.831 -1.4010  1.6212  2.7819
  605SOL     MW 2420   2.545   1.473   0.845 -0.4604  0.2321  1.0369
  606SOL     OW 2421   2.536   1.678   2.021 -0.5595  0.6400  0.0086
  606SOL    HW1 2422   2.447   1.708   1.995 -0.0248 -0.6649 -0.6643
  606SOL    HW2 2423   2.582   1.648   1.940  0.2476  0.7947  0.8849
  606SOL     MW 2424   2.531   1.678   2.007 -0.3824  0.4882  0.0354
  607SOL     OW 2425   2.436   1.076   3.023  0.3506 -1.0499  0.8888
  607SOL    HW1 2426   2.482   1.054   2.938 -1.6268  0.3792 -1.2411
  607SOL    HW2 2427   2.468   1.027   3.097 -0.5662  0.2899 -1.6355
  607SOL     MW 2428   2.446   1.067   3.021 -0.0313 -0.6846  0.2747
  608SOL     OW 2429   1.857   0.278   0.576 -0.0219  0.1103  0.1679
  608SOL    HW1 2430   1.851   0.348   0.516  1.8368  0.7138 -0.5829
  608SOL    HW2 2431   1.848   0.203   0.519  0.2190 -0.1004 -2.0721
  608SOL     MW 2432   1.855   0.277   0.561  0.2551  0.1621 -0.2267
  609SOL     OW 2433   2.048   1.961   3.028  0.2834  0.0699  1.0139
  609SOL    HW1 2434   1.972   1.897   3.018  0.7614  0.6101  1.3266
  609SOL    HW2 2435   2.082   1.930   3.114  1.1907  1.8738  0.3625
  609SOL     MW 2436   2.043   1.948   3.038  0.4662  0.3792  0.9692
  610SOL     OW 2437   1.786   0.982   1.245  0.8643 -0.4737 -0.5129
  610SOL    HW1 2438   1.821   0.903   1.194  3.3941 -0.7707  2.3888
  610SOL    HW2 2439   1.698   0.976   1.211  0.2979 -1.3325 -1.2075
  610SOL     MW 2440   1.779   0.971   1.233  1.1234 -0.6262 -0.2217
  611SOL     OW 2441   2.520   1.693   0.680  0.2331  0.0138 -0.3741
  611SOL    HW1 2442   2.564   1.758   0.631 -2.1970 -1.2356 -1.4272
  611SOL    HW2 2443   2.425   1.710   0.673  0.7948 -0.2424  1.7150
  611SOL     MW 2444   2.514   1.704   0.672 -0.0134 -0.1848 -0.2374
  612SOL     OW 2445   2.867   2.891   0.369 -0.2134  0.1784 -0.5149
  612SOL    HW1 2446   2.871   2.924   0.461  1.4891 -0.3630  0.3657
  612SOL    HW2 2447   2.957   2.869   0.346 -2.1416 -0.2624  0.5707
  612SOL     MW 2448   2.880   2.892   0.378 -0.2432  0.0488 -0.2555
  613SOL     OW 2449   1.453   1.025   0.902 -0.2627 -0.0057 -0.1511
  613SOL    HW1 2450   1.447   1.112   0.854 -0.3420  2.0172  2.1373
  613SOL    HW2 2451   1.494   1.040   0.984 -0.2907  0.1560  1.0004
  613SOL     MW 2452   1.458   1.038   0.906 -0.2768  0.2825  0.3028
  614SOL     OW 2453   1.988   0.548   1.474 -0.3685 -0.5429  0.0445
  614SOL    HW1 2454   1.990   0.481   1.554  1.3314 -1.5345  1.3846
  614SOL    HW2 2455   1.929   0.513   1.408  0.2776 -2.0395 -0.7597
  614SOL     MW 2456   1.981   0.535   1.476 -0.0589 -0.8712  0.1152
  615SOL     OW 2457   2.321   0.769   0.246 -0.0861 -0.1060  0.2929
  615SOL    HW1 2458   2.394   0.709   0.246 -2.1470 -0.3345 -1.3788
  615SOL    HW2 2459   2.271   0.731   0.176  0.9301  5.0446  0.9858
  615SOL     MW 2460   2.324   0.756   0.237 -0.2239  0.5434  0.1637
  616SOL     OW 2461   2.504   0.408   1.661 -0.2567 -0.1954  0.6718
  616SOL    HW1 2462   2.471   0.329   1.612  1.6953  0.8686 -0.9447
  616SOL    HW2 2463   2.502   0.473   1.590 -0.4984  0.1497 -1.0554
  616SOL     MW 2464   2.499   0.406   1.645 -0.0311 -0.0095  0.2306
  617SOL     OW 2465   2.791   0.635   1.703  0.1717 -0.3646 -0.0444
  617SOL    HW1 2466   2.721   0.635   1.775  0.0962  1.0361 -1.6689
  617SOL    HW2 2467   2.782   0.551   1.659 -4.0717 -0.5890  0.9125
  617SOL     MW 2468   2.781   0.624   1.707 -0.3981 -0.2094 -0.1325
  618SOL     OW 2469   2.714   0.344   1.939 -0.5154 -0.0047  0.7731
  618SOL    HW1 2470   2.713   0.441   1.921 -1.4581  0.4059  0.4612
  618SOL    HW2 2471   2.782   0.331   2.003 -2.1083 -0.0582  2.4629
  618SOL     MW 2472   2.723   0.355   1.945 -0.8499  0.0424  0.9549
  619SOL     OW 2473   2.660   0.732   0.057 -1.0342  0.5069 -0.4091
  619SOL    HW1 2474   2.697   0.815   0.087 -2.6620 -0.1755  0.6761
  619SOL    HW2 2475   2.625   0.686   0.131  0.3621 -0.6207 -1.3225
  619SOL     MW 2476   2.660   0.737   0.070 -1.0648  0.2681 -0.3865
  620SOL     OW 2477   2.207   1.042   0.913 -0.1547 -0.1804 -0.1884
  620SOL    HW1 2478   2.294   1.036   0.870  2.3275 -0.1836  0.7362
  620SOL    HW2 2479   2.138   0.984   0.879  1.3442 -2.2066  0.4142
  620SOL     MW 2480   2.209   1.034   0.903  0.3705 -0.4481  0.0131
  621SOL     OW 2481   1.561   2.205   1.919 -0.1243 -0.4737  0.5289
  621SOL    HW1 2482   1.508   2.152   1.983 -1.8226  2.6235 -2.9101
  621SOL    HW2 2483   1.652   2.169   1.927  1.7506  0.2659 -0.9866
  621SOL     MW 2484   1.566   2.193   1.929 -0.1010  0.0325 -0.1248
  622SOL     OW 2485   2.611   0.193   0.243  1.1208  0.4138  0.0216
  622SOL    HW1 2486   2.695   0.233   0.233  0.8704  0.5344  0.7518
  622SOL    HW2 2487   2.630   0.100   0.276  1.5798 -0.7602 -1.3546
  622SOL     MW 2488   2.624   0.186   0.246  1.1484  0.2748 -0.0636
  623SOL     OW 2489   2.433   2.766   0.849  0.4775 -0.2974 -0.3522
  623SOL    HW1 2490   2.498   2.836   0.841  3.7308 -1.1953  1.2382
  623SOL    HW2 2491   2.391   2.775   0.936  2.0281 -0.1280  0.9177
  623SOL     MW 2492   2.436   2.776   0.859  1.1113 -0.3935  0.0252
  624SOL     OW 2493   2.155   1.657   3.025  0.3698 -1.0884  0.2582
  624SOL    HW1 2494   2.102   1.588   3.057 -1.5566 -1.1997  2.2696
  624SOL    HW2 2495   2.090   1.709   2.983 -1.0270  4.1666  0.0402
  624SOL     MW 2496   2.139   1.655   3.024 -0.0687 -0.4097  0.4948
  625SOL     OW 2497   2.194   1.862   1.051  0.9940  0.2337  0.5942
  625SOL    HW1 2498   2.259   1.845   1.122 -0.6946  0.0132 -0.6585
  625SOL    HW2 2499   2.245   1.908   0.985 -1.3062  1.0172  0.2902
  625SOL     MW 2500   2.210   1.866   1.052  0.4677  0.3080  0.3888
  626SOL     OW 2501   0.279   1.717   2.431 -0.0416  0.8992  0.3743
  626SOL    HW1 2502   0.221   1.662   2.482  0.7934 -0.6850 -2.5750
  626SOL    HW2 2503   0.222   1.747   2.360  0.9133 -0.3263 -1.3115
  626SOL     MW 2504   0.264   1.714   2.428  0.1945  0.5285 -0.2372
  627SOL     OW 2505   2.478   0.720   2.538  0.5928  0.0899  0.2190
  627SOL    HW1 2506   2.439   0.808   2.554  3.6517  2.7068  1.3524
  627SOL    HW2 2507   2.453   0.709   2.448  0.7614  1.3115 -0.3029
  627SOL     MW 2508   2.469   0.730   2.528  1.0186  0.5963  0.2997
  628SOL     OW 2509   2.278   1.390   1.311 -0.5309  0.1111 -0.0624
  628SOL    HW1 2510   2.248   1.314   1.256 -2.4731  2.9108  0.1624
  628SOL    HW2 2511   2.374   1.400   1.295  2.4038 -1.5525  0.1787
  628SOL     MW 2512   2.286   1.381   1.301 -0.4000  0.2610 -0.0010
  629SOL     OW 2513   1.861   0.546   1.230  0.4062  0.2168 -0.1030
  629SOL    HW1 2514   1.888   0.625   1.190  0.5121  0.4955  0.5228
  629SOL    HW2 2515   1.765   0.537   1.225  0.5470 -2.2359 -1.8056
  629SOL     MW 2516   1.852   0.556   1.224  0.4387 -0.0700 -0.2451
  630SOL     OW 2517   2.362   1.878   3.062  0.2533  0.1247 -0.2208
  630SOL    HW1 2518   2.359   1.945   2.986  1.1979 -1.6782 -1.7295
  630SOL    HW2 2519   2.306   1.805   3.050 -1.1841  1.7431 -1.0798
  630SOL     MW 2520   2.354   1.877   3.051  0.1883  0.1004 -0.5332
  631SOL     OW 2521   2.068   1.747   1.550 -0.1153 -0.4942 -0.2946
  631SOL    HW1 2522   2.069   1.661   1.596 -0.3856 -4.0538  1.6053
  631SOL    HW2 2523   1.996   1.741   1.482 -1.4657 -2.0044  1.8126
  631SOL     MW 2524   2.058   1.735   1.547 -0.3291 -1.1631  0.2341
  632SOL     OW 2525   0.234   1.986   1.410  0.3960 -0.0784  0.5354
  632SOL    HW1 2526   0.175   1.985   1.489 -0.6680 -1.6492 -2.0754
  632SOL    HW2 2527   0.273   1.905   1.420 -0.9528  2.4560 -0.5832
  632SOL     MW 2528   0.231   1.975   1.422  0.0776  0.0488  0.0433
  633SOL     OW 2529   2.556   0.614   0.267 -0.5595  0.5246 -0.6976
  633SOL    HW1 2530   2.607   0.615   0.347 -1.0628  0.1595 -2.5832
  633SOL    HW2 2531   2.569   0.521   0.236  0.9102 -0.7323  2.9066
  633SOL     MW 2532   2.564   0.602   0.274 -0.4320  0.3106 -0.4708
  634SOL     OW 2533   2.674   0.034   0.653  0.3035  0.0663 -0.2243
  634SOL    HW1 2534   2.735   0.114   0.658  1.4145  2.2785  2.6001
  634SOL    HW2 2535   2.626   0.042   0.572 -1.3971 -0.8878 -0.3143
  634SOL     MW 2536   2.676   0.045   0.643  0.2257  0.2323  0.1364
  635SOL     OW 2537   2.582   0.139   1.843  0.3011 -0.1180 -0.4326
  635SOL    HW1 2538   2.658   0.094   1.798  0.0671  1.9364  0.4495
  635SOL    HW2 2539   2.613   0.234   1.855  1.3032  2.2779 -2.8257
  635SOL     MW 2540   2.596   0.146   1.839  0.4024  0.4692 -0.6320
  636SOL     OW 2541   2.838   1.601   0.900 -0.3772 -0.6688 -0.1091
  636SOL    HW1 2542   2.749   1.632   0.890  1.2639  0.7431 -1.6432
  636SOL    HW2 2543   2.879   1.656   0.964  0.7027  1.1831 -1.2693
  636SOL     MW 2544   2.832   1.613   0.907 -0.0182 -0.2382 -0.4646
  637SOL     OW 2545   2.866   1.472   0.645  0.3217  0.3245 -0.8403
  637SOL    HW1 2546   2.919   1.521   0.581 -0.3505 -1.0020 -1.7838
  637SOL    HW2 2547   2.861   1.536   0.719 -1.1581  0.1304  1.8977
  637SOL     MW 2548   2.873   1.487   0.646  0.0378  0.1239 -0.6035
  638SOL     OW 2549   2.660   0.515   0.518 -0.1342 -0.5592 -0.4238
  638SOL    HW1 2550   2.750   0.494   0.494 -1.0853  1.4551 -2.4530
  638SOL    HW2 2551   2.675   0.534   0.614 -0.1869  0.4702 -0.0562
  638SOL     MW 2552   2.674   0.515   0.527 -0.2667 -0.1576 -0.6431
  639SOL     OW 2553   1.702   0.020   0.560  0.1597  0.0754 -0.0745
  639SOL    HW1 2554   1.618   0.062   0.526 -2.7926  1.7407 -0.7803
  639SOL    HW2 2555   1.728  -0.033   0.481 -2.3003  1.7498 -0.5188
  639SOL     MW 2556   1.694   0.019   0.545 -0.5544  0.5161 -0.2262
  640SOL     OW 2557   0.262   1.314   0.110  0.1331  0.2481 -0.6616
  640SOL    HW1 2558   0.288   1.324   0.017 -0.7087 -0.4904 -0.7421
  640SOL    HW2 2559   0.273   1.222   0.131 -1.8462  1.2491 -1.6073
  640SOL     MW 2560   0.267   1.303   0.100 -0.2391  0.2827 -0.7970
  641SOL     OW 2561   2.236   0.422   0.407  0.2854  0.1930 -0.2996
  641SOL    HW1 2562   2.260   0.395   0.322 -0.5209  0.6703 -1.5280
  641SOL    HW2 2563   2.299   0.387   0.467 -1.2387  1.5172 -3.1560
  641SOL     MW 2564   2.247   0.414   0.404 -0.0221  0.4307 -0.8385
  642SOL     OW 2565   0.033   0.007   0.525  0.4210  0.4500 -0.8234
  642SOL    HW1 2566  -0.003   0.091   0.499  3.4221  0.0398  1.9147
  642SOL    HW2 2567  -0.042  -0.024   0.581 -2.5625  0.0296 -0.3151
  642SOL     MW 2568   0.018   0.014   0.529  0.4233  0.3404 -0.3951
  643SOL     OW 2569   2.010   0.358   1.681 -0.1063 -0.3262  0.5749
  643SOL    HW1 2570   1.955   0.300   1.730  2.3097  1.3705 -0.8489
  643SOL    HW2 2571   2.074   0.297   1.637 -0.7144 -0.9710 -2.6384
  643SOL     MW 2572   2.011   0.342   1.681  0.1322 -0.1874 -0.0369
  644SOL     OW 2573   2.696   1.919   1.043 -0.9413 -0.3968 -0.1801
  644SOL    HW1 2574   2.664   1.848   1.101  1.3272 -0.0782  1.0284
  644SOL    HW2 2575   2.617   1.958   1.007 -0.0543 -0.0577 -1.8275
  644SOL     MW 2576   2.681   1.915   1.046 -0.5250 -0.3100 -0.2380
  645SOL     OW 2577   2.824   0.837   0.641 -0.1564  0.1857  0.1882
  645SOL    HW1 2578   2.902   0.794   0.669 -0.8312  0.9595  2.0719
  645SOL    HW2 2579   2.749   0.782   0.670  0.5303 -0.3011 -1.4344
  645SOL     MW 2580   2.824   0.824   0.649 -0.1548  0.2235  0.2226
  646SOL     OW 2581   0.064   2.266   0.872 -0.0089 -0.0597 -0.1263
  646SOL    HW1 2582   0.116   2.190   0.846 -1.7101 -3.2645 -1.0284
  646SOL    HW2 2583   0.006   2.303   0.805  1.8843 -0.0887 -0.9372
  646SOL     MW 2584   0.063   2.261   0.860  0.0164 -0.4864 -0.3523
  647SOL     OW 2585   2.716   0.502   2.936 -0.0557 -0.0404  0.0347
  647SOL    HW1 2586   2.665   0.480   3.012 -0.8847 -2.4332  0.8371
  647SOL    HW2 2587   2.663   0.573   2.902  2.3661  2.1747  0.7885
  647SOL     MW 2588   2.703   0.508   2.941  0.1545 -0.0638  0.2401
  648SOL     OW 2589   2.193   0.710   1.165  0.3508  0.4871 -0.6345
  648SOL    HW1 2590   2.219   0.624   1.196  0.5591 -1.6906 -0.6600
  648SOL    HW2 2591   2.168   0.763   1.236 -1.6406  1.4175 -1.2234
  648SOL     MW 2592   2.193   0.705   1.178  0.1155  0.3225 -0.7156
  649SOL     OW 2593   2.374   2.683   1.335 -0.0055  0.0658  0.8144
  649SOL    HW1 2594   2.462   2.715   1.320  0.3358  1.5583  2.1455
  649SOL    HW2 2595   2.377   2.596   1.290  0.8657  1.2108 -5.8275
  649SOL     MW 2596   2.386   2.676   1.327  0.1545  0.4138  0.1137
  650SOL     OW 2597   2.848   0.234   0.677 -0.1358 -0.1563  0.0104
  650SOL    HW1 2598   2.868   0.315   0.722  0.4620  0.3117 -0.7838
  650SOL    HW2 2599   2.897   0.248   0.592 -2.4638 -1.9654  1.1806
  650SOL     MW 2600   2.857   0.247   0.672 -0.3641 -0.3332  0.0600
  651SOL     OW 2601   3.065   0.441   0.994  0.2812  0.0830  0.1292
  651SOL    HW1 2602   3.124   0.470   0.918 -0.7479 -0.5235  0.2712
  651SOL    HW2 2603   2.996   0.509   0.996 -0.7174  0.2003 -0.3742
  651SOL     MW 2604   3.064   0.454   0.984  0.0137  0.0185  0.0815
  652SOL     OW 2605   2.416   1.552   3.058 -0.9058  0.4557 -0.0278
  652SOL    HW1 2606   2.449   1.554   2.972 -0.7611 -1.1588 -0.6185
  652SOL    HW2 2607   2.324   1.584   3.042 -0.3564 -1.9152  0.4925
  652SOL     MW 2608   2.408   1.556   3.044 -0.8142 -0.0701 -0.0371
  653SOL     OW 2609   1.809   0.467   0.345 -0.4076 -0.2348 -0.6156
  653SOL    HW1 2610   1.756   0.409   0.282 -1.1305 -0.3053 -2.3783
  653SOL    HW2 2611   1.856   0.507   0.274 -2.1746 -0.9577 -0.1641
  653SOL     MW 2612   1.808   0.465   0.327 -0.7361 -0.3395 -0.7886
  654SOL     OW 2613   2.426   1.011   0.741  0.5093 -0.4726 -0.3690
  654SOL    HW1 2614   2.346   0.992   0.685  1.2691 -1.0927 -0.8404
  654SOL    HW2 2615   2.459   0.926   0.769  1.3118  1.5129 -2.0883
  654SOL     MW 2616   2.420   0.997   0.737  0.7154 -0.2925 -0.6580
  655SOL     OW 2617   2.896   0.856   0.387 -0.1999  0.2128  0.0056
  655SOL    HW1 2618   2.857   0.857   0.473  1.7518  0.2286  0.7693
  655SOL    HW2 2619   2.924   0.761   0.372 -0.4811  0.6425 -0.4791
  655SOL     MW 2620   2.894   0.844   0.397  0.0205  0.2716  0.0424
  656SOL     OW 2621   1.775   2.659   1.360 -0.8286  0.1580  0.3086
  656SOL    HW1 2622   1.841   2.732   1.373 -1.2364 -1.0907 -0.6011
  656SOL    HW2 2623   1.828   2.582   1.369 -1.0576  1.5681 -0.3526
  656SOL     MW 2624   1.791   2.659   1.363 -0.9126  0.1793  0.1013
  657SOL     OW 2625   0.145   1.759   1.167  0.1797 -0.3178  0.2202
  657SOL    HW1 2626   0.211   1.811   1.116  2.5562  0.0552  0.5295
  657SOL    HW2 2627   0.184   1.676   1.170 -2.9101  1.0901  0.3559
  657SOL     MW 2628   0.159   1.755   1.161  0.0856 -0.0828  0.2789
  658SOL     OW 2629   2.652   1.306   0.243 -0.0086 -0.3528 -0.2259
  658SOL    HW1 2630   2.637   1.229   0.304  0.2242 -2.4803  3.2192
  658SOL    HW2 2631   2.684   1.372   0.311 -2.4924 -0.6396  1.7717
  658SOL     MW 2632   2.654   1.304   0.260 -0.3056 -0.6714  0.4922
  659SOL     OW 2633   2.257   1.548   0.974  0.0797  0.2367 -0.3331
  659SOL    HW1 2634   2.353   1.536   0.998 -0.6429 -2.4778  1.8384
  659SOL    HW2 2635   2.214   1.562   1.066 -0.9856 -1.5024  2.1052
  659SOL     MW 2636   2.264   1.548   0.989 -0.1562 -0.3509  0.2751
  660SOL     OW 2637   2.097   1.519   1.696  0.4330 -0.4685  0.6953
  660SOL    HW1 2638   2.089   1.553   1.787  0.5785 -2.4923 -0.3911
  660SOL    HW2 2639   2.025   1.454   1.684  1.6436 -1.3134  2.4190
  660SOL     MW 2640   2.087   1.515   1.706  0.6119 -0.8470  0.7794
  661SOL     OW 2641   2.489   0.978   0.152  0.2570 -0.3172 -0.2861
  661SOL    HW1 2642   2.519   0.997   0.239 -1.6427 -2.7903 -1.3668
  661SOL    HW2 2643   2.447   0.889   0.163 -1.1960  0.8036  2.2880
  661SOL     MW 2644   2.488   0.969   0.165 -0.1853 -0.4956 -0.0890
  662SOL     OW 2645   2.582   3.030   0.901  0.4542 -0.6730  0.1614
  662SOL    HW1 2646   2.509   3.087   0.928 -0.6953  1.0346 -0.1065
  662SOL    HW2 2647   2.613   3.077   0.826 -0.6907 -0.3192  0.8437
  662SOL     MW 2648   2.577   3.044   0.895  0.1515 -0.4010  0.2161
  663SOL     OW 2649   2.682   1.484   0.451  0.0317 -0.5112 -0.3763
  663SOL    HW1 2650   2.663   1.571   0.423 -0.9982  0.1281  1.2237
  663SOL    HW2 2651   2.744   1.482   0.525 -1.5390  2.5073 -2.1596
  663SOL     MW 2652   2.688   1.495   0.457 -0.3114 -0.0286 -0.4005
  664SOL     OW 2653   2.571   1.543   1.585 -0.0162 -0.1234  0.6189
  664SOL    HW1 2654   2.545   1.634   1.581  0.1499 -0.3981  0.2079
  664SOL    HW2 2655   2.490   1.488   1.570  1.2768  1.6720 -0.3020
  664SOL     MW 2656   2.557   1.548   1.582  0.1763  0.0773  0.4431
  665SOL     OW 2657   2.783   0.833   2.034 -0.7713 -0.3980 -0.2773
  665SOL    HW1 2658   2.792   0.878   1.950  1.7405 -2.7193 -0.9555
  665SOL    HW2 2659   2.861   0.778   2.029 -1.8564 -1.3569  0.2124
  665SOL     MW 2660   2.795   0.831   2.022 -0.5830 -0.8308 -0.3021
  666SOL     OW 2661   2.768   3.089   1.709 -0.4195  0.0360  0.3295
  666SOL    HW1 2662   2.777   3.058   1.617  3.5935 -1.8327  0.6723
  666SOL    HW2 2663   2.751   3.009   1.760 -0.2273  0.1599  0.3341
  666SOL     MW 2664   2.767   3.074   1.704  0.1354 -0.1942  0.3753
  667SOL     OW 2665   1.958   2.677   1.768 -0.5166  0.7177 -0.5927
  667SOL    HW1 2666   1.987   2.662   1.857 -1.4821  1.7092 -0.5052
  667SOL    HW2 2667   2.018   2.745   1.735 -0.1238  0.2145 -0.4833
  667SOL     MW 2668   1.970   2.684   1.775 -0.5922  0.7821 -0.5667
  668SOL     OW 2669   2.718   0.579   0.791 -0.6210 -0.0526  0.1761
  668SOL    HW1 2670   2.781   0.600   0.857 -0.8485  0.3562 -0.0732
  668SOL    HW2 2671   2.634   0.634   0.811  2.2180 -3.9967  0.0931
  668SOL     MW 2672   2.715   0.589   0.802 -0.2764 -0.5190  0.1322
  669SOL     OW 2673   0.135   0.875   0.722 -0.2675 -0.4335  0.8272
  669SOL    HW1 2674   0.091   0.954   0.761 -0.1787  1.2616  2.8297
  669SOL    HW2 2675   0.222   0.856   0.769  2.0033 -1.4727 -1.7234
  669SOL     MW 2676   0.141   0.883   0.734  0.0438 -0.3470  0.7549
  670SOL     OW 2677   2.870   0.289   0.204  0.2369 -0.2544 -0.1997
  670SOL    HW1 2678   2.875   0.240   0.117 -0.0512 -1.9420 -0.4881
  670SOL    HW2 2679   2.873   0.385   0.185 -1.1737  2.8732 -0.5415
  670SOL     MW 2680   2.871   0.295   0.190  0.0128 -0.0644 -0.2828
  671SOL     OW 2681   2.026   3.059   1.573 -0.7367  0.3624 -0.4103
  671SOL    HW1 2682   1.989   3.015   1.494 -1.9187 -0.5044  0.3902
  671SOL    HW2 2683   1.955   3.062   1.639  0.6722  1.2451  2.3857
  671SOL     MW 2684   2.012   3.054   1.571 -0.7068  0.3645  0.0643
  672SOL     OW 2685   1.905   1.698   1.304  0.2056 -0.0744 -0.0396
  672SOL    HW1 2686   1.823   1.738   1.337 -0.9496 -0.6476  0.4848
  672SOL    HW2 2687   1.908   1.727   1.206  0.4124 -0.2679 -0.1610
  672SOL     MW 2688   1.895   1.707   1.295  0.0805 -0.1756  0.0136
  673SOL     OW 2689   2.791   1.123   0.622  0.2875 -0.4532  0.6253
  673SOL    HW1 2690   2.808   1.029   0.629 -0.9729  0.1272 -2.6892
  673SOL    HW2 2691   2.879   1.166   0.631  0.4894  1.2309  1.6149
  673SOL     MW 2692   2.805   1.116   0.624  0.1478 -0.1544  0.3186
  674SOL     OW 2693   2.456   3.078   1.266 -0.0608  0.4675 -0.7880
  674SOL    HW1 2694   2.404   3.081   1.181  0.4124  0.6548 -0.1443
  674SOL    HW2 2695   2.432   2.990   1.292 -0.6206  0.9345  0.5843
  674SOL     MW 2696   2.446   3.067   1.258 -0.0722  0.5538 -0.5220
  675SOL     OW 2697   3.056   0.882   1.083 -0.3373 -0.0460  0.0593
  675SOL    HW1 2698   3.118   0.916   1.150 -0.8708  1.6081  1.3672
  675SOL    HW2 2699   3.069   0.933   1.007 -1.2665  0.8068  0.6757
  675SOL     MW 2700   3.066   0.894   1.082 -0.5303  0.2848  0.3132
  676SOL     OW 2701   2.953   1.479   1.653 -0.2598 -0.1456 -0.0715
  676SOL    HW1 2702   2.910   1.397   1.634  0.0193 -2.9105 -1.8160
  676SOL    HW2 2703   3.009   1.440   1.718  0.6598 -0.7031 -1.2421
  676SOL     MW 2704   2.955   1.463   1.659 -0.1016 -0.5840 -0.4561
  677SOL     OW 2705   2.364   0.596   2.000 -0.1958  0.7833  0.9612
  677SOL    HW1 2706   2.320   0.534   1.945  1.9294  1.3628  1.7513
  677SOL    HW2 2707   2.334   0.683   1.958  1.8765  1.4435 -1.9319
  677SOL     MW 2708   2.354   0.599   1.987  0.3580  0.9469  0.6837
  678SOL     OW 2709   2.504   1.675   0.325 -0.5949 -0.0736 -0.4331
  678SOL    HW1 2710   2.422   1.723   0.321 -0.2034 -2.9942  2.7239
  678SOL    HW2 2711   2.486   1.598   0.275  0.1879  1.7713  0.2777
  678SOL     MW 2712   2.491   1.672   0.318 -0.4399 -0.2155  0.0772
  679SOL     OW 2713   2.236   0.480   1.291 -0.4721 -0.3229  0.3337
  679SOL    HW1 2714   2.226   0.390   1.263 -0.2688 -0.3569 -0.9586
  679SOL    HW2 2715   2.151   0.514   1.313 -1.0119  0.9863 -0.4245
  679SOL     MW 2716   2.223   0.472   1.290 -0.5165 -0.1547  0.0632
  680SOL     OW 2717   2.373   0.179   1.457  0.1899 -0.1285 -0.1325
  680SOL    HW1 2718   2.277   0.192   1.446 -2.0644  0.2943 -0.6822
  680SOL    HW2 2719   2.410   0.122   1.394 -2.4720  2.3187  3.2835
  680SOL     MW 2720   2.365   0.173   1.447 -0.4587  0.2502  0.2457
  681SOL     OW 2721   0.285   0.535   1.554 -0.6575  0.7916  0.4863
  681SOL    HW1 2722   0.288   0.467   1.630  0.8477 -1.0960  3.0567
  681SOL    HW2 2723   0.371   0.534   1.518  0.4630 -0.0881  0.0920
  681SOL     MW 2724   0.297   0.526   1.559 -0.3110  0.4265  0.7734
  682SOL     OW 2725   0.138   2.839   1.528 -0.5033 -0.3464  0.3254
  682SOL    HW1 2726   0.191   2.899   1.584  1.3441 -1.3139  1.6369
  682SOL    HW2 2727   0.053   2.877   1.539  0.2390  0.4906 -0.1862
  682SOL     MW 2728   0.134   2.852   1.537 -0.1616 -0.3637  0.4309
  683SOL     OW 2729   2.061   0.788   2.947  0.0198  0.0063 -0.1622
  683SOL    HW1 2730   1.973   0.750   2.933  2.3267  1.8599 -2.0921
  683SOL    HW2 2731   2.052   0.855   3.016 -1.5201  0.0025 -1.1649
  683SOL     MW 2732   2.048   0.792   2.954  0.1210  0.2503 -0.5491
  684SOL     OW 2733   2.260   1.677   0.746  0.1430  0.4965 -0.1234
  684SOL    HW1 2734   2.246   1.614   0.674 -0.2134  1.5003 -0.2969
  684SOL    HW2 2735   2.262   1.634   0.833 -0.2707  2.3424  0.2878
  684SOL     MW 2736   2.258   1.663   0.748  0.0414  0.8725 -0.0920
  685SOL     OW 2737   2.639   1.705   1.221  0.1754 -0.6669  0.5327
  685SOL    HW1 2738   2.688   1.680   1.299  1.1148  0.4404  0.2225
  685SOL    HW2 2739   2.591   1.633   1.191 -0.7285  0.7516  2.6528
  685SOL     MW 2740   2.639   1.692   1.228  0.1801 -0.3336  0.7715
  686SOL     OW 2741   2.910   0.737   1.482 -0.3859  0.1169 -0.2265
  686SOL    HW1 2742   2.884   0.709   1.567  2.2814 -1.6509  0.6003
  686SOL    HW2 2743   3.007   0.720   1.486 -0.0798  0.1069  1.4012
  686SOL     MW 2744   2.919   0.731   1.494  0.0064 -0.1177  0.0973
  687SOL     OW 2745   2.149   0.209   1.211  0.1205 -0.0009  0.0682
  687SOL    HW1 2746   2.215   0.156   1.167 -1.3447 -0.1894 -1.6606
  687SOL    HW2 2747   2.086   0.239   1.149  0.8147 -1.2782  0.5189
  687SOL     MW 2748   2.149   0.206   1.197  0.0188 -0.1943 -0.1004
  688SOL     OW 2749   2.407   0.592   1.468  0.9826  0.8136 -0.4119
  688SOL    HW1 2750   2.387   0.520   1.407  0.9735 -0.1797 -1.0022
  688SOL    HW2 2751   2.340   0.608   1.532  1.2236  0.2056  1.4005
  688SOL     MW 2752   2.396   0.584   1.468  1.0132  0.6023 -0.2506
  689SOL     OW 2753   2.483   0.699   2.950  0.4303 -0.3128  0.1645
  689SOL    HW1 2754   2.461   0.776   2.893 -1.3724  1.3760  0.4185
  689SOL    HW2 2755   2.554   0.736   3.003 -0.0338 -1.3074 -0.7465
  689SOL     MW 2756   2.489   0.714   2.949  0.1312 -0.2212  0.0778
  690SOL     OW 2757   1.984   0.825   1.866  0.0889 -0.2399  0.5056
  690SOL    HW1 2758   1.937   0.742   1.873  1.4730  0.5790 -0.7861
  690SOL    HW2 2759   1.975   0.840   1.773 -2.0438 -0.2812 -1.1354
  690SOL     MW 2760   1.977   0.816   1.855 -0.0098 -0.1373  0.1187
  691SOL     OW 2761   2.396   0.258   0.855 -0.3260 -0.3680 -0.4030
  691SOL    HW1 2762   2.450   0.324   0.893  2.1290 -3.6228  0.8466
  691SOL    HW2 2763   2.303   0.273   0.873 -0.5079 -1.2577 -1.1005
  691SOL     MW 2764   2.391   0.269   0.863 -0.0261 -0.9148 -0.3302
  692SOL     OW 2765   2.858   1.671   1.448  0.5321 -0.4767  0.3140
  692SOL    HW1 2766   2.882   1.611   1.517  2.7706 -1.1941  0.5619
  692SOL    HW2 2767   2.891   1.761   1.486  0.9694 -0.0360  0.6322
  692SOL     MW 2768   2.865   1.675   1.462  0.8851 -0.5132  0.3887
  693SOL     OW 2769   2.257   0.385   0.136  0.0717  0.1661  0.2677
  693SOL    HW1 2770   2.182   0.325   0.135 -2.1733 -1.8563  0.7367
  693SOL    HW2 2771   2.230   0.466   0.090 -1.8434 -2.3277 -0.7095
  693SOL     MW 2772   2.244   0.388   0.130 -0.4772 -0.4297  0.2007
  694SOL     OW 2773   1.919   1.215   1.191 -0.2308 -0.2147 -0.9850
  694SOL    HW1 2774   2.017   1.203   1.179  0.8836 -0.7966  3.7928
  694SOL    HW2 2775   1.885   1.130   1.224 -1.6232  1.1187  2.0667
  694SOL     MW 2776   1.928   1.203   1.194 -0.2675 -0.1156  0.0480
  695SOL     OW 2777   3.072   1.518   1.291 -0.5853 -0.4826  0.3140
  695SOL    HW1 2778   3.020   1.499   1.212  0.2051  0.2049  2.3737
  695SOL    HW2 2779   3.014   1.585   1.339 -0.4870  0.1466  0.7020
  695SOL     MW 2780   3.058   1.524   1.287 -0.4681 -0.3088  0.6369
  696SOL     OW 2781   2.059   1.355   0.819 -0.0304  0.0595 -0.4589
  696SOL    HW1 2782   2.110   1.390   0.884  0.2005 -0.5883 -1.4472
  696SOL    HW2 2783   2.017   1.279   0.853  1.7572 -0.1082 -0.1321
  696SOL     MW 2784   2.060   1.350   0.832  0.2359 -0.0481 -0.5462
  697SOL     OW 2785   2.924   1.041   2.166 -0.0325 -0.1205 -0.1624
  697SOL    HW1 2786   2.856   1.095   2.184  1.9625 -2.1785 -1.3530
  697SOL    HW2 2787   2.887   0.956   2.149 -0.9216  0.5215 -0.6572
  697SOL     MW 2788   2.910   1.037   2.166  0.1134 -0.3074 -0.3847
  698SOL     OW 2789   2.486   0.344   0.027  0.1235  0.1484 -0.0482
  698SOL    HW1 2790   2.396   0.358   0.065 -1.0512 -1.3078  2.4148
  698SOL    HW2 2791   2.522   0.276   0.090 -1.4344 -2.0266  3.4017
  698SOL     MW 2792   2.479   0.337   0.040 -0.2370 -0.3307  0.7320
  699SOL     OW 2793   1.836   1.553   2.073  0.0539 -0.0223 -0.0064
  699SOL    HW1 2794   1.789   1.478   2.035  0.1996 -1.9079 -0.1456
  699SOL    HW2 2795   1.919   1.549   2.033  2.4197  1.7811 -0.0591
  699SOL     MW 2796   1.841   1.543   2.062  0.3853 -0.0331 -0.0317
  700SOL     OW 2797   2.707   0.920   1.509  0.2350 -0.3803  0.6701
  700SOL    HW1 2798   2.704   0.997   1.457  0.3345  0.9309  3.1471
  700SOL    HW2 2799   2.790   0.868   1.498  0.5801  1.9714 -2.4781
  700SOL     MW 2800   2.718   0.923   1.501  0.2936  0.1030  0.5815
  701SOL     OW 2801   1.646   1.188   2.495  0.8785  0.2631 -0.5534
  701SOL    HW1 2802   1.741   1.177   2.486 -0.9503  0.7767  1.8131
  701SOL    HW2 2803   1.641   1.245   2.573 -0.5602  2.8044  0.2357
  701SOL     MW 2804   1.658   1.194   2.504  0.4474  0.6661 -0.1371
  702SOL     OW 2805   2.146   0.411   0.854  0.4869 -0.2339 -0.4730
  702SOL    HW1 2806   2.128   0.334   0.801 -1.4351  1.6248  1.2366
  702SOL    HW2 2807   2.202   0.476   0.802 -1.5635  1.9605 -1.1009
  702SOL     MW 2808   2.151   0.409   0.840 -0.0372  0.3009 -0.3303
  703SOL     OW 2809   2.721   1.217   1.063  0.1827  0.3628 -0.0142
  703SOL    HW1 2810   2.688   1.219   0.975 -0.3292 -0.8027  2.6724
  703SOL    HW2 2811   2.750   1.122   1.075  0.5176  1.6606 -1.1990
  703SOL     MW 2812   2.720   1.205   1.053  0.1593  0.3802  0.1839
  704SOL     OW 2813   3.064   1.161   0.070  0.3502 -0.0247  0.4200
  704SOL    HW1 2814   2.974   1.192   0.038  2.1524  1.1738 -0.6610
  704SOL    HW2 2815   3.052   1.125   0.156 -2.2310 -0.3090  2.4777
  704SOL     MW 2816   3.051   1.160   0.077  0.2474  0.0959  0.5488
  705SOL     OW 2817   2.189   1.614   1.230  0.1465  0.1404  0.3896
  705SOL    HW1 2818   2.099   1.630   1.270 -1.0991 -0.0423  1.9388
  705SOL    HW2 2819   2.211   1.526   1.265  0.2578  0.6515 -0.3231
  705SOL     MW 2820   2.180   1.605   1.240 -0.0031  0.1837  0.5000
  706SOL     OW 2821   3.023   1.241   0.656  0.0146  0.8004 -0.2622
  706SOL    HW1 2822   3.077   1.232   0.570  2.6261 -1.6420  2.5459
  706SOL    HW2 2823   2.972   1.319   0.663 -0.5163 -2.4450 -2.2602
  706SOL     MW 2824   3.023   1.250   0.645  0.2891  0.0499 -0.1553
  707SOL     OW 2825   2.310   0.061   1.031 -0.3944 -0.1820  0.2030
  707SOL    HW1 2826   2.351   0.117   0.970 -3.9824  0.8823 -2.0671
  707SOL    HW2 2827   2.254   0.005   0.977  2.4433 -2.9715  2.8077
  707SOL     MW 2828   2.308   0.061   1.016 -0.4934 -0.4097  0.2471
  708SOL     OW 2829   2.420   1.442   0.198  0.1874  0.2945  0.5352
  708SOL    HW1 2830   2.492   1.379   0.218  2.3183  0.3922 -0.6489
  708SOL    HW2 2831   2.435   1.458   0.106 -0.4687  0.0715  2.7214
  708SOL     MW 2832   2.432   1.436   0.188  0.3820  0.2780  0.6674
  709SOL     OW 2833   1.770   1.648   0.211 -0.0782  0.1257  0.0219
  709SOL    HW1 2834   1.761   1.664   0.113 -0.5911 -1.7664 -1.9806
  709SOL    HW2 2835   1.687   1.665   0.259  0.0195 -1.6282 -1.3347
  709SOL     MW 2836   1.758   1.653   0.204 -0.1330 -0.3554 -0.4213
  710SOL     OW 2837   2.191   1.155   1.161 -0.4672  0.2502 -0.0480
  710SOL    HW1 2838   2.208   1.121   1.071 -2.4617  2.6824  0.2526
  710SOL    HW2 2839   2.190   1.078   1.224 -2.2776 -3.5880 -1.6680
  710SOL     MW 2840   2.193   1.141   1.157 -0.9692  0.0647 -0.2221
  711SOL     OW 2841   2.333   0.186   1.722  0.0226  0.0996 -0.3925
  711SOL    HW1 2842   2.422   0.163   1.762  0.2650  1.1136 -0.0155
  711SOL    HW2 2843   2.342   0.175   1.630  0.6613 -2.3282  0.3481
  711SOL     MW 2844   2.346   0.181   1.716  0.1388 -0.0869 -0.2451
  712SOL     OW 2845   1.910   0.548   0.095  0.3471  1.0345  0.1776
  712SOL    HW1 2846   1.813   0.566   0.076  1.2417  1.0693 -3.2265
  712SOL    HW2 2847   1.945   0.628   0.123 -4.0123  0.5895  1.1428
  712SOL     MW 2848   1.902   0.561   0.096 -0.1101  0.9804 -0.1442
  713SOL     OW 2849   2.555   0.824   1.084  0.3450 -0.0364  0.0478
  713SOL    HW1 2850   2.565   0.750   1.136 -1.6092  0.9875 -0.3915
  713SOL    HW2 2851   2.482   0.877   1.122 -1.2486  3.3728  1.8054
  713SOL     MW 2852   2.547   0.821   1.096 -0.1231  0.5485  0.2217
  714SOL     OW 2853   2.213   0.203   1.985 -0.4946 -0.1237  0.2414
  714SOL    HW1 2854   2.271   0.164   2.057  1.4207 -0.7403  2.7482
  714SOL    HW2 2855   2.235   0.178   1.891 -0.3815  2.5317 -0.0254
  714SOL     MW 2856   2.223   0.195   1.982 -0.2269  0.1453  0.5369
  715SOL     OW 2857   1.750   1.904   1.711 -0.1392  0.8517  0.1185
  715SOL    HW1 2858   1.837   1.871   1.676  1.7652 -0.8708  0.8347
  715SOL    HW2 2859   1.733   1.854   1.789 -0.2642  0.8265  1.3850
  715SOL     MW 2860   1.759   1.893   1.717  0.0956  0.6211  0.3801
  716SOL     OW 2861   2.294   0.598   0.724 -0.0961 -0.2229 -0.3186
  716SOL    HW1 2862   2.335   0.517   0.697  0.6551  0.6268 -0.6318
  716SOL    HW2 2863   2.238   0.625   0.648 -2.4020 -1.0189 -0.3382
  716SOL     MW 2864   2.292   0.591   0.710 -0.3013 -0.2158 -0.3625
  717SOL     OW 2865   2.885   1.610   2.867 -0.0561 -0.2598 -0.2467
  717SOL    HW1 2866   2.974   1.594   2.894 -1.2897  3.9615  0.3084
  717SOL    HW2 2867   2.842   1.653   2.943  1.3158 -0.9309  0.1886
  717SOL     MW 2868   2.891   1.614   2.881 -0.0378  0.2086 -0.1160
  718SOL     OW 2869   2.696   1.434   1.336  0.3345 -0.2336 -0.2202
  718SOL    HW1 2870   2.689   1.446   1.428 -0.7412 -1.4803  0.4674
  718SOL    HW2 2871   2.721   1.341   1.328  1.6546  0.4518  0.2076
  718SOL     MW 2872   2.699   1.424   1.347  0.3668 -0.3077 -0.0730
  719SOL     OW 2873   2.213   1.270   0.605  0.4055 -0.3172  0.3021
  719SOL    HW1 2874   2.306   1.293   0.604 -1.5847 -1.7789  0.4376
  719SOL    HW2 2875   2.168   1.304   0.687 -0.1623 -0.7533  2.5291
  719SOL     MW 2876   2.219   1.278   0.616  0.0680 -0.5676  0.6138
  720SOL     OW 2877   2.798   1.188   0.059  0.4467  0.3536  0.3033
  720SOL    HW1 2878   2.795   1.105   0.114 -1.8189  3.0138  2.3322
  720SOL    HW2 2879   2.746   1.243   0.124  0.0986  1.2280 -1.5918
  720SOL     MW 2880   2.791   1.184   0.074  0.1018  0.8200  0.3210
  721SOL     OW 2881   2.474   0.830   1.366  0.9841 -0.3538  0.9683
  721SOL    HW1 2882   2.443   0.755   1.421 -1.1875  1.5432  0.0370
  721SOL    HW2 2883   2.552   0.857   1.414 -1.9580  0.0123  3.6371
  721SOL     MW 2884   2.480   0.824   1.379  0.3094 -0.0552  1.1975
  722SOL     OW 2885   2.598   1.108   0.425 -0.5371  0.0615 -0.0289
  722SOL    HW1 2886   2.546   1.171   0.479 -2.0054  2.6601 -2.6297
  722SOL    HW2 2887   2.673   1.104   0.483 -0.0884 -2.2605 -3.6010
  722SOL     MW 2888   2.601   1.116   0.440 -0.6716  0.0980 -0.8433
  723SOL     OW 2889   2.309   1.394   1.573 -0.3346  0.5742 -0.3822
  723SOL    HW1 2890   2.294   1.385   1.478 -0.1945 -0.8676  0.9575
  723SOL    HW2 2891   2.239   1.445   1.607 -1.0912  1.6633 -1.0919
  723SOL     MW 2892   2.298   1.399   1.565 -0.4159  0.5277 -0.2991
  724SOL     OW 2893   2.432   0.368   0.616  0.3478  0.4789  0.2263
  724SOL    HW1 2894   2.458   0.312   0.687 -0.9320 -0.1396  0.3644
  724SOL    HW2 2895   2.514   0.404   0.578 -1.0605 -0.3880 -0.9150
  724SOL     MW 2896   2.446   0.366   0.620 -0.0069  0.2829  0.0939
  725SOL     OW 2897   2.555   0.589   1.213  0.4367 -0.3494  0.1387
  725SOL    HW1 2898   2.648   0.596   1.228 -0.4626 -4.1576 -0.6622
  725SOL    HW2 2899   2.516   0.600   1.296  1.5487 -1.9108 -0.8162
  725SOL     MW 2900   2.562   0.591   1.226  0.4648 -1.0579 -0.0929
  726SOL     OW 2901   2.559   2.471   0.567 -0.2573  0.1970  0.2193
  726SOL    HW1 2902   2.533   2.528   0.496 -0.2233  0.0624 -0.2223
  726SOL    HW2 2903   2.492   2.465   0.638  1.7216 -2.1516  0.1586
  726SOL     MW 2904   2.547   2.478   0.567  0.0083 -0.1306  0.1531
  727SOL     OW 2905   2.887   0.336   1.708 -0.0242 -0.5909  0.2468
  727SOL    HW1 2906   2.839   0.319   1.623  1.3159  1.5462  1.6517
  727SOL    HW2 2907   2.816   0.328   1.773  3.2915  2.7944 -1.4337
  727SOL     MW 2908   2.871   0.333   1.705  0.5901  0.1377  0.2104
  728SOL     OW 2909   2.794   1.161   2.899 -0.6833 -0.2749  0.3840
  728SOL    HW1 2910   2.799   1.227   2.830  2.2128 -1.3904 -1.8634
  728SOL    HW2 2911   2.780   1.203   2.983 -0.2596 -0.5430 -0.3949
  728SOL     MW 2912   2.793   1.175   2.901 -0.2453 -0.4575 -0.0153
  729SOL     OW 2913   2.492   1.494   1.146  0.0162 -0.0602  0.4846
  729SOL    HW1 2914   2.582   1.471   1.183 -1.9071 -1.0392 -0.9113
  729SOL    HW2 2915   2.487   1.431   1.076  1.7621  0.0369 -0.2374
  729SOL     MW 2916   2.503   1.482   1.142 -0.0072 -0.1766  0.2051
  730SOL     OW 2917   2.274   1.186   0.177  0.7801  0.4425 -0.5931
  730SOL    HW1 2918   2.357   1.148   0.149 -2.8727 -0.9923 -0.4741
  730SOL    HW2 2919   2.296   1.268   0.219 -1.6829 -0.3086  4.7727
  730SOL     MW 2920   2.288   1.192   0.179 -0.0268  0.1541  0.1306
  731SOL     OW 2921   2.770   1.956   2.863  0.3304  0.6830  0.6105
  731SOL    HW1 2922   2.706   1.996   2.801  0.9097 -0.7147 -0.3731
  731SOL    HW2 2923   2.850   1.989   2.828 -0.3737 -0.8515  0.9995
  731SOL     MW 2924   2.772   1.966   2.850  0.3140  0.2961  0.5320
  732SOL     OW 2925   2.220   0.937   1.341  0.0800 -1.2395  0.1493
  732SOL    HW1 2926   2.189   0.926   1.431  0.0456  0.3301  0.9307
  732SOL    HW2 2927   2.312   0.902   1.336 -3.2363 -0.8661 -1.7004
  732SOL     MW 2928   2.228   0.931   1.352 -0.3621 -0.9831  0.0084
  733SOL     OW 2929   2.353   2.749   2.996 -0.0316  0.5161  0.1258
  733SOL    HW1 2930   2.266   2.766   2.965 -1.8517  2.0265  2.5499
  733SOL    HW2 2931   2.359   2.655   2.982  0.6087  1.0220 -0.0140
  733SOL     MW 2932   2.342   2.739   2.990 -0.1873  0.7821  0.4272
  734SOL     OW 2933   1.419   0.344   2.469  0.1382  0.1563 -0.5635
  734SOL    HW1 2934   1.415   0.306   2.555  1.8196 -1.3840 -3.1573
  734SOL    HW2 2935   1.483   0.290   2.423  0.5857 -0.4009  0.0178
  734SOL     MW 2936   1.427   0.332   2.474  0.4191 -0.1204 -0.8290
  735SOL     OW 2937   2.919   0.910   2.651 -0.0293  0.4657  0.2340
  735SOL    HW1 2938   2.915   0.815   2.646 -0.4008 -2.9696 -1.9176
  735SOL    HW2 2939   2.956   0.942   2.734  1.5473 -0.7231  0.3744
  735SOL     MW 2940   2.923   0.902   2.661  0.1297 -0.1444 -0.0314
  736SOL     OW 2941   0.095   0.582   2.516  0.3805  0.4693 -0.1774
  736SOL    HW1 2942   0.130   0.657   2.472 -0.7268 -1.1513 -2.0066
  736SOL    HW2 2943   0.087   0.517   2.444 -1.6945 -0.9757  1.4939
  736SOL     MW 2944   0.099   0.583   2.501 -0.0394  0.0648 -0.1982
  737SOL     OW 2945   2.931   0.633   2.588 -0.1272 -0.2575  0.3805
  737SOL    HW1 2946   2.870   0.606   2.524 -0.0474  1.2737  0.1507
  737SOL    HW2 2947   3.021   0.631   2.546  1.8289 -0.9300 -0.9909
  737SOL     MW 2948   2.935   0.629   2.574  0.1414 -0.1442  0.1692
  738SOL     OW 2949   0.123   0.578   1.908 -0.0072 -0.0956  0.3759
  738SOL    HW1 2950   0.169   0.573   1.991 -0.9096  1.7869  1.5650
  738SOL    HW2 2951   0.165   0.508   1.855  0.1165  0.2389 -1.1744
  738SOL     MW 2952   0.135   0.568   1.912 -0.1099  0.1969  0.3282
  739SOL     OW 2953   2.484   0.998   2.042  0.5733 -0.0370 -0.7579
  739SOL    HW1 2954   2.402   0.954   2.017 -1.3095 -0.5243 -0.0878
  739SOL    HW2 2955   2.521   1.000   1.955  0.7597 -0.7174 -1.1761
  739SOL     MW 2956   2.478   0.993   2.027  0.3494 -0.1911 -0.7246
  740SOL     OW 2957   0.243   1.721   2.959 -0.2970  0.7519 -0.0428
  740SOL    HW1 2958   0.171   1.653   2.967  0.5716  0.4483  2.0644
  740SOL    HW2 2959   0.330   1.684   2.988  2.2673  1.5518 -0.0744
  740SOL     MW 2960   0.245   1.707   2.964  0.1559  0.8174  0.2311
  741SOL     OW 2961   2.220   1.108   2.755 -0.5182 -0.4636  0.0204
  741SOL    HW1 2962   2.136   1.059   2.762  1.2833 -3.1994 -0.2053
  741SOL    HW2 2963   2.238   1.145   2.846  0.5194 -1.5259  0.8926
  741SOL     MW 2964   2.212   1.106   2.768 -0.1436 -0.9647  0.1057
  742SOL     OW 2965   1.533   1.238   2.213  0.4385 -0.6443 -0.0834
  742SOL    HW1 2966   1.541   1.146   2.188  0.6494 -0.4851 -1.0284
  742SOL    HW2 2967   1.574   1.245   2.305 -0.1974  1.5357  0.8649
  742SOL     MW 2968   1.540   1.226   2.222  0.3824 -0.3357 -0.0830
  743SOL     OW 2969   2.452   1.296   2.704  0.3332  0.0884  0.1188
  743SOL    HW1 2970   2.356   1.290   2.723  3.0455  1.0850 -0.4186
  743SOL    HW2 2971   2.486   1.215   2.733  1.1176 -1.2517  2.1518
  743SOL     MW 2972   2.444   1.285   2.710  0.7946  0.0431  0.3161
  744SOL     OW 2973   2.741   0.962   1.795 -0.1024 -1.0192  0.2267
  744SOL    HW1 2974   2.686   1.045   1.809  2.4007  4.5808 -1.0548
  744SOL    HW2 2975   2.710   0.942   1.705 -0.6630  0.9130  0.6924
  744SOL     MW 2976   2.730   0.970   1.785  0.1539 -0.0254  0.1191
  745SOL     OW 2977   1.700   0.470   2.475 -0.1727 -0.2752  0.4405
  745SOL    HW1 2978   1.705   0.468   2.378  2.0300  2.5014 -2.0509
  745SOL    HW2 2979   1.612   0.447   2.498 -1.0496  1.4450 -1.1404
  745SOL     MW 2980   1.689   0.467   2.465  0.0023  0.3181 -0.0968
  746SOL     OW 2981   1.561   1.437   1.579 -0.3232  0.5297 -0.0910
  746SOL    HW1 2982   1.653   1.445   1.599 -1.1612 -1.5152 -1.6983
  746SOL    HW2 2983   1.518   1.393   1.658  1.3565 -2.5251  0.8806
  746SOL     MW 2984   1.567   1.432   1.592 -0.2121 -0.1431 -0.1749
  747SOL     OW 2985   2.551   1.148   1.812 -0.1874 -0.8852 -0.0224
  747SOL    HW1 2986   2.454   1.131   1.790 -2.3492 -1.7429  0.9723
  747SOL    HW2 2987   2.558   1.227   1.875  0.1660 -0.2793  0.5816
  747SOL     MW 2988   2.539   1.156   1.817 -0.4260 -0.9184  0.1885
  748SOL     OW 2989   0.114   0.018   1.832 -0.4838 -0.5869  0.2280
  748SOL    HW1 2990   0.204   0.048   1.831  0.3002  1.4881  2.2385
  748SOL    HW2 2991   0.071   0.062   1.914 -0.6735 -1.6771  1.1347
  748SOL     MW 2992   0.120   0.028   1.843 -0.4054 -0.4570  0.6129
  749SOL     OW 2993   2.464   0.518   2.758  0.0323 -0.3046 -0.1210
  749SOL    HW1 2994   2.448   0.587   2.690  2.4463  2.1638  1.2811
  749SOL    HW2 2995   2.456   0.559   2.847 -0.8490 -2.1964 -1.2401
  749SOL     MW 2996   2.461   0.532   2.761  0.2345 -0.2286 -0.0837
  750SOL     OW 2997   2.023   3.089   2.003 -0.1031 -0.4085 -0.0218
  750SOL    HW1 2998   2.069   3.173   1.999 -0.5098 -1.7143  1.7993
  750SOL    HW2 2999   2.088   3.023   2.001  1.0945  0.0493  0.9239
  750SOL     MW 3000   2.038   3.091   2.002  0.0012 -0.5204  0.3433
  751SOL     OW 3001   0.060   0.401   2.302  0.0448  0.2667  0.2186
  751SOL    HW1 3002   0.002   0.330   2.333 -0.0430  2.1993 -2.0739
  751SOL    HW2 3003   0.139   0.352   2.291  0.8315  0.9812  0.0057
  751SOL     MW 3004   0.063   0.385   2.304  0.1370  0.6159 -0.1120
  752SOL     OW 3005   2.129   0.821   2.670  0.0087  0.4977  0.2861
  752SOL    HW1 3006   2.216   0.839   2.637  1.5564 -1.5829  3.4738
  752SOL    HW2 3007   2.128   0.845   2.764 -1.2078 -3.4018  0.2561
  752SOL     MW 3008   2.140   0.826   2.678  0.0524 -0.2913  0.7027
  753SOL     OW 3009   2.931   0.263   2.409  0.0351  0.1249  0.3805
  753SOL    HW1 3010   2.867   0.199   2.366 -1.5101 -1.3970 -2.3225
  753SOL    HW2 3011   2.886   0.348   2.408 -2.1614  2.1301 -1.9891
  753SOL     MW 3012   2.916   0.266   2.403 -0.4586  0.1886 -0.2888
  754SOL     OW 3013   2.259   2.983   2.589  0.3545 -0.2509  0.5106
  754SOL    HW1 3014   2.276   2.961   2.499  1.9651 -1.4277  0.9406
  754SOL    HW2 3015   2.319   2.926   2.639  1.4295  2.5801 -0.0209
  754SOL     MW 3016   2.269   2.973   2.583  0.7089 -0.0326  0.4972
  755SOL     OW 3017   2.717   1.521   2.500  0.0768 -0.1151  0.5285
  755SOL    HW1 3018   2.735   1.442   2.544  1.5334  2.9827  0.8277
  755SOL    HW2 3019   2.791   1.581   2.530  1.1101  1.3208 -2.0913
  755SOL     MW 3020   2.729   1.519   2.510  0.4053  0.4831  0.2223
  756SOL     OW 3021   2.281   1.288   2.975 -0.0654 -0.3670  0.4262
  756SOL    HW1 3022   2.326   1.370   2.986 -1.2138  1.1772 -2.0451
  756SOL    HW2 3023   2.346   1.224   3.011  3.2746  0.2973  0.5044
  756SOL     MW 3024   2.295   1.290   2.981  0.2238 -0.0756  0.1104
  757SOL     OW 3025   2.122   0.924   1.609 -0.4654  0.1800  0.1041
  757SOL    HW1 3026   2.150   0.832   1.621  0.8290  0.3258  1.9052
  757SOL    HW2 3027   2.032   0.921   1.570 -2.1522  0.9718  0.7791
  757SOL     MW 3028   2.114   0.911   1.605 -0.5172  0.3037  0.4308
  758SOL     OW 3029   2.190   1.774   2.613  0.0173 -0.2275  0.2308
  758SOL    HW1 3030   2.177   1.809   2.524  0.1775 -0.7814  0.1778
  758SOL    HW2 3031   2.284   1.769   2.631 -0.6565 -0.8478  2.1059
  758SOL     MW 3032   2.200   1.778   2.604 -0.0505 -0.3824  0.4712
  759SOL     OW 3033   1.609   1.356   2.709 -0.0527  0.5390 -0.2899
  759SOL    HW1 3034   1.604   1.440   2.654  1.8639 -1.2344 -0.3227
  759SOL    HW2 3035   1.672   1.382   2.780  0.5600  0.5941 -0.1315
  759SOL     MW 3036   1.616   1.371   2.711  0.2810  0.3123 -0.2733
  760SOL     OW 3037   2.576   2.004   2.682  0.3836  0.1157 -0.3742
  760SOL    HW1 3038   2.535   1.914   2.659 -2.3519  2.9745  0.3023
  760SOL    HW2 3039   2.568   2.061   2.608 -1.2169 -1.5863  0.8998
  760SOL     MW 3040   2.569   2.000   2.669 -0.1885  0.2683 -0.1169
  761SOL     OW 3041   2.139   0.431   2.480  0.1706  0.1459  0.2963
  761SOL    HW1 3042   2.054   0.392   2.484  2.4631 -2.8906  1.2350
  761SOL    HW2 3043   2.153   0.445   2.574  2.7364 -2.0993  2.2007
  761SOL     MW 3044   2.130   0.428   2.493  0.8116 -0.5510  0.6714
  762SOL     OW 3045   0.014   0.160   2.029  0.7829  0.2505  0.4479
  762SOL    HW1 3046  -0.006   0.121   2.114  0.9328  0.5574  0.0548
  762SOL    HW2 3047  -0.048   0.231   2.010  1.4902 -0.7883  0.1911
  762SOL     MW 3048   0.003   0.164   2.038  0.8960  0.1539  0.3622
  763SOL     OW 3049   2.435   1.075   2.301 -0.5802  0.2035  0.0271
  763SOL    HW1 3050   2.476   1.050   2.215 -0.4798 -0.5522 -1.1019
  763SOL    HW2 3051   2.484   1.152   2.327 -2.6800 -1.0459 -2.5189
  763SOL     MW 3052   2.447   1.082   2.293 -0.8440 -0.0611 -0.4578
  764SOL     OW 3053   0.441   0.289   2.788  0.1952  0.0950  0.3652
  764SOL    HW1 3054   0.363   0.253   2.756  2.9296  1.3853 -0.4604
  764SOL    HW2 3055   0.403   0.340   2.858 -0.3839  0.4876  0.3235
  764SOL     MW 3056   0.425   0.291   2.793  0.4796  0.3171  0.2508
  765SOL     OW 3057   2.761   0.084   2.280 -0.0498  0.0853 -0.2387
  765SOL    HW1 3058   2.694   0.067   2.211  1.9902 -0.9160 -0.4395
  765SOL    HW2 3059   2.804  -0.005   2.290  1.8484 -0.2922  0.5346
  765SOL     MW 3060   2.758   0.070   2.272  0.4698 -0.0966 -0.1632
  766SOL     OW 3061   1.873   3.006   2.219  0.0400 -0.2148  0.3326
  766SOL    HW1 3062   1.903   3.064   2.144  4.3789 -0.3034 -0.4032
  766SOL    HW2 3063   1.824   2.935   2.188  0.3571  1.9728  1.9146
  766SOL     MW 3064   1.871   3.005   2.205  0.6543  0.0621  0.4442
  767SOL     OW 3065   2.633   0.622   1.938  0.2019  0.0168 -0.4032
  767SOL    HW1 3066   2.662   0.700   1.986  0.7459 -0.2769  0.2046
  767SOL    HW2 3067   2.539   0.607   1.964  0.3627  1.5756  0.3752
  767SOL     MW 3068   2.624   0.630   1.948  0.2949  0.1838 -0.2203
  768SOL     OW 3069   0.028   1.549   2.960  0.0802 -0.6987 -0.6942
  768SOL    HW1 3070   0.011   1.509   3.045  2.4384 -2.1999 -2.8238
  768SOL    HW2 3071   0.056   1.474   2.901 -1.0310 -1.1830  1.5900
  768SOL     MW 3072   0.029   1.534   2.963  0.2448 -0.9606 -0.6738
  769SOL     OW 3073   2.348   0.697   2.289  0.2835 -0.4882 -0.7746
  769SOL    HW1 3074   2.266   0.657   2.310  1.9511 -0.8590 -0.3398
  769SOL    HW2 3075   2.382   0.647   2.214  1.1313  0.3629  0.9969
  769SOL     MW 3076   2.342   0.685   2.281  0.6154 -0.4249 -0.4835
  770SOL     OW 3077   0.096   1.612   2.594 -0.3205 -0.7048  0.0423
  770SOL    HW1 3078   0.000   1.611   2.579  0.3037  2.2077 -0.3895
  770SOL    HW2 3079   0.103   1.522   2.630 -0.6073  0.6570 -0.9154
  770SOL     MW 3080   0.084   1.600   2.597 -0.2760 -0.1409 -0.1410
  771SOL     OW 3081   2.956   0.626   1.929 -0.2920  0.1750  0.0734
  771SOL    HW1 3082   2.912   0.599   1.851  2.1196  0.0091  2.1471
  771SOL    HW2 3083   3.047   0.599   1.913 -0.2004 -0.9233  1.2961
  771SOL     MW 3084   2.962   0.619   1.917  0.0383  0.0082  0.5083
  772SOL     OW 3085   3.098   0.009   2.258  0.1910  0.0746  0.1668
  772SOL    HW1 3086   3.017  -0.027   2.287  2.4867 -0.0023 -0.3694
  772SOL    HW2 3087   3.146  -0.062   2.213 -0.1518  3.2732  3.5705
  772SOL     MW 3088   3.093  -0.005   2.256  0.4487  0.4864  0.5451
  773SOL     OW 3089   2.453   2.834   2.737 -0.1038  0.3858 -0.4680
  773SOL    HW1 3090   2.449   2.743   2.713  4.4553  0.6118 -0.7975
  773SOL    HW2 3091   2.424   2.823   2.828  0.0205 -0.3253  0.0391
  773SOL     MW 3092   2.448   2.820   2.746  0.5142  0.3218 -0.4446
  774SOL     OW 3093   2.291   1.158   1.734  0.2862 -0.0547  0.2314
  774SOL    HW1 3094   2.329   1.215   1.665  0.5168  3.9324  1.8036
  774SOL    HW2 3095   2.238   1.081   1.692 -0.9515 -0.0120 -0.5221
  774SOL     MW 3096   2.289   1.156   1.719  0.1533  0.4770  0.3394
  775SOL     OW 3097   2.321   2.918   2.333  0.0550  0.0242 -0.7224
  775SOL    HW1 3098   2.318   3.005   2.298 -4.0521 -1.2015  1.5159
  775SOL    HW2 3099   2.384   2.856   2.289  0.5760 -0.1791  0.1240
  775SOL     MW 3100   2.329   2.921   2.322 -0.4181 -0.1643 -0.3154
  776SOL     OW 3101   0.017   1.445   0.127  0.1111  0.2500  0.1197
  776SOL    HW1 3102   0.102   1.418   0.144 -2.4812  1.3155 -1.1419
  776SOL    HW2 3103  -0.018   1.357   0.110  0.0008  2.7972  2.1317
  776SOL     MW 3104   0.024   1.430   0.127 -0.2455  0.7267  0.2187
  777SOL     OW 3105   3.026   1.081   1.752 -0.3560 -0.0917  0.3724
  777SOL    HW1 3106   2.983   1.164   1.764 -1.1151  0.2440  2.7172
  777SOL    HW2 3107   2.955   1.018   1.759  1.2501  0.4357 -1.6042
  777SOL     MW 3108   3.011   1.084   1.754 -0.2443  0.0222  0.4210
  778SOL     OW 3109   2.909   0.407   2.752 -0.4046  0.0790  0.3695
  778SOL    HW1 3110   2.854   0.417   2.830  0.1468 -1.3439 -0.6420
  778SOL    HW2 3111   2.889   0.479   2.697  1.9328 -0.2565 -1.0770
  778SOL     MW 3112   2.899   0.417   2.755 -0.0235 -0.1530  0.0452
  779SOL     OW 3113   2.097   0.607   2.300  0.0665 -0.1049 -0.0553
  779SOL    HW1 3114   2.057   0.688   2.328 -3.2659  1.9243 -0.6410
  779SOL    HW2 3115   2.108   0.548   2.372 -3.6966 -1.6991  0.2336
  779SOL     MW 3116   2.093   0.610   2.313 -0.8696 -0.0475 -0.0945
  780SOL     OW 3117   0.207   0.141   2.757 -0.0788 -0.9319  0.7056
  780SOL    HW1 3118   0.158   0.191   2.819  1.2272  0.9153  0.5146
  780SOL    HW2 3119   0.158   0.138   2.677  1.3914  0.5897 -0.4416
  780SOL     MW 3120   0.194   0.147   2.754  0.2875 -0.4874  0.5291
  781SOL     OW 3121   3.053   1.326   2.515 -0.1470  0.6256  0.0852
  781SOL    HW1 3122   3.026   1.382   2.444  0.8052 -0.4862 -0.2332
  781SOL    HW2 3123   3.061   1.241   2.478  2.0385 -1.7142 -1.6580
  781SOL     MW 3124   3.051   1.322   2.501  0.2670  0.1702 -0.1868
  782SOL     OW 3125   0.728   1.543   3.075 -1.0113  0.6174  0.6218
  782SOL    HW1 3126   0.669   1.614   3.045 -1.2155  1.9962  2.7758
  782SOL    HW2 3127   0.700   1.518   3.159  0.1166  0.8344 -1.4392
  782SOL     MW 3128   0.716   1.549   3.082 -0.8894  0.8280  0.6341
  783SOL     OW 3129   2.716   0.475   2.420 -0.6043 -0.2343  0.0600
  783SOL    HW1 3130   2.681   0.466   2.329  0.8728  0.9208 -0.0807
  783SOL    HW2 3131   2.671   0.415   2.479  0.3505  2.1417  2.0964
  783SOL     MW 3132   2.706   0.466   2.416 -0.2834  0.2316  0.3101
  784SOL     OW 3133   0.258   0.888   2.886  0.6950  0.6035  0.1117
  784SOL    HW1 3134   0.233   0.965   2.934 -0.7478  0.6756 -0.4202
  784SOL    HW2 3135   0.309   0.920   2.815 -2.4817 -0.7113  3.4582
  784SOL     MW 3136   0.261   0.902   2.883  0.0855  0.4395  0.4830
  785SOL     OW 3137   0.424   0.500   2.189 -0.1970  0.2267  0.1526
  785SOL    HW1 3138   0.434   0.532   2.102  0.6180 -0.5818 -0.6347
  785SOL    HW2 3139   0.378   0.413   2.179 -1.5005  0.9205  0.3697
  785SOL     MW 3140   0.420   0.493   2.177 -0.2614  0.2116  0.0774
  786SOL     OW 3141   1.955   0.481   2.903 -0.5084  0.1687 -0.6104
  786SOL    HW1 3142   1.971   0.516   2.998 -2.3385  0.9653  1.6060
  786SOL    HW2 3143   2.034   0.515   2.854 -3.4129  0.5225  0.5454
  786SOL     MW 3144   1.968   0.490   2.909 -1.1331  0.3205 -0.1655
  787SOL     OW 3145   2.426   0.161   2.929  0.1993 -0.4594  0.6832
  787SOL    HW1 3146   2.502   0.112   2.882 -0.5948  0.6974  0.5884
  787SOL    HW2 3147   2.458   0.249   2.959  0.9596  0.6219  2.0687
  787SOL     MW 3148   2.440   0.166   2.926  0.1949 -0.1641  0.8535
  788SOL     OW 3149   2.876   2.956   2.362 -0.1939 -0.3239 -0.0563
  788SOL    HW1 3150   2.813   2.935   2.438 -0.2234 -1.5030  1.3141
  788SOL    HW2 3151   2.939   2.880   2.351 -2.0433 -1.7897  0.5228
  788SOL     MW 3152   2.876   2.943   2.370 -0.4418 -0.6729  0.2009
  789SOL     OW 3153   0.071   0.321   2.950  0.8594  0.1092 -0.3099
  789SOL    HW1 3154   0.000   0.262   2.975  0.4915 -0.4073  2.1905
  789SOL    HW2 3155   0.033   0.412   2.942  0.2798 -1.4120  2.0475
  789SOL     MW 3156   0.056   0.325   2.952  0.7344 -0.1597  0.3310
  790SOL     OW 3157   3.041   1.062   2.438 -0.0553 -0.2927  0.0783
  790SOL    HW1 3158   3.005   0.987   2.483 -1.5825  0.5602 -1.4104
  790SOL    HW2 3159   3.033   1.041   2.343  0.3659  0.6321 -2.4945
  790SOL     MW 3160   3.035   1.050   2.431 -0.2012 -0.0582 -0.4576
  791SOL     OW 3161   2.608   0.329   2.636  0.4119 -0.4474  0.3564
  791SOL    HW1 3162   2.539   0.389   2.672  2.4628  1.3444  1.8319
  791SOL    HW2 3163   2.678   0.326   2.698  0.1803  0.4318 -2.7445
  791SOL     MW 3164   2.608   0.337   2.649  0.6519 -0.0950  0.1419
  792SOL     OW 3165   2.356   0.270   2.375  0.3120 -0.0678 -0.3567
  792SOL    HW1 3166   2.297   0.320   2.437 -1.8879  1.3499 -1.3293
  792SOL    HW2 3167   2.402   0.202   2.432  0.0932  0.7373  0.5300
  792SOL     MW 3168   2.354   0.268   2.391 -0.0071  0.2254 -0.3680
  793SOL     OW 3169   1.846   1.074   1.980 -0.0365  0.3483 -0.2069
  793SOL    HW1 3170   1.828   1.089   1.893 -0.4724  0.5844  0.8332
  793SOL    HW2 3171   1.892   0.988   1.982  3.0013  0.0098  0.4289
  793SOL     MW 3172   1.849   1.064   1.969  0.3068  0.3348  0.0142
  794SOL     OW 3173   1.438   2.261   0.181  0.4422  0.1735  0.1352
  794SOL    HW1 3174   1.450   2.344   0.135 -0.5168 -2.8063  0.3051
  794SOL    HW2 3175   1.500   2.263   0.252  1.6768 -1.4447 -0.6451
  794SOL     MW 3176   1.448   2.272   0.184  0.4785 -0.4331  0.0547
  795SOL     OW 3177   2.357   0.965   2.557 -0.2647  0.2109  0.1186
  795SOL    HW1 3178   2.336   1.029   2.629 -0.2465  1.2075 -0.9300
  795SOL    HW2 3179   2.381   1.017   2.482 -2.8479 -3.2131  1.4931
  795SOL     MW 3180   2.357   0.980   2.557 -0.6031 -0.1093  0.1616
  796SOL     OW 3181   0.269   0.597   2.733 -0.3787 -0.3690  0.2735
  796SOL    HW1 3182   0.244   0.678   2.782 -1.3093  2.1825  0.4009
  796SOL    HW2 3183   0.202   0.591   2.660  0.5899  2.3292  0.2522
  796SOL     MW 3184   0.257   0.607   2.730 -0.3737  0.3237  0.2875
  797SOL     OW 3185   2.570   0.105   2.500 -0.3142 -0.6981  0.1577
  797SOL    HW1 3186   2.592   0.188   2.554  0.9545  3.2708  3.6916
  797SOL    HW2 3187   2.636   0.089   2.435 -1.1025  1.1337 -2.4647
  797SOL     MW 3188   2.581   0.114   2.499 -0.2508  0.0673  0.2780
  798SOL     OW 3189   2.332   0.059   2.202  0.2005 -0.3525 -0.7267
  798SOL    HW1 3190   2.341   0.121   2.278  0.6387 -0.4119 -0.5141
  798SOL    HW2 3191   2.419   0.049   2.160  3.3240 -1.7049 -1.7051
  798SOL     MW 3192   2.345   0.066   2.207  0.6704 -0.5388 -0.8277
  799SOL     OW 3193   2.457   2.924   0.132  0.0074 -0.3623  0.0035
  799SOL    HW1 3194   2.429   2.862   0.062 -1.7080  0.6221  0.8128
  799SOL    HW2 3195   2.396   2.999   0.122 -0.9620  0.0933  0.9220
  799SOL     MW 3196   2.445   2.925   0.122 -0.3468 -0.1723  0.2315
  800SOL     OW 3197   1.847   3.098   1.781 -0.6113 -0.5522  0.2782
  800SOL    HW1 3198   1.789   3.023   1.798  0.2362 -1.2989 -0.3973
  800SOL    HW2 3199   1.905   3.103   1.854 -0.9941 -1.0235 -0.5272
  800SOL     MW 3200   1.847   3.089   1.793 -0.5500 -0.7129  0.0828
  801SOL     OW 3201   2.798   1.270   2.639 -0.1285 -0.0728  0.5689
  801SOL    HW1 3202   2.790   1.186   2.606  0.9720  2.7205  0.6508
  801SOL    HW2 3203   2.890   1.295   2.628 -1.5177 -2.6596  0.3497
  801SOL     MW 3204   2.809   1.262   2.633 -0.1666 -0.0456  0.5508
  802SOL     OW 3205   2.582   1.542   2.821 -0.0108  0.0214 -0.4484
  802SOL    HW1 3206   2.545   1.465   2.771  0.8886  0.7756  1.6055
  802SOL    HW2 3207   2.672   1.549   2.793 -1.6835 -2.6267  0.9354
  802SOL     MW 3208   2.589   1.533   2.811 -0.1128 -0.2285  0.0052
  803SOL     OW 3209   2.290   1.400   1.999 -0.4625 -0.5002 -0.6407
  803SOL    HW1 3210   2.263   1.360   2.076 -1.4654  1.4361 -2.8287
  803SOL    HW2 3211   2.270   1.346   1.924 -0.9839  1.4756  0.2721
  803SOL     MW 3212   2.284   1.388   1.999 -0.6636  0.0160 -0.8089
  804SOL     OW 3213   2.268   0.054   0.046 -0.0657 -0.3417  0.4367
  804SOL    HW1 3214   2.187   0.111   0.049 -0.6220  0.1859 -1.1023
  804SOL    HW2 3215   2.339   0.108   0.008  1.6641 -0.3078 -0.0692
  804SOL     MW 3216   2.267   0.069   0.042  0.0892 -0.2676  0.1669
  805SOL     OW 3217   2.696   1.004   2.507  0.3572  0.1183 -0.3591
  805SOL    HW1 3218   2.636   0.943   2.467 -1.1390  1.2781 -0.4811
  805SOL    HW2 3219   2.768   0.953   2.540 -0.0873 -0.0531 -0.8637
  805SOL     MW 3220   2.698   0.989   2.506  0.1011  0.2487 -0.4418
  806SOL     OW 3221   2.545   0.391   2.215  0.5798 -0.0795 -0.1951
  806SOL    HW1 3222   2.478   0.352   2.274 -2.1661 -0.4965 -0.3868
  806SOL    HW2 3223   2.498   0.430   2.140 -1.6255 -0.0914  1.1161
  806SOL     MW 3224   2.530   0.391   2.213 -0.0735 -0.1361 -0.0474
  807SOL     OW 3225   0.049   1.161   2.110 -0.7689 -0.3386 -0.2321
  807SOL    HW1 3226   0.087   1.090   2.058  0.7578 -2.3573 -0.2832
  807SOL    HW2 3227  -0.047   1.132   2.100  0.8707 -4.1500  0.0541
  807SOL     MW 3228   0.041   1.148   2.102 -0.3511 -1.1079 -0.2011
  808SOL     OW 3229   2.569   3.085   2.760  0.1961  0.2260  0.8648
  808SOL    HW1 3230   2.547   2.991   2.747  0.2006 -0.0319 -2.2013
  808SOL    HW2 3231   2.576   3.116   2.665  0.3903  1.1495 -4.7857
  808SOL     MW 3232   2.567   3.077   2.746  0.2223  0.3138 -0.2853
  809SOL     OW 3233   2.569   1.277   2.411  0.2710 -0.0540 -0.1388
  809SOL    HW1 3234   2.611   1.238   2.492 -1.3952 -1.6518  2.2890
  809SOL    HW2 3235   2.636   1.283   2.347 -0.2703 -0.4083  0.6599
  809SOL     MW 3236   2.584   1.272   2.413 -0.0203 -0.3115  0.2869
  810SOL     OW 3237   2.260   1.305   2.232  0.5045  0.4076 -0.0269
  810SOL    HW1 3238   2.326   1.233   2.242  1.2168 -2.3504  1.6046
  810SOL    HW2 3239   2.179   1.251   2.228 -1.4069 -0.7519 -0.8222
  810SOL     MW 3240   2.258   1.288   2.233  0.3463 -0.1093  0.0835
  811SOL     OW 3241   1.556   0.136   2.270 -0.3083 -0.3731 -0.2058
  811SOL    HW1 3242   1.626   0.082   2.326  1.1151  0.8350  0.8002
  811SOL    HW2 3243   1.572   0.130   2.177  2.2880  2.2622  1.2285
  811SOL     MW 3244   1.567   0.128   2.265  0.2221  0.1340  0.1162
  812SOL     OW 3245   1.459   2.828   2.123 -0.2866 -0.6241 -0.2692
  812SOL    HW1 3246   1.555   2.832   2.096 -0.2423 -0.9456 -0.9008
  812SOL    HW2 3247   1.463   2.796   2.212  1.2915 -0.1438  1.1835
  812SOL     MW 3248   1.472   2.825   2.131 -0.0726 -0.6031 -0.1609
  813SOL     OW 3249   1.806   0.721   2.188 -0.7773 -0.5533 -0.0487
  813SOL    HW1 3250   1.808   0.630   2.223  0.6597  0.4050 -1.7331
  813SOL    HW2 3251   1.851   0.768   2.258  0.2256 -1.0988  0.4048
  813SOL     MW 3252   1.812   0.715   2.202 -0.4554 -0.4988 -0.2111
  814SOL     OW 3253   2.782   1.275   1.671  0.8914  0.4360  0.2206
  814SOL    HW1 3254   2.699   1.257   1.718  0.5530  0.1230 -0.7775
  814SOL    HW2 3255   2.748   1.239   1.587  0.0308 -0.4032  1.5156
  814SOL     MW 3256   2.767   1.268   1.666  0.7332  0.2840  0.2598
  815SOL     OW 3257   2.478   1.649   2.437 -0.2049 -0.0240  0.0651
  815SOL    HW1 3258   2.421   1.568   2.427 -2.4550 -2.5976  0.7475
  815SOL    HW2 3259   2.570   1.616   2.424  5.0137 -0.4968  0.5499
  815SOL     MW 3260   2.483   1.634   2.434  0.1868 -0.4259  0.2191
  816SOL     OW 3261   0.749   0.698   2.721  0.4694 -0.1333 -0.1874
  816SOL    HW1 3262   0.741   0.624   2.783  0.1299  2.8995  0.0713
  816SOL    HW2 3263   0.655   0.718   2.695 -1.1876 -0.5833 -0.7565
  816SOL     MW 3264   0.736   0.691   2.726  0.2060  0.2075 -0.2284
  817SOL     OW 3265   3.030   1.282   1.398  0.1611 -0.2040 -0.3308
  817SOL    HW1 3266   3.107   1.236   1.435 -0.3357  0.3124 -0.2369
  817SOL    HW2 3267   3.050   1.369   1.362 -0.9910 -0.7859 -1.2028
  817SOL     MW 3268   3.043   1.287   1.398 -0.0564 -0.2127 -0.4335
  818SOL     OW 3269   1.958   1.015   2.715 -0.0085 -0.7158  0.6174
  818SOL    HW1 3270   1.947   1.063   2.634  0.2600 -1.2284  1.2023
  818SOL    HW2 3271   2.000   0.929   2.688 -0.1002 -0.9015 -0.6043
  818SOL     MW 3272   1.962   1.010   2.701  0.0148 -0.8079  0.5334
  819SOL     OW 3273   1.894   0.279   2.458 -0.0926  0.1252  0.4457
  819SOL    HW1 3274   1.824   0.343   2.473  2.9430 -0.5575  1.2876
  819SOL    HW2 3275   1.934   0.257   2.549  0.0742 -1.0716  1.5131
  819SOL     MW 3276   1.890   0.284   2.472  0.3299 -0.1228  0.6976
  820SOL     OW 3277   2.461   1.749   2.674 -0.1506  0.4139  0.1869
  820SOL    HW1 3278   2.506   1.690   2.737  1.0399 -0.5296 -2.1833
  820SOL    HW2 3279   2.471   1.703   2.588  1.1990 -0.5372 -0.4712
  820SOL     MW 3280   2.468   1.735   2.671  0.1845  0.1639 -0.2126
  821SOL     OW 3281   2.565   1.349   1.993 -0.1286  0.1268  0.1458
  821SOL    HW1 3282   2.625   1.408   1.946 -0.1857  0.1177 -0.4263
  821SOL    HW2 3283   2.484   1.404   2.002  0.7722  1.9287  0.5516
  821SOL     MW 3284   2.562   1.364   1.988 -0.0173  0.3633  0.1238
  822SOL     OW 3285   2.820   2.597   1.484 -0.1396  0.3456 -0.0384
  822SOL    HW1 3286   2.833   2.641   1.567 -0.3224 -0.0818  1.3497
  822SOL    HW2 3287   2.777   2.659   1.423  2.3946 -0.4211  1.1899
  822SOL     MW 3288   2.816   2.611   1.487  0.1706  0.1881  0.3068
  823SOL     OW 3289   2.250   0.472   1.790 -0.2868 -0.3992 -0.2850
  823SOL    HW1 3290   2.324   0.428   1.745  1.0679 -0.0185 -1.1196
  823SOL    HW2 3291   2.180   0.410   1.791  0.4880  1.7533  2.6818
  823SOL     MW 3292   2.250   0.458   1.784 -0.0058 -0.0649 -0.0037
  824SOL     OW 3293   2.073   1.385   2.571  0.1524 -0.0752 -1.1427
  824SOL    HW1 3294   2.168   1.397   2.542  1.7553  0.6876  0.9099
  824SOL    HW2 3295   2.038   1.477   2.600 -2.0625  0.3875 -0.0978
  824SOL     MW 3296   2.081   1.399   2.571  0.0716  0.0865 -0.7340
  825SOL     OW 3297   2.087   2.576   0.284  0.6773 -0.4324  0.4330
  825SOL    HW1 3298   2.120   2.507   0.343  0.4956 -0.9393 -2.2873
  825SOL    HW2 3299   2.114   2.532   0.200  0.3143  0.5635 -0.2913
  825SOL     MW 3300   2.095   2.561   0.281  0.6054 -0.3678 -0.0215
  826SOL     OW 3301   1.944   2.342   0.539  0.0596 -0.9719  0.3533
  826SOL    HW1 3302   1.889   2.277   0.589 -1.7498 -0.8073 -0.4400
  826SOL    HW2 3303   1.906   2.429   0.569 -0.7039  2.3672 -0.6538
  826SOL     MW 3304   1.932   2.345   0.550 -0.2799 -0.5096  0.1158
  827SOL     OW 3305   1.967   2.184   0.847  0.6297 -0.0612 -0.3551
  827SOL    HW1 3306   1.918   2.263   0.825 -0.4967  0.8397  1.9357
  827SOL    HW2 3307   1.900   2.122   0.859  2.9705  0.4008  2.2887
  827SOL     MW 3308   1.951   2.187   0.846  0.7899  0.1186  0.2960
  828SOL     OW 3309   0.052   2.680   0.568 -0.0821 -0.2870 -0.7696
  828SOL    HW1 3310   0.146   2.676   0.565  0.6104  2.3179  3.6438
  828SOL    HW2 3311   0.025   2.726   0.486 -0.9076 -0.9319 -3.8196
  828SOL     MW 3312   0.061   2.685   0.557 -0.0996 -0.0284 -0.5897
  829SOL     OW 3313   2.993   2.931   1.258  0.0045  0.0242  0.2062
  829SOL    HW1 3314   2.916   2.929   1.206  1.9813 -0.3472 -3.1743
  829SOL    HW2 3315   3.025   2.842   1.245  0.8353  1.6884 -2.4794
  829SOL     MW 3316   2.987   2.919   1.249  0.3749  0.1948 -0.5942
  830SOL     OW 3317   2.504   2.865   2.039  0.0462  0.2732 -0.1674
  830SOL    HW1 3318   2.427   2.912   1.998 -0.6363  1.2652 -2.7370
  830SOL    HW2 3319   2.563   2.845   1.968 -0.3516  1.0157 -0.5901
  830SOL     MW 3320   2.502   2.869   2.024 -0.0963  0.5021 -0.5622
  831SOL     OW 3321   2.395   2.413   1.249 -0.6272  0.1592 -0.2938
  831SOL    HW1 3322   2.369   2.343   1.316  0.6683 -1.1770  1.1710
  831SOL    HW2 3323   2.487   2.393   1.224 -1.6614 -0.3344  0.2218
  831SOL     MW 3324   2.404   2.401   1.255 -0.5927 -0.0822 -0.0325
  832SOL     OW 3325   2.429   2.237   1.896  0.0937 -0.5896  0.0888
  832SOL    HW1 3326   2.432   2.333   1.933  1.0148  0.5023 -0.4720
  832SOL    HW2 3327   2.524   2.220   1.880  0.7981  1.7479 -0.1817
  832SOL     MW 3328   2.442   2.247   1.899  0.3082 -0.1371 -0.0209
  833SOL     OW 3329   1.775   2.446   0.931  0.1759  0.5358 -0.6896
  833SOL    HW1 3330   1.687   2.420   0.953 -1.3140 -1.2146  2.8689
  833SOL    HW2 3331   1.816   2.502   0.995  3.2531  2.2303  1.4667
  833SOL     MW 3332   1.769   2.450   0.943  0.3853  0.5285  0.0644
  834SOL     OW 3333   2.226   2.454   0.525 -0.0091 -0.2169 -0.3921
  834SOL    HW1 3334   2.186   2.375   0.561 -1.5846  2.5822  0.2990
  834SOL    HW2 3335   2.288   2.428   0.448  1.0034  1.0063 -2.1139
  834SOL     MW 3336   2.229   2.440   0.519 -0.0834  0.3138 -0.5281
  835SOL     OW 3337   1.851   2.578   0.682  0.4498  0.2412  0.2879
  835SOL    HW1 3338   1.817   2.520   0.763 -0.2733  1.3545  2.7721
  835SOL    HW2 3339   1.898   2.657   0.700  1.2312  0.0903  0.0445
  835SOL     MW 3340   1.852   2.580   0.695  0.4575  0.3682  0.5835
  836SOL     OW 3341   1.959   2.137   1.670  0.4830  0.3768 -0.0751
  836SOL    HW1 3342   2.050   2.114   1.676  0.3107 -0.9406 -1.6790
  836SOL    HW2 3343   1.943   2.227   1.701  1.0997 -0.0714  1.4395
  836SOL     MW 3344   1.969   2.146   1.675  0.5417  0.1438 -0.0869
  837SOL     OW 3345   2.087   0.188   0.709  0.1998  0.1914  0.1539
  837SOL    HW1 3346   1.989   0.200   0.688 -1.4519 -0.3082 -0.7079
  837SOL    HW2 3347   2.107   0.149   0.619 -0.7653  0.6610 -0.0640
  837SOL     MW 3348   2.077   0.184   0.695 -0.1454  0.1874  0.0114
  838SOL     OW 3349   2.911   2.028   0.910  0.3067 -0.6113  0.1801
  838SOL    HW1 3350   2.835   1.988   0.956 -1.0793 -0.2165 -2.5348
  838SOL    HW2 3351   2.942   1.972   0.840  1.2758  1.2370 -0.5083
  838SOL     MW 3352   2.905   2.016   0.907  0.2517 -0.3153 -0.2689
  839SOL     OW 3353   1.480   2.340   0.915 -0.2954  0.2248  0.0792
  839SOL    HW1 3354   1.450   2.422   0.957 -1.5134  1.2153 -2.5925
  839SOL    HW2 3355   1.508   2.280   0.988  1.1768 -0.6263  0.0859
  839SOL     MW 3356   1.480   2.343   0.930 -0.2619  0.2432 -0.2724
  840SOL     OW 3357   2.298   2.077   2.401  0.2884 -0.3270  0.2656
  840SOL    HW1 3358   2.260   2.150   2.346 -1.8202 -3.4409  0.1900
  840SOL    HW2 3359   2.343   2.139   2.452 -2.9367  1.3161  1.2805
  840SOL     MW 3360   2.299   2.094   2.401 -0.4153 -0.5210  0.3895
  841SOL     OW 3361   2.179   2.434   0.071 -0.1676 -0.0318 -0.6217
  841SOL    HW1 3362   2.229   2.453  -0.007 -1.8006  2.6623 -2.9361
  841SOL    HW2 3363   2.123   2.353   0.060  1.3693 -0.9203  0.5674
  841SOL     MW 3364   2.178   2.426   0.059 -0.1802  0.2064 -0.7702
  842SOL     OW 3365   2.677   2.001   1.572 -0.4287 -0.1999 -0.4469
  842SOL    HW1 3366   2.624   1.921   1.573  2.1574  0.4766  0.7398
  842SOL    HW2 3367   2.656   2.042   1.480  0.8892  4.9992 -2.5716
  842SOL     MW 3368   2.667   1.996   1.560  0.0864  0.5754 -0.5707
  843SOL     OW 3369   2.664   2.861   1.826 -0.0914  0.1540  0.2572
  843SOL    HW1 3370   2.723   2.789   1.819 -0.8067  1.9782 -2.3433
  843SOL    HW2 3371   2.590   2.836   1.771  0.5518 -3.3507 -1.5218
  843SOL     MW 3372   2.662   2.848   1.818 -0.1009 -0.0678 -0.3207
  844SOL     OW 3373   2.662   2.326   1.216  0.2073  0.6081 -0.6350
  844SOL    HW1 3374   2.693   2.345   1.128 -0.8399 -2.2106  1.7173
  844SOL    HW2 3375   2.727   2.360   1.277 -2.5085  1.2853  1.7296
  844SOL     MW 3376   2.674   2.333   1.212 -0.2892  0.3256 -0.0126
  845SOL     OW 3377   2.843   2.509   0.318 -0.1756  0.5064  0.4164
  845SOL    HW1 3378   2.791   2.425   0.328 -3.2510  4.2780  1.1228
  845SOL    HW2 3379   2.824   2.554   0.406 -3.9377 -0.3769  2.5544
  845SOL     MW 3380   2.833   2.504   0.331 -1.0777  0.8875  0.7917
  846SOL     OW 3381   1.529   2.829   0.835 -0.1976 -0.4341 -0.0052
  846SOL    HW1 3382   1.620   2.865   0.840 -0.6499 -1.6967  2.1003
  846SOL    HW2 3383   1.470   2.902   0.817 -1.7867 -2.9897 -0.0605
  846SOL     MW 3384   1.533   2.843   0.833 -0.4669 -0.9379  0.2653
  847SOL     OW 3385   2.515   1.956   0.177 -0.0325 -0.6484 -0.1773
  847SOL    HW1 3386   2.549   1.880   0.218  2.4590  1.6353  1.1523
  847SOL    HW2 3387   2.467   1.914   0.103  0.2195  1.9348  0.8613
  847SOL     MW 3388   2.513   1.940   0.173  0.3295 -0.0062  0.1351
  848SOL     OW 3389   2.562   2.103   1.353  0.6999 -0.1918 -0.0489
  848SOL    HW1 3390   2.612   2.171   1.311 -2.4073 -1.6095  2.5552
  848SOL    HW2 3391   2.558   2.034   1.288 -1.1566 -1.9531  1.1117
  848SOL     MW 3392   2.568   2.103   1.339  0.0450 -0.6113  0.4478
  849SOL     OW 3393   2.028   2.803   0.779  0.7600 -0.2801  0.2221
  849SOL    HW1 3394   2.052   2.737   0.850 -3.5314  0.6322  1.9620
  849SOL    HW2 3395   2.090   2.782   0.705  0.4953  0.4857 -1.5365
  849SOL     MW 3396   2.040   2.792   0.778  0.1588 -0.0587  0.2197
  850SOL     OW 3397   2.251   1.868   1.697 -0.3093 -0.6899 -0.3744
  850SOL    HW1 3398   2.184   1.843   1.629 -1.5379  0.0749  4.6630
  850SOL    HW2 3399   2.247   1.965   1.692  0.9020 -0.8949  1.5445
  850SOL     MW 3400   2.242   1.877   1.687 -0.3116 -0.6160  0.5434
  851SOL     OW 3401   2.359   2.350   0.312 -0.3128  0.1516 -0.2865
  851SOL    HW1 3402   2.321   2.369   0.229  0.5650 -0.3169 -0.9181
  851SOL    HW2 3403   2.447   2.305   0.298  2.6816  0.9768  1.0114
  851SOL     MW 3404   2.366   2.347   0.299  0.1981  0.1987 -0.1986
  852SOL     OW 3405   2.327   2.085   0.333 -0.7437  0.2572 -0.1585
  852SOL    HW1 3406   2.332   2.179   0.325 -0.1390 -1.2912  0.6504
  852SOL    HW2 3407   2.378   2.042   0.260  1.3919 -0.5643  2.5185
  852SOL     MW 3408   2.334   2.092   0.322 -0.3821 -0.0555  0.3014
  853SOL     OW 3409   2.467   2.500   1.961 -0.9424  0.0614 -0.1496
  853SOL    HW1 3410   2.486   2.531   1.872  2.4098 -0.7555 -0.6020
  853SOL    HW2 3411   2.555   2.482   1.996 -2.2590 -2.1485 -0.7773
  853SOL     MW 3412   2.481   2.502   1.954 -0.6738 -0.3380 -0.2921
  854SOL     OW 3413   2.871   2.263   0.782 -0.1183  0.6807 -0.0256
  854SOL    HW1 3414   2.778   2.244   0.760  0.4009 -0.9861 -1.9719
  854SOL    HW2 3415   2.890   2.173   0.827 -0.6563 -2.5773 -0.6350
  854SOL     MW 3416   2.861   2.249   0.785 -0.1208  0.0310 -0.3628
  855SOL     OW 3417   2.653   2.310   0.354 -0.2876  0.4133 -0.4934
  855SOL    HW1 3418   2.632   2.346   0.443 -2.2511  1.3387  1.3578
  855SOL    HW2 3419   2.687   2.224   0.373  1.0007 -0.7870  2.9247
  855SOL     MW 3420   2.655   2.303   0.368 -0.3767  0.3771  0.2018
  856SOL     OW 3421   2.150   1.925   0.201 -0.3086  0.8646  0.0289
  856SOL    HW1 3422   2.061   1.915   0.238  2.8478  0.5879  0.6375
  856SOL    HW2 3423   2.181   2.014   0.223  1.1036  2.0004 -0.5635
  856SOL     MW 3424   2.142   1.935   0.208  0.2942  0.9780  0.0311
  857SOL     OW 3425   2.483   1.983   0.556 -0.2448 -0.3689  0.0539
  857SOL    HW1 3426   2.450   2.019   0.469  0.4224  1.4300 -3.1854
  857SOL    HW2 3427   2.416   1.940   0.608  2.2130  2.6258  2.7580
  857SOL     MW 3428   2.470   1.982   0.551  0.1675  0.2636 -0.0167
  858SOL     OW 3429   2.869   2.651   1.756  0.0447  0.4497 -0.4439
  858SOL    HW1 3430   2.969   2.666   1.750  0.2824  2.7691  0.1516
  858SOL    HW2 3431   2.875   2.563   1.790 -2.1371  2.8149 -0.2537
  858SOL     MW 3432   2.883   2.641   1.760 -0.2118  1.0678 -0.3402
  859SOL     OW 3433   2.142   2.570   0.920  0.0258  0.2798 -0.5052
  859SOL    HW1 3434   2.114   2.497   0.971 -1.3043  1.8945 -0.9310
  859SOL    HW2 3435   2.176   2.530   0.841  2.7341  1.0124  0.2298
  859SOL     MW 3436   2.143   2.555   0.916  0.2076  0.5895 -0.4644
  860SOL     OW 3437   2.676   2.600   0.118  0.7477 -0.2685  0.3184
  860SOL    HW1 3438   2.721   2.569   0.203 -4.2414 -2.1863 -0.8984
  860SOL    HW2 3439   2.728   2.677   0.096 -1.2675 -1.2457 -0.5623
  860SOL     MW 3440   2.688   2.606   0.127 -0.1764 -0.6505  0.0416
  861SOL     OW 3441   1.605   2.164   1.099  0.5066  0.2657  0.3619
  861SOL    HW1 3442   1.619   2.250   1.144 -1.0296  1.9970  1.2497
  861SOL    HW2 3443   1.548   2.108   1.151  1.4599 -0.4890 -0.0836
  861SOL     MW 3444   1.600   2.168   1.111  0.4297  0.3946  0.4203
  862SOL     OW 3445   2.482   1.807   1.554  0.1604  0.1957 -0.1870
  862SOL    HW1 3446   2.405   1.836   1.607 -1.8840  1.4754 -1.9136
  862SOL    HW2 3447   2.451   1.819   1.464 -2.0200 -0.7740 -0.0655
  862SOL     MW 3448   2.467   1.813   1.549 -0.3970  0.2366 -0.3988
  863SOL     OW 3449   3.011   1.755   1.027 -0.3205 -0.1605 -0.0327
  863SOL    HW1 3450   3.100   1.757   1.070 -1.7143 -0.7078  0.4904
  863SOL    HW2 3451   2.961   1.817   1.080  1.1808 -1.8547  1.8690
  863SOL     MW 3452   3.016   1.763   1.039 -0.3064 -0.4563  0.2872
  864SOL     OW 3453   3.053   1.846   0.766  0.4833  0.1245  0.6045
  864SOL    HW1 3454   3.012   1.797   0.846 -1.3854  1.0317  2.2800
  864SOL    HW2 3455   3.042   1.795   0.682 -1.0040 -0.4696 -1.8662
  864SOL     MW 3456   3.046   1.833   0.766  0.0405  0.1658  0.4995
  865SOL     OW 3457   2.479   2.204   0.030 -0.0850 -0.0402  0.8818
  865SOL    HW1 3458   2.496   2.123   0.083 -3.2937 -2.5252 -4.2176
  865SOL    HW2 3459   2.467   2.164  -0.058  2.2739  2.5581  0.8899
  865SOL     MW 3460   2.479   2.188   0.025 -0.1971 -0.0253  0.2101
  866SOL     OW 3461   2.674   2.345   1.675  0.2679 -0.7182 -0.2452
  866SOL    HW1 3462   2.682   2.254   1.712 -0.5586  0.3112  1.6032
  866SOL    HW2 3463   2.719   2.336   1.583  0.5499 -0.3326 -1.3716
  866SOL     MW 3464   2.681   2.332   1.668  0.1960 -0.5315 -0.1499
  867SOL     OW 3465   0.040   2.707   1.782  0.2430 -0.4161  0.0332
  867SOL    HW1 3466   0.074   2.749   1.855  4.1234 -3.1899 -1.3421
  867SOL    HW2 3467   0.041   2.775   1.715 -0.3245 -1.8274 -0.4205
  867SOL     MW 3468   0.045   2.721   1.783  0.6801 -0.9683 -0.2081
  868SOL     OW 3469   2.775   2.643   0.541 -0.0559  0.8231  0.4020
  868SOL    HW1 3470   2.701   2.590   0.569  0.3326  0.2674 -1.0643
  868SOL    HW2 3471   2.746   2.705   0.475  2.8520 -0.0336 -0.6946
  868SOL     MW 3472   2.762   2.644   0.536  0.3790  0.6368  0.0639
  869SOL     OW 3473   2.060   2.311   1.061 -0.5490 -0.1546 -0.4627
  869SOL    HW1 3474   2.153   2.293   1.044  0.1779 -0.8048 -0.7183
  869SOL    HW2 3475   2.023   2.251   0.990  2.5308  0.1595 -1.7497
  869SOL     MW 3476   2.067   2.300   1.050 -0.0467 -0.1990 -0.6662
  870SOL     OW 3477   2.126   0.039   0.465 -0.1930 -0.7901  0.8073
  870SOL    HW1 3478   2.208   0.085   0.431 -0.6692  1.6397 -0.5776
  870SOL    HW2 3479   2.152  -0.056   0.459  1.7321 -0.5673  0.4090
  870SOL     MW 3480   2.140   0.033   0.460 -0.0019 -0.4401  0.5720
  871SOL     OW 3481   2.459   2.032   0.962 -0.5374 -0.1801  0.3627
  871SOL    HW1 3482   2.420   1.985   0.887  0.8544  1.8042  1.0936
  871SOL    HW2 3483   2.418   2.119   0.967  0.3550  1.5821 -3.0042
  871SOL     MW 3484   2.448   2.037   0.952 -0.2360  0.3143  0.0149
  872SOL     OW 3485   2.025   2.496   1.554  0.3650 -0.4614 -0.2196
  872SOL    HW1 3486   2.015   2.517   1.645 -1.8053  1.2261 -1.8139
  872SOL    HW2 3487   1.938   2.478   1.517  1.1046  1.0055 -0.0567
  872SOL     MW 3488   2.012   2.497   1.561  0.1762 -0.0452 -0.4085
  873SOL     OW 3489   2.904   2.039   1.962  0.0007  0.4348 -0.2043
  873SOL    HW1 3490   2.914   2.091   2.044 -0.2224 -1.7612  1.9907
  873SOL    HW2 3491   2.970   2.091   1.905  0.5732  1.7794 -1.5050
  873SOL     MW 3492   2.914   2.053   1.966  0.0468  0.3225 -0.0863
  874SOL     OW 3493   2.329   1.427   2.457  0.2423  0.1308  0.1021
  874SOL    HW1 3494   2.299   1.397   2.370 -2.4626  1.9628  0.2630
  874SOL    HW2 3495   2.408   1.371   2.470  0.9761 -1.1076  0.3200
  874SOL     MW 3496   2.335   1.416   2.447 -0.0178  0.2091  0.1521
  875SOL     OW 3497   2.335   2.293   1.010  0.2761  0.1335 -0.0674
  875SOL    HW1 3498   2.365   2.352   0.938 -0.6650 -2.8952 -2.4779
  875SOL    HW2 3499   2.335   2.351   1.089  1.2640  2.2802 -0.9313
  875SOL     MW 3500   2.339   2.308   1.011  0.2823  0.0172 -0.4995
  876SOL     OW 3501   3.058   2.293   1.316 -0.0273  0.2285  0.5323
  876SOL    HW1 3502   3.109   2.322   1.232 -1.5383  2.2272  1.3963
  876SOL    HW2 3503   3.103   2.338   1.392  1.6880 -2.0389  0.4695
  876SOL     MW 3504   3.071   2.303   1.315 -0.0004  0.1930  0.6380
  877SOL     OW 3505   0.014   2.782   0.310  0.0063  0.3423 -0.2296
  877SOL    HW1 3506   0.103   2.820   0.305  0.4228  0.1652  0.9026
  877SOL    HW2 3507  -0.006   2.728   0.232  1.0914  1.1833  0.3007
  877SOL     MW 3508   0.023   2.780   0.299  0.2044  0.4299 -0.0102
  878SOL     OW 3509   2.372   1.821   1.279 -0.2189 -0.4383 -0.4040
  878SOL    HW1 3510   2.303   1.754   1.269  1.9764  2.6644 -3.7650
  878SOL    HW2 3511   2.458   1.778   1.259  1.4630 -0.0184 -2.6971
  878SOL     MW 3512   2.374   1.807   1.275  0.2927  0.0265 -1.1500
  879SOL     OW 3513   2.750   2.447   0.974  0.1073 -0.0143  0.1908
  879SOL    HW1 3514   2.799   2.526   0.999 -0.2231 -2.7696  0.3432
  879SOL    HW2 3515   2.800   2.396   0.909  0.4542  0.4795 -1.7055
  879SOL     MW 3516   2.763   2.451   0.968  0.1094 -0.3127 -0.0393
  880SOL     OW 3517   2.618   2.161   0.735 -0.0293 -0.1079 -0.1565
  880SOL    HW1 3518   2.603   2.103   0.817 -0.9176  1.3801  2.1842
  880SOL    HW2 3519   2.557   2.121   0.671 -1.8874 -1.2819 -2.1808
  880SOL     MW 3520   2.608   2.148   0.737 -0.3917 -0.0665 -0.1147
  881SOL     OW 3521   2.945   2.714   0.748  0.8413 -0.6029 -0.1210
  881SOL    HW1 3522   2.886   2.685   0.679 -1.5317 -0.8893 -1.8747
  881SOL    HW2 3523   3.032   2.719   0.707 -2.1026  1.6781 -2.5054
  881SOL     MW 3524   2.949   2.711   0.733  0.1398 -0.3397 -0.6670
  882SOL     OW 3525   2.232   2.902   1.952  0.0495 -0.0115 -0.4190
  882SOL    HW1 3526   2.215   2.882   1.856 -0.4855  0.5820  2.7326
  882SOL    HW2 3527   2.218   2.813   1.997 -1.8548 -3.9790  2.0154
  882SOL     MW 3528   2.228   2.888   1.945 -0.2724 -0.4567  0.3180
  883SOL     OW 3529   2.316   2.199   1.401  0.1863  0.2668 -0.5463
  883SOL    HW1 3530   2.405   2.153   1.384  0.7207 -0.0381  0.2751
  883SOL    HW2 3531   2.254   2.159   1.336  2.1230 -3.1796 -1.5368
  883SOL     MW 3532   2.320   2.188   1.390  0.5124 -0.2282 -0.5686
  884SOL     OW 3533   1.946   1.780   1.064 -0.1292  0.8556  0.4668
  884SOL    HW1 3534   1.891   1.860   1.046 -2.0925  1.2138 -1.6142
  884SOL    HW2 3535   2.044   1.807   1.036  2.6131 -1.5722 -0.2985
  884SOL     MW 3536   1.952   1.794   1.058 -0.0264  0.5826  0.0913
  885SOL     OW 3537   2.886   2.403   1.836 -0.1420 -0.0156  0.0105
  885SOL    HW1 3538   2.956   2.339   1.816 -0.9686  0.4621 -2.9211
  885SOL    HW2 3539   2.818   2.376   1.778  0.1546 -1.5403  1.2758
  885SOL     MW 3540   2.886   2.391   1.826 -0.2120 -0.1537 -0.2094
  886SOL     OW 3541   2.816   2.338   1.452  0.5098  0.5815 -0.8286
  886SOL    HW1 3542   2.896   2.297   1.429  2.0922  1.1568 -1.6043
  886SOL    HW2 3543   2.842   2.435   1.470  0.4283  0.9201  2.8301
  886SOL     MW 3544   2.830   2.346   1.451  0.7078  0.7021 -0.4483
  887SOL     OW 3545   2.281   2.637   1.582 -0.0292  0.0873 -0.0614
  887SOL    HW1 3546   2.316   2.664   1.492 -1.1685 -1.3831 -2.2926
  887SOL    HW2 3547   2.202   2.588   1.560  0.3990  0.7806 -1.2353
  887SOL     MW 3548   2.275   2.634   1.567 -0.1230 -0.0152 -0.5107
  888SOL     OW 3549   1.878   2.121   1.391 -0.5586  0.4984  0.5492
  888SOL    HW1 3550   1.950   2.124   1.332 -0.5369 -0.2020  1.4808
  888SOL    HW2 3551   1.906   2.100   1.479 -1.6989 -0.2680  1.1368
  888SOL     MW 3552   1.891   2.119   1.395 -0.7062  0.3048  0.7496
  889SOL     OW 3553   2.324   2.033   2.068  0.4279  0.2250  0.2483
  889SOL    HW1 3554   2.378   1.975   2.128  0.7681  0.7258  0.1798
  889SOL    HW2 3555   2.385   2.087   2.015  0.9474 -1.0338 -0.4491
  889SOL     MW 3556   2.339   2.032   2.069  0.5413  0.1250  0.1472
  890SOL     OW 3557   0.049   2.364   0.137 -0.1774  0.7789 -0.2329
  890SOL    HW1 3558  -0.001   2.447   0.115  1.2877  1.3030  0.0931
  890SOL    HW2 3559   0.035   2.345   0.232 -1.2074 -1.8100 -1.3801
  890SOL     MW 3560   0.041   2.372   0.147 -0.1200  0.5065 -0.3412
  891SOL     OW 3561   3.051   2.009   1.294  0.2035  0.0329 -0.0299
  891SOL    HW1 3562   3.142   1.982   1.269  1.9402 -0.5021  1.7569
  891SOL    HW2 3563   3.047   2.100   1.300  0.7392 -2.0694  1.8212
  891SOL     MW 3564   3.063   2.017   1.291  0.5033 -0.3151  0.4501
  892SOL     OW 3565   2.449   2.311   2.750 -0.3128  0.0743  0.2694
  892SOL    HW1 3566   2.427   2.232   2.798  2.6971 -0.9999 -0.7503
  892SOL    HW2 3567   2.538   2.327   2.775  0.9923  2.0391 -1.2271
  892SOL     MW 3568   2.458   2.303   2.760  0.2565  0.1918 -0.0626
  893SOL     OW 3569   1.598   2.412   1.225 -0.0205  0.0076 -0.3124
  893SOL    HW1 3570   1.545   2.449   1.294 -0.4150 -2.4036 -1.8711
  893SOL    HW2 3571   1.685   2.448   1.240  0.0299 -0.4700 -0.8547
  893SOL     MW 3572   1.603   2.421   1.236 -0.0659 -0.3736 -0.5896
  894SOL     OW 3573   2.750   1.868   0.456  0.1795  0.2409  0.3642
  894SOL    HW1 3574   2.660   1.893   0.451 -1.4085  1.2049 -2.3629
  894SOL    HW2 3575   2.758   1.824   0.366  0.8972 -0.2177 -0.9066
  894SOL     MW 3576   2.739   1.866   0.444  0.0647  0.3076 -0.1633
  895SOL     OW 3577   2.132   2.103   1.240  0.4820  0.1199 -0.1273
  895SOL    HW1 3578   2.123   2.185   1.179 -1.0000  1.3332 -1.3815
  895SOL    HW2 3579   2.131   2.025   1.185  0.1699 -1.2667 -1.8409
  895SOL     MW 3580   2.131   2.103   1.225  0.2453  0.0970 -0.5188
  896SOL     OW 3581   2.316   2.812   1.097  0.0052  0.3546  0.6786
  896SOL    HW1 3582   2.317   2.780   1.183  0.5180  0.1892  0.8653
  896SOL    HW2 3583   2.249   2.775   1.052  0.9755 -1.2435 -0.2513
  896SOL     MW 3584   2.307   2.803   1.102  0.2009  0.1219  0.5806
  897SOL     OW 3585   3.056   3.014   3.084  0.4233  0.7467 -0.0451
  897SOL    HW1 3586   3.080   2.933   3.029  3.4350 -3.1745 -1.5852
  897SOL    HW2 3587   3.069   2.990   3.174  0.2385  2.7749 -0.6514
  897SOL     MW 3588   3.061   3.000   3.089  0.7962  0.4969 -0.3283
  898SOL     OW 3589   2.104   0.199   1.488  0.0962 -0.2174  0.6370
  898SOL    HW1 3590   2.080   0.108   1.502  0.9564 -0.3969 -1.6271
  898SOL    HW2 3591   2.097   0.212   1.394  1.2013  2.0938  2.6074
  898SOL     MW 3592   2.100   0.189   1.478  0.3555  0.0639  0.5982
  899SOL     OW 3593   2.921   2.975   0.642 -0.2636  0.0845  0.1128
  899SOL    HW1 3594   2.924   2.897   0.694 -0.9813 -1.0808  1.4865
  899SOL    HW2 3595   2.835   3.010   0.671  0.1704 -0.3824  1.4356
  899SOL     MW 3596   2.910   2.969   0.653 -0.3010 -0.1309  0.4686
  900SOL     OW 3597   0.069   2.400   1.099 -0.6603 -0.3011  1.0773
  900SOL    HW1 3598   0.023   2.481   1.091  0.9736 -0.7236 -0.1386
  900SOL    HW2 3599   0.050   2.344   1.020 -0.3063 -0.0488  0.1409
  900SOL     MW 3600   0.060   2.403   1.088 -0.3981 -0.3235  0.7933
  901SOL     OW 3601   1.735   2.840   1.762  0.4664  0.1151 -0.2762
  901SOL    HW1 3602   1.808   2.774   1.767 -2.0266  0.9263  1.8957
  901SOL    HW2 3603   1.681   2.820   1.682  2.5059 -0.4128 -1.2412
  901SOL     MW 3604   1.738   2.829   1.752  0.4065  0.1525 -0.1169
  902SOL     OW 3605   2.696   2.126   1.814 -0.3626 -0.1143  0.2259
  902SOL    HW1 3606   2.678   2.067   1.740  0.6991  0.9648  0.8989
  902SOL    HW2 3607   2.753   2.070   1.869 -2.8131  0.1800  1.5333
  902SOL     MW 3608   2.702   2.110   1.811 -0.5458  0.0669  0.4872
  903SOL     OW 3609   1.599   2.707   0.603  0.4279 -0.8282  0.7912
  903SOL    HW1 3610   1.686   2.674   0.612 -0.7062  2.4637 -0.3597
  903SOL    HW2 3611   1.579   2.764   0.677  0.3428  2.1930 -0.5458
  903SOL     MW 3612   1.608   2.711   0.614  0.2671  0.0048  0.4629
  904SOL     OW 3613   2.529   2.585   1.712 -0.0596 -0.0721 -0.0658
  904SOL    HW1 3614   2.447   2.577   1.665 -0.5649 -0.0278  0.6396
  904SOL    HW2 3615   2.570   2.504   1.694 -0.6705  1.0223 -1.1245
  904SOL     MW 3616   2.524   2.574   1.704 -0.2069  0.0782 -0.1124
  905SOL     OW 3617   2.285   2.519   2.141  0.3249 -0.6319 -0.5147
  905SOL    HW1 3618   2.342   2.503   2.065 -1.4583  2.1897  1.6105
  905SOL    HW2 3619   2.266   2.438   2.187  2.1977 -0.8377 -2.6082
  905SOL     MW 3620   2.290   2.506   2.137  0.3367 -0.2868 -0.5105
  906SOL     OW 3621   2.448   2.480   0.835  0.3738  0.2793 -0.7045
  906SOL    HW1 3622   2.529   2.464   0.881  1.0971  2.8276 -0.2121
  906SOL    HW2 3623   2.432   2.568   0.849  5.1990 -2.3193  1.2902
  906SOL     MW 3624   2.456   2.490   0.843  1.1059  0.2727 -0.3764
  907SOL     OW 3625   2.637   2.802   1.348  0.2555  0.2007 -0.2189
  907SOL    HW1 3626   2.672   2.851   1.419 -2.5399 -1.1646 -0.3505
  907SOL    HW2 3627   2.675   2.838   1.268  0.7707  0.2031  0.6232
  907SOL     MW 3628   2.647   2.813   1.347 -0.0454  0.0208 -0.1252
  908SOL     OW 3629   2.706   2.336   3.096 -0.0781  0.2960  0.2913
  908SOL    HW1 3630   2.627   2.290   3.126  1.9461  2.8423 -0.6112
  908SOL    HW2 3631   2.693   2.426   3.130 -1.1377 -1.2009  0.6786
  908SOL     MW 3632   2.694   2.342   3.105  0.0491  0.4345  0.2233
  909SOL     OW 3633   1.736   0.055   1.187  0.2557  0.1808  0.5348
  909SOL    HW1 3634   1.719   0.120   1.113  0.6890 -1.0110 -1.9828
  909SOL    HW2 3635   1.770   0.101   1.258 -1.3906 -3.4877  0.0169
  909SOL     MW 3636   1.738   0.070   1.187  0.0957 -0.4605  0.1343
  910SOL     OW 3637   2.257   1.811   0.409 -0.4229  0.0703 -0.1139
  910SOL    HW1 3638   2.222   1.722   0.411 -0.6880 -1.4318 -0.9734
  910SOL    HW2 3639   2.223   1.851   0.326  0.3376  1.3311 -0.3499
  910SOL     MW 3640   2.248   1.804   0.398 -0.3576  0.0385 -0.2584
  911SOL     OW 3641   2.258   2.153   1.670 -0.3451 -1.0041 -0.7236
  911SOL    HW1 3642   2.328   2.183   1.724  1.1270 -1.7762 -1.3327
  911SOL    HW2 3643   2.291   2.166   1.578 -0.3109  0.1748 -0.2220
  911SOL     MW 3644   2.271   2.159   1.665 -0.1464 -0.9505 -0.7378
  912SOL     OW 3645   2.936   1.919   1.534  0.6844 -0.0205 -0.1690
  912SOL    HW1 3646   2.985   1.938   1.445 -0.6315  0.1131 -1.8865
  912SOL    HW2 3647   2.851   1.971   1.534 -2.1023 -1.1116 -3.0060
  912SOL     MW 3648   2.931   1.929   1.522  0.1431 -0.1469 -0.7699
  913SOL     OW 3649   2.634   3.040   0.359  0.1630 -0.1042  0.0539
  913SOL    HW1 3650   2.718   2.986   0.353  1.3281  2.0777 -0.4016
  913SOL    HW2 3651   2.560   2.986   0.343 -2.4337  0.0644 -1.4120
  913SOL     MW 3652   2.635   3.026   0.356 -0.0259  0.2059 -0.1996
  914SOL     OW 3653   2.714   1.748   3.045  0.2851 -0.0710 -0.1764
  914SOL    HW1 3654   2.740   1.813   2.976  0.4320  2.5311 -1.2196
  914SOL    HW2 3655   2.634   1.710   3.014 -2.5798 -0.6064 -1.3058
  914SOL     MW 3656   2.707   1.751   3.032 -0.0735  0.2017 -0.4630
  915SOL     OW 3657   1.690   0.223   0.230 -0.3772 -0.4697  0.2035
  915SOL    HW1 3658   1.778   0.183   0.247  1.4090  0.3630  0.7123
  915SOL    HW2 3659   1.627   0.158   0.193 -0.9375  0.0441  2.4839
  915SOL     MW 3660   1.693   0.209   0.227 -0.2154 -0.2920  0.5715
  916SOL     OW 3661   1.820   2.118   1.925  0.3692  0.1281  0.8483
  916SOL    HW1 3662   1.851   2.207   1.909 -1.5995 -1.1892 -2.4152
  916SOL    HW2 3663   1.860   2.069   1.853  0.6580  1.3544  0.7498
  916SOL     MW 3664   1.830   2.123   1.913  0.1476  0.1161  0.4047
  917SOL     OW 3665   2.503   2.219   2.507 -0.7972 -0.5038  0.0217
  917SOL    HW1 3666   2.477   2.271   2.585  0.2215  0.1961  0.8050
  917SOL    HW2 3667   2.584   2.268   2.482 -0.2162 -0.5747  1.1868
  917SOL     MW 3668   2.511   2.232   2.514 -0.5862 -0.4208  0.2788
  918SOL     OW 3669   1.985   1.603   2.715 -0.1550  0.5682 -0.0900
  918SOL    HW1 3670   1.914   1.641   2.663  0.3899  0.0375  0.9344
  918SOL    HW2 3671   2.059   1.657   2.695 -1.5861 -0.5215 -1.0133
  918SOL     MW 3672   1.985   1.615   2.706 -0.2719  0.3544 -0.0766
  919SOL     OW 3673   3.075   2.330   2.262  0.2492  0.3173 -0.0923
  919SOL    HW1 3674   3.000   2.281   2.225  2.2975  0.6795  0.5483
  919SOL    HW2 3675   3.120   2.367   2.186 -1.1182 -0.2008  4.3756
  919SOL     MW 3676   3.071   2.329   2.247  0.3390  0.2967  0.5817
  920SOL     OW 3677   2.707   2.873   0.003 -0.1653  0.1669  0.0154
  920SOL    HW1 3678   2.633   2.910   0.051  0.8495  1.7818 -0.4499
  920SOL    HW2 3679   2.670   2.810  -0.069 -2.2861  0.7868 -1.3269
  920SOL     MW 3680   2.692   2.869  -0.000 -0.3112  0.4617 -0.2231
  921SOL     OW 3681   2.427   2.574   2.645 -0.2909  0.1588  0.1877
  921SOL    HW1 3682   2.499   2.576   2.590 -0.8952  2.3827  1.2766
  921SOL    HW2 3683   2.424   2.498   2.695  2.7015  3.0662 -0.5246
  921SOL     MW 3684   2.436   2.564   2.644  0.0242  0.8359  0.2374
  922SOL     OW 3685   2.022   2.851   0.292 -0.5359 -0.1886 -0.1296
  922SOL    HW1 3686   2.017   2.857   0.194 -0.0935  0.3192  0.2275
  922SOL    HW2 3687   2.031   2.756   0.306 -1.3388  1.8323  1.3603
  922SOL     MW 3688   2.023   2.839   0.281 -0.5835  0.1450  0.1141
  923SOL     OW 3689   2.161   2.849   1.693  0.5435 -0.0393  0.6842
  923SOL    HW1 3690   2.201   2.792   1.629  0.5469  0.3832  1.0327
  923SOL    HW2 3691   2.115   2.922   1.651  1.5652  0.6191  0.0172
  923SOL     MW 3692   2.160   2.851   1.679  0.6787  0.1033  0.6422
  924SOL     OW 3693   1.124   2.686   2.521 -0.1918  0.4096 -0.2082
  924SOL    HW1 3694   1.208   2.727   2.540  1.4642 -1.9609  2.1762
  924SOL    HW2 3695   1.139   2.620   2.586  1.2718  0.5845 -3.0540
  924SOL     MW 3696   1.137   2.682   2.532  0.2198  0.1199 -0.2691
  925SOL     OW 3697   3.061   0.180   2.628  0.4886 -0.2437 -0.7925
  925SOL    HW1 3698   3.009   0.195   2.547 -1.4578  0.3100  2.5733
  925SOL    HW2 3699   3.028   0.253   2.682 -0.9421  1.7576  0.6138
  925SOL     MW 3700   3.050   0.191   2.625  0.0430  0.0934 -0.1629
  926SOL     OW 3701   2.706   2.414   2.046  0.6021 -0.3589  0.4690
  926SOL    HW1 3702   2.762   2.477   2.091 -1.5007  1.8492 -2.9011
  926SOL    HW2 3703   2.761   2.391   1.966  0.9464  2.3753 -1.9419
  926SOL     MW 3704   2.720   2.419   2.041  0.3701  0.2932 -0.2937
  927SOL     OW 3705   2.340   0.119   0.314 -0.3121 -0.0100  0.0685
  927SOL    HW1 3706   2.429   0.138   0.325 -1.8756 -0.4942  0.4083
  927SOL    HW2 3707   2.327   0.084   0.221  0.3297 -0.7761  1.0841
  927SOL     MW 3708   2.350   0.117   0.303 -0.4337 -0.1749  0.2473
  928SOL     OW 3709   2.169   2.390   1.787  0.6383 -0.1249 -0.4305
  928SOL    HW1 3710   2.231   2.454   1.769 -3.1270 -0.9624 -4.1793
  928SOL    HW2 3711   2.200   2.314   1.739 -0.2096 -0.0982  0.7115
  928SOL     MW 3712   2.181   2.388   1.778  0.0296 -0.2318 -0.7745
  929SOL     OW 3713   2.754   2.359   2.450  0.0481 -0.6871 -0.0541
  929SOL    HW1 3714   2.811   2.344   2.373  2.5464 -1.1499  0.2817
  929SOL    HW2 3715   2.806   2.332   2.526 -0.0242 -0.5215  0.3014
  929SOL     MW 3716   2.769   2.354   2.450  0.3682 -0.7263  0.0371
  930SOL     OW 3717   2.011   2.854   2.742 -0.3007 -0.0547  0.0746
  930SOL    HW1 3718   2.045   2.765   2.765  1.9527 -1.6345 -0.1347
  930SOL    HW2 3719   2.089   2.910   2.737  1.8834  2.0446 -0.1515
  930SOL     MW 3720   2.026   2.849   2.744  0.2848  0.0138  0.0171
  931SOL     OW 3721   3.030   2.730   2.364 -0.2041 -0.4316  0.0898
  931SOL    HW1 3722   3.077   2.747   2.447  0.8623 -1.0239  0.1366
  931SOL    HW2 3723   3.099   2.733   2.292  1.0740 -0.8200  2.6793
  931SOL     MW 3724   3.045   2.733   2.366  0.1053 -0.5610  0.4376
  932SOL     OW 3725   2.912   1.950   2.543  0.5458 -0.3092 -0.7043
  932SOL    HW1 3726   3.000   1.983   2.527 -1.0252 -0.2617  0.8391
  932SOL    HW2 3727   2.855   1.987   2.473  0.6756  0.2842 -1.2231
  932SOL     MW 3728   2.916   1.959   2.531  0.3557 -0.2247 -0.5691
  933SOL     OW 3729   2.070   2.823   2.255  0.0335 -0.7590 -0.0418
  933SOL    HW1 3730   2.153   2.870   2.256  0.5928  2.4776  1.4960
  933SOL    HW2 3731   2.001   2.894   2.233 -4.7496 -1.3767 -0.7223
  933SOL     MW 3732   2.072   2.838   2.252 -0.5238 -0.4135  0.0713
  934SOL     OW 3733   2.028   2.724   2.508 -0.0685  0.7999 -0.8423
  934SOL    HW1 3734   2.024   2.794   2.575 -1.3741 -1.0864  2.7983
  934SOL    HW2 3735   2.036   2.764   2.419  0.1037 -0.9190 -1.3640
  934SOL     MW 3736   2.029   2.739   2.505 -0.2180  0.3242 -0.4308
  935SOL     OW 3737   2.693   1.517   1.826  0.0898  0.4677  0.5984
  935SOL    HW1 3738   2.775   1.524   1.785  0.1353  0.4511  1.5850
  935SOL    HW2 3739   2.626   1.522   1.765 -0.0200 -0.4843  1.3002
  935SOL     MW 3740   2.695   1.518   1.812  0.0813  0.3399  0.8212
  936SOL     OW 3741   3.007   2.215   3.071 -0.1745  0.3948  0.2567
  936SOL    HW1 3742   3.051   2.255   3.145 -1.5237 -1.0717  0.4475
  936SOL    HW2 3743   2.920   2.247   3.095 -0.7519  0.7134  1.3148
  936SOL     MW 3744   3.001   2.224   3.084 -0.4287  0.2433  0.4215
  937SOL     OW 3745   1.957   2.137   2.603  0.2156  0.1604  0.2541
  937SOL    HW1 3746   2.034   2.093   2.651  0.5115  2.4395  1.1942
  937SOL    HW2 3747   1.956   2.100   2.513 -0.7972 -2.1098 -0.7062
  937SOL     MW 3748   1.967   2.126   2.597  0.1210  0.1616  0.2514
  938SOL     OW 3749   2.302   1.794   1.966  0.0920  0.0428 -0.8720
  938SOL    HW1 3750   2.289   1.817   1.873  2.6526  1.6566  0.0327
  938SOL    HW2 3751   2.298   1.883   2.000 -0.7762  1.6423  0.2132
  938SOL     MW 3752   2.300   1.808   1.958  0.3153  0.4668 -0.6095
  939SOL     OW 3753   2.751   1.991   2.306  0.6438  0.0444 -0.3334
  939SOL    HW1 3754   2.780   1.907   2.273 -1.1190  2.0157 -1.1917
  939SOL    HW2 3755   2.649   1.979   2.287 -2.2644 -0.7851 -0.5406
  939SOL     MW 3756   2.741   1.978   2.299  0.0276  0.1951 -0.4740
  940SOL     OW 3757   2.277   0.171   2.698 -0.0432 -0.2061 -0.4971
  940SOL    HW1 3758   2.289   0.084   2.665 -1.3031 -0.5161  0.9519
  940SOL    HW2 3759   2.336   0.155   2.779  1.0473  1.4208  1.8371
  940SOL     MW 3760   2.287   0.158   2.704 -0.0655 -0.0324  0.0021
  941SOL     OW 3761   0.126   2.459   2.060 -0.3408  0.1736 -0.2165
  941SOL    HW1 3762   0.195   2.406   2.083 -1.6478  1.2388 -0.8616
  941SOL    HW2 3763   0.130   2.448   1.962  1.0225 -1.1610 -1.6849
  941SOL     MW 3764   0.135   2.450   2.050 -0.3334  0.1381 -0.4954
  942SOL     OW 3765   2.847   2.211   2.172 -0.9806  0.2583 -0.3164
  942SOL    HW1 3766   2.785   2.281   2.157 -0.2221  0.9194  0.5036
  942SOL    HW2 3767   2.806   2.144   2.221  2.1913  0.1291 -0.8328
  942SOL     MW 3768   2.833   2.211   2.176 -0.4620  0.3285 -0.2763
  943SOL     OW 3769   0.281   2.100   2.278 -0.0912 -0.5814 -0.0528
  943SOL    HW1 3770   0.236   2.134   2.351 -0.2520  0.3566 -0.8127
  943SOL    HW2 3771   0.372   2.089   2.311 -0.2715  1.0359 -1.5355
  943SOL     MW 3772   0.287   2.103   2.292 -0.1362 -0.2443 -0.3487
  944SOL     OW 3773   2.084   2.655   2.022  0.1613  0.1249 -0.5613
  944SOL    HW1 3774   2.147   2.593   2.051 -1.0992  0.5710 -1.2934
  944SOL    HW2 3775   2.059   2.714   2.098  0.8981  0.6787  0.7008
  944SOL     MW 3776   2.089   2.655   2.036  0.0922  0.2568 -0.4914
  945SOL     OW 3777   2.672   2.693   2.896  0.1966  0.3372 -0.2693
  945SOL    HW1 3778   2.640   2.608   2.869  0.5500 -0.9379 -1.2849
  945SOL    HW2 3779   2.700   2.728   2.812  1.8939 -0.9559  0.9823
  945SOL     MW 3780   2.672   2.686   2.881  0.4671 -0.0017 -0.2382
  946SOL     OW 3781   2.477   2.680   2.254  0.0123 -0.0786 -0.5365
  946SOL    HW1 3782   2.516   2.727   2.174 -0.4594 -0.7005  2.2420
  946SOL    HW2 3783   2.407   2.616   2.221 -0.1667 -2.1936 -3.7412
  946SOL     MW 3784   2.473   2.678   2.239 -0.0735 -0.4397 -0.5927
  947SOL     OW 3785   1.912   0.076   0.305  0.0039  0.3518 -0.3189
  947SOL    HW1 3786   1.887  -0.011   0.276 -0.7976 -3.5666 -1.6184
  947SOL    HW2 3787   1.980   0.060   0.374  1.8715  0.4997  0.0880
  947SOL     MW 3788   1.918   0.062   0.310  0.1445 -0.1456 -0.4367
  948SOL     OW 3789   1.792   3.028   2.709  0.0315  0.0316  0.1060
  948SOL    HW1 3790   1.858   2.956   2.720  0.5723 -0.4800  1.3750
  948SOL    HW2 3791   1.789   3.054   2.610  1.7532 -0.7752 -0.2781
  948SOL     MW 3792   1.801   3.022   2.697  0.3300 -0.1423  0.2228
  949SOL     OW 3793   2.476   1.921   2.267  0.3929  0.0498  0.1354
  949SOL    HW1 3794   2.498   1.831   2.290  0.5181 -3.0261 -1.5108
  949SOL    HW2 3795   2.416   1.956   2.334 -2.4351 -3.2142 -1.4494
  949SOL     MW 3796   2.471   1.913   2.279  0.0363 -0.7867 -0.2909
  950SOL     OW 3797   2.322   2.502   2.912  0.4514  0.1582 -0.0462
  950SOL    HW1 3798   2.338   2.423   2.861  0.8785  0.6624  0.0874
  950SOL    HW2 3799   2.239   2.541   2.869 -0.9953  0.5418 -1.6408
  950SOL     MW 3800   2.313   2.497   2.900  0.3169  0.2753 -0.2390
  951SOL     OW 3801   3.009   2.076   2.828  0.2665  0.2904  0.1433
  951SOL    HW1 3802   3.010   2.109   2.922 -2.8176  0.6660 -0.0984
  951SOL    HW2 3803   3.063   1.999   2.826  0.4058  2.0047 -0.0241
  951SOL     MW 3804   3.016   2.070   2.840 -0.1220  0.5661  0.0894
  952SOL     OW 3805   3.023   1.690   2.180 -0.1496 -0.0020  0.3310
  952SOL    HW1 3806   2.939   1.719   2.151  0.7396 -1.9478 -0.8955
  952SOL    HW2 3807   3.077   1.768   2.200 -1.0866  1.1600 -1.7444
  952SOL     MW 3808   3.019   1.704   2.179 -0.1559 -0.1054 -0.1046
  953SOL     OW 3809   1.895   1.766   2.907  0.0614  0.0670  0.1459
  953SOL    HW1 3810   1.821   1.721   2.955 -0.1237 -3.2449 -0.5561
  953SOL    HW2 3811   1.916   1.705   2.833  0.6703 -3.8401 -1.4108
  953SOL     MW 3812   1.888   1.752   2.903  0.1173 -0.8855 -0.1521
  954SOL     OW 3813   2.371   2.085   2.874 -0.5922 -0.0088 -0.6363
  954SOL    HW1 3814   2.298   2.040   2.840  2.2024  0.8113  1.2730
  954SOL    HW2 3815   2.454   2.030   2.849  1.9915  0.1474 -0.5795
  954SOL     MW 3816   2.372   2.072   2.866  0.1174  0.1201 -0.3769
  955SOL     OW 3817   1.563   1.576   2.562 -0.0094 -0.1926  0.1263
  955SOL    HW1 3818   1.552   1.586   2.468  1.6980  1.4371  2.0505
  955SOL    HW2 3819   1.628   1.649   2.577 -0.6053 -1.0315 -0.1092
  955SOL     MW 3820   1.570   1.587   2.552  0.1373 -0.0883  0.3491
  956SOL     OW 3821   2.686   2.417   2.832 -0.1420 -0.6833  0.6661
  956SOL    HW1 3822   2.698   2.384   2.924  0.6004  3.7596 -0.0352
  956SOL    HW2 3823   2.758   2.383   2.782  2.8534  1.9326 -2.5075
  956SOL     MW 3824   2.697   2.408   2.837  0.3512  0.2481  0.1548
  957SOL     OW 3825   2.304   2.834   0.390 -0.4148  0.3828  0.3483
  957SOL    HW1 3826   2.224   2.856   0.336  0.3337  1.8376 -1.4571
  957SOL    HW2 3827   2.268   2.783   0.470 -0.2426 -3.0145  1.6447
  957SOL     MW 3828   2.288   2.830   0.393 -0.2933  0.1265  0.2811
  958SOL     OW 3829   2.092   2.598   2.794  0.0332 -0.5823  0.0919
  958SOL    HW1 3830   2.051   2.533   2.734 -3.4511 -3.5940  1.9687
  958SOL    HW2 3831   2.029   2.590   2.871 -0.0420 -0.5175 -1.8702
  958SOL     MW 3832   2.079   2.589   2.796 -0.4364 -0.9711  0.0806
  959SOL     OW 3833   2.522   2.644   0.366  0.0957  0.3732  0.5121
  959SOL    HW1 3834   2.542   2.602   0.285 -2.1950 -2.9886 -0.3573
  959SOL    HW2 3835   2.445   2.698   0.345 -1.1009 -1.7111  1.5701
  959SOL     MW 3836   2.514   2.645   0.353 -0.3644 -0.3454  0.5370
  960SOL     OW 3837   1.920   2.297   2.296 -0.0917 -0.1399  0.4669
  960SOL    HW1 3838   1.935   2.205   2.305 -1.6420 -0.2214  1.6652
  960SOL    HW2 3839   1.869   2.334   2.364 -0.4540  1.7287 -1.5987
  960SOL     MW 3840   1.915   2.290   2.306 -0.3441  0.0959  0.3525
  961SOL     OW 3841   2.194   2.324   2.299 -0.6029 -0.0716 -0.3310
  961SOL    HW1 3842   2.100   2.324   2.290  0.5111 -0.1967  0.0589
  961SOL    HW2 3843   2.209   2.390   2.367  1.3909 -0.6799  2.1668
  961SOL     MW 3844   2.183   2.333   2.307 -0.1928 -0.1684  0.0500
  962SOL     OW 3845   2.140   1.990   2.763  0.1638 -0.1081  0.1779
  962SOL    HW1 3846   2.113   1.955   2.846  1.3705 -2.4959 -0.1506
  962SOL    HW2 3847   2.151   1.910   2.702 -0.9338  0.7138  0.6778
  962SOL     MW 3848   2.138   1.975   2.766  0.1782 -0.3147  0.2005
  963SOL     OW 3849   1.826   2.522   2.071 -0.2928 -0.9212  0.0844
  963SOL    HW1 3850   1.880   2.474   2.130 -0.7415  3.2641  0.3038
  963SOL    HW2 3851   1.859   2.487   1.986  2.5404 -0.1381 -0.4387
  963SOL     MW 3852   1.837   2.511   2.068  0.0218 -0.2657  0.0443
  964SOL     OW 3853   1.756   2.007   2.721  0.3446  0.1843 -0.0377
  964SOL    HW1 3854   1.829   2.052   2.675  0.2141 -0.7157  1.3447
  964SOL    HW2 3855   1.806   1.964   2.791  2.0750  0.1361 -3.3643
  964SOL     MW 3856   1.772   2.007   2.724  0.5557  0.0592 -0.2942
  965SOL     OW 3857   2.239   2.708   0.619 -0.0169 -0.6369  0.5989
  965SOL    HW1 3858   2.224   2.619   0.582 -0.4738 -0.6845 -0.3987
  965SOL    HW2 3859   2.306   2.707   0.690  0.5446  1.3301  0.7631
  965SOL     MW 3860   2.246   2.696   0.624 -0.0031 -0.3837  0.4889
  966SOL     OW 3861   2.646   2.628   2.463 -0.0140 -0.2440  0.3388
  966SOL    HW1 3862   2.577   2.654   2.393  1.4448 -0.5939  0.3624
  966SOL    HW2 3863   2.652   2.534   2.450  0.2108  2.9638 -0.4895
  966SOL     MW 3864   2.638   2.619   2.452  0.2081  0.1330  0.2326
  967SOL     OW 3865   2.782   3.088   2.950  0.0846  0.4378  0.5048
  967SOL    HW1 3866   2.773   3.008   3.002  1.4093  0.6207  0.9981
  967SOL    HW2 3867   2.709   3.076   2.892  1.6535 -0.3999  3.4794
  967SOL     MW 3868   2.771   3.076   2.949  0.4664  0.3514  0.9624
  968SOL     OW 3869   2.967   2.616   2.918  0.4865 -0.1696  0.4570
  968SOL    HW1 3870   2.869   2.621   2.917 -2.7678  0.3237  0.0691
  968SOL    HW2 3871   2.988   2.609   2.826 -0.8062  0.7953  0.8856
  968SOL     MW 3872   2.957   2.616   2.906 -0.1135  0.0228  0.4623
  969SOL     OW 3873   1.613   2.153   1.662 -0.1149 -0.4232  0.2210
  969SOL    HW1 3874   1.664   2.068   1.678 -0.7764 -1.1900 -0.3960
  969SOL    HW2 3875   1.582   2.173   1.752 -0.9563 -0.2165 -1.0890
  969SOL     MW 3876   1.615   2.144   1.676 -0.3132 -0.4971 -0.0333
  970SOL     OW 3877   1.694   1.782   1.959 -0.1812 -0.4477 -0.1822
  970SOL    HW1 3878   1.736   1.695   1.978 -1.3276  0.6809 -1.6417
  970SOL    HW2 3879   1.605   1.756   1.951  1.5977  2.4233  0.9196
  970SOL     MW 3880   1.687   1.767   1.961 -0.0977  0.0800 -0.2294
  971SOL     OW 3881   1.747   0.047   2.436  0.6420  0.6862 -0.0467
  971SOL    HW1 3882   1.790  -0.003   2.368  0.4111  0.7247  1.1734
  971SOL    HW2 3883   1.791   0.131   2.435 -1.8418  1.1318 -2.1539
  971SOL     MW 3884   1.758   0.052   2.427  0.2838  0.7501 -0.1638
  972SOL     OW 3885   0.270   2.870   2.468  0.0880 -0.3865 -0.5172
  972SOL    HW1 3886   0.334   2.817   2.516 -0.6780  0.9533  2.5922
  972SOL    HW2 3887   0.301   2.957   2.473  0.9862 -0.7946  0.3040
  972SOL     MW 3888   0.282   2.874   2.475  0.1054 -0.2635  0.0014
  973SOL     OW 3889   2.578   0.008   2.107  0.7330  0.4657  0.7006
  973SOL    HW1 3890   2.578  -0.087   2.080 -0.2464 -1.7458  1.0718
  973SOL    HW2 3891   2.592   0.053   2.020  1.3013 -0.8782 -0.7997
  973SOL     MW 3892   2.580   0.001   2.092  0.6787 -0.0034  0.5516
  974SOL     OW 3893   2.031   0.274   2.693 -0.2456  0.5995 -0.0047
  974SOL    HW1 3894   2.119   0.238   2.690  0.6744  1.5602  0.2726
  974SOL    HW2 3895   1.981   0.207   2.742  0.8086  1.7655 -0.3760
  974SOL     MW 3896   2.036   0.260   2.699  0.0149  0.8801 -0.0171
  975SOL     OW 3897   2.181   2.514   2.506 -0.4551  0.5201  0.2697
  975SOL    HW1 3898   2.254   2.543   2.557 -0.6121 -2.4154  1.8851
  975SOL    HW2 3899   2.134   2.597   2.486  0.2846  2.8286  1.2850
  975SOL     MW 3900   2.184   2.529   2.510 -0.3782  0.4374  0.6168
  976SOL     OW 3901   0.251   0.371   1.780  0.6710  0.9310 -0.2229
  976SOL    HW1 3902   0.308   0.309   1.816 -2.4113  0.8067  1.2084
  976SOL    HW2 3903   0.170   0.322   1.753  0.0828 -1.4926  1.2780
  976SOL     MW 3904   0.248   0.357   1.781  0.1867  0.5948  0.1639
  977SOL     OW 3905   1.761   2.683   2.551 -0.1425  0.0075 -0.0779
  977SOL    HW1 3906   1.743   2.591   2.535  0.6673  2.8773  0.1637
  977SOL    HW2 3907   1.854   2.695   2.527  1.5007 -2.6018 -1.4282
  977SOL     MW 3908   1.771   2.673   2.546  0.1812  0.0419 -0.2242
   3.10000   3.10000   3.10000
