977 TIP4P/2005f water molecules t=   0.94000 step= 940
 3908
    1SOL     OW    1   0.373   0.806   3.083  0.1513 -0.3783  0.1336
    1SOL    HW1    2   0.341   0.834   3.000 -2.3620  0.5702  4.0196
    1SOL    HW2    3   0.325   0.728   3.100  1.5340  1.6586  1.9051
    1SOL     MW    4   0.362   0.799   3.074  0.0021  0.0156  0.8800
    2SOL     OW    5   0.315   3.024   1.169 -0.1824 -0.1478  0.3815
    2SOL    HW1    6   0.391   3.078   1.154  1.3076  1.6915 -0.5686
    2SOL    HW2    7   0.228   3.070   1.167  0.2332  0.3981 -0.7318
    2SOL     MW    8   0.313   3.037   1.167  0.0690  0.1669  0.1093
    3SOL     OW    9   2.640   0.414   0.952 -0.0602  0.3021  0.1814
    3SOL    HW1   10   2.670   0.478   0.895  0.3097 -2.7519 -0.1570
    3SOL    HW2   11   2.624   0.460   1.045  1.3415  0.6886  2.9397
    3SOL     MW   12   2.642   0.428   0.957  0.1736 -0.0499  0.5007
    4SOL     OW   13   2.970   1.659   0.606 -1.2277 -0.0622 -0.0388
    4SOL    HW1   14   2.917   1.732   0.563 -0.4723 -1.0641 -1.2136
    4SOL    HW2   15   3.039   1.648   0.535  0.9386 -0.7860 -1.8809
    4SOL     MW   16   2.972   1.667   0.591 -0.8422 -0.2899 -0.4369
    5SOL     OW   17   1.753   1.511   0.514  0.6918 -0.1372  0.0059
    5SOL    HW1   18   1.780   1.433   0.565  1.2858  0.4154  1.2097
    5SOL    HW2   19   1.663   1.507   0.527  1.7283  0.1721 -2.0882
    5SOL     MW   20   1.744   1.500   0.522  0.9070 -0.0235 -0.1116
    6SOL     OW   21   0.803   1.436   0.606  0.3709  0.0909 -0.3352
    6SOL    HW1   22   0.707   1.430   0.621  1.6188 -0.3555  1.9615
    6SOL    HW2   23   0.828   1.350   0.630 -2.8658  0.8671  0.5728
    6SOL     MW   24   0.794   1.424   0.611  0.1085  0.1344  0.0876
    7SOL     OW   25   2.055   1.090   3.051  0.3436 -0.4820  0.5904
    7SOL    HW1   26   2.072   1.157   2.990 -1.7656 -2.7530  1.1368
    7SOL    HW2   27   2.089   1.119   3.134  0.6988 -0.6546 -0.5092
    7SOL     MW   28   2.062   1.102   3.054  0.1121 -0.8044  0.5174
    8SOL     OW   29   0.914   1.407   1.065  0.2142  0.1547  0.6264
    8SOL    HW1   30   1.013   1.401   1.060 -0.8789 -2.0474  0.2840
    8SOL    HW2   31   0.891   1.320   1.109 -0.3837 -0.5757  1.6698
    8SOL     MW   32   0.924   1.394   1.070 -0.0089 -0.2322  0.7189
    9SOL     OW   33   1.018   0.529   1.410 -0.1674  0.4661  0.1164
    9SOL    HW1   34   0.957   0.465   1.369 -2.0052 -1.5025 -0.2190
    9SOL    HW2   35   1.057   0.473   1.479  1.2394 -1.7059  0.1073
    9SOL     MW   36   1.015   0.513   1.413 -0.2243 -0.0802  0.0709
   10SOL     OW   37   0.242   0.771   0.454 -0.7276 -0.0352  0.2731
   10SOL    HW1   38   0.333   0.781   0.420 -1.0809  0.2533 -2.8623
   10SOL    HW2   39   0.236   0.810   0.543 -3.3108 -0.0990  1.8390
   10SOL     MW   40   0.253   0.777   0.461 -1.1151 -0.0056  0.0660
   11SOL     OW   41   0.808   1.146   1.733  0.2364 -0.1554 -0.2799
   11SOL    HW1   42   0.870   1.129   1.799 -1.3892  1.5715  3.1650
   11SOL    HW2   43   0.842   1.086   1.670 -0.2108  0.2869  1.5766
   11SOL     MW   44   0.820   1.135   1.734 -0.0371  0.1308  0.4195
   12SOL     OW   45   0.056   1.086   0.863 -0.5882 -0.3473  0.3421
   12SOL    HW1   46   0.103   1.146   0.925  1.3627  4.0029  1.1080
   12SOL    HW2   47  -0.010   1.142   0.817  1.8824  1.0287 -3.5118
   12SOL     MW   48   0.053   1.102   0.865 -0.0048  0.4082 -0.0653
   13SOL     OW   49   1.871   1.429   1.336  0.7007 -0.5863 -0.2239
   13SOL    HW1   50   1.917   1.372   1.276 -1.5764  0.6255  0.3113
   13SOL    HW2   51   1.872   1.516   1.297  0.2880 -0.9310 -1.1460
   13SOL     MW   52   1.877   1.433   1.323  0.3458 -0.4719 -0.2750
   14SOL     OW   53   0.641   0.417   1.879 -0.3412 -0.2876 -0.2846
   14SOL    HW1   54   0.581   0.344   1.889 -0.2391 -0.9665  3.6259
   14SOL    HW2   55   0.688   0.408   1.968  0.5128 -0.0442 -2.3852
   14SOL     MW   56   0.639   0.406   1.892 -0.2150 -0.3451 -0.0458
   15SOL     OW   57   1.942   0.353   1.003 -0.3406 -0.1348 -0.0580
   15SOL    HW1   58   1.957   0.411   1.078  1.3151 -2.0611  0.7714
   15SOL    HW2   59   1.999   0.399   0.938 -0.4704 -0.9827 -0.7283
   15SOL     MW   60   1.952   0.367   1.004 -0.1392 -0.5008 -0.0370
   16SOL     OW   61   0.187   1.811   0.320  0.4586 -0.3599 -0.0195
   16SOL    HW1   62   0.277   1.778   0.331  1.1878 -0.6605 -1.1190
   16SOL    HW2   63   0.195   1.898   0.357  1.7728 -2.5273  0.1316
   16SOL     MW   64   0.200   1.818   0.326  0.7282 -0.6855 -0.1446
   17SOL     OW   65   1.132   0.905   1.442 -0.4447 -0.1422 -0.5052
   17SOL    HW1   66   1.196   0.880   1.508  1.7164 -0.1025  0.7237
   17SOL    HW2   67   1.048   0.874   1.474  0.6648  1.4949 -2.4946
   17SOL     MW   68   1.130   0.898   1.455 -0.0131  0.0790 -0.6055
   18SOL     OW   69   0.041   1.586   0.409  0.0161  0.3851  0.0533
   18SOL    HW1   70   0.084   1.667   0.382  0.3503 -1.4045  1.0518
   18SOL    HW2   71   0.049   1.526   0.339  1.7295  0.0499 -1.2382
   18SOL     MW   72   0.047   1.588   0.396  0.2862  0.1048  0.0147
   19SOL     OW   73   0.108   1.298   1.023 -0.4792  0.0488 -0.0329
   19SOL    HW1   74   0.131   1.350   0.949  1.8623 -0.5792  0.6821
   19SOL    HW2   75   0.013   1.308   1.054 -2.0970 -1.1885  6.1711
   19SOL     MW   76   0.099   1.306   1.018 -0.3837 -0.1973  0.8800
   20SOL     OW   77   0.461   2.134   1.186  0.2009  0.6687  0.5306
   20SOL    HW1   78   0.410   2.068   1.137 -1.9329  0.0308 -0.4730
   20SOL    HW2   79   0.401   2.167   1.257  1.9953  0.1301 -1.2168
   20SOL     MW   80   0.446   2.130   1.189  0.1561  0.5135  0.1676
   21SOL     OW   81   0.493   0.834   0.379 -0.4366  0.0762  0.6336
   21SOL    HW1   82   0.572   0.819   0.432  1.8789  0.8621 -0.4067
   21SOL    HW2   83   0.520   0.797   0.298  1.3406  0.6587  2.1447
   21SOL     MW   84   0.507   0.827   0.375  0.1034  0.2567  0.6957
   22SOL     OW   85   1.559   0.701   1.051  0.7202 -0.6138 -0.7428
   22SOL    HW1   86   1.534   0.687   0.957  1.7016  1.5557  0.6611
   22SOL    HW2   87   1.513   0.786   1.071 -2.2498 -1.8556  1.4180
   22SOL     MW   88   1.550   0.710   1.041  0.4579 -0.4914 -0.2725
   23SOL     OW   89   0.006   0.765   0.659 -0.3632 -0.3278 -0.1461
   23SOL    HW1   90   0.024   0.701   0.730  1.2303  0.6989  1.3192
   23SOL    HW2   91   0.073   0.832   0.675  0.1205 -3.7312  2.2315
   23SOL     MW   92   0.017   0.766   0.671 -0.0892 -0.6414  0.3609
   24SOL     OW   93   1.993   2.226   0.074 -0.5094  0.3823 -0.5920
   24SOL    HW1   94   1.970   2.188   0.162 -0.6740 -0.8652  2.0806
   24SOL    HW2   95   2.009   2.155   0.009  0.0193  0.6656 -2.4268
   24SOL     MW   96   1.992   2.212   0.077 -0.4613  0.2551 -0.4815
   25SOL     OW   97   0.268   1.408   0.519 -0.2874 -0.0622  0.2322
   25SOL    HW1   98   0.198   1.467   0.496 -0.2051 -1.4711  1.6908
   25SOL    HW2   99   0.344   1.459   0.503  2.9363  0.8122  1.8217
   25SOL     MW  100   0.268   1.423   0.514  0.1488 -0.1327  0.6343
   26SOL     OW  101   2.040   0.992   0.347  0.3611  0.1625  0.2728
   26SOL    HW1  102   1.997   1.055   0.402  3.2402  0.2829 -2.4077
   26SOL    HW2  103   2.103   1.050   0.308 -0.4861 -1.0477 -1.8972
   26SOL     MW  104   2.043   1.008   0.349  0.6292  0.0187 -0.3672
   27SOL     OW  105   2.041   1.424   0.258 -0.1506  0.4711 -0.3941
   27SOL    HW1  106   1.956   1.410   0.299 -0.0702 -2.4543 -0.0009
   27SOL    HW2  107   2.076   1.498   0.308 -1.1114 -0.5794 -0.4904
   27SOL     MW  108   2.034   1.432   0.270 -0.2668 -0.0535 -0.3550
   28SOL     OW  109   0.447   0.980   1.978  0.5015 -0.2915 -0.2797
   28SOL    HW1  110   0.544   0.958   1.984 -0.6388  1.4615 -3.8080
   28SOL    HW2  111   0.391   0.908   1.992 -0.6032  3.5954 -2.4709
   28SOL     MW  112   0.452   0.968   1.981  0.2053  0.4526 -1.0344
   29SOL     OW  113   0.272   1.438   0.810  0.4596 -0.1234 -0.0042
   29SOL    HW1  114   0.224   1.524   0.812  0.0963 -0.3101  2.8287
   29SOL    HW2  115   0.278   1.420   0.718 -3.2841  1.9572 -0.6427
   29SOL     MW  116   0.267   1.447   0.798 -0.0823  0.1265  0.2853
   30SOL     OW  117   0.831   1.190   1.217 -0.3474  0.5235 -0.1960
   30SOL    HW1  118   0.751   1.215   1.256  1.4257  1.4400 -0.3388
   30SOL    HW2  119   0.889   1.166   1.293  2.8730 -1.0804  1.2775
   30SOL     MW  120   0.828   1.190   1.232  0.3114  0.4328 -0.0204
   31SOL     OW  121   0.388   0.150   0.194 -0.3312  0.9448  0.2117
   31SOL    HW1  122   0.397   0.073   0.249  0.4984 -1.3481 -0.4303
   31SOL    HW2  123   0.413   0.125   0.104  1.6484  3.6619  3.1204
   31SOL     MW  124   0.392   0.136   0.189  0.0394  1.0008  0.5108
   32SOL     OW  125   2.809   0.977   1.130 -0.2073 -0.0486  0.7015
   32SOL    HW1  126   2.743   0.912   1.123  0.4911 -2.3128 -0.4154
   32SOL    HW2  127   2.887   0.933   1.101  2.3811  0.5169  3.3832
   32SOL     MW  128   2.810   0.963   1.125  0.2264 -0.2727  0.9080
   33SOL     OW  129   1.752   1.292   0.325 -0.5405  0.2586 -0.0993
   33SOL    HW1  130   1.800   1.228   0.378  1.2008 -1.2062 -0.8974
   33SOL    HW2  131   1.735   1.360   0.389 -0.3865 -1.1526  0.6556
   33SOL     MW  132   1.756   1.293   0.341 -0.2904 -0.1209 -0.1050
   34SOL     OW  133   1.233   1.852   1.085  0.0259  0.1024  0.6813
   34SOL    HW1  134   1.150   1.899   1.088 -0.7591  1.9215 -0.3288
   34SOL    HW2  135   1.279   1.882   1.159 -0.2451 -1.9493  1.0513
   34SOL     MW  136   1.228   1.862   1.095 -0.1134  0.0717  0.5968
   35SOL     OW  137   0.430   0.220   1.820 -0.5597 -0.1207  0.0659
   35SOL    HW1  138   0.434   0.132   1.852  0.7284  0.5235 -1.9724
   35SOL    HW2  139   0.449   0.211   1.730  0.0527 -0.0175  0.3866
   35SOL     MW  140   0.433   0.207   1.812 -0.3090 -0.0221 -0.1608
   36SOL     OW  141   1.939   1.976   0.551 -0.1698 -0.2008  0.7515
   36SOL    HW1  142   1.941   1.985   0.455 -1.1556  1.9697  2.4282
   36SOL    HW2  143   1.963   1.878   0.557  0.2599  1.1566  0.7149
   36SOL     MW  144   1.942   1.964   0.539 -0.2432  0.2647  0.9679
   37SOL     OW  145   1.773   1.985   0.987 -0.5614 -0.7677  0.0917
   37SOL    HW1  146   1.730   1.921   0.923  0.8081 -2.0646 -1.5001
   37SOL    HW2  147   1.709   2.016   1.048 -1.7734 -0.1533 -0.8457
   37SOL     MW  148   1.759   1.980   0.987 -0.5406 -0.8578 -0.2420
   38SOL     OW  149   2.819   0.895   0.119 -0.3396 -0.4411  0.4273
   38SOL    HW1  150   2.824   0.878   0.213  0.0613  0.7388  1.6581
   38SOL    HW2  151   2.909   0.865   0.090 -0.6403  1.5768 -1.5692
   38SOL     MW  152   2.831   0.888   0.127 -0.3264 -0.0192  0.3263
   39SOL     OW  153   1.435   0.627   0.794 -0.0804  0.2877  0.2580
   39SOL    HW1  154   1.410   0.535   0.811 -2.1028 -0.3117  0.9386
   39SOL    HW2  155   1.345   0.666   0.779 -3.1903  0.7914 -2.1589
   39SOL     MW  156   1.420   0.620   0.795 -0.7576  0.2751  0.0289
   40SOL     OW  157   1.150   1.905   0.323 -0.2360 -0.3732 -0.1583
   40SOL    HW1  158   1.177   1.833   0.382 -0.6813  0.3560 -0.5704
   40SOL    HW2  159   1.143   1.991   0.368 -1.0710 -0.0593 -3.7770
   40SOL     MW  160   1.153   1.907   0.337 -0.4049 -0.2356 -0.6901
   41SOL     OW  161   0.549   0.568   1.652 -0.2777  0.0744  0.8729
   41SOL    HW1  162   0.628   0.620   1.658  0.5617 -0.4541  0.9061
   41SOL    HW2  163   0.580   0.498   1.702  1.9191  0.3694 -0.3603
   41SOL     MW  164   0.564   0.566   1.659  0.1229  0.0436  0.7146
   42SOL     OW  165   1.285   3.004   1.984 -0.3381  0.0714 -0.3638
   42SOL    HW1  166   1.201   2.996   2.027  1.0667  1.3357 -1.3877
   42SOL    HW2  167   1.351   2.976   2.051 -0.8149 -1.7034  0.5211
   42SOL     MW  168   1.283   2.999   1.999 -0.2157  0.0040 -0.3821
   43SOL     OW  169   1.552   0.123   1.704 -0.8680  0.3969  0.0907
   43SOL    HW1  170   1.602   0.065   1.647 -1.3933  2.7039  0.7492
   43SOL    HW2  171   1.467   0.079   1.725  0.1772  0.3167  2.3730
   43SOL     MW  172   1.547   0.110   1.699 -0.7994  0.6907  0.4787
   44SOL     OW  173   1.042   0.797   1.010 -0.0706 -0.1700  0.0751
   44SOL    HW1  174   1.080   0.877   0.974 -3.8955  0.9180 -1.5997
   44SOL    HW2  175   1.096   0.782   1.089  2.2705 -2.1525 -0.4425
   44SOL     MW  176   1.054   0.805   1.015 -0.2663 -0.2880 -0.2141
   45SOL     OW  177   1.219   0.764   0.662 -0.3778  0.1421 -0.2191
   45SOL    HW1  178   1.146   0.811   0.698  1.8392  1.6383  3.7660
   45SOL    HW2  179   1.186   0.703   0.600  0.0367 -0.3640 -0.5632
   45SOL     MW  180   1.205   0.762   0.659 -0.0306  0.2728  0.2613
   46SOL     OW  181   0.547   1.187   0.610  0.2557  0.4905 -0.6525
   46SOL    HW1  182   0.515   1.168   0.519  2.0373 -0.2075 -0.9662
   46SOL    HW2  183   0.634   1.146   0.604 -4.4571 -0.4502 -1.4245
   46SOL     MW  184   0.554   1.179   0.597 -0.1311  0.2743 -0.7958
   47SOL     OW  185   0.174   1.984   1.947  0.3528  0.2541  0.6867
   47SOL    HW1  186   0.261   1.953   1.974 -0.5644  0.4675  1.6797
   47SOL    HW2  187   0.133   1.987   2.030  2.0972 -1.7236 -0.1950
   47SOL     MW  188   0.180   1.980   1.961  0.4619  0.0213  0.7014
   48SOL     OW  189   1.076   0.515   0.980 -0.0445  0.6826  0.5404
   48SOL    HW1  190   0.986   0.482   0.971 -1.1369 -0.3105  1.6829
   48SOL    HW2  191   1.067   0.603   0.976  0.6800 -0.4255  0.5907
   48SOL     MW  192   1.063   0.522   0.978 -0.0930  0.4054  0.6978
   49SOL     OW  193   1.807   0.723   1.556 -0.5183 -0.0184 -0.0395
   49SOL    HW1  194   1.782   0.672   1.634  1.8843 -1.6520 -2.8052
   49SOL    HW2  195   1.886   0.678   1.525  0.5504  0.2533 -2.8706
   49SOL     MW  196   1.814   0.710   1.562 -0.0603 -0.1981 -0.7780
   50SOL     OW  197   1.271   1.058   0.508  0.4210 -0.0859 -0.4128
   50SOL    HW1  198   1.253   1.114   0.586 -1.7530  1.1363  2.2153
   50SOL    HW2  199   1.345   1.004   0.537  2.9536 -0.5309 -1.3503
   50SOL     MW  200   1.278   1.058   0.522  0.4683  0.0167 -0.1897
   51SOL     OW  201   0.316   2.891   0.915  0.9538 -0.0339  0.1910
   51SOL    HW1  202   0.393   2.834   0.935 -1.6936  0.5340 -2.9542
   51SOL    HW2  203   0.310   2.944   0.997 -1.4382  1.2718 -1.3341
   51SOL     MW  204   0.325   2.890   0.928  0.2889  0.2133 -0.4252
   52SOL     OW  205   0.793   1.801   0.469 -0.2590 -0.2464 -0.3270
   52SOL    HW1  206   0.757   1.893   0.476 -0.6081 -0.7016 -4.6086
   52SOL    HW2  207   0.745   1.753   0.404  1.9574 -0.8600 -0.5184
   52SOL     MW  208   0.782   1.807   0.462 -0.0126 -0.3874 -0.9172
   53SOL     OW  209   0.453   2.116   0.554  0.1791 -0.0083 -0.9936
   53SOL    HW1  210   0.376   2.093   0.495 -0.8770  2.5943  1.2087
   53SOL    HW2  211   0.442   2.209   0.573 -2.8396 -0.3513  0.9431
   53SOL     MW  212   0.441   2.125   0.549 -0.3585  0.2899 -0.4475
   54SOL     OW  213   2.036   0.945   0.800 -0.6507  0.2981 -0.3045
   54SOL    HW1  214   2.082   0.935   0.718 -0.8555 -0.2685  0.2660
   54SOL    HW2  215   1.971   0.875   0.809  0.6787 -1.5751  0.4458
   54SOL     MW  216   2.034   0.934   0.791 -0.5023 -0.0238 -0.1303
   55SOL     OW  217   0.524   1.562   1.625 -0.2619  0.4642 -0.6862
   55SOL    HW1  218   0.487   1.612   1.550  0.2960 -1.2263 -0.2964
   55SOL    HW2  219   0.574   1.495   1.581  2.5569 -1.0836  2.1376
   55SOL     MW  220   0.526   1.560   1.609  0.1836  0.0369 -0.2622
   56SOL     OW  221   0.600   0.785   0.125  0.4018 -0.1409  0.8530
   56SOL    HW1  222   0.643   0.868   0.103  1.5553  1.0431  0.6771
   56SOL    HW2  223   0.519   0.792   0.070  0.2060  1.5803 -0.5428
   56SOL     MW  224   0.595   0.797   0.115  0.5282  0.2425  0.6456
   57SOL     OW  225   1.167   1.274   1.122  0.0719  0.6482  0.6453
   57SOL    HW1  226   1.266   1.282   1.104  0.7301 -1.0961  0.8269
   57SOL    HW2  227   1.169   1.223   1.199  0.7551  0.8184 -0.9181
   57SOL     MW  228   1.181   1.268   1.130  0.2489  0.4405  0.4630
   58SOL     OW  229   0.564   1.166   1.341  0.3833 -0.0601  0.4619
   58SOL    HW1  230   0.501   1.240   1.318  2.3645  1.1778  1.2723
   58SOL    HW2  231   0.573   1.180   1.431 -0.1439 -1.4448  0.3470
   58SOL     MW  232   0.557   1.177   1.350  0.5751 -0.0795  0.5537
   59SOL     OW  233   1.552   1.715   0.357 -0.1642  0.2006  0.2131
   59SOL    HW1  234   1.592   1.773   0.426  1.7274  0.1636  0.9427
   59SOL    HW2  235   1.461   1.705   0.384  3.0522  0.0324 -0.0381
   59SOL     MW  236   1.545   1.722   0.369  0.5098  0.1735  0.2762
   60SOL     OW  237   0.068   0.213   1.578  0.1694  0.0170 -0.2484
   60SOL    HW1  238  -0.018   0.244   1.591  2.6641 -1.5823  2.5018
   60SOL    HW2  239   0.081   0.134   1.638 -1.6848 -1.4761  1.6714
   60SOL     MW  240   0.058   0.207   1.588  0.2539 -0.3911  0.3678
   61SOL     OW  241   2.043   1.496   3.087 -0.3775  0.0518  0.0566
   61SOL    HW1  242   2.015   1.484   3.180  0.0080 -0.0928 -0.0169
   61SOL    HW2  243   2.123   1.439   3.073 -0.8763 -2.2967  3.2792
   61SOL     MW  244   2.050   1.487   3.097 -0.3925 -0.2771  0.4721
   62SOL     OW  245   0.574   1.728   0.619 -0.8741 -0.5058 -0.1119
   62SOL    HW1  246   0.659   1.769   0.581  2.1797  1.0622 -0.1143
   62SOL    HW2  247   0.580   1.634   0.629  0.9884 -0.2448 -0.0706
   62SOL     MW  248   0.586   1.721   0.616 -0.2254 -0.2645 -0.1068
   63SOL     OW  249   1.705   0.686   0.701 -0.3856 -0.2011 -0.5564
   63SOL    HW1  250   1.718   0.771   0.653 -0.1313 -0.5668 -1.3990
   63SOL    HW2  251   1.610   0.673   0.718 -0.1436 -0.6884  1.4000
   63SOL     MW  252   1.694   0.695   0.697 -0.3201 -0.3136 -0.4095
   64SOL     OW  253   0.179   1.692   0.821  0.5762 -0.2532  0.4220
   64SOL    HW1  254   0.251   1.760   0.819 -2.1816  0.2932  0.0092
   64SOL    HW2  255   0.095   1.745   0.805  1.5088 -1.3539 -1.8259
   64SOL     MW  256   0.177   1.708   0.819  0.3354 -0.3263  0.0709
   65SOL     OW  257   1.601   2.292   0.394  0.3860  0.0076  0.3712
   65SOL    HW1  258   1.680   2.276   0.445  4.0845  2.5137 -2.7632
   65SOL    HW2  259   1.549   2.354   0.449 -1.3013 -0.8293  1.9956
   65SOL     MW  260   1.605   2.298   0.408  0.6514  0.2279  0.1720
   66SOL     OW  261   0.274   0.522   0.547 -0.1408  0.3805  0.5996
   66SOL    HW1  262   0.340   0.486   0.480  0.8572 -0.2493  0.3011
   66SOL    HW2  263   0.255   0.607   0.522 -1.0163 -0.1432  0.8116
   66SOL     MW  264   0.280   0.528   0.535 -0.1247  0.2283  0.5882
   67SOL     OW  265   1.543   0.064   2.036 -0.3559  0.2829 -0.1839
   67SOL    HW1  266   1.616   0.051   1.980 -1.2445 -0.1651  1.8592
   67SOL    HW2  267   1.528  -0.026   2.078  0.7347 -0.2679  0.0726
   67SOL     MW  268   1.551   0.050   2.034 -0.3292  0.1511  0.1195
   68SOL     OW  269   0.732   0.066   2.918  0.2246 -0.2333  0.0005
   68SOL    HW1  270   0.720   0.133   2.847 -1.6053 -2.2578 -1.6603
   68SOL    HW2  271   0.785   0.102   2.986 -2.2705 -0.0488 -1.1097
   68SOL     MW  272   0.737   0.080   2.917 -0.3460 -0.4760 -0.3651
   69SOL     OW  273   1.049   0.232   1.974  0.2908 -0.4101 -0.1946
   69SOL    HW1  274   1.137   0.258   1.994 -0.8906 -1.5711  0.0881
   69SOL    HW2  275   1.034   0.144   2.012  1.7915 -3.6496 -0.2116
   69SOL     MW  276   1.059   0.224   1.982  0.3329 -0.9907 -0.1595
   70SOL     OW  277   0.544   1.739   1.124  0.1274 -0.0075 -0.2506
   70SOL    HW1  278   0.569   1.753   1.217  2.5477  0.0216 -0.7452
   70SOL    HW2  279   0.623   1.765   1.082  0.1042  1.4392 -0.0955
   70SOL     MW  280   0.558   1.744   1.130  0.4437  0.1872 -0.2954
   71SOL     OW  281   1.583   0.491   1.244 -0.0160 -0.2735  0.1040
   71SOL    HW1  282   1.563   0.563   1.303  0.4200  0.1311  0.5926
   71SOL    HW2  283   1.575   0.534   1.158 -0.1095  0.7151  0.0082
   71SOL     MW  284   1.579   0.506   1.240  0.0292 -0.0897  0.1558
   72SOL     OW  285   0.747   1.840   0.956 -0.2088 -0.0525  0.2762
   72SOL    HW1  286   0.750   1.883   0.869  0.6866 -0.6502 -0.0037
   72SOL    HW2  287   0.763   1.744   0.933  0.5384 -2.4568 -2.7002
   72SOL     MW  288   0.749   1.833   0.941  0.0080 -0.4486 -0.1534
   73SOL     OW  289   1.200   0.703   1.265  0.2566 -0.5624 -0.4328
   73SOL    HW1  290   1.142   0.636   1.300  1.8256 -0.6731  0.4280
   73SOL    HW2  291   1.169   0.785   1.313  1.4985 -0.1916  2.3905
   73SOL     MW  292   1.188   0.705   1.276  0.6275 -0.5281  0.0533
   74SOL     OW  293   2.707   0.140   0.965 -0.2249  0.3634 -0.0312
   74SOL    HW1  294   2.791   0.134   0.918  2.1803  0.5277  0.1666
   74SOL    HW2  295   2.671   0.229   0.957  0.2181 -0.9325  0.3264
   74SOL     MW  296   2.713   0.151   0.957  0.1509  0.2141  0.0421
   75SOL     OW  297   1.617   1.392   0.109  0.1611  0.5721  0.4197
   75SOL    HW1  298   1.656   1.480   0.099  0.2617  0.7052  0.9650
   75SOL    HW2  299   1.672   1.353   0.180 -1.3606  3.5912  0.3508
   75SOL     MW  300   1.629   1.399   0.117 -0.0264  0.9880  0.4825
   76SOL     OW  301   2.981   0.564   0.479 -0.5672 -0.3716 -0.1867
   76SOL    HW1  302   3.040   0.611   0.539  0.3880 -0.2032 -0.1870
   76SOL    HW2  303   3.044   0.506   0.427 -0.6802 -3.1559  1.6401
   76SOL     MW  304   2.997   0.563   0.480 -0.4561 -0.7168  0.0543
   77SOL     OW  305   0.814   0.541   0.474  0.0855  0.3004  0.2005
   77SOL    HW1  306   0.794   0.555   0.379 -0.3924 -0.1137 -0.6060
   77SOL    HW2  307   0.753   0.475   0.501  1.6312  1.5370 -0.8956
   77SOL     MW  308   0.803   0.534   0.465  0.2264  0.4089 -0.0505
   78SOL     OW  309   0.728   0.898   1.293  0.0965 -0.3455 -0.2605
   78SOL    HW1  310   0.678   0.979   1.272 -0.5112  1.3062 -2.2406
   78SOL    HW2  311   0.691   0.838   1.225  1.9238  1.0816 -0.9934
   78SOL     MW  312   0.716   0.901   1.281  0.2574  0.0607 -0.6184
   79SOL     OW  313   1.963   1.686   0.596 -0.0144  0.3883  0.0140
   79SOL    HW1  314   1.888   1.644   0.549  0.7257 -0.7167 -0.2333
   79SOL    HW2  315   1.950   1.656   0.690 -2.8037 -1.9124 -0.8204
   79SOL     MW  316   1.951   1.676   0.603 -0.2847 -0.0610 -0.1287
   80SOL     OW  317   0.085   0.948   0.329  0.0787  0.5079 -0.2143
   80SOL    HW1  318  -0.003   0.907   0.353  0.0990  0.0099 -1.9741
   80SOL    HW2  319   0.147   0.891   0.376 -0.3838 -0.8193  1.8287
   80SOL     MW  320   0.082   0.935   0.338  0.0204  0.2671 -0.1770
   81SOL     OW  321   1.911   1.876   0.277 -0.3320 -0.4293  0.2472
   81SOL    HW1  322   1.886   1.791   0.237 -1.8960 -0.2371 -0.4482
   81SOL    HW2  323   1.842   1.940   0.252 -3.0418  0.5944 -2.0528
   81SOL     MW  324   1.898   1.873   0.268 -0.8959 -0.2688 -0.1481
   82SOL     OW  325   0.782   1.014   0.559 -0.3054  0.1246  0.2970
   82SOL    HW1  326   0.797   1.026   0.457 -1.4773  1.8166  0.7751
   82SOL    HW2  327   0.758   0.922   0.560 -1.9502  1.0269 -0.6452
   82SOL     MW  328   0.781   1.003   0.546 -0.6771  0.4669  0.2358
   83SOL     OW  329   0.062   0.637   1.453 -0.2206 -0.4017 -0.0950
   83SOL    HW1  330   0.101   0.692   1.377 -1.2052  0.0227  0.5050
   83SOL    HW2  331   0.137   0.589   1.494  1.7252 -1.6817 -1.7398
   83SOL     MW  332   0.077   0.638   1.449 -0.0938 -0.5146 -0.2329
   84SOL     OW  333   0.115   0.239   1.027 -0.0738 -0.4972  0.2661
   84SOL    HW1  334   0.029   0.281   1.010  3.4264  0.1354 -0.8970
   84SOL    HW2  335   0.106   0.193   1.111 -2.6554  1.2923  1.0832
   84SOL     MW  336   0.102   0.239   1.036  0.0474 -0.1776  0.2204
   85SOL     OW  337   0.473   0.441   0.739  0.3486 -0.3148  0.8133
   85SOL    HW1  338   0.404   0.472   0.679 -0.9522  1.2363 -1.6343
   85SOL    HW2  339   0.432   0.360   0.778 -0.8701 -0.4867  0.6139
   85SOL     MW  340   0.459   0.435   0.736  0.0162 -0.1328  0.4641
   86SOL     OW  341   1.172   0.259   1.136  0.2267 -0.2124  0.4116
   86SOL    HW1  342   1.128   0.336   1.098 -2.3275  0.5478 -0.6689
   86SOL    HW2  343   1.230   0.303   1.198  2.1110  0.4022 -3.3821
   86SOL     MW  344   1.174   0.275   1.139  0.1383 -0.0310 -0.2315
   87SOL     OW  345   1.280   1.475   1.314  0.2325  0.0078 -0.4215
   87SOL    HW1  346   1.288   1.529   1.233 -0.2271 -1.1429 -2.4392
   87SOL    HW2  347   1.243   1.397   1.279  0.4932  1.8411  0.1287
   87SOL     MW  348   1.276   1.472   1.298  0.2063  0.0978 -0.6151
   88SOL     OW  349   1.184   1.032   0.981  0.0439  0.4739 -0.0293
   88SOL    HW1  350   1.280   1.033   0.980 -0.4783  1.3033 -0.5252
   88SOL    HW2  351   1.150   1.098   1.042 -0.1670 -1.9142 -1.9635
   88SOL     MW  352   1.193   1.041   0.989 -0.0528  0.2683 -0.3499
   89SOL     OW  353   1.749   0.712   0.361 -0.6046  0.2991 -0.0924
   89SOL    HW1  354   1.761   0.614   0.367  1.4709  0.7661 -2.3299
   89SOL    HW2  355   1.813   0.733   0.292  1.1342  1.4870  0.3549
   89SOL     MW  356   1.759   0.702   0.352 -0.1013  0.5175 -0.3286
   90SOL     OW  357   0.757   1.134   2.729  0.6333 -0.4250 -0.4470
   90SOL    HW1  358   0.800   1.065   2.775 -2.8427 -2.0357  3.8295
   90SOL    HW2  359   0.779   1.199   2.791  3.7258  0.6221  1.6813
   90SOL     MW  360   0.765   1.134   2.743  0.5827 -0.4994  0.3981
   91SOL     OW  361   2.200   0.669   0.435  0.5901 -0.0561  0.2590
   91SOL    HW1  362   2.272   0.712   0.389 -1.3710  0.4831 -1.0713
   91SOL    HW2  363   2.204   0.576   0.420 -0.1109 -0.7962  0.1222
   91SOL     MW  364   2.210   0.662   0.427  0.2389 -0.0826  0.0654
   92SOL     OW  365   1.721   0.902   0.563  0.0398  0.1139  0.1371
   92SOL    HW1  366   1.625   0.895   0.596  2.2077 -1.0296  2.5929
   92SOL    HW2  367   1.723   0.836   0.493  2.8787  0.5948  2.5243
   92SOL     MW  368   1.709   0.892   0.558  0.7004  0.0264  0.7761
   93SOL     OW  369   0.977   0.238   0.399  0.3826 -0.1126  0.4611
   93SOL    HW1  370   0.895   0.284   0.421 -0.8337 -0.1086 -2.1248
   93SOL    HW2  371   1.003   0.284   0.318  0.0431  2.0361  1.7068
   93SOL     MW  372   0.969   0.250   0.392  0.1773  0.1714  0.2842
   94SOL     OW  373   1.824   1.418   1.639  0.2229 -0.3191 -0.4234
   94SOL    HW1  374   1.844   1.382   1.553 -2.0838 -2.9819 -3.2175
   94SOL    HW2  375   1.804   1.339   1.692  0.7890 -2.0720  0.3236
   94SOL     MW  376   1.824   1.403   1.635 -0.0067 -0.9017 -0.6935
   95SOL     OW  377   0.749   1.586   0.922  0.7458  0.3192  0.2507
   95SOL    HW1  378   0.802   1.513   0.949 -0.5777  0.2274  1.2440
   95SOL    HW2  379   0.664   1.539   0.926 -0.1927  1.1743  0.5632
   95SOL     MW  380   0.745   1.570   0.926  0.4473  0.4199  0.4230
   96SOL     OW  381   1.275   1.865   1.650 -0.1740 -0.4072 -0.6676
   96SOL    HW1  382   1.174   1.879   1.650 -0.2988  0.6465  0.8153
   96SOL    HW2  383   1.291   1.775   1.642  0.5764  3.8337  1.6393
   96SOL     MW  384   1.263   1.855   1.649 -0.0915  0.2914 -0.1676
   97SOL     OW  385   1.254   1.456   0.748 -0.4245  0.4082  0.4207
   97SOL    HW1  386   1.290   1.514   0.816  0.5156  2.2280 -0.7560
   97SOL    HW2  387   1.169   1.501   0.730 -1.1279  1.5375  2.2844
   97SOL     MW  388   1.247   1.470   0.755 -0.3933  0.7973  0.5114
   98SOL     OW  389   1.424   1.269   1.044 -0.6777 -0.3856  0.1076
   98SOL    HW1  390   1.459   1.354   1.087 -0.1021 -2.8447  3.1082
   98SOL    HW2  391   1.464   1.275   0.956 -0.4190  0.7634  0.2453
   98SOL     MW  392   1.434   1.281   1.038 -0.5677 -0.5585  0.5217
   99SOL     OW  393   1.335   0.334   1.347 -0.1300 -0.3527  0.0316
   99SOL    HW1  394   1.396   0.385   1.296 -3.0127  0.8732  2.0189
   99SOL    HW2  395   1.371   0.337   1.435 -4.0815  1.3003  2.9733
   99SOL     MW  396   1.348   0.341   1.352 -1.0317  0.0271  0.6819
  100SOL     OW  397   1.001   1.177   1.451 -0.2367 -0.2953  0.4458
  100SOL    HW1  398   1.028   1.238   1.524 -1.1212  0.4149 -0.5714
  100SOL    HW2  399   1.051   1.097   1.459  2.1653  1.9966 -3.1621
  100SOL     MW  400   1.011   1.175   1.462 -0.0365  0.1008 -0.1645
  101SOL     OW  401   0.485   1.109   0.356  0.2187  0.5026  0.6342
  101SOL    HW1  402   0.473   1.015   0.368  0.2445 -1.8939  0.6774
  101SOL    HW2  403   0.445   1.140   0.272 -2.4151  1.2041 -1.1722
  101SOL     MW  404   0.478   1.101   0.347 -0.1254  0.2790  0.4016
  102SOL     OW  405   2.926   0.649   1.076 -0.0532  0.0778 -0.2068
  102SOL    HW1  406   3.000   0.710   1.076 -1.8834  0.6513 -1.9225
  102SOL    HW2  407   2.929   0.610   1.163 -2.3150 -0.2342 -1.9712
  102SOL     MW  408   2.936   0.652   1.087 -0.5931  0.1123 -0.6660
  103SOL     OW  409   1.774   0.298   1.809 -1.1521  0.6753  0.7643
  103SOL    HW1  410   1.707   0.231   1.771 -0.8052  2.5947  1.8288
  103SOL    HW2  411   1.807   0.260   1.884  0.2765 -0.8021 -1.8822
  103SOL     MW  412   1.770   0.284   1.814 -0.9178  0.7336  0.5556
  104SOL     OW  413   0.136   1.615   1.489  0.6097 -0.4096  0.4533
  104SOL    HW1  414   0.136   1.597   1.581 -0.4272 -3.9132 -3.7998
  104SOL    HW2  415   0.048   1.576   1.459 -3.7640 -0.9240 -0.2468
  104SOL     MW  416   0.125   1.607   1.497 -0.1042 -0.9397 -0.2002
  105SOL     OW  417   0.034   1.220   0.432  0.7038  0.3804 -0.0812
  105SOL    HW1  418   0.057   1.123   0.421  2.5220 -1.2903  0.9149
  105SOL    HW2  419   0.113   1.272   0.451 -1.3163 -0.0197 -1.3574
  105SOL     MW  420   0.047   1.214   0.433  0.6771  0.1072 -0.1181
  106SOL     OW  421   0.857   0.354   0.988  0.0117 -0.2687 -0.4447
  106SOL    HW1  422   0.795   0.405   0.933  1.2244  0.2357 -1.3871
  106SOL    HW2  423   0.917   0.302   0.930  1.6214  0.6207  1.4083
  106SOL     MW  424   0.857   0.354   0.973  0.3841 -0.0848 -0.3245
  107SOL     OW  425   0.801   2.181   2.989  0.1345  0.2821 -0.4687
  107SOL    HW1  426   0.725   2.168   2.930  0.3063  1.4149 -1.4445
  107SOL    HW2  427   0.775   2.121   3.064 -0.6548 -0.7616 -0.2105
  107SOL     MW  428   0.788   2.171   2.991  0.0530  0.2939 -0.5634
  108SOL     OW  429   1.323   1.606   1.645 -0.0084  0.6884  0.3267
  108SOL    HW1  430   1.270   1.548   1.585  1.0760  4.2163  0.5511
  108SOL    HW2  431   1.416   1.592   1.629 -1.4032  1.8434 -1.1219
  108SOL     MW  432   1.328   1.597   1.635 -0.0494  1.3062  0.1652
  109SOL     OW  433   1.961   0.790   0.199 -0.1779  0.1011  0.6882
  109SOL    HW1  434   1.915   0.875   0.198  1.0104  0.2110 -1.0815
  109SOL    HW2  435   2.017   0.824   0.269 -0.8153  0.8721  2.7705
  109SOL     MW  436   1.962   0.806   0.208 -0.1052  0.2173  0.7295
  110SOL     OW  437   0.367   1.883   0.697 -0.6016 -0.7549 -0.6629
  110SOL    HW1  438   0.443   1.824   0.683  2.0097  0.2934 -2.1804
  110SOL    HW2  439   0.386   1.954   0.636 -0.9576 -0.5123 -0.8465
  110SOL     MW  440   0.379   1.884   0.687 -0.3040 -0.5846 -0.8874
  111SOL     OW  441   0.859   0.912   1.540  0.1022 -0.5128  0.0799
  111SOL    HW1  442   0.816   0.895   1.453 -0.1481 -0.8634 -3.9577
  111SOL    HW2  443   0.848   0.825   1.581  0.3876  0.2688  0.4060
  111SOL     MW  444   0.852   0.899   1.534  0.1068 -0.4559 -0.4098
  112SOL     OW  445   1.345   1.118   1.614 -0.1373  0.4422  0.2835
  112SOL    HW1  446   1.286   1.177   1.668  1.0569  2.0896  1.2724
  112SOL    HW2  447   1.310   1.033   1.636 -0.0717 -1.1255 -0.1604
  112SOL     MW  448   1.332   1.115   1.624  0.0289  0.4527  0.3554
  113SOL     OW  449   1.290   0.009   1.715 -0.0079 -0.2776 -0.0596
  113SOL    HW1  450   1.259  -0.044   1.790 -0.7551  0.0738  1.0261
  113SOL    HW2  451   1.273  -0.059   1.647  2.7308 -4.9378  0.4284
  113SOL     MW  452   1.284  -0.007   1.716  0.2549 -0.8461  0.1481
  114SOL     OW  453   0.279   2.863   1.950  0.6891  0.3819  0.1878
  114SOL    HW1  454   0.351   2.909   1.996  1.9338  2.1755  3.1090
  114SOL    HW2  455   0.299   2.874   1.854 -0.5764 -0.9013  0.9479
  114SOL     MW  456   0.291   2.871   1.943  0.6863  0.4492  0.6735
  115SOL     OW  457   0.496   0.856   1.106  0.2500  0.1575  0.0405
  115SOL    HW1  458   0.515   0.761   1.114 -1.7438  0.5665  0.9853
  115SOL    HW2  459   0.447   0.878   1.187 -2.4793  1.8921  1.1993
  115SOL     MW  460   0.492   0.847   1.118 -0.3732  0.4403  0.3180
  116SOL     OW  461   0.782   1.086   0.926 -0.0633  0.3965 -0.1456
  116SOL    HW1  462   0.844   1.134   0.866  1.6646  1.5754  1.4876
  116SOL    HW2  463   0.829   1.094   1.014  1.0633  0.6852 -0.4923
  116SOL     MW  464   0.797   1.094   0.930  0.3133  0.5902  0.0241
  117SOL     OW  465   1.174   1.174   0.740  0.3685  0.0180 -0.2674
  117SOL    HW1  466   1.189   1.114   0.815 -0.1928 -1.4106 -1.0810
  117SOL    HW2  467   1.198   1.260   0.765  0.1996 -1.7116 -0.3347
  117SOL     MW  468   1.179   1.178   0.753  0.2721 -0.3987 -0.3836
  118SOL     OW  469   3.055   2.978   1.716 -0.2769 -0.1904 -0.4790
  118SOL    HW1  470   3.108   3.037   1.773  1.2454 -0.0846 -1.3433
  118SOL    HW2  471   2.965   3.021   1.719 -0.2834  1.8957  3.7490
  118SOL     MW  472   3.050   2.991   1.724 -0.0769  0.0988 -0.0352
  119SOL     OW  473   0.429   1.486   1.283 -0.1354  0.4986  0.3877
  119SOL    HW1  474   0.465   1.522   1.200  2.4319 -0.3125  0.9242
  119SOL    HW2  475   0.334   1.479   1.261 -1.0453  0.9844  2.7710
  119SOL     MW  476   0.421   1.489   1.269  0.0833  0.4557  0.7730
  120SOL     OW  477   0.252   0.693   0.989  0.3217  0.1798  0.5633
  120SOL    HW1  478   0.238   0.648   1.074 -0.5580 -0.2492  1.3369
  120SOL    HW2  479   0.315   0.767   1.001  1.6608 -1.5850 -0.4368
  120SOL     MW  480   0.258   0.697   1.002  0.3823 -0.1096  0.5334
  121SOL     OW  481   1.717   1.178   1.736 -0.1783 -0.8762  0.1833
  121SOL    HW1  482   1.631   1.144   1.768 -5.3861  1.9085 -1.7286
  121SOL    HW2  483   1.746   1.119   1.665  0.0111  0.9606  1.7609
  121SOL     MW  484   1.709   1.166   1.730 -0.8404 -0.2664  0.1392
  122SOL     OW  485   0.135   0.554   0.779 -0.2522  0.2617 -0.6809
  122SOL    HW1  486   0.191   0.530   0.705 -0.6254  1.4260 -1.4455
  122SOL    HW2  487   0.189   0.613   0.840 -0.1269 -1.5976  0.1363
  122SOL     MW  488   0.149   0.559   0.777 -0.2849  0.1700 -0.6739
  123SOL     OW  489   1.891   1.133   0.504  0.3549  0.2330 -0.3732
  123SOL    HW1  490   1.850   1.056   0.543 -0.8116 -0.1393 -0.3634
  123SOL    HW2  491   1.916   1.187   0.575 -2.5204  2.3885  0.4734
  123SOL     MW  492   1.889   1.130   0.519 -0.1784  0.4683 -0.2602
  124SOL     OW  493   0.683   0.544   0.882 -0.3270  0.4060  0.8728
  124SOL    HW1  494   0.612   0.510   0.817 -0.0805  0.5781 -0.6484
  124SOL    HW2  495   0.680   0.639   0.869  0.5923  0.8014  1.3699
  124SOL     MW  496   0.673   0.552   0.872 -0.1732  0.4809  0.7377
  125SOL     OW  497   0.658   1.785   1.703 -0.6595 -0.3738 -0.3484
  125SOL    HW1  498   0.592   1.716   1.690  1.1601  1.1294  0.5617
  125SOL    HW2  499   0.613   1.869   1.674 -0.3898  3.5666 -0.2870
  125SOL     MW  500   0.643   1.787   1.698 -0.3839  0.3445 -0.2202
  126SOL     OW  501   2.070   1.593   1.946 -0.2536 -0.4229  0.0007
  126SOL    HW1  502   2.140   1.659   1.968 -1.9793  0.3141  0.2057
  126SOL    HW2  503   2.118   1.512   1.954 -0.3058  0.9707  1.0493
  126SOL     MW  504   2.086   1.591   1.950 -0.4881 -0.1418  0.1661
  127SOL     OW  505   0.680   0.796   1.839 -0.6595  0.0637 -0.1804
  127SOL    HW1  506   0.761   0.745   1.860 -1.7899 -0.1287  1.7035
  127SOL    HW2  507   0.690   0.863   1.909 -0.2599  1.7521 -0.2856
  127SOL     MW  508   0.692   0.798   1.851 -0.7559  0.2611  0.0543
  128SOL     OW  509   1.790   0.718   2.933 -0.3135  0.0715 -0.1552
  128SOL    HW1  510   1.817   0.696   2.842  1.0773  0.0238  0.4364
  128SOL    HW2  511   1.751   0.809   2.929  0.5674  0.4971  1.2790
  128SOL     MW  512   1.789   0.727   2.921 -0.0138  0.1214  0.1121
  129SOL     OW  513   1.601   0.948   0.186 -0.3959 -0.0672  0.0494
  129SOL    HW1  514   1.561   0.862   0.159 -0.3975  1.5203  2.4673
  129SOL    HW2  515   1.610   0.944   0.277 -2.5243  0.3508 -0.6876
  129SOL     MW  516   1.597   0.936   0.194 -0.6770  0.1974  0.2712
  130SOL     OW  517   0.761   1.378   0.340  0.1914  0.4475 -0.5324
  130SOL    HW1  518   0.775   1.413   0.430  0.3682 -1.7716  2.9207
  130SOL    HW2  519   0.807   1.442   0.286 -2.1025 -2.7506  2.4496
  130SOL     MW  520   0.769   1.391   0.345 -0.0879 -0.2672  0.3166
  131SOL     OW  521   3.057   0.809   3.103  0.8255 -0.3042  0.2884
  131SOL    HW1  522   3.062   0.840   3.007 -0.4726 -3.3029 -0.6135
  131SOL    HW2  523   3.151   0.792   3.121 -0.9907  0.8155  1.2261
  131SOL     MW  524   3.070   0.811   3.092  0.4146 -0.5521  0.2931
  132SOL     OW  525   2.683   0.121   1.257  0.1813 -0.0692  0.2416
  132SOL    HW1  526   2.703   0.126   1.156 -0.9909 -0.2013 -1.3982
  132SOL    HW2  527   2.595   0.077   1.253  0.8094  2.0338  0.6783
  132SOL     MW  528   2.674   0.116   1.243  0.1095  0.1908  0.0829
  133SOL     OW  529   1.026   0.160   1.722  0.6397  0.8642 -0.4607
  133SOL    HW1  530   1.112   0.120   1.706 -0.2462 -2.3680 -0.0133
  133SOL    HW2  531   1.036   0.198   1.812  1.8661 -1.6832 -0.6735
  133SOL     MW  532   1.039   0.160   1.732  0.6846  0.1016 -0.4298
  134SOL     OW  533   1.358   2.522   1.450 -0.2780  0.2468 -0.4090
  134SOL    HW1  534   1.293   2.590   1.428 -3.5679 -1.4544  0.0744
  134SOL    HW2  535   1.408   2.562   1.524  3.4246 -0.0429 -0.9658
  134SOL     MW  536   1.356   2.536   1.457 -0.2236 -0.0158 -0.4187
  135SOL     OW  537   3.017   0.965   2.866 -0.0688  0.3478 -0.2119
  135SOL    HW1  538   3.089   1.006   2.915 -0.7232 -4.6200 -1.1473
  135SOL    HW2  539   2.964   1.046   2.857  0.0526 -0.0328 -2.0624
  135SOL     MW  540   3.019   0.981   2.871 -0.1391 -0.3579 -0.5795
  136SOL     OW  541   0.181   2.031   0.839 -0.2322  0.1065 -0.4865
  136SOL    HW1  542   0.095   1.992   0.816  0.0294 -1.3702  1.0260
  136SOL    HW2  543   0.240   2.005   0.772  0.1466  2.8686 -0.3071
  136SOL     MW  544   0.177   2.022   0.827 -0.1477  0.2761 -0.2633
  137SOL     OW  545   0.706   2.040   0.500 -0.0586 -0.6236 -0.1373
  137SOL    HW1  546   0.724   2.032   0.600 -1.6943 -1.2181 -0.9215
  137SOL    HW2  547   0.616   2.078   0.492  2.8644 -3.4583  4.1712
  137SOL     MW  548   0.696   2.044   0.512  0.1113 -1.0761  0.3277
  138SOL     OW  549   0.548   0.567   1.129 -0.4940  0.2893 -0.3041
  138SOL    HW1  550   0.462   0.529   1.117  2.0720 -0.3822 -1.0418
  138SOL    HW2  551   0.589   0.557   1.041 -0.2579 -1.8283  1.8611
  138SOL     MW  552   0.542   0.560   1.116 -0.1243 -0.0787 -0.1157
  139SOL     OW  553   2.785   0.610   1.350  0.1122  0.7724 -0.1732
  139SOL    HW1  554   2.804   0.515   1.379 -3.3241 -2.3261  0.6153
  139SOL    HW2  555   2.805   0.665   1.422  1.1250 -2.1080 -0.3998
  139SOL     MW  556   2.791   0.605   1.364 -0.2076 -0.0165 -0.0991
  140SOL     OW  557   0.844   0.389   2.077  0.5069 -0.0522 -0.0054
  140SOL    HW1  558   0.891   0.313   2.040  0.0418  1.2134  1.5169
  140SOL    HW2  559   0.855   0.389   2.172  0.7942  2.5795 -2.0552
  140SOL     MW  560   0.852   0.379   2.085  0.4835  0.4620 -0.0750
  141SOL     OW  561   1.068   0.664   1.732 -0.0957  0.2826  0.1335
  141SOL    HW1  562   1.087   0.572   1.710  0.6115  0.1486  1.9051
  141SOL    HW2  563   1.141   0.719   1.699 -0.8943 -2.3582  0.2717
  141SOL     MW  564   1.080   0.659   1.725 -0.1078 -0.0835  0.3855
  142SOL     OW  565   0.913   1.211   0.720  0.6670 -0.5842  0.1295
  142SOL    HW1  566   0.901   1.149   0.646  0.3093 -0.8812  1.3013
  142SOL    HW2  567   1.007   1.210   0.743 -0.6588 -1.5715 -0.2133
  142SOL     MW  568   0.924   1.202   0.713  0.4449 -0.7536  0.2389
  143SOL     OW  569   1.805   0.801   1.109 -0.2343  0.5105  0.2933
  143SOL    HW1  570   1.874   0.755   1.068  0.6901  1.5392  3.4334
  143SOL    HW2  571   1.724   0.775   1.064 -0.6883 -1.1688 -1.2896
  143SOL     MW  572   1.803   0.792   1.097 -0.1722  0.4246  0.4988
  144SOL     OW  573   0.252   1.185   1.593  0.5325  0.3062  0.3489
  144SOL    HW1  574   0.348   1.195   1.590  1.4558  0.6796  2.1166
  144SOL    HW2  575   0.250   1.189   1.690 -1.5045  1.1084  0.2588
  144SOL     MW  576   0.264   1.187   1.605  0.3855  0.4613  0.5702
  145SOL     OW  577   0.217   0.472   1.177 -0.1115  0.2618  0.5933
  145SOL    HW1  578   0.280   0.418   1.232  5.0945 -2.2810 -0.0238
  145SOL    HW2  579   0.189   0.391   1.117 -2.2255 -2.4220  0.3452
  145SOL     MW  580   0.222   0.454   1.176  0.2964 -0.4278  0.4792
  146SOL     OW  581   0.873   1.947   1.343  0.0006  0.3699  0.0761
  146SOL    HW1  582   0.913   1.957   1.252  2.5837 -1.1502  1.3553
  146SOL    HW2  583   0.797   1.887   1.336  0.4414  0.6505  3.6238
  146SOL     MW  584   0.869   1.940   1.330  0.3996  0.2063  0.7130
  147SOL     OW  585   0.433   0.450   2.940  0.2557  0.8433 -0.5024
  147SOL    HW1  586   0.366   0.427   3.007 -2.3191 -1.8807 -1.9245
  147SOL    HW2  587   0.379   0.500   2.875  0.8122  1.7497 -0.9314
  147SOL     MW  588   0.417   0.454   2.940 -0.0106  0.6035 -0.7466
  148SOL     OW  589   0.140   0.834   1.287  0.0546  0.2122 -0.0291
  148SOL    HW1  590   0.238   0.843   1.307  1.8942  2.6021 -0.3870
  148SOL    HW2  591   0.103   0.906   1.345  1.4069  1.5669  0.8342
  148SOL     MW  592   0.148   0.844   1.297  0.4757  0.7063  0.0376
  149SOL     OW  593   1.325   1.135   1.335 -0.4398  0.9344 -0.2695
  149SOL    HW1  594   1.314   1.111   1.430 -1.1069 -1.9464 -0.8835
  149SOL    HW2  595   1.410   1.179   1.334  0.8602 -0.2883 -1.4491
  149SOL     MW  596   1.335   1.137   1.348 -0.3563  0.3930 -0.5061
  150SOL     OW  597   1.832   1.342   0.715 -0.2957 -0.1792  0.0545
  150SOL    HW1  598   1.857   1.281   0.780 -0.3644 -1.1461 -2.7675
  150SOL    HW2  599   1.854   1.425   0.758 -0.7949 -0.5244 -0.4916
  150SOL     MW  600   1.838   1.345   0.729 -0.3706 -0.3523 -0.3899
  151SOL     OW  601   1.664   1.789   0.808 -0.2870  0.4171  0.6042
  151SOL    HW1  602   1.657   1.816   0.713 -0.3787 -1.1526  0.4235
  151SOL    HW2  603   1.606   1.706   0.796 -2.2794 -2.2280 -1.5695
  151SOL     MW  604   1.655   1.781   0.794 -0.5620 -0.1390  0.2936
  152SOL     OW  605   0.752   1.371   1.496  0.3473 -0.4434 -0.2590
  152SOL    HW1  606   0.761   1.278   1.506 -0.8379  0.3513  3.5936
  152SOL    HW2  607   0.837   1.406   1.515 -1.2993  0.7198  0.8997
  152SOL     MW  608   0.764   1.364   1.500 -0.0263 -0.1851  0.4022
  153SOL     OW  609   2.623   1.221   0.774  0.2205 -0.1216 -0.0968
  153SOL    HW1  610   2.684   1.181   0.708 -1.9653  0.5430  1.9559
  153SOL    HW2  611   2.557   1.153   0.806 -1.7280  0.8862  0.6958
  153SOL     MW  612   2.622   1.207   0.770 -0.3250  0.0991  0.2786
  154SOL     OW  613   0.237   1.814   1.702 -0.4512 -0.1803 -0.2816
  154SOL    HW1  614   0.289   1.824   1.618 -2.9578 -0.8903 -0.8027
  154SOL    HW2  615   0.272   1.743   1.757 -0.5586  1.1498 -0.2663
  154SOL     MW  616   0.249   1.806   1.698 -0.7961 -0.0985 -0.3483
  155SOL     OW  617   1.221   0.694   0.242 -0.6151  0.1102 -0.2487
  155SOL    HW1  618   1.173   0.664   0.324 -3.4790 -1.5551  0.5810
  155SOL    HW2  619   1.200   0.791   0.239  1.8919  1.2097  0.2518
  155SOL     MW  620   1.212   0.703   0.252 -0.6622  0.0355 -0.0732
  156SOL     OW  621   1.485   3.083   1.124 -0.1402 -0.2190 -0.2225
  156SOL    HW1  622   1.567   3.142   1.136 -1.1963  1.8644  0.8021
  156SOL    HW2  623   1.502   2.997   1.166 -0.1305  1.6902  1.5686
  156SOL     MW  624   1.498   3.080   1.131 -0.2782  0.3078  0.1490
  157SOL     OW  625   1.445   1.155   0.099 -0.0513 -0.3143  0.1979
  157SOL    HW1  626   1.513   1.077   0.110  0.5977 -1.4220  2.1282
  157SOL    HW2  627   1.506   1.234   0.108  1.1271  2.5435  1.0673
  157SOL     MW  628   1.462   1.155   0.102  0.1898 -0.0834  0.5673
  158SOL     OW  629   0.534   1.659   2.214 -0.0940 -0.1819 -0.0422
  158SOL    HW1  630   0.510   1.705   2.136 -1.3780  0.5244  0.8553
  158SOL    HW2  631   0.458   1.652   2.270  2.5240  2.0125 -1.5904
  158SOL     MW  632   0.521   1.664   2.211  0.0820  0.2009 -0.1281
  159SOL     OW  633   1.290   1.682   0.416  0.1328 -0.0242  0.1829
  159SOL    HW1  634   1.244   1.624   0.355  0.1224  0.3724  1.7007
  159SOL    HW2  635   1.225   1.694   0.487  0.9846  0.2020  3.8402
  159SOL     MW  636   1.275   1.676   0.418  0.2438  0.0580  0.8657
  160SOL     OW  637   0.546   1.131   1.628 -0.5558 -0.5441 -0.1298
  160SOL    HW1  638   0.512   1.040   1.632 -0.3200  1.9640 -0.7733
  160SOL    HW2  639   0.608   1.131   1.698  0.3211 -0.2401  1.2859
  160SOL     MW  640   0.550   1.119   1.638 -0.4090 -0.1731 -0.0280
  161SOL     OW  641   0.489   2.242   2.562  0.3053  0.5122 -0.0313
  161SOL    HW1  642   0.403   2.240   2.591  1.3272 -0.3585  0.8691
  161SOL    HW2  643   0.505   2.172   2.496  2.6408 -0.9878 -3.0571
  161SOL     MW  644   0.480   2.233   2.557  0.7483  0.1994 -0.3117
  162SOL     OW  645   1.059   1.755   1.859 -0.1435 -0.3569  0.4962
  162SOL    HW1  646   1.073   1.835   1.908 -0.8635 -1.9793  2.1712
  162SOL    HW2  647   0.967   1.730   1.878 -0.6785  4.3212  1.8846
  162SOL     MW  648   1.048   1.763   1.868 -0.3091  0.0463  0.9004
  163SOL     OW  649   2.150   0.007   0.932 -0.2855  0.5023 -0.1414
  163SOL    HW1  650   2.126   0.046   0.847 -0.9687  1.5635 -0.3261
  163SOL    HW2  651   2.149  -0.089   0.945  1.6609 -1.0489  0.8370
  163SOL     MW  652   2.147  -0.000   0.923 -0.1189  0.4377 -0.0367
  164SOL     OW  653   0.356   0.184   0.857 -0.1531  0.1164 -0.3422
  164SOL    HW1  654   0.270   0.194   0.900 -1.3215 -0.8763  1.7397
  164SOL    HW2  655   0.353   0.106   0.804  0.9774  2.5612 -0.1326
  164SOL     MW  656   0.344   0.175   0.855 -0.1581  0.3080 -0.0399
  165SOL     OW  657   1.342   1.262   0.342  0.1539  0.0994  0.6863
  165SOL    HW1  658   1.311   1.186   0.396  0.0956 -2.8772 -0.6930
  165SOL    HW2  659   1.363   1.212   0.260 -0.8071 -1.6351 -0.0159
  165SOL     MW  660   1.341   1.245   0.338  0.0194 -0.5222  0.4117
  166SOL     OW  661   0.531   1.171   1.039 -0.0198  0.3474 -0.6844
  166SOL    HW1  662   0.505   1.125   1.115 -0.7726 -1.0407  0.0069
  166SOL    HW2  663   0.618   1.131   1.031 -0.8573 -0.5464  3.8557
  166SOL     MW  664   0.539   1.160   1.048 -0.2296  0.0463  0.0058
  167SOL     OW  665   0.797   1.011   0.268  0.2687 -0.1519  0.4733
  167SOL    HW1  666   0.717   1.056   0.267 -0.0297  2.9955 -0.3489
  167SOL    HW2  667   0.845   1.037   0.189  1.2365  3.1955 -0.7123
  167SOL     MW  668   0.792   1.021   0.258  0.3570  0.7050  0.2084
  168SOL     OW  669   1.712   1.649   3.038 -0.3503 -0.3479  0.0338
  168SOL    HW1  670   1.623   1.663   3.007 -1.1107  0.1408  2.4777
  168SOL    HW2  671   1.736   1.566   3.008 -2.0419  0.1824 -1.6411
  168SOL     MW  672   1.704   1.640   3.030 -0.6738 -0.2135  0.1353
  169SOL     OW  673   0.412   0.926   1.350  0.2588  0.1941 -0.0218
  169SOL    HW1  674   0.428   0.905   1.442 -2.9410  2.3515 -2.4325
  169SOL    HW2  675   0.451   1.011   1.357 -2.4352  0.3478 -0.4884
  169SOL     MW  676   0.419   0.935   1.363 -0.5188  0.4991 -0.4014
  170SOL     OW  677   1.029   1.489   1.511  0.0140 -0.0410  0.5470
  170SOL    HW1  678   1.009   1.584   1.528  1.1450  1.6507 -0.6718
  170SOL    HW2  679   1.051   1.485   1.417  2.0808  0.3954 -1.6692
  170SOL     MW  680   1.029   1.501   1.501  0.4359  0.2398  0.0938
  171SOL     OW  681   0.530   1.458   0.636 -0.7219 -0.2276 -0.2759
  171SOL    HW1  682   0.510   1.480   0.728 -1.2306  2.7216  1.8345
  171SOL    HW2  683   0.533   1.359   0.622  0.9841  1.5862 -2.5365
  171SOL     MW  684   0.528   1.448   0.646 -0.5639  0.4008 -0.2957
  172SOL     OW  685   0.848   0.324   1.268 -0.2298  0.5268 -0.1617
  172SOL    HW1  686   0.855   0.333   1.171 -0.6130 -0.3287 -2.8616
  172SOL    HW2  687   0.772   0.375   1.307  0.5009  0.0932 -1.2493
  172SOL     MW  688   0.839   0.332   1.261 -0.1839  0.3567 -0.6614
  173SOL     OW  689   0.442   1.719   0.385 -0.4761 -0.5038  0.2061
  173SOL    HW1  690   0.459   1.651   0.321 -1.6411  0.0175  0.3105
  173SOL    HW2  691   0.476   1.697   0.476 -0.9627  1.4489  2.9352
  173SOL     MW  692   0.449   1.707   0.389 -0.6940 -0.1773  0.5799
  174SOL     OW  693   1.816   1.001   1.562  0.0027 -0.4031 -0.4637
  174SOL    HW1  694   1.797   0.904   1.565 -1.1329 -1.4846  0.5686
  174SOL    HW2  695   1.787   1.020   1.473  3.1378  0.5185  0.4647
  174SOL     MW  696   1.810   0.991   1.550  0.2665 -0.4242 -0.2050
  175SOL     OW  697   0.526   1.476   0.258 -0.2384 -0.1127 -0.3089
  175SOL    HW1  698   0.473   1.404   0.229 -0.6324  3.4135  1.9235
  175SOL    HW2  699   0.603   1.437   0.300  0.0594  0.1623 -0.3187
  175SOL     MW  700   0.529   1.461   0.259 -0.2511  0.3888 -0.0156
  176SOL     OW  701   0.172   1.476   1.227 -0.1723  0.5040  0.0459
  176SOL    HW1  702   0.167   1.412   1.158  0.1780  0.4470  0.0683
  176SOL    HW2  703   0.079   1.486   1.271  1.2989 -1.4557  3.0542
  176SOL     MW  704   0.159   1.469   1.224  0.0680  0.2379  0.4458
  177SOL     OW  705   0.626   0.435   1.374  0.6239 -0.3244  0.2473
  177SOL    HW1  706   0.596   0.504   1.313  0.7594 -0.6831  0.7897
  177SOL    HW2  707   0.624   0.478   1.465 -0.3172  1.4803 -0.3754
  177SOL     MW  708   0.622   0.450   1.378  0.5176 -0.1336  0.2367
  178SOL     OW  709   3.069   0.502   2.953  0.1620  0.2962  0.0600
  178SOL    HW1  710   3.011   0.523   3.030  1.9557 -2.3668  1.1680
  178SOL    HW2  711   3.026   0.485   2.864 -0.7022  2.3811 -0.6855
  178SOL     MW  712   3.056   0.503   2.951  0.2846  0.2199  0.1078
  179SOL     OW  713   1.589   1.333   1.355 -0.0006 -0.1208 -0.3616
  179SOL    HW1  714   1.557   1.379   1.437 -0.1739 -1.2375  0.2941
  179SOL    HW2  715   1.687   1.341   1.365  0.2669 -0.7057  0.0317
  179SOL     MW  716   1.597   1.340   1.367  0.0119 -0.3453 -0.2232
  180SOL     OW  717   3.056   0.198   0.433 -1.0333  0.0132 -0.2237
  180SOL    HW1  718   2.995   0.185   0.355  0.1407 -0.3742 -0.2670
  180SOL    HW2  719   3.102   0.280   0.402 -2.6545 -0.0334 -2.7918
  180SOL     MW  720   3.054   0.207   0.419 -1.0923 -0.0441 -0.5683
  181SOL     OW  721   1.118   1.309   3.085 -0.3861  0.0302  0.1972
  181SOL    HW1  722   1.151   1.385   3.127  0.3794 -4.7738  0.0824
  181SOL    HW2  723   1.198   1.253   3.064  0.1363 -0.6791  0.8893
  181SOL     MW  724   1.133   1.312   3.087 -0.2162 -0.6972  0.2734
  182SOL     OW  725   0.456   0.890   1.638 -0.0668  0.3921 -0.3028
  182SOL    HW1  726   0.369   0.865   1.674  0.9252 -1.3370 -2.8850
  182SOL    HW2  727   0.529   0.853   1.689  2.6864 -0.4474 -2.0081
  182SOL     MW  728   0.454   0.882   1.650  0.4274  0.0532 -0.8685
  183SOL     OW  729   1.588   1.517   1.138 -0.0225  0.3656 -0.5105
  183SOL    HW1  730   1.557   1.595   1.182  0.6202  0.6869  1.9828
  183SOL    HW2  731   1.598   1.450   1.213 -0.6479 -0.4985 -1.6134
  183SOL     MW  732   1.586   1.518   1.153 -0.0202  0.2940 -0.3270
  184SOL     OW  733   0.900   0.640   1.954 -0.6167  0.4505 -0.2134
  184SOL    HW1  734   0.988   0.643   1.924  0.2157  0.0611  1.6115
  184SOL    HW2  735   0.890   0.564   2.013 -0.2785 -0.3154 -0.3341
  184SOL     MW  736   0.910   0.630   1.958 -0.4622  0.2980  0.0115
  185SOL     OW  737   1.236   1.013   1.934 -0.2706 -0.2090  0.0724
  185SOL    HW1  738   1.210   0.930   1.980 -1.8983 -3.4517 -1.9149
  185SOL    HW2  739   1.252   1.069   2.010 -2.2202 -1.2657 -2.0211
  185SOL     MW  740   1.235   1.010   1.950 -0.7426 -0.7763 -0.4660
  186SOL     OW  741   0.380   1.696   1.443  0.3592  0.6112  0.2647
  186SOL    HW1  742   0.387   1.629   1.373 -0.4604 -1.4926  0.0639
  186SOL    HW2  743   0.288   1.673   1.471  0.7525 -0.0216  0.3779
  186SOL     MW  744   0.369   1.684   1.437  0.3030  0.2501  0.2532
  187SOL     OW  745   1.434   0.699   1.397  0.0425 -0.1523 -0.3992
  187SOL    HW1  746   1.433   0.650   1.478 -0.6551 -1.8281 -1.1305
  187SOL    HW2  747   1.352   0.683   1.353 -0.5781  1.0858 -0.2248
  187SOL     MW  748   1.423   0.690   1.402 -0.1314 -0.2100 -0.4727
  188SOL     OW  749   1.903   1.157   0.922  0.1298 -0.1222  0.8839
  188SOL    HW1  750   1.880   1.163   1.021 -0.4580  0.0491  1.0616
  188SOL    HW2  751   1.940   1.068   0.907  0.2544 -0.9669  0.4847
  188SOL     MW  752   1.905   1.146   0.933  0.0687 -0.2110  0.8547
  189SOL     OW  753   0.656   0.820   0.844  0.0934 -0.4629 -0.9519
  189SOL    HW1  754   0.581   0.863   0.878 -0.2288 -1.2135  1.9805
  189SOL    HW2  755   0.727   0.881   0.872  0.3715  1.1762  0.7032
  189SOL     MW  756   0.655   0.833   0.852  0.0875 -0.3456 -0.3466
  190SOL     OW  757   1.882   0.258   2.135  0.7773 -0.7421  0.2290
  190SOL    HW1  758   1.937   0.230   2.204 -0.7492 -0.0355  0.3687
  190SOL    HW2  759   1.931   0.329   2.088  0.3653  0.3862 -0.4752
  190SOL     MW  760   1.895   0.264   2.138  0.5215 -0.5000  0.1545
  191SOL     OW  761   1.512   0.935   1.238 -0.3493  0.0843 -0.0345
  191SOL    HW1  762   1.449   0.998   1.279 -0.8859 -0.6449  1.2615
  191SOL    HW2  763   1.490   0.855   1.291 -1.4182  0.9699 -1.7499
  191SOL     MW  764   1.501   0.932   1.250 -0.5611  0.1050 -0.0899
  192SOL     OW  765   0.609   2.102   2.797  0.3530  0.7501 -0.1902
  192SOL    HW1  766   0.583   2.158   2.727 -2.4183 -1.9103  0.9926
  192SOL    HW2  767   0.580   2.012   2.775 -1.8451 -2.0492  0.5324
  192SOL     MW  768   0.601   2.098   2.785 -0.3027  0.0298  0.0612
  193SOL     OW  769   0.995   1.568   0.733  0.0528 -0.2414 -0.5104
  193SOL    HW1  770   0.946   1.590   0.821 -0.3673  0.3543 -0.4143
  193SOL    HW2  771   0.922   1.522   0.683 -1.0433 -2.1958  1.1710
  193SOL     MW  772   0.979   1.565   0.738 -0.1473 -0.4207 -0.2759
  194SOL     OW  773   0.511   1.442   0.939 -0.2058  0.3187 -0.4039
  194SOL    HW1  774   0.536   1.353   0.973 -0.5666 -0.5704  0.4822
  194SOL    HW2  775   0.428   1.424   0.890  0.6674  1.3073  0.6348
  194SOL     MW  776   0.504   1.428   0.937 -0.1382  0.3318 -0.1500
  195SOL     OW  777   1.297   1.132   2.985  0.5330 -0.5051 -0.1782
  195SOL    HW1  778   1.351   1.138   3.068  0.5932 -0.2393 -0.0665
  195SOL    HW2  779   1.217   1.074   2.997 -3.8458  0.1889  1.9595
  195SOL     MW  780   1.294   1.125   2.997 -0.0368 -0.3785  0.1186
  196SOL     OW  781   2.204   1.003   0.579  0.1762 -0.1080  0.2885
  196SOL    HW1  782   2.155   0.958   0.506  0.7004  1.0950 -0.3636
  196SOL    HW2  783   2.198   1.093   0.547 -0.3970  1.0532 -1.1828
  196SOL     MW  784   2.197   1.009   0.565  0.1698  0.2039  0.0084
  197SOL     OW  785   0.646   1.227   2.095 -0.4924 -0.0593 -0.0254
  197SOL    HW1  786   0.670   1.142   2.072 -1.9554  0.8609  1.9405
  197SOL    HW2  787   0.619   1.264   2.015 -0.2603 -2.5559 -1.4941
  197SOL     MW  788   0.646   1.221   2.081 -0.6548 -0.2673  0.0402
  198SOL     OW  789   2.961   1.372   1.094  0.0479 -0.3838 -0.4447
  198SOL    HW1  790   2.927   1.451   1.053  2.0045  2.3264  0.7013
  198SOL    HW2  791   2.904   1.300   1.072  2.4339  0.9910 -0.0678
  198SOL     MW  792   2.949   1.373   1.086  0.6209  0.1552 -0.2438
  199SOL     OW  793   0.549   1.394   1.898 -0.2849  0.7682 -0.1577
  199SOL    HW1  794   0.481   1.328   1.903  2.3967  2.3279  2.4684
  199SOL    HW2  795   0.567   1.402   1.805  3.5750 -2.6860 -2.2437
  199SOL     MW  796   0.542   1.386   1.886  0.5782  0.5183 -0.0864
  200SOL     OW  797   1.870   3.011   1.310 -0.3668 -0.5139 -0.1190
  200SOL    HW1  798   1.882   3.005   1.216  2.3406 -0.1665  2.5545
  200SOL    HW2  799   1.794   3.063   1.329  2.5539 -0.5585  0.7595
  200SOL     MW  800   1.861   3.017   1.300  0.3758 -0.4740  0.3497
  201SOL     OW  801   1.025   0.197   0.845  0.5031  0.3722  0.2092
  201SOL    HW1  802   1.001   0.127   0.781  0.3969 -0.8983 -1.2768
  201SOL    HW2  803   1.094   0.244   0.811 -1.0166 -0.2407 -0.6850
  201SOL     MW  804   1.031   0.194   0.832  0.2886  0.1237 -0.1048
  202SOL     OW  805   1.511   1.563   0.880 -0.2310  0.2782  0.0208
  202SOL    HW1  806   1.532   1.476   0.841  0.4878 -0.6095 -0.1063
  202SOL    HW2  807   1.554   1.550   0.964  2.3944  1.7121 -0.9353
  202SOL     MW  808   1.519   1.550   0.886  0.2102  0.3502 -0.1221
  203SOL     OW  809   3.075   0.448   1.284 -0.0808 -0.3535  0.4692
  203SOL    HW1  810   3.157   0.436   1.238  0.6164 -4.2858 -2.7364
  203SOL    HW2  811   3.091   0.512   1.356 -0.7091  0.2524 -0.4997
  203SOL     MW  812   3.088   0.455   1.288 -0.0717 -0.7924 -0.0816
  204SOL     OW  813   1.050   1.742   0.540  0.2294  0.0639 -0.1589
  204SOL    HW1  814   1.032   1.664   0.603 -3.2459 -0.4577 -2.0898
  204SOL    HW2  815   0.958   1.771   0.512 -1.7708 -0.3693  3.4035
  204SOL     MW  816   1.035   1.735   0.545 -0.4930 -0.0621  0.0564
  205SOL     OW  817   1.361   0.069   1.360 -0.1487  0.3059 -0.1941
  205SOL    HW1  818   1.385   0.051   1.269  4.0351 -1.6715 -0.5818
  205SOL    HW2  819   1.351   0.167   1.362  2.1575  0.8385  0.4316
  205SOL     MW  820   1.363   0.080   1.348  0.7076  0.1153 -0.1627
  206SOL     OW  821   0.419   3.006   1.428 -0.4546  0.0718 -0.4108
  206SOL    HW1  822   0.382   2.993   1.333  1.3359 -1.8002  0.8003
  206SOL    HW2  823   0.496   2.952   1.426  2.2803  1.5798 -2.9376
  206SOL     MW  824   0.424   2.997   1.415  0.1425  0.0238 -0.5844
  207SOL     OW  825   0.917   1.535   0.192 -0.2694  0.8696 -0.5953
  207SOL    HW1  826   0.901   1.631   0.196 -2.2320 -0.0077  1.7887
  207SOL    HW2  827   0.982   1.509   0.258 -0.0661 -0.2485  1.0236
  207SOL     MW  828   0.924   1.544   0.201 -0.5016  0.6063 -0.0671
  208SOL     OW  829   0.688   1.671   1.371 -0.0265  0.2523  0.1327
  208SOL    HW1  830   0.752   1.690   1.440 -1.2714  1.8416 -0.4176
  208SOL    HW2  831   0.667   1.581   1.388 -0.0098 -1.0771  1.2840
  208SOL     MW  832   0.694   1.662   1.382 -0.1886  0.2866  0.2120
  209SOL     OW  833   1.540   0.504   3.014 -0.4065 -0.2008 -0.2343
  209SOL    HW1  834   1.570   0.581   2.965  1.5134 -1.7644  0.1071
  209SOL    HW2  835   1.586   0.437   2.969  1.9475 -0.2617 -0.1940
  209SOL     MW  836   1.550   0.505   3.002  0.1574 -0.4151 -0.1839
  210SOL     OW  837   1.562   1.287   0.804 -0.5404 -0.4422 -0.4228
  210SOL    HW1  838   1.650   1.315   0.766 -0.2655 -0.7668  1.1485
  210SOL    HW2  839   1.506   1.281   0.727 -0.5905 -3.3221 -0.7098
  210SOL     MW  840   1.566   1.290   0.789 -0.5108 -0.8650 -0.2533
  211SOL     OW  841   1.665   0.337   0.947  0.3717 -0.4265 -0.1478
  211SOL    HW1  842   1.641   0.364   0.854  0.1531 -1.0089 -1.8439
  211SOL    HW2  843   1.761   0.347   0.946  2.0983 -2.3925 -2.9877
  211SOL     MW  844   1.674   0.342   0.934  0.5707 -0.7627 -0.7463
  212SOL     OW  845   0.251   1.021   0.122  0.0139 -0.1730  0.3524
  212SOL    HW1  846   0.196   0.972   0.184  2.3112 -0.4213  0.0377
  212SOL    HW2  847   0.309   0.959   0.076  1.5171  1.8054 -3.4349
  212SOL     MW  848   0.251   1.007   0.124  0.5153  0.0553 -0.1888
  213SOL     OW  849   0.533   1.715   3.032 -0.0590 -0.6395  0.3030
  213SOL    HW1  850   0.520   1.766   3.118  0.4296  2.1539 -0.3765
  213SOL    HW2  851   0.561   1.773   2.960  1.8266 -1.2618  0.6025
  213SOL     MW  852   0.535   1.729   3.034  0.2543 -0.3530  0.2529
  214SOL     OW  853   0.600   0.300   2.220  0.8430  0.4325 -0.4161
  214SOL    HW1  854   0.541   0.378   2.208 -0.4277 -2.0857  1.5685
  214SOL    HW2  855   0.690   0.320   2.204 -2.5608  0.4807 -4.0352
  214SOL     MW  856   0.604   0.313   2.217  0.2262  0.1066 -0.6318
  215SOL     OW  857   0.513   0.711   2.667 -0.1884  0.0308  0.1120
  215SOL    HW1  858   0.501   0.681   2.576 -7.0295 -0.2768  1.1981
  215SOL    HW2  859   0.447   0.663   2.711  1.3540 -0.1295 -2.1700
  215SOL     MW  860   0.503   0.701   2.660 -0.8875 -0.0309 -0.0457
  216SOL     OW  861   2.908   3.042   2.657  0.3169 -0.3412  0.0019
  216SOL    HW1  862   2.857   3.019   2.736  4.1406  2.8769 -0.8482
  216SOL    HW2  863   2.915   3.139   2.664 -0.5736 -2.4928  2.8876
  216SOL     MW  864   2.902   3.052   2.668  0.7039 -0.2005  0.2704
  217SOL     OW  865   0.980   1.087   0.074  0.5694 -0.2299  0.6096
  217SOL    HW1  866   1.047   1.018   0.061  1.1040  2.3698  0.4169
  217SOL    HW2  867   1.022   1.177   0.063 -0.2356  1.9042 -1.1509
  217SOL     MW  868   0.994   1.090   0.071  0.5337  0.3947  0.3519
  218SOL     OW  869   0.969   1.309   2.550 -0.3415 -0.1829  0.3858
  218SOL    HW1  870   1.019   1.232   2.571  2.1500 -0.7390  0.6595
  218SOL    HW2  871   1.016   1.387   2.580  1.1424  0.8585 -3.0286
  218SOL     MW  872   0.982   1.309   2.556  0.1830 -0.1189 -0.0286
  219SOL     OW  873   1.139   0.427   2.643  0.6008 -0.0093  0.2961
  219SOL    HW1  874   1.197   0.504   2.660 -0.1412  2.2178 -0.4689
  219SOL    HW2  875   1.067   0.479   2.612 -1.5792  0.7854 -2.1138
  219SOL     MW  876   1.137   0.444   2.641  0.2153  0.3894 -0.1228
  220SOL     OW  877   1.747   0.478   2.224  0.2720  0.5655  0.2167
  220SOL    HW1  878   1.670   0.484   2.161 -1.6608 -1.8762 -3.5530
  220SOL    HW2  879   1.802   0.398   2.193  2.3122 -2.1096  2.5476
  220SOL     MW  880   1.744   0.468   2.211  0.2862 -0.1096  0.0269
  221SOL     OW  881   0.406   1.337   2.953  0.0088 -0.6025  0.5636
  221SOL    HW1  882   0.419   1.251   2.908  0.1613  3.2940  1.1296
  221SOL    HW2  883   0.426   1.404   2.891 -2.5571 -1.2236  0.7025
  221SOL     MW  884   0.410   1.335   2.939 -0.3097 -0.1703  0.6566
  222SOL     OW  885   0.362   0.942   2.677  0.0260  0.4719  0.2074
  222SOL    HW1  886   0.342   0.955   2.587 -1.1652  1.1497  2.5832
  222SOL    HW2  887   0.422   0.866   2.677  0.9344 -1.3600 -0.0597
  222SOL     MW  888   0.367   0.933   2.665 -0.0113  0.3197  0.4856
  223SOL     OW  889   0.009   2.029   2.522 -0.0601 -0.1851 -0.3099
  223SOL    HW1  890   0.048   1.963   2.577  0.7656  0.0113 -1.3284
  223SOL    HW2  891   0.080   2.093   2.507  0.4253 -1.0905  1.2359
  223SOL     MW  892   0.024   2.028   2.527  0.1129 -0.2786 -0.2403
  224SOL     OW  893   1.500   0.792   2.622  0.1629 -0.5514 -0.3378
  224SOL    HW1  894   1.504   0.855   2.692  2.6553 -1.6338 -2.4997
  224SOL    HW2  895   1.514   0.858   2.543 -2.9371  2.1440 -1.2688
  224SOL     MW  896   1.502   0.809   2.621  0.0828 -0.3386 -0.7459
  225SOL     OW  897   2.899   1.443   2.297  0.4882  0.0984 -0.7621
  225SOL    HW1  898   2.949   1.495   2.243 -1.0639 -1.8950 -0.6599
  225SOL    HW2  899   2.847   1.507   2.344 -0.3838  0.1869  0.9677
  225SOL     MW  900   2.899   1.458   2.296  0.1684 -0.1529 -0.5204
  226SOL     OW  901   0.473   1.483   2.698 -0.3589  0.0433 -0.0264
  226SOL    HW1  902   0.571   1.466   2.688 -0.4240  3.2988 -2.5359
  226SOL    HW2  903   0.454   1.575   2.676  0.4633  0.8322  0.8498
  226SOL     MW  904   0.484   1.493   2.694 -0.2590  0.5769 -0.2419
  227SOL     OW  905   0.488   1.106   2.832  0.1327 -0.1684 -0.2793
  227SOL    HW1  906   0.578   1.114   2.795  3.3689 -2.4148  0.6837
  227SOL    HW2  907   0.444   1.041   2.772  0.3641  1.0042 -1.7541
  227SOL     MW  908   0.494   1.099   2.819  0.5902 -0.3101 -0.3468
  228SOL     OW  909   0.721   0.961   2.048  0.5618 -0.0047  0.0020
  228SOL    HW1  910   0.812   0.995   2.040 -0.9002  2.7791  1.8527
  228SOL    HW2  911   0.719   0.904   2.132 -0.4344 -1.6240  2.3797
  228SOL     MW  912   0.732   0.958   2.058  0.2375  0.1489  0.5599
  229SOL     OW  913   0.164   0.619   0.013 -0.5225  0.0705 -0.7946
  229SOL    HW1  914   0.097   0.595  -0.049 -0.6637 -0.3302  1.8839
  229SOL    HW2  915   0.177   0.543   0.069 -0.9715  0.3807 -1.4392
  229SOL     MW  916   0.157   0.606   0.012 -0.6004  0.0586 -0.5263
  230SOL     OW  917   1.689   1.352   2.037 -0.2617 -0.0994  0.4037
  230SOL    HW1  918   1.628   1.329   2.109 -0.7353  0.1951  0.3155
  230SOL    HW2  919   1.731   1.271   2.013 -0.5567  1.1005 -1.7051
  230SOL     MW  920   1.687   1.339   2.043 -0.3631  0.0978  0.1139
  231SOL     OW  921   2.731   1.256   2.191 -0.5440  0.1183  0.2299
  231SOL    HW1  922   2.794   1.324   2.193 -3.1315 -3.4456  1.4072
  231SOL    HW2  923   2.710   1.266   2.100  2.4334  0.8782 -2.8396
  231SOL     MW  924   2.736   1.266   2.179 -0.4926 -0.2516 -0.0197
  232SOL     OW  925   2.291   0.836   2.013 -0.4824  0.0237 -0.2234
  232SOL    HW1  926   2.215   0.874   1.970 -1.2718  3.0233  0.5042
  232SOL    HW2  927   2.257   0.819   2.097 -0.6299 -0.9802 -1.6953
  232SOL     MW  928   2.277   0.838   2.019 -0.6060  0.2870 -0.3216
  233SOL     OW  929   2.043   0.442   2.038 -0.4350  0.3618  0.4615
  233SOL    HW1  930   2.100   0.365   2.050 -0.4134 -1.4699  0.7707
  233SOL    HW2  931   2.059   0.498   2.113  0.8343 -2.1179  1.0755
  233SOL     MW  932   2.053   0.439   2.049 -0.2647 -0.2070  0.5833
  234SOL     OW  933   0.283   1.069   2.415 -0.4484  0.0344 -0.2468
  234SOL    HW1  934   0.188   1.095   2.424  0.7948 -0.6672 -0.7146
  234SOL    HW2  935   0.334   1.148   2.421 -0.1496 -0.6107 -0.7342
  234SOL     MW  936   0.277   1.083   2.417 -0.2450 -0.1433 -0.3728
  235SOL     OW  937   1.118   3.057   2.713  0.1062 -0.0149  0.6187
  235SOL    HW1  938   1.137   3.012   2.797  0.6148 -3.9933  0.9864
  235SOL    HW2  939   1.093   3.142   2.742  1.3414 -0.1155  1.2596
  235SOL     MW  940   1.117   3.062   2.728  0.3362 -0.5530  0.7518
  236SOL     OW  941   2.932   0.570   0.077  0.2660 -0.1977  1.0648
  236SOL    HW1  942   2.835   0.556   0.060  1.0260  1.3806  1.3430
  236SOL    HW2  943   2.957   0.660   0.060  2.8281  0.1801  1.5015
  236SOL     MW  944   2.922   0.580   0.072  0.7044  0.0604  1.1591
  237SOL     OW  945   2.014   1.111   2.188  0.5015  0.2073  0.3442
  237SOL    HW1  946   1.959   1.121   2.109 -2.5466  1.5762 -0.1621
  237SOL    HW2  947   2.036   1.021   2.198  1.3065  0.3903 -1.6236
  237SOL     MW  948   2.009   1.101   2.179  0.2055  0.4120  0.0177
  238SOL     OW  949   1.049   1.830   2.985  0.5835  0.7071  0.8146
  238SOL    HW1  950   1.020   1.742   2.955 -0.6489  1.7626 -0.6942
  238SOL    HW2  951   1.140   1.831   2.992 -2.6295 -1.2543  0.5518
  238SOL     MW  952   1.057   1.819   2.982 -0.0031  0.5876  0.5809
  239SOL     OW  953   1.268   1.357   2.366  0.4665  0.1884 -0.6868
  239SOL    HW1  954   1.226   1.422   2.424  0.7106  0.5796  1.5536
  239SOL    HW2  955   1.305   1.288   2.423 -2.2338  0.5240 -0.5209
  239SOL     MW  956   1.267   1.356   2.381  0.1424  0.2843 -0.3693
  240SOL     OW  957   0.697   0.817   2.272  0.6758  0.3002 -0.6051
  240SOL    HW1  958   0.707   0.881   2.340 -2.2583 -2.5779  1.5234
  240SOL    HW2  959   0.778   0.769   2.288  0.0690 -0.7983  1.0327
  240SOL     MW  960   0.709   0.819   2.283  0.2086 -0.2245 -0.1082
  241SOL     OW  961   0.648   0.374   0.025  0.8352  0.0384  0.4406
  241SOL    HW1  962   0.674   0.454   0.070 -3.3653 -0.3160  1.4636
  241SOL    HW2  963   0.581   0.404  -0.042 -1.4194 -1.1324 -0.8567
  241SOL     MW  964   0.642   0.389   0.022 -0.0165 -0.1628  0.4044
  242SOL     OW  965   1.508   1.681   2.334  0.2729  0.1654 -0.0643
  242SOL    HW1  966   1.453   1.760   2.344  0.2750  2.0562 -2.1971
  242SOL    HW2  967   1.464   1.639   2.261 -1.9340  0.2090 -0.0748
  242SOL     MW  968   1.495   1.686   2.326 -0.0180  0.4206 -0.3471
  243SOL     OW  969   1.044   0.215   2.503  0.0125 -0.3615  0.5053
  243SOL    HW1  970   1.115   0.219   2.432  1.5238  1.8213 -1.5737
  243SOL    HW2  971   1.074   0.281   2.566 -0.6031  1.3594  0.3341
  243SOL     MW  972   1.057   0.224   2.502  0.1307  0.1536  0.2084
  244SOL     OW  973   0.273   0.792   2.433 -0.3604 -0.0904  0.2213
  244SOL    HW1  974   0.274   0.885   2.415  0.5489 -0.4820  0.0076
  244SOL    HW2  975   0.353   0.757   2.394  0.4670  0.8502 -1.3319
  244SOL     MW  976   0.283   0.799   2.425 -0.1313 -0.0180 -0.0118
  245SOL     OW  977   1.238   0.218   2.320  0.4143 -0.3229 -0.2555
  245SOL    HW1  978   1.259   0.124   2.317  0.0428  1.0641 -2.4258
  245SOL    HW2  979   1.311   0.268   2.347 -0.9272 -1.8660 -2.9862
  245SOL     MW  980   1.250   0.213   2.323  0.1883 -0.3435 -0.9021
  246SOL     OW  981   1.233   1.211   2.146  0.5963 -0.2173  0.4548
  246SOL    HW1  982   1.191   1.125   2.181 -0.9010  3.8010  0.9106
  246SOL    HW2  983   1.236   1.266   2.220 -1.2321  1.3937  2.4239
  246SOL     MW  984   1.228   1.207   2.160  0.1575  0.5254  0.7747
  247SOL     OW  985   0.750   0.578   0.197  0.3434  0.2111  0.0683
  247SOL    HW1  986   0.701   0.653   0.172  1.5037  1.7497 -0.4039
  247SOL    HW2  987   0.840   0.601   0.166 -0.2750  3.7641 -0.1235
  247SOL     MW  988   0.755   0.591   0.190  0.4149  0.8829 -0.0193
  248SOL     OW  989   0.332   1.351   2.493 -0.7672  0.6246  0.6255
  248SOL    HW1  990   0.393   1.364   2.419 -0.5984 -0.1079 -0.1212
  248SOL    HW2  991   0.384   1.397   2.565  0.8595  1.3942 -1.4836
  248SOL     MW  992   0.347   1.359   2.493 -0.5303  0.6295  0.2487
  249SOL     OW  993   0.179   1.912   2.729 -0.0741 -0.0922 -0.2239
  249SOL    HW1  994   0.162   1.836   2.679  1.6875  1.9277  0.8115
  249SOL    HW2  995   0.201   1.880   2.821 -0.9111  0.0023  1.4200
  249SOL     MW  996   0.180   1.898   2.734  0.0479  0.1868  0.1296
  250SOL     OW  997   2.170   0.890   2.279  0.0646  0.1432 -0.3729
  250SOL    HW1  998   2.247   0.828   2.305 -1.0973  3.6996  1.0084
  250SOL    HW2  999   2.205   0.971   2.314 -0.7264  0.9956 -0.5641
  250SOL     MW 1000   2.185   0.892   2.287 -0.1930  0.7249 -0.2159
  251SOL     OW 1001   0.148   0.867   1.986 -0.4569 -0.0417  0.0370
  251SOL    HW1 1002   0.088   0.789   1.990  3.7832 -0.8501  0.6573
  251SOL    HW2 1003   0.151   0.870   1.890  0.3007 -2.5283  1.4601
  251SOL     MW 1004   0.141   0.857   1.974  0.2025 -0.4764  0.3066
  252SOL     OW 1005   1.719   1.001   2.849  0.1889 -0.0170  0.4159
  252SOL    HW1 1006   1.730   1.044   2.935  0.1067  1.7941  1.8119
  252SOL    HW2 1007   1.777   1.044   2.786  0.1678  0.1294 -0.7008
  252SOL     MW 1008   1.728   1.012   2.852  0.1753  0.2413  0.4527
  253SOL     OW 1009   1.233   1.776   2.559 -0.9354 -0.1311  0.2830
  253SOL    HW1 1010   1.211   1.784   2.464  0.9910 -3.8263 -1.9461
  253SOL    HW2 1011   1.146   1.814   2.579 -0.9424 -1.6577  0.8298
  253SOL     MW 1012   1.218   1.782   2.549 -0.6822 -0.8200  0.0610
  254SOL     OW 1013   1.076   1.005   2.241  0.3965  0.0537 -0.3273
  254SOL    HW1 1014   1.029   0.924   2.260 -0.8022  1.6702  1.5609
  254SOL    HW2 1015   1.007   1.070   2.234 -0.4714  2.5080 -0.2217
  254SOL     MW 1016   1.060   1.003   2.243  0.1238  0.5908 -0.0643
  255SOL     OW 1017   0.767   2.581   2.151  0.1667 -0.2598  0.3585
  255SOL    HW1 1018   0.702   2.530   2.196  1.5014 -0.6229  2.0841
  255SOL    HW2 1019   0.846   2.554   2.199  1.0974 -0.6331  0.9441
  255SOL     MW 1020   0.769   2.570   2.163  0.4656 -0.3569  0.6634
  256SOL     OW 1021   1.324   2.664   2.951  0.4950 -0.1519  0.0100
  256SOL    HW1 1022   1.329   2.590   2.887 -0.0939  2.3977  0.6382
  256SOL    HW2 1023   1.402   2.715   2.930 -0.7099  2.8599 -0.1635
  256SOL     MW 1024   1.335   2.661   2.940  0.2583  0.5819  0.0700
  257SOL     OW 1025   0.120   1.892   0.062  0.4607 -0.5746 -0.0736
  257SOL    HW1 1026   0.117   1.844   0.149 -0.4139  0.5743  1.7387
  257SOL    HW2 1027   0.169   1.842  -0.004  1.7756  0.5767  0.7451
  257SOL     MW 1028   0.126   1.879   0.065  0.5188 -0.2711  0.2735
  258SOL     OW 1029   0.759   1.038   2.445  0.3591  0.6308 -0.3499
  258SOL    HW1 1030   0.792   1.105   2.374  1.6410  0.8074 -1.5050
  258SOL    HW2 1031   0.722   1.075   2.525  1.2394 -0.6302  1.6058
  258SOL     MW 1032   0.758   1.052   2.446  0.6444  0.4877 -0.2443
  259SOL     OW 1033   0.832   0.367   2.366 -0.4126  0.4041  0.0098
  259SOL    HW1 1034   0.776   0.316   2.422  1.4311 -2.5870  0.6367
  259SOL    HW2 1035   0.916   0.334   2.398 -0.7164  0.9963 -0.3285
  259SOL     MW 1036   0.835   0.356   2.377 -0.2095  0.0876  0.0478
  260SOL     OW 1037   0.487   0.141   1.559  0.2201  0.0119 -0.3252
  260SOL    HW1 1038   0.439   0.070   1.512 -0.5814  1.4622 -1.4509
  260SOL    HW2 1039   0.582   0.117   1.545  3.1779 -1.6069  0.8749
  260SOL     MW 1040   0.493   0.129   1.551  0.5046 -0.0103 -0.3154
  261SOL     OW 1041   1.191   0.760   2.015 -1.4262 -0.2021  0.1557
  261SOL    HW1 1042   1.211   0.773   2.107  0.9079 -1.8412 -0.4802
  261SOL    HW2 1043   1.226   0.675   1.999 -3.1071 -2.0164  0.8401
  261SOL     MW 1044   1.198   0.750   2.025 -1.3400 -0.6577  0.1621
  262SOL     OW 1045   1.037   0.336   0.155 -0.5987 -0.3310 -0.3698
  262SOL    HW1 1046   1.133   0.330   0.126 -0.1474  1.4736 -0.3378
  262SOL    HW2 1047   0.988   0.265   0.109 -0.2191 -1.2104 -1.3929
  262SOL     MW 1048   1.043   0.326   0.145 -0.4891 -0.2089 -0.5006
  263SOL     OW 1049   0.409   3.092   2.502  0.1575  0.2153 -0.1122
  263SOL    HW1 1050   0.348   3.165   2.490 -0.4760  1.5711 -1.4691
  263SOL    HW2 1051   0.470   3.104   2.427  1.1501  0.7290 -0.1783
  263SOL     MW 1052   0.409   3.103   2.490  0.2049  0.4620 -0.3000
  264SOL     OW 1053   1.479   1.344   1.880 -0.0722  0.2109 -0.5521
  264SOL    HW1 1054   1.407   1.357   1.937 -0.1347 -0.2493 -1.6785
  264SOL    HW2 1055   1.553   1.342   1.941 -0.1811 -0.6874  2.5135
  264SOL     MW 1056   1.479   1.345   1.895 -0.0948  0.0317 -0.2963
  265SOL     OW 1057   0.706   2.814   2.282  0.0957 -0.0018 -0.1689
  265SOL    HW1 1058   0.734   2.732   2.235 -0.7367  1.0372 -3.1753
  265SOL    HW2 1059   0.721   2.790   2.373 -1.6886 -0.6574  1.7644
  265SOL     MW 1060   0.712   2.800   2.288 -0.2495  0.0488 -0.3105
  266SOL     OW 1061   0.979   0.739   2.226 -0.2450  0.3583 -0.2745
  266SOL    HW1 1062   0.989   0.759   2.131 -1.9430  1.9704  1.7375
  266SOL    HW2 1063   1.068   0.713   2.251 -1.6708  1.7353 -1.4782
  266SOL     MW 1064   0.992   0.738   2.217 -0.6572  0.7527 -0.1679
  267SOL     OW 1065   1.441   1.778   2.773  0.1451  0.2984 -0.6859
  267SOL    HW1 1066   1.485   1.711   2.725 -1.6924 -2.4454  0.9621
  267SOL    HW2 1067   1.378   1.816   2.711  1.8846 -2.8475  0.1571
  267SOL     MW 1068   1.438   1.774   2.758  0.1322 -0.4787 -0.3572
  268SOL     OW 1069   0.186   0.816   1.667  0.1287  0.4045 -0.1799
  268SOL    HW1 1070   0.151   0.862   1.592  0.9299  0.0699 -2.3828
  268SOL    HW2 1071   0.177   0.720   1.652  0.6607 -0.0775 -2.2919
  268SOL     MW 1072   0.180   0.809   1.655  0.3046  0.2967 -0.7492
  269SOL     OW 1073   1.416   1.940   2.368  0.1110  0.4082 -0.1828
  269SOL    HW1 1074   1.485   2.007   2.382 -0.4947  0.1749  0.1061
  269SOL    HW2 1075   1.339   1.974   2.405  1.1096 -0.9338 -1.3822
  269SOL     MW 1076   1.415   1.954   2.375  0.1629  0.2003 -0.3029
  270SOL     OW 1077   1.121   0.405   1.651  0.1113 -0.2315  0.0669
  270SOL    HW1 1078   1.077   0.320   1.666 -0.9276 -2.4570  1.4393
  270SOL    HW2 1079   1.206   0.374   1.624  1.3140 -0.2179  1.3127
  270SOL     MW 1080   1.126   0.390   1.649  0.1329 -0.5233  0.4123
  271SOL     OW 1081   0.877   0.017   2.542 -0.8400 -0.3383  0.1631
  271SOL    HW1 1082   0.930  -0.030   2.608 -1.5435  0.1283 -0.5409
  271SOL    HW2 1083   0.943   0.090   2.522  1.8304  0.8061  0.3608
  271SOL     MW 1084   0.892   0.020   2.548 -0.5805 -0.1257  0.0963
  272SOL     OW 1085   1.489   2.870   2.830 -0.4420 -0.2960 -0.0897
  272SOL    HW1 1086   1.433   2.861   2.756  1.7415 -2.2226  0.6148
  272SOL    HW2 1087   1.527   2.956   2.822  0.3788  1.9165 -2.6340
  272SOL     MW 1088   1.487   2.880   2.819 -0.0456 -0.2582 -0.3324
  273SOL     OW 1089   1.451   0.990   2.819  0.0821 -0.4109  0.1186
  273SOL    HW1 1090   1.542   1.014   2.837 -2.5084  1.7128  0.7598
  273SOL    HW2 1091   1.394   1.044   2.876 -1.4004  0.7781  0.0271
  273SOL     MW 1092   1.456   1.000   2.829 -0.4553  0.0262  0.1911
  274SOL     OW 1093   1.480   0.719   0.117 -0.2190 -0.3277 -0.2738
  274SOL    HW1 1094   1.509   0.628   0.124 -0.7231  1.2352  3.1527
  274SOL    HW2 1095   1.409   0.720   0.187  0.2387 -1.0067 -4.4136
  274SOL     MW 1096   1.474   0.707   0.127 -0.2251 -0.2110 -0.3679
  275SOL     OW 1097   1.723   0.541   1.750 -0.5222  0.1877 -0.2511
  275SOL    HW1 1098   1.773   0.585   1.819  1.5931 -0.3965 -0.7215
  275SOL    HW2 1099   1.743   0.445   1.763  1.4333 -1.9582 -0.1689
  275SOL     MW 1100   1.732   0.534   1.761  0.0149 -0.1725 -0.3023
  276SOL     OW 1101   0.318   1.208   1.901  0.3204 -0.5167  0.1770
  276SOL    HW1 1102   0.365   1.127   1.940  2.0022 -1.4951 -0.0058
  276SOL    HW2 1103   0.229   1.199   1.939 -0.8846  2.6487  1.3575
  276SOL     MW 1104   0.313   1.196   1.911  0.3833 -0.2282  0.3086
  277SOL     OW 1105   1.887   1.273   2.410  0.1979 -0.3957 -0.1523
  277SOL    HW1 1106   1.947   1.340   2.456 -0.2839  3.7242 -0.4395
  277SOL    HW2 1107   1.899   1.274   2.315  1.5833 -2.6097 -1.4087
  277SOL     MW 1108   1.897   1.282   2.403  0.3171 -0.1443 -0.3559
  278SOL     OW 1109   1.452   0.608   1.733 -0.0472 -0.0360 -0.2385
  278SOL    HW1 1110   1.415   0.560   1.813  0.8551 -1.3984 -0.7550
  278SOL    HW2 1111   1.546   0.585   1.743  0.8639 -2.2440  1.9843
  278SOL     MW 1112   1.460   0.599   1.745  0.1921 -0.5071 -0.0134
  279SOL     OW 1113   0.566   0.032   2.264  0.3778  0.2350 -0.1116
  279SOL    HW1 1114   0.653  -0.008   2.253  3.1038 -1.0103 -0.8402
  279SOL    HW2 1115   0.579   0.122   2.236  2.5319 -2.3468 -2.7809
  279SOL     MW 1116   0.579   0.039   2.259  1.0217 -0.2699 -0.5599
  280SOL     OW 1117   1.479   0.962   2.144  0.6323 -0.0279  0.6498
  280SOL    HW1 1118   1.522   0.892   2.090  2.1871  0.8986  2.1457
  280SOL    HW2 1119   1.474   0.932   2.236 -0.3105 -0.9813 -0.6885
  280SOL     MW 1120   1.484   0.949   2.149  0.7131 -0.0314  0.6706
  281SOL     OW 1121   1.289   1.350   2.777  0.6514  0.5086 -0.1471
  281SOL    HW1 1122   1.383   1.349   2.759 -2.8319 -0.1801 -0.2559
  281SOL    HW2 1123   1.283   1.291   2.854 -1.0423 -0.7225 -0.6672
  281SOL     MW 1124   1.301   1.342   2.785 -0.0317  0.2553 -0.2301
  282SOL     OW 1125   1.100   1.298   1.693  0.2091 -0.0363 -0.3388
  282SOL    HW1 1126   1.083   1.387   1.647  1.3318  0.0983  2.3455
  282SOL    HW2 1127   1.071   1.299   1.783 -2.8495  1.7871 -0.3013
  282SOL     MW 1128   1.094   1.310   1.698 -0.0463  0.2221  0.0203
  283SOL     OW 1129   0.812   1.195   2.994  0.5894  0.0229 -0.4681
  283SOL    HW1 1130   0.874   1.152   3.054 -0.8021 -2.8922  3.6455
  283SOL    HW2 1131   0.800   1.279   3.036  1.2800  0.1085  2.2132
  283SOL     MW 1132   0.819   1.201   3.008  0.4969 -0.3504  0.4284
  284SOL     OW 1133   0.524   0.658   2.388  0.0907  0.0660  0.0915
  284SOL    HW1 1134   0.579   0.729   2.337 -1.7980  2.1264  2.4473
  284SOL    HW2 1135   0.487   0.602   2.320 -0.7736  1.2096  1.9018
  284SOL     MW 1136   0.526   0.660   2.372 -0.2725  0.4887  0.6412
  285SOL     OW 1137   0.943   0.935   2.820  0.2139 -0.1913 -0.1918
  285SOL    HW1 1138   0.996   0.969   2.748 -1.1497  0.5673 -0.4566
  285SOL    HW2 1139   0.898   0.852   2.788 -1.3851 -0.7319 -0.7129
  285SOL     MW 1140   0.944   0.928   2.806 -0.1770 -0.1625 -0.2955
  286SOL     OW 1141   1.172   1.493   2.588 -0.2330  0.2964 -0.0470
  286SOL    HW1 1142   1.243   1.464   2.642 -1.0748 -0.2764 -0.3911
  286SOL    HW2 1143   1.196   1.580   2.600 -0.4358  0.0221 -0.3548
  286SOL     MW 1144   1.185   1.501   2.597 -0.3709  0.1847 -0.1330
  287SOL     OW 1145   1.119   0.936   0.295  0.4186 -0.5305  0.6100
  287SOL    HW1 1146   1.136   0.983   0.379  3.2482 -1.2703 -1.4919
  287SOL    HW2 1147   1.027   0.918   0.295  0.9383  0.7115 -0.6317
  287SOL     MW 1148   1.109   0.940   0.306  0.8605 -0.4643  0.1689
  288SOL     OW 1149   1.535   0.576   2.101  0.1126  0.4262 -0.1039
  288SOL    HW1 1150   1.503   0.606   2.186 -1.5922  1.9273  0.9155
  288SOL    HW2 1151   1.585   0.648   2.060  0.3135 -1.1937 -0.7977
  288SOL     MW 1152   1.537   0.589   2.107 -0.0858  0.4105 -0.0609
  289SOL     OW 1153   1.023   1.033   2.571  1.0789 -0.5056  0.0101
  289SOL    HW1 1154   1.062   0.948   2.554  1.7908 -0.6948  2.2495
  289SOL    HW2 1155   0.936   1.026   2.533  2.1211  1.6613  0.0938
  289SOL     MW 1156   1.017   1.021   2.564  1.3103 -0.2447  0.3166
  290SOL     OW 1157   0.825   0.659   1.595  0.2868  0.1077 -0.3598
  290SOL    HW1 1158   0.859   0.602   1.528 -0.5264  0.9182  0.8501
  290SOL    HW2 1159   0.881   0.650   1.672  2.0409  2.0510 -1.0557
  290SOL     MW 1160   0.837   0.650   1.596  0.4110  0.4711 -0.2920
  291SOL     OW 1161   0.221   0.359   0.114  0.1737  0.8181 -0.2167
  291SOL    HW1 1162   0.288   0.306   0.160  0.5379  2.6939  3.1448
  291SOL    HW2 1163   0.143   0.311   0.083 -0.6408 -2.0105 -0.7882
  291SOL     MW 1164   0.220   0.345   0.116  0.1143  0.6924  0.1514
  292SOL     OW 1165   1.013   0.591   0.097 -0.1590 -0.4370  0.0139
  292SOL    HW1 1166   1.083   0.641   0.139  0.7668  2.2992  1.8303
  292SOL    HW2 1167   1.019   0.495   0.120  0.2064 -0.7575 -0.2298
  292SOL     MW 1168   1.023   0.585   0.105  0.0114 -0.1183  0.2214
  293SOL     OW 1169   0.169   0.131   2.434 -0.6150  0.1460 -0.1431
  293SOL    HW1 1170   0.099   0.079   2.388 -1.1188 -1.5266  0.8096
  293SOL    HW2 1171   0.125   0.196   2.484  1.1475  1.0807 -1.1863
  293SOL     MW 1172   0.154   0.133   2.434 -0.4489  0.0486 -0.1551
  294SOL     OW 1173   1.497   0.637   2.368 -0.3798 -0.1349 -0.0158
  294SOL    HW1 1174   1.490   0.691   2.446 -1.4111  4.6820  0.6990
  294SOL    HW2 1175   1.486   0.547   2.389  0.1411 -0.1347 -3.0150
  294SOL     MW 1176   1.495   0.632   2.381 -0.4471  0.5007 -0.3172
  295SOL     OW 1177   0.918   0.597   2.527  0.6426 -0.2258  0.1519
  295SOL    HW1 1178   0.869   0.548   2.461 -3.4027 -1.0636 -1.6987
  295SOL    HW2 1179   0.869   0.615   2.608 -0.3531 -3.4347 -0.8096
  295SOL     MW 1180   0.905   0.593   2.529 -0.0225 -0.7597 -0.2191
  296SOL     OW 1181   1.311   0.261   2.057  0.2463  0.0785 -0.0113
  296SOL    HW1 1182   1.378   0.199   2.031 -0.4278  0.3128  1.2624
  296SOL    HW2 1183   1.294   0.233   2.151  0.7758  1.2753 -1.1362
  296SOL     MW 1184   1.318   0.249   2.066  0.2272  0.2673  0.0084
  297SOL     OW 1185   1.377   0.360   1.629 -0.1085 -0.3089 -0.0964
  297SOL    HW1 1186   1.397   0.450   1.661  0.5703  2.2117 -0.9647
  297SOL    HW2 1187   1.432   0.299   1.680 -1.0527 -0.7310 -0.5851
  297SOL     MW 1188   1.387   0.364   1.640 -0.1435 -0.0320 -0.2754
  298SOL     OW 1189   1.651   0.797   1.980 -0.1378 -0.3573 -0.2229
  298SOL    HW1 1190   1.644   0.877   1.926  0.3085  0.6941  2.5792
  298SOL    HW2 1191   1.710   0.815   2.056 -1.4457  0.3626  0.9714
  298SOL     MW 1192   1.658   0.810   1.983 -0.2515 -0.1236  0.3044
  299SOL     OW 1193   0.576   1.087   0.048 -0.1807 -0.5032  0.2467
  299SOL    HW1 1194   0.657   1.126   0.020 -3.3279 -0.1952  0.9468
  299SOL    HW2 1195   0.506   1.125  -0.003 -0.3932  0.9661  1.0057
  299SOL     MW 1196   0.577   1.098   0.038 -0.6240 -0.2687  0.4392
  300SOL     OW 1197   1.307   1.139   2.531  0.2881 -0.4664 -0.1745
  300SOL    HW1 1198   1.221   1.115   2.507  1.1277 -2.3660 -1.7974
  300SOL    HW2 1199   1.304   1.181   2.619  2.2417 -1.9244 -0.6131
  300SOL     MW 1200   1.295   1.141   2.539  0.6566 -0.9094 -0.4465
  301SOL     OW 1201   1.471   0.915   0.642  0.1666 -0.1280 -0.0697
  301SOL    HW1 1202   1.453   0.955   0.729  1.2280 -1.1257 -1.8795
  301SOL    HW2 1203   1.397   0.858   0.626  2.9059  1.2043 -0.8272
  301SOL     MW 1204   1.459   0.912   0.651  0.6681 -0.0838 -0.4085
  302SOL     OW 1205   0.121   1.500   2.010 -0.5056  0.7551 -0.3059
  302SOL    HW1 1206   0.146   1.440   2.077  0.0915 -0.2537 -1.1867
  302SOL    HW2 1207   0.043   1.556   2.049  0.2413  3.7780 -1.2006
  302SOL     MW 1208   0.114   1.499   2.024 -0.3283  1.0208 -0.5402
  303SOL     OW 1209   0.382   1.730   2.619  0.5739  0.3942 -0.7577
  303SOL    HW1 1210   0.342   1.710   2.531  0.5187 -2.5501 -1.6185
  303SOL    HW2 1211   0.340   1.807   2.656 -4.2335  0.6586  0.6135
  303SOL     MW 1212   0.371   1.737   2.613 -0.0677  0.0406 -0.6903
  304SOL     OW 1213   0.554   2.071   2.354  0.3380  0.0889  0.2584
  304SOL    HW1 1214   0.612   2.136   2.309  0.2366 -3.2185  0.2521
  304SOL    HW2 1215   0.616   2.003   2.387  0.9900 -0.1681 -0.4933
  304SOL     MW 1216   0.570   2.071   2.352  0.4107 -0.3814  0.1584
  305SOL     OW 1217   1.126   0.586   0.462 -0.0378  0.1441 -0.8964
  305SOL    HW1 1218   1.036   0.554   0.470 -1.1161 -1.8688 -0.9473
  305SOL    HW2 1219   1.166   0.507   0.497  0.5012 -0.6736  1.3670
  305SOL     MW 1220   1.119   0.571   0.467 -0.1090 -0.2294 -0.6045
  306SOL     OW 1221   1.159   1.466   0.266 -0.2374 -0.3229 -0.0777
  306SOL    HW1 1222   1.224   1.397   0.292 -0.0586  0.1296 -1.2809
  306SOL    HW2 1223   1.204   1.504   0.195 -0.4282 -3.1237  1.7249
  306SOL     MW 1224   1.174   1.462   0.260 -0.2390 -0.6328  0.0014
  307SOL     OW 1225   1.323   0.510   1.956 -0.0099  0.3456 -0.0202
  307SOL    HW1 1226   1.301   0.416   1.976 -1.3924 -1.8160  2.3464
  307SOL    HW2 1227   1.400   0.543   2.016 -0.8906  1.5353  1.3859
  307SOL     MW 1228   1.330   0.502   1.967 -0.3085  0.2174  0.4776
  308SOL     OW 1229   2.143   0.547   2.726  0.2597 -0.0442  0.0637
  308SOL    HW1 1230   2.223   0.510   2.755 -2.7651  0.8572 -2.8795
  308SOL    HW2 1231   2.151   0.645   2.728  1.5914  0.0461  0.5946
  308SOL     MW 1232   2.155   0.555   2.730  0.0363  0.0866 -0.2546
  309SOL     OW 1233   0.457   0.416   0.362  0.3257  0.2203 -0.5837
  309SOL    HW1 1234   0.521   0.367   0.413 -2.0155  0.0118  1.8761
  309SOL    HW2 1235   0.460   0.372   0.278  2.0035  1.2140 -1.5945
  309SOL     MW 1236   0.466   0.404   0.357  0.2382  0.3239 -0.3925
  310SOL     OW 1237   0.483   0.623   1.944 -0.8598  0.3791 -0.3546
  310SOL    HW1 1238   0.529   0.535   1.920 -0.2960  0.2732  1.7057
  310SOL    HW2 1239   0.547   0.683   1.909  2.0014  2.9371  2.5810
  310SOL     MW 1240   0.498   0.620   1.936 -0.4079  0.7027  0.3046
  311SOL     OW 1241   1.929   0.666   1.894  0.0039 -0.9214  0.0217
  311SOL    HW1 1242   1.894   0.703   1.973  0.1989 -0.9192  3.2546
  311SOL    HW2 1243   1.975   0.589   1.936 -1.6277 -2.4072 -1.7536
  311SOL     MW 1244   1.931   0.661   1.910 -0.1857 -1.1171  0.2140
  312SOL     OW 1245   1.759   2.545   0.133  0.0648 -0.8508 -0.0585
  312SOL    HW1 1246   1.829   2.557   0.197 -0.1745 -2.3533  0.4889
  312SOL    HW2 1247   1.673   2.591   0.167 -0.6028  1.2978 -0.0849
  312SOL     MW 1248   1.757   2.552   0.146 -0.0549 -0.7655  0.0102
  313SOL     OW 1249   0.101   1.117   2.990  0.8066 -0.8093 -0.2233
  313SOL    HW1 1250   0.089   1.129   3.083 -1.7556  0.6356 -0.8507
  313SOL    HW2 1251   0.140   1.198   2.954 -0.1178 -0.4992  0.4339
  313SOL     MW 1252   0.104   1.129   2.997  0.3466 -0.5777 -0.2193
  314SOL     OW 1253   2.167   2.934   2.974  0.6269  0.3124 -0.6713
  314SOL    HW1 1254   2.106   2.966   2.910  1.7270 -0.1663  1.8417
  314SOL    HW2 1255   2.221   3.005   3.008  0.9974 -2.4464  0.3047
  314SOL     MW 1256   2.166   2.948   2.970  0.8209 -0.1147 -0.2110
  315SOL     OW 1257   1.516   1.970   0.014 -0.4009 -0.1575  0.5307
  315SOL    HW1 1258   1.441   1.979   0.072 -0.1620 -1.1513  0.7062
  315SOL    HW2 1259   1.516   2.032  -0.052 -2.0843 -1.1627 -0.2088
  315SOL     MW 1260   1.506   1.979   0.013 -0.5915 -0.4212  0.4563
  316SOL     OW 1261   1.272   0.670   2.719 -0.5290 -0.5220 -0.1256
  316SOL    HW1 1262   1.353   0.693   2.679 -0.7845 -2.1235 -0.5299
  316SOL    HW2 1263   1.293   0.694   2.809 -1.1340 -0.6615  2.2417
  316SOL     MW 1264   1.285   0.676   2.726 -0.6425 -0.7517  0.1334
  317SOL     OW 1265   0.724   1.439   2.585 -0.1475 -0.7934  0.0310
  317SOL    HW1 1266   0.797   1.372   2.592 -0.0501  0.0702 -1.1976
  317SOL    HW2 1267   0.744   1.473   2.491  0.9257  0.0359 -0.7748
  317SOL     MW 1268   0.736   1.435   2.573  0.0069 -0.5700 -0.2374
  318SOL     OW 1269   1.321   0.354   2.915  0.3843 -0.3046  0.2793
  318SOL    HW1 1270   1.233   0.406   2.901 -0.9367  2.8452  0.0888
  318SOL    HW2 1271   1.390   0.422   2.935 -0.5384  0.5825  0.6981
  318SOL     MW 1272   1.319   0.370   2.916  0.0882  0.2280  0.3094
  319SOL     OW 1273   0.790   0.426   2.879  0.4138  0.0591  0.5879
  319SOL    HW1 1274   0.765   0.366   2.809  1.2110  3.0301 -0.7663
  319SOL    HW2 1275   0.759   0.394   2.962  0.0590  1.5042 -1.9033
  319SOL     MW 1276   0.783   0.414   2.880  0.4722  0.6418  0.0805
  320SOL     OW 1277   1.068   1.348   1.969 -0.6831 -0.1535  0.8908
  320SOL    HW1 1278   1.132   1.324   2.037  0.1005  3.3115 -1.0146
  320SOL    HW2 1279   1.117   1.422   1.932  1.1851 -0.3679  0.5289
  320SOL     MW 1280   1.083   1.354   1.973 -0.3332  0.2754  0.5917
  321SOL     OW 1281   1.134   0.911   3.034  0.9139 -0.0080  0.1821
  321SOL    HW1 1282   1.071   0.914   2.966  3.1441  1.9137 -0.6586
  321SOL    HW2 1283   1.213   0.861   3.012  1.8406 -0.0864  2.2015
  321SOL     MW 1284   1.136   0.905   3.022  1.3304  0.2352  0.3376
  322SOL     OW 1285   1.274   0.858   1.688 -0.3054  0.1877  0.0512
  322SOL    HW1 1286   1.351   0.796   1.682 -0.6546  2.1921  0.1740
  322SOL    HW2 1287   1.247   0.865   1.781 -0.8928  0.4239 -0.2211
  322SOL     MW 1288   1.281   0.851   1.699 -0.4290  0.4833  0.0315
  323SOL     OW 1289   1.238   1.570   1.907 -0.3159  0.3822  0.1771
  323SOL    HW1 1290   1.279   1.584   1.817  0.7142  0.7322 -1.3480
  323SOL    HW2 1291   1.163   1.638   1.906 -0.0206  1.6937 -2.7328
  323SOL     MW 1292   1.233   1.580   1.895 -0.1410  0.6014 -0.4081
  324SOL     OW 1293   1.479   0.971   2.419 -0.5740  0.7420  0.1668
  324SOL    HW1 1294   1.424   1.013   2.482  1.1732 -3.8856 -3.3661
  324SOL    HW2 1295   1.543   1.040   2.402  0.8628 -1.9080  1.6218
  324SOL     MW 1296   1.480   0.986   2.425 -0.1539 -0.2182 -0.1073
  325SOL     OW 1297   1.064   0.444   2.976 -0.6661  0.8209  0.1828
  325SOL    HW1 1298   1.073   0.523   3.027  0.5134  1.7498 -0.8890
  325SOL    HW2 1299   0.971   0.433   2.935 -1.0853  0.9917  2.5032
  325SOL     MW 1300   1.053   0.453   2.977 -0.5658  0.9660  0.3475
  326SOL     OW 1301   0.493   1.374   2.230 -0.0054  0.4300  0.7144
  326SOL    HW1 1302   0.555   1.314   2.184 -0.3720 -1.2634  1.0451
  326SOL    HW2 1303   0.519   1.458   2.195  1.0207 -1.2869  4.0784
  326SOL     MW 1304   0.505   1.377   2.219  0.0816 -0.0200  1.2018
  327SOL     OW 1305   1.933   0.792   2.422  0.2425  0.1620  0.3574
  327SOL    HW1 1306   1.899   0.799   2.509 -1.0343  0.8863  0.5114
  327SOL    HW2 1307   2.024   0.818   2.429 -1.9211 -0.6520 -0.2998
  327SOL     MW 1308   1.940   0.796   2.434 -0.2114  0.1501  0.2910
  328SOL     OW 1309   0.167   1.314   2.236  0.4303  0.7130  0.7123
  328SOL    HW1 1310   0.132   1.237   2.187  1.7631  1.4661  1.7999
  328SOL    HW2 1311   0.259   1.304   2.236  2.0053 -0.3642  2.1946
  328SOL     MW 1312   0.174   1.302   2.230  0.8140  0.6702  1.0514
  329SOL     OW 1313   0.150   0.208   1.316  0.0204  0.6906  0.4577
  329SOL    HW1 1314   0.116   0.216   1.404  1.3977  0.5941 -1.4554
  329SOL    HW2 1315   0.241   0.214   1.340 -4.0085 -2.1821  0.5671
  329SOL     MW 1316   0.158   0.210   1.331 -0.3295  0.2988  0.2197
  330SOL     OW 1317   0.391   0.004   2.068  0.0838  0.2756  0.0889
  330SOL    HW1 1318   0.471  -0.001   2.126  1.5103  1.5196  1.0220
  330SOL    HW2 1319   0.320  -0.032   2.128 -1.3595 -1.2285  2.4310
  330SOL     MW 1320   0.392  -0.002   2.084  0.0816  0.2413  0.5210
  331SOL     OW 1321   0.871   1.215   2.280  0.5151 -0.2427  0.3081
  331SOL    HW1 1322   0.830   1.266   2.204  0.0717 -0.6666 -1.7436
  331SOL    HW2 1323   0.898   1.279   2.354 -2.1844  3.6772  1.0175
  331SOL     MW 1324   0.869   1.231   2.280  0.1004  0.2186  0.1310
  332SOL     OW 1325   1.329   1.757   3.020  0.3222 -0.3432 -0.1559
  332SOL    HW1 1326   1.365   1.778   2.933 -1.6791  0.6311 -2.0362
  332SOL    HW2 1327   1.379   1.817   3.079 -3.3232  1.0617 -1.8749
  332SOL     MW 1328   1.341   1.768   3.016 -0.4228 -0.0293 -0.6308
  333SOL     OW 1329   1.753   1.391   2.982  0.8329  0.0034  0.1493
  333SOL    HW1 1330   1.841   1.385   3.007 -2.5015  0.2404 -0.1584
  333SOL    HW2 1331   1.709   1.345   3.054 -1.8717  0.8029  2.4966
  333SOL     MW 1332   1.759   1.384   2.995  0.0361  0.1401  0.4184
  334SOL     OW 1333   1.387   0.001   2.621 -0.0597  0.1435 -0.0636
  334SOL    HW1 1334   1.318   0.028   2.677 -1.4950 -1.9774 -0.1823
  334SOL    HW2 1335   1.460   0.060   2.641 -0.2106  1.5811 -0.8299
  334SOL     MW 1336   1.388   0.012   2.631 -0.2690  0.0533 -0.1804
  335SOL     OW 1337   1.362   0.764   2.952  0.1124 -0.1822 -0.4039
  335SOL    HW1 1338   1.394   0.753   3.041  1.1090 -0.4275 -1.0714
  335SOL    HW2 1339   1.405   0.839   2.910  1.6555  0.4281 -4.0167
  335SOL     MW 1340   1.372   0.772   2.958  0.4475 -0.1340 -0.9686
  336SOL     OW 1341   0.952   1.069   1.972 -0.0086  0.3559 -0.9021
  336SOL    HW1 1342   0.965   1.166   1.983  0.0674  2.1501  2.5092
  336SOL    HW2 1343   1.023   1.039   1.914  2.5045  1.3805  2.1857
  336SOL     MW 1344   0.963   1.078   1.965  0.3330  0.7278 -0.0446
  337SOL     OW 1345   0.593   1.839   2.793 -0.2742  0.2293 -0.0026
  337SOL    HW1 1346   0.525   1.799   2.742 -0.8161  3.5245  2.7377
  337SOL    HW2 1347   0.671   1.786   2.770  1.0039 -1.3977 -0.4610
  337SOL     MW 1348   0.594   1.827   2.783 -0.1771  0.4494  0.2985
  338SOL     OW 1349   1.118   0.795   2.528 -0.0448  0.0179  0.5436
  338SOL    HW1 1350   1.034   0.742   2.513 -1.5623 -1.3047 -2.4060
  338SOL    HW2 1351   1.171   0.759   2.608  1.5098  0.0392  2.1651
  338SOL     MW 1352   1.114   0.784   2.537 -0.0399 -0.1538  0.3684
  339SOL     OW 1353   1.510   1.034   1.817 -0.9308 -0.0653  0.2814
  339SOL    HW1 1354   1.465   1.084   1.751 -0.7271 -0.6250 -0.0835
  339SOL    HW2 1355   1.444   1.006   1.876  0.0612  1.6999 -0.2684
  339SOL     MW 1356   1.496   1.037   1.816 -0.7730  0.0937  0.1607
  340SOL     OW 1357   1.326   1.536   0.071 -0.7661  0.7118 -0.0855
  340SOL    HW1 1358   1.340   1.617   0.028 -0.6826  1.2638 -2.6318
  340SOL    HW2 1359   1.412   1.494   0.083  0.7149  1.3431 -2.0058
  340SOL     MW 1360   1.339   1.541   0.067 -0.5597  0.8679 -0.6748
  341SOL     OW 1361   0.161   1.424   2.745  0.0499  0.1792  0.5391
  341SOL    HW1 1362   0.226   1.393   2.686 -1.2424 -1.2898  2.6880
  341SOL    HW2 1363   0.081   1.388   2.705  0.2150 -1.0563 -1.9955
  341SOL     MW 1364   0.159   1.415   2.732 -0.0989 -0.1776  0.4882
  342SOL     OW 1365   1.292   0.349   0.083  0.4434 -0.1098 -0.3707
  342SOL    HW1 1366   1.361   0.393   0.128 -1.8498 -0.2462  1.7775
  342SOL    HW2 1367   1.320   0.345  -0.009  0.8489 -1.1522 -0.3196
  342SOL     MW 1368   1.305   0.354   0.076  0.1943 -0.2653 -0.0805
  343SOL     OW 1369   0.218   0.289   2.148 -0.0044 -0.0243 -0.0398
  343SOL    HW1 1370   0.246   0.209   2.199 -0.2544 -2.2245  1.7202
  343SOL    HW2 1371   0.234   0.268   2.056  1.9595 -1.5462  0.4665
  343SOL     MW 1372   0.224   0.276   2.143  0.2217 -0.5154  0.2592
  344SOL     OW 1373   1.727   2.070   0.179  0.4149 -0.2845 -0.3047
  344SOL    HW1 1374   1.720   2.155   0.134  2.9892 -0.2799  2.3581
  344SOL    HW2 1375   1.678   2.013   0.118  3.4286  2.0788 -0.2634
  344SOL     MW 1376   1.719   2.074   0.165  1.1522  0.0279  0.0521
  345SOL     OW 1377   0.774   1.593   2.352  0.4110 -0.3484 -0.5600
  345SOL    HW1 1378   0.701   1.585   2.293  1.7413  2.6407  2.4367
  345SOL    HW2 1379   0.838   1.554   2.299 -0.0657 -0.3606  0.5495
  345SOL     MW 1380   0.773   1.587   2.337  0.5236  0.0444 -0.0183
  346SOL     OW 1381   1.764   1.047   0.009 -0.0411  0.0285  0.0215
  346SOL    HW1 1382   1.856   1.025   0.011 -1.2986 -3.0806 -2.0439
  346SOL    HW2 1383   1.719   0.998   0.079  2.6636 -0.4079  0.3498
  346SOL     MW 1384   1.771   1.037   0.019  0.1498 -0.4393 -0.2077
  347SOL     OW 1385   1.238   0.722   2.279 -0.4599 -0.3493 -0.0478
  347SOL    HW1 1386   1.324   0.687   2.296  0.6013 -2.3089 -1.8135
  347SOL    HW2 1387   1.210   0.753   2.367 -0.3905  0.1697  1.5923
  347SOL     MW 1388   1.246   0.722   2.293 -0.3107 -0.5394 -0.0644
  348SOL     OW 1389   1.421   2.676   1.908 -0.3524 -0.0503  0.4766
  348SOL    HW1 1390   1.440   2.588   1.952 -0.1538  2.1117  1.8964
  348SOL    HW2 1391   1.445   2.739   1.976 -0.5203 -0.7590 -1.6699
  348SOL     MW 1392   1.427   2.672   1.923 -0.3483  0.1414  0.3807
  349SOL     OW 1393   1.493   0.280   2.703 -0.5941 -0.3222  0.1685
  349SOL    HW1 1394   1.428   0.295   2.771  2.2051  1.3446  1.9518
  349SOL    HW2 1395   1.575   0.322   2.734  1.3679  2.9947  0.1382
  349SOL     MW 1396   1.495   0.287   2.716  0.0341  0.3353  0.3998
  350SOL     OW 1397   1.854   0.642   2.687 -0.5800 -0.0032 -0.3996
  350SOL    HW1 1398   1.795   0.594   2.622 -1.6279 -0.9395  0.1204
  350SOL    HW2 1399   1.931   0.593   2.679 -1.3052 -1.5489 -1.6785
  350SOL     MW 1400   1.857   0.629   2.678 -0.8139 -0.3307 -0.4997
  351SOL     OW 1401   0.059   0.993   1.482  0.0345  0.1953  0.0325
  351SOL    HW1 1402  -0.017   0.999   1.547  2.0840  1.4082  3.2714
  351SOL    HW2 1403   0.123   1.052   1.517 -0.7420  0.9213  3.1395
  351SOL     MW 1404   0.057   1.002   1.495  0.2024  0.4511  0.8698
  352SOL     OW 1405   0.823   1.660   2.683 -0.4057 -0.7005 -0.6432
  352SOL    HW1 1406   0.862   1.620   2.763  2.6796 -1.4744  0.1255
  352SOL    HW2 1407   0.782   1.584   2.640  2.3681  1.4111  0.5100
  352SOL     MW 1408   0.822   1.645   2.688  0.3674 -0.5240 -0.3896
  353SOL     OW 1409   3.064   2.497   2.637 -0.1066  0.5246 -0.1494
  353SOL    HW1 1410   3.157   2.496   2.614 -1.8207  0.0036  1.2868
  353SOL    HW2 1411   3.031   2.589   2.638 -2.1409  2.7329  0.3568
  353SOL     MW 1412   3.072   2.509   2.634 -0.6012  0.7472  0.1069
  354SOL     OW 1413   0.287   2.521   0.805  0.0409 -0.4564 -0.6836
  354SOL    HW1 1414   0.340   2.482   0.878  0.1088 -1.3352  1.0260
  354SOL    HW2 1415   0.228   2.446   0.795 -0.8645 -1.1545  0.8059
  354SOL     MW 1416   0.286   2.506   0.813 -0.0696 -0.6645 -0.2615
  355SOL     OW 1417   0.078   2.278   0.377  0.1208 -0.1080 -0.1325
  355SOL    HW1 1418   0.005   2.214   0.378  0.2489  1.0207 -0.2718
  355SOL    HW2 1419   0.052   2.330   0.454 -0.6761 -1.2060  1.4318
  355SOL     MW 1420   0.065   2.276   0.387  0.0326 -0.1040  0.0555
  356SOL     OW 1421   0.806   2.801   0.960 -0.0251 -0.3353 -0.2849
  356SOL    HW1 1422   0.836   2.840   0.873 -0.1393  1.7902 -0.5522
  356SOL    HW2 1423   0.711   2.801   0.953  2.9350  0.9781 -1.1280
  356SOL     MW 1424   0.798   2.806   0.948  0.3504  0.1184 -0.4314
  357SOL     OW 1425   1.785   2.928   0.418 -0.2159 -0.1789  0.1060
  357SOL    HW1 1426   1.714   2.863   0.446 -2.1787 -0.8567  0.5965
  357SOL    HW2 1427   1.871   2.895   0.389  2.2274  1.2378 -2.6553
  357SOL     MW 1428   1.787   2.915   0.418 -0.1525 -0.0814 -0.1936
  358SOL     OW 1429   0.472   0.138   1.101 -0.1744  0.8472 -0.5984
  358SOL    HW1 1430   0.567   0.134   1.078  0.8195 -0.7549  0.9239
  358SOL    HW2 1431   0.433   0.152   1.007  0.3718 -0.0786  0.3029
  358SOL     MW 1432   0.480   0.139   1.086  0.0288  0.5136 -0.2786
  359SOL     OW 1433   0.875   2.954   1.867  0.0592 -0.4603  0.7340
  359SOL    HW1 1434   0.857   2.878   1.921 -0.1110  1.2993 -1.6546
  359SOL    HW2 1435   0.913   2.920   1.786 -1.0588  2.4055 -1.9527
  359SOL     MW 1436   0.878   2.939   1.863 -0.1108  0.1500  0.0643
  360SOL     OW 1437   0.535   2.754   0.961  0.4405  0.5647 -0.3611
  360SOL    HW1 1438   0.542   2.697   0.886 -0.3834 -0.2228 -1.7854
  360SOL    HW2 1439   0.528   2.700   1.042 -2.2369 -0.7430  0.8961
  360SOL     MW 1440   0.535   2.739   0.962 -0.0215  0.2882 -0.3831
  361SOL     OW 1441   0.158   2.681   1.345  0.6842 -0.3888  1.0103
  361SOL    HW1 1442   0.123   2.758   1.394 -1.3827 -0.7452  1.0020
  361SOL    HW2 1443   0.249   2.677   1.372 -0.4318  0.7527  0.0532
  361SOL     MW 1444   0.166   2.691   1.355  0.2642 -0.2852  0.8829
  362SOL     OW 1445   1.488   2.429   0.610  0.0786 -0.2308  0.1736
  362SOL    HW1 1446   1.545   2.369   0.659  2.2724 -1.4065 -2.3753
  362SOL    HW2 1447   1.502   2.516   0.649 -0.6391 -1.2748 -1.4910
  362SOL     MW 1448   1.497   2.432   0.622  0.2734 -0.5237 -0.3823
  363SOL     OW 1449   0.337   3.064   0.692  0.3088 -0.2640 -0.1752
  363SOL    HW1 1450   0.329   2.997   0.768  0.8107 -1.0161  0.7101
  363SOL    HW2 1451   0.250   3.082   0.669  0.5297  0.4366  0.7531
  363SOL     MW 1452   0.324   3.058   0.699  0.4041 -0.2708  0.0641
  364SOL     OW 1453   0.707   0.183   0.211  0.6555  0.6042  0.0256
  364SOL    HW1 1454   0.653   0.100   0.223 -0.8236 -0.3711  0.9376
  364SOL    HW2 1455   0.677   0.225   0.133 -0.3464 -1.0294  0.3325
  364SOL     MW 1456   0.696   0.178   0.202  0.3281  0.2600  0.1864
  365SOL     OW 1457   0.967   1.985   1.091  0.1650  0.1391 -0.0212
  365SOL    HW1 1458   0.963   2.075   1.071 -0.2042  1.6337  0.5544
  365SOL    HW2 1459   0.907   1.937   1.032 -0.3791  0.1156  0.7260
  365SOL     MW 1460   0.959   1.991   1.081  0.0445  0.3332  0.1533
  366SOL     OW 1461   2.822   2.645   1.010 -0.0374  0.4680  0.0431
  366SOL    HW1 1462   2.896   2.662   1.077 -1.5985 -0.1048  0.6675
  366SOL    HW2 1463   2.844   2.661   0.921 -0.0846  1.1646  1.9549
  366SOL     MW 1464   2.835   2.649   1.007 -0.2496  0.4844  0.3778
  367SOL     OW 1465   1.266   2.939   0.849  0.3998  0.1954 -0.8008
  367SOL    HW1 1466   1.229   3.017   0.818  0.3231 -0.9384  2.5135
  367SOL    HW2 1467   1.218   2.862   0.806 -0.9700  2.2112 -1.6589
  367SOL     MW 1468   1.255   2.939   0.839  0.2089  0.3118 -0.4768
  368SOL     OW 1469   1.650   0.413   0.691 -0.1849  0.6269  0.0290
  368SOL    HW1 1470   1.727   0.350   0.682  1.3052 -2.2454 -2.2131
  368SOL    HW2 1471   1.692   0.496   0.682 -0.9754 -2.1518 -1.4299
  368SOL     MW 1472   1.666   0.416   0.688 -0.0926 -0.1187 -0.4593
  369SOL     OW 1473   0.113   2.519   1.666  0.0823  0.5016  0.4466
  369SOL    HW1 1474   0.212   2.508   1.667 -1.0312  1.4965  2.4878
  369SOL    HW2 1475   0.111   2.591   1.719  1.5210 -2.2431 -0.4087
  369SOL     MW 1476   0.126   2.527   1.673  0.1252  0.2707  0.6031
  370SOL     OW 1477   0.727   0.081   0.974 -0.7246 -0.0573  0.9484
  370SOL    HW1 1478   0.811   0.126   0.985 -0.2666  1.0718  0.5769
  370SOL    HW2 1479   0.743   0.006   1.030  1.8587  2.5064  0.5556
  370SOL     MW 1480   0.740   0.077   0.983 -0.3234  0.4299  0.8475
  371SOL     OW 1481   1.344   2.913   1.520 -0.0079 -1.0316  0.5673
  371SOL    HW1 1482   1.288   2.847   1.476 -1.2011 -0.1994 -1.2087
  371SOL    HW2 1483   1.346   2.993   1.460  0.8916  2.0588  1.1722
  371SOL     MW 1484   1.337   2.915   1.506 -0.0466 -0.5140  0.4128
  372SOL     OW 1485   0.758   2.302   0.469 -0.1113 -0.0342 -0.4444
  372SOL    HW1 1486   0.730   2.209   0.475  1.5240  1.1510 -0.0422
  372SOL    HW2 1487   0.788   2.311   0.379  2.1039  1.6688 -2.4157
  372SOL     MW 1488   0.758   2.291   0.458  0.3968  0.3469 -0.6514
  373SOL     OW 1489   2.753   3.026   1.428  0.2963 -0.2800  0.2516
  373SOL    HW1 1490   2.823   2.987   1.379 -2.0233  1.2113 -3.1669
  373SOL    HW2 1491   2.742   3.105   1.376 -2.0399 -2.0609  0.8572
  373SOL     MW 1492   2.760   3.031   1.415 -0.3180 -0.3182 -0.1195
  374SOL     OW 1493   1.492   0.466   0.223 -0.0437  0.1536  0.7989
  374SOL    HW1 1494   1.566   0.407   0.221  1.6444 -0.9900 -1.4724
  374SOL    HW2 1495   1.467   0.456   0.316  0.0098 -1.6880  1.4502
  374SOL     MW 1496   1.499   0.457   0.235  0.1861 -0.2403  0.5852
  375SOL     OW 1497   1.013   2.082   2.309 -0.7671  0.2009 -0.2071
  375SOL    HW1 1498   1.039   2.067   2.402 -0.3236  0.3142  3.1402
  375SOL    HW2 1499   0.993   1.998   2.273 -1.8064 -0.9809 -1.5774
  375SOL     MW 1500   1.014   2.069   2.316 -0.8457  0.0599  0.0537
  376SOL     OW 1501   0.657   2.581   0.066  0.3035 -0.5104  0.0773
  376SOL    HW1 1502   0.608   2.549   0.142  3.0076  2.7034 -4.8205
  376SOL    HW2 1503   0.656   2.505   0.011  3.9065  0.9953  1.7912
  376SOL     MW 1504   0.650   2.567   0.069  1.1357  0.1123 -0.3428
  377SOL     OW 1505   1.284   2.032   0.869 -0.1263  0.0127  0.2278
  377SOL    HW1 1506   1.224   2.016   0.795 -0.6827  1.9893  1.1587
  377SOL    HW2 1507   1.292   1.955   0.928 -1.6692 -0.4071 -2.2406
  377SOL     MW 1508   1.277   2.019   0.867 -0.4033  0.2181  0.0249
  378SOL     OW 1509   0.974   2.793   1.625 -0.7021 -0.2412 -0.4832
  378SOL    HW1 1510   0.941   2.706   1.645  0.0289  0.6097 -0.5988
  378SOL    HW2 1511   0.922   2.818   1.547 -2.3482  2.1821 -1.2406
  378SOL     MW 1512   0.963   2.785   1.617 -0.8228  0.1908 -0.5984
  379SOL     OW 1513   1.160   1.776   2.267  0.2876  0.0163 -0.0574
  379SOL    HW1 1514   1.081   1.739   2.230  0.5445 -1.1902  2.3300
  379SOL    HW2 1515   1.229   1.715   2.241 -1.8056 -1.9140 -0.2279
  379SOL     MW 1516   1.159   1.763   2.259  0.0453 -0.3975  0.2351
  380SOL     OW 1517   0.772   0.070   1.562 -0.1594  0.3546  0.4857
  380SOL    HW1 1518   0.837   0.101   1.492 -0.4054  1.7241 -2.7050
  380SOL    HW2 1519   0.827   0.082   1.644  3.9296  0.8361 -1.5656
  380SOL     MW 1520   0.788   0.076   1.564  0.3476  0.5989 -0.2059
  381SOL     OW 1521   0.811   2.047   0.777  0.1541 -0.2015  0.0500
  381SOL    HW1 1522   0.904   2.026   0.769 -1.2373  0.5314 -1.1861
  381SOL    HW2 1523   0.814   2.109   0.851 -1.7502  0.2970  2.8635
  381SOL     MW 1524   0.823   2.052   0.786 -0.2807 -0.0391  0.2581
  382SOL     OW 1525   0.649   0.117   0.704  0.5376 -0.1437  0.4966
  382SOL    HW1 1526   0.676   0.107   0.805  0.7022  1.2527  1.7266
  382SOL    HW2 1527   0.591   0.044   0.697  1.7813 -0.6415  0.3184
  382SOL     MW 1528   0.645   0.106   0.716  0.7234 -0.0252  0.6354
  383SOL     OW 1529   0.569   3.039   0.305 -0.3608 -0.0448 -0.2852
  383SOL    HW1 1530   0.618   2.978   0.251 -0.6171 -2.2405  0.1254
  383SOL    HW2 1531   0.506   2.991   0.349  1.2989 -1.3302 -3.1392
  383SOL     MW 1532   0.567   3.025   0.304 -0.1756 -0.5041 -0.6076
  384SOL     OW 1533   0.632   2.915   0.619 -0.3820 -0.5184  0.1402
  384SOL    HW1 1534   0.722   2.893   0.647  0.1761 -2.5443  1.0794
  384SOL    HW2 1535   0.580   2.837   0.648 -0.3615 -1.7880  0.3261
  384SOL     MW 1536   0.637   2.902   0.626 -0.3057 -0.9532  0.2886
  385SOL     OW 1537   1.336   2.101   1.530 -0.1614 -0.4184  0.0663
  385SOL    HW1 1538   1.424   2.098   1.574  1.2099  1.6904  1.4508
  385SOL    HW2 1539   1.307   2.018   1.563  0.4744  0.9619 -1.2838
  385SOL     MW 1540   1.344   2.090   1.540  0.1035  0.0420  0.0708
  386SOL     OW 1541   1.308   0.389   0.860  0.2973  0.6586  0.3476
  386SOL    HW1 1542   1.226   0.416   0.901 -1.6615 -1.3665 -0.5648
  386SOL    HW2 1543   1.315   0.302   0.904  0.4414  0.1735  0.9196
  386SOL     MW 1544   1.298   0.381   0.871  0.0579  0.3274  0.3027
  387SOL     OW 1545   0.849   2.172   1.483 -0.5464  0.1391 -0.1046
  387SOL    HW1 1546   0.898   2.232   1.431 -0.4598 -0.5870 -0.6521
  387SOL    HW2 1547   0.866   2.088   1.438  1.2110  0.7497  1.9985
  387SOL     MW 1548   0.857   2.169   1.470 -0.3031  0.1239  0.1007
  388SOL     OW 1549   1.568   2.808   1.234 -0.1347  0.1342 -0.4976
  388SOL    HW1 1550   1.483   2.786   1.200  1.5974 -2.6887  2.6643
  388SOL    HW2 1551   1.636   2.761   1.186  0.2832 -3.0231  1.2221
  388SOL     MW 1552   1.566   2.799   1.223  0.1490 -0.6549  0.1465
  389SOL     OW 1553   0.458   0.065   3.038  0.0522  0.3400 -0.9115
  389SOL    HW1 1554   0.551   0.047   3.019 -2.8534  0.4584  1.4507
  389SOL    HW2 1555   0.434   0.100   2.950  0.9326 -0.6299  0.7958
  389SOL     MW 1556   0.467   0.067   3.024 -0.2150  0.2276 -0.3746
  390SOL     OW 1557   1.285   0.102   0.672 -0.2864 -0.2622  0.9144
  390SOL    HW1 1558   1.335   0.099   0.592  2.0190  1.0751  1.2482
  390SOL    HW2 1559   1.353   0.104   0.738 -0.4444  0.9341 -2.2527
  390SOL     MW 1560   1.301   0.102   0.670 -0.0031  0.0721  0.5406
  391SOL     OW 1561   0.315   2.210   1.403 -0.1170  0.6878  0.1121
  391SOL    HW1 1562   0.292   2.114   1.430 -0.5451 -0.8387  1.9277
  391SOL    HW2 1563   0.235   2.267   1.396 -1.0240 -0.5413  0.5197
  391SOL     MW 1564   0.301   2.205   1.405 -0.2932  0.3242  0.4054
  392SOL     OW 1565   2.073   2.185   0.340  0.5070  0.1969 -0.6456
  392SOL    HW1 1566   2.160   2.146   0.334  0.1240  0.1114  1.8840
  392SOL    HW2 1567   2.082   2.263   0.399  0.6718  1.6070  0.9184
  392SOL     MW 1568   2.086   2.190   0.347  0.4782  0.3716 -0.1055
  393SOL     OW 1569   0.157   3.022   2.750  0.3022 -0.2947 -0.4072
  393SOL    HW1 1570   0.229   3.013   2.687 -0.1151  3.3141  2.1023
  393SOL    HW2 1571   0.135   3.113   2.754  0.8174 -0.0745 -1.3627
  393SOL     MW 1572   0.164   3.032   2.742  0.3151  0.2105 -0.2022
  394SOL     OW 1573   0.869   1.772   1.550 -0.6741  0.2237  0.5793
  394SOL    HW1 1574   0.797   1.789   1.611  0.4842 -2.2031 -1.8939
  394SOL    HW2 1575   0.896   1.849   1.499  0.5223  0.3440 -1.7316
  394SOL     MW 1576   0.863   1.784   1.551 -0.3634 -0.0806 -0.0519
  395SOL     OW 1577   1.037   2.793   2.593 -0.4589  0.1524  0.3447
  395SOL    HW1 1578   1.087   2.877   2.610  3.4024 -0.0237  0.8648
  395SOL    HW2 1579   1.092   2.730   2.549 -2.0269 -0.3495 -0.6548
  395SOL     MW 1580   1.051   2.796   2.589 -0.1563  0.0629  0.2814
  396SOL     OW 1581   0.739   1.861   2.395  0.1927  0.3931  0.2390
  396SOL    HW1 1582   0.809   1.863   2.461 -1.2620 -0.1974  0.2414
  396SOL    HW2 1583   0.725   1.764   2.369 -2.3740 -0.7343 -2.9611
  396SOL     MW 1584   0.747   1.849   2.400 -0.3379  0.1664 -0.1829
  397SOL     OW 1585   1.008   2.308   1.252 -0.4753 -0.2292  0.1605
  397SOL    HW1 1586   1.035   2.336   1.159  0.1820 -1.2375 -1.8958
  397SOL    HW2 1587   1.095   2.297   1.297 -0.3094 -1.9864  0.6599
  397SOL     MW 1588   1.023   2.310   1.246 -0.3667 -0.5941 -0.0449
  398SOL     OW 1589   0.529   2.666   0.700 -0.1631  0.1280 -0.4432
  398SOL    HW1 1590   0.453   2.631   0.663  2.4761 -1.2191 -1.7484
  398SOL    HW2 1591   0.610   2.619   0.665  0.1860  0.6186 -1.4585
  398SOL     MW 1592   0.530   2.655   0.690  0.2311  0.0150 -0.7494
  399SOL     OW 1593   0.257   2.068   0.393  0.5068 -0.0212 -0.0044
  399SOL    HW1 1594   0.181   2.122   0.406 -2.2758 -3.2966  1.8587
  399SOL    HW2 1595   0.305   2.105   0.324  0.2055 -2.1974 -2.8951
  399SOL     MW 1596   0.253   2.080   0.386  0.0999 -0.7405 -0.1399
  400SOL     OW 1597   0.500   1.909   0.180 -0.5710  0.4585 -0.4378
  400SOL    HW1 1598   0.434   1.979   0.178 -1.7427 -0.3952 -0.1130
  400SOL    HW2 1599   0.489   1.852   0.255  0.9989  2.4269 -0.1802
  400SOL     MW 1600   0.490   1.911   0.189 -0.5184  0.6056 -0.3610
  401SOL     OW 1601   0.786   2.020   0.109 -0.0835  0.2360 -0.2178
  401SOL    HW1 1602   0.842   1.951   0.151 -0.2873 -2.2479  1.5203
  401SOL    HW2 1603   0.696   1.983   0.123 -0.3557  0.2352 -0.5079
  401SOL     MW 1604   0.782   2.006   0.116 -0.1463 -0.0918 -0.0268
  402SOL     OW 1605   0.614   2.998   1.790 -0.1245 -0.4278  0.4399
  402SOL    HW1 1606   0.699   2.966   1.821 -1.1804 -0.2460  0.4913
  402SOL    HW2 1607   0.639   3.064   1.726 -1.7026  0.7683  3.4493
  402SOL     MW 1608   0.628   3.003   1.786 -0.4720 -0.2460  0.8437
  403SOL     OW 1609   0.089   0.414   0.353 -0.5757  0.0342 -0.6902
  403SOL    HW1 1610   0.161   0.418   0.411  0.2584  0.8410 -3.1903
  403SOL    HW2 1611   0.128   0.379   0.273  0.0320  0.2686 -0.1777
  403SOL     MW 1612   0.104   0.410   0.350 -0.3855  0.1716 -0.9524
  404SOL     OW 1613   0.887   2.902   0.715  0.2289  0.5262  0.5517
  404SOL    HW1 1614   0.959   2.849   0.685  3.2550  4.0040  1.2195
  404SOL    HW2 1615   0.911   2.993   0.690 -0.2259  0.9285 -0.4779
  404SOL     MW 1616   0.900   2.907   0.708  0.5682  1.0381  0.5040
  405SOL     OW 1617   0.510   2.376   1.492  0.1583  0.4065  0.4959
  405SOL    HW1 1618   0.497   2.449   1.438 -0.9597 -1.7911 -0.9075
  405SOL    HW2 1619   0.454   2.309   1.457 -2.1892 -0.8352 -0.1318
  405SOL     MW 1620   0.501   2.377   1.480 -0.2990 -0.0473  0.2279
  406SOL     OW 1621   0.385   2.388   1.018  0.1203  0.3876 -0.4777
  406SOL    HW1 1622   0.292   2.402   1.035  1.9894 -0.0633 -0.9950
  406SOL    HW2 1623   0.404   2.309   1.073  1.0683  0.1660  0.0549
  406SOL     MW 1624   0.375   2.379   1.027  0.4920  0.2989 -0.4757
  407SOL     OW 1625   3.060   2.702   1.149 -0.4843 -0.2012 -0.4000
  407SOL    HW1 1626   3.134   2.677   1.213  0.1119 -0.7070  2.5258
  407SOL    HW2 1627   3.109   2.723   1.068 -0.9007  0.7666 -0.6026
  407SOL     MW 1628   3.076   2.701   1.146 -0.4606 -0.1403 -0.0407
  408SOL     OW 1629   2.141   2.079   0.769  0.0345  0.2480 -0.6590
  408SOL    HW1 1630   2.052   2.093   0.809 -0.4975  3.6338 -1.3455
  408SOL    HW2 1631   2.127   2.074   0.677 -1.4794 -2.0803  1.4607
  408SOL     MW 1632   2.128   2.080   0.762 -0.2355  0.3875 -0.4699
  409SOL     OW 1633   1.459   0.122   0.895  0.5516  0.1153  0.0682
  409SOL    HW1 1634   1.533   0.173   0.929  0.4992  0.3455 -0.0179
  409SOL    HW2 1635   1.456   0.058   0.964  1.7988 -1.6174  0.0901
  409SOL     MW 1636   1.469   0.120   0.908  0.7092 -0.0829  0.0598
  410SOL     OW 1637   1.100   2.471   1.049 -0.0782  0.1788  0.0345
  410SOL    HW1 1638   1.033   2.505   0.986 -0.7124  2.5809 -2.4311
  410SOL    HW2 1639   1.152   2.407   0.999 -0.8305 -0.2645 -0.5775
  410SOL     MW 1640   1.098   2.467   1.034 -0.2612  0.4373 -0.3716
  411SOL     OW 1641   1.973   0.030   2.887 -0.0315 -0.2169  0.1227
  411SOL    HW1 1642   1.915   0.001   2.819  0.9396  0.1024  0.4929
  411SOL    HW2 1643   1.923   0.080   2.948  2.0958 -1.6359  0.9864
  411SOL     MW 1644   1.959   0.033   2.886  0.3773 -0.3620  0.2855
  412SOL     OW 1645   0.999   2.269   0.612 -0.1290  0.6468 -0.1636
  412SOL    HW1 1646   1.042   2.340   0.660  1.9663  1.8973  2.7889
  412SOL    HW2 1647   0.936   2.314   0.564  1.1991 -2.2786 -1.0381
  412SOL     MW 1648   0.996   2.284   0.612  0.3227  0.4258  0.1106
  413SOL     OW 1649   0.525   2.811   3.045  0.2980 -0.1898  0.0054
  413SOL    HW1 1650   0.554   2.725   3.066 -0.3545 -1.3536  0.4737
  413SOL    HW2 1651   0.577   2.841   2.975  1.7950  2.6095 -1.9037
  413SOL     MW 1652   0.535   2.804   3.039  0.4094  0.0260 -0.1847
  414SOL     OW 1653   1.920   2.853   1.067 -0.2020  0.1057 -0.0566
  414SOL    HW1 1654   1.901   2.884   0.977  0.2538  0.6990 -0.8078
  414SOL    HW2 1655   2.014   2.828   1.070 -1.3148  1.1768 -0.6176
  414SOL     MW 1656   1.930   2.854   1.056 -0.2887  0.3253 -0.2298
  415SOL     OW 1657   1.771   2.634   1.094 -0.0315 -0.2717 -0.3995
  415SOL    HW1 1658   1.805   2.635   1.181  3.3770  4.1850 -1.2521
  415SOL    HW2 1659   1.834   2.702   1.064  0.3788 -0.3198 -0.3922
  415SOL     MW 1660   1.784   2.643   1.101  0.4724  0.3100 -0.5110
  416SOL     OW 1661   0.519   1.925   1.372  0.5222 -0.2764  1.2091
  416SOL    HW1 1662   0.492   1.974   1.294  1.9491 -3.1846 -1.4447
  416SOL    HW2 1663   0.464   1.840   1.371  0.2884 -1.9975 -1.0209
  416SOL     MW 1664   0.508   1.920   1.362  0.6796 -0.8872  0.5647
  417SOL     OW 1665   1.029   3.083   2.079 -0.4703  0.5188  0.4375
  417SOL    HW1 1666   0.986   3.073   2.164 -0.4675 -1.4195 -3.0429
  417SOL    HW2 1667   0.980   3.030   2.005 -3.0659 -1.0659 -1.2665
  417SOL     MW 1668   1.017   3.075   2.080 -0.8124  0.0540 -0.2465
  418SOL     OW 1669   0.729   2.900   0.145 -0.0230  0.4306 -0.2109
  418SOL    HW1 1670   0.818   2.916   0.111  1.4298 -3.9379  0.9047
  418SOL    HW2 1671   0.673   2.875   0.071  2.6560  0.7162 -0.2783
  418SOL     MW 1672   0.733   2.899   0.130  0.5222 -0.1081 -0.0726
  419SOL     OW 1673   0.434   2.655   1.395  0.0920 -0.2118 -0.5378
  419SOL    HW1 1674   0.494   2.711   1.456 -1.4764 -1.2826  0.2746
  419SOL    HW2 1675   0.489   2.639   1.319 -2.1203  0.7954  0.6889
  419SOL     MW 1676   0.449   2.661   1.393 -0.4068 -0.2202 -0.2688
  420SOL     OW 1677   0.891   2.265   0.968 -0.3830  0.6459  0.1513
  420SOL    HW1 1678   0.822   2.274   1.035 -0.7318  0.7679 -0.7244
  420SOL    HW2 1679   0.886   2.346   0.909  4.2787  3.1486  1.7269
  420SOL     MW 1680   0.881   2.277   0.969  0.1861  0.9922  0.2437
  421SOL     OW 1681   2.934   0.048   3.083 -0.7643  0.6583 -0.6310
  421SOL    HW1 1682   2.890   0.011   3.003 -3.0583 -1.8010 -0.6788
  421SOL    HW2 1683   2.967  -0.030   3.136 -1.6244 -0.5296 -1.5877
  421SOL     MW 1684   2.932   0.033   3.080 -1.1804  0.1771 -0.7635
  422SOL     OW 1685   0.885   2.569   0.888 -0.1523 -0.1577 -0.2543
  422SOL    HW1 1686   0.855   2.660   0.907 -2.5250 -1.3164  1.7844
  422SOL    HW2 1687   0.872   2.560   0.793  3.0498  0.7243  2.9694
  422SOL     MW 1688   0.879   2.580   0.878 -0.0429 -0.1942  0.4400
  423SOL     OW 1689   1.488   0.105   0.503 -0.0385 -0.3244 -0.0687
  423SOL    HW1 1690   1.466   0.111   0.408 -3.1026  0.9379  1.9886
  423SOL    HW2 1691   1.515   0.197   0.519 -0.4401  0.3370  0.6665
  423SOL     MW 1692   1.489   0.118   0.492 -0.4957 -0.0706  0.2998
  424SOL     OW 1693   0.709   2.269   1.186  0.7105  0.0027 -0.0439
  424SOL    HW1 1694   0.639   2.210   1.189  0.6967  0.7543  0.2552
  424SOL    HW2 1695   0.749   2.266   1.275 -0.7784  0.8134  2.9973
  424SOL     MW 1696   0.705   2.261   1.198  0.5122  0.2089  0.3968
  425SOL     OW 1697   1.742   2.825   2.006  0.2681  0.1349  0.5107
  425SOL    HW1 1698   1.732   2.837   1.912  0.0020  2.0218  0.9772
  425SOL    HW2 1699   1.765   2.734   2.007 -1.2787 -1.5571 -0.4136
  425SOL     MW 1700   1.744   2.815   1.994  0.0289  0.1606  0.4503
  426SOL     OW 1701   0.804   1.697   1.948  0.1743  0.2397 -0.1994
  426SOL    HW1 1702   0.748   1.737   1.874 -0.9637 -3.9075 -1.2815
  426SOL    HW2 1703   0.797   1.766   2.018 -0.2789 -3.5226  1.6240
  426SOL     MW 1704   0.796   1.712   1.948 -0.0356 -0.8039 -0.1016
  427SOL     OW 1705   0.372   1.642   1.924 -0.4286  0.5246  0.5275
  427SOL    HW1 1706   0.429   1.571   1.889 -0.4569  0.8475 -1.9154
  427SOL    HW2 1707   0.304   1.596   1.977  1.1385 -3.9279  0.8416
  427SOL     MW 1708   0.371   1.627   1.926 -0.2256 -0.0203  0.2466
  428SOL     OW 1709   0.578   2.585   1.171 -0.2646  0.2829  0.1367
  428SOL    HW1 1710   0.677   2.565   1.204  3.1073  3.0183 -1.6168
  428SOL    HW2 1711   0.552   2.501   1.138 -1.4596  0.1031 -1.6212
  428SOL     MW 1712   0.588   2.571   1.171  0.0226  0.6201 -0.3266
  429SOL     OW 1713   1.313   2.765   1.097 -0.3857  0.4046 -0.2934
  429SOL    HW1 1714   1.233   2.716   1.112 -0.5821  2.4511 -1.3133
  429SOL    HW2 1715   1.275   2.842   1.051 -1.4025  0.6927 -1.1723
  429SOL     MW 1716   1.297   2.769   1.093 -0.5457  0.7126 -0.5439
  430SOL     OW 1717   1.153   2.733   0.738 -0.0995  0.3705  0.2010
  430SOL    HW1 1718   1.193   2.649   0.756  0.5141  0.0604 -1.4996
  430SOL    HW2 1719   1.107   2.714   0.651 -0.9139 -0.3715 -1.2239
  430SOL     MW 1720   1.152   2.719   0.729 -0.1260  0.2317 -0.2114
  431SOL     OW 1721   0.347   1.921   1.070  0.6299 -0.1160 -0.6096
  431SOL    HW1 1722   0.401   1.843   1.083  0.3605 -1.3152  0.7396
  431SOL    HW2 1723   0.335   1.937   0.974  0.9552  0.0413 -2.5019
  431SOL     MW 1724   0.352   1.913   1.059  0.6373 -0.2535 -0.6812
  432SOL     OW 1725   0.057   3.091   1.180  0.2621  0.4996  0.6353
  432SOL    HW1 1726   0.069   3.154   1.250  2.0840 -1.7261 -0.0618
  432SOL    HW2 1727  -0.007   3.026   1.204  2.0548  0.7966  1.5061
  432SOL     MW 1728   0.050   3.091   1.193  0.7390  0.2452  0.6582
  433SOL     OW 1729   0.632   2.844   1.537  0.3551 -0.5720  0.0352
  433SOL    HW1 1730   0.635   2.919   1.590  1.7154 -2.0090 -3.5697
  433SOL    HW2 1731   0.705   2.852   1.473  0.9458  1.9860 -1.1828
  433SOL     MW 1732   0.642   2.855   1.536  0.6125 -0.4241 -0.6011
  434SOL     OW 1733   1.585   2.836   1.523 -0.7611 -0.2185  0.7574
  434SOL    HW1 1734   1.487   2.855   1.515  0.3174  0.3008  0.2576
  434SOL    HW2 1735   1.599   2.809   1.428 -3.2288  1.0570 -0.4826
  434SOL     MW 1736   1.574   2.835   1.509 -0.9444  0.0183  0.5278
  435SOL     OW 1737   2.835   1.812   0.228  0.2561 -0.2722  0.1137
  435SOL    HW1 1738   2.896   1.870   0.173  1.8439 -1.6085 -0.9554
  435SOL    HW2 1739   2.789   1.759   0.159  1.1996  0.7387  0.4271
  435SOL     MW 1740   2.837   1.813   0.212  0.5901 -0.3152  0.0140
  436SOL     OW 1741   1.344   2.766   0.392 -0.2010 -0.6631  0.1186
  436SOL    HW1 1742   1.419   2.772   0.457  0.0975 -1.1969  1.0800
  436SOL    HW2 1743   1.278   2.840   0.425 -1.9704 -0.5501  0.0360
  436SOL     MW 1744   1.345   2.777   0.405 -0.3951 -0.7186  0.2345
  437SOL     OW 1745   0.848   2.910   1.397 -0.6403  0.9181 -0.1374
  437SOL    HW1 1746   0.878   3.001   1.386  0.4758 -0.1751 -1.5769
  437SOL    HW2 1747   0.887   2.860   1.325 -1.7443 -2.4066  0.3194
  437SOL     MW 1748   0.857   2.915   1.386 -0.6387  0.3352 -0.2671
  438SOL     OW 1749   0.857   2.674   1.907  0.1103  0.4529 -0.4647
  438SOL    HW1 1750   0.816   2.660   1.986  1.3173 -0.4345 -2.9757
  438SOL    HW2 1751   0.812   2.609   1.852 -0.2552  1.3052  1.3148
  438SOL     MW 1752   0.845   2.663   1.910  0.2213  0.4483 -0.5612
  439SOL     OW 1753   1.164   2.141   0.446  0.7569  0.2520  0.5399
  439SOL    HW1 1754   1.105   2.201   0.506  0.5676  2.0460  2.9276
  439SOL    HW2 1755   1.163   2.189   0.359  2.0255 -0.6689 -0.2381
  439SOL     MW 1756   1.156   2.156   0.442  0.8993  0.3672  0.7523
  440SOL     OW 1757   1.720   2.984   0.013  0.4807 -0.1205  0.1444
  440SOL    HW1 1758   1.665   2.962   0.085  2.6815  1.7431 -1.3252
  440SOL    HW2 1759   1.803   2.940   0.038 -1.4421 -0.1659  0.2424
  440SOL     MW 1760   1.724   2.975   0.025  0.5173  0.1194 -0.0366
  441SOL     OW 1761   0.334   2.640   0.488  0.4059 -0.2386 -0.1566
  441SOL    HW1 1762   0.292   2.621   0.409  0.1355 -0.8343  3.5585
  441SOL    HW2 1763   0.360   2.737   0.478 -0.5376 -0.1925 -0.3198
  441SOL     MW 1764   0.332   2.650   0.476  0.2458 -0.3111  0.3120
  442SOL     OW 1765   3.067   2.402   0.619 -0.3493  0.8144 -0.5974
  442SOL    HW1 1766   3.090   2.491   0.618 -2.4328 -3.1018  1.4747
  442SOL    HW2 1767   2.980   2.399   0.650  0.2903 -0.9334 -0.0603
  442SOL     MW 1768   3.059   2.414   0.623 -0.5398  0.0671 -0.2532
  443SOL     OW 1769   1.408   1.791   1.930 -0.3363 -0.8792 -0.3014
  443SOL    HW1 1770   1.359   1.830   1.858 -2.3448  0.5912  1.2821
  443SOL    HW2 1771   1.375   1.704   1.951  1.6660 -3.5279  1.3788
  443SOL     MW 1772   1.397   1.785   1.923 -0.3371 -1.0347  0.1292
  444SOL     OW 1773   0.889   2.532   1.588  0.4049 -0.2971 -0.2752
  444SOL    HW1 1774   0.957   2.476   1.629  0.5043  0.9550  0.5115
  444SOL    HW2 1775   0.805   2.494   1.620 -1.9020 -2.7567 -0.0634
  444SOL     MW 1776   0.887   2.520   1.598  0.1137 -0.4564 -0.1435
  445SOL     OW 1777   0.932   0.084   1.344  0.8958  0.1542  0.5914
  445SOL    HW1 1778   0.906   0.170   1.303 -0.6365 -1.2993 -2.2331
  445SOL    HW2 1779   1.004   0.049   1.295  1.0902 -2.8522 -1.0926
  445SOL     MW 1780   0.938   0.091   1.332  0.7192 -0.4342 -0.0035
  446SOL     OW 1781   2.728   2.888   1.090  0.1820 -0.1221  0.2245
  446SOL    HW1 1782   2.673   2.927   1.024 -0.5828 -0.8811  2.5558
  446SOL    HW2 1783   2.748   2.797   1.058 -2.3251 -0.0758  0.5419
  446SOL     MW 1784   2.723   2.881   1.077 -0.2497 -0.2161  0.5740
  447SOL     OW 1785   0.060   2.034   1.664  0.8041 -0.2151 -0.5888
  447SOL    HW1 1786   0.115   1.964   1.708  1.8820 -1.0589  2.0865
  447SOL    HW2 1787  -0.026   1.996   1.655 -2.3259  0.5257 -0.0055
  447SOL     MW 1788   0.056   2.020   1.669  0.5333 -0.2287 -0.1589
  448SOL     OW 1789   1.699   2.397   1.648  0.0689  0.0312 -0.7194
  448SOL    HW1 1790   1.650   2.320   1.635  2.2123  1.6529 -1.5040
  448SOL    HW2 1791   1.634   2.472   1.654 -1.0984  2.8306 -0.2694
  448SOL     MW 1792   1.684   2.397   1.647  0.1977  0.6145 -0.7636
  449SOL     OW 1793   0.776   2.820   0.409  0.5714 -0.5807 -0.2154
  449SOL    HW1 1794   0.732   2.822   0.322  0.4058  1.9360 -0.8146
  449SOL    HW2 1795   0.713   2.865   0.462  0.8640  1.4335 -3.2006
  449SOL     MW 1796   0.762   2.826   0.404  0.5882  0.0171 -0.6883
  450SOL     OW 1797   1.212   2.440   0.685  0.0334 -0.1443  0.3284
  450SOL    HW1 1798   1.247   2.389   0.757 -1.4003  2.7970 -3.2952
  450SOL    HW2 1799   1.285   2.432   0.623 -1.8317 -0.1731  1.0799
  450SOL     MW 1800   1.226   2.432   0.686 -0.4018  0.2400 -0.0506
  451SOL     OW 1801   0.553   2.031   1.619  0.4327  0.2686 -0.2652
  451SOL    HW1 1802   0.622   2.102   1.605  2.4924 -0.4456 -1.7742
  451SOL    HW2 1803   0.525   2.001   1.533  0.2284  0.0934 -0.6632
  451SOL     MW 1804   0.559   2.036   1.606  0.6775  0.1512 -0.5168
  452SOL     OW 1805   0.261   2.744   0.016  0.1664  0.9967  0.0424
  452SOL    HW1 1806   0.349   2.777  -0.010  2.9900 -0.1444 -1.2512
  452SOL    HW2 1807   0.199   2.778  -0.052  1.5479 -1.2475  1.0705
  452SOL     MW 1808   0.264   2.753   0.003  0.7212  0.5501  0.0074
  453SOL     OW 1809   0.350   2.887   1.692 -0.2444  0.0377  0.2224
  453SOL    HW1 1810   0.428   2.926   1.733 -1.5289  0.0081  0.1649
  453SOL    HW2 1811   0.370   2.908   1.603  2.5938 -1.6517 -0.3940
  453SOL     MW 1812   0.363   2.895   1.685 -0.0394 -0.1891  0.1335
  454SOL     OW 1813   1.006   2.746   1.192  0.1221 -0.2002  0.2427
  454SOL    HW1 1814   0.978   2.656   1.216 -2.0300 -1.6352 -0.2482
  454SOL    HW2 1815   0.953   2.764   1.113  0.7337  1.0013  1.8080
  454SOL     MW 1816   0.995   2.737   1.184 -0.0812 -0.2310  0.3845
  455SOL     OW 1817   1.597   2.914   0.228  0.1048  0.4470 -0.1124
  455SOL    HW1 1818   1.660   2.917   0.297  0.0592 -1.0946 -2.3383
  455SOL    HW2 1819   1.590   2.813   0.201  1.1517  0.7208 -1.6296
  455SOL     MW 1820   1.604   2.901   0.234  0.2369  0.2797 -0.6062
  456SOL     OW 1821   2.833   0.339   1.381  0.0196  0.1697  0.4828
  456SOL    HW1 1822   2.787   0.271   1.328  1.7218  2.4405  0.5840
  456SOL    HW2 1823   2.917   0.352   1.330 -1.3705  2.0302 -1.0278
  456SOL     MW 1824   2.838   0.332   1.367  0.0608  0.7147  0.2968
  457SOL     OW 1825   0.965   1.576   2.915  0.5078 -0.4137 -0.1392
  457SOL    HW1 1826   0.896   1.534   2.970 -2.0221  3.1778  0.4223
  457SOL    HW2 1827   1.042   1.525   2.907 -0.1328  0.1328 -0.5869
  457SOL     MW 1828   0.966   1.564   2.921  0.0895  0.1323 -0.1242
  458SOL     OW 1829   1.498   1.407   0.545 -0.0563  0.1763 -0.2117
  458SOL    HW1 1830   1.438   1.473   0.577  0.2775 -1.4807  0.0442
  458SOL    HW2 1831   1.456   1.367   0.465 -1.6206  0.7361 -1.1899
  458SOL     MW 1832   1.484   1.410   0.539 -0.2187  0.0316 -0.3070
  459SOL     OW 1833   1.476   0.053   0.235 -0.2614 -0.0643 -0.0866
  459SOL    HW1 1834   1.516  -0.035   0.248 -0.5476 -0.7627 -1.4879
  459SOL    HW2 1835   1.405   0.050   0.174  0.7470  1.0609 -2.1774
  459SOL     MW 1836   1.472   0.041   0.229 -0.1661 -0.0080 -0.5474
  460SOL     OW 1837   1.780   2.203   0.597 -0.0765  0.0132 -0.3923
  460SOL    HW1 1838   1.697   2.158   0.618 -0.6084  1.1925 -0.7251
  460SOL    HW2 1839   1.846   2.132   0.603  0.0435  0.8370  0.9061
  460SOL     MW 1840   1.778   2.188   0.600 -0.1309  0.2775 -0.2649
  461SOL     OW 1841   0.387   2.385   0.582 -0.6497  0.2272 -0.0253
  461SOL    HW1 1842   0.399   2.469   0.542  1.3458 -0.3105 -1.2341
  461SOL    HW2 1843   0.383   2.411   0.676  2.8374 -0.3482  2.9561
  461SOL     MW 1844   0.388   2.399   0.589  0.0737  0.0803  0.2086
  462SOL     OW 1845   0.406   0.319   1.308  0.5110  0.8272 -0.4731
  462SOL    HW1 1846   0.436   0.266   1.236 -0.8602  2.3315 -0.7668
  462SOL    HW2 1847   0.490   0.347   1.355 -2.9503  0.5278  1.8622
  462SOL     MW 1848   0.421   0.316   1.304 -0.1266  0.9862 -0.2037
  463SOL     OW 1849   0.906   0.062   0.636  0.1545 -0.0092 -0.4465
  463SOL    HW1 1850   0.922   0.070   0.539 -2.0874  0.5003 -1.7058
  463SOL    HW2 1851   0.816   0.096   0.651 -1.6214 -1.2731 -0.0286
  463SOL     MW 1852   0.896   0.067   0.625 -0.3756 -0.1087 -0.5575
  464SOL     OW 1853   0.850   3.026   2.282 -0.1953 -0.0023 -0.1590
  464SOL    HW1 1854   0.816   2.936   2.291  0.3161  1.2956  3.6502
  464SOL    HW2 1855   0.853   3.058   2.375  0.3492  1.9784  3.7455
  464SOL     MW 1856   0.846   3.018   2.295 -0.0560  0.4303  0.8587
  465SOL     OW 1857   0.664   0.295   0.492  0.0781 -0.2536 -0.8685
  465SOL    HW1 1858   0.635   0.234   0.561  0.2723  1.1585  0.2608
  465SOL    HW2 1859   0.677   0.232   0.420  1.9851 -0.6317 -1.4342
  465SOL     MW 1860   0.662   0.279   0.492  0.3553 -0.1172 -0.7941
  466SOL     OW 1861   1.074   1.973   0.695 -0.0383 -0.4744  0.1635
  466SOL    HW1 1862   1.076   1.887   0.647  2.0685 -0.8336 -2.3816
  466SOL    HW2 1863   1.060   2.036   0.620 -2.4873  0.5525 -0.1343
  466SOL     MW 1864   1.072   1.970   0.678 -0.0834 -0.3863 -0.2116
  467SOL     OW 1865   1.265   2.292   0.895 -0.1789  0.0802  0.2947
  467SOL    HW1 1866   1.355   2.294   0.918 -1.0417  0.9371  2.2649
  467SOL    HW2 1867   1.251   2.199   0.867 -0.6972  0.9805 -0.2881
  467SOL     MW 1868   1.275   2.280   0.895 -0.3611  0.3120  0.4777
  468SOL     OW 1869   0.391   2.625   1.987  0.1208  0.1181  0.1712
  468SOL    HW1 1870   0.391   2.575   1.909  0.1129 -0.8304 -0.0905
  468SOL    HW2 1871   0.340   2.708   1.978  1.5374 -0.8661  0.5486
  468SOL     MW 1872   0.384   2.629   1.976  0.3066 -0.1369  0.1864
  469SOL     OW 1873   0.372   2.176   1.795 -0.3781 -0.0183 -0.4554
  469SOL    HW1 1874   0.306   2.109   1.783 -0.8017  1.9232  1.2531
  469SOL    HW2 1875   0.444   2.142   1.739  1.9357 -1.6409 -0.5545
  469SOL     MW 1876   0.373   2.162   1.786 -0.1287  0.0238 -0.2431
  470SOL     OW 1877   3.036   2.589   0.086  0.1322  1.0963 -0.4944
  470SOL    HW1 1878   2.960   2.531   0.087  1.5304  1.5438 -1.5057
  470SOL    HW2 1879   3.043   2.627  -0.003  1.1717 -1.3950 -2.3598
  470SOL     MW 1880   3.027   2.586   0.075  0.4538  0.8266 -0.8740
  471SOL     OW 1881   1.167   2.716   1.424  0.0729 -0.2885  0.1784
  471SOL    HW1 1882   1.110   2.736   1.499 -0.9687 -0.2532 -0.3789
  471SOL    HW2 1883   1.112   2.722   1.346  1.0118 -2.5447  1.7248
  471SOL     MW 1884   1.153   2.720   1.424  0.0593 -0.5815  0.3089
  472SOL     OW 1885   2.956   2.101   0.383  0.1239  0.0242 -0.5009
  472SOL    HW1 1886   2.964   2.066   0.286 -2.1746 -1.5839 -2.7738
  472SOL    HW2 1887   2.945   2.022   0.438  1.5710 -0.4147 -1.4939
  472SOL     MW 1888   2.955   2.086   0.377  0.0116 -0.2459 -0.9318
  473SOL     OW 1889   0.871   2.552   1.311  0.5536  0.5608  0.1607
  473SOL    HW1 1890   0.893   2.463   1.277  0.1770 -1.0075  1.6081
  473SOL    HW2 1891   0.877   2.544   1.406 -1.4041 -0.4516 -0.8740
  473SOL     MW 1892   0.875   2.540   1.319  0.2456  0.2203  0.2152
  474SOL     OW 1893   0.819   2.166   1.771 -0.2231  0.1543  0.1746
  474SOL    HW1 1894   0.892   2.203   1.830  2.4598 -2.0385  0.4235
  474SOL    HW2 1895   0.853   2.179   1.684 -0.1045 -1.5618  2.0317
  474SOL     MW 1896   0.833   2.173   1.767  0.1466 -0.3614  0.4525
  475SOL     OW 1897   1.640   0.015   1.445  0.5636  0.2999 -0.4410
  475SOL    HW1 1898   1.560   0.046   1.410  2.8400 -1.3132 -3.5145
  475SOL    HW2 1899   1.612  -0.068   1.478  1.2471  1.5788 -1.4885
  475SOL     MW 1900   1.626   0.008   1.445  0.9541  0.2558 -0.9848
  476SOL     OW 1901   1.444   2.607   0.881 -0.3130 -0.0944  0.2744
  476SOL    HW1 1902   1.424   2.646   0.974 -3.4906  1.4913  1.8372
  476SOL    HW2 1903   1.475   2.688   0.838 -0.2179 -0.7845 -1.5653
  476SOL     MW 1904   1.445   2.623   0.887 -0.7197  0.0238  0.2378
  477SOL     OW 1905   0.764   2.534   0.641  0.3277 -0.1196  0.0310
  477SOL    HW1 1906   0.821   2.572   0.577  1.8559  0.6880  1.4582
  477SOL    HW2 1907   0.758   2.445   0.608  1.2221 -0.0847 -0.7784
  477SOL     MW 1908   0.770   2.527   0.628  0.6473 -0.0085  0.1125
  478SOL     OW 1909   0.117   2.703   0.929  0.1677  0.0689 -0.0993
  478SOL    HW1 1910   0.178   2.782   0.943 -0.7037  4.9419 -1.3507
  478SOL    HW2 1911   0.146   2.658   0.842 -0.6185  0.0726  0.6673
  478SOL     MW 1912   0.129   2.708   0.919 -0.0510  0.7123 -0.1633
  479SOL     OW 1913   1.420   1.962   1.297  0.1547  0.2221  0.3429
  479SOL    HW1 1914   1.405   2.021   1.370 -0.2077 -1.0087 -2.6425
  479SOL    HW2 1915   1.482   1.893   1.336 -0.4775 -0.1433  1.0092
  479SOL     MW 1916   1.426   1.961   1.311  0.0235  0.0115  0.0369
  480SOL     OW 1917   1.896   2.331   1.356  0.2226 -0.3738  0.1112
  480SOL    HW1 1918   1.923   2.238   1.357  1.6589 -0.3286 -1.2220
  480SOL    HW2 1919   1.956   2.381   1.295 -1.2652 -0.2390 -0.0632
  480SOL     MW 1920   1.908   2.325   1.348  0.2158 -0.3501 -0.0877
  481SOL     OW 1921   1.132   3.070   1.116 -1.1133  0.0662 -0.3019
  481SOL    HW1 1922   1.209   3.046   1.066 -2.8892 -1.4919  0.3038
  481SOL    HW2 1923   1.122   3.164   1.102 -0.2998 -2.4833 -1.5904
  481SOL     MW 1924   1.141   3.079   1.108 -1.2403 -0.4757 -0.3920
  482SOL     OW 1925   0.946   3.051   0.356  0.4972 -0.0452 -0.6581
  482SOL    HW1 1926   0.872   2.986   0.353  1.7566 -0.9195 -0.5273
  482SOL    HW2 1927   0.917   3.139   0.325 -1.3713 -0.3996  0.4392
  482SOL     MW 1928   0.932   3.054   0.352  0.4168 -0.2073 -0.4961
  483SOL     OW 1929   0.364   2.910   0.470  0.5395 -0.5591  0.0792
  483SOL    HW1 1930   0.270   2.920   0.433  0.2716  0.1207 -0.6212
  483SOL    HW2 1931   0.370   2.965   0.555  0.7052  0.8452  0.3798
  483SOL     MW 1932   0.352   2.919   0.477  0.5260 -0.2841  0.0264
  484SOL     OW 1933   1.670   1.821   1.397 -0.6875  0.5501  0.3213
  484SOL    HW1 1934   1.717   1.895   1.356 -0.1763  0.7173  1.2221
  484SOL    HW2 1935   1.688   1.833   1.491  0.0696 -1.2054 -0.2839
  484SOL     MW 1936   1.679   1.833   1.404 -0.5201  0.3405  0.3603
  485SOL     OW 1937   0.535   2.447   0.299  0.0913  0.3827 -0.6529
  485SOL    HW1 1938   0.565   2.422   0.394 -0.0852  0.1711  1.3716
  485SOL    HW2 1939   0.454   2.499   0.297  0.8908  1.6466  1.7910
  485SOL     MW 1940   0.528   2.451   0.312  0.1735  0.5216 -0.0633
  486SOL     OW 1941   0.127   2.406   1.420  0.1704 -0.7201  0.1255
  486SOL    HW1 1942   0.126   2.497   1.386 -0.3216  1.1271  2.8305
  486SOL    HW2 1943   0.120   2.425   1.516 -2.8987 -0.0093 -1.7618
  486SOL     MW 1944   0.126   2.420   1.428 -0.2995 -0.3826  0.2334
  487SOL     OW 1945   1.274   1.578   1.065  0.2170  0.2467 -0.2129
  487SOL    HW1 1946   1.245   1.669   1.082 -2.2784 -1.2486 -0.7385
  487SOL    HW2 1947   1.346   1.579   0.992  1.0633  3.0612 -2.2628
  487SOL     MW 1948   1.280   1.590   1.057 -0.0006  0.4207 -0.5527
  488SOL     OW 1949   1.687   1.879   0.551  0.4491  0.0803 -0.3004
  488SOL    HW1 1950   1.779   1.903   0.564 -1.3180 -0.5528 -2.4851
  488SOL    HW2 1951   1.627   1.956   0.557  0.6789  1.1648 -0.4508
  488SOL     MW 1952   1.691   1.892   0.553  0.2463  0.1398 -0.6085
  489SOL     OW 1953   0.684   0.757   0.566 -0.2583  0.0235 -0.3088
  489SOL    HW1 1954   0.714   0.670   0.537  0.0093 -0.2395 -4.1863
  489SOL    HW2 1955   0.643   0.743   0.648 -0.4128 -0.0225  1.0212
  489SOL     MW 1956   0.682   0.744   0.573 -0.2433 -0.0173 -0.6449
  490SOL     OW 1957   1.425   2.053   0.408  0.0190 -1.0290 -0.3367
  490SOL    HW1 1958   1.477   2.120   0.357  1.3759  1.7369 -1.4275
  490SOL    HW2 1959   1.334   2.062   0.394  1.8144 -2.1403  1.3374
  490SOL     MW 1960   1.420   2.063   0.399  0.4349 -0.8107 -0.2597
  491SOL     OW 1961   1.184   2.979   0.473 -0.1456 -0.5026 -0.1782
  491SOL    HW1 1962   1.215   3.032   0.544 -0.6482  2.2116 -0.2074
  491SOL    HW2 1963   1.107   3.020   0.436  1.0426 -2.7464  1.6009
  491SOL     MW 1964   1.178   2.991   0.477 -0.0551 -0.4406  0.0527
  492SOL     OW 1965   1.545   2.064   0.671 -0.2555 -0.6829  0.2641
  492SOL    HW1 1966   1.470   2.088   0.624  1.5543 -0.6199  1.6004
  492SOL    HW2 1967   1.515   2.047   0.762 -1.8833  0.6171  0.1060
  492SOL     MW 1968   1.531   2.065   0.676 -0.2314 -0.5031  0.4195
  493SOL     OW 1969   0.117   2.916   0.347  0.2959  0.3933 -0.3276
  493SOL    HW1 1970   0.092   2.975   0.423 -1.5182 -0.0691  0.1663
  493SOL    HW2 1971   0.165   2.958   0.277 -0.2258 -0.4615  1.0479
  493SOL     MW 1972   0.120   2.929   0.348 -0.0123  0.2195 -0.0809
  494SOL     OW 1973   0.391   2.450   1.720  0.1122  0.4164 -0.0104
  494SOL    HW1 1974   0.389   2.353   1.745 -0.5676  0.1840  2.3333
  494SOL    HW2 1975   0.434   2.443   1.630  0.8329 -2.0016 -3.4234
  494SOL     MW 1976   0.396   2.436   1.712  0.1176  0.0667 -0.1515
  495SOL     OW 1977   2.919   1.704   2.682  0.2579  0.2147 -0.7490
  495SOL    HW1 1978   2.893   1.795   2.696 -0.9009  0.2694 -2.2373
  495SOL    HW2 1979   2.889   1.655   2.763  0.7369 -2.5169 -1.5854
  495SOL     MW 1980   2.912   1.710   2.695  0.1682 -0.1385 -1.0557
  496SOL     OW 1981   2.871   2.304   2.664 -0.2059 -0.9225  0.1887
  496SOL    HW1 1982   2.915   2.220   2.679 -0.2819  0.9692 -2.5385
  496SOL    HW2 1983   2.956   2.363   2.663  2.8264  0.0668  1.6552
  496SOL     MW 1984   2.888   2.301   2.666  0.1841 -0.5424  0.0223
  497SOL     OW 1985   1.573   2.283   2.617  0.0451  0.0254  0.7318
  497SOL    HW1 1986   1.524   2.232   2.554  1.7827 -0.9932 -0.9197
  497SOL    HW2 1987   1.601   2.220   2.688  3.0327 -0.4225 -0.8851
  497SOL     MW 1988   1.570   2.268   2.618  0.6685 -0.1681  0.3005
  498SOL     OW 1989   1.536   2.729   2.363 -0.3903 -0.0239  0.5809
  498SOL    HW1 1990   1.559   2.669   2.298 -1.0518  2.1613  2.4300
  498SOL    HW2 1991   1.624   2.719   2.414  3.1656 -1.0997 -0.8837
  498SOL     MW 1992   1.551   2.720   2.361 -0.0084  0.1225  0.6317
  499SOL     OW 1993   0.888   0.108   0.041  0.1424 -0.2726  0.4456
  499SOL    HW1 1994   0.828   0.125   0.111 -0.8230 -1.6150  0.2177
  499SOL    HW2 1995   0.918   0.011   0.044 -1.0742 -1.0418  1.0861
  499SOL     MW 1996   0.884   0.098   0.051 -0.1455 -0.5512  0.5000
  500SOL     OW 1997   1.094   2.454   2.778  0.7633  0.7454 -0.2895
  500SOL    HW1 1998   1.124   2.434   2.866 -2.5990 -2.9210 -0.2397
  500SOL    HW2 1999   1.046   2.530   2.797  0.1991 -0.8847 -1.1820
  500SOL     MW 2000   1.092   2.461   2.792  0.2452  0.0466 -0.4007
  501SOL     OW 2001   1.721   2.300   0.010  0.4461 -0.5571  0.5622
  501SOL    HW1 2002   1.693   2.373   0.070 -1.3882  0.3109  1.0554
  501SOL    HW2 2003   1.815   2.294   0.015  0.3049 -2.5538 -2.9369
  501SOL     MW 2004   1.730   2.309   0.019  0.1854 -0.7060  0.1656
  502SOL     OW 2005   0.081   2.855   2.952 -0.0721 -0.7825  0.4708
  502SOL    HW1 2006   0.033   2.783   2.902  0.7445 -2.3976 -0.8682
  502SOL    HW2 2007   0.119   2.912   2.884  1.5371  0.2441 -1.0631
  502SOL     MW 2008   0.080   2.853   2.937  0.2480 -0.8602  0.0917
  503SOL     OW 2009   1.143   2.631   1.980 -0.5065  0.3442 -0.2413
  503SOL    HW1 2010   1.205   2.659   1.917  0.8174  2.7628 -1.4291
  503SOL    HW2 2011   1.063   2.642   1.932 -2.4028  0.1890  1.2085
  503SOL     MW 2012   1.141   2.636   1.966 -0.5821  0.6428 -0.2067
  504SOL     OW 2013   0.059   2.665   2.092 -0.7007  0.6941  0.2843
  504SOL    HW1 2014   0.127   2.594   2.076 -0.6901  1.7196  0.8067
  504SOL    HW2 2015  -0.024   2.626   2.118 -0.8225  1.6650  0.1925
  504SOL     MW 2016   0.057   2.650   2.093 -0.7154  0.9575  0.3411
  505SOL     OW 2017   1.647   2.662   2.766 -0.1349  0.0295  0.4601
  505SOL    HW1 2018   1.684   2.664   2.679  0.4439 -1.0708  1.6881
  505SOL    HW2 2019   1.595   2.741   2.783 -2.3952 -0.8040 -1.0554
  505SOL     MW 2020   1.645   2.673   2.757 -0.3568 -0.2256  0.4222
  506SOL     OW 2021   1.631   3.095   2.861 -0.5578 -0.2519 -0.1541
  506SOL    HW1 2022   1.657   3.057   2.947  0.8587 -1.3110 -2.1413
  506SOL    HW2 2023   1.711   3.092   2.796 -0.4666  2.8776 -2.7954
  506SOL     MW 2024   1.645   3.089   2.864 -0.3589  0.0212 -0.7648
  507SOL     OW 2025   0.940   2.711   2.855 -0.2620 -0.3882  0.1372
  507SOL    HW1 2026   0.976   2.764   2.784  3.7646  1.4706  1.1326
  507SOL    HW2 2027   0.846   2.733   2.853  0.3908  0.8575  0.5676
  507SOL     MW 2028   0.933   2.721   2.845  0.3554  0.0214  0.3253
  508SOL     OW 2029   1.240   2.116   2.497 -0.5178  0.1373 -0.1009
  508SOL    HW1 2030   1.286   2.117   2.590  1.9207  2.1686 -0.6618
  508SOL    HW2 2031   1.167   2.163   2.518 -0.1168  0.0480 -0.7339
  508SOL     MW 2032   1.237   2.122   2.512 -0.1431  0.3935 -0.2584
  509SOL     OW 2033   0.634   2.589   2.802 -0.2363  0.1591 -0.1862
  509SOL    HW1 2034   0.642   2.537   2.727 -1.9741  0.4884  1.0396
  509SOL    HW2 2035   0.544   2.608   2.810 -1.9411 -0.9416  0.4287
  509SOL     MW 2036   0.623   2.584   2.793 -0.6905  0.0573  0.0566
  510SOL     OW 2037   1.532   2.611   1.666 -0.5097  0.2200  0.6344
  510SOL    HW1 2038   1.571   2.694   1.616  2.1678 -0.0213 -0.0290
  510SOL    HW2 2039   1.487   2.648   1.748  0.7142  4.3045 -2.4980
  510SOL     MW 2040   1.531   2.627   1.670  0.0050  0.7271  0.1336
  511SOL     OW 2041   0.428   2.642   2.439 -0.1447  0.4711 -0.8685
  511SOL    HW1 2042   0.519   2.606   2.467  1.7708 -0.7634  2.5216
  511SOL    HW2 2043   0.432   2.677   2.352  0.3196  0.5762  2.4055
  511SOL     MW 2044   0.440   2.642   2.431  0.1693  0.3221  0.0107
  512SOL     OW 2045   0.966   2.020   2.807 -0.4410 -0.1251 -0.4109
  512SOL    HW1 2046   0.908   2.077   2.864  3.0301  1.1683  0.0588
  512SOL    HW2 2047   1.000   1.944   2.860 -0.9263 -0.4322 -2.1199
  512SOL     MW 2048   0.963   2.017   2.821 -0.0471  0.0050 -0.5744
  513SOL     OW 2049   1.628   2.474   2.229  0.0350  0.4925  0.5880
  513SOL    HW1 2050   1.702   2.504   2.176 -1.9693 -1.4450  0.2518
  513SOL    HW2 2051   1.646   2.391   2.267 -3.9173 -0.7432 -0.2345
  513SOL     MW 2052   1.640   2.467   2.227 -0.7509  0.0738  0.4351
  514SOL     OW 2053   0.240   2.487   2.598  0.7111  0.1588 -0.0365
  514SOL    HW1 2054   0.290   2.531   2.527  0.9025  0.3196 -3.0043
  514SOL    HW2 2055   0.300   2.493   2.673 -1.8723 -0.6438 -2.2824
  514SOL     MW 2056   0.255   2.494   2.599  0.3955  0.0741 -0.7244
  515SOL     OW 2057   1.130   2.015   2.006  0.3214 -0.1095  0.1503
  515SOL    HW1 2058   1.117   2.074   1.934 -1.4243  1.0051  1.1888
  515SOL    HW2 2059   1.216   2.030   2.039  2.5651 -0.2266  0.7487
  515SOL     MW 2060   1.139   2.025   2.001  0.3871  0.0221  0.3663
  516SOL     OW 2061   1.475   2.451   3.079 -0.0339 -0.2165  0.7320
  516SOL    HW1 2062   1.494   2.427   2.992 -0.4275  0.0409  1.7566
  516SOL    HW2 2063   1.391   2.494   3.079  2.2724  1.6459  0.3123
  516SOL     MW 2064   1.467   2.454   3.067  0.2185  0.0632  0.8118
  517SOL     OW 2065   0.547   2.452   2.258 -0.4982  0.5616 -0.1211
  517SOL    HW1 2066   0.493   2.415   2.327  3.0124  0.7918  0.2116
  517SOL    HW2 2067   0.515   2.425   2.165  1.5089 -0.7514  0.6128
  517SOL     MW 2068   0.535   2.444   2.255  0.2298  0.4187  0.0196
  518SOL     OW 2069   1.798   0.152   3.080 -0.0870  0.1407  0.4993
  518SOL    HW1 2070   1.742   0.188   3.151 -2.7250 -0.0681 -1.6484
  518SOL    HW2 2071   1.791   0.056   3.092  2.5516 -0.0076  0.5388
  518SOL     MW 2072   1.789   0.144   3.091 -0.0869  0.0936  0.2211
  519SOL     OW 2073   0.710   2.414   1.760  0.6937 -0.9426 -0.2037
  519SOL    HW1 2074   0.745   2.326   1.766 -2.3515 -2.0462  1.4793
  519SOL    HW2 2075   0.634   2.412   1.814  0.2338 -0.1318  0.1229
  519SOL     MW 2076   0.704   2.402   1.768  0.2313 -0.9812  0.0614
  520SOL     OW 2077   1.169   2.145   2.966  0.2823 -0.8251 -0.4941
  520SOL    HW1 2078   1.090   2.104   2.924 -1.3677 -0.0574  1.0713
  520SOL    HW2 2079   1.200   2.086   3.033 -0.6430 -0.6931  0.1680
  520SOL     MW 2080   1.163   2.132   2.969 -0.0575 -0.7064 -0.2002
  521SOL     OW 2081   1.744   1.993   2.173  0.2916 -0.7450 -0.5991
  521SOL    HW1 2082   1.781   2.036   2.099 -0.8089 -1.2181  0.4463
  521SOL    HW2 2083   1.764   1.900   2.183  3.9020  1.8633  2.4743
  521SOL     MW 2084   1.752   1.987   2.164  0.6228 -0.4633 -0.0557
  522SOL     OW 2085   2.922   2.515   2.251 -0.4512  0.5957  0.0591
  522SOL    HW1 2086   2.998   2.448   2.265 -1.0306 -0.1703 -1.5887
  522SOL    HW2 2087   2.962   2.598   2.272  0.1803 -2.7966 -0.8608
  522SOL     MW 2088   2.937   2.517   2.256 -0.4443  0.0471 -0.2797
  523SOL     OW 2089   0.938   1.520   2.138  0.0356  0.5763  0.2295
  523SOL    HW1 2090   0.898   1.575   2.075  0.6759 -1.1953  0.5738
  523SOL    HW2 2091   0.985   1.452   2.085  0.4776 -0.0055  0.1504
  523SOL     MW 2092   0.939   1.518   2.123  0.1784  0.2658  0.2645
  524SOL     OW 2093   0.621   2.379   2.965  0.4781  0.4072 -0.0560
  524SOL    HW1 2094   0.625   2.451   2.902 -0.8287 -0.6406  0.9186
  524SOL    HW2 2095   0.706   2.328   2.979 -1.4620 -0.1439 -0.7457
  524SOL     MW 2096   0.633   2.381   2.959  0.0497  0.1963 -0.0184
  525SOL     OW 2097   0.436   2.284   2.040  0.4386  0.5590 -0.0805
  525SOL    HW1 2098   0.412   2.209   2.096 -1.3186  0.8373 -1.5129
  525SOL    HW2 2099   0.428   2.240   1.956  1.5475 -3.1028 -2.9948
  525SOL     MW 2100   0.432   2.268   2.037  0.3531  0.1126 -0.6540
  526SOL     OW 2101   0.657   2.056   1.983  0.1022 -0.5456 -0.5025
  526SOL    HW1 2102   0.683   2.094   1.904 -1.0760 -3.3691  2.5641
  526SOL    HW2 2103   0.659   2.127   2.049 -0.7256 -0.3539  1.5041
  526SOL     MW 2104   0.661   2.070   1.981 -0.1625 -0.8929  0.1669
  527SOL     OW 2105   1.403   2.011   2.100  0.7919  0.4961  0.5382
  527SOL    HW1 2106   1.386   1.964   2.186 -0.7931 -0.6028  1.9295
  527SOL    HW2 2107   1.409   1.932   2.045 -2.5474  0.9837  0.9962
  527SOL     MW 2108   1.402   1.994   2.104  0.1422  0.4155  0.7822
  528SOL     OW 2109   0.710   2.881   2.858 -0.1217 -0.9782  0.1737
  528SOL    HW1 2110   0.720   2.968   2.895 -0.0859  0.7442 -1.2122
  528SOL    HW2 2111   0.665   2.892   2.773 -0.2091  0.3908 -0.4423
  528SOL     MW 2112   0.705   2.894   2.851 -0.1285 -0.5704 -0.0904
  529SOL     OW 2113   1.067   2.277   1.859  0.6005 -0.2418  0.3625
  529SOL    HW1 2114   1.063   2.287   1.955  1.9342  0.6818  0.6290
  529SOL    HW2 2115   1.122   2.347   1.827  2.9164  3.6123  1.3339
  529SOL     MW 2116   1.074   2.288   1.868  1.0820  0.3885  0.5258
  530SOL     OW 2117   1.160   2.436   3.057 -0.4074  0.5194 -0.1047
  530SOL    HW1 2118   1.073   2.424   3.098  0.5803 -3.6255  1.0211
  530SOL    HW2 2119   1.184   2.343   3.048  0.3173  0.2592  0.5417
  530SOL     MW 2120   1.152   2.422   3.061 -0.1814 -0.0618  0.1291
  531SOL     OW 2121   0.963   1.863   2.570 -0.3341  0.1171 -0.4521
  531SOL    HW1 2122   0.959   1.900   2.657 -0.0461  0.6063  0.2012
  531SOL    HW2 2123   0.923   1.775   2.588  0.0862  0.9054  0.2576
  531SOL     MW 2124   0.957   1.857   2.584 -0.2406  0.2856 -0.2723
  532SOL     OW 2125   1.703   0.331   2.876 -0.6094  0.6115 -0.7281
  532SOL    HW1 2126   1.722   0.260   2.941 -1.8943  1.6407 -1.9169
  532SOL    HW2 2127   1.792   0.376   2.859  2.6128  0.9176 -1.1365
  532SOL     MW 2128   1.717   0.327   2.882 -0.3538  0.7877 -0.9388
  533SOL     OW 2129   1.827   2.677   2.978  1.0914  0.2828 -0.4334
  533SOL    HW1 2130   1.818   2.621   3.051 -0.1302 -0.2091  1.3777
  533SOL    HW2 2131   1.753   2.664   2.914  0.4975 -0.0975  0.9424
  533SOL     MW 2132   1.816   2.668   2.980  0.8519  0.1677 -0.0129
  534SOL     OW 2133   1.809   2.350   2.465  0.2839 -0.1196 -0.1821
  534SOL    HW1 2134   1.718   2.328   2.494 -1.3689  0.3877  1.7164
  534SOL    HW2 2135   1.872   2.324   2.537  0.8172 -1.2528 -0.9921
  534SOL     MW 2136   1.806   2.344   2.478  0.1362 -0.2022 -0.0385
  535SOL     OW 2137   1.866   2.357   1.886 -0.1736  0.2183 -0.4012
  535SOL    HW1 2138   1.822   2.408   1.815  2.8577 -0.1510 -1.1423
  535SOL    HW2 2139   1.959   2.387   1.894 -1.3413  1.7376 -1.0294
  535SOL     MW 2140   1.872   2.368   1.878  0.0723  0.3700 -0.5818
  536SOL     OW 2141   0.439   1.886   2.023 -0.1264  0.0716  0.0636
  536SOL    HW1 2142   0.427   1.826   1.951 -1.2443 -2.7283 -0.1432
  536SOL    HW2 2143   0.520   1.941   2.001  1.5890  0.4350  0.2635
  536SOL     MW 2144   0.448   1.885   2.011 -0.0476 -0.2499  0.0627
  537SOL     OW 2145   1.013   0.162   2.893 -0.5255 -0.4203 -0.1864
  537SOL    HW1 2146   0.976   0.101   2.957  0.4437  0.9962 -1.7310
  537SOL    HW2 2147   1.020   0.248   2.936 -0.4219  2.8606 -0.1246
  537SOL     MW 2148   1.009   0.166   2.907 -0.3840  0.1995 -0.3820
  538SOL     OW 2149   1.369   0.071   2.976  0.1356 -0.1334 -0.0837
  538SOL    HW1 2150   1.329   0.155   2.949 -0.7520 -1.1349  0.3047
  538SOL    HW2 2151   1.458   0.075   2.943 -0.2205 -0.4623  1.9091
  538SOL     MW 2152   1.376   0.083   2.968 -0.0285 -0.3090  0.2305
  539SOL     OW 2153   0.758   2.782   2.549  0.0916 -0.0692 -0.1494
  539SOL    HW1 2154   0.854   2.802   2.578  0.5022 -0.2775  0.2272
  539SOL    HW2 2155   0.738   2.693   2.585 -1.8891 -0.3257 -1.3124
  539SOL     MW 2156   0.768   2.773   2.558 -0.1156 -0.1305 -0.2531
  540SOL     OW 2157   0.367   2.395   2.839  0.4753  0.0099  0.1485
  540SOL    HW1 2158   0.449   2.393   2.891 -1.3305  0.7367 -0.7757
  540SOL    HW2 2159   0.324   2.322   2.884 -0.6120  0.7330 -1.6474
  540SOL     MW 2160   0.372   2.385   2.851  0.0936  0.2012 -0.2104
  541SOL     OW 2161   0.180   2.930   2.216 -0.0692  0.4214  0.1291
  541SOL    HW1 2162   0.197   2.864   2.151 -2.6590 -1.0514 -0.5847
  541SOL    HW2 2163   0.229   2.907   2.292  1.1478  0.9340 -0.2489
  541SOL     MW 2164   0.189   2.919   2.218 -0.2503  0.2947 -0.0149
  542SOL     OW 2165   0.995   2.241   2.591 -0.0400 -0.3228  0.7652
  542SOL    HW1 2166   0.987   2.173   2.658 -1.1775  1.5033 -1.5793
  542SOL    HW2 2167   1.035   2.316   2.644  1.0538  2.6320 -1.0799
  542SOL     MW 2168   0.999   2.242   2.607 -0.0457  0.3080  0.2124
  543SOL     OW 2169   1.445   2.474   2.780 -0.2629 -0.2489  0.6752
  543SOL    HW1 2170   1.468   2.395   2.734 -2.4973 -3.0455  1.9071
  543SOL    HW2 2171   1.514   2.541   2.757  0.8005  0.6101 -1.0080
  543SOL     MW 2172   1.457   2.473   2.771 -0.4174 -0.5046  0.6157
  544SOL     OW 2173   0.706   0.222   2.681  0.6109 -0.6518  0.2574
  544SOL    HW1 2174   0.618   0.231   2.671  2.5396 -0.7446  0.2191
  544SOL    HW2 2175   0.735   0.152   2.622  2.4271  1.8791 -2.7696
  544SOL     MW 2176   0.698   0.214   2.672  1.1050 -0.3301 -0.1470
  545SOL     OW 2177   1.581   2.168   2.321 -0.3636  0.2148  0.3693
  545SOL    HW1 2178   1.510   2.187   2.262 -0.1236  0.5940 -1.3065
  545SOL    HW2 2179   1.637   2.112   2.260 -1.6562  1.1237 -0.2123
  545SOL     MW 2180   1.579   2.163   2.305 -0.5025  0.3847  0.0714
  546SOL     OW 2181   2.996   2.014   0.135  0.2360  0.3548  0.3934
  546SOL    HW1 2182   2.980   2.076   0.059  2.1817 -0.2758  1.9631
  546SOL    HW2 2183   3.080   1.966   0.123  0.7440 -1.4355 -0.9755
  546SOL     MW 2184   3.005   2.016   0.123  0.5598  0.0354  0.4199
  547SOL     OW 2185   0.299   2.978   0.124 -0.1499 -0.7656 -0.5750
  547SOL    HW1 2186   0.317   3.023   0.044  2.7674  1.8274 -2.8425
  547SOL    HW2 2187   0.273   2.885   0.091  1.2794 -0.3897  1.0334
  547SOL     MW 2188   0.298   2.971   0.109  0.4236 -0.3739 -0.6620
  548SOL     OW 2189   0.278   2.560   0.241  0.0879 -0.1608 -0.7220
  548SOL    HW1 2190   0.242   2.620   0.176  1.5555 -0.9596  0.2517
  548SOL    HW2 2191   0.256   2.473   0.206 -4.8909 -1.6912  0.0029
  548SOL     MW 2192   0.271   2.557   0.228 -0.3754 -0.4681 -0.4979
  549SOL     OW 2193   0.847   1.881   2.144  0.3200 -0.0438  0.6007
  549SOL    HW1 2194   0.853   1.970   2.107  3.2913  1.4652 -1.2476
  549SOL    HW2 2195   0.795   1.879   2.223 -0.8856 -1.6250  0.4374
  549SOL     MW 2196   0.841   1.893   2.149  0.5529 -0.0533  0.3353
  550SOL     OW 2197   1.798   1.712   2.550 -0.3289  0.0238  0.2344
  550SOL    HW1 2198   1.785   1.735   2.454  1.8469  1.1776  1.0316
  550SOL    HW2 2199   1.760   1.793   2.584  1.1924 -0.7408  0.9198
  550SOL     MW 2200   1.792   1.726   2.542  0.1589  0.0751  0.4300
  551SOL     OW 2201   0.878   2.244   0.216  0.1513  0.2910  0.5249
  551SOL    HW1 2202   0.973   2.250   0.209 -0.2887 -1.0360 -0.4775
  551SOL    HW2 2203   0.860   2.150   0.199 -0.8573 -1.7223  2.2277
  551SOL     MW 2204   0.888   2.232   0.213 -0.0398 -0.1497  0.6173
  552SOL     OW 2205   1.768   1.740   2.279 -0.2927 -0.1221  0.7692
  552SOL    HW1 2206   1.670   1.716   2.289  3.0229  1.3508 -0.2095
  552SOL    HW2 2207   1.802   1.688   2.195  0.9384 -0.4306 -1.7119
  552SOL     MW 2208   1.760   1.730   2.269  0.3072  0.0315  0.3127
  553SOL     OW 2209   1.191   2.314   1.444  0.3424  0.0186  0.0904
  553SOL    HW1 2210   1.261   2.256   1.470 -1.1934  2.5844 -2.2278
  553SOL    HW2 2211   1.247   2.383   1.407 -0.5688  1.0713 -0.0671
  553SOL     MW 2212   1.208   2.315   1.442  0.0195  0.4960 -0.2363
  554SOL     OW 2213   0.546   2.927   2.648 -0.3859  0.1427 -0.6609
  554SOL    HW1 2214   0.495   3.001   2.608  1.9243 -1.3310 -0.4639
  554SOL    HW2 2215   0.610   2.890   2.589 -2.1294 -1.0869  0.9092
  554SOL     MW 2216   0.548   2.932   2.635 -0.3111 -0.2140 -0.4278
  555SOL     OW 2217   0.629   2.472   2.555  0.3467  0.6147 -0.8425
  555SOL    HW1 2218   0.569   2.400   2.556  1.9404  2.6739  2.9928
  555SOL    HW2 2219   0.701   2.457   2.493 -3.3595 -1.6910 -0.7609
  555SOL     MW 2220   0.630   2.461   2.547  0.0679  0.5822 -0.3257
  556SOL     OW 2221   0.954   1.817   0.163  0.6740  0.0616 -0.0431
  556SOL    HW1 2222   0.994   1.823   0.076  4.4364 -1.3789 -0.6446
  556SOL    HW2 2223   1.011   1.859   0.226 -1.1997  1.1434 -0.9922
  556SOL     MW 2224   0.967   1.824   0.160  0.9232  0.0142 -0.2477
  557SOL     OW 2225   0.977   2.672   0.506 -0.0404 -0.0401  0.4178
  557SOL    HW1 2226   1.033   2.648   0.429 -2.3268 -1.8385 -0.0484
  557SOL    HW2 2227   0.918   2.742   0.464  1.1978 -0.7057 -2.1722
  557SOL     MW 2228   0.977   2.678   0.491 -0.1787 -0.3652  0.0146
  558SOL     OW 2229   0.269   2.203   3.038  0.1254  1.0854 -0.9123
  558SOL    HW1 2230   0.268   2.108   3.051  2.1412  1.2030  2.0642
  558SOL    HW2 2231   0.200   2.242   3.092  0.1028  1.5353  2.1467
  558SOL     MW 2232   0.260   2.196   3.047  0.3883  1.1603 -0.1160
  559SOL     OW 2233   1.018   2.333   2.124 -0.2944  0.6491 -0.1634
  559SOL    HW1 2234   1.039   2.388   2.202 -1.9720  0.4301 -0.0691
  559SOL    HW2 2235   1.042   2.240   2.156  1.1547 -2.1310  1.3316
  559SOL     MW 2236   1.024   2.328   2.139 -0.3245  0.2534  0.0463
  560SOL     OW 2237   1.964   2.848   0.033  0.4058 -0.0820  0.0350
  560SOL    HW1 2238   2.046   2.870  -0.007 -0.3464 -0.7737 -0.5861
  560SOL    HW2 2239   1.908   2.804  -0.030 -2.6382  2.3729 -1.2093
  560SOL     MW 2240   1.967   2.845   0.020 -0.0951  0.1506 -0.2111
  561SOL     OW 2241   0.418   2.195   0.190 -0.1772  0.1315  0.0149
  561SOL    HW1 2242   0.399   2.216   0.097 -0.8274  1.2640 -4.6562
  561SOL    HW2 2243   0.471   2.268   0.218 -1.1951 -0.0916 -4.6017
  561SOL     MW 2244   0.422   2.208   0.182 -0.3973  0.2515 -1.2106
  562SOL     OW 2245   0.757   2.209   2.205 -0.9152 -0.4827 -0.2235
  562SOL    HW1 2246   0.785   2.286   2.158 -0.9950 -1.3292  0.7613
  562SOL    HW2 2247   0.839   2.186   2.248  0.9642 -1.4889 -0.7875
  562SOL     MW 2248   0.772   2.216   2.204 -0.6777 -0.7272 -0.1680
  563SOL     OW 2249   1.176   0.323   0.560  0.1410 -0.8765 -0.0718
  563SOL    HW1 2250   1.113   0.286   0.497  2.1075 -0.2229 -1.9369
  563SOL    HW2 2251   1.204   0.260   0.628 -3.0521  0.7193  1.7409
  563SOL     MW 2252   1.171   0.310   0.560 -0.0208 -0.5797 -0.0787
  564SOL     OW 2253   1.041   2.619   2.229  0.4801 -0.3858  0.4153
  564SOL    HW1 2254   1.088   2.626   2.139 -3.1294 -0.0796  1.5193
  564SOL    HW2 2255   1.100   2.664   2.286 -0.3641  2.2279 -1.3281
  564SOL     MW 2256   1.055   2.626   2.225 -0.1075 -0.0005  0.3310
  565SOL     OW 2257   2.897   2.732   2.667  0.0450  0.1376  0.2897
  565SOL    HW1 2258   2.960   2.805   2.652 -1.2323  1.7046 -0.1267
  565SOL    HW2 2259   2.831   2.738   2.599 -2.0196 -0.0506  0.5816
  565SOL     MW 2260   2.896   2.742   2.656 -0.3959  0.3195  0.2733
  566SOL     OW 2261   2.150   1.883   2.366  0.3913 -0.4003  0.0602
  566SOL    HW1 2262   2.189   1.864   2.281  0.3094  1.3432 -0.4252
  566SOL    HW2 2263   2.186   1.976   2.385 -2.1420 -0.4792 -1.9123
  566SOL     MW 2264   2.160   1.893   2.357  0.0463 -0.1807 -0.2641
  567SOL     OW 2265   1.184   2.898   2.928  0.1966  0.3313 -0.5070
  567SOL    HW1 2266   1.265   2.931   2.964 -2.8110 -0.5688 -0.3662
  567SOL    HW2 2267   1.218   2.811   2.935  2.5437 -0.8842 -2.0978
  567SOL     MW 2268   1.199   2.891   2.933  0.1094  0.0522 -0.6983
  568SOL     OW 2269   1.608   2.149   2.882  0.0466  0.1742 -0.1193
  568SOL    HW1 2270   1.667   2.180   2.954  1.9446 -0.3325 -0.9477
  568SOL    HW2 2271   1.638   2.061   2.854 -1.1644  2.7966  0.5097
  568SOL     MW 2272   1.619   2.142   2.888  0.1372  0.4533 -0.1456
  569SOL     OW 2273   0.186   2.251   2.489  0.6826  0.0610  0.0998
  569SOL    HW1 2274   0.132   2.278   2.415 -1.3821  3.6838 -0.0516
  569SOL    HW2 2275   0.180   2.324   2.554 -1.2766  0.0479  0.3318
  569SOL     MW 2276   0.178   2.264   2.488  0.1517  0.5373  0.1104
  570SOL     OW 2277   1.423   0.381   0.490  0.6895  0.2143  0.2356
  570SOL    HW1 2278   1.327   0.364   0.504 -2.4442 -0.2526 -3.3249
  570SOL    HW2 2279   1.465   0.421   0.570  0.5364  1.1665 -0.0798
  570SOL     MW 2280   1.416   0.384   0.503  0.2558  0.2783 -0.2758
  571SOL     OW 2281   1.495   2.433   1.996  0.3756  0.4461  0.2620
  571SOL    HW1 2282   1.535   2.448   2.085  1.0854  0.7070  1.0925
  571SOL    HW2 2283   1.513   2.346   1.961  0.3237  1.4313  2.6142
  571SOL     MW 2284   1.503   2.424   2.003  0.4624  0.6105  0.6819
  572SOL     OW 2285   0.961   2.658   0.038  0.8638  0.3183  0.0603
  572SOL    HW1 2286   0.968   2.700  -0.047 -3.6101  2.5339  0.4793
  572SOL    HW2 2287   0.875   2.622   0.037  2.8368  1.0677  2.1995
  572SOL     MW 2288   0.951   2.659   0.027  0.5338  0.7095  0.3978
  573SOL     OW 2289   1.154   2.318   0.233 -0.5015 -0.2108 -0.6578
  573SOL    HW1 2290   1.244   2.306   0.219 -0.0861 -1.3382  0.2357
  573SOL    HW2 2291   1.139   2.407   0.275 -0.1245 -0.3958 -0.9170
  573SOL     MW 2292   1.164   2.328   0.236 -0.3969 -0.3839 -0.5741
  574SOL     OW 2293   1.123   2.607   0.281 -0.2714 -0.1925  0.5623
  574SOL    HW1 2294   1.202   2.654   0.293  1.5809 -2.2633  1.2738
  574SOL    HW2 2295   1.080   2.642   0.201 -1.5949  0.5244 -2.8392
  574SOL     MW 2296   1.128   2.618   0.272 -0.2016 -0.3711  0.2074
  575SOL     OW 2297   0.052   2.298   1.801  0.3160 -0.4659  0.5858
  575SOL    HW1 2298   0.076   2.239   1.733  1.8964 -1.3453  2.0499
  575SOL    HW2 2299   0.054   2.390   1.776 -1.8878  0.1000  0.2235
  575SOL     MW 2300   0.055   2.302   1.789  0.2337 -0.5073  0.7312
  576SOL     OW 2301   2.808   1.821   2.096 -0.6228 -0.2080  0.6928
  576SOL    HW1 2302   2.842   1.893   2.038  0.3052 -3.0963  0.6973
  576SOL    HW2 2303   2.722   1.807   2.053 -0.5097 -1.4512  0.6791
  576SOL     MW 2304   2.801   1.829   2.083 -0.4854 -0.7531  0.6916
  577SOL     OW 2305   2.082   0.198   0.104 -0.0572  0.0262  0.1883
  577SOL    HW1 2306   2.020   0.244   0.051  1.8095 -0.8232  2.5225
  577SOL    HW2 2307   2.033   0.162   0.175 -0.7466 -0.8501  0.4259
  577SOL     MW 2308   2.068   0.200   0.106  0.0982 -0.2014  0.5276
  578SOL     OW 2309   1.935   2.020   2.381  0.1623 -0.3674 -0.3553
  578SOL    HW1 2310   1.858   1.979   2.347  0.5364  0.6233  0.7816
  578SOL    HW2 2311   2.003   1.946   2.381  2.4163 -0.2980 -0.8078
  578SOL     MW 2312   1.934   2.005   2.377  0.5090 -0.2275 -0.2650
  579SOL     OW 2313   0.873   2.448   2.410 -0.2449 -0.4404 -0.3462
  579SOL    HW1 2314   0.902   2.369   2.466 -0.2134 -0.4480 -0.0367
  579SOL    HW2 2315   0.947   2.502   2.387 -0.2155 -0.3505 -0.2548
  579SOL     MW 2316   0.886   2.445   2.415 -0.2369 -0.4295 -0.2933
  580SOL     OW 2317   0.933   2.952   3.059  0.3265 -0.8704 -0.0149
  580SOL    HW1 2318   1.030   2.936   3.044  1.2010 -3.2519  1.7450
  580SOL    HW2 2319   0.894   2.911   2.983  0.8445  0.8856  0.2654
  580SOL     MW 2320   0.940   2.944   3.047  0.5102 -0.9530  0.2543
  581SOL     OW 2321   1.169   2.482   1.697 -0.3800  0.0419 -0.1981
  581SOL    HW1 2322   1.250   2.481   1.741 -5.7266 -2.5056  3.5625
  581SOL    HW2 2323   1.186   2.441   1.614 -2.0406 -2.1924 -0.4453
  581SOL     MW 2324   1.182   2.476   1.692 -1.3045 -0.5890  0.2654
  582SOL     OW 2325   0.010   2.867   2.567  0.2956 -0.0108  0.4244
  582SOL    HW1 2326   0.003   2.951   2.616  1.0158  1.9136  1.2367
  582SOL    HW2 2327   0.093   2.851   2.528  0.2796 -0.6799  0.2724
  582SOL     MW 2328   0.020   2.876   2.568  0.3885  0.1548  0.5115
  583SOL     OW 2329   2.019   2.377   2.685 -0.6045  0.8796 -0.1024
  583SOL    HW1 2330   2.073   2.419   2.617  0.7846 -0.3243  0.4866
  583SOL    HW2 2331   1.998   2.285   2.655 -0.6725 -2.1039 -0.6320
  583SOL     MW 2332   2.024   2.371   2.672 -0.4302  0.3271 -0.0946
  584SOL     OW 2333   0.240   1.833   2.220 -0.1040  0.6187  0.1766
  584SOL    HW1 2334   0.286   1.838   2.135 -0.8974  2.4188 -2.3140
  584SOL    HW2 2335   0.264   1.917   2.257  0.2017  0.2466  0.9704
  584SOL     MW 2336   0.249   1.845   2.214 -0.1684  0.8071 -0.0473
  585SOL     OW 2337   1.536   2.663   0.166  0.1968 -0.2948  0.4374
  585SOL    HW1 2338   1.518   2.615   0.085  1.7029  1.2632  0.7786
  585SOL    HW2 2339   1.454   2.660   0.211  1.5543  0.8244 -1.6226
  585SOL     MW 2340   1.523   2.656   0.161  0.5746  0.0584  0.2106
  586SOL     OW 2341   1.346   2.843   2.522 -0.4481 -0.0257  0.0959
  586SOL    HW1 2342   1.429   2.816   2.468  1.0072 -0.4188 -1.9369
  586SOL    HW2 2343   1.363   2.937   2.540 -0.7892 -2.2899  0.7621
  586SOL     MW 2344   1.359   2.852   2.517 -0.3011 -0.3763 -0.0844
  587SOL     OW 2345   1.329   1.557   2.194 -0.0137  0.1086  0.2065
  587SOL    HW1 2346   1.324   1.477   2.252  0.3508 -0.8473 -0.6132
  587SOL    HW2 2347   1.279   1.541   2.114 -0.7048  1.6219  1.7162
  587SOL     MW 2348   1.321   1.544   2.191 -0.0568  0.1821  0.2976
  588SOL     OW 2349   1.352   2.101   2.751 -0.6685 -0.3936  0.4671
  588SOL    HW1 2350   1.426   2.136   2.793 -2.5752 -0.2718 -1.8525
  588SOL    HW2 2351   1.276   2.127   2.814 -2.0305 -0.7566 -1.3142
  588SOL     MW 2352   1.352   2.109   2.765 -1.0997 -0.4255 -0.0739
  589SOL     OW 2353   1.257   2.039   0.107  0.3081 -0.1000  0.0479
  589SOL    HW1 2354   1.311   2.114   0.138 -0.1911  0.5449  0.5497
  589SOL    HW2 2355   1.230   1.986   0.182  1.9155  0.8881 -0.1070
  589SOL     MW 2356   1.260   2.042   0.121  0.4544  0.1155  0.0937
  590SOL     OW 2357   0.453   2.774   2.209  0.6565 -0.1113  0.2635
  590SOL    HW1 2358   0.437   2.706   2.148  1.4387  1.6753  3.3043
  590SOL    HW2 2359   0.546   2.786   2.207 -1.2385  3.0420 -0.7725
  590SOL     MW 2360   0.463   2.767   2.200  0.5097  0.5404  0.5280
  591SOL     OW 2361   2.257   0.665   0.003 -0.7677 -0.6008  0.3771
  591SOL    HW1 2362   2.179   0.722  -0.010 -0.3134  0.7796 -0.2876
  591SOL    HW2 2363   2.342   0.709  -0.038  3.9879  0.9965 -1.5942
  591SOL     MW 2364   2.258   0.679  -0.004 -0.0803 -0.2079  0.0293
  592SOL     OW 2365   1.760   2.956   0.820  0.0814 -0.2074  0.1579
  592SOL    HW1 2366   1.769   3.025   0.751  2.1317  3.7557 -0.5815
  592SOL    HW2 2367   1.811   2.881   0.787 -1.2963 -1.1887  1.4229
  592SOL     MW 2368   1.768   2.955   0.807  0.1701  0.1860  0.2273
  593SOL     OW 2369   1.954   0.683   0.849  0.6688 -0.4079 -0.3210
  593SOL    HW1 2370   1.874   0.654   0.809  1.2027 -2.7651 -1.9037
  593SOL    HW2 2371   2.020   0.647   0.793  0.1268 -2.6157  0.5554
  593SOL     MW 2372   1.952   0.674   0.836  0.6678 -1.0102 -0.4142
  594SOL     OW 2373   2.828   1.143   1.361  0.5914  0.0780  0.1289
  594SOL    HW1 2374   2.925   1.159   1.376  0.3994  1.5882 -2.0035
  594SOL    HW2 2375   2.840   1.080   1.289  0.2613  1.2750  2.0146
  594SOL     MW 2376   2.843   1.137   1.353  0.5225  0.4352  0.0964
  595SOL     OW 2377   0.434   1.009   0.829 -0.8597  0.0094  0.5505
  595SOL    HW1 2378   0.442   1.066   0.752 -0.8301 -0.2106 -1.1710
  595SOL    HW2 2379   0.464   1.057   0.914 -1.6641  1.5694  1.4643
  595SOL     MW 2380   0.439   1.023   0.830 -0.9619  0.1862  0.4439
  596SOL     OW 2381   2.448   1.322   0.601 -0.0856 -0.2673 -0.1550
  596SOL    HW1 2382   2.505   1.392   0.573  2.2025 -1.6709 -0.6456
  596SOL    HW2 2383   2.497   1.260   0.656  0.1849 -0.6875  2.6396
  596SOL     MW 2384   2.462   1.323   0.605  0.2520 -0.5080  0.1490
  597SOL     OW 2385   2.203   0.721   1.607  0.3978 -0.7689 -0.1270
  597SOL    HW1 2386   2.221   0.663   1.684 -0.2137 -1.0347  0.7580
  597SOL    HW2 2387   2.145   0.662   1.550 -0.5302  0.4015 -0.6342
  597SOL     MW 2388   2.198   0.706   1.610  0.1947 -0.6496 -0.0772
  598SOL     OW 2389   2.604   1.006   2.868 -0.0466 -0.2697 -0.2081
  598SOL    HW1 2390   2.607   0.990   2.773 -1.5268 -1.2758 -0.9558
  598SOL    HW2 2391   2.676   1.069   2.883  2.1804  1.4154  0.8530
  598SOL     MW 2392   2.614   1.012   2.857  0.0519 -0.1801 -0.1667
  599SOL     OW 2393   2.964   0.410   2.070 -0.4419 -0.2988  0.3616
  599SOL    HW1 2394   3.012   0.417   2.157  1.0850  0.5657  0.1102
  599SOL    HW2 2395   2.988   0.499   2.033 -1.8891 -0.2434 -1.0512
  599SOL     MW 2396   2.974   0.423   2.076 -0.4314 -0.1774  0.1420
  600SOL     OW 2397   1.884   1.604   0.838 -0.1611 -0.1998 -0.3654
  600SOL    HW1 2398   1.935   1.648   0.906 -2.0634 -0.6917  1.2698
  600SOL    HW2 2399   1.823   1.675   0.814 -1.6041 -1.5797 -2.5379
  600SOL     MW 2400   1.882   1.619   0.844 -0.6025 -0.4468 -0.4363
  601SOL     OW 2401   2.476   0.767   0.828  0.5180 -0.2506 -0.2320
  601SOL    HW1 2402   2.471   0.784   0.926 -2.3123 -1.5130  3.4234
  601SOL    HW2 2403   2.406   0.707   0.802  1.6309  1.1196  0.6268
  601SOL     MW 2404   2.466   0.761   0.838  0.2914 -0.2364  0.3636
  602SOL     OW 2405   2.347   1.935   0.823  0.2258  0.4553 -0.5185
  602SOL    HW1 2406   2.324   1.842   0.812 -1.8487  0.2925  1.1532
  602SOL    HW2 2407   2.270   1.987   0.801  0.1880  1.6906  0.2500
  602SOL     MW 2408   2.334   1.929   0.819 -0.0529  0.5968 -0.1965
  603SOL     OW 2409   3.090   1.361   1.815  0.0562 -0.5113  0.3176
  603SOL    HW1 2410   3.135   1.413   1.885  1.7428  1.4101 -3.2488
  603SOL    HW2 2411   3.091   1.269   1.828 -0.6008  0.3944 -0.1807
  603SOL     MW 2412   3.096   1.356   1.826  0.1920 -0.1383 -0.2187
  604SOL     OW 2413   2.170   1.586   0.451  0.2497 -0.2573  0.0383
  604SOL    HW1 2414   2.196   1.514   0.509  1.3759 -0.6582 -0.8106
  604SOL    HW2 2415   2.097   1.641   0.501 -2.4409  0.2282 -0.4315
  604SOL     MW 2416   2.164   1.584   0.465  0.0433 -0.2461 -0.1357
  605SOL     OW 2417   2.608   1.509   0.841 -0.0380 -0.5325  0.1746
  605SOL    HW1 2418   2.581   1.596   0.794 -0.1412 -0.2483 -1.9470
  605SOL    HW2 2419   2.555   1.449   0.783 -1.1632 -2.6884  1.6172
  605SOL     MW 2420   2.597   1.513   0.827 -0.2001 -0.7795  0.0850
  606SOL     OW 2421   2.569   1.744   2.001  0.8032 -0.9239  0.1946
  606SOL    HW1 2422   2.476   1.749   1.978 -0.1663 -2.0100  0.0007
  606SOL    HW2 2423   2.614   1.702   1.928  1.2674 -2.8350  0.1395
  606SOL     MW 2424   2.563   1.739   1.989  0.7365 -1.3194  0.1618
  607SOL     OW 2425   2.388   1.127   3.049 -0.1924  0.2244 -0.0392
  607SOL    HW1 2426   2.441   1.084   2.984  1.2276 -0.1555 -0.2306
  607SOL    HW2 2427   2.419   1.096   3.136  1.3293 -0.2348  2.2437
  607SOL     MW 2428   2.399   1.117   3.052  0.1958  0.1137  0.2368
  608SOL     OW 2429   1.860   0.267   0.629 -0.6540  0.2629 -0.3164
  608SOL    HW1 2430   1.842   0.314   0.544  1.6888  1.2616  0.8841
  608SOL    HW2 2431   1.833   0.178   0.607  0.3775 -0.9522 -0.7177
  608SOL     MW 2432   1.854   0.261   0.615 -0.2088  0.2343 -0.2109
  609SOL     OW 2433   2.042   2.010   3.033  0.0245 -0.3919 -0.7944
  609SOL    HW1 2434   1.992   1.937   3.009 -1.4694  1.1513  0.0828
  609SOL    HW2 2435   2.108   1.976   3.103  2.7707  1.5037  1.8789
  609SOL     MW 2436   2.044   1.996   3.039  0.1897  0.0618 -0.3259
  610SOL     OW 2437   1.780   0.997   1.285  0.4709 -0.4273 -0.0771
  610SOL    HW1 2438   1.809   0.919   1.243  0.0454  1.6341 -3.2834
  610SOL    HW2 2439   1.688   0.997   1.265  2.3557 -0.6723 -2.5398
  610SOL     MW 2440   1.772   0.987   1.277  0.6635 -0.1877 -0.8250
  611SOL     OW 2441   2.534   1.723   0.697  0.2454 -0.2053 -0.0976
  611SOL    HW1 2442   2.556   1.806   0.733  1.2740 -0.6718  0.8888
  611SOL    HW2 2443   2.467   1.728   0.625 -2.6865 -2.1472  0.3387
  611SOL     MW 2444   2.528   1.735   0.692 -0.0057 -0.5230  0.0901
  612SOL     OW 2445   2.791   2.840   0.419  0.5871 -0.2095  0.1214
  612SOL    HW1 2446   2.824   2.881   0.502 -1.5045  1.0371 -1.4103
  612SOL    HW2 2447   2.875   2.806   0.377  1.5073  1.1979  0.5036
  612SOL     MW 2448   2.806   2.841   0.424  0.4325  0.1407 -0.0303
  613SOL     OW 2449   1.472   0.999   0.923  0.3602  0.6991 -0.2767
  613SOL    HW1 2450   1.533   1.059   0.884 -3.0178  0.6271 -1.4373
  613SOL    HW2 2451   1.490   0.999   1.021 -1.5297 -0.4061 -0.6615
  613SOL     MW 2452   1.483   1.007   0.931 -0.3348  0.5438 -0.4806
  614SOL     OW 2453   2.018   0.563   1.459  0.4163  0.1526 -0.2477
  614SOL    HW1 2454   1.984   0.509   1.533 -0.7234  0.5010 -2.2437
  614SOL    HW2 2455   1.966   0.544   1.382 -0.2657  1.7273  4.5073
  614SOL     MW 2456   2.007   0.554   1.459  0.1760  0.4063  0.1163
  615SOL     OW 2457   2.384   0.741   0.248 -0.0356  0.1366 -0.2505
  615SOL    HW1 2458   2.454   0.689   0.290 -2.4239 -0.8392  4.6461
  615SOL    HW2 2459   2.351   0.710   0.160 -1.3930  0.1729 -4.1373
  615SOL     MW 2460   2.389   0.730   0.242 -0.5298  0.0126 -0.1173
  616SOL     OW 2461   2.536   0.406   1.648  0.4959 -0.1555  0.3086
  616SOL    HW1 2462   2.549   0.316   1.626 -0.1922  2.4062 -2.2963
  616SOL    HW2 2463   2.505   0.454   1.570  0.3530  1.2186 -0.1229
  616SOL     MW 2464   2.534   0.401   1.635  0.3863  0.3638 -0.0920
  617SOL     OW 2465   2.831   0.657   1.746 -1.0201 -0.1137 -0.3389
  617SOL    HW1 2466   2.763   0.696   1.793 -1.7385  0.4897 -1.1708
  617SOL    HW2 2467   2.828   0.562   1.749  0.6482  1.0008  0.9657
  617SOL     MW 2468   2.822   0.649   1.752 -0.8948  0.1130 -0.2765
  618SOL     OW 2469   2.723   0.357   1.915  0.9259 -0.2630  0.6477
  618SOL    HW1 2470   2.683   0.445   1.895 -0.8993  0.0857 -1.6738
  618SOL    HW2 2471   2.800   0.370   1.974 -1.1921  1.3357  3.9641
  618SOL     MW 2472   2.728   0.370   1.920  0.4056 -0.0061  0.7789
  619SOL     OW 2473   2.670   0.663   0.082 -0.0720  0.6888  0.1678
  619SOL    HW1 2474   2.722   0.741   0.115  0.0882  0.9543 -0.2968
  619SOL    HW2 2475   2.637   0.623   0.164 -2.6533  3.1557  1.0180
  619SOL     MW 2476   2.672   0.668   0.097 -0.3914  1.0493  0.2187
  620SOL     OW 2477   2.220   1.062   0.996 -0.3909 -0.1421 -0.7523
  620SOL    HW1 2478   2.309   1.071   0.955 -2.8112  0.1020 -1.8884
  620SOL    HW2 2479   2.178   0.996   0.946  1.7105  1.7628 -1.4522
  620SOL     MW 2480   2.226   1.055   0.984 -0.4330  0.1414 -0.9945
  621SOL     OW 2481   1.552   2.171   1.915 -0.0324  0.5193 -0.5549
  621SOL    HW1 2482   1.500   2.116   1.982 -0.9653 -2.2154 -1.2965
  621SOL    HW2 2483   1.646   2.141   1.922  3.6054 -2.2270  2.6523
  621SOL     MW 2484   1.558   2.160   1.925  0.3245 -0.2039 -0.2296
  622SOL     OW 2485   2.626   0.171   0.233 -0.2109  0.2131 -0.2139
  622SOL    HW1 2486   2.716   0.204   0.243 -0.0755 -0.7395 -0.2752
  622SOL    HW2 2487   2.634   0.086   0.277 -0.8270  0.3258 -0.6496
  622SOL     MW 2488   2.639   0.164   0.240 -0.2743  0.1023 -0.2794
  623SOL     OW 2489   2.357   2.769   0.843  0.6538 -0.3690  0.0747
  623SOL    HW1 2490   2.443   2.816   0.845 -0.4110 -0.6266  1.6042
  623SOL    HW2 2491   2.317   2.793   0.927  2.5118  0.4755 -1.9701
  623SOL     MW 2492   2.363   2.778   0.855  0.7584 -0.2916  0.0067
  624SOL     OW 2493   2.178   1.720   2.986 -0.6948 -0.2987 -0.3754
  624SOL    HW1 2494   2.146   1.635   3.004  1.9786  0.9603  1.7586
  624SOL    HW2 2495   2.097   1.744   2.946  1.7474 -2.6692  1.5341
  624SOL     MW 2496   2.163   1.712   2.983 -0.0199 -0.4453  0.1581
  625SOL     OW 2497   2.210   1.908   1.090  0.3023 -0.5418 -0.0581
  625SOL    HW1 2498   2.270   1.882   1.166 -0.6082 -0.3746 -2.9219
  625SOL    HW2 2499   2.263   1.912   1.008 -1.1481 -2.9271  0.2659
  625SOL     MW 2500   2.225   1.905   1.089 -0.0092 -0.8344 -0.3932
  626SOL     OW 2501   0.317   1.597   2.348 -0.1909 -0.1827  0.3178
  626SOL    HW1 2502   0.276   1.516   2.365  2.2869 -2.0168  1.2239
  626SOL    HW2 2503   0.255   1.653   2.305  1.1583  1.2289  2.4749
  626SOL     MW 2504   0.304   1.593   2.344  0.3141 -0.2384  0.7219
  627SOL     OW 2505   2.442   0.706   2.565 -0.1940  0.0058  0.5846
  627SOL    HW1 2506   2.427   0.794   2.603  1.4982 -0.4637  1.6948
  627SOL    HW2 2507   2.400   0.698   2.480 -0.7426 -0.2304  2.8208
  627SOL     MW 2508   2.434   0.717   2.559 -0.0431 -0.0873  1.0261
  628SOL     OW 2509   2.339   1.411   1.349  0.0539 -0.1009 -0.5231
  628SOL    HW1 2510   2.307   1.346   1.289 -0.4268  1.8659 -0.2250
  628SOL    HW2 2511   2.431   1.433   1.317 -0.3308  0.4025 -1.8693
  628SOL     MW 2512   2.347   1.406   1.337 -0.0603  0.2250 -0.6614
  629SOL     OW 2513   1.864   0.519   1.248  0.4310  0.3846  0.0802
  629SOL    HW1 2514   1.877   0.595   1.195 -0.1311  0.7287  0.3093
  629SOL    HW2 2515   1.766   0.501   1.251 -2.1371 -2.1740 -2.3317
  629SOL     MW 2516   1.852   0.526   1.241  0.0180  0.0924 -0.2078
  630SOL     OW 2517   2.410   1.830   3.007 -0.3886 -0.4036  1.1267
  630SOL    HW1 2518   2.393   1.913   2.956  0.4149 -3.0176 -0.8928
  630SOL    HW2 2519   2.324   1.781   2.997 -1.8861 -2.1219  1.4614
  630SOL     MW 2520   2.397   1.835   2.999 -0.4801 -0.9752  0.9044
  631SOL     OW 2521   2.001   1.824   1.598  0.5128  0.0460  0.0952
  631SOL    HW1 2522   2.015   1.735   1.623  0.4294  2.6906 -0.3311
  631SOL    HW2 2523   1.971   1.813   1.503  0.9820  3.0172 -1.6154
  631SOL     MW 2524   1.999   1.810   1.589  0.5637  0.7870 -0.1868
  632SOL     OW 2525   0.182   1.948   1.409  0.0301 -0.5572 -0.5420
  632SOL    HW1 2526   0.128   1.951   1.489 -1.5362  0.5677  1.0722
  632SOL    HW2 2527   0.195   1.856   1.375 -1.5763  2.5385 -1.5872
  632SOL     MW 2528   0.176   1.936   1.415 -0.3885 -0.0003 -0.4669
  633SOL     OW 2529   2.558   0.489   0.318 -0.0703  0.1588 -0.5795
  633SOL    HW1 2530   2.615   0.483   0.395  1.5951  1.2419  0.5908
  633SOL    HW2 2531   2.498   0.417   0.310 -0.2499  1.3330  1.5829
  633SOL     MW 2532   2.558   0.479   0.327  0.1257  0.4566 -0.1397
  634SOL     OW 2533   2.643   0.038   0.665 -0.0328  0.8446 -0.1021
  634SOL    HW1 2534   2.719   0.087   0.632 -0.7757 -0.0603 -1.5776
  634SOL    HW2 2535   2.617  -0.000   0.583  1.6599 -3.5512  1.3255
  634SOL     MW 2536   2.650   0.039   0.650  0.0925  0.1452 -0.1084
  635SOL     OW 2537   2.611   0.122   1.848 -0.0603 -0.5199 -0.0569
  635SOL    HW1 2538   2.675   0.080   1.792 -1.0333 -0.6123  1.9618
  635SOL    HW2 2539   2.642   0.203   1.880 -3.2263 -0.0754 -0.2645
  635SOL     MW 2540   2.624   0.127   1.845 -0.6064 -0.4735  0.1820
  636SOL     OW 2541   2.838   1.607   1.041 -0.3865  0.1976 -1.1030
  636SOL    HW1 2542   2.754   1.619   1.082 -1.0002 -0.1124 -0.2792
  636SOL    HW2 2543   2.894   1.683   1.068 -0.2268 -3.4924  0.2310
  636SOL     MW 2544   2.834   1.618   1.050 -0.4464 -0.3301 -0.8183
  637SOL     OW 2545   2.875   1.460   0.753  0.1371  0.6665 -0.3408
  637SOL    HW1 2546   2.899   1.528   0.693 -0.9813  0.7337  1.5248
  637SOL    HW2 2547   2.805   1.498   0.810 -0.2943 -0.3839  0.1138
  637SOL     MW 2548   2.869   1.474   0.752 -0.0674  0.5367 -0.0346
  638SOL     OW 2549   2.708   0.520   0.586 -0.6048 -0.1508  0.1599
  638SOL    HW1 2550   2.800   0.508   0.552 -0.6317  1.8279 -1.2847
  638SOL    HW2 2551   2.718   0.560   0.673  1.3197 -2.4382 -1.2851
  638SOL     MW 2552   2.721   0.524   0.593 -0.3544 -0.1915 -0.2213
  639SOL     OW 2553   1.756   0.019   0.601 -0.6104  0.2180 -0.4077
  639SOL    HW1 2554   1.676   0.043   0.562 -1.2123 -0.6635 -1.3879
  639SOL    HW2 2555   1.776  -0.058   0.546  1.1194 -0.5314 -0.7140
  639SOL     MW 2556   1.748   0.012   0.589 -0.4616  0.0028 -0.5774
  640SOL     OW 2557   0.336   1.298   0.137 -0.1290  0.2183 -0.3946
  640SOL    HW1 2558   0.343   1.325   0.041 -0.4585  0.1432 -0.5614
  640SOL    HW2 2559   0.283   1.213   0.140 -2.0822 -1.5616  2.9572
  640SOL     MW 2560   0.330   1.291   0.125 -0.4302 -0.0265  0.0256
  641SOL     OW 2561   2.168   0.388   0.384  0.1966 -0.1462  0.3683
  641SOL    HW1 2562   2.196   0.413   0.291  0.1211  0.7574  0.7426
  641SOL    HW2 2563   2.228   0.316   0.404 -0.7156  1.5926  0.6588
  641SOL     MW 2564   2.179   0.382   0.375  0.0663  0.2024  0.4560
  642SOL     OW 2565   0.067   3.089   0.562 -0.6152 -0.0337  0.1890
  642SOL    HW1 2566   0.030   3.167   0.509  1.1715  2.9925 -1.4003
  642SOL    HW2 2567  -0.006   3.046   0.609  0.8001 -0.6926 -2.3410
  642SOL     MW 2568   0.053   3.094   0.561 -0.1927  0.2787 -0.3545
  643SOL     OW 2569   1.977   0.340   1.617  0.2247  0.5237  0.0569
  643SOL    HW1 2570   1.912   0.291   1.671 -2.3718 -2.5997 -0.4510
  643SOL    HW2 2571   2.003   0.279   1.541 -0.2208  0.6986  0.1237
  643SOL     MW 2572   1.972   0.326   1.614 -0.1767  0.1347 -0.0013
  644SOL     OW 2573   2.755   2.008   1.051  0.4802 -0.5432  0.2817
  644SOL    HW1 2574   2.752   1.964   1.137 -1.0606 -1.4741  1.1218
  644SOL    HW2 2575   2.663   2.031   1.024 -1.7201 -2.6102 -0.0810
  644SOL     MW 2576   2.743   2.006   1.059 -0.0134 -0.9388  0.3447
  645SOL     OW 2577   2.846   0.845   0.625 -0.2674  0.5322 -0.1244
  645SOL    HW1 2578   2.939   0.833   0.638  0.1988  0.3068 -0.3451
  645SOL    HW2 2579   2.808   0.777   0.681 -2.2207 -1.3822  0.1350
  645SOL     MW 2580   2.854   0.834   0.634 -0.4636  0.2499 -0.1193
  646SOL     OW 2581   0.106   2.306   0.829 -0.3843 -0.8534  0.6424
  646SOL    HW1 2582   0.126   2.207   0.842 -1.2967  1.0954  5.0695
  646SOL    HW2 2583   0.081   2.316   0.735  1.0298 -0.6779  1.4399
  646SOL     MW 2584   0.105   2.294   0.819 -0.3181 -0.5732  1.3317
  647SOL     OW 2585   2.692   0.464   2.910  0.7185 -0.1912 -0.7773
  647SOL    HW1 2586   2.642   0.409   2.968  1.2416  3.8355  0.8638
  647SOL    HW2 2587   2.627   0.532   2.883 -1.2686 -2.7856 -1.8571
  647SOL     MW 2588   2.677   0.466   2.914  0.5253 -0.0022 -0.7032
  648SOL     OW 2589   2.096   0.734   1.189  0.5532 -0.2520 -0.0285
  648SOL    HW1 2590   2.177   0.698   1.167 -1.6206 -1.0799  1.8386
  648SOL    HW2 2591   2.109   0.828   1.205  1.3561  4.1451 -2.3296
  648SOL     MW 2592   2.108   0.742   1.188  0.3723  0.2190 -0.0857
  649SOL     OW 2593   2.389   2.668   1.268 -0.3234  0.1191 -0.0693
  649SOL    HW1 2594   2.469   2.702   1.309  2.3817 -0.9860  0.3216
  649SOL    HW2 2595   2.404   2.576   1.287  0.0522 -2.5979  1.6575
  649SOL     MW 2596   2.401   2.660   1.276  0.0831 -0.3852  0.2101
  650SOL     OW 2597   2.853   0.222   0.614 -0.0195  0.0890  0.0570
  650SOL    HW1 2598   2.874   0.291   0.675  2.2428  0.0636 -1.0756
  650SOL    HW2 2599   2.926   0.235   0.544  1.8819  2.9696 -0.4728
  650SOL     MW 2600   2.865   0.232   0.613  0.5299  0.4657 -0.1624
  651SOL     OW 2601   3.033   0.427   0.931  0.6582  0.0922  0.8038
  651SOL    HW1 2602   3.102   0.467   0.875  1.6927 -2.3166 -3.1634
  651SOL    HW2 2603   3.004   0.494   0.994  0.1591  2.4223 -0.2687
  651SOL     MW 2604   3.038   0.441   0.932  0.7288  0.0818  0.1389
  652SOL     OW 2605   2.459   1.518   3.014 -0.5087  0.7238  0.6630
  652SOL    HW1 2606   2.531   1.497   2.949 -0.0811  1.2840 -1.0146
  652SOL    HW2 2607   2.431   1.612   2.989  1.1442 -0.3106 -0.5980
  652SOL     MW 2608   2.465   1.528   3.002 -0.2342  0.6612  0.2753
  653SOL     OW 2609   1.796   0.423   0.401  0.1137  0.4492  0.2949
  653SOL    HW1 2610   1.740   0.357   0.359 -0.7161  0.3752 -2.3366
  653SOL    HW2 2611   1.875   0.419   0.340 -1.7682 -0.9220 -2.9087
  653SOL     MW 2612   1.799   0.414   0.387 -0.2441  0.2585 -0.4749
  654SOL     OW 2613   2.412   1.028   0.776  0.4287  0.1764 -0.1591
  654SOL    HW1 2614   2.355   1.021   0.699  0.7190  0.7248  1.2930
  654SOL    HW2 2615   2.427   0.927   0.787 -1.0338  1.5524 -1.9261
  654SOL     MW 2616   2.407   1.014   0.768  0.2741  0.4303 -0.2006
  655SOL     OW 2617   2.924   0.844   0.372  0.4889 -0.0101  0.2718
  655SOL    HW1 2618   2.880   0.849   0.458  0.0430 -0.1082  0.8914
  655SOL    HW2 2619   2.957   0.758   0.371 -1.4136  0.1867 -0.5452
  655SOL     MW 2620   2.923   0.833   0.383  0.1790  0.0029  0.2457
  656SOL     OW 2621   1.886   2.738   1.332  0.1415  0.1369  0.4711
  656SOL    HW1 2622   1.860   2.829   1.332 -2.0068 -1.6777  0.5609
  656SOL    HW2 2623   1.920   2.711   1.410  1.3863 -0.0775 -1.0608
  656SOL     MW 2624   1.887   2.746   1.342  0.0223 -0.1308  0.2808
  657SOL     OW 2625   0.155   1.760   1.171 -0.6506  0.4203  0.0765
  657SOL    HW1 2626   0.217   1.818   1.130 -0.2455 -1.7420  1.7748
  657SOL    HW2 2627   0.187   1.670   1.182  2.1223 -0.8117  1.0266
  657SOL     MW 2628   0.167   1.756   1.167 -0.2313 -0.0276  0.4259
  658SOL     OW 2629   2.687   1.363   0.252 -0.0915 -0.3578  0.0175
  658SOL    HW1 2630   2.656   1.268   0.283 -2.4764 -1.5673 -0.1980
  658SOL    HW2 2631   2.696   1.418   0.329 -1.0347  0.4696  1.3033
  658SOL     MW 2632   2.684   1.357   0.266 -0.5306 -0.4082  0.1587
  659SOL     OW 2633   2.279   1.545   1.047 -0.4101  0.3959 -0.9201
  659SOL    HW1 2634   2.376   1.523   1.067  1.5987 -0.5108 -0.3085
  659SOL    HW2 2635   2.234   1.566   1.125 -0.7656 -1.2849 -3.5592
  659SOL     MW 2636   2.286   1.545   1.060 -0.1920  0.0545 -1.1876
  660SOL     OW 2637   2.043   1.562   1.669  0.5904 -0.0538  0.0903
  660SOL    HW1 2638   2.071   1.556   1.764  2.9544  0.1509 -0.6938
  660SOL    HW2 2639   1.953   1.516   1.662  0.2563 -0.5752 -1.6141
  660SOL     MW 2640   2.035   1.555   1.681  0.8582 -0.0956 -0.2380
  661SOL     OW 2641   2.454   1.024   0.188  0.2877 -0.0903 -0.2804
  661SOL    HW1 2642   2.487   1.076   0.264 -1.8124  1.2087  0.1697
  661SOL    HW2 2643   2.448   0.934   0.225 -1.4903  1.5034  1.1511
  661SOL     MW 2644   2.458   1.019   0.203 -0.2240  0.2914 -0.0322
  662SOL     OW 2645   2.561   2.980   0.879 -0.3190  0.0845  0.5677
  662SOL    HW1 2646   2.507   3.050   0.923  1.6439  0.0931  0.8120
  662SOL    HW2 2647   2.607   3.027   0.807  1.2450 -0.6491  1.2602
  662SOL     MW 2648   2.560   2.996   0.876  0.1463 -0.0112  0.6913
  663SOL     OW 2649   2.648   1.489   0.514 -0.1391  0.4113 -0.1928
  663SOL    HW1 2650   2.612   1.561   0.472 -2.4645  0.9636  1.7506
  663SOL    HW2 2651   2.729   1.511   0.561 -0.8458 -0.6990  0.4682
  663SOL     MW 2652   2.654   1.502   0.515 -0.5391  0.3377  0.1508
  664SOL     OW 2653   2.540   1.510   1.553  0.0490  0.1177 -0.4102
  664SOL    HW1 2654   2.525   1.601   1.535 -2.6357 -1.4106 -0.5459
  664SOL    HW2 2655   2.452   1.478   1.566  1.2245  0.0793  1.3642
  664SOL     MW 2656   2.526   1.518   1.552 -0.1501 -0.0890 -0.1940
  665SOL     OW 2657   2.852   0.858   2.009  0.0702 -0.0167 -0.4656
  665SOL    HW1 2658   2.834   0.875   1.921  2.0462  1.6292  1.2623
  665SOL    HW2 2659   2.931   0.807   2.016 -1.1020  0.9095  1.9216
  665SOL     MW 2660   2.860   0.853   1.999  0.1763  0.3227  0.0773
  666SOL     OW 2661   2.771   3.046   1.725  0.4855  0.4347  0.2281
  666SOL    HW1 2662   2.751   3.048   1.632 -0.6565 -1.9598  0.7269
  666SOL    HW2 2663   2.753   2.959   1.746  2.0212  1.6258 -1.2310
  666SOL     MW 2664   2.766   3.035   1.716  0.5374  0.2759  0.1014
  667SOL     OW 2665   1.962   2.687   1.779 -0.0231 -0.5292  0.4073
  667SOL    HW1 2666   1.967   2.676   1.873 -2.1877  2.4111  2.0934
  667SOL    HW2 2667   2.043   2.730   1.747  0.4053 -0.5938  1.3535
  667SOL     MW 2668   1.973   2.691   1.787 -0.2522 -0.1498  0.7546
  668SOL     OW 2669   2.758   0.653   0.828 -0.3175  0.3349  0.3344
  668SOL    HW1 2670   2.817   0.638   0.908 -0.8017 -0.0735 -1.2195
  668SOL    HW2 2671   2.698   0.720   0.845  1.6496 -3.0857 -1.3823
  668SOL     MW 2672   2.758   0.660   0.841 -0.1218 -0.1703 -0.0972
  669SOL     OW 2673   0.200   0.952   0.685  0.4986 -0.6612 -0.4432
  669SOL    HW1 2674   0.144   1.005   0.733 -0.3431 -1.9907 -1.0815
  669SOL    HW2 2675   0.285   0.974   0.714 -3.1580  1.2075  0.2753
  669SOL     MW 2676   0.204   0.962   0.695 -0.0949 -0.5901 -0.4326
  670SOL     OW 2677   2.886   0.237   0.207  0.4041  0.4096  0.5096
  670SOL    HW1 2678   2.884   0.183   0.126 -0.0966  2.6017 -2.0866
  670SOL    HW2 2679   2.915   0.327   0.190 -1.3054 -0.1648 -2.5688
  670SOL     MW 2680   2.889   0.242   0.194  0.1125  0.6230 -0.2391
  671SOL     OW 2681   2.042   3.029   1.521  0.8767  0.4930 -0.0940
  671SOL    HW1 2682   1.977   3.014   1.450 -2.2412  0.3457  0.8707
  671SOL    HW2 2683   1.985   3.065   1.596 -0.8796  0.4149  0.1126
  671SOL     MW 2684   2.026   3.032   1.522  0.2336  0.4632  0.0606
  672SOL     OW 2685   1.919   1.714   1.314  0.0317  0.1741  0.3901
  672SOL    HW1 2686   1.832   1.739   1.339  1.1981  2.7448  0.1628
  672SOL    HW2 2687   1.927   1.733   1.222  0.3000  0.5218 -0.3965
  672SOL     MW 2688   1.909   1.720   1.305  0.2210  0.5591  0.2563
  673SOL     OW 2689   2.772   1.096   0.592  0.1708 -0.4302  0.5673
  673SOL    HW1 2690   2.784   1.006   0.620  1.0380  1.0730 -0.4382
  673SOL    HW2 2691   2.859   1.124   0.603  0.0940  2.4421 -0.0215
  673SOL     MW 2692   2.785   1.088   0.597  0.2751  0.1471  0.3569
  674SOL     OW 2693   2.435   3.093   1.285 -0.0036 -0.7405  0.6697
  674SOL    HW1 2694   2.410   3.101   1.190  1.4397 -2.0266  0.8971
  674SOL    HW2 2695   2.486   3.012   1.291 -1.1490 -1.5603 -0.0317
  674SOL     MW 2696   2.439   3.084   1.274  0.0357 -1.0184  0.6071
  675SOL     OW 2697   3.065   0.902   1.068  0.6396  0.2751 -0.0728
  675SOL    HW1 2698   3.137   0.894   1.131 -0.8333  0.7957 -3.7135
  675SOL    HW2 2699   3.103   0.956   0.997 -1.8695  0.0644 -1.6426
  675SOL     MW 2700   3.080   0.908   1.067  0.1142  0.3160 -0.7603
  676SOL     OW 2701   2.901   1.502   1.664  0.4689 -0.3559  0.3960
  676SOL    HW1 2702   2.864   1.419   1.626 -0.3503 -1.1003  2.2819
  676SOL    HW2 2703   2.973   1.489   1.721 -1.2720  2.4913 -0.2144
  676SOL     MW 2704   2.906   1.489   1.666  0.1311 -0.0785  0.5643
  677SOL     OW 2705   2.400   0.559   1.988 -0.6824  0.4406  0.0392
  677SOL    HW1 2706   2.368   0.520   1.902  0.4854 -0.9856 -1.6386
  677SOL    HW2 2707   2.351   0.638   1.990 -0.0689  2.1214  1.3712
  677SOL     MW 2708   2.389   0.564   1.977 -0.4473  0.4742 -0.0065
  678SOL     OW 2709   2.562   1.675   0.296 -0.2658 -0.3573 -0.5330
  678SOL    HW1 2710   2.489   1.734   0.335 -0.5745  0.9963  1.8114
  678SOL    HW2 2711   2.519   1.598   0.250 -0.7859 -2.1132 -2.2374
  678SOL     MW 2712   2.547   1.673   0.295 -0.3752 -0.4104 -0.4486
  679SOL     OW 2713   2.212   0.464   1.265 -0.2925 -0.0503  1.0731
  679SOL    HW1 2714   2.212   0.370   1.237  1.8275 -0.3891 -0.2315
  679SOL    HW2 2715   2.142   0.479   1.330 -2.0220  1.4888 -1.2749
  679SOL     MW 2716   2.203   0.453   1.270 -0.2410  0.1081  0.5912
  680SOL     OW 2717   2.352   0.177   1.514  0.1305  0.0829 -0.5978
  680SOL    HW1 2718   2.253   0.170   1.483  2.4493 -0.7774  0.8760
  680SOL    HW2 2719   2.395   0.116   1.456  2.4251 -2.2389 -0.6949
  680SOL     MW 2720   2.344   0.168   1.502  0.7392 -0.3370 -0.4161
  681SOL     OW 2721   0.319   0.533   1.542 -0.1690 -0.9744 -0.1766
  681SOL    HW1 2722   0.290   0.466   1.595  0.1545  1.4906 -0.6233
  681SOL    HW2 2723   0.411   0.549   1.569 -2.3053  1.1915  1.3238
  681SOL     MW 2724   0.328   0.526   1.552 -0.4081 -0.3634 -0.0375
  682SOL     OW 2725   0.073   2.888   1.496  0.5743 -0.1441 -0.3002
  682SOL    HW1 2726   0.150   2.871   1.547 -1.7417 -0.8931  2.3541
  682SOL    HW2 2727   0.030   2.934   1.572 -0.5129 -1.4744 -0.5438
  682SOL     MW 2728   0.077   2.892   1.513  0.1252 -0.4184  0.0179
  683SOL     OW 2729   2.066   0.831   2.988  0.7792 -0.3811 -0.3672
  683SOL    HW1 2730   1.978   0.794   2.978 -0.2578  0.2627  0.7111
  683SOL    HW2 2731   2.052   0.919   3.024  0.9765  2.1731 -3.8963
  683SOL     MW 2732   2.053   0.838   2.991  0.6684  0.0409 -0.6905
  684SOL     OW 2733   2.220   1.669   0.811 -0.0860 -0.2935 -0.2500
  684SOL    HW1 2734   2.154   1.615   0.776  1.7353 -1.3287 -1.1773
  684SOL    HW2 2735   2.236   1.630   0.902  1.6228 -1.5990 -0.1795
  684SOL     MW 2736   2.213   1.656   0.818  0.3798 -0.6024 -0.3630
  685SOL     OW 2737   2.619   1.752   1.215 -0.4871  0.0820  0.5731
  685SOL    HW1 2738   2.697   1.731   1.268 -0.6306 -1.2580  0.7187
  685SOL    HW2 2739   2.590   1.664   1.188  0.1848  1.9641 -0.3598
  685SOL     MW 2740   2.625   1.738   1.219 -0.4174  0.1535  0.4692
  686SOL     OW 2741   2.892   0.808   1.514  0.0133  0.4174  0.1027
  686SOL    HW1 2742   2.884   0.768   1.602 -2.9459  2.6053  0.7703
  686SOL    HW2 2743   2.982   0.788   1.485 -0.2260 -1.3478 -1.9654
  686SOL     MW 2744   2.903   0.800   1.522 -0.4087  0.4732 -0.0821
  687SOL     OW 2745   2.153   0.204   1.168  0.2523 -0.7641  0.2740
  687SOL    HW1 2746   2.178   0.141   1.106  0.6939 -1.0988  1.8613
  687SOL    HW2 2747   2.079   0.250   1.127 -0.3888  2.3010  1.0471
  687SOL     MW 2748   2.147   0.202   1.155  0.2260 -0.4039  0.5854
  688SOL     OW 2749   2.390   0.588   1.459  0.0298  0.1041 -0.1117
  688SOL    HW1 2750   2.322   0.542   1.396 -3.6830 -3.5758  1.3905
  688SOL    HW2 2751   2.330   0.646   1.516 -1.9145  1.4149 -0.1870
  688SOL     MW 2752   2.373   0.590   1.458 -0.7166 -0.2084  0.0765
  689SOL     OW 2753   2.503   0.768   2.995 -0.8816  0.1992 -0.1895
  689SOL    HW1 2754   2.552   0.841   2.958  2.1051 -1.4181  1.4498
  689SOL    HW2 2755   2.571   0.741   3.065 -1.5347  2.6946 -3.3663
  689SOL     MW 2756   2.518   0.774   3.000 -0.5737  0.3151 -0.3924
  690SOL     OW 2757   2.037   0.930   1.894 -0.1209 -0.2486 -0.2239
  690SOL    HW1 2758   2.016   0.837   1.906 -0.5956 -0.5526  1.5417
  690SOL    HW2 2759   2.058   0.949   1.800  2.7502 -2.0824 -1.0868
  690SOL     MW 2760   2.037   0.920   1.883  0.1953 -0.5307 -0.1048
  691SOL     OW 2761   2.393   0.312   0.905 -0.0925  0.2335  0.1822
  691SOL    HW1 2762   2.474   0.361   0.919  2.8859 -1.6632 -0.3479
  691SOL    HW2 2763   2.320   0.374   0.914  0.7118  1.7253 -1.0474
  691SOL     MW 2764   2.394   0.327   0.908  0.4066  0.1801 -0.0500
  692SOL     OW 2765   2.853   1.702   1.393  0.1408  0.0910 -0.8417
  692SOL    HW1 2766   2.819   1.651   1.468 -0.6701  0.9283 -1.7389
  692SOL    HW2 2767   2.900   1.777   1.438 -0.7002  2.5859  3.0188
  692SOL     MW 2768   2.855   1.705   1.409 -0.0772  0.5306 -0.4507
  693SOL     OW 2769   2.292   0.410   0.131 -0.6752 -0.1993  0.7879
  693SOL    HW1 2770   2.218   0.348   0.112  0.6141  2.0308 -1.8195
  693SOL    HW2 2771   2.272   0.493   0.094  0.7386  0.8858 -2.5369
  693SOL     MW 2772   2.279   0.413   0.124 -0.3185  0.2381  0.0052
  694SOL     OW 2773   1.933   1.190   1.189 -0.6841  0.4264  0.7492
  694SOL    HW1 2774   2.020   1.158   1.198 -1.0632  0.3947  0.3476
  694SOL    HW2 2775   1.881   1.115   1.221 -0.5818 -0.7338 -0.6265
  694SOL     MW 2776   1.937   1.176   1.194 -0.7206  0.2691  0.5147
  695SOL     OW 2777   3.020   1.509   1.346  0.4589  0.0962 -0.4064
  695SOL    HW1 2778   2.986   1.459   1.272  0.9248  0.5242  0.2351
  695SOL    HW2 2779   2.970   1.591   1.354  0.8203 -2.8842  2.6061
  695SOL     MW 2780   3.009   1.513   1.338  0.5681 -0.2405  0.0757
  696SOL     OW 2781   2.140   1.322   0.843 -0.5433 -0.5163 -0.1632
  696SOL    HW1 2782   2.190   1.377   0.905  2.1280  2.2408  3.2259
  696SOL    HW2 2783   2.108   1.255   0.904  0.6399 -2.7239 -2.2663
  696SOL     MW 2784   2.142   1.320   0.859 -0.0347 -0.4438  0.0065
  697SOL     OW 2785   2.932   1.043   2.213 -0.3446 -0.6002  0.3255
  697SOL    HW1 2786   2.863   1.114   2.225  1.3444  1.4823 -0.4585
  697SOL    HW2 2787   2.894   0.994   2.143 -0.0259  0.1483  1.9828
  697SOL     MW 2788   2.918   1.046   2.205 -0.0797 -0.2267  0.4407
  698SOL     OW 2789   2.527   0.301   0.012  0.6490  0.2130  0.1427
  698SOL    HW1 2790   2.450   0.352   0.045  1.0315  1.6067 -1.1517
  698SOL    HW2 2791   2.562   0.249   0.085  0.5745  0.0061 -3.0406
  698SOL     MW 2792   2.521   0.301   0.026  0.6896  0.3696 -0.4481
  699SOL     OW 2793   1.819   1.619   2.023 -0.6965 -0.6588  0.1368
  699SOL    HW1 2794   1.785   1.524   2.044  0.4745 -0.4848  1.7580
  699SOL    HW2 2795   1.910   1.618   1.973  0.4307 -0.1479  1.0037
  699SOL     MW 2796   1.826   1.606   2.019 -0.3933 -0.5684  0.4651
  700SOL     OW 2797   2.666   0.973   1.491  0.2044 -0.0922 -0.0261
  700SOL    HW1 2798   2.699   1.051   1.448 -0.4931 -0.6240 -1.0539
  700SOL    HW2 2799   2.748   0.917   1.487  0.4333 -1.1532  2.8322
  700SOL     MW 2800   2.681   0.976   1.485  0.1426 -0.3024  0.2154
  701SOL     OW 2801   1.643   1.182   2.456  0.0814 -0.2796 -0.7503
  701SOL    HW1 2802   1.733   1.212   2.445 -1.2127 -3.6093 -0.4498
  701SOL    HW2 2803   1.619   1.216   2.545 -0.6308  2.9225 -0.6959
  701SOL     MW 2804   1.652   1.190   2.466 -0.1833 -0.2964 -0.7035
  702SOL     OW 2805   2.149   0.456   0.831 -0.8684 -0.2325  0.5371
  702SOL    HW1 2806   2.146   0.374   0.773 -1.8995  0.4582  0.8299
  702SOL    HW2 2807   2.206   0.511   0.776 -2.0802  1.5092  1.9675
  702SOL     MW 2808   2.156   0.453   0.816 -1.1643  0.0884  0.7645
  703SOL     OW 2809   2.739   1.216   1.023 -0.3169 -0.2725  0.4187
  703SOL    HW1 2810   2.715   1.231   0.928 -1.0751  3.6868 -2.1129
  703SOL    HW2 2811   2.768   1.122   1.036  0.1764 -0.1659 -2.3681
  703SOL     MW 2812   2.739   1.206   1.012 -0.3519  0.2640 -0.2830
  704SOL     OW 2813   3.031   1.194   0.116 -0.4186 -0.4241 -0.2630
  704SOL    HW1 2814   2.938   1.192   0.089 -2.7903 -0.0029 -3.3504
  704SOL    HW2 2815   3.044   1.169   0.212  1.4395 -0.0492 -1.8477
  704SOL     MW 2816   3.020   1.190   0.125 -0.4864 -0.3190 -0.8794
  705SOL     OW 2817   2.174   1.656   1.288  0.1047 -0.2838 -0.4993
  705SOL    HW1 2818   2.079   1.674   1.281 -4.7016  0.1729  2.5847
  705SOL    HW2 2819   2.175   1.578   1.348  1.4262  0.5500  2.3744
  705SOL     MW 2820   2.162   1.648   1.295 -0.3551 -0.1135  0.2868
  706SOL     OW 2821   3.004   1.213   0.673  0.3954 -0.2738  0.1879
  706SOL    HW1 2822   3.036   1.236   0.580 -0.8503  0.1878 -2.7352
  706SOL    HW2 2823   2.961   1.293   0.705 -0.0269 -2.6678 -0.8157
  706SOL     MW 2824   3.003   1.226   0.665  0.1754 -0.5288 -0.3302
  707SOL     OW 2825   2.403   0.050   1.017 -0.9228  0.3070 -0.3750
  707SOL    HW1 2826   2.412   0.141   0.998 -1.1164  1.7825 -0.4798
  707SOL    HW2 2827   2.332   0.036   0.948  0.1449  1.5479 -1.7408
  707SOL     MW 2828   2.395   0.060   1.005 -0.8075  0.6654 -0.5691
  708SOL     OW 2829   2.437   1.450   0.188 -0.3113  0.2612  0.6532
  708SOL    HW1 2830   2.520   1.409   0.217  3.0197  0.4325 -0.0738
  708SOL    HW2 2831   2.439   1.473   0.095 -0.7702  0.9876  0.1686
  708SOL     MW 2832   2.448   1.448   0.180  0.0676  0.3797  0.4934
  709SOL     OW 2833   1.781   1.650   0.217  0.0738  0.2725  0.6928
  709SOL    HW1 2834   1.751   1.662   0.125  4.3093  1.2429  2.0814
  709SOL    HW2 2835   1.709   1.683   0.274 -0.5158  1.9688  0.2330
  709SOL     MW 2836   1.767   1.656   0.213  0.5549  0.6243  0.8153
  710SOL     OW 2837   2.213   1.235   1.209  0.5379 -0.0514  0.5182
  710SOL    HW1 2838   2.208   1.188   1.121  2.7322 -2.0952  0.3171
  710SOL    HW2 2839   2.217   1.154   1.270 -0.5164  0.1957  1.7623
  710SOL     MW 2840   2.213   1.218   1.205  0.6883 -0.2884  0.6558
  711SOL     OW 2841   2.338   0.125   1.786 -0.5612  0.1723  0.2497
  711SOL    HW1 2842   2.432   0.140   1.804  0.3394  0.6018  0.1553
  711SOL    HW2 2843   2.333   0.165   1.693  3.5484 -0.7008 -1.8330
  711SOL     MW 2844   2.350   0.132   1.776  0.0998  0.1138 -0.0375
  712SOL     OW 2845   1.929   0.515   0.102 -0.4386 -0.4035  0.1943
  712SOL    HW1 2846   1.839   0.516   0.084  1.6142 -1.2138  2.0380
  712SOL    HW2 2847   1.965   0.606   0.121 -0.1981  1.8344  1.5040
  712SOL     MW 2848   1.922   0.527   0.102 -0.1360 -0.2151  0.6103
  713SOL     OW 2849   2.556   0.838   1.080 -0.0745 -0.3964  0.3197
  713SOL    HW1 2850   2.564   0.750   1.114 -2.1846  1.1439 -1.0126
  713SOL    HW2 2851   2.498   0.891   1.136  4.2474  2.4388 -1.8904
  713SOL     MW 2852   2.550   0.833   1.092  0.2173  0.1809 -0.1477
  714SOL     OW 2853   2.229   0.224   2.004  0.3698  0.3829  0.1700
  714SOL    HW1 2854   2.279   0.192   2.076 -0.2155 -3.3033 -3.8467
  714SOL    HW2 2855   2.277   0.199   1.921  1.5861 -2.9577  1.4660
  714SOL     MW 2856   2.242   0.217   2.002  0.4531 -0.5442 -0.1890
  715SOL     OW 2857   1.763   1.907   1.645 -0.0007 -0.7538 -0.0622
  715SOL    HW1 2858   1.852   1.866   1.636  2.7258 -0.3618  1.0638
  715SOL    HW2 2859   1.728   1.854   1.718  0.9325  0.9595  2.0758
  715SOL     MW 2860   1.770   1.895   1.654  0.4822 -0.4760  0.3684
  716SOL     OW 2861   2.301   0.619   0.683 -0.4210 -0.1038 -0.9937
  716SOL    HW1 2862   2.345   0.538   0.650  0.1688  1.0185 -0.3349
  716SOL    HW2 2863   2.258   0.650   0.601  1.0027  0.2114 -0.7579
  716SOL     MW 2864   2.301   0.612   0.668 -0.1553  0.0859 -0.8756
  717SOL     OW 2865   2.866   1.553   2.928 -0.1102  0.3008 -0.3516
  717SOL    HW1 2866   2.961   1.552   2.955  0.0589  1.7818  0.4005
  717SOL    HW2 2867   2.842   1.637   2.968 -0.2772 -0.2728  0.1267
  717SOL     MW 2868   2.875   1.564   2.937 -0.1099  0.4205 -0.1892
  718SOL     OW 2869   2.692   1.388   1.323 -0.0329  0.0169 -0.2272
  718SOL    HW1 2870   2.661   1.408   1.411 -1.1989 -0.1761 -0.3283
  718SOL    HW2 2871   2.744   1.305   1.325 -2.1671  1.9958 -1.2507
  718SOL     MW 2872   2.695   1.380   1.335 -0.4683  0.2525 -0.3756
  719SOL     OW 2873   2.182   1.289   0.576  0.0798  0.0352 -0.3593
  719SOL    HW1 2874   2.273   1.310   0.576 -0.2751  1.1890  0.2438
  719SOL    HW2 2875   2.150   1.298   0.668  0.4612  1.4680 -1.4953
  719SOL     MW 2876   2.190   1.293   0.588  0.0833  0.3765 -0.4296
  720SOL     OW 2877   2.750   1.218   0.022 -0.3994  0.0915 -0.1042
  720SOL    HW1 2878   2.748   1.124   0.052 -0.0945 -1.1620  1.4644
  720SOL    HW2 2879   2.722   1.285   0.092  0.8566  1.3837  2.4836
  720SOL     MW 2880   2.746   1.215   0.035 -0.1934  0.0966  0.4442
  721SOL     OW 2881   2.441   0.853   1.371 -0.4969 -0.1847 -0.1023
  721SOL    HW1 2882   2.434   0.760   1.357 -0.8154 -1.2126 -1.1644
  721SOL    HW2 2883   2.521   0.865   1.429 -0.1068 -0.7570 -0.0173
  721SOL     MW 2884   2.451   0.842   1.377 -0.4875 -0.3959 -0.2312
  722SOL     OW 2885   2.587   1.143   0.377 -0.0809  0.2135  0.2865
  722SOL    HW1 2886   2.550   1.204   0.446 -0.0194 -1.0797 -0.3149
  722SOL    HW2 2887   2.669   1.103   0.419 -0.3406  0.3820 -0.2257
  722SOL     MW 2888   2.593   1.146   0.392 -0.1070  0.0651  0.1396
  723SOL     OW 2889   2.233   1.398   1.615 -0.0115 -0.3495 -0.2702
  723SOL    HW1 2890   2.242   1.381   1.519  2.6216 -1.0424  1.4187
  723SOL    HW2 2891   2.155   1.465   1.630  1.6800  4.9970 -1.7360
  723SOL     MW 2892   2.224   1.404   1.604  0.5591  0.2645 -0.2407
  724SOL     OW 2893   2.451   0.381   0.639  0.2580 -0.0683 -0.2662
  724SOL    HW1 2894   2.444   0.319   0.709  0.3746 -1.8707 -0.0194
  724SOL    HW2 2895   2.544   0.398   0.624 -0.0798  0.6994  2.7030
  724SOL     MW 2896   2.462   0.375   0.646  0.2288 -0.2048  0.1581
  725SOL     OW 2897   2.542   0.604   1.194 -0.3037  0.5037 -0.5004
  725SOL    HW1 2898   2.613   0.609   1.252 -0.5910 -1.4036 -0.4738
  725SOL    HW2 2899   2.475   0.563   1.254 -2.1804 -0.1305 -0.8616
  725SOL     MW 2900   2.542   0.599   1.209 -0.5892  0.1684 -0.5446
  726SOL     OW 2901   2.600   2.456   0.547  0.4568  0.4137 -0.2368
  726SOL    HW1 2902   2.570   2.504   0.467  1.2808  1.1588 -0.3444
  726SOL    HW2 2903   2.522   2.437   0.596  0.6999 -0.6687  4.8477
  726SOL     MW 2904   2.586   2.460   0.543  0.5976  0.3692  0.4198
  727SOL     OW 2905   2.869   0.331   1.652 -0.0418  0.5808  0.3220
  727SOL    HW1 2906   2.860   0.310   1.555  0.8154  0.2575 -0.3608
  727SOL    HW2 2907   2.790   0.316   1.702  1.2795  1.1024  1.8434
  727SOL     MW 2908   2.857   0.327   1.646  0.2456  0.6070  0.4327
  728SOL     OW 2909   2.822   1.172   2.840  0.3440  0.2050  0.0714
  728SOL    HW1 2910   2.830   1.251   2.790 -0.2782 -1.9355  0.8808
  728SOL    HW2 2911   2.798   1.206   2.930  0.0506  0.8018 -0.6391
  728SOL     MW 2912   2.820   1.187   2.845  0.2232  0.0014  0.0845
  729SOL     OW 2913   2.555   1.491   1.095 -0.4641 -0.4096  0.4174
  729SOL    HW1 2914   2.612   1.426   1.146  1.6724 -1.8344 -0.0481
  729SOL    HW2 2915   2.576   1.481   0.998  1.9489 -0.2399  0.2856
  729SOL     MW 2916   2.565   1.481   1.089  0.1361 -0.5752  0.3386
  730SOL     OW 2917   2.184   1.169   0.209  0.4534 -0.1523 -0.4886
  730SOL    HW1 2918   2.278   1.197   0.200  1.6100 -0.2329 -1.7792
  730SOL    HW2 2919   2.136   1.240   0.247  2.3207 -0.4436  2.6525
  730SOL     MW 2920   2.190   1.182   0.213  0.8524 -0.2013 -0.2444
  731SOL     OW 2921   2.802   1.918   2.866 -1.0044 -0.1598 -0.3262
  731SOL    HW1 2922   2.731   1.934   2.799 -0.6722 -0.8100 -2.7250
  731SOL    HW2 2923   2.873   1.984   2.862  0.1900  2.2089  0.5285
  731SOL     MW 2924   2.802   1.929   2.856 -0.8030  0.0670 -0.5299
  732SOL     OW 2925   2.213   1.008   1.331  0.0097  0.3959  0.4342
  732SOL    HW1 2926   2.177   1.012   1.417  0.7181  0.3840  0.3113
  732SOL    HW2 2927   2.287   0.950   1.344  0.5944 -0.3409 -0.8476
  732SOL     MW 2928   2.218   1.001   1.344  0.1803  0.2971  0.2489
  733SOL     OW 2929   2.352   2.739   3.030  0.3655  0.1683 -0.5868
  733SOL    HW1 2930   2.264   2.786   3.042 -1.9015 -0.8668 -2.4506
  733SOL    HW2 2931   2.336   2.647   3.008  0.5607  0.5879  0.6588
  733SOL     MW 2932   2.338   2.733   3.029  0.0921  0.0871 -0.6684
  734SOL     OW 2933   1.455   0.387   2.445 -0.0886 -0.7279  0.2285
  734SOL    HW1 2934   1.455   0.355   2.534  0.1966 -1.0315 -0.4897
  734SOL    HW2 2935   1.499   0.319   2.386  1.3593  0.7502 -1.3631
  734SOL     MW 2936   1.461   0.374   2.449  0.1401 -0.5730 -0.0763
  735SOL     OW 2937   2.916   0.882   2.604  0.1764  0.1031  0.1892
  735SOL    HW1 2938   2.933   0.790   2.582 -1.6435 -0.3725  1.6777
  735SOL    HW2 2939   2.927   0.889   2.702 -2.5628  0.8496 -0.7134
  735SOL     MW 2940   2.920   0.871   2.614 -0.4251  0.1389  0.2665
  736SOL     OW 2941   0.117   0.571   2.507 -0.6434  0.0666 -0.6115
  736SOL    HW1 2942   0.166   0.645   2.482  2.6415 -1.1828  1.5067
  736SOL    HW2 2943   0.109   0.518   2.430 -0.6382  1.0723 -0.9393
  736SOL     MW 2944   0.122   0.573   2.493 -0.2093  0.0345 -0.3753
  737SOL     OW 2945   2.929   0.620   2.548 -0.2189 -0.1660 -0.1503
  737SOL    HW1 2946   2.877   0.564   2.488 -0.3320  1.5027  0.0570
  737SOL    HW2 2947   3.012   0.603   2.505 -1.5860  0.4667 -0.4164
  737SOL     MW 2948   2.933   0.610   2.534 -0.4142  0.1376 -0.1581
  738SOL     OW 2949   0.209   0.584   1.871  0.0339 -0.4310 -0.5402
  738SOL    HW1 2950   0.295   0.616   1.860 -0.1346 -1.5385  0.7038
  738SOL    HW2 2951   0.211   0.495   1.829  0.2653  1.2376 -1.0449
  738SOL     MW 2952   0.221   0.577   1.864  0.0422 -0.3570 -0.4427
  739SOL     OW 2953   2.435   1.054   2.065 -0.1634 -0.4682 -0.3251
  739SOL    HW1 2954   2.382   0.976   2.032  2.9153 -1.7245  0.1724
  739SOL    HW2 2955   2.497   1.077   1.994  0.8796 -2.2047 -0.8185
  739SOL     MW 2956   2.436   1.047   2.051  0.3804 -0.8631 -0.3246
  740SOL     OW 2957   0.260   1.762   2.986  0.5947  0.0648  0.0858
  740SOL    HW1 2958   0.202   1.685   2.981  1.0886  0.8571  0.1160
  740SOL    HW2 2959   0.346   1.718   2.986  1.2796 -0.0231  0.3886
  740SOL     MW 2960   0.263   1.746   2.985  0.7502  0.1578  0.1298
  741SOL     OW 2961   2.265   1.215   2.729 -0.2475 -0.7710  0.2436
  741SOL    HW1 2962   2.227   1.284   2.678 -0.7765  0.1712 -0.8709
  741SOL    HW2 2963   2.218   1.214   2.812  0.6492 -1.0335  2.7242
  741SOL     MW 2964   2.254   1.224   2.733 -0.1990 -0.6813  0.4238
  742SOL     OW 2965   1.514   1.259   2.216 -0.3635 -0.2476  0.3016
  742SOL    HW1 2966   1.451   1.191   2.191  1.4461 -0.4685  0.5095
  742SOL    HW2 2967   1.563   1.229   2.292  0.1822  1.3072 -1.1372
  742SOL     MW 2968   1.512   1.246   2.223 -0.0528 -0.0716  0.1392
  743SOL     OW 2969   2.537   1.259   2.760  0.1320 -0.0823 -0.5525
  743SOL    HW1 2970   2.437   1.257   2.747 -2.1677 -0.9419 -1.2256
  743SOL    HW2 2971   2.558   1.186   2.821 -0.1361  3.6375 -3.1664
  743SOL     MW 2972   2.526   1.249   2.766 -0.2068  0.2951 -0.9862
  744SOL     OW 2973   2.760   0.954   1.752 -0.2794  0.1154  0.5661
  744SOL    HW1 2974   2.701   1.030   1.774 -0.0183 -1.7462  2.4540
  744SOL    HW2 2975   2.736   0.946   1.656 -0.9804 -0.6038 -0.0035
  744SOL     MW 2976   2.749   0.963   1.743 -0.3374 -0.2251  0.7400
  745SOL     OW 2977   1.737   0.448   2.498  0.2961  0.2051 -0.0611
  745SOL    HW1 2978   1.768   0.469   2.414 -2.2201  0.3939  1.2505
  745SOL    HW2 2979   1.652   0.406   2.485  3.0358 -1.5888 -0.2231
  745SOL     MW 2980   1.730   0.445   2.485  0.3256 -0.0067  0.0906
  746SOL     OW 2981   1.542   1.432   1.606  0.3018 -0.2688 -0.1296
  746SOL    HW1 2982   1.637   1.432   1.621  2.6596  2.3100 -0.7725
  746SOL    HW2 2983   1.511   1.391   1.688 -1.4098 -0.0325  0.6183
  746SOL     MW 2984   1.550   1.427   1.618  0.3870  0.1026 -0.1158
  747SOL     OW 2985   2.544   1.123   1.816  0.6137 -0.2194 -1.0372
  747SOL    HW1 2986   2.452   1.122   1.805  0.3107  3.0824 -0.1173
  747SOL    HW2 2987   2.553   1.210   1.856  0.8549 -1.3315  2.7097
  747SOL     MW 2988   2.533   1.135   1.820  0.6056  0.0695 -0.4215
  748SOL     OW 2989   0.124   0.061   1.814  0.4416 -0.1516 -0.5021
  748SOL    HW1 2990   0.204   0.022   1.856 -0.6678  0.2534  0.7734
  748SOL    HW2 2991   0.075   0.102   1.884 -0.7407 -1.9542 -1.2801
  748SOL     MW 2992   0.128   0.062   1.829  0.1392 -0.3360 -0.4365
  749SOL     OW 2993   2.429   0.576   2.792  0.2687  0.1576 -0.3905
  749SOL    HW1 2994   2.444   0.627   2.712 -2.1740 -1.6685 -1.6098
  749SOL    HW2 2995   2.427   0.654   2.857  2.2847  2.7552 -1.4333
  749SOL     MW 2996   2.430   0.593   2.790  0.2124  0.2594 -0.6890
  750SOL     OW 2997   2.065   0.018   1.952 -0.2231 -0.1264  0.2452
  750SOL    HW1 2998   2.121   0.094   1.960 -0.9065 -2.2052 -1.1576
  750SOL    HW2 2999   2.126  -0.058   1.946 -1.1212 -0.5892  1.1604
  750SOL     MW 3000   2.080   0.018   1.952 -0.4318 -0.4617  0.1808
  751SOL     OW 3001   0.015   0.394   2.292  0.0896 -0.6784 -0.5729
  751SOL    HW1 3002  -0.061   0.332   2.306  0.6178  0.4868  0.3527
  751SOL    HW2 3003   0.082   0.360   2.230  2.5170  0.3062  0.7077
  751SOL     MW 3004   0.014   0.382   2.285  0.4796 -0.3948 -0.2818
  752SOL     OW 3005   2.109   0.824   2.722 -0.1639 -0.9046  0.2805
  752SOL    HW1 3006   2.193   0.857   2.685 -1.2669 -0.0598 -2.0333
  752SOL    HW2 3007   2.105   0.833   2.816  2.0074  1.2410 -0.8641
  752SOL     MW 3008   2.119   0.830   2.729 -0.0230 -0.5101 -0.1758
  753SOL     OW 3009   2.902   0.253   2.358  0.4319  0.1405  0.0487
  753SOL    HW1 3010   2.836   0.204   2.309 -0.1682  0.2692  1.7032
  753SOL    HW2 3011   2.864   0.342   2.375  0.0338  3.2846 -0.2612
  753SOL     MW 3012   2.888   0.258   2.354  0.3002  0.5723  0.2261
  754SOL     OW 3013   2.236   2.997   2.673 -0.0114 -0.3810  0.0008
  754SOL    HW1 3014   2.275   2.990   2.581  1.7480  1.8579 -0.9581
  754SOL    HW2 3015   2.296   2.937   2.722  0.5617 -1.4579 -0.1638
  754SOL     MW 3016   2.249   2.988   2.667  0.2964 -0.2277 -0.1475
  755SOL     OW 3017   2.727   1.588   2.449 -0.2800  0.2626  0.4967
  755SOL    HW1 3018   2.750   1.512   2.502 -0.5961  0.6999 -1.0079
  755SOL    HW2 3019   2.754   1.668   2.486 -1.1811  1.1752 -0.7324
  755SOL     MW 3020   2.733   1.589   2.461 -0.4406  0.4407  0.1360
  756SOL     OW 3021   2.236   1.347   3.009  0.2458 -0.1355 -0.9957
  756SOL    HW1 3022   2.300   1.419   2.994  0.6519  1.6622  0.4071
  756SOL    HW2 3023   2.287   1.274   3.055 -0.5150 -0.0706  1.1497
  756SOL     MW 3024   2.251   1.347   3.013  0.1990  0.1103 -0.5276
  757SOL     OW 3025   2.083   0.985   1.603 -0.2758  0.0536 -0.7677
  757SOL    HW1 3026   2.117   0.897   1.605 -0.0245  1.9550 -0.3210
  757SOL    HW2 3027   1.990   0.984   1.584  1.1496  1.0199  0.7233
  757SOL     MW 3028   2.075   0.973   1.601 -0.0546  0.4320 -0.5120
  758SOL     OW 3029   2.178   1.790   2.635  0.3260  0.0595 -0.9430
  758SOL    HW1 3030   2.156   1.828   2.550 -1.7381  0.2232  0.1837
  758SOL    HW2 3031   2.271   1.771   2.642 -1.5813  2.0866 -1.7700
  758SOL     MW 3032   2.188   1.793   2.625 -0.1980  0.3486 -0.9035
  759SOL     OW 3033   1.563   1.334   2.718  0.2513  0.4639  0.1561
  759SOL    HW1 3034   1.557   1.420   2.677 -3.1480  1.2458  2.9170
  759SOL    HW2 3035   1.629   1.339   2.794  2.9808  0.7293 -1.3280
  759SOL     MW 3036   1.571   1.346   2.723  0.1629  0.6021  0.3245
  760SOL     OW 3037   2.559   1.959   2.715 -0.5659  0.4299  0.5474
  760SOL    HW1 3038   2.517   1.873   2.688 -2.9364 -5.3779 -0.8201
  760SOL    HW2 3039   2.591   1.987   2.631  1.4657  0.1123 -2.1387
  760SOL     MW 3040   2.557   1.951   2.700 -0.6106 -0.3783  0.0126
  761SOL     OW 3041   2.071   0.422   2.460  0.0757  0.2414  0.1454
  761SOL    HW1 3042   2.029   0.337   2.434 -0.9875 -4.1556  0.1594
  761SOL    HW2 3043   2.083   0.421   2.551 -1.9309  0.5458 -1.1659
  761SOL     MW 3044   2.067   0.411   2.469 -0.3293 -0.2986 -0.0257
  762SOL     OW 3045   3.089   0.180   2.015 -0.3753 -0.2169 -0.0057
  762SOL    HW1 3046   3.082   0.138   2.097  1.4534 -0.7644 -0.6380
  762SOL    HW2 3047   3.052   0.265   2.037  0.5964  1.1238 -2.6167
  762SOL     MW 3048   3.083   0.186   2.028 -0.0058 -0.1123 -0.4336
  763SOL     OW 3049   2.410   1.062   2.341  0.3164 -0.4451 -0.1150
  763SOL    HW1 3050   2.431   1.038   2.246 -1.6078 -2.1724 -0.8816
  763SOL    HW2 3051   2.469   1.131   2.374  1.3250 -0.8467  0.5319
  763SOL     MW 3052   2.420   1.068   2.333  0.1956 -0.7260 -0.1308
  764SOL     OW 3053   0.382   0.231   2.773  0.5707  0.0423  0.0656
  764SOL    HW1 3054   0.288   0.233   2.750  0.8158  3.3174 -2.8268
  764SOL    HW2 3055   0.391   0.304   2.840 -2.6181  0.0774 -0.3184
  764SOL     MW 3056   0.370   0.241   2.779  0.1823  0.4790 -0.3667
  765SOL     OW 3057   2.699   0.095   2.266  0.0874 -0.3441 -0.4169
  765SOL    HW1 3058   2.631   0.081   2.198 -0.3875  0.3472  0.5488
  765SOL    HW2 3059   2.734   0.006   2.288  0.4908 -0.3770 -0.9309
  765SOL     MW 3060   2.695   0.081   2.260  0.0780 -0.2572 -0.3573
  766SOL     OW 3061   1.844   3.033   2.152  0.2112  0.0588  0.1705
  766SOL    HW1 3062   1.907   3.051   2.079  0.8335  1.3301  0.3441
  766SOL    HW2 3063   1.801   2.950   2.125 -0.5058 -0.2189  0.3263
  766SOL     MW 3064   1.847   3.024   2.139  0.1987  0.1899  0.2139
  767SOL     OW 3065   2.650   0.647   1.950 -0.2877  0.0789  0.1718
  767SOL    HW1 3066   2.673   0.720   2.005 -0.1679  0.9227 -2.6043
  767SOL    HW2 3067   2.561   0.615   1.969 -2.0651 -0.1085  2.6478
  767SOL     MW 3068   2.641   0.653   1.960 -0.5064  0.1655  0.1322
  768SOL     OW 3069   0.070   1.554   2.967 -0.7117 -0.2012 -0.2893
  768SOL    HW1 3070   0.100   1.512   3.050 -0.8228  0.9518  1.9171
  768SOL    HW2 3071   0.113   1.499   2.895 -0.2705  0.3534 -2.3402
  768SOL     MW 3072   0.079   1.541   2.969 -0.6681  0.0241 -0.2688
  769SOL     OW 3073   2.358   0.692   2.312 -0.1208  0.2148 -0.7314
  769SOL    HW1 3074   2.279   0.647   2.328  2.1032  0.2297 -2.2332
  769SOL    HW2 3075   2.419   0.622   2.281 -2.0258 -0.0806 -1.2031
  769SOL     MW 3076   2.355   0.677   2.310 -0.0787  0.1778 -0.9918
  770SOL     OW 3077   0.084   1.700   2.598  0.2533 -0.2503  0.3030
  770SOL    HW1 3078  -0.014   1.719   2.610 -1.5024  1.0905  0.3236
  770SOL    HW2 3079   0.099   1.624   2.646  0.9587  1.0273  0.4329
  770SOL     MW 3080   0.073   1.692   2.606  0.1147  0.0952  0.3229
  771SOL     OW 3081   3.025   0.644   1.936 -0.1113 -0.1404  0.6144
  771SOL    HW1 3082   2.960   0.647   1.859 -2.9152 -0.7553 -1.9126
  771SOL    HW2 3083   3.109   0.619   1.898 -1.2843  0.7801  0.8932
  771SOL     MW 3084   3.027   0.641   1.921 -0.6360 -0.1001  0.3178
  772SOL     OW 3085   3.072   0.017   2.245 -0.1296 -0.1967 -0.1011
  772SOL    HW1 3086   2.988  -0.018   2.282 -0.0457  1.1540 -0.4299
  772SOL    HW2 3087   3.104  -0.060   2.207  0.0784  0.1176 -0.2611
  772SOL     MW 3088   3.065   0.003   2.245 -0.0911  0.0229 -0.1656
  773SOL     OW 3089   2.414   2.795   2.772  0.0873  0.1016  0.1794
  773SOL    HW1 3090   2.396   2.719   2.713  1.4367  0.9679  3.2189
  773SOL    HW2 3091   2.371   2.790   2.860 -1.0374  1.4464 -1.5836
  773SOL     MW 3092   2.406   2.784   2.776  0.1170  0.3933  0.3478
  774SOL     OW 3093   2.278   1.183   1.776 -0.0095 -0.4261 -0.0932
  774SOL    HW1 3094   2.272   1.261   1.723  0.9623 -2.1591 -1.2778
  774SOL    HW2 3095   2.223   1.124   1.719 -1.6409  0.6067 -1.9125
  774SOL     MW 3096   2.270   1.185   1.761 -0.0965 -0.5185 -0.4896
  775SOL     OW 3097   2.268   2.971   2.387  0.0075 -0.1183 -0.0453
  775SOL    HW1 3098   2.291   3.052   2.344  0.1714  1.0298 -1.6255
  775SOL    HW2 3099   2.336   2.905   2.371 -0.8408  2.2097 -2.3043
  775SOL     MW 3100   2.280   2.973   2.379 -0.0828  0.3403 -0.5519
  776SOL     OW 3101   0.097   1.444   0.172 -0.1670 -0.5695  0.1510
  776SOL    HW1 3102   0.174   1.390   0.178 -1.6915  1.7932 -0.6757
  776SOL    HW2 3103   0.031   1.378   0.174 -1.4021  3.3472  2.2460
  776SOL     MW 3104   0.098   1.428   0.173 -0.5311  0.2590  0.3184
  777SOL     OW 3105   2.982   1.084   1.686  0.2724  0.8539 -0.0982
  777SOL    HW1 3106   2.949   1.167   1.659  0.5948  0.0466  0.9693
  777SOL    HW2 3107   2.907   1.041   1.719  0.0281 -0.0831 -1.4135
  777SOL     MW 3108   2.968   1.090   1.686  0.2827  0.6237 -0.1309
  778SOL     OW 3109   2.888   0.445   2.740 -0.1157 -0.4665  0.2505
  778SOL    HW1 3110   2.822   0.469   2.811  1.2524 -0.2261 -1.0125
  778SOL    HW2 3111   2.894   0.525   2.673 -0.1896  0.4193 -2.1579
  778SOL     MW 3112   2.880   0.458   2.741  0.0550 -0.3179 -0.2339
  779SOL     OW 3113   2.089   0.598   2.265  0.1344 -0.2982  0.4100
  779SOL    HW1 3114   2.024   0.665   2.288  0.3149  3.7587  1.2524
  779SOL    HW2 3115   2.082   0.534   2.335 -0.6689  3.2407 -3.3676
  779SOL     MW 3116   2.080   0.598   2.277  0.0522  0.7040  0.0227
  780SOL     OW 3117   0.103   0.206   2.760  0.5793 -0.5354 -0.2875
  780SOL    HW1 3118   0.066   0.224   2.847  1.0310  0.8930  0.4278
  780SOL    HW2 3119   0.023   0.193   2.710 -0.2776 -0.4499  1.7482
  780SOL     MW 3120   0.088   0.206   2.765  0.5258 -0.3357  0.0755
  781SOL     OW 3121   3.044   1.319   2.556 -0.3849  0.1276 -0.4447
  781SOL    HW1 3122   3.051   1.368   2.474  2.3135 -2.1793 -0.3193
  781SOL    HW2 3123   3.073   1.232   2.527 -1.4634 -1.4340 -0.8818
  781SOL     MW 3124   3.048   1.314   2.541 -0.1712 -0.3828 -0.4858
  782SOL     OW 3125   0.769   1.468   3.071  0.0455  0.5928  0.2626
  782SOL    HW1 3126   0.687   1.513   3.069 -2.3120  1.4822  2.0065
  782SOL    HW2 3127   0.818   1.498   3.152  1.6364 -1.1897  0.5673
  782SOL     MW 3128   0.765   1.478   3.081 -0.0557  0.4750  0.5329
  783SOL     OW 3129   2.758   0.469   2.394  0.3575 -0.4121  0.0977
  783SOL    HW1 3130   2.691   0.484   2.329  0.6052  1.1159  0.3217
  783SOL    HW2 3131   2.708   0.444   2.473 -0.1548 -0.7134 -1.8190
  783SOL     MW 3132   2.743   0.468   2.396  0.3226 -0.2502 -0.1256
  784SOL     OW 3133   0.202   0.818   2.852  0.0195 -0.5302  0.9387
  784SOL    HW1 3134   0.168   0.902   2.878 -0.2708  2.5158 -0.0164
  784SOL    HW2 3135   0.252   0.846   2.780 -0.5904  0.7634 -0.5056
  784SOL     MW 3136   0.204   0.832   2.846 -0.0992  0.0424  0.6222
  785SOL     OW 3137   0.421   0.502   2.169 -0.0729 -0.1375  0.0648
  785SOL    HW1 3138   0.434   0.550   2.085  0.2932 -1.0530 -0.6368
  785SOL    HW2 3139   0.335   0.460   2.153 -2.9827 -2.4000  1.5473
  785SOL     MW 3140   0.411   0.503   2.156 -0.4085 -0.5568  0.1679
  786SOL     OW 3141   2.012   0.386   2.926  0.2754  0.1592 -0.4654
  786SOL    HW1 3142   1.979   0.434   2.998 -3.3347  2.8253  1.4645
  786SOL    HW2 3143   2.077   0.437   2.883  1.7914  0.0829  2.3594
  786SOL     MW 3144   2.016   0.399   2.930 -0.0009  0.5009  0.1619
  787SOL     OW 3145   2.420   0.212   2.882  0.0617 -0.5831 -0.1318
  787SOL    HW1 3146   2.479   0.148   2.855 -3.1644 -0.2076  2.8917
  787SOL    HW2 3147   2.463   0.248   2.961  2.3469 -0.8877  1.5840
  787SOL     MW 3148   2.433   0.208   2.889 -0.0625 -0.5737  0.4935
  788SOL     OW 3149   2.856   2.984   2.371  0.5584 -0.0138  0.0261
  788SOL    HW1 3150   2.861   2.988   2.464 -2.4041 -5.9394 -3.4065
  788SOL    HW2 3151   2.876   2.892   2.343 -0.1087 -2.8555  1.1038
  788SOL     MW 3152   2.859   2.973   2.380  0.0795 -1.1705 -0.2846
  789SOL     OW 3153   0.018   0.243   3.041 -0.1439  1.2481 -0.5091
  789SOL    HW1 3154  -0.050   0.171   3.037  1.7144  1.3132  0.8028
  789SOL    HW2 3155  -0.019   0.326   3.013 -3.4724  2.0270 -2.8557
  789SOL     MW 3156   0.004   0.245   3.037 -0.3379  1.3595 -0.6456
  790SOL     OW 3157   3.066   1.064   2.444 -0.2717 -0.1030  0.5987
  790SOL    HW1 3158   3.008   1.003   2.504 -1.6631 -0.5466 -1.7636
  790SOL    HW2 3159   3.030   1.036   2.357 -0.3660 -1.2753 -0.6721
  790SOL     MW 3160   3.054   1.052   2.441 -0.4677 -0.3162  0.1193
  791SOL     OW 3161   2.632   0.381   2.613  0.1497  0.2738  0.2382
  791SOL    HW1 3162   2.545   0.396   2.654 -0.1090  1.1695 -1.3352
  791SOL    HW2 3163   2.694   0.381   2.688  2.5863 -1.6371  1.5060
  791SOL     MW 3164   2.628   0.383   2.629  0.4371  0.1398  0.1979
  792SOL     OW 3165   2.327   0.313   2.387 -0.0446 -0.1532 -0.3187
  792SOL    HW1 3166   2.238   0.345   2.404 -1.1196 -1.6374 -1.5832
  792SOL    HW2 3167   2.353   0.262   2.463  3.0853 -2.1116 -0.6440
  792SOL     MW 3168   2.319   0.310   2.399  0.2265 -0.6074 -0.5285
  793SOL     OW 3169   1.795   1.050   1.959 -0.1272 -0.9154  0.0255
  793SOL    HW1 3170   1.783   1.105   1.883  2.6002 -0.9037  1.5460
  793SOL    HW2 3171   1.868   0.985   1.930  4.9448 -2.7178  0.3679
  793SOL     MW 3172   1.803   1.049   1.945  0.9019 -1.1517  0.2713
  794SOL     OW 3173   1.422   2.266   0.178  0.0309  0.6286 -0.2321
  794SOL    HW1 3174   1.440   2.326   0.100  0.4246  0.6497  0.3860
  794SOL    HW2 3175   1.499   2.269   0.229 -0.6665  0.6050 -0.6668
  794SOL     MW 3176   1.434   2.274   0.174 -0.0092  0.6283 -0.2079
  795SOL     OW 3177   2.345   0.948   2.636  0.2194 -0.2234 -0.0180
  795SOL    HW1 3178   2.290   1.024   2.659  0.3038 -1.7273 -0.6649
  795SOL    HW2 3179   2.408   0.978   2.573 -0.3762  2.6338  0.3217
  795SOL     MW 3180   2.346   0.962   2.631  0.1519 -0.0449 -0.0585
  796SOL     OW 3181   0.283   0.573   2.751  0.2057  0.0107  0.3271
  796SOL    HW1 3182   0.233   0.633   2.801  0.7893  0.2678  0.7875
  796SOL    HW2 3183   0.243   0.567   2.661  0.3284 -1.1323  0.5388
  796SOL     MW 3184   0.271   0.580   2.746  0.2989 -0.1062  0.4158
  797SOL     OW 3185   2.590   0.129   2.535 -0.0513 -0.2359 -0.7615
  797SOL    HW1 3186   2.601   0.220   2.557  1.0536  2.8212  0.7551
  797SOL    HW2 3187   2.633   0.103   2.449 -1.2433 -0.5857  2.2402
  797SOL     MW 3188   2.597   0.138   2.527 -0.0628  0.1213 -0.1653
  798SOL     OW 3189   2.326   0.078   2.233  0.1848 -0.5876  0.4481
  798SOL    HW1 3190   2.331   0.168   2.265 -1.6536 -1.0422 -1.8813
  798SOL    HW2 3191   2.412   0.065   2.182 -0.8567  2.8729 -2.6267
  798SOL     MW 3192   2.338   0.088   2.231 -0.1952 -0.1910 -0.2649
  799SOL     OW 3193   2.515   2.979   0.018 -0.0902 -0.2018  0.5647
  799SOL    HW1 3194   2.470   2.893   0.014  0.3632  0.5215  2.6550
  799SOL    HW2 3195   2.447   3.040   0.004 -0.3949  0.8642 -1.4446
  799SOL     MW 3196   2.500   2.975   0.015 -0.0706  0.0342  0.5754
  800SOL     OW 3197   1.908   0.018   1.727 -0.9829 -0.4330  0.4197
  800SOL    HW1 3198   1.844  -0.050   1.754 -0.4997 -1.9780 -0.6200
  800SOL    HW2 3199   1.982   0.024   1.785  1.5729 -1.5176 -0.8727
  800SOL     MW 3200   1.909   0.010   1.738 -0.5819 -0.7799  0.1120
  801SOL     OW 3201   2.781   1.294   2.561 -0.0871 -0.4412 -0.1008
  801SOL    HW1 3202   2.758   1.203   2.583 -0.4634 -2.6794  0.2734
  801SOL    HW2 3203   2.880   1.286   2.557 -1.5504 -0.0410 -0.2838
  801SOL     MW 3204   2.791   1.281   2.563 -0.3298 -0.6837 -0.0755
  802SOL     OW 3205   2.622   1.542   2.768  0.1357  0.7699  0.1997
  802SOL    HW1 3206   2.615   1.444   2.770 -1.3943 -0.8348 -0.0537
  802SOL    HW2 3207   2.708   1.554   2.800 -0.3125 -1.0610 -2.7623
  802SOL     MW 3208   2.632   1.531   2.773 -0.1253  0.3166 -0.2245
  803SOL     OW 3209   2.252   1.381   1.972  0.2728  0.5722  1.1488
  803SOL    HW1 3210   2.233   1.364   2.066 -0.4187  0.2386 -1.0642
  803SOL    HW2 3211   2.254   1.290   1.937 -3.1585 -0.0309 -1.6236
  803SOL     MW 3212   2.250   1.367   1.979 -0.2712  0.4486  0.4910
  804SOL     OW 3213   2.309   0.059   3.075 -0.1310  0.3933  0.1743
  804SOL    HW1 3214   2.218   0.090   3.099 -1.4259  2.7380  0.0867
  804SOL    HW2 3215   2.337   0.115   3.006 -1.5325  0.0782 -1.0544
  804SOL     MW 3216   2.300   0.070   3.069 -0.4868  0.6611  0.0006
  805SOL     OW 3217   2.683   1.029   2.569  0.3683 -0.2755 -0.0021
  805SOL    HW1 3218   2.653   1.031   2.478  3.0289 -1.3239 -1.2525
  805SOL    HW2 3219   2.758   0.965   2.576  0.4020  1.1120  0.7439
  805SOL     MW 3220   2.689   1.021   2.558  0.7238 -0.2307 -0.0687
  806SOL     OW 3221   2.521   0.490   2.253  0.1505 -0.3887  0.5682
  806SOL    HW1 3222   2.482   0.405   2.277  0.2755 -0.0289  1.1048
  806SOL    HW2 3223   2.482   0.519   2.170  3.8045 -0.2306  0.4454
  806SOL     MW 3224   2.510   0.483   2.245  0.6491 -0.3204  0.6228
  807SOL     OW 3225   0.061   1.126   2.071  0.5441  0.5401  0.0323
  807SOL    HW1 3226   0.089   1.041   2.044 -1.3633 -0.0068 -0.8863
  807SOL    HW2 3227  -0.021   1.121   2.123 -0.8682  0.4076  2.0259
  807SOL     MW 3228   0.054   1.114   2.074  0.1061  0.4505  0.1741
  808SOL     OW 3229   2.549   3.074   2.757 -0.1796 -0.4042 -0.1477
  808SOL    HW1 3230   2.528   2.982   2.735 -0.8544 -1.5451  0.8274
  808SOL    HW2 3231   2.572   3.121   2.676 -1.1963 -0.1362  1.1473
  808SOL     MW 3232   2.549   3.068   2.743 -0.4028 -0.5194  0.1518
  809SOL     OW 3233   2.541   1.313   2.419 -0.4832  0.4296  0.0584
  809SOL    HW1 3234   2.619   1.302   2.481  0.6267  2.6256 -1.5330
  809SOL    HW2 3235   2.590   1.328   2.341 -3.0082  0.5561  0.4919
  809SOL     MW 3236   2.558   1.314   2.416 -0.6700  0.7360 -0.0943
  810SOL     OW 3237   2.212   1.283   2.252  0.2229 -0.1661 -0.5163
  810SOL    HW1 3238   2.284   1.218   2.248  0.0577  0.2474 -0.5744
  810SOL    HW2 3239   2.131   1.229   2.258 -3.0163 -0.6439  2.3011
  810SOL     MW 3240   2.211   1.268   2.252 -0.2263 -0.1746 -0.1523
  811SOL     OW 3241   1.550   0.157   2.312 -0.4780  0.5861 -0.0580
  811SOL    HW1 3242   1.614   0.097   2.355  2.4239 -3.5013 -0.2899
  811SOL    HW2 3243   1.572   0.143   2.220  2.3710  2.1780 -0.4164
  811SOL     MW 3244   1.562   0.148   2.305  0.2808  0.2569 -0.1359
  812SOL     OW 3245   1.493   2.870   2.126 -0.4451 -0.0967  0.1249
  812SOL    HW1 3246   1.589   2.847   2.098  1.8601  0.4480 -2.0257
  812SOL    HW2 3247   1.486   2.837   2.217  1.1992 -1.8257  2.3639
  812SOL     MW 3248   1.505   2.863   2.135  0.0760 -0.2530  0.1366
  813SOL     OW 3249   1.870   0.750   2.168 -0.7415  0.1019  0.1896
  813SOL    HW1 3250   1.824   0.665   2.189  1.8194 -0.3172 -1.5257
  813SOL    HW2 3251   1.873   0.794   2.256  0.4023  0.4165  1.0103
  813SOL     MW 3252   1.865   0.744   2.182 -0.2527  0.0881  0.0716
  814SOL     OW 3253   2.755   1.269   1.601  0.5077 -0.2116 -0.0311
  814SOL    HW1 3254   2.664   1.241   1.607 -0.3939  0.5201  0.3118
  814SOL    HW2 3255   2.793   1.223   1.520 -0.0506  1.8304  1.9935
  814SOL     MW 3256   2.748   1.259   1.591  0.3151  0.1544  0.2813
  815SOL     OW 3257   2.469   1.655   2.339 -0.4572 -0.3868  0.7125
  815SOL    HW1 3258   2.402   1.585   2.333  3.4806 -0.8464  0.2763
  815SOL    HW2 3259   2.563   1.619   2.356  2.4103 -1.2643  0.3438
  815SOL     MW 3260   2.473   1.641   2.340  0.4407 -0.5632  0.6063
  816SOL     OW 3261   0.781   0.679   2.741 -0.0760  0.3525 -0.4861
  816SOL    HW1 3262   0.784   0.598   2.794  0.2822 -2.0235 -0.3019
  816SOL    HW2 3263   0.690   0.682   2.716  0.8687  2.9856  0.3501
  816SOL     MW 3264   0.769   0.669   2.745  0.0959  0.3864 -0.3515
  817SOL     OW 3265   3.043   1.271   1.486 -0.9031  0.2738 -0.2984
  817SOL    HW1 3266   3.123   1.275   1.538 -0.0396 -0.7509 -0.9680
  817SOL    HW2 3267   3.048   1.350   1.435 -0.7771  1.5522 -0.6766
  817SOL     MW 3268   3.055   1.282   1.486 -0.7726  0.3073 -0.4366
  818SOL     OW 3269   1.926   1.061   2.675  0.1236  0.2233 -0.1170
  818SOL    HW1 3270   1.941   1.082   2.581  0.7368 -0.1679  0.0595
  818SOL    HW2 3271   1.979   0.985   2.698  1.7663  1.7989 -0.0467
  818SOL     MW 3272   1.935   1.053   2.666  0.4213  0.3796 -0.0844
  819SOL     OW 3273   1.891   0.220   2.472 -0.2220  0.7951 -0.0014
  819SOL    HW1 3274   1.835   0.293   2.501  4.5538  1.8614 -0.6069
  819SOL    HW2 3275   1.951   0.197   2.552 -0.6649  2.4576  4.8752
  819SOL     MW 3276   1.892   0.226   2.486  0.3497  1.1552  0.5621
  820SOL     OW 3277   2.448   1.730   2.617  0.0139  0.4205  0.4069
  820SOL    HW1 3278   2.481   1.663   2.674  1.4114  0.8267 -2.6727
  820SOL    HW2 3279   2.439   1.684   2.532 -1.7768 -1.3624  2.0393
  820SOL     MW 3280   2.451   1.715   2.613 -0.0379  0.2389  0.2160
  821SOL     OW 3281   2.590   1.342   1.966  0.3636  0.7122 -0.0691
  821SOL    HW1 3282   2.637   1.421   1.929  1.0066  0.0187  4.7532
  821SOL    HW2 3283   2.502   1.376   1.986  0.7111 -3.0201  0.6625
  821SOL     MW 3284   2.585   1.357   1.963  0.4943  0.1282  0.6637
  822SOL     OW 3285   2.760   2.608   1.495  0.2046  0.3281 -0.0206
  822SOL    HW1 3286   2.818   2.646   1.558  0.6802  0.3509  1.6845
  822SOL    HW2 3287   2.717   2.681   1.445  1.2127  0.5647  1.4762
  822SOL     MW 3288   2.762   2.623   1.497  0.4004  0.3623  0.4018
  823SOL     OW 3289   2.265   0.503   1.772 -0.5266 -0.2026  0.2409
  823SOL    HW1 3290   2.324   0.439   1.729 -0.0148 -0.2296  0.3554
  823SOL    HW2 3291   2.184   0.460   1.751  2.2865 -0.9277 -0.9466
  823SOL     MW 3292   2.262   0.489   1.763 -0.0879 -0.3018  0.0994
  824SOL     OW 3293   2.081   1.377   2.575 -0.0488 -0.2128  0.1357
  824SOL    HW1 3294   2.147   1.429   2.527  0.0565  2.2619  1.8985
  824SOL    HW2 3295   2.045   1.437   2.637 -0.0893 -4.2289 -0.0084
  824SOL     MW 3296   2.085   1.391   2.577 -0.0403 -0.4162  0.3493
  825SOL     OW 3297   2.005   2.576   0.270  1.0478  0.5987  0.3687
  825SOL    HW1 3298   1.982   2.517   0.340  2.9776 -0.1184  1.3058
  825SOL    HW2 3299   2.082   2.544   0.220  1.1673 -0.2830  0.2889
  825SOL     MW 3300   2.012   2.564   0.272  1.3182  0.3878  0.4818
  826SOL     OW 3301   1.890   2.433   0.514 -0.0175  0.7519  0.3410
  826SOL    HW1 3302   1.854   2.358   0.564  0.3919 -1.6427  2.2701
  826SOL    HW2 3303   1.837   2.510   0.541 -1.3163 -0.4122  1.9328
  826SOL     MW 3304   1.878   2.433   0.524 -0.1348  0.2824  0.8055
  827SOL     OW 3305   1.935   2.190   0.948  0.2049  0.4385 -1.1703
  827SOL    HW1 3306   1.897   2.267   0.903  0.5424 -0.0627  2.5758
  827SOL    HW2 3307   1.872   2.114   0.969  1.4456 -2.1309  1.5341
  827SOL     MW 3308   1.921   2.190   0.945  0.4131  0.0333 -0.3192
  828SOL     OW 3309   0.041   2.663   0.588 -0.4434  0.9469  0.4346
  828SOL    HW1 3310   0.135   2.667   0.579 -0.7523  1.5202 -0.5173
  828SOL    HW2 3311   0.018   2.668   0.494  1.4461 -1.9680 -1.2358
  828SOL     MW 3312   0.051   2.664   0.574 -0.2349  0.6379  0.0886
  829SOL     OW 3313   2.939   2.941   1.260  0.1743 -0.0776  0.5692
  829SOL    HW1 3314   2.871   2.924   1.190  1.6158 -0.0870 -1.2614
  829SOL    HW2 3315   2.999   2.864   1.263 -0.6485 -1.3136 -1.6786
  829SOL     MW 3316   2.938   2.928   1.251  0.2559 -0.2419  0.0311
  830SOL     OW 3317   2.507   2.850   2.025 -0.1214 -0.4957  0.1380
  830SOL    HW1 3318   2.419   2.854   1.987  0.6068  2.2413  2.7215
  830SOL    HW2 3319   2.560   2.814   1.956 -0.0694  0.5937  2.9602
  830SOL     MW 3320   2.503   2.846   2.011 -0.0185  0.0092  0.8512
  831SOL     OW 3321   2.419   2.384   1.313  0.2246  0.0393 -0.1267
  831SOL    HW1 3322   2.387   2.340   1.391  0.7102 -1.3615  0.0968
  831SOL    HW2 3323   2.507   2.344   1.300 -0.7695 -1.9721  0.9535
  831SOL     MW 3324   2.426   2.373   1.321  0.1575 -0.4109  0.0453
  832SOL     OW 3325   2.432   2.206   1.905 -0.4104  0.1262 -0.1610
  832SOL    HW1 3326   2.450   2.294   1.955 -1.1444  0.0713  0.8352
  832SOL    HW2 3327   2.527   2.178   1.888  0.8136  1.3656  2.4448
  832SOL     MW 3328   2.447   2.214   1.909 -0.3457  0.2825  0.3142
  833SOL     OW 3329   1.799   2.451   0.875 -0.1194 -0.5465 -0.1879
  833SOL    HW1 3330   1.716   2.396   0.893  1.3164 -3.9718  0.5000
  833SOL    HW2 3331   1.804   2.521   0.954  2.7792  2.7086  0.3417
  833SOL     MW 3332   1.789   2.453   0.888  0.4525 -0.5690 -0.0273
  834SOL     OW 3333   2.244   2.486   0.601 -0.0574  0.1736 -0.5587
  834SOL    HW1 3334   2.174   2.439   0.646 -0.9764 -0.6320  0.8051
  834SOL    HW2 3335   2.264   2.424   0.522  2.1141 -1.6344 -2.9668
  834SOL     MW 3336   2.237   2.471   0.597  0.1079 -0.1713 -0.6965
  835SOL     OW 3337   1.738   2.609   0.657  0.4688 -0.2790  0.0817
  835SOL    HW1 3338   1.754   2.548   0.729  0.5567 -2.4991 -0.2976
  835SOL    HW2 3339   1.819   2.668   0.678  1.8659  1.0895  0.9494
  835SOL     MW 3340   1.751   2.608   0.669  0.6648 -0.3913  0.1461
  836SOL     OW 3341   1.966   2.175   1.624  0.4419 -0.4881  0.1682
  836SOL    HW1 3342   2.058   2.192   1.636  1.0188 -0.3854 -2.4541
  836SOL    HW2 3343   1.926   2.256   1.646  0.3359 -0.7710 -1.0624
  836SOL     MW 3344   1.973   2.188   1.628  0.5041 -0.5119 -0.3401
  837SOL     OW 3345   2.121   0.202   0.697 -0.0605 -0.6242  0.3107
  837SOL    HW1 3346   2.030   0.223   0.690  1.8092  0.2134  0.5908
  837SOL    HW2 3347   2.145   0.148   0.620  2.6578  2.8970  0.8521
  837SOL     MW 3348   2.112   0.198   0.686  0.5448 -0.0491  0.4191
  838SOL     OW 3349   2.943   2.127   0.888  0.2536 -0.5245  0.1492
  838SOL    HW1 3350   2.876   2.087   0.949  1.1531 -0.2311 -0.3265
  838SOL    HW2 3351   2.981   2.056   0.836  0.2598  1.6151 -0.1613
  838SOL     MW 3352   2.939   2.112   0.889  0.3731 -0.2035  0.0455
  839SOL     OW 3353   1.545   2.352   0.921 -0.2047  0.2266 -0.2077
  839SOL    HW1 3354   1.496   2.434   0.920  0.0300  1.2335  0.0072
  839SOL    HW2 3355   1.558   2.338   1.012 -0.4162 -1.3023  0.5696
  839SOL     MW 3356   1.540   2.361   0.933 -0.2016  0.1577 -0.0768
  840SOL     OW 3357   2.320   2.104   2.400 -0.0320  0.6684  0.4192
  840SOL    HW1 3358   2.294   2.178   2.341  0.4065 -3.1539 -2.3054
  840SOL    HW2 3359   2.388   2.150   2.448 -2.2830  0.8080 -1.8562
  840SOL     MW 3360   2.325   2.120   2.398 -0.2712  0.1825 -0.2405
  841SOL     OW 3361   2.180   2.426   0.128  0.1662  0.0678  0.6452
  841SOL    HW1 3362   2.194   2.445   0.035  0.5419 -0.3971 -1.9913
  841SOL    HW2 3363   2.118   2.355   0.118  2.9080 -1.4377  0.2793
  841SOL     MW 3364   2.173   2.419   0.114  0.5775 -0.1922  0.2491
  842SOL     OW 3365   2.668   1.988   1.567  0.1198  0.5524 -0.0919
  842SOL    HW1 3366   2.599   1.920   1.588 -2.7458  1.5673  0.4313
  842SOL    HW2 3367   2.631   2.025   1.492  2.1134 -0.7675  3.0324
  842SOL     MW 3368   2.654   1.984   1.560  0.0048  0.5122  0.3894
  843SOL     OW 3369   2.670   2.779   1.802 -0.1566  0.6390  0.3198
  843SOL    HW1 3370   2.753   2.727   1.800 -0.2345  0.6582 -3.3396
  843SOL    HW2 3371   2.609   2.730   1.752 -0.0867  3.4564  1.9918
  843SOL     MW 3372   2.673   2.766   1.795 -0.1576  1.0132  0.0576
  844SOL     OW 3373   2.647   2.246   1.226  0.3413  0.0328 -0.0607
  844SOL    HW1 3374   2.660   2.300   1.144  0.9095  2.4976 -0.6508
  844SOL    HW2 3375   2.705   2.265   1.295  0.1744  1.5390  0.2626
  844SOL     MW 3376   2.656   2.256   1.224  0.3943  0.5567 -0.0959
  845SOL     OW 3377   2.876   2.474   0.287 -0.0887 -0.3221 -0.2276
  845SOL    HW1 3378   2.834   2.391   0.301 -0.4975 -1.1133  0.2947
  845SOL    HW2 3379   2.915   2.488   0.376 -0.7216  1.9545  2.0287
  845SOL     MW 3380   2.876   2.465   0.301 -0.2262 -0.1261  0.1390
  846SOL     OW 3381   1.520   2.860   0.786 -0.5876  0.0806  0.1592
  846SOL    HW1 3382   1.591   2.913   0.825  0.6314  0.0000  1.5897
  846SOL    HW2 3383   1.434   2.884   0.820 -0.4778 -0.4882 -1.1816
  846SOL     MW 3384   1.518   2.870   0.796 -0.4123 -0.0051  0.1710
  847SOL     OW 3385   2.494   1.927   0.147 -0.2830  0.2655  0.2093
  847SOL    HW1 3386   2.543   1.854   0.174 -0.3786  0.7644 -0.4476
  847SOL    HW2 3387   2.439   1.886   0.083  3.8465  1.4495  0.9880
  847SOL     MW 3388   2.493   1.912   0.142  0.2492  0.4876  0.2254
  848SOL     OW 3389   2.525   2.054   1.361  0.1892 -0.1782 -0.3414
  848SOL    HW1 3390   2.554   2.114   1.286 -4.0073  0.9223 -2.0227
  848SOL    HW2 3391   2.490   1.975   1.322 -0.1102  0.7226  1.2911
  848SOL     MW 3392   2.524   2.052   1.346 -0.4040  0.0858 -0.3478
  849SOL     OW 3393   1.973   2.748   0.742  0.7350 -0.3869  0.2283
  849SOL    HW1 3394   1.993   2.675   0.800  1.6298  0.4264 -2.2974
  849SOL    HW2 3395   2.048   2.761   0.686 -1.8146 -1.5977 -0.3668
  849SOL     MW 3396   1.985   2.740   0.742  0.5166 -0.4394 -0.1834
  850SOL     OW 3397   2.229   1.929   1.688  0.1777 -0.0640  0.4155
  850SOL    HW1 3398   2.157   1.874   1.646  0.3396 -3.0969  0.0876
  850SOL    HW2 3399   2.201   2.020   1.682  2.0027  1.4279 -0.7407
  850SOL     MW 3400   2.216   1.934   1.682  0.4399 -0.2673  0.2197
  851SOL     OW 3401   2.330   2.366   0.355  0.0911 -0.4646  0.1903
  851SOL    HW1 3402   2.286   2.385   0.271  0.6727 -1.6267  0.0512
  851SOL    HW2 3403   2.396   2.443   0.366  0.2662  1.5598 -1.0995
  851SOL     MW 3404   2.333   2.378   0.345  0.1909 -0.3508  0.0018
  852SOL     OW 3405   2.337   2.099   0.297 -0.3334  0.1785 -0.3225
  852SOL    HW1 3406   2.389   2.176   0.286 -0.0683  0.0693 -0.2326
  852SOL    HW2 3407   2.385   2.045   0.230  1.6045  1.7764 -2.9829
  852SOL     MW 3408   2.351   2.102   0.287 -0.0427  0.3750 -0.6617
  853SOL     OW 3409   2.503   2.458   1.983  0.3144  0.1909 -0.4201
  853SOL    HW1 3410   2.508   2.521   1.906  0.7024 -0.8094  1.3184
  853SOL    HW2 3411   2.594   2.463   2.014 -1.3288  2.9706  0.5427
  853SOL     MW 3412   2.516   2.467   1.977  0.1488  0.4256 -0.0637
  854SOL     OW 3413   2.825   2.346   0.761  0.0541 -0.5804  0.3313
  854SOL    HW1 3414   2.747   2.301   0.724 -1.8719 -0.5690 -1.0759
  854SOL    HW2 3415   2.878   2.273   0.802  0.0850  1.5189  2.1904
  854SOL     MW 3416   2.822   2.330   0.761 -0.1960 -0.3019  0.3909
  855SOL     OW 3417   2.681   2.230   0.376 -0.6871  0.3668  0.0485
  855SOL    HW1 3418   2.672   2.286   0.451 -0.5170 -3.6302 -1.8871
  855SOL    HW2 3419   2.767   2.187   0.390 -0.0240  1.8462  0.7864
  855SOL     MW 3420   2.691   2.232   0.388 -0.5772  0.0347 -0.1095
  856SOL     OW 3421   2.159   1.933   0.170 -0.3488 -0.6915  0.4208
  856SOL    HW1 3422   2.083   1.910   0.223 -0.2351  0.3998  0.7644
  856SOL    HW2 3423   2.197   2.015   0.196 -1.9779 -0.1488 -0.2254
  856SOL     MW 3424   2.154   1.941   0.181 -0.5487 -0.4759  0.3809
  857SOL     OW 3425   2.511   2.005   0.518 -0.1209  0.3425  0.2830
  857SOL    HW1 3426   2.510   2.060   0.447 -1.5393 -1.0141  4.2130
  857SOL    HW2 3427   2.444   1.941   0.495 -1.8589 -3.6075  1.0071
  857SOL     MW 3428   2.502   2.004   0.505 -0.5374 -0.3577  0.8971
  858SOL     OW 3429   2.893   2.649   1.748 -0.1186 -0.2658  0.0988
  858SOL    HW1 3430   2.980   2.680   1.768 -1.2767  1.0162 -0.9959
  858SOL    HW2 3431   2.890   2.558   1.780  1.9565 -0.7200 -0.3222
  858SOL     MW 3432   2.904   2.641   1.755  0.0024 -0.1566 -0.1012
  859SOL     OW 3433   2.077   2.565   0.964 -0.1462  0.1492  0.0149
  859SOL    HW1 3434   2.051   2.516   1.041 -2.2103  0.1902 -0.0494
  859SOL    HW2 3435   2.155   2.522   0.937 -0.0039  1.8051  1.1803
  859SOL     MW 3436   2.084   2.552   0.971 -0.3998  0.3731  0.1602
  860SOL     OW 3437   2.674   2.612   0.141 -0.3084 -0.4816 -0.1915
  860SOL    HW1 3438   2.752   2.604   0.200  0.7924  0.0231  0.8754
  860SOL    HW2 3439   2.695   2.694   0.093 -2.0630  3.1537 -3.4024
  860SOL     MW 3440   2.687   2.621   0.142 -0.3947  0.0646 -0.4744
  861SOL     OW 3441   1.597   2.125   1.148  0.7880 -0.1072 -0.6983
  861SOL    HW1 3442   1.608   2.209   1.187 -0.8238  0.1239 -1.3590
  861SOL    HW2 3443   1.539   2.084   1.211  1.8383 -0.4814 -0.1729
  861SOL     MW 3444   1.591   2.131   1.161  0.7139 -0.1260 -0.7161
  862SOL     OW 3445   2.469   1.794   1.556 -0.1206  0.2240  0.6412
  862SOL    HW1 3446   2.381   1.814   1.592  0.8515 -2.2548 -1.6175
  862SOL    HW2 3447   2.467   1.851   1.478  2.2667 -0.9956 -0.6348
  862SOL     MW 3448   2.457   1.804   1.550  0.3226 -0.2640  0.1749
  863SOL     OW 3449   2.983   1.817   1.049  0.0029 -0.0073 -0.1017
  863SOL    HW1 3450   3.063   1.791   1.095 -2.1867 -0.5840 -1.9946
  863SOL    HW2 3451   2.963   1.907   1.077  1.6907  0.1693 -0.8888
  863SOL     MW 3452   2.991   1.825   1.059 -0.0633 -0.0601 -0.4553
  864SOL     OW 3453   3.058   1.853   0.780 -0.0900 -0.2926 -0.5207
  864SOL    HW1 3454   3.033   1.828   0.873  0.6216  0.1152  0.0254
  864SOL    HW2 3455   3.023   1.785   0.714 -1.2246 -0.7503 -3.5683
  864SOL     MW 3456   3.050   1.841   0.784 -0.1458 -0.2992 -0.8508
  865SOL     OW 3457   2.571   2.158   0.027 -0.4422  0.5560 -0.0928
  865SOL    HW1 3458   2.542   2.087   0.084 -1.8262  2.5014 -0.8409
  865SOL    HW2 3459   2.503   2.167  -0.041  0.0996  1.0273 -0.9457
  865SOL     MW 3460   2.558   2.150   0.026 -0.5533  0.8749 -0.3041
  866SOL     OW 3461   2.673   2.379   1.676 -0.1259 -0.1144 -0.1648
  866SOL    HW1 3462   2.619   2.302   1.681  1.2813 -1.0390 -1.2424
  866SOL    HW2 3463   2.719   2.380   1.595 -0.1798  3.7979  1.7604
  866SOL     MW 3464   2.672   2.369   1.666  0.0527  0.2798 -0.0529
  867SOL     OW 3465   0.039   2.738   1.814  0.0600  0.0670  0.0169
  867SOL    HW1 3466   0.054   2.739   1.912 -0.4682  0.5527 -1.6230
  867SOL    HW2 3467   0.004   2.825   1.792  0.3854 -2.5244 -0.6994
  867SOL     MW 3468   0.036   2.750   1.824  0.0332 -0.2108 -0.2939
  868SOL     OW 3469   2.843   2.600   0.546 -0.9002 -0.0975 -0.6743
  868SOL    HW1 3470   2.760   2.550   0.559 -1.4304  0.7563  1.4275
  868SOL    HW2 3471   2.814   2.680   0.499 -1.3104 -0.2687  0.4983
  868SOL     MW 3472   2.828   2.604   0.541 -1.0242 -0.0075 -0.2423
  869SOL     OW 3473   2.079   2.350   1.147  0.3316 -0.2171 -0.1121
  869SOL    HW1 3474   2.175   2.364   1.131  0.9594  0.1510 -1.2715
  869SOL    HW2 3475   2.039   2.298   1.073  1.0181 -1.1598 -0.2067
  869SOL     MW 3476   2.087   2.345   1.135  0.5050 -0.2929 -0.2775
  870SOL     OW 3477   2.180   0.030   0.458  0.1392  0.0314 -0.0375
  870SOL    HW1 3478   2.249   0.075   0.407 -3.8893  0.0862  1.3274
  870SOL    HW2 3479   2.204  -0.060   0.472 -0.7604  1.3672 -0.3794
  870SOL     MW 3480   2.192   0.024   0.453 -0.5110  0.2148  0.0975
  871SOL     OW 3481   2.521   2.106   0.949 -0.2592 -0.4617  0.2246
  871SOL    HW1 3482   2.459   2.037   0.930 -2.1787 -1.9132 -2.0862
  871SOL    HW2 3483   2.461   2.178   0.968 -0.2959 -0.7520 -1.3808
  871SOL     MW 3484   2.505   2.107   0.949 -0.5173 -0.6915 -0.2921
  872SOL     OW 3485   1.979   2.528   1.523  0.2051 -0.3009  0.1902
  872SOL    HW1 3486   1.956   2.560   1.609  0.6340  0.8725 -0.6663
  872SOL    HW2 3487   1.921   2.448   1.507 -2.7587  1.2235 -1.7777
  872SOL     MW 3488   1.968   2.521   1.532 -0.1293  0.0550 -0.1825
  873SOL     OW 3489   2.932   2.032   1.938 -0.1362 -0.0786 -0.3617
  873SOL    HW1 3490   2.933   2.082   2.021  1.8964 -1.4859  1.0958
  873SOL    HW2 3491   3.019   2.009   1.925 -0.7141  0.6118  2.3104
  873SOL     MW 3492   2.944   2.036   1.948  0.0558 -0.1732  0.1832
  874SOL     OW 3493   2.281   1.486   2.429  0.6002 -0.3311  0.6100
  874SOL    HW1 3494   2.246   1.407   2.374 -1.6464 -2.7012 -1.5712
  874SOL    HW2 3495   2.370   1.458   2.448 -0.6525 -0.6359 -0.0776
  874SOL     MW 3496   2.288   1.472   2.424  0.1385 -0.6840  0.2315
  875SOL     OW 3497   2.344   2.329   1.043 -0.4925 -0.1693 -0.3824
  875SOL    HW1 3498   2.364   2.399   0.977  0.8116  1.6473  0.5306
  875SOL    HW2 3499   2.382   2.349   1.128  0.2756  0.7256  0.5859
  875SOL     MW 3500   2.352   2.341   1.045 -0.2191  0.1885 -0.1342
  876SOL     OW 3501   3.049   2.251   1.281  0.1994  0.3613  0.4008
  876SOL    HW1 3502   3.074   2.241   1.192  0.3180  1.2577  1.7179
  876SOL    HW2 3503   3.104   2.316   1.327  0.5777  1.8001 -1.3162
  876SOL     MW 3504   3.059   2.258   1.276  0.2649  0.6694  0.3480
  877SOL     OW 3505   3.041   2.713   0.342  0.1902 -0.2361  0.7571
  877SOL    HW1 3506   3.090   2.795   0.330 -0.7953 -1.3945  0.1949
  877SOL    HW2 3507   3.041   2.672   0.253  0.9262 -0.6777  0.6954
  877SOL     MW 3508   3.048   2.719   0.329  0.1573 -0.4472  0.6748
  878SOL     OW 3509   2.365   1.843   1.275 -0.0034 -0.0265  0.1263
  878SOL    HW1 3510   2.322   1.761   1.288  2.0233  1.3764 -4.8634
  878SOL    HW2 3511   2.445   1.810   1.234 -2.3077 -2.4322 -0.0567
  878SOL     MW 3512   2.370   1.828   1.271 -0.0400 -0.1588 -0.5562
  879SOL     OW 3513   2.677   2.412   1.005  0.0919  0.5109 -0.3943
  879SOL    HW1 3514   2.723   2.496   1.010 -0.0639  1.6912  0.7074
  879SOL    HW2 3515   2.731   2.370   0.942  3.5514 -0.1206 -0.8965
  879SOL     MW 3516   2.690   2.417   0.998  0.5278  0.5833 -0.3152
  880SOL     OW 3517   2.626   2.172   0.681  0.5113  0.1002 -0.0121
  880SOL    HW1 3518   2.588   2.163   0.775 -2.0027 -3.7573  0.9269
  880SOL    HW2 3519   2.582   2.117   0.616 -2.1034  2.5158 -1.7342
  880SOL     MW 3520   2.615   2.164   0.685 -0.1654 -0.0901 -0.1154
  881SOL     OW 3521   2.910   2.731   0.765 -0.3374  0.0896  0.2699
  881SOL    HW1 3522   2.893   2.674   0.681 -0.4606 -0.4291 -2.5641
  881SOL    HW2 3523   2.997   2.713   0.803  1.2068  0.1462  0.9386
  881SOL     MW 3524   2.920   2.721   0.759 -0.1499  0.0286 -0.0158
  882SOL     OW 3525   2.228   2.869   1.941  0.1469  0.3588 -0.0379
  882SOL    HW1 3526   2.203   2.861   1.847  2.6903 -0.2160  1.2320
  882SOL    HW2 3527   2.169   2.809   1.978  0.1442  1.2470  0.0494
  882SOL     MW 3528   2.217   2.860   1.934  0.4821  0.4002  0.1412
  883SOL     OW 3529   2.299   2.181   1.472 -0.2570 -0.1891 -0.7042
  883SOL    HW1 3530   2.380   2.143   1.434  0.1566  1.3964  1.2153
  883SOL    HW2 3531   2.229   2.140   1.419 -1.1824  1.6736  0.1450
  883SOL     MW 3532   2.301   2.171   1.460 -0.3246  0.2659 -0.3389
  884SOL     OW 3533   1.951   1.800   1.049 -0.3223  0.1145 -0.4058
  884SOL    HW1 3534   1.900   1.877   1.032  0.2238  0.1145  1.3674
  884SOL    HW2 3535   2.048   1.826   1.067  2.7040  2.6406 -1.7084
  884SOL     MW 3536   1.957   1.814   1.049  0.1490  0.4478 -0.3437
  885SOL     OW 3537   2.892   2.383   1.868  0.4707 -0.2990  0.0730
  885SOL    HW1 3538   2.973   2.336   1.842 -1.3179 -0.2045 -0.4346
  885SOL    HW2 3539   2.823   2.361   1.803  1.0880  1.8536  0.7386
  885SOL     MW 3540   2.894   2.374   1.856  0.3161 -0.0025  0.0938
  886SOL     OW 3541   2.807   2.341   1.415  0.4029 -0.3105  0.5477
  886SOL    HW1 3542   2.885   2.313   1.362  1.0192 -2.9722  1.8351
  886SOL    HW2 3543   2.805   2.436   1.430  0.5385 -0.0969 -0.3926
  886SOL     MW 3544   2.817   2.350   1.410  0.5021 -0.6335  0.5935
  887SOL     OW 3545   2.243   2.634   1.511  0.3763 -0.0290  0.3522
  887SOL    HW1 3546   2.277   2.655   1.423  1.8215 -2.1651 -1.6542
  887SOL    HW2 3547   2.168   2.573   1.497 -1.2566  0.9684  2.9888
  887SOL     MW 3548   2.238   2.629   1.498  0.3515 -0.1792  0.4353
  888SOL     OW 3549   1.876   2.023   1.386  0.3828  0.6857 -0.5904
  888SOL    HW1 3550   1.962   2.052   1.352 -0.7453  1.0126 -0.5106
  888SOL    HW2 3551   1.872   2.057   1.474 -1.4590 -0.4551 -0.9689
  888SOL     MW 3552   1.887   2.031   1.393 -0.0090  0.5783 -0.6298
  889SOL     OW 3553   2.296   2.019   2.079  0.7501 -0.2489 -0.0807
  889SOL    HW1 3554   2.359   1.984   2.140 -0.8863  1.8752  2.6009
  889SOL    HW2 3555   2.337   2.092   2.035 -1.2145  1.1521  1.5351
  889SOL     MW 3556   2.310   2.024   2.081  0.2750  0.2162  0.4863
  890SOL     OW 3557   0.075   2.337   0.111 -0.3365 -0.3238  0.2405
  890SOL    HW1 3558   0.042   2.427   0.102 -0.1000 -0.6552 -1.2761
  890SOL    HW2 3559   0.095   2.316   0.205 -2.2901  0.1257  1.6852
  890SOL     MW 3560   0.073   2.346   0.122 -0.5630 -0.3082  0.2310
  891SOL     OW 3561   3.018   1.986   1.270  0.0909 -0.4791  0.4399
  891SOL    HW1 3562   3.110   1.965   1.300  1.0042 -0.9414 -0.4093
  891SOL    HW2 3563   3.032   2.087   1.282  0.7346  0.4799  3.9766
  891SOL     MW 3564   3.032   1.996   1.276  0.2963 -0.4136  0.7945
  892SOL     OW 3565   2.438   2.326   2.765  0.0538 -0.2255 -0.5922
  892SOL    HW1 3566   2.401   2.244   2.802 -0.9797 -2.0248 -3.8356
  892SOL    HW2 3567   2.533   2.343   2.787 -3.3503  2.9537 -2.6821
  892SOL     MW 3568   2.446   2.318   2.773 -0.5317 -0.0435 -1.2959
  893SOL     OW 3569   1.635   2.372   1.288 -0.3245  0.1708 -0.6461
  893SOL    HW1 3570   1.600   2.412   1.368  1.9232 -1.9245 -1.0646
  893SOL    HW2 3571   1.724   2.352   1.316  0.0463 -0.2039 -0.7549
  893SOL     MW 3572   1.642   2.374   1.302  0.0210 -0.1551 -0.7157
  894SOL     OW 3573   2.792   1.877   0.493 -0.0364 -0.5106 -0.3973
  894SOL    HW1 3574   2.703   1.895   0.503 -0.1461  2.8861  1.6817
  894SOL    HW2 3575   2.807   1.848   0.404  0.0064  1.0492  2.6495
  894SOL     MW 3576   2.782   1.876   0.483 -0.0453  0.1433  0.2790
  895SOL     OW 3577   2.135   2.119   1.265 -0.4609  0.1116 -0.0442
  895SOL    HW1 3578   2.112   2.209   1.225  1.1948  2.0305  2.9100
  895SOL    HW2 3579   2.159   2.061   1.186  0.2530 -0.3190  2.1397
  895SOL     MW 3580   2.135   2.124   1.250 -0.1483  0.3080  0.6337
  896SOL     OW 3581   2.211   2.788   1.071  0.7162  0.0994 -0.0091
  896SOL    HW1 3582   2.301   2.769   1.114  1.4384  0.6296  1.9419
  896SOL    HW2 3583   2.170   2.694   1.062 -1.8144 -4.0871 -2.7753
  896SOL     MW 3584   2.218   2.773   1.075  0.4776 -0.3830 -0.1167
  897SOL     OW 3585   2.986   2.922   0.108 -0.0048 -0.1703 -0.3940
  897SOL    HW1 3586   3.041   2.885   0.038 -4.3757  1.8192  1.0024
  897SOL    HW2 3587   2.904   2.884   0.093  0.0938  2.5469 -1.8243
  897SOL     MW 3588   2.982   2.912   0.097 -0.5685  0.4507 -0.3985
  898SOL     OW 3589   2.075   0.166   1.434 -0.1956  0.4298 -0.2471
  898SOL    HW1 3590   2.052   0.080   1.479 -0.7770  1.1226 -1.0938
  898SOL    HW2 3591   2.079   0.143   1.338  1.1777 -1.1803 -0.3628
  898SOL     MW 3592   2.072   0.151   1.427 -0.0911  0.3088 -0.3741
  899SOL     OW 3593   2.906   2.962   0.623  0.2363  0.1480  0.2598
  899SOL    HW1 3594   2.923   2.884   0.681  0.7965 -0.6403 -1.7138
  899SOL    HW2 3595   2.841   3.020   0.658 -0.8679  0.3640 -0.9181
  899SOL     MW 3596   2.900   2.959   0.635  0.1645  0.0725 -0.1560
  900SOL     OW 3597   0.113   2.399   1.083 -0.0614 -0.2234 -0.2218
  900SOL    HW1 3598   0.067   2.479   1.080  1.3198 -1.8090  1.2887
  900SOL    HW2 3599   0.100   2.357   0.995 -3.1931  0.4510  0.4814
  900SOL     MW 3600   0.105   2.404   1.071 -0.2924 -0.3436  0.0703
  901SOL     OW 3601   1.742   2.909   1.738  0.2959  0.0098  0.5498
  901SOL    HW1 3602   1.828   2.859   1.730  0.9237 -0.7379 -0.0296
  901SOL    HW2 3603   1.682   2.872   1.673 -0.5513  1.9983  1.1734
  901SOL     MW 3604   1.745   2.898   1.729  0.2670  0.1735  0.5556
  902SOL     OW 3605   2.674   2.108   1.824  0.2611 -0.3156 -0.0958
  902SOL    HW1 3606   2.680   2.076   1.739 -0.5368  0.8219  0.9132
  902SOL    HW2 3607   2.748   2.069   1.866  0.0475  0.1975  1.2159
  902SOL     MW 3608   2.685   2.099   1.818  0.1276 -0.0978  0.2104
  903SOL     OW 3609   1.570   2.786   0.525 -0.0831  0.5037  0.6715
  903SOL    HW1 3610   1.613   2.701   0.564  1.1566 -2.3479  0.4466
  903SOL    HW2 3611   1.551   2.823   0.613 -0.5239 -1.2746 -0.3552
  903SOL     MW 3612   1.573   2.779   0.542  0.0223 -0.1072  0.5064
  904SOL     OW 3613   2.482   2.581   1.727 -0.4171  1.0009 -0.0627
  904SOL    HW1 3614   2.405   2.617   1.686  2.9276  2.1085  1.2042
  904SOL    HW2 3615   2.514   2.500   1.683 -1.2369 -1.2741  0.5441
  904SOL     MW 3616   2.476   2.575   1.716 -0.0840  0.8469  0.1845
  905SOL     OW 3617   2.326   2.577   2.180 -0.4176  0.0474  0.2305
  905SOL    HW1 3618   2.367   2.539   2.101 -1.1457  0.2747 -1.2291
  905SOL    HW2 3619   2.277   2.504   2.224 -1.7176 -0.2290 -0.4952
  905SOL     MW 3620   2.325   2.562   2.175 -0.6852  0.0409 -0.0578
  906SOL     OW 3621   2.421   2.521   0.881  0.3471 -0.4495  0.3397
  906SOL    HW1 3622   2.514   2.507   0.897 -2.0192  1.2574 -0.2316
  906SOL    HW2 3623   2.405   2.625   0.866 -0.8641 -0.4253  0.9232
  906SOL     MW 3624   2.431   2.533   0.881 -0.1249 -0.2211  0.3413
  907SOL     OW 3625   2.629   2.795   1.340  0.4284 -0.5707 -0.1568
  907SOL    HW1 3626   2.676   2.860   1.390  1.8892 -0.4944 -1.6070
  907SOL    HW2 3627   2.649   2.824   1.250 -0.4652 -1.4248 -2.6091
  907SOL     MW 3628   2.638   2.807   1.335  0.5032 -0.6734 -0.6717
  908SOL     OW 3629   2.752   2.377   3.080 -0.1630 -0.0800 -0.2097
  908SOL    HW1 3630   2.694   2.303   3.111 -1.4536 -2.7168  4.6093
  908SOL    HW2 3631   2.726   2.452   3.134 -1.1251 -1.4280  0.8122
  908SOL     MW 3632   2.741   2.377   3.091 -0.4602 -0.6058  0.5610
  909SOL     OW 3633   1.716   0.143   1.122 -0.4338 -0.2358 -0.1405
  909SOL    HW1 3634   1.711   0.208   1.050  2.2590 -0.5039 -0.2702
  909SOL    HW2 3635   1.770   0.186   1.181  0.4083 -0.3239  1.3934
  909SOL     MW 3636   1.722   0.158   1.120  0.0326 -0.2828  0.0448
  910SOL     OW 3637   2.364   1.769   0.439 -0.4315 -0.6642  0.7580
  910SOL    HW1 3638   2.294   1.702   0.450  1.6246 -1.8054 -0.2711
  910SOL    HW2 3639   2.322   1.838   0.388 -0.7810 -1.0937  0.0746
  910SOL     MW 3640   2.349   1.769   0.434 -0.2063 -0.8715  0.5321
  911SOL     OW 3641   2.229   2.239   1.724  0.0728 -0.3177  0.2291
  911SOL    HW1 3642   2.308   2.211   1.770  1.2718  0.6736 -1.1556
  911SOL    HW2 3643   2.252   2.217   1.633  0.9155 -0.0070 -0.1978
  911SOL     MW 3644   2.242   2.232   1.718  0.3422 -0.1459 -0.0099
  912SOL     OW 3645   2.930   1.936   1.515 -0.0019  0.0921  0.1326
  912SOL    HW1 3646   2.971   1.955   1.427 -0.2293  0.8494 -2.0252
  912SOL    HW2 3647   2.835   1.962   1.509 -1.2116  0.3791  0.0584
  912SOL     MW 3648   2.923   1.942   1.503 -0.1915  0.2299 -0.1619
  913SOL     OW 3649   2.617   3.029   0.366  0.4853  0.1873 -0.2537
  913SOL    HW1 3650   2.675   2.952   0.371 -1.2044  0.3816 -0.2561
  913SOL    HW2 3651   2.544   2.982   0.339  1.5983  2.8211  1.3060
  913SOL     MW 3652   2.615   3.012   0.363  0.4092  0.5604 -0.0482
  914SOL     OW 3653   2.683   1.745   3.051 -0.3630  0.2388  0.2398
  914SOL    HW1 3654   2.729   1.816   2.998  3.1925 -1.5997 -0.1733
  914SOL    HW2 3655   2.586   1.778   3.051 -0.6731  0.4226 -1.0195
  914SOL     MW 3656   2.676   1.759   3.044  0.0652  0.0205  0.0192
  915SOL     OW 3657   1.707   0.230   0.219 -0.1205  0.0654  0.0179
  915SOL    HW1 3658   1.772   0.170   0.253 -0.6391 -1.0268 -2.0822
  915SOL    HW2 3659   1.625   0.180   0.200  1.6745  1.2304  1.0815
  915SOL     MW 3660   1.705   0.215   0.221  0.0479  0.0750 -0.1189
  916SOL     OW 3661   1.810   2.101   1.934 -0.1792  0.3205 -0.2661
  916SOL    HW1 3662   1.833   2.193   1.905 -0.5540  0.4895 -1.3284
  916SOL    HW2 3663   1.824   2.041   1.861  0.8126 -0.4505 -0.0022
  916SOL     MW 3664   1.815   2.105   1.920 -0.0978  0.2411 -0.3714
  917SOL     OW 3665   2.537   2.185   2.540  0.3865  0.3226 -0.2059
  917SOL    HW1 3666   2.508   2.239   2.615  3.3767 -2.0245  1.1123
  917SOL    HW2 3667   2.601   2.230   2.494  0.0863 -0.9678 -0.2859
  917SOL     MW 3668   2.541   2.198   2.544  0.7415 -0.1573 -0.0425
  918SOL     OW 3669   1.997   1.619   2.724  0.4217 -0.2254 -0.2288
  918SOL    HW1 3670   1.941   1.668   2.661  2.2958 -0.7027  0.1676
  918SOL    HW2 3671   2.082   1.659   2.707  0.6641 -3.0672  0.3423
  918SOL     MW 3672   2.001   1.631   2.713  0.7010 -0.6633 -0.1012
  919SOL     OW 3673   0.024   2.306   2.266 -0.6444 -0.1907 -0.0783
  919SOL    HW1 3674  -0.056   2.255   2.240 -1.8566 -0.4448  0.1524
  919SOL    HW2 3675   0.078   2.322   2.190 -1.2717 -1.4121 -1.6121
  919SOL     MW 3676   0.020   2.302   2.253 -0.8871 -0.3854 -0.2503
  920SOL     OW 3677   2.741   2.834   3.085 -0.0846  0.4934 -0.5824
  920SOL    HW1 3678   2.680   2.885   3.140 -0.1353  0.4503  0.8389
  920SOL    HW2 3679   2.686   2.791   3.012  0.5406 -0.8911 -0.5523
  920SOL     MW 3680   2.726   2.835   3.083 -0.0088  0.3050 -0.3909
  921SOL     OW 3681   2.431   2.571   2.605  0.3897  0.0999  0.2899
  921SOL    HW1 3682   2.516   2.602   2.586 -0.5855 -0.1469 -0.3655
  921SOL    HW2 3683   2.449   2.488   2.658 -0.8557 -3.7328  0.5053
  921SOL     MW 3684   2.444   2.564   2.609  0.0967 -0.4384  0.2319
  922SOL     OW 3685   2.032   2.836   0.329  0.4768 -0.4223 -0.1276
  922SOL    HW1 3686   2.022   2.848   0.235  0.1375 -0.1442  0.6973
  922SOL    HW2 3687   2.046   2.743   0.342 -2.0167  1.3056  0.2992
  922SOL     MW 3688   2.032   2.825   0.319  0.1030 -0.1577  0.0376
  923SOL     OW 3689   2.156   2.835   1.677  0.0268 -0.3054  0.1146
  923SOL    HW1 3690   2.179   2.769   1.612 -2.5500  0.0567  1.3250
  923SOL    HW2 3691   2.128   2.907   1.622  1.4132 -1.6731  0.4328
  923SOL     MW 3692   2.155   2.836   1.661 -0.1303 -0.4381  0.3163
  924SOL     OW 3693   1.204   2.615   2.490 -0.2459  0.5623  0.0351
  924SOL    HW1 3694   1.271   2.680   2.500 -0.3009 -1.7841 -3.3348
  924SOL    HW2 3695   1.207   2.559   2.569  0.0723 -2.0852  0.0191
  924SOL     MW 3696   1.213   2.616   2.502 -0.2112 -0.0966 -0.4117
  925SOL     OW 3697   2.964   0.216   2.625  0.1126 -0.3794  0.9230
  925SOL    HW1 3698   2.919   0.202   2.533 -0.5898  0.3488 -1.0996
  925SOL    HW2 3699   2.928   0.298   2.653 -1.1468  0.5747  0.4922
  925SOL     MW 3700   2.953   0.225   2.617 -0.1463 -0.1574  0.5993
  926SOL     OW 3701   2.750   2.389   2.082 -0.8651  0.3679 -0.0893
  926SOL    HW1 3702   2.788   2.454   2.144 -0.2953 -2.3090  3.9403
  926SOL    HW2 3703   2.805   2.381   2.001  1.7548 -2.3038 -2.4888
  926SOL     MW 3704   2.762   2.396   2.079 -0.4443 -0.3378  0.1258
  927SOL     OW 3705   2.363   0.140   0.302 -0.2220  0.2110 -0.5033
  927SOL    HW1 3706   2.461   0.145   0.297  3.3508 -0.0266  0.1906
  927SOL    HW2 3707   2.335   0.143   0.209 -1.0386 -0.4988 -0.6513
  927SOL     MW 3708   2.372   0.141   0.289  0.1416  0.0860 -0.4313
  928SOL     OW 3709   2.111   2.433   1.936  0.7409  0.0529  0.0537
  928SOL    HW1 3710   2.141   2.500   1.883  1.2677  0.3447 -0.8216
  928SOL    HW2 3711   2.163   2.354   1.918  1.5302  0.0880 -1.1086
  928SOL     MW 3712   2.122   2.431   1.927  0.9146  0.0960 -0.2152
  929SOL     OW 3713   2.720   2.381   2.447  0.4122  0.1140 -0.2670
  929SOL    HW1 3714   2.767   2.409   2.367 -0.8385 -1.0505  0.4927
  929SOL    HW2 3715   2.777   2.327   2.500 -1.6446 -1.1956  0.6866
  929SOL     MW 3716   2.734   2.378   2.443 -0.0242 -0.2124 -0.0409
  930SOL     OW 3717   2.016   2.845   2.694  0.1897  0.6356  0.0373
  930SOL    HW1 3718   2.023   2.771   2.754  0.8636 -0.3413  0.8688
  930SOL    HW2 3719   2.112   2.881   2.680  2.1985 -2.4043 -1.7051
  930SOL     MW 3720   2.029   2.840   2.700  0.5436  0.1056 -0.0828
  931SOL     OW 3721   3.011   2.778   2.297  0.2753 -0.0831 -0.1522
  931SOL    HW1 3722   3.039   2.838   2.362 -4.4629  2.1423  1.9316
  931SOL    HW2 3723   3.093   2.760   2.252 -2.4053  2.9418  0.9167
  931SOL     MW 3724   3.025   2.784   2.299 -0.7036  0.6096  0.2637
  932SOL     OW 3725   2.836   1.987   2.564  0.3944 -0.2914  0.3336
  932SOL    HW1 3726   2.930   2.003   2.539  1.5681 -2.0010  1.9468
  932SOL    HW2 3727   2.787   1.982   2.480 -0.1459  0.6264  1.6249
  932SOL     MW 3728   2.842   1.989   2.549  0.4780 -0.3959  0.7168
  933SOL     OW 3729   2.010   2.880   2.302  0.0517 -0.2374  0.5458
  933SOL    HW1 3730   2.088   2.921   2.335  0.3143  0.5285 -0.1331
  933SOL    HW2 3731   1.968   2.948   2.250  0.9435  0.1007  1.6844
  933SOL     MW 3732   2.015   2.894   2.299  0.2040 -0.0917  0.6064
  934SOL     OW 3733   2.015   2.667   2.470  0.0925 -0.0102 -0.4009
  934SOL    HW1 3734   2.012   2.716   2.554  3.8490  0.2110  1.1302
  934SOL    HW2 3735   2.021   2.736   2.402 -1.0553 -0.2404 -0.0686
  934SOL     MW 3736   2.015   2.682   2.472  0.4367 -0.0114 -0.1550
  935SOL     OW 3737   2.666   1.577   1.811 -0.0990 -0.6143  0.2568
  935SOL    HW1 3738   2.756   1.542   1.778  3.8548 -0.7195  1.0104
  935SOL    HW2 3739   2.620   1.545   1.733  1.5506  0.5517 -1.0154
  935SOL     MW 3740   2.672   1.568   1.797  0.6403 -0.4744  0.1884
  936SOL     OW 3741   2.979   2.218   3.069  0.4324 -0.4610 -0.1842
  936SOL    HW1 3742   3.057   2.258   3.116  1.2313 -1.1813  0.5148
  936SOL    HW2 3743   2.902   2.278   3.070 -1.1065  2.9918  0.7050
  936SOL     MW 3744   2.979   2.231   3.076  0.3348 -0.1004  0.0254
  937SOL     OW 3745   1.942   2.127   2.623 -0.4133  0.1353 -0.7198
  937SOL    HW1 3746   2.022   2.093   2.671  0.4312  1.3959 -0.2692
  937SOL    HW2 3747   1.947   2.102   2.528  1.0611  1.3321 -2.7685
  937SOL     MW 3748   1.953   2.119   2.617 -0.1074  0.4596 -0.9307
  938SOL     OW 3749   2.239   1.793   1.952  0.4019  0.0551  0.6123
  938SOL    HW1 3750   2.235   1.812   1.857  0.4650  0.2086 -0.4443
  938SOL    HW2 3751   2.241   1.878   1.993 -1.3403  0.8915 -0.7559
  938SOL     MW 3752   2.239   1.807   1.945  0.1804  0.1857  0.2924
  939SOL     OW 3753   2.744   1.966   2.306 -0.3928 -0.4953 -0.2245
  939SOL    HW1 3754   2.770   1.906   2.236  1.6047  1.5707  1.0307
  939SOL    HW2 3755   2.649   1.974   2.295 -2.2272  1.6638  2.8483
  939SOL     MW 3756   2.735   1.959   2.295 -0.3713  0.0622  0.3466
  940SOL     OW 3757   2.310   0.182   2.641 -0.4577 -0.2447  0.4636
  940SOL    HW1 3758   2.283   0.090   2.633 -2.6253 -2.5033 -1.1665
  940SOL    HW2 3759   2.340   0.196   2.726  1.0678 -0.1641 -2.3450
  940SOL     MW 3760   2.310   0.172   2.651 -0.5424 -0.5320 -0.1221
  941SOL     OW 3761   0.172   2.377   2.042 -0.7751  0.3322 -0.3418
  941SOL    HW1 3762   0.263   2.364   2.048 -0.0619  1.4072 -2.2514
  941SOL    HW2 3763   0.137   2.342   1.959 -0.5650  2.4196  2.4766
  941SOL     MW 3764   0.179   2.371   2.032 -0.6532  0.7494 -0.2219
  942SOL     OW 3765   2.888   2.167   2.179  0.1104 -0.1393  0.3682
  942SOL    HW1 3766   2.819   2.230   2.157 -0.9511 -1.0453  0.3868
  942SOL    HW2 3767   2.847   2.097   2.225  0.4314  2.6045 -0.0971
  942SOL     MW 3768   2.874   2.166   2.182  0.0127  0.1032  0.3093
  943SOL     OW 3769   0.312   2.099   2.271 -0.5302 -0.2289  0.2647
  943SOL    HW1 3770   0.267   2.154   2.338 -0.7690  1.3538 -0.3939
  943SOL    HW2 3771   0.404   2.082   2.304 -0.2383  0.9263  0.3324
  943SOL     MW 3772   0.318   2.104   2.284 -0.5232  0.1323  0.1867
  944SOL     OW 3773   2.077   2.705   2.097 -0.3727 -0.4255  0.2264
  944SOL    HW1 3774   2.170   2.682   2.113 -0.0746 -2.8168 -0.0037
  944SOL    HW2 3775   2.064   2.748   2.189  2.7767  1.3830 -0.2119
  944SOL     MW 3776   2.088   2.708   2.111  0.0822 -0.5024  0.1382
  945SOL     OW 3777   2.648   2.687   2.878 -0.5827  0.7936  0.3639
  945SOL    HW1 3778   2.663   2.596   2.851  2.3549  3.5572  0.6028
  945SOL    HW2 3779   2.568   2.719   2.835 -1.2603 -0.5033  1.3564
  945SOL     MW 3780   2.640   2.679   2.869 -0.2845  0.9871  0.5264
  946SOL     OW 3781   2.445   2.808   2.294  0.6999 -0.4957 -0.8624
  946SOL    HW1 3782   2.461   2.851   2.205 -0.6236  1.1527  0.1478
  946SOL    HW2 3783   2.425   2.724   2.263  2.1147  2.7417 -0.2595
  946SOL     MW 3784   2.445   2.802   2.278  0.7119  0.1489 -0.6496
  947SOL     OW 3785   1.921   0.084   0.322 -0.8021 -0.5397 -0.0067
  947SOL    HW1 3786   1.883   0.020   0.372  2.8733  2.1626  1.9228
  947SOL    HW2 3787   2.011   0.064   0.352 -1.9213 -2.4124 -0.5070
  947SOL     MW 3788   1.928   0.072   0.333 -0.4648 -0.4302  0.1819
  948SOL     OW 3789   1.826   3.035   2.677  0.5038  1.1428 -0.2273
  948SOL    HW1 3790   1.875   2.951   2.671 -1.6086 -0.0095 -0.9611
  948SOL    HW2 3791   1.784   3.046   2.590 -2.3789  1.4517 -0.5796
  948SOL     MW 3792   1.827   3.026   2.665 -0.1553  1.0315 -0.3706
  949SOL     OW 3793   2.478   1.931   2.274 -0.5945 -0.0884 -1.0066
  949SOL    HW1 3794   2.462   1.833   2.295 -0.7703  1.5710  0.5039
  949SOL    HW2 3795   2.413   1.977   2.331 -2.0083  1.1997 -0.6927
  949SOL     MW 3796   2.467   1.924   2.284 -0.8043  0.3005 -0.7659
  950SOL     OW 3797   2.272   2.503   2.953  0.1277 -0.7955  0.1566
  950SOL    HW1 3798   2.324   2.441   2.898 -1.3393 -1.1186 -1.0828
  950SOL    HW2 3799   2.204   2.538   2.901  2.3687  1.0996 -1.0100
  950SOL     MW 3800   2.270   2.499   2.939  0.2298 -0.5881 -0.1608
  951SOL     OW 3801   2.993   2.098   2.826 -0.2035  0.1475 -0.2866
  951SOL    HW1 3802   3.001   2.159   2.905  3.7383 -0.3545  2.9193
  951SOL    HW2 3803   3.081   2.069   2.808  0.1987 -1.8460  0.1850
  951SOL     MW 3804   3.006   2.102   2.834  0.3696 -0.1818  0.1986
  952SOL     OW 3805   3.044   1.655   2.146 -0.7299 -0.3025 -0.3083
  952SOL    HW1 3806   2.957   1.696   2.131 -0.9370  0.9015  0.8377
  952SOL    HW2 3807   3.097   1.719   2.190 -1.5793 -0.9221  1.7002
  952SOL     MW 3808   3.040   1.669   2.150 -0.8693 -0.2254  0.1079
  953SOL     OW 3809   1.917   1.782   2.916 -0.1551 -0.0237  0.5532
  953SOL    HW1 3810   1.848   1.738   2.963  0.5448  1.6744  0.0616
  953SOL    HW2 3811   1.928   1.711   2.845 -0.0986 -0.1319  0.3389
  953SOL     MW 3812   1.909   1.767   2.913 -0.0553  0.1861  0.4600
  954SOL     OW 3813   2.395   2.082   2.888  0.2232 -0.1223  0.0643
  954SOL    HW1 3814   2.310   2.064   2.851  3.5578 -1.2897  1.3133
  954SOL    HW2 3815   2.449   2.040   2.814  0.4331 -0.6196 -0.4059
  954SOL     MW 3816   2.391   2.074   2.873  0.6909 -0.3419  0.1670
  955SOL     OW 3817   1.522   1.572   2.590 -0.1493 -0.0528 -0.0380
  955SOL    HW1 3818   1.483   1.607   2.511 -0.1097  1.5056 -2.6741
  955SOL    HW2 3819   1.618   1.585   2.572 -1.4390 -1.1155  1.2917
  955SOL     MW 3820   1.530   1.578   2.577 -0.3142  0.0126 -0.2104
  956SOL     OW 3821   2.679   2.414   2.827 -0.1175  0.0549  0.2371
  956SOL    HW1 3822   2.709   2.391   2.914 -1.0784  0.5650  0.6898
  956SOL    HW2 3823   2.744   2.379   2.769  0.8827  1.4593  0.1961
  956SOL     MW 3824   2.692   2.406   2.831 -0.1123  0.3075  0.2914
  957SOL     OW 3825   2.356   2.840   0.354 -0.1484 -0.1798 -0.1302
  957SOL    HW1 3826   2.269   2.851   0.319 -2.1769  0.5081  0.1914
  957SOL    HW2 3827   2.322   2.815   0.443 -2.4193 -0.4644 -1.2577
  957SOL     MW 3828   2.340   2.838   0.362 -0.7157 -0.1266 -0.2365
  958SOL     OW 3829   2.031   2.604   2.831  0.0956  0.2814 -0.1960
  958SOL    HW1 3830   2.035   2.514   2.788  0.0302 -1.0144 -0.0030
  958SOL    HW2 3831   1.952   2.616   2.885 -1.0429  2.6853 -0.9582
  958SOL     MW 3832   2.021   2.593   2.832 -0.0632  0.4276 -0.2711
  959SOL     OW 3833   2.487   2.599   0.341  0.3503 -0.1091  0.1519
  959SOL    HW1 3834   2.537   2.591   0.261  1.4380  0.1702 -1.7549
  959SOL    HW2 3835   2.443   2.686   0.336  1.2802  3.7137 -2.7905
  959SOL     MW 3836   2.488   2.609   0.330  0.6165  0.4321 -0.4879
  960SOL     OW 3837   1.920   2.247   2.222 -0.5033 -0.3200  0.2228
  960SOL    HW1 3838   1.925   2.156   2.247 -1.8301 -0.0535  2.6195
  960SOL    HW2 3839   1.877   2.298   2.294  0.7421  3.8940  0.3329
  960SOL     MW 3840   1.915   2.242   2.235 -0.5141  0.2712  0.5536
  961SOL     OW 3841   2.201   2.324   2.265  0.2411 -0.1737  0.5810
  961SOL    HW1 3842   2.116   2.285   2.230 -1.3075  1.2165  0.2319
  961SOL    HW2 3843   2.177   2.372   2.352  0.7394 -0.7761 -0.4847
  961SOL     MW 3844   2.186   2.326   2.272  0.1025 -0.0697  0.3943
  962SOL     OW 3845   2.138   2.028   2.781 -0.8360  0.0208 -0.3927
  962SOL    HW1 3846   2.113   2.026   2.871  2.5626 -2.6934 -2.1457
  962SOL    HW2 3847   2.148   1.933   2.751  1.5172 -1.2407 -2.6409
  962SOL     MW 3848   2.136   2.015   2.789 -0.0771 -0.5037 -0.9206
  963SOL     OW 3849   1.839   2.570   2.060  0.4673 -0.9029 -0.3735
  963SOL    HW1 3850   1.930   2.581   2.098 -1.1555 -0.5358 -0.0246
  963SOL    HW2 3851   1.842   2.488   2.009 -0.0887 -0.7157 -0.2536
  963SOL     MW 3852   1.852   2.561   2.058  0.1798 -0.8298 -0.3116
  964SOL     OW 3853   1.776   1.927   2.724 -0.2164  0.0008  0.3693
  964SOL    HW1 3854   1.839   1.996   2.707  2.9046  3.2992 -1.5575
  964SOL    HW2 3855   1.813   1.858   2.781 -2.3159 -1.5252 -2.6008
  964SOL     MW 3856   1.789   1.927   2.729 -0.0816  0.2347 -0.2768
  965SOL     OW 3857   2.211   2.767   0.610 -0.3892 -0.3967 -0.3645
  965SOL    HW1 3858   2.215   2.673   0.600 -0.8558  1.3272 -3.0730
  965SOL    HW2 3859   2.270   2.782   0.684  0.3672  1.0552  0.1548
  965SOL     MW 3860   2.220   2.757   0.618 -0.3510  0.0223 -0.6534
  966SOL     OW 3861   2.685   2.675   2.468  0.1020  0.1632 -0.1929
  966SOL    HW1 3862   2.656   2.730   2.396  0.4192 -2.2502 -2.7125
  966SOL    HW2 3863   2.716   2.594   2.432 -0.0180  0.2323  1.2516
  966SOL     MW 3864   2.685   2.671   2.454  0.1280 -0.1461 -0.3347
  967SOL     OW 3865   2.784   3.057   2.903  0.1240  0.3583  0.0794
  967SOL    HW1 3866   2.784   2.982   2.968  1.6019 -0.5809  0.6133
  967SOL    HW2 3867   2.691   3.079   2.882 -2.1859 -0.2746  0.0164
  967SOL     MW 3868   2.772   3.050   2.909  0.0143  0.1509  0.1416
  968SOL     OW 3869   3.012   2.625   2.908 -0.9815 -0.2338 -0.7628
  968SOL    HW1 3870   2.941   2.671   2.857  0.1639 -0.4090  2.9620
  968SOL    HW2 3871   3.035   2.559   2.842  0.4938  2.1794  0.4112
  968SOL     MW 3872   3.006   2.623   2.892 -0.6357  0.0615 -0.1165
  969SOL     OW 3873   1.594   2.116   1.634  0.7688 -0.3537 -0.1737
  969SOL    HW1 3874   1.655   2.041   1.627 -0.2420  1.5179  1.7055
  969SOL    HW2 3875   1.566   2.132   1.725  2.2337 -0.7818  0.2065
  969SOL     MW 3876   1.598   2.108   1.645  0.8287 -0.1633  0.1244
  970SOL     OW 3877   1.682   1.781   1.858  0.5108  0.3159  0.9183
  970SOL    HW1 3878   1.734   1.719   1.906  1.5103 -1.5704 -0.7426
  970SOL    HW2 3879   1.594   1.780   1.892 -1.8565  3.6304 -0.1357
  970SOL     MW 3880   1.678   1.772   1.869  0.3303  0.5043  0.5601
  971SOL     OW 3881   1.762   3.079   2.405  0.0501 -0.2079  0.4191
  971SOL    HW1 3882   1.809   3.050   2.330 -1.1323  1.0353  3.5362
  971SOL    HW2 3883   1.802   3.163   2.426 -1.5679 -0.5925 -0.9961
  971SOL     MW 3884   1.773   3.086   2.398 -0.3194 -0.0947  0.6437
  972SOL     OW 3885   0.266   2.846   2.482 -0.1310 -1.0270  0.4702
  972SOL    HW1 3886   0.321   2.767   2.494  1.6118  0.1227 -1.5039
  972SOL    HW2 3887   0.329   2.913   2.508 -1.0408  2.4355  0.8309
  972SOL     MW 3888   0.282   2.844   2.487 -0.0211 -0.4184  0.2573
  973SOL     OW 3889   2.522   0.020   2.080  0.3275 -0.0967  0.2821
  973SOL    HW1 3890   2.521  -0.070   2.057  1.4564 -1.2881  0.7371
  973SOL    HW2 3891   2.562   0.062   2.000 -1.0246  0.6508  0.2622
  973SOL     MW 3892   2.527   0.014   2.066  0.2981 -0.1553  0.3395
  974SOL     OW 3893   2.052   0.205   2.686 -0.3072 -0.4050 -0.1302
  974SOL    HW1 3894   2.147   0.202   2.685 -0.2953  1.9496 -1.0438
  974SOL    HW2 3895   2.019   0.156   2.763 -0.6568  1.8213 -0.9012
  974SOL     MW 3896   2.060   0.198   2.696 -0.3517  0.1994 -0.3525
  975SOL     OW 3897   2.206   2.486   2.481  0.0455  0.4356 -0.6033
  975SOL    HW1 3898   2.300   2.500   2.509  1.0081  1.6565  1.7052
  975SOL    HW2 3899   2.161   2.575   2.481 -1.6641 -1.0491  0.3848
  975SOL     MW 3900   2.213   2.500   2.485 -0.0531  0.4008 -0.1684
  976SOL     OW 3901   0.207   0.362   1.745  0.3613  0.7707  0.4644
  976SOL    HW1 3902   0.277   0.294   1.770 -0.0691  0.2965 -0.1389
  976SOL    HW2 3903   0.147   0.311   1.673  0.4478  1.1500  1.0946
  976SOL     MW 3904   0.208   0.347   1.738  0.3159  0.7582  0.4679
  977SOL     OW 3905   1.747   2.620   2.519  0.4064  0.4761 -0.0122
  977SOL    HW1 3906   1.760   2.526   2.521  2.5733  0.1017  2.2676
  977SOL    HW2 3907   1.835   2.644   2.509 -1.1417  0.6427 -1.2044
  977SOL     MW 3908   1.760   2.611   2.518  0.4880  0.4487  0.1313
   3.10000   3.10000   3.10000
