977 TIP4P/2005f water molecules t=   1.02000 step= 1020
 3908
    1SOL     OW    1   0.379   0.801   0.021  0.4635  0.2159  0.6305
    1SOL    HW1    2   0.360   0.817  -0.071  0.0742  1.6950 -1.7122
    1SOL    HW2    3   0.311   0.743   0.047  0.8718  0.1031  2.8528
    1SOL     MW    4   0.368   0.796   0.012  0.4660  0.3962  0.6146
    2SOL     OW    5   0.328   3.036   1.162  0.0304  0.5837  0.1970
    2SOL    HW1    6   0.369   3.124   1.135 -0.2203  4.4792 -0.3650
    2SOL    HW2    7   0.233   3.044   1.182  1.1526 -2.1652  0.2781
    2SOL     MW    8   0.320   3.048   1.161  0.1454  0.7350  0.1335
    3SOL     OW    9   2.637   0.444   0.989 -0.2377 -0.3379  0.1721
    3SOL    HW1   10   2.684   0.514   0.938  1.5541  2.9070 -1.5930
    3SOL    HW2   11   2.593   0.487   1.075 -1.4588 -0.0963 -0.7885
    3SOL     MW   12   2.638   0.459   0.994 -0.1624  0.1221 -0.1876
    4SOL     OW   13   2.924   1.673   0.574  0.0848 -0.1978 -0.3370
    4SOL    HW1   14   2.879   1.734   0.515  0.4039  1.2393  0.7985
    4SOL    HW2   15   2.975   1.629   0.504  1.8122 -2.3233 -0.0132
    4SOL     MW   16   2.925   1.676   0.557  0.3548 -0.2886 -0.1445
    5SOL     OW   17   1.787   1.500   0.509  0.1139  0.0214  0.2485
    5SOL    HW1   18   1.827   1.449   0.576 -0.6979  1.1403 -0.7055
    5SOL    HW2   19   1.693   1.479   0.525 -2.3874 -3.3675  1.0773
    5SOL     MW   20   1.780   1.490   0.520 -0.3232 -0.2781  0.2320
    6SOL     OW   21   0.810   1.394   0.594  0.1234 -0.7109 -0.3078
    6SOL    HW1   22   0.715   1.385   0.612 -0.9377 -1.5249  2.1936
    6SOL    HW2   23   0.847   1.328   0.649 -1.4234  1.5460 -0.0113
    6SOL     MW   24   0.802   1.384   0.604 -0.2207 -0.5206  0.0613
    7SOL     OW   25   2.067   1.051   3.099  0.1977 -0.6145  0.1194
    7SOL    HW1   26   2.096   1.079   3.009  0.7727 -1.7611  0.9076
    7SOL    HW2   27   2.117   1.106   3.160 -1.7062 -0.2213 -0.2782
    7SOL     MW   28   2.077   1.062   3.095  0.0223 -0.7139  0.1710
    8SOL     OW   29   0.927   1.427   1.117 -0.4070  0.2218  0.8689
    8SOL    HW1   30   1.010   1.381   1.120 -1.0546  1.5809  2.6041
    8SOL    HW2   31   0.870   1.367   1.166  1.0421  0.6168 -0.1913
    8SOL     MW   32   0.931   1.413   1.124 -0.3013  0.4532  0.9579
    9SOL     OW   33   1.008   0.526   1.396  0.4164  0.4018  0.0213
    9SOL    HW1   34   0.977   0.452   1.334  2.6620 -0.4806 -4.4928
    9SOL    HW2   35   1.053   0.487   1.472  0.6261  0.9537 -0.2415
    9SOL     MW   36   1.010   0.511   1.397  0.7404  0.3582 -0.6090
   10SOL     OW   37   0.216   0.769   0.453 -0.2586 -0.1541 -0.1956
   10SOL    HW1   38   0.294   0.795   0.400 -0.8380 -1.0722 -2.3572
   10SOL    HW2   39   0.214   0.816   0.541 -0.7323 -0.4222  1.1631
   10SOL     MW   40   0.226   0.778   0.458 -0.3975 -0.3106 -0.3015
   11SOL     OW   41   0.802   1.130   1.679  0.0058 -0.1305 -1.0511
   11SOL    HW1   42   0.859   1.153   1.752 -0.0692  4.3215  0.0680
   11SOL    HW2   43   0.839   1.061   1.632 -0.9577 -2.6347  0.0447
   11SOL     MW   44   0.815   1.124   1.682 -0.1312  0.1265 -0.7588
   12SOL     OW   45   0.034   1.078   0.864 -0.1385 -0.1609 -0.4869
   12SOL    HW1   46   0.094   1.130   0.916  2.7625  2.5089  0.3828
   12SOL    HW2   47  -0.007   1.133   0.797 -1.8079  4.2387  2.9230
   12SOL     MW   48   0.036   1.092   0.862  0.0240  0.7719  0.0777
   13SOL     OW   49   1.864   1.428   1.354 -0.4763  0.5681 -0.5224
   13SOL    HW1   50   1.901   1.381   1.276 -1.3756  0.7011  0.7255
   13SOL    HW2   51   1.850   1.519   1.332  1.4237  0.4375 -1.8072
   13SOL     MW   52   1.867   1.434   1.341 -0.3443  0.5684 -0.5273
   14SOL     OW   53   0.596   0.383   1.870 -0.6547  0.1119  0.0425
   14SOL    HW1   54   0.542   0.298   1.869  0.2577 -0.5402  1.0774
   14SOL    HW2   55   0.681   0.347   1.856  1.9484 -2.2134 -1.3995
   14SOL     MW   56   0.600   0.367   1.868 -0.1908 -0.2809 -0.0112
   15SOL     OW   57   1.937   0.346   1.051 -0.0242  0.1196  0.8898
   15SOL    HW1   58   1.915   0.428   1.095 -1.8246  1.6349  0.1786
   15SOL    HW2   59   2.004   0.373   0.986 -0.5721 -1.8718 -0.2603
   15SOL     MW   60   1.943   0.360   1.048 -0.3340  0.0568  0.6442
   16SOL     OW   61   0.197   1.800   0.324 -0.0658  0.3338  0.1571
   16SOL    HW1   62   0.282   1.755   0.344  0.2810  0.1248  1.3741
   16SOL    HW2   63   0.213   1.891   0.344  1.3729 -2.6049 -0.3763
   16SOL     MW   64   0.210   1.806   0.329  0.1698 -0.0815  0.2473
   17SOL     OW   65   1.108   0.895   1.424 -0.3203 -0.2002  0.2741
   17SOL    HW1   66   1.159   0.911   1.506 -0.6774 -0.5567 -1.4277
   17SOL    HW2   67   1.025   0.866   1.456  1.1486 -1.1492 -1.4720
   17SOL     MW   68   1.104   0.893   1.439 -0.1736 -0.3724 -0.1808
   18SOL     OW   69   0.055   1.581   0.420 -0.3139 -0.2843  0.4346
   18SOL    HW1   70   0.085   1.670   0.407 -0.9143 -4.1639 -0.3609
   18SOL    HW2   71   0.072   1.538   0.335  1.1469 -0.0449 -0.8773
   18SOL     MW   72   0.061   1.587   0.407 -0.2004 -0.7646  0.1565
   19SOL     OW   73   0.128   1.297   1.020 -0.0118 -0.5614 -0.2032
   19SOL    HW1   74   0.166   1.342   0.945  2.0160  0.7225  2.9732
   19SOL    HW2   75   0.036   1.319   1.028 -1.1169  2.7400  0.4640
   19SOL     MW   76   0.121   1.306   1.012  0.1099  0.0436  0.3039
   20SOL     OW   77   0.457   2.159   1.179 -0.7544 -0.1759 -0.0550
   20SOL    HW1   78   0.416   2.081   1.132 -0.7273 -2.1512 -1.7101
   20SOL    HW2   79   0.409   2.167   1.264  0.2754  0.0388 -1.0391
   20SOL     MW   80   0.445   2.149   1.184 -0.6149 -0.4082 -0.4032
   21SOL     OW   81   0.455   0.855   0.391 -0.1076  0.3659 -0.0040
   21SOL    HW1   82   0.494   0.801   0.458  0.4137 -0.9886 -0.4406
   21SOL    HW2   83   0.514   0.837   0.321 -0.2022  1.1401  1.4469
   21SOL     MW   84   0.468   0.845   0.391 -0.0513  0.2893  0.1298
   22SOL     OW   85   1.583   0.649   1.020  0.1630 -0.5896  0.0580
   22SOL    HW1   86   1.529   0.636   0.942  0.8981 -1.1676  3.1260
   22SOL    HW2   87   1.541   0.724   1.055  0.3415  0.5430  0.4442
   22SOL     MW   88   1.570   0.657   1.015  0.2835 -0.5164  0.5137
   23SOL     OW   89   3.068   0.732   0.657 -0.3136 -0.4471 -0.0298
   23SOL    HW1   90   3.118   0.670   0.720  2.8971  0.1058  1.4552
   23SOL    HW2   91   3.137   0.796   0.653  1.5737 -1.8305 -1.5245
   23SOL     MW   92   3.084   0.732   0.665  0.3590 -0.5567 -0.0311
   24SOL     OW   93   2.024   2.229   0.046  0.4778 -0.5540 -0.3167
   24SOL    HW1   94   2.012   2.201   0.141  2.2185  0.7602  0.2940
   24SOL    HW2   95   2.050   2.159  -0.012 -0.0932 -0.4726 -1.9346
   24SOL     MW   96   2.026   2.216   0.051  0.6321 -0.3699 -0.4496
   25SOL     OW   97   0.228   1.412   0.551 -0.5659  0.5181  0.5526
   25SOL    HW1   98   0.167   1.464   0.505  0.7661 -1.1703 -1.8264
   25SOL    HW2   99   0.311   1.461   0.524  2.0026 -0.4952  1.6241
   25SOL     MW  100   0.231   1.426   0.542 -0.0513  0.1616  0.3801
   26SOL     OW  101   2.100   0.996   0.360  0.2421  0.3559  0.0105
   26SOL    HW1  102   2.042   1.058   0.393  1.9193 -2.1792 -0.7399
   26SOL    HW2  103   2.150   1.051   0.301  1.1502  1.9695  2.6268
   26SOL     MW  104   2.099   1.012   0.357  0.5832  0.2344  0.2567
   27SOL     OW  105   2.020   1.432   0.245 -0.4839  0.1020 -0.2063
   27SOL    HW1  106   1.940   1.455   0.289 -1.2895 -0.6810 -1.5226
   27SOL    HW2  107   2.083   1.426   0.315  0.0076  1.7285  0.8548
   27SOL     MW  108   2.018   1.435   0.260 -0.5253  0.2133 -0.2400
   28SOL     OW  109   0.451   0.978   1.950 -0.4707  0.0401 -0.2709
   28SOL    HW1  110   0.504   0.978   2.028  1.6596  3.7469  3.4396
   28SOL    HW2  111   0.393   0.901   1.960 -1.2254  1.7405  0.0126
   28SOL     MW  112   0.450   0.968   1.961 -0.2892  0.7536  0.2561
   29SOL     OW  113   0.235   1.424   0.825 -0.5993  0.3339  0.2097
   29SOL    HW1  114   0.206   1.516   0.816 -1.8480 -0.8563 -1.2055
   29SOL    HW2  115   0.244   1.399   0.734 -0.4186 -1.0533 -1.0258
   29SOL     MW  116   0.232   1.433   0.812 -0.7402 -0.0061 -0.1400
   30SOL     OW  117   0.810   1.190   1.238  0.2467 -0.3184  0.0080
   30SOL    HW1  118   0.726   1.183   1.284 -1.3363 -0.7353 -1.6632
   30SOL    HW2  119   0.876   1.188   1.316 -0.3873  1.7525  3.4196
   30SOL     MW  120   0.807   1.189   1.254 -0.0458 -0.1002  0.2376
   31SOL     OW  121   0.406   0.213   0.180  1.0573  0.1541 -0.0905
   31SOL    HW1  122   0.411   0.135   0.234 -0.1085 -0.1493 -4.0644
   31SOL    HW2  123   0.414   0.183   0.091 -1.7625  3.8045 -2.8389
   31SOL     MW  124   0.408   0.199   0.175  0.5315  0.5957 -0.9775
   32SOL     OW  125   2.823   0.955   1.172 -0.1849  0.1838  0.4093
   32SOL    HW1  126   2.749   0.905   1.133  2.1972  0.1507 -1.2836
   32SOL    HW2  127   2.902   0.909   1.142  0.2366 -0.2355  0.0197
   32SOL     MW  128   2.824   0.942   1.163  0.1850  0.1241  0.1345
   33SOL     OW  129   1.735   1.307   0.327 -0.1052  0.0687 -0.2599
   33SOL    HW1  130   1.776   1.236   0.381 -0.6686 -1.4401  0.6179
   33SOL    HW2  131   1.756   1.382   0.380 -2.2338 -0.8011 -0.1498
   33SOL     MW  132   1.743   1.308   0.341 -0.4604 -0.2452 -0.1295
   34SOL     OW  133   1.230   1.884   1.122  0.1956  0.3440 -0.1788
   34SOL    HW1  134   1.152   1.931   1.150 -1.4823 -1.6547  2.0415
   34SOL    HW2  135   1.299   1.919   1.180  1.5276  1.1703  0.7659
   34SOL     MW  136   1.229   1.895   1.133  0.1500  0.1893  0.2388
   35SOL     OW  137   0.431   0.180   1.826  0.0312 -0.7756 -0.3037
   35SOL    HW1  138   0.420   0.089   1.853  2.6394 -1.8511  0.7191
   35SOL    HW2  139   0.466   0.174   1.742 -0.6772 -0.8019  1.7312
   35SOL     MW  140   0.434   0.168   1.819  0.2819 -0.9210  0.0998
   36SOL     OW  141   1.959   1.967   0.582 -0.0401 -0.3418 -0.3581
   36SOL    HW1  142   1.947   1.965   0.487  3.0340  1.1523 -1.2526
   36SOL    HW2  143   1.964   1.868   0.602  1.6592 -0.4759  1.1568
   36SOL     MW  144   1.958   1.954   0.572  0.5897 -0.1624 -0.2763
   37SOL     OW  145   1.778   1.969   0.976  0.6880  0.2140 -0.3210
   37SOL    HW1  146   1.714   1.927   0.912 -0.0235  1.0949  0.7140
   37SOL    HW2  147   1.730   2.030   1.027  2.2705 -1.8206  0.7125
   37SOL     MW  148   1.763   1.972   0.974  0.8029  0.0617 -0.0481
   38SOL     OW  149   2.817   0.915   0.152  0.3598  0.2902  0.0238
   38SOL    HW1  150   2.855   0.875   0.232  0.5466 -1.4055  1.1921
   38SOL    HW2  151   2.882   0.903   0.085 -2.3525  2.3939 -1.5801
   38SOL     MW  152   2.831   0.908   0.154  0.0266  0.3441 -0.0337
   39SOL     OW  153   1.420   0.650   0.802  0.0948 -0.1060  0.1498
   39SOL    HW1  154   1.385   0.563   0.826  0.6349 -2.0702 -0.5598
   39SOL    HW2  155   1.340   0.680   0.747 -1.3007 -0.5375 -0.1655
   39SOL     MW  156   1.405   0.643   0.798 -0.0180 -0.4221  0.0145
   40SOL     OW  157   1.179   1.912   0.315  0.6061  0.0061  0.4226
   40SOL    HW1  158   1.221   1.845   0.369 -2.0442 -1.1761 -1.2823
   40SOL    HW2  159   1.158   1.987   0.371  0.3460  2.3167 -2.3987
   40SOL     MW  160   1.182   1.913   0.330  0.2221  0.1550 -0.1746
   41SOL     OW  161   0.595   0.561   1.647  0.4417 -0.2904 -0.6545
   41SOL    HW1  162   0.690   0.586   1.650  0.0801 -0.5119  0.8037
   41SOL    HW2  163   0.592   0.494   1.716 -1.2207 -2.7120 -0.8680
   41SOL     MW  164   0.607   0.555   1.657  0.1746 -0.6392 -0.4903
   42SOL     OW  165   1.247   3.004   1.992 -0.0924 -0.2052  0.5021
   42SOL    HW1  166   1.164   3.027   2.032  1.2816  0.8572  0.5200
   42SOL    HW2  167   1.296   2.963   2.060 -0.6679  0.7085  1.7902
   42SOL     MW  168   1.243   3.001   2.006  0.0129  0.0555  0.6744
   43SOL     OW  169   1.515   0.141   1.723 -0.0871 -0.3040  0.2390
   43SOL    HW1  170   1.553   0.097   1.647 -0.7207 -0.2515 -1.6578
   43SOL    HW2  171   1.422   0.106   1.732  0.7955 -3.9184 -0.1741
   43SOL     MW  172   1.507   0.130   1.714 -0.0543 -0.7740 -0.0658
   44SOL     OW  173   1.064   0.793   1.033  0.6580  0.3498  0.4895
   44SOL    HW1  174   1.100   0.875   1.001  0.4252 -0.5181 -0.9063
   44SOL    HW2  175   1.107   0.782   1.117  1.0580 -1.6912 -0.8728
   44SOL     MW  176   1.074   0.803   1.040  0.6801 -0.0340  0.1256
   45SOL     OW  177   1.221   0.760   0.660 -0.2406 -0.1073 -0.2235
   45SOL    HW1  178   1.141   0.807   0.680  2.0912  2.4794  1.0754
   45SOL    HW2  179   1.201   0.713   0.573 -1.0570 -3.0048 -2.2507
   45SOL     MW  180   1.208   0.760   0.651 -0.0407 -0.1483 -0.3196
   46SOL     OW  181   0.567   1.192   0.611 -0.1606 -0.3507  0.1472
   46SOL    HW1  182   0.528   1.181   0.522 -2.4807 -2.1402  0.4824
   46SOL    HW2  183   0.630   1.124   0.608  0.3278  0.1363 -2.5030
   46SOL     MW  184   0.570   1.182   0.599 -0.4022 -0.5225 -0.1583
   47SOL     OW  185   0.197   2.026   1.994  0.0985  0.8473  0.1429
   47SOL    HW1  186   0.284   1.995   2.009 -0.6546 -0.6670 -0.2188
   47SOL    HW2  187   0.163   2.016   2.085  2.4664  0.5998  0.0885
   47SOL     MW  188   0.204   2.020   2.008  0.3116  0.6148  0.0880
   48SOL     OW  189   1.079   0.493   1.017 -0.2720 -0.5589  0.5366
   48SOL    HW1  190   0.987   0.470   1.004  1.4333 -1.5885  1.4876
   48SOL    HW2  191   1.080   0.583   1.017 -0.3142 -2.6719 -1.1596
   48SOL     MW  192   1.067   0.502   1.015 -0.0526 -0.9736  0.4383
   49SOL     OW  193   1.782   0.711   1.524 -0.6107 -0.2537 -0.4414
   49SOL    HW1  194   1.767   0.645   1.588 -0.3750  0.0876 -0.5289
   49SOL    HW2  195   1.859   0.671   1.474 -0.5221  0.1729  2.0604
   49SOL     MW  196   1.790   0.697   1.526 -0.5679 -0.1524 -0.1229
   50SOL     OW  197   1.309   1.061   0.507  0.3452  0.4545 -0.0501
   50SOL    HW1  198   1.273   1.111   0.581  0.2350  4.2032 -0.2706
   50SOL    HW2  199   1.378   1.010   0.554  0.8667  2.1892  1.7214
   50SOL     MW  200   1.313   1.061   0.523  0.3994  1.1780  0.1546
   51SOL     OW  201   0.329   2.923   0.918  0.2716 -0.0672 -0.0133
   51SOL    HW1  202   0.412   2.875   0.918 -0.6251 -2.5207 -2.3865
   51SOL    HW2  203   0.318   2.967   1.003 -3.1258  1.8418  0.6860
   51SOL     MW  204   0.338   2.923   0.929 -0.2950 -0.1391 -0.2341
   52SOL     OW  205   0.780   1.735   0.426 -0.2926 -0.1066 -0.2956
   52SOL    HW1  206   0.768   1.826   0.405 -0.8246  0.1326 -4.1479
   52SOL    HW2  207   0.731   1.678   0.366 -0.2505 -2.4048  1.7827
   52SOL     MW  208   0.772   1.740   0.415 -0.3573 -0.3783 -0.5297
   53SOL     OW  209   0.446   2.099   0.541 -0.0487 -1.1175 -0.3030
   53SOL    HW1  210   0.387   2.082   0.468 -2.8112 -0.7111  1.2864
   53SOL    HW2  211   0.416   2.187   0.564 -2.4503  0.9486 -2.8043
   53SOL     MW  212   0.435   2.109   0.534 -0.7301 -0.7913 -0.4233
   54SOL     OW  213   2.007   0.937   0.790 -0.2649 -0.1365 -0.1237
   54SOL    HW1  214   2.033   0.949   0.699 -0.7303  0.6704 -1.1066
   54SOL    HW2  215   1.991   0.843   0.799  0.7308 -0.3598 -0.5662
   54SOL     MW  216   2.008   0.926   0.779 -0.1949 -0.0595 -0.3118
   55SOL     OW  217   0.528   1.547   1.614 -0.0167 -0.0283 -0.0372
   55SOL    HW1  218   0.477   1.581   1.543  1.5618 -0.8859 -0.2774
   55SOL    HW2  219   0.605   1.516   1.568 -0.3190 -0.2511  2.7636
   55SOL     MW  220   0.532   1.548   1.598  0.1517 -0.1708  0.3006
   56SOL     OW  221   0.614   0.819   0.184  0.1450  0.0575  0.4270
   56SOL    HW1  222   0.642   0.910   0.170 -1.4851 -0.4021  0.7569
   56SOL    HW2  223   0.544   0.801   0.120  0.0981  2.1593  1.5876
   56SOL     MW  224   0.608   0.829   0.174 -0.0763  0.2742  0.6237
   57SOL     OW  225   1.150   1.280   1.171  0.1070 -0.2713  0.0816
   57SOL    HW1  226   1.245   1.263   1.142  0.6215 -1.8839  3.4064
   57SOL    HW2  227   1.127   1.222   1.240  0.5219 -2.4050  0.3132
   57SOL     MW  228   1.160   1.270   1.177  0.2296 -0.7656  0.5508
   58SOL     OW  229   0.575   1.188   1.355 -0.6282  0.5243 -0.2314
   58SOL    HW1  230   0.525   1.265   1.350  1.3702  1.1878  1.7448
   58SOL    HW2  231   0.575   1.178   1.449 -2.3573  2.6807 -1.2073
   58SOL     MW  232   0.568   1.197   1.367 -0.5927  0.8963 -0.0995
   59SOL     OW  233   1.553   1.711   0.360 -0.3027 -0.4033 -0.0860
   59SOL    HW1  234   1.582   1.775   0.429  0.6003 -2.0775  0.6883
   59SOL    HW2  235   1.461   1.703   0.363 -1.7374 -0.4138 -0.0533
   59SOL     MW  236   1.545   1.718   0.370 -0.3729 -0.6256  0.0205
   60SOL     OW  237   0.029   0.213   1.611 -0.6673  0.1367  0.2334
   60SOL    HW1  238  -0.041   0.262   1.660 -3.5274  2.7387  3.7053
   60SOL    HW2  239   0.071   0.142   1.662  0.0371 -0.1561  2.1139
   60SOL     MW  240   0.025   0.210   1.624 -0.9518  0.4414  0.9396
   61SOL     OW  241   2.011   1.477   3.076  0.6357 -0.1434 -0.3035
   61SOL    HW1  242   1.993   1.448   3.169  3.8743 -2.8234 -0.2691
   61SOL    HW2  243   2.087   1.421   3.051 -0.2037 -1.6629 -0.0558
   61SOL     MW  244   2.019   1.465   3.085  0.9523 -0.6975 -0.2663
   62SOL     OW  245   0.576   1.702   0.613 -0.0226 -0.1911 -0.5085
   62SOL    HW1  246   0.666   1.714   0.573  1.2499 -3.2735  2.6691
   62SOL    HW2  247   0.553   1.617   0.633  2.6112  1.3910  1.4991
   62SOL     MW  248   0.585   1.692   0.610  0.4928 -0.3891  0.1756
   63SOL     OW  249   1.693   0.681   0.708  0.1029  0.1804  0.1258
   63SOL    HW1  250   1.727   0.747   0.645  0.7938  0.3966  3.4439
   63SOL    HW2  251   1.600   0.704   0.723 -0.6427 -0.5640 -0.7914
   63SOL     MW  252   1.685   0.693   0.701  0.0957  0.1107  0.4426
   64SOL     OW  253   0.216   1.708   0.833  0.5670  0.3791  0.0284
   64SOL    HW1  254   0.270   1.747   0.770 -2.2797 -0.2371  1.3181
   64SOL    HW2  255   0.131   1.744   0.817 -0.3803 -1.1044 -2.5918
   64SOL     MW  256   0.212   1.718   0.823  0.0664  0.1021 -0.1472
   65SOL     OW  257   1.586   2.304   0.369 -0.0292  0.0116  0.2739
   65SOL    HW1  258   1.661   2.261   0.406 -1.3769  0.7814 -0.6779
   65SOL    HW2  259   1.544   2.339   0.449 -0.3075  0.6851  0.4147
   65SOL     MW  260   1.590   2.303   0.384 -0.2437  0.2020  0.1669
   66SOL     OW  261   0.298   0.518   0.542 -0.0347  0.1795 -0.0309
   66SOL    HW1  262   0.349   0.485   0.461  0.0542 -0.2997 -1.3177
   66SOL    HW2  263   0.282   0.611   0.521 -0.0974 -2.9542  0.8713
   66SOL     MW  264   0.303   0.526   0.528 -0.0313 -0.2972 -0.0816
   67SOL     OW  265   1.511   0.079   2.040 -0.2521  0.0611 -0.5231
   67SOL    HW1  266   1.572   0.104   1.970 -2.4640 -1.0230 -1.1813
   67SOL    HW2  267   1.449   0.017   2.010  1.1455 -1.9615 -0.1201
   67SOL     MW  268   1.511   0.074   2.027 -0.3595 -0.3488 -0.5568
   68SOL     OW  269   0.707   0.027   2.929  0.1758  0.3510  0.5622
   68SOL    HW1  270   0.695   0.089   2.852 -2.5789 -1.6139  1.0037
   68SOL    HW2  271   0.776   0.070   2.983 -0.2610 -0.0347  3.6114
   68SOL     MW  272   0.714   0.041   2.926 -0.2453  0.0409  1.0228
   69SOL     OW  273   1.059   0.217   1.966  0.0064  0.0355 -0.5147
   69SOL    HW1  274   1.154   0.228   1.969 -0.6552 -1.9280  1.2921
   69SOL    HW2  275   1.043   0.163   2.040 -0.7163 -1.9325 -0.5952
   69SOL     MW  276   1.069   0.212   1.976 -0.1762 -0.4832 -0.2869
   70SOL     OW  277   0.572   1.731   1.134  0.2429 -0.1160  0.4281
   70SOL    HW1  278   0.627   1.703   1.208  0.2679  0.7643 -0.5607
   70SOL    HW2  279   0.636   1.775   1.081  0.5517 -1.0041  0.0650
   70SOL     MW  280   0.588   1.733   1.137  0.2870 -0.1170  0.2497
   71SOL     OW  281   1.592   0.481   1.252  0.4391 -0.2552 -0.2552
   71SOL    HW1  282   1.564   0.551   1.311 -1.2003  0.7866 -0.0872
   71SOL    HW2  283   1.556   0.515   1.169  0.5492 -1.2969 -0.8228
   71SOL     MW  284   1.584   0.495   1.248  0.2373 -0.2552 -0.3080
   72SOL     OW  285   0.768   1.875   0.988  0.5323  0.3354  0.3043
   72SOL    HW1  286   0.778   1.923   0.903 -0.3274 -2.8859  0.3083
   72SOL    HW2  287   0.801   1.786   0.967  1.8104 -0.9944 -0.5911
   72SOL     MW  288   0.773   1.869   0.974  0.5875 -0.2651  0.1867
   73SOL     OW  289   1.177   0.693   1.260 -0.5553  0.1717  0.2607
   73SOL    HW1  290   1.117   0.626   1.294 -2.0482  0.7807  1.6918
   73SOL    HW2  291   1.166   0.768   1.326 -0.1657 -0.5372  2.3631
   73SOL     MW  292   1.167   0.694   1.273 -0.7008  0.1585  0.7269
   74SOL     OW  293   2.716   0.178   1.000  0.1964  0.6851  0.4508
   74SOL    HW1  294   2.792   0.164   0.948  0.9019 -0.0302 -0.9422
   74SOL    HW2  295   2.696   0.272   1.010 -0.4821  0.8956  1.7902
   74SOL     MW  296   2.723   0.188   0.994  0.1999  0.6185  0.4437
   75SOL     OW  297   1.592   1.437   0.141 -0.8646 -0.2027  0.2010
   75SOL    HW1  298   1.643   1.516   0.132 -0.3043 -1.3619 -0.1211
   75SOL    HW2  299   1.653   1.381   0.197 -1.1829  1.4452  0.6833
   75SOL     MW  300   1.607   1.440   0.147 -0.8327 -0.1382  0.2221
   76SOL     OW  301   2.942   0.560   0.464 -0.1642  0.1148 -0.3255
   76SOL    HW1  302   2.995   0.616   0.525 -0.5460  0.5946 -0.7351
   76SOL    HW2  303   3.008   0.510   0.415 -0.4659  1.1696  1.9584
   76SOL     MW  304   2.958   0.561   0.465 -0.2544  0.3173 -0.0782
   77SOL     OW  305   0.827   0.546   0.463 -0.0888  0.2523  0.2670
   77SOL    HW1  306   0.800   0.562   0.371  0.2674 -0.7663  0.5946
   77SOL    HW2  307   0.780   0.465   0.483 -1.7604 -0.8669  2.0393
   77SOL     MW  308   0.817   0.537   0.453 -0.2624 -0.0297  0.5441
   78SOL     OW  309   0.755   0.909   1.271  0.4601  0.2707 -0.2567
   78SOL    HW1  310   0.778   0.966   1.203 -0.8614  0.0768 -2.0247
   78SOL    HW2  311   0.662   0.889   1.254 -0.7288 -0.0402 -0.3306
   78SOL     MW  312   0.746   0.914   1.259  0.1289  0.2041 -0.4997
   79SOL     OW  313   1.959   1.695   0.578  0.0849 -0.3698  0.1316
   79SOL    HW1  314   1.890   1.638   0.535 -1.2038 -3.2968  1.1825
   79SOL    HW2  315   1.951   1.662   0.671 -0.3410 -0.6140  1.6770
   79SOL     MW  316   1.949   1.683   0.585 -0.1413 -0.7882  0.4742
   80SOL     OW  317   0.083   0.978   0.326  0.1787 -0.0316 -0.2028
   80SOL    HW1  318   0.004   0.943   0.295  1.6841  1.9800  1.6856
   80SOL    HW2  319   0.112   0.898   0.369 -1.0671 -1.0205  1.0748
   80SOL     MW  320   0.077   0.963   0.328  0.2130  0.1034  0.2149
   81SOL     OW  321   1.911   1.891   0.331  0.1050  0.1367  0.8480
   81SOL    HW1  322   1.872   1.808   0.355 -0.2499  0.7565  1.4520
   81SOL    HW2  323   1.848   1.922   0.267  0.1304 -3.5794  1.6459
   81SOL     MW  324   1.897   1.884   0.326  0.0616 -0.2718  1.0329
   82SOL     OW  325   0.774   1.020   0.555  0.4816 -0.5957  0.0846
   82SOL    HW1  326   0.773   1.031   0.452 -0.7888  1.4925 -1.0378
   82SOL    HW2  327   0.743   0.929   0.555 -1.5590  0.0250 -0.5084
   82SOL     MW  328   0.769   1.010   0.541  0.0447 -0.2383 -0.1417
   83SOL     OW  329   0.076   0.644   1.446  0.0459  0.5265 -0.3043
   83SOL    HW1  330   0.094   0.714   1.381  1.6523 -0.3161  0.1223
   83SOL    HW2  331   0.159   0.595   1.467  0.6479  1.2254  0.2389
   83SOL     MW  332   0.090   0.646   1.440  0.3373  0.5075 -0.1764
   84SOL     OW  333   0.145   0.224   1.019  0.0108 -0.4477  0.0491
   84SOL    HW1  334   0.087   0.299   1.001  0.5589 -1.1697  0.9045
   84SOL    HW2  335   0.132   0.195   1.110  2.3863  0.5351  0.2879
   84SOL     MW  336   0.136   0.230   1.029  0.3966 -0.4133  0.1935
   85SOL     OW  337   0.478   0.425   0.785 -0.1372  0.2335  0.0586
   85SOL    HW1  338   0.435   0.461   0.709  1.6342  0.1938  3.1087
   85SOL    HW2  339   0.418   0.350   0.800  0.9943  0.4668 -0.6406
   85SOL     MW  340   0.465   0.420   0.777  0.2458  0.2590  0.3688
   86SOL     OW  341   1.180   0.250   1.129 -0.1695 -0.0226 -0.2509
   86SOL    HW1  342   1.145   0.332   1.107  1.9015 -1.5738  1.7497
   86SOL    HW2  343   1.216   0.275   1.213  1.9478  0.9883 -1.4839
   86SOL     MW  344   1.180   0.264   1.137  0.3831 -0.0939 -0.1496
   87SOL     OW  345   1.271   1.498   1.302 -0.1472  0.8117  0.0899
   87SOL    HW1  346   1.293   1.542   1.219 -2.4492  0.5513  0.1935
   87SOL    HW2  347   1.236   1.411   1.273  0.6672 -2.0874 -1.3405
   87SOL     MW  348   1.269   1.493   1.288 -0.3434  0.3948 -0.0851
   88SOL     OW  349   1.196   1.068   0.964  0.2798  0.2036  0.1719
   88SOL    HW1  350   1.288   1.089   0.975 -1.2586 -0.0234 -1.7174
   88SOL    HW2  351   1.142   1.122   1.018 -2.3404  0.0356 -0.6556
   88SOL     MW  352   1.201   1.078   0.973 -0.2689  0.1515 -0.1866
   89SOL     OW  353   1.710   0.734   0.371 -0.2144  0.1816 -0.1720
   89SOL    HW1  354   1.691   0.642   0.373 -0.6802  0.8058  0.4414
   89SOL    HW2  355   1.786   0.740   0.308  0.2835 -2.9114 -2.0840
   89SOL     MW  356   1.717   0.722   0.363 -0.2102 -0.1441 -0.3433
   90SOL     OW  357   0.795   1.086   2.739  0.5583 -0.5202  0.4963
   90SOL    HW1  358   0.839   1.011   2.787 -0.3651 -0.7206  4.8817
   90SOL    HW2  359   0.817   1.149   2.810  2.1045  2.4419  3.6891
   90SOL     MW  360   0.804   1.084   2.755  0.6404 -0.1558  1.4962
   91SOL     OW  361   2.186   0.672   0.418 -0.4816  0.2592 -0.0345
   91SOL    HW1  362   2.259   0.690   0.358  1.3826  0.3182 -0.4831
   91SOL    HW2  363   2.170   0.578   0.427  0.6278 -1.2595  0.3175
   91SOL     MW  364   2.194   0.662   0.411 -0.0893  0.0666 -0.0472
   92SOL     OW  365   1.752   0.925   0.549 -0.4850  0.1403  0.1249
   92SOL    HW1  366   1.672   0.968   0.586  2.0091 -0.4682 -0.8369
   92SOL    HW2  367   1.717   0.869   0.479 -0.4430 -0.6428  2.3524
   92SOL     MW  368   1.736   0.923   0.544 -0.1504 -0.0433  0.2919
   93SOL     OW  369   0.960   0.252   0.413 -0.1969  0.3389  0.5213
   93SOL    HW1  370   0.868   0.279   0.422 -0.0948  0.1306 -2.4264
   93SOL    HW2  371   0.975   0.263   0.317  1.4489  0.8403 -0.3246
   93SOL     MW  372   0.950   0.257   0.401  0.0338  0.3776  0.0208
   94SOL     OW  373   1.834   1.387   1.628  0.2283 -0.0628  1.0712
   94SOL    HW1  374   1.846   1.393   1.537 -0.5682 -1.8270  1.5885
   94SOL    HW2  375   1.809   1.293   1.635 -1.5060 -0.4549  1.4872
   94SOL     MW  376   1.832   1.375   1.617 -0.1056 -0.3473  1.1943
   95SOL     OW  377   0.803   1.568   0.923  0.0063  0.1976  0.5365
   95SOL    HW1  378   0.853   1.511   0.981  2.9104  0.6765 -0.5728
   95SOL    HW2  379   0.713   1.537   0.931 -0.9561  0.9898 -2.6007
   95SOL     MW  380   0.797   1.556   0.932  0.2625  0.3653 -0.0238
   96SOL     OW  381   1.225   1.878   1.664 -0.5907 -0.4180  0.4986
   96SOL    HW1  382   1.156   1.867   1.722  2.8272  0.8022  2.0127
   96SOL    HW2  383   1.239   1.792   1.623 -0.7318  5.5190  1.3452
   96SOL     MW  384   1.218   1.865   1.666 -0.1583  0.5263  0.8100
   97SOL     OW  385   1.248   1.457   0.786 -0.1526 -0.4317  0.6262
   97SOL    HW1  386   1.255   1.496   0.872 -0.5188  0.3060 -0.1047
   97SOL    HW2  387   1.151   1.481   0.767 -0.4122  1.8431  3.1709
   97SOL     MW  388   1.236   1.465   0.795 -0.2352 -0.0342  0.8655
   98SOL     OW  389   1.426   1.269   1.042  0.2136  0.5071 -0.3831
   98SOL    HW1  390   1.494   1.289   1.104  1.0328  0.8850  2.8194
   98SOL    HW2  391   1.460   1.292   0.957  0.4958 -3.3439 -0.0824
   98SOL     MW  392   1.439   1.274   1.039  0.3589  0.0489  0.0792
   99SOL     OW  393   1.337   0.344   1.340  0.2958 -0.0873 -0.5028
   99SOL    HW1  394   1.395   0.406   1.295  2.3559  0.9258 -1.6325
   99SOL    HW2  395   1.338   0.359   1.438 -5.3339  1.8545 -0.7279
   99SOL     MW  396   1.345   0.354   1.347 -0.1752  0.3026 -0.6815
  100SOL     OW  397   1.010   1.170   1.426  0.2046  0.2238 -0.5396
  100SOL    HW1  398   1.021   1.217   1.505 -0.3014  0.8216 -0.9202
  100SOL    HW2  399   1.036   1.075   1.433  1.6325 -0.1629 -3.6726
  100SOL     MW  400   1.015   1.164   1.437  0.3262  0.2517 -1.0032
  101SOL     OW  401   0.484   1.120   0.340  0.3465  0.4352 -0.4577
  101SOL    HW1  402   0.455   1.031   0.367 -0.2552  0.0794  2.9371
  101SOL    HW2  403   0.517   1.117   0.254  0.3707 -0.8797  0.5749
  101SOL     MW  404   0.485   1.108   0.332  0.2703  0.2147  0.1265
  102SOL     OW  405   2.900   0.677   1.037 -0.4333  0.4969 -0.3968
  102SOL    HW1  406   2.964   0.747   1.052  1.4075 -0.3522 -0.6125
  102SOL    HW2  407   2.874   0.654   1.128 -1.4380 -3.8681  1.2105
  102SOL     MW  408   2.905   0.683   1.051 -0.3230 -0.1911 -0.2132
  103SOL     OW  409   1.693   0.282   1.854 -0.7324 -0.2394  0.2011
  103SOL    HW1  410   1.620   0.239   1.803  2.3887 -0.4796  1.7752
  103SOL    HW2  411   1.759   0.210   1.860 -2.0290  2.6162 -0.8478
  103SOL     MW  412   1.692   0.267   1.848 -0.4917  0.1056  0.2704
  104SOL     OW  413   0.144   1.569   1.537 -0.2497 -0.4900  0.8760
  104SOL    HW1  414   0.165   1.480   1.583  0.3409 -2.0361 -1.3301
  104SOL    HW2  415   0.069   1.553   1.486  3.3496 -0.5769  2.6280
  104SOL     MW  416   0.137   1.555   1.537  0.3031 -0.7055  0.8161
  105SOL     OW  417   0.076   1.232   0.433 -0.0436 -0.2481 -0.0022
  105SOL    HW1  418   0.086   1.145   0.392 -0.5180  2.8404  0.2867
  105SOL    HW2  419   0.156   1.276   0.452 -2.3755  0.0464 -0.1011
  105SOL     MW  420   0.088   1.226   0.430 -0.4138  0.1982  0.0229
  106SOL     OW  421   0.839   0.337   0.973 -0.2501 -0.0343 -0.0623
  106SOL    HW1  422   0.779   0.405   0.939  0.1829  1.3485 -0.9953
  106SOL    HW2  423   0.905   0.312   0.906  2.0474  0.4033  1.3075
  106SOL     MW  424   0.840   0.343   0.960  0.1101  0.2059 -0.0047
  107SOL     OW  425   0.812   2.182   2.949 -0.4942  0.1118  0.1282
  107SOL    HW1  426   0.737   2.139   2.910  1.4911 -2.1620  0.1139
  107SOL    HW2  427   0.811   2.163   3.046  0.1412  3.1111 -0.3224
  107SOL     MW  428   0.802   2.174   2.957 -0.1484  0.2075  0.0669
  108SOL     OW  429   1.343   1.593   1.642  0.2670 -0.2235 -0.0682
  108SOL    HW1  430   1.304   1.535   1.576 -3.6259 -0.9188 -2.1470
  108SOL    HW2  431   1.435   1.587   1.636 -1.2053 -0.0703  1.0282
  108SOL     MW  432   1.350   1.584   1.632 -0.4409 -0.2950 -0.1978
  109SOL     OW  433   1.950   0.762   0.212  0.0081 -0.6178  0.0740
  109SOL    HW1  434   1.992   0.827   0.152  1.0852  3.1845  2.9841
  109SOL    HW2  435   2.026   0.760   0.272 -0.1042 -1.0259 -0.8612
  109SOL     MW  436   1.966   0.770   0.212  0.1354 -0.1700  0.3346
  110SOL     OW  437   0.339   1.882   0.645 -0.0676  0.1373 -0.7483
  110SOL    HW1  438   0.422   1.829   0.640  1.9070  2.0895  2.3786
  110SOL    HW2  439   0.369   1.960   0.597  3.4044  0.0048 -0.1184
  110SOL     MW  440   0.354   1.885   0.638  0.6511  0.3774 -0.2527
  111SOL     OW  441   0.859   0.912   1.524 -0.2062 -0.5051  0.0968
  111SOL    HW1  442   0.809   0.925   1.441 -0.9463  1.2124 -2.2073
  111SOL    HW2  443   0.839   0.821   1.532 -0.6571  0.7565 -1.3732
  111SOL     MW  444   0.850   0.902   1.514 -0.3633 -0.1120 -0.4012
  112SOL     OW  445   1.311   1.135   1.606  0.0253 -0.3999 -0.2470
  112SOL    HW1  446   1.243   1.194   1.645  0.2406 -0.2993  0.7703
  112SOL    HW2  447   1.276   1.044   1.621  0.6756 -0.7100  0.4369
  112SOL     MW  448   1.297   1.131   1.613  0.1395 -0.4275 -0.0225
  113SOL     OW  449   1.289   3.103   1.726 -0.1221  0.4056  0.2202
  113SOL    HW1  450   1.271   3.082   1.817  0.4270  1.0431  1.6046
  113SOL    HW2  451   1.280   3.015   1.685 -0.7941 -0.5201 -2.8640
  113SOL     MW  452   1.286   3.089   1.733 -0.1383  0.3676 -0.0041
  114SOL     OW  453   0.305   2.872   1.947 -0.1569 -0.2842 -0.7782
  114SOL    HW1  454   0.339   2.962   1.980  3.0803  1.1884 -1.0565
  114SOL    HW2  455   0.312   2.878   1.851 -0.5800 -1.8734 -0.1212
  114SOL     MW  456   0.310   2.885   1.939  0.2144 -0.2996 -0.7282
  115SOL     OW  457   0.504   0.842   1.109  0.0654  0.5809  0.4196
  115SOL    HW1  458   0.517   0.746   1.128  0.1982  0.6779  1.2423
  115SOL    HW2  459   0.455   0.876   1.189 -2.0655 -1.3562  0.0414
  115SOL     MW  460   0.499   0.834   1.122 -0.1982  0.3381  0.4782
  116SOL     OW  461   0.775   1.099   0.962 -0.0820 -0.0230  0.4021
  116SOL    HW1  462   0.800   1.163   0.888  1.3602  0.4294  1.2562
  116SOL    HW2  463   0.809   1.132   1.041 -0.9931  2.0144  0.7408
  116SOL     MW  464   0.783   1.112   0.962 -0.0119  0.3055  0.5595
  117SOL     OW  465   1.216   1.197   0.716  0.0248  0.6180 -0.1354
  117SOL    HW1  466   1.217   1.159   0.807  0.0956 -0.2531 -1.3057
  117SOL    HW2  467   1.228   1.291   0.727  0.9817  2.7229  0.2699
  117SOL     MW  468   1.218   1.205   0.730  0.1604  0.7808 -0.2363
  118SOL     OW  469   3.039   2.973   1.712  0.4807 -0.1265 -0.2825
  118SOL    HW1  470   3.106   3.041   1.722 -3.0928  1.3806 -0.9544
  118SOL    HW2  471   2.949   3.013   1.733 -0.8020  2.7643  2.4642
  118SOL     MW  472   3.036   2.987   1.716 -0.1600  0.4537 -0.0087
  119SOL     OW  473   0.469   1.487   1.280  0.3853 -0.2859 -0.5541
  119SOL    HW1  474   0.516   1.555   1.235 -0.5899  0.9994  0.3207
  119SOL    HW2  475   0.396   1.486   1.220  0.3498 -0.9155 -0.6917
  119SOL     MW  476   0.465   1.496   1.266  0.2520 -0.1994 -0.4569
  120SOL     OW  477   0.267   0.694   0.993 -0.0518  0.4225 -0.9728
  120SOL    HW1  478   0.243   0.630   1.064  0.4930 -0.8009 -0.2330
  120SOL    HW2  479   0.326   0.760   1.028  2.9512  0.5949 -1.5925
  120SOL     MW  480   0.272   0.694   1.007  0.4163  0.2838 -0.9570
  121SOL     OW  481   1.725   1.134   1.747  0.1501 -0.8009  0.1701
  121SOL    HW1  482   1.636   1.099   1.775 -0.7599 -1.9009  0.1088
  121SOL    HW2  483   1.750   1.081   1.672  2.5357  1.2056  2.2633
  121SOL     MW  484   1.717   1.123   1.740  0.3448 -0.6813  0.4382
  122SOL     OW  485   0.131   0.559   0.793  0.5592 -0.0138  0.4944
  122SOL    HW1  486   0.202   0.546   0.730  1.3800  0.7590  1.1558
  122SOL    HW2  487   0.177   0.609   0.866 -0.4080  1.9998 -0.5393
  122SOL     MW  488   0.147   0.564   0.794  0.5399  0.3539  0.4453
  123SOL     OW  489   1.876   1.158   0.510  0.2983  0.0722  0.0109
  123SOL    HW1  490   1.837   1.069   0.518  2.5567 -1.9569  0.8650
  123SOL    HW2  491   1.887   1.187   0.603 -1.9770  2.7937 -0.8613
  123SOL     MW  492   1.872   1.150   0.523  0.2961  0.1636  0.0085
  124SOL     OW  493   0.676   0.547   0.919 -0.0744 -0.0425  0.4310
  124SOL    HW1  494   0.608   0.499   0.867  0.0377 -2.0956 -2.0892
  124SOL    HW2  495   0.662   0.635   0.880  0.0590  1.1218 -2.4738
  124SOL     MW  496   0.665   0.552   0.907 -0.0420 -0.1598 -0.2848
  125SOL     OW  497   0.636   1.795   1.744  0.1954 -0.0376  0.7230
  125SOL    HW1  498   0.584   1.735   1.690  1.8887  0.2149  0.3130
  125SOL    HW2  499   0.586   1.884   1.748  1.5859  0.1212  1.4736
  125SOL     MW  500   0.622   1.799   1.737  0.6023  0.0167  0.7679
  126SOL     OW  501   2.064   1.573   1.951  0.0494  0.0969  0.2121
  126SOL    HW1  502   2.103   1.659   1.957 -0.8177  0.5232 -0.3377
  126SOL    HW2  503   2.143   1.523   1.973  0.4663  0.7955  0.6375
  126SOL     MW  504   2.080   1.578   1.954 -0.0100  0.2453  0.1957
  127SOL     OW  505   0.644   0.797   1.824 -0.3406 -0.1426 -0.5873
  127SOL    HW1  506   0.704   0.754   1.883 -2.4748  0.2642 -0.7557
  127SOL    HW2  507   0.630   0.879   1.873 -1.4853 -1.0624 -0.8464
  127SOL     MW  508   0.650   0.803   1.838 -0.7733 -0.2103 -0.6437
  128SOL     OW  509   1.798   0.748   2.929  0.6911  0.0364 -0.1863
  128SOL    HW1  510   1.815   0.705   2.842 -0.1499 -2.6283  0.4261
  128SOL    HW2  511   1.763   0.838   2.909  1.1942 -1.4772 -0.1448
  128SOL     MW  512   1.795   0.754   2.915  0.6465 -0.5149 -0.1000
  129SOL     OW  513   1.572   0.923   0.220 -0.1122 -0.1534  0.2543
  129SOL    HW1  514   1.510   0.869   0.168  1.7949 -1.9908 -0.2756
  129SOL    HW2  515   1.609   0.861   0.287 -1.9768 -1.1095  0.1830
  129SOL     MW  516   1.569   0.907   0.222 -0.1066 -0.5220  0.1750
  130SOL     OW  517   0.749   1.373   0.318 -0.2652 -0.1621 -0.1939
  130SOL    HW1  518   0.767   1.378   0.417 -1.3991 -0.8180  0.0343
  130SOL    HW2  519   0.805   1.436   0.281 -1.2256 -1.0436 -2.1445
  130SOL     MW  520   0.759   1.382   0.326 -0.5415 -0.3650 -0.4211
  131SOL     OW  521   3.061   0.813   0.022 -0.2263  0.2156  0.3164
  131SOL    HW1  522   3.064   0.861  -0.057 -3.4344 -1.1575 -0.3330
  131SOL    HW2  523   3.149   0.785   0.037 -1.8337  2.4947  0.3929
  131SOL     MW  524   3.073   0.815   0.014 -0.8616  0.3352  0.2408
  132SOL     OW  525   2.694   0.136   1.270  0.0970 -0.1051  0.9176
  132SOL    HW1  526   2.725   0.146   1.169  0.0353  2.1996 -1.2875
  132SOL    HW2  527   2.625   0.074   1.259 -0.3954 -0.7755 -1.0109
  132SOL     MW  528   2.689   0.129   1.255  0.0239  0.1105  0.3722
  133SOL     OW  529   1.054   0.140   1.691 -0.0042 -0.0731  0.0722
  133SOL    HW1  530   1.120   0.074   1.669  0.5609  0.4021  1.1592
  133SOL    HW2  531   1.071   0.164   1.780 -1.1414 -0.9036 -1.5350
  133SOL     MW  532   1.065   0.135   1.700 -0.0797 -0.1199  0.0035
  134SOL     OW  533   1.395   2.538   1.429  0.4525 -0.1094 -0.1086
  134SOL    HW1  534   1.333   2.610   1.440 -1.5807  2.0495 -1.4597
  134SOL    HW2  535   1.438   2.546   1.515  2.5043 -0.0437 -1.0418
  134SOL     MW  536   1.393   2.548   1.442  0.4549  0.1841 -0.4100
  135SOL     OW  537   3.004   0.973   2.871  0.0153  0.0706  0.8085
  135SOL    HW1  538   3.082   1.023   2.880  1.1119  0.0279 -0.2411
  135SOL    HW2  539   2.930   1.039   2.869 -3.0819 -2.1564 -1.5028
  135SOL     MW  540   3.005   0.988   2.872 -0.2486 -0.2288  0.3651
  136SOL     OW  541   0.167   2.005   0.809  0.0099 -0.2851 -0.2329
  136SOL    HW1  542   0.093   1.947   0.792 -1.9508  0.7540  0.1624
  136SOL    HW2  543   0.239   1.965   0.754  1.7986 -0.7844 -1.4441
  136SOL     MW  544   0.167   1.992   0.800 -0.0128 -0.2139 -0.3406
  137SOL     OW  545   0.725   2.041   0.529  0.4199  0.2264 -0.2886
  137SOL    HW1  546   0.764   2.010   0.613 -1.1552 -0.2247  2.3791
  137SOL    HW2  547   0.628   2.044   0.541 -0.3882 -2.9906  3.5409
  137SOL     MW  548   0.718   2.037   0.542  0.1055 -0.2575  0.5686
  138SOL     OW  549   0.515   0.577   1.157 -0.0880 -0.1791  0.6980
  138SOL    HW1  550   0.429   0.557   1.116 -0.4671 -2.2720  1.3273
  138SOL    HW2  551   0.580   0.560   1.087 -1.7279 -1.0245  0.3933
  138SOL     MW  552   0.512   0.572   1.142 -0.3543 -0.5668  0.7408
  139SOL     OW  553   2.773   0.634   1.301  0.1556  0.1127 -0.7547
  139SOL    HW1  554   2.758   0.551   1.349  1.8781  0.6212 -1.7984
  139SOL    HW2  555   2.806   0.696   1.368  0.4050  1.8763  1.7184
  139SOL     MW  556   2.775   0.632   1.316  0.4158  0.4124 -0.5661
  140SOL     OW  557   0.900   0.410   2.070  0.8558  0.1156 -0.0689
  140SOL    HW1  558   0.971   0.353   2.037 -1.0681  2.6009 -1.3017
  140SOL    HW2  559   0.882   0.380   2.159 -0.3577  1.6622  0.6172
  140SOL     MW  560   0.907   0.398   2.077  0.4418  0.6476 -0.1410
  141SOL     OW  561   1.053   0.672   1.753 -0.5380 -0.0129  0.1333
  141SOL    HW1  562   1.081   0.590   1.709  2.8898  1.9407  0.6902
  141SOL    HW2  563   1.109   0.739   1.720 -1.5115 -0.0981  0.0554
  141SOL     MW  564   1.064   0.670   1.743 -0.2142  0.2336  0.1965
  142SOL     OW  565   0.922   1.183   0.715  0.1852 -0.1697 -0.0086
  142SOL    HW1  566   0.863   1.129   0.659  1.4973 -0.6212  0.0079
  142SOL    HW2  567   1.010   1.188   0.687 -1.4880 -0.4886  1.9360
  142SOL     MW  568   0.926   1.177   0.704  0.1375 -0.2713  0.2502
  143SOL     OW  569   1.835   0.762   1.081  0.5495 -0.5341 -0.6229
  143SOL    HW1  570   1.924   0.752   1.040  2.2579 -1.3591 -0.1110
  143SOL    HW2  571   1.771   0.726   1.016 -1.7572  1.3832 -0.7422
  143SOL     MW  572   1.838   0.756   1.067  0.4706 -0.3900 -0.5711
  144SOL     OW  573   0.264   1.206   1.634  0.1994  0.2316  0.5499
  144SOL    HW1  574   0.354   1.201   1.602 -0.2942  2.5068  2.7273
  144SOL    HW2  575   0.288   1.205   1.727  1.1855  1.4656  0.2384
  144SOL     MW  576   0.279   1.205   1.642  0.2644  0.6946  0.7961
  145SOL     OW  577   0.223   0.491   1.154 -0.5224  0.0535 -0.1092
  145SOL    HW1  578   0.269   0.427   1.208  2.3150 -2.9350 -0.0429
  145SOL    HW2  579   0.149   0.441   1.137  3.4802  2.1464  2.1338
  145SOL     MW  580   0.219   0.476   1.159  0.3801 -0.0647  0.1955
  146SOL     OW  581   0.852   1.957   1.359 -0.7539  0.3092  0.1740
  146SOL    HW1  582   0.882   1.972   1.269  1.4967  0.3608  2.7434
  146SOL    HW2  583   0.764   1.918   1.358 -1.1778 -0.8359  1.4774
  146SOL     MW  584   0.844   1.954   1.347 -0.5129  0.1649  0.6850
  147SOL     OW  585   0.448   0.461   2.968 -0.0586 -0.1435  0.5303
  147SOL    HW1  586   0.391   0.461   3.043 -0.1951  0.3095  0.3971
  147SOL    HW2  587   0.392   0.508   2.904 -0.0478 -0.2054  1.5522
  147SOL     MW  588   0.433   0.467   2.970 -0.0752 -0.0919  0.6476
  148SOL     OW  589   0.149   0.871   1.288 -0.4314  0.4994  0.1504
  148SOL    HW1  590   0.245   0.910   1.286 -0.0485  0.2675  0.5150
  148SOL    HW2  591   0.108   0.918   1.367  1.6541  3.4729  0.0805
  148SOL     MW  592   0.157   0.882   1.298 -0.1057  0.8611  0.1893
  149SOL     OW  593   1.345   1.187   1.350  0.9119  0.1861  0.6170
  149SOL    HW1  594   1.351   1.174   1.446  0.2683 -0.7972  0.3786
  149SOL    HW2  595   1.423   1.240   1.325  0.8718 -0.2655  0.3462
  149SOL     MW  596   1.356   1.192   1.359  0.8217 -0.0032  0.5498
  150SOL     OW  597   1.805   1.328   0.753 -0.7925  0.5640  0.2373
  150SOL    HW1  598   1.823   1.258   0.814 -1.0752  1.1327 -2.1521
  150SOL    HW2  599   1.832   1.408   0.797 -0.0620  0.7035 -1.3244
  150SOL     MW  600   1.811   1.329   0.766 -0.7334  0.6574 -0.2840
  151SOL     OW  601   1.646   1.769   0.801  0.0923  0.1750 -0.2529
  151SOL    HW1  602   1.624   1.802   0.715  1.8015 -0.7578  0.5427
  151SOL    HW2  603   1.578   1.696   0.803 -0.1340 -2.3445 -0.6525
  151SOL     MW  604   1.634   1.763   0.790  0.2880 -0.2805 -0.2007
  152SOL     OW  605   0.767   1.379   1.506  0.0530  0.2012  0.1883
  152SOL    HW1  606   0.752   1.320   1.581 -0.1490  0.1144  0.1537
  152SOL    HW2  607   0.855   1.356   1.470  0.6649  1.9906  0.4567
  152SOL     MW  608   0.777   1.368   1.511  0.1071  0.4259  0.2191
  153SOL     OW  609   2.609   1.207   0.797  0.1055 -0.0017  0.2067
  153SOL    HW1  610   2.685   1.199   0.727  2.4520 -0.6730  1.2696
  153SOL    HW2  611   2.545   1.137   0.791 -3.3427 -0.7355 -0.8545
  153SOL     MW  612   2.611   1.197   0.787 -0.0398 -0.1871  0.2069
  154SOL     OW  613   0.224   1.794   1.706 -0.2181 -0.2129  0.5256
  154SOL    HW1  614   0.152   1.733   1.693 -2.4594 -2.2897  0.6325
  154SOL    HW2  615   0.290   1.741   1.750  2.9348 -0.1656 -3.1313
  154SOL     MW  616   0.223   1.779   1.710 -0.0979 -0.4807  0.0572
  155SOL     OW  617   1.213   0.698   0.206 -0.3975  0.2604  0.4710
  155SOL    HW1  618   1.235   0.644   0.287  3.1271 -1.4880  0.3734
  155SOL    HW2  619   1.176   0.781   0.244 -4.5823  0.5324  0.3053
  155SOL     MW  620   1.211   0.702   0.222 -0.4846  0.0656  0.4363
  156SOL     OW  621   1.485   3.048   1.116 -0.2495 -0.4037 -0.3621
  156SOL    HW1  622   1.553   3.110   1.147  2.6212 -3.0808  2.7873
  156SOL    HW2  623   1.500   2.964   1.155  0.7605 -1.3688 -1.7983
  156SOL     MW  624   1.496   3.045   1.125  0.2625 -0.8842 -0.1361
  157SOL     OW  625   1.456   1.184   0.125  0.1925  0.7798 -0.2479
  157SOL    HW1  626   1.504   1.102   0.159  2.7120 -3.6426  0.1402
  157SOL    HW2  627   1.509   1.264   0.148 -0.7752 -0.2621 -0.2347
  157SOL     MW  628   1.469   1.184   0.132  0.3972  0.0588 -0.1949
  158SOL     OW  629   0.539   1.652   2.218 -0.8734  0.0676  0.1306
  158SOL    HW1  630   0.521   1.714   2.147 -1.7150 -1.7391  0.7970
  158SOL    HW2  631   0.460   1.645   2.265  2.0589 -0.1573 -1.7051
  158SOL     MW  632   0.526   1.659   2.215 -0.5975 -0.2004 -0.0237
  159SOL     OW  633   1.277   1.655   0.435 -0.3989 -0.5230  0.0328
  159SOL    HW1  634   1.237   1.581   0.388  0.3011 -0.7334 -0.4286
  159SOL    HW2  635   1.210   1.683   0.504  0.2603  0.4808 -0.2788
  159SOL     MW  636   1.263   1.649   0.438 -0.2196 -0.4183 -0.0692
  160SOL     OW  637   0.542   1.146   1.636 -0.1993 -0.4831  0.3185
  160SOL    HW1  638   0.508   1.056   1.645  0.3327  0.9107  1.8418
  160SOL    HW2  639   0.640   1.136   1.657  1.4235  0.5771 -1.6316
  160SOL     MW  640   0.551   1.133   1.640  0.0850 -0.1593  0.2622
  161SOL     OW  641   0.516   2.278   2.562  0.1250  0.8702  0.1606
  161SOL    HW1  642   0.430   2.255   2.601  1.1395  0.4755  0.6101
  161SOL    HW2  643   0.539   2.218   2.495  1.9026  0.9414  0.5844
  161SOL     MW  644   0.508   2.267   2.559  0.4934  0.8275  0.2758
  162SOL     OW  645   1.074   1.792   1.895  0.7475 -0.0129 -0.1038
  162SOL    HW1  646   1.110   1.869   1.940 -1.9890  2.9453 -0.3275
  162SOL    HW2  647   0.979   1.798   1.914  1.4209 -0.6293  2.2792
  162SOL     MW  648   1.066   1.803   1.904  0.4753  0.2961  0.1811
  163SOL     OW  649   2.099   0.011   0.912 -0.6226 -0.7284 -0.2223
  163SOL    HW1  650   2.096   0.070   0.829 -1.2824  1.5931 -0.3208
  163SOL    HW2  651   2.095  -0.080   0.890 -0.4626 -1.7152  1.3986
  163SOL     MW  652   2.098   0.007   0.898 -0.6886 -0.5523 -0.0215
  164SOL     OW  653   0.324   0.211   0.833 -0.2193 -0.0079 -0.4661
  164SOL    HW1  654   0.239   0.206   0.881 -3.4936  0.5705 -3.0684
  164SOL    HW2  655   0.331   0.137   0.777  0.4215 -0.6532 -1.9761
  164SOL     MW  656   0.313   0.201   0.832 -0.5668 -0.0168 -1.0087
  165SOL     OW  657   1.359   1.272   0.351 -0.1423  0.0868  0.2135
  165SOL    HW1  658   1.355   1.192   0.401  4.2205 -0.5817  0.2574
  165SOL    HW2  659   1.394   1.225   0.271  1.3298 -1.4947 -0.8065
  165SOL     MW  660   1.363   1.256   0.347  0.6276 -0.2101  0.0847
  166SOL     OW  661   0.533   1.199   1.004  0.1949  0.2632 -0.1047
  166SOL    HW1  662   0.515   1.206   1.094  0.2979  1.3591 -2.8917
  166SOL    HW2  663   0.625   1.157   1.006  0.9528 -3.1449  3.5471
  166SOL     MW  664   0.543   1.194   1.016  0.3085 -0.0419  0.0094
  167SOL     OW  665   0.784   1.052   0.298 -0.5013  0.8148  0.2222
  167SOL    HW1  666   0.737   1.145   0.302  0.1439  3.8720 -1.7156
  167SOL    HW2  667   0.873   1.060   0.253  1.1641  0.0014 -3.1628
  167SOL     MW  668   0.790   1.065   0.292 -0.1964  1.1108 -0.4801
  168SOL     OW  669   1.683   1.662   3.057  0.1992  0.0088 -0.2030
  168SOL    HW1  670   1.598   1.671   3.020 -1.6962 -0.7064  3.9609
  168SOL    HW2  671   1.705   1.573   3.037 -4.0288  3.0010 -0.5840
  168SOL     MW  672   1.675   1.651   3.049 -0.6088  0.3092  0.2961
  169SOL     OW  673   0.402   0.963   1.350  0.3313  0.4265 -0.2256
  169SOL    HW1  674   0.416   0.909   1.428  1.7903  1.7618 -2.7759
  169SOL    HW2  675   0.462   1.033   1.368 -0.3586  0.2761  0.5471
  169SOL     MW  676   0.412   0.965   1.362  0.4328  0.5828 -0.4601
  170SOL     OW  677   1.038   1.531   1.531  0.5471  0.2863  0.0678
  170SOL    HW1  678   0.973   1.600   1.559  0.7171  1.1769 -0.2836
  170SOL    HW2  679   1.056   1.543   1.439  0.8031 -0.2418  2.7607
  170SOL     MW  680   1.032   1.541   1.522  0.6033  0.3341  0.3768
  171SOL     OW  681   0.500   1.448   0.646  0.1666  0.1516  0.4673
  171SOL    HW1  682   0.506   1.449   0.748  0.5695  2.2075  1.9071
  171SOL    HW2  683   0.502   1.352   0.625 -0.9202 -2.1989 -0.1356
  171SOL     MW  684   0.501   1.435   0.657  0.0764  0.1128  0.5777
  172SOL     OW  685   0.887   0.349   1.254  0.2293 -0.4407  0.1368
  172SOL    HW1  686   0.864   0.341   1.159 -1.7544 -1.6849  0.5747
  172SOL    HW2  687   0.818   0.378   1.313  1.0824 -0.3438 -1.0718
  172SOL     MW  688   0.875   0.352   1.249  0.0802 -0.5921  0.0351
  173SOL     OW  689   0.436   1.690   0.377  0.1341 -0.0059  0.0662
  173SOL    HW1  690   0.464   1.607   0.332  0.3383  0.7035 -1.2564
  173SOL    HW2  691   0.478   1.697   0.466  1.3274 -1.1606 -1.8466
  173SOL     MW  692   0.445   1.680   0.383  0.3185 -0.0646 -0.3607
  174SOL     OW  693   1.832   0.977   1.563  0.2608 -0.0015  0.2337
  174SOL    HW1  694   1.816   0.880   1.559  0.6974 -2.2155  1.5530
  174SOL    HW2  695   1.802   1.000   1.474  2.5562 -1.3474  1.1507
  174SOL     MW  696   1.826   0.967   1.551  0.6213 -0.4712  0.5288
  175SOL     OW  697   0.503   1.465   0.237  0.0990 -0.8040 -0.2608
  175SOL    HW1  698   0.430   1.413   0.209 -2.8677 -1.0508 -2.0556
  175SOL    HW2  699   0.572   1.402   0.257 -0.3639  0.5525 -2.6632
  175SOL     MW  700   0.503   1.450   0.236 -0.3535 -0.6576 -0.8146
  176SOL     OW  701   0.199   1.504   1.190  0.3664  0.2635 -0.4741
  176SOL    HW1  702   0.178   1.443   1.121  2.0651  0.2949 -1.7537
  176SOL    HW2  703   0.109   1.530   1.227  3.4845  0.0493 -1.0447
  176SOL     MW  704   0.184   1.499   1.186  1.0019  0.2394 -0.7182
  177SOL     OW  705   0.659   0.475   1.409  0.0866  0.4172 -0.0375
  177SOL    HW1  706   0.591   0.516   1.355  2.9784 -0.5068 -0.2561
  177SOL    HW2  707   0.637   0.502   1.496 -2.8904 -0.0778 -2.9303
  177SOL     MW  708   0.647   0.484   1.413  0.0754  0.2300 -0.4480
  178SOL     OW  709   3.045   0.558   2.947  0.3398  0.7954  0.4378
  178SOL    HW1  710   2.989   0.605   3.004 -1.1407  1.6024 -1.1699
  178SOL    HW2  711   3.001   0.529   2.864  1.1558  0.7667  1.7571
  178SOL     MW  712   3.032   0.560   2.944  0.2521  0.8981  0.3998
  179SOL     OW  713   1.588   1.326   1.312 -0.0555  0.2102 -0.0700
  179SOL    HW1  714   1.589   1.343   1.407  0.5410  1.3677 -1.2445
  179SOL    HW2  715   1.678   1.341   1.295 -2.2817 -1.6337 -1.8593
  179SOL     MW  716   1.600   1.330   1.322 -0.2705  0.1196 -0.4610
  180SOL     OW  717   3.023   0.189   0.417  0.0541  0.0121  0.1339
  180SOL    HW1  718   2.944   0.184   0.362 -0.4625  1.8330  1.5727
  180SOL    HW2  719   3.067   0.266   0.377 -0.3189 -0.7731 -2.3323
  180SOL     MW  720   3.018   0.198   0.404 -0.0632  0.1488 -0.0017
  181SOL     OW  721   1.112   1.318   3.096  0.0804  0.2892 -0.0300
  181SOL    HW1  722   1.154   1.406   3.120  1.0351  1.5896  1.1412
  181SOL    HW2  723   1.181   1.266   3.062  0.0390  0.7365  2.4987
  181SOL     MW  724   1.127   1.323   3.095  0.2009  0.5198  0.4582
  182SOL     OW  725   0.466   0.851   1.592  0.5483 -0.4405 -0.1982
  182SOL    HW1  726   0.378   0.844   1.643 -0.3941  1.2979 -2.1706
  182SOL    HW2  727   0.539   0.812   1.646 -0.3429  0.2174 -2.0500
  182SOL     MW  728   0.464   0.845   1.606  0.3064 -0.1243 -0.7028
  183SOL     OW  729   1.594   1.551   1.140  0.2214  0.4406  0.2152
  183SOL    HW1  730   1.603   1.628   1.189 -1.8403  0.1556  0.3944
  183SOL    HW2  731   1.576   1.484   1.205  2.2034  0.6080 -1.6542
  183SOL     MW  732   1.593   1.552   1.155  0.2109  0.4251 -0.0078
  184SOL     OW  733   0.841   0.658   1.957 -0.2771 -0.2074  0.3060
  184SOL    HW1  734   0.915   0.667   1.891 -1.2630  0.9301 -2.2073
  184SOL    HW2  735   0.853   0.571   1.998  2.9035  0.3439 -0.7308
  184SOL     MW  736   0.852   0.648   1.954  0.0125  0.0154 -0.1624
  185SOL     OW  737   1.197   0.974   1.938 -0.1864 -0.5373  0.0362
  185SOL    HW1  738   1.176   0.893   1.985 -1.6934  1.1139 -2.1035
  185SOL    HW2  739   1.225   1.031   2.005 -1.1523 -0.3793 -1.4676
  185SOL     MW  740   1.198   0.971   1.953 -0.5127 -0.2986 -0.4445
  186SOL     OW  741   0.366   1.708   1.437 -0.1210 -0.1133 -0.2976
  186SOL    HW1  742   0.378   1.641   1.369 -1.9593 -1.9565 -1.1411
  186SOL    HW2  743   0.293   1.662   1.487  1.7635 -2.3230  0.2048
  186SOL     MW  744   0.358   1.693   1.434 -0.1149 -0.6480 -0.3426
  187SOL     OW  745   1.448   0.690   1.362 -0.1303  0.1970 -0.2792
  187SOL    HW1  746   1.454   0.660   1.451 -2.2592  0.2088 -0.7687
  187SOL    HW2  747   1.359   0.673   1.338  1.8481  1.3779 -0.9331
  187SOL     MW  748   1.437   0.684   1.371 -0.1502  0.3543 -0.4301
  188SOL     OW  749   1.895   1.158   0.937  0.1770 -0.4396  0.3428
  188SOL    HW1  750   1.930   1.159   1.030  0.0055  1.0481  0.0230
  188SOL    HW2  751   1.914   1.065   0.906 -2.0017 -0.3780 -1.7717
  188SOL     MW  752   1.902   1.146   0.945 -0.1331 -0.2352  0.0216
  189SOL     OW  753   0.658   0.825   0.825  0.0587  0.2382  0.5220
  189SOL    HW1  754   0.571   0.872   0.836 -0.4342  1.0660 -0.0369
  189SOL    HW2  755   0.718   0.884   0.863 -1.7251  1.3717  0.5831
  189SOL     MW  756   0.655   0.839   0.832 -0.2417  0.4970  0.4563
  190SOL     OW  757   1.912   0.218   2.162  0.3196  0.4001  0.2617
  190SOL    HW1  758   1.892   0.207   2.257  1.0611 -2.1626  0.3616
  190SOL    HW2  759   1.986   0.281   2.157  3.5097 -0.0444 -0.0752
  190SOL     MW  760   1.919   0.225   2.174  0.8384  0.0033  0.2304
  191SOL     OW  761   1.472   0.950   1.232 -0.1837  0.2416 -0.0349
  191SOL    HW1  762   1.426   1.021   1.279 -0.7987 -1.3354 -2.6596
  191SOL    HW2  763   1.460   0.870   1.281  0.8999  1.8852  2.0338
  191SOL     MW  764   1.464   0.949   1.245 -0.1219  0.2504 -0.1082
  192SOL     OW  765   0.609   2.131   2.769 -0.0543 -0.2539 -0.0767
  192SOL    HW1  766   0.570   2.162   2.688 -1.6295  1.5686 -2.6350
  192SOL    HW2  767   0.602   2.033   2.772 -0.2427 -0.0964 -3.1423
  192SOL     MW  768   0.603   2.122   2.759 -0.2870  0.0073 -0.8187
  193SOL     OW  769   0.987   1.558   0.736  0.1505 -0.1309 -0.0545
  193SOL    HW1  770   0.935   1.573   0.816 -0.6161 -2.5873 -4.3125
  193SOL    HW2  771   0.918   1.508   0.685 -1.3998 -1.3992 -0.5639
  193SOL     MW  772   0.971   1.553   0.740 -0.1552 -0.6223 -0.6835
  194SOL     OW  773   0.521   1.455   0.915  0.1137  0.2309 -0.6513
  194SOL    HW1  774   0.546   1.361   0.936 -0.5269 -0.3379  2.2137
  194SOL    HW2  775   0.429   1.460   0.932  0.5614  1.4879  0.2178
  194SOL     MW  776   0.512   1.443   0.920  0.0883  0.3217 -0.1586
  195SOL     OW  777   1.311   1.156   2.982  0.2864  0.3625  0.3080
  195SOL    HW1  778   1.355   1.183   3.062  0.9176  1.8434 -0.1747
  195SOL    HW2  779   1.266   1.080   3.006  1.3227 -0.5109 -2.4007
  195SOL     MW  780   1.311   1.150   2.996  0.5064  0.4426 -0.1131
  196SOL     OW  781   2.208   1.041   0.615 -0.2943  0.2384  0.1564
  196SOL    HW1  782   2.195   1.014   0.524  1.0967  2.8710  2.3860
  196SOL    HW2  783   2.186   1.139   0.609 -0.3575  2.1157  2.0522
  196SOL     MW  784   2.203   1.051   0.602 -0.1191  0.8334  0.7007
  197SOL     OW  785   0.637   1.258   2.108 -0.1443  1.0544  0.7303
  197SOL    HW1  786   0.669   1.170   2.077 -0.0521 -0.9653 -3.2594
  197SOL    HW2  787   0.621   1.298   2.020  1.1921  1.7294 -1.1146
  197SOL     MW  788   0.639   1.252   2.093  0.0442  0.8770 -0.0395
  198SOL     OW  789   2.934   1.387   1.090 -0.3779  0.1194 -0.0808
  198SOL    HW1  790   2.914   1.461   1.031  1.8105  0.7855 -0.9523
  198SOL    HW2  791   2.855   1.338   1.101  1.1469  1.9715 -0.4151
  198SOL     MW  792   2.921   1.390   1.084  0.1120  0.4517 -0.2399
  199SOL     OW  793   0.517   1.410   1.883 -0.7268  0.2959 -0.4429
  199SOL    HW1  794   0.450   1.345   1.900 -4.0138  1.8741  2.1751
  199SOL    HW2  795   0.511   1.443   1.794  5.2498 -4.1008 -0.0302
  199SOL     MW  796   0.507   1.406   1.874 -0.3720 -0.0760 -0.0430
  200SOL     OW  797   1.888   2.975   1.327  0.4325 -0.6730 -0.1253
  200SOL    HW1  798   1.919   2.953   1.242  1.7364 -2.4353  0.7714
  200SOL    HW2  799   1.813   3.028   1.315  1.6385  1.6112  3.7197
  200SOL     MW  800   1.882   2.979   1.314  0.7636 -0.6041  0.5003
  201SOL     OW  801   1.050   0.230   0.826 -0.0316  0.7854 -0.2131
  201SOL    HW1  802   1.023   0.174   0.750  1.0643  0.1204 -0.4632
  201SOL    HW2  803   1.147   0.253   0.828 -0.3497 -2.1412 -1.0764
  201SOL     MW  804   1.059   0.226   0.816  0.0710  0.3115 -0.3600
  202SOL     OW  805   1.505   1.554   0.867 -0.2192 -0.5480 -0.2497
  202SOL    HW1  806   1.465   1.476   0.833  0.8181 -0.4878  2.1872
  202SOL    HW2  807   1.524   1.532   0.960 -2.4779  0.9770  2.0547
  202SOL     MW  808   1.502   1.541   0.875 -0.3804 -0.3388  0.3759
  203SOL     OW  809   3.042   0.412   1.308 -0.1385 -0.3087  0.5394
  203SOL    HW1  810   3.129   0.356   1.313  2.7046 -1.6398 -0.4695
  203SOL    HW2  811   3.059   0.501   1.343 -0.9757  1.7549 -1.9161
  203SOL     MW  812   3.056   0.416   1.313  0.1261 -0.2121  0.0823
  204SOL     OW  813   1.042   1.745   0.560 -0.0806  0.1121  0.1704
  204SOL    HW1  814   1.027   1.672   0.619 -0.3366 -1.2306  1.7835
  204SOL    HW2  815   0.979   1.735   0.486  0.8411 -3.1722 -0.9978
  204SOL     MW  816   1.032   1.734   0.558  0.0073 -0.4984  0.2291
  205SOL     OW  817   1.397   0.030   1.371 -0.0840 -0.8158  0.2161
  205SOL    HW1  818   1.394   0.014   1.278 -0.8548  0.8898 -0.8139
  205SOL    HW2  819   1.333   0.100   1.375  1.4060  0.6929 -0.9683
  205SOL     MW  820   1.388   0.037   1.359  0.0109 -0.3917 -0.0761
  206SOL     OW  821   0.418   3.001   1.435  0.2146 -0.1453  0.5420
  206SOL    HW1  822   0.357   2.995   1.354  1.8529  0.5542 -0.4364
  206SOL    HW2  823   0.484   2.933   1.419  0.2647  1.3781 -2.2532
  206SOL     MW  824   0.418   2.991   1.423  0.4374  0.1480  0.0441
  207SOL     OW  825   0.906   1.563   0.201 -0.1040 -0.1903  0.6813
  207SOL    HW1  826   0.928   1.650   0.161  0.9104 -1.0331 -0.1610
  207SOL    HW2  827   0.989   1.542   0.254  2.2448 -1.2812 -3.7468
  207SOL     MW  828   0.920   1.572   0.203  0.3398 -0.4455 -0.0141
  208SOL     OW  829   0.708   1.643   1.358  0.6697 -0.8784 -0.3095
  208SOL    HW1  830   0.769   1.658   1.431  0.5117  1.5729 -0.1371
  208SOL    HW2  831   0.715   1.551   1.355 -0.8322 -0.3101  2.4267
  208SOL     MW  832   0.717   1.633   1.367  0.4507 -0.4800  0.0743
  209SOL     OW  833   1.543   0.494   2.992 -0.0465 -0.3424 -0.1911
  209SOL    HW1  834   1.564   0.587   3.008  2.1092  1.5151 -3.2852
  209SOL    HW2  835   1.621   0.467   2.943  2.2843  0.0563 -1.1435
  209SOL     MW  836   1.556   0.503   2.987  0.5454 -0.0447 -0.7250
  210SOL     OW  837   1.527   1.281   0.774 -0.1691  0.3452 -0.3449
  210SOL    HW1  838   1.620   1.300   0.764 -0.6029 -0.7800  3.9177
  210SOL    HW2  839   1.492   1.323   0.690 -0.8128  1.4995 -0.5078
  210SOL     MW  840   1.535   1.289   0.761 -0.3113  0.3490  0.1960
  211SOL     OW  841   1.698   0.291   0.920  0.4593 -0.5085  0.2022
  211SOL    HW1  842   1.690   0.341   0.837  0.8415 -1.0153 -0.2351
  211SOL    HW2  843   1.773   0.337   0.958  2.0973 -0.9399  0.4994
  211SOL     MW  844   1.707   0.304   0.914  0.7258 -0.6323  0.1837
  212SOL     OW  845   0.294   1.023   0.148  0.2586 -0.6450  0.2167
  212SOL    HW1  846   0.226   1.022   0.213 -0.7027  1.5628  0.0609
  212SOL    HW2  847   0.300   0.934   0.116  0.7413  0.7461  0.4193
  212SOL     MW  848   0.286   1.011   0.152  0.1954 -0.1702  0.2229
  213SOL     OW  849   0.546   1.687   3.063  0.4242 -0.1701  0.1971
  213SOL    HW1  850   0.531   1.726   3.145 -0.5384  0.4076 -0.6670
  213SOL    HW2  851   0.552   1.757   2.995 -0.9375 -0.0893 -0.3347
  213SOL     MW  852   0.545   1.702   3.065  0.1175 -0.0832  0.0130
  214SOL     OW  853   0.633   0.313   2.168  0.0260  0.7373 -0.2699
  214SOL    HW1  854   0.556   0.367   2.180  0.8836 -2.0021 -2.1598
  214SOL    HW2  855   0.701   0.357   2.115  2.3651 -0.9566 -1.3670
  214SOL     MW  856   0.632   0.326   2.163  0.4477  0.1524 -0.6640
  215SOL     OW  857   0.507   0.721   2.653  0.4326  0.3657  0.0970
  215SOL    HW1  858   0.485   0.683   2.562 -2.4526 -1.0333 -0.5497
  215SOL    HW2  859   0.432   0.682   2.699 -2.9137 -0.7018 -3.9642
  215SOL     MW  860   0.495   0.711   2.647 -0.3896  0.0402 -0.5242
  216SOL     OW  861   2.909   3.014   2.650 -0.0801 -0.8552 -0.2709
  216SOL    HW1  862   2.869   3.029   2.734  3.5922  4.3296 -0.6381
  216SOL    HW2  863   2.937   3.098   2.617 -2.1266 -0.0637 -0.6725
  216SOL     MW  864   2.908   3.027   2.657  0.1344 -0.0667 -0.3724
  217SOL     OW  865   1.011   1.082   0.125  0.5359 -0.1332  0.7015
  217SOL    HW1  866   1.036   1.016   0.065 -1.3276 -1.3174 -0.7783
  217SOL    HW2  867   1.055   1.165   0.102  2.3575 -0.3479 -1.3816
  217SOL     MW  868   1.020   1.084   0.114  0.5303 -0.3178  0.2314
  218SOL     OW  869   0.955   1.306   2.561 -0.5169 -0.0258  0.1178
  218SOL    HW1  870   0.975   1.263   2.645  0.5618  1.3137 -1.2354
  218SOL    HW2  871   1.022   1.373   2.541  0.0226 -0.3565 -1.2782
  218SOL     MW  872   0.966   1.309   2.569 -0.3034  0.1073 -0.2449
  219SOL     OW  873   1.136   0.408   2.645  0.2176 -0.6640  0.2904
  219SOL    HW1  874   1.184   0.479   2.685 -2.3408 -1.9002  0.2174
  219SOL    HW2  875   1.073   0.467   2.601  0.2619  0.6854  1.0262
  219SOL     MW  876   1.134   0.425   2.645 -0.1141 -0.6491  0.3779
  220SOL     OW  877   1.776   0.483   2.217  0.3427 -0.5891 -0.2765
  220SOL    HW1  878   1.685   0.477   2.179 -2.9978  0.1098 -2.8180
  220SOL    HW2  879   1.826   0.410   2.177 -0.7292 -0.4573  2.1144
  220SOL     MW  880   1.771   0.472   2.207 -0.2395 -0.4795 -0.2964
  221SOL     OW  881   0.388   1.310   2.971 -0.3707 -0.0659 -0.0289
  221SOL    HW1  882   0.446   1.264   2.905 -0.4981  1.8001 -0.0015
  221SOL    HW2  883   0.422   1.400   2.979  0.3252 -0.3583 -3.1917
  221SOL     MW  884   0.400   1.316   2.963 -0.2957  0.1417 -0.4426
  222SOL     OW  885   0.343   0.957   2.682  0.0047  0.4188  0.0405
  222SOL    HW1  886   0.313   1.008   2.605 -2.2658  1.3021 -0.3573
  222SOL    HW2  887   0.393   0.890   2.639  1.5821  1.5988 -0.9681
  222SOL     MW  888   0.346   0.955   2.666 -0.0868  0.6910 -0.1451
  223SOL     OW  889   0.023   2.022   2.516  0.2700  0.0755  0.2421
  223SOL    HW1  890   0.066   1.969   2.583  0.3283 -0.1628 -1.1869
  223SOL    HW2  891   0.090   2.075   2.474  2.3073 -1.1813 -0.9883
  223SOL     MW  892   0.038   2.022   2.519  0.5465 -0.1217 -0.1088
  224SOL     OW  893   1.505   0.737   2.595  0.3378 -0.5155  0.2001
  224SOL    HW1  894   1.521   0.785   2.681  1.4134  1.3695 -0.1130
  224SOL    HW2  895   1.475   0.809   2.544 -0.5230  1.3161  0.3315
  224SOL     MW  896   1.503   0.753   2.600  0.3662 -0.0252  0.1762
  225SOL     OW  897   2.899   1.427   2.278 -0.4207 -0.1566  0.5931
  225SOL    HW1  898   2.947   1.477   2.219 -2.0545 -3.2003 -0.0368
  225SOL    HW2  899   2.865   1.493   2.340  0.8261 -0.6041  0.6698
  225SOL     MW  900   2.901   1.442   2.279 -0.4718 -0.6172  0.5201
  226SOL     OW  901   0.458   1.499   2.715  0.0608  0.2018  0.3958
  226SOL    HW1  902   0.540   1.479   2.673  0.0422  0.4649 -0.1025
  226SOL    HW2  903   0.430   1.592   2.696  0.0370  2.4783 -0.2109
  226SOL     MW  904   0.465   1.509   2.707  0.0552  0.5369  0.2500
  227SOL     OW  905   0.540   1.127   2.837  0.5702 -0.2291 -0.1921
  227SOL    HW1  906   0.624   1.091   2.807  0.1858  0.5425  0.3513
  227SOL    HW2  907   0.482   1.091   2.769  0.2827 -0.6946  1.4531
  227SOL     MW  908   0.543   1.118   2.824  0.4815 -0.1887  0.0967
  228SOL     OW  909   0.748   0.967   2.028  0.2584  0.5877 -0.0827
  228SOL    HW1  910   0.836   0.977   1.996 -0.2150  1.1604 -0.9249
  228SOL    HW2  911   0.751   0.944   2.121 -0.5736  0.7667  2.0099
  228SOL     MW  912   0.760   0.965   2.036  0.0862  0.6869  0.0823
  229SOL     OW  913   0.178   0.621   3.087  0.0558  0.1015 -0.1365
  229SOL    HW1  914   0.108   0.603   3.023  0.6555  0.1874  0.7337
  229SOL    HW2  915   0.180   0.536   3.132 -1.4039  0.2735 -2.4532
  229SOL     MW  916   0.169   0.607   3.085 -0.0577  0.1355 -0.3273
  230SOL     OW  917   1.676   1.322   2.039 -0.1671 -0.8551 -0.6706
  230SOL    HW1  918   1.612   1.298   2.111 -1.0514  0.5000 -0.4010
  230SOL    HW2  919   1.748   1.258   2.042  0.9162  0.3064 -0.0131
  230SOL     MW  920   1.677   1.310   2.049 -0.1408 -0.5231 -0.5483
  231SOL     OW  921   2.710   1.252   2.223  0.1323 -0.2376 -0.0664
  231SOL    HW1  922   2.783   1.332   2.246  0.9595 -0.7088  0.4231
  231SOL    HW2  923   2.671   1.297   2.140  0.6857  1.4471  0.0090
  231SOL     MW  924   2.715   1.268   2.215  0.3144 -0.0775  0.0081
  232SOL     OW  925   2.230   0.846   2.016 -0.6909  0.7731 -0.0360
  232SOL    HW1  926   2.159   0.865   1.953 -1.5955 -0.9414  0.0112
  232SOL    HW2  927   2.210   0.893   2.102 -1.6889  1.9694  2.8342
  232SOL     MW  928   2.218   0.855   2.019 -0.9420  0.7047  0.3490
  233SOL     OW  929   2.058   0.435   2.058  0.0511 -0.0394  0.0235
  233SOL    HW1  930   2.130   0.375   2.023 -1.0463 -1.9441  3.4135
  233SOL    HW2  931   2.111   0.468   2.131  0.6692 -1.4267  0.1379
  233SOL     MW  932   2.075   0.431   2.063 -0.0121 -0.4737  0.4859
  234SOL     OW  933   0.226   1.062   2.436 -0.6163 -0.1644  0.9192
  234SOL    HW1  934   0.131   1.063   2.446  0.2594  0.5671 -4.3891
  234SOL    HW2  935   0.256   1.152   2.442 -0.6881 -1.0440  1.7629
  234SOL     MW  936   0.217   1.074   2.438 -0.5102 -0.1840  0.3301
  235SOL     OW  937   1.115   3.065   2.720 -0.2368 -0.4145  0.1302
  235SOL    HW1  938   1.163   3.022   2.789 -0.8253  0.1031 -0.7086
  235SOL    HW2  939   1.072   3.140   2.761  1.0204  1.3296 -1.7548
  235SOL     MW  940   1.116   3.069   2.734 -0.1485 -0.1161 -0.2292
  236SOL     OW  941   2.938   0.542   0.142 -0.2289  0.3773  0.3348
  236SOL    HW1  942   2.851   0.548   0.110 -0.6528 -0.4704  0.5354
  236SOL    HW2  943   2.985   0.623   0.126 -0.2581 -1.9899  0.9494
  236SOL     MW  944   2.933   0.554   0.136 -0.2887 -0.0468  0.4423
  237SOL     OW  945   1.998   1.113   2.175  0.0037  0.0290 -0.5291
  237SOL    HW1  946   1.934   1.080   2.108 -2.2360  1.9248  1.2343
  237SOL    HW2  947   2.045   1.036   2.216  0.8837 -2.9458 -0.6223
  237SOL     MW  948   1.995   1.099   2.172 -0.1757 -0.1133 -0.3087
  238SOL     OW  949   1.080   1.832   2.980  0.1338 -0.6130 -1.2995
  238SOL    HW1  950   1.037   1.747   2.963 -0.4204  0.5843  2.1870
  238SOL    HW2  951   1.175   1.818   2.980 -1.6039  2.3904 -0.6216
  238SOL     MW  952   1.087   1.819   2.978 -0.1686 -0.0587 -0.7500
  239SOL     OW  953   1.288   1.381   2.387  0.5241  0.2131 -0.7130
  239SOL    HW1  954   1.231   1.427   2.455  3.9002  0.4846  3.3224
  239SOL    HW2  955   1.303   1.300   2.428 -1.8289  0.5591  0.7138
  239SOL     MW  956   1.282   1.377   2.401  0.6591  0.2946  0.0077
  240SOL     OW  957   0.689   0.850   2.310 -0.7874  0.4541  0.4697
  240SOL    HW1  958   0.721   0.919   2.362 -1.8028  0.4519  1.6978
  240SOL    HW2  959   0.765   0.803   2.273  0.1327  0.7062  3.9392
  240SOL     MW  960   0.703   0.853   2.312 -0.8000  0.4871  1.0895
  241SOL     OW  961   0.676   0.400   0.031 -0.0432  0.3260 -0.4051
  241SOL    HW1  962   0.702   0.470   0.092  2.0560 -0.3117 -2.3321
  241SOL    HW2  963   0.593   0.433  -0.010  0.1467 -2.4914  2.5136
  241SOL     MW  964   0.668   0.413   0.034  0.2588 -0.1299 -0.2743
  242SOL     OW  965   1.511   1.712   2.336 -0.0731  0.3839 -0.0522
  242SOL    HW1  966   1.476   1.804   2.338 -2.1062 -0.4459 -1.9145
  242SOL    HW2  967   1.443   1.675   2.277 -0.8496 -0.5203 -1.4806
  242SOL     MW  968   1.497   1.720   2.328 -0.4438  0.1551 -0.4864
  243SOL     OW  969   1.040   0.195   2.504 -0.3167 -0.7703 -0.3904
  243SOL    HW1  970   1.117   0.173   2.451 -0.9093  0.3867  0.6337
  243SOL    HW2  971   1.079   0.263   2.554  0.4578 -0.7467 -1.0376
  243SOL     MW  972   1.055   0.201   2.503 -0.2927 -0.6145 -0.3406
  244SOL     OW  973   0.252   0.770   2.421 -0.6577 -0.1778 -0.3993
  244SOL    HW1  974   0.235   0.864   2.401  1.3752  0.8722 -0.1851
  244SOL    HW2  975   0.343   0.747   2.401 -0.7515  0.1641 -0.3654
  244SOL     MW  976   0.262   0.779   2.416 -0.4018  0.0059 -0.3665
  245SOL     OW  977   1.267   0.200   2.314 -0.0299 -0.1641  0.2703
  245SOL    HW1  978   1.335   0.132   2.326  1.9521 -1.8299 -2.3344
  245SOL    HW2  979   1.306   0.276   2.359  3.3726  1.2358  1.0219
  245SOL     MW  980   1.281   0.201   2.322  0.6805 -0.1992  0.0258
  246SOL     OW  981   1.250   1.183   2.107  0.4280 -0.4687 -0.8556
  246SOL    HW1  982   1.205   1.145   2.190 -0.0110 -0.8308  0.0348
  246SOL    HW2  983   1.341   1.191   2.138  3.7311 -2.7826  1.9845
  246SOL     MW  984   1.256   1.179   2.122  0.8059 -0.8217 -0.3634
  247SOL     OW  985   0.745   0.581   0.210 -0.5992  0.2255  0.1376
  247SOL    HW1  986   0.712   0.668   0.216 -2.5419 -1.1504 -2.3885
  247SOL    HW2  987   0.838   0.591   0.175  0.2894  3.1232  1.0966
  247SOL     MW  988   0.753   0.594   0.206 -0.7383  0.4263 -0.0692
  248SOL     OW  989   0.315   1.345   2.531 -0.3748 -0.7510  0.7102
  248SOL    HW1  990   0.379   1.362   2.459 -1.5030 -0.0927  0.8623
  248SOL    HW2  991   0.370   1.384   2.604  0.3882  1.2322 -0.8610
  248SOL     MW  992   0.331   1.352   2.531 -0.4230 -0.4025  0.5230
  249SOL     OW  993   0.177   1.893   2.738 -0.2034 -0.7595  0.1081
  249SOL    HW1  994   0.150   1.806   2.705 -0.0689  2.3613 -1.4934
  249SOL    HW2  995   0.211   1.868   2.825  1.2403  1.0961 -2.8493
  249SOL     MW  996   0.178   1.878   2.745  0.0048 -0.1029 -0.4934
  250SOL     OW  997   2.195   0.933   2.264  0.3243  0.4869  0.0102
  250SOL    HW1  998   2.230   0.843   2.287  2.1008  4.0700 -0.6445
  250SOL    HW2  999   2.246   0.996   2.317 -1.7180  2.6560  0.0385
  250SOL     MW 1000   2.206   0.929   2.274  0.2892  1.2458 -0.0724
  251SOL     OW 1001   0.148   0.895   1.978  0.3470  1.0391  0.0559
  251SOL    HW1 1002   0.101   0.826   2.031 -3.3051 -1.0986  0.4129
  251SOL    HW2 1003   0.145   0.860   1.893 -0.6678  2.3219 -1.3137
  251SOL     MW 1004   0.142   0.881   1.974 -0.2687  0.9263 -0.0777
  252SOL     OW 1005   1.734   0.991   2.848  0.4678  0.4045  0.0153
  252SOL    HW1 1006   1.737   1.036   2.932 -1.6349  0.1426  1.0116
  252SOL    HW2 1007   1.807   1.023   2.792 -0.0301  2.5960 -0.7291
  252SOL     MW 1008   1.744   1.001   2.852  0.1247  0.6591  0.0485
  253SOL     OW 1009   1.183   1.776   2.550  0.1370  0.4621 -0.2385
  253SOL    HW1 1010   1.170   1.773   2.450  1.0492  1.4597  0.8103
  253SOL    HW2 1011   1.106   1.833   2.564 -0.9974 -2.9447 -1.9610
  253SOL     MW 1012   1.171   1.783   2.539  0.1077  0.1442 -0.3274
  254SOL     OW 1013   1.064   1.019   2.242 -0.0112 -0.1933  0.1574
  254SOL    HW1 1014   1.042   0.937   2.283 -0.0243 -0.5055  1.3681
  254SOL    HW2 1015   0.995   1.089   2.265 -3.2321  1.8629 -0.4010
  254SOL     MW 1016   1.052   1.018   2.251 -0.4379  0.0368  0.2435
  255SOL     OW 1017   0.781   2.574   2.135  0.1258 -0.1195 -0.8045
  255SOL    HW1 1018   0.704   2.517   2.142  1.3793 -1.2178 -1.9991
  255SOL    HW2 1019   0.851   2.510   2.137 -0.5262  1.2329 -2.3754
  255SOL     MW 1020   0.780   2.558   2.136  0.2052 -0.0859 -1.1694
  256SOL     OW 1021   1.357   2.679   2.961  0.0599 -0.2432  0.2528
  256SOL    HW1 1022   1.356   2.601   2.910  2.5449  2.9051 -0.1359
  256SOL    HW2 1023   1.415   2.742   2.918 -3.0385 -0.2477 -1.9408
  256SOL     MW 1024   1.365   2.677   2.949 -0.0211  0.1716 -0.0879
  257SOL     OW 1025   0.165   1.885   0.062  0.8430  0.3019 -0.4728
  257SOL    HW1 1026   0.176   1.859   0.158 -0.8489 -0.9727 -1.0790
  257SOL    HW2 1027   0.207   1.824   0.004 -0.5445 -0.3586 -0.7561
  257SOL     MW 1028   0.172   1.874   0.067  0.4367  0.0466 -0.5902
  258SOL     OW 1029   0.805   1.042   2.465  0.9147  0.0708  0.2678
  258SOL    HW1 1030   0.809   1.104   2.386  0.3895 -0.7307  0.0600
  258SOL    HW2 1031   0.753   1.078   2.536 -1.8978 -1.8142  0.1516
  258SOL     MW 1032   0.799   1.055   2.464  0.4743 -0.2836  0.2251
  259SOL     OW 1033   0.840   0.392   2.359 -0.2408  0.1526 -0.5398
  259SOL    HW1 1034   0.753   0.350   2.342  3.9365 -4.1840  0.0610
  259SOL    HW2 1035   0.890   0.315   2.388  1.6186 -0.7740 -3.1917
  259SOL     MW 1036   0.835   0.376   2.361  0.5557 -0.5418 -0.8104
  260SOL     OW 1037   0.510   0.134   1.571 -0.2170 -0.1169  0.3829
  260SOL    HW1 1038   0.485   0.072   1.503 -0.1808 -2.1523  1.7417
  260SOL    HW2 1039   0.611   0.138   1.577  2.1992  0.5165  1.3191
  260SOL     MW 1040   0.520   0.127   1.563  0.1066 -0.3019  0.6857
  261SOL     OW 1041   1.139   0.729   2.024  0.0472 -0.0678  0.3028
  261SOL    HW1 1042   1.160   0.730   2.116  2.9754 -3.1554  0.5810
  261SOL    HW2 1043   1.196   0.656   1.991  0.0662 -3.6071  0.0553
  261SOL     MW 1044   1.150   0.719   2.032  0.4360 -0.9421  0.3069
  262SOL     OW 1045   1.027   0.305   0.147 -0.0156 -0.0853  0.1730
  262SOL    HW1 1046   1.124   0.306   0.160  0.2673  2.4452  1.2100
  262SOL    HW2 1047   0.994   0.223   0.102  2.5691 -0.1889 -1.8477
  262SOL     MW 1048   1.036   0.294   0.143  0.3627  0.2349  0.0432
  263SOL     OW 1049   0.401   0.019   2.449  0.0671 -0.0650 -0.3550
  263SOL    HW1 1050   0.315   0.067   2.440 -0.7471  0.5761 -0.0256
  263SOL    HW2 1051   0.456   0.049   2.376 -0.6171 -0.4858 -1.8530
  263SOL     MW 1052   0.397   0.030   2.438 -0.1306 -0.0359 -0.5092
  264SOL     OW 1053   1.461   1.364   1.841 -0.2289  0.0177 -0.1347
  264SOL    HW1 1054   1.394   1.304   1.870  1.7529 -1.2009 -0.4094
  264SOL    HW2 1055   1.539   1.336   1.895  0.4161  0.7174  2.2803
  264SOL     MW 1056   1.463   1.352   1.852  0.1177 -0.0508  0.1477
  265SOL     OW 1057   0.744   2.813   2.273  0.5938  0.2569 -0.3428
  265SOL    HW1 1058   0.754   2.731   2.226  0.3664  0.7794 -1.8063
  265SOL    HW2 1059   0.745   2.789   2.365 -0.4171  2.3523  2.6050
  265SOL     MW 1060   0.745   2.799   2.279  0.4304  0.6023 -0.1469
  266SOL     OW 1061   0.944   0.761   2.207 -0.9857 -0.0117 -0.0431
  266SOL    HW1 1062   0.923   0.748   2.117 -0.0955  0.3382  2.4566
  266SOL    HW2 1063   1.010   0.694   2.218  1.7778  1.3818 -0.4119
  266SOL     MW 1064   0.950   0.751   2.197 -0.5037  0.2183  0.2380
  267SOL     OW 1065   1.428   1.787   2.728  0.0756  0.2799 -0.6440
  267SOL    HW1 1066   1.480   1.711   2.706 -1.4008 -0.4987 -0.0573
  267SOL    HW2 1067   1.365   1.798   2.656 -3.9160 -1.9809 -1.9627
  267SOL     MW 1068   1.427   1.779   2.716 -0.6459 -0.1211 -0.7406
  268SOL     OW 1069   0.191   0.827   1.661 -0.1046 -0.1936  0.0218
  268SOL    HW1 1070   0.156   0.906   1.621 -0.3543 -0.7364  0.8560
  268SOL    HW2 1071   0.161   0.747   1.625 -1.1436  0.2082  0.1873
  268SOL     MW 1072   0.183   0.827   1.651 -0.2747 -0.2122  0.1537
  269SOL     OW 1073   1.416   1.974   2.383  0.0128  0.3129  0.2001
  269SOL    HW1 1074   1.461   2.057   2.394 -1.8814 -0.1227  1.1105
  269SOL    HW2 1075   1.330   1.973   2.424 -3.7577  1.2605  1.6265
  269SOL     MW 1076   1.411   1.985   2.390 -0.7346  0.3805  0.5084
  270SOL     OW 1077   1.122   0.429   1.627  0.0274 -0.0399 -0.5151
  270SOL    HW1 1078   1.086   0.341   1.633  0.7123 -2.3295 -0.0882
  270SOL    HW2 1079   1.215   0.416   1.624  0.5586  2.8906 -0.9907
  270SOL     MW 1080   1.130   0.416   1.627  0.1878  0.0446 -0.5215
  271SOL     OW 1081   0.851   0.008   2.568  0.3456  0.1994  0.4650
  271SOL    HW1 1082   0.889  -0.071   2.607  1.0435 -1.8424 -0.3534
  271SOL    HW2 1083   0.927   0.060   2.551  0.0169 -2.1210 -0.0498
  271SOL     MW 1084   0.866   0.004   2.571  0.3943 -0.3762  0.2891
  272SOL     OW 1085   1.474   2.856   2.772  0.7862 -0.4775 -0.7407
  272SOL    HW1 1086   1.438   2.840   2.684 -1.1067  0.5545 -2.4736
  272SOL    HW2 1087   1.489   2.949   2.775 -1.2941  2.8930 -0.7962
  272SOL     MW 1088   1.471   2.866   2.761  0.2620  0.1034 -0.9767
  273SOL     OW 1089   1.469   0.965   2.803  0.4455 -0.3727 -0.1772
  273SOL    HW1 1090   1.562   0.988   2.799 -3.1150 -0.7265 -0.0819
  273SOL    HW2 1091   1.428   1.041   2.844  1.1845  1.6164 -2.4961
  273SOL     MW 1092   1.476   0.978   2.808  0.0732 -0.1569 -0.4706
  274SOL     OW 1093   1.464   0.696   0.100  0.4653 -0.3736 -0.0713
  274SOL    HW1 1094   1.503   0.639   0.166 -0.4212 -1.0562 -0.1303
  274SOL    HW2 1095   1.366   0.712   0.127 -0.8050 -1.3377 -0.0703
  274SOL     MW 1096   1.456   0.691   0.112  0.1808 -0.5908 -0.0789
  275SOL     OW 1097   1.702   0.572   1.763 -0.2229 -0.1590  0.3194
  275SOL    HW1 1098   1.777   0.613   1.805 -0.9856  0.6654  1.7250
  275SOL    HW2 1099   1.703   0.478   1.791  0.0998 -0.6964  4.9790
  275SOL     MW 1100   1.712   0.565   1.772 -0.2810 -0.1211  1.1196
  276SOL     OW 1101   0.319   1.223   1.903 -0.5805  0.0541 -0.0312
  276SOL    HW1 1102   0.372   1.145   1.934  3.5096 -0.7356 -2.2535
  276SOL    HW2 1103   0.246   1.213   1.961 -0.2653  0.7919  1.5446
  276SOL     MW 1104   0.316   1.212   1.915  0.0007  0.0473 -0.1165
  277SOL     OW 1105   1.915   1.230   2.415 -0.1152 -0.4716  0.6116
  277SOL    HW1 1106   1.987   1.284   2.454 -0.1175 -4.0785  0.8163
  277SOL    HW2 1107   1.946   1.191   2.327  3.2284 -2.4386  2.3006
  277SOL     MW 1108   1.929   1.232   2.408  0.3256 -1.2070  0.8615
  278SOL     OW 1109   1.423   0.618   1.707 -0.6494  0.9346 -0.1921
  278SOL    HW1 1110   1.366   0.590   1.783  0.7247  1.5207  0.0825
  278SOL    HW2 1111   1.503   0.624   1.755  0.3601  1.5020 -0.2605
  278SOL     MW 1112   1.426   0.615   1.723 -0.3349  1.0868 -0.1649
  279SOL     OW 1113   0.594   0.062   2.259 -0.7657  0.8429 -0.1066
  279SOL    HW1 1114   0.681   0.027   2.280  0.9292  1.7856  0.2204
  279SOL    HW2 1115   0.615   0.149   2.230 -0.2728 -1.6880 -3.3338
  279SOL     MW 1116   0.608   0.068   2.258 -0.4771  0.6333 -0.4892
  280SOL     OW 1117   1.507   0.984   2.136  0.0422 -0.0821 -0.6243
  280SOL    HW1 1118   1.555   0.920   2.085  1.3944 -0.6316  1.3103
  280SOL    HW2 1119   1.510   0.954   2.232  1.2875  0.8400 -1.9966
  280SOL     MW 1120   1.514   0.971   2.142  0.3849 -0.0329 -0.5501
  281SOL     OW 1121   1.321   1.350   2.784  0.5803 -0.2654 -0.0880
  281SOL    HW1 1122   1.414   1.345   2.778 -2.4826  1.2774  0.8302
  281SOL    HW2 1123   1.299   1.293   2.854 -2.1477 -0.2297 -1.3631
  281SOL     MW 1124   1.330   1.342   2.792 -0.1838 -0.0571 -0.1350
  282SOL     OW 1125   1.110   1.292   1.680 -0.3491  0.5027 -0.1485
  282SOL    HW1 1126   1.088   1.370   1.623 -2.9938  2.4917  2.1857
  282SOL    HW2 1127   1.069   1.305   1.764 -2.4845 -0.6813 -3.3052
  282SOL     MW 1128   1.102   1.304   1.683 -0.9798  0.6089 -0.2570
  283SOL     OW 1129   0.815   1.217   2.984 -0.4046  0.2590 -0.4182
  283SOL    HW1 1130   0.841   1.163   3.063 -1.3553  1.5318  0.9003
  283SOL    HW2 1131   0.796   1.304   3.027  0.2778  1.5125  0.7067
  283SOL     MW 1132   0.816   1.221   3.000 -0.4400  0.5923 -0.0958
  284SOL     OW 1133   0.501   0.669   2.381  0.1100  0.3409 -0.1189
  284SOL    HW1 1134   0.586   0.724   2.363 -1.0565 -0.2075  0.0568
  284SOL    HW2 1135   0.487   0.599   2.319 -0.6156 -0.7305 -1.3192
  284SOL     MW 1136   0.510   0.667   2.370 -0.1396  0.1272 -0.2541
  285SOL     OW 1137   0.966   0.875   2.815  0.3242 -1.0811  0.0174
  285SOL    HW1 1138   0.997   0.906   2.730  0.2612  1.6190  0.4366
  285SOL    HW2 1139   0.908   0.795   2.805  2.3881 -0.8322  0.3108
  285SOL     MW 1140   0.963   0.869   2.802  0.5882 -0.6920  0.1114
  286SOL     OW 1141   1.139   1.503   2.583 -0.5826  0.1826  1.0477
  286SOL    HW1 1142   1.184   1.472   2.657 -1.0799  0.5920  1.1435
  286SOL    HW2 1143   1.146   1.599   2.587 -2.3839 -2.8832 -1.6128
  286SOL     MW 1144   1.146   1.511   2.593 -0.8859 -0.1679  0.7093
  287SOL     OW 1145   1.132   0.924   0.332 -0.2059 -0.1500 -0.0793
  287SOL    HW1 1146   1.196   0.978   0.373  2.2707 -3.0225 -2.9119
  287SOL    HW2 1147   1.081   0.985   0.280  0.4419 -0.7011 -0.5686
  287SOL     MW 1148   1.134   0.939   0.330  0.2064 -0.6017 -0.5176
  288SOL     OW 1149   1.536   0.576   2.106  0.3430 -0.5437 -0.2447
  288SOL    HW1 1150   1.498   0.602   2.190 -4.9651 -0.3660 -1.3928
  288SOL    HW2 1151   1.560   0.653   2.057 -1.6212  0.0624  1.3068
  288SOL     MW 1152   1.534   0.590   2.111 -0.6165 -0.4403 -0.1915
  289SOL     OW 1153   1.055   1.021   2.581 -0.2915 -0.9040 -0.1096
  289SOL    HW1 1154   1.064   0.929   2.568  0.7263  0.8262  1.6562
  289SOL    HW2 1155   0.972   1.047   2.536 -2.2630  0.3980  0.0380
  289SOL     MW 1156   1.045   1.012   2.573 -0.4173 -0.5039  0.1428
  290SOL     OW 1157   0.842   0.632   1.595  0.4187  0.0463  0.1439
  290SOL    HW1 1158   0.884   0.596   1.516  0.2261  1.2652 -0.3594
  290SOL    HW2 1159   0.910   0.663   1.660 -1.6516  2.0454 -0.2910
  290SOL     MW 1160   0.857   0.631   1.593  0.1202  0.4709  0.0201
  291SOL     OW 1161   0.215   0.372   0.091 -0.2161 -0.0699 -0.3618
  291SOL    HW1 1162   0.251   0.297   0.142 -3.0064  1.1394  2.0756
  291SOL    HW2 1163   0.169   0.329   0.014 -2.9626 -2.8097  1.3165
  291SOL     MW 1164   0.214   0.356   0.087 -0.9466 -0.2718  0.1812
  292SOL     OW 1165   1.003   0.574   0.088  0.1462 -0.5947 -0.5047
  292SOL    HW1 1166   1.069   0.628   0.120 -3.1181 -0.8748 -1.2227
  292SOL    HW2 1167   1.021   0.480   0.108 -0.0956 -0.2152 -2.1933
  292SOL     MW 1168   1.014   0.569   0.095 -0.3164 -0.5816 -0.8222
  293SOL     OW 1169   0.152   0.148   2.401  0.0966  0.1712 -0.0168
  293SOL    HW1 1170   0.096   0.097   2.338 -0.2002  3.3530 -1.4365
  293SOL    HW2 1171   0.105   0.168   2.481  1.8278 -1.8404 -0.3921
  293SOL     MW 1172   0.138   0.144   2.403  0.2858  0.3256 -0.2536
  294SOL     OW 1173   1.466   0.608   2.363 -0.2291 -1.0736  0.0218
  294SOL    HW1 1174   1.489   0.670   2.437  0.7567  2.3148  0.3334
  294SOL    HW2 1175   1.453   0.518   2.387 -1.0920 -0.9603 -1.0891
  294SOL     MW 1176   1.468   0.604   2.376 -0.2129 -0.6116 -0.0837
  295SOL     OW 1177   0.943   0.562   2.536 -0.4444 -0.0717  0.4546
  295SOL    HW1 1178   0.896   0.506   2.479 -1.5728  2.0706 -1.1536
  295SOL    HW2 1179   0.889   0.611   2.588  2.1039 -1.0912  0.1540
  295SOL     MW 1180   0.930   0.561   2.535 -0.2570  0.0764  0.2028
  296SOL     OW 1181   1.318   0.267   2.035 -0.4340  0.6618 -0.1647
  296SOL    HW1 1182   1.402   0.216   2.040 -0.4779 -1.6914 -0.0773
  296SOL    HW2 1183   1.293   0.273   2.133 -0.0494  1.6167 -0.8475
  296SOL     MW 1184   1.326   0.261   2.049 -0.3890  0.4773 -0.2432
  297SOL     OW 1185   1.381   0.375   1.605 -0.0106  0.0211 -0.4734
  297SOL    HW1 1186   1.414   0.455   1.647 -1.5375  3.9531 -1.9478
  297SOL    HW2 1187   1.437   0.306   1.631 -0.8535  1.2603 -0.1558
  297SOL     MW 1188   1.392   0.376   1.614 -0.3233  0.7034 -0.6260
  298SOL     OW 1189   1.634   0.816   1.982 -0.4024  0.2886  0.0553
  298SOL    HW1 1190   1.665   0.893   1.934  1.1131  0.7305 -0.5126
  298SOL    HW2 1191   1.692   0.793   2.058  1.3174  1.7632 -0.7836
  298SOL     MW 1192   1.646   0.823   1.986  0.0245  0.5415 -0.1303
  299SOL     OW 1193   0.577   1.065   0.068  0.0484 -0.2358  0.1024
  299SOL    HW1 1194   0.604   1.113  -0.015  1.2696  3.0513 -0.9544
  299SOL    HW2 1195   0.488   1.035   0.063 -1.0554  2.5597  2.2194
  299SOL     MW 1196   0.569   1.068   0.057  0.0639  0.5668  0.2423
  300SOL     OW 1197   1.302   1.149   2.527  0.1863  0.2324  0.0552
  300SOL    HW1 1198   1.219   1.101   2.526  0.2107 -0.4890  0.2469
  300SOL    HW2 1199   1.292   1.209   2.601  2.2989  3.1333  0.2147
  300SOL     MW 1200   1.290   1.151   2.537  0.4683  0.5200  0.1015
  301SOL     OW 1201   1.476   0.906   0.649  0.5911 -0.4892  0.3740
  301SOL    HW1 1202   1.476   0.921   0.746  0.9098  0.6775 -1.6654
  301SOL    HW2 1203   1.398   0.855   0.639  0.2613 -0.0436 -2.2501
  301SOL     MW 1204   1.466   0.901   0.660  0.5897 -0.2765 -0.2413
  302SOL     OW 1205   0.124   1.531   2.009  0.0020 -0.1834  0.3338
  302SOL    HW1 1206   0.148   1.484   2.096  1.0856  0.6568  4.1212
  302SOL    HW2 1207   0.040   1.583   2.031  1.0867  1.2920 -2.0338
  302SOL     MW 1208   0.116   1.532   2.024  0.2881  0.1221  0.5211
  303SOL     OW 1209   0.424   1.769   2.592  0.3983  0.8730  0.6262
  303SOL    HW1 1210   0.387   1.737   2.509  3.2858 -0.5144 -0.0901
  303SOL    HW2 1211   0.358   1.825   2.642  0.8689 -0.6539 -0.5677
  303SOL     MW 1212   0.411   1.772   2.588  0.8414  0.4885  0.3742
  304SOL     OW 1213   0.555   2.076   2.379 -0.6912 -0.1578 -0.0266
  304SOL    HW1 1214   0.612   2.107   2.306 -1.5143 -0.5294  1.2263
  304SOL    HW2 1215   0.595   1.989   2.407  1.3804 -0.2810 -1.1772
  304SOL     MW 1216   0.568   2.069   2.373 -0.5264 -0.2231 -0.0131
  305SOL     OW 1217   1.096   0.560   0.468  0.4251 -0.3037  0.2890
  305SOL    HW1 1218   1.001   0.540   0.463  0.0706 -1.1049  0.1471
  305SOL    HW2 1219   1.124   0.479   0.513 -0.6634  1.1636  0.7439
  305SOL     MW 1220   1.087   0.547   0.473  0.2347 -0.2158  0.3303
  306SOL     OW 1221   1.169   1.458   0.288 -0.1015  0.6810  0.4736
  306SOL    HW1 1222   1.214   1.376   0.321  1.8520  1.7321 -0.4223
  306SOL    HW2 1223   1.218   1.477   0.205 -0.9343 -2.9521  1.7277
  306SOL     MW 1224   1.182   1.449   0.281  0.0463  0.3403  0.5209
  307SOL     OW 1225   1.313   0.537   1.944  0.2369  0.2286 -0.3161
  307SOL    HW1 1226   1.293   0.439   1.955  0.9489 -1.7895  0.5481
  307SOL    HW2 1227   1.361   0.568   2.022 -0.6774 -0.4820  1.7427
  307SOL     MW 1228   1.317   0.528   1.956  0.2102 -0.1315  0.0696
  308SOL     OW 1229   2.158   0.523   2.726  0.0742 -0.2133  0.1354
  308SOL    HW1 1230   2.249   0.520   2.753  2.9405 -0.1523  1.8830
  308SOL    HW2 1231   2.139   0.615   2.705  1.2014 -2.1308  1.1361
  308SOL     MW 1232   2.167   0.535   2.727  0.6011 -0.4582  0.4981
  309SOL     OW 1233   0.470   0.454   0.349  0.1692  0.2618 -0.0537
  309SOL    HW1 1234   0.554   0.434   0.395  2.3301  1.8606  0.7477
  309SOL    HW2 1235   0.439   0.367   0.326  2.9201 -0.8664 -1.7506
  309SOL     MW 1236   0.477   0.440   0.352  0.8172  0.3239 -0.1718
  310SOL     OW 1237   0.440   0.658   1.956 -0.2416 -0.0710  0.3211
  310SOL    HW1 1238   0.473   0.582   1.918 -0.8281  1.7349  1.1792
  310SOL    HW2 1239   0.500   0.720   1.912  0.8942  2.3052 -1.4159
  310SOL     MW 1240   0.453   0.656   1.945 -0.1691  0.4808  0.2051
  311SOL     OW 1241   1.916   0.642   1.919 -0.0856 -0.0096  0.5239
  311SOL    HW1 1242   1.909   0.697   2.001 -0.0124  0.6126 -0.8968
  311SOL    HW2 1243   1.987   0.585   1.945 -2.5121 -0.6950 -0.2723
  311SOL     MW 1244   1.925   0.642   1.933 -0.3961 -0.0180  0.2314
  312SOL     OW 1245   1.818   2.511   0.119  0.5005  0.1049  0.1100
  312SOL    HW1 1246   1.884   2.506   0.190  1.4332  0.8122  0.7334
  312SOL    HW2 1247   1.740   2.546   0.161  2.2476 -0.9050 -1.6636
  312SOL     MW 1248   1.816   2.515   0.134  0.8541  0.0650 -0.0418
  313SOL     OW 1249   0.141   1.069   2.965  0.4440  0.2236  0.1756
  313SOL    HW1 1250   0.074   1.110   3.020  0.2274 -1.1415  0.5381
  313SOL    HW2 1251   0.207   1.136   2.937  0.9597  0.9838 -1.8338
  313SOL     MW 1252   0.141   1.083   2.969  0.4834  0.1438 -0.0417
  314SOL     OW 1253   2.187   2.964   2.965 -0.1991  0.4900  0.2757
  314SOL    HW1 1254   2.123   3.024   2.930  2.2331  0.5451  1.1418
  314SOL    HW2 1255   2.252   3.020   3.012  2.3607 -3.9025 -1.5842
  314SOL     MW 1256   2.187   2.979   2.967  0.4596 -0.0823  0.1446
  315SOL     OW 1257   1.522   1.933   0.014  0.4628  0.0623 -0.4649
  315SOL    HW1 1258   1.452   1.950   0.081  1.4362 -2.0580 -0.1580
  315SOL    HW2 1259   1.518   1.999  -0.061 -0.1674 -1.7648  0.1949
  315SOL     MW 1260   1.513   1.944   0.013  0.5080 -0.4585 -0.3373
  316SOL     OW 1261   1.299   0.643   2.718  0.4588 -0.4792 -0.3888
  316SOL    HW1 1262   1.370   0.680   2.671  1.2795 -2.3181 -0.6783
  316SOL    HW2 1263   1.307   0.683   2.802  0.0875 -1.1802  0.2998
  316SOL     MW 1264   1.310   0.653   2.723  0.5181 -0.8143 -0.3361
  317SOL     OW 1265   0.692   1.409   2.548 -0.5012 -0.0744  0.2421
  317SOL    HW1 1266   0.781   1.367   2.559 -0.3716 -0.0979 -1.3772
  317SOL    HW2 1267   0.710   1.476   2.468 -0.9677  1.5529 -3.0031
  317SOL     MW 1268   0.706   1.412   2.539 -0.5457  0.1372 -0.3997
  318SOL     OW 1269   1.312   0.351   2.926 -0.3310 -0.0806  0.1959
  318SOL    HW1 1270   1.219   0.394   2.941 -1.1275 -0.0913  2.4443
  318SOL    HW2 1271   1.378   0.416   2.950 -1.0073 -0.5939  1.7365
  318SOL     MW 1272   1.308   0.366   2.931 -0.5253 -0.1498  0.6958
  319SOL     OW 1273   0.788   0.443   2.875 -0.1775 -0.0944 -0.2726
  319SOL    HW1 1274   0.773   0.363   2.823  0.3830 -0.8706 -1.4462
  319SOL    HW2 1275   0.754   0.433   2.967 -1.2171  3.6720  0.6334
  319SOL     MW 1276   0.781   0.431   2.880 -0.2407  0.3001 -0.3079
  320SOL     OW 1277   1.058   1.353   2.029  0.0274  0.2074  0.6499
  320SOL    HW1 1278   1.124   1.298   2.073  0.2366 -0.0066  0.8284
  320SOL    HW2 1279   1.116   1.422   1.986  0.9422  0.3123 -1.9197
  320SOL     MW 1280   1.074   1.355   2.029  0.1757  0.1930  0.3344
  321SOL     OW 1281   1.155   0.909   3.032 -0.4270  0.1392  0.0148
  321SOL    HW1 1282   1.080   0.894   2.974  0.1145  1.4918 -3.7241
  321SOL    HW2 1283   1.218   0.839   3.019 -1.3051  2.2428  0.2506
  321SOL     MW 1284   1.154   0.898   3.023 -0.4714  0.5952 -0.4474
  322SOL     OW 1285   1.241   0.871   1.689 -0.6359 -0.0697 -0.0917
  322SOL    HW1 1286   1.313   0.811   1.696  0.8226  0.9566 -0.4076
  322SOL    HW2 1287   1.210   0.895   1.781  0.2539  1.1034 -1.2331
  322SOL     MW 1288   1.246   0.866   1.702 -0.3261  0.2205 -0.2840
  323SOL     OW 1289   1.204   1.534   1.909 -0.4977 -0.1050 -0.5407
  323SOL    HW1 1290   1.279   1.516   1.848  1.0381  0.6663  0.4920
  323SOL    HW2 1291   1.162   1.616   1.894  0.5668  1.3009 -0.6419
  323SOL     MW 1292   1.208   1.543   1.899 -0.1546  0.1823 -0.4178
  324SOL     OW 1293   1.475   0.948   2.421 -0.0292  0.3411  0.3897
  324SOL    HW1 1294   1.416   1.017   2.451  2.8928 -2.7616 -1.9013
  324SOL    HW2 1295   1.565   0.980   2.445  0.5432 -3.6070  0.2339
  324SOL     MW 1296   1.479   0.961   2.428  0.4319 -0.5892  0.0669
  325SOL     OW 1297   1.077   0.489   2.936  0.5011  0.4749 -0.9045
  325SOL    HW1 1298   1.068   0.524   3.027 -0.6988 -3.1280  1.6645
  325SOL    HW2 1299   0.989   0.479   2.894  3.5630  1.6420 -0.6578
  325SOL     MW 1300   1.064   0.492   2.942  0.7468  0.1535 -0.5330
  326SOL     OW 1301   0.462   1.369   2.310  0.0949 -0.4577  0.0887
  326SOL    HW1 1302   0.505   1.321   2.241 -0.8974 -0.1574 -1.9168
  326SOL    HW2 1303   0.483   1.460   2.285  0.7960  2.4223  1.4376
  326SOL     MW 1304   0.471   1.375   2.298  0.0565 -0.0381  0.0021
  327SOL     OW 1305   1.931   0.795   2.443 -0.2096 -0.3059 -0.0794
  327SOL    HW1 1306   1.872   0.765   2.516 -1.4191 -0.2909  1.0473
  327SOL    HW2 1307   2.020   0.780   2.485  0.4420 -1.4398 -0.1066
  327SOL     MW 1308   1.935   0.789   2.458 -0.2832 -0.4535  0.0657
  328SOL     OW 1309   0.194   1.387   2.221  0.1935  0.9165 -1.1017
  328SOL    HW1 1310   0.176   1.299   2.193 -0.7661 -0.5623  0.3526
  328SOL    HW2 1311   0.289   1.392   2.243 -1.1815  0.0158 -1.2035
  328SOL     MW 1312   0.204   1.376   2.220 -0.1145  0.6025 -0.9232
  329SOL     OW 1313   0.149   0.245   1.361 -0.2319  0.2866  0.6214
  329SOL    HW1 1314   0.124   0.229   1.454  2.3960  0.8822 -1.3812
  329SOL    HW2 1315   0.243   0.267   1.365 -0.0210  2.3512  3.5226
  329SOL     MW 1316   0.158   0.246   1.374  0.1426  0.6376  0.7400
  330SOL     OW 1317   0.372   0.021   2.094 -0.1451  0.0625  0.5900
  330SOL    HW1 1318   0.455   0.021   2.149  1.8895 -0.0932  0.4490
  330SOL    HW2 1319   0.318  -0.050   2.137  0.1852 -0.4206  1.0386
  330SOL     MW 1320   0.376   0.011   2.107  0.1669 -0.0217  0.6306
  331SOL     OW 1321   0.896   1.234   2.258  0.0980  0.6032 -0.0855
  331SOL    HW1 1322   0.839   1.292   2.205 -0.2510 -1.4977  1.1741
  331SOL    HW2 1323   0.924   1.282   2.334 -2.0166 -0.1090 -1.0319
  331SOL     MW 1324   0.892   1.248   2.261 -0.2271  0.2321 -0.0442
  332SOL     OW 1325   1.344   1.787   2.982  0.3021  0.2601  0.0231
  332SOL    HW1 1326   1.377   1.794   2.888 -0.7913  0.9402  0.3279
  332SOL    HW2 1327   1.407   1.833   3.038  0.3417 -4.4992 -1.4897
  332SOL     MW 1328   1.357   1.794   2.977  0.1631 -0.2781 -0.1363
  333SOL     OW 1329   1.778   1.394   2.975 -0.8045  0.1391 -0.1958
  333SOL    HW1 1330   1.871   1.411   2.999 -3.3549 -2.1785 -2.6841
  333SOL    HW2 1331   1.753   1.333   3.043  0.7361  0.7052 -1.9099
  333SOL     MW 1332   1.787   1.388   2.987 -0.9377 -0.0920 -0.7502
  334SOL     OW 1333   1.359   0.016   2.614 -0.5656  0.3011 -0.2799
  334SOL    HW1 1334   1.266   0.006   2.638 -1.2248 -1.4725 -0.8073
  334SOL    HW2 1335   1.387   0.099   2.656 -0.0068  0.4546 -0.4386
  334SOL     MW 1336   1.350   0.026   2.623 -0.5789  0.0873 -0.3704
  335SOL     OW 1337   1.368   0.749   2.957  0.1166  0.0452  0.4637
  335SOL    HW1 1338   1.412   0.723   3.041 -0.0940 -0.4674  1.2553
  335SOL    HW2 1339   1.407   0.824   2.917 -3.6624  1.3956  0.8839
  335SOL     MW 1340   1.379   0.755   2.963 -0.4098  0.1557  0.6236
  336SOL     OW 1341   0.959   1.122   1.916 -0.1289  0.1189 -0.8363
  336SOL    HW1 1342   0.953   1.211   1.959 -1.6085 -1.3355 -0.7141
  336SOL    HW2 1343   1.032   1.073   1.951 -1.8302  3.0831  2.9481
  336SOL     MW 1344   0.968   1.127   1.927 -0.5486  0.3181 -0.3208
  337SOL     OW 1345   0.595   1.821   2.785  0.7904 -0.3516  0.1102
  337SOL    HW1 1346   0.536   1.818   2.711 -2.0434  1.4027 -0.1694
  337SOL    HW2 1347   0.665   1.769   2.750 -1.6971  0.3385 -1.4957
  337SOL     MW 1348   0.596   1.814   2.771  0.0883 -0.0291 -0.1386
  338SOL     OW 1349   1.127   0.767   2.535  0.2391  0.1451  0.4582
  338SOL    HW1 1350   1.059   0.698   2.519 -1.3053  1.1633 -1.3337
  338SOL    HW2 1351   1.191   0.744   2.605  0.3703  0.4176  1.3521
  338SOL     MW 1352   1.126   0.755   2.542  0.0526  0.3154  0.3397
  339SOL     OW 1353   1.473   1.030   1.832  0.0716  0.3632 -0.1078
  339SOL    HW1 1354   1.440   1.075   1.758  0.6174 -0.3282 -2.2272
  339SOL    HW2 1355   1.402   1.007   1.894 -0.1169  1.3657  1.0914
  339SOL     MW 1356   1.459   1.033   1.830  0.1187  0.4042 -0.2292
  340SOL     OW 1357   1.302   1.543   0.060  0.1581 -0.2733 -0.3806
  340SOL    HW1 1358   1.309   1.625   0.009 -0.0550  3.3214  0.7893
  340SOL    HW2 1359   1.388   1.520   0.086  0.2555 -0.0823  0.1573
  340SOL     MW 1360   1.314   1.551   0.056  0.1428  0.2262 -0.1553
  341SOL     OW 1361   0.128   1.425   2.753 -0.5242  0.0406  0.3983
  341SOL    HW1 1362   0.225   1.411   2.751  0.8557 -2.2665 -1.9343
  341SOL    HW2 1363   0.089   1.388   2.674 -0.5575 -0.0487 -0.3092
  341SOL     MW 1364   0.135   1.418   2.742 -0.3466 -0.2756 -0.0028
  342SOL     OW 1365   1.294   0.316   0.112 -0.0617 -0.5391  0.5083
  342SOL    HW1 1366   1.375   0.345   0.159  2.1258 -0.0644  2.3160
  342SOL    HW2 1367   1.313   0.322   0.018 -0.7942 -1.7517 -1.5246
  342SOL     MW 1368   1.307   0.321   0.106  0.1303 -0.6365  0.4786
  343SOL     OW 1369   0.251   0.258   2.161  0.3614 -0.4629 -0.0342
  343SOL    HW1 1370   0.323   0.200   2.149 -2.2859  0.2191 -3.3979
  343SOL    HW2 1371   0.212   0.248   2.074  1.0472  3.4614 -0.8850
  343SOL     MW 1372   0.255   0.249   2.148  0.1026  0.1449 -0.5902
  344SOL     OW 1373   1.729   2.029   0.163 -0.5767 -0.5012 -0.2185
  344SOL    HW1 1374   1.741   2.117   0.137 -0.8938 -2.3267  1.0344
  344SOL    HW2 1375   1.668   1.996   0.103 -0.8780 -1.7921  1.0653
  344SOL     MW 1376   1.723   2.036   0.152 -0.6583 -0.9124  0.1162
  345SOL     OW 1377   0.750   1.572   2.351 -0.1913  0.0762 -0.2071
  345SOL    HW1 1378   0.679   1.598   2.291 -1.2414 -0.4206  2.2615
  345SOL    HW2 1379   0.829   1.572   2.300  0.8816 -0.0050  3.4082
  345SOL     MW 1380   0.751   1.575   2.336 -0.1883 -0.0000  0.5956
  346SOL     OW 1381   1.776   1.077   0.032 -0.2166  0.7073  0.3448
  346SOL    HW1 1382   1.865   1.036   0.037 -1.9091 -3.0816 -0.6539
  346SOL    HW2 1383   1.728   1.026   0.099  0.7775 -1.0872  0.9453
  346SOL     MW 1384   1.782   1.065   0.041 -0.3088 -0.0293  0.2923
  347SOL     OW 1385   1.212   0.694   2.293 -0.4552 -0.4918 -0.5178
  347SOL    HW1 1386   1.297   0.653   2.313  1.0769  0.1531  1.0184
  347SOL    HW2 1387   1.189   0.735   2.375 -0.3489  0.7108  0.0524
  347SOL     MW 1388   1.220   0.694   2.306 -0.2390 -0.2481 -0.2399
  348SOL     OW 1389   1.385   2.694   1.935 -0.1475 -0.0613 -0.2405
  348SOL    HW1 1390   1.409   2.599   1.956 -1.2135 -0.1070  0.1525
  348SOL    HW2 1391   1.404   2.732   2.019 -0.6634  0.1123  2.3577
  348SOL     MW 1392   1.391   2.686   1.949 -0.3562 -0.0444  0.1541
  349SOL     OW 1393   1.452   0.251   2.705 -0.0570 -0.2863  0.1731
  349SOL    HW1 1394   1.399   0.284   2.776 -0.9941  1.1149  0.5516
  349SOL    HW2 1395   1.548   0.271   2.726 -1.8938 -3.0020  2.3849
  349SOL     MW 1396   1.458   0.258   2.717 -0.4230 -0.4597  0.5149
  350SOL     OW 1397   1.840   0.654   2.669  0.4175  0.4858  0.2563
  350SOL    HW1 1398   1.770   0.590   2.632 -0.2039  0.3203  0.3162
  350SOL    HW2 1399   1.920   0.602   2.651 -2.4604  0.6663  0.0915
  350SOL     MW 1400   1.841   0.638   2.662 -0.0442  0.4878  0.2425
  351SOL     OW 1401   0.092   1.045   1.527  0.4796  0.5886  0.2833
  351SOL    HW1 1402   0.023   1.054   1.593 -0.1377  3.1364 -1.0789
  351SOL    HW2 1403   0.165   1.087   1.566  0.7115  2.5190  0.9027
  351SOL     MW 1404   0.092   1.052   1.541  0.4287  1.1794  0.1853
  352SOL     OW 1405   0.822   1.649   2.691 -0.0554  0.0904  0.4445
  352SOL    HW1 1406   0.877   1.616   2.769  0.0532 -1.2543  0.9402
  352SOL    HW2 1407   0.783   1.575   2.649 -1.1434 -0.0940 -0.0815
  352SOL     MW 1408   0.824   1.635   2.696 -0.1846 -0.1114  0.4405
  353SOL     OW 1409   3.051   2.519   2.641  0.0758 -0.0974  0.1340
  353SOL    HW1 1410   3.146   2.523   2.628  2.1393 -2.1760 -0.6713
  353SOL    HW2 1411   3.012   2.597   2.594 -1.0436 -0.2617 -3.0758
  353SOL     MW 1412   3.059   2.530   2.633  0.2003 -0.3934 -0.3957
  354SOL     OW 1413   0.247   2.480   0.801 -0.3657  0.0749 -0.0297
  354SOL    HW1 1414   0.325   2.461   0.858 -0.1599 -3.3977 -1.8525
  354SOL    HW2 1415   0.178   2.419   0.826 -1.4652  0.6861  2.0666
  354SOL     MW 1416   0.248   2.469   0.812 -0.4836 -0.3026  0.0064
  355SOL     OW 1417   0.051   2.257   0.398 -0.1786 -0.3889 -0.0255
  355SOL    HW1 1418  -0.034   2.213   0.402  0.4812  0.6270  0.7032
  355SOL    HW2 1419   0.027   2.337   0.450 -1.7505  0.2320 -2.6251
  355SOL     MW 1420   0.037   2.261   0.405 -0.2990 -0.1730 -0.2724
  356SOL     OW 1421   0.844   2.819   0.995  0.6086 -0.1236  0.7827
  356SOL    HW1 1422   0.881   2.865   0.910 -0.2060  1.9048  0.3356
  356SOL    HW2 1423   0.751   2.818   0.974  2.7806  1.1761  1.0776
  356SOL     MW 1424   0.837   2.825   0.981  0.7877  0.3155  0.7626
  357SOL     OW 1425   1.786   2.905   0.418 -0.1893 -0.0113 -0.3034
  357SOL    HW1 1426   1.719   2.852   0.464  0.7563 -0.1535  0.1158
  357SOL    HW2 1427   1.860   2.858   0.376  1.3866 -0.1387  0.1233
  357SOL     MW 1428   1.787   2.892   0.419  0.1434 -0.0469 -0.1918
  358SOL     OW 1429   0.455   0.169   1.071 -0.1433 -0.5218 -0.5314
  358SOL    HW1 1430   0.546   0.150   1.044  1.4589 -0.4808  0.2213
  358SOL    HW2 1431   0.413   0.201   0.986 -1.0680  1.6388  0.2208
  358SOL     MW 1432   0.461   0.171   1.056 -0.0539 -0.2313 -0.3328
  359SOL     OW 1433   0.858   2.939   1.876 -0.5523 -0.7582 -0.7994
  359SOL    HW1 1434   0.851   2.846   1.902 -1.5639  1.1785  0.8480
  359SOL    HW2 1435   0.899   2.931   1.789 -2.3623  3.0546 -0.5055
  359SOL     MW 1436   0.863   2.926   1.868 -0.9246  0.0004 -0.5432
  360SOL     OW 1437   0.565   2.764   0.924  0.3182  0.2127 -0.3295
  360SOL    HW1 1438   0.559   2.716   0.843  0.3707 -0.1327 -0.2361
  360SOL    HW2 1439   0.564   2.704   1.001 -0.7322 -1.5631  0.4022
  360SOL     MW 1440   0.564   2.750   0.923  0.1866 -0.0672 -0.2206
  361SOL     OW 1441   0.172   2.648   1.347  0.2287 -0.0098 -0.6869
  361SOL    HW1 1442   0.146   2.729   1.391 -1.8247  0.2777 -0.5349
  361SOL    HW2 1443   0.268   2.653   1.342  0.1776  0.7949 -1.1457
  361SOL     MW 1444   0.181   2.659   1.352 -0.0490  0.1343 -0.7273
  362SOL     OW 1445   1.486   2.401   0.637  0.1194 -0.2671  0.3652
  362SOL    HW1 1446   1.499   2.362   0.722 -2.6769 -0.8323 -0.3273
  362SOL    HW2 1447   1.569   2.448   0.616  1.5729 -0.6910 -0.3777
  362SOL     MW 1448   1.499   2.402   0.646 -0.0577 -0.3976  0.1758
  363SOL     OW 1449   0.321   3.066   0.679 -0.4961  0.4082 -0.3387
  363SOL    HW1 1450   0.310   3.018   0.762 -0.6833 -1.7893 -1.2173
  363SOL    HW2 1451   0.227   3.065   0.654 -3.7467 -0.6229 -1.4015
  363SOL     MW 1452   0.307   3.060   0.687 -0.9497 -0.0178 -0.5949
  364SOL     OW 1453   0.702   0.168   0.219 -0.0575 -0.7096 -0.4984
  364SOL    HW1 1454   0.650   0.085   0.242 -0.7206  0.8475 -0.9934
  364SOL    HW2 1455   0.649   0.221   0.161 -0.8785  1.5858  1.2421
  364SOL     MW 1456   0.688   0.164   0.214 -0.2533 -0.2013 -0.3340
  365SOL     OW 1457   0.976   2.000   1.089 -0.0009  0.4766  0.1198
  365SOL    HW1 1458   0.959   2.096   1.062 -0.7344  0.3180  1.3783
  365SOL    HW2 1459   0.904   1.949   1.051 -0.1096 -0.1409  0.1505
  365SOL     MW 1460   0.964   2.006   1.081 -0.1120  0.3742  0.2899
  366SOL     OW 1461   2.829   2.666   1.021  0.3712  0.2451  0.0332
  366SOL    HW1 1462   2.922   2.666   1.065  0.6648  0.6526 -0.7941
  366SOL    HW2 1463   2.846   2.677   0.926 -0.6817  2.3989  1.7083
  366SOL     MW 1464   2.844   2.668   1.014  0.2710  0.5831  0.1450
  367SOL     OW 1465   1.246   2.951   0.860 -0.6719 -0.4110  0.6053
  367SOL    HW1 1466   1.239   3.026   0.804  0.7891 -1.2427 -0.3110
  367SOL    HW2 1467   1.195   2.877   0.813 -1.4710  0.2588 -0.2017
  367SOL     MW 1468   1.238   2.951   0.846 -0.5846 -0.4324  0.3779
  368SOL     OW 1469   1.639   0.402   0.692  0.8711  0.0732  0.6696
  368SOL    HW1 1470   1.727   0.367   0.668  3.6913  0.3264  0.5157
  368SOL    HW2 1471   1.645   0.498   0.700 -2.9322 -2.2305  0.1021
  368SOL     MW 1472   1.651   0.410   0.690  0.7414 -0.1974  0.5744
  369SOL     OW 1473   0.140   2.501   1.714 -0.3497 -0.7622  1.0993
  369SOL    HW1 1474   0.242   2.517   1.709  0.9298  2.2791  0.8470
  369SOL    HW2 1475   0.107   2.592   1.730  1.4428  1.0039  1.8064
  369SOL     MW 1476   0.149   2.515   1.716  0.0556 -0.1279  1.1593
  370SOL     OW 1477   0.724   0.101   1.025  0.2634  0.2523  0.1406
  370SOL    HW1 1478   0.805   0.154   1.009  0.3772 -1.0471  0.7607
  370SOL    HW2 1479   0.752   0.044   1.099 -0.2337  1.5230  1.5048
  370SOL     MW 1480   0.738   0.100   1.033  0.2128  0.2485  0.4024
  371SOL     OW 1481   1.297   2.918   1.526  0.1172  0.5501 -0.2470
  371SOL    HW1 1482   1.240   2.854   1.481  1.0280 -1.5084 -1.4577
  371SOL    HW2 1483   1.305   2.994   1.465  0.6322  0.1039 -0.5310
  371SOL     MW 1484   1.290   2.919   1.512  0.3053  0.2197 -0.4442
  372SOL     OW 1485   0.747   2.321   0.467 -0.1834 -0.7436 -0.2271
  372SOL    HW1 1486   0.734   2.235   0.501  0.0670  2.1738  0.2139
  372SOL    HW2 1487   0.794   2.312   0.385 -2.2415 -0.5439  2.0300
  372SOL     MW 1488   0.752   2.308   0.461 -0.4219 -0.3323  0.1289
  373SOL     OW 1489   2.757   3.001   1.461  0.3069 -0.2584 -0.0654
  373SOL    HW1 1490   2.825   2.985   1.399 -0.8942  0.5890 -1.6982
  373SOL    HW2 1491   2.722   3.083   1.437 -1.1717 -0.8353 -0.0171
  373SOL     MW 1492   2.761   3.009   1.450 -0.0467 -0.2227 -0.2744
  374SOL     OW 1493   1.523   0.468   0.241  0.4983  0.1620 -0.3102
  374SOL    HW1 1494   1.591   0.403   0.215 -0.2748  2.2943 -1.8921
  374SOL    HW2 1495   1.505   0.435   0.328  0.3218 -1.5833 -0.5035
  374SOL     MW 1496   1.530   0.455   0.249  0.3730  0.2131 -0.5444
  375SOL     OW 1497   0.961   2.116   2.288  0.1549  0.3870 -0.0038
  375SOL    HW1 1498   1.013   2.108   2.364 -1.7765  2.8238 -0.3660
  375SOL    HW2 1499   0.962   2.024   2.244  0.8205 -1.3527 -2.5801
  375SOL     MW 1500   0.968   2.103   2.293 -0.0121  0.4790 -0.3915
  376SOL     OW 1501   0.720   2.582   0.073  1.2630 -0.2013  0.3323
  376SOL    HW1 1502   0.686   2.524   0.156  3.9291 -0.1761  0.5231
  376SOL    HW2 1503   0.696   2.522  -0.001  3.6753  0.9226 -1.8925
  376SOL     MW 1504   0.712   2.567   0.074  1.9331 -0.0496  0.0639
  377SOL     OW 1505   1.280   2.009   0.873  0.0709 -0.1821  0.2360
  377SOL    HW1 1506   1.199   1.987   0.825  2.0272 -0.6453 -0.4839
  377SOL    HW2 1507   1.279   1.965   0.955 -1.3162  1.3002  0.1948
  377SOL     MW 1508   1.269   2.000   0.877  0.1460 -0.0476  0.1356
  378SOL     OW 1509   0.923   2.805   1.572 -0.5760  0.2287 -0.1921
  378SOL    HW1 1510   0.871   2.726   1.579 -2.9943 -0.4020 -1.5314
  378SOL    HW2 1511   0.890   2.851   1.491  0.4971  1.2854 -0.3043
  378SOL     MW 1512   0.912   2.801   1.562 -0.7535  0.2849 -0.3836
  379SOL     OW 1513   1.164   1.771   2.288 -0.0123  0.2341  0.1043
  379SOL    HW1 1514   1.093   1.792   2.227 -2.0743 -0.5437  1.4842
  379SOL    HW2 1515   1.193   1.681   2.264 -3.3479 -1.3641 -2.2961
  379SOL     MW 1516   1.158   1.762   2.277 -0.7245 -0.0794 -0.0303
  380SOL     OW 1517   0.787   0.110   1.613  0.6650  0.0953  0.6330
  380SOL    HW1 1518   0.799   0.053   1.543  0.0577  3.1846  0.3502
  380SOL    HW2 1519   0.876   0.135   1.638  0.3564 -1.0998  0.4737
  380SOL     MW 1520   0.800   0.106   1.607  0.5442  0.3453  0.5747
  381SOL     OW 1521   0.813   2.047   0.778  0.1593  0.3791  0.6902
  381SOL    HW1 1522   0.903   2.018   0.775 -1.4530 -0.4070  2.6857
  381SOL    HW2 1523   0.825   2.137   0.818 -0.5605  0.8962 -3.2393
  381SOL     MW 1524   0.827   2.055   0.783 -0.1484  0.3436  0.4350
  382SOL     OW 1525   0.670   0.082   0.726  0.1884 -0.2839  0.2711
  382SOL    HW1 1526   0.660   0.088   0.818  0.4689 -1.9690 -4.0375
  382SOL    HW2 1527   0.650  -0.015   0.710  2.8488 -2.1317 -1.1575
  382SOL     MW 1528   0.666   0.070   0.736  0.5765 -0.7500 -0.4859
  383SOL     OW 1529   0.542   3.075   0.290  0.0892  0.7428 -0.3529
  383SOL    HW1 1530   0.557   3.012   0.219 -2.6265  0.1471  0.3062
  383SOL    HW2 1531   0.495   3.017   0.343  2.3585 -0.0756  1.4062
  383SOL     MW 1532   0.538   3.059   0.288  0.0303  0.5562 -0.0338
  384SOL     OW 1533   0.667   2.917   0.628  0.8930  0.3549 -0.1030
  384SOL    HW1 1534   0.740   2.906   0.691  0.4289  0.3696  1.0451
  384SOL    HW2 1535   0.613   2.837   0.636  1.2044 -0.6924 -0.3866
  384SOL     MW 1536   0.669   2.905   0.638  0.8728  0.2186  0.0110
  385SOL     OW 1537   1.374   2.101   1.518  0.5611 -0.0495  0.2839
  385SOL    HW1 1538   1.458   2.126   1.567  0.5620  1.4732 -2.0710
  385SOL    HW2 1539   1.336   2.041   1.584  0.0793  1.4212 -1.4899
  385SOL     MW 1540   1.380   2.096   1.533  0.4976  0.3454 -0.2608
  386SOL     OW 1541   1.299   0.420   0.896 -0.0992  0.2173  0.2456
  386SOL    HW1 1542   1.213   0.439   0.942  0.8467 -0.9976  0.0167
  386SOL    HW2 1543   1.323   0.341   0.940 -1.2848 -1.2160  0.6540
  386SOL     MW 1544   1.291   0.412   0.908 -0.1308 -0.1321  0.2693
  387SOL     OW 1545   0.811   2.202   1.511 -0.2175  0.1104  0.3928
  387SOL    HW1 1546   0.866   2.269   1.469 -2.0978  0.3911  0.7285
  387SOL    HW2 1547   0.817   2.126   1.454  2.0574  0.3447  0.8789
  387SOL     MW 1548   0.819   2.201   1.498 -0.1655  0.1784  0.5012
  388SOL     OW 1549   1.551   2.793   1.209 -0.1696 -0.2056 -0.5593
  388SOL    HW1 1550   1.464   2.759   1.193 -2.6605  0.5288  0.9834
  388SOL    HW2 1551   1.615   2.784   1.142 -0.1012  0.2457  0.8774
  388SOL     MW 1552   1.548   2.788   1.198 -0.4892 -0.0491 -0.1662
  389SOL     OW 1553   0.449   0.094   3.006 -0.1981 -0.1970  0.4487
  389SOL    HW1 1554   0.537   0.066   3.000 -2.1819  2.7184 -1.6751
  389SOL    HW2 1555   0.444   0.134   2.920 -0.9145  1.8571  4.4160
  389SOL     MW 1556   0.460   0.096   2.994 -0.5543  0.4587  0.6920
  390SOL     OW 1557   1.294   0.085   0.707  0.1774  0.2395  0.0209
  390SOL    HW1 1558   1.343   0.090   0.621  4.5348  2.0278 -0.2909
  390SOL    HW2 1559   1.361   0.119   0.765 -1.1195 -1.9644 -2.1187
  390SOL     MW 1560   1.309   0.090   0.703  0.5812  0.1847 -0.3026
  391SOL     OW 1561   0.318   2.201   1.414  0.2796 -0.1518  0.0096
  391SOL    HW1 1562   0.271   2.113   1.403  0.5108  2.8137 -2.1399
  391SOL    HW2 1563   0.257   2.274   1.431 -0.2789 -1.3124  0.4048
  391SOL     MW 1564   0.304   2.199   1.415  0.2364  0.0863 -0.2218
  392SOL     OW 1565   2.062   2.207   0.316 -0.1286  0.0536 -0.2528
  392SOL    HW1 1566   2.140   2.155   0.336 -2.7373 -0.9660  3.7969
  392SOL    HW2 1567   2.044   2.271   0.382 -3.4161  1.8323  0.6663
  392SOL     MW 1568   2.070   2.209   0.327 -0.9065  0.1537  0.4028
  393SOL     OW 1569   0.190   3.008   2.760  0.3330 -0.8147  0.8652
  393SOL    HW1 1570   0.289   3.012   2.764  1.0823  1.1700 -2.2151
  393SOL    HW2 1571   0.167   3.099   2.759  1.7817  0.7441 -2.1213
  393SOL     MW 1572   0.200   3.020   2.761  0.6230 -0.3471  0.0648
  394SOL     OW 1573   0.872   1.740   1.561 -0.2612 -0.3086  0.2041
  394SOL    HW1 1574   0.818   1.761   1.635  1.6060 -1.5682 -0.9770
  394SOL    HW2 1575   0.897   1.822   1.507  0.1182 -0.1802 -0.6097
  394SOL     MW 1576   0.868   1.754   1.564  0.0352 -0.4578 -0.0591
  395SOL     OW 1577   1.006   2.827   2.633 -0.2138  0.6645  0.6279
  395SOL    HW1 1578   1.037   2.909   2.672 -0.7694 -0.5904 -0.3872
  395SOL    HW2 1579   1.072   2.793   2.573  2.5456  0.1085  0.8310
  395SOL     MW 1580   1.019   2.833   2.630  0.0770  0.4256  0.5207
  396SOL     OW 1581   0.737   1.857   2.396 -0.3753 -0.8545 -0.2803
  396SOL    HW1 1582   0.809   1.868   2.460  0.6323  1.5742 -0.0528
  396SOL    HW2 1583   0.718   1.765   2.391  1.7241  2.6289 -2.5467
  396SOL     MW 1584   0.744   1.846   2.404  0.0346 -0.0745 -0.5493
  397SOL     OW 1585   1.001   2.305   1.285  0.3248  0.0089  0.2238
  397SOL    HW1 1586   1.040   2.348   1.209 -0.6767  1.6312  3.0490
  397SOL    HW2 1587   1.076   2.329   1.348 -1.0839 -0.3853  3.0165
  397SOL     MW 1588   1.016   2.314   1.284  0.0068  0.1709  0.9650
  398SOL     OW 1589   0.542   2.640   0.680  0.0385 -0.1883  0.1191
  398SOL    HW1 1590   0.480   2.612   0.609 -0.8087 -2.2548 -2.5286
  398SOL    HW2 1591   0.612   2.572   0.675 -0.6261  0.3375 -0.3468
  398SOL     MW 1592   0.543   2.627   0.670 -0.1609 -0.3916 -0.2917
  399SOL     OW 1593   0.242   2.070   0.329 -0.1304  0.3094 -0.4624
  399SOL    HW1 1594   0.177   2.127   0.375 -1.8312  0.5730 -1.3996
  399SOL    HW2 1595   0.287   2.133   0.274 -2.0829  2.5201 -4.6039
  399SOL     MW 1596   0.240   2.086   0.328 -0.6124  0.6358 -1.1325
  400SOL     OW 1597   0.498   1.936   0.124 -0.0881  0.4003 -0.9745
  400SOL    HW1 1598   0.464   2.026   0.119 -0.2167  0.5242  0.4794
  400SOL    HW2 1599   0.439   1.889   0.183  2.4853  0.5380  1.7711
  400SOL     MW 1600   0.485   1.942   0.131  0.2344  0.4348 -0.4204
  401SOL     OW 1601   0.755   2.029   0.089 -0.2607  0.4209 -0.5478
  401SOL    HW1 1602   0.823   1.956   0.111  1.2331  0.7007  1.7772
  401SOL    HW2 1603   0.680   1.987   0.127  0.3994  0.6960  0.6015
  401SOL     MW 1604   0.754   2.014   0.097  0.0235  0.4941 -0.0894
  402SOL     OW 1605   0.595   2.966   1.804  0.1606 -0.3113 -0.2449
  402SOL    HW1 1606   0.676   2.963   1.852 -1.5655 -0.9827  0.6833
  402SOL    HW2 1607   0.606   3.051   1.758 -0.2858 -0.0214 -0.3061
  402SOL     MW 1608   0.607   2.977   1.804 -0.1261 -0.3617 -0.1305
  403SOL     OW 1609   0.063   0.440   0.346 -0.1755  0.2712  0.7476
  403SOL    HW1 1610   0.146   0.470   0.390  0.8137  1.5654 -0.8161
  403SOL    HW2 1611   0.083   0.448   0.252  0.1491  0.2951 -1.0563
  403SOL     MW 1612   0.076   0.445   0.339 -0.0021  0.4451  0.3033
  404SOL     OW 1613   0.921   2.929   0.752  0.2982 -0.1851  0.2477
  404SOL    HW1 1614   0.981   2.867   0.703  2.0094  2.3675 -1.8373
  404SOL    HW2 1615   0.937   3.007   0.698  1.3607  1.4836  0.2029
  404SOL     MW 1616   0.931   2.931   0.738  0.6642  0.3719 -0.0333
  405SOL     OW 1617   0.518   2.407   1.508  0.3090  0.2876  0.7727
  405SOL    HW1 1618   0.483   2.482   1.461 -1.6032 -1.0370 -0.2693
  405SOL    HW2 1619   0.464   2.334   1.485 -0.1711 -3.7327 -0.0337
  405SOL     MW 1620   0.506   2.408   1.499 -0.0066 -0.4176  0.5288
  406SOL     OW 1621   0.413   2.410   1.043  0.1194  0.4078  0.7923
  406SOL    HW1 1622   0.329   2.432   1.080 -1.5039 -0.0947  0.3918
  406SOL    HW2 1623   0.436   2.334   1.092 -1.2782 -1.1276 -1.4874
  406SOL     MW 1624   0.405   2.403   1.055 -0.2792  0.1389  0.4387
  407SOL     OW 1625   3.082   2.679   1.157  0.9626 -0.5806  0.2182
  407SOL    HW1 1626   3.146   2.659   1.232  0.5509  1.1017  1.0163
  407SOL    HW2 1627   3.136   2.717   1.085  0.5189  4.4622 -1.4969
  407SOL     MW 1628   3.097   2.681   1.157  0.8498  0.3067  0.0972
  408SOL     OW 1629   2.138   2.124   0.709  0.9659  0.6129 -0.6103
  408SOL    HW1 1630   2.089   2.183   0.769  1.8465 -0.9617 -0.6394
  408SOL    HW2 1631   2.064   2.070   0.673 -2.6886  3.0170 -1.4874
  408SOL     MW 1632   2.121   2.125   0.712  0.5999  0.7223 -0.7299
  409SOL     OW 1633   1.476   0.146   0.892 -0.3116  0.1193  0.1984
  409SOL    HW1 1634   1.555   0.194   0.912 -0.5162 -1.3732 -1.1054
  409SOL    HW2 1635   1.482   0.070   0.952 -1.9269 -0.7261  0.3255
  409SOL     MW 1636   1.487   0.142   0.903 -0.5517 -0.1892  0.0432
  410SOL     OW 1637   1.107   2.482   1.070  0.1590  0.1533  0.8714
  410SOL    HW1 1638   1.026   2.474   1.015 -0.3748 -1.1226 -0.5138
  410SOL    HW2 1639   1.162   2.415   1.032  2.2378 -0.6963  1.7882
  410SOL     MW 1640   1.103   2.472   1.058  0.3628 -0.1271  0.8096
  411SOL     OW 1641   1.980   0.036   2.906 -0.3835  0.3625 -0.1911
  411SOL    HW1 1642   1.916   0.003   2.845  0.1252  1.9973  1.7916
  411SOL    HW2 1643   1.933   0.103   2.960  2.1449  1.2691  2.7543
  411SOL     MW 1644   1.965   0.040   2.905  0.0172  0.6978  0.4591
  412SOL     OW 1645   1.001   2.277   0.602  0.2849 -0.4797 -0.1423
  412SOL    HW1 1646   1.048   2.350   0.646  0.5146 -0.3535  0.6427
  412SOL    HW2 1647   0.937   2.329   0.560 -2.6527  2.8140 -0.6047
  412SOL     MW 1648   0.999   2.293   0.602 -0.0724 -0.0285 -0.0998
  413SOL     OW 1649   0.564   2.761   3.066  0.3043 -0.3164 -0.5607
  413SOL    HW1 1650   0.616   2.688   3.115  0.6363 -0.6356  1.2534
  413SOL    HW2 1651   0.619   2.791   2.994 -2.8974 -2.9892  3.1097
  413SOL     MW 1652   0.578   2.756   3.063 -0.0743 -0.7111  0.1629
  414SOL     OW 1653   1.922   2.920   1.055  0.0376  0.9603  0.3623
  414SOL    HW1 1654   1.866   2.930   0.974  2.1881  0.9196  0.4389
  414SOL    HW2 1655   1.984   2.993   1.041 -0.0667  2.2909  0.6595
  414SOL     MW 1656   1.923   2.931   1.042  0.3076  1.1305  0.4116
  415SOL     OW 1657   1.793   2.626   1.080  0.3965  0.0283 -0.2265
  415SOL    HW1 1658   1.795   2.618   1.179  1.4155  0.9715  1.8550
  415SOL    HW2 1659   1.857   2.697   1.070 -0.0139  0.9969 -0.1474
  415SOL     MW 1660   1.802   2.635   1.092  0.4768  0.2806  0.0586
  416SOL     OW 1661   0.569   1.936   1.387  0.6885  0.7995 -0.1343
  416SOL    HW1 1662   0.532   2.007   1.335  0.1574 -1.2283 -1.7101
  416SOL    HW2 1663   0.496   1.868   1.399 -0.3919 -0.1070 -1.1749
  416SOL     MW 1664   0.555   1.936   1.382  0.4759  0.4123 -0.4795
  417SOL     OW 1665   1.008   3.060   2.078  0.2549  0.0462  0.4397
  417SOL    HW1 1666   0.951   3.055   2.156  2.0151 -1.6080 -3.1911
  417SOL    HW2 1667   0.963   3.007   2.010 -2.6852 -3.1489 -1.0990
  417SOL     MW 1668   0.994   3.052   2.079  0.0992 -0.5936 -0.2424
  418SOL     OW 1669   0.730   2.904   0.120 -0.0416  0.3885  0.0919
  418SOL    HW1 1670   0.811   2.888   0.071 -0.6299  0.6128  0.0444
  418SOL    HW2 1671   0.657   2.849   0.076  1.9550 -0.8692  1.5634
  418SOL     MW 1672   0.731   2.894   0.107  0.1442  0.2521  0.2798
  419SOL     OW 1673   0.458   2.632   1.393  0.5042 -0.1528 -0.2399
  419SOL    HW1 1674   0.514   2.697   1.448 -4.5891  1.1970 -3.3913
  419SOL    HW2 1675   0.511   2.606   1.313 -0.5563 -2.3960  1.4834
  419SOL     MW 1676   0.473   2.637   1.390 -0.3078 -0.2707 -0.4283
  420SOL     OW 1677   0.862   2.253   0.971 -0.2121 -0.8282 -0.0200
  420SOL    HW1 1678   0.810   2.269   1.053 -1.9499  1.6348 -1.4576
  420SOL    HW2 1679   0.863   2.330   0.920 -0.7077 -4.9177 -1.7720
  420SOL     MW 1680   0.855   2.266   0.975 -0.5068 -1.0428 -0.4408
  421SOL     OW 1681   2.934   0.124   3.087  0.5597  0.1125 -0.4137
  421SOL    HW1 1682   2.857   0.115   3.022 -0.9517  0.1621 -0.8713
  421SOL    HW2 1683   2.942   0.035   3.124 -0.9759  0.8781 -1.3466
  421SOL     MW 1684   2.925   0.111   3.084  0.1577  0.2201 -0.5972
  422SOL     OW 1685   0.890   2.535   0.880 -0.1434  0.0625  0.1488
  422SOL    HW1 1686   0.860   2.606   0.937 -0.9712 -0.4673  0.5516
  422SOL    HW2 1687   0.876   2.568   0.795 -1.8090 -1.9891 -2.7684
  422SOL     MW 1688   0.884   2.549   0.876 -0.4724 -0.2781 -0.1829
  423SOL     OW 1689   1.458   0.108   0.500 -0.8041  0.0445 -0.5191
  423SOL    HW1 1690   1.444   0.095   0.408 -0.1748 -1.8427 -0.0213
  423SOL    HW2 1691   1.476   0.205   0.515 -2.1795 -0.1116 -2.4297
  423SOL     MW 1692   1.458   0.119   0.490 -0.9026 -0.2251 -0.7055
  424SOL     OW 1693   0.705   2.273   1.197 -0.0783  0.3270  0.1262
  424SOL    HW1 1694   0.619   2.238   1.184 -0.9558 -1.3660 -1.2811
  424SOL    HW2 1695   0.748   2.220   1.260  0.6583 -0.3612  0.9592
  424SOL     MW 1696   0.699   2.261   1.204 -0.0969  0.0128  0.0504
  425SOL     OW 1697   1.743   2.816   2.051  0.1270  0.0287  0.5582
  425SOL    HW1 1698   1.735   2.812   1.958  1.2565 -1.7387  2.0300
  425SOL    HW2 1699   1.769   2.724   2.065  0.2640 -1.7166  2.6514
  425SOL     MW 1700   1.746   2.804   2.040  0.2941 -0.4348  1.0285
  426SOL     OW 1701   0.792   1.694   1.944 -0.3847  0.5549 -0.0426
  426SOL    HW1 1702   0.726   1.723   1.883  0.5773 -2.0611 -1.2042
  426SOL    HW2 1703   0.788   1.758   2.014  0.5086 -1.5078  1.9854
  426SOL     MW 1704   0.783   1.707   1.945 -0.1399 -0.0624  0.0717
  427SOL     OW 1705   0.345   1.644   1.910  0.0068  0.0823 -0.4876
  427SOL    HW1 1706   0.404   1.577   1.940 -2.3122  0.1613  0.7498
  427SOL    HW2 1707   0.257   1.613   1.938 -1.0653 -1.8515  0.2689
  427SOL     MW 1708   0.341   1.631   1.918 -0.4406 -0.1624 -0.2245
  428SOL     OW 1709   0.576   2.590   1.140  0.4211 -0.2398 -0.5497
  428SOL    HW1 1710   0.655   2.547   1.148 -1.9008  3.2285 -2.1646
  428SOL    HW2 1711   0.524   2.512   1.109 -2.3509 -1.6298  1.3903
  428SOL     MW 1712   0.579   2.574   1.137 -0.2510  0.0344 -0.5068
  429SOL     OW 1713   1.273   2.794   1.064 -0.2616 -0.0449 -0.0237
  429SOL    HW1 1714   1.182   2.781   1.098 -1.8567  3.1506 -0.2554
  429SOL    HW2 1715   1.267   2.870   1.003 -0.1735 -0.5628  0.3201
  429SOL     MW 1716   1.260   2.802   1.060 -0.4605  0.3084 -0.0089
  430SOL     OW 1717   1.135   2.749   0.724  0.1562  0.5310  0.4209
  430SOL    HW1 1718   1.178   2.665   0.752 -1.1201  0.1146 -0.6231
  430SOL    HW2 1719   1.078   2.717   0.649 -0.4204  0.7139 -2.9995
  430SOL     MW 1720   1.133   2.733   0.718 -0.0883  0.5002 -0.1682
  431SOL     OW 1721   0.364   1.926   1.049 -0.1103  0.2125  0.2127
  431SOL    HW1 1722   0.419   1.849   1.063 -1.3826 -0.8326  2.4978
  431SOL    HW2 1723   0.316   1.922   0.971 -0.5462  1.6397  0.0963
  431SOL     MW 1724   0.365   1.915   1.041 -0.3357  0.2629  0.4989
  432SOL     OW 1725   0.068   0.017   1.213  0.3744  0.5935  0.1749
  432SOL    HW1 1726   0.086   0.086   1.280 -1.2719 -1.2416 -1.5727
  432SOL    HW2 1727  -0.002  -0.046   1.240 -0.2787 -1.5122 -0.5478
  432SOL     MW 1728   0.061   0.018   1.226  0.0710  0.0735 -0.1510
  433SOL     OW 1729   0.614   2.795   1.521 -0.3031 -0.3535 -0.3590
  433SOL    HW1 1730   0.642   2.835   1.611  0.6879 -0.5025  1.2624
  433SOL    HW2 1731   0.670   2.825   1.448  1.0365  0.6456  0.1888
  433SOL     MW 1732   0.625   2.804   1.523  0.0044 -0.2413 -0.0728
  434SOL     OW 1733   1.599   2.848   1.520  0.0734  0.3274 -0.4211
  434SOL    HW1 1734   1.503   2.871   1.536 -0.3367  2.4377  0.8520
  434SOL    HW2 1735   1.610   2.830   1.426 -2.3852 -3.3104  0.0746
  434SOL     MW 1736   1.588   2.849   1.510 -0.3051  0.1259 -0.1877
  435SOL     OW 1737   2.842   1.792   0.215  0.1284 -0.2956 -0.3308
  435SOL    HW1 1738   2.910   1.861   0.177 -1.5779 -0.0328 -1.0955
  435SOL    HW2 1739   2.801   1.765   0.134 -0.8749  2.6153 -2.1607
  435SOL     MW 1740   2.846   1.798   0.199 -0.2291  0.1232 -0.6731
  436SOL     OW 1741   1.323   2.712   0.386 -0.1706 -0.3715  0.3642
  436SOL    HW1 1742   1.393   2.708   0.448  0.7468 -1.0871 -2.1940
  436SOL    HW2 1743   1.293   2.806   0.407 -1.3545  1.4484 -0.5060
  436SOL     MW 1744   1.328   2.724   0.397 -0.2057 -0.2258 -0.0881
  437SOL     OW 1745   0.849   2.954   1.356 -0.0705  0.2534 -0.4878
  437SOL    HW1 1746   0.897   3.036   1.365 -1.0816  0.0777 -0.6596
  437SOL    HW2 1747   0.883   2.918   1.273  0.7162 -1.4870  1.3006
  437SOL     MW 1748   0.860   2.960   1.347 -0.1001  0.0006 -0.2745
  438SOL     OW 1749   0.843   2.655   1.882 -0.4792 -0.7147  0.0794
  438SOL    HW1 1750   0.813   2.634   1.967 -1.3237 -2.1462 -0.8906
  438SOL    HW2 1751   0.794   2.591   1.833 -2.6717 -0.5325 -1.2645
  438SOL     MW 1752   0.832   2.644   1.887 -0.8799 -0.8795 -0.2259
  439SOL     OW 1753   1.215   2.177   0.455  0.5425  0.5285 -0.4654
  439SOL    HW1 1754   1.171   2.203   0.539  0.3159  0.0893  1.1996
  439SOL    HW2 1755   1.174   2.229   0.384  0.3628 -1.6691 -0.3032
  439SOL     MW 1756   1.204   2.188   0.456  0.4889  0.1806 -0.2243
  440SOL     OW 1757   1.765   3.002   3.075  0.0860  0.0815 -0.0624
  440SOL    HW1 1758   1.710   2.966   3.144  0.9234 -0.3424 -1.4749
  440SOL    HW2 1759   1.854   2.969   3.097 -2.3534  0.5179 -2.5878
  440SOL     MW 1760   1.769   2.993   3.087 -0.1254  0.0831 -0.5820
  441SOL     OW 1761   0.320   2.629   0.457 -0.5171 -0.4158 -0.4277
  441SOL    HW1 1762   0.284   2.605   0.376  1.3345 -2.1657 -0.9085
  441SOL    HW2 1763   0.358   2.720   0.446 -1.0033  1.6445  1.4497
  441SOL     MW 1764   0.320   2.638   0.444 -0.3369 -0.3749 -0.2434
  442SOL     OW 1765   3.049   2.431   0.591  0.1568  0.1584  0.2254
  442SOL    HW1 1766   3.074   2.513   0.616 -1.3324  1.3576  0.6124
  442SOL    HW2 1767   2.976   2.404   0.649  0.0930  1.6924  1.4901
  442SOL     MW 1768   3.042   2.438   0.602 -0.0481  0.5190  0.4433
  443SOL     OW 1769   1.411   1.794   1.916 -0.0587  0.4907 -0.3545
  443SOL    HW1 1770   1.353   1.808   1.839 -1.2929 -0.3523  0.7945
  443SOL    HW2 1771   1.386   1.709   1.956  3.2605  1.6211  1.8083
  443SOL     MW 1772   1.400   1.785   1.911  0.2164  0.5287  0.0825
  444SOL     OW 1773   0.888   2.523   1.578 -0.2185  0.6510 -0.3463
  444SOL    HW1 1774   0.978   2.509   1.612 -1.3539  0.3584 -1.1917
  444SOL    HW2 1775   0.832   2.486   1.650 -2.0016 -1.2272  1.0840
  444SOL     MW 1776   0.892   2.516   1.592 -0.6036  0.3646 -0.2691
  445SOL     OW 1777   1.006   0.076   1.347  0.9222  0.4577  0.6170
  445SOL    HW1 1778   0.967   0.162   1.325  1.6850  1.0152 -0.7977
  445SOL    HW2 1779   1.031   0.036   1.258 -3.3268 -1.5525 -2.3303
  445SOL     MW 1780   1.004   0.082   1.333  0.4622  0.2660  0.0415
  446SOL     OW 1781   2.725   2.912   1.102  0.2898  0.3910  0.1696
  446SOL    HW1 1782   2.660   2.942   1.040 -0.6217  0.8353  1.0984
  446SOL    HW2 1783   2.765   2.833   1.058  1.2767  0.1945 -1.0323
  446SOL     MW 1784   2.721   2.906   1.088  0.2998  0.4237  0.1335
  447SOL     OW 1785   0.083   2.029   1.640  0.1313  0.0151 -0.0231
  447SOL    HW1 1786   0.136   1.957   1.677  1.1011 -1.3364 -0.2347
  447SOL    HW2 1787   0.002   2.007   1.589 -2.4105 -0.5436 -0.7338
  447SOL     MW 1788   0.079   2.017   1.638 -0.0761 -0.2370 -0.1448
  448SOL     OW 1789   1.731   2.402   1.603  0.1622  0.1506 -0.3931
  448SOL    HW1 1790   1.697   2.313   1.595 -0.1662 -2.3879 -0.7834
  448SOL    HW2 1791   1.664   2.455   1.654  1.9625  0.4431  0.6831
  448SOL     MW 1792   1.718   2.397   1.609  0.3564 -0.1457 -0.3026
  449SOL     OW 1793   0.805   2.825   0.378  0.1107 -0.0426 -0.2935
  449SOL    HW1 1794   0.761   2.845   0.288 -1.3795  2.2476  1.5067
  449SOL    HW2 1795   0.753   2.885   0.438  0.1849  1.6968  1.8505
  449SOL     MW 1796   0.792   2.835   0.374 -0.0762  0.4891  0.2269
  450SOL     OW 1797   1.206   2.469   0.687  0.0665  0.5650  0.4089
  450SOL    HW1 1798   1.246   2.447   0.765 -3.4131 -1.5953 -4.0740
  450SOL    HW2 1799   1.278   2.459   0.626  2.5484  0.4283  1.2019
  450SOL     MW 1800   1.221   2.465   0.689 -0.0651  0.2619 -0.0779
  451SOL     OW 1801   0.582   2.085   1.633 -0.1790  0.6331  0.3191
  451SOL    HW1 1802   0.670   2.110   1.616  1.4165 -0.5553 -0.4740
  451SOL    HW2 1803   0.562   2.022   1.568  0.2903  1.0687  2.0577
  451SOL     MW 1804   0.591   2.080   1.622  0.0935  0.5338  0.4439
  452SOL     OW 1805   0.304   2.710   0.006  0.1498 -0.2377 -0.1939
  452SOL    HW1 1806   0.400   2.731  -0.015  1.4809  1.3382 -0.7354
  452SOL    HW2 1807   0.245   2.742  -0.061  0.7184 -1.6079 -0.8538
  452SOL     MW 1808   0.309   2.717  -0.006  0.4004 -0.2106 -0.3524
  453SOL     OW 1809   0.359   2.923   1.679  0.0427  0.8409  0.0356
  453SOL    HW1 1810   0.447   2.914   1.713 -1.1910  0.3260  0.2157
  453SOL    HW2 1811   0.377   2.966   1.590  0.3624  0.6389 -1.6701
  453SOL     MW 1812   0.373   2.927   1.672 -0.0779  0.7463 -0.1657
  454SOL     OW 1813   1.015   2.777   1.192 -0.0597  0.3201 -0.0990
  454SOL    HW1 1814   0.955   2.707   1.214 -0.8670  0.8809  0.6511
  454SOL    HW2 1815   0.966   2.824   1.127 -0.4412 -0.3891 -0.1132
  454SOL     MW 1816   1.001   2.774   1.186 -0.2165  0.3005 -0.0019
  455SOL     OW 1817   1.601   2.935   0.196  0.1613  0.3833 -0.7340
  455SOL    HW1 1818   1.663   2.939   0.268  0.9733 -0.6295 -0.0252
  455SOL    HW2 1819   1.588   2.830   0.195  1.1945 -1.8669 -0.6644
  455SOL     MW 1820   1.608   2.922   0.205  0.4048 -0.0472 -0.6313
  456SOL     OW 1821   2.785   0.353   1.421 -1.0539  0.3104  0.9440
  456SOL    HW1 1822   2.751   0.275   1.379 -0.6751  0.0162  1.0399
  456SOL    HW2 1823   2.873   0.364   1.380  0.0103 -0.2061 -3.1532
  456SOL     MW 1824   2.792   0.344   1.410 -0.8635  0.2034  0.4161
  457SOL     OW 1825   0.982   1.577   2.911  0.4250  0.1013 -0.0334
  457SOL    HW1 1826   0.906   1.530   2.957 -3.4795  3.0305  0.9243
  457SOL    HW2 1827   1.039   1.516   2.862 -1.0907  1.1081 -1.5080
  457SOL     MW 1828   0.980   1.563   2.911 -0.2902  0.6206 -0.1016
  458SOL     OW 1829   1.474   1.423   0.552 -0.1857  0.5058  0.4875
  458SOL    HW1 1830   1.426   1.508   0.552 -1.0038  1.2889 -1.1597
  458SOL    HW2 1831   1.450   1.376   0.471  1.3620  2.6657 -1.2376
  458SOL     MW 1832   1.465   1.428   0.541 -0.0895  0.8941  0.0426
  459SOL     OW 1833   1.451   0.091   0.205 -0.5348  0.2840 -0.0640
  459SOL    HW1 1834   1.491   0.005   0.190  1.2033  1.6157 -1.5905
  459SOL    HW2 1835   1.376   0.110   0.148  2.1592  2.1276 -0.6599
  459SOL     MW 1836   1.447   0.082   0.196  0.0499  0.7029 -0.3441
  460SOL     OW 1837   1.793   2.194   0.610  0.0265 -0.0693  0.1682
  460SOL    HW1 1838   1.715   2.191   0.665  0.0665 -1.0546  0.6352
  460SOL    HW2 1839   1.854   2.138   0.654  0.9212  1.8524  0.5310
  460SOL     MW 1840   1.791   2.187   0.623  0.1498  0.0543  0.2777
  461SOL     OW 1841   0.382   2.364   0.575 -0.0702  0.2532 -0.2278
  461SOL    HW1 1842   0.368   2.451   0.538 -0.1001  0.0307  2.0132
  461SOL    HW2 1843   0.329   2.369   0.658 -0.6806  0.9125  2.0308
  461SOL     MW 1844   0.373   2.376   0.581 -0.1547  0.3108  0.3659
  462SOL     OW 1845   0.415   0.320   1.298 -0.0771 -0.4718  0.6484
  462SOL    HW1 1846   0.436   0.268   1.220 -2.1437  0.2368  0.4459
  462SOL    HW2 1847   0.495   0.348   1.337  0.4837  3.5201  0.6407
  462SOL     MW 1848   0.428   0.317   1.293 -0.2758  0.1484  0.6207
  463SOL     OW 1849   0.942   0.072   0.617  0.8859  0.1761  0.0150
  463SOL    HW1 1850   0.947   0.102   0.526 -0.5016 -1.6308  1.1488
  463SOL    HW2 1851   0.850   0.082   0.642 -1.3348 -0.6260  0.6561
  463SOL     MW 1852   0.931   0.077   0.608  0.4098 -0.1681  0.2492
  464SOL     OW 1853   0.847   3.060   2.300  0.1805 -0.1244 -0.0125
  464SOL    HW1 1854   0.827   2.966   2.282  1.0108  1.7631  1.3334
  464SOL    HW2 1855   0.846   3.057   2.396 -3.2390 -2.6404  1.9668
  464SOL     MW 1856   0.844   3.047   2.310 -0.1611 -0.2073  0.4263
  465SOL     OW 1857   0.698   0.308   0.469  0.4056  0.2674 -0.0179
  465SOL    HW1 1858   0.698   0.255   0.548  1.1315  1.7326  2.2425
  465SOL    HW2 1859   0.688   0.244   0.399 -0.6808  1.0923  0.3793
  465SOL     MW 1860   0.697   0.293   0.470  0.3581  0.5696  0.3327
  466SOL     OW 1861   1.062   1.978   0.703  0.1744  0.6315  0.1162
  466SOL    HW1 1862   1.048   1.896   0.656 -2.1396 -0.2415  0.1761
  466SOL    HW2 1863   1.044   2.045   0.643 -2.2671  0.0584  0.6222
  466SOL     MW 1864   1.058   1.976   0.689 -0.4531  0.4407  0.1908
  467SOL     OW 1865   1.260   2.298   0.931 -0.0549 -0.7774  0.1808
  467SOL    HW1 1866   1.358   2.317   0.927  1.1337  0.6597 -2.4365
  467SOL    HW2 1867   1.256   2.204   0.914 -2.1176  0.9298 -0.0386
  467SOL     MW 1868   1.273   2.288   0.929 -0.1702 -0.3625 -0.1935
  468SOL     OW 1869   0.395   2.609   1.989 -0.2625  0.1677 -0.0334
  468SOL    HW1 1870   0.409   2.557   1.906 -0.8247 -0.1946  1.3327
  468SOL    HW2 1871   0.367   2.698   1.968 -0.0590 -1.9603  1.0509
  468SOL     MW 1872   0.393   2.614   1.975 -0.3098 -0.1609  0.2899
  469SOL     OW 1873   0.367   2.191   1.777  0.2831  0.5048  0.1588
  469SOL    HW1 1874   0.291   2.129   1.796 -1.6172 -0.5921  0.7019
  469SOL    HW2 1875   0.436   2.142   1.725  0.5765  1.6170 -1.6220
  469SOL     MW 1876   0.366   2.177   1.773  0.0711  0.5068 -0.0045
  470SOL     OW 1877   3.043   2.597   0.073 -0.1144 -0.4561  0.4926
  470SOL    HW1 1878   2.950   2.572   0.074 -0.4814 -2.1561 -0.1528
  470SOL    HW2 1879   3.067   2.631  -0.012 -0.7524 -0.0501  2.1497
  470SOL     MW 1880   3.034   2.598   0.062 -0.2470 -0.6268  0.6261
  471SOL     OW 1881   1.135   2.709   1.443 -0.3810  0.0616 -0.1580
  471SOL    HW1 1882   1.056   2.743   1.487 -0.3692 -0.9518 -2.5356
  471SOL    HW2 1883   1.114   2.711   1.353  0.1163 -4.2730  1.0404
  471SOL     MW 1884   1.122   2.714   1.437 -0.3139 -0.6440 -0.3136
  472SOL     OW 1885   2.913   2.108   0.395 -1.0730  0.0127  0.2382
  472SOL    HW1 1886   2.967   2.066   0.324  2.8186  0.6357  0.2269
  472SOL    HW2 1887   2.874   2.038   0.448 -3.4754 -1.3176 -1.2131
  472SOL     MW 1888   2.915   2.093   0.393 -0.8765 -0.0806  0.0452
  473SOL     OW 1889   0.867   2.541   1.307 -0.2116  0.1866 -0.6335
  473SOL    HW1 1890   0.922   2.460   1.294 -1.2993 -0.9683  1.3050
  473SOL    HW2 1891   0.845   2.523   1.397 -2.1946  0.0401 -0.1942
  473SOL     MW 1892   0.871   2.528   1.317 -0.6168  0.0149 -0.3198
  474SOL     OW 1893   0.857   2.126   1.787  1.0749 -0.1967  0.3450
  474SOL    HW1 1894   0.929   2.175   1.818 -1.2723 -0.7773 -3.4947
  474SOL    HW2 1895   0.851   2.136   1.693 -0.1839  0.3754 -0.5654
  474SOL     MW 1896   0.866   2.134   1.778  0.5991 -0.1978 -0.2817
  475SOL     OW 1897   1.651   0.017   1.427  0.0668 -0.1841  0.3487
  475SOL    HW1 1898   1.561   0.030   1.404  0.0812 -0.4575  2.9201
  475SOL    HW2 1899   1.650  -0.074   1.460  0.8133 -1.6172  0.5150
  475SOL     MW 1900   1.639   0.007   1.428  0.1672 -0.4093  0.7099
  476SOL     OW 1901   1.408   2.607   0.919 -0.5338  0.0954  0.3960
  476SOL    HW1 1902   1.359   2.671   0.982 -0.8472 -3.6608  1.5867
  476SOL    HW2 1903   1.466   2.675   0.877  0.8963  1.1759  2.6142
  476SOL     MW 1904   1.409   2.625   0.921 -0.3865 -0.2576  0.8458
  477SOL     OW 1905   0.771   2.529   0.631  0.1140  0.1919  0.1049
  477SOL    HW1 1906   0.831   2.569   0.570 -1.0649  0.7508  1.1134
  477SOL    HW2 1907   0.742   2.454   0.576 -0.6549 -0.0459  0.4911
  477SOL     MW 1908   0.775   2.524   0.615 -0.1430  0.2343  0.2889
  478SOL     OW 1909   0.128   2.725   0.927  0.1418  0.2841  0.4475
  478SOL    HW1 1910   0.202   2.794   0.929  0.5009 -0.0258 -2.1296
  478SOL    HW2 1911   0.148   2.658   0.869  1.2017 -2.1634  2.1627
  478SOL     MW 1912   0.140   2.725   0.920  0.3290 -0.0797  0.3338
  479SOL     OW 1913   1.427   1.972   1.284  0.0434  0.3744 -0.3756
  479SOL    HW1 1914   1.392   2.019   1.361 -0.2840  0.3894 -1.6924
  479SOL    HW2 1915   1.505   1.920   1.324  0.1399 -0.1313 -3.1961
  479SOL     MW 1916   1.433   1.972   1.299  0.0129  0.3097 -0.9214
  480SOL     OW 1917   1.886   2.332   1.347 -0.2856  0.7125 -0.1278
  480SOL    HW1 1918   1.907   2.237   1.343 -1.1005  1.0631 -1.2773
  480SOL    HW2 1919   1.920   2.370   1.270  2.4559  0.4793  0.9667
  480SOL     MW 1920   1.893   2.324   1.336 -0.0314  0.7280 -0.1351
  481SOL     OW 1921   1.033   3.096   1.090 -0.8909  0.6223 -0.6932
  481SOL    HW1 1922   1.091   3.040   1.037 -1.8135  0.7355 -2.2125
  481SOL    HW2 1923   1.068   3.181   1.088 -0.2609  0.4825 -3.7595
  481SOL     MW 1924   1.045   3.100   1.083 -0.9295  0.6188 -1.2982
  482SOL     OW 1925   0.975   3.022   0.323  0.4897 -0.3386 -0.3475
  482SOL    HW1 1926   0.903   2.956   0.332  2.4611  0.1465  0.6574
  482SOL    HW2 1927   0.962   3.065   0.238  0.4849 -0.2975 -1.1433
  482SOL     MW 1928   0.964   3.019   0.313  0.7492 -0.2692 -0.3199
  483SOL     OW 1929   0.398   2.902   0.441  0.4005  0.2283 -0.2932
  483SOL    HW1 1930   0.308   2.918   0.403 -0.7340  2.7566 -1.5472
  483SOL    HW2 1931   0.403   2.954   0.522  0.2244  0.8034 -0.1605
  483SOL     MW 1932   0.387   2.911   0.447  0.2275  0.6377 -0.4412
  484SOL     OW 1933   1.668   1.877   1.386  0.6083  0.6782 -0.3434
  484SOL    HW1 1934   1.722   1.958   1.374  1.9976 -0.4288  0.8512
  484SOL    HW2 1935   1.680   1.855   1.478  1.3826 -2.0472 -0.8235
  484SOL     MW 1936   1.677   1.885   1.397  0.8938  0.1726 -0.2491
  485SOL     OW 1937   0.553   2.452   0.243 -0.2120 -0.2703 -0.5190
  485SOL    HW1 1938   0.576   2.417   0.322 -0.8711 -0.2969 -2.4932
  485SOL    HW2 1939   0.464   2.493   0.235  0.3635 -1.1065  0.8194
  485SOL     MW 1940   0.544   2.452   0.252 -0.2230 -0.3841 -0.6029
  486SOL     OW 1941   0.123   2.394   1.471 -0.1356 -0.6939  0.6728
  486SOL    HW1 1942   0.139   2.480   1.423 -0.9987 -0.4389 -0.0999
  486SOL    HW2 1943   0.091   2.426   1.554  0.1392  0.0317 -0.2457
  486SOL     MW 1944   0.121   2.410   1.475 -0.2132 -0.5645  0.4497
  487SOL     OW 1945   1.284   1.614   1.027  0.2857  0.3638 -0.5573
  487SOL    HW1 1946   1.242   1.688   1.071 -0.0948  0.1961  0.0742
  487SOL    HW2 1947   1.367   1.641   0.993 -4.3130  1.5970  3.1379
  487SOL     MW 1948   1.290   1.627   1.028 -0.3713  0.5044  0.0136
  488SOL     OW 1949   1.682   1.862   0.559 -0.5261 -0.0215  0.1368
  488SOL    HW1 1950   1.765   1.904   0.578 -0.7424  1.9906  4.9329
  488SOL    HW2 1951   1.620   1.934   0.550  1.6557  1.0592  0.5825
  488SOL     MW 1952   1.685   1.877   0.560 -0.2668  0.3866  0.8284
  489SOL     OW 1953   0.676   0.770   0.553  0.0679  0.0249 -0.2295
  489SOL    HW1 1954   0.737   0.703   0.532  0.2377 -1.0722  0.8147
  489SOL    HW2 1955   0.670   0.765   0.643 -1.9719  0.5010 -0.8461
  489SOL     MW 1956   0.683   0.761   0.562 -0.1788 -0.0570 -0.1731
  490SOL     OW 1957   1.452   2.013   0.422  0.3387 -0.0139 -0.0662
  490SOL    HW1 1958   1.493   2.035   0.346 -2.4230 -1.7344 -0.0654
  490SOL    HW2 1959   1.376   2.075   0.425 -2.8783 -0.4758  0.0683
  490SOL     MW 1960   1.447   2.024   0.412 -0.4501 -0.3019 -0.0484
  491SOL     OW 1961   1.190   2.946   0.476  0.3434 -0.4418 -0.0442
  491SOL    HW1 1962   1.186   2.974   0.563 -3.0473 -0.4947 -0.8363
  491SOL    HW2 1963   1.113   2.977   0.430  1.9303 -0.9561 -0.2597
  491SOL     MW 1964   1.179   2.954   0.481  0.1054 -0.5167 -0.1771
  492SOL     OW 1965   1.507   2.055   0.678 -0.1042  0.0266  0.6639
  492SOL    HW1 1966   1.474   2.025   0.593  0.3452  0.3853 -1.8922
  492SOL    HW2 1967   1.446   2.030   0.742 -3.0893  1.7155 -1.9164
  492SOL     MW 1968   1.494   2.048   0.675 -0.4387  0.2968 -0.0138
  493SOL     OW 1969   0.155   2.943   0.346  0.7063  0.4900  0.2319
  493SOL    HW1 1970   0.107   2.997   0.416 -0.8116 -0.4919  0.5635
  493SOL    HW2 1971   0.170   2.992   0.264 -0.9963 -0.3513 -2.3994
  493SOL     MW 1972   0.151   2.957   0.344  0.2814  0.2494 -0.0715
  494SOL     OW 1973   0.396   2.458   1.757  0.4706 -0.3744  0.7442
  494SOL    HW1 1974   0.368   2.363   1.755  0.5030  0.2512  1.0688
  494SOL    HW2 1975   0.444   2.474   1.674  1.0999  1.3566 -2.7050
  494SOL     MW 1976   0.399   2.447   1.746  0.5579 -0.0634  0.3319
  495SOL     OW 1977   2.913   1.708   2.621 -0.0066 -0.4441 -0.4513
  495SOL    HW1 1978   2.890   1.801   2.625  0.9318  0.6971  0.5436
  495SOL    HW2 1979   2.909   1.677   2.711  0.9263 -1.8636 -1.8121
  495SOL     MW 1980   2.909   1.716   2.633  0.2403 -0.4808 -0.4996
  496SOL     OW 1981   2.870   2.304   2.667  0.2123  0.4917  0.1368
  496SOL    HW1 1982   2.899   2.222   2.695  0.3844  2.8250  0.3324
  496SOL    HW2 1983   2.963   2.339   2.658 -1.6565  0.2500  0.0537
  496SOL     MW 1984   2.886   2.298   2.670 -0.0116  0.7677  0.1517
  497SOL     OW 1985   1.599   2.275   2.634 -0.1502 -0.1831  0.2350
  497SOL    HW1 1986   1.533   2.236   2.576  1.3790 -0.2248 -0.1763
  497SOL    HW2 1987   1.605   2.214   2.709 -0.7944  1.0973  0.4967
  497SOL     MW 1988   1.591   2.262   2.636 -0.0334 -0.0197  0.2152
  498SOL     OW 1989   1.533   2.724   2.385 -0.1109  0.2540  0.0200
  498SOL    HW1 1990   1.544   2.637   2.344 -0.9268 -3.3394 -1.3399
  498SOL    HW2 1991   1.572   2.699   2.471  0.3544 -0.9803 -2.8026
  498SOL     MW 1992   1.539   2.709   2.391 -0.1572 -0.3830 -0.5318
  499SOL     OW 1993   0.915   0.070   0.043  0.1401 -0.2341 -0.1126
  499SOL    HW1 1994   0.837   0.098   0.087 -0.3611 -0.4249  0.4965
  499SOL    HW2 1995   0.907  -0.030   0.016 -1.2428 -0.5603  1.9693
  499SOL     MW 1996   0.903   0.061   0.045 -0.1085 -0.3023  0.2424
  500SOL     OW 1997   1.109   2.501   2.740  0.1804  0.5497 -0.2744
  500SOL    HW1 1998   1.147   2.453   2.815  1.6610 -0.1264  0.4257
  500SOL    HW2 1999   1.053   2.571   2.781 -3.8233  1.4067 -0.8835
  500SOL     MW 2000   1.106   2.504   2.755 -0.1525  0.5736 -0.2624
  501SOL     OW 2001   1.727   2.252   3.091  0.2065 -0.0330 -0.4800
  501SOL    HW1 2002   1.684   2.340   3.120 -1.6781 -1.4936 -2.6934
  501SOL    HW2 2003   1.822   2.264   3.099  0.8894 -1.7489 -1.4533
  501SOL     MW 2004   1.733   2.266   3.096  0.0480 -0.4521 -0.9004
  502SOL     OW 2005   0.056   2.808   2.957 -0.2298 -0.2216 -0.2029
  502SOL    HW1 2006  -0.010   2.745   2.917  1.0155  0.9652  1.9230
  502SOL    HW2 2007   0.071   2.880   2.889 -0.7276 -1.9593 -1.1464
  502SOL     MW 2008   0.050   2.809   2.943 -0.1311 -0.2943 -0.0469
  503SOL     OW 2009   1.108   2.659   1.989 -0.2961  0.3231  0.7957
  503SOL    HW1 2010   1.190   2.700   1.953  0.4324 -3.1989  1.3043
  503SOL    HW2 2011   1.059   2.648   1.907 -0.2969  0.6067 -1.3791
  503SOL     MW 2012   1.112   2.663   1.973 -0.2001 -0.1042  0.5758
  504SOL     OW 2013   0.030   2.689   2.073 -0.3810 -0.2367 -0.0053
  504SOL    HW1 2014   0.091   2.619   2.060 -1.3251  1.0966  1.9489
  504SOL    HW2 2015  -0.055   2.649   2.063 -0.5512  3.5429  1.3424
  504SOL     MW 2016   0.027   2.674   2.070 -0.5280  0.4379  0.4304
  505SOL     OW 2017   1.651   2.636   2.796  0.1343 -0.2111  0.1768
  505SOL    HW1 2018   1.700   2.632   2.715 -2.6539 -0.4619 -0.1336
  505SOL    HW2 2019   1.603   2.718   2.796 -0.9488 -1.4207 -0.3432
  505SOL     MW 2020   1.651   2.646   2.785 -0.3765 -0.4038  0.0672
  506SOL     OW 2021   1.606   3.083   2.858  0.3957 -0.0226  0.0882
  506SOL    HW1 2022   1.653   3.016   2.907 -0.7212 -1.6935 -2.2839
  506SOL    HW2 2023   1.669   3.104   2.787 -3.8647 -2.3841 -0.3290
  506SOL     MW 2024   1.620   3.077   2.855 -0.3138 -0.5547 -0.2798
  507SOL     OW 2025   0.933   2.670   2.858 -0.0453 -0.5559 -0.2983
  507SOL    HW1 2026   0.967   2.735   2.794  0.8920  1.4970  2.5041
  507SOL    HW2 2027   0.840   2.680   2.834 -1.5194 -0.4620  0.1310
  507SOL     MW 2028   0.925   2.680   2.846 -0.1161 -0.2726  0.1281
  508SOL     OW 2029   1.199   2.124   2.501 -0.4622 -0.2935  0.0247
  508SOL    HW1 2030   1.244   2.100   2.586 -0.9453 -0.7634 -1.2652
  508SOL    HW2 2031   1.145   2.195   2.532 -0.2985  4.3188  1.4016
  508SOL     MW 2032   1.198   2.131   2.516 -0.5044  0.2530  0.0362
  509SOL     OW 2033   0.606   2.606   2.770 -0.1487 -0.0220 -0.2904
  509SOL    HW1 2034   0.636   2.562   2.692 -0.0551  0.7759 -1.4009
  509SOL    HW2 2035   0.513   2.605   2.764  2.2538  0.0823  0.9775
  509SOL     MW 2036   0.597   2.600   2.759  0.1806  0.0970 -0.2697
  510SOL     OW 2037   1.495   2.603   1.675 -0.4952 -0.2721 -0.1680
  510SOL    HW1 2038   1.533   2.695   1.650  1.4322  0.1867  1.5405
  510SOL    HW2 2039   1.462   2.611   1.764  0.2040  0.3485  0.3776
  510SOL     MW 2040   1.496   2.616   1.684 -0.1486 -0.1297  0.1294
  511SOL     OW 2041   0.435   2.632   2.438 -0.1846  0.2174 -0.5261
  511SOL    HW1 2042   0.519   2.571   2.456  3.9431 -2.3619 -0.8674
  511SOL    HW2 2043   0.440   2.682   2.355 -0.0840 -1.0178  0.7829
  511SOL     MW 2044   0.446   2.631   2.430  0.3733 -0.2859 -0.3984
  512SOL     OW 2045   0.958   2.020   2.794  0.5549 -0.3448  0.1095
  512SOL    HW1 2046   0.898   2.076   2.853 -0.2785  1.7509  0.7541
  512SOL    HW2 2047   0.997   1.952   2.846  1.5966  1.9952 -1.4210
  512SOL     MW 2048   0.955   2.018   2.809  0.5824  0.2405 -0.0074
  513SOL     OW 2049   1.631   2.490   2.270  0.2900  0.1056  0.2661
  513SOL    HW1 2050   1.700   2.506   2.207 -0.6515  1.6086 -0.1013
  513SOL    HW2 2051   1.664   2.423   2.332 -0.6395  0.1911  0.7620
  513SOL     MW 2052   1.645   2.484   2.270  0.0432  0.3152  0.2831
  514SOL     OW 2053   0.253   2.492   2.615 -0.3684 -0.2946  0.4814
  514SOL    HW1 2054   0.301   2.561   2.558  0.0791  2.7081  0.8090
  514SOL    HW2 2055   0.317   2.458   2.676 -4.1605 -2.9624 -0.2426
  514SOL     MW 2056   0.268   2.497   2.615 -0.8097 -0.2504  0.4291
  515SOL     OW 2057   1.158   2.013   2.009  0.4732 -0.2969  0.3791
  515SOL    HW1 2058   1.126   2.098   1.979  0.1584  1.7857  0.0340
  515SOL    HW2 2059   1.246   2.030   2.052  1.5232 -0.4896 -0.2572
  515SOL     MW 2060   1.166   2.027   2.011  0.5702 -0.0476  0.2496
  516SOL     OW 2061   1.461   2.487   0.009 -0.0817  0.1586  0.1548
  516SOL    HW1 2062   1.450   2.424  -0.067 -1.2940  0.0071  0.2018
  516SOL    HW2 2063   1.427   2.571  -0.021  0.8695  0.1438  1.8253
  516SOL     MW 2064   1.455   2.490  -0.005 -0.1161  0.1366  0.3814
  517SOL     OW 2065   0.555   2.450   2.209  0.1996 -0.2732 -0.4977
  517SOL    HW1 2066   0.495   2.526   2.219  2.8320  2.2702 -2.8155
  517SOL    HW2 2067   0.502   2.382   2.149  0.3327 -0.5658 -0.5302
  517SOL     MW 2068   0.540   2.451   2.202  0.5645  0.0238 -0.8078
  518SOL     OW 2069   1.807   0.175   3.078 -0.1257  0.7611  0.1736
  518SOL    HW1 2070   1.752   0.215   3.143  1.5132  1.7068 -0.8829
  518SOL    HW2 2071   1.769   0.084   3.063  0.7707 -0.2360 -1.0925
  518SOL     MW 2072   1.795   0.168   3.085  0.2088  0.7543 -0.1328
  519SOL     OW 2073   0.731   2.414   1.755  0.0122  0.0930 -0.3393
  519SOL    HW1 2074   0.756   2.324   1.774 -1.5127 -1.7005  0.5235
  519SOL    HW2 2075   0.650   2.399   1.707 -0.6681 -0.2499  2.9458
  519SOL     MW 2076   0.723   2.400   1.751 -0.2787 -0.1889  0.2080
  520SOL     OW 2077   1.158   2.132   2.973 -0.3875  0.1544  0.2735
  520SOL    HW1 2078   1.121   2.045   2.973  0.1564 -0.0035  0.7375
  520SOL    HW2 2079   1.211   2.136   3.057  2.0944  2.7102  0.9025
  520SOL     MW 2080   1.160   2.121   2.984  0.0117  0.4707  0.4177
  521SOL     OW 2081   1.734   1.986   2.158 -0.1866  0.4029  0.1138
  521SOL    HW1 2082   1.754   2.019   2.073 -1.4746  1.6378 -0.0701
  521SOL    HW2 2083   1.757   1.893   2.162 -1.9538 -1.4134 -0.8888
  521SOL     MW 2084   1.740   1.978   2.147 -0.5897  0.3262 -0.0427
  522SOL     OW 2085   2.907   2.522   2.261  0.0557 -0.1849 -0.1373
  522SOL    HW1 2086   2.984   2.450   2.275  2.0669  0.9676  2.1640
  522SOL    HW2 2087   2.950   2.604   2.278 -2.0124 -1.7044  1.6935
  522SOL     MW 2088   2.923   2.523   2.265  0.0482 -0.2333  0.4079
  523SOL     OW 2089   0.945   1.580   2.140  0.2369  0.4852  0.3166
  523SOL    HW1 2090   0.895   1.594   2.061 -1.2316  1.2113 -0.4919
  523SOL    HW2 2091   0.978   1.491   2.135 -3.0462  0.8860  0.0825
  523SOL     MW 2092   0.943   1.570   2.129 -0.3900  0.6339  0.1790
  524SOL     OW 2093   0.649   2.410   2.970  0.4358  0.3432 -0.5538
  524SOL    HW1 2094   0.650   2.480   2.901 -0.4887 -2.3096  0.8316
  524SOL    HW2 2095   0.703   2.333   2.952  0.6922  4.3579  0.9050
  524SOL     MW 2096   0.656   2.409   2.959  0.3477  0.5229 -0.1785
  525SOL     OW 2097   0.428   2.285   2.043 -0.6710 -0.3066 -0.0291
  525SOL    HW1 2098   0.389   2.220   2.104 -1.0934 -1.9517  1.1350
  525SOL    HW2 2099   0.414   2.237   1.952 -2.2182 -3.0913 -0.0694
  525SOL     MW 2100   0.421   2.270   2.039 -0.9309 -0.8911  0.1192
  526SOL     OW 2101   0.678   1.996   1.968  0.6769 -0.9169  0.0207
  526SOL    HW1 2102   0.738   2.022   1.904  0.3102  0.5062  0.5857
  526SOL    HW2 2103   0.683   2.070   2.031 -2.8190 -0.3674  0.0969
  526SOL     MW 2104   0.687   2.009   1.968  0.1673 -0.6566  0.1053
  527SOL     OW 2105   1.419   2.023   2.084 -0.0876  0.0156 -0.4254
  527SOL    HW1 2106   1.401   2.008   2.179  1.7673  0.1862 -0.3021
  527SOL    HW2 2107   1.417   1.930   2.056 -2.1264 -1.3058 -1.9626
  527SOL     MW 2108   1.416   2.009   2.093 -0.1118 -0.1362 -0.6120
  528SOL     OW 2109   0.718   2.874   2.856 -0.0193 -0.4413 -0.1572
  528SOL    HW1 2110   0.702   2.963   2.889  0.6301 -0.9229 -2.0234
  528SOL    HW2 2111   0.657   2.857   2.785 -0.4180 -1.4820  1.3602
  528SOL     MW 2112   0.708   2.883   2.851  0.0137 -0.6422 -0.2032
  529SOL     OW 2113   1.097   2.237   1.902 -0.1071 -0.4178  0.4165
  529SOL    HW1 2114   1.061   2.296   1.969  0.4578  1.8386  0.0671
  529SOL    HW2 2115   1.133   2.301   1.836 -4.1531 -1.6188  0.7962
  529SOL     MW 2116   1.097   2.254   1.902 -0.5664 -0.2786  0.4205
  530SOL     OW 2117   1.143   2.405   3.015 -0.1247 -0.6802 -0.9562
  530SOL    HW1 2118   1.175   2.403   3.106 -0.5101 -1.7361  0.3237
  530SOL    HW2 2119   1.148   2.314   2.986  1.2307 -1.0962  1.6042
  530SOL     MW 2120   1.148   2.393   3.023  0.0033 -0.8744 -0.4495
  531SOL     OW 2121   0.933   1.876   2.575 -0.5399  0.2302  0.4031
  531SOL    HW1 2122   0.930   1.952   2.641  0.6636  0.1545  3.4364
  531SOL    HW2 2123   0.915   1.799   2.634 -2.9636  0.5378 -1.4974
  531SOL     MW 2124   0.930   1.876   2.591 -0.7009  0.2608  0.5525
  532SOL     OW 2125   1.739   0.343   2.831  0.9114 -0.0968 -0.4421
  532SOL    HW1 2126   1.733   0.262   2.880 -0.3932 -0.9080 -0.0866
  532SOL    HW2 2127   1.829   0.363   2.824 -2.3393 -1.1851  2.3449
  532SOL     MW 2128   1.750   0.335   2.836  0.3104 -0.3474 -0.0275
  533SOL     OW 2129   1.856   2.661   2.998  0.8181 -0.2824  0.2852
  533SOL    HW1 2130   1.836   2.605   3.076 -1.8215 -1.7007  2.8844
  533SOL    HW2 2131   1.784   2.657   2.935  3.7408  0.0103  2.2016
  533SOL     MW 2132   1.844   2.653   3.000  0.8555 -0.4309  0.8810
  534SOL     OW 2133   1.785   2.385   2.474 -0.2385  0.8893 -0.2220
  534SOL    HW1 2134   1.704   2.342   2.516 -1.1619  0.9459  2.4130
  534SOL    HW2 2135   1.855   2.385   2.536 -0.6494 -1.1051 -0.6149
  534SOL     MW 2136   1.783   2.379   2.487 -0.4145  0.6337  0.0738
  535SOL     OW 2137   1.865   2.369   1.835  0.2544  0.0173 -0.0322
  535SOL    HW1 2138   1.824   2.388   1.749  2.8212 -0.5597 -0.3254
  535SOL    HW2 2139   1.958   2.398   1.831 -0.4632  0.1282 -1.3559
  535SOL     MW 2140   1.872   2.376   1.823  0.4984 -0.0442 -0.2455
  536SOL     OW 2141   0.440   1.874   2.042  0.3485 -0.4734  0.4378
  536SOL    HW1 2142   0.397   1.827   1.974 -0.6716  0.1549 -0.6967
  536SOL    HW2 2143   0.530   1.906   2.014 -0.4199  1.2552  1.5786
  536SOL     MW 2144   0.446   1.872   2.029  0.1125 -0.1624  0.4387
  537SOL     OW 2145   1.011   0.169   2.863  0.1849  0.7284 -0.5256
  537SOL    HW1 2146   0.986   0.181   2.957 -0.9639 -1.2075  0.8839
  537SOL    HW2 2147   1.022   0.253   2.831 -0.1402 -2.0596  1.1241
  537SOL     MW 2148   1.009   0.182   2.871 -0.0095  0.1051 -0.1220
  538SOL     OW 2149   1.363   0.039   2.983 -0.3531 -0.4158  0.0378
  538SOL    HW1 2150   1.330   0.128   2.971 -0.6030  0.4690  0.9587
  538SOL    HW2 2151   1.449   0.034   2.938 -0.0569 -1.6656  0.8813
  538SOL     MW 2152   1.370   0.050   2.975 -0.3470 -0.4639  0.2706
  539SOL     OW 2153   0.756   2.763   2.538 -0.1543  0.1048  0.0107
  539SOL    HW1 2154   0.840   2.795   2.585 -1.3609  0.5907  2.0509
  539SOL    HW2 2155   0.757   2.667   2.540  0.5414 -0.7073 -2.9656
  539SOL     MW 2156   0.767   2.754   2.544 -0.2217  0.0618 -0.1128
  540SOL     OW 2157   0.404   2.411   2.825  0.5901  0.3980  0.1384
  540SOL    HW1 2158   0.484   2.405   2.873  0.1136  0.2240 -1.9074
  540SOL    HW2 2159   0.339   2.398   2.892 -0.2636 -1.3144 -1.6892
  540SOL     MW 2160   0.406   2.408   2.840  0.4146  0.1491 -0.3727
  541SOL     OW 2161   0.195   2.949   2.216  0.5346  0.1133  0.1429
  541SOL    HW1 2162   0.191   2.871   2.157 -1.5286 -1.4073 -1.7398
  541SOL    HW2 2163   0.235   2.913   2.300  0.8376 -1.2036  2.8615
  541SOL     MW 2164   0.200   2.934   2.219  0.3024 -0.2611  0.2532
  542SOL     OW 2165   1.007   2.272   2.632  0.2125  0.5992  0.2730
  542SOL    HW1 2166   0.994   2.220   2.709 -2.8824 -0.0966  2.7105
  542SOL    HW2 2167   1.054   2.350   2.665 -1.0295  1.4740 -1.9041
  542SOL     MW 2168   1.012   2.276   2.646 -0.3597  0.6228  0.3073
  543SOL     OW 2169   1.446   2.448   2.814  0.4043 -0.3770  0.1198
  543SOL    HW1 2170   1.459   2.369   2.760  0.5561 -0.5575  3.5130
  543SOL    HW2 2171   1.524   2.508   2.794 -0.5653  1.3551 -1.0864
  543SOL     MW 2172   1.458   2.446   2.804  0.2964 -0.1723  0.4083
  544SOL     OW 2173   0.734   0.203   2.724 -0.2358  0.4268  0.8047
  544SOL    HW1 2174   0.633   0.216   2.704 -3.7849 -0.9248  0.6242
  544SOL    HW2 2175   0.762   0.141   2.657 -0.5423  0.8937  1.6290
  544SOL     MW 2176   0.724   0.197   2.713 -0.7445  0.3101  0.8896
  545SOL     OW 2177   1.571   2.192   2.322  0.3046  0.2674 -0.2816
  545SOL    HW1 2178   1.511   2.237   2.265  1.8423  0.9846  1.4104
  545SOL    HW2 2179   1.628   2.142   2.264 -2.7274  0.2596 -1.0384
  545SOL     MW 2180   1.570   2.191   2.307  0.1074  0.3610 -0.1582
  546SOL     OW 2181   3.012   1.986   0.122 -0.1492 -0.2559 -0.1363
  546SOL    HW1 2182   2.988   2.061   0.074  0.9564 -0.7283  0.4475
  546SOL    HW2 2183   3.102   1.962   0.105  0.7393 -1.1565 -1.8990
  546SOL     MW 2184   3.020   1.993   0.113  0.1139 -0.4371 -0.2919
  547SOL     OW 2185   0.297   3.033   0.114 -0.3194  0.7049 -0.6591
  547SOL    HW1 2186   0.305   3.082   0.029 -1.6378  0.8754  3.0245
  547SOL    HW2 2187   0.283   2.939   0.084  1.6309  0.1931  0.6496
  547SOL     MW 2188   0.296   3.027   0.099 -0.2360  0.6598 -0.0005
  548SOL     OW 2189   0.273   2.540   0.211  0.2665 -0.3488  0.0149
  548SOL    HW1 2190   0.279   2.596   0.130  1.3786 -2.5016  0.9770
  548SOL    HW2 2191   0.255   2.455   0.182 -1.0138  0.1437  0.9533
  548SOL     MW 2192   0.271   2.536   0.197  0.2443 -0.5679  0.2656
  549SOL     OW 2193   0.865   1.868   2.140 -0.3973  0.2133 -0.4060
  549SOL    HW1 2194   0.815   1.931   2.091  2.0602 -0.5928 -1.3260
  549SOL    HW2 2195   0.796   1.841   2.203 -2.9542 -2.4319 -0.9946
  549SOL     MW 2196   0.849   1.873   2.142 -0.4104 -0.2421 -0.6051
  550SOL     OW 2197   1.775   1.700   2.600 -0.0159  0.4769  0.3541
  550SOL    HW1 2198   1.797   1.709   2.502  1.1043  0.2102  1.2428
  550SOL    HW2 2199   1.758   1.791   2.618  0.9203 -0.9120  0.5366
  550SOL     MW 2200   1.776   1.713   2.589  0.2555  0.2584  0.4954
  551SOL     OW 2201   0.878   2.258   0.228 -0.4728 -0.1072 -0.2188
  551SOL    HW1 2202   0.972   2.254   0.219 -0.6550  0.3592 -0.4716
  551SOL    HW2 2203   0.852   2.179   0.181  0.7202  1.0184 -0.1047
  551SOL     MW 2204   0.887   2.247   0.221 -0.3394  0.1028 -0.2371
  552SOL     OW 2205   1.790   1.703   2.308 -0.0657 -0.1876  1.2705
  552SOL    HW1 2206   1.688   1.717   2.309 -1.8710  0.4937 -2.7769
  552SOL    HW2 2207   1.818   1.641   2.236  3.8098 -3.9780 -3.0335
  552SOL     MW 2208   1.780   1.697   2.298  0.2074 -0.5978  0.1686
  553SOL     OW 2209   1.206   2.317   1.470  0.6690  0.1241  0.5015
  553SOL    HW1 2210   1.241   2.230   1.487 -1.0124  2.1433 -0.4789
  553SOL    HW2 2211   1.285   2.365   1.449  0.5775 -1.6580  1.0719
  553SOL     MW 2212   1.221   2.312   1.469  0.4351  0.1553  0.4474
  554SOL     OW 2213   0.538   2.908   2.640 -0.0066  0.0843  0.0079
  554SOL    HW1 2214   0.521   2.981   2.590 -0.2552 -2.5482 -1.7843
  554SOL    HW2 2215   0.601   2.854   2.590  0.0882 -0.5337  0.8255
  554SOL     MW 2216   0.544   2.911   2.627 -0.0269 -0.3445 -0.1207
  555SOL     OW 2217   0.664   2.496   2.524  0.7650 -0.7282  0.0720
  555SOL    HW1 2218   0.628   2.410   2.540  0.1370  3.1443 -1.8811
  555SOL    HW2 2219   0.748   2.472   2.478 -0.7199 -3.2346  1.2525
  555SOL     MW 2220   0.670   2.482   2.520  0.4862 -0.5480 -0.0300
  556SOL     OW 2221   0.952   1.847   0.137 -0.1761  0.9559  0.0741
  556SOL    HW1 2222   1.005   1.852   0.056  0.9142 -0.0708 -0.7168
  556SOL    HW2 2223   1.003   1.864   0.213 -2.6919 -0.4178  0.4680
  556SOL     MW 2224   0.966   1.850   0.136 -0.3642  0.6392  0.0217
  557SOL     OW 2225   0.977   2.663   0.509 -0.2395 -0.1107 -0.6359
  557SOL    HW1 2226   1.023   2.621   0.438 -2.7192  0.6941 -1.9954
  557SOL    HW2 2227   0.922   2.733   0.464 -0.5290  1.3778  0.1978
  557SOL     MW 2228   0.976   2.667   0.494 -0.6049  0.1918 -0.7053
  558SOL     OW 2229   0.253   2.282   3.032 -0.5906  1.0770  0.1473
  558SOL    HW1 2230   0.218   2.212   2.977  0.3060 -1.0705  0.4998
  558SOL    HW2 2231   0.190   2.312   3.100 -2.0796  2.1948  1.1483
  558SOL     MW 2232   0.240   2.277   3.034 -0.6687  0.9411  0.3259
  559SOL     OW 2233   0.999   2.349   2.133 -0.2618 -0.5139 -0.1536
  559SOL    HW1 2234   1.050   2.407   2.193 -1.6315 -0.1594  0.5346
  559SOL    HW2 2235   1.003   2.262   2.174  0.9837  2.4979 -3.5496
  559SOL     MW 2236   1.006   2.346   2.146 -0.2782 -0.0698 -0.5109
  560SOL     OW 2237   2.008   2.875   0.038  0.4663  0.3512 -0.5595
  560SOL    HW1 2238   2.059   2.919  -0.030  0.4568 -0.5728  0.6403
  560SOL    HW2 2239   1.967   2.797  -0.000 -0.5161 -1.7115 -0.0084
  560SOL     MW 2240   2.009   2.870   0.024  0.3354 -0.0429 -0.3285
  561SOL     OW 2241   0.398   2.204   0.151  0.1023 -0.1622 -0.6012
  561SOL    HW1 2242   0.354   2.234   0.066  0.4363  0.5285 -3.6670
  561SOL    HW2 2243   0.475   2.262   0.173  1.6230  1.7747  1.6422
  561SOL     MW 2244   0.402   2.216   0.143  0.3470  0.1845 -0.7097
  562SOL     OW 2245   0.718   2.169   2.176 -0.8471 -0.1606 -0.4896
  562SOL    HW1 2246   0.688   2.261   2.164 -0.7519  0.3185 -0.7766
  562SOL    HW2 2247   0.803   2.182   2.219  1.5242  1.6890 -1.2359
  562SOL     MW 2248   0.725   2.183   2.180 -0.5217  0.1467 -0.6259
  563SOL     OW 2249   1.199   0.303   0.560 -0.0265  0.1062 -0.1252
  563SOL    HW1 2250   1.118   0.289   0.509  1.3845  0.2306  0.2029
  563SOL    HW2 2251   1.211   0.240   0.629  1.6601 -0.7318 -2.6483
  563SOL     MW 2252   1.190   0.293   0.562  0.3822  0.0120 -0.4148
  564SOL     OW 2253   1.061   2.566   2.263  0.4985 -0.3918  0.2721
  564SOL    HW1 2254   1.110   2.592   2.182 -0.0500 -1.6406  2.8553
  564SOL    HW2 2255   1.106   2.612   2.341  0.1652 -1.2428  1.9993
  564SOL     MW 2256   1.074   2.576   2.262  0.3821 -0.6688  0.8408
  565SOL     OW 2257   2.850   2.737   2.659 -0.8497 -0.2572 -0.2449
  565SOL    HW1 2258   2.911   2.800   2.619  0.3229 -1.1616  0.1650
  565SOL    HW2 2259   2.783   2.724   2.586 -2.7319  2.3485 -0.8051
  565SOL     MW 2260   2.849   2.744   2.644 -0.9433 -0.0327 -0.2648
  566SOL     OW 2261   2.195   1.864   2.322 -0.1339 -0.0378 -0.6809
  566SOL    HW1 2262   2.261   1.833   2.259  2.0241  0.5897  1.0939
  566SOL    HW2 2263   2.221   1.949   2.364  1.7790 -3.4315  0.7837
  566SOL     MW 2264   2.207   1.871   2.319  0.4032 -0.4028 -0.2535
  567SOL     OW 2265   1.204   2.904   2.951 -0.0507  0.5926  0.6548
  567SOL    HW1 2266   1.278   2.958   2.944 -0.9113 -0.4162  1.4965
  567SOL    HW2 2267   1.255   2.820   2.959  2.9696  3.5693  1.2145
  567SOL     MW 2268   1.221   2.900   2.951  0.2343  0.8523  0.8397
  568SOL     OW 2269   1.606   2.131   2.873 -0.0566 -0.8158 -0.1629
  568SOL    HW1 2270   1.652   2.182   2.943 -3.0841 -2.9020  1.2447
  568SOL    HW2 2271   1.672   2.062   2.851 -2.1647  1.5929  0.4383
  568SOL     MW 2272   1.621   2.128   2.879 -0.7342 -0.7733  0.1022
  569SOL     OW 2273   0.179   2.279   2.465 -0.3804  0.5903  0.0264
  569SOL    HW1 2274   0.101   2.312   2.424 -2.8296  1.8742 -0.1356
  569SOL    HW2 2275   0.213   2.356   2.514 -1.5531  2.8042 -2.4929
  569SOL     MW 2276   0.173   2.294   2.466 -0.8583  1.0518 -0.3274
  570SOL     OW 2277   1.450   0.370   0.493 -0.4179 -0.2506 -0.4286
  570SOL    HW1 2278   1.355   0.334   0.512 -3.7078  0.6144  0.1990
  570SOL    HW2 2279   1.495   0.390   0.578  1.0815  0.3845 -0.6581
  570SOL     MW 2280   1.443   0.368   0.507 -0.6541 -0.0527 -0.3761
  571SOL     OW 2281   1.511   2.454   2.005 -0.0812  0.3044 -0.1746
  571SOL    HW1 2282   1.522   2.443   2.100  1.0715  0.8726 -0.7086
  571SOL    HW2 2283   1.516   2.371   1.961 -0.6842 -2.8240  1.3096
  571SOL     MW 2284   1.513   2.442   2.012 -0.0086 -0.0334 -0.0493
  572SOL     OW 2285   0.996   2.642   0.089  0.2461 -0.5084  0.6055
  572SOL    HW1 2286   1.024   2.643  -0.002 -2.6508 -0.9825 -0.3345
  572SOL    HW2 2287   0.915   2.586   0.086 -0.0309 -3.8615  1.9051
  572SOL     MW 2288   0.989   2.635   0.077 -0.1727 -1.0134  0.6530
  573SOL     OW 2289   1.148   2.323   0.223 -0.1272 -0.1198  0.1541
  573SOL    HW1 2290   1.243   2.322   0.230  1.9493  0.1230 -0.5293
  573SOL    HW2 2291   1.114   2.414   0.257 -1.4899 -1.1885 -0.5626
  573SOL     MW 2292   1.156   2.335   0.228 -0.0330 -0.2287 -0.0307
  574SOL     OW 2293   1.109   2.557   0.309 -0.1870 -0.4372  0.7803
  574SOL    HW1 2294   1.175   2.613   0.348  3.8429 -0.9702  2.1781
  574SOL    HW2 2295   1.071   2.596   0.229 -0.8316  0.2133 -0.1017
  574SOL     MW 2296   1.113   2.569   0.304  0.2596 -0.4217  0.8484
  575SOL     OW 2297   0.054   2.244   1.814 -0.3433 -0.1572 -0.3339
  575SOL    HW1 2298   0.071   2.165   1.759 -0.8546 -2.2320  1.9177
  575SOL    HW2 2299   0.071   2.331   1.770  2.2750 -1.0652  0.3280
  575SOL     MW 2300   0.059   2.245   1.801 -0.0653 -0.5508  0.0505
  576SOL     OW 2301   2.795   1.824   2.111 -0.6134  0.6554 -0.0536
  576SOL    HW1 2302   2.818   1.876   2.038 -1.7259  0.8430  1.1681
  576SOL    HW2 2303   2.723   1.768   2.078  1.4177 -0.8224  0.6039
  576SOL     MW 2304   2.788   1.824   2.097 -0.4922  0.4851  0.1943
  577SOL     OW 2305   2.059   0.211   0.103 -1.0657  0.3302  0.0144
  577SOL    HW1 2306   1.973   0.214   0.052 -2.8951 -1.4732 -3.0261
  577SOL    HW2 2307   2.035   0.161   0.182  0.1593  0.3109 -0.9806
  577SOL     MW 2308   2.044   0.205   0.106 -1.1454  0.0897 -0.5181
  578SOL     OW 2309   1.928   1.995   2.359 -0.0265 -0.5573 -0.2122
  578SOL    HW1 2310   1.854   2.001   2.304 -1.4741  0.5901  0.0233
  578SOL    HW2 2311   1.995   1.937   2.316  2.7482  2.0460  2.1857
  578SOL     MW 2312   1.927   1.988   2.346  0.1486 -0.0624  0.1353
  579SOL     OW 2313   0.885   2.397   2.410  0.4497 -0.5994  0.4333
  579SOL    HW1 2314   0.932   2.346   2.477 -0.3115  0.9477 -1.9309
  579SOL    HW2 2315   0.947   2.462   2.367  0.8267 -2.6451 -1.7634
  579SOL     MW 2316   0.899   2.399   2.413  0.3990 -0.6652 -0.1685
  580SOL     OW 2317   0.947   2.933   3.047  0.0191 -0.1105 -0.6393
  580SOL    HW1 2318   1.037   2.955   3.027 -1.4040 -0.2767 -0.6442
  580SOL    HW2 2319   0.909   2.888   2.967 -0.4892  0.4422 -0.4749
  580SOL     MW 2320   0.954   2.930   3.034 -0.2357 -0.0595 -0.6183
  581SOL     OW 2321   1.129   2.454   1.693  0.4187 -0.3531  0.1946
  581SOL    HW1 2322   1.187   2.524   1.646 -1.4568  1.6413 -1.6140
  581SOL    HW2 2323   1.136   2.379   1.630 -1.1986 -4.6759  0.6758
  581SOL     MW 2324   1.138   2.453   1.678 -0.0422 -0.6603  0.0195
  582SOL     OW 2325   0.007   2.836   2.571  0.2077 -0.2612  0.6817
  582SOL    HW1 2326  -0.013   2.923   2.601 -0.1434 -2.7811  1.7081
  582SOL    HW2 2327   0.096   2.834   2.540 -2.3577  0.9211 -1.7126
  582SOL     MW 2328   0.016   2.847   2.571 -0.1771 -0.4377  0.5012
  583SOL     OW 2329   1.997   2.415   2.639 -0.3075  0.1659 -0.6381
  583SOL    HW1 2330   2.078   2.445   2.594  1.7142  0.1598 -0.7831
  583SOL    HW2 2331   1.995   2.314   2.637  0.5524  0.7943  0.3722
  583SOL     MW 2332   2.007   2.405   2.633  0.0727  0.2480 -0.5239
  584SOL     OW 2333   0.203   1.852   2.224 -0.6492 -0.2043  0.0681
  584SOL    HW1 2334   0.269   1.838   2.160 -1.8737 -1.2035  1.4442
  584SOL    HW2 2335   0.230   1.937   2.259 -1.8904  1.9225 -0.5130
  584SOL     MW 2336   0.215   1.861   2.220 -0.9745 -0.0555  0.1730
  585SOL     OW 2337   1.519   2.667   0.215  0.3002  0.1919  0.5922
  585SOL    HW1 2338   1.508   2.584   0.174  0.3428 -1.3527  1.6742
  585SOL    HW2 2339   1.444   2.685   0.274 -1.4997  2.3469  2.2885
  585SOL     MW 2340   1.508   2.659   0.217  0.0683  0.2724  0.9587
  586SOL     OW 2341   1.341   2.851   2.549 -0.2365  0.3164  0.3703
  586SOL    HW1 2342   1.399   2.824   2.470 -1.0671 -2.2498 -1.1519
  586SOL    HW2 2343   1.358   2.942   2.562  2.2721 -2.5450  0.2739
  586SOL     MW 2344   1.351   2.860   2.541 -0.0151 -0.3997  0.1568
  587SOL     OW 2345   1.323   1.570   2.168  0.4958 -0.0353 -0.0165
  587SOL    HW1 2346   1.312   1.485   2.215 -0.5460  1.3862  1.2375
  587SOL    HW2 2347   1.268   1.566   2.091 -1.7167  0.7977  0.3000
  587SOL     MW 2348   1.314   1.558   2.164  0.0664  0.2621  0.1907
  588SOL     OW 2349   1.340   2.063   2.735  0.2180 -0.4187 -0.3574
  588SOL    HW1 2350   1.428   2.063   2.782  1.2066  0.2406 -1.0348
  588SOL    HW2 2351   1.277   2.056   2.811  0.9702 -0.2547  0.2120
  588SOL     MW 2352   1.344   2.062   2.751  0.4477 -0.3101 -0.3717
  589SOL     OW 2353   1.285   2.051   0.110  0.3969  0.2425 -0.4055
  589SOL    HW1 2354   1.315   2.135   0.154  0.7214 -0.3325  0.7149
  589SOL    HW2 2355   1.233   2.002   0.175  0.3401 -0.4964 -1.2370
  589SOL     MW 2356   1.282   2.056   0.124  0.4322  0.0692 -0.3674
  590SOL     OW 2357   0.450   2.788   2.204  0.1229 -0.2640 -0.0051
  590SOL    HW1 2358   0.441   2.735   2.129  0.3794  2.0067  0.8832
  590SOL    HW2 2359   0.539   2.816   2.205 -1.6258 -1.3019  1.0291
  590SOL     MW 2360   0.461   2.784   2.194 -0.0740 -0.1013  0.2486
  591SOL     OW 2361   2.253   0.645   0.009 -0.4661 -0.2815 -0.2365
  591SOL    HW1 2362   2.173   0.677  -0.028 -0.9009 -0.9765  0.8475
  591SOL    HW2 2363   2.323   0.691  -0.031  2.2771  1.5847 -3.4784
  591SOL     MW 2364   2.252   0.656  -0.001 -0.1615 -0.1270 -0.5212
  592SOL     OW 2365   1.792   2.958   0.816  0.0563  0.1064 -0.6679
  592SOL    HW1 2366   1.765   3.022   0.741 -1.4572 -0.1316 -0.1786
  592SOL    HW2 2367   1.831   2.892   0.760  0.7751 -0.9373 -1.2785
  592SOL     MW 2368   1.794   2.957   0.798 -0.0486 -0.0627 -0.6839
  593SOL     OW 2369   1.958   0.677   0.818 -0.4877  0.0548 -0.1710
  593SOL    HW1 2370   1.862   0.667   0.791 -0.4292  0.8384 -2.2626
  593SOL    HW2 2371   2.002   0.597   0.789 -1.5014 -0.2284 -1.6937
  593SOL     MW 2372   1.951   0.665   0.810 -0.6138  0.1208 -0.6479
  594SOL     OW 2373   2.809   1.160   1.358 -0.5829  0.2567  0.1117
  594SOL    HW1 2374   2.890   1.222   1.373 -0.7219  0.3702  1.5201
  594SOL    HW2 2375   2.820   1.120   1.275 -2.0702 -0.4223  2.7627
  594SOL     MW 2376   2.821   1.163   1.349 -0.7975  0.1821  0.6473
  595SOL     OW 2377   0.410   1.022   0.822  0.4158  0.1406 -0.2790
  595SOL    HW1 2378   0.426   1.082   0.752  0.7070 -3.0236 -0.2836
  595SOL    HW2 2379   0.432   1.059   0.906 -1.1868  1.0235 -3.7534
  595SOL     MW 2380   0.415   1.034   0.824  0.2428 -0.1604 -0.7380
  596SOL     OW 2381   2.455   1.323   0.568 -0.0181  0.6846  0.1096
  596SOL    HW1 2382   2.518   1.386   0.535 -2.0696 -0.7018 -0.4386
  596SOL    HW2 2383   2.480   1.294   0.658  0.3239  0.3062  1.0113
  596SOL     MW 2384   2.467   1.328   0.576 -0.2436  0.4518  0.1562
  597SOL     OW 2385   2.189   0.706   1.613 -0.3544 -0.0714  0.2522
  597SOL    HW1 2386   2.222   0.640   1.675  2.0675  0.5278  1.0170
  597SOL    HW2 2387   2.133   0.652   1.553 -0.9376 -0.5590 -0.0150
  597SOL     MW 2388   2.186   0.690   1.613 -0.1118 -0.0566  0.3179
  598SOL     OW 2389   2.590   1.008   2.837 -0.0705  0.3531 -0.7112
  598SOL    HW1 2390   2.612   0.998   2.743 -0.2417 -0.6157 -0.4360
  598SOL    HW2 2391   2.662   1.072   2.869  0.3348 -0.6363  0.8428
  598SOL     MW 2392   2.603   1.015   2.829 -0.0396  0.0947 -0.4699
  599SOL     OW 2393   2.953   0.412   2.094  0.5210 -0.1636  0.2686
  599SOL    HW1 2394   3.033   0.418   2.150 -0.2158 -1.4535  0.8923
  599SOL    HW2 2395   2.970   0.489   2.039 -1.7369  0.6227 -0.9399
  599SOL     MW 2396   2.966   0.423   2.094  0.1259 -0.2300  0.1914
  600SOL     OW 2397   1.849   1.599   0.830 -0.0609 -0.0307 -0.0055
  600SOL    HW1 2398   1.870   1.626   0.921  0.1028  1.4946  0.4594
  600SOL    HW2 2399   1.761   1.634   0.809 -1.8884 -1.6847 -1.5134
  600SOL     MW 2400   1.840   1.607   0.839 -0.2805 -0.0477 -0.1431
  601SOL     OW 2401   2.505   0.773   0.805 -0.0712  0.4229 -0.3066
  601SOL    HW1 2402   2.489   0.807   0.902 -0.0681 -0.0402  1.5240
  601SOL    HW2 2403   2.431   0.719   0.774 -2.6781 -0.4672  0.4896
  601SOL     MW 2404   2.493   0.770   0.814 -0.4147  0.2443  0.0400
  602SOL     OW 2405   2.317   1.922   0.799 -0.5900  0.6039 -0.0695
  602SOL    HW1 2406   2.303   1.834   0.762  1.6055  0.2795  0.6626
  602SOL    HW2 2407   2.249   1.980   0.766 -0.1569 -0.0042 -2.3163
  602SOL     MW 2408   2.306   1.918   0.790 -0.2432  0.4809 -0.2694
  603SOL     OW 2409   0.011   1.347   1.825  0.6744  0.1449  0.4173
  603SOL    HW1 2410   0.058   1.393   1.894 -1.5272  0.9871  0.0194
  603SOL    HW2 2411   0.042   1.259   1.806 -0.7711  0.9540 -0.5346
  603SOL     MW 2412   0.021   1.342   1.832  0.1932  0.3628  0.2392
  604SOL     OW 2413   2.153   1.535   0.476  0.2301  0.3144  0.6497
  604SOL    HW1 2414   2.169   1.447   0.518 -1.1738 -1.4538 -0.4357
  604SOL    HW2 2415   2.066   1.577   0.509 -3.6268 -0.0221 -0.3626
  604SOL     MW 2416   2.143   1.529   0.486 -0.4640  0.0367  0.3729
  605SOL     OW 2417   2.584   1.469   0.864 -0.5814 -0.1217  0.6046
  605SOL    HW1 2418   2.587   1.511   0.776 -3.7059  0.2126  2.3778
  605SOL    HW2 2419   2.598   1.379   0.834 -1.6804  1.6245  0.7360
  605SOL     MW 2420   2.586   1.463   0.848 -1.1387  0.1528  0.8559
  606SOL     OW 2421   2.575   1.663   2.012 -0.1905 -1.0488 -0.0127
  606SOL    HW1 2422   2.490   1.701   1.998 -0.9045 -0.1993  0.8664
  606SOL    HW2 2423   2.610   1.636   1.926  0.2855  0.3254 -1.9989
  606SOL     MW 2424   2.569   1.664   1.999 -0.2219 -0.7554 -0.1587
  607SOL     OW 2425   2.414   1.113   3.016  0.3816 -0.2955 -0.8633
  607SOL    HW1 2426   2.472   1.075   2.946  1.3534  1.8702 -0.9330
  607SOL    HW2 2427   2.442   1.069   3.099  3.9534 -0.5558  1.4897
  607SOL     MW 2428   2.426   1.102   3.018  0.9811 -0.0441 -0.5621
  608SOL     OW 2429   1.866   0.275   0.599 -0.0791  0.0706 -0.6229
  608SOL    HW1 2430   1.854   0.339   0.530 -0.5515  0.0790  0.6581
  608SOL    HW2 2431   1.809   0.199   0.584  0.2710 -1.2339  2.3492
  608SOL     MW 2432   1.857   0.273   0.588 -0.0952 -0.1004 -0.0618
  609SOL     OW 2433   2.055   1.979   3.025  0.0946 -0.4841 -0.2643
  609SOL    HW1 2434   1.968   1.936   3.007 -3.6919  0.0555  0.0628
  609SOL    HW2 2435   2.098   1.935   3.104  1.7697  1.9474  2.8701
  609SOL     MW 2436   2.049   1.967   3.033 -0.1839 -0.0921  0.1924
  610SOL     OW 2437   1.766   0.998   1.284 -0.3171  0.0353 -0.3110
  610SOL    HW1 2438   1.801   0.930   1.231 -5.5116  0.5934 -2.5842
  610SOL    HW2 2439   1.670   0.988   1.274 -0.8237  0.6259 -1.0304
  610SOL     MW 2440   1.758   0.988   1.276 -1.0693  0.1869 -0.7059
  611SOL     OW 2441   2.535   1.704   0.689 -0.0160  0.1095 -0.0105
  611SOL    HW1 2442   2.530   1.788   0.729  0.1411 -2.8718  0.3887
  611SOL    HW2 2443   2.479   1.706   0.614  1.6412 -1.4847 -1.1923
  611SOL     MW 2444   2.527   1.716   0.684  0.2234 -0.4942 -0.1137
  612SOL     OW 2445   2.838   2.856   0.398  0.5220  0.7297 -0.2058
  612SOL    HW1 2446   2.875   2.911   0.470 -0.8727  2.2697 -1.0918
  612SOL    HW2 2447   2.916   2.837   0.337  0.6788  0.2959 -0.0573
  612SOL     MW 2448   2.853   2.860   0.400  0.3587  0.8757 -0.3031
  613SOL     OW 2449   1.466   1.014   0.893 -0.1116 -0.0880 -0.2875
  613SOL    HW1 2450   1.503   1.095   0.853 -0.1546 -1.2675 -3.9236
  613SOL    HW2 2451   1.519   0.990   0.969 -1.0029 -0.8009  3.3156
  613SOL     MW 2452   1.478   1.022   0.897 -0.2349 -0.3377 -0.2918
  614SOL     OW 2453   1.996   0.578   1.460 -0.4974  0.4811 -0.6045
  614SOL    HW1 2454   1.974   0.516   1.535 -1.9497 -2.4910  1.2833
  614SOL    HW2 2455   1.949   0.540   1.384 -0.6402 -1.4138  2.6136
  614SOL     MW 2456   1.987   0.565   1.460 -0.7079 -0.1611  0.0692
  615SOL     OW 2457   2.383   0.749   0.228 -0.1524  0.1543  0.3300
  615SOL    HW1 2458   2.440   0.677   0.262 -2.2430  0.6168  2.3202
  615SOL    HW2 2459   2.339   0.734   0.141 -0.1720 -0.2273 -3.6418
  615SOL     MW 2460   2.385   0.738   0.221 -0.4308  0.1650  0.0686
  616SOL     OW 2461   2.526   0.414   1.653 -0.4090 -0.1228  0.1050
  616SOL    HW1 2462   2.559   0.326   1.628  1.8296  0.0934  0.4848
  616SOL    HW2 2463   2.522   0.473   1.580 -4.0875 -0.5860 -0.3621
  616SOL     MW 2464   2.530   0.410   1.640 -0.5990 -0.1554  0.0935
  617SOL     OW 2465   2.799   0.615   1.709 -0.1727 -0.5074  0.0807
  617SOL    HW1 2466   2.734   0.610   1.776 -1.8538 -1.0585  0.5271
  617SOL    HW2 2467   2.843   0.530   1.691  0.7846  1.7799 -2.3030
  617SOL     MW 2468   2.797   0.603   1.716 -0.2682 -0.2784 -0.1749
  618SOL     OW 2469   2.723   0.347   1.926 -0.5690  0.0905 -0.2817
  618SOL    HW1 2470   2.686   0.426   1.897 -1.4921 -1.6557 -0.4608
  618SOL    HW2 2471   2.767   0.366   2.010  0.6326  0.7984 -1.1122
  618SOL     MW 2472   2.724   0.360   1.933 -0.5323 -0.0465 -0.4149
  619SOL     OW 2473   2.645   0.687   0.076  0.0127 -0.0188 -0.1683
  619SOL    HW1 2474   2.685   0.772   0.100  0.6927  2.0304 -0.5133
  619SOL    HW2 2475   2.619   0.662   0.164 -2.9960  0.1637 -1.1712
  619SOL     MW 2476   2.647   0.695   0.091 -0.2945  0.2757 -0.3462
  620SOL     OW 2477   2.206   1.057   0.935  0.1536  0.1304 -0.0297
  620SOL    HW1 2478   2.281   1.031   0.887 -1.0109 -2.3536  1.8872
  620SOL    HW2 2479   2.139   1.000   0.900 -1.2391  0.0589  0.9901
  620SOL     MW 2480   2.207   1.046   0.924 -0.1838 -0.2068  0.3578
  621SOL     OW 2481   1.546   2.194   1.901 -0.0690  0.2710  0.3687
  621SOL    HW1 2482   1.486   2.128   1.934  3.7901  1.7357 -0.9301
  621SOL    HW2 2483   1.625   2.161   1.929 -1.0261 -0.8232 -0.2188
  621SOL     MW 2484   1.549   2.181   1.909  0.3139  0.3199  0.1199
  622SOL     OW 2485   2.631   0.183   0.223 -0.0308  0.2586  0.0086
  622SOL    HW1 2486   2.717   0.227   0.223 -0.5081  0.5287 -2.1238
  622SOL    HW2 2487   2.641   0.098   0.268 -0.6391  0.5311  0.0027
  622SOL     MW 2488   2.644   0.177   0.229 -0.1740  0.3302 -0.2736
  623SOL     OW 2489   2.398   2.783   0.822 -0.1991 -0.0298 -0.3268
  623SOL    HW1 2490   2.471   2.843   0.855  1.7258  0.1627 -4.3540
  623SOL    HW2 2491   2.347   2.780   0.904  2.6503 -2.4782  3.3852
  623SOL     MW 2492   2.401   2.791   0.837  0.4308 -0.3275 -0.3684
  624SOL     OW 2493   2.153   1.689   2.995  0.1544 -0.2351  0.3934
  624SOL    HW1 2494   2.105   1.624   3.038 -0.2410  0.0294  1.6477
  624SOL    HW2 2495   2.075   1.733   2.953 -3.3187  1.0785 -1.2930
  624SOL     MW 2496   2.136   1.686   2.995 -0.3560 -0.0269  0.3364
  625SOL     OW 2497   2.200   1.918   1.040  0.0272  0.0166 -0.2812
  625SOL    HW1 2498   2.254   1.867   1.095 -1.2875  1.2120 -1.5136
  625SOL    HW2 2499   2.237   1.909   0.950 -0.9346 -1.4394 -0.3697
  625SOL     MW 2500   2.212   1.910   1.036 -0.2732 -0.0178 -0.4554
  626SOL     OW 2501   0.308   1.655   2.381 -0.1697  0.5605 -0.2499
  626SOL    HW1 2502   0.238   1.586   2.399 -2.3505  1.1452 -0.0252
  626SOL    HW2 2503   0.256   1.724   2.336  1.7066  3.6688 -2.2399
  626SOL     MW 2504   0.292   1.655   2.377 -0.2099  1.0478 -0.4829
  627SOL     OW 2505   2.441   0.710   2.546 -0.0182  0.0004 -0.2396
  627SOL    HW1 2506   2.399   0.793   2.567 -0.9423 -2.4224 -0.5574
  627SOL    HW2 2507   2.444   0.694   2.453  0.5728 -2.0713  0.1990
  627SOL     MW 2508   2.436   0.719   2.537 -0.0622 -0.5926 -0.2237
  628SOL     OW 2509   2.352   1.417   1.324 -0.0433 -0.7741 -0.6235
  628SOL    HW1 2510   2.297   1.351   1.278  1.1052 -0.4493  1.1381
  628SOL    HW2 2511   2.418   1.443   1.265  0.3770 -4.8093 -1.9523
  628SOL     MW 2512   2.353   1.411   1.310  0.1637 -1.2637 -0.5664
  629SOL     OW 2513   1.865   0.548   1.221  0.0723 -0.0413  0.1438
  629SOL    HW1 2514   1.849   0.636   1.186 -0.7146  0.1378 -2.6997
  629SOL    HW2 2515   1.776   0.504   1.233 -1.5635 -0.7018 -0.3158
  629SOL     MW 2516   1.851   0.554   1.218 -0.2473 -0.1048 -0.2920
  630SOL     OW 2517   2.379   1.824   3.062 -0.6565  0.5516  0.4874
  630SOL    HW1 2518   2.367   1.857   2.978 -0.6625  0.5864  1.9534
  630SOL    HW2 2519   2.291   1.781   3.075 -1.5214 -0.0997  1.4823
  630SOL     MW 2520   2.366   1.823   3.053 -0.7714  0.4703  0.8121
  631SOL     OW 2521   2.042   1.825   1.555  0.2304 -0.5894 -0.8394
  631SOL    HW1 2522   2.053   1.734   1.581  2.8868  0.9446  1.7853
  631SOL    HW2 2523   2.009   1.825   1.469  0.5334  3.3940  0.2901
  631SOL     MW 2524   2.039   1.813   1.547  0.6209  0.1386 -0.3440
  632SOL     OW 2525   0.197   1.969   1.387  0.4856  0.8613  0.3347
  632SOL    HW1 2526   0.142   1.980   1.470  0.2437  2.9380 -2.0244
  632SOL    HW2 2527   0.223   1.879   1.381  1.3842 -1.2379  0.8220
  632SOL     MW 2528   0.193   1.959   1.397  0.5723  0.8583  0.0877
  633SOL     OW 2529   2.553   0.552   0.303  0.4110  0.7347 -0.0091
  633SOL    HW1 2530   2.577   0.531   0.395 -3.1742  2.3988 -0.4826
  633SOL    HW2 2531   2.538   0.467   0.256 -0.7893  1.9844 -1.0404
  633SOL     MW 2532   2.554   0.538   0.309 -0.2204  1.1191 -0.2077
  634SOL     OW 2533   2.664   0.034   0.647  0.2295 -0.6885  0.1282
  634SOL    HW1 2534   2.713   0.110   0.615  0.0876 -1.2549 -0.9294
  634SOL    HW2 2535   2.633  -0.003   0.561  4.6958 -0.1708 -1.1798
  634SOL     MW 2536   2.666   0.039   0.631  0.8001 -0.6949 -0.1839
  635SOL     OW 2537   2.601   0.128   1.836  0.3020  0.0610 -0.1671
  635SOL    HW1 2538   2.662   0.073   1.788 -3.9149  1.9793 -2.0856
  635SOL    HW2 2539   2.640   0.208   1.871 -1.7953  0.1468  2.0351
  635SOL     MW 2540   2.614   0.131   1.834 -0.5311  0.3254 -0.1296
  636SOL     OW 2541   2.826   1.602   0.971  0.1071  0.4621 -0.6632
  636SOL    HW1 2542   2.749   1.606   0.917  1.8982 -1.9887 -2.7488
  636SOL    HW2 2543   2.838   1.689   0.997  1.4297 -0.9337 -3.8343
  636SOL     MW 2544   2.818   1.614   0.967  0.5179 -0.0455 -1.3567
  637SOL     OW 2545   2.873   1.443   0.726  0.3374 -0.3406 -0.4722
  637SOL    HW1 2546   2.901   1.529   0.696 -3.4482  0.3509 -0.3984
  637SOL    HW2 2547   2.864   1.452   0.819 -0.1397  1.1350 -3.2111
  637SOL     MW 2548   2.876   1.455   0.735 -0.2250 -0.0547 -0.8238
  638SOL     OW 2549   2.683   0.518   0.571 -0.1671  0.3474 -0.7072
  638SOL    HW1 2550   2.762   0.536   0.520  0.6705 -0.6277  3.6864
  638SOL    HW2 2551   2.708   0.550   0.658 -0.0989 -2.4722  0.2434
  638SOL     MW 2552   2.697   0.525   0.576 -0.0476 -0.1532 -0.0020
  639SOL     OW 2553   1.721   0.030   0.587 -0.1782  0.1737  0.2103
  639SOL    HW1 2554   1.629   0.036   0.575  3.9191 -1.0292  1.4793
  639SOL    HW2 2555   1.759   0.002   0.504  1.6589  0.0840 -0.6894
  639SOL     MW 2556   1.714   0.027   0.574  0.6048  0.0031  0.2590
  640SOL     OW 2557   0.309   1.306   0.136 -0.3135  0.2835  0.5429
  640SOL    HW1 2558   0.333   1.306   0.040  0.0505  2.5298 -1.8786
  640SOL    HW2 2559   0.299   1.208   0.147 -0.6479 -1.4536  1.5044
  640SOL     MW 2560   0.311   1.293   0.125 -0.3096  0.3507  0.3503
  641SOL     OW 2561   2.183   0.401   0.420  0.3028 -0.0132  0.3605
  641SOL    HW1 2562   2.211   0.389   0.325 -1.5444  0.6089  1.5797
  641SOL    HW2 2563   2.267   0.382   0.467  1.4123  1.1613  0.0175
  641SOL     MW 2564   2.198   0.397   0.414  0.2055  0.2238  0.4761
  642SOL     OW 2565   0.057   3.086   0.555  0.2834  0.0430 -0.1747
  642SOL    HW1 2566   0.051   3.178   0.510  1.4178  0.0153 -1.3317
  642SOL    HW2 2567  -0.030   3.064   0.586  0.6245 -0.7574 -0.3119
  642SOL     MW 2568   0.045   3.095   0.553  0.4781 -0.0663 -0.3454
  643SOL     OW 2569   1.989   0.377   1.644 -0.0873  0.1861  0.7713
  643SOL    HW1 2570   1.919   0.338   1.691  3.6750 -0.5858  0.0313
  643SOL    HW2 2571   2.045   0.304   1.613  1.0624  0.4801  0.9629
  643SOL     MW 2572   1.987   0.362   1.646  0.5608  0.1230  0.6990
  644SOL     OW 2573   2.748   1.961   1.071 -0.5132 -0.4945 -0.0640
  644SOL    HW1 2574   2.729   1.899   1.140  0.0525  1.3498  1.9915
  644SOL    HW2 2575   2.666   2.010   1.044 -1.8020 -2.8973  1.4851
  644SOL     MW 2576   2.735   1.959   1.077 -0.6086 -0.5682  0.4116
  645SOL     OW 2577   2.814   0.837   0.655 -0.4821  0.1897  0.3520
  645SOL    HW1 2578   2.901   0.806   0.669 -2.5966 -0.7055  0.5159
  645SOL    HW2 2579   2.765   0.776   0.716 -1.5638  2.1081 -1.0804
  645SOL     MW 2580   2.819   0.825   0.665 -0.9038  0.3247  0.1847
  646SOL     OW 2581   0.083   2.283   0.843 -0.2846 -0.6798  0.0171
  646SOL    HW1 2582   0.104   2.187   0.837 -1.6228 -1.9838  2.1683
  646SOL    HW2 2583   0.029   2.292   0.764 -0.5363  3.7013 -1.7873
  646SOL     MW 2584   0.078   2.271   0.832 -0.4944 -0.2738  0.0629
  647SOL     OW 2585   2.696   0.474   2.907  0.9883  0.1720 -0.0364
  647SOL    HW1 2586   2.626   0.414   2.939 -2.0654  0.9190  0.0584
  647SOL    HW2 2587   2.646   0.545   2.865 -0.9742  0.0743  0.9897
  647SOL     MW 2588   2.680   0.476   2.906  0.3264  0.2577  0.1115
  648SOL     OW 2589   2.133   0.732   1.180  0.5593 -0.1554  0.0816
  648SOL    HW1 2590   2.185   0.656   1.219  1.5484  0.9855  0.0071
  648SOL    HW2 2591   2.131   0.797   1.244 -0.8632 -1.3621 -0.8941
  648SOL     MW 2592   2.139   0.730   1.194  0.5021 -0.1641 -0.0569
  649SOL     OW 2593   2.385   2.654   1.296 -0.1558  0.3145  0.3756
  649SOL    HW1 2594   2.469   2.699   1.291  0.8194  1.0848 -0.2088
  649SOL    HW2 2595   2.413   2.566   1.267  2.8651 -1.9386  1.7610
  649SOL     MW 2596   2.399   2.648   1.292  0.3714  0.1188  0.4813
  650SOL     OW 2597   2.852   0.246   0.648 -0.2141  0.2085  0.6669
  650SOL    HW1 2598   2.887   0.308   0.710  0.6800  0.5262  0.4220
  650SOL    HW2 2599   2.923   0.239   0.574  2.6080  1.3988 -1.0061
  650SOL     MW 2600   2.866   0.253   0.647  0.2762  0.4075  0.4139
  651SOL     OW 2601   3.064   0.426   0.970 -0.1079  0.0464  0.4723
  651SOL    HW1 2602   3.100   0.462   0.883  0.0466  1.4634 -1.8538
  651SOL    HW2 2603   3.000   0.491   1.001 -1.6840 -1.8186  1.7096
  651SOL     MW 2604   3.060   0.439   0.963 -0.2955 -0.0127  0.3287
  652SOL     OW 2605   2.423   1.540   3.041 -0.0944 -0.2022  0.0656
  652SOL    HW1 2606   2.498   1.517   2.992 -1.0040  0.6608  0.8398
  652SOL    HW2 2607   2.405   1.627   3.021  2.1031 -2.8314 -3.2095
  652SOL     MW 2608   2.431   1.548   3.032  0.0755 -0.4353 -0.2644
  653SOL     OW 2609   1.827   0.459   0.389  0.3677  0.1966  0.3683
  653SOL    HW1 2610   1.778   0.393   0.334  2.5905  2.0744 -0.4475
  653SOL    HW2 2611   1.909   0.482   0.351 -0.4150  0.7542 -2.5501
  653SOL     MW 2612   1.831   0.453   0.377  0.5577  0.5179 -0.1244
  654SOL     OW 2613   2.419   1.016   0.767 -0.0469 -0.4900 -0.2323
  654SOL    HW1 2614   2.354   1.005   0.692  1.1225 -2.6077 -0.7285
  654SOL    HW2 2615   2.461   0.925   0.776 -1.1356  1.2900  0.8203
  654SOL     MW 2616   2.416   1.003   0.758 -0.0362 -0.5345 -0.1589
  655SOL     OW 2617   2.947   0.810   0.375 -0.1796 -0.3674  0.2273
  655SOL    HW1 2618   2.891   0.827   0.451  0.7181 -0.5517  2.1454
  655SOL    HW2 2619   2.955   0.711   0.377 -0.9050 -2.9806 -0.6826
  655SOL     MW 2620   2.941   0.799   0.385 -0.1569 -0.7365  0.3603
  656SOL     OW 2621   1.867   2.671   1.358 -0.6592 -1.0417 -0.0365
  656SOL    HW1 2622   1.874   2.764   1.345 -1.5974  1.1770 -1.1690
  656SOL    HW2 2623   1.935   2.642   1.425  1.2812 -0.7856  2.4596
  656SOL     MW 2624   1.877   2.680   1.365 -0.5270 -0.7152  0.1435
  657SOL     OW 2625   0.132   1.763   1.184  0.6789 -0.2139  0.0350
  657SOL    HW1 2626   0.186   1.830   1.144  2.4264  0.0998 -1.7514
  657SOL    HW2 2627   0.166   1.671   1.155 -1.8736 -0.2699 -0.7196
  657SOL     MW 2628   0.144   1.759   1.175  0.5727 -0.1799 -0.3002
  658SOL     OW 2629   2.672   1.347   0.257 -0.2151 -0.1891  0.1443
  658SOL    HW1 2630   2.638   1.266   0.300 -1.6063 -3.3412 -0.7488
  658SOL    HW2 2631   2.687   1.420   0.322 -0.5175  1.1179  0.3780
  658SOL     MW 2632   2.670   1.346   0.271 -0.4386 -0.4325  0.0573
  659SOL     OW 2633   2.262   1.527   1.002 -0.2255 -0.7524 -0.8378
  659SOL    HW1 2634   2.349   1.511   1.041 -0.9728  1.8291 -1.8682
  659SOL    HW2 2635   2.205   1.543   1.079 -2.5525  2.2678  2.2050
  659SOL     MW 2636   2.266   1.527   1.018 -0.6311 -0.0133 -0.5723
  660SOL     OW 2637   2.062   1.567   1.673 -0.0857 -0.4481 -0.0792
  660SOL    HW1 2638   2.045   1.577   1.771  2.2748  0.6426  1.3293
  660SOL    HW2 2639   2.007   1.487   1.651  0.1014 -1.1116 -0.8519
  660SOL     MW 2640   2.052   1.558   1.683  0.2504 -0.3917  0.0047
  661SOL     OW 2641   2.456   1.006   0.191 -0.2662  0.0606  0.3889
  661SOL    HW1 2642   2.491   1.029   0.279  2.2509 -0.5385 -2.1644
  661SOL    HW2 2643   2.439   0.913   0.202  3.1635  1.0461  0.1289
  661SOL     MW 2644   2.458   0.997   0.204  0.5185  0.1116  0.0177
  662SOL     OW 2645   2.552   3.004   0.904 -0.0127  0.9071 -0.1840
  662SOL    HW1 2646   2.496   3.062   0.957  1.4447 -1.7698  0.9046
  662SOL    HW2 2647   2.590   3.052   0.832 -0.5774  2.1875  1.7868
  662SOL     MW 2648   2.550   3.018   0.902  0.1051  0.7229  0.2197
  663SOL     OW 2649   2.658   1.495   0.498  0.6478 -0.0075 -0.2809
  663SOL    HW1 2650   2.626   1.586   0.469 -1.2489 -1.5824 -1.1590
  663SOL    HW2 2651   2.738   1.511   0.551  1.5177 -0.1277  1.8674
  663SOL     MW 2652   2.664   1.509   0.501  0.5123 -0.2312 -0.1133
  664SOL     OW 2653   2.546   1.535   1.556 -0.0448  0.1031 -0.2433
  664SOL    HW1 2654   2.519   1.626   1.575 -2.4692 -1.0093  2.6798
  664SOL    HW2 2655   2.466   1.486   1.585 -0.1524  0.5037  0.8231
  664SOL     MW 2656   2.532   1.540   1.562 -0.3789  0.0092  0.2831
  665SOL     OW 2657   2.849   0.854   2.015 -0.1417 -0.2571  0.1663
  665SOL    HW1 2658   2.837   0.914   1.942 -1.9716 -0.5043 -0.1573
  665SOL    HW2 2659   2.913   0.788   2.000 -0.6324 -0.3878  2.0977
  665SOL     MW 2660   2.856   0.853   2.003 -0.4479 -0.3070  0.3784
  666SOL     OW 2661   2.776   3.055   1.721 -0.3214  0.4312  0.1180
  666SOL    HW1 2662   2.765   3.046   1.625 -2.0085  1.4795  0.3926
  666SOL    HW2 2663   2.725   2.980   1.751 -2.1595  0.6884 -3.2532
  666SOL     MW 2664   2.768   3.044   1.712 -0.7865  0.6034 -0.2906
  667SOL     OW 2665   1.937   2.663   1.805  0.1581 -0.1620  0.2799
  667SOL    HW1 2666   1.941   2.631   1.897 -0.7019  0.2884 -0.6424
  667SOL    HW2 2667   2.010   2.727   1.800  0.2569  0.3960 -0.5453
  667SOL     MW 2668   1.947   2.667   1.817  0.0576 -0.0289  0.0493
  668SOL     OW 2669   2.739   0.637   0.824  0.1470 -0.4446 -0.3551
  668SOL    HW1 2670   2.796   0.653   0.912  1.3835 -0.7517  0.1069
  668SOL    HW2 2671   2.648   0.683   0.835 -1.7980 -2.9122 -0.4609
  668SOL     MW 2672   2.734   0.645   0.837  0.0535 -0.8107 -0.3081
  669SOL     OW 2673   0.184   0.918   0.695 -0.8748 -0.2615  0.5598
  669SOL    HW1 2674   0.137   0.977   0.757 -0.8053  0.4970  5.1021
  669SOL    HW2 2675   0.267   0.935   0.729 -0.4576 -0.2530 -3.1721
  669SOL     MW 2676   0.189   0.928   0.708 -0.8106 -0.1603  0.6667
  670SOL     OW 2677   2.871   0.303   0.193 -0.6863  0.9191  0.3948
  670SOL    HW1 2678   2.908   0.251   0.127 -0.8363  1.6409 -0.3098
  670SOL    HW2 2679   2.900   0.394   0.181  0.0694  0.6741 -2.4734
  670SOL     MW 2680   2.880   0.308   0.183 -0.6064  0.9820 -0.0766
  671SOL     OW 2681   2.060   3.043   1.536  0.0571  0.4604  0.2699
  671SOL    HW1 2682   2.002   3.015   1.461 -3.2055 -0.2405  1.1225
  671SOL    HW2 2683   1.994   3.076   1.601  0.1984  2.0390  1.8364
  671SOL     MW 2684   2.044   3.044   1.535 -0.3547  0.5762  0.5890
  672SOL     OW 2685   1.894   1.732   1.323 -0.1506 -0.0919  0.2262
  672SOL    HW1 2686   1.823   1.795   1.336  0.2217  2.0320 -2.1531
  672SOL    HW2 2687   1.926   1.741   1.237 -1.0954 -3.0328  0.5906
  672SOL     MW 2688   1.889   1.742   1.313 -0.2262 -0.1997 -0.0397
  673SOL     OW 2689   2.784   1.112   0.608  0.4669 -0.2454  0.2909
  673SOL    HW1 2690   2.790   1.021   0.638 -0.9643  2.0358  0.7268
  673SOL    HW2 2691   2.872   1.145   0.604 -0.1110 -2.1654  0.1870
  673SOL     MW 2692   2.796   1.105   0.611  0.2018 -0.1978  0.3347
  674SOL     OW 2693   2.439   3.055   1.316  0.0906  0.0150 -0.0127
  674SOL    HW1 2694   2.405   3.060   1.229 -1.0155 -1.9334  0.9693
  674SOL    HW2 2695   2.417   2.970   1.352  0.3297 -1.2331 -1.5210
  674SOL     MW 2696   2.432   3.045   1.309 -0.0238 -0.4067 -0.0821
  675SOL     OW 2697   3.065   0.883   1.070 -0.1217 -0.3307  0.1439
  675SOL    HW1 2698   3.139   0.865   1.121 -0.6909 -3.8932  0.2137
  675SOL    HW2 2699   3.095   0.950   1.011  0.6542 -2.8702  0.6039
  675SOL     MW 2700   3.079   0.889   1.069 -0.0945 -1.1358  0.2138
  676SOL     OW 2701   2.928   1.488   1.683  0.2812 -0.2012 -0.1336
  676SOL    HW1 2702   2.874   1.420   1.642  2.2356  2.8694 -1.5423
  676SOL    HW2 2703   2.995   1.446   1.735  1.4961 -1.4659 -2.9226
  676SOL     MW 2704   2.930   1.474   1.684  0.6994  0.0371 -0.6875
  677SOL     OW 2705   2.360   0.603   2.021 -0.1026 -0.2304 -0.0711
  677SOL    HW1 2706   2.335   0.531   1.964  2.1194  0.9818  0.6830
  677SOL    HW2 2707   2.304   0.676   2.007  1.3431 -2.0328  1.6011
  677SOL     MW 2708   2.349   0.603   2.012  0.3813 -0.3083  0.2490
  678SOL     OW 2709   2.537   1.699   0.294 -0.5949  0.5651  0.7689
  678SOL    HW1 2710   2.458   1.737   0.335 -0.0579 -0.2720 -1.4448
  678SOL    HW2 2711   2.509   1.613   0.256  0.4193 -2.6185  1.0580
  678SOL     MW 2712   2.523   1.693   0.294 -0.3902  0.0346  0.5150
  679SOL     OW 2713   2.215   0.440   1.300  0.0688 -0.5930 -0.2659
  679SOL    HW1 2714   2.227   0.373   1.234  1.9210 -0.5586  0.2552
  679SOL    HW2 2715   2.133   0.412   1.341 -0.9152  0.5636 -0.1064
  679SOL     MW 2716   2.206   0.428   1.296  0.1833 -0.4359 -0.1761
  680SOL     OW 2717   2.365   0.170   1.475  0.1961  0.0135 -0.0909
  680SOL    HW1 2718   2.278   0.183   1.454  0.9987  1.5582  2.2494
  680SOL    HW2 2719   2.394   0.103   1.400 -1.8279 -0.0490 -3.3584
  680SOL     MW 2720   2.358   0.163   1.462  0.0349  0.2091 -0.2132
  681SOL     OW 2721   0.284   0.498   1.516  0.0195 -0.1914 -0.2672
  681SOL    HW1 2722   0.253   0.460   1.591 -0.9084  2.3133 -3.1896
  681SOL    HW2 2723   0.376   0.517   1.527  2.6111 -0.3179 -0.0967
  681SOL     MW 2724   0.292   0.495   1.527  0.2390  0.1224 -0.6303
  682SOL     OW 2725   0.124   2.879   1.496  0.6541 -0.1724 -0.0316
  682SOL    HW1 2726   0.192   2.854   1.558 -0.4493 -0.3869  0.0826
  682SOL    HW2 2727   0.060   2.924   1.550  2.3031  0.2277  4.3253
  682SOL     MW 2728   0.125   2.882   1.511  0.7261 -0.1479  0.5583
  683SOL     OW 2729   2.061   0.794   2.981 -0.9224 -0.3659  0.0219
  683SOL    HW1 2730   1.966   0.780   2.960 -0.6375  1.3543  0.5413
  683SOL    HW2 2731   2.057   0.877   3.027 -0.7390 -1.2251 -0.4231
  683SOL     MW 2732   2.048   0.803   2.984 -0.8606 -0.2523  0.0317
  684SOL     OW 2733   2.235   1.675   0.745 -0.0243 -0.3349 -1.2327
  684SOL    HW1 2734   2.222   1.630   0.664  0.1114 -0.3446  0.9422
  684SOL    HW2 2735   2.231   1.608   0.817  0.5895 -0.6875 -0.1737
  684SOL     MW 2736   2.233   1.660   0.744  0.0746 -0.3827 -0.8060
  685SOL     OW 2737   2.613   1.719   1.221 -0.2326 -0.0266 -0.5172
  685SOL    HW1 2738   2.686   1.702   1.282 -0.2754 -0.9870 -0.9236
  685SOL    HW2 2739   2.587   1.635   1.190 -1.0502  0.7491  0.7616
  685SOL     MW 2740   2.619   1.706   1.225 -0.3461 -0.0510 -0.4021
  686SOL     OW 2741   2.899   0.787   1.521  0.1758 -0.3055 -0.2325
  686SOL    HW1 2742   2.858   0.729   1.586 -3.7275  1.0229 -0.9953
  686SOL    HW2 2743   2.988   0.791   1.549  0.9309 -3.2369 -1.2325
  686SOL     MW 2744   2.905   0.780   1.534 -0.2395 -0.5170 -0.4651
  687SOL     OW 2745   2.151   0.192   1.159  0.0285  0.0986 -0.1869
  687SOL    HW1 2746   2.227   0.153   1.108  2.5385 -1.3349  0.6618
  687SOL    HW2 2747   2.085   0.180   1.090  0.2275  3.8900 -0.1476
  687SOL     MW 2748   2.152   0.185   1.143  0.3859  0.4097 -0.0697
  688SOL     OW 2749   2.410   0.588   1.446  0.8175  0.2972 -0.3120
  688SOL    HW1 2750   2.349   0.523   1.398 -0.9579 -0.4229 -2.5030
  688SOL    HW2 2751   2.348   0.622   1.516 -3.0721  1.4160  2.3120
  688SOL     MW 2752   2.393   0.584   1.449  0.0700  0.3498 -0.2549
  689SOL     OW 2753   2.456   0.758   2.979 -0.0929 -0.3879 -0.3106
  689SOL    HW1 2754   2.501   0.845   2.956  1.7508  0.0848  2.0421
  689SOL    HW2 2755   2.507   0.730   3.060  0.9103  0.2306  0.2125
  689SOL     MW 2756   2.469   0.766   2.986  0.2827 -0.2439  0.0688
  690SOL     OW 2757   2.024   0.870   1.841 -0.7717 -0.7695 -0.2363
  690SOL    HW1 2758   2.012   0.775   1.849 -1.4528 -2.4845  0.0569
  690SOL    HW2 2759   2.064   0.908   1.757 -2.0405 -1.0650  1.0145
  690SOL     MW 2760   2.027   0.863   1.831 -1.0290 -1.0347 -0.0326
  691SOL     OW 2761   2.397   0.329   0.902  0.1453 -0.0915 -0.1812
  691SOL    HW1 2762   2.471   0.373   0.942  2.3159  1.5363  0.1584
  691SOL    HW2 2763   2.321   0.384   0.917 -0.2966  0.2543 -0.4453
  691SOL     MW 2764   2.396   0.342   0.909  0.3734  0.1689 -0.1713
  692SOL     OW 2765   2.832   1.711   1.389  0.0966 -0.2485  0.5288
  692SOL    HW1 2766   2.818   1.662   1.469 -0.6853 -1.2152  1.6811
  692SOL    HW2 2767   2.864   1.801   1.417  2.7071  0.2581  1.5442
  692SOL     MW 2768   2.835   1.716   1.403  0.3379 -0.3092  0.8148
  693SOL     OW 2769   2.256   0.402   0.143 -0.0777 -0.2690 -0.1020
  693SOL    HW1 2770   2.189   0.344   0.116  2.3646 -0.1097  1.4037
  693SOL    HW2 2771   2.244   0.488   0.098 -2.4662  2.3234 -0.6862
  693SOL     MW 2772   2.246   0.405   0.133 -0.0706  0.0941  0.0196
  694SOL     OW 2773   1.940   1.203   1.195  0.3634  0.0350 -0.3337
  694SOL    HW1 2774   2.037   1.185   1.202  1.7392 -2.1623 -0.2804
  694SOL    HW2 2775   1.900   1.120   1.225  1.3289  0.0853 -0.2182
  694SOL     MW 2776   1.948   1.189   1.200  0.6723 -0.2483 -0.3114
  695SOL     OW 2777   3.024   1.531   1.294 -0.1042  0.7531 -0.4958
  695SOL    HW1 2778   2.990   1.470   1.221  1.8220 -0.7871 -0.0499
  695SOL    HW2 2779   2.963   1.601   1.307  0.2184 -1.2227 -2.1000
  695SOL     MW 2780   3.011   1.532   1.286  0.1925  0.2892 -0.6486
  696SOL     OW 2781   2.125   1.335   0.828  0.1737  1.0078 -0.0395
  696SOL    HW1 2782   2.166   1.375   0.904 -1.7788 -0.9380 -2.7737
  696SOL    HW2 2783   2.077   1.261   0.874 -0.7214 -0.9149 -1.6583
  696SOL     MW 2784   2.124   1.330   0.844 -0.2020  0.4974 -0.6138
  697SOL     OW 2785   2.906   1.046   2.218 -0.2040  0.6563  0.2044
  697SOL    HW1 2786   2.835   1.110   2.212  0.7179 -2.0188 -1.9577
  697SOL    HW2 2787   2.878   0.978   2.160  1.9131 -0.8407  1.9453
  697SOL     MW 2788   2.893   1.045   2.210  0.1970  0.1058  0.1488
  698SOL     OW 2789   2.556   0.339   0.005 -0.3363  0.0622  0.3035
  698SOL    HW1 2790   2.463   0.351   0.021 -0.7409  1.5520 -0.0425
  698SOL    HW2 2791   2.588   0.276   0.071  3.9780  1.4108 -2.6435
  698SOL     MW 2792   2.548   0.332   0.016  0.1796  0.4367 -0.1310
  699SOL     OW 2793   1.795   1.578   2.071  0.2872  0.1002  0.1284
  699SOL    HW1 2794   1.741   1.498   2.060  2.2210 -2.1465  1.3289
  699SOL    HW2 2795   1.891   1.564   2.057 -0.7477 -1.8114  0.0635
  699SOL     MW 2796   1.801   1.566   2.068  0.4058 -0.4484  0.2782
  700SOL     OW 2797   2.665   0.938   1.477 -0.2413 -0.4153 -0.3618
  700SOL    HW1 2798   2.691   1.023   1.434  0.1518 -0.1956 -2.7118
  700SOL    HW2 2799   2.753   0.893   1.484  0.3276 -2.5624  0.3078
  700SOL     MW 2800   2.680   0.943   1.472 -0.1143 -0.6696 -0.5835
  701SOL     OW 2801   1.650   1.191   2.463  0.3436  0.1509  0.9172
  701SOL    HW1 2802   1.745   1.205   2.447 -0.7666  0.8666  0.7839
  701SOL    HW2 2803   1.631   1.245   2.536 -1.2717  0.4925 -1.9150
  701SOL     MW 2804   1.660   1.200   2.470 -0.0160  0.2904  0.5260
  702SOL     OW 2805   2.134   0.421   0.847  0.6291 -0.3175  0.0910
  702SOL    HW1 2806   2.119   0.332   0.809 -2.1351  2.5562  0.5798
  702SOL    HW2 2807   2.193   0.449   0.777 -1.7109  0.9290 -2.4525
  702SOL     MW 2808   2.140   0.413   0.833 -0.0443  0.2261 -0.1801
  703SOL     OW 2809   2.727   1.212   1.058 -0.1547 -0.5154  0.5764
  703SOL    HW1 2810   2.683   1.215   0.965 -1.9105 -0.2885 -0.9256
  703SOL    HW2 2811   2.774   1.130   1.061  1.9984 -0.8621  1.4555
  703SOL     MW 2812   2.728   1.201   1.046 -0.1023 -0.5312  0.4942
  704SOL     OW 2813   3.024   1.177   0.076  0.2810 -0.0529 -0.6414
  704SOL    HW1 2814   2.925   1.188   0.079 -1.1790  0.1599 -0.0735
  704SOL    HW2 2815   3.047   1.135   0.162  3.1803 -1.8535  2.1701
  704SOL     MW 2816   3.014   1.173   0.087  0.4709 -0.2624 -0.1955
  705SOL     OW 2817   2.187   1.627   1.252 -0.6886  0.2629 -0.5498
  705SOL    HW1 2818   2.099   1.636   1.300  0.2311 -0.6325  0.5280
  705SOL    HW2 2819   2.247   1.559   1.293 -1.3327 -1.7221 -2.5937
  705SOL     MW 2820   2.183   1.619   1.263 -0.6522 -0.1171 -0.6773
  706SOL     OW 2821   3.020   1.233   0.654  0.2033  0.4401 -0.0414
  706SOL    HW1 2822   3.073   1.240   0.568  1.7665  0.9374 -1.5657
  706SOL    HW2 2823   2.991   1.321   0.671 -0.0277 -1.0866 -4.0944
  706SOL     MW 2824   3.023   1.246   0.645  0.3791  0.3043 -0.7773
  707SOL     OW 2825   2.362   0.069   1.035 -0.4828 -0.0449  0.4826
  707SOL    HW1 2826   2.391   0.132   0.971  0.1820  2.4440 -0.2766
  707SOL    HW2 2827   2.279   0.030   0.995 -0.8835 -0.4240  0.9252
  707SOL     MW 2828   2.355   0.072   1.021 -0.4479  0.2334  0.4408
  708SOL     OW 2829   2.416   1.434   0.194 -0.3601 -0.4972 -0.3018
  708SOL    HW1 2830   2.505   1.411   0.207  0.0388 -1.4371  1.4097
  708SOL    HW2 2831   2.392   1.454   0.103 -0.5962  2.0433  0.9740
  708SOL     MW 2832   2.425   1.433   0.183 -0.3386 -0.2861  0.0923
  709SOL     OW 2833   1.774   1.628   0.214  0.0592  0.1201 -0.5053
  709SOL    HW1 2834   1.770   1.676   0.136  0.2583 -0.4864 -1.1590
  709SOL    HW2 2835   1.695   1.655   0.263  0.7771  0.5600  1.0242
  709SOL     MW 2836   1.763   1.638   0.210  0.1802  0.0982 -0.3898
  710SOL     OW 2837   2.207   1.201   1.182 -0.2306 -0.6566 -0.5345
  710SOL    HW1 2838   2.237   1.143   1.111 -1.6875  1.9311 -1.2894
  710SOL    HW2 2839   2.213   1.142   1.262  1.9397 -2.6433  0.6815
  710SOL     MW 2840   2.212   1.186   1.183 -0.1364 -0.5773 -0.4736
  711SOL     OW 2841   2.333   0.143   1.749  0.0262  0.2963 -0.6841
  711SOL    HW1 2842   2.423   0.147   1.783 -0.4421  2.1767 -0.4722
  711SOL    HW2 2843   2.352   0.152   1.654 -1.2892  1.0215  1.3956
  711SOL     MW 2844   2.347   0.145   1.741 -0.2091  0.6401 -0.3817
  712SOL     OW 2845   1.909   0.505   0.127 -0.0678  0.3253 -0.1916
  712SOL    HW1 2846   1.875   0.521   0.037  1.4566 -2.6601  1.1721
  712SOL    HW2 2847   1.918   0.592   0.170  0.6073 -0.9243 -1.8096
  712SOL     MW 2848   1.906   0.518   0.121  0.2224 -0.2335 -0.2252
  713SOL     OW 2849   2.563   0.858   1.086  0.0359 -0.4134  0.2616
  713SOL    HW1 2850   2.588   0.790   1.141  0.5387  1.6907 -1.5157
  713SOL    HW2 2851   2.471   0.882   1.117 -1.9356  3.0167 -0.6257
  713SOL     MW 2852   2.554   0.852   1.098 -0.1579  0.3168 -0.0900
  714SOL     OW 2853   2.223   0.236   2.023 -0.3544 -0.0329 -0.3707
  714SOL    HW1 2854   2.250   0.170   2.084  3.0757  0.1348  0.8297
  714SOL    HW2 2855   2.269   0.208   1.944  2.4913 -2.1785  0.6994
  714SOL     MW 2856   2.233   0.224   2.020  0.4737 -0.2938 -0.0711
  715SOL     OW 2857   1.753   1.869   1.664 -0.0670 -0.1150  0.6415
  715SOL    HW1 2858   1.851   1.865   1.655 -0.7172 -1.7892 -1.3095
  715SOL    HW2 2859   1.730   1.819   1.740  0.1130  0.8070 -0.9179
  715SOL     MW 2860   1.763   1.862   1.672 -0.1290 -0.2143  0.1783
  716SOL     OW 2861   2.305   0.585   0.707  0.0643 -0.0659  0.7161
  716SOL    HW1 2862   2.367   0.519   0.665 -0.2984 -1.0008  1.8477
  716SOL    HW2 2863   2.260   0.629   0.635  0.4164  0.1000  1.8169
  716SOL     MW 2864   2.308   0.582   0.692  0.0629 -0.1673  1.0106
  717SOL     OW 2865   2.862   1.595   2.884 -0.1838  0.7406 -0.4782
  717SOL    HW1 2866   2.947   1.586   2.931 -1.1418  2.9600 -1.6980
  717SOL    HW2 2867   2.816   1.648   2.949 -1.5031 -1.5613  0.0611
  717SOL     MW 2868   2.867   1.601   2.899 -0.4842  0.7297 -0.5680
  718SOL     OW 2869   2.681   1.402   1.327 -0.0799  0.1607  0.4356
  718SOL    HW1 2870   2.658   1.417   1.417 -1.6756  2.2518 -2.2098
  718SOL    HW2 2871   2.723   1.320   1.319 -0.8723  0.2253  0.8575
  718SOL     MW 2872   2.684   1.393   1.338 -0.3950  0.4452  0.1422
  719SOL     OW 2873   2.188   1.294   0.574  0.0841 -0.1318  0.4870
  719SOL    HW1 2874   2.283   1.299   0.561 -2.7736 -0.7880  1.4949
  719SOL    HW2 2875   2.166   1.319   0.669  2.0877 -3.1916  0.7977
  719SOL     MW 2876   2.197   1.298   0.585 -0.0286 -0.6221  0.6610
  720SOL     OW 2877   2.753   1.208   0.027  0.1454 -0.3158 -0.1389
  720SOL    HW1 2878   2.745   1.128   0.076  3.3140  0.1177  1.6237
  720SOL    HW2 2879   2.729   1.290   0.071 -0.2401  1.4144  0.1006
  720SOL     MW 2880   2.749   1.208   0.039  0.5126 -0.0303  0.1253
  721SOL     OW 2881   2.440   0.843   1.366  0.4802 -0.0575 -0.0103
  721SOL    HW1 2882   2.431   0.749   1.391  1.8580 -1.4779  0.9119
  721SOL    HW2 2883   2.526   0.872   1.401 -1.6763  1.2328 -0.0945
  721SOL     MW 2884   2.450   0.835   1.374  0.3775 -0.0747  0.1003
  722SOL     OW 2885   2.589   1.136   0.417  0.1333 -0.7419 -0.4699
  722SOL    HW1 2886   2.523   1.194   0.458  0.7405 -0.9865 -1.7291
  722SOL    HW2 2887   2.662   1.133   0.486 -1.9696  1.9875 -0.7906
  722SOL     MW 2888   2.590   1.143   0.431 -0.0641 -0.4140 -0.6783
  723SOL     OW 2889   2.308   1.373   1.586  0.9257  0.0488  0.1173
  723SOL    HW1 2890   2.343   1.371   1.498  1.2453  2.4423  1.6102
  723SOL    HW2 2891   2.228   1.434   1.584  1.4871 -0.8668  1.2101
  723SOL     MW 2892   2.302   1.381   1.574  1.0419  0.2438  0.4584
  724SOL     OW 2893   2.449   0.383   0.615 -0.4325 -0.3475 -0.4278
  724SOL    HW1 2894   2.444   0.315   0.687  1.5822  0.8215  0.2929
  724SOL    HW2 2895   2.542   0.406   0.605 -0.2308 -0.9344 -1.1488
  724SOL     MW 2896   2.461   0.377   0.623 -0.1401 -0.2707 -0.4278
  725SOL     OW 2897   2.542   0.572   1.191  0.0195  0.1933  0.3822
  725SOL    HW1 2898   2.612   0.606   1.244  0.1367 -1.5895  2.5213
  725SOL    HW2 2899   2.490   0.535   1.257  0.7686 -2.7978 -0.1506
  725SOL     MW 2900   2.545   0.572   1.207  0.1338 -0.4366  0.5942
  726SOL     OW 2901   2.572   2.448   0.558 -0.8730  0.0424  0.1079
  726SOL    HW1 2902   2.537   2.502   0.488 -0.4470 -0.3459  0.1193
  726SOL    HW2 2903   2.498   2.427   0.609  2.9552 -0.8540 -0.3058
  726SOL     MW 2904   2.557   2.452   0.555 -0.3117 -0.1271  0.0548
  727SOL     OW 2905   2.905   0.385   1.692  0.5184 -0.1639  0.1345
  727SOL    HW1 2906   2.860   0.382   1.603  0.8590 -0.4250  1.6877
  727SOL    HW2 2907   2.865   0.317   1.751  1.8167  1.3764  2.7107
  727SOL     MW 2908   2.894   0.375   1.688  0.7347  0.0049  0.6794
  728SOL     OW 2909   2.821   1.184   2.853 -0.4072 -0.0318  0.5344
  728SOL    HW1 2910   2.831   1.262   2.794 -3.0649  2.1345 -0.4800
  728SOL    HW2 2911   2.800   1.218   2.939 -0.9102  0.4624 -1.8304
  728SOL     MW 2912   2.819   1.199   2.857 -0.8242  0.3193  0.0886
  729SOL     OW 2913   2.518   1.494   1.125 -0.3083  0.1352 -0.0917
  729SOL    HW1 2914   2.573   1.438   1.180  1.1066 -1.3192 -1.1053
  729SOL    HW2 2915   2.539   1.469   1.034  0.3904 -2.2420 -1.7946
  729SOL     MW 2916   2.528   1.484   1.121 -0.0294 -0.3703 -0.4502
  730SOL     OW 2917   2.241   1.178   0.170  1.3317  0.0560 -0.1427
  730SOL    HW1 2918   2.320   1.128   0.154 -0.7008  1.2043  1.6140
  730SOL    HW2 2919   2.262   1.254   0.228  0.0526 -1.3151 -0.0064
  730SOL     MW 2920   2.254   1.182   0.175  0.8948  0.0266  0.1071
  731SOL     OW 2921   2.757   1.899   2.850 -0.1914 -0.1906  0.1048
  731SOL    HW1 2922   2.692   1.910   2.781  1.4320 -0.5559  0.1217
  731SOL    HW2 2923   2.840   1.951   2.825  0.9699  0.0675 -0.4845
  731SOL     MW 2924   2.759   1.908   2.837  0.1760 -0.2048  0.0293
  732SOL     OW 2925   2.214   1.004   1.367  0.0199  0.0679  0.0030
  732SOL    HW1 2926   2.176   0.993   1.452  1.1889  0.3105 -0.3265
  732SOL    HW2 2927   2.292   0.952   1.370 -1.2010 -1.2059 -1.7169
  732SOL     MW 2928   2.219   0.996   1.379  0.0130 -0.0681 -0.2674
  733SOL     OW 2929   2.361   2.756   3.020  0.1715  0.0903 -0.1968
  733SOL    HW1 2930   2.284   2.805   2.982 -0.7051 -0.1064  1.3713
  733SOL    HW2 2931   2.330   2.675   3.063 -2.2812 -0.7227  0.7036
  733SOL     MW 2932   2.347   2.752   3.020 -0.2678 -0.0429  0.1289
  734SOL     OW 2933   1.445   0.369   2.447 -0.2652  0.2588 -0.0613
  734SOL    HW1 2934   1.432   0.354   2.539  0.1235  0.9024 -1.1657
  734SOL    HW2 2935   1.488   0.289   2.409 -0.7334 -0.1716 -2.1080
  734SOL     MW 2936   1.449   0.356   2.454 -0.2757  0.2870 -0.4771
  735SOL     OW 2937   2.926   0.882   2.624  0.1168  0.2677  0.0666
  735SOL    HW1 2938   2.931   0.784   2.598  1.0342 -1.0745 -1.8202
  735SOL    HW2 2939   2.985   0.894   2.701 -0.2447 -0.9621  0.5929
  735SOL     MW 2940   2.934   0.870   2.631  0.1901 -0.0716 -0.1129
  736SOL     OW 2941   0.075   0.577   2.475  0.1928  0.3178 -0.0962
  736SOL    HW1 2942   0.134   0.642   2.445  0.5646 -1.4722  0.9110
  736SOL    HW2 2943   0.079   0.509   2.406  1.6368 -0.1993  1.4617
  736SOL     MW 2944   0.084   0.576   2.462  0.4324  0.0134  0.2422
  737SOL     OW 2945   2.932   0.628   2.558 -0.3961 -0.3976  0.3003
  737SOL    HW1 2946   2.892   0.582   2.484  1.6467  0.5473  1.5294
  737SOL    HW2 2947   3.031   0.610   2.539 -1.1753  1.8972  1.4519
  737SOL     MW 2948   2.939   0.620   2.546 -0.2294  0.0298  0.6144
  738SOL     OW 2949   0.163   0.623   1.891 -0.8927 -0.3565  0.1214
  738SOL    HW1 2950   0.254   0.627   1.919  0.3696 -0.8884  1.0837
  738SOL    HW2 2951   0.166   0.553   1.826  0.8333  0.5716  0.7816
  738SOL     MW 2952   0.176   0.614   1.886 -0.4984 -0.3042  0.3355
  739SOL     OW 2953   2.451   1.018   2.053  0.5102 -0.2011  0.2419
  739SOL    HW1 2954   2.391   0.951   2.024 -0.8979  1.9322 -0.6793
  739SOL    HW2 2955   2.508   1.050   1.984 -0.9201 -2.4137 -1.9833
  739SOL     MW 2956   2.451   1.014   2.040  0.1357 -0.2116 -0.1733
  740SOL     OW 2957   0.280   1.749   2.944 -0.2536 -0.3055 -0.4243
  740SOL    HW1 2958   0.221   1.674   2.957 -0.6475 -1.0122  0.3291
  740SOL    HW2 2959   0.366   1.707   2.949 -1.6212 -0.1157 -0.7261
  740SOL     MW 2960   0.284   1.734   2.947 -0.4860 -0.3737 -0.3647
  741SOL     OW 2961   2.241   1.170   2.743 -0.2880 -0.4549 -0.0272
  741SOL    HW1 2962   2.178   1.213   2.679 -1.8060 -1.4559 -1.0029
  741SOL    HW2 2963   2.230   1.227   2.824 -4.0224  2.1712  0.5112
  741SOL     MW 2964   2.231   1.183   2.745 -0.9810 -0.2405 -0.0849
  742SOL     OW 2965   1.505   1.231   2.212 -0.2279  0.1617 -0.1044
  742SOL    HW1 2966   1.521   1.138   2.186 -4.0557  0.0707  1.5519
  742SOL    HW2 2967   1.529   1.237   2.305 -2.1835 -2.0746 -1.1318
  742SOL     MW 2968   1.510   1.220   2.221 -0.9909 -0.1454 -0.0214
  743SOL     OW 2969   2.506   1.300   2.719 -1.0793  0.8382 -0.2600
  743SOL    HW1 2970   2.423   1.299   2.761  1.0639  0.7268 -2.0027
  743SOL    HW2 2971   2.541   1.207   2.715  1.8271 -2.3447 -0.1512
  743SOL     MW 2972   2.500   1.288   2.724 -0.4130  0.4036 -0.4756
  744SOL     OW 2973   2.761   0.965   1.773  0.2650  0.1721  0.0247
  744SOL    HW1 2974   2.679   1.010   1.771  3.1644  1.1803  1.5459
  744SOL    HW2 2975   2.751   0.898   1.709  0.1753  1.6160  0.4017
  744SOL     MW 2976   2.749   0.962   1.764  0.6357  0.4956  0.2751
  745SOL     OW 2977   1.708   0.455   2.490 -0.8194  0.1082 -0.1318
  745SOL    HW1 2978   1.727   0.499   2.410 -2.1266 -2.2850 -2.9032
  745SOL    HW2 2979   1.618   0.424   2.471 -0.3747 -4.0508 -1.8172
  745SOL     MW 2980   1.699   0.457   2.477 -0.9332 -0.7563 -0.7198
  746SOL     OW 2981   1.567   1.436   1.590  0.5179 -0.0988 -0.7587
  746SOL    HW1 2982   1.660   1.429   1.615  2.6756  1.7447  1.1984
  746SOL    HW2 2983   1.524   1.413   1.673 -1.9622  0.9870 -0.7360
  746SOL     MW 2984   1.573   1.432   1.604  0.4754  0.2877 -0.4975
  747SOL     OW 2985   2.544   1.166   1.793 -0.1922  0.6449 -0.1609
  747SOL    HW1 2986   2.449   1.152   1.800 -1.5063 -0.9274  1.2310
  747SOL    HW2 2987   2.553   1.229   1.868 -3.0632 -2.7774  1.9108
  747SOL     MW 2988   2.533   1.173   1.804 -0.7444 -0.0141  0.2960
  748SOL     OW 2989   0.145   0.039   1.799 -0.2052 -0.5463  0.1999
  748SOL    HW1 2990   0.199  -0.033   1.836  1.8586 -0.5435  2.1257
  748SOL    HW2 2991   0.086   0.064   1.871  2.1166 -1.4140 -1.0777
  748SOL     MW 2992   0.144   0.033   1.813  0.3735 -0.6604  0.2854
  749SOL     OW 2993   2.439   0.546   2.797 -0.4731  0.0003 -0.8390
  749SOL    HW1 2994   2.461   0.602   2.720  2.5396  0.2594  2.2146
  749SOL    HW2 2995   2.431   0.618   2.873 -2.4766 -1.7970  0.5935
  749SOL     MW 2996   2.441   0.563   2.797 -0.3400 -0.2027 -0.2471
  750SOL     OW 2997   2.050   3.094   1.971 -0.0892 -0.0136  0.1556
  750SOL    HW1 2998   2.077   3.173   2.017 -0.4440  2.8872 -0.2767
  750SOL    HW2 2999   2.133   3.048   1.954 -1.4254  1.5605  2.4787
  750SOL     MW 3000   2.064   3.098   1.975 -0.3123  0.5768  0.4051
  751SOL     OW 3001   0.041   0.395   2.287 -0.0736 -0.2806 -0.0727
  751SOL    HW1 3002  -0.038   0.342   2.314  1.5396  2.3226 -0.0726
  751SOL    HW2 3003   0.119   0.338   2.263 -0.0888 -1.3728  0.0012
  751SOL     MW 3004   0.041   0.381   2.287  0.1372 -0.0812 -0.0629
  752SOL     OW 3005   2.129   0.816   2.675  0.6336  0.2751 -0.6851
  752SOL    HW1 3006   2.196   0.878   2.643 -0.2030 -0.3609 -1.3651
  752SOL    HW2 3007   2.118   0.837   2.765 -1.6440  2.2550 -2.2861
  752SOL     MW 3008   2.136   0.827   2.682  0.2227  0.4524 -0.9861
  753SOL     OW 3009   2.926   0.242   2.393  0.1557  0.3928  0.5578
  753SOL    HW1 3010   2.874   0.186   2.338  1.5529 -0.2940 -1.0256
  753SOL    HW2 3011   2.882   0.325   2.386 -1.6438  0.1286 -1.2340
  753SOL     MW 3012   2.913   0.246   2.385  0.1026  0.2673  0.1125
  754SOL     OW 3013   2.250   2.993   2.642 -0.8929  0.0969 -0.2748
  754SOL    HW1 3014   2.270   2.973   2.550 -0.2312  0.7377 -1.0780
  754SOL    HW2 3015   2.309   2.932   2.687  1.8597  0.0716  0.7039
  754SOL     MW 3016   2.261   2.983   2.635 -0.4424  0.1781 -0.2517
  755SOL     OW 3017   2.731   1.589   2.484 -0.0524 -0.5479  0.2100
  755SOL    HW1 3018   2.709   1.506   2.533  2.2235 -3.5492  0.8735
  755SOL    HW2 3019   2.794   1.647   2.538  1.7967  2.5856 -0.7574
  755SOL     MW 3020   2.736   1.586   2.498  0.4918 -0.5305  0.1699
  756SOL     OW 3021   2.261   1.345   2.947  0.0712  0.0919  0.0436
  756SOL    HW1 3022   2.281   1.442   2.954  0.9738  0.9426 -0.1971
  756SOL    HW2 3023   2.328   1.299   3.000  0.2171 -0.8697  0.4939
  756SOL     MW 3024   2.273   1.352   2.955  0.2096  0.0773  0.0712
  757SOL     OW 3025   2.100   0.959   1.626  0.4081 -0.6069  0.2397
  757SOL    HW1 3026   2.132   0.866   1.611  0.3412 -0.0346 -0.1885
  757SOL    HW2 3027   2.000   0.965   1.611  1.8024 -0.1005  0.2606
  757SOL     MW 3028   2.091   0.948   1.622  0.5832 -0.4645  0.1859
  758SOL     OW 3029   2.191   1.786   2.610  0.1940 -0.5024  0.0071
  758SOL    HW1 3030   2.201   1.788   2.514  1.3325 -1.0055  0.6020
  758SOL    HW2 3031   2.272   1.754   2.647 -2.5521 -2.1322 -0.1288
  758SOL     MW 3032   2.203   1.782   2.602 -0.0181 -0.7838  0.0676
  759SOL     OW 3033   1.600   1.353   2.726  0.6182  0.0509 -0.0033
  759SOL    HW1 3034   1.589   1.424   2.658 -1.6729 -1.0740  0.2515
  759SOL    HW2 3035   1.668   1.376   2.783  2.3755  0.0095 -2.0289
  759SOL     MW 3036   1.607   1.365   2.724  0.5478 -0.1030 -0.2369
  760SOL     OW 3037   2.544   1.983   2.692 -0.2526  0.4600 -0.4664
  760SOL    HW1 3038   2.526   1.894   2.657 -0.2668  5.2042  1.7168
  760SOL    HW2 3039   2.571   2.030   2.607 -0.7372 -0.8375 -1.9352
  760SOL     MW 3040   2.545   1.978   2.676 -0.3184  0.9147 -0.3721
  761SOL     OW 3041   2.119   0.424   2.468  0.4522  0.0410 -0.1257
  761SOL    HW1 3042   2.070   0.343   2.499  1.0226 -1.6540  0.9936
  761SOL    HW2 3043   2.137   0.473   2.549  3.1857 -0.1429  1.8475
  761SOL     MW 3044   2.115   0.420   2.483  0.8881 -0.2069  0.2823
  762SOL     OW 3045   3.080   0.138   1.995  0.3631 -0.3369  0.0632
  762SOL    HW1 3046   3.062   0.105   2.079 -0.5116 -2.2644 -0.4089
  762SOL    HW2 3047   3.036   0.224   2.002 -2.7562 -0.4028 -0.4681
  762SOL     MW 3048   3.072   0.145   2.007 -0.1638 -0.5999 -0.0692
  763SOL     OW 3049   2.424   1.071   2.336 -0.0102  0.4084 -0.1175
  763SOL    HW1 3050   2.466   1.055   2.246  1.2051  0.1536 -0.6437
  763SOL    HW2 3051   2.463   1.152   2.377  1.4284  0.1165  1.2809
  763SOL     MW 3052   2.435   1.080   2.330  0.3399  0.3362 -0.0024
  764SOL     OW 3053   0.439   0.233   2.778  0.6819  0.2605 -0.1832
  764SOL    HW1 3054   0.363   0.232   2.718  2.0885  2.1224 -0.3838
  764SOL    HW2 3055   0.435   0.310   2.833  0.6043 -0.1350 -1.6416
  764SOL     MW 3056   0.429   0.243   2.777  0.8573  0.4540 -0.4021
  765SOL     OW 3057   2.727   0.092   2.274  0.1327  0.3763 -0.0586
  765SOL    HW1 3058   2.666   0.062   2.200  1.0118  0.1572 -0.8169
  765SOL    HW2 3059   2.757   0.008   2.319  0.3218 -0.6830  1.1436
  765SOL     MW 3060   2.722   0.077   2.270  0.2736  0.2077 -0.0000
  766SOL     OW 3061   1.860   3.033   2.184 -0.7337 -0.4539  0.3688
  766SOL    HW1 3062   1.906   3.084   2.118 -0.0507 -0.0151  3.3174
  766SOL    HW2 3063   1.828   2.957   2.131  1.0578  0.2015 -0.7402
  766SOL     MW 3064   1.862   3.030   2.168 -0.4072 -0.3095  0.6115
  767SOL     OW 3065   2.647   0.631   1.951  0.1097 -0.6708 -0.1184
  767SOL    HW1 3066   2.703   0.688   2.006  1.0022  1.2602 -0.9259
  767SOL    HW2 3067   2.554   0.651   1.971 -0.9969 -0.2072 -0.7936
  767SOL     MW 3068   2.642   0.641   1.961  0.0815 -0.3549 -0.3141
  768SOL     OW 3069   0.021   1.561   2.984 -0.2092  0.0216  0.5853
  768SOL    HW1 3070   0.045   1.531   3.070 -0.3112  1.1449 -0.2556
  768SOL    HW2 3071   0.047   1.482   2.932 -1.1079 -1.6205 -1.6909
  768SOL     MW 3072   0.028   1.547   2.989 -0.3412 -0.0469  0.1741
  769SOL     OW 3073   2.351   0.699   2.279  0.1055  0.1797  0.1457
  769SOL    HW1 3074   2.272   0.644   2.279 -0.1553 -2.6559 -1.3680
  769SOL    HW2 3075   2.409   0.655   2.221 -0.0214  1.5867  2.3248
  769SOL     MW 3076   2.348   0.686   2.272  0.0544 -0.0088  0.2335
  770SOL     OW 3077   0.093   1.652   2.629  0.0705 -0.3268  0.3177
  770SOL    HW1 3078  -0.001   1.646   2.600 -0.7036  0.6062 -0.6057
  770SOL    HW2 3079   0.123   1.569   2.675 -0.2355 -2.9300  3.6345
  770SOL     MW 3080   0.085   1.640   2.631 -0.0720 -0.5471  0.6335
  771SOL     OW 3081   3.002   0.635   1.941 -0.5827 -0.0111 -0.4783
  771SOL    HW1 3082   2.936   0.643   1.867 -0.3844  1.2809  1.8528
  771SOL    HW2 3083   3.091   0.645   1.908  0.8440  0.4801 -1.0418
  771SOL     MW 3084   3.005   0.637   1.927 -0.3683  0.2242 -0.2450
  772SOL     OW 3085   3.073   0.011   2.242 -0.1328 -0.3862 -0.0552
  772SOL    HW1 3086   3.016  -0.031   2.301  4.3159  0.5033 -1.0146
  772SOL    HW2 3087   3.138  -0.052   2.219 -2.4560  1.2545 -3.0164
  772SOL     MW 3088   3.074  -0.003   2.246  0.1477 -0.0524 -0.5725
  773SOL     OW 3089   2.425   2.816   2.743  0.0677  0.1366 -0.3519
  773SOL    HW1 3090   2.417   2.735   2.686  3.4753  0.2188  0.4656
  773SOL    HW2 3091   2.402   2.795   2.838  0.0658 -1.2342  1.3253
  773SOL     MW 3092   2.421   2.803   2.748  0.5171 -0.0334 -0.0228
  774SOL     OW 3093   2.273   1.145   1.744  0.2236 -0.2980 -0.1641
  774SOL    HW1 3094   2.274   1.230   1.697 -1.5289 -2.5580 -4.2430
  774SOL    HW2 3095   2.205   1.103   1.700  0.5534  0.7840 -0.3538
  774SOL     MW 3096   2.264   1.151   1.732  0.0359 -0.4535 -0.7273
  775SOL     OW 3097   2.283   2.946   2.379  0.8271 -0.6070 -0.7901
  775SOL    HW1 3098   2.321   3.023   2.344 -0.2582 -2.8484  0.1145
  775SOL    HW2 3099   2.335   2.877   2.345  2.9746  2.1978 -1.4636
  775SOL     MW 3100   2.295   2.947   2.370  0.9672 -0.5327 -0.7596
  776SOL     OW 3101   0.058   1.422   0.156 -0.5557 -0.1911 -0.5956
  776SOL    HW1 3102   0.137   1.379   0.157 -1.5726  2.7278 -0.7548
  776SOL    HW2 3103  -0.002   1.348   0.149 -1.1905 -2.1265 -0.6687
  776SOL     MW 3104   0.060   1.407   0.155 -0.7736 -0.0613 -0.6262
  777SOL     OW 3105   3.006   1.100   1.716 -0.0126 -0.4444  0.8041
  777SOL    HW1 3106   2.963   1.179   1.678  0.1702  1.7099 -0.8531
  777SOL    HW2 3107   2.928   1.041   1.730 -1.6299 -1.2402 -0.2628
  777SOL     MW 3108   2.990   1.103   1.713 -0.2019 -0.2652  0.4447
  778SOL     OW 3109   2.913   0.439   2.741 -0.3342 -0.3043 -0.3575
  778SOL    HW1 3110   2.841   0.451   2.806 -0.2890 -0.7274 -0.4234
  778SOL    HW2 3111   2.905   0.512   2.681 -0.1963  3.6752  1.2130
  778SOL     MW 3112   2.903   0.451   2.742 -0.3101  0.1649 -0.1590
  779SOL     OW 3113   2.097   0.607   2.281 -0.3221  0.5256  0.3906
  779SOL    HW1 3114   2.018   0.663   2.267  1.4050 -1.6046  0.9414
  779SOL    HW2 3115   2.072   0.526   2.346 -0.7417 -0.2743  0.3836
  779SOL     MW 3116   2.084   0.604   2.287 -0.1496  0.1390  0.4624
  780SOL     OW 3117   0.140   0.188   2.763  0.5397  0.2156  0.1250
  780SOL    HW1 3118   0.125   0.237   2.843  0.7754 -1.7067 -0.1282
  780SOL    HW2 3119   0.051   0.193   2.733  0.3896  0.4877  1.0093
  780SOL     MW 3120   0.126   0.195   2.769  0.5510 -0.0021  0.2083
  781SOL     OW 3121   3.044   1.320   2.514 -0.2736  0.2948 -0.3178
  781SOL    HW1 3122   3.050   1.368   2.431  0.0289 -0.1843 -1.6002
  781SOL    HW2 3123   3.067   1.230   2.486  0.6557 -2.3041 -2.6252
  781SOL     MW 3124   3.048   1.314   2.499 -0.1111 -0.1113 -0.7915
  782SOL     OW 3125   0.749   1.500   3.055 -0.2297  0.1023 -0.4826
  782SOL    HW1 3126   0.666   1.556   3.072 -1.7724 -1.5744 -2.3839
  782SOL    HW2 3127   0.795   1.505   3.140  0.6996  1.6301  1.7105
  782SOL     MW 3128   0.744   1.508   3.069 -0.3106  0.0827 -0.4441
  783SOL     OW 3129   2.767   0.474   2.403  0.4772 -0.1006  0.4916
  783SOL    HW1 3130   2.696   0.462   2.341 -0.1614 -1.4284  1.3675
  783SOL    HW2 3131   2.719   0.455   2.485 -0.8206  2.2291 -1.1079
  783SOL     MW 3132   2.752   0.470   2.406  0.2217  0.0316  0.3962
  784SOL     OW 3133   0.210   0.833   2.879  0.3635  0.2697 -0.3176
  784SOL    HW1 3134   0.195   0.924   2.913 -1.4288 -1.9297 -1.4807
  784SOL    HW2 3135   0.275   0.854   2.818  1.6545  2.6059  1.1002
  784SOL     MW 3136   0.216   0.848   2.876  0.2973  0.2878 -0.2840
  785SOL     OW 3137   0.415   0.484   2.204  0.2471 -0.2583  0.1804
  785SOL    HW1 3138   0.374   0.553   2.150  0.7918  1.5655 -0.2087
  785SOL    HW2 3139   0.344   0.417   2.200 -2.2245 -1.0380  1.1561
  785SOL     MW 3140   0.401   0.485   2.196 -0.0071 -0.1205  0.2578
  786SOL     OW 3141   1.985   0.422   2.938 -0.5516  0.5821  0.3388
  786SOL    HW1 3142   2.004   0.443   3.032 -1.0740 -0.5612 -2.6480
  786SOL    HW2 3143   2.059   0.453   2.878  1.2591  1.6985 -0.5543
  786SOL     MW 3144   1.997   0.429   2.943 -0.3816  0.5786 -0.1731
  787SOL     OW 3145   2.440   0.168   2.900 -0.1537 -0.1949  0.5509
  787SOL    HW1 3146   2.472   0.077   2.858  0.7985  2.0301  0.7447
  787SOL    HW2 3147   2.521   0.203   2.939 -0.8039 -1.6237  0.2861
  787SOL     MW 3148   2.455   0.160   2.900 -0.1139 -0.0899  0.5415
  788SOL     OW 3149   2.866   2.988   2.394  0.3622 -0.1324  0.3640
  788SOL    HW1 3150   2.874   2.979   2.486 -0.0616 -0.5771  1.7989
  788SOL    HW2 3151   2.898   2.898   2.369  2.0072 -0.4285  1.3365
  788SOL     MW 3152   2.871   2.975   2.403  0.5233 -0.2301  0.6816
  789SOL     OW 3153   0.055   0.290   2.997  0.7787  0.2694 -0.6401
  789SOL    HW1 3154  -0.005   0.229   3.034 -0.5540  1.5415 -3.1656
  789SOL    HW2 3155  -0.002   0.367   2.982 -2.6071  2.3560  0.6789
  789SOL     MW 3156   0.039   0.292   3.000  0.1561  0.7126 -0.7993
  790SOL     OW 3157   3.069   1.049   2.458  0.1495 -0.3265 -0.2215
  790SOL    HW1 3158   3.032   0.970   2.515 -2.9324  0.4335 -1.1205
  790SOL    HW2 3159   3.017   1.035   2.371 -1.7545  1.3104 -0.8210
  790SOL     MW 3160   3.057   1.037   2.454 -0.5083 -0.0103 -0.4192
  791SOL     OW 3161   2.631   0.383   2.620 -0.1434 -0.5488  0.1315
  791SOL    HW1 3162   2.547   0.411   2.664 -1.8855  0.3853 -1.3726
  791SOL    HW2 3163   2.685   0.356   2.691  0.4239  0.8668 -1.6197
  791SOL     MW 3164   2.627   0.383   2.635 -0.2984 -0.2388 -0.2980
  792SOL     OW 3165   2.342   0.296   2.397  0.3024 -0.1998  0.7126
  792SOL    HW1 3166   2.267   0.348   2.428 -0.9389 -0.9626  0.0408
  792SOL    HW2 3167   2.349   0.224   2.467  0.2750 -3.2656  0.5100
  792SOL     MW 3168   2.333   0.293   2.410  0.1350 -0.7049  0.5972
  793SOL     OW 3169   1.841   1.023   1.978  0.6570  0.0810  0.1151
  793SOL    HW1 3170   1.788   1.072   1.919  0.5085  2.8703 -0.8203
  793SOL    HW2 3171   1.905   0.983   1.914  2.6173  1.1772 -4.4145
  793SOL     MW 3172   1.842   1.024   1.962  0.8961  0.5936 -0.6060
  794SOL     OW 3173   1.398   2.275   0.188 -0.0554  0.1435 -0.1543
  794SOL    HW1 3174   1.431   2.343   0.125 -1.2321  0.0048  0.7233
  794SOL    HW2 3175   1.456   2.285   0.260  0.5492 -1.5494 -1.7290
  794SOL     MW 3176   1.410   2.285   0.189 -0.1309 -0.0982 -0.2462
  795SOL     OW 3177   2.352   0.967   2.609  0.0238  0.0002 -0.8752
  795SOL    HW1 3178   2.307   1.035   2.663  0.9705 -0.2894 -2.7905
  795SOL    HW2 3179   2.379   1.015   2.527  0.3612  0.3540 -0.1455
  795SOL     MW 3180   2.349   0.982   2.606  0.1932  0.0087 -1.0316
  796SOL     OW 3181   0.257   0.596   2.750 -0.4317  0.5117  0.0806
  796SOL    HW1 3182   0.216   0.655   2.810 -0.8327 -1.6201 -0.0045
  796SOL    HW2 3183   0.206   0.596   2.673  0.0945 -1.5520 -0.6262
  796SOL     MW 3184   0.245   0.604   2.748 -0.4152 -0.0418 -0.0239
  797SOL     OW 3185   2.575   0.104   2.503 -0.2636 -0.2857 -0.0835
  797SOL    HW1 3186   2.610   0.199   2.530 -0.1528  0.9314  0.2798
  797SOL    HW2 3187   2.604   0.092   2.410 -2.5564  0.0355  2.8205
  797SOL     MW 3188   2.584   0.115   2.495 -0.5515 -0.0828  0.3476
  798SOL     OW 3189   2.300   0.071   2.227  0.0101 -0.5427 -0.4203
  798SOL    HW1 3190   2.311   0.160   2.270  0.6820 -0.7396 -1.0560
  798SOL    HW2 3191   2.392   0.056   2.189 -0.1821  2.9298  0.8463
  798SOL     MW 3192   2.314   0.081   2.227  0.0734 -0.1105 -0.3370
  799SOL     OW 3193   2.484   2.956   0.068 -0.5111 -0.3999  0.5874
  799SOL    HW1 3194   2.429   2.884   0.044 -1.5051  0.1146 -0.3074
  799SOL    HW2 3195   2.427   3.034   0.056  2.6008  0.9252  1.1520
  799SOL     MW 3196   2.469   2.957   0.063 -0.2317 -0.1572  0.5438
  800SOL     OW 3197   1.885   0.030   1.751 -0.2119  0.0747  0.3378
  800SOL    HW1 3198   1.832  -0.047   1.735 -0.2024  0.0629 -1.4985
  800SOL    HW2 3199   1.946   0.009   1.821  1.4768 -1.6454 -0.6882
  800SOL     MW 3200   1.886   0.017   1.758  0.0122 -0.1538 -0.0399
  801SOL     OW 3201   2.767   1.281   2.570  0.5961  0.2090  0.0565
  801SOL    HW1 3202   2.770   1.181   2.561  1.3537 -2.4886 -0.6990
  801SOL    HW2 3203   2.858   1.300   2.549 -1.9015  0.8592  0.3002
  801SOL     MW 3204   2.780   1.270   2.566  0.3665 -0.0611 -0.0110
  802SOL     OW 3205   2.605   1.543   2.775 -0.1483 -0.6149  0.5042
  802SOL    HW1 3206   2.572   1.455   2.741 -0.9199  0.5508  0.3793
  802SOL    HW2 3207   2.692   1.522   2.813  3.1269 -1.4574 -2.1921
  802SOL     MW 3208   2.612   1.529   2.775  0.1820 -0.5723  0.1320
  803SOL     OW 3209   2.288   1.412   2.005  0.6921  0.0830 -0.0733
  803SOL    HW1 3210   2.277   1.366   2.086  1.5076 -0.8303 -3.3612
  803SOL    HW2 3211   2.327   1.351   1.949  0.9049  3.6908 -1.2769
  803SOL     MW 3212   2.292   1.397   2.008  0.8278  0.4385 -0.6659
  804SOL     OW 3213   2.286   0.065   0.011  0.3703 -0.2317  0.4401
  804SOL    HW1 3214   2.197   0.108   0.015  0.2660  0.9672  0.0743
  804SOL    HW2 3215   2.328   0.107  -0.064 -1.6295 -0.2555  0.5984
  804SOL     MW 3216   2.280   0.076   0.002  0.0927 -0.0767  0.4127
  805SOL     OW 3217   2.688   1.006   2.553 -0.5258 -0.2395  0.0425
  805SOL    HW1 3218   2.642   0.947   2.494  1.6887 -1.1050 -1.8517
  805SOL    HW2 3219   2.776   0.966   2.576 -0.3474  0.7273  0.7354
  805SOL     MW 3220   2.694   0.993   2.549 -0.2101 -0.2261 -0.1160
  806SOL     OW 3221   2.528   0.443   2.264 -0.1740 -0.8757 -0.5335
  806SOL    HW1 3222   2.459   0.393   2.311  1.9897 -0.4293  1.1040
  806SOL    HW2 3223   2.499   0.462   2.174  0.0120  1.5543 -0.4527
  806SOL     MW 3224   2.515   0.439   2.258  0.1360 -0.4962 -0.3068
  807SOL     OW 3225   0.090   1.141   2.080  0.1824  0.3800  0.2236
  807SOL    HW1 3226   0.114   1.053   2.052  3.4938  0.3974 -0.7616
  807SOL    HW2 3227   0.001   1.150   2.106  1.9665 -1.4936 -2.0966
  807SOL     MW 3228   0.082   1.131   2.080  0.8547  0.1351 -0.2125
  808SOL     OW 3229   2.524   3.072   2.738  0.1717  0.1752 -0.9117
  808SOL    HW1 3230   2.499   2.978   2.722  1.6547  0.4582  1.6237
  808SOL    HW2 3231   2.527   3.115   2.651 -0.6779  1.1291 -0.5018
  808SOL     MW 3232   2.521   3.065   2.724  0.2553  0.3384 -0.5231
  809SOL     OW 3233   2.537   1.294   2.409  0.4572 -0.9002  0.5522
  809SOL    HW1 3234   2.609   1.301   2.472  1.0403 -2.3829 -3.4197
  809SOL    HW2 3235   2.593   1.291   2.328  1.6825  1.1282 -0.9742
  809SOL     MW 3236   2.554   1.295   2.407  0.6958 -0.8282 -0.1733
  810SOL     OW 3237   2.240   1.259   2.250  0.0390 -0.5696  0.4130
  810SOL    HW1 3238   2.305   1.191   2.270  1.6681 -1.3764  1.3498
  810SOL    HW2 3239   2.174   1.211   2.193 -2.1448 -0.8339 -2.5934
  810SOL     MW 3240   2.240   1.244   2.245 -0.0342 -0.7109  0.1400
  811SOL     OW 3241   1.559   0.157   2.293 -0.6406  0.7346 -0.1105
  811SOL    HW1 3242   1.614   0.086   2.339  1.0366 -1.6233  2.3354
  811SOL    HW2 3243   1.550   0.118   2.202 -0.5412 -3.4380 -1.0418
  811SOL     MW 3244   1.565   0.142   2.287 -0.4062 -0.1270  0.0893
  812SOL     OW 3245   1.483   2.858   2.127 -0.6097 -0.2469  0.2938
  812SOL    HW1 3246   1.573   2.836   2.089  1.9939  1.6626 -2.1796
  812SOL    HW2 3247   1.491   2.817   2.217  1.0760  0.2116  0.5333
  812SOL     MW 3248   1.496   2.849   2.134 -0.0438  0.0655 -0.0009
  813SOL     OW 3249   1.823   0.745   2.171  0.1485  0.1571  0.3551
  813SOL    HW1 3250   1.802   0.653   2.196 -2.7355  0.7609  0.8125
  813SOL    HW2 3251   1.841   0.793   2.253 -1.0444  1.7041 -1.5642
  813SOL     MW 3252   1.823   0.739   2.185 -0.3894  0.4409  0.1622
  814SOL     OW 3253   2.761   1.262   1.621 -0.3798 -0.2611  0.1801
  814SOL    HW1 3254   2.669   1.263   1.636  1.2867  3.0652 -0.4043
  814SOL    HW2 3255   2.779   1.219   1.541  1.6237  1.2079  1.6031
  814SOL     MW 3256   2.751   1.257   1.612  0.1044  0.3716  0.2908
  815SOL     OW 3257   2.470   1.677   2.385 -0.1994  0.1541  0.2291
  815SOL    HW1 3258   2.432   1.592   2.369  2.0710 -2.5445  0.9635
  815SOL    HW2 3259   2.567   1.658   2.412  3.2639 -0.7732 -0.3854
  815SOL     MW 3260   2.478   1.663   2.387  0.5571 -0.3243  0.2449
  816SOL     OW 3261   0.785   0.695   2.731 -0.0622 -0.2555  0.0197
  816SOL    HW1 3262   0.754   0.622   2.786  1.2983 -0.2840 -1.1181
  816SOL    HW2 3263   0.708   0.702   2.675 -0.2682  0.7341 -2.8031
  816SOL     MW 3264   0.770   0.686   2.731  0.0901 -0.1287 -0.5028
  817SOL     OW 3265   3.040   1.295   1.472  0.3623 -0.1147 -0.2416
  817SOL    HW1 3266   3.120   1.245   1.471 -0.0831  0.5973  0.2556
  817SOL    HW2 3267   3.051   1.359   1.402  0.3786 -0.6662 -2.7401
  817SOL     MW 3268   3.052   1.297   1.463  0.3057 -0.0936 -0.5057
  818SOL     OW 3269   1.938   1.073   2.687 -0.1263  0.0078  0.2883
  818SOL    HW1 3270   1.958   1.128   2.612  1.3467 -0.0921 -1.0621
  818SOL    HW2 3271   1.988   0.994   2.675  0.7401  0.6884  1.8820
  818SOL     MW 3272   1.947   1.070   2.676  0.1824  0.0844  0.3204
  819SOL     OW 3273   1.874   0.233   2.451  0.2970  0.5000 -0.1531
  819SOL    HW1 3274   1.804   0.303   2.450  4.1122  1.7930  0.5400
  819SOL    HW2 3275   1.897   0.224   2.540 -4.0615  1.7849 -0.7978
  819SOL     MW 3276   1.868   0.241   2.462  0.2253  0.8401 -0.1467
  820SOL     OW 3277   2.458   1.729   2.645 -0.0721  0.3244  0.4489
  820SOL    HW1 3278   2.533   1.685   2.690 -2.6258  0.7816  0.6712
  820SOL    HW2 3279   2.478   1.705   2.550  0.8021 -0.3183  2.2893
  820SOL     MW 3280   2.471   1.720   2.639 -0.2937  0.2999  0.7210
  821SOL     OW 3281   2.584   1.353   1.984  0.0332  0.3399  0.3242
  821SOL    HW1 3282   2.618   1.396   1.907 -2.6181 -1.7319  0.7737
  821SOL    HW2 3283   2.532   1.418   2.031 -2.5018 -0.9743  1.8240
  821SOL     MW 3284   2.582   1.367   1.980 -0.6511 -0.1069  0.5814
  822SOL     OW 3285   2.797   2.581   1.488  0.4897 -0.1405 -0.4762
  822SOL    HW1 3286   2.810   2.601   1.584  0.5522 -0.4331  0.6842
  822SOL    HW2 3287   2.760   2.657   1.450 -1.6031 -0.3878  1.8831
  822SOL     MW 3288   2.794   2.594   1.495  0.2218 -0.2117 -0.0118
  823SOL     OW 3289   2.251   0.452   1.754  0.0606 -0.2701 -0.0546
  823SOL    HW1 3290   2.319   0.399   1.715 -1.1215 -0.5687  0.2382
  823SOL    HW2 3291   2.167   0.416   1.715  0.1114 -0.8076 -1.8324
  823SOL     MW 3292   2.249   0.441   1.743 -0.0887 -0.3804 -0.2506
  824SOL     OW 3293   2.081   1.341   2.608  0.2019 -0.6257  0.5337
  824SOL    HW1 3294   2.114   1.423   2.572 -2.1133  0.3369 -2.0997
  824SOL    HW2 3295   2.014   1.373   2.661 -0.5166 -0.6509  0.1557
  824SOL     MW 3296   2.077   1.356   2.610 -0.1984 -0.5020  0.1363
  825SOL     OW 3297   2.038   2.563   0.313  0.1211  0.1478 -0.2996
  825SOL    HW1 3298   2.020   2.518   0.394  0.9491  1.1407  0.5947
  825SOL    HW2 3299   2.096   2.514   0.255  2.0196 -0.7774  1.8620
  825SOL     MW 3300   2.043   2.551   0.316  0.4808  0.1567  0.1036
  826SOL     OW 3301   1.920   2.425   0.510  0.1152 -0.9134  0.3346
  826SOL    HW1 3302   1.877   2.337   0.530 -1.4631 -2.0426  0.0701
  826SOL    HW2 3303   1.880   2.487   0.567 -0.6533 -0.4262  0.1871
  826SOL     MW 3304   1.909   2.421   0.520 -0.1945 -0.9981  0.2803
  827SOL     OW 3305   1.955   2.219   0.898 -0.6960 -0.1795 -0.3472
  827SOL    HW1 3306   1.879   2.275   0.873  0.4658 -2.1215 -2.9098
  827SOL    HW2 3307   1.923   2.130   0.926  2.0282  0.6998 -2.9767
  827SOL     MW 3308   1.941   2.214   0.898 -0.1833 -0.3197 -1.0323
  828SOL     OW 3309   0.046   2.699   0.630  0.5204 -0.1770 -0.0120
  828SOL    HW1 3310   0.137   2.703   0.602 -1.0517 -0.1763 -2.3196
  828SOL    HW2 3311   0.006   2.714   0.543  0.6243  2.4430  1.7777
  828SOL     MW 3312   0.052   2.701   0.615  0.3267  0.1688 -0.0803
  829SOL     OW 3313   2.964   2.918   1.270  0.0925 -0.0967  0.2564
  829SOL    HW1 3314   2.902   2.941   1.202  0.1339  0.3870  1.9458
  829SOL    HW2 3315   3.005   2.834   1.254 -1.2565 -0.4539 -2.3009
  829SOL     MW 3316   2.961   2.910   1.259 -0.0800 -0.0800  0.1419
  830SOL     OW 3317   2.493   2.844   2.018 -0.3086 -0.4313  0.1930
  830SOL    HW1 3318   2.401   2.866   1.989 -0.7172  0.6318  2.0356
  830SOL    HW2 3319   2.550   2.841   1.940  1.4115  0.5922  3.1190
  830SOL     MW 3320   2.488   2.846   2.004 -0.1355 -0.1560  0.8222
  831SOL     OW 3321   2.421   2.387   1.278 -0.1699  0.1751 -0.3626
  831SOL    HW1 3322   2.391   2.321   1.344  0.5603 -0.6213  1.0299
  831SOL    HW2 3323   2.517   2.371   1.273 -1.8514 -0.0957 -2.2226
  831SOL     MW 3324   2.430   2.376   1.286 -0.2954  0.0343 -0.4243
  832SOL     OW 3325   2.444   2.225   1.911  0.6961  0.3026 -0.2026
  832SOL    HW1 3326   2.470   2.324   1.921  0.8286  1.0786 -0.4462
  832SOL    HW2 3327   2.529   2.178   1.897 -0.6503 -0.3005 -1.3360
  832SOL     MW 3328   2.458   2.232   1.910  0.5359  0.3254 -0.3843
  833SOL     OW 3329   1.778   2.425   0.888 -0.2386  0.2560  0.3348
  833SOL    HW1 3330   1.689   2.400   0.909 -1.4745 -1.0110 -1.6111
  833SOL    HW2 3331   1.785   2.496   0.957  0.8837  3.6405  3.0613
  833SOL     MW 3332   1.767   2.431   0.900 -0.2536  0.5354  0.4378
  834SOL     OW 3333   2.227   2.482   0.554 -0.2664 -0.3173  0.0470
  834SOL    HW1 3334   2.224   2.408   0.609 -1.0546 -1.4345 -0.9657
  834SOL    HW2 3335   2.275   2.439   0.482  2.0386 -1.3206 -2.0507
  834SOL     MW 3336   2.233   2.467   0.552 -0.0663 -0.5971 -0.3634
  835SOL     OW 3337   1.767   2.607   0.694  0.3796 -0.7486  0.4440
  835SOL    HW1 3338   1.778   2.557   0.765 -1.0579  1.5069 -1.4968
  835SOL    HW2 3339   1.847   2.663   0.711 -0.4928  1.2123  1.6363
  835SOL     MW 3340   1.779   2.608   0.706  0.0749 -0.1923  0.3453
  836SOL     OW 3341   1.975   2.129   1.624 -0.4163 -0.3018  0.1262
  836SOL    HW1 3342   2.068   2.140   1.648  1.3724 -2.2404 -1.2729
  836SOL    HW2 3343   1.946   2.219   1.623 -0.0149 -0.6651  1.9011
  836SOL     MW 3344   1.984   2.142   1.627 -0.1274 -0.6055  0.1758
  837SOL     OW 3345   2.095   0.191   0.702 -0.6747 -0.0761 -0.8165
  837SOL    HW1 3346   2.004   0.224   0.676 -1.4832  3.0091  1.3493
  837SOL    HW2 3347   2.133   0.145   0.626  2.2441 -0.0017 -0.7048
  837SOL     MW 3348   2.088   0.189   0.688 -0.3963  0.3408 -0.5160
  838SOL     OW 3349   2.949   2.077   0.896 -0.4430 -0.8762  0.3638
  838SOL    HW1 3350   2.878   2.057   0.956  1.8771 -1.6195 -0.0634
  838SOL    HW2 3351   2.950   2.004   0.831  1.2451 -1.6305 -1.0733
  838SOL     MW 3352   2.940   2.065   0.895  0.0859 -1.0738  0.1178
  839SOL     OW 3353   1.522   2.354   0.917 -0.3969 -0.1290  0.0929
  839SOL    HW1 3354   1.476   2.436   0.928  3.1375  0.1833  2.0707
  839SOL    HW2 3355   1.539   2.324   1.009 -0.9350 -0.3443  0.1284
  839SOL     MW 3356   1.518   2.361   0.930 -0.0016 -0.1162  0.3586
  840SOL     OW 3357   2.317   2.101   2.416  0.2174 -0.0791 -0.0200
  840SOL    HW1 3358   2.284   2.169   2.352  0.4108 -0.6505 -0.0967
  840SOL    HW2 3359   2.398   2.137   2.446 -1.2295 -2.4358 -1.5448
  840SOL     MW 3360   2.323   2.115   2.411  0.0520 -0.4654 -0.2313
  841SOL     OW 3361   2.210   2.411   0.120  0.3132  0.0400 -0.3509
  841SOL    HW1 3362   2.223   2.441   0.028  2.6341 -0.0729  1.0942
  841SOL    HW2 3363   2.153   2.338   0.102 -1.1592 -0.1141 -3.1820
  841SOL     MW 3364   2.204   2.405   0.106  0.4251  0.0048 -0.5337
  842SOL     OW 3365   2.660   1.999   1.577 -0.2808 -0.2363 -0.1304
  842SOL    HW1 3366   2.581   1.942   1.580  2.0168  1.6137 -2.3554
  842SOL    HW2 3367   2.657   2.027   1.491 -1.1937 -1.5593  1.7051
  842SOL     MW 3368   2.649   1.995   1.566 -0.0981 -0.1668 -0.1818
  843SOL     OW 3369   2.666   2.833   1.802  0.2986 -0.1890 -0.5324
  843SOL    HW1 3370   2.747   2.787   1.784 -0.6679  1.8710  1.1772
  843SOL    HW2 3371   2.605   2.781   1.755  1.7738 -0.5999 -0.6337
  843SOL     MW 3372   2.669   2.820   1.794  0.3657  0.0286 -0.3202
  844SOL     OW 3373   2.671   2.299   1.213  0.5497  0.7155  0.1307
  844SOL    HW1 3374   2.697   2.333   1.125  0.4800 -0.8328  0.6919
  844SOL    HW2 3375   2.735   2.311   1.277 -0.0785  0.0905 -2.9165
  844SOL     MW 3376   2.683   2.305   1.210  0.4576  0.4288 -0.1973
  845SOL     OW 3377   2.840   2.459   0.271 -0.4261 -0.0977 -0.0264
  845SOL    HW1 3378   2.784   2.395   0.319  0.1269  1.2216 -0.2480
  845SOL    HW2 3379   2.867   2.506   0.350  0.5951 -0.2024 -1.2659
  845SOL     MW 3380   2.836   2.457   0.288 -0.2184  0.0626 -0.2192
  846SOL     OW 3381   1.512   2.851   0.812  0.1799  0.0893  0.5221
  846SOL    HW1 3382   1.588   2.901   0.848 -0.3079  1.3253 -1.4174
  846SOL    HW2 3383   1.433   2.894   0.841  1.4384 -0.7862  0.1572
  846SOL     MW 3384   1.512   2.863   0.821  0.2815  0.1369  0.2181
  847SOL     OW 3385   2.515   1.938   0.177 -0.0017  0.2440 -0.0325
  847SOL    HW1 3386   2.540   1.855   0.228  1.4582 -1.2193 -0.0305
  847SOL    HW2 3387   2.454   1.912   0.112  4.3311  2.3947  0.5115
  847SOL     MW 3388   2.510   1.924   0.175  0.7626  0.3347  0.0395
  848SOL     OW 3389   2.525   2.074   1.341  0.4594  0.2705 -0.1617
  848SOL    HW1 3390   2.592   2.106   1.283 -1.8439  0.1040  2.4163
  848SOL    HW2 3391   2.475   2.002   1.305  0.4438  0.9401 -2.5538
  848SOL     MW 3392   2.527   2.069   1.329  0.1534  0.3369 -0.1372
  849SOL     OW 3393   1.993   2.748   0.756  0.2774  0.9303 -0.2260
  849SOL    HW1 3394   2.027   2.706   0.834  0.8009  0.5855 -0.7610
  849SOL    HW2 3395   2.071   2.754   0.703  1.3632  0.6442  4.3352
  849SOL     MW 3396   2.008   2.744   0.760  0.4897  0.8471  0.3052
  850SOL     OW 3397   2.286   1.924   1.726  0.2636  0.1116  0.2130
  850SOL    HW1 3398   2.200   1.903   1.675 -1.8960 -0.1912  0.2937
  850SOL    HW2 3399   2.285   2.017   1.751  3.1597  0.1256 -1.9615
  850SOL     MW 3400   2.274   1.933   1.722  0.3607  0.0735 -0.0633
  851SOL     OW 3401   2.360   2.375   0.337  0.3331  0.3155 -0.7127
  851SOL    HW1 3402   2.311   2.385   0.256  2.1686  0.5363 -1.0649
  851SOL    HW2 3403   2.414   2.457   0.338  1.6228 -2.8065 -2.8491
  851SOL     MW 3404   2.360   2.387   0.327  0.7454 -0.0673 -1.0411
  852SOL     OW 3405   2.336   2.101   0.311 -0.0840 -0.0411  0.5229
  852SOL    HW1 3406   2.369   2.190   0.305  0.9907 -1.3089  0.2455
  852SOL    HW2 3407   2.392   2.065   0.240 -0.6967 -0.3035 -0.1596
  852SOL     MW 3408   2.348   2.108   0.301 -0.0231 -0.2430  0.3962
  853SOL     OW 3409   2.466   2.493   1.977 -0.4423  0.2390 -0.2173
  853SOL    HW1 3410   2.494   2.556   1.915  0.3910  0.7381  2.2037
  853SOL    HW2 3411   2.550   2.475   2.022 -2.1285  2.3663  0.1132
  853SOL     MW 3412   2.480   2.499   1.975 -0.5549  0.5856  0.1458
  854SOL     OW 3413   2.860   2.315   0.795  0.6166 -0.5046  0.0662
  854SOL    HW1 3414   2.785   2.269   0.755  0.7443 -0.2662 -2.6251
  854SOL    HW2 3415   2.918   2.249   0.840  1.6387  1.5556 -0.6059
  854SOL     MW 3416   2.857   2.300   0.795  0.7683 -0.2013 -0.3776
  855SOL     OW 3417   2.669   2.267   0.365  0.1917  0.5468 -0.1185
  855SOL    HW1 3418   2.640   2.313   0.438 -0.8589 -0.8408 -0.7245
  855SOL    HW2 3419   2.734   2.207   0.392  1.4636  1.2977 -1.4046
  855SOL     MW 3420   2.673   2.265   0.378  0.2209  0.4628 -0.3681
  856SOL     OW 3421   2.132   1.886   0.166  0.0219 -0.2903  0.0062
  856SOL    HW1 3422   2.062   1.877   0.227  2.1693 -0.4181 -2.0080
  856SOL    HW2 3423   2.193   1.956   0.192  0.2655 -1.4524  1.2354
  856SOL     MW 3424   2.131   1.894   0.177  0.3374 -0.4605 -0.0974
  857SOL     OW 3425   2.495   1.982   0.520  0.2477 -0.5742  0.3067
  857SOL    HW1 3426   2.458   2.042   0.452 -2.4830  3.6348 -3.1634
  857SOL    HW2 3427   2.419   1.929   0.531  0.7258  1.0965  0.6288
  857SOL     MW 3428   2.480   1.983   0.512 -0.0495  0.2016 -0.1086
  858SOL     OW 3429   2.878   2.640   1.762 -0.4938  0.3821  0.2641
  858SOL    HW1 3430   2.957   2.695   1.775  0.1167  2.6839  0.1303
  858SOL    HW2 3431   2.908   2.550   1.782  1.9409  2.1748  0.4525
  858SOL     MW 3432   2.892   2.636   1.766 -0.0920  0.9223  0.2713
  859SOL     OW 3433   2.100   2.583   0.949  0.4090 -0.4169 -0.3415
  859SOL    HW1 3434   2.059   2.514   1.004 -1.1389 -1.1895 -0.2881
  859SOL    HW2 3435   2.175   2.535   0.909  2.1255 -0.9611  1.8232
  859SOL     MW 3436   2.104   2.568   0.951  0.4313 -0.5906 -0.0488
  860SOL     OW 3437   2.676   2.590   0.119  0.0816  0.2650  0.1011
  860SOL    HW1 3438   2.759   2.571   0.170 -2.2513  2.9048  0.7449
  860SOL    HW2 3439   2.705   2.670   0.070 -0.9331 -0.1153  1.0577
  860SOL     MW 3440   2.690   2.598   0.119 -0.3601  0.5631  0.3123
  861SOL     OW 3441   1.595   2.132   1.123 -0.6145 -0.2861 -0.2405
  861SOL    HW1 3442   1.580   2.201   1.183 -2.3110 -0.6178 -1.7201
  861SOL    HW2 3443   1.534   2.068   1.162 -1.4625  0.2143 -0.7268
  861SOL     MW 3444   1.585   2.133   1.136 -0.9502 -0.2638 -0.4999
  862SOL     OW 3445   2.466   1.791   1.576  0.0780  0.2450 -0.2116
  862SOL    HW1 3446   2.400   1.841   1.621  1.3868  1.3426 -1.1074
  862SOL    HW2 3447   2.432   1.782   1.487  1.3801 -3.7437 -0.2116
  862SOL     MW 3448   2.453   1.797   1.570  0.4225 -0.1365 -0.3298
  863SOL     OW 3449   3.017   1.810   1.017 -0.0917 -0.1692 -0.0709
  863SOL    HW1 3450   3.091   1.771   1.070 -1.2224 -1.1790 -2.3029
  863SOL    HW2 3451   3.017   1.903   1.035 -0.1682 -0.7719 -1.2131
  863SOL     MW 3452   3.027   1.817   1.027 -0.2510 -0.3820 -0.5161
  864SOL     OW 3453   3.053   1.848   0.761  0.0125  0.1108 -0.1762
  864SOL    HW1 3454   3.034   1.830   0.857 -2.2443 -0.4883  0.0671
  864SOL    HW2 3455   2.994   1.791   0.700 -2.0504 -1.2249 -2.5891
  864SOL     MW 3456   3.043   1.838   0.766 -0.5574 -0.1445 -0.4624
  865SOL     OW 3457   2.516   2.199   0.002 -1.0549  0.2133 -0.1590
  865SOL    HW1 3458   2.517   2.123   0.055  1.9882 -0.5522 -0.4838
  865SOL    HW2 3459   2.457   2.183  -0.067  0.0556 -1.5205  0.1949
  865SOL     MW 3460   2.508   2.187   0.000 -0.5069 -0.1165 -0.1551
  866SOL     OW 3461   2.663   2.378   1.686 -0.2668 -0.0759  0.4737
  866SOL    HW1 3462   2.620   2.306   1.729  0.5281 -0.6495  1.1434
  866SOL    HW2 3463   2.713   2.337   1.612  0.5455  0.3459 -2.2423
  866SOL     MW 3464   2.664   2.363   1.682 -0.0547 -0.0959  0.2037
  867SOL     OW 3465   0.030   2.746   1.808 -0.1432 -0.0864 -0.6830
  867SOL    HW1 3466   0.051   2.746   1.908 -0.5153 -2.1553 -2.5335
  867SOL    HW2 3467  -0.007   2.836   1.787 -0.3322 -0.4827  2.4265
  867SOL     MW 3468   0.028   2.758   1.818 -0.2173 -0.4117 -0.5169
  868SOL     OW 3469   2.825   2.603   0.540 -0.0419  0.0339  0.2629
  868SOL    HW1 3470   2.743   2.555   0.551 -1.0943  0.2887  0.2823
  868SOL    HW2 3471   2.797   2.685   0.499  0.2425  1.4659  1.3977
  868SOL     MW 3472   2.811   2.607   0.536 -0.1432  0.2564  0.4152
  869SOL     OW 3473   2.059   2.327   1.106 -0.1760 -0.1911 -0.3424
  869SOL    HW1 3474   2.153   2.325   1.107 -2.1942  1.3426  1.2918
  869SOL    HW2 3475   2.020   2.302   1.019  1.2211  0.3372 -0.6508
  869SOL     MW 3476   2.067   2.323   1.095 -0.2579  0.0809 -0.1675
  870SOL     OW 3477   2.148   0.046   0.460 -0.1324  0.4851 -0.1875
  870SOL    HW1 3478   2.218   0.087   0.405 -3.3304 -0.8495 -0.2742
  870SOL    HW2 3479   2.151  -0.049   0.444 -2.5533  0.8105  2.5548
  870SOL     MW 3480   2.158   0.039   0.450 -0.8738  0.3520  0.1629
  871SOL     OW 3481   2.512   2.086   0.966 -0.0484 -0.1029  0.0815
  871SOL    HW1 3482   2.444   2.024   0.939 -2.2865 -2.3293  2.9799
  871SOL    HW2 3483   2.458   2.150   1.011  1.2120  1.5187  0.3679
  871SOL     MW 3484   2.496   2.086   0.968 -0.1774 -0.1827  0.5017
  872SOL     OW 3485   2.012   2.541   1.544  0.2628 -0.1943 -0.0011
  872SOL    HW1 3486   1.975   2.570   1.631  2.0821  2.5147  1.3078
  872SOL    HW2 3487   1.942   2.489   1.508  0.8667 -0.0322  1.9270
  872SOL     MW 3488   1.998   2.538   1.550  0.5825  0.1845  0.4260
  873SOL     OW 3489   2.919   2.012   1.957 -0.2067 -0.3554  0.2392
  873SOL    HW1 3490   2.912   2.050   2.049  1.9380 -2.5693  2.1867
  873SOL    HW2 3491   3.014   2.016   1.934 -1.0130  1.9597  2.8946
  873SOL     MW 3492   2.930   2.018   1.966 -0.0301 -0.3420  0.8465
  874SOL     OW 3493   2.300   1.434   2.460 -0.2731  0.0459  0.4893
  874SOL    HW1 3494   2.259   1.370   2.390  3.5149 -2.4298 -0.8123
  874SOL    HW2 3495   2.380   1.385   2.475  1.4982  1.4668 -1.6783
  874SOL     MW 3496   2.305   1.419   2.453  0.4604 -0.0932  0.0316
  875SOL     OW 3497   2.343   2.285   1.052  0.3823 -0.6386 -0.1734
  875SOL    HW1 3498   2.375   2.351   0.992 -2.1268 -0.5772 -1.2380
  875SOL    HW2 3499   2.366   2.312   1.143  1.3278 -0.9672  0.1856
  875SOL     MW 3500   2.350   2.297   1.056  0.1760 -0.6739 -0.2665
  876SOL     OW 3501   3.045   2.273   1.287  0.3699  0.1654  0.0641
  876SOL    HW1 3502   3.067   2.317   1.203 -1.8264  1.4709 -2.0887
  876SOL    HW2 3503   3.094   2.317   1.356 -0.4664 -0.2085  0.5599
  876SOL     MW 3504   3.054   2.284   1.285 -0.0303  0.2883 -0.1545
  877SOL     OW 3505   3.085   2.737   0.328  0.8286  0.4795 -0.6268
  877SOL    HW1 3506   3.148   2.808   0.311 -0.8724  1.2668  0.1211
  877SOL    HW2 3507   3.081   2.684   0.251  2.3480  0.5704 -0.2273
  877SOL     MW 3508   3.093   2.739   0.316  0.8046  0.5954 -0.4754
  878SOL     OW 3509   2.371   1.822   1.308  0.2492  0.3536  0.6631
  878SOL    HW1 3510   2.296   1.757   1.283  1.3822 -3.8147 -2.4696
  878SOL    HW2 3511   2.449   1.773   1.268  2.1284 -0.7593 -1.9371
  878SOL     MW 3512   2.371   1.807   1.300  0.6466 -0.3432 -0.0933
  879SOL     OW 3513   2.701   2.435   0.971  0.6431  0.1106  0.0285
  879SOL    HW1 3514   2.747   2.518   0.994  0.6902 -1.3433  0.5078
  879SOL    HW2 3515   2.755   2.407   0.902  0.9235 -0.1505  1.8577
  879SOL     MW 3516   2.714   2.442   0.965  0.6863 -0.1157  0.3331
  880SOL     OW 3517   2.622   2.170   0.715 -0.2247  0.0200  0.4505
  880SOL    HW1 3518   2.583   2.157   0.796  1.7815 -2.6334  0.8306
  880SOL    HW2 3519   2.612   2.093   0.660 -2.2438 -1.5866  0.9844
  880SOL     MW 3520   2.615   2.158   0.718 -0.2264 -0.5420  0.5711
  881SOL     OW 3521   2.904   2.731   0.763 -0.1377  0.2034 -0.2391
  881SOL    HW1 3522   2.869   2.663   0.697 -2.4216 -1.8472 -0.4446
  881SOL    HW2 3523   3.003   2.730   0.751  1.5596 -0.7173  0.2427
  881SOL     MW 3524   2.912   2.722   0.753 -0.2151 -0.1887 -0.2026
  882SOL     OW 3525   2.235   2.897   1.953 -0.1772  0.0580 -0.2633
  882SOL    HW1 3526   2.217   2.868   1.857 -1.4465 -0.6764  3.4104
  882SOL    HW2 3527   2.215   2.811   1.996 -2.1921 -1.9617  0.9536
  882SOL     MW 3528   2.230   2.882   1.946 -0.6105 -0.3054  0.3820
  883SOL     OW 3529   2.309   2.201   1.446  0.0436  0.3212 -0.1369
  883SOL    HW1 3530   2.395   2.157   1.430  0.1550  2.3686  0.5738
  883SOL    HW2 3531   2.243   2.168   1.382 -0.9056 -0.4035  0.9890
  883SOL     MW 3532   2.312   2.191   1.435 -0.0670  0.4957  0.1054
  884SOL     OW 3533   1.951   1.760   1.053 -0.2891 -0.5416  0.1145
  884SOL    HW1 3534   1.891   1.825   1.025  3.2869 -0.4349 -0.3030
  884SOL    HW2 3535   2.043   1.798   1.034 -0.3221 -0.2228  1.0848
  884SOL     MW 3536   1.955   1.774   1.047  0.1783 -0.4855  0.1874
  885SOL     OW 3537   2.899   2.378   1.850 -0.4416 -0.3883 -0.1848
  885SOL    HW1 3538   2.953   2.304   1.834 -1.1758  0.1966  0.5052
  885SOL    HW2 3539   2.827   2.376   1.791  2.3860  0.3355 -0.7106
  885SOL     MW 3540   2.896   2.368   1.840 -0.1654 -0.2156 -0.1632
  886SOL     OW 3541   2.833   2.328   1.444 -0.2188 -0.4400  0.0347
  886SOL    HW1 3542   2.913   2.316   1.385 -1.2503  1.4538  0.9517
  886SOL    HW2 3543   2.811   2.424   1.459 -0.7943 -1.2392  2.2799
  886SOL     MW 3544   2.840   2.339   1.438 -0.4308 -0.2956  0.4519
  887SOL     OW 3545   2.279   2.621   1.547  0.2221  0.0571  0.2526
  887SOL    HW1 3546   2.313   2.602   1.460  1.3922 -2.6794  0.0262
  887SOL    HW2 3547   2.191   2.579   1.549  0.8794 -0.0306  2.4422
  887SOL     MW 3548   2.272   2.613   1.536  0.4632 -0.3155  0.5116
  888SOL     OW 3549   1.863   2.055   1.381 -0.3988 -0.1048  0.3791
  888SOL    HW1 3550   1.941   2.029   1.333 -2.1801  0.3668 -1.9413
  888SOL    HW2 3551   1.901   2.080   1.467  0.6622  0.5568  1.2631
  888SOL     MW 3552   1.879   2.055   1.386 -0.4939  0.0448  0.1896
  889SOL     OW 3553   2.300   2.045   2.064  0.0804  0.0687 -0.0724
  889SOL    HW1 3554   2.357   2.046   2.135 -3.1613  0.2544  1.9310
  889SOL    HW2 3555   2.334   2.120   2.016 -1.2631  1.4181 -0.5860
  889SOL     MW 3556   2.312   2.055   2.067 -0.5246  0.2712  0.1242
  890SOL     OW 3557   0.071   2.367   0.117 -0.0968  0.4805  0.1787
  890SOL    HW1 3558   0.047   2.458   0.099  0.8242  0.8464 -0.3106
  890SOL    HW2 3559   0.038   2.339   0.203  0.0531  0.4441 -0.4594
  890SOL     MW 3560   0.063   2.375   0.126  0.0444  0.5240  0.0300
  891SOL     OW 3561   3.028   1.998   1.288  0.1154  0.5503  0.3201
  891SOL    HW1 3562   3.111   1.959   1.263 -3.2729 -1.1657  0.5130
  891SOL    HW2 3563   3.044   2.089   1.256 -1.2630 -1.2988  1.2213
  891SOL     MW 3564   3.041   2.004   1.280 -0.5135  0.0800  0.4645
  892SOL     OW 3565   2.434   2.324   2.742  0.0822 -0.0981  0.0982
  892SOL    HW1 3566   2.382   2.249   2.773  2.9634 -0.6646  1.1598
  892SOL    HW2 3567   2.520   2.337   2.799 -0.4332  1.3968  0.1145
  892SOL     MW 3568   2.439   2.316   2.754  0.3943  0.0244  0.2404
  893SOL     OW 3569   1.621   2.375   1.238  0.0367  0.5524 -0.3448
  893SOL    HW1 3570   1.569   2.430   1.301 -0.7626  0.5987  2.4007
  893SOL    HW2 3571   1.699   2.354   1.288 -0.8371  1.8999  0.2526
  893SOL     MW 3572   1.624   2.380   1.253 -0.1840  0.7363  0.0962
  894SOL     OW 3573   2.768   1.895   0.458 -0.9346  0.6209 -0.3189
  894SOL    HW1 3574   2.672   1.908   0.481  0.3744  3.4961 -1.5801
  894SOL    HW2 3575   2.773   1.868   0.360  0.7779 -0.4005 -1.8720
  894SOL     MW 3576   2.756   1.893   0.448 -0.5360  0.8655 -0.6902
  895SOL     OW 3577   2.126   2.082   1.233  0.3702 -0.6484 -0.9339
  895SOL    HW1 3578   2.090   2.171   1.196 -1.7236  1.5388  1.1229
  895SOL    HW2 3579   2.153   2.038   1.150  0.1822  1.6150  0.7216
  895SOL     MW 3580   2.125   2.088   1.217  0.0692 -0.0612 -0.4441
  896SOL     OW 3581   2.242   2.785   1.074  0.9142  0.3083  0.3702
  896SOL    HW1 3582   2.269   2.755   1.158  0.1234  3.3934 -0.9568
  896SOL    HW2 3583   2.161   2.733   1.065 -4.0428 -1.9164  0.7164
  896SOL     MW 3584   2.235   2.774   1.084  0.1558  0.4218  0.2408
  897SOL     OW 3585   2.999   2.947   0.059  0.6833  1.0780 -0.4966
  897SOL    HW1 3586   3.041   2.899  -0.009  0.7020 -1.6581 -3.2029
  897SOL    HW2 3587   2.915   2.905   0.064  1.2802  0.2836 -1.4193
  897SOL     MW 3588   2.993   2.935   0.050  0.7645  0.6122 -0.9754
  898SOL     OW 3589   2.091   0.213   1.435  0.3689  0.0402  0.4160
  898SOL    HW1 3590   2.079   0.121   1.467 -1.9110 -0.3646  0.4228
  898SOL    HW2 3591   2.074   0.205   1.338 -1.5045  0.4800 -0.5217
  898SOL     MW 3592   2.087   0.200   1.426 -0.1791  0.0448  0.2931
  899SOL     OW 3593   2.903   2.986   0.644 -0.7150 -0.0136  0.1604
  899SOL    HW1 3594   2.900   2.899   0.691  0.4822 -1.4004  0.5341
  899SOL    HW2 3595   2.823   3.040   0.668  1.2210  2.9195  0.0432
  899SOL     MW 3596   2.892   2.982   0.653 -0.3016  0.1904  0.1942
  900SOL     OW 3597   0.108   2.394   1.109  0.2128 -0.0841  0.0141
  900SOL    HW1 3598   0.077   2.488   1.106 -0.5020 -0.4907  1.9780
  900SOL    HW2 3599   0.104   2.359   1.020 -1.2488  2.8718 -0.5973
  900SOL     MW 3600   0.103   2.402   1.097 -0.0743  0.2523  0.1925
  901SOL     OW 3601   1.750   2.839   1.773  0.1499 -0.8942  0.2298
  901SOL    HW1 3602   1.817   2.763   1.788 -0.4568 -1.2877 -0.8395
  901SOL    HW2 3603   1.726   2.834   1.680 -0.6051  3.7795  0.2381
  901SOL     MW 3604   1.755   2.829   1.763 -0.0298 -0.3295  0.0898
  902SOL     OW 3605   2.690   2.119   1.836 -0.1222  0.5629  0.0483
  902SOL    HW1 3606   2.676   2.087   1.749 -0.0380  0.5797  1.2619
  902SOL    HW2 3607   2.769   2.079   1.872 -0.2320 -0.0861  2.3483
  902SOL     MW 3608   2.698   2.109   1.829 -0.1256  0.4795  0.5119
  903SOL     OW 3609   1.603   2.759   0.555  0.1326 -0.6829  0.2194
  903SOL    HW1 3610   1.668   2.701   0.606  1.2457 -1.5111  0.3366
  903SOL    HW2 3611   1.572   2.802   0.635 -0.3196 -0.8660 -1.9296
  903SOL     MW 3612   1.607   2.757   0.572  0.2198 -0.8163 -0.0487
  904SOL     OW 3613   2.488   2.644   1.716  0.8895  0.1192 -0.1487
  904SOL    HW1 3614   2.422   2.638   1.648 -1.4367 -1.1885  0.4058
  904SOL    HW2 3615   2.554   2.578   1.701  0.8215  3.6968  2.2915
  904SOL     MW 3616   2.488   2.634   1.705  0.5736  0.4187  0.2464
  905SOL     OW 3617   2.301   2.553   2.172 -0.0865 -0.2857  0.1044
  905SOL    HW1 3618   2.358   2.531   2.095  0.2608  1.2524  1.0939
  905SOL    HW2 3619   2.267   2.464   2.199 -0.6149 -2.4439 -3.9234
  905SOL     MW 3620   2.304   2.538   2.165 -0.1104 -0.3675 -0.2965
  906SOL     OW 3621   2.451   2.493   0.874 -0.2271 -0.0792 -0.2316
  906SOL    HW1 3622   2.533   2.467   0.921 -2.0679 -1.0429 -2.2356
  906SOL    HW2 3623   2.441   2.596   0.883  0.8663 -1.0235 -2.4880
  906SOL     MW 3624   2.461   2.503   0.881 -0.3257 -0.3309 -0.7937
  907SOL     OW 3625   2.630   2.783   1.337 -0.2476 -0.0609  0.4238
  907SOL    HW1 3626   2.657   2.864   1.379  0.2489  0.4888 -0.3884
  907SOL    HW2 3627   2.661   2.793   1.245 -1.3656  0.1318 -1.1953
  907SOL     MW 3628   2.638   2.795   1.331 -0.3296  0.0371  0.1030
  908SOL     OW 3629   2.747   2.354   3.090  0.0620 -0.6828 -0.5485
  908SOL    HW1 3630   2.695   2.288   3.124  3.1583  1.7487 -0.4399
  908SOL    HW2 3631   2.732   2.422   3.155 -1.0857 -0.4226 -0.8296
  908SOL     MW 3632   2.738   2.355   3.103  0.3191 -0.3277 -0.5713
  909SOL     OW 3633   1.707   0.111   1.151  0.1644 -0.4276  0.5849
  909SOL    HW1 3634   1.742   0.185   1.098  0.8757  1.7789  1.2119
  909SOL    HW2 3635   1.697   0.149   1.235 -0.6127  0.3246 -3.5893
  909SOL     MW 3636   1.711   0.126   1.155  0.1557 -0.0372  0.1169
  910SOL     OW 3637   2.329   1.754   0.463 -0.8827 -0.3829 -0.3258
  910SOL    HW1 3638   2.277   1.674   0.463 -1.0612 -1.6086 -1.3069
  910SOL    HW2 3639   2.271   1.819   0.421 -0.6326 -0.0278  1.6249
  910SOL     MW 3640   2.315   1.752   0.458 -0.8733 -0.4978 -0.1979
  911SOL     OW 3641   2.228   2.198   1.722  0.0614 -0.5362 -0.1509
  911SOL    HW1 3642   2.301   2.222   1.779  1.2045  0.2038 -0.3954
  911SOL    HW2 3643   2.254   2.224   1.633 -1.3055 -0.7333 -0.7852
  911SOL     MW 3644   2.241   2.205   1.718  0.0319 -0.4646 -0.2669
  912SOL     OW 3645   2.943   1.929   1.543  0.4006 -0.0178 -0.0864
  912SOL    HW1 3646   2.969   1.957   1.459 -0.6452  1.1729  0.4953
  912SOL    HW2 3647   2.855   1.963   1.561 -0.1734 -0.0350 -0.4478
  912SOL     MW 3648   2.935   1.937   1.534  0.1869  0.1370 -0.0573
  913SOL     OW 3649   2.628   3.041   0.367  0.0775 -0.0498  0.1358
  913SOL    HW1 3650   2.691   2.972   0.353 -2.0668 -0.0219 -0.2316
  913SOL    HW2 3651   2.555   2.996   0.315  0.5980 -0.9317 -1.7984
  913SOL     MW 3652   2.627   3.026   0.359 -0.1367 -0.1625 -0.1679
  914SOL     OW 3653   2.707   1.758   3.080  0.6119 -0.0873  0.3893
  914SOL    HW1 3654   2.724   1.818   3.001  2.3889  0.5331 -0.7846
  914SOL    HW2 3655   2.620   1.772   3.112 -1.1466  0.1338  3.1654
  914SOL     MW 3656   2.698   1.768   3.074  0.6144  0.0237  0.6007
  915SOL     OW 3657   1.670   0.239   0.243 -0.1363  0.1383  0.2963
  915SOL    HW1 3658   1.743   0.179   0.263  1.5439 -1.6522 -3.0920
  915SOL    HW2 3659   1.593   0.179   0.223  2.8738 -0.8959 -0.8690
  915SOL     MW 3660   1.669   0.223   0.243  0.4825 -0.2344 -0.3045
  916SOL     OW 3661   1.817   2.102   1.901  0.1461  0.2349 -0.4328
  916SOL    HW1 3662   1.856   2.186   1.877 -1.8564 -0.9732 -1.7665
  916SOL    HW2 3663   1.847   2.034   1.843 -0.5490 -1.0772  1.2517
  916SOL     MW 3664   1.826   2.104   1.890 -0.2098 -0.0976 -0.3865
  917SOL     OW 3665   2.553   2.192   2.514 -0.2862  0.1402 -0.2400
  917SOL    HW1 3666   2.534   2.226   2.599  0.1619  1.1121 -0.7425
  917SOL    HW2 3667   2.620   2.246   2.472  1.2714 -1.0006 -1.5021
  917SOL     MW 3668   2.560   2.204   2.519 -0.0215  0.1179 -0.4728
  918SOL     OW 3669   2.000   1.604   2.706 -0.0125  0.4430  0.1146
  918SOL    HW1 3670   1.922   1.644   2.664  0.7771 -1.1718  0.4038
  918SOL    HW2 3671   2.079   1.655   2.687 -1.5544 -0.0040 -1.3391
  918SOL     MW 3672   2.000   1.616   2.698 -0.1117  0.1710 -0.0390
  919SOL     OW 3673   3.093   2.329   2.277 -0.2345  0.6184  0.2385
  919SOL    HW1 3674   3.032   2.258   2.251 -1.1841  1.7530 -0.5580
  919SOL    HW2 3675   3.146   2.357   2.202  2.0915  0.7705 -0.4142
  919SOL     MW 3676   3.092   2.323   2.263 -0.0529  0.7881  0.0473
  920SOL     OW 3677   2.736   2.862   3.092 -0.5720 -0.1947  0.2368
  920SOL    HW1 3678   2.653   2.905   3.105 -1.3893 -1.0399  2.8753
  920SOL    HW2 3679   2.711   2.799   3.023 -1.8929  0.5575 -0.5196
  920SOL     MW 3680   2.722   2.859   3.085 -0.8541 -0.2070  0.4851
  921SOL     OW 3681   2.452   2.584   2.625  0.0462 -0.0882 -0.1499
  921SOL    HW1 3682   2.536   2.611   2.575  0.9229  2.9534 -4.3919
  921SOL    HW2 3683   2.473   2.492   2.662 -0.3108 -2.2896 -0.1502
  921SOL     MW 3684   2.466   2.575   2.623  0.1148  0.0227 -0.7097
  922SOL     OW 3685   2.049   2.867   0.305  0.3993  0.1834  0.0790
  922SOL    HW1 3686   2.023   2.866   0.212 -0.4675  0.7996  1.6251
  922SOL    HW2 3687   2.064   2.775   0.324 -2.4628  1.4786 -3.8187
  922SOL     MW 3688   2.048   2.855   0.295 -0.0927  0.4356 -0.2312
  923SOL     OW 3689   2.158   2.824   1.701 -0.1071  0.0836  0.2768
  923SOL    HW1 3690   2.191   2.758   1.639 -1.2897 -0.6323  2.6726
  923SOL    HW2 3691   2.118   2.887   1.644 -0.1595 -1.2698  0.7223
  923SOL     MW 3692   2.157   2.823   1.685 -0.2700 -0.1894  0.6517
  924SOL     OW 3693   1.175   2.622   2.504 -0.3419  0.3686  0.7987
  924SOL    HW1 3694   1.242   2.683   2.523 -1.0166  2.5726  1.0071
  924SOL    HW2 3695   1.157   2.569   2.581  0.9508 -2.4940 -2.7998
  924SOL     MW 3696   1.182   2.623   2.516 -0.2603  0.2817  0.3514
  925SOL     OW 3697   2.988   0.189   2.644  0.7073  0.0276 -0.0513
  925SOL    HW1 3698   2.968   0.214   2.546  1.5390  1.1528  0.3583
  925SOL    HW2 3699   2.944   0.260   2.684  0.2736  0.6582  1.4344
  925SOL     MW 3700   2.979   0.202   2.636  0.7598  0.2593  0.1988
  926SOL     OW 3701   2.730   2.387   2.082 -0.1595  0.1685 -0.3251
  926SOL    HW1 3702   2.788   2.425   2.151 -2.9365 -0.1384  0.9735
  926SOL    HW2 3703   2.778   2.393   1.997  5.2451 -1.9283 -0.9145
  926SOL     MW 3704   2.744   2.393   2.080  0.1872 -0.1486 -0.2315
  927SOL     OW 3705   2.341   0.146   0.264 -0.2486 -0.3305 -0.0088
  927SOL    HW1 3706   2.440   0.165   0.275  0.2081  0.8003  0.2754
  927SOL    HW2 3707   2.329   0.124   0.172 -0.5375 -1.3526 -0.8034
  927SOL     MW 3708   2.352   0.145   0.254 -0.2265 -0.3162 -0.0762
  928SOL     OW 3709   2.164   2.433   1.890  0.4442  0.1009 -1.0368
  928SOL    HW1 3710   2.247   2.437   1.931 -2.6564 -5.1622 -0.4911
  928SOL    HW2 3711   2.172   2.378   1.810 -0.3938  0.4311 -1.2884
  928SOL     MW 3712   2.176   2.426   1.885 -0.0755 -0.5499 -0.9980
  929SOL     OW 3713   2.754   2.395   2.439  0.3659  0.1032  0.1316
  929SOL    HW1 3714   2.826   2.421   2.386 -0.3082  2.1248 -1.2399
  929SOL    HW2 3715   2.789   2.354   2.518 -1.4406 -0.8338 -0.0958
  929SOL     MW 3716   2.768   2.393   2.443  0.0386  0.2463 -0.0793
  930SOL     OW 3717   2.018   2.867   2.689  0.0134  0.8988  0.5613
  930SOL    HW1 3718   2.051   2.794   2.738 -0.9977 -1.0569  2.0013
  930SOL    HW2 3719   2.100   2.924   2.676  2.3325  0.4803 -1.7494
  930SOL     MW 3720   2.033   2.865   2.694  0.1859  0.5855  0.4464
  931SOL     OW 3721   3.021   2.755   2.342  0.0373 -0.6565  0.0603
  931SOL    HW1 3722   3.063   2.772   2.428  0.5698 -1.1384  0.8102
  931SOL    HW2 3723   3.075   2.767   2.268 -0.8883 -1.1372 -3.1812
  931SOL     MW 3724   3.034   2.759   2.344 -0.0145 -0.7835 -0.2684
  932SOL     OW 3725   2.859   1.953   2.568  0.1991  0.2719 -0.5723
  932SOL    HW1 3726   2.951   1.988   2.563  0.2888 -0.2238  0.6471
  932SOL    HW2 3727   2.825   1.955   2.477  0.0667 -2.5964 -1.3451
  932SOL     MW 3728   2.867   1.958   2.555  0.1934 -0.1719 -0.5134
  933SOL     OW 3729   2.040   2.868   2.281  0.6761 -0.8890 -0.2715
  933SOL    HW1 3730   2.109   2.932   2.307 -0.6534  0.7642 -2.4316
  933SOL    HW2 3731   1.966   2.927   2.252 -0.7245  0.9064 -0.7658
  933SOL     MW 3732   2.039   2.884   2.281  0.3159 -0.4340 -0.6217
  934SOL     OW 3733   2.021   2.695   2.495  0.0092  0.3151 -0.0249
  934SOL    HW1 3734   2.017   2.770   2.557  1.9986  2.6942 -2.2499
  934SOL    HW2 3735   2.028   2.743   2.410  0.8914 -0.9883  1.2131
  934SOL     MW 3736   2.022   2.711   2.492  0.3881  0.4571 -0.1552
  935SOL     OW 3737   2.680   1.530   1.782 -0.2610 -0.2895 -0.0732
  935SOL    HW1 3738   2.777   1.531   1.756  3.6694 -0.9909  3.9345
  935SOL    HW2 3739   2.642   1.542   1.699  0.9435  1.2741  1.1539
  935SOL     MW 3740   2.688   1.531   1.768  0.4165 -0.1757  0.6175
  936SOL     OW 3741   2.981   2.221   3.051 -0.0195 -0.0573 -0.2029
  936SOL    HW1 3742   3.047   2.268   3.102 -1.0834  0.5681  0.5158
  936SOL    HW2 3743   2.895   2.265   3.055 -2.3138  0.5428  0.7151
  936SOL     MW 3744   2.979   2.233   3.058 -0.4626  0.1044  0.0131
  937SOL     OW 3745   1.925   2.132   2.617  0.4972  0.1273  0.0524
  937SOL    HW1 3746   2.005   2.105   2.661 -1.5758 -0.3168  0.0163
  937SOL    HW2 3747   1.927   2.092   2.532 -1.3279 -0.3679 -0.0106
  937SOL     MW 3748   1.936   2.123   2.612 -0.0171  0.0033  0.0393
  938SOL     OW 3749   2.269   1.786   1.957  0.1932 -0.3360  0.2403
  938SOL    HW1 3750   2.278   1.832   1.871  1.2933  0.3478  0.4084
  938SOL    HW2 3751   2.252   1.856   2.017  0.0664 -1.7321  1.0055
  938SOL     MW 3752   2.268   1.802   1.954  0.3216 -0.4300  0.3635
  939SOL     OW 3753   2.728   1.976   2.334  0.6024 -0.0253  0.1149
  939SOL    HW1 3754   2.762   1.915   2.266  1.1748  1.4143  1.1009
  939SOL    HW2 3755   2.628   1.970   2.329 -3.6016  0.8876  2.3603
  939SOL     MW 3756   2.719   1.967   2.324  0.1232  0.2851  0.5412
  940SOL     OW 3757   2.285   0.160   2.635 -0.1432 -0.0438  0.0792
  940SOL    HW1 3758   2.277   0.061   2.628  0.2117 -0.5260 -1.3541
  940SOL    HW2 3759   2.352   0.190   2.693  0.7282  3.1171  0.7002
  940SOL     MW 3760   2.293   0.151   2.642  0.0186  0.3097 -0.0280
  941SOL     OW 3761   0.130   2.432   2.056 -0.2589  0.3174  0.0873
  941SOL    HW1 3762   0.231   2.430   2.067  0.7535  0.1221  0.8816
  941SOL    HW2 3763   0.109   2.389   1.975  0.0865  4.4407  2.8107
  941SOL     MW 3764   0.141   2.426   2.047 -0.0798  0.8356  0.5514
  942SOL     OW 3765   2.860   2.158   2.181 -0.5809 -0.0721 -0.0395
  942SOL    HW1 3766   2.813   2.237   2.157  2.2342  0.6648 -0.9713
  942SOL    HW2 3767   2.811   2.114   2.247 -1.5244  2.2479 -1.3726
  942SOL     MW 3768   2.848   2.162   2.187 -0.3340  0.3312 -0.3383
  943SOL     OW 3769   0.305   2.111   2.275  0.7329  0.0419 -0.1924
  943SOL    HW1 3770   0.258   2.169   2.335  1.8397  0.3348 -1.6046
  943SOL    HW2 3771   0.394   2.095   2.317  0.2057  0.9783  1.0502
  943SOL     MW 3772   0.311   2.117   2.289  0.8093  0.2041 -0.2148
  944SOL     OW 3773   2.086   2.699   2.086  0.3185  0.3061 -0.7051
  944SOL    HW1 3774   2.160   2.642   2.123  2.5651 -0.3778 -0.0709
  944SOL    HW2 3775   2.072   2.764   2.170  0.8785 -0.1960 -0.2471
  944SOL     MW 3776   2.094   2.700   2.102  0.6888  0.1496 -0.5610
  945SOL     OW 3777   2.650   2.699   2.884  0.6578 -0.3482 -0.0324
  945SOL    HW1 3778   2.661   2.607   2.870 -0.7508 -0.2767 -0.2889
  945SOL    HW2 3779   2.595   2.727   2.815  0.1011 -0.1771  1.9705
  945SOL     MW 3780   2.644   2.690   2.873  0.3985 -0.3162  0.1981
  946SOL     OW 3781   2.488   2.739   2.296  0.0576 -0.7931 -0.0399
  946SOL    HW1 3782   2.501   2.764   2.201  2.3514 -1.0444  3.1620
  946SOL    HW2 3783   2.423   2.670   2.284 -4.3634 -0.8841  0.1228
  946SOL     MW 3784   2.481   2.733   2.282 -0.2231 -0.8383  0.4041
  947SOL     OW 3785   1.907   0.067   0.321  0.1033  0.3066 -0.0860
  947SOL    HW1 3786   1.907  -0.034   0.310  0.4753  0.0415  0.3235
  947SOL    HW2 3787   1.970   0.069   0.394 -0.0889 -3.0702 -0.5810
  947SOL     MW 3788   1.916   0.054   0.329  0.1270 -0.1739 -0.0973
  948SOL     OW 3789   1.830   3.071   2.685 -0.2952 -0.3998  0.2091
  948SOL    HW1 3790   1.882   2.989   2.676 -1.1502 -2.0110  0.0705
  948SOL    HW2 3791   1.793   3.079   2.594 -0.6069 -0.1585  0.1781
  948SOL     MW 3792   1.832   3.061   2.672 -0.4491 -0.5805  0.1867
  949SOL     OW 3793   2.474   1.917   2.272 -0.0735 -0.0628  0.0418
  949SOL    HW1 3794   2.478   1.825   2.306  0.2065  2.3578  1.0327
  949SOL    HW2 3795   2.400   1.956   2.322  1.2036  1.2890  1.1355
  949SOL     MW 3796   2.465   1.910   2.283  0.1320  0.4349  0.3168
  950SOL     OW 3797   2.270   2.450   2.956  0.0298 -0.1522  0.1836
  950SOL    HW1 3798   2.299   2.381   2.899 -0.3247 -1.0838 -0.7920
  950SOL    HW2 3799   2.217   2.511   2.902 -1.8095  1.2271 -0.7244
  950SOL     MW 3800   2.267   2.449   2.941 -0.2597 -0.0931 -0.0649
  951SOL     OW 3801   3.009   2.083   2.804  0.1521 -0.4888 -0.2836
  951SOL    HW1 3802   3.012   2.133   2.888  2.7398  1.3673  1.0819
  951SOL    HW2 3803   3.080   2.022   2.810 -1.4620 -0.4764  0.6709
  951SOL     MW 3804   3.018   2.081   2.816  0.2806 -0.2422  0.0225
  952SOL     OW 3805   3.025   1.646   2.141  0.8070 -0.0868 -0.0246
  952SOL    HW1 3806   2.939   1.693   2.144  0.3623  0.6243  0.8204
  952SOL    HW2 3807   3.087   1.709   2.178 -0.1971 -0.4274 -0.4992
  952SOL     MW 3808   3.022   1.661   2.147  0.6158 -0.0379  0.0243
  953SOL     OW 3809   1.876   1.779   2.907 -0.6626 -0.2602 -0.5734
  953SOL    HW1 3810   1.810   1.738   2.966  1.6034  1.8061 -1.3719
  953SOL    HW2 3811   1.893   1.704   2.843 -0.2003  2.3498 -2.0860
  953SOL     MW 3812   1.869   1.764   2.906 -0.3027  0.3568 -0.8783
  954SOL     OW 3813   2.378   2.078   2.899 -0.6605 -0.1353 -0.3727
  954SOL    HW1 3814   2.295   2.055   2.867  0.2784 -1.9632  0.2646
  954SOL    HW2 3815   2.432   2.043   2.825 -1.6745  1.0185 -0.7549
  954SOL     MW 3816   2.374   2.070   2.885 -0.6704 -0.2243 -0.3390
  955SOL     OW 3817   1.553   1.581   2.578  0.4589 -0.1904  0.1755
  955SOL    HW1 3818   1.524   1.618   2.490  0.1556 -0.1363 -2.0866
  955SOL    HW2 3819   1.642   1.619   2.594 -1.5906  0.2244 -1.6347
  955SOL     MW 3820   1.561   1.591   2.569  0.1485 -0.1286 -0.3618
  956SOL     OW 3821   2.673   2.431   2.831 -0.2092 -0.0637  0.2972
  956SOL    HW1 3822   2.694   2.418   2.923  2.2491  2.1538 -2.0985
  956SOL    HW2 3823   2.735   2.376   2.779  2.9402 -0.0587  0.6930
  956SOL     MW 3824   2.684   2.422   2.836  0.5307  0.2295  0.0333
  957SOL     OW 3825   2.321   2.830   0.360 -0.0529 -0.0277 -0.3833
  957SOL    HW1 3826   2.236   2.864   0.333  0.7826 -1.0590  2.5479
  957SOL    HW2 3827   2.297   2.808   0.456 -2.7767  0.4767  0.1095
  957SOL     MW 3828   2.307   2.831   0.369 -0.3020 -0.0973  0.0685
  958SOL     OW 3829   2.098   2.624   2.826  0.3365  0.1592  0.1802
  958SOL    HW1 3830   2.060   2.555   2.767  2.6397 -0.1008  0.1997
  958SOL    HW2 3831   2.040   2.641   2.896  2.6292 -1.2513 -0.0379
  958SOL     MW 3832   2.085   2.617   2.827  0.9429 -0.0612  0.1540
  959SOL     OW 3833   2.499   2.611   0.337  0.1575  0.2205  0.0241
  959SOL    HW1 3834   2.553   2.611   0.265  0.2057  0.3967  0.2981
  959SOL    HW2 3835   2.440   2.692   0.335 -1.3713  1.5030 -0.0066
  959SOL     MW 3836   2.498   2.622   0.327 -0.0379  0.4130  0.0562
  960SOL     OW 3837   1.919   2.276   2.242  0.3312  0.8576  0.2871
  960SOL    HW1 3838   1.915   2.180   2.262  3.0514 -0.1167  0.5957
  960SOL    HW2 3839   1.867   2.322   2.312 -1.4731 -0.0407 -1.5002
  960SOL     MW 3840   1.911   2.270   2.254  0.4520  0.6105  0.0920
  961SOL     OW 3841   2.197   2.322   2.265 -0.1315 -0.1788 -0.1543
  961SOL    HW1 3842   2.109   2.293   2.240  0.2174  0.0769  1.3830
  961SOL    HW2 3843   2.203   2.365   2.357 -1.9838  2.8522  2.3801
  961SOL     MW 3844   2.186   2.324   2.274 -0.3299  0.2548  0.3829
  962SOL     OW 3845   2.147   2.027   2.742  0.4299  0.5136  0.1643
  962SOL    HW1 3846   2.122   1.997   2.823  3.1187 -1.1718  0.7469
  962SOL    HW2 3847   2.161   1.944   2.690 -0.0682 -1.4490 -0.1765
  962SOL     MW 3848   2.146   2.012   2.746  0.7190  0.0323  0.1962
  963SOL     OW 3849   1.816   2.550   2.078 -0.7371 -0.2663  0.5086
  963SOL    HW1 3850   1.902   2.540   2.109  0.0818  1.9821 -2.2222
  963SOL    HW2 3851   1.805   2.495   1.998 -1.4201 -0.1786  0.6554
  963SOL     MW 3852   1.826   2.541   2.071 -0.7191  0.0419  0.1676
  964SOL     OW 3853   1.757   1.967   2.745 -0.1846  0.2634  0.4711
  964SOL    HW1 3854   1.809   2.028   2.693 -3.0682 -0.7680 -0.7963
  964SOL    HW2 3855   1.805   1.911   2.808 -0.6291 -0.4084 -1.4372
  964SOL     MW 3856   1.771   1.968   2.747 -0.6237  0.0387  0.0521
  965SOL     OW 3857   2.222   2.747   0.596  0.2255 -0.2454  0.7479
  965SOL    HW1 3858   2.221   2.652   0.571  1.4177  1.6158 -0.4540
  965SOL    HW2 3859   2.298   2.756   0.659  0.4468  0.3463 -0.0173
  965SOL     MW 3860   2.232   2.735   0.601  0.4120  0.0782  0.4884
  966SOL     OW 3861   2.678   2.667   2.469 -0.3526 -0.1805  0.5704
  966SOL    HW1 3862   2.604   2.687   2.408  0.2616 -2.2671 -1.5834
  966SOL    HW2 3863   2.699   2.572   2.470  2.5839 -0.8916 -0.9675
  966SOL     MW 3864   2.671   2.657   2.461  0.1158 -0.5496  0.0833
  967SOL     OW 3865   2.759   3.040   2.881  0.1806  0.0588  0.0378
  967SOL    HW1 3866   2.750   2.981   2.956 -0.6445  1.5412  0.3393
  967SOL    HW2 3867   2.677   3.051   2.827 -2.7927 -0.0414  0.8039
  967SOL     MW 3868   2.747   3.034   2.884 -0.3206  0.2411  0.1787
  968SOL     OW 3869   2.971   2.615   2.896 -0.4679  0.2867 -0.1205
  968SOL    HW1 3870   2.910   2.674   2.861  1.0251 -1.6700  3.1038
  968SOL    HW2 3871   3.002   2.576   2.816 -1.2992 -1.6302  0.1724
  968SOL     MW 3872   2.967   2.617   2.881 -0.3806 -0.2244  0.3435
  969SOL     OW 3873   1.623   2.148   1.638  0.2438  0.5233 -0.0809
  969SOL    HW1 3874   1.644   2.058   1.640 -1.9119  1.5221  0.7001
  969SOL    HW2 3875   1.598   2.167   1.730 -1.5561 -0.8153 -2.0931
  969SOL     MW 3876   1.623   2.139   1.651 -0.2781  0.4785 -0.2434
  970SOL     OW 3877   1.683   1.802   1.939  0.0175 -0.0849  0.7676
  970SOL    HW1 3878   1.706   1.717   1.986  2.0142 -2.2422  1.8336
  970SOL    HW2 3879   1.587   1.828   1.942 -1.0807  2.1882 -1.0589
  970SOL     MW 3880   1.673   1.794   1.946  0.1361 -0.0696  0.6673
  971SOL     OW 3881   1.736   0.013   2.413  0.1093 -0.2510  0.0669
  971SOL    HW1 3882   1.770  -0.013   2.330  0.5946 -1.8269  0.6111
  971SOL    HW2 3883   1.780   0.101   2.433  1.0727 -2.6359  0.5323
  971SOL     MW 3884   1.746   0.021   2.405  0.3004 -0.7736  0.2001
  972SOL     OW 3885   0.278   2.859   2.474  0.3217  0.7914 -0.3792
  972SOL    HW1 3886   0.339   2.784   2.485 -0.3850 -0.1780 -1.4468
  972SOL    HW2 3887   0.335   2.929   2.509 -0.0080  1.7054 -2.2581
  972SOL     MW 3888   0.294   2.859   2.480  0.1850  0.7841 -0.7680
  973SOL     OW 3889   2.545   3.100   2.096  0.0252  0.3783  0.3806
  973SOL    HW1 3890   2.516   3.016   2.059 -2.6421 -0.4271  0.7337
  973SOL    HW2 3891   2.549   3.168   2.024  0.0012  0.4388  1.8933
  973SOL     MW 3892   2.542   3.098   2.081 -0.3299  0.2800  0.6268
  974SOL     OW 3893   2.016   0.215   2.691 -0.0998  0.5968 -0.1275
  974SOL    HW1 3894   2.110   0.223   2.684 -2.3237  2.9907 -2.0398
  974SOL    HW2 3895   2.001   0.142   2.748  1.4066 -0.8057 -0.5337
  974SOL     MW 3896   2.026   0.207   2.698 -0.1945  0.7276 -0.4334
  975SOL     OW 3897   2.209   2.487   2.497  0.3711 -0.2834  0.5316
  975SOL    HW1 3898   2.282   2.527   2.548 -1.8569  2.0560  1.7730
  975SOL    HW2 3899   2.149   2.559   2.468 -1.4337 -0.6081  0.1393
  975SOL     MW 3900   2.211   2.502   2.500 -0.1610 -0.0176  0.6436
  976SOL     OW 3901   0.225   0.359   1.748  0.2891  0.2793  0.6949
  976SOL    HW1 3902   0.297   0.301   1.788 -1.0425 -0.4208  1.9532
  976SOL    HW2 3903   0.174   0.293   1.693 -2.0650 -1.6169 -0.6677
  976SOL     MW 3904   0.228   0.343   1.746 -0.1972 -0.0633  0.6811
  977SOL     OW 3905   1.752   2.644   2.537 -0.1064  0.1778  0.6349
  977SOL    HW1 3906   1.741   2.566   2.478  1.0703  0.3342  1.0905
  977SOL    HW2 3907   1.840   2.658   2.513 -2.0638  1.9044  1.0346
  977SOL     MW 3908   1.762   2.635   2.526 -0.2094  0.4262  0.7477
   3.10000   3.10000   3.10000
