977 TIP4P/2005f water molecules t=   0.80000 step= 800
 3908
    1SOL     OW    1   0.275   0.840   3.059  1.0536 -0.0362 -0.1859
    1SOL    HW1    2   0.251   0.845   2.970 -2.0035 -1.3364  0.0698
    1SOL    HW2    3   0.251   0.751   3.095  0.8963  2.4622 -0.0393
    1SOL     MW    4   0.269   0.829   3.052  0.6295  0.1219 -0.1328
    2SOL     OW    5   0.293   3.002   1.161  0.0759 -0.5837  0.0717
    2SOL    HW1    6   0.370   3.057   1.135 -1.2734  0.2588  2.3123
    2SOL    HW2    7   0.210   3.052   1.156  0.1264 -0.4391 -0.7605
    2SOL     MW    8   0.292   3.016   1.157 -0.0955 -0.4535  0.2575
    3SOL     OW    9   2.642   0.409   0.942 -0.5073 -0.4424  0.2681
    3SOL    HW1   10   2.676   0.494   0.895  1.6770  1.4094  1.2719
    3SOL    HW2   11   2.599   0.443   1.027  0.4636 -3.0091  2.0066
    3SOL     MW   12   2.641   0.425   0.947 -0.0910 -0.5367  0.6299
    4SOL     OW   13   3.019   1.708   0.653 -0.6021  0.2473  0.3169
    4SOL    HW1   14   2.940   1.717   0.593  1.8090  1.9804 -0.7542
    4SOL    HW2   15   3.089   1.701   0.586 -3.5537 -0.6260 -0.4532
    4SOL     MW   16   3.018   1.709   0.637 -0.6734  0.3607  0.0740
    5SOL     OW   17   1.723   1.504   0.521  0.7393  0.0351  0.1558
    5SOL    HW1   18   1.753   1.445   0.590 -0.3532 -1.2991  1.6661
    5SOL    HW2   19   1.622   1.495   0.531 -1.8423  1.5493 -1.2366
    5SOL     MW   20   1.713   1.495   0.531  0.2545  0.0589  0.1714
    6SOL     OW   21   0.854   1.431   0.635  0.1205  0.9433 -0.6622
    6SOL    HW1   22   0.758   1.445   0.650 -2.5848 -1.6971 -0.6643
    6SOL    HW2   23   0.855   1.340   0.668  0.3588 -1.9881 -1.1902
    6SOL     MW   24   0.841   1.421   0.641 -0.2050  0.2081 -0.7322
    7SOL     OW   25   2.026   1.153   3.057  0.0668  0.2915  0.1248
    7SOL    HW1   26   2.092   1.200   3.010 -2.6148 -1.4118 -0.8849
    7SOL    HW2   27   2.068   1.148   3.143  1.3876  3.1572 -0.9261
    7SOL     MW   28   2.040   1.158   3.062 -0.1127  0.4449 -0.1471
    8SOL     OW   29   0.931   1.351   1.033 -0.2175  0.3682 -0.1847
    8SOL    HW1   30   1.022   1.320   1.059 -1.7627  0.1840  0.2183
    8SOL    HW2   31   0.878   1.303   1.096  0.9836  1.8371 -1.2817
    8SOL     MW   32   0.936   1.341   1.044 -0.2629  0.5377 -0.2762
    9SOL     OW   33   1.045   0.487   1.381 -0.4311  0.8214  0.0914
    9SOL    HW1   34   0.982   0.423   1.345 -0.4528  0.2358 -0.1515
    9SOL    HW2   35   1.100   0.441   1.444  1.0806 -0.3232  1.9263
    9SOL     MW   36   1.044   0.473   1.385 -0.2345  0.5931  0.3014
   10SOL     OW   37   0.294   0.820   0.461  0.3995  0.3173  0.4235
   10SOL    HW1   38   0.382   0.814   0.419 -2.3082 -0.9336 -1.1705
   10SOL    HW2   39   0.302   0.870   0.542 -0.3132 -3.2581  0.0904
   10SOL     MW   40   0.307   0.826   0.466 -0.0518 -0.3195  0.1692
   11SOL     OW   41   0.790   1.146   1.729  0.2862 -0.1872  0.2629
   11SOL    HW1   42   0.848   1.100   1.788 -0.3765  2.3370  1.1123
   11SOL    HW2   43   0.770   1.069   1.662 -1.4364 -2.4841 -1.7632
   11SOL     MW   44   0.795   1.130   1.728 -0.0285 -0.1572  0.1076
   12SOL     OW   45   0.026   1.045   0.872 -0.6458  0.0350  0.1755
   12SOL    HW1   46   0.079   1.121   0.917  2.7259  0.8817  1.6891
   12SOL    HW2   47  -0.033   1.089   0.807  0.0247 -1.6066  1.4955
   12SOL     MW   48   0.026   1.061   0.870 -0.1124 -0.0699  0.5494
   13SOL     OW   49   1.856   1.372   1.344 -0.2442  0.3399  0.3775
   13SOL    HW1   50   1.869   1.325   1.266 -2.0029  3.2657  0.2272
   13SOL    HW2   51   1.876   1.459   1.315 -1.6816  0.0195  0.5360
   13SOL     MW   52   1.860   1.377   1.330 -0.6659  0.6837  0.3786
   14SOL     OW   53   0.654   0.406   1.851  0.1559  0.4839  0.2358
   14SOL    HW1   54   0.586   0.340   1.869  2.5653  0.9679 -0.4675
   14SOL    HW2   55   0.718   0.398   1.922 -0.1249 -0.2052  1.3718
   14SOL     MW   56   0.653   0.396   1.863  0.4367  0.4569  0.2929
   15SOL     OW   57   1.925   0.435   0.977 -0.6234 -0.5752  0.2336
   15SOL    HW1   58   1.926   0.476   1.068 -0.3586  0.6996 -1.4361
   15SOL    HW2   59   2.013   0.447   0.938 -1.3905 -1.7529  0.0602
   15SOL     MW   60   1.937   0.442   0.984 -0.6897 -0.5624 -0.0096
   16SOL     OW   61   0.202   1.837   0.324 -0.5498 -0.2437  0.1823
   16SOL    HW1   62   0.285   1.810   0.369  1.7418  2.3407 -1.2554
   16SOL    HW2   63   0.187   1.922   0.373 -0.5778  1.4341 -0.9567
   16SOL     MW   64   0.211   1.845   0.336 -0.2511  0.3187 -0.1577
   17SOL     OW   65   1.097   0.921   1.517  0.1800 -0.1680 -0.0798
   17SOL    HW1   66   1.135   0.871   1.592  1.3212  0.6704  0.8083
   17SOL    HW2   67   1.011   0.935   1.549  2.4908 -0.4272 -0.0301
   17SOL     MW   68   1.090   0.916   1.531  0.6354 -0.0915  0.0439
   18SOL     OW   69   0.073   1.593   0.364 -0.2342 -0.5491 -0.3540
   18SOL    HW1   70   0.119   1.679   0.356  0.7000  1.2396  0.9057
   18SOL    HW2   71   0.093   1.542   0.286 -0.1144  2.6550 -1.2167
   18SOL     MW   72   0.082   1.597   0.352 -0.0951  0.1097 -0.3016
   19SOL     OW   73   0.128   1.290   0.982 -0.2852  0.4944  0.1320
   19SOL    HW1   74   0.137   1.334   0.900  1.4330 -2.5179  2.5083
   19SOL    HW2   75   0.035   1.305   1.005  2.1647 -0.5880  3.6721
   19SOL     MW   76   0.117   1.298   0.974  0.2647 -0.0459  0.9126
   20SOL     OW   77   0.429   2.119   1.156  0.2829  0.1721 -0.5001
   20SOL    HW1   78   0.371   2.036   1.141 -1.9967 -0.7876  0.4819
   20SOL    HW2   79   0.388   2.164   1.233 -1.6338  0.8765  1.1408
   20SOL     MW   80   0.416   2.114   1.164 -0.2708  0.1384 -0.1540
   21SOL     OW   81   0.542   0.816   0.353 -0.2006 -0.1047  0.0629
   21SOL    HW1   82   0.619   0.818   0.412 -1.2049  1.5468 -1.6847
   21SOL    HW2   83   0.572   0.797   0.262  1.3087  2.1152 -0.4162
   21SOL     MW   84   0.556   0.814   0.349 -0.1340  0.4061 -0.2309
   22SOL     OW   85   1.494   0.645   1.071  0.4803  0.5644 -0.7481
   22SOL    HW1   86   1.480   0.613   0.974 -1.2517 -0.1272 -1.9230
   22SOL    HW2   87   1.403   0.646   1.104 -0.5887  0.6451 -1.0167
   22SOL     MW   88   1.480   0.641   1.062  0.1107  0.4838 -0.9386
   23SOL     OW   89   0.031   0.773   0.663 -0.0887 -0.2086  0.4131
   23SOL    HW1   90   0.065   0.713   0.729 -1.5189  0.9496 -0.8549
   23SOL    HW2   91   0.099   0.844   0.648  2.3590 -0.7581  0.9741
   23SOL     MW   92   0.044   0.775   0.670  0.0455 -0.1283  0.3198
   24SOL     OW   93   1.985   2.222   0.122 -0.1027  0.5125 -0.1927
   24SOL    HW1   94   2.000   2.185   0.215  1.6956 -0.1619  1.5486
   24SOL    HW2   95   2.015   2.151   0.062  0.7721 -0.9805  2.0472
   24SOL     MW   96   1.991   2.208   0.126  0.2500  0.2265  0.3326
   25SOL     OW   97   0.226   1.364   0.490  0.1595  0.4065  0.3873
   25SOL    HW1   98   0.171   1.439   0.463  0.9719  0.3218  2.2816
   25SOL    HW2   99   0.295   1.358   0.429 -0.0719 -2.4460 -2.5203
   25SOL     MW  100   0.227   1.373   0.478  0.2362  0.0189  0.2536
   26SOL     OW  101   2.022   0.985   0.370  0.3982 -0.3951 -0.1584
   26SOL    HW1  102   1.954   1.023   0.431 -0.2178 -0.5717 -1.5254
   26SOL    HW2  103   2.072   1.060   0.328  1.0038  2.6687 -1.8558
   26SOL     MW  104   2.020   1.000   0.372  0.3969 -0.0142 -0.5627
   27SOL     OW  105   2.043   1.439   0.258 -0.7242  0.2098 -0.1021
   27SOL    HW1  106   1.974   1.386   0.307 -0.4694 -1.0878  0.3854
   27SOL    HW2  107   2.093   1.480   0.333  0.4782 -0.2713  1.1472
   27SOL     MW  108   2.041   1.437   0.274 -0.5319 -0.0249  0.1270
   28SOL     OW  109   0.396   1.044   2.013 -0.7097 -0.6965 -0.3164
   28SOL    HW1  110   0.476   1.022   2.065  1.2759 -2.6265 -1.7605
   28SOL    HW2  111   0.321   0.982   2.021  0.7467  0.7570 -2.2899
   28SOL     MW  112   0.397   1.033   2.021 -0.2556 -0.7594 -0.7673
   29SOL     OW  113   0.233   1.445   0.756  0.0031  0.0896 -0.0717
   29SOL    HW1  114   0.227   1.542   0.763  0.1754  1.0261 -0.9058
   29SOL    HW2  115   0.230   1.427   0.660  1.1645  0.3233  0.7292
   29SOL     MW  116   0.231   1.456   0.744  0.1791  0.2440 -0.0761
   30SOL     OW  117   0.798   1.195   1.210  0.6694 -0.8121  0.2043
   30SOL    HW1  118   0.708   1.198   1.249 -2.4582 -1.1550 -1.5089
   30SOL    HW2  119   0.867   1.199   1.280  1.6116  2.1042 -1.0943
   30SOL     MW  120   0.795   1.196   1.224  0.3811 -0.4726 -0.1930
   31SOL     OW  121   0.426   0.142   0.183  0.0273 -0.7083  0.5149
   31SOL    HW1  122   0.457   0.080   0.247 -0.7744  0.6966 -0.0724
   31SOL    HW2  123   0.393   0.096   0.100  4.0505  3.0098 -2.4768
   31SOL     MW  124   0.426   0.127   0.181  0.4523 -0.0323  0.0427
   32SOL     OW  125   2.788   1.001   1.128  0.0656 -0.2464 -0.1067
   32SOL    HW1  126   2.731   0.918   1.127 -0.3586  0.9201  1.3336
   32SOL    HW2  127   2.865   0.961   1.085 -0.3092  2.5891 -0.0896
   32SOL     MW  128   2.791   0.984   1.122 -0.0398  0.2816  0.0856
   33SOL     OW  129   1.828   1.301   0.350 -0.2912 -0.0030 -0.2046
   33SOL    HW1  130   1.805   1.259   0.432  0.9433  2.4131 -0.1008
   33SOL    HW2  131   1.760   1.366   0.351 -0.0839  0.3071  2.5176
   33SOL     MW  132   1.816   1.304   0.361 -0.1010  0.3567  0.1683
   34SOL     OW  133   1.250   1.861   1.063 -0.3773  0.0539  0.3031
   34SOL    HW1  134   1.161   1.863   1.088  1.5342 -1.1216  0.2909
   34SOL    HW2  135   1.302   1.885   1.144  0.6055 -0.7473  0.5863
   34SOL     MW  136   1.245   1.864   1.077  0.0046 -0.2069  0.3389
   35SOL     OW  137   0.437   0.179   1.883  0.1093  0.6763 -0.1687
   35SOL    HW1  138   0.404   0.115   1.945 -0.4993 -0.1190 -1.8535
   35SOL    HW2  139   0.490   0.132   1.813  0.6463 -4.1019 -0.4784
   35SOL     MW  140   0.439   0.165   1.882  0.0999 -0.0591 -0.4319
   36SOL     OW  141   1.909   1.937   0.540  0.0652 -0.0356  0.3761
   36SOL    HW1  142   1.964   1.971   0.465  3.3968  1.3653  0.3592
   36SOL    HW2  143   1.943   1.846   0.558  0.3779  1.7506  0.8944
   36SOL     MW  144   1.921   1.930   0.532  0.5461  0.3849  0.4422
   37SOL     OW  145   1.747   1.984   1.029 -0.2648 -0.1648 -0.1944
   37SOL    HW1  146   1.704   1.926   0.968  3.2605 -0.1480  0.9649
   37SOL    HW2  147   1.685   2.043   1.066  0.0675 -0.1512 -1.9851
   37SOL     MW  148   1.733   1.984   1.026  0.2441 -0.1608 -0.2777
   38SOL     OW  149   2.772   0.912   0.121 -0.4597  0.0052 -0.1036
   38SOL    HW1  150   2.814   0.946   0.199  2.9009 -1.3555 -2.8624
   38SOL    HW2  151   2.843   0.868   0.079  0.6020 -0.6542  0.2495
   38SOL     MW  152   2.787   0.910   0.126  0.1238 -0.2614 -0.4210
   39SOL     OW  153   1.423   0.601   0.814  0.0227 -0.2315  0.7641
   39SOL    HW1  154   1.387   0.508   0.806 -0.4351  0.1421  0.8473
   39SOL    HW2  155   1.343   0.651   0.785 -2.2231 -1.0617 -1.1066
   39SOL     MW  156   1.408   0.595   0.809 -0.3340 -0.2917  0.5283
   40SOL     OW  157   1.159   1.898   0.263 -0.0178 -0.4920  0.2731
   40SOL    HW1  158   1.222   1.846   0.309  1.6731 -0.9191 -0.7196
   40SOL    HW2  159   1.126   1.968   0.322 -1.1250 -1.4124 -2.1102
   40SOL     MW  160   1.163   1.900   0.277  0.0592 -0.6698 -0.1723
   41SOL     OW  161   0.611   0.549   1.605 -0.6588 -0.0666  0.2300
   41SOL    HW1  162   0.698   0.590   1.591 -1.0971 -0.0640  2.2546
   41SOL    HW2  163   0.631   0.482   1.667  1.4626 -0.8853  1.2062
   41SOL     MW  164   0.625   0.546   1.611 -0.4367 -0.1743  0.6260
   42SOL     OW  165   1.274   3.029   1.970  0.7826  0.1170 -0.0751
   42SOL    HW1  166   1.195   3.026   2.027 -0.7028 -2.7642 -0.2601
   42SOL    HW2  167   1.319   2.946   2.000 -0.6001  0.6695 -1.7289
   42SOL     MW  168   1.270   3.018   1.981  0.4042 -0.1903 -0.3177
   43SOL     OW  169   1.570   0.118   1.734  0.0596 -0.4412 -0.1188
   43SOL    HW1  170   1.622   0.068   1.668 -0.1009  0.0088 -0.4870
   43SOL    HW2  171   1.477   0.086   1.724 -0.7934 -1.6991  0.1530
   43SOL     MW  172   1.565   0.108   1.724 -0.0741 -0.5478 -0.1315
   44SOL     OW  173   1.121   0.758   1.055 -1.2379 -0.3338 -0.2398
   44SOL    HW1  174   1.137   0.845   1.019 -1.6784 -1.5849 -1.5776
   44SOL    HW2  175   1.113   0.762   1.149 -0.3079 -1.6664 -2.3449
   44SOL     MW  176   1.122   0.770   1.063 -1.1733 -0.6747 -0.6941
   45SOL     OW  177   1.201   0.742   0.723  0.4729 -0.2469 -0.2320
   45SOL    HW1  178   1.132   0.770   0.781  2.6414 -0.0406  0.3955
   45SOL    HW2  179   1.164   0.684   0.656  3.7241  0.3382 -1.8103
   45SOL     MW  180   1.187   0.738   0.722  1.1880 -0.1425 -0.3574
   46SOL     OW  181   0.590   1.182   0.564 -0.1794  0.1740  0.1138
   46SOL    HW1  182   0.544   1.167   0.481 -0.4078 -0.6037 -0.0693
   46SOL    HW2  183   0.669   1.141   0.537 -0.4407 -3.6725 -0.5381
   46SOL     MW  184   0.594   1.175   0.550 -0.2440 -0.4361  0.0036
   47SOL     OW  185   0.176   1.968   1.890  0.3894  0.5258  0.6247
   47SOL    HW1  186   0.235   1.899   1.843 -1.6010 -1.6381  1.4806
   47SOL    HW2  187   0.169   1.926   1.974  1.3827  1.3156  0.0526
   47SOL     MW  188   0.183   1.954   1.895  0.2579  0.3445  0.6622
   48SOL     OW  189   1.094   0.492   0.953 -0.1884  0.1477  0.3197
   48SOL    HW1  190   1.007   0.456   0.977 -3.0699 -1.0503 -0.7811
   48SOL    HW2  191   1.084   0.581   0.980  0.2162 -1.4285 -0.2875
   48SOL     MW  192   1.081   0.499   0.960 -0.5152 -0.2183  0.0944
   49SOL     OW  193   1.832   0.731   1.602  0.2729 -0.0450 -0.3565
   49SOL    HW1  194   1.804   0.684   1.680 -0.7653 -0.6045  1.3423
   49SOL    HW2  195   1.879   0.667   1.549 -0.8627  2.1399  0.0055
   49SOL     MW  196   1.834   0.716   1.605 -0.0139  0.1694 -0.0846
   50SOL     OW  197   1.203   1.073   0.522  0.0032  0.2540 -0.1724
   50SOL    HW1  198   1.160   1.122   0.593 -2.9496  2.8837  0.4523
   50SOL    HW2  199   1.279   1.034   0.569  0.2429  1.0579  0.6347
   50SOL     MW  200   1.207   1.074   0.537 -0.3548  0.7071  0.0165
   51SOL     OW  201   0.317   2.876   0.931 -1.3068  0.1784  0.1524
   51SOL    HW1  202   0.407   2.834   0.947  1.8221 -3.0223  0.8356
   51SOL    HW2  203   0.297   2.906   1.020  0.8837  1.0292 -2.5041
   51SOL     MW  204   0.326   2.875   0.945 -0.6050 -0.1317 -0.1080
   52SOL     OW  205   0.817   1.838   0.434  0.0803 -0.3617  0.0294
   52SOL    HW1  206   0.739   1.894   0.452 -1.6463  0.5556 -1.0014
   52SOL    HW2  207   0.796   1.786   0.354 -0.7907 -1.8503  0.7311
   52SOL     MW  208   0.804   1.839   0.426 -0.2624 -0.4371 -0.0140
   53SOL     OW  209   0.416   2.128   0.610  0.0054 -0.0815 -0.6908
   53SOL    HW1  210   0.343   2.119   0.547 -2.7241  2.4770 -1.7940
   53SOL    HW2  211   0.410   2.219   0.625 -1.4129 -3.3854 -0.4702
   53SOL     MW  212   0.406   2.138   0.604 -0.5418 -0.1798 -0.8073
   54SOL     OW  213   2.091   0.928   0.849 -0.3356 -0.0447 -0.2281
   54SOL    HW1  214   2.131   0.928   0.759 -1.0644  1.4839 -1.3601
   54SOL    HW2  215   2.066   0.838   0.873  0.4483 -1.2649 -2.2024
   54SOL     MW  216   2.093   0.916   0.840 -0.3284 -0.0040 -0.6380
   55SOL     OW  217   0.572   1.549   1.675  0.4922  0.1374  0.0082
   55SOL    HW1  218   0.508   1.587   1.615  0.6651  0.0650  1.3952
   55SOL    HW2  219   0.635   1.502   1.624  0.3534  1.3806  1.8900
   55SOL     MW  220   0.572   1.548   1.660  0.4967  0.2919  0.4395
   56SOL     OW  221   0.608   0.781   0.052  0.1048  0.3478  0.1651
   56SOL    HW1  222   0.616   0.874   0.073  1.4352 -0.1756 -0.3010
   56SOL    HW2  223   0.525   0.791   0.005  1.6699 -0.2639  2.0338
   56SOL     MW  224   0.598   0.794   0.048  0.4868  0.1980  0.3502
   57SOL     OW  225   1.213   1.198   1.130  0.1716  0.2133  1.0665
   57SOL    HW1  226   1.289   1.241   1.086  0.1164  2.1144  0.4018
   57SOL    HW2  227   1.263   1.154   1.207  0.3764  0.1260  0.1372
   57SOL     MW  228   1.230   1.198   1.134  0.1914  0.4526  0.8562
   58SOL     OW  229   0.536   1.174   1.306 -0.5815  0.6876  0.0878
   58SOL    HW1  230   0.512   1.271   1.280  1.1293  0.5175 -2.6445
   58SOL    HW2  231   0.538   1.179   1.400  0.4919  0.1442  0.1106
   58SOL     MW  232   0.533   1.188   1.315 -0.2142  0.5935 -0.2697
   59SOL     OW  233   1.550   1.687   0.326  0.3467 -0.1516 -0.0497
   59SOL    HW1  234   1.610   1.744   0.380 -1.8086  2.7734 -2.1419
   59SOL    HW2  235   1.469   1.701   0.372 -1.8862  1.3682 -0.2298
   59SOL     MW  236   1.547   1.696   0.339 -0.2323  0.4349 -0.3495
   60SOL     OW  237   0.018   0.177   1.604 -0.1661 -0.3100  0.1559
   60SOL    HW1  238  -0.070   0.202   1.600  1.6545 -1.6450 -0.0025
   60SOL    HW2  239   0.038   0.153   1.693 -0.8597  0.2791 -0.6614
   60SOL     MW  240   0.009   0.177   1.615 -0.0174 -0.4084  0.0271
   61SOL     OW  241   2.031   1.504   3.088 -0.2927  0.1958  0.5482
   61SOL    HW1  242   1.981   1.512   3.168 -0.3838 -1.2129  1.6512
   61SOL    HW2  243   2.091   1.430   3.093 -1.3319 -0.2020 -2.7317
   61SOL     MW  244   2.032   1.495   3.099 -0.4419 -0.0425  0.2610
   62SOL     OW  245   0.574   1.701   0.631  0.4662  0.6139  0.0673
   62SOL    HW1  246   0.663   1.723   0.618 -2.7113 -1.8714  2.4245
   62SOL    HW2  247   0.574   1.603   0.643 -0.7047 -0.3067  1.6675
   62SOL     MW  248   0.586   1.691   0.631 -0.1076  0.1645  0.5894
   63SOL     OW  249   1.682   0.677   0.735 -0.1322 -0.1519 -0.0969
   63SOL    HW1  250   1.671   0.722   0.650 -1.9646 -1.2762 -0.8663
   63SOL    HW2  251   1.598   0.642   0.762  0.8072  0.5169  0.6745
   63SOL     MW  252   1.669   0.678   0.728 -0.2500 -0.2120 -0.0967
   64SOL     OW  253   0.210   1.744   0.766 -0.5092 -0.4596  0.5409
   64SOL    HW1  254   0.287   1.801   0.759 -1.4441  0.9080 -2.6300
   64SOL    HW2  255   0.134   1.791   0.763  1.3642 -1.0925 -0.9012
   64SOL     MW  256   0.210   1.757   0.765 -0.3853 -0.3626 -0.0677
   65SOL     OW  257   1.545   2.340   0.376  0.5850 -0.0452  0.2035
   65SOL    HW1  258   1.632   2.315   0.402 -1.2554 -3.2084 -1.3668
   65SOL    HW2  259   1.513   2.381   0.453 -1.3182 -1.8686  0.1588
   65SOL     MW  260   1.552   2.342   0.390  0.0911 -0.7032 -0.0096
   66SOL     OW  261   0.283   0.531   0.549  0.2978 -0.1253 -0.2381
   66SOL    HW1  262   0.330   0.470   0.490 -1.1001 -1.0085  2.8490
   66SOL    HW2  263   0.297   0.622   0.507  0.8573  2.7960 -0.8058
   66SOL     MW  264   0.291   0.535   0.536  0.1872  0.1436  0.0943
   67SOL     OW  265   1.536   0.071   2.055  0.3886 -0.3773  0.3206
   67SOL    HW1  266   1.548   0.066   1.959  1.9032 -1.3407  0.8447
   67SOL    HW2  267   1.488  -0.009   2.070 -0.2644  1.6812 -0.8600
   67SOL     MW  268   1.531   0.060   2.044  0.5023 -0.2328  0.2340
   68SOL     OW  269   0.675   0.123   2.931  0.5629  0.8480  0.0309
   68SOL    HW1  270   0.682   0.150   2.835  1.1547  0.5865 -0.3078
   68SOL    HW2  271   0.751   0.157   2.986 -0.6782  0.8784  1.5193
   68SOL     MW  272   0.686   0.131   2.925  0.4773  0.8175  0.1826
   69SOL     OW  273   1.010   0.204   2.000  0.2898  0.3342  0.0558
   69SOL    HW1  274   1.109   0.222   1.996  0.0095  0.4742  1.0369
   69SOL    HW2  275   1.001   0.111   2.026  1.7771 -1.9340 -0.8533
   69SOL     MW  276   1.022   0.194   2.003  0.4490  0.0534  0.0653
   70SOL     OW  277   0.531   1.737   1.117  0.6522 -0.4663  0.2775
   70SOL    HW1  278   0.590   1.694   1.178  2.1586  3.9852  1.5477
   70SOL    HW2  279   0.605   1.774   1.062  1.5253  0.2503 -2.2989
   70SOL     MW  280   0.549   1.736   1.118  0.9662  0.2155  0.1051
   71SOL     OW  281   1.595   0.523   1.289 -0.2715 -0.0913 -0.8029
   71SOL    HW1  282   1.566   0.603   1.335  2.7834  0.5019 -0.8385
   71SOL    HW2  283   1.564   0.540   1.196  0.6893  0.8106 -0.2293
   71SOL     MW  284   1.587   0.536   1.282  0.2583  0.1060 -0.7319
   72SOL     OW  285   0.743   1.815   0.982 -0.4138  0.1829 -0.1013
   72SOL    HW1  286   0.763   1.867   0.902  0.0050 -0.8913 -0.9778
   72SOL    HW2  287   0.748   1.724   0.952 -0.3408  0.6812 -2.6431
   72SOL     MW  288   0.746   1.810   0.967 -0.3489  0.1069 -0.5523
   73SOL     OW  289   1.168   0.752   1.319 -0.2568 -0.1758 -0.2529
   73SOL    HW1  290   1.123   0.667   1.341  1.2318  0.3044  1.2242
   73SOL    HW2  291   1.149   0.815   1.389  1.6598  2.3646 -1.6501
   73SOL     MW  292   1.159   0.749   1.331  0.1925  0.2228 -0.2423
   74SOL     OW  293   2.762   0.180   0.944 -0.5680  0.1460  0.0765
   74SOL    HW1  294   2.809   0.172   0.863 -1.5095 -0.0994  2.3871
   74SOL    HW2  295   2.729   0.273   0.948 -1.1100 -0.3864 -0.5824
   74SOL     MW  296   2.764   0.191   0.934 -0.7638  0.0434  0.2945
   75SOL     OW  297   1.646   1.378   0.110 -0.1606  0.3046  0.2196
   75SOL    HW1  298   1.681   1.468   0.110  1.1184  0.6118  1.0794
   75SOL    HW2  299   1.716   1.321   0.146  1.1372 -0.0743  1.2224
   75SOL     MW  300   1.660   1.382   0.115  0.1794  0.2951  0.4653
   76SOL     OW  301   3.010   0.603   0.465  0.2096 -0.5470  0.0815
   76SOL    HW1  302   3.043   0.670   0.527 -1.1283 -1.3619  0.6851
   76SOL    HW2  303   3.083   0.553   0.433  2.1963  3.2122 -3.1278
   76SOL     MW  304   3.024   0.605   0.469  0.2952 -0.1585 -0.2623
   77SOL     OW  305   0.806   0.550   0.429  0.7471 -0.2293  0.3387
   77SOL    HW1  306   0.790   0.573   0.338  1.0293  0.2243 -0.7699
   77SOL    HW2  307   0.736   0.484   0.452  0.8103 -0.4322  1.1265
   77SOL     MW  308   0.795   0.545   0.420  0.7927 -0.1962  0.2964
   78SOL     OW  309   0.731   0.933   1.303  0.0874  0.2224  0.1000
   78SOL    HW1  310   0.766   1.007   1.246 -1.2026  1.9492  2.1053
   78SOL    HW2  311   0.653   0.893   1.256 -1.5741 -0.2383 -0.8644
   78SOL     MW  312   0.725   0.938   1.289 -0.3020  0.3895  0.2374
   79SOL     OW  313   1.950   1.666   0.585 -0.0371 -0.2348 -0.2314
   79SOL    HW1  314   1.878   1.606   0.555  0.6313  4.1219 -1.3730
   79SOL    HW2  315   1.936   1.671   0.682 -0.9664  3.6062  0.2700
   79SOL     MW  316   1.938   1.659   0.594 -0.0715  0.8468 -0.3159
   80SOL     OW  317   0.076   0.934   0.335 -0.3031 -0.0076  0.2090
   80SOL    HW1  318  -0.008   0.896   0.351  0.5278 -0.8056  0.3346
   80SOL    HW2  319   0.153   0.881   0.365 -0.9885  0.9848  1.3407
   80SOL     MW  320   0.075   0.922   0.341 -0.2839  0.0180  0.3749
   81SOL     OW  321   1.919   1.909   0.219  0.1322  0.6222  0.3858
   81SOL    HW1  322   1.894   1.817   0.200 -1.5179  0.7876 -1.8592
   81SOL    HW2  323   1.840   1.970   0.211 -1.6596 -1.9306 -0.3578
   81SOL     MW  324   1.906   1.905   0.215 -0.3219  0.3072 -0.0085
   82SOL     OW  325   0.814   1.025   0.517 -0.0805 -0.5100 -0.0647
   82SOL    HW1  326   0.819   1.031   0.418  1.9499 -3.6823  1.8250
   82SOL    HW2  327   0.796   0.934   0.535 -0.7090  3.2288 -0.9221
   82SOL     MW  328   0.813   1.014   0.506  0.1044 -0.4352  0.0715
   83SOL     OW  329   0.065   0.640   1.426 -0.8784  0.3871  0.6970
   83SOL    HW1  330   0.086   0.716   1.367 -1.4754  1.8831  0.5888
   83SOL    HW2  331   0.140   0.616   1.476 -2.7702 -0.1688 -0.2088
   83SOL     MW  332   0.078   0.647   1.425 -1.2067  0.5111  0.5632
   84SOL     OW  333   0.099   0.271   0.949 -0.1402  0.4468 -0.0190
   84SOL    HW1  334   0.023   0.313   0.898  0.3808  3.0860  1.2545
   84SOL    HW2  335   0.063   0.187   0.982 -2.2834 -0.4801 -1.9827
   84SOL     MW  336   0.084   0.266   0.947 -0.3542  0.6727 -0.1101
   85SOL     OW  337   0.488   0.409   0.752  0.0153 -0.2888 -0.0643
   85SOL    HW1  338   0.438   0.439   0.675  0.6514 -0.1471  1.1876
   85SOL    HW2  339   0.436   0.336   0.788 -2.0170 -1.8087  2.6335
   85SOL     MW  340   0.474   0.403   0.747 -0.1689 -0.4706  0.4568
   86SOL     OW  341   1.195   0.313   1.134 -0.5852 -0.1037  0.0361
   86SOL    HW1  342   1.159   0.391   1.089 -1.8661 -0.8770  0.8341
   86SOL    HW2  343   1.251   0.350   1.202  0.5817 -0.7345 -2.5682
   86SOL     MW  344   1.198   0.328   1.137 -0.6002 -0.2889 -0.2022
   87SOL     OW  345   1.211   1.456   1.316  0.1028  0.3676  1.0689
   87SOL    HW1  346   1.247   1.503   1.241  1.1653 -0.4063  1.9941
   87SOL    HW2  347   1.214   1.364   1.287  3.5801  1.3025  0.6422
   87SOL     MW  348   1.216   1.450   1.303  0.7018  0.3888  1.1346
   88SOL     OW  349   1.213   0.996   0.933  0.2244  0.1759 -0.0957
   88SOL    HW1  350   1.307   0.982   0.948  1.4146  0.6327 -0.0192
   88SOL    HW2  351   1.194   1.048   1.014 -1.4457 -2.5319 -1.4360
   88SOL     MW  352   1.223   1.001   0.945  0.1611 -0.1211 -0.2624
   89SOL     OW  353   1.784   0.680   0.373  0.1759  0.2081  0.2751
   89SOL    HW1  354   1.836   0.609   0.398  0.3782 -0.3162 -3.1867
   89SOL    HW2  355   1.840   0.711   0.301 -0.7527 -2.2896 -1.6219
   89SOL     MW  356   1.798   0.674   0.367  0.0800 -0.1906 -0.4320
   90SOL     OW  357   0.694   1.119   2.737  0.2508  0.0405 -1.0154
   90SOL    HW1  358   0.737   1.047   2.797  0.1385 -1.7326  0.7510
   90SOL    HW2  359   0.714   1.189   2.790  0.2325  0.4489 -0.6668
   90SOL     MW  360   0.703   1.118   2.752  0.2336 -0.1395 -0.7364
   91SOL     OW  361   2.175   0.673   0.462  0.1091 -0.1600 -0.3325
   91SOL    HW1  362   2.224   0.714   0.390 -0.3764  1.3204  1.2772
   91SOL    HW2  363   2.153   0.584   0.428 -0.5867  0.8770 -1.1476
   91SOL     MW  364   2.179   0.667   0.448 -0.0467  0.1721 -0.2277
   92SOL     OW  365   1.659   0.868   0.534  0.5169  0.2808  0.1018
   92SOL    HW1  366   1.570   0.882   0.574 -2.1259  0.6925  1.0363
   92SOL    HW2  367   1.669   0.791   0.479  0.6725  1.1806 -1.5735
   92SOL     MW  368   1.649   0.860   0.532  0.1888  0.4538  0.0040
   93SOL     OW  369   0.943   0.258   0.408 -0.7657 -0.3377 -0.0979
   93SOL    HW1  370   0.887   0.337   0.423  1.7155  1.6572  1.2127
   93SOL    HW2  371   0.988   0.277   0.327 -0.0432  1.9454  1.3738
   93SOL     MW  372   0.941   0.271   0.400 -0.3430  0.2268  0.2692
   94SOL     OW  373   1.782   1.477   1.624 -0.1187  0.6573 -0.3295
   94SOL    HW1  374   1.811   1.450   1.537 -2.2283  0.4972  1.5415
   94SOL    HW2  375   1.775   1.398   1.676 -0.1520 -0.4443  3.2289
   94SOL     MW  376   1.785   1.463   1.620 -0.4015  0.4908  0.3869
   95SOL     OW  377   0.757   1.556   0.926 -0.2044  0.4134 -0.5217
   95SOL    HW1  378   0.799   1.484   0.968 -0.6090  2.6046  2.1135
   95SOL    HW2  379   0.677   1.558   0.977 -2.1413  2.2272 -2.2059
   95SOL     MW  380   0.752   1.547   0.938 -0.5134  0.9418 -0.3962
   96SOL     OW  381   1.251   1.836   1.644  0.5588 -0.0313  0.1019
   96SOL    HW1  382   1.184   1.830   1.708 -2.7974  1.4764  2.2185
   96SOL    HW2  383   1.258   1.748   1.597 -0.2551  1.6887  4.6129
   96SOL     MW  384   1.243   1.824   1.646  0.0086  0.3945  0.9764
   97SOL     OW  385   1.275   1.437   0.763 -0.3666  0.2251 -0.8340
   97SOL    HW1  386   1.323   1.483   0.828 -0.7111  1.4811  1.8533
   97SOL    HW2  387   1.190   1.486   0.767 -1.9725  0.2545  0.8422
   97SOL     MW  388   1.270   1.449   0.772 -0.6240  0.3947 -0.2582
   98SOL     OW  389   1.450   1.287   1.019 -0.1790  0.3467  0.5304
   98SOL    HW1  390   1.500   1.334   1.081 -1.9876  0.0228 -1.4646
   98SOL    HW2  391   1.499   1.297   0.938 -1.1107  1.5101 -1.2184
   98SOL     MW  392   1.463   1.294   1.016 -0.5406  0.4575  0.0364
   99SOL     OW  393   1.374   0.383   1.331  0.2442 -0.5713  0.0581
   99SOL    HW1  394   1.460   0.423   1.306 -1.4955  2.7923  1.9893
   99SOL    HW2  395   1.385   0.365   1.427 -0.6966 -2.6993 -0.2090
   99SOL     MW  396   1.387   0.386   1.340 -0.1095 -0.4082  0.2776
  100SOL     OW  397   1.024   1.154   1.373 -0.1356  0.1963  0.5099
  100SOL    HW1  398   1.040   1.204   1.451  1.7973  1.4482  0.1911
  100SOL    HW2  399   1.077   1.077   1.388  0.4879  2.3393 -2.1166
  100SOL     MW  400   1.033   1.150   1.385  0.2017  0.6442  0.1213
  101SOL     OW  401   0.496   1.082   0.302  0.3058  0.3412  0.8032
  101SOL    HW1  402   0.519   0.993   0.320 -0.9013 -2.0780 -1.0102
  101SOL    HW2  403   0.474   1.077   0.204  0.2569 -0.7342 -0.0353
  101SOL     MW  404   0.496   1.069   0.292  0.1401 -0.1199  0.4533
  102SOL     OW  405   2.907   0.626   1.036  0.2156  0.2820  0.2885
  102SOL    HW1  406   2.953   0.710   1.036 -2.0091 -1.7048 -0.8488
  102SOL    HW2  407   2.942   0.581   1.113 -1.8907  1.5389  0.8323
  102SOL     MW  408   2.918   0.631   1.046 -0.3558  0.1857  0.2102
  103SOL     OW  409   1.742   0.329   1.798  0.7049  0.0399  0.5653
  103SOL    HW1  410   1.669   0.274   1.792  0.9744 -1.2302  1.3122
  103SOL    HW2  411   1.780   0.292   1.883 -0.6782 -0.0462 -0.0231
  103SOL     MW  412   1.737   0.317   1.808  0.5580 -0.1390  0.5863
  104SOL     OW  413   0.050   1.723   1.509 -0.3130 -0.3822 -0.2841
  104SOL    HW1  414   0.058   1.644   1.574  0.3360 -0.1332 -1.1835
  104SOL    HW2  415   0.054   1.683   1.418 -1.7813 -2.1611  1.4909
  104SOL     MW  416   0.052   1.707   1.506 -0.4211 -0.5841 -0.1686
  105SOL     OW  417   0.037   1.184   0.466 -0.5793  0.3259 -0.3253
  105SOL    HW1  418   0.080   1.096   0.429  2.6213  0.1805 -1.1336
  105SOL    HW2  419   0.115   1.246   0.488  1.1141  0.9390  1.0135
  105SOL     MW  420   0.053   1.180   0.464  0.0664  0.3876 -0.2553
  106SOL     OW  421   0.862   0.387   1.026 -0.3316  0.4355 -0.3459
  106SOL    HW1  422   0.805   0.451   0.977  1.1682  2.4582  0.6364
  106SOL    HW2  423   0.895   0.315   0.962 -2.2093 -0.2829 -0.3808
  106SOL     MW  424   0.859   0.386   1.011 -0.3814  0.6076 -0.2209
  107SOL     OW  425   0.760   2.175   2.957  0.1028 -0.3406  0.1912
  107SOL    HW1  426   0.709   2.128   2.887  0.0903 -1.6141  1.8029
  107SOL    HW2  427   0.753   2.126   3.038  3.8015 -2.1744 -0.0008
  107SOL     MW  428   0.752   2.163   2.958  0.5891 -0.7505  0.3785
  108SOL     OW  429   1.273   1.578   1.589  0.1733 -0.0633  0.5002
  108SOL    HW1  430   1.235   1.539   1.517  0.5409 -0.2708  3.4406
  108SOL    HW2  431   1.359   1.525   1.609  0.1046 -0.0897  0.1996
  108SOL     MW  432   1.279   1.566   1.582  0.2127 -0.0942  0.8485
  109SOL     OW  433   1.975   0.789   0.183 -0.3792 -0.2667 -0.0924
  109SOL    HW1  434   1.967   0.849   0.109  1.1765  2.0726 -0.6107
  109SOL    HW2  435   1.973   0.858   0.255 -0.6097 -1.1860  2.9601
  109SOL     MW  436   1.974   0.806   0.183 -0.2044 -0.0794  0.2420
  110SOL     OW  437   0.435   1.909   0.810 -0.4638 -0.4280  0.0859
  110SOL    HW1  438   0.504   1.842   0.808  1.2203  1.0375 -0.4021
  110SOL    HW2  439   0.455   1.975   0.745  1.0139 -1.2752 -0.9962
  110SOL     MW  440   0.447   1.909   0.801 -0.0467 -0.3464 -0.1213
  111SOL     OW  441   0.817   0.905   1.567  0.7309 -0.7728 -0.0851
  111SOL    HW1  442   0.774   0.904   1.480  0.8440  1.3996 -1.1368
  111SOL    HW2  443   0.825   0.811   1.591 -0.6246 -0.1091  0.1085
  111SOL     MW  444   0.812   0.892   1.559  0.5670 -0.3986 -0.1983
  112SOL     OW  445   1.358   1.083   1.594  0.0164  0.3610  0.0340
  112SOL    HW1  446   1.316   1.171   1.599 -0.6077  0.7417  0.7622
  112SOL    HW2  447   1.282   1.028   1.581 -0.8984 -0.5777  2.4835
  112SOL     MW  448   1.343   1.087   1.593 -0.1866  0.2874  0.4533
  113SOL     OW  449   1.313   0.057   1.712  0.3938 -0.1432  0.2230
  113SOL    HW1  450   1.289   0.006   1.790 -2.5532 -0.4751  1.0919
  113SOL    HW2  451   1.304  -0.014   1.643 -2.8948  2.5305 -1.1540
  113SOL     MW  452   1.308   0.041   1.713 -0.4289  0.1658  0.1559
  114SOL     OW  453   0.287   2.849   1.932 -0.5935 -0.3202 -0.0069
  114SOL    HW1  454   0.323   2.929   1.967 -2.2711 -0.5889  2.0864
  114SOL    HW2  455   0.284   2.874   1.836  1.6540 -1.8896  1.3597
  114SOL     MW  456   0.291   2.863   1.924 -0.5183 -0.5627  0.4496
  115SOL     OW  457   0.479   0.827   1.146 -0.4054  0.0816  0.1831
  115SOL    HW1  458   0.479   0.730   1.148  0.9987 -1.9060 -0.7877
  115SOL    HW2  459   0.473   0.844   1.242 -3.5865 -2.8674 -0.8867
  115SOL     MW  460   0.478   0.817   1.159 -0.6398 -0.5698 -0.0861
  116SOL     OW  461   0.810   1.032   0.971  0.1256  0.4611 -0.1443
  116SOL    HW1  462   0.819   1.098   0.904  0.9421  2.1428  1.8055
  116SOL    HW2  463   0.866   1.066   1.039 -1.6408  0.3805 -2.0360
  116SOL     MW  464   0.818   1.046   0.972  0.0003  0.6723 -0.1366
  117SOL     OW  465   1.112   1.191   0.752  0.0768 -0.3350 -0.5669
  117SOL    HW1  466   1.149   1.133   0.821 -0.3328 -0.6204  2.5082
  117SOL    HW2  467   1.175   1.264   0.738 -0.2080  0.0061  0.9970
  117SOL     MW  468   1.125   1.193   0.759 -0.0148 -0.3276  0.0451
  118SOL     OW  469   3.027   2.945   1.770 -0.2374 -0.0834 -0.0078
  118SOL    HW1  470   3.079   3.017   1.804 -2.0105  1.0961 -0.0816
  118SOL    HW2  471   2.944   2.984   1.743 -1.3491  2.2597 -1.6348
  118SOL     MW  472   3.023   2.960   1.771 -0.6181  0.3813 -0.2322
  119SOL     OW  473   0.479   1.429   1.223 -0.2381 -0.4002 -0.1878
  119SOL    HW1  474   0.494   1.439   1.125  2.2194  0.3068  1.1288
  119SOL    HW2  475   0.380   1.410   1.224 -0.0393  0.0978  3.2427
  119SOL     MW  476   0.468   1.428   1.210  0.1124 -0.2412  0.4385
  120SOL     OW  477   0.266   0.702   0.968  0.1123  0.4970  0.3608
  120SOL    HW1  478   0.234   0.664   1.050  1.4302 -0.1577 -1.0848
  120SOL    HW2  479   0.342   0.754   0.994 -0.8412  0.3112 -0.2103
  120SOL     MW  480   0.272   0.704   0.983  0.1604  0.3861  0.0947
  121SOL     OW  481   1.746   1.199   1.720 -0.0845 -0.1970  0.0872
  121SOL    HW1  482   1.669   1.155   1.751 -2.6189 -1.8933  0.3857
  121SOL    HW2  483   1.779   1.137   1.653  0.6077  1.9583 -0.3037
  121SOL     MW  484   1.740   1.185   1.715 -0.3276 -0.1364  0.0750
  122SOL     OW  485   0.125   0.551   0.788 -0.4121 -0.4514  0.0319
  122SOL    HW1  486   0.192   0.532   0.720  0.6174 -0.1607  1.4361
  122SOL    HW2  487   0.166   0.594   0.865 -1.8135 -0.7560 -1.3750
  122SOL     MW  488   0.139   0.554   0.789 -0.4612 -0.4532  0.0315
  123SOL     OW  489   1.835   1.085   0.550  0.2982  1.1265 -0.2648
  123SOL    HW1  490   1.771   1.012   0.563 -0.4969 -2.3330 -1.2726
  123SOL    HW2  491   1.855   1.108   0.638  2.3106 -0.2559 -0.4179
  123SOL     MW  492   1.829   1.078   0.563  0.4588  0.4877 -0.4180
  124SOL     OW  493   0.695   0.525   0.873 -0.2263 -0.2317 -0.4832
  124SOL    HW1  494   0.619   0.482   0.834  0.2115  1.9700  1.8869
  124SOL    HW2  495   0.681   0.617   0.855  0.0714 -1.3262  2.9025
  124SOL     MW  496   0.683   0.531   0.866 -0.1292 -0.0856  0.2762
  125SOL     OW  497   0.702   1.782   1.714 -0.8735 -0.1917  0.3634
  125SOL    HW1  498   0.655   1.699   1.691  1.0722  1.8460 -3.0095
  125SOL    HW2  499   0.644   1.848   1.688  0.3080 -2.9660  1.0392
  125SOL     MW  500   0.688   1.780   1.708 -0.4609 -0.2889  0.0076
  126SOL     OW  501   2.121   1.608   1.986  0.0763 -0.1981 -0.0090
  126SOL    HW1  502   2.163   1.693   1.963 -0.4682 -0.4027 -2.4408
  126SOL    HW2  503   2.202   1.556   1.993 -0.6040 -0.1478  1.2897
  126SOL     MW  504   2.137   1.612   1.984 -0.0853 -0.2185 -0.1585
  127SOL     OW  505   0.710   0.786   1.859  0.6493  0.0460 -0.0297
  127SOL    HW1  506   0.765   0.714   1.891 -0.0048 -4.0859 -1.1092
  127SOL    HW2  507   0.705   0.850   1.934  1.0664  0.6802  1.5837
  127SOL     MW  508   0.717   0.785   1.873  0.6180 -0.4155  0.0407
  128SOL     OW  509   1.786   0.713   2.910 -0.7816  0.0513  0.4516
  128SOL    HW1  510   1.804   0.660   2.831 -3.1955 -3.5815  1.6915
  128SOL    HW2  511   1.759   0.800   2.879  0.2479  0.8155  0.6791
  128SOL     MW  512   1.785   0.717   2.895 -0.9642 -0.3272  0.6452
  129SOL     OW  513   1.639   0.963   0.221 -0.1617  0.0859  0.0489
  129SOL    HW1  514   1.603   0.882   0.193  1.3970  1.6081 -0.5648
  129SOL    HW2  515   1.682   0.945   0.305 -1.4485 -0.2989 -1.0126
  129SOL     MW  516   1.640   0.950   0.228 -0.1258  0.2359 -0.1721
  130SOL     OW  517   0.738   1.333   0.356  0.0246 -0.1898  0.5815
  130SOL    HW1  518   0.772   1.346   0.442 -5.4874 -0.9361  0.1957
  130SOL    HW2  519   0.814   1.361   0.296  3.9439  0.2025 -2.6794
  130SOL     MW  520   0.752   1.338   0.360 -0.1855 -0.2365  0.1003
  131SOL     OW  521   3.012   0.817   3.074  0.7542 -0.4523  0.1844
  131SOL    HW1  522   3.023   0.884   3.007 -0.5993  0.7493 -0.4345
  131SOL    HW2  523   3.099   0.826   3.119  0.5622 -0.3189  1.4190
  131SOL     MW  524   3.025   0.827   3.071  0.5503 -0.2761  0.2656
  132SOL     OW  525   2.686   0.148   1.233 -0.3338 -0.5928  0.4323
  132SOL    HW1  526   2.707   0.123   1.141 -1.8637 -0.6519  1.4503
  132SOL    HW2  527   2.597   0.111   1.246  1.4682 -0.8333 -1.7688
  132SOL     MW  528   2.677   0.140   1.223 -0.2979 -0.6324  0.2762
  133SOL     OW  529   1.042   0.152   1.732 -0.8579 -0.2387 -0.1967
  133SOL    HW1  530   1.124   0.111   1.758  0.1688  0.0466 -0.7946
  133SOL    HW2  531   0.994   0.172   1.815 -1.2955 -1.0331  2.0344
  133SOL     MW  532   1.046   0.149   1.747 -0.7802 -0.3058  0.0188
  134SOL     OW  533   1.390   2.521   1.430 -0.1531 -0.5131 -0.3407
  134SOL    HW1  534   1.376   2.610   1.397 -2.5967  1.8092 -0.0791
  134SOL    HW2  535   1.432   2.549   1.512  1.4563 -0.4961  2.5675
  134SOL     MW  536   1.394   2.536   1.436 -0.2632 -0.2045  0.0775
  135SOL     OW  537   3.047   1.004   2.838 -0.7119 -0.3844  0.0915
  135SOL    HW1  538   3.105   1.080   2.859 -0.6914 -4.9155 -5.7666
  135SOL    HW2  539   2.962   1.042   2.849  0.6365 -0.1801  1.8214
  135SOL     MW  540   3.043   1.019   2.842 -0.5313 -0.9552 -0.4532
  136SOL     OW  541   0.205   2.046   0.881 -0.3104 -0.2711 -0.2799
  136SOL    HW1  542   0.135   2.005   0.828 -0.6626  0.6496  1.0205
  136SOL    HW2  543   0.293   2.004   0.857 -0.7268  1.3715 -0.3685
  136SOL     MW  544   0.207   2.035   0.871 -0.4118  0.0671 -0.1200
  137SOL     OW  545   0.685   2.076   0.529 -0.1289  0.0099  0.1013
  137SOL    HW1  546   0.729   2.051   0.605  1.2786 -0.1244 -1.4173
  137SOL    HW2  547   0.604   2.085   0.572  2.4272  0.7422 -0.9496
  137SOL     MW  548   0.680   2.074   0.545  0.3940  0.0888 -0.2377
  138SOL     OW  549   0.536   0.559   1.092  0.6166  0.4383  0.0209
  138SOL    HW1  550   0.452   0.522   1.072  1.3695  1.2333 -0.1572
  138SOL    HW2  551   0.587   0.549   1.009  0.6176 -0.4345 -1.4934
  138SOL     MW  552   0.532   0.553   1.078  0.7161  0.4281 -0.2024
  139SOL     OW  553   2.768   0.581   1.346 -0.0002 -0.2533 -0.4249
  139SOL    HW1  554   2.814   0.499   1.363  0.9636  2.2457  2.4803
  139SOL    HW2  555   2.778   0.635   1.424  1.6830  2.3689 -0.0662
  139SOL     MW  556   2.776   0.577   1.358  0.3491  0.4224  0.0058
  140SOL     OW  557   0.810   0.385   2.081  0.2533  0.1834  0.1368
  140SOL    HW1  558   0.873   0.313   2.068 -3.2702  2.2278  1.8733
  140SOL    HW2  559   0.825   0.423   2.171 -0.2056 -2.9558  3.3846
  140SOL     MW  560   0.821   0.380   2.091 -0.2721  0.0390  0.7945
  141SOL     OW  561   1.088   0.606   1.758 -0.0869  1.1989 -0.2990
  141SOL    HW1  562   1.120   0.533   1.705  0.0256 -0.0425  3.4313
  141SOL    HW2  563   1.156   0.675   1.758  1.9619  2.5028  2.5056
  141SOL     MW  564   1.101   0.605   1.751  0.1983  1.2071  0.5632
  142SOL     OW  565   0.838   1.193   0.735  0.2334  0.1162 -0.3127
  142SOL    HW1  566   0.823   1.138   0.656 -1.0545  1.3248 -0.7353
  142SOL    HW2  567   0.937   1.202   0.738  0.2826 -2.7487 -1.4847
  142SOL     MW  568   0.849   1.187   0.725  0.0700 -0.1023 -0.5231
  143SOL     OW  569   1.749   0.791   1.124 -0.0270 -0.2391  0.3558
  143SOL    HW1  570   1.803   0.787   1.045  0.8907 -1.5333  1.2222
  143SOL    HW2  571   1.675   0.729   1.115  2.4123  0.1805  1.0733
  143SOL     MW  572   1.746   0.783   1.112  0.4159 -0.3545  0.5648
  144SOL     OW  573   0.224   1.166   1.567 -0.3353 -0.4367  0.9541
  144SOL    HW1  574   0.317   1.171   1.567 -1.1191 -0.8393 -2.0072
  144SOL    HW2  575   0.210   1.160   1.664  0.0571 -1.3684  2.5342
  144SOL     MW  576   0.234   1.166   1.580 -0.3869 -0.6127  0.7719
  145SOL     OW  577   0.276   0.451   1.129 -0.0325  0.4538  0.5211
  145SOL    HW1  578   0.310   0.377   1.170  1.6957  0.0403  0.5368
  145SOL    HW2  579   0.221   0.404   1.057 -1.1731 -1.7188  1.4703
  145SOL     MW  580   0.273   0.435   1.125  0.0450  0.1126  0.6484
  146SOL     OW  581   0.805   1.930   1.320  0.1520 -0.0547  0.2173
  146SOL    HW1  582   0.842   1.923   1.233  0.2854  1.2726  0.1784
  146SOL    HW2  583   0.712   1.938   1.331  0.0036 -1.4847  1.7856
  146SOL     MW  584   0.798   1.930   1.310  0.1501 -0.0683  0.4191
  147SOL     OW  585   0.345   0.396   2.996 -0.1442 -0.1386 -0.1833
  147SOL    HW1  586   0.263   0.412   3.047 -1.1631  1.2304  0.8148
  147SOL    HW2  587   0.334   0.449   2.918  0.0627  0.3689 -1.0624
  147SOL     MW  588   0.333   0.405   2.993 -0.2514  0.1090 -0.1676
  148SOL     OW  589   0.143   0.856   1.270  0.4151 -0.1593 -0.1517
  148SOL    HW1  590   0.240   0.870   1.294 -1.0759 -0.4114  0.2777
  148SOL    HW2  591   0.099   0.912   1.329  2.7006 -1.4713 -2.2061
  148SOL     MW  592   0.150   0.865   1.281  0.5199 -0.3657 -0.3661
  149SOL     OW  593   1.363   1.140   1.344  0.0392  0.6578 -0.1436
  149SOL    HW1  594   1.385   1.095   1.427  1.1573 -1.6824 -0.4425
  149SOL    HW2  595   1.407   1.224   1.349 -2.2150 -0.2125  0.0091
  149SOL     MW  596   1.372   1.146   1.356 -0.1107  0.2342 -0.1629
  150SOL     OW  597   1.852   1.404   0.744  0.3353 -0.4285 -0.0418
  150SOL    HW1  598   1.903   1.327   0.751  0.3204  1.7765  0.8166
  150SOL    HW2  599   1.915   1.469   0.781 -1.2247 -0.2448  2.5636
  150SOL     MW  600   1.867   1.402   0.750  0.1275 -0.1134  0.4152
  151SOL     OW  601   1.673   1.780   0.826  0.4440 -0.3185  0.0311
  151SOL    HW1  602   1.644   1.799   0.734 -0.3315 -3.6481 -0.4128
  151SOL    HW2  603   1.612   1.710   0.852 -4.0470 -1.9199  0.8060
  151SOL     MW  604   1.661   1.774   0.817 -0.2509 -0.9691  0.0748
  152SOL     OW  605   0.737   1.409   1.489  0.7274  0.3728  0.4586
  152SOL    HW1  606   0.705   1.320   1.472 -1.2527  1.1300 -2.8305
  152SOL    HW2  607   0.831   1.403   1.485  0.0838  0.3975 -0.1050
  152SOL     MW  608   0.745   1.396   1.486  0.3812  0.4760 -0.0497
  153SOL     OW  609   2.595   1.220   0.750  0.0380 -0.6186 -0.0789
  153SOL    HW1  610   2.657   1.167   0.693 -2.1188  3.4672 -1.3286
  153SOL    HW2  611   2.521   1.161   0.770 -0.0031 -1.7957  0.3790
  153SOL     MW  612   2.593   1.206   0.745 -0.2520 -0.2348 -0.1834
  154SOL     OW  613   0.327   1.816   1.747 -0.4344  0.3844 -0.0340
  154SOL    HW1  614   0.331   1.814   1.650  0.8632 -0.7708 -2.4017
  154SOL    HW2  615   0.333   1.722   1.783  0.4626 -0.1795  0.2012
  154SOL     MW  616   0.329   1.804   1.739 -0.1449  0.1576 -0.3153
  155SOL     OW  617   1.206   0.705   0.268  0.4576  0.4090  0.1246
  155SOL    HW1  618   1.173   0.658   0.347  2.3146  1.3220 -1.7735
  155SOL    HW2  619   1.165   0.793   0.269 -0.2397 -0.9732 -1.5214
  155SOL     MW  620   1.196   0.710   0.279  0.6106  0.3471 -0.3430
  156SOL     OW  621   1.537   3.055   1.076 -0.6335  0.1019  0.3693
  156SOL    HW1  622   1.607   3.107   1.116 -0.8134  2.1091  2.7563
  156SOL    HW2  623   1.545   2.965   1.094 -1.7596 -0.2926 -1.8668
  156SOL     MW  624   1.547   3.050   1.084 -0.8058  0.3147  0.3892
  157SOL     OW  625   1.453   1.118   0.114 -0.2006  0.0527 -0.4568
  157SOL    HW1  626   1.525   1.055   0.156  1.3322 -1.3909  2.4290
  157SOL    HW2  627   1.499   1.202   0.120 -1.2076  0.6582 -0.5731
  157SOL     MW  628   1.469   1.121   0.120 -0.1312 -0.0579 -0.0914
  158SOL     OW  629   0.487   1.633   2.191  0.2689  0.6617 -0.0484
  158SOL    HW1  630   0.478   1.702   2.123  1.2531  2.0951 -2.0449
  158SOL    HW2  631   0.424   1.641   2.266  0.6875  3.3874 -0.2472
  158SOL     MW  632   0.477   1.643   2.192  0.4540  1.2104 -0.3380
  159SOL     OW  633   1.278   1.707   0.425  0.0499  0.3896  0.5536
  159SOL    HW1  634   1.258   1.624   0.377  1.9687 -0.9194 -2.3984
  159SOL    HW2  635   1.207   1.712   0.487  2.1945 -2.0107  0.4921
  159SOL     MW  636   1.266   1.696   0.427  0.5860 -0.0998  0.1560
  160SOL     OW  637   0.545   1.154   1.602  0.5336  0.6079  0.4325
  160SOL    HW1  638   0.512   1.074   1.640 -1.8034  0.1998  0.4429
  160SOL    HW2  639   0.604   1.185   1.668  2.0803 -2.5332 -0.9359
  160SOL     MW  640   0.549   1.147   1.615  0.4293  0.1396  0.2533
  161SOL     OW  641   0.463   2.188   2.565 -0.3120 -0.4537  0.0339
  161SOL    HW1  642   0.377   2.217   2.538 -1.5318 -0.6041  2.2497
  161SOL    HW2  643   0.497   2.138   2.490  3.3354  0.1241 -0.4647
  161SOL     MW  644   0.456   2.185   2.551  0.0083 -0.3973  0.2605
  162SOL     OW  645   1.074   1.802   1.870 -0.2884 -1.0476  0.0482
  162SOL    HW1  646   1.075   1.891   1.900 -0.3731 -1.7406 -1.8623
  162SOL    HW2  647   0.991   1.761   1.897  1.2203 -0.8087 -1.4893
  162SOL     MW  648   1.063   1.808   1.878 -0.1005 -1.1075 -0.4067
  163SOL     OW  649   2.143   0.046   0.941  0.2255 -0.2756  0.2551
  163SOL    HW1  650   2.176   0.079   0.852 -0.2267  0.3880 -1.4320
  163SOL    HW2  651   2.064  -0.003   0.926  1.6894 -4.2559 -2.1511
  163SOL     MW  652   2.137   0.044   0.927  0.3590 -0.7132 -0.2850
  164SOL     OW  653   0.360   0.197   0.883  0.4216  0.5626 -0.3382
  164SOL    HW1  654   0.273   0.217   0.905  2.3914 -0.2517  2.2768
  164SOL    HW2  655   0.349   0.123   0.820  1.4288  2.3886 -2.0200
  164SOL     MW  656   0.347   0.190   0.878  0.8144  0.6961 -0.2150
  165SOL     OW  657   1.344   1.236   0.339  0.1846  0.3681  0.3047
  165SOL    HW1  658   1.298   1.174   0.393  1.1340 -0.0130 -1.3219
  165SOL    HW2  659   1.369   1.178   0.261 -0.2902 -3.4640  2.3724
  165SOL     MW  660   1.341   1.221   0.336  0.2472 -0.1878  0.3629
  166SOL     OW  661   0.533   1.131   1.012 -0.0149  0.5842 -0.2492
  166SOL    HW1  662   0.491   1.077   1.075  1.1914 -0.3831  0.8085
  166SOL    HW2  663   0.621   1.095   1.012 -0.1174 -2.2727  1.8889
  166SOL     MW  664   0.539   1.119   1.020  0.1307  0.0796  0.1724
  167SOL     OW  665   0.768   1.032   0.247 -0.5756 -0.3231  0.3550
  167SOL    HW1  666   0.687   1.092   0.257 -1.4154  0.5470  0.8453
  167SOL    HW2  667   0.826   1.066   0.169 -1.0483 -0.7005  0.4733
  167SOL     MW  668   0.765   1.044   0.238 -0.7488 -0.2581  0.4353
  168SOL     OW  669   1.659   1.674   2.985  0.5555  0.1551  0.3258
  168SOL    HW1  670   1.579   1.697   2.938  1.5166  0.9233 -2.7101
  168SOL    HW2  671   1.678   1.580   2.965 -0.2288 -4.1741  0.9840
  168SOL     MW  672   1.651   1.665   2.976  0.5788 -0.3147  0.0121
  169SOL     OW  673   0.386   0.897   1.399  0.3664 -0.2331 -0.2242
  169SOL    HW1  674   0.424   0.876   1.488  1.5175  1.7987  1.1186
  169SOL    HW2  675   0.412   0.987   1.390 -2.8215  0.4170  0.9165
  169SOL     MW  676   0.394   0.906   1.409  0.0977  0.1208  0.1034
  170SOL     OW  677   1.000   1.475   1.518 -0.1390 -0.5247 -0.3248
  170SOL    HW1  678   0.969   1.560   1.552  1.1648  1.1587 -0.6578
  170SOL    HW2  679   1.045   1.496   1.431 -0.1704 -1.0211  2.2431
  170SOL     MW  680   1.002   1.489   1.511  0.0289 -0.3681 -0.0300
  171SOL     OW  681   0.584   1.427   0.685 -0.4900  0.1911  0.4618
  171SOL    HW1  682   0.544   1.432   0.772  1.3634  1.6045 -2.3075
  171SOL    HW2  683   0.567   1.339   0.651 -1.7941  0.1035 -0.8108
  171SOL     MW  684   0.577   1.416   0.692 -0.4175  0.3661 -0.0715
  172SOL     OW  685   0.846   0.314   1.279 -0.3071  0.6842  0.2215
  172SOL    HW1  686   0.841   0.345   1.190 -0.9022  0.5367 -0.0485
  172SOL    HW2  687   0.750   0.320   1.300  0.8960  1.3341 -0.9718
  172SOL     MW  688   0.833   0.319   1.270 -0.2269  0.7505  0.0284
  173SOL     OW  689   0.442   1.728   0.385 -0.0924  0.0469 -0.2246
  173SOL    HW1  690   0.479   1.644   0.365 -0.6311  2.0211 -0.3458
  173SOL    HW2  691   0.476   1.751   0.474 -0.2826  2.3251 -1.5699
  173SOL     MW  692   0.451   1.720   0.394 -0.1885  0.6080 -0.4181
  174SOL     OW  693   1.852   1.000   1.544  0.2038  0.2392  0.5923
  174SOL    HW1  694   1.849   0.902   1.561  0.3066 -0.0362 -0.8778
  174SOL    HW2  695   1.843   1.005   1.448 -1.4057 -3.3035  3.4113
  174SOL     MW  696   1.850   0.987   1.534  0.0050 -0.2646  0.7703
  175SOL     OW  697   0.481   1.435   0.338  0.5972  0.4680 -0.7886
  175SOL    HW1  698   0.436   1.362   0.284 -0.5542 -1.2875 -3.3708
  175SOL    HW2  699   0.573   1.402   0.345  0.1693  1.6650 -2.6788
  175SOL     MW  700   0.487   1.421   0.332  0.3889  0.3943 -1.3787
  176SOL     OW  701   0.219   1.422   1.225  0.2877  0.8921  0.0194
  176SOL    HW1  702   0.197   1.371   1.145 -2.6682  0.8289 -1.7669
  176SOL    HW2  703   0.179   1.384   1.304 -2.3702  1.4421 -2.9056
  176SOL     MW  704   0.211   1.410   1.225 -0.4530  0.9563 -0.6022
  177SOL     OW  705   0.584   0.420   1.334  0.5827  0.1900 -0.0227
  177SOL    HW1  706   0.605   0.495   1.270 -0.5880  0.0509  2.0761
  177SOL    HW2  707   0.579   0.463   1.420 -0.7290 -0.5497  0.8641
  177SOL     MW  708   0.586   0.436   1.337  0.2552  0.0741  0.3712
  178SOL     OW  709   0.022   0.436   2.956 -0.1918  0.3233  0.0996
  178SOL    HW1  710  -0.056   0.460   3.008 -0.7947  0.4999  0.6131
  178SOL    HW2  711   0.026   0.499   2.881  2.4273 -0.4779 -0.6005
  178SOL     MW  712   0.012   0.447   2.953  0.0742  0.2409  0.0750
  179SOL     OW  713   1.577   1.342   1.410 -0.1406 -0.4338 -0.0794
  179SOL    HW1  714   1.555   1.346   1.506 -2.6930 -0.4897 -0.0871
  179SOL    HW2  715   1.674   1.349   1.402  0.9499 -2.4830  2.1617
  179SOL     MW  716   1.587   1.343   1.422 -0.3335 -0.7116  0.2153
  180SOL     OW  717   3.047   0.193   0.462  0.7075 -0.4773 -0.2111
  180SOL    HW1  718   3.003   0.190   0.379 -1.3945  1.8143 -0.2235
  180SOL    HW2  719   3.096   0.274   0.453 -1.5167 -0.4701 -2.2384
  180SOL     MW  720   3.047   0.203   0.450  0.1367 -0.1740 -0.4802
  181SOL     OW  721   1.128   1.356   3.084 -0.8759 -0.0069 -0.1293
  181SOL    HW1  722   1.207   1.404   3.091  1.7619 -2.9336 -1.4529
  181SOL    HW2  723   1.169   1.270   3.075  0.7934  0.2012  0.6844
  181SOL     MW  724   1.144   1.351   3.084 -0.3076 -0.3656 -0.1966
  182SOL     OW  725   0.493   0.890   1.650 -0.5607 -0.5839 -0.0776
  182SOL    HW1  726   0.411   0.873   1.696 -1.7249  1.7820 -2.2465
  182SOL    HW2  727   0.569   0.853   1.694  0.8069 -2.4320  0.5844
  182SOL     MW  728   0.492   0.883   1.662 -0.5339 -0.5155 -0.2764
  183SOL     OW  729   1.566   1.543   1.212  0.1403 -0.1118 -0.4768
  183SOL    HW1  730   1.490   1.596   1.231  1.8965 -0.1256 -1.2666
  183SOL    HW2  731   1.571   1.476   1.287 -0.4349  0.6214 -1.3928
  183SOL     MW  732   1.557   1.541   1.225  0.2961 -0.0169 -0.7019
  184SOL     OW  733   0.913   0.626   1.973  0.0539  0.4105 -0.4404
  184SOL    HW1  734   0.969   0.614   1.895  0.1109 -1.3440  0.9686
  184SOL    HW2  735   0.898   0.542   2.017  0.5974  2.2767 -0.9407
  184SOL     MW  736   0.919   0.613   1.968  0.1332  0.4252 -0.3205
  185SOL     OW  737   1.257   1.027   1.925  0.1782  0.4024 -0.6999
  185SOL    HW1  738   1.277   0.935   1.962  0.7603 -1.0038 -1.6288
  185SOL    HW2  739   1.253   1.082   1.999  0.2096 -0.2054  1.0945
  185SOL     MW  740   1.259   1.022   1.939  0.2592  0.1367 -0.5857
  186SOL     OW  741   0.369   1.648   1.443 -0.3029  0.2588 -0.1553
  186SOL    HW1  742   0.382   1.578   1.376 -0.5508  0.0263 -2.6568
  186SOL    HW2  743   0.285   1.683   1.417  1.2522  0.7344 -1.2800
  186SOL     MW  744   0.360   1.643   1.431 -0.1304  0.2909 -0.6338
  187SOL     OW  745   1.412   0.719   1.426  0.1633  0.1658 -0.3583
  187SOL    HW1  746   1.413   0.690   1.516 -0.8219  0.1221 -1.1494
  187SOL    HW2  747   1.323   0.707   1.396  2.6741 -2.1022 -0.6802
  187SOL     MW  748   1.401   0.713   1.434  0.3646 -0.1392 -0.5051
  188SOL     OW  749   1.933   1.161   0.820 -0.8477  0.8352  0.2284
  188SOL    HW1  750   1.897   1.158   0.912 -0.8669 -2.6643  1.7434
  188SOL    HW2  751   1.987   1.080   0.825  0.8359  1.2942 -0.2755
  188SOL     MW  752   1.936   1.150   0.833 -0.6281  0.4341  0.3618
  189SOL     OW  753   0.696   0.802   0.858 -0.3056 -0.4628  0.3638
  189SOL    HW1  754   0.614   0.857   0.841  0.7157  2.3120  0.4029
  189SOL    HW2  755   0.762   0.865   0.893 -2.2351  0.0413 -1.9182
  189SOL     MW  756   0.694   0.817   0.860 -0.4254 -0.0302  0.0679
  190SOL     OW  757   1.868   0.283   2.066 -0.6393 -0.0788  0.0959
  190SOL    HW1  758   1.907   0.286   2.154 -2.3211 -1.6239 -0.4076
  190SOL    HW2  759   1.937   0.327   2.012  0.1375 -0.8046  1.3231
  190SOL     MW  760   1.882   0.289   2.070 -0.7587 -0.3784  0.1914
  191SOL     OW  761   1.485   0.929   1.234  0.1564 -0.6503 -0.3203
  191SOL    HW1  762   1.436   1.009   1.259  1.4806 -1.6785  1.8052
  191SOL    HW2  763   1.451   0.861   1.291 -1.3274  0.7104 -0.3600
  191SOL     MW  764   1.474   0.930   1.245  0.1353 -0.6064 -0.0451
  192SOL     OW  765   0.581   2.081   2.789  0.2810 -0.0839 -0.0973
  192SOL    HW1  766   0.533   2.126   2.710 -0.2104  1.2636 -3.1064
  192SOL    HW2  767   0.559   1.989   2.787 -1.7512 -0.7489 -0.1202
  192SOL     MW  768   0.572   2.075   2.778 -0.0519  0.0061 -0.4974
  193SOL     OW  769   1.025   1.561   0.797  0.4185 -0.0230 -0.3579
  193SOL    HW1  770   1.000   1.540   0.893 -1.1758  0.3116  2.1264
  193SOL    HW2  771   0.946   1.528   0.749  0.7367 -0.5056 -1.5652
  193SOL     MW  772   1.011   1.554   0.803  0.2502 -0.0425 -0.1894
  194SOL     OW  773   0.441   1.395   0.953  0.5616  0.0093  0.7538
  194SOL    HW1  774   0.456   1.301   0.976  0.8321 -1.0985  2.2195
  194SOL    HW2  775   0.353   1.400   0.922 -0.4597  0.5471 -1.5650
  194SOL     MW  776   0.431   1.383   0.952  0.4625 -0.0659  0.6413
  195SOL     OW  777   1.266   1.151   3.006 -0.1831  0.1475  0.2995
  195SOL    HW1  778   1.324   1.145   3.083 -3.7022  0.6369 -1.9985
  195SOL    HW2  779   1.198   1.076   3.005  0.4019 -0.0382  0.0388
  195SOL     MW  780   1.265   1.140   3.016 -0.5702  0.1876 -0.0381
  196SOL     OW  781   2.172   1.020   0.585  0.2797 -0.4171 -0.1085
  196SOL    HW1  782   2.131   0.998   0.497 -0.9483  1.6549 -1.8453
  196SOL    HW2  783   2.171   1.116   0.594  1.5337  0.5988 -3.2263
  196SOL     MW  784   2.166   1.030   0.575  0.2831 -0.0097 -0.7490
  197SOL     OW  785   0.703   1.259   2.045  0.3878  0.3544  0.0140
  197SOL    HW1  786   0.671   1.168   2.042 -1.5240 -1.7588  0.9443
  197SOL    HW2  787   0.665   1.297   1.972  0.7826  1.1892 -0.5709
  197SOL     MW  788   0.694   1.252   2.035  0.1877  0.1857  0.0596
  198SOL     OW  789   2.977   1.368   1.085  0.2408 -0.1382  0.1314
  198SOL    HW1  790   2.952   1.463   1.105  1.6897  2.0552  2.5065
  198SOL    HW2  791   2.896   1.321   1.050 -0.3175  0.3154 -0.1057
  198SOL     MW  792   2.963   1.374   1.083  0.3583  0.2111  0.4135
  199SOL     OW  793   0.518   1.358   1.869 -0.1070 -0.0526 -0.0354
  199SOL    HW1  794   0.437   1.307   1.854 -0.1258  0.3010  1.9090
  199SOL    HW2  795   0.531   1.411   1.788 -3.1299  0.6946  1.4906
  199SOL     MW  796   0.509   1.359   1.857 -0.5083  0.0926  0.4225
  200SOL     OW  797   1.851   3.090   1.319 -0.0694 -0.8078 -0.8128
  200SOL    HW1  798   1.828   3.062   1.230  1.8762 -1.4831  0.7379
  200SOL    HW2  799   1.766   3.135   1.348 -1.6515  2.5764  0.0741
  200SOL     MW  800   1.837   3.092   1.311 -0.0214 -0.4504 -0.4912
  201SOL     OW  801   0.966   0.207   0.846  0.5197  0.1565  0.2202
  201SOL    HW1  802   0.945   0.115   0.812  0.6484 -1.1644 -0.2366
  201SOL    HW2  803   1.000   0.245   0.769  0.6268 -2.6451  1.9836
  201SOL     MW  804   0.968   0.200   0.831  0.5508 -0.3874  0.3926
  202SOL     OW  805   1.511   1.571   0.928  0.1769  0.0409 -0.3937
  202SOL    HW1  806   1.544   1.493   0.880 -0.8991 -2.9044 -1.7401
  202SOL    HW2  807   1.548   1.558   1.015  0.8226 -1.8493 -0.9119
  202SOL     MW  808   1.520   1.559   0.933  0.1201 -0.5971 -0.6397
  203SOL     OW  809   3.082   0.488   1.216 -0.5231  0.7480  1.2564
  203SOL    HW1  810   3.175   0.461   1.191  1.4916 -2.1042 -1.2655
  203SOL    HW2  811   3.098   0.551   1.289 -1.2479 -1.8047  1.3920
  203SOL     MW  812   3.097   0.493   1.223 -0.3529  0.0348  0.9416
  204SOL     OW  813   1.063   1.756   0.595  0.1202 -0.5160  0.1260
  204SOL    HW1  814   1.045   1.695   0.668  0.6578  0.9446 -2.0713
  204SOL    HW2  815   0.998   1.764   0.527 -0.8367 -1.2472  0.3847
  204SOL     MW  816   1.052   1.749   0.596  0.0649 -0.4198 -0.1298
  205SOL     OW  817   1.371   0.089   1.370  0.2335  0.3454 -0.3346
  205SOL    HW1  818   1.318   0.067   1.295 -0.1024 -0.0922  0.3932
  205SOL    HW2  819   1.360   0.179   1.380  1.0429  0.7619 -0.0310
  205SOL     MW  820   1.363   0.098   1.361  0.2960  0.3426 -0.1985
  206SOL     OW  821   0.396   3.022   1.433 -0.2510 -0.1439  0.4307
  206SOL    HW1  822   0.333   3.005   1.356 -2.0796 -1.9747 -0.3220
  206SOL    HW2  823   0.474   2.957   1.418 -1.9744 -0.4188  0.6708
  206SOL     MW  824   0.398   3.011   1.421 -0.7197 -0.4217  0.3631
  207SOL     OW  825   0.910   1.477   0.197 -0.1338  0.1148 -0.4164
  207SOL    HW1  826   0.910   1.568   0.165  2.3095  1.7685 -0.1403
  207SOL    HW2  827   1.000   1.466   0.236 -1.1729 -0.7637  0.4678
  207SOL     MW  828   0.922   1.488   0.198  0.0515  0.2171 -0.2633
  208SOL     OW  829   0.697   1.632   1.317 -0.0550  0.0853  0.0614
  208SOL    HW1  830   0.756   1.698   1.359 -2.5857  2.5570  0.5358
  208SOL    HW2  831   0.703   1.559   1.382 -2.0730 -0.5540  2.1566
  208SOL     MW  832   0.706   1.631   1.331 -0.6551  0.3270  0.4004
  209SOL     OW  833   1.578   0.551   2.962  0.2267  0.1134  0.4278
  209SOL    HW1  834   1.638   0.627   2.947  3.5143 -3.6163  1.4999
  209SOL    HW2  835   1.623   0.478   2.927 -1.0547  0.6755  1.6836
  209SOL     MW  836   1.592   0.551   2.955  0.4914 -0.3045  0.7349
  210SOL     OW  837   1.580   1.341   0.798  0.2637 -0.3570 -0.3291
  210SOL    HW1  838   1.678   1.347   0.794  1.6595 -3.2084 -0.4113
  210SOL    HW2  839   1.546   1.362   0.706  0.9766  0.3828  1.0116
  210SOL     MW  840   1.589   1.345   0.785  0.5419 -0.6356 -0.1631
  211SOL     OW  841   1.660   0.370   0.961  0.4647 -0.0479  0.4519
  211SOL    HW1  842   1.627   0.391   0.877  2.2873  0.4631  2.3561
  211SOL    HW2  843   1.757   0.384   0.954 -0.7858 -1.2694 -0.5962
  211SOL     MW  844   1.669   0.375   0.949  0.5402 -0.1416  0.5648
  212SOL     OW  845   0.218   1.073   0.107  0.0855 -0.3775 -0.0318
  212SOL    HW1  846   0.162   1.045   0.176  2.5637 -0.0286  0.9539
  212SOL    HW2  847   0.233   0.999   0.043  1.7709  0.5742  1.1122
  212SOL     MW  848   0.212   1.060   0.108  0.6348 -0.2059  0.2492
  213SOL     OW  849   0.490   1.735   3.032  0.1540  0.6021  0.0244
  213SOL    HW1  850   0.522   1.770   3.115  2.4057  2.6788 -0.9622
  213SOL    HW2  851   0.533   1.789   2.959  1.3011  1.4781  1.1023
  213SOL     MW  852   0.500   1.746   3.034  0.6024  0.9917  0.0364
  214SOL     OW  853   0.554   0.271   2.262  0.0028 -0.2179  0.2608
  214SOL    HW1  854   0.498   0.340   2.221 -2.7874  1.8125 -0.8120
  214SOL    HW2  855   0.633   0.279   2.208 -0.8673 -0.5668  1.1519
  214SOL     MW  856   0.557   0.281   2.250 -0.4802  0.0040  0.2368
  215SOL     OW  857   0.533   0.695   2.664  0.4235 -0.3353  0.0085
  215SOL    HW1  858   0.536   0.641   2.587  0.4431 -0.6405 -0.5697
  215SOL    HW2  859   0.456   0.651   2.707 -0.8261 -0.4200  1.3640
  215SOL     MW  860   0.523   0.682   2.660  0.2612 -0.3868  0.1111
  216SOL     OW  861   2.914   3.069   2.646 -0.0387 -0.1552 -0.3655
  216SOL    HW1  862   2.868   3.034   2.728 -2.1012 -1.7479  1.1806
  216SOL    HW2  863   2.915   3.171   2.645 -1.5904 -0.7697 -0.4436
  216SOL     MW  864   2.908   3.078   2.656 -0.5156 -0.4464 -0.1718
  217SOL     OW  865   0.942   1.160   0.058  0.6172 -0.4948 -0.5200
  217SOL    HW1  866   0.986   1.073   0.048 -0.6669 -3.5469  2.1216
  217SOL    HW2  867   0.995   1.220   0.112 -1.3762 -0.4137  0.1035
  217SOL     MW  868   0.955   1.156   0.063  0.1848 -0.8868 -0.0892
  218SOL     OW  869   0.959   1.354   2.515  0.5781  0.1514 -0.3630
  218SOL    HW1  870   0.975   1.269   2.556 -0.1621  0.7356  1.8390
  218SOL    HW2  871   1.033   1.414   2.532 -1.3036  1.7303  0.3898
  218SOL     MW  872   0.971   1.350   2.523  0.2321  0.4368  0.0268
  219SOL     OW  873   1.102   0.466   2.634  0.3147  0.3059  0.5907
  219SOL    HW1  874   1.170   0.533   2.634  0.0108 -0.0241 -1.0524
  219SOL    HW2  875   1.033   0.518   2.595 -1.6828 -2.5185 -1.6299
  219SOL     MW  876   1.102   0.481   2.629  0.0111 -0.1103  0.0809
  220SOL     OW  877   1.756   0.457   2.237  0.2569  0.2923  0.4947
  220SOL    HW1  878   1.680   0.508   2.209 -0.1063  0.3209 -2.5236
  220SOL    HW2  879   1.779   0.411   2.151  1.6740 -0.4528 -1.8047
  220SOL     MW  880   1.749   0.458   2.222  0.3960  0.1978 -0.2069
  221SOL     OW  881   0.366   1.339   2.934  0.8266 -0.1197  0.5824
  221SOL    HW1  882   0.397   1.252   2.930  1.4925  2.5411  1.9984
  221SOL    HW2  883   0.398   1.393   2.860 -1.0046  2.2208  1.2736
  221SOL     MW  884   0.374   1.335   2.924  0.6728  0.5402  0.8605
  222SOL     OW  885   0.397   0.941   2.684 -0.1610  0.1867 -0.3500
  222SOL    HW1  886   0.347   0.985   2.609  0.8737 -0.2839  0.5422
  222SOL    HW2  887   0.462   0.881   2.649 -1.6146  2.8220  0.4177
  222SOL     MW  888   0.399   0.939   2.669 -0.2163  0.4723 -0.1310
  223SOL     OW  889   0.013   2.060   2.572 -0.1046 -0.6406 -0.0758
  223SOL    HW1  890   0.070   1.995   2.621  0.8759  0.2107 -2.6135
  223SOL    HW2  891   0.077   2.120   2.534  0.7113 -3.4312 -2.2001
  223SOL     MW  892   0.029   2.060   2.573  0.1324 -0.8964 -0.6909
  224SOL     OW  893   1.544   0.814   2.595 -0.0337 -0.4325 -0.0576
  224SOL    HW1  894   1.553   0.858   2.679 -1.7043  0.6944  2.0496
  224SOL    HW2  895   1.527   0.885   2.540 -0.5862 -0.1145  0.1153
  224SOL     MW  896   1.543   0.829   2.599 -0.3271 -0.2419  0.2432
  225SOL     OW  897   2.958   1.487   2.306  0.1702 -0.5052  0.2500
  225SOL    HW1  898   3.022   1.565   2.291  2.0733  0.5469 -1.7771
  225SOL    HW2  899   2.884   1.520   2.358  0.0754 -3.8297  0.5949
  225SOL     MW  900   2.957   1.502   2.311  0.4088 -0.8050  0.0280
  226SOL     OW  901   0.463   1.447   2.693  0.2078  0.3005  0.0872
  226SOL    HW1  902   0.552   1.452   2.644 -0.6104  0.9108 -2.3537
  226SOL    HW2  903   0.424   1.532   2.676  1.4795  0.6466  2.1581
  226SOL     MW  904   0.470   1.459   2.685  0.2677  0.4267  0.0384
  227SOL     OW  905   0.456   1.097   2.895 -0.0350  0.4376  0.2588
  227SOL    HW1  906   0.536   1.110   2.850 -0.1558 -0.5508  0.8493
  227SOL    HW2  907   0.413   1.043   2.831  2.4459 -1.0972 -1.0561
  227SOL     MW  908   0.461   1.091   2.881  0.2764  0.1047  0.1632
  228SOL     OW  909   0.712   0.965   2.063  0.1571 -0.1798 -0.1484
  228SOL    HW1  910   0.795   1.015   2.050 -1.5009 -1.9353  0.4362
  228SOL    HW2  911   0.708   0.910   2.147 -1.1551 -2.1243  0.6393
  228SOL     MW  912   0.722   0.964   2.072 -0.2348 -0.6680  0.0326
  229SOL     OW  913   0.176   0.584   0.020  0.1064 -0.3950 -0.1240
  229SOL    HW1  914   0.102   0.546  -0.033 -1.1639 -2.5297  3.0605
  229SOL    HW2  915   0.194   0.510   0.082 -2.1812 -0.4192  0.3834
  229SOL     MW  916   0.169   0.569   0.021 -0.3630 -0.6798  0.3631
  230SOL     OW  917   1.741   1.363   2.041 -0.4427 -0.4374  0.2701
  230SOL    HW1  918   1.683   1.336   2.114  0.9387  1.4020  1.2248
  230SOL    HW2  919   1.786   1.282   2.012  0.2346 -0.9860  0.0296
  230SOL     MW  920   1.740   1.349   2.047 -0.1710 -0.2671  0.3644
  231SOL     OW  921   2.753   1.322   2.176 -0.1632 -0.2932  0.2139
  231SOL    HW1  922   2.795   1.402   2.197 -0.3395 -2.8488 -1.2014
  231SOL    HW2  923   2.715   1.347   2.087  1.2612 -1.9167 -0.2413
  231SOL     MW  924   2.753   1.336   2.167  0.0015 -0.8446 -0.0329
  232SOL     OW  925   2.253   0.832   2.076  0.3286  0.4783 -1.0474
  232SOL    HW1  926   2.181   0.866   2.017  3.0395  2.0240  0.5660
  232SOL    HW2  927   2.211   0.833   2.165 -0.5698  0.3728 -0.3928
  232SOL     MW  928   2.238   0.837   2.080  0.5677  0.6683 -0.7482
  233SOL     OW  929   2.053   0.445   1.949  0.6796 -0.0001 -0.2566
  233SOL    HW1  930   2.112   0.368   1.939  2.4703 -0.5671 -1.4668
  233SOL    HW2  931   2.078   0.489   2.033 -0.7454  3.6990  0.8150
  233SOL     MW  932   2.064   0.440   1.959  0.7278  0.4131 -0.2749
  234SOL     OW  933   0.285   1.021   2.444  0.1934  0.5604 -0.1918
  234SOL    HW1  934   0.193   1.049   2.422 -1.8499  0.0143  1.0858
  234SOL    HW2  935   0.348   1.097   2.441 -2.6325  1.2896  0.3130
  234SOL     MW  936   0.281   1.035   2.440 -0.4490  0.5846  0.0434
  235SOL     OW  937   1.144   3.019   2.709 -0.1201  0.0598  0.2909
  235SOL    HW1  938   1.159   2.988   2.796  0.2000  1.6471 -1.3241
  235SOL    HW2  939   1.111   3.106   2.732  1.6178  0.0680 -2.4870
  235SOL     MW  940   1.142   3.027   2.724  0.1514  0.2703 -0.2887
  236SOL     OW  941   2.925   0.543   0.006 -0.3114  0.4636  0.0982
  236SOL    HW1  942   2.837   0.547  -0.020  0.1715 -1.4686  1.5615
  236SOL    HW2  943   2.954   0.634   0.013 -0.5213 -0.9771 -0.7027
  236SOL     MW  944   2.917   0.555   0.003 -0.2754  0.0186  0.1856
  237SOL     OW  945   1.982   1.119   2.225  0.7860  0.2167 -0.8454
  237SOL    HW1  946   1.962   1.108   2.127 -0.7892 -4.2797 -3.3737
  237SOL    HW2  947   1.987   1.031   2.263  3.5455  0.0224 -0.4381
  237SOL     MW  948   1.980   1.106   2.217  0.9423 -0.4022 -1.1252
  238SOL     OW  949   1.066   1.797   3.004 -0.3293  0.4076  0.5288
  238SOL    HW1  950   1.038   1.717   2.963  3.2315  0.1788  1.0472
  238SOL    HW2  951   1.155   1.786   3.042 -0.3200  0.5621 -0.4893
  238SOL     MW  952   1.074   1.785   3.003  0.1417  0.3978  0.4629
  239SOL     OW  953   1.246   1.353   2.359 -0.0510  0.0746 -0.3707
  239SOL    HW1  954   1.219   1.427   2.416 -0.9720 -0.0176 -1.0893
  239SOL    HW2  955   1.216   1.270   2.406 -2.2669 -3.1037  2.1183
  239SOL     MW  956   1.238   1.352   2.373 -0.4649 -0.3569 -0.1371
  240SOL     OW  957   0.731   0.814   2.294 -0.3633 -0.6319  0.2379
  240SOL    HW1  958   0.712   0.872   2.369  0.4619 -2.7584 -1.0282
  240SOL    HW2  959   0.817   0.776   2.300 -1.9594  0.5107  0.6890
  240SOL     MW  960   0.740   0.816   2.305 -0.4650 -0.7617  0.1304
  241SOL     OW  961   0.633   0.375   3.097  0.0713 -0.1864 -0.1216
  241SOL    HW1  962   0.671   0.458   3.132  0.2011  0.1352 -1.4990
  241SOL    HW2  963   0.542   0.389   3.075  1.5411 -2.7890 -0.1149
  241SOL     MW  964   0.626   0.388   3.099  0.2824 -0.4873 -0.3024
  242SOL     OW  965   1.495   1.683   2.357 -0.1771 -0.3351 -0.5085
  242SOL    HW1  966   1.455   1.776   2.366 -0.1613  4.6756 -0.9948
  242SOL    HW2  967   1.439   1.640   2.290  1.4796  1.1637 -2.0729
  242SOL     MW  968   1.483   1.689   2.349  0.0435  0.5237 -0.7791
  243SOL     OW  969   1.043   0.249   2.486 -0.0999 -0.1077  0.0909
  243SOL    HW1  970   1.120   0.225   2.428  1.6532 -0.2418  0.2900
  243SOL    HW2  971   1.084   0.311   2.552  0.1934  1.1424  0.5239
  243SOL     MW  972   1.058   0.254   2.487  0.1701  0.0396  0.1743
  244SOL     OW  973   0.249   0.769   2.361  0.1916 -0.0971  0.4152
  244SOL    HW1  974   0.262   0.861   2.386 -1.5757  1.8165  0.9184
  244SOL    HW2  975   0.339   0.739   2.344 -0.3226  1.5683 -0.3289
  244SOL     MW  976   0.262   0.777   2.362 -0.1095  0.3751  0.3834
  245SOL     OW  977   1.266   0.219   2.324 -0.0311 -0.2336  0.0805
  245SOL    HW1  978   1.341   0.163   2.345  0.5746  2.2141 -1.9658
  245SOL    HW2  979   1.276   0.313   2.361  0.6250  1.9485  0.0817
  245SOL     MW  980   1.277   0.224   2.332  0.1354  0.3772 -0.1893
  246SOL     OW  981   1.193   1.187   2.132  0.1292  0.0841 -0.1044
  246SOL    HW1  982   1.144   1.110   2.172  0.9990 -1.5640 -0.0109
  246SOL    HW2  983   1.200   1.245   2.202  2.8029  0.7618  1.9561
  246SOL     MW  984   1.188   1.185   2.147  0.5967 -0.0439  0.1798
  247SOL     OW  985   0.753   0.581   0.152 -0.3099 -0.0739  0.3774
  247SOL    HW1  986   0.708   0.658   0.117  0.6425 -3.8014 -2.8296
  247SOL    HW2  987   0.845   0.598   0.122  1.4193 -1.0703  1.2787
  247SOL     MW  988   0.759   0.593   0.143  0.0439 -0.6972  0.0732
  248SOL     OW  989   0.460   1.247   2.468 -0.4523  0.6951  0.2211
  248SOL    HW1  990   0.490   1.288   2.388  1.8843  1.0470  1.4217
  248SOL    HW2  991   0.450   1.312   2.535 -0.7621  1.5655 -1.7952
  248SOL     MW  992   0.463   1.261   2.466 -0.1849  0.8563  0.1135
  249SOL     OW  993   0.165   1.862   2.710 -0.3041  0.4439 -0.4228
  249SOL    HW1  994   0.129   1.785   2.662 -1.8504  2.3216  0.6835
  249SOL    HW2  995   0.174   1.839   2.809  3.1410 -0.2650  2.7794
  249SOL     MW  996   0.162   1.848   2.717 -0.0536  0.5981  0.1457
  250SOL     OW  997   2.189   0.876   2.345 -0.0325  0.6210 -0.5887
  250SOL    HW1  998   2.250   0.794   2.354 -0.4477 -1.0864 -0.5101
  250SOL    HW2  999   2.252   0.947   2.365  2.8897 -0.8441  1.2986
  250SOL     MW 1000   2.205   0.875   2.349  0.2983  0.2025 -0.3293
  251SOL     OW 1001   0.137   0.881   2.017 -0.0044 -0.9541  0.0243
  251SOL    HW1 1002   0.097   0.803   2.047 -1.5766  0.9649 -3.7251
  251SOL    HW2 1003   0.162   0.850   1.930  3.2758  1.5218 -1.5636
  251SOL     MW 1004   0.135   0.866   2.009  0.2209 -0.3743 -0.6799
  252SOL     OW 1005   1.710   0.982   2.856 -0.1714  0.0162 -0.0814
  252SOL    HW1 1006   1.730   1.030   2.940 -0.3741 -2.1208 -1.6243
  252SOL    HW2 1007   1.780   1.011   2.793  2.4170 -2.8982  0.8827
  252SOL     MW 1008   1.722   0.992   2.859  0.1434 -0.6503 -0.1578
  253SOL     OW 1009   1.236   1.787   2.549 -0.1263  0.1163 -0.1829
  253SOL    HW1 1010   1.213   1.754   2.459  2.9833 -2.1592  0.3643
  253SOL    HW2 1011   1.174   1.850   2.582  2.8695  0.7911 -0.5957
  253SOL     MW 1012   1.225   1.791   2.542  0.6793 -0.0949 -0.1651
  254SOL     OW 1013   1.058   0.989   2.276 -0.0638 -0.0987 -0.0414
  254SOL    HW1 1014   1.032   0.898   2.256 -0.5225 -0.9804  2.8012
  254SOL    HW2 1015   0.980   1.039   2.270  1.6439 -1.7720  0.8404
  254SOL     MW 1016   1.044   0.984   2.272  0.1010 -0.4358  0.4500
  255SOL     OW 1017   0.779   2.586   2.177 -0.6019 -0.3168 -0.5912
  255SOL    HW1 1018   0.712   2.519   2.190 -1.7858 -1.7242 -1.1221
  255SOL    HW2 1019   0.867   2.550   2.202 -0.9017  2.4696 -1.1696
  255SOL     MW 1020   0.782   2.572   2.182 -0.7977 -0.1349 -0.7375
  256SOL     OW 1021   1.265   2.740   2.869  0.5691 -0.4196  0.8386
  256SOL    HW1 1022   1.238   2.647   2.886  0.7999  1.0096 -0.9170
  256SOL    HW2 1023   1.341   2.757   2.817 -1.4811  2.4928 -2.1212
  256SOL     MW 1024   1.272   2.730   2.865  0.3291  0.1532  0.2165
  257SOL     OW 1025   0.097   1.918   0.087  0.6517 -0.1473 -0.3223
  257SOL    HW1 1026   0.140   1.888   0.165 -0.8796  1.3795  0.6057
  257SOL    HW2 1027   0.131   1.866   0.012 -0.0682  1.0503 -1.4457
  257SOL     MW 1028   0.107   1.907   0.088  0.3547  0.2121 -0.3481
  258SOL     OW 1029   0.682   1.019   2.460  0.2817  0.8614  0.4322
  258SOL    HW1 1030   0.725   1.074   2.394  2.1698  2.7072 -2.2474
  258SOL    HW2 1031   0.647   1.071   2.534  0.4848 -2.5599  0.2366
  258SOL     MW 1032   0.683   1.033   2.461  0.5576  0.6535  0.0528
  259SOL     OW 1033   0.764   0.445   2.384  0.4279 -0.2521  0.1250
  259SOL    HW1 1034   0.681   0.401   2.396  0.2941 -2.8278 -0.0621
  259SOL    HW2 1035   0.831   0.392   2.430  1.6354  0.5008 -1.5829
  259SOL     MW 1036   0.762   0.432   2.392  0.5695 -0.4926 -0.1250
  260SOL     OW 1037   0.498   0.147   1.602 -0.6281 -0.1673  0.0457
  260SOL    HW1 1038   0.451   0.072   1.565  0.3498  1.3412 -1.6566
  260SOL    HW2 1039   0.560   0.176   1.537  3.2545  2.3180  0.0466
  260SOL     MW 1040   0.500   0.141   1.589  0.0132  0.3597 -0.1788
  261SOL     OW 1041   1.315   0.778   2.006  0.4371  0.0766  0.0197
  261SOL    HW1 1042   1.303   0.782   2.103  0.0944 -0.6600 -1.4702
  261SOL    HW2 1043   1.287   0.693   1.973 -2.5477 -1.9952  0.3741
  261SOL     MW 1044   1.309   0.767   2.014 -0.0019 -0.2939 -0.1301
  262SOL     OW 1045   1.065   0.324   0.184 -0.8106  0.3362  0.2013
  262SOL    HW1 1046   1.156   0.334   0.149 -1.5752  0.4501  1.3585
  262SOL    HW2 1047   1.015   0.265   0.124 -2.6512  1.3033 -0.8404
  262SOL     MW 1048   1.070   0.317   0.171 -1.1543  0.4788  0.2166
  263SOL     OW 1049   0.432   0.000   2.528 -0.0194  0.3617  0.5719
  263SOL    HW1 1050   0.349   0.044   2.499  0.8799 -0.4183 -3.2787
  263SOL    HW2 1051   0.477  -0.005   2.441 -0.7545  1.7457 -0.2726
  263SOL     MW 1052   0.427   0.005   2.512  0.0023  0.4414 -0.0476
  264SOL     OW 1053   1.508   1.305   1.920 -0.3486  0.5041 -0.4383
  264SOL    HW1 1054   1.468   1.284   2.007  0.0637 -0.8989 -0.2487
  264SOL    HW2 1055   1.593   1.339   1.948 -3.4770  1.7121 -1.3119
  264SOL     MW 1056   1.514   1.307   1.935 -0.7070  0.4784 -0.5286
  265SOL     OW 1057   0.681   2.806   2.290  0.0559  0.2726  0.4714
  265SOL    HW1 1058   0.714   2.728   2.238  1.7007  0.2874 -0.3232
  265SOL    HW2 1059   0.721   2.787   2.377 -1.9798  0.8306 -1.1830
  265SOL     MW 1060   0.691   2.793   2.295  0.0044  0.3482  0.1483
  266SOL     OW 1061   0.992   0.732   2.223 -0.0396 -0.1774 -0.4822
  266SOL    HW1 1062   0.979   0.717   2.130 -0.3863 -1.1837  1.4691
  266SOL    HW2 1063   1.059   0.671   2.253 -4.0266  0.3689  2.8102
  266SOL     MW 1064   1.000   0.722   2.215 -0.6114 -0.2381  0.2096
  267SOL     OW 1065   1.408   1.718   2.787  0.2035  0.5618  0.2408
  267SOL    HW1 1066   1.476   1.685   2.722  0.3547  0.5673 -1.4550
  267SOL    HW2 1067   1.347   1.768   2.736  3.6011  0.7841  0.2126
  267SOL     MW 1068   1.409   1.720   2.772  0.6717  0.5919  0.0133
  268SOL     OW 1069   0.231   0.817   1.703 -1.1690  0.0972 -0.6231
  268SOL    HW1 1070   0.184   0.856   1.633  1.9711 -2.6311 -1.8226
  268SOL    HW2 1071   0.261   0.736   1.657 -0.1789  1.3598  0.8669
  268SOL     MW 1072   0.229   0.811   1.687 -0.6241 -0.0962 -0.5848
  269SOL     OW 1073   1.417   1.949   2.350  0.5106 -0.3344  0.0217
  269SOL    HW1 1074   1.452   2.036   2.332  1.0290  0.9408 -3.7276
  269SOL    HW2 1075   1.343   1.954   2.421 -0.0309  1.0207  1.6229
  269SOL     MW 1076   1.412   1.961   2.357  0.5076  0.0126 -0.2617
  270SOL     OW 1077   1.145   0.374   1.619 -0.6970 -0.5330  0.2320
  270SOL    HW1 1078   1.092   0.300   1.657 -1.6452  1.3821 -1.3722
  270SOL    HW2 1079   1.232   0.343   1.632  0.1059  2.6315  0.8706
  270SOL     MW 1080   1.149   0.360   1.626 -0.7161  0.1372  0.1046
  271SOL     OW 1081   0.891   0.023   2.529  0.0804 -0.2685  0.3915
  271SOL    HW1 1082   0.959  -0.043   2.543 -3.2299 -0.6205 -0.0688
  271SOL    HW2 1083   0.942   0.115   2.521  1.2613 -0.4806 -0.7402
  271SOL     MW 1084   0.907   0.026   2.530 -0.2006 -0.3429  0.1814
  272SOL     OW 1085   1.487   2.898   2.775 -0.3153 -0.2259  0.2372
  272SOL    HW1 1086   1.440   2.965   2.730 -0.4081  0.1169  2.2164
  272SOL    HW2 1087   1.532   2.948   2.848  1.2224  0.2415  1.5244
  272SOL     MW 1088   1.487   2.913   2.778 -0.1246 -0.1190  0.6682
  273SOL     OW 1089   1.444   0.965   2.844 -0.1313  0.2856  0.1747
  273SOL    HW1 1090   1.535   0.991   2.845  0.1609  0.5108  1.1608
  273SOL    HW2 1091   1.398   1.036   2.891  1.0318  0.3430 -0.9747
  273SOL     MW 1092   1.450   0.978   2.850  0.0607  0.3229  0.1531
  274SOL     OW 1093   1.482   0.724   0.150 -0.0921  0.0421 -0.4314
  274SOL    HW1 1094   1.503   0.632   0.156  2.3327  0.1572  1.7604
  274SOL    HW2 1095   1.408   0.731   0.206  1.4132  0.7248 -4.4149
  274SOL     MW 1096   1.475   0.713   0.158  0.4265  0.1473 -0.6678
  275SOL     OW 1097   1.728   0.594   1.811  0.1854 -1.0765 -0.2467
  275SOL    HW1 1098   1.786   0.619   1.886  1.6351 -1.4068  1.0551
  275SOL    HW2 1099   1.743   0.502   1.795 -1.2413 -0.2695 -0.4354
  275SOL     MW 1100   1.738   0.585   1.819  0.1884 -1.0136 -0.0998
  276SOL     OW 1101   0.256   1.197   1.830  0.4522 -0.0664  0.0786
  276SOL    HW1 1102   0.315   1.147   1.884  0.2150 -0.3181 -2.0132
  276SOL    HW2 1103   0.168   1.200   1.879 -1.1062  0.8646 -0.8084
  276SOL     MW 1104   0.252   1.191   1.843  0.2153  0.0232 -0.3144
  277SOL     OW 1105   1.875   1.282   2.436 -0.0511  0.3713  0.2656
  277SOL    HW1 1106   1.949   1.274   2.491 -3.1212  2.8355 -0.1773
  277SOL    HW2 1107   1.895   1.243   2.353  0.1073 -1.4637  1.4270
  277SOL     MW 1108   1.887   1.276   2.432 -0.4353  0.4543  0.3604
  278SOL     OW 1109   1.469   0.611   1.711 -0.1909 -0.0675  0.1666
  278SOL    HW1 1110   1.439   0.555   1.783 -2.2168  0.8315 -0.2745
  278SOL    HW2 1111   1.557   0.633   1.742  2.7558  0.1654  0.1264
  278SOL     MW 1112   1.477   0.607   1.724 -0.0694  0.0818  0.1031
  279SOL     OW 1113   0.545   0.002   2.255  0.7308 -0.6588  0.0407
  279SOL    HW1 1114   0.642  -0.008   2.265  0.7860 -0.9738 -1.1607
  279SOL    HW2 1115   0.539   0.097   2.257  3.8715 -0.4003  0.3203
  279SOL     MW 1116   0.557   0.013   2.257  1.1525 -0.6663 -0.0810
  280SOL     OW 1117   1.469   1.037   2.130 -0.3609  0.0770  0.3509
  280SOL    HW1 1118   1.529   0.976   2.083 -0.5368 -2.5075 -0.0325
  280SOL    HW2 1119   1.449   1.003   2.220  0.5607  0.1619 -1.5980
  280SOL     MW 1120   1.474   1.024   2.136 -0.2625 -0.2528  0.0432
  281SOL     OW 1121   1.288   1.311   2.763  0.1229 -0.1952  0.2691
  281SOL    HW1 1122   1.375   1.329   2.737 -1.5715  3.0997  1.2070
  281SOL    HW2 1123   1.298   1.258   2.840  0.2134  1.2706 -0.5322
  281SOL     MW 1124   1.301   1.307   2.770 -0.0887  0.4329  0.2871
  282SOL     OW 1125   1.150   1.274   1.636 -0.0932 -0.1324 -0.1942
  282SOL    HW1 1126   1.092   1.346   1.593 -1.6283  2.5022 -0.3114
  282SOL    HW2 1127   1.116   1.266   1.725 -1.8801  1.5754  1.4422
  282SOL     MW 1128   1.138   1.283   1.642 -0.5315  0.4405  0.0062
  283SOL     OW 1129   0.740   1.254   2.985  0.7139 -0.7373 -0.2610
  283SOL    HW1 1130   0.810   1.221   3.041  0.6273  0.4632  2.7697
  283SOL    HW2 1131   0.715   1.342   3.029  0.4680  0.1814  0.7791
  283SOL     MW 1132   0.746   1.261   2.998  0.6700 -0.4577  0.2761
  284SOL     OW 1133   0.531   0.633   2.387  0.3481  0.2126 -0.6826
  284SOL    HW1 1134   0.588   0.689   2.334  1.7122 -1.2688 -0.6342
  284SOL    HW2 1135   0.485   0.585   2.320 -0.8350  0.8265  1.5163
  284SOL     MW 1136   0.532   0.634   2.371  0.3720  0.0982 -0.3861
  285SOL     OW 1137   0.859   0.928   2.807  0.3133  0.0130 -0.1685
  285SOL    HW1 1138   0.900   0.965   2.724  2.5493 -0.1223 -1.3861
  285SOL    HW2 1139   0.847   0.835   2.788 -0.6615 -2.3191 -1.5135
  285SOL     MW 1140   0.863   0.920   2.794  0.4797 -0.3126 -0.5066
  286SOL     OW 1141   1.165   1.505   2.586  0.1685  0.1793  0.3917
  286SOL    HW1 1142   1.179   1.454   2.662 -0.0531 -0.4675 -1.3054
  286SOL    HW2 1143   1.186   1.591   2.619 -0.3244  0.7456 -0.2925
  286SOL     MW 1144   1.170   1.509   2.600  0.0742  0.1687  0.0775
  287SOL     OW 1145   1.094   0.977   0.297  0.2248 -0.3104  0.0619
  287SOL    HW1 1146   1.135   1.021   0.368  2.9763 -1.7026 -0.1554
  287SOL    HW2 1147   1.001   0.995   0.301  0.4895 -1.5670 -0.5171
  287SOL     MW 1148   1.087   0.985   0.307  0.6228 -0.6599 -0.0432
  288SOL     OW 1149   1.550   0.601   2.116 -0.5504  0.6128 -0.4598
  288SOL    HW1 1150   1.509   0.608   2.202  0.7567 -1.4037 -0.4221
  288SOL    HW2 1151   1.548   0.693   2.083 -0.0399 -0.3270 -0.2655
  288SOL     MW 1152   1.544   0.614   2.123 -0.3106  0.2228 -0.4292
  289SOL     OW 1153   0.981   1.035   2.570  0.3911  0.0920 -0.0243
  289SOL    HW1 1154   1.003   0.946   2.550  2.1471  1.3351 -0.3092
  289SOL    HW2 1155   0.893   1.046   2.530  1.0499 -2.3862 -4.1514
  289SOL     MW 1156   0.973   1.025   2.562  0.7097 -0.0710 -0.6064
  290SOL     OW 1157   0.873   0.643   1.554 -0.1587  1.0822  0.0251
  290SOL    HW1 1158   0.927   0.605   1.482  1.1420  1.6782 -1.5075
  290SOL    HW2 1159   0.924   0.613   1.632  1.3313  1.2084 -1.4212
  290SOL     MW 1160   0.887   0.634   1.555  0.2095  1.1775 -0.3679
  291SOL     OW 1161   0.195   0.329   0.151  0.1570  0.2726  0.1687
  291SOL    HW1 1162   0.287   0.303   0.150  1.1956  2.1595 -2.0008
  291SOL    HW2 1163   0.145   0.259   0.092  0.7569  0.1650 -2.7860
  291SOL     MW 1164   0.201   0.317   0.143  0.3732  0.5073 -0.5074
  292SOL     OW 1165   1.016   0.585   0.083 -0.4685  0.1638  0.1779
  292SOL    HW1 1166   1.074   0.648   0.135 -0.2224  0.0279  0.0801
  292SOL    HW2 1167   1.014   0.492   0.120  1.9795  1.1618  0.6184
  292SOL     MW 1168   1.024   0.581   0.095 -0.1130  0.2775  0.2231
  293SOL     OW 1169   0.181   0.139   2.468 -0.5749 -0.0925 -0.0843
  293SOL    HW1 1170   0.102   0.121   2.418  0.3387 -2.2426 -1.3131
  293SOL    HW2 1171   0.147   0.198   2.540 -0.7661  2.3267 -2.7347
  293SOL     MW 1172   0.166   0.145   2.471 -0.4796 -0.0570 -0.5961
  294SOL     OW 1173   1.528   0.642   2.387  0.3154 -0.0644  0.5699
  294SOL    HW1 1174   1.540   0.700   2.467  2.0512  0.9727 -1.6966
  294SOL    HW2 1175   1.536   0.557   2.416  1.2765  0.8214 -3.6880
  294SOL     MW 1176   1.531   0.639   2.402  0.6713  0.1893 -0.2909
  295SOL     OW 1177   0.889   0.638   2.527 -0.1351 -0.8067  0.0564
  295SOL    HW1 1178   0.842   0.574   2.468  1.0070  1.0385  3.4090
  295SOL    HW2 1179   0.831   0.660   2.611 -1.9419 -0.2704 -1.1959
  295SOL     MW 1180   0.875   0.633   2.531 -0.2228 -0.4925  0.3335
  296SOL     OW 1181   1.293   0.231   2.034 -0.0129 -0.4581 -0.0760
  296SOL    HW1 1182   1.360   0.166   2.032  2.6211  3.1784  2.2321
  296SOL    HW2 1183   1.285   0.229   2.128  0.3793 -1.1668 -0.6566
  296SOL     MW 1184   1.301   0.222   2.047  0.3864 -0.0718  0.1520
  297SOL     OW 1185   1.415   0.356   1.589  0.1810  0.7777  0.3259
  297SOL    HW1 1186   1.444   0.438   1.623  2.0044 -1.5029 -0.7669
  297SOL    HW2 1187   1.475   0.286   1.622 -3.0208 -2.1297 -0.4020
  297SOL     MW 1188   1.426   0.358   1.598 -0.0009  0.0932  0.0857
  298SOL     OW 1189   1.621   0.857   1.996 -0.1857 -0.7270 -0.0555
  298SOL    HW1 1190   1.575   0.891   1.913  0.4914  0.2903 -0.6791
  298SOL    HW2 1191   1.704   0.904   1.995 -1.2863  1.7399  0.6985
  298SOL     MW 1192   1.626   0.868   1.985 -0.2416 -0.2673 -0.0383
  299SOL     OW 1193   0.537   1.044   0.035  0.2678 -0.1176  0.1231
  299SOL    HW1 1194   0.594   1.125   0.038  0.0387  3.0460 -1.6210
  299SOL    HW2 1195   0.498   1.066  -0.053  0.9560 -0.1845  0.3185
  299SOL     MW 1196   0.539   1.058   0.024  0.3283  0.2909 -0.0813
  300SOL     OW 1197   1.236   1.134   2.519 -0.2263  0.0907  1.2742
  300SOL    HW1 1198   1.161   1.071   2.523 -2.2627 -2.1521 -2.3085
  300SOL    HW2 1199   1.252   1.172   2.605  1.2423  0.2568 -1.3734
  300SOL     MW 1200   1.228   1.130   2.531 -0.3012 -0.1833  0.4522
  301SOL     OW 1201   1.426   0.961   0.662  0.8048 -0.0521  0.0136
  301SOL    HW1 1202   1.461   0.980   0.745 -0.5314 -0.9012 -1.2242
  301SOL    HW2 1203   1.362   0.892   0.691  0.7142  0.3570 -1.8447
  301SOL     MW 1204   1.422   0.955   0.677  0.6165 -0.1101 -0.3949
  302SOL     OW 1205   0.136   1.486   2.006  0.2674  0.2143 -0.0823
  302SOL    HW1 1206   0.116   1.405   2.060  1.2318  0.0960 -1.3634
  302SOL    HW2 1207   0.078   1.557   2.051 -0.1240  3.0468  0.5468
  302SOL     MW 1208   0.126   1.485   2.019  0.3430  0.5724 -0.1683
  303SOL     OW 1209   0.368   1.694   2.630 -0.4338 -0.1230 -0.5968
  303SOL    HW1 1210   0.323   1.657   2.554  0.7512 -0.9222  0.9766
  303SOL    HW2 1211   0.330   1.775   2.660 -0.8296 -4.9015  1.9203
  303SOL     MW 1212   0.357   1.700   2.624 -0.3297 -0.8590 -0.0571
  304SOL     OW 1213   0.590   2.065   2.355 -0.4444  0.6321  0.3874
  304SOL    HW1 1214   0.620   2.152   2.320  0.8065  1.1285 -1.2753
  304SOL    HW2 1215   0.672   2.020   2.379  0.5077  0.5999  0.0449
  304SOL     MW 1216   0.605   2.070   2.354 -0.1537  0.6934  0.1228
  305SOL     OW 1217   1.095   0.584   0.508 -0.3610  0.3715  0.1252
  305SOL    HW1 1218   1.001   0.600   0.489 -1.1001 -1.9171 -0.9954
  305SOL    HW2 1219   1.097   0.494   0.531  1.3219 -1.3159 -4.3243
  305SOL     MW 1220   1.083   0.574   0.508 -0.2365 -0.1531 -0.6097
  306SOL     OW 1221   1.216   1.475   0.260 -0.5964 -0.0435 -0.3296
  306SOL    HW1 1222   1.261   1.394   0.287  0.4993 -1.0619  1.6015
  306SOL    HW2 1223   1.273   1.505   0.193 -3.1230 -2.1197  3.2446
  306SOL     MW 1224   1.230   1.468   0.255 -0.7852 -0.4518  0.3968
  307SOL     OW 1225   1.365   0.489   1.932 -0.7815 -0.4253 -0.1818
  307SOL    HW1 1226   1.317   0.409   1.954  0.8072  0.7349  0.7882
  307SOL    HW2 1227   1.442   0.514   1.982 -1.1052  2.6631 -1.4087
  307SOL     MW 1228   1.369   0.482   1.942 -0.6146  0.1352 -0.2157
  308SOL     OW 1229   2.140   0.583   2.694  0.1896 -0.1491 -0.1279
  308SOL    HW1 1230   2.222   0.562   2.746 -1.4346 -1.5607  0.3304
  308SOL    HW2 1231   2.138   0.673   2.675 -1.2256  0.0823  2.1781
  308SOL     MW 1232   2.150   0.592   2.698 -0.2114 -0.3048  0.2368
  309SOL     OW 1233   0.415   0.375   0.393  0.6999 -0.1487 -0.6067
  309SOL    HW1 1234   0.497   0.359   0.441  0.2072  0.4686  0.6727
  309SOL    HW2 1235   0.400   0.285   0.365  0.6024 -0.7687  2.4190
  309SOL     MW 1236   0.424   0.361   0.396  0.6220 -0.1490 -0.0387
  310SOL     OW 1237   0.513   0.614   1.941 -0.0697 -0.0133  0.0859
  310SOL    HW1 1238   0.541   0.520   1.923 -1.0761 -0.1746  0.5113
  310SOL    HW2 1239   0.593   0.665   1.910 -1.5290 -2.4069 -0.2483
  310SOL     MW 1240   0.527   0.608   1.934 -0.3951 -0.3504  0.0980
  311SOL     OW 1241   1.943   0.707   1.924 -0.3148 -0.2706 -0.5289
  311SOL    HW1 1242   1.928   0.710   2.018  1.2857 -0.3720 -1.5161
  311SOL    HW2 1243   1.999   0.624   1.908  2.8067 -0.8070 -2.9825
  311SOL     MW 1244   1.948   0.696   1.934  0.3082 -0.3547 -0.9829
  312SOL     OW 1245   1.679   2.506   0.103  0.0789  0.4377  0.3788
  312SOL    HW1 1246   1.740   2.526   0.168 -0.8200  2.3382  0.7144
  312SOL    HW2 1247   1.606   2.562   0.128  0.0226  3.5758  0.2107
  312SOL     MW 1248   1.677   2.516   0.115 -0.0471  1.1025  0.4009
  313SOL     OW 1249   0.096   1.215   2.952 -0.4233 -0.6227  0.4895
  313SOL    HW1 1250   0.108   1.207   3.046 -1.3899  1.4957  0.6694
  313SOL    HW2 1251   0.176   1.265   2.934  0.8580  0.7993  0.5585
  313SOL     MW 1252   0.108   1.221   2.962 -0.3818 -0.1556  0.5223
  314SOL     OW 1253   2.115   2.970   3.017 -0.4030 -0.8422  0.3100
  314SOL    HW1 1254   2.052   3.016   2.960 -0.2039  0.1768 -1.5164
  314SOL    HW2 1255   2.194   3.028   3.038  3.5073 -1.9136 -0.5425
  314SOL     MW 1256   2.117   2.984   3.012  0.1392 -0.8491 -0.0435
  315SOL     OW 1257   1.527   1.944   0.005 -0.0500  0.9938 -0.2847
  315SOL    HW1 1258   1.447   1.990   0.034 -0.8500 -0.6993  0.9653
  315SOL    HW2 1259   1.565   1.992  -0.068 -3.2102  0.5632  0.1436
  315SOL     MW 1260   1.522   1.957  -0.001 -0.5725  0.7136 -0.0632
  316SOL     OW 1261   1.273   0.673   2.724 -0.2257  0.0886  0.1366
  316SOL    HW1 1262   1.342   0.739   2.707 -0.2123 -0.3695 -2.6368
  316SOL    HW2 1263   1.259   0.691   2.819 -0.9939 -1.8018 -0.4584
  316SOL     MW 1264   1.280   0.684   2.734 -0.3253 -0.2212 -0.3078
  317SOL     OW 1265   0.722   1.504   2.576 -0.0488 -0.5001  0.6843
  317SOL    HW1 1266   0.792   1.440   2.566  1.6908  1.8294  0.6405
  317SOL    HW2 1267   0.730   1.543   2.490  1.3175  0.4727  1.5360
  317SOL     MW 1268   0.733   1.501   2.564  0.3610 -0.0644  0.7909
  318SOL     OW 1269   1.355   0.379   2.914  0.4862 -0.4349 -0.2929
  318SOL    HW1 1270   1.269   0.424   2.909 -2.1648  1.8744 -1.7502
  318SOL    HW2 1271   1.411   0.455   2.924 -1.4297 -0.1479 -0.4746
  318SOL     MW 1272   1.351   0.395   2.915 -0.1163 -0.0924 -0.5092
  319SOL     OW 1273   0.785   0.410   2.843  0.3423  0.0938  0.1832
  319SOL    HW1 1274   0.722   0.363   2.782 -0.6450  1.3647  1.3533
  319SOL    HW2 1275   0.734   0.401   2.928 -0.1226  1.6366 -0.3811
  319SOL     MW 1276   0.770   0.403   2.847  0.1507  0.4651  0.2631
  320SOL     OW 1277   1.065   1.321   1.943  0.2962  0.1721  0.1497
  320SOL    HW1 1278   1.120   1.277   2.009  1.0640  1.0100  1.9312
  320SOL    HW2 1279   1.111   1.402   1.917  0.2180 -0.0815  1.9501
  320SOL     MW 1280   1.078   1.326   1.948  0.3872  0.2492  0.6223
  321SOL     OW 1281   1.044   0.931   3.008  0.7271 -0.0847 -0.0165
  321SOL    HW1 1282   0.960   0.926   2.958 -0.1720 -1.9935  3.0822
  321SOL    HW2 1283   1.106   0.864   2.981  0.6083  0.1616  0.1487
  321SOL     MW 1284   1.041   0.922   2.998  0.5928 -0.3040  0.4142
  322SOL     OW 1285   1.271   0.824   1.714  0.2396  0.0294  0.0624
  322SOL    HW1 1286   1.350   0.767   1.718  0.1455 -0.0278  1.9375
  322SOL    HW2 1287   1.280   0.905   1.768 -2.1428 -0.5293  2.0955
  322SOL     MW 1288   1.282   0.828   1.722 -0.0872 -0.0519  0.5781
  323SOL     OW 1289   1.237   1.590   1.864  0.3550  0.6020  0.0334
  323SOL    HW1 1290   1.238   1.579   1.767 -3.8421 -0.9125 -2.5303
  323SOL    HW2 1291   1.172   1.663   1.868 -0.0962  0.5923  1.7411
  323SOL     MW 1292   1.228   1.598   1.852 -0.2583  0.4009 -0.0795
  324SOL     OW 1293   1.474   1.000   2.413  1.1086 -0.4086 -0.8501
  324SOL    HW1 1294   1.389   1.043   2.459 -0.9615  1.5015 -0.9578
  324SOL    HW2 1295   1.553   1.047   2.435 -0.1056  0.0876  1.1122
  324SOL     MW 1296   1.473   1.012   2.422  0.6753 -0.0911 -0.6054
  325SOL     OW 1297   1.061   0.467   2.942 -0.4362 -0.5443 -0.2145
  325SOL    HW1 1298   1.054   0.522   3.021 -3.0771 -0.8371  1.7665
  325SOL    HW2 1299   0.979   0.432   2.917  2.5391  2.2925 -1.3883
  325SOL     MW 1300   1.050   0.470   2.949 -0.3921 -0.2087 -0.1080
  326SOL     OW 1301   0.446   1.362   2.176 -0.3511  0.1070  0.3019
  326SOL    HW1 1302   0.507   1.335   2.106  0.4668 -1.9326  1.4613
  326SOL    HW2 1303   0.439   1.454   2.167  2.2083 -1.2443  1.1251
  326SOL     MW 1304   0.453   1.370   2.166  0.0945 -0.3404  0.5635
  327SOL     OW 1305   1.927   0.817   2.442  0.1477 -0.3496 -0.4311
  327SOL    HW1 1306   1.880   0.768   2.511 -0.6357 -2.3792  1.1762
  327SOL    HW2 1307   2.021   0.809   2.458 -0.8883  1.1645 -0.5817
  327SOL     MW 1308   1.933   0.809   2.453 -0.0923 -0.4176 -0.2389
  328SOL     OW 1309   0.183   1.263   2.209 -0.6513 -0.3544  0.4941
  328SOL    HW1 1310   0.163   1.203   2.134  0.5704 -0.9049 -1.7284
  328SOL    HW2 1311   0.276   1.287   2.198  1.6423 -0.1950  0.5876
  328SOL     MW 1312   0.193   1.258   2.198 -0.1875 -0.4060  0.2132
  329SOL     OW 1313   0.110   0.093   1.353  0.1366  0.6707  0.1057
  329SOL    HW1 1314   0.068   0.143   1.421 -1.0795  3.6592  0.7704
  329SOL    HW2 1315   0.196   0.147   1.352  0.3799  0.1560  0.6596
  329SOL     MW 1316   0.116   0.107   1.362  0.0083  0.9971  0.2665
  330SOL     OW 1317   0.332   0.010   2.072  0.3003 -0.3751 -0.6388
  330SOL    HW1 1318   0.416   0.014   2.116 -0.8926  5.5364 -2.0677
  330SOL    HW2 1319   0.281  -0.042   2.131 -0.9783 -2.0476  3.5260
  330SOL     MW 1320   0.336   0.003   2.085 -0.0258  0.1842 -0.2778
  331SOL     OW 1321   0.844   1.194   2.294  0.2650 -0.6493  0.1775
  331SOL    HW1 1322   0.793   1.230   2.225  0.7764  0.8841  0.8219
  331SOL    HW2 1323   0.890   1.265   2.330 -2.5265 -1.0967  1.6521
  331SOL     MW 1324   0.844   1.208   2.290 -0.0358 -0.5060  0.4571
  332SOL     OW 1325   1.348   1.724   3.050 -0.6251  0.6881  0.2510
  332SOL    HW1 1326   1.360   1.709   2.955  1.8441  0.6986 -1.8091
  332SOL    HW2 1327   1.404   1.792   3.071 -1.0616 -0.9019  1.3365
  332SOL     MW 1328   1.357   1.731   3.040 -0.3569  0.4797  0.1224
  333SOL     OW 1329   1.752   1.420   2.926 -0.1939 -0.5182 -0.5212
  333SOL    HW1 1330   1.835   1.387   2.898 -4.4091  0.2795 -2.4145
  333SOL    HW2 1331   1.757   1.419   3.024 -0.2163  1.0857  2.3115
  333SOL     MW 1332   1.764   1.415   2.935 -0.7530 -0.2014 -0.3973
  334SOL     OW 1333   1.395  -0.004   2.617 -0.5114 -0.0957  0.5886
  334SOL    HW1 1334   1.304  -0.005   2.651  0.9342  0.2363  1.0669
  334SOL    HW2 1335   1.434   0.079   2.649  1.1064 -0.3764  1.2730
  334SOL     MW 1336   1.388   0.007   2.626 -0.1072 -0.0889  0.7420
  335SOL     OW 1337   1.293   0.772   2.970  0.7367  0.6113 -0.1133
  335SOL    HW1 1338   1.340   0.726   3.040 -1.1441 -1.9006 -0.5294
  335SOL    HW2 1339   1.359   0.830   2.934  2.5675  0.9572 -1.9791
  335SOL     MW 1340   1.308   0.773   2.975  0.7301  0.3256 -0.4144
  336SOL     OW 1341   0.948   1.059   1.944 -0.1704 -0.3531  0.5226
  336SOL    HW1 1342   0.973   1.154   1.951 -0.4584  1.3932  1.0029
  336SOL    HW2 1343   1.028   1.003   1.949 -0.2591 -1.6493 -1.9274
  336SOL     MW 1344   0.962   1.064   1.945 -0.2201 -0.2937  0.2627
  337SOL     OW 1345   0.582   1.799   2.787  0.2738  0.5163  0.0046
  337SOL    HW1 1346   0.527   1.740   2.733 -3.2846 -0.1308  0.2726
  337SOL    HW2 1347   0.672   1.769   2.781 -1.5308  3.0011  0.1055
  337SOL     MW 1348   0.587   1.787   2.779 -0.4338  0.7588  0.0533
  338SOL     OW 1349   1.130   0.798   2.527 -0.0714  0.3918 -0.0406
  338SOL    HW1 1350   1.065   0.726   2.507 -0.4323 -0.2359  0.2429
  338SOL    HW2 1351   1.183   0.764   2.606  1.8479  0.3874  0.3137
  338SOL     MW 1352   1.129   0.784   2.535  0.1342  0.3084  0.0436
  339SOL     OW 1353   1.529   1.028   1.779  0.3158 -0.3385  0.2629
  339SOL    HW1 1354   1.462   1.048   1.704 -1.1776 -1.7717 -0.7796
  339SOL    HW2 1355   1.499   1.089   1.846 -2.8927 -0.2050 -1.1761
  339SOL     MW 1356   1.516   1.039   1.778 -0.3046 -0.5099 -0.0645
  340SOL     OW 1357   1.377   1.471   0.033  0.1567  0.2948  0.2664
  340SOL    HW1 1358   1.401   1.550  -0.017  0.3569 -1.6975 -0.6796
  340SOL    HW2 1359   1.463   1.441   0.064 -0.8269 -0.4003 -2.1688
  340SOL     MW 1360   1.392   1.477   0.031  0.0533 -0.0598 -0.1797
  341SOL     OW 1361   0.159   1.435   2.693  0.0572  0.7799 -0.0523
  341SOL    HW1 1362   0.248   1.401   2.685 -1.8523  1.1040 -2.4801
  341SOL    HW2 1363   0.108   1.380   2.637  0.6691  0.8479  1.9906
  341SOL     MW 1364   0.164   1.423   2.685 -0.1140  0.8316 -0.1031
  342SOL     OW 1365   1.329   0.300   0.085 -0.5622  0.4274 -0.3002
  342SOL    HW1 1366   1.406   0.348   0.121 -2.8058  0.3002  0.9029
  342SOL    HW2 1367   1.340   0.317  -0.009 -0.5279 -0.5886 -0.2841
  342SOL     MW 1368   1.341   0.309   0.077 -0.8537  0.2766 -0.1393
  343SOL     OW 1369   0.222   0.324   2.161 -0.3242  0.1497 -0.6920
  343SOL    HW1 1370   0.201   0.275   2.238  1.0557 -1.1815  1.1658
  343SOL    HW2 1371   0.196   0.273   2.084 -0.9542 -0.5428 -0.8656
  343SOL     MW 1372   0.216   0.311   2.161 -0.2253 -0.1173 -0.4698
  344SOL     OW 1373   1.692   2.071   0.174  0.2684 -0.1700  0.0863
  344SOL    HW1 1374   1.706   2.152   0.126 -0.2744  0.6116  2.9174
  344SOL    HW2 1375   1.625   2.019   0.123 -2.6960 -1.2172 -0.1688
  344SOL     MW 1376   1.685   2.075   0.161 -0.1944 -0.2050  0.4262
  345SOL     OW 1377   0.755   1.607   2.324  0.4344 -0.6192  0.0184
  345SOL    HW1 1378   0.680   1.616   2.267 -2.0176 -0.8018 -0.3806
  345SOL    HW2 1379   0.797   1.536   2.270  1.4048 -1.4321 -1.4889
  345SOL     MW 1380   0.751   1.599   2.309  0.2389 -0.7505 -0.2331
  346SOL     OW 1381   1.756   1.111   3.092  0.5657 -0.5535 -0.3050
  346SOL    HW1 1382   1.842   1.153   3.094  0.2739 -1.4694 -0.7656
  346SOL    HW2 1383   1.746   1.062   3.176  2.2821  2.3106  1.7620
  346SOL     MW 1384   1.766   1.110   3.103  0.7537 -0.2964 -0.0931
  347SOL     OW 1385   1.280   0.772   2.283 -0.2324 -0.0819 -0.0382
  347SOL    HW1 1386   1.354   0.731   2.325 -2.7403 -0.2756 -1.3523
  347SOL    HW2 1387   1.242   0.817   2.358 -1.8435  0.0075  2.0199
  347SOL     MW 1388   1.285   0.773   2.298 -0.7758 -0.0956  0.0599
  348SOL     OW 1389   1.419   2.632   1.861  0.2500  0.9218 -0.0571
  348SOL    HW1 1390   1.443   2.544   1.899  2.4348 -0.8901  1.3856
  348SOL    HW2 1391   1.465   2.699   1.914 -1.3425 -1.1628  1.2452
  348SOL     MW 1392   1.428   2.629   1.873  0.3281  0.4077  0.3051
  349SOL     OW 1393   1.503   0.253   2.695  0.8525  0.4538  0.0762
  349SOL    HW1 1394   1.448   0.287   2.761  3.3371 -0.2191 -0.2892
  349SOL    HW2 1395   1.589   0.274   2.734 -1.4285 -2.1416  0.7302
  349SOL     MW 1396   1.507   0.260   2.709  0.8794  0.0226  0.1143
  350SOL     OW 1397   1.860   0.628   2.663  0.0512 -0.3438  0.1854
  350SOL    HW1 1398   1.819   0.555   2.619  2.3156  0.3323 -2.8044
  350SOL    HW2 1399   1.939   0.595   2.710  1.5362 -2.6136 -0.2472
  350SOL     MW 1400   1.865   0.614   2.663  0.5459 -0.5541 -0.2661
  351SOL     OW 1401   0.074   0.965   1.519  0.3039 -0.2743 -0.1722
  351SOL    HW1 1402   0.006   0.970   1.588 -0.8028 -0.2128 -0.7692
  351SOL    HW2 1403   0.139   1.029   1.541 -2.2486 -1.0046  0.7093
  351SOL     MW 1404   0.073   0.974   1.531 -0.1789 -0.3626 -0.1347
  352SOL     OW 1405   0.877   1.691   2.732 -0.3761  0.3203 -0.4219
  352SOL    HW1 1406   0.925   1.638   2.792  0.0256 -0.2187  0.8470
  352SOL    HW2 1407   0.843   1.617   2.683 -0.3057 -0.4019  2.0425
  352SOL     MW 1408   0.879   1.674   2.734 -0.3138  0.1539  0.0707
  353SOL     OW 1409   3.088   2.459   2.703 -0.2931  0.8446 -0.5867
  353SOL    HW1 1410   3.179   2.464   2.675  0.1287 -1.7008 -0.7758
  353SOL    HW2 1411   3.036   2.522   2.662 -0.1582 -2.9524 -1.6354
  353SOL     MW 1412   3.093   2.468   2.693 -0.2197  0.0078 -0.7500
  354SOL     OW 1413   0.340   2.511   0.843  0.1268  0.0152  0.5932
  354SOL    HW1 1414   0.373   2.494   0.931  0.6683 -0.0515 -1.3507
  354SOL    HW2 1415   0.296   2.429   0.817 -0.2062  1.4529 -1.3808
  354SOL     MW 1416   0.338   2.498   0.852  0.1543  0.1961  0.0763
  355SOL     OW 1417   0.020   2.261   0.371  0.0238  0.2477 -0.8619
  355SOL    HW1 1418  -0.034   2.179   0.382 -0.2476  1.9735 -0.3517
  355SOL    HW2 1419   0.015   2.302   0.456  1.3077 -0.3972 -1.6872
  355SOL     MW 1420   0.012   2.255   0.384  0.1574  0.3904 -0.9034
  356SOL     OW 1421   0.799   2.868   1.013 -0.6560  0.1507 -0.7766
  356SOL    HW1 1422   0.813   2.890   0.920  0.0283  0.2224 -0.8876
  356SOL    HW2 1423   0.705   2.840   1.020  1.7402  3.2022 -0.3678
  356SOL     MW 1424   0.788   2.867   1.002 -0.2496  0.5628 -0.7373
  357SOL     OW 1425   1.803   2.944   0.422  0.0021 -0.2748  0.0104
  357SOL    HW1 1426   1.747   2.869   0.454  0.2805  2.4963  1.7743
  357SOL    HW2 1427   1.880   2.909   0.383 -2.4159  3.8309  0.0718
  357SOL     MW 1428   1.806   2.929   0.421 -0.2802  0.6326  0.2513
  358SOL     OW 1429   0.513   0.078   1.081  0.6661  0.4251  0.0402
  358SOL    HW1 1430   0.596   0.063   1.033  0.2798  0.4565  0.5396
  358SOL    HW2 1431   0.466   0.123   1.009  1.3901  1.0392  0.9975
  358SOL     MW 1432   0.518   0.082   1.065  0.7106  0.5102  0.2324
  359SOL     OW 1433   0.885   2.891   1.844  0.2938  0.3109  0.4583
  359SOL    HW1 1434   0.862   2.802   1.882 -0.7968  0.7157 -0.4395
  359SOL    HW2 1435   0.930   2.886   1.753  0.6615  0.2258  0.0739
  359SOL     MW 1436   0.888   2.878   1.837  0.1984  0.3531  0.2891
  360SOL     OW 1437   0.562   2.772   1.005  0.2687 -0.8900  0.5248
  360SOL    HW1 1438   0.572   2.727   0.917 -0.3850  1.0755 -2.0982
  360SOL    HW2 1439   0.574   2.705   1.073  1.5566 -0.0319  0.4983
  360SOL     MW 1440   0.565   2.757   1.002  0.3524 -0.5175  0.1752
  361SOL     OW 1441   0.198   2.691   1.327 -0.1622 -0.3682 -0.0158
  361SOL    HW1 1442   0.149   2.758   1.380  2.2142  0.6795 -0.9188
  361SOL    HW2 1443   0.292   2.702   1.353  0.7781 -1.5278 -0.2308
  361SOL     MW 1444   0.204   2.701   1.337  0.2754 -0.3829 -0.1633
  362SOL     OW 1445   1.474   2.413   0.650 -0.0433  0.2833 -0.4226
  362SOL    HW1 1446   1.500   2.324   0.687 -1.0578 -2.8433  0.0187
  362SOL    HW2 1447   1.490   2.485   0.710  0.4478  0.6542 -3.2489
  362SOL     MW 1448   1.479   2.411   0.663 -0.1123 -0.0803 -0.7373
  363SOL     OW 1449   0.292   3.090   0.727  0.1199 -0.0965 -0.1135
  363SOL    HW1 1450   0.280   3.019   0.794  1.5690 -0.7421 -0.2535
  363SOL    HW2 1451   0.205   3.106   0.694  1.2622  0.1834 -2.6399
  363SOL     MW 1452   0.279   3.083   0.731  0.4618 -0.1448 -0.4653
  364SOL     OW 1453   0.725   0.181   0.234  0.3126 -0.0386 -0.0888
  364SOL    HW1 1454   0.671   0.107   0.262 -2.1461 -2.2578 -0.4712
  364SOL    HW2 1455   0.662   0.236   0.190  0.1177  2.3061 -0.9140
  364SOL     MW 1456   0.709   0.179   0.232 -0.0375 -0.0220 -0.2481
  365SOL     OW 1457   0.970   1.946   1.080  0.5445  0.6945 -0.6562
  365SOL    HW1 1458   0.970   2.035   1.042 -0.6820 -1.4540  1.0578
  365SOL    HW2 1459   0.903   1.909   1.026 -1.3445 -0.5180  0.3863
  365SOL     MW 1460   0.961   1.953   1.068  0.1334  0.2511 -0.2925
  366SOL     OW 1461   2.832   2.630   1.010 -0.7740 -0.0326 -0.0671
  366SOL    HW1 1462   2.907   2.650   1.065  2.4592  2.2327  0.3006
  366SOL    HW2 1463   2.852   2.647   0.916 -0.8973 -0.2441 -0.1003
  366SOL     MW 1464   2.844   2.635   1.005 -0.3636  0.2384 -0.0230
  367SOL     OW 1465   1.256   2.901   0.926 -0.1648  0.7233  0.5193
  367SOL    HW1 1466   1.180   2.950   0.960  0.8877  1.4849 -3.7967
  367SOL    HW2 1467   1.224   2.864   0.842  1.5020  2.2003 -2.7360
  367SOL     MW 1468   1.242   2.903   0.920  0.1940  1.0186 -0.4797
  368SOL     OW 1469   1.648   0.400   0.699 -0.6173  0.0969 -0.1046
  368SOL    HW1 1470   1.722   0.343   0.676 -1.3801 -0.1069 -1.0127
  368SOL    HW2 1471   1.684   0.493   0.713 -1.4455 -1.3674 -0.3264
  368SOL     MW 1472   1.663   0.405   0.698 -0.8272 -0.1232 -0.2537
  369SOL     OW 1473   0.164   2.492   1.649 -0.7535  0.4465  0.2776
  369SOL    HW1 1474   0.246   2.472   1.694  0.8194 -2.1727  0.9796
  369SOL    HW2 1475   0.132   2.569   1.689  0.7579  0.6507 -3.0550
  369SOL     MW 1476   0.171   2.500   1.660 -0.3466  0.1279 -0.0695
  370SOL     OW 1477   0.731   0.023   0.947  0.4567 -0.5508 -0.9643
  370SOL    HW1 1478   0.800   0.083   0.966  0.0737  1.4513 -1.3655
  370SOL    HW2 1479   0.761  -0.054   0.998  2.7399 -2.6939 -2.4729
  370SOL     MW 1480   0.744   0.021   0.956  0.7074 -0.5694 -1.2163
  371SOL     OW 1481   1.356   2.962   1.533  0.3862 -0.6139  0.1948
  371SOL    HW1 1482   1.289   2.903   1.492  1.4665 -1.7724  0.1436
  371SOL    HW2 1483   1.350   3.043   1.481 -0.1806 -0.0715 -3.2806
  371SOL     MW 1484   1.346   2.965   1.521  0.4539 -0.6952 -0.2705
  372SOL     OW 1485   0.747   2.337   0.478  0.3178 -0.1222  0.1852
  372SOL    HW1 1486   0.708   2.248   0.495  5.4669 -1.0873  1.6393
  372SOL    HW2 1487   0.771   2.317   0.384 -0.0896  1.3422 -1.6595
  372SOL     MW 1488   0.745   2.322   0.468  0.9435 -0.0563  0.1336
  373SOL     OW 1489   2.773   3.048   1.421 -0.2537  0.2941 -0.2513
  373SOL    HW1 1490   2.835   3.016   1.358 -1.1807  0.7638 -0.6424
  373SOL    HW2 1491   2.750   3.132   1.380  0.2395  1.9715  1.5018
  373SOL     MW 1492   2.778   3.055   1.407 -0.3109  0.5774 -0.0716
  374SOL     OW 1493   1.547   0.444   0.194  0.1468 -0.3305  0.5314
  374SOL    HW1 1494   1.641   0.437   0.191  2.6922 -1.8789 -3.2326
  374SOL    HW2 1495   1.529   0.453   0.288 -1.2081 -1.4346  0.6878
  374SOL     MW 1496   1.557   0.444   0.206  0.3039 -0.6805  0.0554
  375SOL     OW 1497   1.092   2.064   2.263 -0.8065  0.1442 -0.5681
  375SOL    HW1 1498   1.123   2.056   2.357 -0.4664  0.8633  1.3211
  375SOL    HW2 1499   1.105   1.974   2.231 -1.3322  0.1064  0.1108
  375SOL     MW 1500   1.098   2.051   2.271 -0.8310  0.2341 -0.2292
  376SOL     OW 1501   0.630   2.554   0.081 -0.5358  0.5361  0.4520
  376SOL    HW1 1502   0.612   2.486   0.158 -0.0624 -2.7135  0.7359
  376SOL    HW2 1503   0.606   2.496   0.013 -0.5804 -0.3153  1.6917
  376SOL     MW 1504   0.624   2.538   0.082 -0.4792 -0.0050  0.6530
  377SOL     OW 1505   1.332   2.002   0.839 -0.4194  0.3599 -0.4948
  377SOL    HW1 1506   1.272   2.009   0.762 -1.0483  1.6945 -0.4240
  377SOL    HW2 1507   1.286   1.947   0.902  2.4771 -2.2236 -0.6320
  377SOL     MW 1508   1.318   1.996   0.837 -0.1202  0.1951 -0.5036
  378SOL     OW 1509   1.048   2.811   1.629 -0.0518 -0.0740  0.5242
  378SOL    HW1 1510   1.012   2.727   1.658  0.4208 -0.8958  1.7852
  378SOL    HW2 1511   0.986   2.846   1.564 -1.3222  1.3326  2.4960
  378SOL     MW 1512   1.035   2.805   1.624 -0.1571  0.0031  0.9508
  379SOL     OW 1513   1.137   1.780   2.272  0.1571  0.0218  0.0383
  379SOL    HW1 1514   1.042   1.768   2.261  0.2070 -1.8624 -1.8234
  379SOL    HW2 1515   1.177   1.704   2.234  2.7148  2.5259 -2.5892
  379SOL     MW 1516   1.130   1.769   2.265  0.5011  0.1036 -0.5540
  380SOL     OW 1517   0.805   0.067   1.564 -0.0944 -0.0681  0.0158
  380SOL    HW1 1518   0.855   0.063   1.478  0.8272  0.7647 -0.0905
  380SOL    HW2 1519   0.859   0.111   1.626 -0.0943 -1.0359  0.2163
  380SOL     MW 1520   0.819   0.072   1.561  0.0272 -0.0859  0.0282
  381SOL     OW 1521   0.811   1.993   0.791  0.2931  0.2766  0.0487
  381SOL    HW1 1522   0.898   1.977   0.748  0.5176  2.5632 -1.7755
  381SOL    HW2 1523   0.833   2.065   0.851  1.4021 -1.9709  1.5861
  381SOL     MW 1524   0.826   2.000   0.793  0.4691  0.2817  0.0108
  382SOL     OW 1525   0.622   0.117   0.693 -0.2493  0.3235 -0.1069
  382SOL    HW1 1526   0.640   0.115   0.783 -0.7719  1.4152  1.0557
  382SOL    HW2 1527   0.605   0.021   0.671  0.2826  0.8830  1.3228
  382SOL     MW 1528   0.622   0.104   0.702 -0.2481  0.5414  0.2352
  383SOL     OW 1529   0.569   3.076   0.339  0.1177 -0.2688 -0.1336
  383SOL    HW1 1530   0.600   3.021   0.266  0.2013 -0.3667 -0.1174
  383SOL    HW2 1531   0.500   3.040   0.390  0.7310  1.6756 -0.4317
  383SOL     MW 1532   0.564   3.064   0.336  0.2096 -0.0252 -0.1708
  384SOL     OW 1533   0.634   2.936   0.637 -0.7138 -0.1650  0.3975
  384SOL    HW1 1534   0.710   2.892   0.670 -1.9346  1.6507 -1.8878
  384SOL    HW2 1535   0.574   2.869   0.661  3.0608 -2.2989  0.4326
  384SOL     MW 1536   0.636   2.921   0.644 -0.3769 -0.2070  0.1006
  385SOL     OW 1537   1.311   2.053   1.504  0.2189 -0.1838  0.3785
  385SOL    HW1 1538   1.371   2.104   1.556 -1.0945  1.8704  0.2549
  385SOL    HW2 1539   1.295   1.977   1.562 -0.1191 -0.1244 -2.1783
  385SOL     MW 1540   1.317   2.050   1.519  0.0010  0.0951  0.0248
  386SOL     OW 1541   1.315   0.350   0.820 -0.0797  0.5112 -0.3488
  386SOL    HW1 1542   1.240   0.378   0.777  1.0617  1.9391  0.9547
  386SOL    HW2 1543   1.280   0.316   0.903  1.5306  1.5377  0.0323
  386SOL     MW 1544   1.300   0.349   0.825  0.2834  0.8350 -0.1265
  387SOL     OW 1545   0.886   2.147   1.470  0.3041 -0.2199  0.0042
  387SOL    HW1 1546   0.967   2.189   1.444 -1.0491 -0.2973 -1.1178
  387SOL    HW2 1547   0.872   2.082   1.398 -1.2483  0.8299  0.4773
  387SOL     MW 1548   0.895   2.144   1.457 -0.0792 -0.0916 -0.0814
  388SOL     OW 1549   1.562   2.806   1.197  0.5958  0.4377 -0.4340
  388SOL    HW1 1550   1.475   2.769   1.175 -0.1278  0.9064  2.7897
  388SOL    HW2 1551   1.624   2.737   1.186  1.7735  1.5802  0.8773
  388SOL     MW 1552   1.559   2.792   1.193  0.6557  0.6503  0.1643
  389SOL     OW 1553   0.412   0.029   3.045  0.3206  0.4662 -0.3054
  389SOL    HW1 1554   0.487   0.074   3.006  2.6001  0.5258 -0.1315
  389SOL    HW2 1555   0.343   0.053   2.980  0.3504  0.2042  0.8005
  389SOL     MW 1556   0.413   0.038   3.032  0.6253  0.4395 -0.1365
  390SOL     OW 1557   1.308   0.102   0.652  0.3910  0.1399 -0.2243
  390SOL    HW1 1558   1.371   0.090   0.580 -0.9218  0.8729  2.1280
  390SOL    HW2 1559   1.349   0.088   0.740 -1.3284 -0.6174  1.0986
  390SOL     MW 1560   1.322   0.098   0.654 -0.0091  0.1367  0.2606
  391SOL     OW 1561   0.301   2.225   1.367  0.4204  0.2007  0.2102
  391SOL    HW1 1562   0.244   2.144   1.381 -3.4775 -3.2680 -0.6189
  391SOL    HW2 1563   0.243   2.307   1.354  0.8260  0.6701 -1.1081
  391SOL     MW 1564   0.286   2.225   1.367 -0.0404 -0.1950 -0.0731
  392SOL     OW 1565   2.037   2.173   0.384 -0.3218  0.3896 -0.1715
  392SOL    HW1 1566   2.114   2.227   0.358 -3.0142  3.4277 -0.4421
  392SOL    HW2 1567   1.991   2.244   0.435  0.3988 -1.8216  0.5577
  392SOL     MW 1568   2.041   2.189   0.387 -0.5820  0.4987 -0.1110
  393SOL     OW 1569   0.159   3.019   2.749 -0.4473  0.4074  0.4716
  393SOL    HW1 1570   0.241   3.049   2.704  0.6756  0.5181 -1.0282
  393SOL    HW2 1571   0.123   3.105   2.775  1.1111  1.4082 -0.1752
  393SOL     MW 1572   0.165   3.034   2.746 -0.0935  0.5541  0.1884
  394SOL     OW 1573   0.908   1.766   1.518  0.3679  0.2514 -0.3317
  394SOL    HW1 1574   0.849   1.794   1.588 -0.2919 -0.1721  1.8900
  394SOL    HW2 1575   0.909   1.833   1.449 -0.9986 -0.8142  0.1064
  394SOL     MW 1576   0.901   1.779   1.518  0.1005  0.0550  0.0192
  395SOL     OW 1577   1.039   2.797   2.598  0.5897  0.0041 -0.2931
  395SOL    HW1 1578   1.087   2.876   2.633  0.6247 -0.6729 -4.2930
  395SOL    HW2 1579   1.104   2.739   2.562 -2.0138  1.2470 -0.9298
  395SOL     MW 1580   1.054   2.800   2.598  0.2508  0.0788 -0.9048
  396SOL     OW 1581   0.823   1.877   2.409 -0.2030 -0.2923  0.2828
  396SOL    HW1 1582   0.882   1.890   2.488  0.3412  2.4263  0.7189
  396SOL    HW2 1583   0.817   1.785   2.394 -0.4954  0.3560 -2.7109
  396SOL     MW 1584   0.830   1.867   2.417 -0.1698  0.1519 -0.0547
  397SOL     OW 1585   1.033   2.339   1.262 -0.3671 -0.1766  0.0809
  397SOL    HW1 1586   1.080   2.359   1.176  0.1283 -0.5212 -1.1944
  397SOL    HW2 1587   1.105   2.344   1.328  0.6374  2.8196 -1.1681
  397SOL     MW 1588   1.048   2.342   1.260 -0.1692  0.1732 -0.2522
  398SOL     OW 1589   0.551   2.696   0.756 -0.2721  0.3383 -0.5871
  398SOL    HW1 1590   0.472   2.654   0.736 -0.8337  0.1126 -1.4437
  398SOL    HW2 1591   0.617   2.641   0.707 -0.7777  0.2148 -3.3646
  398SOL     MW 1592   0.549   2.684   0.747 -0.4129  0.2922 -1.0666
  399SOL     OW 1593   0.235   2.096   0.399 -0.2615 -0.1857  0.0680
  399SOL    HW1 1594   0.159   2.154   0.389  1.3936 -0.2877  3.5784
  399SOL    HW2 1595   0.304   2.118   0.330  0.9659 -2.0944 -3.9043
  399SOL     MW 1596   0.234   2.106   0.388  0.1188 -0.4510  0.0071
  400SOL     OW 1597   0.531   1.879   0.161 -0.4420  0.3517 -0.2910
  400SOL    HW1 1598   0.484   1.959   0.154  0.6589  1.9542 -1.1778
  400SOL    HW2 1599   0.514   1.839   0.246  2.6215 -0.4386  2.2111
  400SOL     MW 1600   0.522   1.884   0.172  0.1075  0.4589 -0.0779
  401SOL     OW 1601   0.850   2.048   0.129 -0.8045 -0.3417 -0.2713
  401SOL    HW1 1602   0.871   1.960   0.110 -1.1362  2.3049 -3.0220
  401SOL    HW2 1603   0.825   2.045   0.219 -2.5425 -2.5539  2.1580
  401SOL     MW 1604   0.849   2.036   0.138 -1.0775 -0.2844 -0.3137
  402SOL     OW 1605   0.643   2.980   1.720 -0.6343  0.7277  0.4922
  402SOL    HW1 1606   0.723   2.930   1.748  0.3690  0.7965  4.9083
  402SOL    HW2 1607   0.683   3.061   1.672 -0.3077  0.6245 -1.3276
  402SOL     MW 1608   0.658   2.984   1.717 -0.4589  0.7231  0.8348
  403SOL     OW 1609   0.091   0.417   0.389 -0.2677  0.1702 -0.2378
  403SOL    HW1 1610   0.152   0.467   0.440 -3.3086  1.5266 -2.1920
  403SOL    HW2 1611   0.132   0.381   0.306  0.1947  1.6390 -1.4449
  403SOL     MW 1612   0.104   0.419   0.385 -0.6079  0.5429 -0.6549
  404SOL     OW 1613   0.861   2.843   0.745 -0.1210 -0.0480 -0.1418
  404SOL    HW1 1614   0.920   2.791   0.696 -0.7506 -0.4202 -1.1562
  404SOL    HW2 1615   0.882   2.937   0.719 -2.8694 -0.2677 -3.5986
  404SOL     MW 1616   0.871   2.849   0.735 -0.5667 -0.1261 -0.7317
  405SOL     OW 1617   0.492   2.378   1.494 -0.1768  0.1889 -0.0161
  405SOL    HW1 1618   0.484   2.473   1.473  1.2890  0.9188 -0.1878
  405SOL    HW2 1619   0.421   2.324   1.450  0.0219  2.6347  1.8815
  405SOL     MW 1620   0.482   2.384   1.486  0.0428  0.6079  0.2116
  406SOL     OW 1621   0.356   2.418   1.102  0.4180 -0.0414 -0.9784
  406SOL    HW1 1622   0.261   2.419   1.085  0.9326 -0.7041 -1.8806
  406SOL    HW2 1623   0.378   2.326   1.115 -0.6790  1.9332  0.7870
  406SOL     MW 1624   0.346   2.406   1.101  0.3411  0.1317 -0.8645
  407SOL     OW 1625   3.082   2.707   1.167 -0.7800 -0.2094  0.0336
  407SOL    HW1 1626   3.169   2.695   1.215  1.0518  2.5388  0.3046
  407SOL    HW2 1627   3.127   2.720   1.078  2.1694 -0.2238 -0.8301
  407SOL     MW 1628   3.099   2.707   1.161 -0.1491  0.1513 -0.0446
  408SOL     OW 1629   2.109   2.058   0.794  0.7138 -0.3192  0.1799
  408SOL    HW1 1630   2.035   2.107   0.827  0.5726  0.1000 -0.3376
  408SOL    HW2 1631   2.085   2.033   0.702  1.0064  2.2851  0.8409
  408SOL     MW 1632   2.096   2.061   0.786  0.7338  0.0797  0.1989
  409SOL     OW 1633   1.396   0.102   0.917  0.4907 -0.2490  0.4018
  409SOL    HW1 1634   1.444   0.183   0.893  3.0565 -1.2866 -2.4919
  409SOL    HW2 1635   1.455   0.048   0.969 -0.2936  1.1710  1.8547
  409SOL     MW 1636   1.410   0.105   0.921  0.7258 -0.1985  0.2117
  410SOL     OW 1637   1.153   2.467   1.042 -0.5645  0.1859 -0.4337
  410SOL    HW1 1638   1.076   2.448   0.995 -0.5834 -0.1333  1.9243
  410SOL    HW2 1639   1.227   2.419   1.010  0.9491 -0.0935 -0.1099
  410SOL     MW 1640   1.153   2.458   1.032 -0.3673  0.1069 -0.0799
  411SOL     OW 1641   1.947   0.016   2.840  0.4355  0.2375  0.2687
  411SOL    HW1 1642   1.887  -0.053   2.802 -0.1879 -0.4584 -0.2502
  411SOL    HW2 1643   1.900   0.062   2.911  0.3051  1.6242 -0.9335
  411SOL     MW 1644   1.933   0.013   2.844  0.3360  0.3286  0.0416
  412SOL     OW 1645   0.969   2.254   0.622 -0.0191  0.5532  0.7114
  412SOL    HW1 1646   1.038   2.317   0.646  0.0889 -2.8304  1.8024
  412SOL    HW2 1647   0.894   2.309   0.575 -0.6793  1.0857 -1.3913
  412SOL     MW 1648   0.968   2.270   0.619 -0.0919  0.1771  0.5779
  413SOL     OW 1649   0.522   2.777   3.060 -0.3155  0.6335 -0.2711
  413SOL    HW1 1650   0.582   2.699   3.086 -0.9015 -0.5336  0.2011
  413SOL    HW2 1651   0.573   2.826   3.000 -1.6546 -2.7083  0.4537
  413SOL     MW 1652   0.536   2.774   3.056 -0.5695  0.0386 -0.1131
  414SOL     OW 1653   1.929   2.955   1.079 -0.5296 -0.3361 -0.0489
  414SOL    HW1 1654   1.888   2.949   0.991  0.9903 -1.9700  2.1307
  414SOL    HW2 1655   2.015   2.905   1.079  0.8964 -3.6639  0.8830
  414SOL     MW 1656   1.935   2.947   1.067 -0.1409 -0.9908  0.3616
  415SOL     OW 1657   1.712   2.562   1.150 -0.1791  0.8568 -0.5040
  415SOL    HW1 1658   1.656   2.503   1.206 -0.0407 -0.5313  3.1103
  415SOL    HW2 1659   1.773   2.605   1.209 -0.9706  2.6751  1.8821
  415SOL     MW 1660   1.712   2.560   1.165 -0.2653  0.9136  0.2877
  416SOL     OW 1661   0.552   1.950   1.359 -0.1710 -0.2392  0.4438
  416SOL    HW1 1662   0.510   1.989   1.284  0.8745  0.2918 -1.0312
  416SOL    HW2 1663   0.518   1.857   1.351 -2.5252  1.7561 -1.5521
  416SOL     MW 1664   0.542   1.943   1.348 -0.3436  0.0941 -0.0141
  417SOL     OW 1665   0.994   3.028   2.049 -0.1689  0.4816  0.0494
  417SOL    HW1 1666   0.932   3.015   2.124  2.9510  0.8573 -4.4628
  417SOL    HW2 1667   0.950   2.990   1.967  1.7665  0.3347 -0.1392
  417SOL     MW 1668   0.980   3.021   2.048  0.4981  0.5118 -0.5708
  418SOL     OW 1669   0.659   2.924   0.143  0.3258 -0.7553  0.3195
  418SOL    HW1 1670   0.745   2.937   0.098 -1.5621  0.3319 -2.2948
  418SOL    HW2 1671   0.599   2.891   0.073  2.0742 -0.0587 -0.2337
  418SOL     MW 1672   0.662   2.921   0.128  0.3074 -0.5200 -0.0984
  419SOL     OW 1673   0.450   2.638   1.405 -0.2627 -0.2702 -0.2087
  419SOL    HW1 1674   0.513   2.701   1.437  1.0337  1.2207 -0.3814
  419SOL    HW2 1675   0.492   2.626   1.325  2.3947  2.7485 -0.2692
  419SOL     MW 1676   0.463   2.645   1.399  0.2590  0.3248 -0.2395
  420SOL     OW 1677   0.881   2.198   0.994 -0.2705  0.1233  0.2528
  420SOL    HW1 1678   0.817   2.232   1.059  0.4146  0.3454  2.2665
  420SOL    HW2 1679   0.909   2.276   0.941  1.9140  0.3446 -2.9847
  420SOL     MW 1680   0.876   2.213   0.996  0.1081  0.1818  0.0913
  421SOL     OW 1681   2.946   0.057   0.010 -0.0397 -0.3228 -0.1892
  421SOL    HW1 1682   2.909   0.021  -0.071 -0.2844 -1.5228 -0.2167
  421SOL    HW2 1683   2.968  -0.012   0.067 -0.6258  1.1779 -0.5814
  421SOL     MW 1684   2.944   0.043   0.007 -0.1493 -0.2831 -0.2446
  422SOL     OW 1685   0.899   2.485   0.893  0.0248  0.5397  0.0085
  422SOL    HW1 1686   0.877   2.553   0.952  0.6857  0.5394 -0.7122
  422SOL    HW2 1687   0.885   2.528   0.814  1.2302  2.3256 -0.5022
  422SOL     MW 1688   0.895   2.499   0.891  0.2710  0.7753 -0.1540
  423SOL     OW 1689   1.530   0.131   0.493  0.0276 -0.0783  0.4872
  423SOL    HW1 1690   1.490   0.131   0.406 -1.3723 -0.0652 -0.3634
  423SOL    HW2 1691   1.520   0.226   0.516  0.9299  3.7418 -0.3568
  423SOL     MW 1692   1.523   0.144   0.485 -0.0381  0.4275  0.2636
  424SOL     OW 1693   0.668   2.262   1.179  0.4310  0.0227 -0.7017
  424SOL    HW1 1694   0.592   2.205   1.154  0.8052  2.0583  2.0143
  424SOL    HW2 1695   0.689   2.240   1.267  0.8055  0.7780  0.4355
  424SOL     MW 1696   0.661   2.252   1.188  0.5298  0.3910 -0.1933
  425SOL     OW 1697   1.726   2.854   1.969  0.0943 -0.3707  0.2067
  425SOL    HW1 1698   1.733   2.846   1.874 -0.5962  0.4384 -0.4820
  425SOL    HW2 1699   1.759   2.769   1.990  0.7065 -0.2874 -0.1846
  425SOL     MW 1700   1.731   2.842   1.959  0.0840 -0.2530  0.0642
  426SOL     OW 1701   0.832   1.690   1.938  0.4675  0.3879  0.1715
  426SOL    HW1 1702   0.774   1.733   1.868  2.0879  1.9518 -1.1445
  426SOL    HW2 1703   0.815   1.757   2.012  0.5344  2.1119  4.5750
  426SOL     MW 1704   0.822   1.704   1.938  0.6901  0.8217  0.5788
  427SOL     OW 1705   0.354   1.587   1.889  0.1333  0.5050 -0.3404
  427SOL    HW1 1706   0.424   1.517   1.892  1.4938  3.0823  3.2562
  427SOL    HW2 1707   0.280   1.546   1.940  2.0220  1.0127  1.4363
  427SOL     MW 1708   0.353   1.572   1.896  0.5620  0.9121  0.3686
  428SOL     OW 1709   0.578   2.570   1.176  0.1206 -0.5307  0.3506
  428SOL    HW1 1710   0.655   2.519   1.196 -0.1651  1.0475  1.8939
  428SOL    HW2 1711   0.507   2.513   1.140 -2.4093  3.3019  1.5700
  428SOL     MW 1712   0.579   2.556   1.174 -0.2509  0.1832  0.7151
  429SOL     OW 1713   1.323   2.681   1.077  0.3040  0.5676  0.4552
  429SOL    HW1 1714   1.243   2.633   1.070  0.4589  1.9207  1.1903
  429SOL    HW2 1715   1.298   2.750   1.014 -0.1443  0.3204 -0.2055
  429SOL     MW 1716   1.309   2.684   1.067  0.2653  0.7135  0.4650
  430SOL     OW 1717   1.181   2.720   0.704 -0.1605 -0.4735  0.2683
  430SOL    HW1 1718   1.180   2.625   0.692 -0.0907 -0.3657  0.5144
  430SOL    HW2 1719   1.146   2.750   0.616 -1.3690  0.7100 -0.1296
  430SOL     MW 1720   1.177   2.711   0.691 -0.3108 -0.3031  0.2482
  431SOL     OW 1721   0.292   1.881   1.105 -0.4357  0.4696 -0.3746
  431SOL    HW1 1722   0.375   1.833   1.080 -0.9156  1.1179  0.8587
  431SOL    HW2 1723   0.249   1.910   1.019 -0.3495  0.0212 -1.3864
  431SOL     MW 1724   0.297   1.879   1.090 -0.4876  0.4960 -0.3454
  432SOL     OW 1725   0.058   0.018   1.085  0.4581 -0.7068  0.2729
  432SOL    HW1 1726   0.060   0.048   1.178 -2.6574  0.0668 -0.0804
  432SOL    HW2 1727  -0.025  -0.028   1.071 -0.1578 -3.1845  0.4266
  432SOL     MW 1728   0.047   0.016   1.095 -0.0342 -0.9316  0.2466
  433SOL     OW 1729   0.627   2.827   1.474  0.4729 -0.1356  0.0743
  433SOL    HW1 1730   0.619   2.883   1.552  1.2343  0.7739  2.3061
  433SOL    HW2 1731   0.723   2.820   1.453  0.2601  0.0782  1.4472
  433SOL     MW 1732   0.638   2.834   1.481  0.5452  0.0126  0.5499
  434SOL     OW 1733   1.579   2.822   1.477 -0.0778 -0.2073  0.5443
  434SOL    HW1 1734   1.491   2.866   1.501  0.1371 -1.7113  0.3586
  434SOL    HW2 1735   1.566   2.785   1.393  0.2284 -2.4019 -0.3236
  434SOL     MW 1736   1.565   2.823   1.469 -0.0091 -0.6953  0.4053
  435SOL     OW 1737   2.805   1.820   0.208 -0.5774 -0.0909  0.7650
  435SOL    HW1 1738   2.859   1.885   0.167  1.4656  0.3880 -1.4910
  435SOL    HW2 1739   2.778   1.764   0.137 -1.5980  1.2163  1.8963
  435SOL     MW 1740   2.809   1.821   0.193 -0.4425  0.1447  0.6166
  436SOL     OW 1741   1.300   2.814   0.328  0.2463  0.4284  0.4459
  436SOL    HW1 1742   1.381   2.804   0.374  0.2307  0.0776 -0.8298
  436SOL    HW2 1743   1.254   2.880   0.374  0.6710 -2.8206  0.5938
  436SOL     MW 1744   1.305   2.821   0.340  0.3003 -0.0466  0.2971
  437SOL     OW 1745   0.888   2.874   1.405 -0.0549  0.0530  0.1818
  437SOL    HW1 1746   0.881   2.969   1.391 -1.7698  0.2542  1.2092
  437SOL    HW2 1747   0.908   2.842   1.316 -2.2018 -0.2492  0.1812
  437SOL     MW 1748   0.890   2.883   1.391 -0.5644  0.0396  0.3172
  438SOL     OW 1749   0.862   2.629   1.931 -0.2718  1.0590 -0.5128
  438SOL    HW1 1750   0.844   2.606   2.022  3.8176 -1.0320 -4.3707
  438SOL    HW2 1751   0.799   2.587   1.872  1.4152 -0.7351  0.3195
  438SOL     MW 1752   0.851   2.620   1.935  0.4903  0.5464 -0.9120
  439SOL     OW 1753   1.085   2.145   0.392  0.7853  0.1361  0.1283
  439SOL    HW1 1754   1.053   2.185   0.472 -0.7194  1.2576  2.0642
  439SOL    HW2 1755   1.112   2.224   0.349 -0.4090 -1.0919  1.5937
  439SOL     MW 1756   1.084   2.160   0.397  0.4292  0.1220  0.5771
  440SOL     OW 1757   1.687   2.992   3.077  0.2707  0.6812  0.1000
  440SOL    HW1 1758   1.647   2.962   3.153  0.8033  1.6880  0.8672
  440SOL    HW2 1759   1.766   2.932   3.073  2.7204 -1.3669 -0.9580
  440SOL     MW 1760   1.692   2.980   3.087  0.6642  0.5438  0.0616
  441SOL     OW 1761   0.361   2.649   0.492 -0.0377 -0.1767  0.0300
  441SOL    HW1 1762   0.360   2.619   0.406 -2.2546 -0.1443 -0.2682
  441SOL    HW2 1763   0.351   2.749   0.485 -0.4018  2.2604 -0.2678
  441SOL     MW 1764   0.359   2.658   0.480 -0.3782  0.1491 -0.0486
  442SOL     OW 1765   3.071   2.356   0.639 -0.2602  0.3643  0.1611
  442SOL    HW1 1766   3.102   2.454   0.631 -0.7209 -1.5585 -1.1974
  442SOL    HW2 1767   2.978   2.360   0.666  2.0018  0.4583 -0.3075
  442SOL     MW 1768   3.063   2.370   0.641 -0.0226  0.1230 -0.0800
  443SOL     OW 1769   1.417   1.792   1.940  0.0291  0.1443 -0.0685
  443SOL    HW1 1770   1.382   1.841   1.870 -1.0035  1.0080  0.3781
  443SOL    HW2 1771   1.375   1.703   1.936  0.5714  2.0896  1.8392
  443SOL     MW 1772   1.407   1.787   1.930 -0.0356  0.5149  0.2421
  444SOL     OW 1773   0.901   2.568   1.585 -0.5943 -0.2341  0.1791
  444SOL    HW1 1774   0.965   2.511   1.628  0.6869  1.6687  1.0259
  444SOL    HW2 1775   0.821   2.552   1.630  0.9497  2.3419  0.6015
  444SOL     MW 1776   0.899   2.559   1.596 -0.2216  0.3568  0.3465
  445SOL     OW 1777   0.910   0.013   1.270 -0.4547 -0.2663  0.5520
  445SOL    HW1 1778   0.890   0.106   1.263  0.2623 -0.3236 -2.7051
  445SOL    HW2 1779   0.994  -0.015   1.238  1.9798 -0.8685  1.9457
  445SOL     MW 1780   0.919   0.021   1.265 -0.0389 -0.3533  0.3061
  446SOL     OW 1781   2.679   2.850   1.079  0.4156 -0.0827  0.1819
  446SOL    HW1 1782   2.644   2.881   0.993  1.0667  1.2007  1.4981
  446SOL    HW2 1783   2.721   2.764   1.061 -1.5946 -0.7218 -0.2907
  446SOL     MW 1784   2.680   2.843   1.066  0.2362  0.0023  0.2932
  447SOL     OW 1785   0.003   2.053   1.686  0.1331 -0.1754  0.5141
  447SOL    HW1 1786   0.054   2.001   1.746  1.2705 -1.3427 -0.7303
  447SOL    HW2 1787  -0.065   1.989   1.650  0.1445  0.9938 -2.9011
  447SOL     MW 1788   0.001   2.037   1.689  0.2847 -0.1752 -0.1007
  448SOL     OW 1789   1.742   2.382   1.703 -0.4044  0.0235 -0.6671
  448SOL    HW1 1790   1.677   2.326   1.669  1.4553  1.3544  0.5177
  448SOL    HW2 1791   1.703   2.467   1.682 -0.7496  2.7241 -0.8154
  448SOL     MW 1792   1.728   2.386   1.696 -0.2046  0.5554 -0.5303
  449SOL     OW 1793   0.756   2.847   0.405 -0.0801 -0.0931 -0.3728
  449SOL    HW1 1794   0.708   2.826   0.327  2.0833  0.4838 -0.6508
  449SOL    HW2 1795   0.703   2.883   0.476  0.8111 -1.3961  1.6647
  449SOL     MW 1796   0.743   2.849   0.404  0.3229 -0.1889 -0.1407
  450SOL     OW 1797   1.199   2.431   0.667  0.1341 -0.3186 -0.0919
  450SOL    HW1 1798   1.218   2.382   0.748 -0.3637  0.8121  1.1468
  450SOL    HW2 1799   1.290   2.424   0.645 -0.1016  0.5705 -2.2129
  450SOL     MW 1800   1.213   2.424   0.675  0.0374 -0.0521 -0.2083
  451SOL     OW 1801   0.554   2.002   1.651 -0.7870 -0.3203 -0.2625
  451SOL    HW1 1802   0.622   2.075   1.645 -1.8609  0.3237 -0.6875
  451SOL    HW2 1803   0.541   1.984   1.557  0.2065  0.5870 -1.3479
  451SOL     MW 1804   0.561   2.009   1.638 -0.7976 -0.1156 -0.4618
  452SOL     OW 1805   0.259   2.724   0.022  0.3669  0.1734 -0.0170
  452SOL    HW1 1806   0.351   2.724  -0.002  0.2106  0.5856 -1.3398
  452SOL    HW2 1807   0.220   2.759  -0.066 -0.0253  1.2879 -1.1176
  452SOL     MW 1808   0.266   2.729   0.007  0.2945  0.3748 -0.3367
  453SOL     OW 1809   0.358   2.960   1.692  0.1170 -0.5402 -0.7049
  453SOL    HW1 1810   0.453   2.966   1.693 -1.1029 -1.1029  0.8294
  453SOL    HW2 1811   0.341   2.941   1.596 -1.8558 -1.6373 -1.7315
  453SOL     MW 1812   0.368   2.958   1.679 -0.3043 -0.7592 -0.6379
  454SOL     OW 1813   0.957   2.727   1.176  0.6492  0.7067 -0.3318
  454SOL    HW1 1814   0.907   2.653   1.219  0.1896 -0.2203 -2.3634
  454SOL    HW2 1815   0.897   2.766   1.109  0.2007  2.2223 -0.9960
  454SOL     MW 1816   0.942   2.722   1.173  0.5294  0.7843 -0.6875
  455SOL     OW 1817   1.546   2.913   0.206  0.4224 -0.0082  0.3308
  455SOL    HW1 1818   1.602   2.907   0.281  0.9715  0.1872  2.2584
  455SOL    HW2 1819   1.507   2.828   0.188 -0.6387 -0.8388 -0.0790
  455SOL     MW 1820   1.548   2.901   0.213  0.3549 -0.0920  0.5311
  456SOL     OW 1821   2.884   0.319   1.358 -0.3462 -0.1967  0.5575
  456SOL    HW1 1822   2.816   0.257   1.313 -0.7347 -0.3118 -0.5146
  456SOL    HW2 1823   2.940   0.333   1.284  0.4509 -0.1215  2.3078
  456SOL     MW 1824   2.882   0.313   1.342 -0.2922 -0.2020  0.6470
  457SOL     OW 1825   0.970   1.536   2.939  0.0636 -0.7427 -0.2603
  457SOL    HW1 1826   0.881   1.509   2.952  0.9561  0.6570 -1.1834
  457SOL    HW2 1827   1.032   1.461   2.957  3.8497  0.4657  0.6341
  457SOL     MW 1828   0.966   1.523   2.943  0.6809 -0.3986 -0.2641
  458SOL     OW 1829   1.468   1.390   0.559 -0.3850 -0.3467 -0.1563
  458SOL    HW1 1830   1.380   1.413   0.590 -1.8362 -0.2506 -1.9512
  458SOL    HW2 1831   1.453   1.330   0.490  0.5902  0.9406  0.3382
  458SOL     MW 1832   1.455   1.385   0.554 -0.4478 -0.1642 -0.3278
  459SOL     OW 1833   1.485   0.102   0.218 -0.0368 -0.4364  0.0947
  459SOL    HW1 1834   1.492   0.004   0.201 -0.8705 -0.4162 -1.6199
  459SOL    HW2 1835   1.429   0.142   0.152 -0.5019 -1.5685 -0.2189
  459SOL     MW 1836   1.478   0.094   0.207 -0.2081 -0.5831 -0.1729
  460SOL     OW 1837   1.789   2.156   0.651  0.2035 -0.3845 -0.5887
  460SOL    HW1 1838   1.691   2.151   0.668 -0.0341  1.1912  1.3276
  460SOL    HW2 1839   1.822   2.067   0.630  0.4906  0.6204 -1.2159
  460SOL     MW 1840   1.780   2.144   0.651  0.2100 -0.0440 -0.4186
  461SOL     OW 1841   0.466   2.436   0.617 -0.7379  0.1264 -0.1620
  461SOL    HW1 1842   0.415   2.500   0.568  0.1826 -0.5122 -1.5726
  461SOL    HW2 1843   0.427   2.444   0.706 -3.0601  0.5449 -0.4283
  461SOL     MW 1844   0.454   2.445   0.622 -0.9229  0.0973 -0.3833
  462SOL     OW 1845   0.373   0.249   1.263  0.0325  0.4454  0.5632
  462SOL    HW1 1846   0.423   0.186   1.211 -1.4461  2.5651 -0.8630
  462SOL    HW2 1847   0.456   0.290   1.297  3.6929  4.9257 -0.0289
  462SOL     MW 1848   0.391   0.246   1.261  0.3204  1.3162  0.2969
  463SOL     OW 1849   0.882   0.004   0.687 -0.0667  0.5806  0.6107
  463SOL    HW1 1850   0.902   0.007   0.589 -1.3766 -1.4501 -0.9524
  463SOL    HW2 1851   0.787   0.031   0.690  0.5766 -0.1885 -1.0374
  463SOL     MW 1852   0.872   0.008   0.674 -0.1547  0.2112  0.1870
  464SOL     OW 1853   0.827   3.039   2.261  0.6695  0.5073  0.0475
  464SOL    HW1 1854   0.774   2.958   2.269 -1.5610  1.6651 -2.1718
  464SOL    HW2 1855   0.843   3.065   2.348 -2.6018 -0.5126  1.2417
  464SOL     MW 1856   0.822   3.032   2.273 -0.0564  0.5255 -0.0878
  465SOL     OW 1857   0.659   0.310   0.487  0.0094 -0.7877  0.2407
  465SOL    HW1 1858   0.662   0.270   0.576 -2.7394 -1.5246 -0.1089
  465SOL    HW2 1859   0.688   0.237   0.430  2.6361  2.4137 -0.9080
  465SOL     MW 1860   0.663   0.295   0.491 -0.0067 -0.4625  0.0430
  466SOL     OW 1861   1.087   2.018   0.714 -0.1371 -0.3238 -0.2883
  466SOL    HW1 1862   1.069   1.941   0.666  1.0672  0.0914 -1.1673
  466SOL    HW2 1863   1.046   2.092   0.665  1.2916 -1.9599 -1.2844
  466SOL     MW 1864   1.079   2.017   0.701  0.2103 -0.4849 -0.5357
  467SOL     OW 1865   1.281   2.265   0.867  0.2006  0.2455  0.0254
  467SOL    HW1 1866   1.371   2.274   0.892 -1.5235  0.4623 -2.1335
  467SOL    HW2 1867   1.273   2.169   0.864 -2.1519  0.8231 -1.5125
  467SOL     MW 1868   1.292   2.253   0.870 -0.3373  0.3504 -0.4624
  468SOL     OW 1869   0.363   2.596   1.970 -0.0181  0.3069 -0.1753
  468SOL    HW1 1870   0.396   2.524   1.916 -0.1460  0.1207 -3.1611
  468SOL    HW2 1871   0.363   2.686   1.932 -0.1693  0.8785 -1.3708
  468SOL     MW 1872   0.367   2.598   1.958 -0.0549  0.3578 -0.7270
  469SOL     OW 1873   0.365   2.148   1.788  0.0068  0.1051  0.3537
  469SOL    HW1 1874   0.298   2.084   1.822 -0.9386 -1.1294  3.3430
  469SOL    HW2 1875   0.429   2.089   1.742 -0.4228 -0.0803  0.2381
  469SOL     MW 1876   0.365   2.132   1.786 -0.1746 -0.0822  0.7329
  470SOL     OW 1877   3.027   2.536   0.099  0.1692 -0.3776 -0.1711
  470SOL    HW1 1878   2.962   2.523   0.171 -0.2397  1.0562  1.9819
  470SOL    HW2 1879   2.973   2.570   0.027 -1.6776  0.3679  0.1053
  470SOL     MW 1880   3.011   2.539   0.099 -0.1284 -0.0901  0.1494
  471SOL     OW 1881   1.211   2.735   1.414 -0.6956  0.1548 -0.3179
  471SOL    HW1 1882   1.151   2.760   1.487 -1.3179  0.9130  0.1291
  471SOL    HW2 1883   1.156   2.695   1.350 -0.1409 -1.8643  1.8794
  471SOL     MW 1884   1.196   2.733   1.415 -0.7045 -0.0116  0.0310
  472SOL     OW 1885   2.936   2.072   0.396  0.4932  0.4854 -0.3549
  472SOL    HW1 1886   2.931   2.058   0.301 -0.1262 -1.0333  1.9733
  472SOL    HW2 1887   2.909   1.987   0.434  0.8063 -1.5184 -1.8364
  472SOL     MW 1888   2.932   2.059   0.388  0.4528  0.0206 -0.2432
  473SOL     OW 1889   0.838   2.520   1.317 -0.1969 -0.3640 -0.3702
  473SOL    HW1 1890   0.888   2.438   1.311 -2.3558  2.3646 -1.5786
  473SOL    HW2 1891   0.863   2.558   1.399  2.4752 -0.9007  1.2916
  473SOL     MW 1892   0.848   2.514   1.327 -0.1292 -0.0748 -0.3104
  474SOL     OW 1893   0.761   2.225   1.723  0.0012 -0.9863  0.3817
  474SOL    HW1 1894   0.841   2.235   1.774  1.3856  0.9551  0.9440
  474SOL    HW2 1895   0.807   2.205   1.636 -2.4164 -1.0914  1.5684
  474SOL     MW 1896   0.778   2.223   1.718 -0.1351 -0.7440  0.6125
  475SOL     OW 1897   1.617   0.033   1.443 -0.1624 -0.2243 -0.3430
  475SOL    HW1 1898   1.539   0.063   1.400  1.0032 -1.2346  1.1106
  475SOL    HW2 1899   1.610  -0.066   1.440 -2.0514 -0.5837 -1.6510
  475SOL     MW 1900   1.606   0.024   1.437 -0.2579 -0.4051 -0.3238
  476SOL     OW 1901   1.487   2.603   0.881 -0.1792 -0.1749  0.3203
  476SOL    HW1 1902   1.427   2.630   0.949 -0.3963 -3.1658 -0.5949
  476SOL    HW2 1903   1.508   2.688   0.845  2.9545  0.7158 -0.0789
  476SOL     MW 1904   1.482   2.618   0.885  0.2056 -0.4520  0.1469
  477SOL     OW 1905   0.780   2.568   0.643 -0.3406  0.0223 -0.0006
  477SOL    HW1 1906   0.841   2.604   0.575 -0.4726 -0.5465  0.3114
  477SOL    HW2 1907   0.749   2.492   0.595  1.6201  2.1676 -2.3225
  477SOL     MW 1908   0.784   2.562   0.627 -0.0993  0.2303 -0.2658
  478SOL     OW 1909   0.130   2.687   0.902 -0.7036  0.7777 -0.0040
  478SOL    HW1 1910   0.180   2.765   0.896 -3.1572  1.1586  1.6748
  478SOL    HW2 1911   0.181   2.623   0.849  3.8317 -1.7844 -1.7873
  478SOL     MW 1912   0.143   2.689   0.895 -0.4289  0.4900 -0.0178
  479SOL     OW 1913   1.423   1.924   1.270 -0.1416 -0.2985  0.1587
  479SOL    HW1 1914   1.382   1.965   1.346  1.6834 -1.0178 -1.2333
  479SOL    HW2 1915   1.502   1.891   1.304 -0.7448 -1.0913  0.4284
  479SOL     MW 1916   1.428   1.925   1.285  0.0196 -0.4980  0.0106
  480SOL     OW 1917   1.868   2.385   1.385  0.6996 -0.5092 -0.0087
  480SOL    HW1 1918   1.879   2.290   1.389  1.0571 -1.9807  0.7767
  480SOL    HW2 1919   1.911   2.410   1.306  1.1591 -1.0748 -1.3842
  480SOL     MW 1920   1.875   2.375   1.375  0.8074 -0.7780 -0.0865
  481SOL     OW 1921   1.202   0.032   1.149  0.3798 -0.5515 -0.3154
  481SOL    HW1 1922   1.285   0.025   1.098  1.9356 -1.4821  1.2665
  481SOL    HW2 1923   1.175   0.125   1.159 -1.1744  0.0457  1.4524
  481SOL     MW 1924   1.210   0.043   1.144  0.3800 -0.5955  0.1266
  482SOL     OW 1925   0.931   3.072   0.422  0.3149 -0.5486 -0.2579
  482SOL    HW1 1926   0.876   3.002   0.390  0.7535 -1.7476 -1.6513
  482SOL    HW2 1927   0.897   3.156   0.389  1.1805 -0.0145 -1.2137
  482SOL     MW 1928   0.920   3.074   0.414  0.4870 -0.6364 -0.5679
  483SOL     OW 1929   0.344   2.934   0.505 -0.1111  0.0249 -0.3426
  483SOL    HW1 1930   0.264   2.912   0.459  1.9190  1.4245 -0.0346
  483SOL    HW2 1931   0.328   2.986   0.585  0.5781  0.3626  1.6130
  483SOL     MW 1932   0.331   2.938   0.509  0.2477  0.2541 -0.0440
  484SOL     OW 1933   1.664   1.851   1.363 -0.7146 -0.5416  0.2513
  484SOL    HW1 1934   1.721   1.923   1.336 -0.0796 -0.1134 -1.4407
  484SOL    HW2 1935   1.670   1.856   1.457  4.0833  1.8329 -1.3463
  484SOL     MW 1936   1.672   1.861   1.372  0.0023 -0.1718 -0.1828
  485SOL     OW 1937   0.533   2.384   0.280 -0.1365  0.2344 -0.0858
  485SOL    HW1 1938   0.585   2.393   0.366 -0.7360 -0.3901 -3.4982
  485SOL    HW2 1939   0.448   2.426   0.302  4.0578  1.4303  2.4887
  485SOL     MW 1940   0.528   2.391   0.294  0.3378  0.3098 -0.1964
  486SOL     OW 1941   0.127   2.437   1.393  0.6562 -0.1347 -0.1260
  486SOL    HW1 1942   0.143   2.530   1.378 -0.0327 -1.4047  0.2034
  486SOL    HW2 1943   0.133   2.446   1.491 -2.0334 -0.0249  2.2584
  486SOL     MW 1944   0.130   2.451   1.404  0.2105 -0.2878  0.2320
  487SOL     OW 1945   1.272   1.589   1.093 -0.1043 -0.4015 -0.4318
  487SOL    HW1 1946   1.272   1.686   1.088  0.4135  1.9761  1.6532
  487SOL    HW2 1947   1.339   1.561   1.022  1.7779  1.3146  1.0581
  487SOL     MW 1948   1.281   1.598   1.083  0.2124  0.1386  0.0398
  488SOL     OW 1949   1.633   1.851   0.552  0.5147  0.1375 -0.2826
  488SOL    HW1 1950   1.721   1.888   0.555  0.6276  0.1157 -0.4734
  488SOL    HW2 1951   1.575   1.925   0.534 -0.4996  0.6305  0.2488
  488SOL     MW 1952   1.637   1.866   0.550  0.3957  0.1997 -0.2376
  489SOL     OW 1953   0.725   0.779   0.561 -0.5295  0.1930  0.6956
  489SOL    HW1 1954   0.745   0.684   0.542  1.8966  1.6853 -0.1276
  489SOL    HW2 1955   0.713   0.776   0.657 -1.0165  1.3889  0.2096
  489SOL     MW 1956   0.726   0.766   0.571 -0.2736  0.5477  0.5229
  490SOL     OW 1957   1.399   2.103   0.474 -0.3268 -0.3223 -0.5130
  490SOL    HW1 1958   1.453   2.168   0.424 -1.5558 -0.4144 -0.1114
  490SOL    HW2 1959   1.307   2.128   0.469 -2.1923  0.2809 -0.7150
  490SOL     MW 1960   1.394   2.115   0.467 -0.7351 -0.2549 -0.4867
  491SOL     OW 1961   1.198   3.017   0.472 -0.2864 -0.5536 -0.5127
  491SOL    HW1 1962   1.203   3.065   0.557  0.0423 -1.2911  0.3708
  491SOL    HW2 1963   1.108   3.051   0.443  0.8313  3.5879  1.0178
  491SOL     MW 1964   1.186   3.028   0.479 -0.0956 -0.1045 -0.1942
  492SOL     OW 1965   1.531   2.166   0.700  0.3715 -0.1431  0.2727
  492SOL    HW1 1966   1.480   2.138   0.621 -2.8498 -0.3645  1.5929
  492SOL    HW2 1967   1.498   2.116   0.778 -0.7670 -1.9042 -1.6319
  492SOL     MW 1968   1.520   2.156   0.700 -0.2037 -0.4047  0.1956
  493SOL     OW 1969   0.113   2.899   0.376 -0.0748  0.2921 -0.0533
  493SOL    HW1 1970   0.098   2.974   0.429  0.3699 -0.0518 -1.4367
  493SOL    HW2 1971   0.142   2.928   0.290  0.8896 -1.6965  1.5081
  493SOL     MW 1972   0.115   2.912   0.371  0.1111 -0.0156 -0.0298
  494SOL     OW 1973   0.407   2.406   1.754  0.3471  0.0083 -0.6525
  494SOL    HW1 1974   0.405   2.304   1.779 -1.3571 -0.5940 -0.4876
  494SOL    HW2 1975   0.425   2.404   1.657  0.0320 -0.2251 -2.6565
  494SOL     MW 1976   0.409   2.392   1.745  0.0807 -0.1020 -0.8952
  495SOL     OW 1977   2.873   1.682   2.719  0.2645  0.2987 -0.1944
  495SOL    HW1 1978   2.872   1.778   2.754  1.6654  0.5892 -0.6131
  495SOL    HW2 1979   2.897   1.625   2.797  0.4765 -1.5947 -0.5864
  495SOL     MW 1980   2.876   1.687   2.734  0.4773  0.0872 -0.3014
  496SOL     OW 1981   2.868   2.302   2.633  0.3792 -0.4776  0.1257
  496SOL    HW1 1982   2.890   2.211   2.645  3.5589  1.0309  0.7218
  496SOL    HW2 1983   2.955   2.337   2.646  0.9006 -2.0385 -1.7279
  496SOL     MW 1984   2.883   2.294   2.636  0.8675 -0.4845 -0.0402
  497SOL     OW 1985   1.535   2.277   2.585  0.0186 -0.4255  0.1287
  497SOL    HW1 1986   1.490   2.255   2.503 -1.0840 -0.4927  0.3706
  497SOL    HW2 1987   1.486   2.233   2.650  3.5725  0.3114 -0.7217
  497SOL     MW 1988   1.523   2.269   2.583  0.3420 -0.3371  0.0484
  498SOL     OW 1989   1.545   2.693   2.288 -0.0084  0.4017 -0.0758
  498SOL    HW1 1990   1.552   2.608   2.251  2.4232 -1.6089  0.8484
  498SOL    HW2 1991   1.618   2.682   2.347  0.7410 -5.3139  0.3917
  498SOL     MW 1992   1.556   2.681   2.291  0.4113 -0.6177  0.1078
  499SOL     OW 1993   0.893   0.169   0.023 -0.1022 -0.5347  0.2403
  499SOL    HW1 1994   0.827   0.194   0.091  0.0344 -0.3177  2.0862
  499SOL    HW2 1995   0.897   0.070   0.030 -2.3729  3.0011 -0.5925
  499SOL     MW 1996   0.885   0.159   0.033 -0.3838 -0.0396  0.3739
  500SOL     OW 1997   1.017   2.421   2.806  0.1288  0.3430 -0.1168
  500SOL    HW1 1998   1.091   2.431   2.869 -0.4816 -1.0898  1.7241
  500SOL    HW2 1999   0.981   2.513   2.807 -1.3672  0.6131  2.0260
  500SOL     MW 2000   1.022   2.435   2.815 -0.1491  0.1896  0.4088
  501SOL     OW 2001   1.748   2.268   3.075  0.1995  0.0764 -0.1537
  501SOL    HW1 2002   1.703   2.353   3.090  0.7856  0.1913  0.9745
  501SOL    HW2 2003   1.839   2.270   3.102 -1.4988 -1.4338 -0.3345
  501SOL     MW 2004   1.754   2.279   3.081  0.0528 -0.1077 -0.0287
  502SOL     OW 2005   0.104   2.873   2.953 -0.4291  0.9639  0.3439
  502SOL    HW1 2006   0.038   2.819   2.905  1.7406 -0.6854 -0.5144
  502SOL    HW2 2007   0.133   2.928   2.882 -0.7933 -1.1667  1.1208
  502SOL     MW 2008   0.099   2.873   2.937 -0.1909  0.4652  0.3332
  503SOL     OW 2009   1.162   2.600   2.041  0.3144 -0.0610 -0.4269
  503SOL    HW1 2010   1.239   2.619   1.981  3.4109 -0.2782 -2.3084
  503SOL    HW2 2011   1.089   2.632   1.989 -0.6907 -3.2767 -0.1754
  503SOL     MW 2012   1.162   2.607   2.026  0.5903 -0.5140 -0.6420
  504SOL     OW 2013   0.090   2.642   2.062  0.0941 -0.3323  0.3670
  504SOL    HW1 2014   0.173   2.644   2.017  0.0523 -2.3204 -0.7077
  504SOL    HW2 2015   0.079   2.549   2.077  0.0680  0.7237 -0.0893
  504SOL     MW 2016   0.099   2.630   2.058  0.0852 -0.4553  0.1650
  505SOL     OW 2017   1.649   2.681   2.745  0.2882  0.1750  0.0134
  505SOL    HW1 2018   1.684   2.655   2.659 -1.0633  0.5838  0.2835
  505SOL    HW2 2019   1.595   2.761   2.728 -1.0535 -0.1506  0.3935
  505SOL     MW 2020   1.647   2.688   2.732 -0.0671  0.1859  0.0992
  506SOL     OW 2021   1.630   0.038   2.862 -0.0466 -0.4299  0.4219
  506SOL    HW1 2022   1.639  -0.008   2.949 -1.6290 -0.7914 -1.7176
  506SOL    HW2 2023   1.657  -0.022   2.785 -0.9903 -1.7529 -1.6493
  506SOL     MW 2024   1.635   0.024   2.863 -0.3799 -0.6522 -0.1336
  507SOL     OW 2025   0.929   2.681   2.850  0.3306 -0.1894 -0.1260
  507SOL    HW1 2026   0.979   2.740   2.790 -0.4154 -1.4508 -0.7550
  507SOL    HW2 2027   0.843   2.665   2.810  1.3544 -0.1374 -0.3475
  507SOL     MW 2028   0.924   2.687   2.837  0.3673 -0.3490 -0.2383
  508SOL     OW 2029   1.242   2.103   2.521 -0.3489  0.3039 -0.0641
  508SOL    HW1 2030   1.291   2.103   2.605 -0.8824  0.1641  1.1684
  508SOL    HW2 2031   1.167   2.164   2.537  3.3545 -1.4637  1.2243
  508SOL     MW 2032   1.238   2.111   2.534  0.0693  0.0522  0.2685
  509SOL     OW 2033   0.684   2.592   2.801  0.4721 -0.0248  0.5773
  509SOL    HW1 2034   0.681   2.531   2.730 -6.1177  2.2859  1.0476
  509SOL    HW2 2035   0.602   2.633   2.792  3.2763  1.9888 -2.6307
  509SOL     MW 2036   0.673   2.589   2.790 -0.0274  0.5458  0.2161
  510SOL     OW 2037   1.584   2.600   1.640  0.3068 -0.3442  0.3577
  510SOL    HW1 2038   1.596   2.695   1.613 -2.1116  2.8112  0.5854
  510SOL    HW2 2039   1.529   2.606   1.724  3.1828 -1.5584 -1.9152
  510SOL     MW 2040   1.578   2.613   1.647  0.3672 -0.0880  0.0878
  511SOL     OW 2041   0.424   2.607   2.476  0.1605  0.2448 -0.7523
  511SOL    HW1 2042   0.502   2.558   2.499  2.9727 -1.4352  0.7683
  511SOL    HW2 2043   0.421   2.638   2.384 -0.4839 -1.8050 -0.0170
  511SOL     MW 2044   0.434   2.604   2.467  0.4465 -0.2473 -0.4547
  512SOL     OW 2045   0.985   2.028   2.859 -0.2829  0.0557 -0.6230
  512SOL    HW1 2046   0.914   2.077   2.903 -1.0110 -1.5764 -2.5830
  512SOL    HW2 2047   1.010   1.947   2.902 -1.2824  0.6108 -1.7967
  512SOL     MW 2048   0.979   2.024   2.871 -0.5108 -0.0864 -1.0364
  513SOL     OW 2049   1.631   2.454   2.209 -0.4729 -0.2264 -0.0397
  513SOL    HW1 2050   1.707   2.503   2.168  1.8006 -0.7655  0.6091
  513SOL    HW2 2051   1.657   2.387   2.270  1.5134 -1.6114  0.0595
  513SOL     MW 2052   1.645   2.451   2.212  0.0891 -0.4803  0.0590
  514SOL     OW 2053   0.265   2.445   2.640  0.0127  0.5383 -0.2179
  514SOL    HW1 2054   0.332   2.498   2.606 -0.5418 -1.4198 -1.9112
  514SOL    HW2 2055   0.301   2.412   2.722  0.1195  0.0560 -2.8380
  514SOL     MW 2056   0.279   2.448   2.646 -0.0464  0.2163 -0.7870
  515SOL     OW 2057   1.078   2.055   1.950  0.6850 -0.2587  0.7859
  515SOL    HW1 2058   1.061   2.139   1.909 -1.4747  0.7040  1.2120
  515SOL    HW2 2059   1.137   2.069   2.019 -1.2710  0.0991 -0.3585
  515SOL     MW 2060   1.083   2.068   1.954  0.1420 -0.0845  0.6911
  516SOL     OW 2061   1.440   2.454   3.003  0.7423 -0.3526  0.6738
  516SOL    HW1 2062   1.457   2.469   2.910  3.9434 -0.6416  0.9588
  516SOL    HW2 2063   1.347   2.443   3.017 -0.2226 -0.1487 -1.5206
  516SOL     MW 2064   1.430   2.454   2.993  1.0373 -0.3638  0.4219
  517SOL     OW 2065   0.561   2.416   2.273 -0.0310  0.1359  0.1415
  517SOL    HW1 2066   0.502   2.457   2.337 -1.8721  2.0350  0.3499
  517SOL    HW2 2067   0.524   2.359   2.205  0.5761 -0.0140 -2.9708
  517SOL     MW 2068   0.549   2.414   2.273 -0.1939  0.3667 -0.2416
  518SOL     OW 2069   1.864   0.084   0.028  0.1020  0.5023 -0.1312
  518SOL    HW1 2070   1.818   0.163   0.057  0.1869  0.8066  0.5106
  518SOL    HW2 2071   1.796   0.012   0.021 -0.9476  0.1891  3.3565
  518SOL     MW 2072   1.849   0.085   0.031 -0.0253  0.5011  0.4137
  519SOL     OW 2073   0.681   2.508   1.755 -0.3561  0.0958  0.5636
  519SOL    HW1 2074   0.690   2.412   1.757 -1.7495 -2.6529 -0.1809
  519SOL    HW2 2075   0.590   2.514   1.736 -0.7045 -0.0608  2.6037
  519SOL     MW 2076   0.670   2.496   1.753 -0.5859 -0.2875  0.7345
  520SOL     OW 2077   1.187   2.201   2.937 -0.0242 -0.0849  0.3408
  520SOL    HW1 2078   1.106   2.153   2.909  0.9036 -3.5501  1.5688
  520SOL    HW2 2079   1.205   2.154   3.020  3.4216  1.0443  0.5050
  520SOL     MW 2080   1.178   2.188   2.944  0.5529 -0.3931  0.5245
  521SOL     OW 2081   1.751   2.028   2.206  0.0343 -0.4524 -0.6130
  521SOL    HW1 2082   1.780   2.049   2.121 -2.8031  0.7873  1.7404
  521SOL    HW2 2083   1.741   1.934   2.213  1.6596 -1.5144  2.1455
  521SOL     MW 2084   1.753   2.019   2.196 -0.1256 -0.4290  0.0615
  522SOL     OW 2085   2.919   2.517   2.277  0.1365 -0.1480 -0.4861
  522SOL    HW1 2086   3.001   2.476   2.284 -0.3301  1.6638  0.9786
  522SOL    HW2 2087   2.954   2.602   2.271 -0.9141 -1.3061  1.7934
  522SOL     MW 2088   2.935   2.523   2.277 -0.0637 -0.0618  0.0079
  523SOL     OW 2089   0.904   1.483   2.119 -0.1488  0.1284 -0.0106
  523SOL    HW1 2090   0.856   1.537   2.055 -0.8598  0.1616  3.3437
  523SOL    HW2 2091   0.945   1.422   2.055 -0.5834  1.2094 -1.2006
  523SOL     MW 2092   0.903   1.482   2.102 -0.3000  0.2754  0.2750
  524SOL     OW 2093   0.597   2.390   2.950 -0.1537  0.0640  0.2214
  524SOL    HW1 2094   0.632   2.469   2.905 -0.2611 -0.7191 -2.5311
  524SOL    HW2 2095   0.664   2.321   2.948  0.5821 -2.4903 -0.7492
  524SOL     MW 2096   0.610   2.391   2.944 -0.0708 -0.3763 -0.2698
  525SOL     OW 2097   0.449   2.227   2.082 -0.1025  0.0274 -0.5993
  525SOL    HW1 2098   0.398   2.165   2.141 -0.2672 -0.2494  0.2598
  525SOL    HW2 2099   0.519   2.184   2.042 -1.2002  1.0862  2.8890
  525SOL     MW 2100   0.452   2.213   2.085 -0.2690  0.1306 -0.0257
  526SOL     OW 2101   0.678   2.125   1.988 -0.0050 -0.1051  0.2065
  526SOL    HW1 2102   0.679   2.174   1.898 -2.6248 -0.3692 -2.2613
  526SOL    HW2 2103   0.721   2.167   2.057  1.4475 -0.9735  0.3854
  526SOL     MW 2104   0.684   2.137   1.985 -0.1590 -0.2545 -0.0955
  527SOL     OW 2105   1.324   1.989   2.092  0.2978  0.7627  0.1715
  527SOL    HW1 2106   1.352   1.972   2.178 -0.3077  1.6325 -0.8561
  527SOL    HW2 2107   1.349   1.915   2.032 -1.8471  0.7793 -1.9664
  527SOL     MW 2108   1.331   1.977   2.095 -0.0651  0.8796 -0.2461
  528SOL     OW 2109   0.672   2.952   2.920  0.3311 -0.6188 -0.5005
  528SOL    HW1 2110   0.675   3.045   2.918  0.7559 -0.1998  1.3071
  528SOL    HW2 2111   0.625   2.926   2.833 -1.9881 -2.1099 -0.1452
  528SOL     MW 2112   0.666   2.961   2.908  0.0811 -0.7603 -0.2151
  529SOL     OW 2113   1.009   2.286   1.852  1.0221 -0.1711 -0.1046
  529SOL    HW1 2114   1.025   2.296   1.951  3.2944  2.9655  0.7251
  529SOL    HW2 2115   1.075   2.346   1.816 -3.4906 -1.2739 -0.5176
  529SOL     MW 2116   1.020   2.295   1.860  0.7265  0.0972 -0.0496
  530SOL     OW 2117   1.144   2.447   3.039  0.0783 -0.0772  0.2190
  530SOL    HW1 2118   1.047   2.468   3.053 -1.4418 -2.3218 -1.5510
  530SOL    HW2 2119   1.143   2.356   3.005  2.6425 -2.3346 -0.8194
  530SOL     MW 2120   1.131   2.438   3.036  0.2160 -0.6712 -0.1515
  531SOL     OW 2121   0.994   1.901   2.612 -0.0385 -0.2809  0.0224
  531SOL    HW1 2122   0.998   1.954   2.689 -0.5254 -1.8651 -2.4048
  531SOL    HW2 2123   0.953   1.819   2.642  0.4097  0.2722  1.0199
  531SOL     MW 2124   0.989   1.897   2.626 -0.0436 -0.4170 -0.1662
  532SOL     OW 2125   1.715   0.305   2.856  0.1382  0.8593  0.1592
  532SOL    HW1 2126   1.706   0.213   2.860 -0.7188  0.4466  2.5721
  532SOL    HW2 2127   1.821   0.322   2.864  0.2326  1.4320  0.1030
  532SOL     MW 2128   1.727   0.295   2.858  0.0376  0.8804  0.4701
  533SOL     OW 2129   1.789   2.666   2.981  1.0929  0.6840  0.0488
  533SOL    HW1 2130   1.729   2.632   3.050  0.3156  1.1393  1.5789
  533SOL    HW2 2131   1.740   2.671   2.890 -2.4254 -0.7987 -1.6927
  533SOL     MW 2132   1.774   2.662   2.978  0.5262  0.5485  0.0209
  534SOL     OW 2133   1.779   2.342   2.453  0.4380 -0.1796 -0.3877
  534SOL    HW1 2134   1.713   2.283   2.491 -0.9103 -1.1138  2.4435
  534SOL    HW2 2135   1.859   2.339   2.514  0.5195 -0.5453 -1.6151
  534SOL     MW 2136   1.781   2.334   2.466  0.2709 -0.3511 -0.1761
  535SOL     OW 2137   1.828   2.340   1.957  0.1228  0.3275  0.6180
  535SOL    HW1 2138   1.801   2.369   1.868  0.7484  1.6346  1.1331
  535SOL    HW2 2139   1.923   2.344   1.942 -1.3340 -0.5530  0.4046
  535SOL     MW 2140   1.837   2.344   1.943  0.0131  0.3838  0.6578
  536SOL     OW 2141   0.455   1.844   2.016 -0.2545  0.0498 -0.0202
  536SOL    HW1 2142   0.425   1.800   1.936  0.5092 -0.9816  0.5553
  536SOL    HW2 2143   0.509   1.920   1.982 -0.2483  1.4623  2.3153
  536SOL     MW 2144   0.458   1.848   2.001 -0.1529  0.1001  0.3639
  537SOL     OW 2145   1.089   0.189   2.885 -0.3408 -0.9324 -0.0029
  537SOL    HW1 2146   1.027   0.185   2.962 -0.1705  0.0216 -2.2359
  537SOL    HW2 2147   1.100   0.278   2.858 -1.0202 -0.7790 -0.2660
  537SOL     MW 2148   1.082   0.200   2.892 -0.4079 -0.7863 -0.3322
  538SOL     OW 2149   1.376   0.058   2.968 -0.6365 -0.3998 -0.1113
  538SOL    HW1 2150   1.328   0.140   2.956  0.8429  0.5054  1.5504
  538SOL    HW2 2151   1.454   0.062   2.910 -0.3008 -2.0928 -1.3775
  538SOL     MW 2152   1.380   0.069   2.959 -0.3970 -0.5037 -0.0592
  539SOL     OW 2153   0.772   2.747   2.535 -0.2478  0.2607  0.5173
  539SOL    HW1 2154   0.851   2.795   2.574  1.6341  0.3843  1.0529
  539SOL    HW2 2155   0.814   2.656   2.520 -2.1995 -0.0693  0.0123
  539SOL     MW 2156   0.788   2.741   2.538 -0.2570  0.2334  0.5213
  540SOL     OW 2157   0.328   2.316   2.891 -0.0587  0.6221 -0.2950
  540SOL    HW1 2158   0.422   2.309   2.910  2.2210  1.4114  0.9583
  540SOL    HW2 2159   0.288   2.274   2.967 -1.6986  1.9311 -1.2575
  540SOL     MW 2160   0.335   2.309   2.904  0.0258  0.8989 -0.2567
  541SOL     OW 2161   0.156   2.907   2.185  0.1885  0.4709  0.0831
  541SOL    HW1 2162   0.183   2.852   2.109  3.2223  0.8949 -0.1530
  541SOL    HW2 2163   0.190   2.863   2.265 -1.7398 -0.8534 -0.4041
  541SOL     MW 2164   0.164   2.894   2.186  0.3343  0.3521 -0.0124
  542SOL     OW 2165   1.049   2.298   2.576  0.0132 -0.3595  0.0393
  542SOL    HW1 2166   0.992   2.221   2.599  0.8426  1.4266 -1.5941
  542SOL    HW2 2167   1.057   2.333   2.665 -1.3625  0.4627 -1.1892
  542SOL     MW 2168   1.043   2.293   2.591 -0.0589 -0.0154 -0.3383
  543SOL     OW 2169   1.433   2.497   2.740  0.0644 -0.3779  0.5327
  543SOL    HW1 2170   1.466   2.414   2.699 -0.9313 -1.3169  1.7381
  543SOL    HW2 2171   1.494   2.567   2.721  0.6761  0.8064 -2.2209
  543SOL     MW 2172   1.446   2.495   2.732  0.0137 -0.3455  0.3284
  544SOL     OW 2173   0.594   0.242   2.690 -0.3997 -0.0843 -0.2971
  544SOL    HW1 2174   0.511   0.229   2.733  4.1222 -3.1047 -1.2458
  544SOL    HW2 2175   0.600   0.171   2.629  3.4771 -0.0151  0.6311
  544SOL     MW 2176   0.584   0.231   2.688  0.7084 -0.4737 -0.2998
  545SOL     OW 2177   1.526   2.198   2.292  0.1292  0.4389  0.9659
  545SOL    HW1 2178   1.501   2.252   2.219 -0.5416  0.8794  1.0429
  545SOL    HW2 2179   1.614   2.160   2.264  0.9496 -0.9318 -0.0248
  545SOL     MW 2180   1.534   2.200   2.278  0.1489  0.3162  0.8454
  546SOL     OW 2181   2.957   2.052   0.131 -0.4602  0.3739  0.6010
  546SOL    HW1 2182   2.956   2.132   0.067 -0.9747 -0.4349  4.3912
  546SOL    HW2 2183   3.037   2.000   0.124  1.1871  0.3817  0.3755
  546SOL     MW 2184   2.967   2.056   0.122 -0.3107  0.2682  1.0713
  547SOL     OW 2185   0.261   2.980   0.113  0.1458 -0.6497 -0.0248
  547SOL    HW1 2186   0.292   3.035   0.040  1.6932  3.7190 -2.7992
  547SOL    HW2 2187   0.261   2.890   0.077 -1.2285 -1.3672 -1.0185
  547SOL     MW 2188   0.265   2.975   0.099  0.1687 -0.1680 -0.5219
  548SOL     OW 2189   0.279   2.546   0.250 -0.0529  0.2453  0.2058
  548SOL    HW1 2190   0.281   2.592   0.165 -5.0408 -2.7256 -0.6332
  548SOL    HW2 2191   0.218   2.476   0.223 -1.0880 -0.8030 -0.0510
  548SOL     MW 2192   0.271   2.543   0.235 -0.8476 -0.2850  0.0612
  549SOL     OW 2193   0.791   1.885   2.117  0.3922  0.3196 -0.3155
  549SOL    HW1 2194   0.784   1.964   2.069  2.3810 -3.8980 -1.0650
  549SOL    HW2 2195   0.785   1.905   2.212 -3.1249 -1.6168  0.9710
  549SOL     MW 2196   0.789   1.898   2.123  0.1905 -0.4924 -0.2447
  550SOL     OW 2197   1.803   1.741   2.530  0.0347 -0.2784  0.2828
  550SOL    HW1 2198   1.769   1.751   2.439 -2.6900 -0.3878 -2.9798
  550SOL    HW2 2199   1.769   1.822   2.572 -3.5127  0.6874  0.4904
  550SOL     MW 2200   1.794   1.753   2.523 -0.7928 -0.1654 -0.1203
  551SOL     OW 2201   0.895   2.314   0.207 -0.2360 -0.5449  0.1075
  551SOL    HW1 2202   0.988   2.339   0.211 -0.7831 -0.0205 -1.3150
  551SOL    HW2 2203   0.899   2.227   0.166 -1.3128 -0.0716  1.6198
  551SOL     MW 2204   0.908   2.306   0.202 -0.4503 -0.4132  0.1194
  552SOL     OW 2205   1.744   1.728   2.244  0.0910 -0.0409  0.5552
  552SOL    HW1 2206   1.657   1.695   2.260 -2.0349  0.0603 -1.6555
  552SOL    HW2 2207   1.778   1.688   2.158  2.5696 -0.9096 -1.2728
  552SOL     MW 2208   1.737   1.718   2.235  0.1375 -0.1422  0.0223
  553SOL     OW 2209   1.200   2.320   1.472 -0.7015  0.1953 -0.2406
  553SOL    HW1 2210   1.235   2.232   1.483 -1.7264  0.0458  1.4816
  553SOL    HW2 2211   1.276   2.371   1.460  0.6855 -0.5046 -1.5477
  553SOL     MW 2212   1.214   2.315   1.472 -0.6537  0.0833 -0.1858
  554SOL     OW 2213   0.561   2.892   2.683 -0.0652  0.4928  0.0014
  554SOL    HW1 2214   0.525   2.966   2.639 -1.9656  0.9113  1.3147
  554SOL    HW2 2215   0.616   2.830   2.627 -0.3437 -0.8658 -0.8420
  554SOL     MW 2216   0.564   2.894   2.670 -0.3527  0.3688  0.0634
  555SOL     OW 2217   0.613   2.439   2.580  0.2510 -0.0676 -0.2286
  555SOL    HW1 2218   0.564   2.356   2.561  1.0645 -1.3110 -2.0975
  555SOL    HW2 2219   0.696   2.448   2.520  1.8061  1.1633 -1.4982
  555SOL     MW 2220   0.618   2.429   2.570  0.5635 -0.0693 -0.6427
  556SOL     OW 2221   0.921   1.765   0.134  0.3302  0.1994 -0.2334
  556SOL    HW1 2222   0.957   1.765   0.046  1.6345  0.2562 -0.0512
  556SOL    HW2 2223   0.990   1.805   0.186  0.1078  0.7733 -0.1702
  556SOL     MW 2224   0.935   1.770   0.129  0.4730  0.2826 -0.2010
  557SOL     OW 2225   0.967   2.699   0.492  0.0662 -0.2447  0.0442
  557SOL    HW1 2226   1.023   2.682   0.420 -2.6837  2.3904  0.4528
  557SOL    HW2 2227   0.899   2.746   0.448 -0.3642 -2.1830 -0.1573
  557SOL     MW 2228   0.965   2.703   0.476 -0.3534 -0.1528  0.0716
  558SOL     OW 2229   0.286   2.147   0.015  0.2754 -0.2126  0.1847
  558SOL    HW1 2230   0.232   2.068   0.035  0.0830 -3.0114  0.8327
  558SOL    HW2 2231   0.235   2.219   0.056 -0.4340  0.9883  0.0685
  558SOL     MW 2232   0.272   2.146   0.023  0.1564 -0.4234  0.2549
  559SOL     OW 2233   1.100   2.321   2.115 -0.4703 -0.1779  0.0647
  559SOL    HW1 2234   1.128   2.409   2.150 -1.3819  0.9426  0.1599
  559SOL    HW2 2235   1.108   2.257   2.179 -1.6840 -0.7148 -3.0208
  559SOL     MW 2236   1.105   2.324   2.128 -0.7507 -0.1009 -0.3299
  560SOL     OW 2237   1.929   2.847   0.068  0.1894 -0.3140 -0.5337
  560SOL    HW1 2238   2.011   2.888   0.026  0.5240  1.2766 -1.7768
  560SOL    HW2 2239   1.893   2.780   0.008 -2.8191  0.2222 -1.1130
  560SOL     MW 2240   1.935   2.844   0.054 -0.1634 -0.0334 -0.7742
  561SOL     OW 2241   0.461   2.135   0.227 -0.1558  0.0545 -0.3270
  561SOL    HW1 2242   0.413   2.143   0.140  2.1913  2.2613 -2.0134
  561SOL    HW2 2243   0.503   2.225   0.236 -2.0969  0.7985 -5.7346
  561SOL     MW 2244   0.461   2.148   0.217 -0.1022  0.4438 -1.2630
  562SOL     OW 2245   0.835   2.183   2.231 -0.0880  0.1033  0.0057
  562SOL    HW1 2246   0.874   2.259   2.276  0.0482 -0.4546  0.7874
  562SOL    HW2 2247   0.908   2.123   2.230 -3.4401 -0.5502 -0.8894
  562SOL     MW 2248   0.849   2.185   2.237 -0.5123 -0.0565 -0.0093
  563SOL     OW 2249   1.123   0.310   0.604 -0.2947 -0.1050 -0.5525
  563SOL    HW1 2250   1.074   0.284   0.520 -0.2602  2.4850 -1.9685
  563SOL    HW2 2251   1.199   0.249   0.614  1.7570  1.1648 -0.2999
  563SOL     MW 2252   1.126   0.299   0.594 -0.0194  0.4043 -0.7060
  564SOL     OW 2253   1.057   2.574   2.291 -0.5645  0.6168 -0.3810
  564SOL    HW1 2254   1.102   2.619   2.214 -2.4547  0.5177  0.2809
  564SOL    HW2 2255   1.122   2.586   2.362  0.2812  1.9060 -1.7410
  564SOL     MW 2256   1.071   2.581   2.290 -0.7023  0.7738 -0.4731
  565SOL     OW 2257   2.886   2.702   2.637  0.5167 -0.3664 -0.0956
  565SOL    HW1 2258   2.945   2.774   2.609  0.7725  3.8807  2.3263
  565SOL    HW2 2259   2.818   2.677   2.567 -2.4993  1.0354  0.2810
  565SOL     MW 2260   2.885   2.708   2.624  0.1526  0.3789  0.2736
  566SOL     OW 2261   2.131   1.869   2.427  0.1492  0.1083 -0.0202
  566SOL    HW1 2262   2.138   1.848   2.335 -2.4640 -1.6974  0.9912
  566SOL    HW2 2263   2.158   1.965   2.434 -1.0152 -1.6419 -2.4166
  566SOL     MW 2264   2.135   1.878   2.416 -0.3492 -0.3609 -0.2029
  567SOL     OW 2265   1.158   2.971   2.983  1.1516  0.0960 -0.7297
  567SOL    HW1 2266   1.226   3.048   2.981 -1.4659  1.0022  0.9727
  567SOL    HW2 2267   1.203   2.890   2.951  1.7073 -0.1908 -3.7068
  567SOL     MW 2268   1.173   2.971   2.979  0.8795  0.1777 -0.8979
  568SOL     OW 2269   1.616   2.105   2.901  0.5759  0.3196 -0.3960
  568SOL    HW1 2270   1.679   2.159   2.945  0.7767 -2.5378 -2.0869
  568SOL    HW2 2271   1.668   2.040   2.851  0.7579  0.7834  0.1491
  568SOL     MW 2272   1.631   2.104   2.900  0.6264  0.0038 -0.5472
  569SOL     OW 2273   0.213   2.243   2.476  0.0146  0.2542 -0.1266
  569SOL    HW1 2274   0.151   2.279   2.405 -0.2356 -1.8586  2.1892
  569SOL    HW2 2275   0.236   2.326   2.526  0.6252  1.6050 -0.0979
  569SOL     MW 2276   0.208   2.259   2.473  0.0622  0.1536  0.1827
  570SOL     OW 2277   1.469   0.417   0.485 -0.2887 -0.6088 -0.2062
  570SOL    HW1 2278   1.378   0.446   0.500 -1.4865  0.8729  0.2752
  570SOL    HW2 2279   1.536   0.445   0.547  2.9056 -0.8601 -1.9319
  570SOL     MW 2280   1.466   0.425   0.495 -0.0253 -0.4465 -0.3704
  571SOL     OW 2281   1.483   2.398   1.987 -0.3332  0.3098 -0.1471
  571SOL    HW1 2282   1.529   2.419   2.069  0.3830  0.1199  2.4605
  571SOL    HW2 2283   1.486   2.305   1.968  1.2534 -2.0718 -1.7348
  571SOL     MW 2284   1.489   2.389   1.995 -0.0294 -0.0295 -0.0126
  572SOL     OW 2285   0.922   2.576   0.030 -0.0158  0.4192  0.0415
  572SOL    HW1 2286   0.882   2.641  -0.023 -1.8307 -0.7902 -0.9976
  572SOL    HW2 2287   0.848   2.536   0.072  0.6449  0.3033 -0.1029
  572SOL     MW 2288   0.907   2.579   0.029 -0.1681  0.2443 -0.1146
  573SOL     OW 2289   1.194   2.368   0.265  0.4338 -0.3876 -0.0097
  573SOL    HW1 2290   1.278   2.351   0.214 -2.1389  2.5232  1.8735
  573SOL    HW2 2291   1.173   2.460   0.257 -0.1825  1.4503  0.1358
  573SOL     MW 2292   1.202   2.378   0.257  0.0130  0.2390  0.2580
  574SOL     OW 2293   1.087   2.639   0.247  0.7713  0.2340 -0.4228
  574SOL    HW1 2294   1.146   2.710   0.249 -0.1107 -2.8777  1.0215
  574SOL    HW2 2295   1.045   2.624   0.163  0.6868  1.6053  2.5008
  574SOL     MW 2296   1.089   2.646   0.236  0.6438  0.0044  0.1535
  575SOL     OW 2297   0.017   2.329   1.785  0.8015 -0.1759 -0.0673
  575SOL    HW1 2298   0.013   2.253   1.726  0.0101 -0.6142  1.4191
  575SOL    HW2 2299   0.072   2.392   1.736  0.0147  2.8311  0.7089
  575SOL     MW 2300   0.024   2.328   1.770  0.5932  0.1630  0.2312
  576SOL     OW 2301   2.882   1.797   2.040 -0.4769 -0.1976  0.4213
  576SOL    HW1 2302   2.914   1.883   2.003  1.1762  1.1856 -0.2322
  576SOL    HW2 2303   2.798   1.791   1.991 -0.6657 -0.7565 -0.3211
  576SOL     MW 2304   2.875   1.808   2.029 -0.2837 -0.0888  0.2371
  577SOL     OW 2305   2.122   0.227   0.064 -0.2745 -0.4187  0.1190
  577SOL    HW1 2306   2.052   0.257   0.003 -2.3803  0.2938  0.2784
  577SOL    HW2 2307   2.084   0.217   0.159 -0.3175  0.4443 -0.7587
  577SOL     MW 2308   2.108   0.230   0.068 -0.5580 -0.2108  0.0242
  578SOL     OW 2309   1.924   2.025   2.431 -0.0965 -0.1314  0.0437
  578SOL    HW1 2310   1.871   2.015   2.354 -0.4209 -2.3958 -0.4066
  578SOL    HW2 2311   1.977   1.946   2.432  1.4194  0.9453 -1.0530
  578SOL     MW 2312   1.924   2.014   2.421  0.0607 -0.2881 -0.1604
  579SOL     OW 2313   0.871   2.499   2.490  0.3081 -0.0953 -0.4373
  579SOL    HW1 2314   0.931   2.445   2.548 -0.4235 -2.6233  1.0892
  579SOL    HW2 2315   0.923   2.529   2.412 -0.2419 -0.3668 -1.4537
  579SOL     MW 2316   0.886   2.496   2.487  0.1390 -0.4647 -0.3700
  580SOL     OW 2317   0.910   2.999   0.014  0.4996  0.2780 -0.5382
  580SOL    HW1 2318   1.000   2.991  -0.028  0.3005  0.3026  0.6393
  580SOL    HW2 2319   0.845   2.983  -0.058 -1.6917 -0.6479 -0.1311
  580SOL     MW 2320   0.913   2.996  -0.001  0.1842  0.1591 -0.3292
  581SOL     OW 2321   1.163   2.458   1.709  0.8175 -0.0882 -0.1508
  581SOL    HW1 2322   1.250   2.468   1.754  1.2360  1.2035 -0.1227
  581SOL    HW2 2323   1.162   2.390   1.644 -0.4161  1.3297  0.3614
  581SOL     MW 2324   1.174   2.451   1.706  0.7099  0.2693 -0.0795
  582SOL     OW 2325   3.070   2.875   2.544 -0.0024  0.2151 -0.0048
  582SOL    HW1 2326   3.030   2.943   2.600  3.2184  0.4348 -0.8495
  582SOL    HW2 2327   3.162   2.896   2.542 -1.0338 -0.6707  1.1316
  582SOL     MW 2328   3.077   2.887   2.551  0.2865  0.1272  0.0337
  583SOL     OW 2329   2.008   2.364   2.692  0.3824  0.0824  0.5473
  583SOL    HW1 2330   2.090   2.375   2.640  3.4298 -2.3268  1.1549
  583SOL    HW2 2331   1.986   2.270   2.692  0.0851  0.5264  0.1672
  583SOL     MW 2332   2.016   2.353   2.685  0.7452 -0.1769  0.5773
  584SOL     OW 2333   0.178   1.870   2.126  0.2906 -0.5053  0.9624
  584SOL    HW1 2334   0.263   1.830   2.119 -1.1345  4.1587 -2.5389
  584SOL    HW2 2335   0.202   1.936   2.192  2.4821 -0.9994  1.5546
  584SOL     MW 2336   0.192   1.873   2.134  0.3917  0.0449  0.5785
  585SOL     OW 2337   1.438   2.643   0.128  0.1024  0.1795  0.9107
  585SOL    HW1 2338   1.406   2.609   0.040  0.6476 -1.9146 -2.9350
  585SOL    HW2 2339   1.365   2.681   0.169  0.3599 -1.3044 -0.7569
  585SOL     MW 2340   1.424   2.644   0.122  0.2083 -0.2926  0.1833
  586SOL     OW 2341   1.409   2.808   2.498 -0.4509  0.4701  0.7940
  586SOL    HW1 2342   1.460   2.767   2.429 -1.0309 -0.8531  1.3572
  586SOL    HW2 2343   1.423   2.896   2.481 -1.5491 -1.0262 -2.6370
  586SOL     MW 2344   1.418   2.814   2.487 -0.6723  0.0981  0.4156
  587SOL     OW 2345   1.316   1.570   2.193  0.1927  0.0943  0.0218
  587SOL    HW1 2346   1.289   1.482   2.224 -2.1506 -0.0738 -0.3718
  587SOL    HW2 2347   1.268   1.584   2.114  0.5316 -0.7612  0.9787
  587SOL     MW 2348   1.306   1.560   2.187 -0.0718 -0.0408  0.0961
  588SOL     OW 2349   1.398   2.145   2.759  0.0401 -0.0921  0.5689
  588SOL    HW1 2350   1.479   2.128   2.816 -3.4658  3.5679 -1.0274
  588SOL    HW2 2351   1.335   2.143   2.829 -1.5546 -1.5585 -0.9846
  588SOL     MW 2352   1.400   2.142   2.776 -0.6329  0.1974  0.1533
  589SOL     OW 2353   1.278   2.054   0.067 -0.1315 -0.2654 -0.1944
  589SOL    HW1 2354   1.311   2.138   0.102 -0.7113  1.0140 -0.5040
  589SOL    HW2 2355   1.246   2.010   0.146 -0.2718  1.4063  0.0056
  589SOL     MW 2356   1.278   2.059   0.082 -0.2265  0.1240 -0.2088
  590SOL     OW 2357   0.427   2.688   2.219 -0.3622  0.5786  0.0353
  590SOL    HW1 2358   0.416   2.668   2.124 -0.0752  0.0445  2.0756
  590SOL    HW2 2359   0.505   2.747   2.216 -0.3211  1.2050  2.6075
  590SOL     MW 2360   0.436   2.693   2.206 -0.3189  0.5908  0.6439
  591SOL     OW 2361   2.282   0.711   3.096 -0.2549 -0.2770  0.4510
  591SOL    HW1 2362   2.223   0.779   3.067  1.6971 -0.6185  1.9163
  591SOL    HW2 2363   2.377   0.736   3.058  2.8784  0.9442 -0.6640
  591SOL     MW 2364   2.287   0.723   3.087  0.4161 -0.1610  0.4972
  592SOL     OW 2365   1.795   2.965   0.835 -0.0133  0.9301  0.0912
  592SOL    HW1 2366   1.791   3.042   0.775  0.7820  3.3426  1.5239
  592SOL    HW2 2367   1.847   2.898   0.790 -0.9367 -1.7102  0.0953
  592SOL     MW 2368   1.802   2.966   0.821 -0.0302  0.9001  0.2807
  593SOL     OW 2369   1.940   0.697   0.883  0.8092  0.5013 -0.1263
  593SOL    HW1 2370   1.860   0.717   0.838  0.6786 -0.6473  0.5411
  593SOL    HW2 2371   1.926   0.612   0.924  0.3105  0.2559 -1.4073
  593SOL     MW 2372   1.928   0.688   0.883  0.7261  0.3173 -0.2073
  594SOL     OW 2373   2.823   1.166   1.352  0.3394 -0.3497 -0.5137
  594SOL    HW1 2374   2.907   1.167   1.402  0.9969  2.6091  0.6421
  594SOL    HW2 2375   2.850   1.120   1.270  1.2475 -2.1372 -1.0493
  594SOL     MW 2376   2.838   1.160   1.348  0.5460 -0.1952 -0.4319
  595SOL     OW 2377   0.491   0.957   0.794 -0.2245  0.3624  0.3697
  595SOL    HW1 2378   0.508   1.014   0.723 -0.2699 -1.6672 -0.1346
  595SOL    HW2 2379   0.507   1.014   0.872 -1.3096 -0.2635  5.1457
  595SOL     MW 2380   0.495   0.972   0.795 -0.3737  0.0121  0.9333
  596SOL     OW 2381   2.481   1.346   0.550 -0.1665 -0.5045  0.1907
  596SOL    HW1 2382   2.549   1.408   0.509  1.2245  3.5154 -0.4743
  596SOL    HW2 2383   2.528   1.285   0.614  0.6898  0.0392  2.0635
  596SOL     MW 2384   2.496   1.346   0.553  0.1300  0.0976  0.3500
  597SOL     OW 2385   2.184   0.712   1.571 -0.4805  0.1731  0.1673
  597SOL    HW1 2386   2.194   0.668   1.657 -0.8046  0.9053  0.2160
  597SOL    HW2 2387   2.118   0.652   1.519  2.0364 -0.2684 -0.8197
  597SOL     MW 2388   2.176   0.698   1.575 -0.1912  0.2115  0.0435
  598SOL     OW 2389   2.602   0.980   2.841 -0.1125  0.4331 -0.2560
  598SOL    HW1 2390   2.607   0.977   2.742 -1.4034 -1.1977  1.9235
  598SOL    HW2 2391   2.680   1.029   2.864 -0.6988 -0.4862 -0.4754
  598SOL     MW 2392   2.613   0.986   2.831 -0.3601  0.0966  0.0026
  599SOL     OW 2393   2.960   0.432   2.052  0.2265  0.6565 -0.3490
  599SOL    HW1 2394   2.937   0.450   2.144  0.6199  1.0074 -0.8829
  599SOL    HW2 2395   3.000   0.520   2.019 -1.6454  0.3419 -0.6561
  599SOL     MW 2396   2.962   0.446   2.060  0.0314  0.6613 -0.4600
  600SOL     OW 2397   1.934   1.675   0.857  0.1491 -0.8412 -0.0336
  600SOL    HW1 2398   1.943   1.681   0.951 -1.4968 -1.3996  1.0994
  600SOL    HW2 2399   1.835   1.676   0.855  0.1620 -0.7074  2.9029
  600SOL     MW 2400   1.922   1.676   0.869 -0.0664 -0.8972  0.5033
  601SOL     OW 2401   2.534   0.812   0.832 -0.2377  0.8067 -0.8141
  601SOL    HW1 2402   2.542   0.818   0.929  1.0671 -0.9754  3.5920
  601SOL    HW2 2403   2.453   0.760   0.816  0.2455 -2.0659  2.8820
  601SOL     MW 2404   2.525   0.806   0.843 -0.0018  0.1926  0.2549
  602SOL     OW 2405   2.325   1.930   0.841  0.5750 -0.2882  0.3822
  602SOL    HW1 2406   2.292   1.840   0.857  0.3532  0.4042  0.3716
  602SOL    HW2 2407   2.244   1.976   0.818  0.6367  0.2090 -1.7878
  602SOL     MW 2408   2.310   1.924   0.840  0.5539 -0.1312  0.0945
  603SOL     OW 2409   3.068   1.403   1.815 -0.1735 -0.0905 -0.5180
  603SOL    HW1 2410   3.143   1.446   1.858  1.1755  0.0320  1.1149
  603SOL    HW2 2411   3.057   1.311   1.836 -1.3025  1.3993  0.5899
  603SOL     MW 2412   3.076   1.397   1.824 -0.1445  0.1222 -0.1564
  604SOL     OW 2413   2.162   1.569   0.481  0.0110  0.5488  0.1718
  604SOL    HW1 2414   2.197   1.501   0.543 -1.5020 -1.0454  0.5868
  604SOL    HW2 2415   2.085   1.615   0.529  0.7122 -0.1489 -1.2686
  604SOL     MW 2416   2.156   1.566   0.495 -0.0961  0.2464  0.0365
  605SOL     OW 2417   2.611   1.554   0.826  0.0853 -0.2291  0.0993
  605SOL    HW1 2418   2.568   1.630   0.784 -2.4886  1.8824  0.3378
  605SOL    HW2 2419   2.585   1.478   0.774  1.6625 -2.4941 -0.7327
  605SOL     MW 2420   2.601   1.554   0.813 -0.0462 -0.2494  0.0210
  606SOL     OW 2421   2.568   1.842   1.912 -0.9183 -0.4373  0.7237
  606SOL    HW1 2422   2.475   1.831   1.910 -0.0611  0.7669  0.0581
  606SOL    HW2 2423   2.611   1.761   1.881 -0.4367 -1.0121 -0.1419
  606SOL     MW 2424   2.562   1.830   1.908 -0.7417 -0.3543  0.5217
  607SOL     OW 2425   2.374   1.047   3.043  0.5066  0.4341 -0.3042
  607SOL    HW1 2426   2.458   1.041   3.000  0.5638 -1.4426  2.5548
  607SOL    HW2 2427   2.389   1.035   3.143  0.6276 -0.1042  1.0653
  607SOL     MW 2428   2.387   1.045   3.051  0.5301  0.1155  0.2537
  608SOL     OW 2429   1.888   0.286   0.639  0.1887 -0.0785  0.0208
  608SOL    HW1 2430   1.905   0.333   0.555 -2.5485 -1.8654  0.9888
  608SOL    HW2 2431   1.858   0.198   0.608  2.2013 -2.1982  0.0437
  608SOL     MW 2432   1.886   0.281   0.624  0.0931 -0.5940  0.1515
  609SOL     OW 2433   2.054   2.028   3.054 -0.8151  0.1874  0.1140
  609SOL    HW1 2434   1.993   1.962   3.024 -0.7932 -1.0712 -1.1258
  609SOL    HW2 2435   2.091   1.977   3.128 -1.4334  1.5776 -1.1459
  609SOL     MW 2436   2.051   2.012   3.060 -0.8938  0.2048 -0.2158
  610SOL     OW 2437   1.789   0.999   1.270 -0.3123 -0.5532  0.1730
  610SOL    HW1 2438   1.779   0.912   1.228  0.4614  0.5297  1.3377
  610SOL    HW2 2439   1.701   1.040   1.270 -1.0303 -0.3436  1.8557
  610SOL     MW 2440   1.776   0.993   1.264 -0.3050 -0.3826  0.5487
  611SOL     OW 2441   2.529   1.782   0.677 -0.2727  0.2249 -0.1738
  611SOL    HW1 2442   2.499   1.832   0.751 -0.4984 -0.7006  1.1134
  611SOL    HW2 2443   2.486   1.804   0.597 -0.9241  2.0378 -0.9465
  611SOL     MW 2444   2.519   1.792   0.676 -0.3884  0.3420 -0.1059
  612SOL     OW 2445   2.792   2.835   0.419 -0.0088 -0.0394  0.1497
  612SOL    HW1 2446   2.806   2.876   0.506 -1.8294  1.5126 -1.1953
  612SOL    HW2 2447   2.881   2.811   0.392  0.3259 -0.1894  2.1804
  612SOL     MW 2448   2.806   2.837   0.427 -0.2049  0.1456  0.2402
  613SOL     OW 2449   1.493   1.017   0.956 -0.0535 -0.5954  0.4878
  613SOL    HW1 2450   1.528   1.102   0.968 -0.7731 -1.5998 -2.2661
  613SOL    HW2 2451   1.488   0.977   1.042  0.6502 -2.4506  0.0528
  613SOL     MW 2452   1.497   1.023   0.969 -0.0556 -0.9727  0.0671
  614SOL     OW 2453   2.007   0.557   1.460  0.2034  0.3238 -0.6365
  614SOL    HW1 2454   2.000   0.465   1.489 -4.3428  0.3841 -1.1888
  614SOL    HW2 2455   1.976   0.565   1.369 -1.6600  2.4274  0.6442
  614SOL     MW 2456   2.002   0.546   1.451 -0.6422  0.6093 -0.5404
  615SOL     OW 2457   2.379   0.717   0.292  0.1574 -0.2734 -0.4857
  615SOL    HW1 2458   2.435   0.648   0.327  1.2691  0.7863 -0.7893
  615SOL    HW2 2459   2.349   0.698   0.204  0.8894  2.8339  0.1014
  615SOL     MW 2460   2.382   0.706   0.285  0.4006  0.2764 -0.4483
  616SOL     OW 2461   2.492   0.432   1.588  0.0011 -0.8244  0.3220
  616SOL    HW1 2462   2.451   0.354   1.558 -2.0466  0.7167 -1.3620
  616SOL    HW2 2463   2.465   0.496   1.518  0.1285 -1.8644 -1.7693
  616SOL     MW 2464   2.483   0.430   1.575 -0.2523 -0.7583 -0.1761
  617SOL     OW 2465   2.925   0.569   1.735 -0.2593  0.6315  0.2646
  617SOL    HW1 2466   2.831   0.590   1.753  0.4331 -0.9738  2.2678
  617SOL    HW2 2467   2.939   0.475   1.730 -2.0079  1.4436 -1.0812
  617SOL     MW 2468   2.914   0.559   1.737 -0.3987  0.5268  0.3513
  618SOL     OW 2469   2.772   0.362   1.880  0.4422  0.5842 -0.6425
  618SOL    HW1 2470   2.691   0.410   1.888 -0.2695 -0.9558  0.6469
  618SOL    HW2 2471   2.836   0.393   1.943  0.6304  0.2018 -0.6130
  618SOL     MW 2472   2.770   0.373   1.889  0.3731  0.3306 -0.4685
  619SOL     OW 2473   2.681   0.667   0.122 -0.1866  0.2855  0.0440
  619SOL    HW1 2474   2.695   0.760   0.146 -1.0003 -0.2249  3.5235
  619SOL    HW2 2475   2.646   0.628   0.201 -2.0466 -2.0185 -1.1806
  619SOL     MW 2476   2.678   0.674   0.136 -0.5394 -0.0858  0.3415
  620SOL     OW 2477   2.295   1.036   1.006 -0.3851  0.4426  0.8794
  620SOL    HW1 2478   2.341   1.091   0.946  0.3488 -2.0052 -2.5673
  620SOL    HW2 2479   2.232   0.991   0.949 -1.9137 -1.0122 -0.8273
  620SOL     MW 2480   2.293   1.037   0.991 -0.4900 -0.0723  0.1995
  621SOL     OW 2481   1.521   2.129   1.960 -0.0193 -0.3697  0.0026
  621SOL    HW1 2482   1.468   2.078   2.027  2.7748 -0.6502 -1.2250
  621SOL    HW2 2483   1.606   2.077   1.959 -1.5365 -0.8519  2.2360
  621SOL     MW 2484   1.525   2.115   1.969  0.1492 -0.4703  0.1353
  622SOL     OW 2485   2.628   0.160   0.268  0.3161 -0.0027 -0.3908
  622SOL    HW1 2486   2.721   0.173   0.274 -1.1883 -1.2425 -0.5927
  622SOL    HW2 2487   2.621   0.070   0.296  0.6031  1.7297  1.8879
  622SOL     MW 2488   2.640   0.149   0.272  0.1555  0.0623 -0.1168
  623SOL     OW 2489   2.326   2.823   0.851 -0.3883 -0.0597 -0.4800
  623SOL    HW1 2490   2.395   2.887   0.876 -2.4499 -1.6483  0.0835
  623SOL    HW2 2491   2.254   2.845   0.919  1.2205  0.5576  1.0798
  623SOL     MW 2492   2.325   2.834   0.864 -0.4481 -0.1878 -0.1998
  624SOL     OW 2493   2.184   1.732   3.005  0.3345  0.0351  0.0631
  624SOL    HW1 2494   2.151   1.650   3.043 -0.0246 -4.2689 -1.2398
  624SOL    HW2 2495   2.101   1.764   2.988  3.9304 -0.3237 -0.1129
  624SOL     MW 2496   2.169   1.725   3.008  0.7616 -0.5801 -0.1320
  625SOL     OW 2497   2.204   1.954   1.127  0.1503 -0.5838 -0.0382
  625SOL    HW1 2498   2.284   1.914   1.180  1.9256  4.5762 -0.8838
  625SOL    HW2 2499   2.222   1.950   1.033 -0.6763  1.9509 -0.8798
  625SOL     MW 2500   2.217   1.948   1.122  0.2755  0.4314 -0.2608
  626SOL     OW 2501   0.298   1.619   2.390  0.3891  0.0778 -0.0173
  626SOL    HW1 2502   0.264   1.535   2.376  3.2059  0.0994  2.1348
  626SOL    HW2 2503   0.226   1.679   2.381  0.7526  1.7080 -0.0004
  626SOL     MW 2504   0.284   1.616   2.387  0.8087  0.2957  0.2689
  627SOL     OW 2505   2.474   0.761   2.629  0.4179 -0.6787 -0.1905
  627SOL    HW1 2506   2.457   0.854   2.647 -1.5455  0.4702 -1.8882
  627SOL    HW2 2507   2.455   0.744   2.538  0.5024 -1.8850 -0.9105
  627SOL     MW 2508   2.469   0.771   2.620  0.1700 -0.6863 -0.5095
  628SOL     OW 2509   2.347   1.383   1.362  0.4739  0.6354 -0.1148
  628SOL    HW1 2510   2.320   1.295   1.331  0.7928  1.7987 -0.1156
  628SOL    HW2 2511   2.445   1.383   1.357 -1.9031  1.6809  0.9699
  628SOL     MW 2512   2.357   1.372   1.358  0.2024  0.9268  0.0282
  629SOL     OW 2513   1.848   0.541   1.225 -0.1032 -0.0901  0.4664
  629SOL    HW1 2514   1.850   0.632   1.192  1.1781  1.2854  2.3988
  629SOL    HW2 2515   1.758   0.524   1.259 -2.0363 -0.4861  2.9056
  629SOL     MW 2516   1.836   0.551   1.225 -0.1892  0.0391  1.0432
  630SOL     OW 2517   2.450   1.786   2.987  0.2972 -0.1859 -0.2659
  630SOL    HW1 2518   2.463   1.874   2.969 -2.0580 -0.5728  0.9776
  630SOL    HW2 2519   2.353   1.768   3.004 -0.7216 -1.1166 -1.7717
  630SOL     MW 2520   2.439   1.796   2.987 -0.1479 -0.3597 -0.3005
  631SOL     OW 2521   1.979   1.836   1.578  0.2049 -0.1306 -0.4771
  631SOL    HW1 2522   2.001   1.755   1.624  0.1703  0.0616  2.7899
  631SOL    HW2 2523   1.948   1.802   1.492  0.2033  0.1975 -2.2255
  631SOL     MW 2524   1.978   1.821   1.573  0.2001 -0.0620 -0.2767
  632SOL     OW 2525   0.139   1.978   1.458  0.2012 -0.3899 -0.6753
  632SOL    HW1 2526   0.089   2.002   1.538  0.7532  0.3452  2.5200
  632SOL    HW2 2527   0.126   1.887   1.449 -2.8026 -0.8347 -0.3654
  632SOL     MW 2528   0.131   1.969   1.467 -0.1223 -0.3516 -0.2128
  633SOL     OW 2529   2.598   0.512   0.361 -0.1269 -0.1876 -0.2594
  633SOL    HW1 2530   2.670   0.523   0.428 -1.3766 -1.0495  1.1108
  633SOL    HW2 2531   2.550   0.429   0.377 -0.0395 -1.4341 -0.4306
  633SOL     MW 2532   2.601   0.503   0.372 -0.2803 -0.4658 -0.1012
  634SOL     OW 2533   2.691   3.074   0.615 -0.2647 -0.0671  0.0115
  634SOL    HW1 2534   2.738   3.156   0.616  0.6880  0.6813 -1.0242
  634SOL    HW2 2535   2.643   3.072   0.532  0.3492 -0.4335  0.1384
  634SOL     MW 2536   2.691   3.085   0.604 -0.0580 -0.0167 -0.1084
  635SOL     OW 2537   2.630   0.128   1.825  0.2266  0.3407 -0.3304
  635SOL    HW1 2538   2.678   0.047   1.794 -0.1933 -1.7268 -3.3425
  635SOL    HW2 2539   2.689   0.193   1.850  0.3141  0.5896 -0.0174
  635SOL     MW 2540   2.644   0.126   1.824  0.1827  0.1008 -0.6865
  636SOL     OW 2541   2.894   1.608   1.119 -0.5904 -0.5337 -0.3049
  636SOL    HW1 2542   2.809   1.649   1.134 -0.8810 -0.6472 -1.0915
  636SOL    HW2 2543   2.956   1.680   1.087  1.9872 -1.2458 -0.7692
  636SOL     MW 2544   2.891   1.623   1.116 -0.2887 -0.6426 -0.4699
  637SOL     OW 2545   2.892   1.491   0.718  0.1716 -0.1814  0.5384
  637SOL    HW1 2546   2.957   1.562   0.709  0.2562  1.7626 -0.8363
  637SOL    HW2 2547   2.825   1.529   0.777 -0.2773  0.1486 -1.1468
  637SOL     MW 2548   2.892   1.505   0.724  0.1236  0.1186  0.1347
  638SOL     OW 2549   2.789   0.495   0.561 -0.3349 -0.1270 -0.5247
  638SOL    HW1 2550   2.879   0.528   0.539  1.2940  0.9670  0.8184
  638SOL    HW2 2551   2.769   0.544   0.639 -1.5701 -0.1508  1.6104
  638SOL     MW 2552   2.798   0.506   0.568 -0.2829  0.0142 -0.0658
  639SOL     OW 2553   1.773   0.041   0.623 -0.3075 -0.4863  0.6477
  639SOL    HW1 2554   1.682   0.070   0.600  0.3608 -1.5047  1.7348
  639SOL    HW2 2555   1.794  -0.027   0.551 -1.3885 -0.6648 -1.9527
  639SOL     MW 2556   1.764   0.036   0.611 -0.3619 -0.6443  0.4480
  640SOL     OW 2557   0.371   1.304   0.121 -0.3069  0.1894 -0.2778
  640SOL    HW1 2558   0.379   1.328   0.029  0.9543  0.9893  0.8290
  640SOL    HW2 2559   0.313   1.227   0.122 -1.2701  1.4877 -0.6694
  640SOL     MW 2560   0.364   1.297   0.109 -0.2676  0.4662 -0.1835
  641SOL     OW 2561   2.155   0.413   0.327 -0.2899  0.1044  0.5537
  641SOL    HW1 2562   2.217   0.415   0.253  0.1045 -1.8733 -1.7731
  641SOL    HW2 2563   2.178   0.329   0.370 -3.2630 -0.5180 -1.2597
  641SOL     MW 2564   2.166   0.402   0.323 -0.6301 -0.2387  0.0075
  642SOL     OW 2565   0.061   3.084   0.589 -0.5025 -0.2412 -0.2880
  642SOL    HW1 2566   0.037   3.159   0.532 -0.0220 -0.7451 -0.5941
  642SOL    HW2 2567  -0.020   3.028   0.601  0.0327 -1.9259  1.9814
  642SOL     MW 2568   0.047   3.086   0.583 -0.3685 -0.5300 -0.0290
  643SOL     OW 2569   2.051   0.334   1.640 -0.4791  0.2309 -0.0028
  643SOL    HW1 2570   1.990   0.286   1.698 -0.9748 -1.2407 -0.2659
  643SOL    HW2 2571   2.080   0.260   1.592 -2.3074 -1.8819 -0.9206
  643SOL     MW 2572   2.047   0.318   1.641 -0.7857 -0.2420 -0.1586
  644SOL     OW 2573   2.740   2.035   1.036  0.0755  0.1889  0.1600
  644SOL    HW1 2574   2.741   1.965   1.097  0.9434  1.7630  0.0031
  644SOL    HW2 2575   2.650   2.058   1.020  1.4069 -3.5111  0.2260
  644SOL     MW 2576   2.729   2.029   1.042  0.3657 -0.0916  0.1480
  645SOL     OW 2577   2.877   0.825   0.671 -0.0898  0.1221  0.0400
  645SOL    HW1 2578   2.968   0.807   0.684  1.2699  1.1943 -1.7636
  645SOL    HW2 2579   2.834   0.753   0.709  0.0940  1.0295 -1.6673
  645SOL     MW 2580   2.883   0.813   0.677  0.1138  0.3833 -0.4232
  646SOL     OW 2581   0.173   2.317   0.799 -0.1107  0.0528  0.5966
  646SOL    HW1 2582   0.173   2.221   0.813 -1.4587 -0.3984 -2.0808
  646SOL    HW2 2583   0.105   2.308   0.733 -0.4430  0.6701  4.2454
  646SOL     MW 2584   0.164   2.303   0.792 -0.3324  0.0747  0.7247
  647SOL     OW 2585   2.666   0.479   2.968  0.0051 -0.2770 -0.1298
  647SOL    HW1 2586   2.628   0.439   3.045 -0.3265 -1.8014 -1.6109
  647SOL    HW2 2587   2.636   0.570   2.969  2.2602  0.9435  1.1153
  647SOL     MW 2588   2.657   0.486   2.978  0.2589 -0.3171 -0.1610
  648SOL     OW 2589   2.130   0.742   1.216 -0.3891  0.2665  0.5812
  648SOL    HW1 2590   2.079   0.773   1.140 -0.8127 -0.3425 -2.2945
  648SOL    HW2 2591   2.136   0.811   1.283 -1.9093 -2.3062 -1.8929
  648SOL     MW 2592   2.124   0.755   1.215 -0.6456 -0.1533 -0.1247
  649SOL     OW 2593   2.352   2.707   1.269  0.1163 -0.3760 -0.3334
  649SOL    HW1 2594   2.427   2.759   1.261 -0.0873  0.8452  1.3065
  649SOL    HW2 2595   2.378   2.614   1.257  0.7139 -3.9439 -1.5484
  649SOL     MW 2596   2.365   2.701   1.267  0.1683 -0.6856 -0.2773
  650SOL     OW 2597   2.821   0.211   0.627  0.3374 -0.0219  0.0635
  650SOL    HW1 2598   2.794   0.303   0.636  3.0797  0.3207  0.1572
  650SOL    HW2 2599   2.880   0.225   0.549 -4.6002  2.3288 -0.8582
  650SOL     MW 2600   2.825   0.225   0.618  0.0478  0.3335 -0.0458
  651SOL     OW 2601   2.971   0.398   0.857  0.1619  0.1561  0.8536
  651SOL    HW1 2602   3.033   0.454   0.804 -2.5780 -0.7356 -1.4044
  651SOL    HW2 2603   2.944   0.456   0.929  2.4206 -1.2190  0.4040
  651SOL     MW 2604   2.975   0.413   0.859  0.0984 -0.1430  0.4963
  652SOL     OW 2605   2.438   1.525   2.969  0.1836  0.9453  0.4378
  652SOL    HW1 2606   2.496   1.510   2.897 -0.6086  2.2636  0.2043
  652SOL    HW2 2607   2.443   1.618   2.982  1.2493 -2.0777 -2.4297
  652SOL     MW 2608   2.446   1.535   2.961  0.2197  0.7204  0.0287
  653SOL     OW 2609   1.910   0.427   0.381 -0.6417 -0.0842 -0.0256
  653SOL    HW1 2610   1.864   0.372   0.319 -0.1924 -0.5889 -0.4923
  653SOL    HW2 2611   2.001   0.416   0.355 -1.0019 -0.8523  2.3369
  653SOL     MW 2612   1.916   0.418   0.370 -0.6300 -0.2521  0.2245
  654SOL     OW 2613   2.400   1.027   0.745 -0.2468 -0.5729  0.2943
  654SOL    HW1 2614   2.346   1.002   0.670  0.9987 -1.3230 -1.6003
  654SOL    HW2 2615   2.450   0.950   0.768 -0.3870  0.3011 -1.0584
  654SOL     MW 2616   2.400   1.013   0.738 -0.1010 -0.5565 -0.1342
  655SOL     OW 2617   2.889   0.832   0.353 -0.0569 -0.4262 -0.4088
  655SOL    HW1 2618   2.850   0.842   0.441  2.2760 -2.2518  0.7330
  655SOL    HW2 2619   2.917   0.737   0.352  0.8917  0.6050  0.0665
  655SOL     MW 2620   2.887   0.821   0.364  0.3760 -0.5310 -0.1955
  656SOL     OW 2621   1.844   2.724   1.322  0.2940 -0.0607  0.1759
  656SOL    HW1 2622   1.868   2.800   1.269 -1.1903 -0.4510  2.3933
  656SOL    HW2 2623   1.924   2.682   1.360 -1.6695  0.2579 -1.6012
  656SOL     MW 2624   1.858   2.729   1.320 -0.1609 -0.0702  0.2340
  657SOL     OW 2625   0.147   1.715   1.240 -0.2176  0.3454 -0.7205
  657SOL    HW1 2626   0.201   1.780   1.186  2.9057 -1.4034  1.6758
  657SOL    HW2 2627   0.170   1.624   1.211  2.7389 -0.1682  1.0553
  657SOL     MW 2628   0.157   1.712   1.229  0.5846  0.0469 -0.1700
  658SOL     OW 2629   2.734   1.330   0.221 -0.0909  0.0534  0.0128
  658SOL    HW1 2630   2.679   1.275   0.272  1.8338  2.8744 -0.9544
  658SOL    HW2 2631   2.772   1.394   0.279 -0.1561  0.6321  0.2414
  658SOL     MW 2632   2.732   1.332   0.235  0.1544  0.5020 -0.0846
  659SOL     OW 2633   2.282   1.513   1.105  0.2217  0.0883 -0.3802
  659SOL    HW1 2634   2.379   1.500   1.094  0.2931 -0.5888 -2.6026
  659SOL    HW2 2635   2.265   1.577   1.174 -1.3515  0.9359  1.0271
  659SOL     MW 2636   2.293   1.520   1.113  0.0236  0.1108 -0.4877
  660SOL     OW 2637   2.052   1.589   1.681 -0.2083 -0.4594 -0.1112
  660SOL    HW1 2638   2.083   1.612   1.768  1.3714 -0.1732 -1.6974
  660SOL    HW2 2639   1.955   1.580   1.673  0.1746  0.8334 -0.0238
  660SOL     MW 2640   2.043   1.591   1.691  0.0507 -0.2511 -0.3089
  661SOL     OW 2641   2.405   0.995   0.223  0.4675  0.0214 -0.4085
  661SOL    HW1 2642   2.439   1.050   0.298  0.3814  0.6422  0.6452
  661SOL    HW2 2643   2.381   0.907   0.258  0.3912 -2.3562  1.2496
  661SOL     MW 2644   2.406   0.991   0.238  0.4461 -0.2104 -0.0507
  662SOL     OW 2645   2.600   2.965   0.846  0.1543  0.1951 -0.3593
  662SOL    HW1 2646   2.559   3.026   0.903  2.2711 -0.9900  0.5421
  662SOL    HW2 2647   2.617   3.005   0.760 -2.1370  0.5584 -0.5946
  662SOL     MW 2648   2.596   2.979   0.842  0.1313  0.0867 -0.2714
  663SOL     OW 2649   2.706   1.480   0.476 -0.2398  0.1807  0.3537
  663SOL    HW1 2650   2.650   1.557   0.460 -0.6609 -1.3898  0.8845
  663SOL    HW2 2651   2.763   1.484   0.555 -1.5355  0.7939  2.4461
  663SOL     MW 2652   2.706   1.491   0.484 -0.4663  0.0544  0.6998
  664SOL     OW 2653   2.507   1.521   1.603 -0.3097 -0.2995 -0.6949
  664SOL    HW1 2654   2.482   1.611   1.583 -0.6348 -2.5699  0.4952
  664SOL    HW2 2655   2.438   1.488   1.660  0.0225 -0.1775  0.1874
  664SOL     MW 2656   2.495   1.528   1.608 -0.3087 -0.5830 -0.4215
  665SOL     OW 2657   2.842   0.869   2.009  0.0489 -0.1998 -0.0287
  665SOL    HW1 2658   2.820   0.902   1.917  1.4747 -1.9629  1.4325
  665SOL    HW2 2659   2.910   0.799   1.995 -0.7298 -0.9256 -0.5606
  665SOL     MW 2660   2.848   0.864   1.995  0.1343 -0.5282  0.0939
  666SOL     OW 2661   2.758   3.008   1.711  0.1396 -0.0709  0.0788
  666SOL    HW1 2662   2.764   3.007   1.618 -1.2167 -2.8126  2.9570
  666SOL    HW2 2663   2.696   2.933   1.728  1.1394 -2.4568  2.8841
  666SOL     MW 2664   2.750   2.998   1.701  0.0925 -0.7474  0.8287
  667SOL     OW 2665   1.978   2.670   1.762 -0.0703  0.3459 -0.4232
  667SOL    HW1 2666   2.000   2.618   1.837 -2.4819  0.6893  0.4273
  667SOL    HW2 2667   2.058   2.724   1.745  1.3798  0.0916 -0.3789
  667SOL     MW 2668   1.991   2.671   1.770 -0.1972  0.3576 -0.3051
  668SOL     OW 2669   2.749   0.623   0.806  0.3682  0.3067  0.8601
  668SOL    HW1 2670   2.811   0.641   0.879  0.0366  1.8944  1.8648
  668SOL    HW2 2671   2.671   0.683   0.820 -2.9584  0.8177  2.8941
  668SOL     MW 2672   2.747   0.633   0.817 -0.1145  0.5836  1.2610
  669SOL     OW 2673   0.225   0.971   0.698  0.0976 -0.0735 -0.4890
  669SOL    HW1 2674   0.162   1.013   0.757  3.2604 -0.6789 -3.1285
  669SOL    HW2 2675   0.306   0.936   0.744  1.0666  0.7856 -3.0290
  669SOL     MW 2676   0.227   0.972   0.712  0.6428 -0.0400 -1.1724
  670SOL     OW 2677   2.897   0.230   0.233  0.2889  0.0376  0.3419
  670SOL    HW1 2678   2.926   0.185   0.149 -0.7089  1.3733 -0.0717
  670SOL    HW2 2679   2.883   0.324   0.216  2.5042  0.7595  0.3888
  670SOL     MW 2680   2.899   0.236   0.220  0.4496  0.3091  0.2935
  671SOL     OW 2681   2.033   2.956   1.467 -0.4859 -0.0732 -0.1976
  671SOL    HW1 2682   1.980   2.993   1.399 -1.3193  2.4233  1.9403
  671SOL    HW2 2683   2.008   3.006   1.546 -1.0699  1.0797 -1.4073
  671SOL     MW 2684   2.023   2.967   1.468 -0.6729  0.4083 -0.0751
  672SOL     OW 2685   1.914   1.665   1.323  0.0529 -0.0939 -0.3839
  672SOL    HW1 2686   1.830   1.704   1.345  2.0303  1.8340 -0.4409
  672SOL    HW2 2687   1.937   1.708   1.235  0.9991 -1.3710 -0.5385
  672SOL     MW 2688   1.906   1.676   1.314  0.4386 -0.0081 -0.4118
  673SOL     OW 2689   2.749   1.075   0.593 -0.0167 -0.2246  0.1657
  673SOL    HW1 2690   2.763   0.990   0.638 -1.1880  0.7533 -0.0093
  673SOL    HW2 2691   2.827   1.126   0.619  0.4224  0.8967 -0.3516
  673SOL     MW 2692   2.761   1.071   0.603 -0.1133  0.0523  0.0744
  674SOL     OW 2693   2.442   0.034   1.281 -0.4594  0.6636  0.5951
  674SOL    HW1 2694   2.440   0.030   1.182 -2.0661  0.1842  0.9177
  674SOL    HW2 2695   2.465  -0.058   1.303  2.3082  1.7205 -0.8188
  674SOL     MW 2696   2.445   0.021   1.271 -0.3062  0.7398  0.4511
  675SOL     OW 2697   3.028   0.862   1.057  0.6316  0.2815 -0.2009
  675SOL    HW1 2698   3.088   0.821   1.122 -0.8330  0.6516 -0.2680
  675SOL    HW2 2699   3.075   0.919   0.999 -1.4002 -0.0073  0.8282
  675SOL     MW 2700   3.042   0.865   1.058  0.1702  0.2922 -0.0740
  676SOL     OW 2701   2.853   1.493   1.673  0.5703  0.1505 -0.3842
  676SOL    HW1 2702   2.788   1.415   1.641 -1.9989 -1.4480 -1.6300
  676SOL    HW2 2703   2.936   1.460   1.715  2.2618  0.1365 -0.6452
  676SOL     MW 2704   2.855   1.478   1.674  0.4545 -0.0622 -0.5830
  677SOL     OW 2705   2.400   0.621   1.965 -0.3721 -0.3733  0.1197
  677SOL    HW1 2706   2.352   0.599   1.888  0.5206 -2.2811 -0.3977
  677SOL    HW2 2707   2.343   0.690   2.001  1.8890 -0.7597 -0.8431
  677SOL     MW 2708   2.386   0.627   1.960  0.0440 -0.6760 -0.0756
  678SOL     OW 2709   2.515   1.647   0.356 -0.0543  0.3675 -0.3117
  678SOL    HW1 2710   2.432   1.703   0.374 -0.4615 -0.2522 -1.0815
  678SOL    HW2 2711   2.487   1.578   0.285 -0.8558 -0.1107 -1.7954
  678SOL     MW 2712   2.500   1.645   0.349 -0.2138  0.2226 -0.6090
  679SOL     OW 2713   2.254   0.493   1.209 -0.2309 -0.3258  0.2678
  679SOL    HW1 2714   2.194   0.419   1.199 -1.0968  0.6666 -0.0923
  679SOL    HW2 2715   2.210   0.577   1.200  2.1307  0.6556  0.5566
  679SOL     MW 2716   2.240   0.494   1.207 -0.0335 -0.0653  0.2584
  680SOL     OW 2717   2.322   0.173   1.519  0.4766  0.2715 -0.0982
  680SOL    HW1 2718   2.237   0.155   1.476  4.5086 -1.2919  1.8622
  680SOL    HW2 2719   2.389   0.135   1.466 -1.1098  2.6442  1.7126
  680SOL     MW 2720   2.320   0.165   1.506  0.7993  0.3783  0.3994
  681SOL     OW 2721   0.295   0.596   1.581 -0.2069 -0.1565  0.0046
  681SOL    HW1 2722   0.293   0.507   1.604  0.3288  3.6558 -1.3278
  681SOL    HW2 2723   0.382   0.603   1.546 -0.8801  2.0183  0.0409
  681SOL     MW 2724   0.306   0.585   1.579 -0.2250  0.6334 -0.1664
  682SOL     OW 2725   0.077   2.894   1.481 -0.0246 -0.1474  0.3135
  682SOL    HW1 2726   0.100   2.983   1.451 -1.8490 -1.6138 -1.3190
  682SOL    HW2 2727   0.040   2.920   1.565  1.4106 -1.1914  0.2565
  682SOL     MW 2728   0.075   2.909   1.488 -0.0760 -0.4786  0.0906
  683SOL     OW 2729   2.059   0.878   2.995 -0.1756 -0.7982 -0.4281
  683SOL    HW1 2730   1.993   0.849   2.937 -0.4452  0.7451 -0.0130
  683SOL    HW2 2731   2.061   0.974   2.986 -0.5632 -0.7225  1.0838
  683SOL     MW 2732   2.051   0.887   2.986 -0.2623 -0.5846 -0.1739
  684SOL     OW 2733   2.222   1.694   0.885 -0.2353 -0.3557 -0.4977
  684SOL    HW1 2734   2.141   1.670   0.835  1.6296 -1.6166 -0.4841
  684SOL    HW2 2735   2.236   1.635   0.964  0.8221  1.3573  1.6796
  684SOL     MW 2736   2.213   1.683   0.889  0.1502 -0.2960 -0.2086
  685SOL     OW 2737   2.664   1.753   1.218 -0.0644  0.2614  0.2688
  685SOL    HW1 2738   2.705   1.745   1.306  1.9640  1.1488 -0.7010
  685SOL    HW2 2739   2.626   1.664   1.201  0.6576 -0.8560  2.3905
  685SOL     MW 2740   2.664   1.740   1.228  0.2985  0.2310  0.4208
  686SOL     OW 2741   2.917   0.755   1.545 -0.0611  0.2920 -0.6634
  686SOL    HW1 2742   2.906   0.691   1.615 -0.4596  2.2051 -0.5747
  686SOL    HW2 2743   2.995   0.717   1.505 -1.3619  2.7248  0.4794
  686SOL     MW 2744   2.926   0.741   1.549 -0.2853  0.8654 -0.5009
  687SOL     OW 2745   2.089   0.225   1.125  0.5863 -0.3653 -0.1387
  687SOL    HW1 2746   2.105   0.153   1.066  1.9995 -1.9059  1.2257
  687SOL    HW2 2747   2.044   0.295   1.076  0.4944  0.6830  2.8373
  687SOL     MW 2748   2.085   0.224   1.111  0.7606 -0.4303  0.4340
  688SOL     OW 2749   2.379   0.616   1.428  0.1760  0.6554  0.1309
  688SOL    HW1 2750   2.327   0.548   1.379 -2.6820  0.4041  1.8401
  688SOL    HW2 2751   2.310   0.663   1.476  2.2220 -2.2679  1.7592
  688SOL     MW 2752   2.363   0.613   1.428  0.0688  0.2365  0.5712
  689SOL     OW 2753   2.551   0.733   2.971 -0.1137  0.2406 -0.1096
  689SOL    HW1 2754   2.573   0.820   2.943 -3.0084 -0.9359  0.2419
  689SOL    HW2 2755   2.570   0.741   3.072  2.2491 -0.9535 -1.5182
  689SOL     MW 2756   2.556   0.745   2.981 -0.1839 -0.0722 -0.2491
  690SOL     OW 2757   2.075   0.932   1.924 -0.1277  0.0175  0.5489
  690SOL    HW1 2758   2.024   0.844   1.930  2.2922 -0.2208  3.5109
  690SOL    HW2 2759   2.087   0.946   1.831 -1.8069  1.5281  1.5106
  690SOL     MW 2760   2.070   0.922   1.912 -0.0300  0.1854  1.0666
  691SOL     OW 2761   2.425   0.265   0.872  0.0733  0.6897  0.3640
  691SOL    HW1 2762   2.501   0.314   0.906  1.1640 -0.8157  0.2651
  691SOL    HW2 2763   2.352   0.310   0.912 -0.5826  0.0479 -1.3005
  691SOL     MW 2764   2.425   0.278   0.882  0.1307  0.4064  0.1314
  692SOL     OW 2765   2.772   1.669   1.461 -0.2005  1.0343 -0.5144
  692SOL    HW1 2766   2.781   1.614   1.540 -0.5354  1.3869  1.2555
  692SOL    HW2 2767   2.825   1.746   1.483 -0.4974 -2.1199  3.3070
  692SOL     MW 2768   2.780   1.672   1.474 -0.2839  0.6647  0.2233
  693SOL     OW 2769   2.278   0.454   0.086 -0.6759 -0.5611 -0.0453
  693SOL    HW1 2770   2.212   0.384   0.063 -3.2931 -0.8291  0.6698
  693SOL    HW2 2771   2.266   0.545   0.036  0.1920 -1.7276  0.3319
  693SOL     MW 2772   2.268   0.457   0.076 -0.9067 -0.7504  0.0988
  694SOL     OW 2773   1.900   1.224   1.126  0.1862 -0.0539 -0.1183
  694SOL    HW1 2774   1.992   1.224   1.164  0.8818  0.7015 -2.2572
  694SOL    HW2 2775   1.866   1.139   1.160  1.8527  1.4745 -0.9000
  694SOL     MW 2776   1.908   1.213   1.136  0.4979  0.2474 -0.5037
  695SOL     OW 2777   3.023   1.480   1.363 -0.1509  0.1139 -0.0431
  695SOL    HW1 2778   3.013   1.450   1.277  0.1710 -0.3417  1.5169
  695SOL    HW2 2779   2.951   1.536   1.383 -0.0972  1.2827 -1.0004
  695SOL     MW 2780   3.012   1.483   1.355 -0.1013  0.2080  0.0364
  696SOL     OW 2781   2.144   1.378   0.879  0.3763  0.1258  0.3509
  696SOL    HW1 2782   2.181   1.394   0.965  0.8898  0.3599 -4.7278
  696SOL    HW2 2783   2.086   1.303   0.891 -0.0748 -0.3488 -0.9384
  696SOL     MW 2784   2.141   1.371   0.892  0.3845  0.0941 -0.4893
  697SOL     OW 2785   2.938   1.076   2.186 -0.1831 -0.6347  0.0969
  697SOL    HW1 2786   2.884   1.149   2.187 -1.5837 -0.7737  1.4436
  697SOL    HW2 2787   2.893   1.008   2.134 -0.2214  2.8569  1.3886
  697SOL     MW 2788   2.925   1.076   2.180 -0.3729 -0.1924  0.4450
  698SOL     OW 2789   2.536   0.300   0.043  0.1169 -0.4341 -0.2721
  698SOL    HW1 2790   2.476   0.360   0.090  1.6208  0.8897  0.9403
  698SOL    HW2 2791   2.575   0.251   0.124  1.5597  0.2361  0.2071
  698SOL     MW 2792   2.533   0.301   0.060  0.5057 -0.1710 -0.0489
  699SOL     OW 2793   1.840   1.623   1.991 -0.2720 -0.4927  0.2799
  699SOL    HW1 2794   1.802   1.545   2.028 -2.6996  2.8851 -1.6737
  699SOL    HW2 2795   1.936   1.620   1.991 -0.8608  3.9167 -2.1265
  699SOL     MW 2796   1.848   1.613   1.996 -0.6700  0.5347 -0.2953
  700SOL     OW 2797   2.707   0.942   1.486 -0.0355 -0.0223 -0.0557
  700SOL    HW1 2798   2.720   1.023   1.435  1.3041  0.0175 -0.1473
  700SOL    HW2 2799   2.798   0.904   1.492  0.2164 -3.1391 -0.2520
  700SOL     MW 2800   2.720   0.947   1.480  0.1745 -0.4283 -0.0937
  701SOL     OW 2801   1.619   1.226   2.472  0.0874 -0.7644  0.0786
  701SOL    HW1 2802   1.713   1.248   2.458  0.2518  0.3873 -0.6784
  701SOL    HW2 2803   1.608   1.261   2.556 -0.9658  0.9344 -0.5759
  701SOL     MW 2804   1.630   1.234   2.481 -0.0298 -0.3883 -0.1076
  702SOL     OW 2805   2.191   0.421   0.872 -0.6532 -0.0779 -0.0974
  702SOL    HW1 2806   2.194   0.349   0.801  2.0283 -2.0320  1.3441
  702SOL    HW2 2807   2.227   0.494   0.821  0.9748 -1.1810 -1.2492
  702SOL     MW 2808   2.196   0.421   0.856 -0.0846 -0.4812 -0.0592
  703SOL     OW 2809   2.745   1.241   0.996 -0.0922  0.1694 -0.0082
  703SOL    HW1 2810   2.692   1.225   0.915  2.2496  1.3011 -0.6706
  703SOL    HW2 2811   2.743   1.161   1.045 -1.3760 -1.8510  0.6105
  703SOL     MW 2812   2.737   1.228   0.992  0.0474  0.0522 -0.0140
  704SOL     OW 2813   3.070   1.262   0.194 -0.8806 -0.4241 -0.0552
  704SOL    HW1 2814   2.990   1.221   0.148  0.5182 -0.8695 -3.5218
  704SOL    HW2 2815   3.078   1.234   0.282  1.8482 -1.6287 -0.2415
  704SOL     MW 2816   3.061   1.253   0.200 -0.3360 -0.6418 -0.5372
  705SOL     OW 2817   2.217   1.645   1.325 -0.0800  0.3389 -0.0877
  705SOL    HW1 2818   2.114   1.657   1.326  0.6318 -1.0076  0.7148
  705SOL    HW2 2819   2.229   1.546   1.343  0.0726 -2.9104  1.1219
  705SOL     MW 2820   2.205   1.634   1.328  0.0340 -0.2675  0.1778
  706SOL     OW 2821   2.987   1.210   0.688  0.7382 -0.0503 -0.0556
  706SOL    HW1 2822   3.046   1.213   0.607  0.1049 -2.1233  0.1515
  706SOL    HW2 2823   2.964   1.301   0.717  0.9028 -1.2738 -0.9245
  706SOL     MW 2824   2.992   1.222   0.681  0.6764 -0.4853 -0.1429
  707SOL     OW 2825   2.426   0.017   1.016  0.3554 -0.2229  0.0444
  707SOL    HW1 2826   2.455   0.095   0.971  0.4507 -2.8794  0.9640
  707SOL    HW2 2827   2.334   0.032   1.013 -0.4888  1.5449 -0.4402
  707SOL     MW 2828   2.418   0.029   1.009  0.2566 -0.3402  0.1018
  708SOL     OW 2829   2.508   1.473   0.132 -0.5089 -0.2216  0.6699
  708SOL    HW1 2830   2.591   1.428   0.143  0.3407 -0.3162 -0.9812
  708SOL    HW2 2831   2.481   1.480   0.039 -1.9406 -0.6911 -1.8390
  708SOL     MW 2832   2.516   1.468   0.121 -0.5857 -0.2961  0.1210
  709SOL     OW 2833   1.760   1.643   0.150  0.2786 -1.0165  0.9828
  709SOL    HW1 2834   1.711   1.689   0.077 -1.8732 -0.3072 -3.3211
  709SOL    HW2 2835   1.704   1.643   0.230 -0.9009 -1.7396  0.6982
  709SOL     MW 2836   1.746   1.649   0.151 -0.1609 -1.0183  0.3774
  710SOL     OW 2837   2.198   1.174   1.242  0.2129 -0.0513 -0.1923
  710SOL    HW1 2838   2.221   1.122   1.165 -0.1446 -1.2333  0.0633
  710SOL    HW2 2839   2.184   1.102   1.309  3.5064 -1.4253  1.5916
  710SOL     MW 2840   2.199   1.158   1.241  0.6003 -0.3885  0.0768
  711SOL     OW 2841   2.348   0.117   1.786 -0.2939 -0.2017  0.0232
  711SOL    HW1 2842   2.440   0.130   1.790 -1.7075 -0.3174  1.9442
  711SOL    HW2 2843   2.335   0.131   1.695  2.0510  4.0444  2.9213
  711SOL     MW 2844   2.358   0.120   1.774 -0.1710  0.3433  0.6591
  712SOL     OW 2845   1.923   0.520   0.043  0.2884 -0.0952  0.4892
  712SOL    HW1 2846   1.861   0.571  -0.008  1.8033  1.0145  2.0098
  712SOL    HW2 2847   1.956   0.574   0.109  0.5602 -2.8247 -3.3094
  712SOL     MW 2848   1.919   0.534   0.045  0.5242 -0.3089  0.1886
  713SOL     OW 2849   2.577   0.799   1.107 -0.5855  0.0441  0.0857
  713SOL    HW1 2850   2.573   0.696   1.110  1.9140 -1.7834  5.0063
  713SOL    HW2 2851   2.518   0.821   1.177  1.4979  1.7768  1.7884
  713SOL     MW 2852   2.569   0.788   1.117  0.0192  0.0316  0.9596
  714SOL     OW 2853   2.197   0.226   1.991 -0.0342 -0.1168  0.2215
  714SOL    HW1 2854   2.239   0.196   2.073 -2.9466  3.7743 -0.1991
  714SOL    HW2 2855   2.248   0.179   1.921  1.2494 -0.5289 -1.4143
  714SOL     MW 2856   2.209   0.216   1.992 -0.2491  0.3422 -0.0498
  715SOL     OW 2857   1.725   1.957   1.676 -0.0738  0.3040 -0.0429
  715SOL    HW1 2858   1.805   1.940   1.629 -1.4916  0.2122  2.5385
  715SOL    HW2 2859   1.707   1.867   1.713  1.1372 -1.1745 -1.0613
  715SOL     MW 2860   1.733   1.943   1.675 -0.1011  0.0968  0.1633
  716SOL     OW 2861   2.327   0.641   0.698 -0.5149  0.3945 -0.7319
  716SOL    HW1 2862   2.379   0.565   0.673 -0.3299 -0.1010  0.7739
  716SOL    HW2 2863   2.289   0.664   0.612  2.1882 -0.8211 -3.2459
  716SOL     MW 2864   2.329   0.634   0.683 -0.1339  0.1688 -0.8649
  717SOL     OW 2865   2.892   1.512   2.932 -0.1603  0.3939  0.1414
  717SOL    HW1 2866   2.985   1.519   2.954 -0.2481 -1.7227  0.6133
  717SOL    HW2 2867   2.852   1.564   3.004  1.1941  0.9673  1.0829
  717SOL     MW 2868   2.899   1.520   2.945  0.0068  0.1903  0.3279
  718SOL     OW 2869   2.627   1.383   1.342  0.6641  0.5526 -0.5489
  718SOL    HW1 2870   2.610   1.413   1.430 -1.0642  0.5603  1.5796
  718SOL    HW2 2871   2.694   1.318   1.344  0.4024 -1.4313 -0.8353
  718SOL     MW 2872   2.634   1.379   1.354  0.4015  0.2919 -0.3058
  719SOL     OW 2873   2.209   1.335   0.617 -0.6757 -0.8981  0.0655
  719SOL    HW1 2874   2.304   1.330   0.612 -0.0375 -3.0067  0.0971
  719SOL    HW2 2875   2.185   1.358   0.709 -1.1595  4.1610  0.2196
  719SOL     MW 2876   2.218   1.338   0.629 -0.6553 -0.5088  0.0900
  720SOL     OW 2877   2.865   1.157   0.061 -0.6577  0.4259 -0.7495
  720SOL    HW1 2878   2.826   1.071   0.079 -1.2507  0.0251  0.9496
  720SOL    HW2 2879   2.804   1.227   0.096 -2.6361  2.6962  1.4711
  720SOL     MW 2880   2.852   1.155   0.068 -0.9970  0.6726 -0.2323
  721SOL     OW 2881   2.431   0.871   1.356  0.0353 -1.1749  0.1581
  721SOL    HW1 2882   2.408   0.779   1.384 -0.0087 -1.0913 -3.9237
  721SOL    HW2 2883   2.509   0.893   1.403 -0.9379  1.6770  3.0728
  721SOL     MW 2884   2.438   0.862   1.366 -0.0989 -0.7876  0.0041
  722SOL     OW 2885   2.572   1.161   0.370 -0.1898  0.3707  0.0347
  722SOL    HW1 2886   2.516   1.219   0.418 -0.5319  0.5894  1.2778
  722SOL    HW2 2887   2.613   1.092   0.432  2.2940  0.4216  0.7425
  722SOL     MW 2888   2.570   1.160   0.385  0.0927  0.4063  0.2921
  723SOL     OW 2889   2.262   1.421   1.648  0.1319  0.1983  0.1887
  723SOL    HW1 2890   2.295   1.409   1.558 -0.5840  0.7152 -2.2217
  723SOL    HW2 2891   2.174   1.459   1.646 -0.4341 -1.1197  3.4117
  723SOL     MW 2892   2.255   1.425   1.636 -0.0373  0.0926  0.2959
  724SOL     OW 2893   2.468   0.396   0.632 -0.4939 -0.1565  0.2147
  724SOL    HW1 2894   2.450   0.355   0.715  0.2508  0.3869 -1.1904
  724SOL    HW2 2895   2.563   0.389   0.620 -0.4839 -0.5947 -0.7634
  724SOL     MW 2896   2.478   0.390   0.641 -0.3944 -0.1426 -0.0998
  725SOL     OW 2897   2.568   0.539   1.181  0.8103  0.4537  0.1120
  725SOL    HW1 2898   2.649   0.555   1.242 -1.5146  1.5199 -1.8011
  725SOL    HW2 2899   2.496   0.545   1.246 -0.3227 -0.2762  1.5812
  725SOL     MW 2900   2.569   0.542   1.198  0.3540  0.4980  0.0535
  726SOL     OW 2901   2.593   2.444   0.529  0.0578 -0.0902 -0.2721
  726SOL    HW1 2902   2.539   2.492   0.466  2.8569  0.2324 -0.1581
  726SOL    HW2 2903   2.544   2.435   0.610  2.3689 -0.0309  3.9542
  726SOL     MW 2904   2.580   2.449   0.531  0.7321 -0.0398  0.3006
  727SOL     OW 2905   2.873   0.300   1.625 -0.3769  0.0053 -0.0248
  727SOL    HW1 2906   2.860   0.313   1.534 -2.8155 -1.7218 -0.6672
  727SOL    HW2 2907   2.801   0.327   1.679  0.0846 -0.5705  0.5320
  727SOL     MW 2908   2.861   0.305   1.620 -0.6378 -0.2985 -0.0361
  728SOL     OW 2909   2.815   1.148   2.899  0.3102  0.3431 -0.4785
  728SOL    HW1 2910   2.803   1.236   2.869 -0.3749 -1.2025  0.4621
  728SOL    HW2 2911   2.826   1.166   2.994  1.5544  0.5913 -1.6370
  728SOL     MW 2912   2.815   1.162   2.908  0.3840  0.1719 -0.5073
  729SOL     OW 2913   2.550   1.537   1.107 -0.1204 -0.6560  0.3622
  729SOL    HW1 2914   2.573   1.449   1.136 -0.5386 -1.3280  0.4218
  729SOL    HW2 2915   2.583   1.542   1.009 -1.7895 -1.4553 -0.3699
  729SOL     MW 2916   2.558   1.526   1.098 -0.3958 -0.8501  0.2734
  730SOL     OW 2917   2.144   1.182   0.227 -0.0508 -0.1403 -0.4863
  730SOL    HW1 2918   2.236   1.159   0.256  1.3701 -0.4429  2.3537
  730SOL    HW2 2919   2.123   1.272   0.251 -0.3034 -1.0191 -0.1643
  730SOL     MW 2920   2.153   1.191   0.234  0.1033 -0.2962 -0.0691
  731SOL     OW 2921   2.858   1.903   2.874 -0.2395  0.4838 -0.5708
  731SOL    HW1 2922   2.767   1.945   2.850 -3.7525  1.0013  0.0212
  731SOL    HW2 2923   2.925   1.975   2.869  0.5835  0.6042 -0.3495
  731SOL     MW 2924   2.855   1.918   2.870 -0.5944  0.5679 -0.4635
  732SOL     OW 2925   2.162   0.960   1.376 -0.2971  0.7214 -0.2072
  732SOL    HW1 2926   2.166   0.981   1.471  1.1043 -1.5937  1.3936
  732SOL    HW2 2927   2.252   0.939   1.361  1.0349  1.8062  1.2921
  732SOL     MW 2928   2.174   0.960   1.386  0.0635  0.5591  0.2019
  733SOL     OW 2929   2.318   2.787   3.042 -0.3807 -0.7783  0.4153
  733SOL    HW1 2930   2.239   2.836   3.023 -0.4629 -2.2131  2.9912
  733SOL    HW2 2931   2.301   2.690   3.026 -0.6900  0.0640 -0.5064
  733SOL     MW 2932   2.305   2.780   3.038 -0.4323 -0.8565  0.6336
  734SOL     OW 2933   1.504   0.383   2.456  0.1839  0.3244  0.0533
  734SOL    HW1 2934   1.477   0.346   2.537 -2.2466  2.2758  0.2985
  734SOL    HW2 2935   1.533   0.305   2.400 -1.0501 -0.4933 -1.9721
  734SOL     MW 2936   1.505   0.368   2.459 -0.2996  0.4740 -0.1816
  735SOL     OW 2937   2.938   0.942   2.583 -0.2023  0.0951  0.0987
  735SOL    HW1 2938   2.956   0.842   2.584  1.7453  1.3126 -2.7368
  735SOL    HW2 2939   2.982   0.980   2.661 -0.7152  0.4666  2.4533
  735SOL     MW 2940   2.946   0.934   2.594 -0.0130  0.3047  0.0353
  736SOL     OW 2941   0.138   0.579   2.545 -0.0789 -0.0017 -0.2569
  736SOL    HW1 2942   0.175   0.653   2.489  1.3729  2.3752 -2.3076
  736SOL    HW2 2943   0.117   0.511   2.480  1.2769 -1.7078  1.3173
  736SOL     MW 2944   0.140   0.580   2.529  0.2915  0.0868 -0.3197
  737SOL     OW 2945   2.946   0.670   2.587  0.5154 -0.2999 -0.6751
  737SOL    HW1 2946   2.895   0.638   2.512 -2.1692 -0.3667  0.7552
  737SOL    HW2 2947   3.035   0.647   2.559  0.8602 -1.9392 -1.7003
  737SOL     MW 2948   2.951   0.663   2.573  0.2067 -0.5250 -0.6217
  738SOL     OW 2949   0.238   0.569   1.899  0.5227  0.1762 -0.1019
  738SOL    HW1 2950   0.327   0.592   1.882  0.0000 -0.4149 -1.7870
  738SOL    HW2 2951   0.225   0.495   1.834  0.3391  0.7732 -0.5318
  738SOL     MW 2952   0.248   0.562   1.888  0.4295  0.1770 -0.3810
  739SOL     OW 2953   2.415   1.045   2.128 -0.3134 -0.0505 -0.3486
  739SOL    HW1 2954   2.354   0.971   2.110  1.0988 -2.6387  0.8272
  739SOL    HW2 2955   2.466   1.055   2.048 -1.6422  1.8832 -1.0776
  739SOL     MW 2956   2.414   1.037   2.115 -0.3024 -0.1369 -0.2896
  740SOL     OW 2957   0.212   1.774   2.988  0.8582  0.1972 -0.1170
  740SOL    HW1 2958   0.160   1.692   2.990  2.4986 -0.6642 -0.9277
  740SOL    HW2 2959   0.299   1.736   3.006  0.8950 -1.0094 -0.5461
  740SOL     MW 2960   0.216   1.758   2.991  1.0795 -0.0756 -0.2806
  741SOL     OW 2961   2.271   1.282   2.706  0.1125 -0.3812  0.5642
  741SOL    HW1 2962   2.207   1.334   2.658 -2.3149  0.1051  0.5860
  741SOL    HW2 2963   2.221   1.269   2.788 -0.2450 -1.0159  0.7029
  741SOL     MW 2964   2.256   1.287   2.710 -0.2549 -0.4008  0.5854
  742SOL     OW 2965   1.573   1.266   2.206 -0.1938 -0.5288 -0.9951
  742SOL    HW1 2966   1.521   1.189   2.179 -0.9903 -0.9911  0.3106
  742SOL    HW2 2967   1.570   1.257   2.301  1.2372  0.1046  0.4682
  742SOL     MW 2968   1.566   1.254   2.215 -0.1100 -0.5063 -0.6297
  743SOL     OW 2969   2.529   1.264   2.801 -0.5074  0.2305 -0.0054
  743SOL    HW1 2970   2.444   1.265   2.753  2.6158  0.6245 -2.5445
  743SOL    HW2 2971   2.553   1.166   2.810  1.8074 -4.9224 -0.3731
  743SOL     MW 2972   2.521   1.251   2.796  0.2101 -0.3974 -0.3889
  744SOL     OW 2973   2.742   0.961   1.782 -0.4041 -0.9247 -0.1148
  744SOL    HW1 2974   2.665   1.024   1.801 -0.6927  1.3318  0.5569
  744SOL    HW2 2975   2.724   0.934   1.692  0.5803 -0.4795  0.2258
  744SOL     MW 2976   2.729   0.966   1.773 -0.3123 -0.5683  0.0188
  745SOL     OW 2977   1.764   0.413   2.514 -0.6923 -0.0196  0.2847
  745SOL    HW1 2978   1.782   0.454   2.426 -2.8296 -2.0071  0.0912
  745SOL    HW2 2979   1.670   0.399   2.513  1.7338 -0.2940  1.6721
  745SOL     MW 2980   1.754   0.416   2.503 -0.6542 -0.3180  0.4422
  746SOL     OW 2981   1.476   1.428   1.658  0.2879 -0.1950 -0.6847
  746SOL    HW1 2982   1.555   1.482   1.662 -0.6142  1.5420 -1.5248
  746SOL    HW2 2983   1.478   1.384   1.747  2.4693 -2.7875 -0.3333
  746SOL     MW 2984   1.486   1.430   1.670  0.4567 -0.3079 -0.7492
  747SOL     OW 2985   2.538   1.164   1.875 -0.6541 -0.1350 -0.5717
  747SOL    HW1 2986   2.448   1.173   1.855 -0.5699  0.0061  2.4484
  747SOL    HW2 2987   2.562   1.239   1.932 -0.0402 -0.3506 -2.0957
  747SOL     MW 2988   2.529   1.175   1.880 -0.5620 -0.1448 -0.3743
  748SOL     OW 2989   0.100   0.062   1.830  0.3434  0.8429 -1.2092
  748SOL    HW1 2990   0.186   0.040   1.866  1.1000 -0.9499 -0.0452
  748SOL    HW2 2991   0.054   0.107   1.898 -0.1167 -0.0386 -1.6997
  748SOL     MW 2992   0.105   0.065   1.844  0.3825  0.4900 -1.1203
  749SOL     OW 2993   2.417   0.525   2.786 -0.1413  0.0071  0.2458
  749SOL    HW1 2994   2.434   0.613   2.755 -2.2709  2.4230  0.0087
  749SOL    HW2 2995   2.434   0.534   2.885  2.7292  2.1323 -1.6922
  749SOL     MW 2996   2.422   0.538   2.795 -0.0435  0.6063 -0.0412
  750SOL     OW 2997   2.062   0.003   1.946  0.5821  0.3920 -0.0255
  750SOL    HW1 2998   2.079   0.095   1.968 -1.6211 -1.4009  1.2745
  750SOL    HW2 2999   2.148  -0.045   1.945  2.2146 -2.5642  0.1322
  750SOL     MW 3000   2.076   0.009   1.949  0.5068 -0.2346  0.1668
  751SOL     OW 3001   0.028   0.428   2.316 -0.0777 -0.0475 -0.3412
  751SOL    HW1 3002  -0.055   0.384   2.313 -0.4906 -1.1313 -3.0814
  751SOL    HW2 3003   0.074   0.402   2.232  0.8006  0.4326  0.1111
  751SOL     MW 3004   0.023   0.419   2.304 -0.0163 -0.1271 -0.6431
  752SOL     OW 3005   2.141   0.864   2.707 -0.0726 -0.1732  0.0467
  752SOL    HW1 3006   2.212   0.915   2.665  0.1264 -2.8194 -2.8842
  752SOL    HW2 3007   2.161   0.865   2.799 -1.3602 -0.2067 -0.2256
  752SOL     MW 3008   2.153   0.871   2.714 -0.2163 -0.5268 -0.3759
  753SOL     OW 3009   2.869   0.309   2.317 -0.0110 -0.2057  0.0628
  753SOL    HW1 3010   2.815   0.232   2.292  2.2854 -1.7015 -1.8075
  753SOL    HW2 3011   2.811   0.373   2.361  1.6243  0.0629  1.6680
  753SOL     MW 3012   2.855   0.307   2.319  0.5078 -0.3677  0.0278
  754SOL     OW 3013   2.225   3.023   2.674  0.4058 -0.3116  0.5570
  754SOL    HW1 3014   2.223   3.011   2.574  0.2584  0.3317  0.5831
  754SOL    HW2 3015   2.290   2.962   2.706 -2.2750  0.3204 -0.6809
  754SOL     MW 3016   2.233   3.013   2.665  0.0326 -0.1433  0.3971
  755SOL     OW 3017   2.751   1.565   2.490 -0.4995 -0.1903 -0.0370
  755SOL    HW1 3018   2.695   1.529   2.556 -1.6838  4.4824  1.1174
  755SOL    HW2 3019   2.807   1.623   2.538 -1.7716  2.0457 -1.2712
  755SOL     MW 3020   2.751   1.568   2.505 -0.8236  0.7212 -0.0476
  756SOL     OW 3021   2.254   1.293   2.992  0.1019  0.1178 -0.5624
  756SOL    HW1 3022   2.307   1.370   2.978 -2.7643  1.1214  0.4277
  756SOL    HW2 3023   2.307   1.216   3.024 -0.3093 -0.0503  0.0018
  756SOL     MW 3024   2.268   1.293   2.994 -0.3305  0.2281 -0.3573
  757SOL     OW 3025   2.120   0.957   1.644 -0.3494  0.2515 -1.2257
  757SOL    HW1 3026   2.139   0.862   1.614  0.0523  0.5839 -2.3706
  757SOL    HW2 3027   2.031   0.977   1.612  0.1307 -0.6053 -0.8237
  757SOL     MW 3028   2.111   0.947   1.636 -0.2330  0.1823 -1.3237
  758SOL     OW 3029   2.214   1.761   2.673 -0.6885 -0.1116 -0.4857
  758SOL    HW1 3030   2.180   1.781   2.584 -2.9510  2.2206 -0.7176
  758SOL    HW2 3031   2.307   1.726   2.661  0.9713  3.3215  0.7186
  758SOL     MW 3032   2.221   1.759   2.659 -0.7680  0.6490 -0.3574
  759SOL     OW 3033   1.566   1.322   2.730  0.3602  0.1205  0.2994
  759SOL    HW1 3034   1.581   1.399   2.672  0.3718  1.6602 -0.1065
  759SOL    HW2 3035   1.626   1.349   2.794 -1.4987 -1.2784  1.6254
  759SOL     MW 3036   1.576   1.336   2.731  0.1165  0.1391  0.4208
  760SOL     OW 3037   2.618   1.932   2.713 -0.3001  0.2451  0.4711
  760SOL    HW1 3038   2.573   1.860   2.686 -0.8253  2.6544  1.6870
  760SOL    HW2 3039   2.672   1.964   2.640  2.2680 -1.7853 -0.9329
  760SOL     MW 3040   2.619   1.927   2.700 -0.0306  0.2951  0.4463
  761SOL     OW 3041   2.099   0.458   2.468 -0.3259  0.0239 -0.1534
  761SOL    HW1 3042   2.062   0.368   2.497  0.6432  2.4811  2.6459
  761SOL    HW2 3043   2.097   0.515   2.553 -0.3951 -1.1370  1.3969
  761SOL     MW 3044   2.094   0.453   2.483 -0.2072  0.1949  0.4205
  762SOL     OW 3045   3.102   0.189   2.047  0.4077  0.2925  0.1046
  762SOL    HW1 3046   3.080   0.149   2.133  2.0985 -0.0876  2.7260
  762SOL    HW2 3047   3.054   0.274   2.056 -0.9469  1.2121  2.2560
  762SOL     MW 3048   3.093   0.195   2.059  0.4520  0.3637  0.7343
  763SOL     OW 3049   2.374   1.138   2.373  0.1411 -0.1227  0.1486
  763SOL    HW1 3050   2.402   1.100   2.291 -2.2864 -2.1033  1.4674
  763SOL    HW2 3051   2.441   1.204   2.383 -1.5305  0.6926  0.6654
  763SOL     MW 3052   2.386   1.142   2.364 -0.3997 -0.2765  0.3908
  764SOL     OW 3053   0.362   0.189   2.828  0.6849  0.1561 -0.0268
  764SOL    HW1 3054   0.277   0.198   2.785  1.7529  2.1185 -3.1535
  764SOL    HW2 3055   0.364   0.248   2.907 -1.0562 -0.8053  1.8667
  764SOL     MW 3056   0.351   0.198   2.833  0.5961  0.2882 -0.1895
  765SOL     OW 3057   2.679   0.103   2.292 -0.1849 -0.5935 -0.1138
  765SOL    HW1 3058   2.613   0.084   2.223 -0.3177  0.4783 -2.1176
  765SOL    HW2 3059   2.731   0.026   2.309 -0.8934 -0.1276 -0.8363
  765SOL     MW 3060   2.677   0.091   2.285 -0.2959 -0.3906 -0.4735
  766SOL     OW 3061   1.852   3.026   2.137  0.2415  0.1373 -0.5166
  766SOL    HW1 3062   1.934   3.047   2.092 -0.1958 -1.0903  1.0964
  766SOL    HW2 3063   1.798   2.984   2.068 -1.3289  0.7760  1.2634
  766SOL     MW 3064   1.855   3.023   2.122 -0.0234  0.0596 -0.0689
  767SOL     OW 3065   2.687   0.650   1.893 -0.0461  0.6003  0.2632
  767SOL    HW1 3066   2.713   0.731   1.938  1.6632  0.3238  3.7335
  767SOL    HW2 3067   2.596   0.636   1.908  2.8976  0.4847  3.9515
  767SOL     MW 3068   2.678   0.659   1.901  0.5678  0.5486  1.2077
  768SOL     OW 3069   0.057   1.545   2.962  0.3432 -0.3802  0.3752
  768SOL    HW1 3070   0.093   1.503   3.040 -0.8912 -0.6655  0.7937
  768SOL    HW2 3071   0.089   1.493   2.891 -3.4003  0.7214  0.6784
  768SOL     MW 3072   0.066   1.533   2.963 -0.3136 -0.2725  0.4704
  769SOL     OW 3073   2.354   0.669   2.348 -0.3495  0.2346 -0.2898
  769SOL    HW1 3074   2.282   0.617   2.323  0.7125  0.9095 -0.7357
  769SOL    HW2 3075   2.431   0.624   2.315 -0.6847 -0.3208 -1.3997
  769SOL     MW 3076   2.354   0.656   2.341 -0.2536  0.2504 -0.4951
  770SOL     OW 3077   0.016   1.655   2.595  0.6047  0.0440  0.7010
  770SOL    HW1 3078  -0.073   1.664   2.635  0.6016  0.5509  0.6258
  770SOL    HW2 3079   0.051   1.572   2.632  0.9246  2.1308 -1.9212
  770SOL     MW 3080   0.009   1.645   2.605  0.6465  0.3862  0.3451
  771SOL     OW 3081   3.063   0.654   1.944 -0.2230  0.6638  0.1886
  771SOL    HW1 3082   3.008   0.671   1.859  1.2087 -1.1485 -1.3972
  771SOL    HW2 3083   3.142   0.622   1.909 -2.7253  0.9242 -0.2785
  771SOL     MW 3084   3.066   0.652   1.928 -0.3643  0.4591 -0.0823
  772SOL     OW 3085   3.088   0.032   2.288 -0.2718 -0.4640 -0.0023
  772SOL    HW1 3086   3.004  -0.024   2.298 -2.7286 -2.4516 -0.8292
  772SOL    HW2 3087   3.151  -0.039   2.274  1.5950  0.1441  1.5316
  772SOL     MW 3088   3.085   0.015   2.287 -0.3496 -0.6460  0.0910
  773SOL     OW 3089   2.435   2.836   2.759 -0.0529 -0.2536 -0.2952
  773SOL    HW1 3090   2.449   2.757   2.703  0.1391 -1.8706  0.1693
  773SOL    HW2 3091   2.413   2.813   2.849  0.2724  0.6782 -0.7647
  773SOL     MW 3092   2.434   2.823   2.764  0.0153 -0.3440 -0.2958
  774SOL     OW 3093   2.287   1.165   1.735  0.1036 -0.1215  0.0702
  774SOL    HW1 3094   2.276   1.256   1.700 -0.2827  0.2435 -4.6163
  774SOL    HW2 3095   2.243   1.107   1.680  1.4601  1.1197  0.5720
  774SOL     MW 3096   2.280   1.169   1.723  0.2316  0.0904 -0.4819
  775SOL     OW 3097   2.237   3.017   2.402 -0.5437  0.2070  0.0665
  775SOL    HW1 3098   2.259   3.097   2.353  1.8975 -1.7906 -1.6149
  775SOL    HW2 3099   2.312   2.959   2.390  1.4385  2.4618 -0.3426
  775SOL     MW 3100   2.250   3.020   2.394  0.0400  0.2409 -0.2093
  776SOL     OW 3101   0.142   1.461   0.138  0.1215 -0.3263  0.5663
  776SOL    HW1 3102   0.229   1.419   0.153  0.3655  0.2884  1.4675
  776SOL    HW2 3103   0.076   1.394   0.151  0.8698 -0.9383 -2.6201
  776SOL     MW 3104   0.145   1.447   0.142  0.2524 -0.3260  0.2648
  777SOL     OW 3105   3.001   1.071   1.717  0.6030  0.0193 -0.3152
  777SOL    HW1 3106   3.003   1.126   1.637 -0.3216 -0.4894 -1.5466
  777SOL    HW2 3107   2.903   1.067   1.728 -1.6661  0.9203  1.0380
  777SOL     MW 3108   2.988   1.078   1.708  0.1816  0.0710 -0.2991
  778SOL     OW 3109   2.835   0.443   2.760  0.2604 -0.4847  0.2407
  778SOL    HW1 3110   2.786   0.456   2.840  3.0579 -0.2266 -1.5039
  778SOL    HW2 3111   2.855   0.533   2.742  0.2451  1.8231 -0.9370
  778SOL     MW 3112   2.832   0.457   2.768  0.6275 -0.1461 -0.1448
  779SOL     OW 3113   2.098   0.549   2.210 -0.3329  0.2459  0.5291
  779SOL    HW1 3114   2.032   0.612   2.206 -2.3058 -1.9646  1.6728
  779SOL    HW2 3115   2.074   0.496   2.286  2.1864 -2.4601  4.2943
  779SOL     MW 3116   2.086   0.550   2.220 -0.2608 -0.4028  1.1768
  780SOL     OW 3117   0.112   0.226   2.714 -0.3940 -0.3911  0.8234
  780SOL    HW1 3118   0.115   0.288   2.782  2.0097 -1.9671  0.8681
  780SOL    HW2 3119   0.018   0.229   2.698 -1.3374 -0.6892  2.3955
  780SOL     MW 3120   0.100   0.234   2.721 -0.2013 -0.6384  1.0368
  781SOL     OW 3121   3.032   1.313   2.513 -0.0283  0.1854  0.1031
  781SOL    HW1 3122   3.020   1.388   2.452  0.2632 -1.2219 -1.7142
  781SOL    HW2 3123   3.068   1.246   2.456 -1.0412  0.4391  0.0573
  781SOL     MW 3124   3.035   1.314   2.498 -0.1235  0.0332 -0.1427
  782SOL     OW 3125   0.703   1.510  -0.005  0.6287 -0.5872 -0.0189
  782SOL    HW1 3126   0.623   1.559   0.009 -1.0044  0.7215  2.2272
  782SOL    HW2 3127   0.756   1.513   0.081  1.0749 -0.2715  0.5408
  782SOL     MW 3128   0.700   1.517   0.008  0.4721 -0.3729  0.3513
  783SOL     OW 3129   2.725   0.524   2.424  0.3945 -0.4867 -0.8415
  783SOL    HW1 3130   2.667   0.524   2.347 -0.6457  0.4445  1.4027
  783SOL    HW2 3131   2.668   0.490   2.497  0.1090  1.5523 -0.2758
  783SOL     MW 3132   2.710   0.520   2.423  0.2196 -0.0949 -0.4707
  784SOL     OW 3133   0.177   0.830   2.775  0.0399 -0.0454 -0.0196
  784SOL    HW1 3134   0.122   0.903   2.789  1.6681  0.5328  0.6371
  784SOL    HW2 3135   0.261   0.869   2.727  1.4157  2.2137  1.4669
  784SOL     MW 3136   0.181   0.845   2.770  0.4362  0.3290  0.2632
  785SOL     OW 3137   0.419   0.517   2.173 -0.2906  0.1420 -0.0439
  785SOL    HW1 3138   0.425   0.571   2.096  0.6977 -0.6447 -0.9838
  785SOL    HW2 3139   0.338   0.469   2.165  0.6491  0.2403  3.0260
  785SOL     MW 3140   0.409   0.518   2.162 -0.0362  0.0512  0.2372
  786SOL     OW 3141   1.973   0.314   2.931  0.2931  0.6222  0.0825
  786SOL    HW1 3142   1.998   0.401   2.952 -4.4477 -0.4009  0.5132
  786SOL    HW2 3143   2.021   0.280   2.853 -0.2659  0.6805  0.0130
  786SOL     MW 3144   1.982   0.321   2.923 -0.4061  0.4949  0.1302
  787SOL     OW 3145   2.416   0.199   2.902 -0.5292  0.4663  0.2612
  787SOL    HW1 3146   2.467   0.120   2.867 -0.7517 -1.8441 -1.8699
  787SOL    HW2 3147   2.462   0.239   2.971  2.5057  0.7199 -0.2399
  787SOL     MW 3148   2.429   0.194   2.907 -0.1582  0.1949 -0.0861
  788SOL     OW 3149   2.861   2.996   2.343 -0.1184  0.8819  0.1693
  788SOL    HW1 3150   2.903   3.001   2.433  0.2556 -1.9609  0.2782
  788SOL    HW2 3151   2.887   2.915   2.290  1.0612 -2.6725  3.0521
  788SOL     MW 3152   2.870   2.986   2.348  0.0866  0.0379  0.5640
  789SOL     OW 3153   0.085   0.170   3.053 -0.0858  0.5313 -0.3620
  789SOL    HW1 3154   0.013   0.108   3.084 -0.8318 -1.8632  1.5659
  789SOL    HW2 3155   0.044   0.248   3.017 -0.1179  1.3732 -0.3200
  789SOL     MW 3156   0.071   0.172   3.052 -0.1884  0.3265 -0.1021
  790SOL     OW 3157   3.103   1.067   2.410  0.0197  0.1796  0.6497
  790SOL    HW1 3158   3.047   1.023   2.479 -3.9023 -2.2196  0.6194
  790SOL    HW2 3159   3.045   1.050   2.335 -0.0219 -0.8373 -0.0231
  790SOL     MW 3160   3.088   1.059   2.409 -0.5032 -0.2711  0.5569
  791SOL     OW 3161   2.590   0.402   2.638 -0.2653  0.6091  0.6278
  791SOL    HW1 3162   2.532   0.441   2.699  0.6157 -2.9946  1.9180
  791SOL    HW2 3163   2.678   0.415   2.682  1.2577 -1.2048 -0.1372
  791SOL     MW 3164   2.594   0.409   2.652  0.0519 -0.1057  0.6971
  792SOL     OW 3165   2.348   0.341   2.398 -0.0760  0.4400  0.0701
  792SOL    HW1 3166   2.281   0.401   2.417 -0.2404 -1.3830 -0.5159
  792SOL    HW2 3167   2.394   0.308   2.473  1.1966 -0.6005 -4.0779
  792SOL     MW 3168   2.345   0.345   2.411  0.0702  0.0622 -0.5545
  793SOL     OW 3169   1.881   1.148   1.948 -0.7408 -0.2234  0.3161
  793SOL    HW1 3170   1.835   1.156   1.856 -2.3143  0.9187  0.8408
  793SOL    HW2 3171   1.962   1.102   1.922  0.1202 -1.6609 -0.7250
  793SOL     MW 3172   1.886   1.143   1.933 -0.8348 -0.2624  0.2479
  794SOL     OW 3173   1.425   2.294   0.148 -0.0204 -0.6100  0.0968
  794SOL    HW1 3174   1.444   2.363   0.084  0.8092  0.7963 -2.3872
  794SOL    HW2 3175   1.482   2.315   0.225 -1.4048  0.3478 -2.3029
  794SOL     MW 3176   1.435   2.306   0.149 -0.0936 -0.2980 -0.5476
  795SOL     OW 3177   2.327   1.029   2.637 -0.3735  0.3382  0.3276
  795SOL    HW1 3178   2.295   1.116   2.682  1.6578  1.0589 -0.1089
  795SOL    HW2 3179   2.360   1.054   2.548  1.4945  0.1344 -1.7366
  795SOL     MW 3180   2.327   1.044   2.631  0.1410  0.4064 -0.0024
  796SOL     OW 3181   0.308   0.585   2.792 -0.2030  0.3757 -0.2271
  796SOL    HW1 3182   0.240   0.628   2.850 -0.5437 -1.4926 -0.1194
  796SOL    HW2 3183   0.271   0.586   2.706  3.7088  0.4485 -0.7184
  796SOL     MW 3184   0.294   0.591   2.788  0.2682  0.1388 -0.2777
  797SOL     OW 3185   2.624   0.132   2.586 -0.3745 -0.1216 -0.3153
  797SOL    HW1 3186   2.609   0.220   2.603  1.4376 -4.4044 -1.5792
  797SOL    HW2 3187   2.625   0.103   2.496  0.8945 -2.8806 -3.2785
  797SOL     MW 3188   2.622   0.140   2.576  0.0320 -1.0507 -0.8731
  798SOL     OW 3189   2.302   0.138   2.231 -0.3149 -0.3239  0.6046
  798SOL    HW1 3190   2.327   0.209   2.296  0.8826  2.8138 -0.6126
  798SOL    HW2 3191   2.385   0.114   2.189  1.2046  1.1845 -0.9057
  798SOL     MW 3192   2.316   0.145   2.234  0.0436  0.2891  0.2448
  799SOL     OW 3193   2.548   2.947   3.085  0.3132  0.4290 -0.1713
  799SOL    HW1 3194   2.468   2.893   3.090 -0.7246  1.4624 -2.8499
  799SOL    HW2 3195   2.504   3.022   3.050 -2.2757  0.4310 -0.3703
  799SOL     MW 3196   2.532   2.950   3.081 -0.1653  0.5656 -0.5509
  800SOL     OW 3197   1.968   3.093   1.699 -0.3735  0.1487  0.3044
  800SOL    HW1 3198   1.887   3.045   1.715 -0.8693 -1.0283  1.3598
  800SOL    HW2 3199   2.003   3.105   1.784 -1.5786 -1.6008  1.0124
  800SOL     MW 3200   1.962   3.088   1.712 -0.5979 -0.2374  0.5370
  801SOL     OW 3201   2.788   1.291   2.643 -0.4078  0.1934 -0.3778
  801SOL    HW1 3202   2.781   1.194   2.632  1.8048  1.6858 -0.6601
  801SOL    HW2 3203   2.882   1.302   2.620  0.4530 -0.1101 -0.6070
  801SOL     MW 3204   2.800   1.280   2.638 -0.0023  0.3503 -0.4453
  802SOL     OW 3205   2.633   1.524   2.760  0.3137  0.0359 -0.2084
  802SOL    HW1 3206   2.620   1.424   2.751  0.1487 -0.3761 -2.0050
  802SOL    HW2 3207   2.723   1.540   2.743 -1.0551  0.3096 -0.2864
  802SOL     MW 3208   2.643   1.513   2.757  0.1114  0.0176 -0.4558
  803SOL     OW 3209   2.306   1.337   1.978 -0.1458 -0.1107  0.0782
  803SOL    HW1 3210   2.272   1.305   2.068 -0.6671  2.0800  3.2047
  803SOL    HW2 3211   2.272   1.279   1.908 -1.3264 -0.2915  0.9576
  803SOL     MW 3212   2.297   1.325   1.980 -0.3704  0.1545  0.6067
  804SOL     OW 3213   2.304   0.042   3.102  0.1341  0.3131 -0.6505
  804SOL    HW1 3214   2.229   0.108   3.124 -1.4647  0.8277  0.1726
  804SOL    HW2 3215   2.356   0.097   3.042 -0.0047  0.4832 -0.7205
  804SOL     MW 3216   2.301   0.058   3.097 -0.0951  0.4034 -0.5511
  805SOL     OW 3217   2.682   1.035   2.586 -0.1681 -0.3873  0.4664
  805SOL    HW1 3218   2.632   1.077   2.516  2.1579  2.0085  0.5371
  805SOL    HW2 3219   2.774   1.010   2.557 -0.8627 -0.8810 -1.1994
  805SOL     MW 3220   2.687   1.037   2.573  0.0471 -0.1363  0.2560
  806SOL     OW 3221   2.533   0.479   2.201 -0.2729 -0.7646  0.2459
  806SOL    HW1 3222   2.470   0.413   2.211 -0.4533 -0.2340  2.3019
  806SOL    HW2 3223   2.511   0.541   2.127  1.9934  0.3094  0.7645
  806SOL     MW 3224   2.522   0.479   2.193  0.0023 -0.5529  0.5856
  807SOL     OW 3225   0.033   1.158   1.979  0.3804 -0.7108  0.1659
  807SOL    HW1 3226   0.065   1.069   2.002  2.2037 -0.1114 -0.4303
  807SOL    HW2 3227  -0.046   1.173   2.026 -2.2816  0.0385  1.4588
  807SOL     MW 3228   0.027   1.148   1.988  0.2697 -0.5328  0.2578
  808SOL     OW 3229   2.566   3.066   2.803 -0.7070  0.0506 -0.4181
  808SOL    HW1 3230   2.523   2.979   2.774 -0.4853 -0.3263  0.7997
  808SOL    HW2 3231   2.601   3.111   2.722 -0.3737  2.2004 -0.5484
  808SOL     MW 3232   2.565   3.060   2.789 -0.6338  0.2846 -0.2746
  809SOL     OW 3233   2.582   1.304   2.421 -0.5506 -0.6059 -0.0641
  809SOL    HW1 3234   2.641   1.300   2.497 -1.0521  4.0662 -1.4182
  809SOL    HW2 3235   2.636   1.318   2.343 -1.9409 -3.1783 -2.5732
  809SOL     MW 3236   2.597   1.306   2.421 -0.8002 -0.3289 -0.5738
  810SOL     OW 3237   2.191   1.279   2.237  0.1541  0.0228  0.1083
  810SOL    HW1 3238   2.249   1.224   2.297  0.6732 -2.1173  0.8504
  810SOL    HW2 3239   2.108   1.229   2.221  0.7624  1.0068 -0.1336
  810SOL     MW 3240   2.188   1.265   2.243  0.3029 -0.1298  0.1743
  811SOL     OW 3241   1.558   0.141   2.326 -0.1672  0.1366 -0.0638
  811SOL    HW1 3242   1.624   0.078   2.351 -1.5536  0.6004 -2.7292
  811SOL    HW2 3243   1.560   0.138   2.226  1.8713 -1.8724 -0.5635
  811SOL     MW 3244   1.567   0.132   2.316 -0.0812 -0.0673 -0.4814
  812SOL     OW 3245   1.477   2.872   2.082  0.4881  0.2979  0.8482
  812SOL    HW1 3246   1.565   2.867   2.049 -2.3672 -0.5003  2.1059
  812SOL    HW2 3247   1.487   2.822   2.161 -1.4199  2.1266 -0.1825
  812SOL     MW 3248   1.490   2.865   2.088 -0.1404  0.4339  0.8782
  813SOL     OW 3249   1.881   0.738   2.188 -0.0816 -0.1844 -0.6115
  813SOL    HW1 3250   1.829   0.661   2.205  4.1393  2.0139  1.5365
  813SOL    HW2 3251   1.891   0.774   2.278 -1.4983  1.7382  0.7705
  813SOL     MW 3252   1.875   0.733   2.202  0.2884  0.3593 -0.1458
  814SOL     OW 3253   2.730   1.260   1.592  0.2500  0.4298  0.1826
  814SOL    HW1 3254   2.643   1.248   1.618  1.1081 -0.3543 -0.8488
  814SOL    HW2 3255   2.745   1.206   1.522 -2.2626  0.9317 -0.3040
  814SOL     MW 3256   2.720   1.251   1.586  0.0317  0.3926 -0.0177
  815SOL     OW 3257   2.519   1.697   2.342 -0.3059 -0.4749 -0.7881
  815SOL    HW1 3258   2.450   1.637   2.327 -0.6716 -3.2757  2.2283
  815SOL    HW2 3259   2.596   1.643   2.379 -1.1222 -0.7271  0.2498
  815SOL     MW 3260   2.520   1.682   2.345 -0.4619 -0.8777 -0.2532
  816SOL     OW 3261   0.780   0.655   2.757 -0.0066 -0.0174  0.0377
  816SOL    HW1 3262   0.788   0.566   2.785  0.5688  0.5019  2.1788
  816SOL    HW2 3263   0.681   0.661   2.738  0.3536  1.8459  1.5871
  816SOL     MW 3264   0.768   0.644   2.758  0.1169  0.2969  0.5246
  817SOL     OW 3265   3.042   1.231   1.497  0.5199  0.2419  0.2950
  817SOL    HW1 3266   3.135   1.228   1.501 -0.3366 -0.2570  0.0691
  817SOL    HW2 3267   3.029   1.324   1.465  2.9254 -1.6153  0.4775
  817SOL     MW 3268   3.052   1.243   1.493  0.7243 -0.0690  0.2893
  818SOL     OW 3269   1.908   1.023   2.658  0.3867  0.4681  0.0728
  818SOL    HW1 3270   1.886   1.025   2.565 -1.9845  1.2894 -0.9894
  818SOL    HW2 3271   1.994   0.983   2.664  0.6888  0.5697 -1.3429
  818SOL     MW 3272   1.916   1.018   2.646  0.1137  0.5899 -0.2541
  819SOL     OW 3273   1.905   0.191   2.463 -0.1325  0.9675  0.1205
  819SOL    HW1 3274   1.855   0.269   2.478  2.9340 -2.1133  2.3553
  819SOL    HW2 3275   1.961   0.198   2.538 -1.7077  0.5612 -0.9794
  819SOL     MW 3276   1.906   0.202   2.475  0.0643  0.5074  0.2703
  820SOL     OW 3277   2.477   1.724   2.627 -0.1802 -0.7437 -0.2662
  820SOL    HW1 3278   2.537   1.651   2.652 -1.0174 -1.6410 -0.2870
  820SOL    HW2 3279   2.480   1.732   2.533  1.3338  0.4507  0.0385
  820SOL     MW 3280   2.485   1.716   2.618 -0.0909 -0.7045 -0.2288
  821SOL     OW 3281   2.559   1.403   1.986 -0.7534 -0.5007 -0.7503
  821SOL    HW1 3282   2.574   1.495   1.949  2.0218  1.6504 -0.4393
  821SOL    HW2 3283   2.463   1.402   1.996  1.7601 -1.8338  2.4077
  821SOL     MW 3284   2.548   1.415   1.983 -0.0556 -0.3928 -0.2926
  822SOL     OW 3285   2.730   2.634   1.438  0.3494  0.2110  1.0283
  822SOL    HW1 3286   2.754   2.670   1.526 -1.5873 -1.1199  1.8175
  822SOL    HW2 3287   2.664   2.700   1.404 -0.5344 -1.8748  2.1216
  822SOL     MW 3288   2.724   2.648   1.445 -0.0227 -0.2398  1.2767
  823SOL     OW 3289   2.258   0.504   1.743 -0.1993  0.3772  0.2362
  823SOL    HW1 3290   2.329   0.454   1.698 -1.0343 -1.6421  1.4906
  823SOL    HW2 3291   2.181   0.452   1.734  1.1313  1.0311 -1.3208
  823SOL     MW 3292   2.258   0.491   1.736 -0.1339  0.1971  0.1963
  824SOL     OW 3293   2.079   1.418   2.561  0.6165 -0.2497  0.6541
  824SOL    HW1 3294   2.127   1.467   2.494  0.8795 -1.6868 -0.5863
  824SOL    HW2 3295   2.035   1.490   2.609 -0.5770  0.6412 -1.8130
  824SOL     MW 3296   2.079   1.434   2.558  0.4937 -0.3218  0.1650
  825SOL     OW 3297   1.966   2.567   0.292  0.6672  0.2522 -0.5292
  825SOL    HW1 3298   1.939   2.484   0.333  2.5321 -1.9236 -0.8615
  825SOL    HW2 3299   2.008   2.547   0.206  3.5036  0.5050 -1.2952
  825SOL     MW 3300   1.968   2.553   0.286  1.2875 -0.0015 -0.6741
  826SOL     OW 3301   1.901   2.374   0.502 -0.0910  0.9915 -0.2066
  826SOL    HW1 3302   1.864   2.299   0.557 -1.0363 -0.6418  0.5075
  826SOL    HW2 3303   1.865   2.460   0.531  0.1967  1.7404  2.1460
  826SOL     MW 3304   1.891   2.376   0.513 -0.1778  0.8748  0.1980
  827SOL     OW 3305   1.925   2.223   0.934 -0.6979  0.3863 -0.3977
  827SOL    HW1 3306   1.881   2.304   0.912 -2.2844  3.2829  0.5969
  827SOL    HW2 3307   1.870   2.148   0.928  3.1806  0.2229  1.9404
  827SOL     MW 3308   1.912   2.224   0.930 -0.3955  0.7469  0.0420
  828SOL     OW 3309   0.052   2.599   0.584 -0.6547  0.1382 -0.7132
  828SOL    HW1 3310   0.139   2.634   0.566 -2.0456  0.2179  0.3430
  828SOL    HW2 3311   0.003   2.617   0.507  3.8297  1.0030 -0.2843
  828SOL     MW 3312   0.057   2.606   0.572 -0.2466  0.2628 -0.5173
  829SOL     OW 3313   2.913   2.952   1.204 -0.2399  0.1212  0.7966
  829SOL    HW1 3314   2.836   2.930   1.151 -0.2719 -0.7109  0.3948
  829SOL    HW2 3315   2.969   2.874   1.204 -1.6333 -0.6830  0.7347
  829SOL     MW 3316   2.910   2.938   1.197 -0.4279 -0.0947  0.7355
  830SOL     OW 3317   2.509   2.852   2.044 -0.1848  0.3621 -0.4576
  830SOL    HW1 3318   2.418   2.867   2.019  1.1341 -0.9447 -2.4915
  830SOL    HW2 3319   2.544   2.801   1.966  1.5159 -0.9315 -0.4537
  830SOL     MW 3320   2.502   2.847   2.030  0.2136  0.0190 -0.7254
  831SOL     OW 3321   2.403   2.436   1.312  0.0022 -0.1226  0.4045
  831SOL    HW1 3322   2.369   2.395   1.393  0.0097 -0.4951 -2.4776
  831SOL    HW2 3323   2.489   2.387   1.293 -2.5425 -2.2706  2.1372
  831SOL     MW 3324   2.410   2.424   1.320 -0.3326 -0.4552  0.2528
  832SOL     OW 3325   2.421   2.186   1.904 -0.0296  0.1518  0.3334
  832SOL    HW1 3326   2.440   2.276   1.941  1.1321  0.1273 -2.9346
  832SOL    HW2 3327   2.508   2.146   1.892  1.1007  0.5258 -0.6515
  832SOL     MW 3328   2.435   2.193   1.907  0.2728  0.1979 -0.2277
  833SOL     OW 3329   1.786   2.457   0.888  0.0643 -0.1938  0.4428
  833SOL    HW1 3330   1.711   2.408   0.899  2.7254 -0.4755 -0.6402
  833SOL    HW2 3331   1.766   2.524   0.963 -1.1698  0.1992 -2.9439
  833SOL     MW 3332   1.773   2.459   0.900  0.2526 -0.1791 -0.1469
  834SOL     OW 3333   2.203   2.488   0.581  0.4037 -0.2024  0.1899
  834SOL    HW1 3334   2.123   2.439   0.596  2.5233  0.4135  1.3485
  834SOL    HW2 3335   2.239   2.462   0.501  1.8098  6.2236 -0.9696
  834SOL     MW 3336   2.197   2.478   0.573  0.8689  0.7267  0.1898
  835SOL     OW 3337   1.791   2.589   0.634 -0.2575 -0.7410 -0.1543
  835SOL    HW1 3338   1.776   2.532   0.711  3.2749 -0.9030 -2.6265
  835SOL    HW2 3339   1.857   2.654   0.675  2.8454  0.4818 -0.9907
  835SOL     MW 3340   1.797   2.590   0.650  0.6180 -0.6010 -0.5908
  836SOL     OW 3341   1.936   2.202   1.609 -0.4023  0.2581  0.1338
  836SOL    HW1 3342   2.028   2.207   1.641  0.1011 -0.3075  1.0846
  836SOL    HW2 3343   1.891   2.288   1.614  1.1539  2.1599 -1.8548
  836SOL     MW 3344   1.942   2.214   1.613 -0.1305  0.4344 -0.0032
  837SOL     OW 3345   2.129   0.201   0.704  0.1497  0.2975 -0.5476
  837SOL    HW1 3346   2.039   0.222   0.693  1.5057  0.2337 -0.2837
  837SOL    HW2 3347   2.148   0.131   0.644  0.5619 -1.9376 -1.4846
  837SOL     MW 3348   2.120   0.194   0.695  0.3830 -0.0058 -0.6364
  838SOL     OW 3349   2.934   2.159   0.888 -0.0226 -0.0916 -0.9572
  838SOL    HW1 3350   2.863   2.123   0.950 -1.8879  0.0676 -0.9016
  838SOL    HW2 3351   2.975   2.082   0.849  0.6910  1.4788  1.7994
  838SOL     MW 3352   2.930   2.144   0.891 -0.1745  0.1366 -0.5862
  839SOL     OW 3353   1.547   2.329   0.953  0.3556  0.2947 -0.0636
  839SOL    HW1 3354   1.511   2.407   0.991 -0.8930  0.2037  0.5124
  839SOL    HW2 3355   1.547   2.255   1.021  1.1407 -1.5588 -2.0561
  839SOL     MW 3356   1.542   2.329   0.967  0.2945  0.0381 -0.2504
  840SOL     OW 3357   2.297   2.102   2.411 -0.2250  0.7203 -0.1875
  840SOL    HW1 3358   2.268   2.167   2.341 -0.0441  3.2932 -2.3906
  840SOL    HW2 3359   2.350   2.166   2.466  1.1510 -0.7665  2.9753
  840SOL     MW 3360   2.301   2.119   2.409 -0.0196  0.8636 -0.0609
  841SOL     OW 3361   2.128   2.439   0.109  0.2138 -0.2650 -0.0121
  841SOL    HW1 3362   2.189   2.456   0.039 -0.9084 -0.9363  0.7185
  841SOL    HW2 3363   2.086   2.352   0.089 -2.4470  0.5655  0.1245
  841SOL     MW 3364   2.131   2.430   0.097 -0.2854 -0.2440  0.1023
  842SOL     OW 3365   2.680   1.913   1.600  0.6978  0.0163 -0.2826
  842SOL    HW1 3366   2.606   1.850   1.592  0.8311  0.3222 -1.7125
  842SOL    HW2 3367   2.651   1.979   1.539  1.1008  2.2456 -0.3191
  842SOL     MW 3368   2.667   1.914   1.590  0.7685  0.3508 -0.4761
  843SOL     OW 3369   2.610   2.743   1.780  0.2096  0.4525 -0.1073
  843SOL    HW1 3370   2.704   2.737   1.755  0.0583  0.4291  2.3379
  843SOL    HW2 3371   2.565   2.656   1.760  0.6863 -2.4822 -0.3404
  843SOL     MW 3372   2.617   2.731   1.774  0.2525  0.0622  0.1846
  844SOL     OW 3373   2.611   2.293   1.207  0.5656 -0.3745  0.2643
  844SOL    HW1 3374   2.638   2.325   1.119  1.1722  2.3756 -2.0971
  844SOL    HW2 3375   2.692   2.309   1.265 -3.6628  0.1483  1.0805
  844SOL     MW 3376   2.625   2.299   1.203  0.0877  0.0573  0.0604
  845SOL     OW 3377   2.852   2.452   0.307 -0.2728 -0.3510  0.3658
  845SOL    HW1 3378   2.811   2.374   0.341 -0.2030 -0.2837  1.5517
  845SOL    HW2 3379   2.872   2.507   0.378  1.3186 -1.8485  0.8414
  845SOL     MW 3380   2.849   2.449   0.321 -0.0536 -0.5397  0.5850
  846SOL     OW 3381   1.523   2.872   0.770 -0.2744 -0.1462 -0.4646
  846SOL    HW1 3382   1.613   2.903   0.796 -0.7367 -3.0007 -0.3299
  846SOL    HW2 3383   1.457   2.925   0.812 -0.3947  1.9306  1.4952
  846SOL     MW 3384   1.526   2.883   0.779 -0.3513 -0.2488 -0.1882
  847SOL     OW 3385   2.534   1.901   0.153 -0.2762 -0.6035 -0.0018
  847SOL    HW1 3386   2.596   1.830   0.186  0.2024 -3.3345  0.9480
  847SOL    HW2 3387   2.470   1.855   0.104 -1.9454  0.6443 -0.6895
  847SOL     MW 3388   2.534   1.886   0.151 -0.4333 -0.7992  0.0328
  848SOL     OW 3389   2.546   2.072   1.407  0.0388 -0.3834 -0.0309
  848SOL    HW1 3390   2.584   2.115   1.331  2.9142 -2.6007 -1.1508
  848SOL    HW2 3391   2.475   2.014   1.380 -1.6807 -0.6792  1.8856
  848SOL     MW 3392   2.541   2.070   1.393  0.1913 -0.7150  0.0742
  849SOL     OW 3393   1.974   2.728   0.754  0.4884  0.4297 -0.7662
  849SOL    HW1 3394   2.007   2.651   0.803  2.0718 -1.4327 -0.8448
  849SOL    HW2 3395   2.056   2.763   0.722 -1.3529 -0.9182  0.1908
  849SOL     MW 3396   1.989   2.722   0.756  0.4544  0.0062 -0.6503
  850SOL     OW 3397   2.215   1.952   1.623  0.2967 -0.5604 -0.0516
  850SOL    HW1 3398   2.129   1.908   1.620  0.9017 -3.2258 -0.4677
  850SOL    HW2 3399   2.202   2.045   1.637 -0.5486  0.3241  0.9840
  850SOL     MW 3400   2.202   1.958   1.624  0.2650 -0.7954  0.0301
  851SOL     OW 3401   2.279   2.402   0.330  0.1670  0.2347  0.4236
  851SOL    HW1 3402   2.232   2.430   0.250  1.6733 -0.3814  1.6130
  851SOL    HW2 3403   2.357   2.463   0.333 -2.3445 -2.0139 -2.2167
  851SOL     MW 3404   2.283   2.413   0.319  0.0344 -0.1432  0.2322
  852SOL     OW 3405   2.376   2.150   0.296  0.0716 -0.4141  0.5288
  852SOL    HW1 3406   2.393   2.241   0.310 -0.6011 -1.4602  0.4058
  852SOL    HW2 3407   2.462   2.121   0.254 -2.2140 -0.2441 -0.6701
  852SOL     MW 3408   2.389   2.158   0.292 -0.3187 -0.5297  0.3544
  853SOL     OW 3409   2.497   2.441   1.997  0.2531 -0.2310  0.1186
  853SOL    HW1 3410   2.498   2.477   1.906  0.6945  0.3897  1.1887
  853SOL    HW2 3411   2.587   2.437   2.027 -3.6136  1.3478 -1.0856
  853SOL     MW 3412   2.509   2.445   1.989 -0.1989  0.0592  0.1009
  854SOL     OW 3413   2.818   2.346   0.743  0.2672  0.5596  0.3018
  854SOL    HW1 3414   2.744   2.302   0.706 -1.3460  0.2984  0.5568
  854SOL    HW2 3415   2.860   2.282   0.808  1.1333  2.0997  3.2628
  854SOL     MW 3416   2.814   2.332   0.747  0.1686  0.7283  0.7261
  855SOL     OW 3417   2.705   2.230   0.389 -0.4426 -0.7448  0.6087
  855SOL    HW1 3418   2.657   2.283   0.461 -0.4149  3.1023 -2.5550
  855SOL    HW2 3419   2.797   2.219   0.412  2.3258 -1.4300 -0.3208
  855SOL     MW 3420   2.711   2.236   0.402 -0.0737 -0.3276  0.0686
  856SOL     OW 3421   2.197   1.946   0.181  0.3737 -0.2979 -0.4329
  856SOL    HW1 3422   2.109   1.940   0.219 -0.6207 -1.2358  0.3692
  856SOL    HW2 3423   2.241   2.029   0.200 -0.7407  1.0969  0.2051
  856SOL     MW 3424   2.191   1.956   0.189  0.0954 -0.2376 -0.2429
  857SOL     OW 3425   2.610   1.993   0.487  0.0874  0.8973 -0.2955
  857SOL    HW1 3426   2.641   2.073   0.440 -0.8316  0.0967  1.9546
  857SOL    HW2 3427   2.552   1.951   0.415  2.6165  0.4055  2.5748
  857SOL     MW 3428   2.606   1.998   0.471  0.2998  0.7268  0.3801
  858SOL     OW 3429   2.854   2.658   1.696  0.5491  0.1032 -0.1515
  858SOL    HW1 3430   2.942   2.673   1.732 -0.1918 -0.5663 -1.2677
  858SOL    HW2 3431   2.855   2.569   1.713  0.8352  2.3713  1.1840
  858SOL     MW 3432   2.866   2.648   1.703  0.4891  0.3141 -0.1226
  859SOL     OW 3433   2.156   2.574   0.904 -0.1347 -0.0349  0.0984
  859SOL    HW1 3434   2.096   2.499   0.929 -1.6809 -0.6024  2.9340
  859SOL    HW2 3435   2.247   2.545   0.905 -1.1631  0.4470 -0.5173
  859SOL     MW 3436   2.160   2.560   0.907 -0.4744 -0.0462  0.3913
  860SOL     OW 3437   2.664   2.600   0.180  0.4024  0.1065 -0.0723
  860SOL    HW1 3438   2.724   2.576   0.247 -1.2303 -1.8042 -2.6780
  860SOL    HW2 3439   2.703   2.674   0.137  1.5190 -4.1382 -3.4300
  860SOL     MW 3440   2.677   2.607   0.183  0.3343 -0.7056 -0.8591
  861SOL     OW 3441   1.547   2.149   1.146  0.3903  0.2176  0.0324
  861SOL    HW1 3442   1.569   2.224   1.199 -0.9259 -0.0380  0.8569
  861SOL    HW2 3443   1.498   2.083   1.194 -0.1773  2.1800  0.5926
  861SOL     MW 3444   1.543   2.150   1.159  0.1417  0.4428  0.2151
  862SOL     OW 3445   2.425   1.785   1.541 -0.0793  0.0205  0.2738
  862SOL    HW1 3446   2.350   1.838   1.569 -0.1653  2.0830  2.8614
  862SOL    HW2 3447   2.405   1.754   1.456  2.3317 -0.5798 -0.6297
  862SOL     MW 3448   2.413   1.788   1.534  0.2275  0.2134  0.4960
  863SOL     OW 3449   3.032   1.852   1.048 -0.3242 -0.5116 -0.3458
  863SOL    HW1 3450   3.097   1.820   1.109 -1.8569 -1.0766 -1.6744
  863SOL    HW2 3451   2.981   1.919   1.093 -1.6190 -2.1113  2.0656
  863SOL     MW 3452   3.034   1.857   1.062 -0.6973 -0.7972 -0.2029
  864SOL     OW 3453   3.080   1.922   0.791 -0.7641 -0.4736 -0.1693
  864SOL    HW1 3454   3.059   1.879   0.875  0.3722  2.3085  2.4558
  864SOL    HW2 3455   3.041   1.855   0.728  0.8093  1.0121 -0.6161
  864SOL     MW 3456   3.072   1.908   0.794 -0.4066  0.0895  0.1181
  865SOL     OW 3457   2.621   2.128   0.005 -0.3692  0.3726 -0.3640
  865SOL    HW1 3458   2.587   2.062   0.067  3.0293 -2.1871 -2.2564
  865SOL    HW2 3459   2.560   2.127  -0.068 -0.2430 -0.6803  1.1112
  865SOL     MW 3460   2.609   2.119   0.004  0.0959 -0.1041 -0.4191
  866SOL     OW 3461   2.686   2.316   1.639  0.0132 -0.2404 -0.3725
  866SOL    HW1 3462   2.655   2.230   1.669 -0.2276  0.3208 -1.0622
  866SOL    HW2 3463   2.715   2.309   1.543  4.9056  1.6673 -0.4575
  866SOL     MW 3464   2.686   2.303   1.631  0.6270  0.0853 -0.4748
  867SOL     OW 3465   0.018   2.694   1.797 -0.0892  0.7555 -0.0320
  867SOL    HW1 3466   0.030   2.684   1.890  1.4184  0.2656  1.9918
  867SOL    HW2 3467  -0.003   2.788   1.787  1.7647  0.6815  1.2700
  867SOL     MW 3468   0.017   2.705   1.808  0.3543  0.6811  0.4068
  868SOL     OW 3469   2.830   2.606   0.565 -0.0548 -0.5877 -0.2811
  868SOL    HW1 3470   2.754   2.548   0.559 -0.4046 -0.9840 -1.0690
  868SOL    HW2 3471   2.802   2.693   0.526  0.3870 -0.1244  0.9937
  868SOL     MW 3472   2.817   2.610   0.559 -0.0426 -0.5789 -0.2168
  869SOL     OW 3473   2.058   2.370   1.171  0.8740  0.1100  0.5035
  869SOL    HW1 3474   2.151   2.379   1.146  0.1507  0.0401 -0.5008
  869SOL    HW2 3475   2.018   2.322   1.097  1.9248 -1.8765  1.7596
  869SOL     MW 3476   2.065   2.365   1.158  0.9172 -0.1613  0.5367
  870SOL     OW 3477   2.154   3.095   0.474 -0.1617  0.3343  0.0564
  870SOL    HW1 3478   2.203   3.161   0.419  3.4676  1.2270 -2.5669
  870SOL    HW2 3479   2.184   3.006   0.446  0.3337  0.2225  0.3710
  870SOL     MW 3480   2.165   3.092   0.463  0.3825  0.4374 -0.2482
  871SOL     OW 3481   2.491   2.119   0.948 -0.3334  0.4436 -0.0046
  871SOL    HW1 3482   2.424   2.056   0.912  1.5308  1.3353  0.9619
  871SOL    HW2 3483   2.438   2.186   0.994 -1.2540 -0.6339  0.0567
  871SOL     MW 3484   2.475   2.119   0.949 -0.2089  0.4190  0.1310
  872SOL     OW 3485   2.025   2.561   1.511 -0.9667 -0.1337  0.6989
  872SOL    HW1 3486   1.992   2.605   1.592 -0.4148  0.5644  0.6654
  872SOL    HW2 3487   1.964   2.488   1.493 -0.2569 -0.8265 -0.6108
  872SOL     MW 3488   2.013   2.557   1.519 -0.8003 -0.1330  0.5217
  873SOL     OW 3489   2.936   2.052   1.908  0.2239  0.6519  0.3981
  873SOL    HW1 3490   2.956   2.128   1.966 -1.5605  1.6712  0.2938
  873SOL    HW2 3491   2.978   2.068   1.828 -2.0685  1.8280 -1.2595
  873SOL     MW 3492   2.945   2.064   1.905 -0.3140  0.9415  0.1656
  874SOL     OW 3493   2.289   1.491   2.373 -0.7511 -0.7580 -0.1965
  874SOL    HW1 3494   2.248   1.432   2.306 -0.4845  2.7174  0.6666
  874SOL    HW2 3495   2.338   1.443   2.438 -1.2778  0.5656  0.2481
  874SOL     MW 3496   2.290   1.477   2.373 -0.7854 -0.1248 -0.0240
  875SOL     OW 3497   2.324   2.326   1.069  0.4207  0.2231 -0.3827
  875SOL    HW1 3498   2.349   2.402   1.010  1.9928  1.0204  1.3851
  875SOL    HW2 3499   2.358   2.338   1.158  1.2331 -2.7289 -1.7353
  875SOL     MW 3500   2.332   2.338   1.073  0.7353 -0.0612 -0.3279
  876SOL     OW 3501   3.025   2.327   1.234 -0.7363 -0.1084  0.1522
  876SOL    HW1 3502   3.060   2.339   1.147  1.2843 -1.8138 -0.7716
  876SOL    HW2 3503   3.095   2.374   1.285 -0.1155 -2.2317  0.7242
  876SOL     MW 3504   3.039   2.334   1.230 -0.3878 -0.6135  0.1058
  877SOL     OW 3505   3.040   2.693   0.335  0.0269 -0.3105  0.4312
  877SOL    HW1 3506   3.087   2.774   0.352 -1.4384  0.9226 -0.2427
  877SOL    HW2 3507   3.029   2.691   0.242 -0.9337  0.3483  2.1484
  877SOL     MW 3508   3.045   2.704   0.325 -0.2932 -0.0609  0.5689
  878SOL     OW 3509   2.402   1.845   1.258 -0.7423 -0.0255 -0.5057
  878SOL    HW1 3510   2.353   1.764   1.271 -3.1149  0.0641 -0.6583
  878SOL    HW2 3511   2.479   1.822   1.207  2.1956 -3.2008  0.6343
  878SOL     MW 3512   2.406   1.831   1.253 -0.6677 -0.4326 -0.3754
  879SOL     OW 3513   2.658   2.412   0.956 -0.0144 -0.0743 -0.4007
  879SOL    HW1 3514   2.714   2.478   0.997  0.0564 -0.1487  0.5232
  879SOL    HW2 3515   2.707   2.380   0.883 -0.9145 -0.1551  2.1237
  879SOL     MW 3516   2.672   2.416   0.951 -0.1238 -0.0948  0.0542
  880SOL     OW 3517   2.581   2.203   0.687  0.6661  0.1023 -0.3611
  880SOL    HW1 3518   2.553   2.184   0.784 -3.1016  0.2365  2.9513
  880SOL    HW2 3519   2.579   2.117   0.637  3.2301  0.4102 -0.9286
  880SOL     MW 3520   2.577   2.189   0.693  0.5073  0.1607  0.0010
  881SOL     OW 3521   2.942   2.718   0.784  0.6215  1.1355  0.2400
  881SOL    HW1 3522   2.913   2.639   0.734  0.8664 -1.3993 -1.4983
  881SOL    HW2 3523   3.038   2.710   0.781  0.0243  0.9350 -1.9733
  881SOL     MW 3524   2.951   2.706   0.777  0.5750  0.7746 -0.2814
  882SOL     OW 3525   2.247   2.882   1.932 -0.5381  0.2059  0.3753
  882SOL    HW1 3526   2.242   2.868   1.837  0.2944 -2.1566 -0.0869
  882SOL    HW2 3527   2.179   2.827   1.967  0.0193  2.2182 -3.6904
  882SOL     MW 3528   2.237   2.873   1.924 -0.3547  0.1597 -0.2221
  883SOL     OW 3529   2.296   2.245   1.491 -0.3203 -0.3298 -0.4543
  883SOL    HW1 3530   2.377   2.199   1.461 -0.1270 -1.8853 -1.5251
  883SOL    HW2 3531   2.239   2.206   1.427 -0.6925 -1.7033  1.0120
  883SOL     MW 3532   2.299   2.234   1.479 -0.3439 -0.7163 -0.4021
  884SOL     OW 3533   1.954   1.833   1.109 -0.1675 -0.3947 -1.1201
  884SOL    HW1 3534   1.876   1.891   1.090 -0.6042 -0.3276  0.4284
  884SOL    HW2 3535   2.043   1.879   1.124  2.0785 -2.4023 -0.4571
  884SOL     MW 3536   1.956   1.847   1.108  0.0712 -0.6507 -0.8283
  885SOL     OW 3537   2.861   2.403   1.836  0.1595 -0.3401  0.7758
  885SOL    HW1 3538   2.956   2.391   1.820  0.7799 -0.3480  0.5215
  885SOL    HW2 3539   2.808   2.359   1.766 -0.3293 -0.7580  1.8987
  885SOL     MW 3540   2.866   2.396   1.825  0.1769 -0.3963  0.8904
  886SOL     OW 3541   2.797   2.355   1.386  0.0391 -0.5054  0.5478
  886SOL    HW1 3542   2.880   2.343   1.339 -0.1278 -2.9915 -0.1108
  886SOL    HW2 3543   2.785   2.449   1.393 -1.5630 -0.9562 -4.1392
  886SOL     MW 3544   2.806   2.366   1.381 -0.1943 -0.8929 -0.1575
  887SOL     OW 3545   2.299   2.597   1.538 -0.5834  0.3665 -0.9212
  887SOL    HW1 3546   2.312   2.649   1.459 -0.9603  0.3826 -1.9551
  887SOL    HW2 3547   2.199   2.587   1.535 -2.2277  1.3447  0.1670
  887SOL     MW 3548   2.287   2.603   1.527 -0.8501  0.4977 -0.9140
  888SOL     OW 3549   1.858   2.050   1.378  0.8490 -0.2092  0.3639
  888SOL    HW1 3550   1.942   2.065   1.337 -0.6545 -0.7661 -1.3668
  888SOL    HW2 3551   1.863   2.097   1.464 -0.6277  0.5188  1.5046
  888SOL     MW 3552   1.870   2.058   1.384  0.4558 -0.1867  0.2861
  889SOL     OW 3553   2.307   2.005   2.105  0.1979  0.4459  0.1635
  889SOL    HW1 3554   2.370   1.973   2.169 -1.1117  0.3815  0.5800
  889SOL    HW2 3555   2.351   2.051   2.035 -1.9101 -0.0398  1.6038
  889SOL     MW 3556   2.321   2.007   2.104 -0.2530  0.3733  0.4085
  890SOL     OW 3557   0.132   2.359   0.129 -0.0168 -0.1313  0.1242
  890SOL    HW1 3558   0.086   2.443   0.103 -2.2565 -2.5451  0.6008
  890SOL    HW2 3559   0.085   2.328   0.212  1.0935 -0.2840 -0.6525
  890SOL     MW 3560   0.120   2.366   0.137 -0.1658 -0.4699  0.0846
  891SOL     OW 3561   3.033   2.041   1.294  0.2428 -0.7151 -0.0782
  891SOL    HW1 3562   3.113   2.023   1.341 -0.5237  0.3406  1.0722
  891SOL    HW2 3563   3.047   2.133   1.269  1.5834  0.4047 -1.1022
  891SOL     MW 3564   3.045   2.051   1.297  0.3185 -0.4281 -0.0615
  892SOL     OW 3565   2.423   2.368   2.804  0.1642  0.2232 -0.5389
  892SOL    HW1 3566   2.422   2.289   2.859 -1.9351  0.3181 -1.1485
  892SOL    HW2 3567   2.522   2.397   2.814 -0.4443  3.4282 -1.4219
  892SOL     MW 3568   2.436   2.361   2.812 -0.1931  0.6586 -0.7358
  893SOL     OW 3569   1.598   2.383   1.290 -0.1062  0.4220  0.5911
  893SOL    HW1 3570   1.515   2.418   1.321  0.3141 -2.0616 -1.0603
  893SOL    HW2 3571   1.653   2.378   1.366 -0.6525  1.9065  0.3724
  893SOL     MW 3572   1.594   2.387   1.304 -0.1228  0.2902  0.3443
  894SOL     OW 3573   2.832   1.828   0.469 -0.0933  0.5915 -0.0820
  894SOL    HW1 3574   2.738   1.845   0.493  3.2705 -0.4224  0.5156
  894SOL    HW2 3575   2.818   1.801   0.374 -0.0650 -0.7324 -2.3304
  894SOL     MW 3576   2.818   1.827   0.459  0.3543  0.2831 -0.2998
  895SOL     OW 3577   2.129   2.149   1.295  0.3766 -0.7435 -0.6437
  895SOL    HW1 3578   2.103   2.229   1.253 -1.4692  2.1216  0.8610
  895SOL    HW2 3579   2.180   2.101   1.234 -1.1127 -0.2859  2.6609
  895SOL     MW 3580   2.132   2.153   1.282 -0.0634 -0.3051 -0.0092
  896SOL     OW 3581   2.158   2.790   1.082  0.3889  0.0105  0.5346
  896SOL    HW1 3582   2.220   2.768   1.153  2.3882 -1.6260  1.4143
  896SOL    HW2 3583   2.167   2.703   1.029  1.8155  0.0875  0.4754
  896SOL     MW 3584   2.167   2.776   1.085  0.8409 -0.1952  0.6429
  897SOL     OW 3585   2.998   2.892   0.115 -0.1746 -0.7573 -0.2038
  897SOL    HW1 3586   3.080   2.871   0.066  1.9417  2.4504 -2.6698
  897SOL    HW2 3587   2.913   2.856   0.075  0.2654  3.6179  0.5068
  897SOL     MW 3588   2.997   2.885   0.103  0.1627  0.2432 -0.4354
  898SOL     OW 3589   2.091   0.154   1.400  0.0498 -0.0630 -0.1830
  898SOL    HW1 3590   2.038   0.078   1.412  0.2311 -1.7814  0.6025
  898SOL    HW2 3591   2.094   0.163   1.304  0.3257 -1.5800  0.7703
  898SOL     MW 3592   2.084   0.145   1.389  0.1101 -0.4899  0.0464
  899SOL     OW 3593   2.927   2.927   0.635 -0.2358  0.5323 -0.2153
  899SOL    HW1 3594   2.924   2.855   0.700  1.1742  0.2449  0.5696
  899SOL    HW2 3595   2.856   2.985   0.640  1.3605 -0.4674  1.0966
  899SOL     MW 3596   2.917   2.925   0.644  0.1609  0.3625  0.0614
  900SOL     OW 3597   0.086   2.438   1.025  0.4641 -0.2941  0.2864
  900SOL    HW1 3598   0.087   2.534   1.026  0.9877 -1.0214 -1.3250
  900SOL    HW2 3599   0.121   2.412   0.939  0.2774 -0.7559  3.4648
  900SOL     MW 3600   0.091   2.447   1.014  0.5085 -0.4510  0.4932
  901SOL     OW 3601   1.756   2.895   1.675  0.2299  0.6104  0.1011
  901SOL    HW1 3602   1.821   2.821   1.681  0.5233 -0.8424  0.7628
  901SOL    HW2 3603   1.702   2.880   1.595 -0.6005  1.5287 -0.5521
  901SOL     MW 3604   1.758   2.883   1.665  0.1590  0.5398  0.1022
  902SOL     OW 3605   2.659   2.099   1.808  0.5332  0.2757 -0.1229
  902SOL    HW1 3606   2.646   2.014   1.768 -0.0848 -1.4218 -1.7920
  902SOL    HW2 3607   2.739   2.076   1.861  2.6798  0.5292  1.2895
  902SOL     MW 3608   2.668   2.085   1.809  0.7349  0.0851 -0.1568
  903SOL     OW 3609   1.597   2.764   0.509 -0.2626  0.2399 -0.1574
  903SOL    HW1 3610   1.639   2.687   0.552 -0.7510 -1.9978  2.0890
  903SOL    HW2 3611   1.561   2.808   0.591 -0.1868 -0.0025 -1.4373
  903SOL     MW 3612   1.598   2.759   0.525 -0.3170 -0.0873 -0.0299
  904SOL     OW 3613   2.494   2.496   1.717 -0.1394  0.1818  0.2023
  904SOL    HW1 3614   2.428   2.523   1.655  2.7014  2.5516  1.5258
  904SOL    HW2 3615   2.558   2.446   1.672  0.8784  2.4619  0.7120
  904SOL     MW 3616   2.494   2.493   1.703  0.3697  0.7953  0.4442
  905SOL     OW 3617   2.327   2.571   2.159 -0.3877  0.4979  0.0265
  905SOL    HW1 3618   2.384   2.525   2.098  0.1862 -2.0518  2.0273
  905SOL    HW2 3619   2.285   2.500   2.209 -2.1899 -0.8038  3.1031
  905SOL     MW 3620   2.329   2.556   2.157 -0.5497 -0.0102  0.6964
  906SOL     OW 3621   2.423   2.534   0.910  0.2817 -0.6914  0.0110
  906SOL    HW1 3622   2.510   2.489   0.912 -2.1902 -0.7911  1.6807
  906SOL    HW2 3623   2.430   2.627   0.895  2.0774 -3.7588 -1.0163
  906SOL     MW 3624   2.435   2.541   0.908  0.1925 -1.1092  0.0958
  907SOL     OW 3625   2.570   2.885   1.320  0.8164 -0.9607  0.0122
  907SOL    HW1 3626   2.637   2.932   1.371  1.7472  3.5242 -3.7699
  907SOL    HW2 3627   2.604   2.885   1.230 -0.5743 -1.6088 -2.0055
  907SOL     MW 3628   2.584   2.891   1.315  0.7557 -0.4545 -0.7530
  908SOL     OW 3629   2.745   2.379   0.004 -0.6009  0.4773 -0.1841
  908SOL    HW1 3630   2.701   2.293   0.027  2.5661  1.6063 -0.4052
  908SOL    HW2 3631   2.703   2.440   0.070  0.6982  0.0128  0.7763
  908SOL     MW 3632   2.734   2.375   0.016 -0.0117  0.5649 -0.0866
  909SOL     OW 3633   1.700   0.182   1.146  0.6874 -0.0752 -0.2139
  909SOL    HW1 3634   1.689   0.259   1.086 -0.0924  0.0460  1.2774
  909SOL    HW2 3635   1.794   0.184   1.169 -1.2768 -2.4340 -1.6416
  909SOL     MW 3636   1.711   0.192   1.141  0.3253 -0.3705 -0.2055
  910SOL     OW 3637   2.295   1.789   0.379  1.1738  0.3262 -0.4065
  910SOL    HW1 3638   2.231   1.717   0.402  1.1969  0.3793  0.6391
  910SOL    HW2 3639   2.262   1.842   0.304  1.4540  0.3929  0.5110
  910SOL     MW 3640   2.282   1.786   0.372  1.2138  0.3420 -0.1475
  911SOL     OW 3641   2.176   2.204   1.741  0.2347  0.7142  0.1729
  911SOL    HW1 3642   2.242   2.171   1.802 -2.5484 -0.5444  1.1272
  911SOL    HW2 3643   2.233   2.246   1.678  1.1866 -1.1326  2.5295
  911SOL     MW 3644   2.192   2.205   1.741 -0.0069  0.3044  0.6097
  912SOL     OW 3645   2.933   1.890   1.534  0.3573  0.0430 -0.1004
  912SOL    HW1 3646   2.939   1.958   1.457  0.6058 -0.2844 -0.0301
  912SOL    HW2 3647   2.839   1.900   1.567  1.3888 -2.3667 -0.2536
  912SOL     MW 3648   2.922   1.901   1.528  0.5262 -0.3182 -0.1113
  913SOL     OW 3649   2.575   2.994   0.365  0.0765  0.1547  0.5389
  913SOL    HW1 3650   2.643   2.927   0.373 -2.2017 -0.6312 -2.0404
  913SOL    HW2 3651   2.494   2.944   0.391 -1.0188 -0.5820  0.6339
  913SOL     MW 3652   2.574   2.979   0.369 -0.3686 -0.0462  0.2111
  914SOL     OW 3653   2.761   1.728   3.058 -0.9711  0.1993  0.2027
  914SOL    HW1 3654   2.808   1.803   3.021  2.9349  0.1841  2.9741
  914SOL    HW2 3655   2.664   1.726   3.044  1.6661 -0.8471 -0.0228
  914SOL     MW 3656   2.754   1.738   3.051 -0.1078  0.0593  0.5386
  915SOL     OW 3657   1.734   0.234   0.237 -0.4882 -0.1093  0.0410
  915SOL    HW1 3658   1.784   0.162   0.269 -0.7995  3.5131  0.9072
  915SOL    HW2 3659   1.647   0.199   0.235  1.5002 -0.9110 -0.8075
  915SOL     MW 3660   1.729   0.220   0.241 -0.2669  0.2628  0.0433
  916SOL     OW 3661   1.792   2.063   1.925  0.8516  0.1363 -0.3121
  916SOL    HW1 3662   1.822   2.153   1.915 -0.7761  1.3648 -1.9130
  916SOL    HW2 3663   1.784   2.035   1.832 -1.3283 -3.5013  0.1569
  916SOL     MW 3664   1.795   2.071   1.911  0.3492 -0.1816 -0.4615
  917SOL     OW 3665   2.453   2.259   2.559  0.6325 -0.8018  0.1610
  917SOL    HW1 3666   2.448   2.282   2.654  0.5858  0.8434 -0.7665
  917SOL    HW2 3667   2.540   2.283   2.528 -0.9381 -0.1995  0.0961
  917SOL     MW 3668   2.464   2.265   2.568  0.4191 -0.5053  0.0301
  918SOL     OW 3669   1.993   1.630   2.683 -0.3849 -0.0386  0.5680
  918SOL    HW1 3670   1.932   1.668   2.614 -1.3087 -1.2340  0.5073
  918SOL    HW2 3671   2.078   1.680   2.668  2.8783 -0.3548 -0.0708
  918SOL     MW 3672   1.996   1.642   2.672 -0.0762 -0.2380  0.4757
  919SOL     OW 3673   0.074   2.329   2.261 -0.2315 -0.3785  0.6155
  919SOL    HW1 3674   0.005   2.265   2.239  0.3178 -0.0000 -0.4621
  919SOL    HW2 3675   0.123   2.309   2.176 -2.9904 -0.0589 -0.1749
  919SOL     MW 3676   0.071   2.318   2.247 -0.5230 -0.2864  0.3690
  920SOL     OW 3677   2.764   2.792   0.008  0.2367  0.2663  0.0106
  920SOL    HW1 3678   2.680   2.837  -0.005  1.2446  1.8103 -1.4599
  920SOL    HW2 3679   2.773   2.730  -0.065  0.1227  1.8172  0.0469
  920SOL     MW 3680   2.754   2.790  -0.004  0.3547  0.6747 -0.1786
  921SOL     OW 3681   2.393   2.601   2.622  0.4381 -0.7148 -0.0036
  921SOL    HW1 3682   2.481   2.626   2.592  1.3634 -2.7985  2.2847
  921SOL    HW2 3683   2.415   2.551   2.695 -0.2980 -1.0817 -4.2558
  921SOL     MW 3684   2.408   2.597   2.628  0.4630 -1.0381 -0.2627
  922SOL     OW 3685   2.055   2.831   0.319  0.0533 -0.4851 -0.1380
  922SOL    HW1 3686   2.013   2.833   0.229  0.6351  1.2202 -0.5886
  922SOL    HW2 3687   2.035   2.733   0.344 -0.7433  0.6807  3.0729
  922SOL     MW 3688   2.047   2.818   0.311  0.0250 -0.1063  0.2262
  923SOL     OW 3689   2.177   2.825   1.655 -0.3160  0.1788  0.1658
  923SOL    HW1 3690   2.226   2.752   1.614 -0.4190  0.9329 -1.0321
  923SOL    HW2 3691   2.130   2.865   1.584  1.9135  1.4052  1.5112
  923SOL     MW 3692   2.177   2.821   1.640 -0.0354  0.4401  0.1853
  924SOL     OW 3693   1.227   2.616   2.499  0.2853 -0.1775 -0.1081
  924SOL    HW1 3694   1.290   2.687   2.497 -0.2992 -1.4945 -2.0078
  924SOL    HW2 3695   1.226   2.581   2.586 -2.3620 -0.2794  1.6994
  924SOL     MW 3696   1.235   2.621   2.510 -0.1411 -0.3647 -0.1203
  925SOL     OW 3697   2.953   0.252   2.602  0.3312  0.0278  0.5023
  925SOL    HW1 3698   2.918   0.252   2.509 -0.4315  1.0781 -2.7479
  925SOL    HW2 3699   2.928   0.326   2.645 -0.1315 -0.7063 -1.9182
  925SOL     MW 3700   2.945   0.261   2.595  0.1695  0.0695 -0.2459
  926SOL     OW 3701   2.753   2.412   2.087  0.5280  0.2601 -0.1129
  926SOL    HW1 3702   2.810   2.469   2.141 -2.5214  0.7228 -0.2175
  926SOL    HW2 3703   2.797   2.423   2.001  1.0922 -0.8288  0.0791
  926SOL     MW 3704   2.766   2.421   2.083  0.2001  0.1775 -0.1014
  927SOL     OW 3705   2.308   0.148   0.304  0.4169 -0.2149  0.3723
  927SOL    HW1 3706   2.407   0.144   0.291 -1.0666 -1.7024  0.7903
  927SOL    HW2 3707   2.265   0.145   0.219 -0.5837  0.2355  1.1622
  927SOL     MW 3708   2.316   0.147   0.291  0.0892 -0.3518  0.5316
  928SOL     OW 3709   2.084   2.426   1.896  0.2458 -0.0099  0.3676
  928SOL    HW1 3710   2.120   2.358   1.838  4.2919  0.0519  0.1607
  928SOL    HW2 3711   2.154   2.445   1.955  1.6379  4.7020  0.6307
  928SOL     MW 3712   2.098   2.419   1.896  0.9633  0.6200  0.3750
  929SOL     OW 3713   2.689   2.378   2.445 -0.1580  0.2052  0.1316
  929SOL    HW1 3714   2.696   2.378   2.347  2.6050 -2.0042 -1.4655
  929SOL    HW2 3715   2.772   2.364   2.486  1.4924 -0.0621  0.2030
  929SOL     MW 3716   2.701   2.376   2.438  0.4243 -0.1216 -0.0697
  930SOL     OW 3717   2.013   2.829   2.703  0.3436 -0.0400  0.4715
  930SOL    HW1 3718   2.034   2.758   2.768  0.4866  0.9533 -0.8024
  930SOL    HW2 3719   2.072   2.908   2.725  2.1022 -0.3349 -0.2218
  930SOL     MW 3720   2.023   2.830   2.715  0.5945  0.0521  0.2120
  931SOL     OW 3721   3.019   2.782   2.268  0.3054 -0.2906 -0.0475
  931SOL    HW1 3722   3.050   2.801   2.359  0.8779 -5.1563 -0.2922
  931SOL    HW2 3723   3.093   2.795   2.218 -1.2439  0.9775  0.3374
  931SOL     MW 3724   3.033   2.786   2.274  0.1766 -0.7653 -0.0290
  932SOL     OW 3725   2.831   2.004   2.532 -0.2261  0.4594  0.8507
  932SOL    HW1 3726   2.926   2.004   2.550 -0.6593  1.4536  1.4576
  932SOL    HW2 3727   2.818   1.988   2.438 -2.1548 -1.0796  0.0634
  932SOL     MW 3728   2.842   2.002   2.522 -0.5377  0.3875  0.8269
  933SOL     OW 3729   2.035   2.869   2.259 -0.1220 -0.1507  0.2072
  933SOL    HW1 3730   2.085   2.925   2.315 -3.0535  1.0117 -0.3284
  933SOL    HW2 3731   1.957   2.918   2.225  1.5388  1.8860 -0.6435
  933SOL     MW 3732   2.031   2.883   2.262 -0.2897  0.2714  0.0243
  934SOL     OW 3733   2.018   2.684   2.475 -0.4155 -0.3361 -0.1105
  934SOL    HW1 3734   2.037   2.739   2.555  2.0414 -0.3708 -0.8373
  934SOL    HW2 3735   2.038   2.741   2.399 -0.8921  1.6502 -0.6622
  934SOL     MW 3736   2.023   2.699   2.475 -0.1542 -0.0786 -0.2792
  935SOL     OW 3737   2.645   1.611   1.809  0.1813  0.1533  0.0082
  935SOL    HW1 3738   2.723   1.563   1.799 -3.0823 -1.0922  2.6078
  935SOL    HW2 3739   2.579   1.569   1.749 -1.5739 -0.4099  1.7977
  935SOL     MW 3740   2.647   1.599   1.800 -0.4809 -0.0854  0.5873
  936SOL     OW 3741   2.997   2.270   3.080 -0.1813 -0.3189 -0.2127
  936SOL    HW1 3742   3.069   2.315   3.123 -1.8258  0.5697  0.9676
  936SOL    HW2 3743   2.917   2.315   3.108 -0.2758 -1.0541  2.2003
  936SOL     MW 3744   2.996   2.282   3.089 -0.4108 -0.2987  0.2614
  937SOL     OW 3745   1.948   2.095   2.699  0.1010  0.1953 -0.3598
  937SOL    HW1 3746   2.032   2.046   2.721 -3.4119 -0.4057 -0.9756
  937SOL    HW2 3747   1.936   2.072   2.605 -0.3912  2.4782 -0.2250
  937SOL     MW 3748   1.957   2.085   2.689 -0.4274  0.4172 -0.4233
  938SOL     OW 3749   2.262   1.829   1.908 -0.0661 -0.6030 -0.0277
  938SOL    HW1 3750   2.246   1.876   1.830  0.1575  2.9157  1.6864
  938SOL    HW2 3751   2.267   1.898   1.978  1.9798  1.9424  0.7515
  938SOL     MW 3752   2.261   1.845   1.907  0.2333  0.1971  0.3013
  939SOL     OW 3753   2.813   1.975   2.250  0.0837 -0.0944  0.0096
  939SOL    HW1 3754   2.840   1.904   2.184 -0.5039 -0.7423  1.1489
  939SOL    HW2 3755   2.719   1.980   2.242 -0.1084  2.0510 -1.0429
  939SOL     MW 3756   2.804   1.967   2.240 -0.0191  0.1032  0.0210
  940SOL     OW 3757   2.314   0.175   2.636 -0.1607 -0.0997 -0.5103
  940SOL    HW1 3758   2.300   0.077   2.646  0.6200  1.0646 -2.7825
  940SOL    HW2 3759   2.364   0.199   2.712 -0.6594  1.4568  1.9705
  940SOL     MW 3760   2.319   0.165   2.648 -0.1235  0.2593 -0.4828
  941SOL     OW 3761   0.190   2.289   2.017  0.1501  0.5397 -0.0917
  941SOL    HW1 3762   0.279   2.262   2.022 -0.4622  0.0343 -0.3657
  941SOL    HW2 3763   0.150   2.278   1.923 -3.9324 -0.7249 -3.6920
  941SOL     MW 3764   0.196   2.284   2.005 -0.4693  0.3062 -0.6029
  942SOL     OW 3765   2.934   2.200   2.137  0.3967 -0.8408 -0.1228
  942SOL    HW1 3766   2.864   2.270   2.128 -0.8837 -0.3985  1.9802
  942SOL    HW2 3767   2.890   2.121   2.172 -2.0568  0.9457  0.9126
  942SOL     MW 3768   2.919   2.199   2.141 -0.0959 -0.5468  0.2913
  943SOL     OW 3769   0.315   2.058   2.293 -1.0139  0.4286 -0.7158
  943SOL    HW1 3770   0.276   2.114   2.359 -0.6466 -0.4815 -3.8655
  943SOL    HW2 3771   0.408   2.054   2.330 -0.8887  2.1945  0.1149
  943SOL     MW 3772   0.322   2.064   2.307 -0.9489  0.5415 -1.0218
  944SOL     OW 3773   2.109   2.704   2.058  0.3125  0.2540  0.4152
  944SOL    HW1 3774   2.191   2.673   2.095  0.1548 -0.9481  2.0434
  944SOL    HW2 3775   2.081   2.764   2.125  1.1951 -2.7493  0.2129
  944SOL     MW 3776   2.116   2.707   2.072  0.4082 -0.3008  0.6034
  945SOL     OW 3777   2.719   2.675   2.856 -0.7861  0.0752  0.5382
  945SOL    HW1 3778   2.705   2.575   2.855 -0.8730  0.9338  0.2357
  945SOL    HW2 3779   2.765   2.692   2.774 -0.3995 -0.4339  2.3145
  945SOL     MW 3780   2.723   2.664   2.845 -0.7466  0.1213  0.7326
  946SOL     OW 3781   2.487   2.756   2.311 -0.4431  0.2368  0.1430
  946SOL    HW1 3782   2.505   2.821   2.241 -3.5532 -0.4683  2.5633
  946SOL    HW2 3783   2.425   2.699   2.261  1.4950 -0.4546  1.5581
  946SOL     MW 3784   2.481   2.757   2.295 -0.5977  0.0526  0.6490
  947SOL     OW 3785   1.984   0.116   0.291 -0.1231  0.0591  0.0719
  947SOL    HW1 3786   1.954   0.076   0.215 -0.9024  0.0833  1.9346
  947SOL    HW2 3787   1.999   0.046   0.350 -0.2294  1.2139  0.5282
  947SOL     MW 3788   1.982   0.101   0.288 -0.2400  0.2147  0.3779
  948SOL     OW 3789   1.759   2.966   2.676 -0.0488 -0.3157  0.0718
  948SOL    HW1 3790   1.815   2.888   2.670 -0.8350 -0.4557  0.3865
  948SOL    HW2 3791   1.734   2.988   2.582  0.0893 -0.0472  1.4619
  948SOL     MW 3792   1.763   2.959   2.663 -0.1343 -0.2987  0.2967
  949SOL     OW 3793   2.520   1.990   2.269 -0.4603 -0.0754 -0.0794
  949SOL    HW1 3794   2.517   1.893   2.291 -1.0404 -1.3411 -0.1525
  949SOL    HW2 3795   2.457   2.035   2.327  1.0080 -2.0474 -2.1969
  949SOL     MW 3796   2.511   1.983   2.280 -0.3431 -0.5026 -0.3684
  950SOL     OW 3797   2.275   2.524   2.987 -0.5746  0.4629 -0.3381
  950SOL    HW1 3798   2.341   2.481   2.931  0.4880 -0.9356 -0.9341
  950SOL    HW2 3799   2.188   2.541   2.941  1.2020  0.3356 -1.9822
  950SOL     MW 3800   2.272   2.520   2.973 -0.2000  0.2615 -0.6337
  951SOL     OW 3801   2.996   2.134   2.835  0.0501 -0.1876  0.0318
  951SOL    HW1 3802   3.035   2.188   2.903  3.0514  2.2570 -4.2107
  951SOL    HW2 3803   3.059   2.132   2.767 -0.0543  0.1392  1.0971
  951SOL     MW 3804   3.009   2.141   2.835  0.4323  0.1781 -0.3874
  952SOL     OW 3805   0.005   1.658   2.167  0.0159 -0.2532  0.0160
  952SOL    HW1 3806  -0.080   1.655   2.115 -0.5972  1.7921  0.0739
  952SOL    HW2 3807   0.040   1.751   2.172  0.8680 -0.6103  1.6114
  952SOL     MW 3808  -0.001   1.670   2.161  0.0474 -0.0305  0.2341
  953SOL     OW 3809   1.918   1.794   2.905  0.0349  0.2515 -0.6330
  953SOL    HW1 3810   1.844   1.762   2.956  2.9507 -3.8631  0.8328
  953SOL    HW2 3811   1.946   1.720   2.848 -2.4811 -0.3557 -1.1125
  953SOL     MW 3812   1.912   1.780   2.904  0.0877 -0.3715 -0.5029
  954SOL     OW 3813   2.466   2.105   2.878  0.2183  0.3048  0.3902
  954SOL    HW1 3814   2.378   2.061   2.858 -1.2425 -1.5853 -0.9064
  954SOL    HW2 3815   2.520   2.060   2.810 -1.9493 -0.4427  0.2915
  954SOL     MW 3816   2.461   2.093   2.866 -0.2605 -0.0432  0.2061
  955SOL     OW 3817   1.588   1.583   2.632  0.0033 -0.4748  0.4250
  955SOL    HW1 3818   1.553   1.618   2.541 -0.3388  0.2551 -0.0233
  955SOL    HW2 3819   1.673   1.623   2.643 -0.0274 -0.7801  1.5630
  955SOL     MW 3820   1.594   1.593   2.621 -0.0459 -0.4188  0.5160
  956SOL     OW 3821   2.694   2.411   2.837 -0.4338 -0.2816  0.3333
  956SOL    HW1 3822   2.727   2.381   2.923  2.0969  0.4343  0.3186
  956SOL    HW2 3823   2.757   2.380   2.775 -2.1688 -2.2742 -0.6603
  956SOL     MW 3824   2.706   2.403   2.840 -0.3288 -0.4501  0.2002
  957SOL     OW 3825   2.309   2.860   0.390  0.3468  0.0128  0.4046
  957SOL    HW1 3826   2.237   2.827   0.333  0.2847 -2.3898 -0.2266
  957SOL    HW2 3827   2.275   2.824   0.480 -0.1148 -0.8414  0.4964
  957SOL     MW 3828   2.295   2.851   0.395  0.2777 -0.4169  0.3335
  958SOL     OW 3829   2.054   2.586   2.862 -0.3643 -0.6462  0.0050
  958SOL    HW1 3830   2.018   2.506   2.812 -0.5900 -1.5296  2.0595
  958SOL    HW2 3831   1.986   2.587   2.930  1.7204  0.7010  0.3789
  958SOL     MW 3832   2.040   2.576   2.864 -0.1190 -0.5850  0.3254
  959SOL     OW 3833   2.448   2.612   0.371  0.2272 -0.6203 -0.3516
  959SOL    HW1 3834   2.502   2.625   0.295  2.0940  1.6935  2.7732
  959SOL    HW2 3835   2.401   2.696   0.389  3.1705 -1.0535 -1.7107
  959SOL     MW 3836   2.449   2.625   0.363  0.8618 -0.3722 -0.1186
  960SOL     OW 3837   1.968   2.304   2.225 -0.3221 -0.0864 -0.7135
  960SOL    HW1 3838   1.974   2.211   2.201 -0.1766  0.5282  2.6417
  960SOL    HW2 3839   1.926   2.308   2.312  0.0486 -0.4844  0.1725
  960SOL     MW 3840   1.964   2.292   2.233 -0.2540 -0.0578 -0.1539
  961SOL     OW 3841   2.242   2.324   2.246 -0.1110  0.0395 -0.1902
  961SOL    HW1 3842   2.150   2.312   2.218 -0.1887 -2.3515 -2.2500
  961SOL    HW2 3843   2.235   2.366   2.328 -0.9315 -1.1595 -1.6132
  961SOL     MW 3844   2.229   2.328   2.253 -0.2295 -0.4341 -0.6498
  962SOL     OW 3845   2.223   2.022   2.822 -0.4926  0.2993  0.0123
  962SOL    HW1 3846   2.167   2.025   2.897 -1.2141  3.0110 -0.6443
  962SOL    HW2 3847   2.229   1.929   2.792  0.8201 -2.4331 -0.9573
  962SOL     MW 3848   2.216   2.010   2.828 -0.4146  0.2966 -0.2023
  963SOL     OW 3849   1.828   2.610   2.056 -0.1175 -0.1800  0.0744
  963SOL    HW1 3850   1.923   2.628   2.076  2.4829 -0.3519 -0.7680
  963SOL    HW2 3851   1.829   2.521   2.024 -0.9709 -1.8365  0.5529
  963SOL     MW 3852   1.841   2.600   2.054  0.1130 -0.4213  0.0264
  964SOL     OW 3853   1.747   1.916   2.721 -0.0673  0.1780  0.0214
  964SOL    HW1 3854   1.800   1.996   2.713 -1.8943 -0.3417 -0.8954
  964SOL    HW2 3855   1.803   1.864   2.788 -0.6450 -3.2085 -1.8441
  964SOL     MW 3856   1.761   1.920   2.729 -0.3846 -0.3374 -0.3457
  965SOL     OW 3857   2.228   2.755   0.618 -0.5186  0.0409  0.1747
  965SOL    HW1 3858   2.218   2.662   0.613 -0.7502 -0.3197 -3.0141
  965SOL    HW2 3859   2.271   2.770   0.703 -0.6970  0.6473  2.8184
  965SOL     MW 3860   2.233   2.745   0.628 -0.5727  0.0734  0.1028
  966SOL     OW 3861   2.650   2.632   2.504  0.2183  0.4802 -0.0628
  966SOL    HW1 3862   2.605   2.675   2.434 -0.0266 -2.1541  1.3253
  966SOL    HW2 3863   2.663   2.543   2.468  0.6160  1.0805 -0.9122
  966SOL     MW 3864   2.646   2.626   2.490  0.2385  0.2119  0.0083
  967SOL     OW 3865   2.825   3.013   2.902 -0.3104 -0.0862  0.3093
  967SOL    HW1 3866   2.821   2.931   2.954 -0.2685 -0.6506  1.3005
  967SOL    HW2 3867   2.731   3.033   2.883  0.0421  1.2101 -0.9272
  967SOL     MW 3868   2.812   3.005   2.906 -0.2584  0.0103  0.2769
  968SOL     OW 3869   3.034   2.651   2.896  0.5483 -0.3495  0.2767
  968SOL    HW1 3870   2.970   2.652   2.827 -2.2122  2.3704 -2.7592
  968SOL    HW2 3871   3.070   2.561   2.895 -0.6786 -0.4346  1.8076
  968SOL     MW 3872   3.030   2.639   2.887  0.0222 -0.0018  0.0781
  969SOL     OW 3873   1.513   2.160   1.671 -0.1090  0.1804 -0.2159
  969SOL    HW1 3874   1.585   2.097   1.655  3.0919  2.3331 -0.6312
  969SOL    HW2 3875   1.480   2.141   1.756  1.0040  1.3133  1.0601
  969SOL     MW 3876   1.518   2.149   1.680  0.4601  0.6139 -0.1024
  970SOL     OW 3877   1.641   1.706   1.765  0.5088  0.2149  0.4958
  970SOL    HW1 3878   1.714   1.667   1.822 -0.3182 -3.2154 -0.3312
  970SOL    HW2 3879   1.573   1.721   1.828  1.4411 -1.6602 -2.2390
  970SOL     MW 3880   1.642   1.703   1.781  0.5227 -0.4851  0.0258
  971SOL     OW 3881   1.758   3.066   2.406 -0.5510 -0.2690 -0.1509
  971SOL    HW1 3882   1.788   3.039   2.320  1.1309 -0.4147 -3.1786
  971SOL    HW2 3883   1.804   3.147   2.424  0.1829 -2.5624  1.5652
  971SOL     MW 3884   1.768   3.073   2.397 -0.2323 -0.5908 -0.3240
  972SOL     OW 3885   0.260   2.877   2.463 -0.2435  0.0389  0.0417
  972SOL    HW1 3886   0.286   2.792   2.503 -0.6008 -1.4489 -1.2759
  972SOL    HW2 3887   0.338   2.930   2.467  1.1995  3.1697 -2.2015
  972SOL     MW 3888   0.274   2.873   2.469 -0.1002  0.2557 -0.4281
  973SOL     OW 3889   2.490   0.041   2.057  0.1795 -0.6318  0.1537
  973SOL    HW1 3890   2.511  -0.045   2.027 -0.0185 -0.8487 -5.2137
  973SOL    HW2 3891   2.544   0.086   1.991 -0.0662 -0.2229 -1.8597
  973SOL     MW 3892   2.500   0.036   2.044  0.1210 -0.6065 -0.8201
  974SOL     OW 3893   2.053   0.227   2.688  0.0849 -0.0496  0.1761
  974SOL    HW1 3894   2.146   0.221   2.667  1.0363 -0.4184 -0.0410
  974SOL    HW2 3895   2.036   0.135   2.709  0.7972  0.5915 -1.6769
  974SOL     MW 3896   2.063   0.214   2.688  0.3044 -0.0136 -0.0970
  975SOL     OW 3897   2.183   2.476   2.491  0.2906 -0.2302  0.1670
  975SOL    HW1 3898   2.255   2.501   2.546  0.6164 -1.3403 -0.7890
  975SOL    HW2 3899   2.125   2.554   2.477 -0.4423  1.3862 -2.1087
  975SOL     MW 3900   2.185   2.490   2.496  0.2368 -0.1634 -0.2594
  976SOL     OW 3901   0.261   0.324   1.712  0.0675  0.4090  0.2519
  976SOL    HW1 3902   0.328   0.270   1.755 -2.3491 -0.3178 -0.0957
  976SOL    HW2 3903   0.191   0.260   1.687 -2.1673 -1.9157 -0.3894
  976SOL     MW 3904   0.261   0.308   1.715 -0.5462  0.0064  0.1215
  977SOL     OW 3905   1.742   2.620   2.480 -0.2960 -0.1214 -0.0795
  977SOL    HW1 3906   1.737   2.524   2.473  1.3942 -0.6695  3.2545
  977SOL    HW2 3907   1.836   2.635   2.488 -0.7977  0.4561  2.7074
  977SOL     MW 3908   1.754   2.609   2.480 -0.1392 -0.1175  0.7281
   3.10000   3.10000   3.10000
