977 TIP4P/2005f water molecules t=   0.30000 step= 300
 3908
    1SOL     OW    1   0.297   0.753   0.043  0.2511  0.5589  0.5304
    1SOL    HW1    2   0.282   0.796  -0.039  0.0149  0.1232 -0.8613
    1SOL    HW2    3   0.251   0.666   0.036  1.0856 -1.2598  0.3831
    1SOL     MW    4   0.289   0.747   0.031  0.3301  0.2615  0.3273
    2SOL     OW    5   0.341   3.035   1.145 -0.5993  0.4869  0.0412
    2SOL    HW1    6   0.366   3.113   1.096 -3.2633 -0.5075  0.1618
    2SOL    HW2    7   0.249   3.042   1.165  0.4982 -1.8843 -0.1832
    2SOL     MW    8   0.332   3.046   1.141 -0.8060  0.0429  0.0275
    3SOL     OW    9   2.659   0.406   0.922 -0.2261 -0.0872 -0.0723
    3SOL    HW1   10   2.689   0.477   0.868  1.1778  1.6962 -1.2384
    3SOL    HW2   11   2.673   0.436   1.008 -1.0642  0.2434 -0.3248
    3SOL     MW   12   2.665   0.419   0.927 -0.1514  0.1917 -0.2595
    4SOL     OW   13   3.066   1.814   0.621  0.0968 -0.3379 -0.3849
    4SOL    HW1   14   2.993   1.854   0.579  1.1823  1.4865 -0.2062
    4SOL    HW2   15   3.117   1.764   0.556 -3.9053 -0.3150 -3.2720
    4SOL     MW   16   3.063   1.813   0.607 -0.2880 -0.0941 -0.7423
    5SOL     OW   17   1.701   1.425   0.527 -0.1963 -0.1688  0.3904
    5SOL    HW1   18   1.743   1.385   0.598 -3.2974 -0.8265  1.8496
    5SOL    HW2   19   1.613   1.442   0.550 -0.4591 -1.2704 -0.9994
    5SOL     MW   20   1.695   1.422   0.539 -0.6402 -0.4009  0.3995
    6SOL     OW   21   0.866   1.409   0.610 -0.4351 -0.6226 -0.0445
    6SOL    HW1   22   0.780   1.412   0.656 -2.1316  0.2190  0.2583
    6SOL    HW2   23   0.910   1.329   0.648  0.8653  1.4620  0.5874
    6SOL     MW   24   0.861   1.399   0.621 -0.4874 -0.2365  0.0788
    7SOL     OW   25   1.980   1.060   0.032  0.5425 -0.3321  0.2165
    7SOL    HW1   26   1.976   1.133  -0.034 -0.4455  1.4931 -0.7533
    7SOL    HW2   27   2.029   1.104   0.104  1.4958 -4.4170  3.4577
    7SOL     MW   28   1.986   1.076   0.033  0.5379 -0.6303  0.5162
    8SOL     OW   29   1.010   1.316   1.038 -0.0614  0.1266 -0.2528
    8SOL    HW1   30   1.096   1.336   1.061  0.3781  0.3202 -0.7645
    8SOL    HW2   31   1.008   1.225   1.053 -1.6146  3.7914 -1.8662
    8SOL     MW   32   1.021   1.307   1.043 -0.2084  0.6357 -0.5332
    9SOL     OW   33   1.034   0.474   1.341  0.1422 -0.0369 -0.7380
    9SOL    HW1   34   0.970   0.411   1.299 -0.9101 -0.2872  1.0389
    9SOL    HW2   35   1.068   0.435   1.425  2.9069 -0.8991  0.4695
    9SOL     MW   36   1.030   0.460   1.347  0.3682 -0.1837 -0.3442
   10SOL     OW   37   0.316   0.831   0.467  0.3879 -0.6694 -0.0696
   10SOL    HW1   38   0.402   0.863   0.426 -1.8867 -2.2826 -0.3926
   10SOL    HW2   39   0.294   0.874   0.551 -0.3883 -1.5871 -0.1315
   10SOL     MW   40   0.324   0.841   0.473 -0.0146 -1.0033 -0.1204
   11SOL     OW   41   0.887   1.088   1.608 -0.7169 -0.1449  0.4758
   11SOL    HW1   42   0.890   1.107   1.703  2.0210 -1.5350 -0.6312
   11SOL    HW2   43   0.831   1.004   1.599 -0.4732 -0.4209  2.6154
   11SOL     MW   44   0.880   1.079   1.620 -0.3235 -0.3647  0.6120
   12SOL     OW   45   0.015   1.149   0.838  0.0913  0.3500 -0.4541
   12SOL    HW1   46   0.052   1.215   0.897 -0.0545  3.6401  1.3004
   12SOL    HW2   47  -0.065   1.185   0.807  0.0038  2.4144  0.8017
   12SOL     MW   48   0.009   1.163   0.841  0.0605  1.0565 -0.0569
   13SOL     OW   49   1.922   1.431   1.389 -0.6740  0.0584 -0.7664
   13SOL    HW1   50   1.948   1.389   1.307 -0.9369 -0.4827 -1.7704
   13SOL    HW2   51   1.889   1.518   1.363  0.8930 -1.6076  0.3945
   13SOL     MW   52   1.921   1.437   1.374 -0.5019 -0.2328 -0.7457
   14SOL     OW   53   0.627   0.329   1.786 -0.0981 -0.3630  0.5789
   14SOL    HW1   54   0.606   0.257   1.728 -0.4269 -0.1571  3.6370
   14SOL    HW2   55   0.710   0.317   1.832 -0.6265  1.1539  0.1319
   14SOL     MW   56   0.635   0.318   1.784 -0.2112 -0.1357  0.9234
   15SOL     OW   57   1.993   0.553   0.925  0.4321  0.1161  0.5231
   15SOL    HW1   58   1.977   0.530   1.018 -0.9614 -1.8948  0.4771
   15SOL    HW2   59   2.078   0.515   0.897 -0.4148 -2.0972  0.4833
   15SOL     MW   60   2.002   0.545   0.933  0.1365 -0.4412  0.5118
   16SOL     OW   61   0.209   1.778   0.329  0.3589 -0.4623  0.4459
   16SOL    HW1   62   0.299   1.750   0.325 -2.4775 -0.4833 -0.2961
   16SOL    HW2   63   0.206   1.868   0.366 -1.6654  1.5359 -1.8616
   16SOL     MW   64   0.220   1.786   0.334 -0.2824 -0.2014  0.0436
   17SOL     OW   65   1.075   0.818   1.463 -0.0484 -0.3287  0.3040
   17SOL    HW1   66   1.131   0.807   1.545 -0.3844  1.3951  0.1565
   17SOL    HW2   67   0.988   0.776   1.487 -2.6931  0.3839  0.1657
   17SOL     MW   68   1.071   0.811   1.477 -0.4417 -0.0073  0.2663
   18SOL     OW   69   0.032   1.548   0.414  0.5172 -0.0089 -0.0854
   18SOL    HW1   70   0.075   1.592   0.339 -1.4697 -0.3248  1.5581
   18SOL    HW2   71   0.016   1.462   0.383 -0.6914  0.7321  0.0757
   18SOL     MW   72   0.036   1.542   0.400  0.0956  0.0472  0.1527
   19SOL     OW   73   0.120   1.299   1.024 -0.1182  0.5584  0.2207
   19SOL    HW1   74   0.158   1.365   0.971 -3.8095  0.6557  0.6375
   19SOL    HW2   75   0.033   1.330   1.049 -0.9389  1.0518 -0.8703
   19SOL     MW   76   0.114   1.312   1.021 -0.7135  0.6364  0.1317
   20SOL     OW   77   0.462   2.153   1.301  0.1346 -0.3439  0.2423
   20SOL    HW1   78   0.406   2.095   1.244  0.0014  0.5141  2.0706
   20SOL    HW2   79   0.392   2.182   1.363 -0.1021 -2.6953  0.2728
   20SOL     MW   80   0.445   2.149   1.302  0.0858 -0.5409  0.4875
   21SOL     OW   81   0.549   0.899   0.348  0.1446 -0.5405 -0.3806
   21SOL    HW1   82   0.613   0.839   0.376 -1.6750  1.3261 -0.9159
   21SOL    HW2   83   0.526   0.868   0.259 -1.0785 -0.4525 -2.1723
   21SOL     MW   84   0.554   0.887   0.340 -0.2568 -0.2826 -0.6876
   22SOL     OW   85   1.526   0.545   1.141 -0.4256 -0.0819 -0.1878
   22SOL    HW1   86   1.576   0.520   1.059 -0.1073 -2.1797  1.3660
   22SOL    HW2   87   1.456   0.598   1.114  1.5186  0.7655 -0.3573
   22SOL     MW   88   1.523   0.548   1.126 -0.1271 -0.2469 -0.0052
   23SOL     OW   89   3.034   0.741   0.741  0.3506  0.0510  0.1593
   23SOL    HW1   90   3.087   0.659   0.724  0.9766 -0.3975 -0.3348
   23SOL    HW2   91   3.099   0.809   0.756 -0.0699 -4.1080 -1.3258
   23SOL     MW   92   3.050   0.739   0.741  0.3777 -0.5569 -0.1018
   24SOL     OW   93   2.025   2.197   0.033 -0.0522 -0.3647 -0.1308
   24SOL    HW1   94   2.043   2.193   0.130  1.4150  3.1311  2.0073
   24SOL    HW2   95   2.075   2.125  -0.006 -0.7416  2.0064 -0.1201
   24SOL     MW   96   2.034   2.187   0.041  0.0504  0.4094  0.1527
   25SOL     OW   97   0.267   1.429   0.543  0.7043 -0.5823 -0.2219
   25SOL    HW1   98   0.198   1.489   0.511 -1.8050  3.1101 -1.7523
   25SOL    HW2   99   0.327   1.420   0.470  0.2787 -0.7778  1.1258
   25SOL     MW  100   0.266   1.435   0.529  0.3171 -0.1209 -0.2460
   26SOL     OW  101   2.062   0.941   0.397  0.3384 -0.4613  0.5661
   26SOL    HW1  102   1.969   0.960   0.417  0.0739  2.0776  2.8872
   26SOL    HW2  103   2.088   1.001   0.322 -0.8566 -1.0823 -3.0475
   26SOL     MW  104   2.053   0.951   0.390  0.1458 -0.2082  0.3956
   27SOL     OW  105   1.983   1.420   0.259  0.0341 -0.4466 -0.4323
   27SOL    HW1  106   1.908   1.367   0.279 -0.8872  0.7825 -0.5434
   27SOL    HW2  107   2.016   1.470   0.335  2.3203  1.1544 -0.8538
   27SOL     MW  108   1.978   1.420   0.271  0.2142 -0.0732 -0.5026
   28SOL     OW  109   0.396   0.969   1.893 -0.2413  0.1333  0.5027
   28SOL    HW1  110   0.349   0.908   1.950  0.5701  2.8365  2.3281
   28SOL    HW2  111   0.442   0.912   1.827  4.5303  1.7505 -1.1520
   28SOL     MW  112   0.396   0.953   1.892  0.4953  0.7033  0.5252
   29SOL     OW  113   0.242   1.448   0.814 -0.0049 -0.1077  0.1174
   29SOL    HW1  114   0.261   1.537   0.850  1.6481  1.4268 -0.1384
   29SOL    HW2  115   0.268   1.449   0.723 -1.6890 -3.1367 -1.6902
   29SOL     MW  116   0.248   1.460   0.807 -0.0090 -0.3049 -0.1549
   30SOL     OW  117   0.898   1.031   1.147 -0.4851  0.2855 -0.0696
   30SOL    HW1  118   0.821   1.072   1.191  1.8027  1.4266  1.0379
   30SOL    HW2  119   0.972   1.044   1.211  2.1411  1.2677 -2.3366
   30SOL     MW  120   0.898   1.038   1.161  0.1632  0.5656 -0.2226
   31SOL     OW  121   0.464   0.281   0.248  0.3196  0.0797  0.3711
   31SOL    HW1  122   0.471   0.196   0.302 -1.0547  1.1629  0.6010
   31SOL    HW2  123   0.423   0.255   0.166 -1.7825 -2.5281 -1.4960
   31SOL     MW  124   0.460   0.266   0.244 -0.1391 -0.1215  0.1551
   32SOL     OW  125   2.705   1.045   1.115  0.5595  0.6987 -0.2511
   32SOL    HW1  126   2.664   0.957   1.112  1.0696 -1.0587 -0.8880
   32SOL    HW2  127   2.803   1.035   1.109 -1.4885 -0.4058  1.3220
   32SOL     MW  128   2.712   1.032   1.114  0.3566  0.3211 -0.1276
   33SOL     OW  129   1.743   1.250   0.318 -0.1856  0.1067 -0.0336
   33SOL    HW1  130   1.751   1.168   0.369 -1.5828  1.3177 -0.4818
   33SOL    HW2  131   1.709   1.306   0.388  0.4870  2.3299  0.0962
   33SOL     MW  132   1.739   1.247   0.334 -0.2812  0.5598 -0.0756
   34SOL     OW  133   1.232   1.860   1.142 -0.4866  0.0621  0.0296
   34SOL    HW1  134   1.148   1.909   1.147  0.3986 -3.3329  0.6145
   34SOL    HW2  135   1.293   1.892   1.218  0.0495  1.4310  1.8801
   34SOL     MW  136   1.229   1.870   1.153 -0.2990 -0.2052  0.3509
   35SOL     OW  137   0.373   0.071   1.872 -0.4143  0.6989 -0.0921
   35SOL    HW1  138   0.400   0.013   1.949 -1.5867 -1.5578 -0.7037
   35SOL    HW2  139   0.412   0.031   1.786 -1.8939  2.1554 -3.1560
   35SOL     MW  140   0.382   0.058   1.871 -0.7642  0.5933 -0.5770
   36SOL     OW  141   1.908   1.963   0.566 -0.0957  0.2499  0.1688
   36SOL    HW1  142   1.922   1.972   0.471 -1.0685 -0.3776  0.5647
   36SOL    HW2  143   1.892   1.868   0.580 -0.1546  0.5333  2.8622
   36SOL     MW  144   1.908   1.952   0.555 -0.2318  0.2045  0.5764
   37SOL     OW  145   1.739   2.031   0.963 -0.3703  0.8620  0.8182
   37SOL    HW1  146   1.677   1.969   0.927  2.0655  2.8817 -1.6759
   37SOL    HW2  147   1.682   2.068   1.043  1.4005 -0.4167 -0.7836
   37SOL     MW  148   1.724   2.027   0.968  0.1847  0.9598  0.2778
   38SOL     OW  149   2.859   0.952   0.201 -0.0852  0.1289 -0.1292
   38SOL    HW1  150   2.893   0.946   0.287 -1.5775  1.0162 -1.2541
   38SOL    HW2  151   2.920   0.895   0.148  1.8364 -1.0620 -0.6144
   38SOL     MW  152   2.871   0.944   0.205 -0.0285  0.0889 -0.3417
   39SOL     OW  153   1.465   0.691   0.854  0.2228 -0.2398 -0.2757
   39SOL    HW1  154   1.442   0.596   0.864  1.5154 -0.8107 -1.2968
   39SOL    HW2  155   1.410   0.730   0.921 -1.0613 -0.1787 -3.1784
   39SOL     MW  156   1.454   0.683   0.864  0.2239 -0.3071 -0.7934
   40SOL     OW  157   1.281   1.879   0.264 -0.0937 -0.0673 -0.4815
   40SOL    HW1  158   1.294   1.786   0.284 -0.3795  0.0858  1.7104
   40SOL    HW2  159   1.327   1.926   0.334 -1.3700 -0.0260  0.0872
   40SOL     MW  160   1.289   1.873   0.276 -0.2998 -0.0417 -0.1173
   41SOL     OW  161   0.587   0.541   1.585  0.1782  0.5573 -0.2035
   41SOL    HW1  162   0.681   0.563   1.579  2.7133  2.3782  1.8308
   41SOL    HW2  163   0.580   0.470   1.647 -0.9360  0.1124  0.6918
   41SOL     MW  164   0.598   0.534   1.592  0.3657  0.7389  0.1830
   42SOL     OW  165   1.328   3.080   1.945 -0.4825  0.8060  0.0288
   42SOL    HW1  166   1.241   3.052   1.969  2.9287 -2.6174 -1.1465
   42SOL    HW2  167   1.382   3.004   1.978 -1.3071  0.5967  0.8819
   42SOL     MW  168   1.324   3.067   1.953 -0.1412  0.3267 -0.0137
   43SOL     OW  169   1.586   0.232   1.602 -0.6730 -0.2166  0.4528
   43SOL    HW1  170   1.638   0.167   1.557 -0.6876  0.3883  1.9224
   43SOL    HW2  171   1.509   0.176   1.643 -2.5157  0.4915 -0.1131
   43SOL     MW  172   1.583   0.216   1.602 -0.9180 -0.0433  0.5720
   44SOL     OW  173   1.319   0.752   1.106 -0.1286  0.0092  0.0837
   44SOL    HW1  174   1.336   0.846   1.109 -1.0502 -0.5364  2.3898
   44SOL    HW2  175   1.318   0.724   1.201 -0.4346 -2.0347  1.4404
   44SOL     MW  176   1.321   0.761   1.119 -0.2905 -0.3324  0.5669
   45SOL     OW  177   1.111   0.713   0.775  0.4337 -0.7149 -0.4080
   45SOL    HW1  178   1.065   0.707   0.864  1.5160  0.1945 -0.1422
   45SOL    HW2  179   1.139   0.632   0.749  0.1916 -0.1332 -4.5908
   45SOL     MW  180   1.109   0.701   0.783  0.5445 -0.5181 -0.9248
   46SOL     OW  181   0.585   1.156   0.586 -0.2612  0.6229 -0.6120
   46SOL    HW1  182   0.579   1.187   0.490 -0.0945 -1.5511 -1.3132
   46SOL    HW2  183   0.672   1.122   0.597  0.6986  0.8906  0.4496
   46SOL     MW  184   0.595   1.155   0.575 -0.1126  0.3714 -0.5645
   47SOL     OW  185   0.146   1.929   1.844  0.3336 -0.1730  0.4558
   47SOL    HW1  186   0.201   1.867   1.794 -1.2380  1.4368  2.2881
   47SOL    HW2  187   0.137   1.889   1.931  1.7632  0.6911 -0.5123
   47SOL     MW  188   0.152   1.915   1.849  0.3148  0.1534  0.5698
   48SOL     OW  189   1.037   0.651   1.037  0.6023 -0.1942 -0.3016
   48SOL    HW1  190   0.964   0.673   1.094 -0.2383 -0.5084 -2.2856
   48SOL    HW2  191   1.109   0.707   1.053 -1.3645  3.2029  0.8358
   48SOL     MW  192   1.037   0.661   1.047  0.2319  0.2126 -0.4133
   49SOL     OW  193   1.886   0.742   1.601 -0.0513 -0.2864 -0.0926
   49SOL    HW1  194   1.805   0.714   1.652  4.1138 -1.1074  0.5356
   49SOL    HW2  195   1.929   0.658   1.575  0.4811  0.5807 -0.1699
   49SOL     MW  196   1.881   0.727   1.604  0.5685 -0.2803 -0.0199
   50SOL     OW  197   1.286   0.983   0.524 -0.5310 -0.1553 -0.1435
   50SOL    HW1  198   1.242   1.018   0.606 -0.1146 -0.7116 -0.4401
   50SOL    HW2  199   1.308   0.897   0.546  0.7795  3.1200 -3.2498
   50SOL     MW  200   1.283   0.976   0.538 -0.3032  0.2034 -0.5925
   51SOL     OW  201   0.339   2.849   0.957  0.7818 -0.0780  0.6339
   51SOL    HW1  202   0.425   2.844   0.919 -2.3222  0.7845 -0.0010
   51SOL    HW2  203   0.356   2.909   1.036 -0.6482  0.8861  0.5864
   51SOL     MW  204   0.353   2.856   0.963  0.1836  0.1630  0.5439
   52SOL     OW  205   0.813   1.828   0.384  0.2195 -0.9184 -0.1702
   52SOL    HW1  206   0.768   1.882   0.446  1.6044 -0.6706 -0.3415
   52SOL    HW2  207   0.770   1.832   0.299 -0.1645 -1.3117  1.9029
   52SOL     MW  208   0.801   1.836   0.381  0.3516 -0.9376  0.0807
   53SOL     OW  209   0.441   2.059   0.583  0.5344  0.0430 -0.4672
   53SOL    HW1  210   0.390   2.044   0.494  3.7388 -0.1561  0.7765
   53SOL    HW2  211   0.449   2.149   0.607  2.0228  1.3666  1.7013
   53SOL     MW  212   0.435   2.069   0.574  1.1536  0.1914 -0.0169
   54SOL     OW  213   2.204   0.812   0.902 -0.0608 -0.3117  0.9701
   54SOL    HW1  214   2.271   0.796   0.835 -1.0735 -2.0134 -0.3758
   54SOL    HW2  215   2.121   0.823   0.855 -1.6499  1.0784  0.5052
   54SOL     MW  216   2.202   0.812   0.887 -0.4040 -0.3528  0.7312
   55SOL     OW  217   0.544   1.491   1.558  0.1099  0.1530 -0.1848
   55SOL    HW1  218   0.520   1.548   1.484 -1.7625  0.6890 -0.7996
   55SOL    HW2  219   0.628   1.447   1.532 -0.8775  0.9381 -2.6129
   55SOL     MW  220   0.552   1.493   1.545 -0.2674  0.3273 -0.5863
   56SOL     OW  221   0.551   0.785   0.092  0.3742  0.1399  0.3711
   56SOL    HW1  222   0.563   0.875   0.051  3.9509 -0.7185 -0.4359
   56SOL    HW2  223   0.468   0.756   0.061  2.3022  1.0895  1.5630
   56SOL     MW  224   0.542   0.793   0.082  1.1005  0.1519  0.4219
   57SOL     OW  225   1.246   1.221   1.168  0.0306 -0.2015 -0.2218
   57SOL    HW1  226   1.337   1.251   1.170 -0.0571  1.2907 -1.6166
   57SOL    HW2  227   1.231   1.156   1.242  0.6836 -0.7902  2.1580
   57SOL     MW  228   1.256   1.216   1.178  0.1052 -0.0823 -0.0919
   58SOL     OW  229   0.695   1.106   1.295 -0.3638  0.4204  0.1575
   58SOL    HW1  230   0.656   1.192   1.278  3.9022 -0.1343  0.0094
   58SOL    HW2  231   0.674   1.083   1.385  0.9168  0.1606 -0.9104
   58SOL     MW  232   0.687   1.114   1.304  0.3680  0.3130 -0.0029
   59SOL     OW  233   1.532   1.637   0.280  0.4803  0.3306  0.3903
   59SOL    HW1  234   1.601   1.581   0.324 -1.9225 -1.2151  1.5767
   59SOL    HW2  235   1.459   1.636   0.347  1.4187 -0.2058  1.6327
   59SOL     MW  236   1.531   1.629   0.295  0.2871  0.0559  0.7108
   60SOL     OW  237   3.078   0.171   1.621 -0.0135 -0.2684  0.2798
   60SOL    HW1  238   3.005   0.227   1.639 -1.1470 -2.2014 -0.5870
   60SOL    HW2  239   3.038   0.087   1.612  0.8477  1.5977  1.3348
   60SOL     MW  240   3.063   0.167   1.622 -0.0495 -0.2772  0.3047
   61SOL     OW  241   2.005   1.506   3.095 -0.4954 -0.0855  0.5899
   61SOL    HW1  242   1.991   1.494   3.190 -2.4142 -0.7220  0.8885
   61SOL    HW2  243   2.043   1.431   3.054  1.9695 -1.0425 -0.1573
   61SOL     MW  244   2.008   1.495   3.102 -0.4233 -0.2957  0.5307
   62SOL     OW  245   0.585   1.629   0.585 -0.7318 -0.1690  0.2426
   62SOL    HW1  246   0.667   1.616   0.536  3.3092 -0.8960 -1.9974
   62SOL    HW2  247   0.572   1.548   0.633  1.8899  2.4374 -2.5635
   62SOL     MW  248   0.594   1.617   0.585  0.1472  0.0789 -0.4232
   63SOL     OW  249   1.718   0.722   0.669 -0.2018  0.2271 -0.8281
   63SOL    HW1  250   1.668   0.776   0.610  1.8133  3.1401  0.9903
   63SOL    HW2  251   1.667   0.703   0.748 -1.5926 -1.4727 -1.3384
   63SOL     MW  252   1.704   0.726   0.672 -0.1195  0.3871 -0.6556
   64SOL     OW  253   0.243   1.692   0.962 -0.4661 -0.4983 -0.5819
   64SOL    HW1  254   0.320   1.736   0.925  2.8690 -0.1219 -2.4242
   64SOL    HW2  255   0.171   1.754   0.955  2.0328 -2.3383 -0.5696
   64SOL     MW  256   0.243   1.706   0.956  0.3036 -0.6914 -0.8234
   65SOL     OW  257   1.541   2.283   0.332  0.2484  0.5533  0.2024
   65SOL    HW1  258   1.596   2.218   0.276 -1.2920 -2.0410 -1.5555
   65SOL    HW2  259   1.598   2.329   0.386 -0.6605  2.5209  0.3260
   65SOL     MW  260   1.556   2.280   0.331 -0.0747  0.4706 -0.0132
   66SOL     OW  261   0.307   0.550   0.511 -0.4805 -0.7337  0.2941
   66SOL    HW1  262   0.394   0.551   0.476  0.9063  1.7316  1.3382
   66SOL    HW2  263   0.285   0.643   0.506  1.2490 -1.6057 -0.7431
   66SOL     MW  264   0.315   0.562   0.506 -0.0693 -0.5235  0.2950
   67SOL     OW  265   1.541   0.158   2.035 -0.2374 -0.9788 -0.1584
   67SOL    HW1  266   1.579   0.221   1.975  2.5895 -1.8827 -0.8805
   67SOL    HW2  267   1.486   0.111   1.971  2.3356 -1.5396  1.0035
   67SOL     MW  268   1.539   0.160   2.019  0.4751 -1.1720 -0.1004
   68SOL     OW  269   0.636   0.078   2.958 -0.2984  0.2715 -0.3720
   68SOL    HW1  270   0.592   0.065   2.875  0.4326  0.1067 -0.9552
   68SOL    HW2  271   0.633   0.168   2.977  0.7518 -1.2495 -1.9071
   68SOL     MW  272   0.630   0.088   2.949 -0.0634  0.0491 -0.6515
   69SOL     OW  273   1.052   0.196   1.952 -0.7600 -0.1088 -0.6346
   69SOL    HW1  274   1.135   0.206   2.001 -1.3461  4.2510  1.7214
   69SOL    HW2  275   1.031   0.103   1.945 -1.6013  1.9384  0.4108
   69SOL     MW  276   1.060   0.185   1.958 -0.9483  0.7365 -0.1858
   70SOL     OW  277   0.594   1.809   1.118  0.1067  0.1805  0.1841
   70SOL    HW1  278   0.604   1.720   1.154 -1.1246 -1.7692 -0.0760
   70SOL    HW2  279   0.683   1.824   1.077 -2.6777 -1.9156  0.0718
   70SOL     MW  280   0.607   1.799   1.117 -0.4231 -0.3533  0.1350
   71SOL     OW  281   1.761   0.695   1.237 -0.1168 -0.2441  0.3105
   71SOL    HW1  282   1.720   0.736   1.311 -0.6862  0.4592 -1.8785
   71SOL    HW2  283   1.691   0.641   1.202 -2.3341 -0.9221 -1.7477
   71SOL     MW  284   1.746   0.693   1.242 -0.4845 -0.2407 -0.2499
   72SOL     OW  285   0.824   1.811   0.974  0.2514 -0.3030 -0.7372
   72SOL    HW1  286   0.802   1.875   0.904  0.1179 -0.7583 -2.2013
   72SOL    HW2  287   0.813   1.720   0.948  0.0400  0.4668  2.2759
   72SOL     MW  288   0.820   1.808   0.961  0.2059 -0.2615 -0.5328
   73SOL     OW  289   1.266   0.660   1.346 -0.8832 -0.0028  0.0972
   73SOL    HW1  290   1.201   0.593   1.328 -1.3187  0.2959 -1.3881
   73SOL    HW2  291   1.207   0.725   1.383  0.3843 -1.2145 -0.0081
   73SOL     MW  292   1.250   0.660   1.348 -0.7734 -0.1233 -0.1127
   74SOL     OW  293   2.771   0.132   1.014  0.5091  0.4753 -0.3089
   74SOL    HW1  294   2.804   0.049   0.974 -0.2842 -0.4415 -0.3296
   74SOL    HW2  295   2.719   0.173   0.949 -1.3246 -0.0878  1.7796
   74SOL     MW  296   2.769   0.127   1.000  0.1625  0.2800 -0.0361
   75SOL     OW  297   1.619   1.320   0.080 -0.7040  0.0035 -0.0470
   75SOL    HW1  298   1.646   1.303   0.171  0.3298 -0.2950 -1.1203
   75SOL    HW2  299   1.636   1.234   0.049  2.5104  0.6144  0.7440
   75SOL     MW  300   1.625   1.306   0.088 -0.1435  0.0447 -0.0842
   76SOL     OW  301   2.925   0.668   0.466  0.4489 -0.3142 -0.3870
   76SOL    HW1  302   2.942   0.674   0.562 -0.1922  1.2919  1.7792
   76SOL    HW2  303   2.993   0.600   0.439 -0.7920 -2.0563  1.0473
   76SOL     MW  304   2.936   0.660   0.475  0.2006 -0.3321  0.0880
   77SOL     OW  305   0.906   0.421   0.510  0.3600  0.4798 -0.1733
   77SOL    HW1  306   0.823   0.469   0.526 -0.0874 -0.0316 -1.4455
   77SOL    HW2  307   0.870   0.328   0.525  1.4312  0.6193 -0.2878
   77SOL     MW  308   0.890   0.415   0.514  0.4423  0.4307 -0.3563
   78SOL     OW  309   0.791   0.756   1.198 -0.4249 -0.2823 -0.0369
   78SOL    HW1  310   0.699   0.748   1.191 -2.3968  0.8659  0.0852
   78SOL    HW2  311   0.804   0.851   1.202 -0.9362 -0.1543 -0.1178
   78SOL     MW  312   0.780   0.768   1.197 -0.7525 -0.1139 -0.0314
   79SOL     OW  313   1.872   1.681   0.597  0.9648  0.5559 -0.0355
   79SOL    HW1  314   1.814   1.615   0.572  0.0789  0.2585  0.8958
   79SOL    HW2  315   1.888   1.673   0.690  2.4121  0.8929  0.5296
   79SOL     MW  316   1.866   1.671   0.606  1.0388  0.5611  0.1619
   80SOL     OW  317   0.141   0.990   0.304 -0.5113  0.3347  0.2017
   80SOL    HW1  318   0.051   0.966   0.346 -0.2596 -1.0762  2.7346
   80SOL    HW2  319   0.209   0.930   0.341  0.5125  1.1930 -1.5711
   80SOL     MW  320   0.138   0.979   0.314 -0.3430  0.2618  0.3020
   81SOL     OW  321   1.914   1.904   0.221  0.0382 -0.3282 -0.2971
   81SOL    HW1  322   1.833   1.848   0.223 -1.2674  0.8956 -0.4406
   81SOL    HW2  323   1.888   1.998   0.234 -1.8397  1.7442  0.4572
   81SOL     MW  324   1.900   1.909   0.223 -0.3819  0.1067 -0.2165
   82SOL     OW  325   0.822   0.983   0.555 -0.4904  0.2539 -0.1076
   82SOL    HW1  326   0.908   0.970   0.503 -1.3033  1.7688 -1.3054
   82SOL    HW2  327   0.773   0.894   0.553 -2.3989 -2.2267  2.6858
   82SOL     MW  328   0.827   0.969   0.548 -0.8494  0.1265  0.1030
   83SOL     OW  329   0.113   0.623   1.381  0.2165 -0.0926 -0.4489
   83SOL    HW1  330   0.139   0.705   1.349  3.5425 -2.7484  3.3306
   83SOL    HW2  331   0.175   0.595   1.450  1.6668  1.9850  1.2384
   83SOL     MW  332   0.125   0.630   1.386  0.8467 -0.1689  0.2724
   84SOL     OW  333   0.076   0.271   1.022  0.0005 -0.6388 -0.6307
   84SOL    HW1  334   0.001   0.280   0.960 -0.2567  0.6220 -1.4040
   84SOL    HW2  335   0.065   0.182   1.064 -1.3626  1.0552  3.4263
   84SOL     MW  336   0.064   0.261   1.019 -0.2133 -0.2490 -0.1974
   85SOL     OW  337   0.420   0.437   0.758 -0.2257  0.2789 -0.1500
   85SOL    HW1  338   0.398   0.474   0.679  3.0979 -2.1252  2.5931
   85SOL    HW2  339   0.358   0.362   0.764  3.4294 -1.1001 -0.7713
   85SOL     MW  340   0.409   0.432   0.748  0.6951 -0.2202  0.1300
   86SOL     OW  341   1.190   0.438   1.131  0.1440  0.0514 -0.2362
   86SOL    HW1  342   1.139   0.484   1.057 -1.0934  0.8353  0.7840
   86SOL    HW2  343   1.138   0.442   1.214  1.2595 -0.7185  1.5338
   86SOL     MW  344   1.176   0.444   1.132  0.1279  0.0532  0.1319
   87SOL     OW  345   1.208   1.467   1.268  0.2163  0.4736 -0.7276
   87SOL    HW1  346   1.218   1.513   1.183  0.5789  1.9984 -1.2063
   87SOL    HW2  347   1.216   1.376   1.249 -0.7618  2.4475 -0.9650
   87SOL     MW  348   1.210   1.461   1.255  0.1351  0.9352 -0.8221
   88SOL     OW  349   1.329   1.029   0.993 -0.5435  0.2730  0.1330
   88SOL    HW1  350   1.422   1.034   1.000 -0.7638 -1.5344 -0.0680
   88SOL    HW2  351   1.293   1.095   1.055 -1.0807  1.4846 -1.2769
   88SOL     MW  352   1.337   1.038   1.002 -0.6435  0.1944 -0.0796
   89SOL     OW  353   1.734   0.626   0.326  0.0196  1.2867  0.7390
   89SOL    HW1  354   1.776   0.545   0.340 -0.5434 -0.2813 -3.3291
   89SOL    HW2  355   1.812   0.680   0.301  0.9677  1.7413  2.1094
   89SOL     MW  356   1.750   0.623   0.325  0.0704  1.1398  0.3830
   90SOL     OW  357   0.704   1.199   2.770  0.6350 -0.3700 -0.1568
   90SOL    HW1  358   0.768   1.131   2.744  0.3957  1.2520 -1.9336
   90SOL    HW2  359   0.722   1.228   2.858  0.3479 -0.0344  1.4257
   90SOL     MW  360   0.715   1.194   2.778  0.5656 -0.1117 -0.1825
   91SOL     OW  361   2.092   0.678   0.512  0.8797 -0.7024  0.7370
   91SOL    HW1  362   2.057   0.757   0.469 -0.7335  0.9837 -0.5786
   91SOL    HW2  363   2.041   0.604   0.473 -1.6120  1.0042  0.5730
   91SOL     MW  364   2.081   0.679   0.501  0.3381 -0.2548  0.5418
   92SOL     OW  365   1.584   0.814   0.444 -0.1656  0.2342 -0.6337
   92SOL    HW1  366   1.497   0.784   0.469 -0.4993 -0.4751  1.1828
   92SOL    HW2  367   1.630   0.738   0.410 -1.8860  1.9885 -0.0060
   92SOL     MW  368   1.579   0.800   0.443 -0.4366  0.3721 -0.3112
   93SOL     OW  369   1.080   0.256   0.340 -0.0599  0.3284  0.3548
   93SOL    HW1  370   1.006   0.314   0.367 -1.3969 -0.5522  1.5514
   93SOL    HW2  371   1.082   0.265   0.245  3.1765 -0.9643  1.6622
   93SOL     MW  372   1.071   0.265   0.331  0.1907  0.0416  0.6852
   94SOL     OW  373   1.929   1.308   1.658 -0.1001  0.2096  0.0662
   94SOL    HW1  374   1.959   1.329   1.571  0.7304  0.5488  2.8403
   94SOL    HW2  375   1.936   1.218   1.662 -0.1963  1.5252  2.9152
   94SOL     MW  376   1.934   1.299   1.647 -0.0032  0.4279  0.8081
   95SOL     OW  377   0.845   1.529   0.973 -0.7591 -0.0730 -0.1758
   95SOL    HW1  378   0.889   1.448   0.977  0.2692  0.0253 -1.9851
   95SOL    HW2  379   0.785   1.538   1.044 -2.1260 -0.3944  2.1086
   95SOL     MW  380   0.843   1.520   0.983 -0.8038 -0.1025 -0.1131
   96SOL     OW  381   1.245   1.808   1.585 -0.2380  0.1599  0.1254
   96SOL    HW1  382   1.155   1.817   1.601  3.2592 -0.5478 -0.4758
   96SOL    HW2  383   1.261   1.732   1.531 -1.6765 -0.0701  0.6252
   96SOL     MW  384   1.235   1.799   1.580  0.0336  0.0362  0.1120
   97SOL     OW  385   1.255   1.390   0.824 -0.5602 -0.3204 -0.3022
   97SOL    HW1  386   1.309   1.433   0.884 -1.8900 -1.9806 -2.3350
   97SOL    HW2  387   1.192   1.457   0.794  0.1064  0.1897  0.7965
   97SOL     MW  388   1.254   1.405   0.828 -0.6477 -0.4722 -0.4254
   98SOL     OW  389   1.518   1.324   1.160  0.2921 -0.3310 -0.4095
   98SOL    HW1  390   1.561   1.384   1.222 -0.6799  1.2130  0.1983
   98SOL    HW2  391   1.556   1.346   1.076 -1.2214 -0.4831 -1.2297
   98SOL     MW  392   1.529   1.335   1.157 -0.0358 -0.1473 -0.4375
   99SOL     OW  393   1.530   0.321   1.275  0.0588  0.4568  0.2276
   99SOL    HW1  394   1.545   0.403   1.233 -0.7386  3.0447 -0.7290
   99SOL    HW2  395   1.503   0.343   1.367  0.2180 -1.0508  2.6539
   99SOL     MW  396   1.529   0.335   1.281 -0.0254  0.5993  0.4215
  100SOL     OW  397   1.059   1.071   1.363 -0.6016  0.3063  0.9962
  100SOL    HW1  398   1.001   1.119   1.423 -0.7738 -1.3626  1.3951
  100SOL    HW2  399   1.066   0.983   1.406 -0.2067  0.2718 -0.3138
  100SOL     MW  400   1.053   1.066   1.377 -0.5722  0.0815  0.8760
  101SOL     OW  401   0.611   1.160   0.305  0.1637  0.0153 -0.5471
  101SOL    HW1  402   0.595   1.062   0.319  1.2197 -1.4612  0.7007
  101SOL    HW2  403   0.578   1.181   0.219  1.9941 -1.4988  0.8653
  101SOL     MW  404   0.604   1.150   0.295  0.5445 -0.3793 -0.1961
  102SOL     OW  405   2.956   0.593   0.986  0.1333  0.1433  0.4719
  102SOL    HW1  406   3.020   0.659   0.946 -0.5485 -2.2802  0.4940
  102SOL    HW2  407   2.990   0.567   1.071  0.5355  0.1775 -1.8085
  102SOL     MW  408   2.969   0.598   0.992  0.0964 -0.1720  0.1739
  103SOL     OW  409   1.615   0.361   1.868  0.4529  0.5153  0.3248
  103SOL    HW1  410   1.621   0.327   1.773  0.6234 -0.3300 -2.5279
  103SOL    HW2  411   1.703   0.365   1.896 -0.9111 -1.9370  0.1751
  103SOL     MW  412   1.628   0.357   1.859  0.2954  0.0802 -0.0714
  104SOL     OW  413   0.129   1.850   1.405  0.7032  0.1461 -0.2904
  104SOL    HW1  414   0.197   1.782   1.404  0.6790  2.1498 -2.0630
  104SOL    HW2  415   0.045   1.819   1.404  0.7692  1.0747 -1.3808
  104SOL     MW  416   0.127   1.837   1.405  0.7087  0.5330 -0.6682
  105SOL     OW  417   0.171   1.141   0.549  0.4429  0.3021  0.2474
  105SOL    HW1  418   0.180   1.097   0.461 -1.4787  0.2764  2.1640
  105SOL    HW2  419   0.238   1.211   0.561 -0.8054  2.2134  1.8318
  105SOL     MW  420   0.181   1.144   0.539  0.0247  0.5509  0.7093
  106SOL     OW  421   0.839   0.328   0.931  0.6386  0.1805 -0.0323
  106SOL    HW1  422   0.783   0.399   0.902 -0.0224 -1.7563  0.2892
  106SOL    HW2  423   0.920   0.345   0.888 -1.3567 -0.9481  0.4299
  106SOL     MW  424   0.843   0.340   0.922  0.2881 -0.2240  0.0711
  107SOL     OW  425   0.801   2.196   3.030 -0.1298  0.1175  0.1566
  107SOL    HW1  426   0.777   2.105   3.005  2.7006 -0.9270 -1.0121
  107SOL    HW2  427   0.881   2.176   3.082  1.4111 -0.2173 -2.0778
  107SOL     MW  428   0.809   2.181   3.034  0.4470 -0.0645 -0.2924
  108SOL     OW  429   1.407   1.590   1.446 -0.7210  0.3710 -0.6340
  108SOL    HW1  430   1.355   1.525   1.405  0.1895  0.2526 -0.3803
  108SOL    HW2  431   1.429   1.542   1.534  2.5326 -2.0760 -2.5557
  108SOL     MW  432   1.403   1.575   1.452 -0.1716  0.0325 -0.8541
  109SOL     OW  433   1.957   0.765   0.222 -0.5327 -0.1877 -0.3828
  109SOL    HW1  434   1.978   0.782   0.130  0.2656 -0.0300  2.5826
  109SOL    HW2  435   2.037   0.796   0.268  0.9342  0.5540  2.1991
  109SOL     MW  436   1.971   0.772   0.216 -0.2339 -0.0690  0.3491
  110SOL     OW  437   0.411   1.794   0.698  0.4570 -0.0784 -0.1125
  110SOL    HW1  438   0.486   1.743   0.665  0.9286  1.3527 -0.6604
  110SOL    HW2  439   0.414   1.876   0.654 -1.7902  1.8759  0.8275
  110SOL     MW  440   0.421   1.798   0.688  0.2228  0.3682 -0.0608
  111SOL     OW  441   0.731   0.873   1.502 -0.1299 -0.6571  0.4050
  111SOL    HW1  442   0.758   0.807   1.441  2.0146  0.8432 -1.3320
  111SOL    HW2  443   0.640   0.845   1.523 -0.0887 -1.1587 -0.4790
  111SOL     MW  444   0.722   0.861   1.497  0.1585 -0.5253  0.0592
  112SOL     OW  445   1.307   1.103   1.661  0.0929 -0.2712  1.0310
  112SOL    HW1  446   1.228   1.167   1.668 -0.1266 -0.4247  3.7614
  112SOL    HW2  447   1.284   1.007   1.679  0.3098  0.4492 -1.1934
  112SOL     MW  448   1.294   1.099   1.664  0.0925 -0.1964  1.0978
  113SOL     OW  449   1.374   0.097   1.693  0.4734 -0.3083  0.2678
  113SOL    HW1  450   1.365   0.063   1.785  1.6503 -0.9438 -1.1157
  113SOL    HW2  451   1.385   0.014   1.642  0.2437  1.3035  2.7512
  113SOL     MW  452   1.374   0.082   1.698  0.5984 -0.1795  0.4130
  114SOL     OW  453   0.451   2.802   1.830  0.5026 -0.0844 -0.3290
  114SOL    HW1  454   0.447   2.865   1.901 -1.3580 -0.2842  1.2911
  114SOL    HW2  455   0.420   2.845   1.750 -0.0940  1.7178 -1.9723
  114SOL     MW  456   0.447   2.816   1.829  0.1784  0.1270 -0.3321
  115SOL     OW  457   0.465   0.839   1.094 -0.0947 -0.7932  0.4621
  115SOL    HW1  458   0.482   0.746   1.089 -1.3334  0.8751 -2.4735
  115SOL    HW2  459   0.424   0.859   1.179  2.7617 -0.1176  3.5169
  115SOL     MW  460   0.462   0.829   1.105  0.1188 -0.4839  0.4778
  116SOL     OW  461   0.766   1.010   0.910  0.0750  0.3151 -0.2467
  116SOL    HW1  462   0.837   1.053   0.856  0.0652 -3.0505 -0.6956
  116SOL    HW2  463   0.813   1.014   0.991  0.3717 -0.6345  1.8810
  116SOL     MW  464   0.781   1.017   0.913  0.1128 -0.2543 -0.0252
  117SOL     OW  465   1.216   1.135   0.778  0.6638  0.0112 -0.2778
  117SOL    HW1  466   1.269   1.088   0.840 -3.7140  1.2228 -2.2826
  117SOL    HW2  467   1.241   1.227   0.796  1.5733 -0.4625  1.1658
  117SOL     MW  468   1.226   1.141   0.788  0.2062  0.1086 -0.3519
  118SOL     OW  469   3.080   2.970   1.719 -0.8957  0.3538 -0.7323
  118SOL    HW1  470   3.137   3.022   1.781  0.8616  3.0649  0.2443
  118SOL    HW2  471   2.989   2.994   1.729  1.2491  2.0093 -1.7931
  118SOL     MW  472   3.076   2.980   1.728 -0.3809  0.9299 -0.7434
  119SOL     OW  473   0.562   1.324   1.205 -0.3199 -0.0674  0.0209
  119SOL    HW1  474   0.541   1.350   1.111  1.8450  1.9436  0.6942
  119SOL    HW2  475   0.483   1.280   1.229 -0.3619 -2.2215  0.6901
  119SOL     MW  476   0.549   1.321   1.196 -0.0398 -0.0863  0.1980
  120SOL     OW  477   0.215   0.680   0.926 -0.0281  0.2955  0.0864
  120SOL    HW1  478   0.256   0.616   0.987  1.5410 -0.1747 -1.7779
  120SOL    HW2  479   0.243   0.762   0.967 -1.8219 -1.4191  0.3658
  120SOL     MW  480   0.224   0.683   0.939 -0.0577  0.0072 -0.1227
  121SOL     OW  481   1.810   1.031   1.711  0.4003  0.2087 -0.2577
  121SOL    HW1  482   1.720   1.035   1.733 -0.2473 -0.8100  1.4024
  121SOL    HW2  483   1.819   0.939   1.697  0.9688 -1.4916 -0.3013
  121SOL     MW  484   1.800   1.020   1.712  0.3899 -0.1500 -0.0444
  122SOL     OW  485   0.101   0.511   0.740 -0.3011 -0.0175  0.4699
  122SOL    HW1  486   0.165   0.488   0.673  0.7586 -1.3626  0.4692
  122SOL    HW2  487   0.152   0.568   0.798 -0.1360  1.2018  0.4105
  122SOL     MW  488   0.116   0.516   0.739 -0.1395 -0.0341  0.4620
  123SOL     OW  489   1.785   1.028   0.475 -0.0803  0.0665  0.2710
  123SOL    HW1  490   1.738   0.946   0.455 -0.0456 -0.6977 -2.5515
  123SOL    HW2  491   1.811   1.031   0.572 -2.3287 -0.4566  1.8164
  123SOL     MW  492   1.782   1.018   0.485 -0.3724 -0.1033  0.1025
  124SOL     OW  493   0.665   0.511   0.832 -0.3855  0.4852  0.2953
  124SOL    HW1  494   0.581   0.470   0.797 -0.0353  2.8926  0.6185
  124SOL    HW2  495   0.660   0.607   0.828  1.1487 -2.1704  0.4846
  124SOL     MW  496   0.654   0.518   0.827 -0.1369  0.4525  0.3629
  125SOL     OW  497   0.685   1.680   1.658  0.1395  0.8271  0.4789
  125SOL    HW1  498   0.622   1.595   1.649  0.3233  0.5554  1.9537
  125SOL    HW2  499   0.634   1.761   1.682 -0.8164  2.1422 -1.7479
  125SOL     MW  500   0.670   1.679   1.660  0.0376  0.9648  0.3797
  126SOL     OW  501   2.134   1.615   1.958 -0.2375 -0.0708  0.4552
  126SOL    HW1  502   2.191   1.694   1.939  0.5854  0.3294 -0.0709
  126SOL    HW2  503   2.190   1.543   1.983  0.3771  1.3681 -0.6128
  126SOL     MW  504   2.149   1.616   1.958 -0.0479  0.1718  0.2449
  127SOL     OW  505   0.617   0.721   1.896  0.1926  0.0664 -0.2878
  127SOL    HW1  506   0.692   0.682   1.928 -1.5078 -0.7425 -0.8425
  127SOL    HW2  507   0.619   0.811   1.938  1.3869  1.6231  1.6680
  127SOL     MW  508   0.628   0.728   1.906  0.1259  0.1650 -0.1029
  128SOL     OW  509   1.776   0.759   2.882  0.9128 -0.0949  0.0360
  128SOL    HW1  510   1.800   0.740   2.792  1.9268  2.9749  0.7896
  128SOL    HW2  511   1.751   0.854   2.873 -0.2448 -0.9828 -1.0648
  128SOL     MW  512   1.776   0.769   2.869  0.8938  0.1930 -0.0098
  129SOL     OW  513   1.491   0.965   0.211  0.2312 -0.2052  0.1739
  129SOL    HW1  514   1.419   0.907   0.191 -0.1357  4.4371  0.5221
  129SOL    HW2  515   1.523   0.956   0.302 -2.0066  1.3694  1.5234
  129SOL     MW  516   1.486   0.956   0.220 -0.1124  0.6150  0.3979
  130SOL     OW  517   0.747   1.482   0.370 -0.0626 -0.0776  0.0945
  130SOL    HW1  518   0.773   1.429   0.452  0.6162 -0.5942  3.4322
  130SOL    HW2  519   0.834   1.511   0.332  1.1053 -0.6358 -1.0002
  130SOL     MW  520   0.762   1.479   0.376  0.1810 -0.2194  0.3904
  131SOL     OW  521   3.045   0.761   0.067  0.3924  0.1870  0.2944
  131SOL    HW1  522   3.033   0.826  -0.013  2.6179  1.9613 -2.7197
  131SOL    HW2  523   3.132   0.789   0.105 -1.1430 -1.9466  1.5382
  131SOL     MW  524   3.055   0.773   0.061  0.4835  0.1396  0.0608
  132SOL     OW  525   2.756   0.154   1.275  0.4307 -0.2335 -0.2289
  132SOL    HW1  526   2.767   0.150   1.179 -0.0946 -0.6271  0.0443
  132SOL    HW2  527   2.658   0.137   1.283  0.5476 -0.9153  0.9003
  132SOL     MW  528   2.744   0.152   1.263  0.3768 -0.3754 -0.0439
  133SOL     OW  529   1.122   0.189   1.692 -0.0753 -0.2657  0.0682
  133SOL    HW1  530   1.212   0.155   1.701 -0.5392 -1.4313  1.6558
  133SOL    HW2  531   1.094   0.203   1.782  0.8529  0.7782 -0.0002
  133SOL     MW  532   1.130   0.186   1.705 -0.0140 -0.2818  0.2686
  134SOL     OW  533   1.370   2.510   1.385 -0.0903  0.0038  0.0322
  134SOL    HW1  534   1.313   2.589   1.369  0.0872 -3.2583  1.7796
  134SOL    HW2  535   1.413   2.530   1.473 -0.3812  0.0301 -1.7932
  134SOL     MW  536   1.368   2.523   1.394 -0.1053 -0.4231  0.0219
  135SOL     OW  537   3.033   0.969   2.974  0.2270 -0.1640  0.0991
  135SOL    HW1  538   3.107   1.032   2.975 -1.7145 -0.5329 -0.0762
  135SOL    HW2  539   2.953   1.028   2.947 -2.9833  2.7352  0.4115
  135SOL     MW  540   3.033   0.985   2.971 -0.4527  0.1698  0.1172
  136SOL     OW  541   0.287   2.003   0.848  0.4382  0.1666  0.3687
  136SOL    HW1  542   0.203   1.984   0.807  1.0914  1.7139 -3.9922
  136SOL    HW2  543   0.353   1.963   0.785 -1.7562  1.6510 -1.1575
  136SOL     MW  544   0.285   1.995   0.835  0.2349  0.5666 -0.4081
  137SOL     OW  545   0.697   2.007   0.556  0.8887  0.4980 -0.4671
  137SOL    HW1  546   0.737   1.988   0.641 -0.9987 -1.9243  1.9790
  137SOL    HW2  547   0.603   2.029   0.576 -0.2042  2.3018  1.4772
  137SOL     MW  548   0.690   2.007   0.570  0.4955  0.4164  0.1122
  138SOL     OW  549   0.526   0.574   1.072 -0.1867 -0.7545  0.5418
  138SOL    HW1  550   0.449   0.524   1.084  2.1291  0.1524  2.0452
  138SOL    HW2  551   0.558   0.556   0.980  0.8792  2.8176 -1.1887
  138SOL     MW  552   0.520   0.565   1.061  0.2594 -0.1635  0.5118
  139SOL     OW  553   2.736   0.504   1.408 -0.4711 -0.8288  0.0248
  139SOL    HW1  554   2.789   0.424   1.416  2.2905 -2.4242 -3.1299
  139SOL    HW2  555   2.797   0.583   1.413 -0.2548  1.5750 -0.1614
  139SOL     MW  556   2.751   0.504   1.410 -0.0782 -0.7221 -0.4160
  140SOL     OW  557   0.864   0.331   2.127 -0.1343  0.5008 -0.8307
  140SOL    HW1  558   0.902   0.299   2.046  1.3870  1.8401 -0.8048
  140SOL    HW2  559   0.908   0.292   2.200  0.2117 -0.2182  1.5087
  140SOL     MW  560   0.875   0.321   2.126  0.1121  0.5827 -0.5186
  141SOL     OW  561   1.002   0.616   1.757 -0.2219  0.2030 -0.4181
  141SOL    HW1  562   1.058   0.541   1.718  0.9180  0.0919 -0.7380
  141SOL    HW2  563   1.062   0.689   1.749  2.4790 -0.1202 -1.2261
  141SOL     MW  564   1.017   0.615   1.751  0.2848  0.1457 -0.5669
  142SOL     OW  565   0.928   1.154   0.753  0.1474  0.9679  0.6784
  142SOL    HW1  566   0.909   1.092   0.682  0.9322 -0.3031  0.6434
  142SOL    HW2  567   1.029   1.159   0.762 -1.3627 -0.7516 -0.6252
  142SOL     MW  568   0.939   1.147   0.745  0.0517  0.5733  0.5018
  143SOL     OW  569   1.881   0.908   1.117 -0.2817 -0.1768  0.0148
  143SOL    HW1  570   1.891   0.895   1.022 -1.6636  0.0657 -0.3036
  143SOL    HW2  571   1.850   0.824   1.149 -0.1979 -0.4741 -0.3184
  143SOL     MW  572   1.878   0.895   1.109 -0.4530 -0.1840 -0.0712
  144SOL     OW  573   0.137   1.175   1.539  0.1566  0.0263 -0.0285
  144SOL    HW1  574   0.189   1.122   1.481 -0.2347  1.1347 -1.7862
  144SOL    HW2  575   0.179   1.178   1.628  0.9719 -1.7603 -1.0567
  144SOL     MW  576   0.149   1.168   1.543  0.2126 -0.0632 -0.3961
  145SOL     OW  577   0.288   0.482   1.104 -0.3367  0.4287 -0.7412
  145SOL    HW1  578   0.311   0.437   1.181  0.3079  2.9377 -2.3002
  145SOL    HW2  579   0.233   0.424   1.043 -1.3564  0.0262 -2.4470
  145SOL     MW  580   0.284   0.468   1.106 -0.3862  0.7066 -1.1719
  146SOL     OW  581   0.903   1.885   1.381 -0.0456 -0.0927 -0.4096
  146SOL    HW1  582   0.936   1.908   1.285  1.4749 -2.9903 -2.0089
  146SOL    HW2  583   0.811   1.918   1.382 -1.4222 -0.0331 -3.1010
  146SOL     MW  584   0.895   1.893   1.369 -0.0266 -0.4671 -0.9757
  147SOL     OW  585   0.387   0.447   2.864 -0.1940 -0.2045  0.8702
  147SOL    HW1  586   0.351   0.448   2.948  0.2322 -0.5576 -2.2539
  147SOL    HW2  587   0.339   0.506   2.807 -0.2165 -0.2994 -0.3037
  147SOL     MW  588   0.376   0.455   2.867 -0.1407 -0.2636  0.3031
  148SOL     OW  589   0.038   0.937   1.309 -0.3153 -0.1537  0.2105
  148SOL    HW1  590   0.130   0.949   1.303 -1.5164  0.1909 -0.8312
  148SOL    HW2  591   0.011   0.928   1.404 -1.2218  0.8886  4.1592
  148SOL     MW  592   0.047   0.938   1.321 -0.5934  0.0293  0.5941
  149SOL     OW  593   1.424   1.127   1.415 -0.0097  0.6754  0.6154
  149SOL    HW1  594   1.361   1.125   1.492 -1.9184 -0.4686  1.3058
  149SOL    HW2  595   1.490   1.195   1.440  1.5180  0.3216  0.3160
  149SOL     MW  596   1.425   1.135   1.428 -0.0600  0.4778  0.6670
  150SOL     OW  597   1.819   1.327   0.765 -0.0005 -0.6259  0.3965
  150SOL    HW1  598   1.832   1.235   0.749 -0.6363  0.0523  2.3929
  150SOL    HW2  599   1.886   1.346   0.826 -0.8070 -0.7791  1.8870
  150SOL     MW  600   1.829   1.317   0.771 -0.1908 -0.5566  0.8565
  151SOL     OW  601   1.621   1.796   0.850 -0.0592  0.2655  0.0785
  151SOL    HW1  602   1.550   1.799   0.788  0.0072  0.8311  1.7697
  151SOL    HW2  603   1.584   1.735   0.916  1.4378  0.3787 -0.4668
  151SOL     MW  604   1.607   1.789   0.851  0.1471  0.3551  0.2297
  152SOL     OW  605   0.785   1.360   1.537  0.4865  0.5855 -0.2905
  152SOL    HW1  606   0.803   1.265   1.559  0.5172 -2.0097  3.0396
  152SOL    HW2  607   0.876   1.387   1.512 -0.4396 -2.6307 -0.2135
  152SOL     MW  608   0.799   1.351   1.537  0.3683 -0.1813  0.1590
  153SOL     OW  609   2.667   1.233   0.701  0.0373 -0.1483  0.7572
  153SOL    HW1  610   2.716   1.213   0.620 -0.2150  1.4507 -1.4164
  153SOL    HW2  611   2.597   1.160   0.706  1.0095  1.9347  0.1327
  153SOL     MW  612   2.664   1.221   0.691  0.1323  0.3375  0.3880
  154SOL     OW  613   0.325   1.777   1.693  0.2727 -0.0554 -0.1007
  154SOL    HW1  614   0.315   1.738   1.606 -0.4767 -3.0949 -2.7363
  154SOL    HW2  615   0.361   1.707   1.749 -0.9350 -0.0858 -1.3575
  154SOL     MW  616   0.328   1.763   1.689  0.0145 -0.4604 -0.6142
  155SOL     OW  617   1.109   0.711   0.300 -0.0047 -0.5797  0.7474
  155SOL    HW1  618   1.133   0.664   0.380  0.0806  1.2186  1.6763
  155SOL    HW2  619   1.076   0.799   0.329  1.7793  0.4849  2.3820
  155SOL     MW  620   1.107   0.716   0.314  0.2420 -0.2020  1.0856
  156SOL     OW  621   1.493   3.034   1.039 -0.4695 -0.3961  0.0203
  156SOL    HW1  622   1.564   3.101   1.053 -1.4394 -0.9373 -0.8555
  156SOL    HW2  623   1.514   2.959   1.095 -0.1275  0.5470 -0.1406
  156SOL     MW  624   1.505   3.033   1.048 -0.5523 -0.3430 -0.1165
  157SOL     OW  625   1.362   1.229   0.128 -0.4353  0.3581  0.3663
  157SOL    HW1  626   1.402   1.140   0.125  2.3715 -1.6174  0.1669
  157SOL    HW2  627   1.445   1.278   0.118 -1.4585 -0.5567 -0.6184
  157SOL     MW  628   1.378   1.224   0.126 -0.2000 -0.0233  0.2101
  158SOL     OW  629   0.390   1.667   2.273  0.4718  0.7811 -0.3148
  158SOL    HW1  630   0.337   1.702   2.201  1.2087 -1.9393 -2.5110
  158SOL    HW2  631   0.318   1.629   2.323  1.3485 -1.1985  1.3459
  158SOL     MW  632   0.374   1.667   2.270  0.6847  0.1610 -0.3854
  159SOL     OW  633   1.312   1.660   0.451  0.4199 -0.4063  0.0414
  159SOL    HW1  634   1.272   1.573   0.448  0.7086  3.3485  1.3096
  159SOL    HW2  635   1.231   1.715   0.466 -0.4611  1.3491 -1.6835
  159SOL     MW  636   1.296   1.656   0.453  0.3417  0.3207 -0.0189
  160SOL     OW  637   0.451   1.070   1.545  0.3022 -0.0221  0.2374
  160SOL    HW1  638   0.485   1.003   1.601 -0.6962  0.0391 -0.1980
  160SOL    HW2  639   0.460   1.146   1.600 -2.0125 -0.2273 -0.4067
  160SOL     MW  640   0.457   1.071   1.560 -0.1349 -0.0411  0.0950
  161SOL     OW  641   0.583   2.117   2.707 -0.4902 -0.3240 -0.0641
  161SOL    HW1  642   0.505   2.140   2.759 -0.6658 -1.2249  0.8074
  161SOL    HW2  643   0.554   2.083   2.627  2.5962  1.0553  2.2621
  161SOL     MW  644   0.569   2.116   2.704 -0.1061 -0.2609  0.3578
  162SOL     OW  645   1.015   1.694   1.803 -0.9999 -0.5444 -0.4038
  162SOL    HW1  646   1.059   1.784   1.794  1.4256 -1.3245  0.2486
  162SOL    HW2  647   0.925   1.706   1.830  2.0833  1.2769 -1.3587
  162SOL     MW  648   1.009   1.707   1.805 -0.2731 -0.4071 -0.4437
  163SOL     OW  649   2.117   0.161   0.966 -0.2982  0.3021 -0.5372
  163SOL    HW1  650   2.124   0.169   0.871 -1.1917  1.2917  2.9997
  163SOL    HW2  651   2.054   0.092   0.984 -1.0130  1.6363 -0.1385
  163SOL     MW  652   2.110   0.153   0.956 -0.5104  0.6087 -0.0179
  164SOL     OW  653   0.244   0.205   0.811  0.1865  0.1581 -0.4279
  164SOL    HW1  654   0.175   0.235   0.877  0.1261  2.9097  3.3735
  164SOL    HW2  655   0.229   0.111   0.791 -2.6550  2.0192 -0.4670
  164SOL     MW  656   0.233   0.197   0.817 -0.1964  0.7667  0.0685
  165SOL     OW  657   1.368   1.223   0.411 -0.0963  0.2923 -0.1787
  165SOL    HW1  658   1.340   1.144   0.457  0.9401  1.3204 -0.0635
  165SOL    HW2  659   1.357   1.208   0.319  0.8880 -0.7681 -0.3131
  165SOL     MW  660   1.363   1.211   0.405  0.1703  0.2880 -0.1812
  166SOL     OW  661   0.497   1.082   0.974 -0.7016  0.5299 -0.3902
  166SOL    HW1  662   0.481   1.005   1.029  1.6774 -1.1258  0.8562
  166SOL    HW2  663   0.593   1.075   0.954 -0.4366 -2.5320  2.0448
  166SOL     MW  664   0.508   1.071   0.978 -0.3527 -0.0925  0.0955
  167SOL     OW  665   0.906   1.143   0.260 -0.6480 -0.0415 -0.0112
  167SOL    HW1  666   0.819   1.165   0.276  0.8616 -0.3668  1.1712
  167SOL    HW2  667   0.914   1.129   0.164  2.3694 -1.2539 -2.0037
  167SOL     MW  668   0.895   1.144   0.249 -0.0507 -0.2444 -0.1181
  168SOL     OW  669   1.705   1.743   2.887  0.5141 -0.0587 -0.1325
  168SOL    HW1  670   1.613   1.758   2.881  0.6616 -0.9025 -0.7135
  168SOL    HW2  671   1.707   1.648   2.927  0.2479  0.8029  0.0009
  168SOL     MW  672   1.693   1.732   2.891  0.4985 -0.0564 -0.1916
  169SOL     OW  673   0.310   0.942   1.334  0.3146  0.4243 -0.0634
  169SOL    HW1  674   0.340   0.946   1.428  1.2851  1.9514  0.5017
  169SOL    HW2  675   0.313   1.037   1.312  1.4167  1.3374 -2.2306
  169SOL     MW  676   0.314   0.955   1.343  0.5881  0.7462 -0.2748
  170SOL     OW  677   1.032   1.465   1.482  0.2834 -0.0247 -0.1664
  170SOL    HW1  678   0.956   1.524   1.451 -2.5504  1.6378  1.3712
  170SOL    HW2  679   1.094   1.469   1.410 -1.5813 -1.5107  2.0616
  170SOL     MW  680   1.030   1.473   1.469 -0.3365 -0.0014  0.3304
  171SOL     OW  681   0.605   1.382   0.710  0.4344  0.0006  0.0042
  171SOL    HW1  682   0.592   1.353   0.802 -0.1964 -1.9637  0.4394
  171SOL    HW2  683   0.586   1.300   0.664  1.0050 -1.3881 -1.0389
  171SOL     MW  684   0.601   1.368   0.716  0.4265 -0.4418 -0.0760
  172SOL     OW  685   0.840   0.326   1.215  0.4987  0.0398 -0.0053
  172SOL    HW1  686   0.833   0.348   1.119  1.6559 -0.8498 -0.9039
  172SOL    HW2  687   0.768   0.378   1.261  2.2231 -1.8698 -1.3002
  172SOL     MW  688   0.830   0.336   1.209  0.8789 -0.3295 -0.2947
  173SOL     OW  689   0.475   1.690   0.331  0.4410  1.0611  0.5050
  173SOL    HW1  690   0.464   1.594   0.314  0.3170 -0.5344 -1.4413
  173SOL    HW2  691   0.517   1.696   0.415 -0.3174  0.1116  0.2634
  173SOL     MW  692   0.479   1.678   0.340  0.3246  0.7253  0.2163
  174SOL     OW  693   2.038   0.947   1.502  0.6465  0.0102 -0.8529
  174SOL    HW1  694   1.991   0.861   1.506 -1.9421 -2.7828 -0.5244
  174SOL    HW2  695   1.995   1.004   1.436 -1.5239 -1.8851  2.1950
  174SOL     MW  696   2.026   0.943   1.494  0.0186 -0.6084 -0.4074
  175SOL     OW  697   0.445   1.426   0.336  0.9636  0.2307 -0.2872
  175SOL    HW1  698   0.415   1.405   0.247 -0.3213  1.4856 -2.8318
  175SOL    HW2  699   0.537   1.436   0.336 -0.9908  0.5285 -2.0920
  175SOL     MW  700   0.453   1.425   0.324  0.5362  0.4355 -0.8611
  176SOL     OW  701   0.303   1.201   1.251  0.2555 -0.3583 -0.0917
  176SOL    HW1  702   0.256   1.238   1.174 -1.2761 -1.3324 -1.9146
  176SOL    HW2  703   0.246   1.238   1.327 -0.7139 -0.3624 -0.6244
  176SOL     MW  704   0.289   1.210   1.251 -0.0745 -0.4874 -0.4025
  177SOL     OW  705   0.630   0.461   1.305 -0.2595  0.0859 -0.0998
  177SOL    HW1  706   0.617   0.518   1.220 -0.2076  0.7377 -1.1002
  177SOL    HW2  707   0.610   0.505   1.384  0.9157  0.3024 -1.1385
  177SOL     MW  708   0.625   0.474   1.304 -0.0976  0.2004 -0.3688
  178SOL     OW  709   3.097   0.431   2.947 -0.1110 -0.3675  0.0182
  178SOL    HW1  710   3.047   0.467   3.026  1.9988  1.2755 -0.9848
  178SOL    HW2  711   3.031   0.439   2.873 -0.3863 -0.9492  1.8036
  178SOL     MW  712   3.081   0.437   2.948  0.1311 -0.2274  0.1215
  179SOL     OW  713   1.625   1.329   1.491  0.4476 -0.5972 -0.4556
  179SOL    HW1  714   1.609   1.377   1.573 -2.7534  0.0265  2.4494
  179SOL    HW2  715   1.711   1.291   1.510  1.4765 -0.8347  1.8277
  179SOL     MW  716   1.634   1.330   1.505  0.1610 -0.5462  0.2289
  180SOL     OW  717   3.036   0.286   0.487  0.1364  0.1450 -0.1959
  180SOL    HW1  718   3.001   0.278   0.394 -0.2156  0.7678 -3.0208
  180SOL    HW2  719   3.082   0.366   0.488 -0.1957 -0.3111  0.1191
  180SOL     MW  720   3.037   0.295   0.475  0.0461  0.1670 -0.5271
  181SOL     OW  721   1.116   1.436   3.065 -0.0405  0.4722 -0.2037
  181SOL    HW1  722   1.190   1.433   3.124 -1.8909 -2.8810  0.6777
  181SOL    HW2  723   1.171   1.439   2.981 -0.3816  1.3872  0.9415
  181SOL     MW  724   1.133   1.436   3.062 -0.3296  0.1505  0.0637
  182SOL     OW  725   0.482   0.810   1.636 -0.0699  0.2707 -0.8090
  182SOL    HW1  726   0.392   0.791   1.651  0.6564  0.2217 -0.2505
  182SOL    HW2  727   0.531   0.734   1.673 -0.7645  0.8582  1.4783
  182SOL     MW  728   0.477   0.797   1.643 -0.0657  0.3418 -0.4335
  183SOL     OW  729   1.630   1.534   1.303  0.8168 -0.2593 -0.1508
  183SOL    HW1  730   1.553   1.580   1.334 -1.7809  0.8465 -1.8435
  183SOL    HW2  731   1.645   1.464   1.368 -1.8190  0.5310  0.9095
  183SOL     MW  732   1.622   1.531   1.315  0.1263 -0.0091 -0.2343
  184SOL     OW  733   0.844   0.608   1.973  0.3447  0.2242  0.3833
  184SOL    HW1  734   0.909   0.635   1.903  2.7061  0.9514 -0.1805
  184SOL    HW2  735   0.870   0.527   2.019 -0.1062  2.5106 -1.4865
  184SOL     MW  736   0.856   0.601   1.970  0.5968  0.6218  0.0622
  185SOL     OW  737   1.124   0.957   1.938  0.1499 -0.1655  0.0862
  185SOL    HW1  738   1.105   0.884   1.991 -0.0438 -0.3693  0.1977
  185SOL    HW2  739   1.154   1.028   2.004  1.4740 -1.4680  1.0086
  185SOL     MW  740   1.125   0.956   1.953  0.2990 -0.3642  0.2226
  186SOL     OW  741   0.379   1.676   1.407  0.3504 -0.2358  0.1695
  186SOL    HW1  742   0.460   1.713   1.372 -0.2438 -1.0052 -0.1673
  186SOL    HW2  743   0.344   1.613   1.343  2.0160  0.1666 -1.8210
  186SOL     MW  744   0.385   1.673   1.394  0.4917 -0.2842 -0.1376
  187SOL     OW  745   1.516   0.684   1.474  0.2983  0.0103 -0.1751
  187SOL    HW1  746   1.498   0.693   1.567  0.3285  0.1621 -0.2660
  187SOL    HW2  747   1.426   0.681   1.437 -0.8555  1.0003  1.3995
  187SOL     MW  748   1.502   0.685   1.481  0.1501  0.1609  0.0206
  188SOL     OW  749   1.916   1.046   0.720 -0.1133 -0.7349  0.0966
  188SOL    HW1  750   1.898   0.962   0.765 -1.5583  0.4758 -1.2785
  188SOL    HW2  751   2.011   1.056   0.714 -2.0700 -2.1510 -1.5020
  188SOL     MW  752   1.926   1.036   0.725 -0.5621 -0.7620 -0.2957
  189SOL     OW  753   0.663   0.776   0.799 -0.1781  0.2451  0.0668
  189SOL    HW1  754   0.599   0.846   0.795 -1.8636 -1.8895 -1.4518
  189SOL    HW2  755   0.740   0.822   0.836  4.5602 -3.0417  0.2920
  189SOL     MW  756   0.665   0.791   0.803  0.2247 -0.4702 -0.1038
  190SOL     OW  757   1.859   0.346   1.962  0.4412 -0.1347 -0.0926
  190SOL    HW1  758   1.906   0.276   1.915 -0.5144 -3.1851 -1.4770
  190SOL    HW2  759   1.921   0.422   1.960  0.1857 -0.5892  1.0494
  190SOL     MW  760   1.874   0.347   1.956  0.2814 -0.5971 -0.1246
  191SOL     OW  761   1.597   0.935   1.442  0.5245  0.1373 -1.4009
  191SOL    HW1  762   1.512   0.984   1.422  0.3172  0.1478 -2.3231
  191SOL    HW2  763   1.565   0.845   1.456 -0.7294  0.8878  0.3249
  191SOL     MW  764   1.582   0.930   1.441  0.3317  0.2377 -1.2948
  192SOL     OW  765   0.759   1.965   2.886 -0.0134 -0.0333 -1.3926
  192SOL    HW1  766   0.689   2.020   2.846  0.2925 -0.7563 -1.9786
  192SOL    HW2  767   0.712   1.891   2.927  0.8241  0.4483  0.5248
  192SOL     MW  768   0.743   1.963   2.886  0.1375 -0.0652 -1.2170
  193SOL     OW  769   1.047   1.584   0.731  0.5236  0.7298  0.2430
  193SOL    HW1  770   1.007   1.594   0.814  2.7642  0.7347 -1.9650
  193SOL    HW2  771   0.982   1.547   0.671 -2.4161  1.0130  1.0081
  193SOL     MW  772   1.033   1.580   0.734  0.4314  0.7678  0.0526
  194SOL     OW  773   0.468   1.341   0.946  0.4605  0.3581 -0.1636
  194SOL    HW1  774   0.461   1.243   0.962 -2.4529 -1.5230 -1.5183
  194SOL    HW2  775   0.388   1.367   0.901 -0.2704 -0.4201 -0.6360
  194SOL     MW  776   0.457   1.332   0.942 -0.0204  0.0072 -0.4047
  195SOL     OW  777   1.291   1.173   2.978 -0.5089  0.1355  0.1659
  195SOL    HW1  778   1.310   1.205   3.067 -2.4951  0.1966  1.8361
  195SOL    HW2  779   1.224   1.100   2.989  1.2324 -3.4077  2.0904
  195SOL     MW  780   1.285   1.167   2.991 -0.5412 -0.3239  0.6402
  196SOL     OW  781   2.166   1.065   0.615  0.5406  0.9069  0.5667
  196SOL    HW1  782   2.133   1.020   0.537 -1.9389 -0.8198  2.3357
  196SOL    HW2  783   2.157   1.159   0.605 -1.7890 -0.6777  1.7611
  196SOL     MW  784   2.160   1.071   0.603 -0.0939  0.4700  0.9577
  197SOL     OW  785   0.567   1.256   2.013  0.0833  0.2486 -0.0636
  197SOL    HW1  786   0.556   1.163   2.012 -0.3043 -0.2409  0.9649
  197SOL    HW2  787   0.562   1.281   1.925 -1.1327 -0.8960  3.1369
  197SOL     MW  788   0.565   1.247   2.001 -0.1283  0.0330  0.4944
  198SOL     OW  789   2.925   1.397   1.042  0.2482  0.6733 -0.2876
  198SOL    HW1  790   2.929   1.493   1.012  1.5836  1.3120 -1.2683
  198SOL    HW2  791   2.866   1.355   0.988  2.8940 -0.4458 -0.3279
  198SOL     MW  792   2.918   1.404   1.031  0.7735  0.6099 -0.4223
  199SOL     OW  793   0.501   1.281   1.744  0.3634  0.2298 -0.0786
  199SOL    HW1  794   0.408   1.274   1.780  0.4843 -1.7307  1.4156
  199SOL    HW2  795   0.511   1.360   1.692  5.0082  0.6762 -0.2037
  199SOL     MW  796   0.490   1.291   1.742  0.9922  0.0300  0.1020
  200SOL     OW  797   1.928   3.095   1.341 -0.5236  0.1051  0.9050
  200SOL    HW1  798   1.943   3.082   1.244  0.1060 -0.4059 -1.1468
  200SOL    HW2  799   1.834   3.078   1.353 -0.0658  0.2967  0.1970
  200SOL     MW  800   1.917   3.091   1.330 -0.3801  0.0630  0.5409
  201SOL     OW  801   1.117   0.298   0.809 -0.3801 -0.2748  0.3536
  201SOL    HW1  802   1.103   0.204   0.844 -2.9933  1.2128  0.6850
  201SOL    HW2  803   1.130   0.292   0.713  0.5872  1.3918 -1.5144
  201SOL     MW  804   1.117   0.285   0.801 -0.5972  0.1413  0.1509
  202SOL     OW  805   1.571   1.598   1.032 -0.6456  0.3465  0.4392
  202SOL    HW1  806   1.573   1.516   0.977  2.5852  0.8891 -0.0681
  202SOL    HW2  807   1.620   1.575   1.111 -0.5899  1.1949 -1.1544
  202SOL     MW  808   1.578   1.584   1.035 -0.2120  0.5301  0.1620
  203SOL     OW  809   3.053   0.456   1.222  1.4200 -0.1251 -0.2833
  203SOL    HW1  810   3.110   0.405   1.167 -3.3295  0.4624 -1.2895
  203SOL    HW2  811   3.106   0.512   1.271 -1.8193 -3.4689  0.9840
  203SOL     MW  812   3.067   0.457   1.221  0.3660 -0.4887 -0.2489
  204SOL     OW  813   1.079   1.755   0.533  0.0384 -0.4443  0.1348
  204SOL    HW1  814   1.056   1.708   0.616 -1.3807  1.4339 -1.8861
  204SOL    HW2  815   1.002   1.744   0.476  0.1357 -0.7511  0.3443
  204SOL     MW  816   1.066   1.747   0.537 -0.1360 -0.2370 -0.1042
  205SOL     OW  817   1.396   0.070   1.332 -0.0622 -0.1888  0.3121
  205SOL    HW1  818   1.320   0.065   1.275  0.7396  1.3226  1.3737
  205SOL    HW2  819   1.436   0.154   1.319  1.1732 -2.0724 -0.3979
  205SOL     MW  820   1.391   0.080   1.322  0.2066 -0.2379  0.3585
  206SOL     OW  821   0.512   3.078   1.371 -0.3755 -0.1420  0.0043
  206SOL    HW1  822   0.457   3.057   1.293 -1.8419  0.4027  1.1816
  206SOL    HW2  823   0.569   2.999   1.378 -4.2159  0.6269  1.4057
  206SOL     MW  824   0.512   3.065   1.361 -1.0757  0.0313  0.3445
  207SOL     OW  825   0.993   1.545   0.229 -0.2204 -0.0725  0.6667
  207SOL    HW1  826   1.005   1.636   0.196 -2.7988  1.3367 -0.1123
  207SOL    HW2  827   1.082   1.505   0.251  2.2701 -1.3143  0.6799
  207SOL     MW  828   1.006   1.552   0.228 -0.2320 -0.0504  0.5657
  208SOL     OW  829   0.649   1.579   1.215  0.0605  0.3432 -0.5207
  208SOL    HW1  830   0.700   1.600   1.290  1.3418 -0.8767 -0.4346
  208SOL    HW2  831   0.624   1.483   1.223  1.2018 -2.7342 -1.6216
  208SOL     MW  832   0.652   1.569   1.226  0.3801 -0.2238 -0.6546
  209SOL     OW  833   1.475   0.509   2.803 -0.2394  0.6609  0.2063
  209SOL    HW1  834   1.481   0.552   2.890 -0.3553  1.9268  0.2967
  209SOL    HW2  835   1.567   0.469   2.798  1.3604  0.8662  0.4973
  209SOL     MW  836   1.488   0.509   2.814 -0.0436  0.8550  0.2566
  210SOL     OW  837   1.568   1.373   0.883 -0.0641  0.5678 -0.5083
  210SOL    HW1  838   1.655   1.359   0.848  1.8070  0.2073  0.3274
  210SOL    HW2  839   1.522   1.389   0.801  1.2287  1.7834  0.4145
  210SOL     MW  840   1.573   1.373   0.868  0.3533  0.6806 -0.2763
  211SOL     OW  841   1.714   0.476   0.929 -0.0913  0.4103  0.2427
  211SOL    HW1  842   1.686   0.468   0.835  0.1527 -0.8203  1.0991
  211SOL    HW2  843   1.815   0.484   0.934  1.3287 -0.6159  0.1422
  211SOL     MW  844   1.723   0.476   0.917  0.1282  0.1125  0.3424
  212SOL     OW  845   0.240   1.095   0.055 -0.1265  0.1967  0.4743
  212SOL    HW1  846   0.172   1.059   0.111  2.0691 -1.5039  0.3786
  212SOL    HW2  847   0.313   1.036   0.061 -1.8549 -0.3075  0.6093
  212SOL     MW  848   0.241   1.083   0.063 -0.0649 -0.0942  0.4795
  213SOL     OW  849   0.472   1.683   3.098 -0.7910 -0.1679  0.0126
  213SOL    HW1  850   0.530   1.731   3.156 -0.5100  0.1685 -1.1768
  213SOL    HW2  851   0.510   1.691   3.015  2.5329 -1.9081 -0.1327
  213SOL     MW  852   0.485   1.691   3.095 -0.3154 -0.3531 -0.1635
  214SOL     OW  853   0.640   0.258   2.283  0.5177 -0.1320  0.5662
  214SOL    HW1  854   0.560   0.292   2.246 -0.0196  1.3607  1.4893
  214SOL    HW2  855   0.715   0.285   2.234  1.6486  3.4957  0.6362
  214SOL     MW  856   0.639   0.266   2.271  0.5960  0.5435  0.6973
  215SOL     OW  857   0.492   0.752   2.634 -0.5896  0.1021 -0.1860
  215SOL    HW1  858   0.526   0.730   2.545  0.8524  2.6973 -1.3342
  215SOL    HW2  859   0.413   0.701   2.641  2.2517 -0.0972 -1.4422
  215SOL     MW  860   0.486   0.742   2.623 -0.0245  0.4182 -0.5033
  216SOL     OW  861   3.093   3.077   2.745 -0.0554  0.1351 -0.5349
  216SOL    HW1  862   3.015   3.037   2.789 -3.1310 -1.6219  1.1355
  216SOL    HW2  863   3.044   3.158   2.710 -0.4823  1.1721 -1.9819
  216SOL     MW  864   3.076   3.083   2.747 -0.5175  0.0401 -0.5054
  217SOL     OW  865   0.981   1.188   3.091 -0.7484  0.1618 -0.0853
  217SOL    HW1  866   1.019   1.097   3.072  0.9868 -0.1792  0.0197
  217SOL    HW2  867   1.053   1.255   3.113  5.0504  0.6477 -0.5670
  217SOL     MW  868   0.995   1.185   3.092  0.2456  0.1809 -0.1350
  218SOL     OW  869   0.912   1.378   2.485 -0.0089 -1.0237  0.4476
  218SOL    HW1  870   0.910   1.305   2.541 -1.0991 -0.6656 -0.6751
  218SOL    HW2  871   0.977   1.430   2.526  0.3099  3.8420 -2.8047
  218SOL     MW  872   0.920   1.375   2.498 -0.1107 -0.3345 -0.1297
  219SOL     OW  873   1.018   0.428   2.483  0.5066  0.0560 -0.3764
  219SOL    HW1  874   1.090   0.482   2.452 -0.3581  0.7772 -3.3109
  219SOL    HW2  875   0.955   0.497   2.497 -2.1632 -0.0498 -1.4352
  219SOL     MW  876   1.019   0.444   2.481  0.0402  0.1372 -0.9033
  220SOL     OW  877   1.754   0.528   2.199  0.2280 -0.5003  0.4382
  220SOL    HW1  878   1.671   0.552   2.164  0.4141 -1.4789  2.3585
  220SOL    HW2  879   1.760   0.450   2.151 -2.7640 -2.1797  2.0272
  220SOL     MW  880   1.744   0.521   2.188 -0.1422 -0.8510  0.9012
  221SOL     OW  881   0.410   1.402   2.903  0.0368 -0.5607 -0.4825
  221SOL    HW1  882   0.408   1.305   2.895 -1.7302 -2.8861  3.3195
  221SOL    HW2  883   0.391   1.426   2.816  0.5412  1.8165  1.9561
  221SOL     MW  884   0.407   1.392   2.890 -0.1298 -0.5538  0.3409
  222SOL     OW  885   0.315   0.958   2.642 -0.4100  0.0094 -0.1762
  222SOL    HW1  886   0.294   0.980   2.554  0.0546 -0.4615 -2.3589
  222SOL    HW2  887   0.385   0.897   2.627 -1.9916 -0.0231 -0.2505
  222SOL     MW  888   0.321   0.953   2.628 -0.5574 -0.0570 -0.4740
  223SOL     OW  889   3.094   1.986   2.618  0.2511  0.3771 -0.5364
  223SOL    HW1  890   3.171   1.923   2.634 -1.6603 -0.7434 -0.2031
  223SOL    HW2  891   3.116   2.067   2.565 -0.4488 -2.5904  0.3127
  223SOL     MW  892   3.107   1.988   2.613 -0.0934 -0.1623 -0.3804
  224SOL     OW  893   1.499   0.837   2.598 -0.6324 -0.0073  0.4231
  224SOL    HW1  894   1.433   0.870   2.660  1.4881  0.2255  0.8370
  224SOL    HW2  895   1.534   0.912   2.557  0.4727 -2.8440  1.6011
  224SOL     MW  896   1.495   0.851   2.601 -0.2068 -0.3509  0.6331
  225SOL     OW  897   2.909   1.487   2.227  0.1384  0.0806  0.1661
  225SOL    HW1  898   2.966   1.542   2.172 -0.7567  1.6837 -1.2428
  225SOL    HW2  899   2.851   1.545   2.284  0.7621 -0.2601  1.7050
  225SOL     MW  900   2.909   1.502   2.227  0.1026  0.2472  0.1832
  226SOL     OW  901   0.386   1.494   2.622 -0.1987  0.1380 -0.1036
  226SOL    HW1  902   0.478   1.474   2.614  0.0034  2.5106  2.4261
  226SOL    HW2  903   0.387   1.586   2.604 -0.8292 -0.3783  0.9452
  226SOL     MW  904   0.398   1.504   2.618 -0.2552  0.3829  0.3685
  227SOL     OW  905   0.424   1.132   2.851  0.2272 -0.1141  0.3132
  227SOL    HW1  906   0.510   1.150   2.811 -0.9913 -3.2217  1.9954
  227SOL    HW2  907   0.379   1.074   2.795 -0.2840 -0.7081 -1.7906
  227SOL     MW  908   0.429   1.127   2.838 -0.0010 -0.6025  0.2576
  228SOL     OW  909   0.690   0.984   1.976  0.1867  0.2329 -0.3322
  228SOL    HW1  910   0.753   1.041   1.928 -1.0187 -0.0439  3.2409
  228SOL    HW2  911   0.719   0.986   2.063 -1.0865  0.7287  0.5242
  228SOL     MW  912   0.702   0.992   1.981 -0.1404  0.2618  0.2523
  229SOL     OW  913   0.240   0.484   3.095 -0.5736 -0.9438 -0.0112
  229SOL    HW1  914   0.163   0.471   3.042  1.5783 -1.0389  0.9739
  229SOL    HW2  915   0.218   0.444   3.182 -1.1075  0.9769 -0.8780
  229SOL     MW  916   0.227   0.477   3.100 -0.3601 -0.7030  0.0044
  230SOL     OW  917   1.772   1.343   2.107  0.0924  0.0536 -0.3091
  230SOL    HW1  918   1.749   1.345   2.201  1.4821 -1.0344  1.3525
  230SOL    HW2  919   1.795   1.250   2.095 -0.9250  0.8277 -1.7050
  230SOL     MW  920   1.772   1.331   2.118  0.1415  0.0122 -0.2740
  231SOL     OW  921   2.792   1.251   2.159 -0.7324  0.4594 -0.4260
  231SOL    HW1  922   2.842   1.329   2.152 -1.7877  0.7874 -0.0349
  231SOL    HW2  923   2.730   1.279   2.095  1.4367  0.3050  0.1520
  231SOL     MW  924   2.790   1.265   2.149 -0.5854  0.4823 -0.2982
  232SOL     OW  925   2.289   0.919   2.101  0.1878 -0.4641 -0.2810
  232SOL    HW1  926   2.223   0.971   2.054 -1.0063 -1.5766  3.4761
  232SOL    HW2  927   2.246   0.904   2.191  0.2994 -0.1367  1.1458
  232SOL     MW  928   2.274   0.924   2.106  0.0450 -0.5677  0.4030
  233SOL     OW  929   2.065   0.522   1.942 -0.6117 -0.5958  0.4782
  233SOL    HW1  930   2.093   0.597   1.880 -1.7614 -1.1891 -1.4110
  233SOL    HW2  931   2.132   0.521   2.012 -1.6753 -1.1365 -0.9468
  233SOL     MW  932   2.078   0.532   1.943 -0.9037 -0.7454  0.0409
  234SOL     OW  933   0.267   0.984   2.362  0.5158  0.3302 -0.7663
  234SOL    HW1  934   0.174   1.011   2.383 -1.5142 -0.1951 -2.4366
  234SOL    HW2  935   0.319   1.065   2.356  1.9242  2.0186 -0.7374
  234SOL     MW  936   0.261   0.998   2.364  0.4337  0.4836 -0.9828
  235SOL     OW  937   1.003   3.045   2.790  0.8853 -0.0929  0.2286
  235SOL    HW1  938   1.058   2.993   2.851  0.1388  1.1165  0.2768
  235SOL    HW2  939   0.979   3.123   2.840  0.2229  0.4838 -0.6268
  235SOL     MW  940   1.007   3.048   2.805  0.6994  0.1428  0.1221
  236SOL     OW  941   2.929   0.521   0.050 -0.3520 -0.0950 -0.7389
  236SOL    HW1  942   2.852   0.542  -0.011 -0.3865 -1.3475 -0.8311
  236SOL    HW2  943   2.972   0.612   0.072  1.4484 -1.5633  0.3341
  236SOL     MW  944   2.925   0.536   0.045 -0.1190 -0.4540 -0.6095
  237SOL     OW  945   1.763   0.877   2.182 -0.4586  0.4649 -0.3529
  237SOL    HW1  946   1.787   0.972   2.155  2.2103  0.0746 -0.0769
  237SOL    HW2  947   1.801   0.869   2.274 -1.7264 -2.4625 -1.2292
  237SOL     MW  948   1.771   0.889   2.190 -0.2738  0.0272 -0.4321
  238SOL     OW  949   1.101   1.746   2.976 -0.1256 -0.3092  0.1568
  238SOL    HW1  950   1.071   1.653   2.986  1.3711 -1.1448  0.2258
  238SOL    HW2  951   1.199   1.751   2.970 -2.5196  0.9508 -3.4387
  238SOL     MW  952   1.110   1.734   2.977 -0.2440 -0.2532 -0.3085
  239SOL     OW  953   1.183   1.391   2.311 -0.5963  0.1147  0.1850
  239SOL    HW1  954   1.181   1.409   2.405 -0.4674  0.4658  1.6680
  239SOL    HW2  955   1.124   1.323   2.285  0.2223  1.6424  0.5363
  239SOL     MW  956   1.175   1.385   2.320 -0.4713  0.3626  0.4270
  240SOL     OW  957   0.608   0.854   2.267  0.2116  0.9402  0.6887
  240SOL    HW1  958   0.592   0.905   2.343  0.5312  0.6343 -0.0940
  240SOL    HW2  959   0.699   0.848   2.251  1.5792  1.3084 -0.1571
  240SOL     MW  960   0.618   0.860   2.275  0.4342  0.9484  0.4739
  241SOL     OW  961   0.647   0.367   2.978 -0.2101 -0.4688  0.8289
  241SOL    HW1  962   0.656   0.394   3.071 -4.3390  0.8167  0.3176
  241SOL    HW2  963   0.559   0.396   2.951 -0.2443 -2.3919  2.2872
  241SOL     MW  964   0.637   0.374   2.986 -0.7594 -0.5529  0.9538
  242SOL     OW  965   1.463   1.708   2.339  1.1345  0.8224 -0.1998
  242SOL    HW1  966   1.432   1.797   2.367 -2.9588  2.1944 -0.4466
  242SOL    HW2  967   1.384   1.659   2.315 -0.2787 -0.0353  0.0170
  242SOL     MW  968   1.449   1.713   2.339  0.4080  0.8902 -0.2038
  243SOL     OW  969   0.963   0.215   2.351 -1.1275  0.6102  0.6959
  243SOL    HW1  970   1.055   0.194   2.345 -3.2273  1.1795 -2.3669
  243SOL    HW2  971   0.971   0.303   2.380  2.6408 -1.9992 -2.0109
  243SOL     MW  972   0.976   0.224   2.354 -0.9073  0.3410 -0.0653
  244SOL     OW  973   0.199   0.710   2.283 -0.0501 -0.1049  0.4158
  244SOL    HW1  974   0.207   0.804   2.309 -1.6790 -2.2879 -0.2023
  244SOL    HW2  975   0.279   0.678   2.314  0.5182  1.3094  0.4933
  244SOL     MW  976   0.210   0.718   2.291 -0.1901 -0.2063  0.3445
  245SOL     OW  977   1.229   0.162   2.298  0.1324  0.2340  0.5313
  245SOL    HW1  978   1.240   0.072   2.332 -0.1607 -1.5148 -0.3969
  245SOL    HW2  979   1.279   0.218   2.357  0.8456 -1.7278  3.3203
  245SOL     MW  980   1.237   0.157   2.310  0.1879 -0.2556  0.7768
  246SOL     OW  981   1.176   1.142   2.133  0.6982  0.2578 -1.1044
  246SOL    HW1  982   1.122   1.097   2.202  0.5573  0.7145 -1.0705
  246SOL    HW2  983   1.258   1.170   2.187  2.5788 -1.1702 -0.7837
  246SOL     MW  984   1.180   1.140   2.149  0.9277  0.1296 -1.0576
  247SOL     OW  985   0.681   0.517   0.115  0.3061 -0.1737 -0.6080
  247SOL    HW1  986   0.657   0.606   0.096  2.3652 -0.7284  0.9827
  247SOL    HW2  987   0.778   0.524   0.116  0.5766 -0.6022 -0.7543
  247SOL     MW  988   0.690   0.530   0.112  0.6135 -0.3034 -0.4174
  248SOL     OW  989   0.428   1.202   2.428 -0.3777 -0.2762  0.2797
  248SOL    HW1  990   0.413   1.259   2.352  0.1551 -2.8595 -0.4403
  248SOL    HW2  991   0.420   1.265   2.506  0.9832  2.0006 -1.1715
  248SOL     MW  992   0.425   1.218   2.428 -0.1279 -0.3166 -0.0067
  249SOL     OW  993   0.169   1.807   2.722  0.4052  1.2546  0.2325
  249SOL    HW1  994   0.133   1.728   2.676  2.5452  0.9596  0.5928
  249SOL    HW2  995   0.190   1.773   2.809 -0.1701  1.1733 -0.0719
  249SOL     MW  996   0.167   1.792   2.727  0.6117  1.2049  0.2399
  250SOL     OW  997   2.160   0.896   2.367  0.4944  0.6321 -0.0500
  250SOL    HW1  998   2.199   0.800   2.361 -1.7266  0.0892  0.0860
  250SOL    HW2  999   2.218   0.944   2.432 -1.9814  0.2582 -0.4916
  250SOL     MW 1000   2.173   0.889   2.375 -0.1253  0.5111 -0.0903
  251SOL     OW 1001   0.191   0.825   1.992 -0.1245 -0.0085 -0.2697
  251SOL    HW1 1002   0.179   0.744   2.046  1.2395  1.5614  2.1500
  251SOL    HW2 1003   0.175   0.806   1.904 -0.4446  0.0680 -0.7887
  251SOL     MW 1004   0.187   0.812   1.988  0.0132  0.2087 -0.0189
  252SOL     OW 1005   1.718   1.005   2.818  0.4382  0.1267 -0.1728
  252SOL    HW1 1006   1.734   1.075   2.882 -1.5177 -0.0126 -1.9442
  252SOL    HW2 1007   1.785   1.024   2.752 -0.2435 -0.1749 -0.1861
  252SOL     MW 1008   1.729   1.017   2.817  0.0902  0.0686 -0.4083
  253SOL     OW 1009   1.143   1.733   2.552 -0.2463  0.1686 -0.0626
  253SOL    HW1 1010   1.160   1.788   2.477  0.4588  1.1203 -0.9417
  253SOL    HW2 1011   1.061   1.770   2.600  1.7491  0.1799 -2.0863
  253SOL     MW 1012   1.134   1.745   2.548  0.1100  0.2957 -0.4456
  254SOL     OW 1013   1.029   1.023   2.317 -0.0628 -0.1262 -0.7553
  254SOL    HW1 1014   0.992   0.937   2.289 -1.1987  0.0466  0.5948
  254SOL    HW2 1015   0.955   1.082   2.302  3.0153 -0.1406 -1.0971
  254SOL     MW 1016   1.014   1.019   2.311  0.1935 -0.1053 -0.6223
  255SOL     OW 1017   0.797   2.406   2.229  0.1217  0.0688 -0.5618
  255SOL    HW1 1018   0.701   2.391   2.237 -1.9544 -2.1438 -1.3113
  255SOL    HW2 1019   0.829   2.441   2.313  1.3438  0.5786  0.4598
  255SOL     MW 1020   0.788   2.409   2.241  0.0090 -0.1558 -0.5259
  256SOL     OW 1021   1.154   2.819   2.898 -0.3255 -0.1995 -0.0360
  256SOL    HW1 1022   1.181   2.726   2.899  0.4245  2.1726  2.4796
  256SOL    HW2 1023   1.245   2.860   2.882  1.2581  0.0584 -0.4669
  256SOL     MW 1024   1.169   2.812   2.896 -0.0176  0.1475  0.2391
  257SOL     OW 1025   0.121   1.853   0.059  0.3746 -0.4647  0.6668
  257SOL    HW1 1026   0.138   1.802   0.142  0.2092  1.4399 -2.9129
  257SOL    HW2 1027   0.133   1.788  -0.012 -4.5515 -0.5860  2.0191
  257SOL     MW 1028   0.125   1.838   0.061 -0.2972 -0.2294  0.3729
  258SOL     OW 1029   0.669   1.061   2.468  0.1558  0.1597 -0.4950
  258SOL    HW1 1030   0.727   1.097   2.405  2.3292 -0.4757  0.2966
  258SOL    HW2 1031   0.578   1.099   2.451 -4.1445 -0.3786 -0.3682
  258SOL     MW 1032   0.665   1.071   2.458 -0.1248  0.0048 -0.3738
  259SOL     OW 1033   0.681   0.479   2.443  0.4969 -0.1757 -0.7780
  259SOL    HW1 1034   0.601   0.523   2.411  1.1797  2.2877  0.1092
  259SOL    HW2 1035   0.671   0.386   2.405  1.8185 -0.1702 -0.0919
  259SOL     MW 1036   0.669   0.473   2.433  0.7614  0.1501 -0.5704
  260SOL     OW 1037   0.593   0.125   1.595 -0.5904 -0.2236  0.2329
  260SOL    HW1 1038   0.552   0.085   1.519  0.5831 -2.2441 -0.2462
  260SOL    HW2 1039   0.688   0.132   1.575  0.5787 -1.4685 -0.2532
  260SOL     MW 1040   0.600   0.121   1.582 -0.2813 -0.6544  0.1056
  261SOL     OW 1041   1.130   0.665   2.118  0.4374 -0.0277  0.2470
  261SOL    HW1 1042   1.165   0.631   2.201  1.1051 -0.1354 -0.2265
  261SOL    HW2 1043   1.181   0.616   2.059 -0.5963  0.4130 -0.4988
  261SOL     MW 1044   1.141   0.654   2.121  0.3891  0.0163  0.0861
  262SOL     OW 1045   1.132   0.350   0.080  0.2461  0.3003 -0.0535
  262SOL    HW1 1046   1.224   0.354   0.095 -1.6829 -1.0032 -0.5861
  262SOL    HW2 1047   1.111   0.332  -0.012 -1.3772 -0.5905 -1.4278
  262SOL     MW 1048   1.141   0.348   0.070 -0.2226  0.0108 -0.3051
  263SOL     OW 1049   0.486   3.030   2.540 -0.1695  0.0870  0.7928
  263SOL    HW1 1050   0.403   3.076   2.525 -3.4275 -1.4242  0.1274
  263SOL    HW2 1051   0.503   2.998   2.450  0.2446  1.5072 -0.2040
  263SOL     MW 1052   0.478   3.032   2.526 -0.5447  0.0750  0.5735
  264SOL     OW 1053   1.548   1.378   1.943 -0.1975  0.2768 -0.4198
  264SOL    HW1 1054   1.482   1.387   2.011  0.3684 -1.7429  2.5572
  264SOL    HW2 1055   1.635   1.368   1.988  0.2126  1.1447  0.7201
  264SOL     MW 1056   1.551   1.378   1.958 -0.0687  0.1248  0.1234
  265SOL     OW 1057   0.688   2.735   2.243  0.3609 -0.4375 -0.3671
  265SOL    HW1 1058   0.704   2.652   2.211  1.5229  1.9106  1.9219
  265SOL    HW2 1059   0.705   2.731   2.339 -1.4132  1.4417 -1.5726
  265SOL     MW 1060   0.693   2.724   2.251  0.2801  0.1203 -0.2242
  266SOL     OW 1061   0.900   0.799   2.245  0.0985  0.6854 -0.9083
  266SOL    HW1 1062   0.940   0.726   2.190 -0.5204  0.1245  0.1607
  266SOL    HW2 1063   0.879   0.763   2.337 -1.0396 -0.3975  1.1556
  266SOL     MW 1064   0.902   0.785   2.250 -0.1333  0.4685 -0.4950
  267SOL     OW 1065   1.389   1.793   2.698  0.2178  0.0134  0.5309
  267SOL    HW1 1066   1.450   1.738   2.652 -1.3419 -1.1853 -1.7876
  267SOL    HW2 1067   1.304   1.784   2.662 -1.3882 -0.3620  1.9987
  267SOL     MW 1068   1.386   1.785   2.687 -0.1999 -0.1943  0.4187
  268SOL     OW 1069   0.194   0.755   1.709  0.1167 -0.6104 -0.0214
  268SOL    HW1 1070   0.132   0.810   1.660 -0.0878  3.1248  3.0912
  268SOL    HW2 1071   0.202   0.677   1.662  0.9963  2.8797  2.4279
  268SOL     MW 1072   0.187   0.752   1.696  0.2058  0.3429  0.7125
  269SOL     OW 1073   1.437   1.965   2.446 -0.2335  0.4483  0.4888
  269SOL    HW1 1074   1.501   1.945   2.505 -1.6183  0.9317 -3.1920
  269SOL    HW2 1075   1.374   2.013   2.496  0.3455 -4.5188 -1.9981
  269SOL     MW 1076   1.437   1.968   2.460 -0.3398 -0.1433 -0.3250
  270SOL     OW 1077   1.167   0.447   1.608 -0.5073 -0.3460 -0.3744
  270SOL    HW1 1078   1.153   0.353   1.644  1.3373 -2.3767  1.9239
  270SOL    HW2 1079   1.260   0.448   1.586 -2.7285 -0.7774 -0.0404
  270SOL     MW 1080   1.177   0.434   1.610 -0.5570 -0.6708 -0.0271
  271SOL     OW 1081   0.854   3.079   2.389 -0.9460 -0.1675  0.0463
  271SOL    HW1 1082   0.885   3.025   2.467  0.9448 -1.4909 -1.8294
  271SOL    HW2 1083   0.910   3.155   2.368  0.7908 -0.4302 -1.7228
  271SOL     MW 1084   0.866   3.082   2.396 -0.4674 -0.3768 -0.4346
  272SOL     OW 1085   1.384   2.972   2.833  0.0914 -1.0814  0.5483
  272SOL    HW1 1086   1.335   2.990   2.754  0.7564  0.1707 -0.6244
  272SOL    HW2 1087   1.368   3.046   2.894  0.3921 -2.7923  0.8078
  272SOL     MW 1088   1.375   2.984   2.830  0.2189 -1.1419  0.4278
  273SOL     OW 1089   1.434   0.938   2.885  0.0008  0.3473 -0.0819
  273SOL    HW1 1090   1.528   0.937   2.872 -2.0618 -0.7714  0.5835
  273SOL    HW2 1091   1.418   1.029   2.909 -1.2985  0.2411  0.8144
  273SOL     MW 1092   1.444   0.950   2.887 -0.4428  0.1856  0.1242
  274SOL     OW 1093   1.334   0.744   0.148 -0.1850  0.4574  0.6333
  274SOL    HW1 1094   1.379   0.665   0.171  0.9167  1.1552  2.3710
  274SOL    HW2 1095   1.243   0.739   0.194 -2.0563 -0.9063  1.7453
  274SOL     MW 1096   1.328   0.733   0.157 -0.2865  0.3695  1.0093
  275SOL     OW 1097   1.700   0.712   1.819 -0.3691  0.2810 -0.3211
  275SOL    HW1 1098   1.774   0.740   1.879  0.3098 -1.2943 -0.4638
  275SOL    HW2 1099   1.690   0.616   1.833 -1.7764  0.5353  2.5445
  275SOL     MW 1100   1.708   0.703   1.829 -0.4652  0.1067  0.0382
  276SOL     OW 1101   0.240   1.177   1.814 -0.5552  0.1946 -0.0524
  276SOL    HW1 1102   0.266   1.093   1.846  1.8898  2.8426 -0.3749
  276SOL    HW2 1103   0.191   1.222   1.882 -2.3435  2.1818 -0.7662
  276SOL     MW 1104   0.237   1.172   1.827 -0.4685  0.8062 -0.1891
  277SOL     OW 1105   1.943   1.370   2.643 -0.0487 -0.0742 -0.3388
  277SOL    HW1 1106   2.005   1.444   2.665 -1.3350  0.6913 -2.1462
  277SOL    HW2 1107   1.987   1.283   2.635 -1.4960 -1.8312  0.3270
  277SOL     MW 1108   1.957   1.369   2.645 -0.4094 -0.2050 -0.4894
  278SOL     OW 1109   1.440   0.665   1.730  0.6134  0.5755 -0.3110
  278SOL    HW1 1110   1.395   0.620   1.806  1.5076  0.2848  0.4695
  278SOL    HW2 1111   1.524   0.708   1.763 -0.1900  0.1654  0.2824
  278SOL     MW 1112   1.445   0.665   1.744  0.6254  0.4830 -0.1298
  279SOL     OW 1113   0.571   3.053   2.257 -0.0644 -0.1885 -0.6228
  279SOL    HW1 1114   0.660   3.050   2.219 -2.4636  1.7046 -1.2291
  279SOL    HW2 1115   0.577   3.136   2.305  2.2448  1.9351 -2.2473
  279SOL     MW 1116   0.583   3.063   2.258 -0.0763  0.3415 -0.9171
  280SOL     OW 1117   1.503   1.143   2.220  0.1184  0.0647 -0.5182
  280SOL    HW1 1118   1.502   1.061   2.167  0.3085 -0.5319  1.6181
  280SOL    HW2 1119   1.516   1.127   2.310  2.4194 -0.4544 -1.5076
  280SOL     MW 1120   1.504   1.130   2.225  0.4471 -0.0825 -0.3669
  281SOL     OW 1121   1.263   1.403   2.857  0.2612 -0.6998 -0.0853
  281SOL    HW1 1122   1.358   1.416   2.838 -0.6860 -0.3788 -0.2107
  281SOL    HW2 1123   1.266   1.310   2.883  3.5514 -2.1529  0.2464
  281SOL     MW 1124   1.276   1.393   2.858  0.5703 -0.8492 -0.0581
  282SOL     OW 1125   1.132   1.302   1.693  0.4995  0.1763  0.0684
  282SOL    HW1 1126   1.130   1.367   1.620 -0.6410  1.3566 -0.4540
  282SOL    HW2 1127   1.042   1.310   1.725 -0.3129  1.0486 -0.1636
  282SOL     MW 1128   1.120   1.311   1.688  0.2418  0.4471 -0.0312
  283SOL     OW 1129   0.714   1.245   3.081  0.3092  0.9575 -0.1979
  283SOL    HW1 1130   0.808   1.237   3.091 -0.4109 -2.1937 -0.2548
  283SOL    HW2 1131   0.703   1.335   3.102 -0.3854 -1.1921 -0.3846
  283SOL     MW 1132   0.725   1.256   3.085  0.1226  0.2581 -0.2300
  284SOL     OW 1133   0.468   0.636   2.333 -0.3836 -0.1801  0.3717
  284SOL    HW1 1134   0.513   0.716   2.288 -1.3398 -0.0480 -3.5371
  284SOL    HW2 1135   0.467   0.549   2.287  0.5502 -0.0293 -0.2320
  284SOL     MW 1136   0.474   0.635   2.321 -0.3866 -0.1428 -0.2237
  285SOL     OW 1137   0.871   0.948   2.850 -0.4269  1.2289  0.5536
  285SOL    HW1 1138   0.913   0.971   2.773 -1.8808  0.4439 -2.2372
  285SOL    HW2 1139   0.822   0.866   2.846 -2.7661 -0.9379  1.6344
  285SOL     MW 1140   0.870   0.940   2.839 -0.9274  0.8394  0.3280
  286SOL     OW 1141   1.176   1.453   2.590 -0.0058 -0.3634 -0.1532
  286SOL    HW1 1142   1.196   1.454   2.685 -1.0464  0.8497 -1.6365
  286SOL    HW2 1143   1.188   1.546   2.570 -0.0910 -0.3171 -2.7190
  286SOL     MW 1144   1.180   1.465   2.600 -0.1543 -0.1972 -0.6874
  287SOL     OW 1145   1.042   0.955   0.394  0.1291 -0.4067 -1.1235
  287SOL    HW1 1146   1.130   0.983   0.423 -1.0154 -0.2464 -0.7639
  287SOL    HW2 1147   1.012   1.035   0.349  1.1606 -1.9660  0.1804
  287SOL     MW 1148   1.049   0.969   0.392  0.1142 -0.5913 -0.9040
  288SOL     OW 1149   1.498   0.636   2.133 -0.0157  0.0517 -0.2210
  288SOL    HW1 1150   1.483   0.638   2.228  0.8217 -1.1405 -3.7841
  288SOL    HW2 1151   1.480   0.724   2.102 -1.1415 -0.7984  1.0430
  288SOL     MW 1152   1.494   0.648   2.141 -0.0538 -0.2177 -0.5244
  289SOL     OW 1153   0.912   1.090   2.598  0.6741  0.0078  0.7209
  289SOL    HW1 1154   0.957   1.020   2.546  0.6225 -0.2998  1.4231
  289SOL    HW2 1155   0.819   1.063   2.587 -2.6288  1.1791  0.5092
  289SOL     MW 1156   0.905   1.077   2.590  0.2315  0.1217  0.7856
  290SOL     OW 1157   0.852   0.598   1.531 -0.3224 -0.9921 -0.2726
  290SOL    HW1 1158   0.908   0.558   1.469 -0.0488 -1.4444  1.4312
  290SOL    HW2 1159   0.910   0.605   1.609  1.3999 -0.1949 -0.2508
  290SOL     MW 1160   0.867   0.594   1.533 -0.0590 -0.9466 -0.0449
  291SOL     OW 1161   0.179   0.346   0.223 -0.6619 -0.0965  0.1769
  291SOL    HW1 1162   0.263   0.326   0.260 -0.0271  3.0822  0.3088
  291SOL    HW2 1163   0.140   0.278   0.172  0.7171  0.9855  0.0521
  291SOL     MW 1164   0.185   0.335   0.221 -0.3962  0.4656  0.1778
  292SOL     OW 1165   0.956   0.563   0.094  0.5059 -0.2371  0.2744
  292SOL    HW1 1166   0.989   0.621   0.162  1.0952 -2.1728 -0.3180
  292SOL    HW2 1167   1.015   0.488   0.094 -2.6254 -0.4054 -0.4888
  292SOL     MW 1168   0.968   0.561   0.103  0.1705 -0.5147  0.0955
  293SOL     OW 1169   0.235   0.059   2.496  0.0521  0.0077 -0.1012
  293SOL    HW1 1170   0.151   0.034   2.455  0.1064 -2.4842  0.0732
  293SOL    HW2 1171   0.205   0.116   2.564  1.5923 -1.2657 -0.1685
  293SOL     MW 1172   0.220   0.063   2.500  0.2625 -0.4891 -0.0870
  294SOL     OW 1173   1.457   0.629   2.404 -0.7088 -0.1740 -0.8544
  294SOL    HW1 1174   1.479   0.680   2.483  1.5230  0.6678  1.4427
  294SOL    HW2 1175   1.468   0.537   2.430 -0.6324  1.5135 -2.7543
  294SOL     MW 1176   1.461   0.623   2.418 -0.4043  0.1597 -0.8020
  295SOL     OW 1177   0.864   0.670   2.496  0.7073  0.2249 -0.0137
  295SOL    HW1 1178   0.815   0.591   2.459  0.6785 -0.8610  0.2607
  295SOL    HW2 1179   0.811   0.701   2.575  0.0791 -0.7587  1.4335
  295SOL     MW 1180   0.850   0.663   2.502  0.6206 -0.0481  0.2134
  296SOL     OW 1181   1.312   0.319   2.080  0.2536  0.0048  0.1366
  296SOL    HW1 1182   1.390   0.269   2.065  3.5396 -1.1038 -2.9260
  296SOL    HW2 1183   1.291   0.295   2.169  1.7748  2.5108  2.9250
  296SOL     MW 1184   1.319   0.309   2.090  0.8879  0.1892  0.1005
  297SOL     OW 1185   1.431   0.419   1.518  0.5996  0.0044 -0.0481
  297SOL    HW1 1186   1.477   0.503   1.498  0.0938 -1.4615  2.4066
  297SOL    HW2 1187   1.491   0.366   1.571  1.6553  1.5356  0.8788
  297SOL     MW 1188   1.445   0.423   1.522  0.6722  0.0130  0.3981
  298SOL     OW 1189   1.520   0.924   2.072  0.1702 -0.0061 -0.1555
  298SOL    HW1 1190   1.534   0.984   1.996  1.3754  0.2277  1.0043
  298SOL    HW2 1191   1.604   0.905   2.118 -2.1844 -2.7554 -0.5568
  298SOL     MW 1192   1.533   0.929   2.068  0.0185 -0.3380 -0.0554
  299SOL     OW 1193   0.526   1.033   3.102 -0.3556  0.3371  0.1197
  299SOL    HW1 1194   0.601   1.089   3.077  2.4441  2.3731  0.3832
  299SOL    HW2 1195   0.462   1.041   3.025 -1.5660 -0.9311  2.0076
  299SOL     MW 1196   0.527   1.041   3.089 -0.1459  0.4384  0.4035
  300SOL     OW 1197   1.234   1.136   2.511  0.3760  0.3964  0.2284
  300SOL    HW1 1198   1.161   1.096   2.455 -2.5005 -0.9993 -0.1638
  300SOL    HW2 1199   1.185   1.210   2.546  1.7746 -0.8004  0.7808
  300SOL     MW 1200   1.218   1.140   2.508  0.1810  0.0543  0.2496
  301SOL     OW 1201   1.364   0.716   0.573 -0.2266  0.1202  0.2154
  301SOL    HW1 1202   1.367   0.714   0.671 -0.8832  0.9593  0.7186
  301SOL    HW2 1203   1.280   0.681   0.543 -3.2705  2.7410 -1.5055
  301SOL     MW 1204   1.353   0.711   0.582 -0.7148  0.5767  0.0548
  302SOL     OW 1205   0.126   1.459   1.959 -0.1980  0.2033  0.9234
  302SOL    HW1 1206   0.143   1.404   2.035 -1.0678  1.7544  0.8322
  302SOL    HW2 1207   0.066   1.523   1.997  1.7885  0.7579 -1.9773
  302SOL     MW 1208   0.120   1.460   1.974 -0.0506  0.4811  0.5286
  303SOL     OW 1209   0.399   1.754   2.571  0.0709 -0.4644 -0.2331
  303SOL    HW1 1210   0.406   1.784   2.480  0.4382  2.3478  0.4154
  303SOL    HW2 1211   0.321   1.794   2.608  1.2424 -2.5706 -2.3285
  303SOL     MW 1212   0.389   1.763   2.564  0.2739 -0.3713 -0.4240
  304SOL     OW 1213   0.538   2.081   2.420  1.3780  0.4388 -0.2768
  304SOL    HW1 1214   0.542   2.172   2.391  0.7502 -0.2117  0.1090
  304SOL    HW2 1215   0.625   2.040   2.410 -2.4034 -1.8280  3.1488
  304SOL     MW 1216   0.550   2.088   2.415  0.7962  0.0539  0.2261
  305SOL     OW 1217   1.148   0.549   0.515 -0.5827  0.1820  0.2521
  305SOL    HW1 1218   1.056   0.509   0.539 -1.1410 -1.8702 -1.4624
  305SOL    HW2 1219   1.193   0.468   0.538  0.4770 -0.4741 -1.2983
  305SOL     MW 1220   1.142   0.533   0.521 -0.5166 -0.1753 -0.1787
  306SOL     OW 1221   1.217   1.438   0.306 -0.1200  0.1294  0.0699
  306SOL    HW1 1222   1.261   1.363   0.339 -1.6298  0.9395  0.3647
  306SOL    HW2 1223   1.248   1.459   0.210  1.4444 -1.0308 -1.0453
  306SOL     MW 1224   1.227   1.431   0.297 -0.1128  0.0832 -0.0384
  307SOL     OW 1225   1.324   0.569   1.953 -0.2192 -0.1042  0.0677
  307SOL    HW1 1226   1.292   0.478   1.971  2.4532  0.3385 -0.0238
  307SOL    HW2 1227   1.390   0.573   2.022 -2.2889 -1.1050  1.6302
  307SOL     MW 1228   1.328   0.558   1.964 -0.1397 -0.1778  0.2618
  308SOL     OW 1229   2.114   0.619   2.687  0.3394  0.2906 -0.2898
  308SOL    HW1 1230   2.091   0.530   2.713  3.2968 -0.5620  1.7574
  308SOL    HW2 1231   2.189   0.654   2.725 -0.8765  0.4770 -2.9445
  308SOL     MW 1232   2.121   0.612   2.696  0.5691  0.2027 -0.3700
  309SOL     OW 1233   0.564   0.503   0.425  0.1449  0.4678  0.3424
  309SOL    HW1 1234   0.593   0.415   0.454  0.9910  0.4417  1.2824
  309SOL    HW2 1235   0.577   0.504   0.329  3.1537 -0.0737  0.7935
  309SOL     MW 1236   0.569   0.492   0.416  0.6535  0.3929  0.5259
  310SOL     OW 1237   0.438   0.521   1.918  0.5291 -0.4950 -0.0336
  310SOL    HW1 1238   0.472   0.453   1.857  1.5043 -0.2679  0.6884
  310SOL    HW2 1239   0.501   0.594   1.915 -0.2045 -1.3525  0.0574
  310SOL     MW 1240   0.451   0.522   1.910  0.5610 -0.5782  0.0737
  311SOL     OW 1241   1.912   0.753   1.989  0.4653  0.2290  0.2618
  311SOL    HW1 1242   1.865   0.775   2.074 -2.4399 -1.5093  1.1998
  311SOL    HW2 1243   1.969   0.681   2.009  0.4232  3.5074 -1.3857
  311SOL     MW 1244   1.913   0.747   2.003  0.0764  0.4322  0.1682
  312SOL     OW 1245   1.749   2.533   0.004 -0.0708 -0.2704 -0.0291
  312SOL    HW1 1246   1.768   2.533   0.094 -0.3739 -3.3283 -0.8286
  312SOL    HW2 1247   1.652   2.548  -0.017 -1.6825  0.6527  2.0521
  312SOL     MW 1248   1.738   2.535   0.013 -0.3234 -0.5520  0.1400
  313SOL     OW 1249   0.092   1.237   2.961  0.0971  0.0783 -0.1835
  313SOL    HW1 1250   0.143   1.179   3.022 -0.5375 -2.8028 -2.8073
  313SOL    HW2 1251   0.140   1.250   2.881  1.1920  0.2342  1.8006
  313SOL     MW 1252   0.105   1.231   2.959  0.1578 -0.2812 -0.2679
  314SOL     OW 1253   2.150   3.042   2.960 -0.4832  0.2231 -0.0802
  314SOL    HW1 1254   2.088   3.109   2.917  0.4053 -1.8565 -0.4063
  314SOL    HW2 1255   2.197   3.096   3.020  0.8249 -1.1366  1.2909
  314SOL     MW 1256   2.148   3.058   2.962 -0.1934 -0.2307  0.0577
  315SOL     OW 1257   1.559   1.969   3.023 -0.1420 -0.2279  0.2922
  315SOL    HW1 1258   1.490   2.020   3.060  0.9818 -0.1452 -3.2282
  315SOL    HW2 1259   1.600   2.019   2.948  1.4712  0.2105 -1.3432
  315SOL     MW 1260   1.555   1.982   3.018  0.2191 -0.1591 -0.3881
  316SOL     OW 1261   1.229   0.669   2.679  0.3069 -0.2950  0.5462
  316SOL    HW1 1262   1.313   0.629   2.679 -0.3247  0.1377  3.0546
  316SOL    HW2 1263   1.205   0.664   2.766 -1.8970  2.1696  0.8040
  316SOL     MW 1264   1.237   0.663   2.691 -0.0673  0.0873  0.9112
  317SOL     OW 1265   0.639   1.414   2.583  0.6318  0.5855  0.3117
  317SOL    HW1 1266   0.683   1.343   2.618 -2.1802 -0.6571 -2.2257
  317SOL    HW2 1267   0.699   1.448   2.523 -0.6908 -1.5709  3.6351
  317SOL     MW 1268   0.653   1.409   2.579  0.0863  0.1370  0.4154
  318SOL     OW 1269   1.298   0.336   2.906  0.6656  0.0963  0.1173
  318SOL    HW1 1270   1.211   0.386   2.879 -1.5162 -1.6053 -0.2069
  318SOL    HW2 1271   1.365   0.402   2.891  0.8669  0.7859  4.0598
  318SOL     MW 1272   1.295   0.351   2.900  0.4043 -0.0373  0.5947
  319SOL     OW 1273   0.825   0.409   2.766  0.2649  0.4037  0.1770
  319SOL    HW1 1274   0.817   0.365   2.686 -0.6264  0.0275  1.3927
  319SOL    HW2 1275   0.752   0.378   2.820  0.4744 -1.8963  0.3602
  319SOL     MW 1276   0.815   0.399   2.763  0.1749  0.0506  0.3616
  320SOL     OW 1277   0.999   1.329   2.022 -0.0047  0.1178 -0.2981
  320SOL    HW1 1278   1.067   1.274   2.070  1.4361 -0.4261  2.6601
  320SOL    HW2 1279   1.049   1.392   1.966 -0.2541  0.4858  0.6434
  320SOL     MW 1280   1.015   1.330   2.021  0.1525  0.0946  0.2164
  321SOL     OW 1281   1.099   0.955   3.017  0.2425  0.1048  0.5190
  321SOL    HW1 1282   1.033   0.949   2.943  0.1666 -1.3716 -1.2474
  321SOL    HW2 1283   1.158   0.877   3.005 -0.5782  0.4982 -0.5963
  321SOL     MW 1284   1.098   0.944   3.005  0.1242 -0.0381  0.1388
  322SOL     OW 1285   1.183   0.816   1.722 -0.2186 -0.1055  0.4073
  322SOL    HW1 1286   1.267   0.780   1.746 -0.4510  1.8588  2.9518
  322SOL    HW2 1287   1.169   0.875   1.799 -0.6646 -0.2537  1.3593
  322SOL     MW 1288   1.193   0.819   1.735 -0.3081  0.1341  0.8686
  323SOL     OW 1289   1.184   1.492   1.884  0.0933 -0.2523  0.3137
  323SOL    HW1 1290   1.190   1.430   1.813  0.6165 -0.7745 -4.3374
  323SOL    HW2 1291   1.124   1.562   1.845 -0.5525  1.4101 -0.1157
  323SOL     MW 1292   1.177   1.493   1.869  0.0771 -0.1018 -0.3566
  324SOL     OW 1293   1.521   1.096   2.490  0.4357  0.4676  0.5045
  324SOL    HW1 1294   1.432   1.121   2.514  0.8758  0.2218 -0.3114
  324SOL    HW2 1295   1.557   1.146   2.562 -1.2690 -2.5448  0.3984
  324SOL     MW 1296   1.514   1.106   2.503  0.2689  0.0377  0.3829
  325SOL     OW 1297   1.063   0.486   2.895  0.7872  0.0962 -0.5111
  325SOL    HW1 1298   1.038   0.559   2.956 -2.5539  1.3450  0.3204
  325SOL    HW2 1299   0.983   0.440   2.866  0.7971  0.8445 -0.2859
  325SOL     MW 1300   1.049   0.490   2.899  0.3477  0.3597 -0.3717
  326SOL     OW 1301   0.404   1.355   2.203  0.8853 -0.9692  0.3721
  326SOL    HW1 1302   0.453   1.335   2.122 -0.3273  0.7588 -2.1128
  326SOL    HW2 1303   0.409   1.448   2.230 -0.7421 -0.9617  1.4291
  326SOL     MW 1304   0.411   1.364   2.196  0.5106 -0.7402  0.1837
  327SOL     OW 1305   1.891   0.845   2.404 -0.4055  0.4898  0.6894
  327SOL    HW1 1306   1.879   0.797   2.490 -0.0389 -0.4695  1.9353
  327SOL    HW2 1307   1.986   0.865   2.399  0.9321 -1.4464 -0.1962
  327SOL     MW 1308   1.902   0.841   2.415 -0.1806  0.1077  0.7369
  328SOL     OW 1309   0.131   1.330   2.200  0.0956 -0.4377  0.0777
  328SOL    HW1 1310   0.143   1.235   2.192  0.3540 -0.4198  3.8330
  328SOL    HW2 1311   0.220   1.361   2.206 -1.8512 -1.3306 -0.3048
  328SOL     MW 1312   0.144   1.322   2.199 -0.1271 -0.5531  0.5227
  329SOL     OW 1313   0.118   0.172   1.376  0.3298  0.4088 -0.1491
  329SOL    HW1 1314   0.069   0.226   1.432  2.0954 -2.5218 -3.5185
  329SOL    HW2 1315   0.209   0.202   1.380 -1.7879  0.7477 -1.5876
  329SOL     MW 1316   0.124   0.183   1.384  0.2834  0.0668 -0.7835
  330SOL     OW 1317   0.399   2.982   2.061  0.0888  0.1551  0.0274
  330SOL    HW1 1318   0.470   3.006   2.120 -1.3708  1.5644 -2.4789
  330SOL    HW2 1319   0.328   2.962   2.129  0.8999 -2.1545 -0.2788
  330SOL     MW 1320   0.399   2.983   2.077  0.0033  0.0363 -0.3437
  331SOL     OW 1321   0.827   1.201   2.263  0.1153 -0.1230  0.0276
  331SOL    HW1 1322   0.769   1.235   2.190 -0.2983  0.8221  2.8381
  331SOL    HW2 1323   0.848   1.288   2.303  1.1917  0.3617  1.8470
  331SOL     MW 1324   0.822   1.217   2.259  0.2027  0.0656  0.6385
  332SOL     OW 1325   1.383   1.766   2.961 -0.9861  0.3986 -0.0722
  332SOL    HW1 1326   1.382   1.772   2.863  2.0965 -1.7725  0.3030
  332SOL    HW2 1327   1.431   1.842   2.991 -0.4194  0.4138 -2.2504
  332SOL     MW 1328   1.389   1.777   2.952 -0.5046  0.1141 -0.3101
  333SOL     OW 1329   1.711   1.510   3.007 -0.2959 -0.0012 -0.2326
  333SOL    HW1 1330   1.795   1.542   3.036  0.4473 -2.5132  1.4201
  333SOL    HW2 1331   1.687   1.441   3.071 -0.3403  0.0674 -1.1853
  333SOL     MW 1332   1.719   1.505   3.019 -0.2037 -0.3236 -0.1403
  334SOL     OW 1333   1.229   3.094   2.644 -0.1657 -0.1865 -0.0590
  334SOL    HW1 1334   1.154   3.096   2.700  3.5286  1.5650 -2.5889
  334SOL    HW2 1335   1.273   3.182   2.651  0.5561 -0.4171  1.9830
  334SOL     MW 1336   1.225   3.106   2.653  0.4170  0.0142 -0.1234
  335SOL     OW 1337   1.264   0.739   2.990 -0.2241 -0.3202 -0.2881
  335SOL    HW1 1338   1.291   0.715   3.081  2.4253  1.1467  2.5235
  335SOL    HW2 1339   1.329   0.802   2.958 -3.3331  1.1969  0.4188
  335SOL     MW 1340   1.276   0.744   2.997 -0.2848  0.0735  0.1762
  336SOL     OW 1341   0.898   1.135   1.867 -0.0180  0.6413  0.1979
  336SOL    HW1 1342   0.907   1.193   1.939  0.2420  1.0342  0.6568
  336SOL    HW2 1343   0.957   1.070   1.901  0.8892  0.6915  2.6021
  336SOL     MW 1344   0.907   1.134   1.881  0.1360  0.6998  0.5757
  337SOL     OW 1345   0.530   1.775   2.840 -0.1860  0.4115 -0.0886
  337SOL    HW1 1346   0.459   1.784   2.773 -0.7737 -2.7187  0.8112
  337SOL    HW2 1347   0.604   1.731   2.792 -1.1718 -0.5141 -0.4279
  337SOL     MW 1348   0.531   1.771   2.825 -0.3936 -0.1236 -0.0147
  338SOL     OW 1349   1.077   0.818   2.535  0.3959 -0.4879  0.3077
  338SOL    HW1 1350   1.005   0.753   2.546  0.8244 -0.2195 -2.0064
  338SOL    HW2 1351   1.154   0.786   2.584  3.8320  1.7604  2.6765
  338SOL     MW 1352   1.078   0.805   2.543  0.9058 -0.1559  0.3149
  339SOL     OW 1353   1.537   1.099   1.832  0.7419 -0.4918  0.3008
  339SOL    HW1 1354   1.468   1.101   1.762  1.4398 -3.2875 -0.1404
  339SOL    HW2 1355   1.531   1.186   1.867 -0.8726 -1.8073 -3.0495
  339SOL     MW 1356   1.527   1.111   1.827  0.6210 -1.0342 -0.1994
  340SOL     OW 1357   1.335   1.606   0.089  0.1266  0.0768  0.3607
  340SOL    HW1 1358   1.370   1.648   0.015  0.1037 -0.0025  0.8771
  340SOL    HW2 1359   1.400   1.621   0.158 -2.4061 -2.1918  0.8621
  340SOL     MW 1360   1.348   1.614   0.089 -0.2106 -0.2330  0.4950
  341SOL     OW 1361   0.175   1.332   2.673 -0.3482 -0.5182  0.2819
  341SOL    HW1 1362   0.247   1.379   2.635  0.3112 -2.1767 -0.6013
  341SOL    HW2 1363   0.114   1.328   2.594 -3.5697 -3.3302 -1.0966
  341SOL     MW 1364   0.176   1.337   2.658 -0.6862 -1.1081 -0.0165
  342SOL     OW 1365   1.408   0.297   0.061  0.1323  0.6618 -0.2529
  342SOL    HW1 1366   1.447   0.380   0.099  0.5295  0.8881 -0.3893
  342SOL    HW2 1367   1.371   0.328  -0.025 -0.3811  2.8146 -1.4664
  342SOL     MW 1368   1.408   0.312   0.055  0.1169  0.9757 -0.4310
  343SOL     OW 1369   0.201   0.292   2.310  0.0859 -0.3084  0.0723
  343SOL    HW1 1370   0.247   0.226   2.366  1.7757 -0.6641 -0.2266
  343SOL    HW2 1371   0.158   0.244   2.233 -2.1950  1.0967 -0.3246
  343SOL     MW 1372   0.201   0.277   2.308  0.0079 -0.1700 -0.0195
  344SOL     OW 1373   1.709   2.128   0.177  0.0023 -0.9502  0.3918
  344SOL    HW1 1374   1.738   2.190   0.109 -1.4635  0.2364  1.8678
  344SOL    HW2 1375   1.704   2.049   0.132  0.1458  1.6769  1.5163
  344SOL     MW 1376   1.712   2.126   0.162 -0.1722 -0.4470  0.7349
  345SOL     OW 1377   0.675   1.615   2.351  0.0133 -0.1327 -0.1655
  345SOL    HW1 1378   0.583   1.628   2.316 -1.0151  1.3183  0.7574
  345SOL    HW2 1379   0.718   1.560   2.283  0.5956  0.6608  0.0681
  345SOL     MW 1380   0.669   1.610   2.337 -0.0456  0.1634 -0.0129
  346SOL     OW 1381   1.686   1.058   0.027 -0.3435  0.3092  0.0182
  346SOL    HW1 1382   1.772   1.036   0.057 -2.3304  2.1110  0.1421
  346SOL    HW2 1383   1.623   0.999   0.065 -1.0197  4.3215  0.2305
  346SOL     MW 1384   1.689   1.047   0.036 -0.6949  1.0763  0.0625
  347SOL     OW 1385   1.186   0.601   2.384  0.6842  0.0928 -0.2706
  347SOL    HW1 1386   1.278   0.619   2.412 -2.2640 -1.9199  0.8972
  347SOL    HW2 1387   1.140   0.674   2.422 -0.0416  1.3199  0.5860
  347SOL     MW 1388   1.192   0.613   2.393  0.1994 -0.0109 -0.0035
  348SOL     OW 1389   1.360   2.635   1.891 -0.1795  0.0381  0.2814
  348SOL    HW1 1390   1.390   2.553   1.930 -0.9570 -2.8478  0.4990
  348SOL    HW2 1391   1.418   2.692   1.934 -1.1087 -0.5435 -0.0182
  348SOL     MW 1392   1.371   2.632   1.902 -0.4047 -0.4194  0.2706
  349SOL     OW 1393   1.382   0.221   2.663  0.1156 -0.0280 -0.3127
  349SOL    HW1 1394   1.346   0.275   2.736 -0.8655  1.0433 -0.8049
  349SOL    HW2 1395   1.455   0.169   2.705  0.4936 -0.7350 -0.8896
  349SOL     MW 1396   1.387   0.222   2.678  0.0360  0.0201 -0.4538
  350SOL     OW 1397   1.848   0.701   2.625 -0.7864  0.4882 -0.6096
  350SOL    HW1 1398   1.798   0.635   2.573 -1.8135 -1.4970  0.4916
  350SOL    HW2 1399   1.936   0.668   2.645  1.3752  3.0107 -0.4475
  350SOL     MW 1400   1.853   0.688   2.621 -0.6367  0.5591 -0.4429
  351SOL     OW 1401   0.004   0.934   1.593  0.3683  0.1191  0.1101
  351SOL    HW1 1402  -0.063   0.955   1.656  1.9206  1.2098  1.5141
  351SOL    HW2 1403   0.054   1.015   1.592  1.4601 -0.0991  0.8758
  351SOL     MW 1404   0.002   0.947   1.601  0.7172  0.2342  0.3963
  352SOL     OW 1405   0.768   1.621   2.760 -0.4768  0.4336  0.1480
  352SOL    HW1 1406   0.820   1.599   2.847  2.6299 -1.1681  2.1911
  352SOL    HW2 1407   0.760   1.542   2.704 -1.7564 -0.5551 -1.6493
  352SOL     MW 1408   0.774   1.608   2.764 -0.2358  0.0919  0.1804
  353SOL     OW 1409   3.015   2.404   2.767 -0.4630  0.4148  0.2617
  353SOL    HW1 1410   3.105   2.382   2.747  0.1266 -0.5512 -0.5578
  353SOL    HW2 1411   2.992   2.479   2.711 -1.4886 -1.3949 -0.9782
  353SOL     MW 1412   3.024   2.411   2.757 -0.5205  0.0486 -0.0100
  354SOL     OW 1413   0.406   2.393   0.871 -0.0613 -0.2232 -0.0215
  354SOL    HW1 1414   0.440   2.371   0.961  2.5432 -0.9877 -3.1396
  354SOL    HW2 1415   0.329   2.337   0.857  0.1430 -0.9750  0.0893
  354SOL     MW 1416   0.401   2.383   0.881  0.3093 -0.4232 -0.4183
  355SOL     OW 1417   0.081   2.237   0.380  0.0443 -0.5260 -0.1426
  355SOL    HW1 1418  -0.006   2.191   0.372 -2.2299 -1.2661  0.2049
  355SOL    HW2 1419   0.073   2.284   0.464 -1.3146 -1.4706 -2.3627
  355SOL     MW 1420   0.069   2.237   0.390 -0.4350 -0.7483 -0.3897
  356SOL     OW 1421   0.800   2.965   1.028  0.0705 -0.7632  0.3067
  356SOL    HW1 1422   0.878   2.938   0.977  2.7745 -0.9686  0.3695
  356SOL    HW2 1423   0.731   2.909   0.993  2.7308 -0.2638 -0.4465
  356SOL     MW 1424   0.802   2.954   1.016  0.7783 -0.7244  0.2156
  357SOL     OW 1425   1.789   2.933   0.366 -0.2704 -0.3204 -0.1303
  357SOL    HW1 1426   1.737   2.885   0.430  0.9063  2.5803  1.6328
  357SOL    HW2 1427   1.855   2.871   0.349 -2.6367 -0.6210 -2.4235
  357SOL     MW 1428   1.791   2.919   0.372 -0.4274  0.0226 -0.2002
  358SOL     OW 1429   0.402   0.170   1.025 -0.8094 -0.1795 -0.5298
  358SOL    HW1 1430   0.485   0.170   0.985  0.2006 -0.3286 -2.2170
  358SOL    HW2 1431   0.342   0.179   0.949  0.5138 -3.5154 -1.4185
  358SOL     MW 1432   0.405   0.171   1.010 -0.5015 -0.6393 -0.8697
  359SOL     OW 1433   0.993   2.776   1.835 -0.1612  0.9125 -0.2154
  359SOL    HW1 1434   0.937   2.706   1.873  1.1462 -2.9246 -1.1626
  359SOL    HW2 1435   1.020   2.718   1.762 -1.8090  0.8246 -0.3944
  359SOL     MW 1436   0.989   2.759   1.830 -0.2061  0.3946 -0.3640
  360SOL     OW 1437   0.626   2.788   0.934  0.3331  0.4029  0.5140
  360SOL    HW1 1438   0.631   2.717   0.870  1.7589 -0.2123 -0.9400
  360SOL    HW2 1439   0.611   2.729   1.013  2.6211  1.8200  1.0994
  360SOL     MW 1440   0.625   2.771   0.936  0.8231  0.5087  0.3994
  361SOL     OW 1441   0.156   2.757   1.359  0.2653  0.0879  0.2789
  361SOL    HW1 1442   0.163   2.845   1.389 -2.1185 -3.1058  0.3265
  361SOL    HW2 1443   0.245   2.719   1.356 -1.5916  1.0040 -1.3190
  361SOL     MW 1444   0.169   2.764   1.362 -0.2942 -0.2126  0.0743
  362SOL     OW 1445   1.490   2.413   0.586  0.3966  0.9386  0.1403
  362SOL    HW1 1446   1.507   2.323   0.616 -2.0507  0.3424 -1.0728
  362SOL    HW2 1447   1.485   2.477   0.657  0.7226 -1.5357 -0.4527
  362SOL     MW 1448   1.492   2.410   0.599  0.1167  0.5335 -0.0980
  363SOL     OW 1449   0.217   3.042   0.744  0.4252  0.3665  0.2462
  363SOL    HW1 1450   0.228   2.976   0.810 -0.3929 -1.4968 -0.3569
  363SOL    HW2 1451   0.128   3.038   0.712 -0.4262  1.0850  1.9487
  363SOL     MW 1452   0.207   3.032   0.749  0.2049  0.2155  0.3912
  364SOL     OW 1453   0.730   0.179   0.154 -0.2410 -0.2070 -0.1166
  364SOL    HW1 1454   0.682   0.095   0.173 -1.7540 -3.1816 -0.0820
  364SOL    HW2 1455   0.669   0.241   0.184  0.8872 -0.8355 -1.9123
  364SOL     MW 1456   0.716   0.176   0.160 -0.2918 -0.6824 -0.3490
  365SOL     OW 1457   0.998   1.958   1.136 -0.0827 -0.0289  0.2569
  365SOL    HW1 1458   1.002   2.040   1.093 -1.7982 -1.1866 -1.0436
  365SOL    HW2 1459   0.940   1.908   1.086  0.9639 -1.0101  2.3778
  365SOL     MW 1460   0.991   1.963   1.124 -0.1709 -0.3111  0.3652
  366SOL     OW 1461   2.869   2.679   1.030 -0.1289 -0.1470 -0.5338
  366SOL    HW1 1462   2.951   2.686   1.091 -1.3037 -1.6324  0.4435
  366SOL    HW2 1463   2.906   2.683   0.942  1.7957  0.2489 -2.1837
  366SOL     MW 1464   2.885   2.681   1.026 -0.0300 -0.2908 -0.6225
  367SOL     OW 1465   1.291   2.906   0.884 -0.2040 -0.5977 -0.1882
  367SOL    HW1 1466   1.223   2.941   0.930 -0.5229  0.6735 -2.2874
  367SOL    HW2 1467   1.249   2.862   0.804  1.1028 -1.0024 -0.4437
  367SOL     MW 1468   1.277   2.905   0.880 -0.0736 -0.4833 -0.4989
  368SOL     OW 1469   1.689   0.445   0.646 -0.3672  0.2960 -0.0047
  368SOL    HW1 1470   1.756   0.376   0.655 -3.0952 -1.3704 -0.7448
  368SOL    HW2 1471   1.734   0.525   0.645  2.2370 -0.5162 -1.3601
  368SOL     MW 1472   1.704   0.446   0.647 -0.3835 -0.0310 -0.2812
  369SOL     OW 1473   0.126   2.500   1.749  0.3955  0.5792 -0.1761
  369SOL    HW1 1474   0.210   2.462   1.777 -1.3193 -0.4320  0.1951
  369SOL    HW2 1475   0.123   2.585   1.782 -2.1683 -1.3831 -0.0490
  369SOL     MW 1476   0.137   2.507   1.757 -0.1690  0.1869 -0.1103
  370SOL     OW 1477   0.663   0.105   0.951 -0.1351  0.1104  0.0820
  370SOL    HW1 1478   0.736   0.169   0.951  0.2159  1.1366 -0.4377
  370SOL    HW2 1479   0.707   0.025   0.985  0.8760 -1.4742 -1.7251
  370SOL     MW 1480   0.679   0.103   0.956  0.0446  0.0367 -0.2250
  371SOL     OW 1481   1.332   2.972   1.519 -0.2878  0.0037 -0.4641
  371SOL    HW1 1482   1.243   2.942   1.518  2.2952  2.4970 -0.5625
  371SOL    HW2 1483   1.344   3.019   1.433 -3.4592 -0.5540 -1.9412
  371SOL     MW 1484   1.322   2.974   1.507 -0.3654  0.2591 -0.6720
  372SOL     OW 1485   0.819   2.243   0.523  0.7214  0.0131  0.0932
  372SOL    HW1 1486   0.765   2.156   0.529  2.1122 -1.6307  0.2193
  372SOL    HW2 1487   0.816   2.246   0.425 -2.1366 -1.6834  0.9062
  372SOL     MW 1488   0.811   2.232   0.511  0.5278 -0.4276  0.2171
  373SOL     OW 1489   2.840   3.044   1.397  0.3419  0.3564  0.5411
  373SOL    HW1 1490   2.895   3.010   1.323 -0.2446 -0.7045  0.3520
  373SOL    HW2 1491   2.802   3.130   1.368 -0.4283  0.8896  0.5883
  373SOL     MW 1492   2.842   3.051   1.384  0.1629  0.2868  0.5224
  374SOL     OW 1493   1.496   0.526   0.228 -0.0089 -0.4816  0.2564
  374SOL    HW1 1494   1.580   0.551   0.250 -2.4545 -2.9133  1.0635
  374SOL    HW2 1495   1.476   0.490   0.312  0.7879 -0.3720  0.1829
  374SOL     MW 1496   1.504   0.524   0.242 -0.2264 -0.7880  0.3532
  375SOL     OW 1497   1.156   2.103   2.268  0.2420 -0.1534 -0.3771
  375SOL    HW1 1498   1.171   2.136   2.360  1.2310  1.3363  1.7226
  375SOL    HW2 1499   1.118   2.012   2.282 -1.3028  0.9408  0.1110
  375SOL     MW 1500   1.153   2.095   2.282  0.1687  0.1875 -0.0356
  376SOL     OW 1501   0.662   2.542   0.142 -0.4060  0.0491 -0.0933
  376SOL    HW1 1502   0.695   2.473   0.195 -2.8408  0.5117  0.3125
  376SOL    HW2 1503   0.633   2.502   0.058 -1.6185  0.1388 -0.6376
  376SOL     MW 1504   0.662   2.528   0.138 -0.8872  0.1220 -0.1116
  377SOL     OW 1505   1.213   2.054   0.924 -0.1070 -0.7729 -0.8042
  377SOL    HW1 1506   1.154   2.035   0.847 -2.2444 -1.1964  0.6964
  377SOL    HW2 1507   1.202   1.981   0.983  0.9293 -1.6985  0.0684
  377SOL     MW 1508   1.203   2.042   0.922 -0.2523 -0.9509 -0.4911
  378SOL     OW 1509   0.963   2.805   1.513  0.2312  0.4800  0.3940
  378SOL    HW1 1510   0.893   2.736   1.533  0.1934 -2.5879  1.5447
  378SOL    HW2 1511   0.931   2.866   1.447  1.1032 -0.3886  0.1251
  378SOL     MW 1512   0.950   2.804   1.507  0.3413 -0.0394  0.5104
  379SOL     OW 1513   1.059   1.836   2.297  0.2246  0.3421  0.0425
  379SOL    HW1 1514   0.965   1.849   2.293  0.0564  0.9206 -1.1983
  379SOL    HW2 1515   1.068   1.753   2.250  0.4450 -1.6874 -3.2634
  379SOL     MW 1516   1.048   1.827   2.291  0.2315  0.1507 -0.5574
  380SOL     OW 1517   0.899   0.219   1.551 -0.0094 -0.0907 -0.4931
  380SOL    HW1 1518   0.925   0.156   1.478  1.7679 -1.2532 -1.1109
  380SOL    HW2 1519   0.968   0.204   1.617  0.8956  1.8679  3.0538
  380SOL     MW 1520   0.911   0.209   1.550  0.3445  0.0144 -0.1066
  381SOL     OW 1521   0.816   2.013   0.801  0.3284 -0.0451  0.1695
  381SOL    HW1 1522   0.905   1.985   0.777 -1.7989 -1.1979 -0.9607
  381SOL    HW2 1523   0.826   2.086   0.865  0.3898 -1.3376 -0.1859
  381SOL     MW 1524   0.829   2.019   0.806  0.0558 -0.3678 -0.0265
  382SOL     OW 1525   0.704   0.024   0.691  0.4749 -0.2952  1.0012
  382SOL    HW1 1526   0.681   0.040   0.785 -3.0126 -2.4481  1.6522
  382SOL    HW2 1527   0.653  -0.047   0.659  1.7238  0.5974 -0.2459
  382SOL     MW 1528   0.694   0.017   0.699  0.1796 -0.4615  0.9226
  383SOL     OW 1529   0.486   0.013   0.367 -0.3290  0.1299  0.3855
  383SOL    HW1 1530   0.533  -0.063   0.379  1.0137  0.7569 -1.9834
  383SOL    HW2 1531   0.397  -0.018   0.349  1.6026  2.9431 -0.4192
  383SOL     MW 1532   0.480  -0.001   0.366  0.1030  0.5838 -0.0332
  384SOL     OW 1533   0.594   2.882   0.575 -0.2432 -0.1347 -0.0223
  384SOL    HW1 1534   0.631   2.805   0.615 -1.5326  1.3948 -0.2914
  384SOL    HW2 1535   0.508   2.853   0.558  1.1775  0.9664  0.6017
  384SOL     MW 1536   0.587   2.868   0.578 -0.2259  0.2124  0.0245
  385SOL     OW 1537   1.328   2.072   1.539 -0.4402  0.3972  0.2089
  385SOL    HW1 1538   1.385   2.097   1.615  0.8477  2.5137  1.3892
  385SOL    HW2 1539   1.299   1.975   1.552 -1.9687 -0.7767 -0.7983
  385SOL     MW 1540   1.332   2.062   1.551 -0.4720  0.5216  0.2318
  386SOL     OW 1541   1.379   0.433   0.915  0.2716  0.1785  0.2031
  386SOL    HW1 1542   1.300   0.417   0.860 -1.0371 -1.6012 -0.3906
  386SOL    HW2 1543   1.344   0.430   1.005 -0.8694 -1.9836  0.5602
  386SOL     MW 1544   1.364   0.431   0.919 -0.0516 -0.3416  0.1719
  387SOL     OW 1545   0.865   2.165   1.504 -0.4765  0.6795  0.7421
  387SOL    HW1 1546   0.908   2.231   1.458 -2.1025  0.1867  4.2400
  387SOL    HW2 1547   0.912   2.082   1.475  2.2955 -1.2611 -0.6470
  387SOL     MW 1548   0.877   2.163   1.494 -0.3253  0.3584  1.0203
  388SOL     OW 1549   1.529   2.812   1.187 -0.4285 -0.7577  0.6404
  388SOL    HW1 1550   1.450   2.764   1.159 -1.0039 -0.7201  0.6436
  388SOL    HW2 1551   1.608   2.794   1.134 -0.2941 -1.3080  2.4261
  388SOL     MW 1552   1.529   2.803   1.176 -0.4867 -0.8253  0.8765
  389SOL     OW 1553   0.380   0.191   3.089 -0.1591  0.1971 -0.3886
  389SOL    HW1 1554   0.387   0.103   3.124 -1.8127  0.1751 -0.1274
  389SOL    HW2 1555   0.288   0.210   3.085 -3.2256  1.2771 -0.6972
  389SOL     MW 1556   0.369   0.182   3.093 -0.7819  0.3367 -0.3948
  390SOL     OW 1557   1.356   0.052   0.589 -0.1643  0.0889  0.0526
  390SOL    HW1 1558   1.446   0.067   0.563 -1.9755  1.7463 -0.2825
  390SOL    HW2 1559   1.362   0.044   0.685 -2.0417  0.3449  0.7541
  390SOL     MW 1560   1.369   0.053   0.598 -0.6510  0.3414  0.1009
  391SOL     OW 1561   0.286   2.304   1.441  0.7753 -0.1897  0.0111
  391SOL    HW1 1562   0.242   2.241   1.502  0.4832 -3.1649 -0.0194
  391SOL    HW2 1563   0.213   2.368   1.438  0.3024 -0.1215 -0.9009
  391SOL     MW 1564   0.270   2.304   1.449  0.6743 -0.5733 -0.1133
  392SOL     OW 1565   1.982   2.150   0.319 -0.1146  0.1935  0.0938
  392SOL    HW1 1566   1.909   2.200   0.349  2.9425  0.0227  0.8929
  392SOL    HW2 1567   2.051   2.146   0.391  1.6972  1.6659 -0.6652
  392SOL     MW 1568   1.981   2.156   0.333  0.5278  0.3652  0.0991
  393SOL     OW 1569   0.247   2.998   2.903  0.3132  0.2643 -0.8237
  393SOL    HW1 1570   0.288   3.075   2.872  2.1561 -3.5952 -2.6278
  393SOL    HW2 1571   0.169   2.992   2.850  1.3376 -1.5584 -1.2479
  393SOL     MW 1572   0.242   3.008   2.892  0.6915 -0.4854 -1.1177
  394SOL     OW 1573   0.833   1.627   1.408  0.2124  0.0602 -0.2882
  394SOL    HW1 1574   0.800   1.637   1.504 -2.9067  0.6221  0.0382
  394SOL    HW2 1575   0.866   1.717   1.379  0.3109 -3.2377  0.3808
  394SOL     MW 1576   0.833   1.640   1.417 -0.1862 -0.3008 -0.1569
  395SOL     OW 1577   0.932   2.892   2.575  0.1058 -0.5737  0.0535
  395SOL    HW1 1578   0.940   2.952   2.645 -0.2200 -1.4913  0.2226
  395SOL    HW2 1579   1.023   2.863   2.578 -0.9176 -0.2441  2.0117
  395SOL     MW 1580   0.945   2.896   2.585 -0.0722 -0.6513  0.3341
  396SOL     OW 1581   0.770   1.876   2.384 -0.0348 -0.2868 -0.3426
  396SOL    HW1 1582   0.822   1.867   2.463  0.7125  1.8900 -1.9949
  396SOL    HW2 1583   0.734   1.785   2.379 -2.1208 -1.4558  3.5581
  396SOL     MW 1584   0.772   1.862   2.394 -0.2114 -0.1538 -0.0459
  397SOL     OW 1585   1.020   2.344   1.339 -0.3842 -0.2220 -0.0998
  397SOL    HW1 1586   1.046   2.390   1.262  0.9545  0.1054  2.8276
  397SOL    HW2 1587   1.093   2.340   1.406  1.5350  0.0501  0.7798
  397SOL     MW 1588   1.033   2.350   1.338  0.0457 -0.1429  0.4025
  398SOL     OW 1589   0.645   2.628   0.712  0.4499  1.0232  0.6433
  398SOL    HW1 1590   0.579   2.582   0.670  2.8460  3.4884  0.7486
  398SOL    HW2 1591   0.723   2.595   0.674  0.4367 -3.0964  0.3715
  398SOL     MW 1592   0.646   2.618   0.702  0.7643  0.8049  0.6214
  399SOL     OW 1593   0.284   2.044   0.362 -0.1335 -0.2392 -0.0063
  399SOL    HW1 1594   0.219   2.106   0.390  0.3423 -1.5153  0.6424
  399SOL    HW2 1595   0.343   2.079   0.289 -1.7219 -2.5785  0.3969
  399SOL     MW 1596   0.283   2.057   0.356 -0.2803 -0.7162  0.1325
  400SOL     OW 1597   0.621   1.856   0.170 -0.2406 -0.2894 -0.4191
  400SOL    HW1 1598   0.595   1.949   0.178  0.9697  0.3092 -0.0685
  400SOL    HW2 1599   0.565   1.803   0.229 -0.1878  0.8854  0.8029
  400SOL     MW 1600   0.610   1.861   0.178 -0.0740 -0.0554 -0.2116
  401SOL     OW 1601   1.004   2.066   0.071 -0.3489 -0.6696  1.0845
  401SOL    HW1 1602   1.001   1.965   0.078  0.5196 -0.0288  0.8230
  401SOL    HW2 1603   1.041   2.076   0.157 -0.3129 -0.5726 -1.3162
  401SOL     MW 1604   1.008   2.054   0.083 -0.2296 -0.5722  0.7332
  402SOL     OW 1605   0.720   2.862   1.742  0.3749  0.4591  0.0731
  402SOL    HW1 1606   0.655   2.842   1.806  3.0061 -0.5460 -0.4367
  402SOL    HW2 1607   0.807   2.870   1.782  0.8601  2.0011  1.9576
  402SOL     MW 1608   0.723   2.860   1.756  0.7861  0.5300  0.2545
  403SOL     OW 1609   0.054   0.515   0.401  0.2295 -0.8408  0.6749
  403SOL    HW1 1610   0.130   0.523   0.466  1.7975 -2.4682 -1.1575
  403SOL    HW2 1611   0.084   0.444   0.333 -2.6676 -0.7109  1.2385
  403SOL     MW 1612   0.068   0.506   0.401  0.0542 -1.0384  0.5075
  404SOL     OW 1613   0.977   2.896   0.805  0.2524  0.2657 -0.4313
  404SOL    HW1 1614   1.043   2.847   0.764 -0.9932  1.9598  0.3341
  404SOL    HW2 1615   0.988   2.986   0.770 -1.2533 -1.8413 -1.3567
  404SOL     MW 1616   0.987   2.902   0.795 -0.1106  0.2112 -0.4524
  405SOL     OW 1617   0.475   2.468   1.541 -0.0682 -0.1490  0.0022
  405SOL    HW1 1618   0.497   2.550   1.489 -0.0210  2.9280 -3.2168
  405SOL    HW2 1619   0.415   2.422   1.485  2.5539  2.4017  2.1863
  405SOL     MW 1620   0.470   2.473   1.527  0.2840  0.5935 -0.1343
  406SOL     OW 1621   0.415   2.381   1.148  0.1213 -0.0745  0.0629
  406SOL    HW1 1622   0.319   2.386   1.161 -1.5529  1.4116 -2.6029
  406SOL    HW2 1623   0.450   2.317   1.220  0.1231 -1.2311 -0.2055
  406SOL     MW 1624   0.407   2.373   1.159 -0.0994 -0.0310 -0.3243
  407SOL     OW 1625   0.021   2.683   1.137  0.4502  0.4999 -0.5086
  407SOL    HW1 1626   0.066   2.714   1.222 -3.5385 -3.5915  0.0695
  407SOL    HW2 1627   0.091   2.648   1.077  0.7564 -0.8895 -3.6458
  407SOL     MW 1628   0.036   2.682   1.140 -0.0357 -0.2232 -0.8462
  408SOL     OW 1629   2.122   2.137   0.567  0.3109 -0.3195  0.3641
  408SOL    HW1 1630   2.098   2.226   0.579 -0.3593  1.8690  0.2739
  408SOL    HW2 1631   2.046   2.082   0.613 -1.8591 -0.8161  3.2518
  408SOL     MW 1632   2.109   2.141   0.575 -0.0638 -0.0963  0.7332
  409SOL     OW 1633   1.343   0.119   0.884 -0.8189 -0.5040 -0.1803
  409SOL    HW1 1634   1.400   0.185   0.921 -0.6782  0.8499  2.4087
  409SOL    HW2 1635   1.376   0.034   0.908 -0.7118 -0.0287 -0.3438
  409SOL     MW 1636   1.355   0.117   0.892 -0.7862 -0.2626  0.1397
  410SOL     OW 1637   1.098   2.490   1.064  0.2400  0.0414 -0.1502
  410SOL    HW1 1638   1.023   2.487   1.003 -1.0788 -1.5332 -0.9426
  410SOL    HW2 1639   1.159   2.421   1.025 -0.2290  0.7414 -0.9778
  410SOL     MW 1640   1.096   2.481   1.051  0.0041 -0.0740 -0.3640
  411SOL     OW 1641   1.979   0.125   2.853 -0.1291 -0.7103  0.2976
  411SOL    HW1 1642   1.941   0.083   2.772  0.7932 -0.4651 -1.2681
  411SOL    HW2 1643   1.908   0.135   2.925 -1.1286 -2.1136  2.6740
  411SOL     MW 1644   1.964   0.121   2.852 -0.1393 -0.8631  0.4045
  412SOL     OW 1645   1.080   2.207   0.564 -0.3700 -0.0547 -0.1915
  412SOL    HW1 1646   1.130   2.285   0.594  1.9877 -0.8274  2.8700
  412SOL    HW2 1647   0.989   2.241   0.560 -1.6236  0.8794  0.5618
  412SOL     MW 1648   1.075   2.222   0.567 -0.2243 -0.0334  0.3118
  413SOL     OW 1649   0.544   2.791   0.161  0.1637  0.3435 -0.0393
  413SOL    HW1 1650   0.606   2.711   0.174  0.9433 -1.3288 -1.5216
  413SOL    HW2 1651   0.557   2.817   0.066  2.0868 -0.6859 -1.8613
  413SOL     MW 1652   0.554   2.784   0.150  0.5203 -0.0129 -0.4753
  414SOL     OW 1653   1.993   3.051   1.078 -0.3197  0.7479  0.2653
  414SOL    HW1 1654   1.930   3.009   1.014  2.2638 -0.9551 -0.2520
  414SOL    HW2 1655   2.056   2.978   1.098  0.1827 -1.0384  0.0176
  414SOL     MW 1656   1.993   3.036   1.072  0.0875  0.2875  0.1644
  415SOL     OW 1657   1.724   2.681   1.058 -0.3890 -0.2903  0.2841
  415SOL    HW1 1658   1.651   2.630   1.103 -1.8645  0.2644 -0.6713
  415SOL    HW2 1659   1.788   2.694   1.128 -0.2164 -2.2960 -2.9035
  415SOL     MW 1660   1.723   2.676   1.073 -0.5609 -0.4817 -0.2625
  416SOL     OW 1661   0.612   1.935   1.385  0.2758 -0.0414  0.1761
  416SOL    HW1 1662   0.554   2.008   1.355 -0.3523 -0.3024  1.3512
  416SOL    HW2 1663   0.614   1.875   1.307  1.0418 -1.1985 -0.3166
  416SOL     MW 1664   0.604   1.937   1.370  0.2940 -0.2285  0.2661
  417SOL     OW 1665   1.022   3.012   1.980 -0.1455  0.0504 -0.0449
  417SOL    HW1 1666   0.968   2.984   2.058 -1.2500 -0.6007  0.9696
  417SOL    HW2 1667   1.020   2.927   1.935  1.2121  1.3432 -0.9507
  417SOL     MW 1668   1.015   2.997   1.985 -0.1121  0.1351 -0.0306
  418SOL     OW 1669   0.720   3.014   0.209 -0.4231  0.1573  0.2429
  418SOL    HW1 1670   0.770   2.980   0.134 -1.5743 -1.4499  2.4245
  418SOL    HW2 1671   0.637   2.967   0.206  0.2010 -0.6992 -0.8892
  418SOL     MW 1672   0.716   3.003   0.198 -0.4926 -0.1677  0.3813
  419SOL     OW 1673   0.459   2.706   1.389 -0.0195 -0.0322 -0.3055
  419SOL    HW1 1674   0.538   2.760   1.405 -0.8708 -2.7791 -0.0310
  419SOL    HW2 1675   0.464   2.665   1.302 -0.1268  0.6772 -1.5147
  419SOL     MW 1676   0.470   2.708   1.380 -0.1459 -0.3010 -0.4288
  420SOL     OW 1677   0.884   2.191   1.016 -0.8092 -0.2173 -0.2919
  420SOL    HW1 1678   0.837   2.198   1.100 -1.0987 -0.7858  0.1492
  420SOL    HW2 1679   0.911   2.281   1.002  1.0819 -0.8689 -0.2489
  420SOL     MW 1680   0.881   2.204   1.025 -0.5979 -0.3783 -0.2280
  421SOL     OW 1681   2.944   0.076   0.014  0.2330 -0.3620 -0.3174
  421SOL    HW1 1682   2.917   0.034  -0.063 -0.1806  2.2374  1.9535
  421SOL    HW2 1683   2.935   0.010   0.083 -0.7159  1.8338 -0.9557
  421SOL     MW 1684   2.940   0.062   0.013  0.0532  0.2706 -0.1020
  422SOL     OW 1685   0.878   2.457   0.867  0.3699 -0.1299  0.1004
  422SOL    HW1 1686   0.798   2.492   0.899  0.2285  0.0840 -0.1461
  422SOL    HW2 1687   0.897   2.493   0.783 -0.7509 -1.4791  2.4861
  422SOL     MW 1688   0.870   2.466   0.860  0.2033 -0.2797  0.3827
  423SOL     OW 1689   1.601   0.157   0.492 -0.0424  0.5675  0.0002
  423SOL    HW1 1690   1.597   0.141   0.397 -1.9527 -1.8722  0.2390
  423SOL    HW2 1691   1.560   0.241   0.501 -1.8096 -0.4976  0.5971
  423SOL     MW 1692   1.595   0.166   0.481 -0.5276  0.1050  0.1105
  424SOL     OW 1693   0.737   2.212   1.249 -0.3614  0.1360  0.1477
  424SOL    HW1 1694   0.645   2.208   1.273  0.4558  0.7624 -4.6105
  424SOL    HW2 1695   0.786   2.183   1.328  0.8717 -0.6510  1.0546
  424SOL     MW 1696   0.731   2.207   1.263 -0.0909  0.1148 -0.3605
  425SOL     OW 1697   1.746   2.864   2.020  0.1464 -0.0064 -0.3997
  425SOL    HW1 1698   1.761   2.847   1.924  0.7626  2.6559 -0.0351
  425SOL    HW2 1699   1.765   2.782   2.060  0.4919  0.1061 -0.5283
  425SOL     MW 1700   1.751   2.851   2.013  0.2733  0.3597 -0.3686
  426SOL     OW 1701   0.744   1.614   1.912  0.4467  0.1127 -0.1602
  426SOL    HW1 1702   0.714   1.633   1.819 -1.6098  0.7659 -2.8288
  426SOL    HW2 1703   0.724   1.695   1.957  3.4529 -0.6193  0.4202
  426SOL     MW 1704   0.737   1.627   1.906  0.5720  0.1023 -0.4357
  427SOL     OW 1705   0.405   1.559   1.858 -0.0141  0.4482 -0.0540
  427SOL    HW1 1706   0.462   1.512   1.923  0.7930 -0.1581  3.9776
  427SOL    HW2 1707   0.317   1.541   1.893  2.6238 -0.9980  0.2641
  427SOL     MW 1708   0.401   1.550   1.871  0.4404  0.1774  0.5199
  428SOL     OW 1709   0.581   2.621   1.149 -0.4937 -0.6717  0.2319
  428SOL    HW1 1710   0.654   2.587   1.208  1.9955 -3.3283 -0.2207
  428SOL    HW2 1711   0.538   2.539   1.133  0.4800 -1.0843 -1.4938
  428SOL     MW 1712   0.585   2.606   1.155 -0.0368 -1.0766 -0.0555
  429SOL     OW 1713   1.337   2.675   1.067  0.0231 -0.4556 -0.1561
  429SOL    HW1 1714   1.244   2.651   1.084  1.4160 -2.1524 -1.0217
  429SOL    HW2 1715   1.333   2.755   1.016  1.4978 -0.8628  1.9597
  429SOL     MW 1716   1.324   2.682   1.062  0.4015 -0.7332  0.0089
  430SOL     OW 1717   1.190   2.713   0.694  0.3278 -0.0239 -0.2112
  430SOL    HW1 1718   1.245   2.633   0.705 -1.9228 -0.9352  1.4764
  430SOL    HW2 1719   1.154   2.717   0.605 -0.5734 -1.1286  1.0634
  430SOL     MW 1720   1.193   2.703   0.684 -0.0881 -0.2899  0.1797
  431SOL     OW 1721   0.311   1.943   1.151 -0.6765  0.0835  0.1691
  431SOL    HW1 1722   0.362   1.861   1.143  1.8603 -1.9217 -0.1219
  431SOL    HW2 1723   0.334   1.994   1.071 -0.2742  1.2141  1.5014
  431SOL     MW 1724   0.320   1.939   1.139 -0.2887 -0.0319  0.3065
  432SOL     OW 1725   0.057   0.034   1.160 -0.1786  0.6896  0.0461
  432SOL    HW1 1726   0.081   0.071   1.242 -0.5179 -0.6412  0.0103
  432SOL    HW2 1727  -0.011  -0.030   1.167  0.1509  0.1349 -2.5761
  432SOL     MW 1728   0.051   0.031   1.172 -0.1799  0.4408 -0.3046
  433SOL     OW 1729   0.672   2.861   1.456  0.6183  0.0971 -0.0054
  433SOL    HW1 1730   0.709   2.868   1.547 -1.7745 -2.5339  0.1722
  433SOL    HW2 1731   0.731   2.903   1.398  0.4972  0.9412  1.0397
  433SOL     MW 1732   0.685   2.867   1.460  0.2866 -0.1386  0.1559
  434SOL     OW 1733   1.544   2.812   1.472  0.0928  0.2648 -0.4100
  434SOL    HW1 1734   1.454   2.844   1.484  2.4194  2.2918  1.2005
  434SOL    HW2 1735   1.560   2.794   1.375 -2.3310 -2.9435 -1.8960
  434SOL     MW 1736   1.535   2.814   1.461  0.0800  0.1090 -0.3936
  435SOL     OW 1737   2.868   1.794   0.246 -0.2659 -0.0936  0.2711
  435SOL    HW1 1738   2.904   1.876   0.211  2.9803  0.5082  1.9758
  435SOL    HW2 1739   2.849   1.738   0.167  1.8171  0.8550  1.4647
  435SOL     MW 1740   2.870   1.797   0.231  0.4372  0.1109  0.6535
  436SOL     OW 1741   1.428   2.771   0.315 -0.7553 -0.1468  0.1720
  436SOL    HW1 1742   1.492   2.782   0.387 -0.0822 -1.2273 -2.6475
  436SOL    HW2 1743   1.363   2.838   0.336 -0.5087 -1.6272  0.9938
  436SOL     MW 1744   1.428   2.781   0.327 -0.6340 -0.4847 -0.0916
  437SOL     OW 1745   0.875   2.941   1.277 -0.0917 -0.3781  0.2285
  437SOL    HW1 1746   0.909   3.034   1.280  0.6215  1.2405 -0.5258
  437SOL    HW2 1747   0.846   2.921   1.186  1.1332 -0.8948  1.0471
  437SOL     MW 1748   0.876   2.950   1.265  0.1640 -0.2327  0.2370
  438SOL     OW 1749   0.858   2.562   1.995 -0.3845  0.1689  0.1643
  438SOL    HW1 1750   0.837   2.509   2.076  0.0750  3.7365 -1.6946
  438SOL    HW2 1751   0.800   2.521   1.932 -0.1826  2.3784 -0.2222
  438SOL     MW 1752   0.848   2.550   1.998 -0.2972  0.9312 -0.1320
  439SOL     OW 1753   1.161   2.157   0.313  0.1753  0.1409  0.1591
  439SOL    HW1 1754   1.107   2.158   0.396  0.8126  1.6925 -1.5080
  439SOL    HW2 1755   1.149   2.246   0.278  0.0925 -1.9949 -0.3636
  439SOL     MW 1756   1.152   2.169   0.319  0.2485  0.0638 -0.1299
  440SOL     OW 1757   1.663   3.012   3.006 -0.0737 -0.8169  0.2500
  440SOL    HW1 1758   1.642   3.005   3.099  0.1950 -0.0922  0.6736
  440SOL    HW2 1759   1.706   2.930   2.985 -1.1504 -1.3615  1.4806
  440SOL     MW 1760   1.666   3.000   3.015 -0.1803 -0.7931  0.4683
  441SOL     OW 1761   0.314   2.572   0.544 -0.3083 -0.0581  0.0251
  441SOL    HW1 1762   0.298   2.528   0.453  0.1424 -0.1904  0.5366
  441SOL    HW2 1763   0.306   2.671   0.538 -0.0311  0.6074 -0.6227
  441SOL     MW 1764   0.311   2.579   0.531 -0.2123  0.0122  0.0071
  442SOL     OW 1765   0.040   2.345   0.641 -0.1087  0.1174  0.7976
  442SOL    HW1 1766   0.048   2.436   0.616  0.5701 -3.0386 -2.6399
  442SOL    HW2 1767  -0.047   2.324   0.671  1.7503  3.1055  0.1535
  442SOL     MW 1768   0.030   2.354   0.642  0.2261  0.0953  0.2591
  443SOL     OW 1769   1.354   1.697   1.842 -1.0763 -0.7072 -0.2373
  443SOL    HW1 1770   1.311   1.730   1.764 -0.7505  2.4280 -3.2935
  443SOL    HW2 1771   1.303   1.617   1.873  0.4946 -1.2035 -0.3208
  443SOL     MW 1772   1.341   1.691   1.836 -0.8261 -0.3591 -0.6516
  444SOL     OW 1773   0.837   2.570   1.578 -0.3698 -0.2260  0.4652
  444SOL    HW1 1774   0.919   2.542   1.620 -2.9528  0.3791 -1.0956
  444SOL    HW2 1775   0.767   2.592   1.645 -0.4274 -0.6356  0.6935
  444SOL     MW 1776   0.838   2.569   1.592 -0.7182 -0.2002  0.2894
  445SOL     OW 1777   0.966   0.095   1.303  0.1910  0.1438 -0.2096
  445SOL    HW1 1778   0.904   0.165   1.279  2.8877 -2.4425 -1.0018
  445SOL    HW2 1779   1.050   0.119   1.261  1.3615 -0.3888 -3.6614
  445SOL     MW 1780   0.969   0.107   1.294  0.7012 -0.2677 -0.7696
  446SOL     OW 1781   2.776   2.940   1.020  0.7726  0.5414  0.1120
  446SOL    HW1 1782   2.694   2.941   0.969 -1.2988 -2.3403  1.5315
  446SOL    HW2 1783   2.788   2.842   1.036  0.8452  0.8280  0.3458
  446SOL     MW 1784   2.767   2.928   1.015  0.5089  0.1990  0.3301
  447SOL     OW 1785   3.020   2.053   1.712 -0.1167 -0.0238  0.6727
  447SOL    HW1 1786   3.097   2.001   1.741 -2.2995 -1.5336  0.7557
  447SOL    HW2 1787   2.984   1.989   1.647 -0.6260  0.3642 -1.7781
  447SOL     MW 1788   3.026   2.038   1.707 -0.4719 -0.1718  0.3603
  448SOL     OW 1789   1.675   2.338   1.660  0.0754 -0.6725  0.2008
  448SOL    HW1 1790   1.626   2.267   1.705  1.7337 -0.2911 -1.7999
  448SOL    HW2 1791   1.617   2.409   1.652  2.0697 -1.4687  0.1273
  448SOL     MW 1792   1.661   2.338   1.665  0.5573 -0.7272 -0.0729
  449SOL     OW 1793   0.845   2.889   0.422 -0.0770  0.4486  0.0805
  449SOL    HW1 1794   0.799   2.925   0.348 -0.6775  0.9594  0.4890
  449SOL    HW2 1795   0.792   2.919   0.500  0.7506  1.7840  0.6365
  449SOL     MW 1796   0.832   2.898   0.423 -0.0470  0.6922  0.2078
  450SOL     OW 1797   1.224   2.422   0.655 -0.0309 -0.1873  0.8111
  450SOL    HW1 1798   1.235   2.417   0.750  0.4728  1.4794 -2.5690
  450SOL    HW2 1799   1.311   2.405   0.618  1.0086  1.3286  1.5850
  450SOL     MW 1800   1.237   2.419   0.662  0.1727  0.2326  0.4672
  451SOL     OW 1801   0.614   1.957   1.675 -0.2024  0.0944  0.1580
  451SOL    HW1 1802   0.696   1.961   1.716  0.8681 -0.8366 -0.2633
  451SOL    HW2 1803   0.620   1.952   1.577 -0.8366 -2.4074  0.4895
  451SOL     MW 1804   0.626   1.957   1.668 -0.1449 -0.3585  0.1462
  452SOL     OW 1805   0.302   2.711   0.107 -0.0977  0.3669  0.2626
  452SOL    HW1 1806   0.398   2.745   0.116  0.9319  4.7814 -0.4713
  452SOL    HW2 1807   0.290   2.708   0.012 -0.1003 -0.3718  1.8748
  452SOL     MW 1808   0.313   2.715   0.095  0.0378  0.8519  0.3785
  453SOL     OW 1809   0.379   2.980   1.633 -0.4398 -0.1843 -0.1097
  453SOL    HW1 1810   0.455   2.988   1.576 -2.0336 -0.0813  1.3718
  453SOL    HW2 1811   0.319   2.955   1.564 -0.8549  0.3449  0.9220
  453SOL     MW 1812   0.381   2.978   1.617 -0.7049 -0.1009  0.2219
  454SOL     OW 1813   1.059   2.789   1.146  0.4011  0.2988 -0.4159
  454SOL    HW1 1814   1.005   2.713   1.149  0.5252 -1.6358 -1.8293
  454SOL    HW2 1815   1.009   2.855   1.198  1.3392  0.1927  0.0521
  454SOL     MW 1816   1.045   2.787   1.153  0.5413  0.0296 -0.5406
  455SOL     OW 1817   1.598   2.935   0.163  0.1369  0.0022  0.1641
  455SOL    HW1 1818   1.669   2.936   0.226  3.9717 -1.5288  0.6374
  455SOL    HW2 1819   1.538   2.870   0.200 -2.5579  0.3076 -1.1850
  455SOL     MW 1820   1.599   2.927   0.176  0.2873 -0.1595  0.0485
  456SOL     OW 1821   2.944   0.286   1.411  0.5819  0.4296  0.0969
  456SOL    HW1 1822   2.902   0.220   1.364  2.4628  1.3681  1.0637
  456SOL    HW2 1823   2.976   0.349   1.345 -2.9452 -1.5016  2.1360
  456SOL     MW 1824   2.943   0.285   1.396  0.3647  0.2986  0.4935
  457SOL     OW 1825   0.882   1.548   3.008 -0.1916  0.2071 -0.1375
  457SOL    HW1 1826   0.826   1.549   3.082 -0.3068 -2.1772 -1.9239
  457SOL    HW2 1827   0.949   1.484   3.039 -1.4093  1.9655 -0.0532
  457SOL     MW 1828   0.884   1.539   3.022 -0.3675  0.1245 -0.3621
  458SOL     OW 1829   1.442   1.414   0.639  0.1899  0.1569  0.3914
  458SOL    HW1 1830   1.362   1.419   0.690 -2.2700 -0.3305 -1.1863
  458SOL    HW2 1831   1.413   1.371   0.556 -0.6088 -1.1202 -1.3913
  458SOL     MW 1832   1.428   1.409   0.635 -0.2401 -0.0759 -0.0519
  459SOL     OW 1833   1.564   0.120   0.226 -0.3945  0.1210 -0.1759
  459SOL    HW1 1834   1.548   0.025   0.221 -0.0343  0.2268 -0.4781
  459SOL    HW2 1835   1.520   0.166   0.153 -1.9075  1.7376 -1.0613
  459SOL     MW 1836   1.556   0.113   0.215 -0.5466  0.3483 -0.3326
  460SOL     OW 1837   1.704   2.161   0.581 -0.4967  0.2695 -0.5367
  460SOL    HW1 1838   1.651   2.147   0.652  0.4369 -1.3160  0.5728
  460SOL    HW2 1839   1.776   2.089   0.577 -1.2910 -0.0208  2.2045
  460SOL     MW 1840   1.706   2.150   0.590 -0.4783  0.0220 -0.0286
  461SOL     OW 1841   0.464   2.323   0.611  0.9755  0.5104 -0.1294
  461SOL    HW1 1842   0.419   2.395   0.566  1.7401 -1.9303  0.2659
  461SOL    HW2 1843   0.458   2.337   0.703  0.8298  0.3682  0.1430
  461SOL     MW 1844   0.457   2.334   0.617  1.0572  0.1696 -0.0413
  462SOL     OW 1845   0.382   0.300   1.306 -0.4261  0.4545  0.2325
  462SOL    HW1 1846   0.388   0.256   1.220 -0.0691 -0.6066 -1.6715
  462SOL    HW2 1847   0.451   0.368   1.308 -0.5423 -2.8815  0.2608
  462SOL     MW 1848   0.392   0.303   1.295 -0.3943 -0.1257 -0.0150
  463SOL     OW 1849   1.016   0.057   0.713  0.1132 -0.2521 -0.3953
  463SOL    HW1 1850   1.042   0.044   0.622  2.7770  2.4385  1.6622
  463SOL    HW2 1851   0.918   0.053   0.711  0.5593 -0.1238  0.4129
  463SOL     MW 1852   1.006   0.055   0.701  0.5235  0.1198 -0.0172
  464SOL     OW 1853   0.824   2.955   2.163 -0.9234 -0.7873  0.4233
  464SOL    HW1 1854   0.777   2.879   2.199 -1.1571  0.4810 -1.4550
  464SOL    HW2 1855   0.856   2.994   2.255 -0.6932 -1.7241 -0.1431
  464SOL     MW 1856   0.822   2.950   2.180 -0.9238 -0.7436  0.1007
  465SOL     OW 1857   0.730   0.214   0.468  0.2972 -0.2021 -0.1830
  465SOL    HW1 1858   0.725   0.150   0.537  2.0981  1.7287  0.1121
  465SOL    HW2 1859   0.729   0.174   0.384  2.0736 -2.0806  2.4728
  465SOL     MW 1860   0.729   0.201   0.466  0.7692 -0.1952  0.2063
  466SOL     OW 1861   1.072   1.974   0.690 -0.3339 -0.0603  0.2767
  466SOL    HW1 1862   1.074   1.911   0.617 -2.6839 -0.3573  0.9253
  466SOL    HW2 1863   1.080   2.061   0.639 -2.3584  1.8066 -0.0753
  466SOL     MW 1864   1.074   1.977   0.673 -0.9111  0.1468  0.3158
  467SOL     OW 1865   1.282   2.327   0.968 -0.4584  0.2346 -0.1669
  467SOL    HW1 1866   1.371   2.327   0.994 -1.0256 -0.9332  1.1467
  467SOL    HW2 1867   1.246   2.234   0.974 -1.7209  0.9386  1.0232
  467SOL     MW 1868   1.289   2.315   0.972 -0.6998  0.1734  0.1635
  468SOL     OW 1869   0.311   2.620   1.978 -0.0456  0.2981 -0.5147
  468SOL    HW1 1870   0.339   2.542   1.933  2.9242  1.4125 -1.2246
  468SOL    HW2 1871   0.343   2.696   1.925 -0.1897 -0.1651  0.7100
  468SOL     MW 1872   0.319   2.620   1.965  0.3272  0.3840 -0.4468
  469SOL     OW 1873   0.405   2.081   1.836 -0.1438  0.0241 -0.4570
  469SOL    HW1 1874   0.327   2.036   1.804  1.5397 -2.5227 -0.9591
  469SOL    HW2 1875   0.476   2.036   1.778  0.9600  0.0452  1.2534
  469SOL     MW 1876   0.404   2.069   1.824  0.2239 -0.3091 -0.2976
  470SOL     OW 1877   3.070   2.516   0.174 -0.3580 -0.2222  0.2387
  470SOL    HW1 1878   2.984   2.492   0.211 -0.0283 -3.6806 -0.2607
  470SOL    HW2 1879   3.041   2.548   0.087  0.1242 -1.2632 -0.2646
  470SOL     MW 1880   3.055   2.517   0.168 -0.2509 -0.8158  0.1064
  471SOL     OW 1881   1.173   2.705   1.379 -0.1842 -0.0699 -0.3414
  471SOL    HW1 1882   1.095   2.735   1.427 -1.4840 -0.5713 -1.2582
  471SOL    HW2 1883   1.149   2.728   1.291 -1.6014  1.7053 -0.5421
  471SOL     MW 1884   1.160   2.712   1.374 -0.5427  0.0982 -0.4888
  472SOL     OW 1885   2.927   2.119   0.353  0.1252  0.0780 -0.7422
  472SOL    HW1 1886   2.944   2.086   0.260 -1.1819 -0.9878  0.9691
  472SOL    HW2 1887   2.886   2.052   0.402 -0.8686 -2.2899 -0.5731
  472SOL     MW 1888   2.924   2.106   0.347 -0.1784 -0.3750 -0.4941
  473SOL     OW 1889   0.800   2.533   1.304  0.2361  0.4343 -0.4348
  473SOL    HW1 1890   0.837   2.445   1.288 -3.5608 -0.0436 -0.2238
  473SOL    HW2 1891   0.813   2.548   1.397  1.2217  0.7145 -0.4404
  473SOL     MW 1892   0.806   2.523   1.314 -0.1348  0.4082 -0.4077
  474SOL     OW 1893   0.848   2.205   1.770 -0.1550  0.1608 -0.1182
  474SOL    HW1 1894   0.933   2.242   1.776 -2.8394 -1.5646 -0.9701
  474SOL    HW2 1895   0.844   2.192   1.669  0.3700  0.7448 -2.1570
  474SOL     MW 1896   0.859   2.208   1.757 -0.4399  0.0102 -0.4996
  475SOL     OW 1897   1.642   3.087   1.437 -0.7294 -0.1064 -0.4311
  475SOL    HW1 1898   1.560   3.118   1.393 -0.7661  2.9672  0.7802
  475SOL    HW2 1899   1.617   2.992   1.443 -0.5959 -1.0661 -0.5631
  475SOL     MW 1900   1.628   3.079   1.432 -0.7167  0.1725 -0.2887
  476SOL     OW 1901   1.445   2.595   0.794 -0.8341 -0.2953  0.0584
  476SOL    HW1 1902   1.427   2.587   0.889 -0.7001 -3.2657 -1.3226
  476SOL    HW2 1903   1.491   2.679   0.789  2.3002  0.8269 -1.9663
  476SOL     MW 1904   1.448   2.605   0.806 -0.4029 -0.5392 -0.3909
  477SOL     OW 1905   0.854   2.521   0.599  0.5760 -0.3076  0.0798
  477SOL    HW1 1906   0.916   2.582   0.551 -1.4878 -3.5256 -1.1296
  477SOL    HW2 1907   0.858   2.422   0.569 -0.0178 -0.9018  0.1527
  477SOL     MW 1908   0.863   2.516   0.589  0.2253 -0.8106 -0.0702
  478SOL     OW 1909   0.233   2.588   0.976  0.2632 -0.0114 -0.6556
  478SOL    HW1 1910   0.297   2.653   1.011 -1.0773 -0.4107  2.1312
  478SOL    HW2 1911   0.296   2.527   0.934 -1.7920 -1.4732 -1.3022
  478SOL     MW 1912   0.250   2.589   0.975 -0.1848 -0.2569 -0.3732
  479SOL     OW 1913   1.406   1.942   1.326 -0.2117  0.2718 -0.7589
  479SOL    HW1 1914   1.353   1.999   1.386  0.3405 -2.2659 -1.0365
  479SOL    HW2 1915   1.480   1.903   1.376  0.2897  0.5034 -0.3140
  479SOL     MW 1916   1.409   1.945   1.340 -0.0727 -0.0325 -0.7369
  480SOL     OW 1917   1.789   2.370   1.287  0.0193  0.2241 -0.2656
  480SOL    HW1 1918   1.786   2.277   1.326 -1.5488 -0.1016  1.9474
  480SOL    HW2 1919   1.831   2.362   1.198  2.3953 -0.1066 -0.6356
  480SOL     MW 1920   1.794   2.357   1.281  0.1259  0.1375 -0.0224
  481SOL     OW 1921   1.180   0.160   1.131  0.4832 -0.2509  0.7325
  481SOL    HW1 1922   1.228   0.144   1.051 -2.2434  1.6518  1.1618
  481SOL    HW2 1923   1.153   0.253   1.120 -0.2499  0.9032  1.2166
  481SOL     MW 1924   1.183   0.170   1.119  0.0267  0.1524  0.8530
  482SOL     OW 1925   1.016   0.003   0.429 -0.4698  0.7337  0.0303
  482SOL    HW1 1926   0.956  -0.066   0.400  2.6578 -0.4541  1.4306
  482SOL    HW2 1927   1.014   0.071   0.362 -0.4705 -0.0393 -0.0222
  482SOL     MW 1928   1.008   0.003   0.417 -0.0573  0.4750  0.2081
  483SOL     OW 1929   0.300   2.848   0.546 -0.0860 -0.0565  0.2903
  483SOL    HW1 1930   0.282   2.908   0.465 -3.2208  1.5418 -1.5375
  483SOL    HW2 1931   0.296   2.912   0.622  1.8034 -0.0984 -1.1989
  483SOL     MW 1932   0.297   2.865   0.546 -0.2503  0.1489 -0.1473
  484SOL     OW 1933   1.647   1.867   1.431  0.0967  0.3718 -0.7629
  484SOL    HW1 1934   1.714   1.919   1.390  0.5132 -2.2565  2.1997
  484SOL    HW2 1935   1.669   1.871   1.521 -1.7696 -0.9293 -0.8844
  484SOL     MW 1936   1.659   1.874   1.438 -0.0946 -0.1467 -0.3880
  485SOL     OW 1937   0.550   2.332   0.287 -0.6110  0.4178  0.2337
  485SOL    HW1 1938   0.565   2.349   0.380  2.5161 -0.3005  0.5038
  485SOL    HW2 1939   0.480   2.393   0.250 -1.2471  0.0695 -2.4820
  485SOL     MW 1940   0.543   2.343   0.295 -0.2824  0.2771 -0.0890
  486SOL     OW 1941   0.087   2.492   1.473 -0.2875 -0.5146  0.1640
  486SOL    HW1 1942   0.055   2.574   1.446 -0.5706  0.1542 -0.8102
  486SOL    HW2 1943   0.103   2.512   1.565  0.8275 -0.4614 -1.9214
  486SOL     MW 1944   0.085   2.505   1.481 -0.1777 -0.4193 -0.2397
  487SOL     OW 1945   1.291   1.616   1.018 -0.1059 -0.1887 -0.3001
  487SOL    HW1 1946   1.279   1.706   1.061 -1.0253  1.3265 -1.5973
  487SOL    HW2 1947   1.385   1.612   1.027  0.4204  1.9409 -0.6803
  487SOL     MW 1948   1.302   1.627   1.025 -0.1578  0.2922 -0.5214
  488SOL     OW 1949   1.478   1.806   0.612  0.3382  0.1402  0.0942
  488SOL    HW1 1950   1.469   1.884   0.563  1.1037  0.5338  1.1424
  488SOL    HW2 1951   1.425   1.741   0.570 -0.4102 -0.8165  2.7568
  488SOL     MW 1952   1.470   1.808   0.600  0.3405  0.0659  0.5838
  489SOL     OW 1953   0.692   0.741   0.539 -0.0094  0.2441 -0.1288
  489SOL    HW1 1954   0.654   0.660   0.504  0.3320  1.1998 -1.5183
  489SOL    HW2 1955   0.686   0.728   0.636 -1.6970  0.1887  0.3142
  489SOL     MW 1956   0.686   0.729   0.547 -0.1870  0.3629 -0.2537
  490SOL     OW 1957   1.375   2.065   0.464  0.4264  0.1152 -0.6374
  490SOL    HW1 1958   1.449   2.119   0.429  0.2253  2.1436  1.0173
  490SOL    HW2 1959   1.296   2.109   0.427  0.2831  2.6597  1.3504
  490SOL     MW 1960   1.375   2.078   0.454  0.3809  0.7185 -0.1568
  491SOL     OW 1961   1.289   2.995   0.378 -0.2744 -0.5135 -0.4578
  491SOL    HW1 1962   1.319   3.045   0.455 -0.1102 -2.0593 -1.1789
  491SOL    HW2 1963   1.196   3.017   0.357 -2.8529  0.7165 -0.7428
  491SOL     MW 1964   1.280   3.005   0.385 -0.5930 -0.5552 -0.5906
  492SOL     OW 1965   1.455   2.154   0.710 -0.2778 -0.2374  0.1599
  492SOL    HW1 1966   1.419   2.129   0.626  1.0074 -2.4664 -1.2316
  492SOL    HW2 1967   1.400   2.113   0.775  0.8803  0.1448 -1.1382
  492SOL     MW 1968   1.443   2.145   0.707  0.0446 -0.4810 -0.1950
  493SOL     OW 1969   0.240   3.017   0.344  0.2637 -0.5864  0.3526
  493SOL    HW1 1970   0.180   3.047   0.417  0.1395  0.0447  0.3534
  493SOL    HW2 1971   0.182   2.983   0.277  0.1441 -2.6097  1.0019
  493SOL     MW 1972   0.224   3.017   0.345  0.2315 -0.7701  0.4384
  494SOL     OW 1973   0.395   2.372   1.800 -0.4108  0.2220 -0.1253
  494SOL    HW1 1974   0.393   2.276   1.800  0.5500  2.2320  3.8006
  494SOL    HW2 1975   0.428   2.393   1.708 -0.2443 -2.1000 -3.0514
  494SOL     MW 1976   0.399   2.362   1.788 -0.2620  0.1809  0.0066
  495SOL     OW 1977   2.890   1.634   2.689  0.7684  0.1709  0.0105
  495SOL    HW1 1978   2.901   1.719   2.729 -1.3875  0.4848  1.2616
  495SOL    HW2 1979   2.827   1.591   2.748  0.3234 -0.8921  2.1802
  495SOL     MW 1980   2.883   1.639   2.702  0.4252  0.0720  0.4618
  496SOL     OW 1981   2.782   2.269   2.718 -0.2910 -0.4248 -0.0708
  496SOL    HW1 1982   2.805   2.179   2.741 -1.7837  0.8378 -0.6748
  496SOL    HW2 1983   2.864   2.319   2.753 -1.5154  1.5084 -0.5246
  496SOL     MW 1984   2.796   2.264   2.725 -0.6495 -0.0031 -0.2104
  497SOL     OW 1985   1.502   2.341   2.565 -0.4486 -0.5468 -0.4479
  497SOL    HW1 1986   1.531   2.288   2.484 -0.5824 -3.1329  1.7660
  497SOL    HW2 1987   1.462   2.277   2.629 -0.6443 -1.0697 -0.2669
  497SOL     MW 1988   1.501   2.326   2.563 -0.4921 -0.9570 -0.1319
  498SOL     OW 1989   1.440   2.763   2.314 -0.1626  0.1664 -0.6584
  498SOL    HW1 1990   1.443   2.668   2.294  0.1650  0.6316 -0.6356
  498SOL    HW2 1991   1.518   2.775   2.373  0.1489  2.2164  3.0282
  498SOL     MW 1992   1.451   2.752   2.319 -0.0783  0.4983 -0.1690
  499SOL     OW 1993   0.960   0.069   0.078 -0.7214  0.2707  0.0432
  499SOL    HW1 1994   0.876   0.109   0.124 -0.0467  2.6977 -1.6126
  499SOL    HW2 1995   0.931  -0.018   0.039  0.5657  1.2593 -1.8391
  499SOL     MW 1996   0.945   0.063   0.079 -0.4626  0.7214 -0.4236
  500SOL     OW 1997   1.037   2.517   2.721 -0.5377  0.2263 -0.1705
  500SOL    HW1 1998   1.111   2.502   2.781  0.4741  0.8490  2.2957
  500SOL    HW2 1999   1.007   2.607   2.736 -0.4208  2.1178 -0.6267
  500SOL     MW 2000   1.042   2.527   2.731 -0.3888  0.5580  0.0947
  501SOL     OW 2001   1.786   2.265   3.039 -1.1519  0.1567  0.4357
  501SOL    HW1 2002   1.789   2.360   3.024 -0.3978  0.4249 -0.6830
  501SOL    HW2 2003   1.879   2.233   3.053 -0.7451  0.5594  1.2764
  501SOL     MW 2004   1.799   2.273   3.039 -0.9987  0.2452  0.3990
  502SOL     OW 2005   0.266   2.733   2.938 -0.2160 -0.4900  0.9968
  502SOL    HW1 2006   0.232   2.682   2.864 -0.5428 -0.8428 -0.3369
  502SOL    HW2 2007   0.273   2.825   2.914  0.4367  0.7068  0.3620
  502SOL     MW 2008   0.263   2.739   2.925 -0.1730 -0.3787  0.7371
  503SOL     OW 2009   1.124   2.560   2.081  0.3280  0.2922  0.5745
  503SOL    HW1 2010   1.190   2.604   2.029 -0.0990 -0.4399 -0.7064
  503SOL    HW2 2011   1.056   2.537   2.015  1.9301 -1.0320 -3.4522
  503SOL     MW 2012   1.123   2.563   2.065  0.4830  0.0209 -0.1258
  504SOL     OW 2013   0.095   2.639   2.155 -0.6712  0.1862  0.3041
  504SOL    HW1 2014   0.157   2.601   2.088  0.8248  1.5989 -2.1571
  504SOL    HW2 2015   0.046   2.570   2.194  1.2180  1.5679  0.4489
  504SOL     MW 2016   0.097   2.625   2.152 -0.2245  0.5549 -0.0016
  505SOL     OW 2017   1.599   2.789   2.746  0.6202 -0.1532  0.2489
  505SOL    HW1 2018   1.625   2.831   2.665 -3.1004 -1.1134  1.1633
  505SOL    HW2 2019   1.531   2.849   2.791  0.1641  2.7600  1.1264
  505SOL     MW 2020   1.593   2.802   2.741  0.0691  0.1045  0.4853
  506SOL     OW 2021   1.605   0.091   2.751  0.0883 -0.4367  0.1102
  506SOL    HW1 2022   1.609   0.043   2.826 -0.2360  0.1435 -2.8122
  506SOL    HW2 2023   1.657   0.044   2.688 -2.5126  0.4015 -0.4593
  506SOL     MW 2024   1.612   0.078   2.752 -0.2976 -0.2496 -0.3505
  507SOL     OW 2025   0.867   2.712   2.814  0.2387  0.0859 -0.4666
  507SOL    HW1 2026   0.881   2.789   2.760 -0.3549  1.3787 -0.2414
  507SOL    HW2 2027   0.778   2.671   2.796 -0.7410 -1.1228 -0.2126
  507SOL     MW 2028   0.857   2.717   2.804  0.0311  0.0970 -0.4034
  508SOL     OW 2029   1.159   2.117   2.552 -0.3665 -0.0523  0.9307
  508SOL    HW1 2030   1.234   2.128   2.612 -1.1962 -2.1456 -0.5627
  508SOL    HW2 2031   1.084   2.107   2.610  0.8968  0.1334 -0.0210
  508SOL     MW 2032   1.159   2.117   2.568 -0.3093 -0.3040  0.6081
  509SOL     OW 2033   0.644   2.579   2.802  0.1312  0.2897 -0.2691
  509SOL    HW1 2034   0.618   2.502   2.751  0.4862  2.2851 -1.6781
  509SOL    HW2 2035   0.575   2.637   2.776 -1.2376 -1.1196 -4.4703
  509SOL     MW 2036   0.632   2.576   2.791 -0.0026  0.3670 -1.0093
  510SOL     OW 2037   1.495   2.571   1.618  0.0284 -0.3453 -0.0019
  510SOL    HW1 2038   1.539   2.638   1.561  1.3324 -0.4723  0.0673
  510SOL    HW2 2039   1.453   2.617   1.694  0.3405  0.9139 -1.3859
  510SOL     MW 2040   1.496   2.586   1.621  0.2417 -0.1959 -0.1754
  511SOL     OW 2041   0.348   2.515   2.518  0.1537  0.0769  0.8241
  511SOL    HW1 2042   0.421   2.453   2.532 -0.2008  0.6599  2.0855
  511SOL    HW2 2043   0.356   2.528   2.427 -0.0326 -0.4715  2.3731
  511SOL     MW 2044   0.359   2.508   2.508  0.0823  0.0815  1.1949
  512SOL     OW 2045   1.034   1.963   2.821 -0.2323 -0.1790  0.2981
  512SOL    HW1 2046   0.947   1.987   2.860 -0.8220  1.9431 -0.6372
  512SOL    HW2 2047   1.048   1.877   2.878 -0.6519  0.1952  1.8701
  512SOL     MW 2048   1.024   1.955   2.834 -0.3655  0.1503  0.3821
  513SOL     OW 2049   1.501   2.490   2.247  0.0084  0.4005 -1.0731
  513SOL    HW1 2050   1.584   2.524   2.211  1.4133 -1.9481  0.3412
  513SOL    HW2 2051   1.511   2.406   2.287  1.8344  0.6422 -4.4981
  513SOL     MW 2052   1.513   2.483   2.248  0.4347  0.1225 -1.3384
  514SOL     OW 2053   0.196   2.335   2.679 -0.0277  0.0983  0.1935
  514SOL    HW1 2054   0.262   2.395   2.644  0.9301 -0.8338 -0.8255
  514SOL    HW2 2055   0.254   2.298   2.749  1.6835  0.1941 -0.9001
  514SOL     MW 2056   0.212   2.338   2.684  0.3244 -0.0121 -0.0852
  515SOL     OW 2057   1.076   1.976   1.836 -0.0932  0.1960 -0.3039
  515SOL    HW1 2058   1.057   2.064   1.815  2.6176 -3.4392  0.3041
  515SOL    HW2 2059   1.145   1.980   1.911 -0.2034 -0.2493  0.6130
  515SOL     MW 2060   1.083   1.988   1.843  0.2499 -0.3424 -0.1027
  516SOL     OW 2061   1.297   2.586   2.935  0.1891  0.4729  0.5182
  516SOL    HW1 2062   1.339   2.598   2.846  1.1616 -0.9786 -0.4857
  516SOL    HW2 2063   1.251   2.497   2.945 -1.8273 -1.3122  0.9972
  516SOL     MW 2064   1.297   2.576   2.924  0.0514  0.0458  0.4489
  517SOL     OW 2065   0.522   2.334   2.248  0.3331  0.0524  0.4509
  517SOL    HW1 2066   0.483   2.422   2.233  2.0340  3.1672  2.7387
  517SOL    HW2 2067   0.466   2.277   2.195 -1.7445  0.5772 -2.1190
  517SOL     MW 2068   0.509   2.338   2.239  0.2834  0.5326  0.4137
  518SOL     OW 2069   1.794   0.136   3.050  0.6792 -0.6281  0.3420
  518SOL    HW1 2070   1.835   0.136   3.140  0.1430 -1.5468 -0.9431
  518SOL    HW2 2071   1.745   0.054   3.041 -0.0991  1.2462 -0.4260
  518SOL     MW 2072   1.793   0.125   3.061  0.5058 -0.5020  0.0711
  519SOL     OW 2073   0.632   2.402   1.928  0.4863  0.4111 -0.7582
  519SOL    HW1 2074   0.658   2.313   1.917  1.9434  0.7557 -0.2337
  519SOL    HW2 2075   0.542   2.409   1.885  0.4156 -0.4520 -1.7286
  519SOL     MW 2076   0.623   2.391   1.921  0.6692  0.3427 -0.8171
  520SOL     OW 2077   1.221   2.124   2.931  0.2802  0.3460  0.3650
  520SOL    HW1 2078   1.156   2.064   2.891 -1.2903  0.4891 -1.8082
  520SOL    HW2 2079   1.246   2.086   3.020  0.9402 -0.2339  0.0118
  520SOL     MW 2080   1.216   2.111   2.938  0.1601  0.2883  0.0317
  521SOL     OW 2081   1.775   2.034   2.243 -0.2118  0.0400  0.0749
  521SOL    HW1 2082   1.801   2.066   2.151  1.0281  0.7619  0.2599
  521SOL    HW2 2083   1.759   1.939   2.236  0.0947 -1.9332 -2.6195
  521SOL     MW 2084   1.776   2.025   2.230 -0.0078 -0.1251 -0.2562
  522SOL     OW 2085   2.840   2.560   2.239  0.8990 -0.4091 -0.1998
  522SOL    HW1 2086   2.910   2.511   2.273 -3.8083 -2.3209  0.6203
  522SOL    HW2 2087   2.842   2.649   2.260  1.3801  1.3350 -1.1776
  522SOL     MW 2088   2.849   2.565   2.246  0.3414 -0.4312 -0.2206
  523SOL     OW 2089   0.821   1.486   2.147  0.3133  0.2239  0.0216
  523SOL    HW1 2090   0.812   1.539   2.065 -0.5920 -3.5251 -1.5210
  523SOL    HW2 2091   0.890   1.423   2.126  0.0890  1.4267  0.5025
  523SOL     MW 2092   0.829   1.485   2.133  0.1642 -0.1121 -0.1185
  524SOL     OW 2093   0.605   2.390   3.017  0.9015  0.0829 -0.0635
  524SOL    HW1 2094   0.649   2.445   2.953  2.2882  1.6772 -3.4759
  524SOL    HW2 2095   0.669   2.324   3.028 -1.5028  1.9537 -2.7693
  524SOL     MW 2096   0.620   2.389   3.010  0.7672  0.5401 -0.8707
  525SOL     OW 2097   0.358   2.170   2.102  0.9145  0.2925  0.4227
  525SOL    HW1 2098   0.342   2.092   2.150 -0.8383  3.8251  0.6254
  525SOL    HW2 2099   0.389   2.142   2.014  0.3986  0.3187  2.3519
  525SOL     MW 2100   0.360   2.156   2.097  0.6152  0.7620  0.7040
  526SOL     OW 2101   0.726   2.104   1.995  0.0012  0.7246 -0.2615
  526SOL    HW1 2102   0.788   2.128   1.921 -4.6838 -2.1961  3.0840
  526SOL    HW2 2103   0.772   2.127   2.077 -1.7843 -0.9315  1.1846
  526SOL     MW 2104   0.741   2.110   1.996 -0.8525  0.1207  0.3707
  527SOL     OW 2105   1.305   1.910   2.006 -0.1459 -0.2994 -0.1013
  527SOL    HW1 2106   1.250   1.873   2.072 -0.0022  2.6399 -0.5172
  527SOL    HW2 2107   1.324   1.836   1.948 -1.2710 -1.9557  1.8590
  527SOL     MW 2108   1.300   1.896   2.007 -0.2754 -0.1301  0.1025
  528SOL     OW 2109   0.609   2.893   3.028  0.0799 -0.1769  0.0422
  528SOL    HW1 2110   0.639   2.984   2.998 -0.2971 -1.6045 -0.3027
  528SOL    HW2 2111   0.632   2.832   2.958  2.0710 -0.4014 -0.7026
  528SOL     MW 2112   0.616   2.897   3.015  0.2928 -0.3949 -0.1016
  529SOL     OW 2113   1.119   2.270   1.785  0.5047 -0.2077 -0.7481
  529SOL    HW1 2114   1.172   2.267   1.867  0.2046 -1.1160  0.1576
  529SOL    HW2 2115   1.180   2.298   1.720  0.0218 -0.1903  0.5117
  529SOL     MW 2116   1.134   2.273   1.787  0.4014 -0.3253 -0.4624
  530SOL     OW 2117   1.130   2.382   2.990  0.2421 -0.2246 -0.0422
  530SOL    HW1 2118   1.049   2.410   3.038 -0.0557 -2.3399 -1.6359
  530SOL    HW2 2119   1.147   2.287   2.993  3.0280 -2.0165 -1.4540
  530SOL     MW 2120   1.121   2.373   2.997  0.5704 -0.7401 -0.4387
  531SOL     OW 2121   0.897   1.810   2.624  0.1950 -0.1567  0.8264
  531SOL    HW1 2122   0.907   1.880   2.687 -0.9725  1.8210 -2.0071
  531SOL    HW2 2123   0.844   1.745   2.669 -2.5634  1.8606 -1.6727
  531SOL     MW 2124   0.892   1.811   2.638 -0.3230  0.3704  0.1229
  532SOL     OW 2125   1.692   0.314   2.867 -0.1753 -0.2772  0.0351
  532SOL    HW1 2126   1.675   0.237   2.816 -0.8861  3.4254  0.8100
  532SOL    HW2 2127   1.724   0.275   2.948 -2.2171  1.6130  1.6763
  532SOL     MW 2128   1.694   0.299   2.871 -0.5385  0.4607  0.3539
  533SOL     OW 2129   1.771   2.764   2.952 -0.1573 -0.8461 -0.2358
  533SOL    HW1 2130   1.771   2.699   3.020  0.2445  1.5579  1.8262
  533SOL    HW2 2131   1.695   2.742   2.895 -3.2501  1.0865 -0.3642
  533SOL     MW 2132   1.761   2.752   2.954 -0.5124 -0.2739  0.0193
  534SOL     OW 2133   1.747   2.485   2.506 -0.0263  0.0100  0.2173
  534SOL    HW1 2134   1.668   2.431   2.533  1.6793  0.2137 -0.4233
  534SOL    HW2 2135   1.815   2.482   2.582  0.9313  0.9348  2.0287
  534SOL     MW 2136   1.745   2.478   2.520  0.3251  0.1589  0.3718
  535SOL     OW 2137   1.788   2.359   1.915  0.1371 -0.4451 -0.0430
  535SOL    HW1 2138   1.722   2.376   1.843 -0.7287 -2.7680 -2.7437
  535SOL    HW2 2139   1.869   2.404   1.891  0.5519 -0.7093  0.3288
  535SOL     MW 2140   1.790   2.367   1.902  0.0776 -0.7864 -0.3503
  536SOL     OW 2141   0.435   1.855   2.028 -0.0304 -0.7003  0.1295
  536SOL    HW1 2142   0.449   1.918   1.955  3.1373  2.3929  1.1337
  536SOL    HW2 2143   0.525   1.831   2.063  0.4422  1.2744 -0.1008
  536SOL     MW 2144   0.449   1.860   2.023  0.4499 -0.0316  0.2316
  537SOL     OW 2145   0.968   0.194   2.935  0.0336  0.0571  0.0906
  537SOL    HW1 2146   0.945   0.158   3.024 -2.4939 -1.1392 -0.4522
  537SOL    HW2 2147   0.892   0.245   2.912  1.5881 -0.7912  2.2872
  537SOL     MW 2148   0.955   0.196   2.944 -0.0947 -0.2126  0.3088
  538SOL     OW 2149   1.309   0.070   3.054  0.3962 -0.2480  0.1989
  538SOL    HW1 2150   1.289   0.135   2.986 -2.7675  1.1006 -0.8566
  538SOL    HW2 2151   1.313   0.132   3.134 -0.9883  0.4468 -0.1352
  538SOL     MW 2152   1.307   0.086   3.056 -0.2039  0.0216  0.0156
  539SOL     OW 2153   0.736   2.694   2.508 -0.3317 -0.3003  0.5579
  539SOL    HW1 2154   0.801   2.759   2.536  1.9241 -1.0937 -1.3671
  539SOL    HW2 2155   0.771   2.608   2.513 -0.0663  0.3593  2.5347
  539SOL     MW 2156   0.749   2.691   2.513  0.0009 -0.3180  0.5647
  540SOL     OW 2157   0.383   2.219   2.866 -0.7632  0.0960 -0.6036
  540SOL    HW1 2158   0.435   2.282   2.925  0.2727  1.1799  0.3657
  540SOL    HW2 2159   0.336   2.163   2.929  1.1355 -0.9149  0.3362
  540SOL     MW 2160   0.384   2.220   2.882 -0.3760  0.1056 -0.3517
  541SOL     OW 2161   0.190   2.882   2.256 -0.1322 -0.0706  0.1802
  541SOL    HW1 2162   0.165   2.792   2.232  1.0180 -0.0153  0.6820
  541SOL    HW2 2163   0.235   2.869   2.336 -2.8121 -0.4770 -0.0245
  541SOL     MW 2164   0.193   2.868   2.263 -0.3341 -0.1169  0.2194
  542SOL     OW 2165   0.885   2.296   2.776 -0.0856 -0.6390 -0.1190
  542SOL    HW1 2166   0.884   2.249   2.860  0.4347  1.6354 -2.4097
  542SOL    HW2 2167   0.946   2.371   2.795  1.7228  0.8625  0.0155
  542SOL     MW 2168   0.893   2.299   2.789  0.2216 -0.1408 -0.4035
  543SOL     OW 2169   1.377   2.649   2.669  0.4147 -0.3011 -0.0051
  543SOL    HW1 2170   1.394   2.567   2.618  0.0611 -1.0820 -0.3411
  543SOL    HW2 2171   1.470   2.683   2.680  2.5406 -2.4420  0.9634
  543SOL     MW 2172   1.392   2.643   2.664  0.6485 -0.6866  0.0784
  544SOL     OW 2173   0.696   0.082   2.583  0.0937 -0.0709 -0.3343
  544SOL    HW1 2174   0.625   0.028   2.565  1.1957  2.0457  0.7795
  544SOL    HW2 2175   0.751   0.064   2.511  1.3073  0.8532 -1.2129
  544SOL     MW 2176   0.694   0.073   2.571  0.3992  0.3303 -0.3033
  545SOL     OW 2177   1.567   2.207   2.332 -0.3610 -1.0615  0.3168
  545SOL    HW1 2178   1.513   2.142   2.374  0.2643  2.9461 -0.9014
  545SOL    HW2 2179   1.633   2.158   2.289  0.6108 -1.6204 -1.2467
  545SOL     MW 2180   1.568   2.192   2.332 -0.1503 -0.6065 -0.0502
  546SOL     OW 2181   2.973   2.017   0.107 -0.2267  0.0287 -0.1122
  546SOL    HW1 2182   2.950   2.100   0.063  1.3351 -0.1948 -0.5591
  546SOL    HW2 2183   3.056   1.985   0.058  3.0956 -0.5864 -0.6433
  546SOL     MW 2184   2.981   2.024   0.095  0.4177 -0.0820 -0.2412
  547SOL     OW 2185   0.112   2.932   0.056  0.2934 -0.3769 -0.0589
  547SOL    HW1 2186   0.161   2.948  -0.027  0.8447  3.1857 -0.9267
  547SOL    HW2 2187   0.155   2.854   0.095 -0.0102 -1.2885  1.0784
  547SOL     MW 2188   0.124   2.924   0.050  0.3260 -0.0271 -0.0234
  548SOL     OW 2189   0.299   2.490   0.278  1.0906 -0.3899  0.0180
  548SOL    HW1 2190   0.276   2.561   0.218  1.8996  1.0552  1.0108
  548SOL    HW2 2191   0.247   2.416   0.259  0.8344  1.2668 -2.9271
  548SOL     MW 2192   0.289   2.489   0.268  1.1636  0.0193 -0.2396
  549SOL     OW 2193   0.698   1.834   2.087 -0.2561  0.2772  0.8486
  549SOL    HW1 2194   0.705   1.930   2.082  1.2791  4.0076  3.0167
  549SOL    HW2 2195   0.709   1.824   2.184 -0.5528 -1.0144  2.1706
  549SOL     MW 2196   0.701   1.846   2.099 -0.0927  0.5990  1.3091
  550SOL     OW 2197   1.854   1.751   2.528 -0.4148  0.1067  0.4236
  550SOL    HW1 2198   1.815   1.758   2.444 -0.7225  1.5781 -2.1824
  550SOL    HW2 2199   1.821   1.835   2.564 -1.1538 -1.8024  1.8463
  550SOL     MW 2200   1.844   1.763   2.522 -0.5529  0.0490  0.2675
  551SOL     OW 2201   0.852   2.301   0.248  0.0511  0.4716  0.2740
  551SOL    HW1 2202   0.929   2.354   0.226 -0.7564  0.6073  0.2314
  551SOL    HW2 2203   0.820   2.257   0.170  3.4643 -2.3643 -0.0030
  551SOL     MW 2204   0.858   2.302   0.235  0.3949  0.1153  0.2318
  552SOL     OW 2205   1.743   1.754   2.281  0.4030  0.2521  0.0656
  552SOL    HW1 2206   1.661   1.710   2.289 -1.5707 -0.3075  0.0008
  552SOL    HW2 2207   1.778   1.694   2.210 -1.0551 -0.5423  0.0296
  552SOL     MW 2208   1.737   1.740   2.273 -0.0498  0.0735  0.0523
  553SOL     OW 2209   1.210   2.320   1.520 -0.0379  0.3987 -0.0423
  553SOL    HW1 2210   1.247   2.229   1.525  3.2990  1.3134  3.4542
  553SOL    HW2 2211   1.280   2.371   1.476  1.0079 -0.5410 -0.2071
  553SOL     MW 2212   1.224   2.314   1.515  0.5403  0.3954  0.3973
  554SOL     OW 2213   0.536   2.810   2.720  0.2803 -0.2460  0.3188
  554SOL    HW1 2214   0.508   2.902   2.697  0.9209  1.4116 -2.0981
  554SOL    HW2 2215   0.586   2.780   2.648 -0.9193  3.5579  1.4857
  554SOL     MW 2216   0.539   2.819   2.707  0.2066  0.4746  0.1539
  555SOL     OW 2217   0.563   2.372   2.613  0.1247  0.3028 -0.1799
  555SOL    HW1 2218   0.569   2.280   2.631  1.4442 -1.6607  3.3971
  555SOL    HW2 2219   0.646   2.384   2.561 -0.0030  0.7752  0.4677
  555SOL     MW 2220   0.574   2.361   2.609  0.2819  0.1060  0.3775
  556SOL     OW 2221   1.049   1.803   0.136  0.2075  0.4310 -0.2981
  556SOL    HW1 2222   1.069   1.794   0.040  1.0737 -1.8058 -0.3943
  556SOL    HW2 2223   1.123   1.844   0.175 -3.7941  0.7503  0.1267
  556SOL     MW 2224   1.062   1.807   0.128 -0.2062  0.1780 -0.2547
  557SOL     OW 2225   1.040   2.697   0.455 -0.3119 -0.3829  0.2698
  557SOL    HW1 2226   1.074   2.680   0.368 -2.3442  2.0236  0.7592
  557SOL    HW2 2227   0.961   2.755   0.430 -0.7463  3.1592  0.4777
  557SOL     MW 2228   1.034   2.702   0.440 -0.6373  0.4020  0.3618
  558SOL     OW 2229   0.272   2.093   3.086  0.7202  0.5287  0.1677
  558SOL    HW1 2230   0.237   2.013   3.124  0.5529  3.7876 -0.4588
  558SOL    HW2 2231   0.210   2.154   3.116  0.7884  0.0859 -0.0876
  558SOL     MW 2232   0.259   2.091   3.095  0.7071  0.9003  0.0514
  559SOL     OW 2233   1.192   2.281   2.043 -0.0468  0.4612  0.5139
  559SOL    HW1 2234   1.180   2.372   2.064  0.8083  1.2576 -0.0739
  559SOL    HW2 2235   1.166   2.223   2.123 -2.5689 -0.5807  1.1815
  559SOL     MW 2236   1.187   2.285   2.056 -0.2668  0.4288  0.5245
  560SOL     OW 2237   1.935   2.936   0.035  0.5606 -1.0980 -0.0056
  560SOL    HW1 2238   2.014   2.961  -0.016 -0.7892  0.2619 -1.1058
  560SOL    HW2 2239   1.872   2.894  -0.021 -2.0836 -1.4804  0.4284
  560SOL     MW 2240   1.937   2.934   0.021  0.0336 -0.9690 -0.0935
  561SOL     OW 2241   0.473   2.085   0.167 -0.1651  0.1563  0.4016
  561SOL    HW1 2242   0.404   2.089   0.082 -1.3379 -1.0153 -0.4725
  561SOL    HW2 2243   0.508   2.175   0.189 -2.4357 -0.8565 -1.6980
  561SOL     MW 2244   0.468   2.097   0.159 -0.6194 -0.1319  0.0092
  562SOL     OW 2245   0.874   2.145   2.226  0.2644  0.4391 -0.3490
  562SOL    HW1 2246   0.859   2.241   2.234 -0.7042  0.2629 -0.1893
  562SOL    HW2 2247   0.968   2.143   2.244  0.9724  0.2748 -0.8771
  562SOL     MW 2248   0.885   2.158   2.230  0.2300  0.3942 -0.3976
  563SOL     OW 2249   1.222   0.293   0.554 -0.2889 -0.1203  0.3616
  563SOL    HW1 2250   1.167   0.276   0.471 -1.5862 -0.4837  1.0881
  563SOL    HW2 2251   1.264   0.205   0.581 -1.2888 -0.4626  0.0677
  563SOL     MW 2252   1.220   0.279   0.547 -0.5920 -0.2134  0.4187
  564SOL     OW 2253   1.018   2.613   2.342  0.1958  0.0488  0.7586
  564SOL    HW1 2254   1.068   2.609   2.259 -0.3238 -0.3870 -0.3927
  564SOL    HW2 2255   1.083   2.667   2.392 -0.5934 -0.5887 -1.5049
  564SOL     MW 2256   1.033   2.620   2.338  0.0231 -0.0928  0.3080
  565SOL     OW 2257   2.915   2.653   2.649 -0.1926 -0.4210 -1.1562
  565SOL    HW1 2258   2.989   2.698   2.608  2.2379  2.0186 -3.0016
  565SOL    HW2 2259   2.843   2.649   2.575  1.0383  0.2975 -1.9514
  565SOL     MW 2260   2.915   2.658   2.634  0.2905 -0.0043 -1.5046
  566SOL     OW 2261   2.241   1.950   2.347  0.4162 -0.5577  0.6039
  566SOL    HW1 2262   2.273   1.969   2.259  1.9921 -0.4699  1.2801
  566SOL    HW2 2263   2.288   2.017   2.403  2.5411 -0.2570  0.7138
  566SOL     MW 2264   2.251   1.961   2.343  0.9045 -0.5064  0.7077
  567SOL     OW 2265   1.188   2.927   0.084 -0.3522 -0.0721 -0.5099
  567SOL    HW1 2266   1.225   3.013   0.060  0.5201  0.9521 -3.0002
  567SOL    HW2 2267   1.192   2.879  -0.001  1.5902 -1.0580 -0.6492
  567SOL     MW 2268   1.193   2.932   0.070  0.0191 -0.0671 -0.8569
  568SOL     OW 2269   1.658   2.136   2.838  0.1977 -0.1178  0.0444
  568SOL    HW1 2270   1.702   2.202   2.901  2.0531  1.1628 -0.4490
  568SOL    HW2 2271   1.724   2.076   2.803 -2.6825 -0.6372  2.9188
  568SOL     MW 2272   1.673   2.137   2.841  0.0625 -0.0174  0.3585
  569SOL     OW 2273   0.095   2.197   2.434 -0.4523 -0.3731 -0.4193
  569SOL    HW1 2274   0.047   2.248   2.370  2.5172 -2.4892  0.6170
  569SOL    HW2 2275   0.151   2.265   2.472 -0.4970 -0.3385 -0.5528
  569SOL     MW 2276   0.096   2.213   2.431 -0.0664 -0.6477 -0.3002
  570SOL     OW 2277   1.467   0.415   0.491 -0.7981  0.3412  0.4310
  570SOL    HW1 2278   1.383   0.403   0.529 -1.0885  1.6688 -3.0074
  570SOL    HW2 2279   1.536   0.428   0.561 -3.4584 -0.8346 -1.8190
  570SOL     MW 2280   1.465   0.415   0.505 -1.1875  0.3612 -0.3195
  571SOL     OW 2281   1.476   2.397   1.986 -0.0343 -0.2865 -0.1061
  571SOL    HW1 2282   1.514   2.425   2.071  1.3416  2.5768 -1.1398
  571SOL    HW2 2283   1.431   2.315   2.004  1.9061 -1.4287  0.9506
  571SOL     MW 2284   1.475   2.390   2.000  0.4032 -0.0594 -0.1030
  572SOL     OW 2285   0.908   2.577   3.074  0.3979  0.1811  0.0953
  572SOL    HW1 2286   0.892   2.622   2.991 -0.5063  0.7473  0.8470
  572SOL    HW2 2287   0.828   2.578   3.132 -0.0738  2.6943  2.7034
  572SOL     MW 2288   0.895   2.583   3.071  0.2164  0.5874  0.5386
  573SOL     OW 2289   1.114   2.413   0.186 -0.0889 -0.0355  0.4206
  573SOL    HW1 2290   1.180   2.379   0.120  0.9513  0.1001 -1.1643
  573SOL    HW2 2291   1.118   2.507   0.176 -0.6392  3.4990 -1.4095
  573SOL     MW 2292   1.123   2.421   0.176 -0.0243  0.4487 -0.0300
  574SOL     OW 2293   1.161   2.692   0.220 -0.3325 -0.1492  0.6753
  574SOL    HW1 2294   1.244   2.692   0.269 -1.7193  2.4705  0.1732
  574SOL    HW2 2295   1.153   2.780   0.193 -0.1108 -2.8680 -0.7918
  574SOL     MW 2296   1.171   2.704   0.223 -0.4862 -0.1623  0.4155
  575SOL     OW 2297   3.050   2.315   1.859 -0.3868  0.2654  0.7236
  575SOL    HW1 2298   3.064   2.239   1.806  2.9721 -0.7283  4.8940
  575SOL    HW2 2299   3.112   2.387   1.837  0.7956  0.8472 -1.3467
  575SOL     MW 2300   3.060   2.314   1.849  0.2124  0.2110  1.0007
  576SOL     OW 2301   2.825   1.813   2.039  0.2856  0.0136  0.0859
  576SOL    HW1 2302   2.840   1.893   1.989 -0.9003 -0.6396  0.0674
  576SOL    HW2 2303   2.731   1.791   2.035 -0.0881  2.5359 -0.9997
  576SOL     MW 2304   2.815   1.821   2.032  0.0798  0.2602 -0.0598
  577SOL     OW 2305   2.070   0.224   0.067  0.2120 -0.0919  0.2105
  577SOL    HW1 2306   2.004   0.266   0.018  1.1100  0.5545 -0.6723
  577SOL    HW2 2307   2.014   0.192   0.136 -1.4784 -1.6723  3.7854
  577SOL     MW 2308   2.054   0.225   0.070  0.1074 -0.2152  0.5657
  578SOL     OW 2309   2.006   2.121   2.336  0.7114 -0.8168  0.6599
  578SOL    HW1 2310   1.916   2.077   2.315 -0.5597  1.2681  1.4979
  578SOL    HW2 2311   2.069   2.044   2.323  2.1178 -0.3602 -0.3664
  578SOL     MW 2312   2.003   2.105   2.332  0.7293 -0.4815  0.6351
  579SOL     OW 2313   0.842   2.439   2.519  0.2292 -0.2111 -0.0386
  579SOL    HW1 2314   0.844   2.381   2.597  1.0106  1.1894 -0.7349
  579SOL    HW2 2315   0.936   2.468   2.511  1.7671 -0.2687  2.8202
  579SOL     MW 2316   0.855   2.435   2.528  0.5352 -0.0339  0.2467
  580SOL     OW 2317   0.921   2.920   0.027  0.5908  0.4925  0.0547
  580SOL    HW1 2318   1.018   2.935   0.047 -0.6915  1.2307  0.4936
  580SOL    HW2 2319   0.914   2.842  -0.030 -1.0042 -2.3398 -1.7568
  580SOL     MW 2320   0.933   2.911   0.022  0.2112  0.2162 -0.1264
  581SOL     OW 2321   1.093   2.548   1.756  0.4756 -0.4954 -0.5562
  581SOL    HW1 2322   1.161   2.560   1.822 -0.2400  2.6143  1.4393
  581SOL    HW2 2323   1.067   2.456   1.766 -3.8811 -0.6511  3.1970
  581SOL     MW 2324   1.098   2.538   1.766 -0.1937 -0.1057  0.2023
  582SOL     OW 2325   0.003   2.852   2.596  0.1420 -0.2532 -0.5078
  582SOL    HW1 2326   0.005   2.936   2.653 -3.0064 -0.5233 -1.2921
  582SOL    HW2 2327   0.088   2.841   2.554  2.3613  0.5421 -1.0926
  582SOL     MW 2328   0.015   2.862   2.598  0.0194 -0.1839 -0.6884
  583SOL     OW 2329   1.979   2.470   2.669  0.3907 -0.0579 -0.5108
  583SOL    HW1 2330   2.019   2.507   2.592  0.0948 -2.8004 -0.0799
  583SOL    HW2 2331   1.990   2.372   2.666 -1.4320 -2.6266 -2.5628
  583SOL     MW 2332   1.986   2.462   2.658  0.1112 -0.7586 -0.7246
  584SOL     OW 2333   0.155   1.841   2.117  0.5100  0.0642 -0.5036
  584SOL    HW1 2334   0.248   1.846   2.085  1.4464  0.3703  0.1036
  584SOL    HW2 2335   0.150   1.910   2.182 -0.0212  1.8978  0.5977
  584SOL     MW 2336   0.166   1.851   2.121  0.5634  0.3465 -0.2782
  585SOL     OW 2337   1.485   2.563   0.022  1.0920 -0.0649 -0.4387
  585SOL    HW1 2338   1.409   2.581  -0.044 -2.7132 -0.3046  0.8341
  585SOL    HW2 2339   1.459   2.604   0.099 -0.8321 -2.6335  0.7646
  585SOL     MW 2340   1.471   2.571   0.024  0.3361 -0.4355 -0.1120
  586SOL     OW 2341   1.264   2.999   2.372 -0.7607  0.3727  0.0828
  586SOL    HW1 2342   1.357   2.975   2.381  1.6923  1.0541 -1.1866
  586SOL    HW2 2343   1.236   3.026   2.466  0.1381  0.7935  1.1980
  586SOL     MW 2344   1.273   2.999   2.385 -0.3185  0.5182  0.0624
  587SOL     OW 2345   1.203   1.621   2.182  0.4817 -0.1426 -0.8163
  587SOL    HW1 2346   1.188   1.531   2.216  0.1878 -0.5519 -1.1798
  587SOL    HW2 2347   1.208   1.611   2.086  0.1194 -0.8625  1.4589
  587SOL     MW 2348   1.201   1.608   2.174  0.3951 -0.2916 -0.5640
  588SOL     OW 2349   1.393   2.148   2.721  0.6877 -0.4615  0.2905
  588SOL    HW1 2350   1.481   2.135   2.740  1.4254 -2.1721 -2.6912
  588SOL    HW2 2351   1.348   2.156   2.808 -0.4774 -1.8731 -0.3566
  588SOL     MW 2352   1.398   2.147   2.735  0.6313 -0.8734 -0.1883
  589SOL     OW 2353   1.350   2.053   0.064 -0.0044  0.0937  0.7402
  589SOL    HW1 2354   1.362   2.143   0.100  2.1132  2.0017 -1.7402
  589SOL    HW2 2355   1.333   1.993   0.137  1.7809 -0.3060 -0.9129
  589SOL     MW 2356   1.349   2.057   0.078  0.5105  0.2927  0.1948
  590SOL     OW 2357   0.447   2.596   2.237 -0.4872  0.5838  0.1966
  590SOL    HW1 2358   0.382   2.613   2.168  0.5630  0.3786 -1.6910
  590SOL    HW2 2359   0.515   2.663   2.227  1.1767 -1.0647  0.3781
  590SOL     MW 2360   0.448   2.607   2.227 -0.1291  0.3392 -0.0285
  591SOL     OW 2361   2.279   0.713   3.058  0.6358 -0.0803 -0.0171
  591SOL    HW1 2362   2.190   0.732   3.034 -0.5445 -1.3811  1.0102
  591SOL    HW2 2363   2.326   0.792   3.036 -0.3280 -0.9712 -0.8242
  591SOL     MW 2364   2.274   0.726   3.052  0.3529 -0.3694  0.0120
  592SOL     OW 2365   1.842   2.968   0.849 -0.0171  1.1545  0.2954
  592SOL    HW1 2366   1.868   3.020   0.767  1.3914 -2.2341 -3.2295
  592SOL    HW2 2367   1.877   2.875   0.840 -1.9847 -1.6846 -1.7072
  592SOL     MW 2368   1.850   2.962   0.837 -0.0909  0.3328 -0.4339
  593SOL     OW 2369   1.919   0.798   0.838  0.0550  0.4339  0.0561
  593SOL    HW1 2370   1.855   0.783   0.767 -2.9173  0.1346 -1.2585
  593SOL    HW2 2371   1.944   0.712   0.874  1.3712  1.7879  0.6095
  593SOL     MW 2372   1.914   0.785   0.833 -0.1635  0.5730 -0.0444
  594SOL     OW 2373   2.735   1.141   1.366 -0.4322 -0.8224 -0.4998
  594SOL    HW1 2374   2.820   1.190   1.379  2.6191 -1.3401  1.9145
  594SOL    HW2 2375   2.746   1.103   1.275 -2.6747 -0.6782 -1.8627
  594SOL     MW 2376   2.747   1.142   1.356 -0.3255 -0.8717 -0.3611
  595SOL     OW 2377   0.436   0.950   0.730  0.1924 -0.4926 -0.4569
  595SOL    HW1 2378   0.481   1.010   0.666  2.0506 -1.3296  2.1837
  595SOL    HW2 2379   0.430   1.013   0.798  1.1807 -1.6659  0.5665
  595SOL     MW 2380   0.441   0.966   0.731  0.5680 -0.7579  0.0265
  596SOL     OW 2381   2.451   1.348   0.585  0.3870 -0.8198 -0.1961
  596SOL    HW1 2382   2.463   1.434   0.547 -2.4670  0.6937 -1.3769
  596SOL    HW2 2383   2.539   1.326   0.618  1.1427  2.8221 -2.8946
  596SOL     MW 2384   2.464   1.356   0.584  0.1102 -0.1396 -0.7080
  597SOL     OW 2385   2.179   0.668   1.721  0.6255  0.4106  0.2375
  597SOL    HW1 2386   2.252   0.619   1.755 -0.3563  0.4923  1.4189
  597SOL    HW2 2387   2.150   0.623   1.639 -1.0809  1.4286  1.6928
  597SOL     MW 2388   2.184   0.656   1.715  0.2708  0.5557  0.5854
  598SOL     OW 2389   2.612   1.015   2.870 -0.5311  0.1504 -0.1160
  598SOL    HW1 2390   2.624   0.973   2.781 -2.7637  0.7556  3.3444
  598SOL    HW2 2391   2.703   1.049   2.890  1.3324 -2.3974  0.4749
  598SOL     MW 2392   2.626   1.014   2.861 -0.5798 -0.1059  0.4186
  599SOL     OW 2393   2.913   0.372   2.007  0.1891 -0.1521  0.6030
  599SOL    HW1 2394   2.888   0.378   2.100  0.5426  2.9671 -1.0988
  599SOL    HW2 2395   2.975   0.441   1.985  1.6348 -3.2926 -0.3389
  599SOL     MW 2396   2.918   0.382   2.017  0.4265 -0.1549  0.2542
  600SOL     OW 2397   1.884   1.709   0.887  0.4198  0.1202  0.1401
  600SOL    HW1 2398   1.911   1.765   0.957 -1.0291  2.7713 -0.4390
  600SOL    HW2 2399   1.793   1.736   0.866  4.3215 -0.3478 -2.3681
  600SOL     MW 2400   1.876   1.720   0.894  0.7434  0.4082 -0.2672
  601SOL     OW 2401   2.549   0.803   0.875  0.2043 -0.0470 -0.1251
  601SOL    HW1 2402   2.567   0.806   0.972  0.5258 -0.1513  0.0934
  601SOL    HW2 2403   2.490   0.723   0.868  1.2684  1.4420 -0.9235
  601SOL     MW 2404   2.544   0.793   0.887  0.3871  0.1357 -0.2016
  602SOL     OW 2405   2.308   1.936   0.681  0.3019 -0.0382  0.4294
  602SOL    HW1 2406   2.243   1.890   0.737 -1.3962 -0.1562 -1.6962
  602SOL    HW2 2407   2.255   1.996   0.628 -1.7132 -1.3879 -1.5041
  602SOL     MW 2408   2.292   1.938   0.681 -0.1880 -0.2319 -0.1061
  603SOL     OW 2409   2.988   1.398   1.813 -0.5053  0.1179 -0.6685
  603SOL    HW1 2410   3.067   1.421   1.866  0.4795  0.7940  0.6519
  603SOL    HW2 2411   2.978   1.301   1.816 -1.1627  2.1872 -0.3372
  603SOL     MW 2412   2.997   1.388   1.821 -0.4621  0.4801 -0.4506
  604SOL     OW 2413   2.099   1.547   0.455  0.4947  0.4159 -0.1678
  604SOL    HW1 2414   2.105   1.468   0.511  0.1246  2.5377  0.4433
  604SOL    HW2 2415   2.052   1.614   0.507  0.9541  0.8493  0.6261
  604SOL     MW 2416   2.094   1.545   0.469  0.5065  0.7530  0.0176
  605SOL     OW 2417   2.655   1.573   0.873 -0.4688  0.0319 -0.4540
  605SOL    HW1 2418   2.585   1.606   0.823  2.5926  0.7727  1.4180
  605SOL    HW2 2419   2.615   1.531   0.947  1.3198 -0.8286  2.3764
  605SOL     MW 2420   2.640   1.572   0.876  0.1711  0.0161  0.1665
  606SOL     OW 2421   2.536   1.757   2.005  0.1236  0.1737  0.1457
  606SOL    HW1 2422   2.444   1.786   2.010 -1.5990  2.2036 -0.5122
  606SOL    HW2 2423   2.526   1.696   1.928  2.4920 -1.0726 -1.4205
  606SOL     MW 2424   2.523   1.753   1.996  0.2088  0.2771 -0.1477
  607SOL     OW 2425   2.346   1.013   3.007  0.5017 -0.4665 -0.4823
  607SOL    HW1 2426   2.427   0.994   2.958  1.3011  1.4168 -0.7174
  607SOL    HW2 2427   2.365   1.031   3.102 -1.6297  0.8564  2.1401
  607SOL     MW 2428   2.360   1.013   3.013  0.3260 -0.0435 -0.1673
  608SOL     OW 2429   1.895   0.279   0.582  0.6379  0.4295 -0.2644
  608SOL    HW1 2430   1.919   0.326   0.499  0.7893  0.8197 -1.4347
  608SOL    HW2 2431   1.849   0.194   0.551 -0.2682 -2.8230 -0.2246
  608SOL     MW 2432   1.892   0.274   0.567  0.5383  0.0518 -0.4135
  609SOL     OW 2433   2.153   1.924   3.022  0.6195  0.7505  0.6914
  609SOL    HW1 2434   2.074   1.882   2.980 -1.5694  0.9103  2.9571
  609SOL    HW2 2435   2.156   1.909   3.118  0.5021  0.7961 -0.2420
  609SOL     MW 2436   2.143   1.917   3.029  0.3152  0.7776  0.8671
  610SOL     OW 2437   1.856   1.083   1.338 -0.0751 -0.3879 -0.6337
  610SOL    HW1 2438   1.873   1.032   1.256  0.5314  0.2608 -0.5637
  610SOL    HW2 2439   1.791   1.032   1.382  0.9118 -3.2153 -1.3185
  610SOL     MW 2440   1.850   1.070   1.333  0.1351 -0.6753 -0.7148
  611SOL     OW 2441   2.448   1.666   0.715  0.0247 -0.3846  0.1084
  611SOL    HW1 2442   2.395   1.746   0.728  1.4559 -0.3682 -0.5345
  611SOL    HW2 2443   2.469   1.651   0.619  3.0088 -3.2992 -1.5441
  611SOL     MW 2444   2.444   1.674   0.704  0.6072 -0.7670 -0.1944
  612SOL     OW 2445   2.787   2.819   0.454 -0.1223  0.7262  0.0571
  612SOL    HW1 2446   2.827   2.865   0.532  0.9500 -0.0096 -1.7513
  612SOL    HW2 2447   2.867   2.801   0.401 -0.8885  3.2739 -1.3329
  612SOL     MW 2448   2.803   2.823   0.458 -0.0819  0.9653 -0.3649
  613SOL     OW 2449   1.593   1.038   1.123 -0.6885  0.6092 -0.1373
  613SOL    HW1 2450   1.580   1.120   1.175 -0.6838 -0.2735 -1.1479
  613SOL    HW2 2451   1.683   1.018   1.131 -0.7323  2.0794  1.1274
  613SOL     MW 2452   1.603   1.046   1.131 -0.6937  0.6867 -0.1037
  614SOL     OW 2453   2.047   0.545   1.492  0.1747  0.2573  0.1148
  614SOL    HW1 2454   2.041   0.470   1.554 -4.2334 -0.5396  0.9205
  614SOL    HW2 2455   2.011   0.523   1.406  0.0344 -0.5564 -1.0820
  614SOL     MW 2456   2.042   0.532   1.489 -0.4254  0.0448  0.0632
  615SOL     OW 2457   2.272   0.845   0.187  0.6363  0.9000  0.4264
  615SOL    HW1 2458   2.312   0.813   0.263  1.5093  3.1533  0.4578
  615SOL    HW2 2459   2.294   0.780   0.120 -1.3281  1.6485  1.1343
  615SOL     MW 2460   2.281   0.832   0.188  0.4923  1.2960  0.5240
  616SOL     OW 2461   2.563   0.430   1.604 -0.6004 -0.2627  0.4484
  616SOL    HW1 2462   2.505   0.387   1.541 -0.5855  0.9543  0.6834
  616SOL    HW2 2463   2.625   0.477   1.541 -0.8786 -0.5891 -0.4619
  616SOL     MW 2464   2.563   0.431   1.588 -0.6352 -0.1452  0.3593
  617SOL     OW 2465   2.875   0.555   1.733 -0.4261  0.6389 -0.3232
  617SOL    HW1 2466   2.801   0.561   1.796 -0.4798 -0.1359 -2.3224
  617SOL    HW2 2467   2.876   0.470   1.686  1.7397  0.8310 -1.0756
  617SOL     MW 2468   2.865   0.544   1.735 -0.1474  0.5620 -0.6863
  618SOL     OW 2469   2.650   0.367   1.909  0.1809 -0.2693 -0.3565
  618SOL    HW1 2470   2.638   0.463   1.920 -0.0963  0.4140 -2.6014
  618SOL    HW2 2471   2.744   0.365   1.927 -0.7697  0.3787 -0.2023
  618SOL     MW 2472   2.661   0.379   1.913  0.0189 -0.0936 -0.6323
  619SOL     OW 2473   2.592   0.844   0.153 -0.3420 -0.9295 -0.2458
  619SOL    HW1 2474   2.680   0.864   0.191  0.7817  1.5495  3.2127
  619SOL    HW2 2475   2.550   0.784   0.216 -2.0690 -2.7459  0.1832
  619SOL     MW 2476   2.598   0.839   0.166 -0.4216 -0.8421  0.2671
  620SOL     OW 2477   2.284   1.091   0.934  0.1232  0.3425  0.3186
  620SOL    HW1 2478   2.362   1.099   0.882  0.0913 -2.3056 -0.9939
  620SOL    HW2 2479   2.255   0.998   0.934 -2.3388 -1.0564  2.2779
  620SOL     MW 2480   2.290   1.080   0.927 -0.2059 -0.1915  0.4040
  621SOL     OW 2481   1.466   2.122   1.989  0.0071  0.1385  0.6157
  621SOL    HW1 2482   1.408   2.049   2.003  0.7341  0.6150 -0.8234
  621SOL    HW2 2483   1.542   2.097   2.042  0.5423  0.4572 -2.0204
  621SOL     MW 2484   1.469   2.109   1.998  0.1736  0.2434  0.0780
  622SOL     OW 2485   2.613   0.151   0.191  0.0368 -0.4462  0.3355
  622SOL    HW1 2486   2.701   0.180   0.215  1.0847  2.8481 -0.1820
  622SOL    HW2 2487   2.620   0.057   0.150 -1.8458  1.2773 -1.0607
  622SOL     MW 2488   2.625   0.143   0.189 -0.0734  0.2159  0.0830
  623SOL     OW 2489   2.352   2.773   0.841  0.1006 -0.1589  0.5637
  623SOL    HW1 2490   2.411   2.847   0.837 -0.6971  0.8623  0.7455
  623SOL    HW2 2491   2.284   2.799   0.902 -0.7917 -1.7500  0.0272
  623SOL     MW 2492   2.351   2.787   0.849 -0.1224 -0.2341  0.5169
  624SOL     OW 2493   2.241   1.653   3.039  0.0536  0.0802  0.2971
  624SOL    HW1 2494   2.160   1.625   3.079  2.8939  2.7688  1.0758
  624SOL    HW2 2495   2.230   1.746   3.023  0.3321 -0.9076  0.0387
  624SOL     MW 2496   2.229   1.661   3.042  0.4651  0.3046  0.3658
  625SOL     OW 2497   2.154   1.910   1.062 -0.8314  0.4961 -0.0973
  625SOL    HW1 2498   2.215   1.885   1.129  0.8643  1.4107 -4.1068
  625SOL    HW2 2499   2.163   1.848   0.991  1.4714  2.6018 -1.5232
  625SOL     MW 2500   2.163   1.898   1.061 -0.3038  0.8946 -0.8144
  626SOL     OW 2501   0.159   1.537   2.373 -0.2428  0.1854  0.0788
  626SOL    HW1 2502   0.119   1.459   2.328  0.7332  2.7290 -2.2937
  626SOL    HW2 2503   0.090   1.573   2.426 -0.7594 -4.5786 -0.5759
  626SOL     MW 2504   0.144   1.532   2.374 -0.1822 -0.1075 -0.3206
  627SOL     OW 2505   2.445   0.814   2.564  0.0564 -0.2629  0.1270
  627SOL    HW1 2506   2.383   0.893   2.558  1.0839  0.9204  3.5533
  627SOL    HW2 2507   2.408   0.751   2.499  1.8466  0.2735  0.1745
  627SOL     MW 2508   2.432   0.816   2.555  0.4281 -0.0360  0.5853
  628SOL     OW 2509   2.286   1.370   1.381 -0.2407 -0.3329 -0.7711
  628SOL    HW1 2510   2.264   1.311   1.312  1.3425 -0.3812 -1.5808
  628SOL    HW2 2511   2.383   1.356   1.399  1.3285 -1.8557  0.6268
  628SOL     MW 2512   2.296   1.360   1.374  0.1753 -0.5402 -0.6935
  629SOL     OW 2513   1.993   0.542   1.219  0.1383 -0.2217  0.2905
  629SOL    HW1 2514   2.056   0.619   1.218 -0.4460 -1.2493  0.2243
  629SOL    HW2 2515   1.908   0.585   1.237  2.1041  1.8127 -2.0334
  629SOL     MW 2516   1.990   0.558   1.221  0.3206 -0.0888 -0.0248
  630SOL     OW 2517   2.531   1.804   3.062 -0.2487  0.1604 -0.0660
  630SOL    HW1 2518   2.475   1.876   3.044  2.7987 -0.6394  0.3840
  630SOL    HW2 2519   2.474   1.737   3.088  1.3931  1.4047 -1.9858
  630SOL     MW 2520   2.516   1.805   3.063  0.3700  0.2191 -0.2599
  631SOL     OW 2521   1.978   1.795   1.587 -0.1091  0.0815 -0.3024
  631SOL    HW1 2522   1.971   1.701   1.622 -1.7921  0.4926  2.5595
  631SOL    HW2 2523   1.959   1.771   1.492 -1.1362 -1.0201 -2.6908
  631SOL     MW 2524   1.975   1.779   1.579 -0.4667 -0.0096 -0.2399
  632SOL     OW 2525   0.153   2.087   1.576 -0.4951 -0.2357 -0.2486
  632SOL    HW1 2526   0.070   2.085   1.616 -2.1878  2.8712 -1.2750
  632SOL    HW2 2527   0.169   1.998   1.530 -1.9041 -0.0353 -1.9110
  632SOL     MW 2528   0.144   2.075   1.575 -0.9044  0.2006 -0.6033
  633SOL     OW 2529   2.426   0.687   0.354  0.1021  0.0364 -0.0197
  633SOL    HW1 2530   2.498   0.667   0.414 -1.2043 -1.8218  3.1680
  633SOL    HW2 2531   2.371   0.609   0.367  0.6886 -1.3121  1.4988
  633SOL     MW 2532   2.429   0.674   0.363  0.0071 -0.3867  0.6012
  634SOL     OW 2533   2.646   3.079   0.635  0.1182  0.0547  0.5899
  634SOL    HW1 2534   2.688   3.164   0.623 -0.9838 -0.2539 -0.1273
  634SOL    HW2 2535   2.589   3.063   0.560 -1.3960  0.6725 -1.0973
  634SOL     MW 2536   2.644   3.088   0.624 -0.2270  0.0955  0.2727
  635SOL     OW 2537   2.610   0.118   1.801 -1.1045 -0.4486  0.0234
  635SOL    HW1 2538   2.688   0.095   1.752 -1.1483  0.7297 -0.2409
  635SOL    HW2 2539   2.617   0.212   1.816  1.3548 -0.7450 -3.2413
  635SOL     MW 2540   2.621   0.127   1.796 -0.7858 -0.3322 -0.4423
  636SOL     OW 2541   2.950   1.649   0.969  0.2092 -0.1427 -0.4073
  636SOL    HW1 2542   2.856   1.668   0.970 -0.6018  1.6423  2.5351
  636SOL    HW2 2543   2.995   1.701   1.043  1.5974  2.2313 -0.6028
  636SOL     MW 2544   2.943   1.659   0.979  0.2853  0.4061 -0.0449
  637SOL     OW 2545   2.900   1.487   0.691 -0.1895 -0.2849 -0.2771
  637SOL    HW1 2546   2.911   1.562   0.753 -0.4452  2.7689 -0.2209
  637SOL    HW2 2547   2.811   1.462   0.710 -0.9928  0.8900 -0.7694
  637SOL     MW 2548   2.890   1.493   0.701 -0.3292  0.2730 -0.3346
  638SOL     OW 2549   2.647   0.655   0.495 -0.1418 -0.4286 -0.1024
  638SOL    HW1 2550   2.741   0.642   0.477 -1.5500  3.0222  0.1883
  638SOL    HW2 2551   2.631   0.625   0.584  1.3637  1.7957  0.7255
  638SOL     MW 2552   2.658   0.649   0.504 -0.1289  0.3202  0.0452
  639SOL     OW 2553   1.826   0.010   0.575  0.4079  0.1983 -1.0531
  639SOL    HW1 2554   1.736   0.039   0.552  3.1715  1.1939 -2.4877
  639SOL    HW2 2555   1.836  -0.057   0.508 -1.2278 -0.9875  0.2862
  639SOL     MW 2556   1.815   0.005   0.563  0.5567  0.1732 -1.0656
  640SOL     OW 2557   0.369   1.367   0.089 -0.4321 -0.1909 -0.1783
  640SOL    HW1 2558   0.391   1.404   0.000  0.8999 -1.0705 -2.7568
  640SOL    HW2 2559   0.332   1.280   0.064 -1.4766  1.4330 -0.1560
  640SOL     MW 2560   0.367   1.360   0.074 -0.3942 -0.0927 -0.5155
  641SOL     OW 2561   2.238   0.449   0.374  0.2078  0.1323  0.3302
  641SOL    HW1 2562   2.270   0.434   0.284 -0.5044 -1.5988 -0.1102
  641SOL    HW2 2563   2.288   0.392   0.426 -0.0458  1.3998 -0.2678
  641SOL     MW 2564   2.249   0.439   0.369  0.0804  0.0712  0.1932
  642SOL     OW 2565   3.096   3.088   0.561 -0.0150 -0.2735 -0.0745
  642SOL    HW1 2566   3.092   3.184   0.541  0.1772  1.7291  2.0312
  642SOL    HW2 2567   3.013   3.067   0.609 -0.0059 -3.5139  1.7086
  642SOL     MW 2568   3.084   3.098   0.565  0.0116 -0.4368  0.4386
  643SOL     OW 2569   2.016   0.344   1.661  0.1375  0.2093 -0.2995
  643SOL    HW1 2570   2.083   0.354   1.729 -0.2647 -0.7071  0.8381
  643SOL    HW2 2571   2.041   0.267   1.603  2.9939  0.0897  2.2925
  643SOL     MW 2572   2.028   0.335   1.662  0.4613  0.0726  0.1926
  644SOL     OW 2573   2.716   1.852   1.003  0.1343  0.6706  0.5205
  644SOL    HW1 2574   2.676   1.796   1.068  0.7024 -2.2026  0.9412
  644SOL    HW2 2575   2.645   1.907   0.965  1.0844  0.4710  1.3674
  644SOL     MW 2576   2.702   1.852   1.007  0.3346  0.2652  0.6878
  645SOL     OW 2577   2.812   0.887   0.652  0.0858  0.3382 -0.1827
  645SOL    HW1 2578   2.880   0.867   0.713  0.1861 -0.9624 -3.0430
  645SOL    HW2 2579   2.754   0.810   0.649  2.1821 -0.1809  0.7371
  645SOL     MW 2580   2.813   0.874   0.659  0.3756  0.0981 -0.4387
  646SOL     OW 2581   0.177   2.256   0.849 -0.0644 -0.0988 -0.4183
  646SOL    HW1 2582   0.196   2.163   0.837 -2.6296 -0.2066 -2.5587
  646SOL    HW2 2583   0.131   2.277   0.766  1.5721 -2.3239  0.3849
  646SOL     MW 2584   0.174   2.246   0.836 -0.1869 -0.4066 -0.5947
  647SOL     OW 2585   2.727   0.544   2.977 -0.0932  0.1621  0.0143
  647SOL    HW1 2586   2.657   0.504   3.022 -1.9221  1.3073  0.3701
  647SOL    HW2 2587   2.699   0.630   2.970 -0.4766 -1.2404  0.0372
  647SOL     MW 2588   2.714   0.550   2.982 -0.3851  0.1281  0.0643
  648SOL     OW 2589   2.216   0.717   1.183 -0.4043  0.4854 -0.7561
  648SOL    HW1 2590   2.236   0.741   1.096 -1.3247 -1.5047  0.8667
  648SOL    HW2 2591   2.220   0.795   1.238  0.7353  0.4269  0.6186
  648SOL     MW 2592   2.219   0.731   1.179 -0.3754  0.2151 -0.3606
  649SOL     OW 2593   2.387   2.728   1.250  0.3190  0.1350 -0.0614
  649SOL    HW1 2594   2.477   2.766   1.250 -0.3775  0.6226 -1.0579
  649SOL    HW2 2595   2.394   2.633   1.228 -0.9449  1.4592  3.5979
  649SOL     MW 2596   2.400   2.720   1.247  0.0603  0.3740  0.2899
  650SOL     OW 2597   2.802   0.241   0.633  0.1651  0.1084  0.6180
  650SOL    HW1 2598   2.850   0.253   0.712  1.5873 -1.5987 -1.1757
  650SOL    HW2 2599   2.868   0.274   0.567  0.4527  1.4110 -1.1391
  650SOL     MW 2600   2.817   0.247   0.634  0.3907  0.0550  0.1495
  651SOL     OW 2601   2.980   0.348   0.841  0.6420  0.4058  0.2566
  651SOL    HW1 2602   3.046   0.409   0.796  0.2558 -0.0918 -1.9026
  651SOL    HW2 2603   2.929   0.415   0.889  1.5768  0.5037 -1.0392
  651SOL     MW 2604   2.982   0.365   0.842  0.7144  0.3530 -0.1993
  652SOL     OW 2605   2.386   1.413   2.971  0.2317 -0.4990  0.2384
  652SOL    HW1 2606   2.450   1.426   2.895 -2.3792 -2.0182 -0.7927
  652SOL    HW2 2607   2.335   1.498   2.969  1.0247 -0.9410  0.2305
  652SOL     MW 2608   2.387   1.426   2.960 -0.0081 -0.7578  0.1013
  653SOL     OW 2609   1.978   0.432   0.356 -0.2564 -0.3311 -0.1428
  653SOL    HW1 2610   1.946   0.363   0.298 -1.7461  2.2401 -0.7011
  653SOL    HW2 2611   2.072   0.423   0.369 -0.3636  0.0464 -0.4712
  653SOL     MW 2612   1.986   0.421   0.350 -0.4671  0.0580 -0.2598
  654SOL     OW 2613   2.470   1.036   0.703 -0.1507 -0.0088  0.0047
  654SOL    HW1 2614   2.406   1.019   0.636  0.0340 -0.1341  0.6679
  654SOL    HW2 2615   2.512   0.954   0.726  0.2530  3.3756  2.7908
  654SOL     MW 2616   2.467   1.023   0.697 -0.0731  0.4212  0.4598
  655SOL     OW 2617   3.015   0.919   0.428 -0.2523  0.3551 -0.5996
  655SOL    HW1 2618   3.024   0.964   0.511  0.1967 -0.8502  0.6010
  655SOL    HW2 2619   2.970   0.832   0.451 -0.8290  0.3436  2.3074
  655SOL     MW 2620   3.010   0.914   0.442 -0.2691  0.1946 -0.0576
  656SOL     OW 2621   1.941   2.766   1.227  0.3984 -0.4473  0.0972
  656SOL    HW1 2622   1.938   2.826   1.301 -1.5490 -2.6645 -1.2809
  656SOL    HW2 2623   1.966   2.690   1.272 -2.8400  2.7308  0.8601
  656SOL     MW 2624   1.944   2.764   1.243 -0.2858 -0.3205  0.0161
  657SOL     OW 2625   0.247   1.515   1.242  0.0006 -0.0227  0.2169
  657SOL    HW1 2626   0.155   1.521   1.258 -0.5880  1.4892 -0.6942
  657SOL    HW2 2627   0.264   1.557   1.155 -1.1129  1.9149 -0.5062
  657SOL     MW 2628   0.237   1.522   1.233 -0.2240  0.4324  0.0013
  658SOL     OW 2629   2.697   1.383   0.243 -0.2829  0.3927  0.2435
  658SOL    HW1 2630   2.633   1.329   0.292 -1.0433  0.2143  2.0651
  658SOL    HW2 2631   2.738   1.448   0.295  0.8736  0.0978 -1.2038
  658SOL     MW 2632   2.694   1.384   0.256 -0.2306  0.3302  0.2929
  659SOL     OW 2633   2.259   1.558   1.021  0.7299 -0.2157  0.6046
  659SOL    HW1 2634   2.336   1.502   1.045 -0.5793  2.4388 -0.7465
  659SOL    HW2 2635   2.229   1.575   1.106 -0.6795 -3.4352  0.3115
  659SOL     MW 2636   2.265   1.553   1.035  0.3712 -0.2902  0.3877
  660SOL     OW 2637   2.049   1.543   1.697 -0.0573  0.0198 -0.9171
  660SOL    HW1 2638   2.072   1.550   1.795  1.8248 -1.4122  0.0804
  660SOL    HW2 2639   2.003   1.461   1.696 -1.3925  2.6073 -1.3073
  660SOL     MW 2640   2.046   1.533   1.710  0.0148  0.1723 -0.8370
  661SOL     OW 2641   2.371   1.094   0.172 -0.1947 -0.8698  0.7110
  661SOL    HW1 2642   2.442   1.123   0.224  0.8944 -0.5671 -3.2984
  661SOL    HW2 2643   2.355   1.000   0.198  0.7769 -1.0116 -0.0392
  661SOL     MW 2644   2.378   1.085   0.182  0.0772 -0.8486  0.0831
  662SOL     OW 2645   2.529   2.983   0.869 -0.5594 -0.3055 -0.3935
  662SOL    HW1 2646   2.468   3.037   0.925  1.3897 -0.9472  0.9689
  662SOL    HW2 2647   2.552   3.037   0.795 -0.6916  0.2680 -0.5756
  662SOL     MW 2648   2.524   2.998   0.867 -0.3197 -0.3145 -0.2377
  663SOL     OW 2649   2.818   1.579   0.438 -0.4925  0.0930  0.0046
  663SOL    HW1 2650   2.895   1.609   0.388  2.4796 -1.2565 -1.3167
  663SOL    HW2 2651   2.849   1.559   0.524 -0.6504  0.1641 -2.7861
  663SOL     MW 2652   2.832   1.581   0.443 -0.1212 -0.0757 -0.5379
  664SOL     OW 2653   2.494   1.585   1.553  0.2530  0.0852 -0.0197
  664SOL    HW1 2654   2.463   1.677   1.552  0.3913 -0.9220  0.2636
  664SOL    HW2 2655   2.421   1.537   1.593 -1.4730  0.2349  0.5027
  664SOL     MW 2656   2.480   1.591   1.558  0.0435 -0.0279  0.0866
  665SOL     OW 2657   2.859   0.799   2.036  0.3396  0.2856  0.3496
  665SOL    HW1 2658   2.836   0.837   1.951 -0.2580 -2.1181  0.4300
  665SOL    HW2 2659   2.936   0.748   2.023  0.9668 -0.1109  1.2071
  665SOL     MW 2660   2.866   0.798   2.023  0.3435 -0.0839  0.4733
  666SOL     OW 2661   2.790   3.024   1.687  0.3137  0.3923 -0.1624
  666SOL    HW1 2662   2.795   3.015   1.591 -1.5679 -1.6131 -0.0943
  666SOL    HW2 2663   2.742   2.949   1.718 -0.7689 -1.2093 -0.3812
  666SOL     MW 2664   2.784   3.013   1.679 -0.0774 -0.0836 -0.1822
  667SOL     OW 2665   1.961   2.713   1.605  0.2175  0.4568  0.4249
  667SOL    HW1 2666   1.975   2.659   1.684  2.1096 -0.1520 -1.7798
  667SOL    HW2 2667   2.030   2.783   1.605 -2.6867  0.9875  1.5171
  667SOL     MW 2668   1.972   2.715   1.615  0.0840  0.4465  0.2781
  668SOL     OW 2669   2.739   0.631   0.798 -0.2841 -0.1512 -0.3703
  668SOL    HW1 2670   2.812   0.646   0.863 -1.6729 -0.6003  1.1560
  668SOL    HW2 2671   2.667   0.690   0.820  0.8916 -4.0335 -2.4215
  668SOL     MW 2672   2.739   0.641   0.810 -0.3122 -0.7226 -0.4395
  669SOL     OW 2673   0.163   0.890   0.732  0.1470 -0.1995  0.1133
  669SOL    HW1 2674   0.143   0.984   0.737  1.3903 -0.9251 -0.7683
  669SOL    HW2 2675   0.263   0.889   0.752  3.6216 -0.1147  0.8397
  669SOL     MW 2676   0.174   0.902   0.735  0.7695 -0.2841  0.0928
  670SOL     OW 2677   2.931   0.285   0.221  0.2863  0.0795 -0.3679
  670SOL    HW1 2678   2.937   0.231   0.142  1.4126 -1.0904 -1.2324
  670SOL    HW2 2679   2.931   0.377   0.183  0.5279  1.0086 -1.9545
  670SOL     MW 2680   2.931   0.290   0.206  0.4668  0.0477 -0.6913
  671SOL     OW 2681   2.174  -0.002   1.610 -0.0393  0.0291 -0.2615
  671SOL    HW1 2682   2.135   0.062   1.550 -0.3623 -2.4507  1.3608
  671SOL    HW2 2683   2.088  -0.010   1.656  0.6585 -0.6636 -0.0573
  671SOL     MW 2684   2.157   0.005   1.608  0.0102 -0.3894 -0.0205
  672SOL     OW 2685   1.874   1.702   1.343 -0.2368 -0.0233 -0.1797
  672SOL    HW1 2686   1.786   1.704   1.359 -0.9522 -0.3319  0.6807
  672SOL    HW2 2687   1.880   1.773   1.279  1.0310 -0.0212  1.6944
  672SOL     MW 2688   1.863   1.712   1.336 -0.1639 -0.0637  0.1811
  673SOL     OW 2689   2.794   1.104   0.471  0.1096 -0.2027  0.6853
  673SOL    HW1 2690   2.808   1.031   0.538  2.4604  0.2315  0.2867
  673SOL    HW2 2691   2.872   1.172   0.478  0.1857  0.9941 -0.5517
  673SOL     MW 2692   2.806   1.103   0.481  0.4298  0.0125  0.4695
  674SOL     OW 2693   2.508   0.059   1.287 -0.5487  0.8331 -0.0159
  674SOL    HW1 2694   2.455   0.086   1.209  1.7980  1.0210  2.3752
  674SOL    HW2 2695   2.513  -0.039   1.288  0.1016 -1.0546 -1.1574
  674SOL     MW 2696   2.502   0.050   1.277 -0.1533  0.6088  0.1490
  675SOL     OW 2697   2.966   1.054   1.112  0.1297 -0.3219  0.5205
  675SOL    HW1 2698   3.017   1.046   1.195  0.0326 -0.2815 -1.8129
  675SOL    HW2 2699   3.027   1.088   1.047  1.3372 -2.3376 -1.1472
  675SOL     MW 2700   2.980   1.057   1.114  0.2762 -0.5825 -0.0074
  676SOL     OW 2701   2.788   1.471   1.623 -0.1876  0.3180 -0.0540
  676SOL    HW1 2702   2.742   1.393   1.610 -0.2893  2.9817  3.5909
  676SOL    HW2 2703   2.862   1.456   1.686  2.1001  1.6037 -2.5416
  676SOL     MW 2704   2.791   1.459   1.630  0.1008  0.8391  0.0987
  677SOL     OW 2705   2.445   0.818   1.885 -0.6903 -0.1440  0.1089
  677SOL    HW1 2706   2.405   0.822   1.799 -1.4669 -1.9880  3.0243
  677SOL    HW2 2707   2.378   0.823   1.947  0.5563 -1.1064 -1.7319
  677SOL     MW 2708   2.431   0.819   1.882 -0.6283 -0.5142  0.2507
  678SOL     OW 2709   2.509   1.582   0.457  0.9983  0.2370 -0.0566
  678SOL    HW1 2710   2.470   1.652   0.410  2.1361  1.6311  3.1626
  678SOL    HW2 2711   2.598   1.592   0.435 -0.2225 -0.4353 -2.8595
  678SOL     MW 2712   2.516   1.593   0.448  0.9874  0.3322 -0.0017
  679SOL     OW 2713   2.378   0.491   1.110 -0.9431 -0.2257 -0.5176
  679SOL    HW1 2714   2.311   0.421   1.112 -1.0362 -2.8159 -1.6186
  679SOL    HW2 2715   2.341   0.549   1.174  0.4301 -1.4787  0.3690
  679SOL     MW 2716   2.364   0.489   1.118 -0.7742 -0.7328 -0.5459
  680SOL     OW 2717   2.397   0.278   1.442  0.0494  0.0480 -0.3636
  680SOL    HW1 2718   2.371   0.233   1.525  0.2865 -3.3354 -1.1230
  680SOL    HW2 2719   2.422   0.200   1.390 -4.2787  0.3890  2.0661
  680SOL     MW 2720   2.397   0.262   1.446 -0.4903 -0.3534 -0.1432
  681SOL     OW 2721   0.297   0.531   1.569  0.0353  0.4970  0.2760
  681SOL    HW1 2722   0.287   0.448   1.610 -2.5712  0.8447 -1.1344
  681SOL    HW2 2723   0.393   0.538   1.573 -1.6114 -0.0602  0.6993
  681SOL     MW 2724   0.309   0.521   1.575 -0.5259  0.4694  0.1457
  682SOL     OW 2725   0.141   3.011   1.484  0.5917 -0.2958  0.6581
  682SOL    HW1 2726   0.123   3.097   1.453  0.8299 -0.2213 -1.8521
  682SOL    HW2 2727   0.093   2.989   1.568  2.5285 -4.4976  0.7787
  682SOL     MW 2728   0.133   3.020   1.491  0.8787 -0.8404  0.3428
  683SOL     OW 2729   2.022   0.824   2.991  0.7320  0.0189 -0.0470
  683SOL    HW1 2730   1.933   0.805   2.959  0.1078 -1.6519 -1.7895
  683SOL    HW2 2731   2.019   0.912   3.026 -1.1888  2.0318 -0.2214
  683SOL     MW 2732   2.010   0.833   2.992  0.3962  0.0640 -0.2999
  684SOL     OW 2733   2.156   1.747   0.844 -0.3776  0.5302  0.1728
  684SOL    HW1 2734   2.065   1.712   0.832  1.5525 -0.6420  0.2612
  684SOL    HW2 2735   2.210   1.674   0.887  1.4502  0.8746  1.7676
  684SOL     MW 2736   2.151   1.732   0.848  0.1182  0.4210  0.3949
  685SOL     OW 2737   2.568   1.726   1.215  0.2282  0.0287  0.1802
  685SOL    HW1 2738   2.628   1.722   1.286  0.1277  1.2127 -1.5754
  685SOL    HW2 2739   2.554   1.635   1.191 -2.6991  0.3901  2.0372
  685SOL     MW 2740   2.574   1.714   1.221 -0.1713  0.2326  0.1936
  686SOL     OW 2741   2.913   0.703   1.487 -0.5141  0.0044  0.0433
  686SOL    HW1 2742   2.910   0.656   1.572  0.7923  0.1984  2.8544
  686SOL    HW2 2743   3.001   0.693   1.447  3.3507  3.5814  0.6533
  686SOL     MW 2744   2.924   0.696   1.493  0.1682  0.5020  0.4947
  687SOL     OW 2745   2.169   0.325   1.203  0.4481  0.4606  0.1968
  687SOL    HW1 2746   2.156   0.268   1.128 -1.6544 -1.2239  0.7780
  687SOL    HW2 2747   2.098   0.393   1.191 -2.1740 -1.1595  0.6091
  687SOL     MW 2748   2.158   0.326   1.191 -0.1752  0.0246  0.3279
  688SOL     OW 2749   2.337   0.561   1.418  0.4951 -0.1603  0.3063
  688SOL    HW1 2750   2.375   0.512   1.487  0.0461  1.1107  0.4090
  688SOL    HW2 2751   2.332   0.483   1.360 -0.6864 -1.4362  2.0873
  688SOL     MW 2752   2.341   0.544   1.420  0.2799 -0.1609  0.5549
  689SOL     OW 2753   2.577   0.771   2.994  0.3475  0.3464  0.0515
  689SOL    HW1 2754   2.594   0.858   2.952  0.2281  0.5961  2.2226
  689SOL    HW2 2755   2.586   0.789   3.094  0.8456 -0.1632 -0.9038
  689SOL     MW 2756   2.581   0.785   3.002  0.3974  0.3121  0.2119
  690SOL     OW 2757   2.050   1.019   1.971 -0.0130 -0.5447  0.1894
  690SOL    HW1 2758   2.007   0.934   1.995  1.9707 -0.6153 -0.5461
  690SOL    HW2 2759   2.082   1.000   1.879  2.2169 -0.0468 -2.6597
  690SOL     MW 2760   2.049   1.005   1.962  0.5430 -0.4883 -0.2835
  691SOL     OW 2761   2.458   0.258   0.822  0.6033 -0.3913  0.1787
  691SOL    HW1 2762   2.532   0.309   0.860  1.1175  0.2880 -1.4723
  691SOL    HW2 2763   2.375   0.319   0.825 -2.5505 -0.4874  0.1165
  691SOL     MW 2764   2.457   0.273   0.827  0.2550 -0.3143 -0.0473
  692SOL     OW 2765   2.778   1.687   1.382  0.2765  0.5000 -0.0574
  692SOL    HW1 2766   2.744   1.622   1.446  1.9431  0.9741  0.3220
  692SOL    HW2 2767   2.816   1.768   1.423 -1.5722 -1.7178 -1.1833
  692SOL     MW 2768   2.779   1.689   1.396  0.2525  0.2699 -0.1559
  693SOL     OW 2769   2.268   0.425   0.103 -0.3518  0.5239 -0.0963
  693SOL    HW1 2770   2.197   0.357   0.100  2.1925  3.1863 -1.0863
  693SOL    HW2 2771   2.247   0.488   0.040 -0.6671 -0.2861  1.0820
  693SOL     MW 2772   2.256   0.424   0.094 -0.0577  0.7683 -0.0714
  694SOL     OW 2773   1.986   1.283   1.174 -0.0867 -0.5308 -0.3988
  694SOL    HW1 2774   2.072   1.238   1.179 -0.1213  0.3102 -1.8617
  694SOL    HW2 2775   1.920   1.226   1.211 -2.6989  0.7339 -2.0012
  694SOL     MW 2776   1.988   1.270   1.179 -0.4359 -0.2530 -0.8033
  695SOL     OW 2777   2.959   1.476   1.316 -0.4394 -0.5401  0.1122
  695SOL    HW1 2778   2.919   1.453   1.228  0.8453 -1.8825 -4.1177
  695SOL    HW2 2779   2.916   1.560   1.330  1.3262  0.2417 -2.8005
  695SOL     MW 2780   2.948   1.484   1.306 -0.0369 -0.6141 -0.8302
  696SOL     OW 2781   2.045   1.402   0.916  0.4796 -0.2175 -0.0029
  696SOL    HW1 2782   2.115   1.453   0.959  2.3620  0.2119 -2.7379
  696SOL    HW2 2783   2.011   1.366   0.996 -3.9499  0.7342 -0.2338
  696SOL     MW 2784   2.050   1.404   0.932  0.1435 -0.0353 -0.3942
  697SOL     OW 2785   2.860   0.957   2.287 -0.0811  0.3941 -0.1167
  697SOL    HW1 2786   2.779   1.009   2.282 -2.7578  3.0887 -3.1172
  697SOL    HW2 2787   2.865   0.910   2.201  2.3235  0.1227 -0.7438
  697SOL     MW 2788   2.850   0.958   2.275 -0.1170  0.7138 -0.5953
  698SOL     OW 2789   2.535   0.341   0.019  0.1280 -0.5980  0.7480
  698SOL    HW1 2790   2.461   0.382   0.061 -0.9354  0.4352 -4.2492
  698SOL    HW2 2791   2.555   0.268   0.082  0.8083 -1.9017  2.1275
  698SOL     MW 2792   2.528   0.337   0.033  0.0774 -0.6337  0.2706
  699SOL     OW 2793   1.825   1.612   2.060  0.2563  0.3606  0.2060
  699SOL    HW1 2794   1.805   1.516   2.063  1.1890  2.0273  1.1206
  699SOL    HW2 2795   1.918   1.619   2.037  0.7966 -0.3598  2.0726
  699SOL     MW 2796   1.835   1.600   2.057  0.4506  0.4854  0.5730
  700SOL     OW 2797   2.727   0.912   1.519 -0.2726  0.4179  0.0931
  700SOL    HW1 2798   2.760   0.984   1.467  3.4353 -2.1623  1.9427
  700SOL    HW2 2799   2.777   0.837   1.492 -0.4075  1.9517  3.9796
  700SOL     MW 2800   2.738   0.911   1.509  0.1988  0.2799  0.8499
  701SOL     OW 2801   1.678   1.282   2.614 -0.3839  0.0609 -0.1150
  701SOL    HW1 2802   1.766   1.318   2.632 -0.9782 -1.4617  1.2696
  701SOL    HW2 2803   1.616   1.321   2.681  1.4884 -0.8971 -0.6329
  701SOL     MW 2804   1.682   1.292   2.625 -0.2153 -0.2664 -0.0006
  702SOL     OW 2805   2.253   0.446   0.814  0.2538  0.2184 -0.0453
  702SOL    HW1 2806   2.192   0.385   0.761  2.1596 -0.5858 -0.9147
  702SOL    HW2 2807   2.286   0.512   0.750  3.8505  0.0392  1.2570
  702SOL     MW 2808   2.249   0.446   0.799  0.9798  0.0886  0.0118
  703SOL     OW 2809   2.650   1.289   0.982 -0.1409  0.2672 -0.4019
  703SOL    HW1 2810   2.666   1.282   0.890 -1.3300 -0.3157  1.6483
  703SOL    HW2 2811   2.634   1.198   1.010 -1.0173 -2.7797 -2.5386
  703SOL     MW 2812   2.650   1.276   0.974 -0.4134 -0.2117 -0.4133
  704SOL     OW 2813   0.023   1.280   0.252 -0.2337  0.4159 -0.2950
  704SOL    HW1 2814  -0.058   1.279   0.205  1.0310  3.3109  0.7526
  704SOL    HW2 2815   0.061   1.193   0.255  1.6905  3.2489 -0.3270
  704SOL     MW 2816   0.018   1.268   0.246  0.1870  1.1716 -0.1610
  705SOL     OW 2817   2.149   1.594   1.306 -0.3802 -0.4654  0.0023
  705SOL    HW1 2818   2.060   1.582   1.332  1.3637 -0.5743 -3.2976
  705SOL    HW2 2819   2.197   1.530   1.362  0.2815 -0.2645 -3.5664
  705SOL     MW 2820   2.144   1.584   1.317 -0.0628 -0.4533 -0.9040
  706SOL     OW 2821   2.991   1.248   0.578  0.0295 -0.2364  0.6315
  706SOL    HW1 2822   3.088   1.238   0.583 -1.3484  0.4578 -4.0714
  706SOL    HW2 2823   2.964   1.334   0.609 -0.4913 -1.5256 -3.2224
  706SOL     MW 2824   3.000   1.258   0.583 -0.2210 -0.3149 -0.4975
  707SOL     OW 2825   2.383   0.076   1.032 -0.0783 -0.6424 -0.2178
  707SOL    HW1 2826   2.418   0.131   0.965  0.2840 -0.8080  0.7219
  707SOL    HW2 2827   2.293   0.108   1.027  0.1967  0.6168  0.1532
  707SOL     MW 2828   2.376   0.087   1.023  0.0058 -0.4981 -0.0449
  708SOL     OW 2829   2.525   1.506   0.069  0.1534  0.3156  0.6315
  708SOL    HW1 2830   2.559   1.439   0.127  2.0223  1.0265 -2.7512
  708SOL    HW2 2831   2.489   1.461  -0.009  0.5915  1.0472 -1.9945
  708SOL     MW 2832   2.525   1.491   0.066  0.4578  0.5059 -0.1613
  709SOL     OW 2833   1.696   1.756   0.104 -0.3571  0.2753 -0.2225
  709SOL    HW1 2834   1.683   1.739   0.010 -0.4955  2.6056  2.6778
  709SOL    HW2 2835   1.630   1.717   0.157 -0.7483  0.4720 -1.6464
  709SOL     MW 2836   1.686   1.748   0.099 -0.4270  0.6087 -0.0277
  710SOL     OW 2837   2.236   1.172   1.196  0.0599  0.6706 -0.1238
  710SOL    HW1 2838   2.273   1.150   1.109  0.0999  3.0420  2.1377
  710SOL    HW2 2839   2.247   1.084   1.245  0.8184 -3.1900 -0.8030
  710SOL     MW 2840   2.242   1.158   1.191  0.1652  0.4741  0.0850
  711SOL     OW 2841   2.342   0.176   1.716  0.5527 -0.2500 -0.3262
  711SOL    HW1 2842   2.433   0.146   1.718 -1.7060 -2.7598  2.9117
  711SOL    HW2 2843   2.294   0.088   1.712  1.9894 -3.1788 -1.9788
  711SOL     MW 2844   2.348   0.160   1.716  0.4442 -0.9676 -0.1171
  712SOL     OW 2845   1.620   0.586   3.052 -0.0753 -0.4313 -0.4092
  712SOL    HW1 2846   1.673   0.627   2.980 -1.5016  0.2106  1.0214
  712SOL    HW2 2847   1.596   0.653   3.112 -1.6299  1.3090  0.8007
  712SOL     MW 2848   1.624   0.600   3.050 -0.4686 -0.1170 -0.0608
  713SOL     OW 2849   2.587   0.792   1.151 -0.0482  0.0425 -0.0141
  713SOL    HW1 2850   2.644   0.713   1.164 -1.1008 -0.7994  0.1791
  713SOL    HW2 2851   2.540   0.791   1.240 -0.8456 -2.5261  0.6891
  713SOL     MW 2852   2.589   0.782   1.165 -0.2923 -0.4075  0.1042
  714SOL     OW 2853   2.271   0.167   1.988 -0.4347 -0.4462 -0.7045
  714SOL    HW1 2854   2.333   0.121   2.049 -0.3675 -1.0971 -0.1780
  714SOL    HW2 2855   2.315   0.188   1.904  3.3514  0.7158  2.2990
  714SOL     MW 2856   2.285   0.163   1.985  0.0737 -0.3788 -0.2388
  715SOL     OW 2857   1.751   1.919   1.711  0.6754 -0.2385 -0.1398
  715SOL    HW1 2858   1.839   1.891   1.677  3.0261 -0.4314 -1.2973
  715SOL    HW2 2859   1.723   1.861   1.785 -1.8594  0.8742  1.2673
  715SOL     MW 2860   1.759   1.907   1.716  0.6511 -0.1171 -0.1069
  716SOL     OW 2861   2.326   0.670   0.646  0.2422 -0.5147  0.1689
  716SOL    HW1 2862   2.379   0.690   0.572  0.6303 -3.7240  1.5055
  716SOL    HW2 2863   2.240   0.688   0.602  1.5716 -3.2405 -1.8126
  716SOL     MW 2864   2.322   0.675   0.630  0.4688 -1.2978  0.0838
  717SOL     OW 2865   2.825   1.443   2.937  0.0035  0.1983  0.2392
  717SOL    HW1 2866   2.922   1.445   2.952 -0.5524  0.1788  1.6515
  717SOL    HW2 2867   2.798   1.522   2.991 -0.6598  0.6714  1.6159
  717SOL     MW 2868   2.834   1.453   2.946 -0.1574  0.2582  0.6072
  718SOL     OW 2869   2.552   1.352   1.392 -1.3766 -0.5562  0.4610
  718SOL    HW1 2870   2.564   1.413   1.470 -1.5439 -1.3095 -0.3636
  718SOL    HW2 2871   2.630   1.298   1.383 -0.5732  0.4573  0.0315
  718SOL     MW 2872   2.564   1.353   1.401 -1.2927 -0.5219  0.2955
  719SOL     OW 2873   2.179   1.376   0.642 -0.8509  0.3535 -0.3664
  719SOL    HW1 2874   2.273   1.376   0.618  1.1127  2.2602  1.4484
  719SOL    HW2 2875   2.169   1.380   0.737  1.6126 -1.3411  0.6948
  719SOL     MW 2876   2.190   1.376   0.651 -0.2668  0.3815  0.0131
  720SOL     OW 2877   2.886   1.220   0.141  0.3871 -0.1360 -0.7680
  720SOL    HW1 2878   2.868   1.137   0.189 -2.0240 -0.5515  1.7645
  720SOL    HW2 2879   2.818   1.282   0.188 -0.6882  3.4896  1.7896
  720SOL     MW 2880   2.874   1.218   0.153 -0.0729  0.2876 -0.0964
  721SOL     OW 2881   2.485   0.801   1.409  0.7571 -0.1314  0.3689
  721SOL    HW1 2882   2.437   0.730   1.453  1.6220  3.4338  0.3735
  721SOL    HW2 2883   2.550   0.821   1.476 -2.8758 -2.6293  0.5202
  721SOL     MW 2884   2.487   0.794   1.424  0.3919  0.0094  0.3895
  722SOL     OW 2885   2.549   1.208   0.374 -0.5546  0.4044  0.4662
  722SOL    HW1 2886   2.517   1.264   0.445  2.0168  2.2973  0.1184
  722SOL    HW2 2887   2.640   1.177   0.389 -0.0387  1.7298  0.8592
  722SOL     MW 2888   2.556   1.212   0.385 -0.1473  0.8290  0.4721
  723SOL     OW 2889   2.299   1.428   1.629  0.4402 -0.2933 -0.1780
  723SOL    HW1 2890   2.289   1.403   1.534 -2.6364  0.3060 -1.6233
  723SOL    HW2 2891   2.231   1.497   1.640  2.7835  0.1870  0.2546
  723SOL     MW 2892   2.289   1.434   1.618  0.3434 -0.1509 -0.3116
  724SOL     OW 2893   2.474   0.388   0.556 -0.3194 -0.0491 -0.0759
  724SOL    HW1 2894   2.483   0.334   0.635 -0.8966  0.6227 -1.4420
  724SOL    HW2 2895   2.555   0.378   0.512 -1.6083 -1.6411 -1.5460
  724SOL     MW 2896   2.486   0.380   0.561 -0.5656 -0.1705 -0.4501
  725SOL     OW 2897   2.659   0.538   1.156 -0.4075  0.0864 -0.2716
  725SOL    HW1 2898   2.655   0.513   1.244 -2.2941  3.1392 -1.4986
  725SOL    HW2 2899   2.564   0.514   1.130 -1.2271 -1.1094 -3.0311
  725SOL     MW 2900   2.646   0.531   1.164 -0.7646  0.3314 -0.7976
  726SOL     OW 2901   2.581   2.414   0.497  0.3373  0.1542 -0.0396
  726SOL    HW1 2902   2.521   2.473   0.440  0.0195  3.7894  2.4916
  726SOL    HW2 2903   2.555   2.422   0.588 -0.9727  1.6484  0.7328
  726SOL     MW 2904   2.570   2.423   0.502  0.1225  0.8309  0.3962
  727SOL     OW 2905   2.795   0.292   1.634 -0.6647 -0.3736  0.0031
  727SOL    HW1 2906   2.816   0.293   1.537 -0.2749  0.4450  0.6724
  727SOL    HW2 2907   2.707   0.328   1.639 -0.8300 -0.6501  0.0037
  727SOL     MW 2908   2.786   0.297   1.622 -0.6350 -0.3021  0.0915
  728SOL     OW 2909   2.807   1.140   3.004 -0.6186  0.3978 -0.3207
  728SOL    HW1 2910   2.785   1.225   2.969  2.2288  0.2593  1.9444
  728SOL    HW2 2911   2.829   1.164   3.097 -1.4683 -1.0715  0.4277
  728SOL     MW 2912   2.807   1.154   3.011 -0.3550  0.1857  0.0769
  729SOL     OW 2913   2.522   1.475   1.132  0.6611 -0.6724  0.4649
  729SOL    HW1 2914   2.511   1.454   1.222 -1.2697 -0.0347 -3.2241
  729SOL    HW2 2915   2.574   1.404   1.090  1.4086 -2.7837 -4.2111
  729SOL     MW 2916   2.527   1.463   1.138  0.5050 -0.8669 -0.6388
  730SOL     OW 2917   2.115   1.165   0.233  0.3994  0.5049  0.0624
  730SOL    HW1 2918   2.215   1.153   0.234  4.0559 -1.7006  0.9402
  730SOL    HW2 2919   2.096   1.257   0.260  0.3696  1.6803  0.3383
  730SOL     MW 2920   2.126   1.176   0.237  0.8779  0.3690  0.2146
  731SOL     OW 2921   2.820   1.811   2.906  0.3840  0.1204  0.6734
  731SOL    HW1 2922   2.739   1.837   2.867  0.0645  2.0414  1.0539
  731SOL    HW2 2923   2.865   1.896   2.895 -0.8579 -1.8376  0.4098
  731SOL     MW 2924   2.815   1.826   2.899  0.1780  0.1155  0.6888
  732SOL     OW 2925   2.246   0.942   1.346 -0.7625 -0.0070  0.3709
  732SOL    HW1 2926   2.195   0.924   1.430 -0.4969 -1.4934  1.9615
  732SOL    HW2 2927   2.331   0.920   1.369  0.3834 -2.2675  1.1839
  732SOL     MW 2928   2.250   0.937   1.360 -0.5763 -0.5014  0.6880
  733SOL     OW 2929   2.357   2.880   3.029 -0.6381 -0.7399  0.1588
  733SOL    HW1 2930   2.289   2.931   2.984 -0.8678  0.7686 -0.2120
  733SOL    HW2 2931   2.320   2.797   3.058 -0.3022  0.7045 -0.5229
  733SOL     MW 2932   2.343   2.876   3.027 -0.6241 -0.3503  0.0199
  734SOL     OW 2933   1.484   0.356   2.464  0.0782  0.3804 -0.2032
  734SOL    HW1 2934   1.431   0.333   2.537  2.5448  0.9013 -2.2479
  734SOL    HW2 2935   1.521   0.284   2.412 -2.6289 -0.1045 -3.7850
  734SOL     MW 2936   1.482   0.344   2.467  0.0464  0.3851 -0.9455
  735SOL     OW 2937   3.074   0.871   2.674  0.8577  0.3900  0.1096
  735SOL    HW1 2938   3.022   0.815   2.612  1.2364  1.2425 -1.7642
  735SOL    HW2 2939   3.011   0.902   2.740 -0.7535  1.8520 -1.2919
  735SOL     MW 2940   3.059   0.868   2.674  0.6950  0.6954 -0.3226
  736SOL     OW 2941   0.028   0.601   2.493  0.0618  0.0595  0.4307
  736SOL    HW1 2942   0.075   0.635   2.413  0.1051  0.1113 -0.4772
  736SOL    HW2 2943  -0.016   0.514   2.472 -0.7010 -1.5314 -0.1617
  736SOL     MW 2944   0.029   0.594   2.480 -0.0331 -0.1436  0.2327
  737SOL     OW 2945   2.888   0.695   2.527  0.0253 -0.1214 -0.0018
  737SOL    HW1 2946   2.825   0.642   2.473  2.8500 -2.7113 -0.2414
  737SOL    HW2 2947   2.970   0.663   2.489 -0.6351  1.3091 -0.3638
  737SOL     MW 2948   2.890   0.684   2.515  0.3108 -0.2743 -0.0812
  738SOL     OW 2949   0.176   0.433   1.967 -0.2833  0.2783  0.6158
  738SOL    HW1 2950   0.235   0.495   1.929 -0.3135  0.4334  1.5171
  738SOL    HW2 2951   0.180   0.376   1.894  1.5687  3.1290  2.2566
  738SOL     MW 2952   0.184   0.434   1.953 -0.0429  0.6749  0.9512
  739SOL     OW 2953   2.553   0.983   2.116 -0.2762 -0.0132  0.2506
  739SOL    HW1 2954   2.459   0.974   2.100 -1.0465 -0.8993  4.1465
  739SOL    HW2 2955   2.592   1.006   2.029 -0.3815  1.5998  1.7890
  739SOL     MW 2956   2.546   0.985   2.102 -0.3917  0.0827  0.9676
  740SOL     OW 2957   0.210   1.681   2.955 -0.6733 -0.0536  0.4590
  740SOL    HW1 2958   0.164   1.598   2.962  0.0267 -0.8100  0.6933
  740SOL    HW2 2959   0.295   1.662   2.995 -0.8508  0.2082  0.1056
  740SOL     MW 2960   0.215   1.667   2.961 -0.6043 -0.1189  0.4433
  741SOL     OW 2961   2.195   1.213   2.751 -0.0635 -0.3341 -0.0944
  741SOL    HW1 2962   2.209   1.306   2.724  2.3514  0.2658 -3.2423
  741SOL    HW2 2963   2.168   1.217   2.842  4.0456 -0.3380 -0.6975
  741SOL     MW 2964   2.193   1.226   2.759  0.7973 -0.2555 -0.5893
  742SOL     OW 2965   1.676   1.353   2.359  0.3123  0.1298 -0.3596
  742SOL    HW1 2966   1.596   1.327   2.316  0.4141 -1.9079  0.1499
  742SOL    HW2 2967   1.665   1.320   2.452 -0.5957 -0.4015  3.4145
  742SOL     MW 2968   1.664   1.345   2.366  0.2059 -0.2092  0.2056
  743SOL     OW 2969   2.529   1.226   2.714 -0.1750 -0.0191  0.2025
  743SOL    HW1 2970   2.452   1.206   2.755 -1.1945  1.4939 -0.8006
  743SOL    HW2 2971   2.585   1.150   2.735 -0.0006 -0.8884  0.0243
  743SOL     MW 2972   2.526   1.214   2.722 -0.2865  0.0658  0.0467
  744SOL     OW 2973   2.774   0.927   1.801 -0.1987 -0.0328  0.1098
  744SOL    HW1 2974   2.691   0.970   1.814  0.4117  1.4140  1.3942
  744SOL    HW2 2975   2.778   0.909   1.708  0.3529  2.0572 -0.6976
  744SOL     MW 2976   2.763   0.930   1.791 -0.0454  0.4339  0.1728
  745SOL     OW 2977   1.743   0.469   2.483  0.8298 -0.3643 -0.0825
  745SOL    HW1 2978   1.743   0.479   2.385 -1.3300  0.4546  0.7489
  745SOL    HW2 2979   1.662   0.419   2.512 -0.8024 -1.1721 -0.1932
  745SOL     MW 2980   1.732   0.463   2.474  0.3295 -0.3629  0.0126
  746SOL     OW 2981   1.583   1.511   1.693 -0.1384  0.0690 -0.1047
  746SOL    HW1 2982   1.636   1.576   1.740 -0.3790 -1.2703  0.6695
  746SOL    HW2 2983   1.568   1.453   1.773 -0.1843 -0.1836  0.0879
  746SOL     MW 2984   1.588   1.512   1.710 -0.1762 -0.1410  0.0229
  747SOL     OW 2985   2.586   1.115   1.870 -0.0378 -0.2046 -0.7328
  747SOL    HW1 2986   2.494   1.114   1.833 -5.2767  0.5145  1.9397
  747SOL    HW2 2987   2.579   1.205   1.909  0.2576  1.2746 -1.1272
  747SOL     MW 2988   2.573   1.127   1.871 -0.6901  0.0855 -0.4323
  748SOL     OW 2989   0.096   3.082   1.927  0.4100  0.0394  0.1146
  748SOL    HW1 2990   0.187   3.104   1.913 -0.1489  1.6885  1.3355
  748SOL    HW2 2991   0.049   3.152   1.973 -0.0081  0.7262 -0.1774
  748SOL     MW 2992   0.102   3.094   1.931  0.2811  0.3476  0.2372
  749SOL     OW 2993   2.409   0.652   2.772 -0.2547 -0.4134  0.5940
  749SOL    HW1 2994   2.405   0.732   2.707 -0.4641  0.7524 -0.8171
  749SOL    HW2 2995   2.432   0.688   2.855 -1.5810  0.1252 -2.6749
  749SOL     MW 2996   2.412   0.667   2.775 -0.4573 -0.1885 -0.0235
  750SOL     OW 2997   2.134   3.033   1.972 -0.3333 -0.2725 -0.5159
  750SOL    HW1 2998   2.199   3.108   1.977  0.4771 -0.8725 -0.6096
  750SOL    HW2 2999   2.188   2.947   1.959  0.1314 -0.6867 -1.6254
  750SOL     MW 3000   2.149   3.031   1.971 -0.1651 -0.4063 -0.6746
  751SOL     OW 3001   3.054   0.341   2.454  0.3035  0.1862 -0.4307
  751SOL    HW1 3002   2.980   0.330   2.393 -2.0800  0.2099 -2.4307
  751SOL    HW2 3003   3.130   0.321   2.403 -1.6994  0.6793  0.6954
  751SOL     MW 3004   3.054   0.337   2.439 -0.2753  0.2544 -0.5460
  752SOL     OW 3005   2.142   0.922   2.767 -0.2367 -0.1298 -0.1897
  752SOL    HW1 3006   2.188   1.004   2.791 -2.7915  0.9399  0.5534
  752SOL    HW2 3007   2.113   0.885   2.852  1.9829  0.0746  1.6746
  752SOL     MW 3008   2.144   0.928   2.781 -0.2809  0.0383  0.1543
  753SOL     OW 3009   2.846   0.338   2.263 -0.2659  0.9324 -0.2745
  753SOL    HW1 3010   2.795   0.260   2.283 -0.7873 -0.1748  0.0952
  753SOL    HW2 3011   2.803   0.412   2.309 -0.4549 -0.4942  0.7751
  753SOL     MW 3012   2.833   0.337   2.272 -0.3596  0.5981 -0.0872
  754SOL     OW 3013   2.288   2.966   2.609  0.1910 -0.3478  0.4719
  754SOL    HW1 3014   2.306   2.931   2.518  0.1129 -0.1583 -0.3001
  754SOL    HW2 3015   2.348   2.936   2.680  1.0642 -0.7792 -0.2270
  754SOL     MW 3016   2.298   2.958   2.606  0.2959 -0.3797  0.2779
  755SOL     OW 3017   2.766   1.613   2.450  0.3105 -0.7568  0.2388
  755SOL    HW1 3018   2.738   1.523   2.443  2.8603  0.4010 -0.3935
  755SOL    HW2 3019   2.811   1.620   2.535  1.5943 -0.4899  1.3786
  755SOL     MW 3020   2.768   1.602   2.460  0.8163 -0.5689  0.3057
  756SOL     OW 3021   2.161   1.257   3.028  0.0538  0.6947 -0.1548
  756SOL    HW1 3022   2.244   1.308   3.026  0.0734 -3.7236  2.1460
  756SOL    HW2 3023   2.205   1.174   3.042  0.1679  0.0750 -1.2089
  756SOL     MW 3024   2.178   1.253   3.029  0.0714  0.0300  0.0097
  757SOL     OW 3025   2.178   0.932   1.732  0.2879 -0.4020 -0.5225
  757SOL    HW1 3026   2.161   0.835   1.742  0.5871  0.3620 -1.2101
  757SOL    HW2 3027   2.109   0.954   1.665 -1.4694 -2.2745 -2.7988
  757SOL     MW 3028   2.167   0.922   1.725  0.0955 -0.5482 -0.9136
  758SOL     OW 3029   2.248   1.873   2.618 -0.1125  0.2573 -0.2742
  758SOL    HW1 3030   2.232   1.894   2.528 -0.3101  2.7102 -2.4192
  758SOL    HW2 3031   2.331   1.824   2.624  0.1349  0.4482 -1.2097
  758SOL     MW 3032   2.257   1.870   2.607 -0.1060  0.6061 -0.6807
  759SOL     OW 3033   1.526   1.431   2.792 -0.2052  0.2085 -0.4316
  759SOL    HW1 3034   1.542   1.515   2.741  0.4652  0.5260  1.9897
  759SOL    HW2 3035   1.584   1.444   2.865  0.6567 -0.3366  2.4479
  759SOL     MW 3036   1.536   1.444   2.795 -0.0030  0.1784  0.2678
  760SOL     OW 3037   2.598   1.964   2.722 -0.2279  0.9178  0.2520
  760SOL    HW1 3038   2.546   1.888   2.699  0.1131 -0.1538  2.3039
  760SOL    HW2 3039   2.674   1.956   2.666 -0.4012 -0.1558 -0.4646
  760SOL     MW 3040   2.601   1.953   2.711 -0.2058  0.6348  0.4282
  761SOL     OW 3041   2.188   0.488   2.454 -0.1433 -0.2109 -0.1035
  761SOL    HW1 3042   2.111   0.431   2.431 -2.2510  0.1831  3.5353
  761SOL    HW2 3043   2.185   0.509   2.547  1.0876 -1.1305  1.6453
  761SOL     MW 3044   2.177   0.484   2.463 -0.2590 -0.2803  0.6074
  762SOL     OW 3045   0.022   0.186   2.139 -0.0172 -0.0996 -0.3895
  762SOL    HW1 3046   0.001   0.110   2.192  1.5398 -0.1463  0.3563
  762SOL    HW2 3047  -0.061   0.228   2.119 -0.2584 -0.3630 -1.6641
  762SOL     MW 3048   0.009   0.182   2.144  0.1564 -0.1405 -0.4592
  763SOL     OW 3049   2.473   1.193   2.334 -0.2478 -0.0213 -0.2411
  763SOL    HW1 3050   2.493   1.115   2.283 -1.6354 -2.5881 -3.3290
  763SOL    HW2 3051   2.559   1.228   2.361  0.7027 -2.7524 -3.8622
  763SOL     MW 3052   2.487   1.187   2.331 -0.3055 -0.7203 -1.1263
  764SOL     OW 3053   0.387   0.118   2.795 -0.1734  0.7383 -0.3646
  764SOL    HW1 3054   0.333   0.170   2.745  0.6519 -2.9854 -0.3659
  764SOL    HW2 3055   0.409   0.175   2.870 -0.9622  1.9669 -0.8934
  764SOL     MW 3056   0.383   0.132   2.798 -0.1686  0.4091 -0.4345
  765SOL     OW 3057   2.698   0.123   2.287 -0.5278  0.1099 -0.0271
  765SOL    HW1 3058   2.652   0.085   2.211 -0.5434  1.5604 -0.6351
  765SOL    HW2 3059   2.744   0.043   2.323  0.8426 -1.4086  1.6454
  765SOL     MW 3060   2.698   0.107   2.282 -0.3491  0.1009  0.1134
  766SOL     OW 3061   1.934   3.067   2.159 -0.1576  0.1440 -0.7493
  766SOL    HW1 3062   1.994   3.091   2.085  1.7488 -0.5462 -1.1215
  766SOL    HW2 3063   1.864   3.024   2.116 -1.9890 -0.6544  0.6707
  766SOL     MW 3064   1.933   3.065   2.144 -0.1477 -0.0525 -0.6110
  767SOL     OW 3065   2.662   0.635   1.924 -0.7200  0.0119  0.4438
  767SOL    HW1 3066   2.722   0.669   1.988 -0.4405 -1.2385  2.7150
  767SOL    HW2 3067   2.593   0.704   1.914  0.4848  1.1652  1.4165
  767SOL     MW 3068   2.661   0.648   1.931 -0.5242 -0.0009  0.8718
  768SOL     OW 3069   3.092   1.498   2.987  0.0882  0.1770  0.5448
  768SOL    HW1 3070   3.109   1.502   3.082  0.0762 -2.9608 -2.7239
  768SOL    HW2 3071   3.135   1.414   2.967  1.8555 -0.4073 -1.8585
  768SOL     MW 3072   3.100   1.487   2.997  0.3198 -0.3141 -0.2036
  769SOL     OW 3073   2.338   0.685   2.350 -0.2503 -0.6608  0.6032
  769SOL    HW1 3074   2.292   0.608   2.391 -0.4224 -1.3613  2.9211
  769SOL    HW2 3075   2.403   0.666   2.285 -0.7012 -1.3768 -0.5227
  769SOL     MW 3076   2.340   0.672   2.347 -0.3325 -0.8477  0.7604
  770SOL     OW 3077   0.049   1.594   2.615 -0.4235  0.2258 -0.4940
  770SOL    HW1 3078  -0.037   1.619   2.652 -0.3112 -1.4904 -1.7681
  770SOL    HW2 3079   0.080   1.507   2.649 -0.0428 -0.0983 -1.1670
  770SOL     MW 3080   0.042   1.586   2.625 -0.3584 -0.0434 -0.7509
  771SOL     OW 3081   3.070   0.606   1.962 -0.3355 -0.1524 -0.2522
  771SOL    HW1 3082   3.027   0.612   1.877 -1.5136  0.5967 -2.5959
  771SOL    HW2 3083   3.141   0.546   1.959 -0.8722  3.2128  3.2383
  771SOL     MW 3084   3.073   0.599   1.951 -0.5618  0.3904 -0.1009
  772SOL     OW 3085   0.025   0.008   2.339  0.3892  0.0031  0.1025
  772SOL    HW1 3086  -0.041  -0.017   2.400  2.2090 -2.5191 -1.9003
  772SOL    HW2 3087   0.074  -0.067   2.305 -0.1085  0.4631  2.3382
  772SOL     MW 3088   0.023  -0.005   2.343  0.5637 -0.2690  0.1332
  773SOL     OW 3089   2.483   2.897   2.791  0.4041 -0.8666  0.2835
  773SOL    HW1 3090   2.515   2.827   2.737 -1.8117 -1.3051  0.3697
  773SOL    HW2 3091   2.446   2.858   2.876  0.1780 -0.7927  4.1784
  773SOL     MW 3092   2.482   2.883   2.795  0.0819 -0.9147  0.8088
  774SOL     OW 3093   2.362   1.137   1.749  0.3126 -0.0711  0.4203
  774SOL    HW1 3094   2.336   1.218   1.707 -1.0675 -0.1194  2.6115
  774SOL    HW2 3095   2.288   1.067   1.730 -1.0615  1.3348 -1.1216
  774SOL     MW 3096   2.349   1.138   1.741 -0.0508  0.1080  0.5059
  775SOL     OW 3097   2.301   2.900   2.335  0.2672  0.7982 -0.6160
  775SOL    HW1 3098   2.333   2.988   2.316 -0.6288 -0.0292  1.2068
  775SOL    HW2 3099   2.380   2.844   2.324 -0.2631  1.1198 -2.7428
  775SOL     MW 3100   2.316   2.904   2.331  0.0790  0.7314 -0.6561
  776SOL     OW 3101   0.123   1.509   0.120 -0.1591  0.2390 -0.1067
  776SOL    HW1 3102   0.214   1.481   0.111  0.0517  1.9089  0.9241
  776SOL    HW2 3103   0.082   1.435   0.169  1.2869 -1.0011  1.6810
  776SOL     MW 3104   0.129   1.495   0.126  0.0595  0.2957  0.2652
  777SOL     OW 3105   2.950   1.117   1.758  0.4295 -0.7494 -0.1991
  777SOL    HW1 3106   2.905   1.139   1.682  0.3021  0.7244  0.1094
  777SOL    HW2 3107   2.883   1.063   1.811 -2.9697  1.5849  1.2336
  777SOL     MW 3108   2.935   1.112   1.755 -0.0358 -0.2469  0.0307
  778SOL     OW 3109   2.886   0.470   2.747 -0.4374 -0.3401  0.1005
  778SOL    HW1 3110   2.800   0.473   2.791 -0.6080 -2.3480  1.2018
  778SOL    HW2 3111   2.894   0.553   2.701 -2.1147 -0.7448 -0.1577
  778SOL     MW 3112   2.876   0.481   2.747 -0.6812 -0.6584  0.2118
  779SOL     OW 3113   2.257   0.416   2.111  0.6321  0.6850 -0.1067
  779SOL    HW1 3114   2.182   0.431   2.170 -3.4870  0.5819 -0.2933
  779SOL    HW2 3115   2.278   0.325   2.102 -0.1922  1.4153  4.4619
  779SOL     MW 3116   2.250   0.406   2.118 -0.0202  0.7677  0.4715
  780SOL     OW 3117   0.150   0.242   2.696 -0.1476  0.0268  0.1212
  780SOL    HW1 3118   0.095   0.179   2.752  0.9297  0.0446  0.3918
  780SOL    HW2 3119   0.159   0.330   2.740  0.0857  0.4228 -1.1961
  780SOL     MW 3120   0.144   0.245   2.709  0.0253  0.0814 -0.0169
  781SOL     OW 3121   3.066   1.322   2.486 -0.0407  0.8265  0.5732
  781SOL    HW1 3122   3.016   1.343   2.404 -0.8626 -0.5390 -1.6187
  781SOL    HW2 3123   3.082   1.227   2.472 -0.9986 -0.4531 -0.3247
  781SOL     MW 3124   3.061   1.313   2.473 -0.2756  0.4775  0.1655
  782SOL     OW 3125   0.683   1.496   0.092 -0.8374 -0.2547  0.2589
  782SOL    HW1 3126   0.595   1.530   0.080  0.4422  2.1390  0.8158
  782SOL    HW2 3127   0.688   1.498   0.184 -0.3547 -1.3865 -0.1216
  782SOL     MW 3128   0.672   1.501   0.103 -0.6049 -0.0882  0.2822
  783SOL     OW 3129   2.722   0.535   2.395  0.2152  0.8976  0.2083
  783SOL    HW1 3130   2.669   0.598   2.344  2.2987  2.4595 -1.0910
  783SOL    HW2 3131   2.664   0.494   2.465  1.5779  1.4307  2.2902
  783SOL     MW 3132   2.707   0.538   2.397  0.6699  1.1740  0.3116
  784SOL     OW 3133   0.198   0.843   2.864 -0.1485  0.5626  0.2863
  784SOL    HW1 3134   0.106   0.865   2.834 -1.2821  0.2688 -2.5413
  784SOL    HW2 3135   0.246   0.888   2.799 -2.3413  0.3799  0.8741
  784SOL     MW 3136   0.193   0.852   2.851 -0.5874  0.4998 -0.0092
  785SOL     OW 3137   0.432   0.398   2.182  0.7820  0.6329 -0.3886
  785SOL    HW1 3138   0.420   0.402   2.085 -1.2367  2.3936  0.9327
  785SOL    HW2 3139   0.343   0.383   2.218  0.6316 -2.2663  1.3019
  785SOL     MW 3140   0.418   0.397   2.174  0.4958  0.4827  0.0088
  786SOL     OW 3141   1.893   0.428   3.100  0.2067 -0.2728 -0.4945
  786SOL    HW1 3142   1.816   0.462   3.135  1.1399  1.1308 -1.6392
  786SOL    HW2 3143   1.874   0.424   3.010  0.8598  1.2044 -1.6937
  786SOL     MW 3144   1.880   0.432   3.093  0.4160  0.1073 -0.8038
  787SOL     OW 3145   2.465   0.168   2.937 -0.2173 -0.3489 -0.1599
  787SOL    HW1 3146   2.536   0.137   2.890  0.9919 -0.6063 -0.6958
  787SOL    HW2 3147   2.496   0.238   3.000  0.5815  2.1773  0.0768
  787SOL     MW 3148   2.479   0.173   2.939  0.0476 -0.0496 -0.1994
  788SOL     OW 3149   2.853   2.992   2.421 -0.4730  0.3189 -0.1144
  788SOL    HW1 3150   2.860   2.933   2.497  0.7455 -0.7804 -0.3699
  788SOL    HW2 3151   2.892   2.944   2.346 -2.0282 -1.3459 -1.0615
  788SOL     MW 3152   2.859   2.978   2.421 -0.5174 -0.0458 -0.2731
  789SOL     OW 3153   0.112   0.171   3.087 -0.3397  0.4526 -0.5947
  789SOL    HW1 3154   0.061   0.093   3.092  0.3042 -1.6615  0.9060
  789SOL    HW2 3155   0.045   0.225   3.047  1.2567  1.8883  0.4017
  789SOL     MW 3156   0.097   0.168   3.082 -0.0442  0.3631 -0.2652
  790SOL     OW 3157   0.012   1.042   2.419  0.7142  0.2181 -0.6172
  790SOL    HW1 3158  -0.003   1.004   2.504 -0.4923 -0.6760 -0.4800
  790SOL    HW2 3159  -0.073   1.020   2.364 -2.1961 -0.7183 -0.3547
  790SOL     MW 3160  -0.001   1.034   2.423  0.1710 -0.0234 -0.5644
  791SOL     OW 3161   2.531   0.479   2.604 -0.1760  0.4015 -0.0626
  791SOL    HW1 3162   2.501   0.543   2.670 -0.4900 -2.8461  1.1869
  791SOL    HW2 3163   2.536   0.391   2.642 -2.1132  2.3871  1.2449
  791SOL     MW 3164   2.528   0.476   2.617 -0.4730  0.2350  0.2748
  792SOL     OW 3165   2.382   0.213   2.451 -1.0194  0.7096 -0.5118
  792SOL    HW1 3166   2.374   0.305   2.428  1.0403 -0.4073  1.2534
  792SOL    HW2 3167   2.331   0.194   2.529 -1.8078 -0.1231  0.3142
  792SOL     MW 3168   2.374   0.223   2.458 -0.8516  0.4524 -0.1699
  793SOL     OW 3169   1.802   1.086   2.014  0.2887 -0.4311 -0.0066
  793SOL    HW1 3170   1.752   1.067   1.934  1.8592  0.1636  2.1864
  793SOL    HW2 3171   1.895   1.083   1.982  2.9403  2.3921  1.3449
  793SOL     MW 3172   1.808   1.083   1.999  0.8457  0.0198  0.4611
  794SOL     OW 3173   1.371   2.320   0.111 -0.3740  0.3601  0.2742
  794SOL    HW1 3174   1.394   2.400   0.072  0.0240 -3.6070  2.2833
  794SOL    HW2 3175   1.427   2.307   0.194  3.0057 -3.9127 -0.0470
  794SOL     MW 3176   1.382   2.329   0.117  0.1244 -0.7271  0.4969
  795SOL     OW 3177   2.302   1.058   2.533 -0.0176 -0.4560 -0.0060
  795SOL    HW1 3178   2.253   1.111   2.598 -0.3344 -1.4456 -0.6458
  795SOL    HW2 3179   2.385   1.096   2.516 -1.2959  0.8404 -0.7762
  795SOL     MW 3180   2.306   1.070   2.539 -0.2280 -0.4155 -0.1920
  796SOL     OW 3181   0.241   0.611   2.688 -0.3389  0.0385 -0.5777
  796SOL    HW1 3182   0.210   0.686   2.740  0.2675  1.9172 -1.6069
  796SOL    HW2 3183   0.181   0.605   2.614 -1.1253 -0.2753 -0.0764
  796SOL     MW 3184   0.229   0.620   2.685 -0.3626  0.2450 -0.6474
  797SOL     OW 3185   2.632   0.174   2.593 -0.3282 -0.2998 -0.4870
  797SOL    HW1 3186   2.555   0.161   2.549 -3.4867 -0.2272  0.8159
  797SOL    HW2 3187   2.700   0.205   2.535  1.1141  0.7034  1.0183
  797SOL     MW 3188   2.631   0.176   2.580 -0.5547 -0.1578 -0.1164
  798SOL     OW 3189   2.368   0.056   2.223  0.4774 -0.2496 -0.2430
  798SOL    HW1 3190   2.392   0.117   2.298  1.3279  0.3469 -1.1164
  798SOL    HW2 3191   2.439   0.027   2.169 -0.1442  2.1708 -2.0561
  798SOL     MW 3192   2.380   0.060   2.226  0.5076  0.1484 -0.5975
  799SOL     OW 3193   2.551   2.980   0.123  0.3885  0.3366  0.3209
  799SOL    HW1 3194   2.474   2.947   0.079 -1.0073 -1.3408  0.0489
  799SOL    HW2 3195   2.538   2.958   0.213 -0.1519 -1.4638 -0.4290
  799SOL     MW 3196   2.539   2.973   0.129  0.1331 -0.1222  0.1861
  800SOL     OW 3197   1.930   3.066   1.765  0.2686  0.0985  0.3349
  800SOL    HW1 3198   1.863   2.999   1.749  1.1735  0.2037  2.1346
  800SOL    HW2 3199   1.988   3.043   1.839 -1.1909  2.0813 -2.1419
  800SOL     MW 3200   1.929   3.054   1.773  0.1954  0.3740  0.2456
  801SOL     OW 3201   2.838   1.222   2.621 -0.5965  0.1884 -0.0521
  801SOL    HW1 3202   2.853   1.130   2.600  1.9990 -1.2039 -0.3817
  801SOL    HW2 3203   2.920   1.264   2.598 -0.5846 -1.0650  0.4853
  801SOL     MW 3204   2.851   1.216   2.615 -0.2525 -0.1607 -0.0246
  802SOL     OW 3205   2.592   1.474   2.771 -0.0922 -0.1511  0.0233
  802SOL    HW1 3206   2.586   1.385   2.740 -1.1257 -1.5876 -2.2581
  802SOL    HW2 3207   2.665   1.451   2.835 -0.1796 -2.1808  0.7455
  802SOL     MW 3208   2.600   1.459   2.775 -0.2401 -0.6084 -0.1824
  803SOL     OW 3209   2.274   1.382   2.012 -0.0361 -0.1116  0.6799
  803SOL    HW1 3210   2.246   1.359   2.101 -0.7380 -1.8524 -0.5596
  803SOL    HW2 3211   2.241   1.312   1.955 -0.8849  0.0611 -0.8330
  803SOL     MW 3212   2.266   1.370   2.016 -0.2407 -0.3185  0.3168
  804SOL     OW 3213   2.296   0.087   0.029 -0.0291 -0.7517  0.3301
  804SOL    HW1 3214   2.218   0.149   0.027  0.2600 -0.4598 -2.2985
  804SOL    HW2 3215   2.364   0.113  -0.043  1.0138  0.1703  0.3915
  804SOL     MW 3216   2.295   0.099   0.019  0.1467 -0.5916 -0.0086
  805SOL     OW 3217   2.723   0.890   2.648  0.6008  0.3485 -0.2180
  805SOL    HW1 3218   2.643   0.855   2.601  1.3406  1.3560  0.4462
  805SOL    HW2 3219   2.788   0.834   2.613  0.9801  2.8900 -0.5077
  805SOL     MW 3220   2.721   0.878   2.637  0.7485  0.8167 -0.1686
  806SOL     OW 3221   2.581   0.694   2.226 -0.4451 -0.3527 -0.8352
  806SOL    HW1 3222   2.579   0.637   2.150  0.8066  0.5012 -1.0190
  806SOL    HW2 3223   2.588   0.779   2.183 -2.5626 -0.2969 -2.8205
  806SOL     MW 3224   2.582   0.698   2.210 -0.5593 -0.2326 -1.1214
  807SOL     OW 3225   0.077   1.089   2.066  0.6975 -0.7151 -0.0336
  807SOL    HW1 3226   0.090   0.995   2.068 -0.6576  2.4856 -1.3274
  807SOL    HW2 3227  -0.003   1.111   2.012 -1.8713 -0.1639 -1.2832
  807SOL     MW 3228   0.068   1.080   2.059  0.1798 -0.2200 -0.3692
  808SOL     OW 3229   2.659   0.004   2.813  0.4808 -1.1398 -0.0199
  808SOL    HW1 3230   2.589  -0.064   2.816 -0.8616  1.9096  2.6948
  808SOL    HW2 3231   2.633   0.048   2.728 -0.4323 -0.3963 -1.5787
  808SOL     MW 3232   2.646   0.001   2.802  0.1832 -0.6394  0.1326
  809SOL     OW 3233   2.692   1.358   2.388 -0.0127  0.1882 -0.1571
  809SOL    HW1 3234   2.725   1.302   2.461  0.5373 -1.5995 -2.4355
  809SOL    HW2 3235   2.725   1.310   2.309  0.3053  0.4273  1.1975
  809SOL     MW 3236   2.701   1.344   2.388  0.1018 -0.0161 -0.2790
  810SOL     OW 3237   2.233   1.342   2.301  0.4504 -0.3376  0.1001
  810SOL    HW1 3238   2.303   1.286   2.334 -2.3109 -0.7288 -0.3087
  810SOL    HW2 3239   2.155   1.319   2.351 -0.1399  0.0399 -0.0787
  810SOL     MW 3240   2.232   1.331   2.312  0.0082 -0.3394  0.0226
  811SOL     OW 3241   1.586   0.157   2.300 -0.0994 -0.2330  0.2970
  811SOL    HW1 3242   1.680   0.149   2.321  1.4042 -1.3314 -1.0827
  811SOL    HW2 3243   1.578   0.151   2.208 -3.3421  1.1814  1.4806
  811SOL     MW 3244   1.597   0.155   2.291 -0.3288 -0.1913  0.2711
  812SOL     OW 3245   1.462   2.843   2.041  0.3851 -0.9788 -0.2767
  812SOL    HW1 3246   1.555   2.864   2.027  0.0103  1.0575 -0.2983
  812SOL    HW2 3247   1.453   2.827   2.136 -0.3998  0.7384  0.8109
  812SOL     MW 3248   1.473   2.844   2.052  0.2320 -0.4836 -0.1361
  813SOL     OW 3249   2.030   0.613   2.249 -0.1392 -0.2537  0.0179
  813SOL    HW1 3250   1.947   0.576   2.242 -0.7916  1.8721  1.3053
  813SOL    HW2 3251   2.015   0.686   2.303 -0.5857  1.7436  1.3145
  813SOL     MW 3252   2.017   0.618   2.255 -0.2842  0.2903  0.3589
  814SOL     OW 3253   2.697   1.221   1.648 -0.1091 -0.4432  0.4353
  814SOL    HW1 3254   2.661   1.191   1.736  2.8986 -0.0790  1.0986
  814SOL    HW2 3255   2.685   1.148   1.591  1.4900 -0.1072  2.0132
  814SOL     MW 3256   2.691   1.208   1.652  0.4987 -0.3509  0.7310
  815SOL     OW 3257   2.543   1.763   2.412 -0.1667 -0.2015  0.1702
  815SOL    HW1 3258   2.497   1.681   2.371 -1.7798 -3.1563 -0.3870
  815SOL    HW2 3259   2.634   1.735   2.427  0.2949 -1.8820 -0.4651
  815SOL     MW 3260   2.549   1.748   2.408 -0.3186 -0.8131  0.0128
  816SOL     OW 3261   0.751   0.707   2.779 -0.1244 -0.3202  0.0451
  816SOL    HW1 3262   0.773   0.620   2.813  0.8062  4.7866 -1.8704
  816SOL    HW2 3263   0.649   0.715   2.759  0.4030 -1.6238 -1.7314
  816SOL     MW 3264   0.741   0.696   2.781  0.0680  0.1816 -0.4420
  817SOL     OW 3265   2.980   1.235   1.457  0.6941  0.2005  0.0316
  817SOL    HW1 3266   3.068   1.213   1.486 -2.5403 -1.1479  1.1625
  817SOL    HW2 3267   2.982   1.334   1.432  1.5411  2.8312  1.8817
  817SOL     MW 3268   2.992   1.245   1.457  0.3791  0.3697  0.4249
  818SOL     OW 3269   1.901   1.055   2.634  0.6013 -0.3712  0.1676
  818SOL    HW1 3270   1.871   1.001   2.557 -2.3896 -3.5591 -1.4237
  818SOL    HW2 3271   1.980   1.006   2.671  0.4769  3.2895  1.7160
  818SOL     MW 3272   1.907   1.041   2.629  0.1903 -0.3088  0.1619
  819SOL     OW 3273   1.972   0.326   2.492 -0.3302 -0.1281  0.2002
  819SOL    HW1 3274   1.890   0.375   2.471  2.0154 -0.5024 -2.7214
  819SOL    HW2 3275   1.992   0.336   2.585  1.2058 -0.4737  0.1636
  819SOL     MW 3276   1.963   0.334   2.501  0.1820 -0.2231 -0.1901
  820SOL     OW 3277   2.455   1.669   2.638 -0.0753 -0.1577 -0.4635
  820SOL    HW1 3278   2.510   1.600   2.680 -1.1241 -0.5893  0.4048
  820SOL    HW2 3279   2.486   1.685   2.546 -0.4354  1.9166  0.2060
  820SOL     MW 3280   2.466   1.662   2.631 -0.2612  0.0590 -0.2606
  821SOL     OW 3281   2.572   1.370   1.987 -0.1429 -0.0882  0.1439
  821SOL    HW1 3282   2.607   1.444   1.938 -3.3505 -3.2199 -0.7478
  821SOL    HW2 3283   2.482   1.389   1.999  0.2257  1.1301 -1.6482
  821SOL     MW 3284   2.565   1.383   1.982 -0.5175 -0.3407 -0.2102
  822SOL     OW 3285   2.898   2.742   1.469 -0.3923 -0.3102 -0.2691
  822SOL    HW1 3286   2.914   2.712   1.555 -2.3850 -1.7696  0.4993
  822SOL    HW2 3287   2.921   2.831   1.468  0.6129  0.8142  0.3351
  822SOL     MW 3288   2.903   2.749   1.480 -0.5226 -0.3544 -0.0880
  823SOL     OW 3289   2.373   0.519   1.851 -0.0229  0.7371 -0.4248
  823SOL    HW1 3290   2.431   0.455   1.816  4.1242 -0.0654 -0.0206
  823SOL    HW2 3291   2.358   0.487   1.937 -1.4304 -1.9684 -1.4507
  823SOL     MW 3292   2.379   0.506   1.858  0.3386  0.2743 -0.5068
  824SOL     OW 3293   2.275   1.468   2.670 -0.1232 -0.1094 -0.2728
  824SOL    HW1 3294   2.348   1.514   2.629 -0.2549 -0.5913  0.2071
  824SOL    HW2 3295   2.204   1.536   2.664  1.4811 -0.2397  1.4516
  824SOL     MW 3296   2.275   1.483   2.664  0.0711 -0.1901  0.0180
  825SOL     OW 3297   1.885   2.562   0.259  0.8428 -0.5961  0.0680
  825SOL    HW1 3298   1.843   2.492   0.317 -2.9629 -1.1754  1.7821
  825SOL    HW2 3299   1.947   2.517   0.202  0.0657  0.8095 -0.1709
  825SOL     MW 3300   1.888   2.546   0.259  0.2382 -0.4871  0.2627
  826SOL     OW 3301   1.795   2.380   0.431 -0.1844  0.2613  0.2927
  826SOL    HW1 3302   1.758   2.314   0.497 -1.4557 -2.2244 -0.0007
  826SOL    HW2 3303   1.778   2.463   0.479  2.7816  3.0259 -2.2970
  826SOL     MW 3304   1.788   2.382   0.446  0.0392  0.2981 -0.0877
  827SOL     OW 3305   1.892   2.202   0.799 -0.0541 -0.5614 -0.0800
  827SOL    HW1 3306   1.836   2.235   0.728 -2.2902 -1.0471  0.2236
  827SOL    HW2 3307   1.843   2.141   0.848 -1.5372  1.2876 -2.0779
  827SOL     MW 3308   1.878   2.198   0.796 -0.5448 -0.3815 -0.3035
  828SOL     OW 3309   0.050   2.617   0.572  0.0458 -0.2275  0.1012
  828SOL    HW1 3310   0.142   2.587   0.556 -1.8984 -0.3341 -1.4987
  828SOL    HW2 3311   0.009   2.624   0.486 -0.7794  0.4214  1.3511
  828SOL     MW 3312   0.057   2.614   0.559 -0.3196 -0.1559  0.0550
  829SOL     OW 3313   2.992   2.929   1.197  0.3341 -0.0416 -0.0305
  829SOL    HW1 3314   2.939   2.940   1.119 -0.2712 -1.0852  3.1781
  829SOL    HW2 3315   3.034   2.841   1.188 -0.9578 -1.0765 -1.2654
  829SOL     MW 3316   2.990   2.919   1.186  0.0838 -0.3158  0.2299
  830SOL     OW 3317   2.576   2.812   2.030  0.3454 -0.2114 -0.0974
  830SOL    HW1 3318   2.481   2.814   1.996  1.9295  1.5097  0.9085
  830SOL    HW2 3319   2.620   2.775   1.950 -1.6268 -0.9444  1.1516
  830SOL     MW 3320   2.569   2.807   2.015  0.2942 -0.0810  0.2001
  831SOL     OW 3321   2.355   2.439   1.174 -0.3772  0.3755 -0.1483
  831SOL    HW1 3322   2.320   2.372   1.242 -0.8053 -0.4054 -0.9221
  831SOL    HW2 3323   2.451   2.432   1.174 -1.2589  0.3068 -0.6843
  831SOL     MW 3324   2.363   2.429   1.183 -0.5500  0.2634 -0.3211
  832SOL     OW 3325   2.359   2.191   1.861  0.0826 -0.2767  0.1687
  832SOL    HW1 3326   2.378   2.277   1.896 -1.7159  0.2359  0.1841
  832SOL    HW2 3327   2.440   2.139   1.840  1.2417 -0.1518 -3.6291
  832SOL     MW 3328   2.372   2.195   1.863 -0.0018 -0.1926 -0.3303
  833SOL     OW 3329   1.720   2.467   0.876  0.6792  0.3064 -0.5246
  833SOL    HW1 3330   1.663   2.411   0.927  2.5565 -1.7096 -2.6822
  833SOL    HW2 3331   1.731   2.549   0.922 -2.7088 -3.0385 -4.5304
  833SOL     MW 3332   1.714   2.471   0.889  0.4799 -0.4009 -1.3378
  834SOL     OW 3333   2.070   2.425   0.589 -0.3212  0.6282  0.1842
  834SOL    HW1 3334   1.982   2.435   0.549 -0.8556 -0.8154  2.0484
  834SOL    HW2 3335   2.123   2.401   0.511 -1.1987 -0.7015 -1.3489
  834SOL     MW 3336   2.066   2.423   0.573 -0.5075  0.2623  0.2279
  835SOL     OW 3337   1.765   2.571   0.635 -0.4486 -0.1172 -0.2709
  835SOL    HW1 3338   1.723   2.522   0.715 -1.4450 -1.7300  2.5986
  835SOL    HW2 3339   1.848   2.582   0.678  1.1145 -0.4195  3.6238
  835SOL     MW 3340   1.770   2.566   0.651 -0.3739 -0.3699  0.6216
  836SOL     OW 3341   1.898   2.168   1.573  0.2732 -0.0802  0.0655
  836SOL    HW1 3342   1.975   2.216   1.596  0.3762 -0.5615  0.3974
  836SOL    HW2 3343   1.823   2.230   1.588 -1.2370 -0.0858 -0.8049
  836SOL     MW 3344   1.898   2.182   1.578  0.0876 -0.1445 -0.0055
  837SOL     OW 3345   2.132   0.237   0.687 -0.4370  0.3576 -0.6063
  837SOL    HW1 3346   2.038   0.248   0.658  1.3272 -1.8601  0.5189
  837SOL    HW2 3347   2.166   0.163   0.640 -3.7174 -0.0839  0.4579
  837SOL     MW 3348   2.124   0.229   0.677 -0.6370  0.0068 -0.3174
  838SOL     OW 3349   2.922   2.034   0.935 -0.1404  0.0687  0.2055
  838SOL    HW1 3350   2.854   1.966   0.942 -2.1862  0.4767 -1.8773
  838SOL    HW2 3351   2.995   1.974   0.932 -0.0133  1.0642 -1.3644
  838SOL     MW 3352   2.923   2.017   0.936 -0.3936  0.2539 -0.2765
  839SOL     OW 3353   1.531   2.334   1.049 -0.5164 -0.2586  0.5756
  839SOL    HW1 3354   1.546   2.401   1.116  0.1073 -0.3207 -1.9110
  839SOL    HW2 3355   1.542   2.248   1.095  0.4080  2.1796  1.5206
  839SOL     MW 3356   1.535   2.332   1.064 -0.3121  0.0549  0.3722
  840SOL     OW 3357   2.366   2.171   2.464 -0.1199 -0.4514  0.4987
  840SOL    HW1 3358   2.321   2.240   2.422 -0.2663 -2.2324  0.6060
  840SOL    HW2 3359   2.365   2.215   2.549  0.3328  0.0829 -2.7126
  840SOL     MW 3360   2.360   2.186   2.470 -0.0795 -0.6159  0.0892
  841SOL     OW 3361   2.079   2.449   0.119  0.5784  0.4799  0.3277
  841SOL    HW1 3362   2.124   2.518   0.066 -1.2559  4.4195  1.4003
  841SOL    HW2 3363   2.062   2.380   0.056 -0.5166 -1.6454 -1.2025
  841SOL     MW 3364   2.083   2.449   0.104  0.1919  0.7193  0.2673
  842SOL     OW 3365   2.681   2.080   1.528 -0.2954  0.2462 -0.0083
  842SOL    HW1 3366   2.624   2.054   1.598 -2.1370  0.0428 -2.1161
  842SOL    HW2 3367   2.618   2.091   1.451 -1.7769 -1.2563  0.8990
  842SOL     MW 3368   2.665   2.078   1.527 -0.7338  0.0211 -0.1667
  843SOL     OW 3369   2.659   2.759   1.777  0.0971  0.6606 -0.2866
  843SOL    HW1 3370   2.755   2.751   1.752  2.3523  0.1900 -0.5786
  843SOL    HW2 3371   2.605   2.683   1.732  1.7292  0.0115  0.6508
  843SOL     MW 3372   2.665   2.748   1.768  0.6100  0.5128 -0.2015
  844SOL     OW 3373   2.614   2.385   1.155 -0.5369 -0.0642  0.3782
  844SOL    HW1 3374   2.667   2.371   1.072  1.5034 -1.6137  0.1156
  844SOL    HW2 3375   2.676   2.430   1.218  2.2857 -1.8567 -1.1457
  844SOL     MW 3376   2.629   2.389   1.152  0.1047 -0.5051  0.1425
  845SOL     OW 3377   2.829   2.496   0.295 -0.3937 -0.3087  0.6578
  845SOL    HW1 3378   2.780   2.405   0.279 -3.1665 -1.0796 -0.8900
  845SOL    HW2 3379   2.834   2.508   0.389  1.3500 -1.4348 -2.3918
  845SOL     MW 3380   2.823   2.486   0.305 -0.5295 -0.5590  0.0512
  846SOL     OW 3381   1.585   2.845   0.799 -0.5930 -0.1416  0.0741
  846SOL    HW1 3382   1.674   2.876   0.821  0.0360 -1.3270  0.4048
  846SOL    HW2 3383   1.530   2.888   0.860  0.2431 -0.3797 -0.9582
  846SOL     MW 3384   1.589   2.854   0.810 -0.3997 -0.3294 -0.0185
  847SOL     OW 3385   2.601   1.914   0.191 -0.1001 -0.7432  0.2067
  847SOL    HW1 3386   2.680   1.890   0.234 -0.4061  0.3767 -3.6252
  847SOL    HW2 3387   2.590   1.865   0.112  1.5298  1.0035 -3.5637
  847SOL     MW 3388   2.610   1.905   0.187  0.0746 -0.3650 -0.7963
  848SOL     OW 3389   2.512   2.122   1.291 -0.3434  0.2819  0.2637
  848SOL    HW1 3390   2.572   2.176   1.241 -0.7979 -0.6930 -3.9474
  848SOL    HW2 3391   2.510   2.040   1.236 -0.1200  0.0608 -2.0047
  848SOL     MW 3392   2.519   2.118   1.277 -0.3739  0.1241 -0.5912
  849SOL     OW 3393   1.986   2.728   0.802  0.6222  0.3171  0.0366
  849SOL    HW1 3394   2.000   2.654   0.865 -1.3273  0.6706  1.3807
  849SOL    HW2 3395   2.057   2.723   0.742 -0.5123  1.8080 -1.2207
  849SOL     MW 3396   1.997   2.717   0.803  0.2153  0.5604  0.0480
  850SOL     OW 3397   2.187   1.961   1.678  0.5557  0.2433  0.0702
  850SOL    HW1 3398   2.103   1.919   1.656 -0.9518 -0.2186 -1.9324
  850SOL    HW2 3399   2.172   2.050   1.701 -0.4999  1.7128  1.5066
  850SOL     MW 3400   2.174   1.967   1.678  0.2175  0.3763 -0.0045
  851SOL     OW 3401   2.220   2.358   0.362 -0.2747 -0.0050  0.0258
  851SOL    HW1 3402   2.162   2.357   0.289 -0.8370 -1.9176 -0.4584
  851SOL    HW2 3403   2.294   2.408   0.330  2.4853 -0.2186  2.6671
  851SOL     MW 3404   2.222   2.365   0.348  0.0153 -0.2855  0.3104
  852SOL     OW 3405   2.286   2.130   0.197 -0.3634  0.4259 -0.9552
  852SOL    HW1 3406   2.277   2.204   0.259 -0.4731  0.5557 -0.7047
  852SOL    HW2 3407   2.378   2.143   0.168  1.1531 -1.2610  0.5998
  852SOL     MW 3408   2.297   2.142   0.201 -0.1778  0.2205 -0.7170
  853SOL     OW 3409   2.435   2.447   1.963  0.6961  0.0162  0.3951
  853SOL    HW1 3410   2.450   2.491   1.879 -0.3750 -0.4377  1.5323
  853SOL    HW2 3411   2.517   2.432   2.014 -1.1440  2.1653  0.7684
  853SOL     MW 3412   2.447   2.451   1.959  0.3120  0.2399  0.5944
  854SOL     OW 3413   2.876   2.221   0.740  0.4098  0.1654 -0.0528
  854SOL    HW1 3414   2.797   2.181   0.700  0.8569 -0.6755 -0.7158
  854SOL    HW2 3415   2.903   2.147   0.799 -0.4620 -0.1243  1.9097
  854SOL     MW 3416   2.870   2.206   0.743  0.3538  0.0163  0.1186
  855SOL     OW 3417   2.692   2.275   0.299  0.0452  0.4949  0.1796
  855SOL    HW1 3418   2.629   2.302   0.361  2.1814  1.0057  1.1603
  855SOL    HW2 3419   2.748   2.214   0.351  2.6129  0.7386  0.2494
  855SOL     MW 3420   2.691   2.270   0.314  0.6658  0.5944  0.3182
  856SOL     OW 3421   2.177   1.873   0.186 -0.9673 -0.1137  0.1697
  856SOL    HW1 3422   2.082   1.883   0.212 -1.3732  0.0288  0.9271
  856SOL    HW2 3423   2.217   1.961   0.195  0.2517  1.7412  0.8557
  856SOL     MW 3424   2.170   1.886   0.191 -0.8600  0.1498  0.3602
  857SOL     OW 3425   2.551   1.912   0.458  0.1286 -0.2592 -0.3311
  857SOL    HW1 3426   2.564   1.916   0.366  0.2686  2.0623  2.1435
  857SOL    HW2 3427   2.461   1.897   0.477 -0.3007 -0.4985  3.9918
  857SOL     MW 3428   2.541   1.911   0.449  0.0904  0.0155  0.5658
  858SOL     OW 3429   2.918   2.629   1.744 -0.0564 -0.8097  0.1422
  858SOL    HW1 3430   3.009   2.638   1.775  0.8811  0.9827 -1.7190
  858SOL    HW2 3431   2.882   2.553   1.789  2.5771  0.4636 -1.7402
  858SOL     MW 3432   2.925   2.620   1.754  0.4148 -0.4052 -0.3517
  859SOL     OW 3433   2.083   2.464   0.885 -0.7112  0.1039 -0.7508
  859SOL    HW1 3434   2.043   2.421   0.814  0.8602 -0.4096 -0.8587
  859SOL    HW2 3435   2.171   2.429   0.885  0.4834 -0.5327  1.8492
  859SOL     MW 3436   2.089   2.453   0.876 -0.3463 -0.0478 -0.4220
  860SOL     OW 3437   2.639   2.630   0.163  0.5701  0.1970 -0.8333
  860SOL    HW1 3438   2.707   2.582   0.220 -0.7531  2.0373  0.5655
  860SOL    HW2 3439   2.676   2.707   0.129 -1.5648 -1.5128  0.0934
  860SOL     MW 3440   2.653   2.633   0.166  0.1138  0.2142 -0.5265
  861SOL     OW 3441   1.578   2.099   1.171  0.2983 -0.1918  0.2310
  861SOL    HW1 3442   1.645   2.089   1.236 -0.9137  0.7023 -0.4433
  861SOL    HW2 3443   1.505   2.039   1.203  1.5189 -1.7872  0.9831
  861SOL     MW 3444   1.577   2.090   1.183  0.2995 -0.2843  0.2413
  862SOL     OW 3445   2.382   1.842   1.535 -0.2942  0.3712 -0.2971
  862SOL    HW1 3446   2.320   1.884   1.594  0.9286 -4.1951  1.1696
  862SOL    HW2 3447   2.360   1.863   1.443 -1.0581  0.0385 -0.7206
  862SOL     MW 3448   2.371   1.850   1.531 -0.2336 -0.2752 -0.1595
  863SOL     OW 3449   3.058   1.798   1.168 -0.3088 -0.0483  0.5831
  863SOL    HW1 3450   3.151   1.808   1.172 -1.0531  0.0757  1.1196
  863SOL    HW2 3451   3.013   1.877   1.194  2.6286 -0.9343  0.2794
  863SOL     MW 3452   3.064   1.810   1.172 -0.0194 -0.1488  0.6138
  864SOL     OW 3453   0.024   1.832   0.877 -0.3178 -0.4649 -0.6684
  864SOL    HW1 3454  -0.023   1.750   0.889  0.2017 -1.0957 -0.0903
  864SOL    HW2 3455   0.014   1.838   0.777 -1.1665 -0.9136  0.1567
  864SOL     MW 3456   0.017   1.822   0.866 -0.3612 -0.6073 -0.4832
  865SOL     OW 3457   2.529   2.174   0.052 -0.0190  0.2005 -0.3154
  865SOL    HW1 3458   2.566   2.088   0.098  1.4856 -1.9866 -1.7644
  865SOL    HW2 3459   2.496   2.147  -0.034  1.0150  0.6883 -0.2085
  865SOL     MW 3460   2.530   2.159   0.047  0.3159 -0.0237 -0.4925
  866SOL     OW 3461   2.692   2.376   1.585 -0.4366 -0.3728 -0.0162
  866SOL    HW1 3462   2.675   2.284   1.579 -0.1243  0.4455  3.4227
  866SOL    HW2 3463   2.719   2.413   1.501 -1.0166 -1.2279  0.6364
  866SOL     MW 3464   2.693   2.369   1.573 -0.4719 -0.3777  0.5236
  867SOL     OW 3465   0.069   2.740   1.843 -0.3267 -0.0334 -0.5503
  867SOL    HW1 3466   0.116   2.759   1.925 -0.2646 -1.0452  1.6608
  867SOL    HW2 3467   0.033   2.824   1.818 -0.4649 -2.7747  0.7604
  867SOL     MW 3468   0.070   2.753   1.850 -0.3367 -0.5286 -0.0856
  868SOL     OW 3469   2.792   2.562   0.556 -0.1087 -0.1684 -0.1531
  868SOL    HW1 3470   2.707   2.513   0.546 -0.3960  0.1304 -2.0412
  868SOL    HW2 3471   2.767   2.650   0.530 -0.6644  0.1852 -0.1309
  868SOL     MW 3472   2.778   2.567   0.551 -0.2199 -0.0823 -0.3993
  869SOL     OW 3473   1.928   2.330   1.057  0.7212  0.2707  0.0257
  869SOL    HW1 3474   1.999   2.383   1.010  2.4121  0.1535  2.1511
  869SOL    HW2 3475   1.873   2.285   0.981  0.7531 -2.7033  0.2255
  869SOL     MW 3476   1.930   2.331   1.040  0.9485 -0.1372  0.3324
  870SOL     OW 3477   2.241   0.027   0.515 -0.1774 -0.2898 -0.3397
  870SOL    HW1 3478   2.299   0.069   0.450 -0.7228  2.9852  0.1482
  870SOL    HW2 3479   2.290  -0.052   0.535  0.3625 -0.9067  0.1925
  870SOL     MW 3480   2.255   0.022   0.509 -0.1781  0.0609 -0.2051
  871SOL     OW 3481   2.474   2.014   0.886  0.0337 -0.8369  0.6029
  871SOL    HW1 3482   2.404   1.977   0.833  2.4796 -0.4739 -1.1212
  871SOL    HW2 3483   2.443   2.100   0.909 -1.1410 -1.8569 -1.0110
  871SOL     MW 3484   2.460   2.021   0.882  0.2014 -0.9236  0.1624
  872SOL     OW 3485   2.010   2.529   1.376 -0.1815 -0.9977 -0.3035
  872SOL    HW1 3486   1.988   2.586   1.456 -0.5818 -0.8170 -1.3970
  872SOL    HW2 3487   1.940   2.470   1.355 -0.9114  0.0839  1.2931
  872SOL     MW 3488   1.998   2.528   1.384 -0.3306 -0.8312 -0.2372
  873SOL     OW 3489   2.828   2.089   1.935  0.0623 -0.0420  0.2756
  873SOL    HW1 3490   2.856   2.155   1.994 -0.8975 -1.9836 -1.1093
  873SOL    HW2 3491   2.901   2.076   1.874  1.2979 -0.2729  1.0279
  873SOL     MW 3492   2.841   2.096   1.935  0.0987 -0.3286  0.1921
  874SOL     OW 3493   2.431   1.524   2.370  0.1431  0.8604  0.6226
  874SOL    HW1 3494   2.367   1.463   2.334  0.7853 -2.9629  0.7845
  874SOL    HW2 3495   2.509   1.472   2.369 -1.1185 -0.9054  0.0658
  874SOL     MW 3496   2.433   1.509   2.365  0.0614  0.1230  0.5705
  875SOL     OW 3497   2.321   2.294   0.920 -0.1118 -0.2409  0.6202
  875SOL    HW1 3498   2.395   2.324   0.863  2.0547 -4.2672 -1.1388
  875SOL    HW2 3499   2.329   2.323   1.008  1.0893 -0.4041 -0.3996
  875SOL     MW 3500   2.332   2.302   0.924  0.3325 -0.7937  0.2535
  876SOL     OW 3501   3.028   2.330   1.327 -0.2634 -0.1588 -0.1407
  876SOL    HW1 3502   3.082   2.362   1.252 -0.6035 -0.4907 -0.8709
  876SOL    HW2 3503   3.087   2.378   1.386  1.4842  3.6177 -1.7100
  876SOL     MW 3504   3.043   2.340   1.324 -0.0777  0.2957 -0.4441
  877SOL     OW 3505   3.014   2.747   0.327 -0.3281 -0.4696  0.3076
  877SOL    HW1 3506   2.990   2.819   0.270 -1.1933 -0.3123  2.2632
  877SOL    HW2 3507   3.023   2.669   0.274 -0.1435  1.7406 -0.9053
  877SOL     MW 3508   3.012   2.746   0.313 -0.4179 -0.1572  0.4056
  878SOL     OW 3509   2.306   1.819   1.287 -0.0741  0.2814  0.0749
  878SOL    HW1 3510   2.239   1.748   1.298  0.9291  1.1105 -0.3739
  878SOL    HW2 3511   2.389   1.776   1.267 -2.7573 -0.3455 -1.2272
  878SOL     MW 3512   2.308   1.804   1.286 -0.2957  0.3081 -0.1561
  879SOL     OW 3513   2.757   2.435   0.890 -0.2149 -0.0101 -0.1487
  879SOL    HW1 3514   2.818   2.488   0.950  1.6613  0.3298  0.8478
  879SOL    HW2 3515   2.802   2.372   0.840 -2.1539  1.9761 -1.8887
  879SOL     MW 3516   2.771   2.433   0.891 -0.2232  0.2968 -0.2468
  880SOL     OW 3517   2.628   2.067   0.667 -0.3168  1.2449  0.1328
  880SOL    HW1 3518   2.581   2.041   0.752 -1.9743 -0.2049  1.7977
  880SOL    HW2 3519   2.576   2.020   0.603 -0.0533 -0.4493 -0.8995
  880SOL     MW 3520   2.615   2.057   0.670 -0.5007  0.8301  0.2162
  881SOL     OW 3521   2.923   2.687   0.758  0.2531  0.2256 -0.1952
  881SOL    HW1 3522   2.863   2.639   0.698 -2.8546 -0.4284  0.1107
  881SOL    HW2 3523   3.013   2.677   0.727  1.8055 -0.5747 -2.0918
  881SOL     MW 3524   2.927   2.679   0.746  0.0479  0.0337 -0.4051
  882SOL     OW 3525   2.322   2.794   1.893 -0.3149  0.5955  0.6895
  882SOL    HW1 3526   2.301   2.795   1.800  2.4502  0.0293  1.1549
  882SOL    HW2 3527   2.250   2.743   1.927  0.0442  2.0971  0.0794
  882SOL     MW 3528   2.310   2.787   1.885  0.0973  0.7189  0.6704
  883SOL     OW 3529   2.266   2.268   1.368  0.0656  0.3760  0.4393
  883SOL    HW1 3530   2.340   2.208   1.346  2.0737 -0.8805  0.1464
  883SOL    HW2 3531   2.192   2.234   1.310 -0.6603 -1.4874 -0.2084
  883SOL     MW 3532   2.266   2.256   1.358  0.2348 -0.0357  0.3152
  884SOL     OW 3533   1.888   1.877   1.128 -0.5983  0.1915  0.3483
  884SOL    HW1 3534   1.826   1.928   1.074 -0.4546 -0.3826 -2.0320
  884SOL    HW2 3535   1.972   1.916   1.120 -1.7212  1.9991 -0.2285
  884SOL     MW 3536   1.891   1.889   1.120 -0.7275  0.3543 -0.0419
  885SOL     OW 3537   2.786   2.416   1.848  0.3065  0.2263 -0.2545
  885SOL    HW1 3538   2.860   2.351   1.828  4.0651 -0.5327  0.3466
  885SOL    HW2 3539   2.733   2.408   1.769 -3.1900  0.0820  0.7022
  885SOL     MW 3540   2.789   2.407   1.835  0.3411  0.1071 -0.0490
  886SOL     OW 3541   2.803   2.464   1.368  0.0555 -0.6391 -0.5126
  886SOL    HW1 3542   2.877   2.402   1.359  0.4255 -0.7608  1.1564
  886SOL    HW2 3543   2.838   2.555   1.381 -0.5220 -0.6760 -0.8786
  886SOL     MW 3544   2.818   2.468   1.369  0.0281 -0.6600 -0.3407
  887SOL     OW 3545   2.301   2.608   1.494 -0.0283 -0.0358  0.2543
  887SOL    HW1 3546   2.320   2.656   1.412 -1.8111  0.3013  0.7538
  887SOL    HW2 3547   2.260   2.529   1.459  1.0609 -0.7435 -1.8956
  887SOL     MW 3548   2.298   2.604   1.479 -0.1198 -0.0847  0.0365
  888SOL     OW 3549   1.803   2.083   1.338  0.1950 -0.0461 -0.0522
  888SOL    HW1 3550   1.879   2.063   1.285  2.0719  1.0350  0.6420
  888SOL    HW2 3551   1.831   2.083   1.432 -2.5129  0.3558  2.0551
  888SOL     MW 3552   1.816   2.080   1.344  0.0854  0.1495  0.3175
  889SOL     OW 3553   2.350   2.018   2.103  0.3676 -0.3382  0.2627
  889SOL    HW1 3554   2.413   2.033   2.176  1.1511  0.3966 -1.0684
  889SOL    HW2 3555   2.366   2.082   2.036  2.4803  1.0269  0.4694
  889SOL     MW 3556   2.361   2.028   2.104  0.7497 -0.0611  0.1144
  890SOL     OW 3557   0.123   2.288   0.095 -0.4222 -0.3775 -0.1395
  890SOL    HW1 3558   0.082   2.371   0.116 -0.7874 -2.0688  2.4768
  890SOL    HW2 3559   0.105   2.237   0.178  0.3005 -0.6834  0.5256
  890SOL     MW 3560   0.115   2.293   0.109 -0.3750 -0.6410  0.2934
  891SOL     OW 3561   3.046   2.052   1.312  0.0625  0.0722 -0.4673
  891SOL    HW1 3562   3.135   2.044   1.296 -2.6839  1.3356 -2.0743
  891SOL    HW2 3563   3.027   2.143   1.308 -1.3160 -0.6223 -2.6832
  891SOL     MW 3564   3.055   2.063   1.309 -0.4817  0.1473 -0.9717
  892SOL     OW 3565   2.368   2.409   2.986  0.2004  0.2975 -0.1254
  892SOL    HW1 3566   2.354   2.314   2.992  0.0676  2.0545 -1.3310
  892SOL    HW2 3567   2.462   2.409   2.954  2.0961 -2.3259  1.4369
  892SOL     MW 3568   2.379   2.397   2.982  0.4330  0.1832 -0.0783
  893SOL     OW 3569   1.570   2.519   1.226  0.2138 -0.6362 -0.0658
  893SOL    HW1 3570   1.494   2.526   1.296  2.3002  0.5851  2.5346
  893SOL    HW2 3571   1.643   2.474   1.273 -0.1771  2.6710 -2.4492
  893SOL     MW 3572   1.570   2.514   1.241  0.4375 -0.0387 -0.0371
  894SOL     OW 3573   2.829   1.912   0.508 -0.0833  0.1241 -0.4592
  894SOL    HW1 3574   2.735   1.904   0.544 -1.4258  0.4939 -0.1119
  894SOL    HW2 3575   2.823   1.850   0.427 -0.5535  0.9982 -0.5523
  894SOL     MW 3576   2.816   1.903   0.502 -0.3225  0.2882 -0.4257
  895SOL     OW 3577   2.077   2.156   1.178  0.0210  0.3195  0.2739
  895SOL    HW1 3578   2.026   2.215   1.121  0.1208  1.5184  0.5930
  895SOL    HW2 3579   2.100   2.084   1.117  1.3084 -0.1697 -0.5600
  895SOL     MW 3580   2.073   2.154   1.163  0.2041  0.4132  0.2060
  896SOL     OW 3581   2.200   2.831   1.073  0.0043 -0.1404  0.5536
  896SOL    HW1 3582   2.275   2.801   1.129 -1.5311  0.0047  0.6486
  896SOL    HW2 3583   2.124   2.801   1.116 -0.0329 -3.3884 -0.4805
  896SOL     MW 3584   2.200   2.823   1.086 -0.2032 -0.5498  0.4297
  897SOL     OW 3585   2.979   2.976   0.179 -0.1814  0.3794  0.5653
  897SOL    HW1 3586   3.062   2.959   0.130  0.3701 -0.2561  0.0150
  897SOL    HW2 3587   2.907   2.935   0.132  4.1881 -1.7197  2.4525
  897SOL     MW 3588   2.981   2.968   0.166  0.4679  0.0186  0.7417
  898SOL     OW 3589   2.074   0.191   1.438  0.0668  0.4065  0.7816
  898SOL    HW1 3590   2.021   0.120   1.393  0.7180  1.9423 -1.3416
  898SOL    HW2 3591   2.139   0.229   1.379  2.5459 -1.6455  3.4356
  898SOL     MW 3592   2.076   0.187   1.424  0.4798  0.3384  0.8516
  899SOL     OW 3593   2.903   2.969   0.682 -0.2366 -0.6266  0.5498
  899SOL    HW1 3594   2.917   2.888   0.733 -0.9615  0.4723  1.7384
  899SOL    HW2 3595   2.816   3.009   0.701 -0.4329  1.6306  0.2018
  899SOL     MW 3596   2.893   2.963   0.691 -0.3581 -0.1838  0.6607
  900SOL     OW 3597   0.130   2.371   1.109  0.1795 -0.4692 -0.1623
  900SOL    HW1 3598   0.131   2.453   1.058 -0.8344  1.0116  1.8332
  900SOL    HW2 3599   0.104   2.305   1.046 -1.7063  0.1487  0.9499
  900SOL     MW 3600   0.126   2.373   1.094 -0.2031 -0.1923  0.2477
  901SOL     OW 3601   1.742   2.830   1.726  0.4820  0.7640 -0.6862
  901SOL    HW1 3602   1.810   2.782   1.677  0.8783  0.8273  0.1268
  901SOL    HW2 3603   1.683   2.841   1.657  0.3065 -0.8788  2.2014
  901SOL     MW 3604   1.743   2.825   1.710  0.5111  0.5556 -0.1980
  902SOL     OW 3605   2.572   2.000   1.831  0.0214  0.1611  0.6366
  902SOL    HW1 3606   2.565   1.912   1.859  0.6265  0.1785 -0.4042
  902SOL    HW2 3607   2.660   2.013   1.870  0.5546 -1.5658 -1.6081
  902SOL     MW 3608   2.583   1.990   1.840  0.1716 -0.0644  0.2031
  903SOL     OW 3609   1.627   2.797   0.532 -0.5218 -0.0919  0.5263
  903SOL    HW1 3610   1.678   2.714   0.548 -2.6302  0.0877  1.9986
  903SOL    HW2 3611   1.595   2.834   0.621 -0.0545 -0.2232  1.0060
  903SOL     MW 3612   1.630   2.791   0.546 -0.7384 -0.0855  0.7839
  904SOL     OW 3613   2.499   2.570   1.684 -0.4955  0.5160  0.5466
  904SOL    HW1 3614   2.428   2.569   1.625  1.0722 -0.8264  0.6234
  904SOL    HW2 3615   2.572   2.515   1.648 -0.2676  1.0721  1.8047
  904SOL     MW 3616   2.500   2.563   1.672 -0.2586  0.4123  0.7228
  905SOL     OW 3617   2.344   2.583   2.183 -0.3895 -0.4678  0.4736
  905SOL    HW1 3618   2.386   2.547   2.107 -0.8403  1.7873  1.0977
  905SOL    HW2 3619   2.310   2.505   2.239  0.8143  0.6036  2.3627
  905SOL     MW 3620   2.345   2.568   2.180 -0.2901 -0.0289  0.8052
  906SOL     OW 3621   2.511   2.463   0.800 -0.1674 -0.1642 -0.8891
  906SOL    HW1 3622   2.601   2.454   0.842 -0.2972  0.9316  1.3038
  906SOL    HW2 3623   2.486   2.548   0.832 -1.0743  1.1763 -0.7503
  906SOL     MW 3624   2.519   2.473   0.810 -0.3042  0.1572 -0.5814
  907SOL     OW 3625   2.619   2.890   1.253  0.3796  0.4869 -0.2150
  907SOL    HW1 3626   2.680   2.922   1.320  1.2163 -0.2867 -1.2417
  907SOL    HW2 3627   2.663   2.899   1.171  0.3229  0.7034 -0.3778
  907SOL     MW 3628   2.633   2.895   1.251  0.4825  0.4134 -0.3719
  908SOL     OW 3629   2.712   2.398   0.024  0.1719 -0.0440 -0.5325
  908SOL    HW1 3630   2.635   2.331   0.032 -3.4842 -0.8994  0.5398
  908SOL    HW2 3631   2.669   2.480   0.040 -0.5252  1.9220  0.0092
  908SOL     MW 3632   2.696   2.400   0.027 -0.4025  0.1025 -0.3195
  909SOL     OW 3633   1.615   0.215   1.022 -0.0111 -0.6897  0.1920
  909SOL    HW1 3634   1.637   0.307   1.005 -1.7783  0.1525  2.8223
  909SOL    HW2 3635   1.622   0.217   1.114 -2.4712  1.0394 -0.6835
  909SOL     MW 3636   1.619   0.227   1.032 -0.5688 -0.3504  0.4235
  910SOL     OW 3637   2.291   1.768   0.410  0.0010  0.5533  0.2042
  910SOL    HW1 3638   2.257   1.678   0.415  1.7956 -2.1392 -0.4610
  910SOL    HW2 3639   2.257   1.804   0.327  1.8391  0.3307  1.3857
  910SOL     MW 3640   2.282   1.761   0.400  0.4803  0.1687  0.2723
  911SOL     OW 3641   2.154   2.295   1.654 -0.1766  0.5249  0.3366
  911SOL    HW1 3642   2.225   2.280   1.713  1.7121  0.5602  0.2178
  911SOL    HW2 3643   2.199   2.316   1.569  3.0755  0.5745 -0.0131
  911SOL     MW 3644   2.169   2.296   1.651  0.5016  0.5361  0.2748
  912SOL     OW 3645   2.906   1.922   1.500  0.1178  0.1017  0.2045
  912SOL    HW1 3646   2.965   1.979   1.447  0.6763  0.5700  0.9986
  912SOL    HW2 3647   2.829   1.973   1.509  1.1692  4.0543  2.0243
  912SOL     MW 3648   2.904   1.936   1.494  0.3302  0.6850  0.5494
  913SOL     OW 3649   2.539   2.948   0.412  0.1554 -0.2116  0.4660
  913SOL    HW1 3650   2.624   2.897   0.411  1.2128 -0.3340  1.0367
  913SOL    HW2 3651   2.467   2.883   0.399 -0.3860 -0.9248 -1.2186
  913SOL     MW 3652   2.541   2.933   0.410  0.2235 -0.3219  0.3190
  914SOL     OW 3653   2.788   1.651   0.026 -0.4577 -0.0963 -0.5154
  914SOL    HW1 3654   2.789   1.716  -0.043  0.4816 -1.0605  1.7204
  914SOL    HW2 3655   2.697   1.643   0.041  4.3300  5.1770 -0.4223
  914SOL     MW 3656   2.776   1.659   0.019  0.2979  0.4722 -0.2081
  915SOL     OW 3657   1.844   0.163   0.222  0.2507  0.5016  0.0849
  915SOL    HW1 3658   1.893   0.091   0.261 -2.3536 -1.3942  0.1119
  915SOL    HW2 3659   1.757   0.152   0.255  0.7095 -1.0111  2.7571
  915SOL     MW 3660   1.839   0.152   0.232 -0.0324  0.0518  0.4411
  916SOL     OW 3661   1.821   2.081   1.988 -0.1842  0.0545  0.1095
  916SOL    HW1 3662   1.810   2.173   1.959 -1.7803 -1.3950  0.3402
  916SOL    HW2 3663   1.804   2.027   1.911  0.2921 -0.7602  2.3637
  916SOL     MW 3664   1.817   2.086   1.974 -0.3320 -0.2442  0.4374
  917SOL     OW 3665   2.305   2.343   2.689  0.3020  0.2477 -0.0848
  917SOL    HW1 3666   2.319   2.381   2.774 -0.0248  0.1811 -1.4032
  917SOL    HW2 3667   2.298   2.423   2.638  2.6540 -0.7200 -1.5898
  917SOL     MW 3668   2.306   2.359   2.693  0.5692  0.1113 -0.4573
  918SOL     OW 3669   2.083   1.663   2.665  0.0031  0.0311  0.0188
  918SOL    HW1 3670   1.999   1.688   2.626  0.2480 -1.7182 -2.4432
  918SOL    HW2 3671   2.142   1.737   2.646 -0.3636 -1.9905  1.3802
  918SOL     MW 3672   2.080   1.676   2.657 -0.0130 -0.4664 -0.1264
  919SOL     OW 3673   3.085   2.387   2.277  0.4209 -0.4318 -0.3189
  919SOL    HW1 3674   3.009   2.327   2.236  0.4178  2.8972  0.9755
  919SOL    HW2 3675   3.155   2.376   2.209  3.0384  0.2998 -2.1775
  919SOL     MW 3676   3.084   2.378   2.263  0.7658  0.1039 -0.3933
  920SOL     OW 3677   2.776   2.842   0.015 -0.4289 -0.3425  0.4984
  920SOL    HW1 3678   2.692   2.886   0.033 -1.3730 -1.7649  0.0816
  920SOL    HW2 3679   2.753   2.776  -0.053  0.5653 -0.0293 -0.4167
  920SOL     MW 3680   2.762   2.839   0.008 -0.4223 -0.4889  0.3226
  921SOL     OW 3681   2.508   2.614   2.673 -0.1693 -0.1615 -0.1164
  921SOL    HW1 3682   2.571   2.603   2.602 -0.1260  1.8481 -1.5524
  921SOL    HW2 3683   2.524   2.547   2.729 -2.2344  1.3812 -2.3745
  921SOL     MW 3684   2.519   2.604   2.671 -0.4360  0.3072 -0.6038
  922SOL     OW 3685   2.040   2.806   0.253  0.0571 -0.0334 -0.0343
  922SOL    HW1 3686   2.015   2.865   0.179  2.2073 -0.2671  2.2991
  922SOL    HW2 3687   1.981   2.725   0.232 -0.7162  1.3983 -2.0973
  922SOL     MW 3688   2.029   2.803   0.240  0.2387  0.1247  0.0014
  923SOL     OW 3689   2.209   2.829   1.649 -0.0674  0.2952  0.1473
  923SOL    HW1 3690   2.242   2.762   1.585  1.4406  0.8311  1.0763
  923SOL    HW2 3691   2.208   2.917   1.613 -0.6350 -2.2892 -0.5269
  923SOL     MW 3692   2.213   2.831   1.636  0.0567  0.0249  0.1809
  924SOL     OW 3693   1.168   2.777   2.492 -0.2005  0.3224  0.2151
  924SOL    HW1 3694   1.196   2.848   2.429 -0.0906  0.1955  0.7619
  924SOL    HW2 3695   1.241   2.731   2.535  0.1533 -0.2671  3.2146
  924SOL     MW 3696   1.181   2.780   2.490 -0.1393  0.2279  0.6830
  925SOL     OW 3697   2.956   0.204   2.672  0.1377 -0.3896 -0.3332
  925SOL    HW1 3698   2.992   0.255   2.597 -4.4294 -1.4492  1.0195
  925SOL    HW2 3699   2.886   0.263   2.706 -0.5930  1.9351  2.1440
  925SOL     MW 3700   2.952   0.218   2.667 -0.5613 -0.2226  0.1721
  926SOL     OW 3701   2.662   2.397   2.097  0.5462 -0.0441  0.1532
  926SOL    HW1 3702   2.711   2.460   2.147 -0.0496 -0.1289  0.1162
  926SOL    HW2 3703   2.717   2.404   2.017 -1.2045  3.1909  0.1756
  926SOL     MW 3704   2.676   2.406   2.093  0.2366  0.3715  0.1513
  927SOL     OW 3705   2.358   0.150   0.314  0.1755 -0.3190  0.4024
  927SOL    HW1 3706   2.450   0.158   0.298 -2.0549 -0.6073 -1.4506
  927SOL    HW2 3707   2.319   0.120   0.234 -2.8523 -0.9350 -1.4249
  927SOL     MW 3708   2.365   0.147   0.302 -0.5183 -0.4383 -0.0832
  928SOL     OW 3709   2.003   2.505   1.779 -0.1079 -0.0124 -0.2561
  928SOL    HW1 3710   2.041   2.436   1.718 -1.2350 -1.7101 -0.2373
  928SOL    HW2 3711   2.068   2.544   1.838  1.7198 -0.9762  0.1802
  928SOL     MW 3712   2.017   2.501   1.779 -0.0155 -0.3635 -0.1961
  929SOL     OW 3713   2.769   2.362   2.448 -0.4506 -0.1247  0.6529
  929SOL    HW1 3714   2.729   2.283   2.415  3.6621  0.2804  0.7516
  929SOL    HW2 3715   2.774   2.341   2.539  1.9208  3.4605 -0.1586
  929SOL     MW 3716   2.764   2.349   2.456  0.4049  0.4018  0.5589
  930SOL     OW 3717   2.025   2.907   2.663  0.4859  0.3305  0.1579
  930SOL    HW1 3718   2.028   2.847   2.734 -1.8392 -0.3749 -0.9212
  930SOL    HW2 3719   2.120   2.931   2.647 -1.0428  0.6219  2.4511
  930SOL     MW 3720   2.038   2.902   2.670 -0.0226  0.2759  0.3181
  931SOL     OW 3721   2.931   2.834   2.229  0.0240 -0.3502  0.3756
  931SOL    HW1 3722   3.008   2.784   2.199  1.2032  0.1289  1.9754
  931SOL    HW2 3723   2.879   2.837   2.153  1.3455  0.5077  0.7474
  931SOL     MW 3724   2.934   2.828   2.215  0.3540 -0.1738  0.6358
  932SOL     OW 3725   2.832   1.925   2.575 -0.0079  0.1869  0.0280
  932SOL    HW1 3726   2.927   1.940   2.589  0.5892  1.1381  0.6007
  932SOL    HW2 3727   2.830   1.935   2.483  3.0501 -1.3017 -1.9098
  932SOL     MW 3728   2.844   1.929   2.564  0.4743  0.1160 -0.1521
  933SOL     OW 3729   2.033   2.817   2.224 -0.6127 -0.0773 -0.3558
  933SOL    HW1 3730   2.127   2.830   2.235 -2.1358  0.3191  0.6947
  933SOL    HW2 3731   2.005   2.910   2.223  4.7189  0.4300 -2.5294
  933SOL     MW 3732   2.042   2.831   2.225 -0.1102  0.0419 -0.5040
  934SOL     OW 3733   2.024   2.693   2.468  0.5964  0.3957  0.4882
  934SOL    HW1 3734   2.031   2.753   2.539 -1.0512 -0.7267  1.2429
  934SOL    HW2 3735   2.028   2.741   2.379 -0.1173  0.2828 -0.1017
  934SOL     MW 3736   2.026   2.708   2.466  0.2848  0.2327  0.5099
  935SOL     OW 3737   2.602   1.585   1.794 -0.0157 -0.9928 -0.2174
  935SOL    HW1 3738   2.679   1.564   1.747 -2.5172  1.5127 -0.7962
  935SOL    HW2 3739   2.553   1.598   1.719  2.6546  2.2958  2.7103
  935SOL     MW 3740   2.605   1.584   1.778  0.0066 -0.2283  0.0925
  936SOL     OW 3741   2.952   2.246   3.039 -0.1282  0.0879  0.3272
  936SOL    HW1 3742   3.026   2.289   3.076 -0.3526  1.4600 -0.2521
  936SOL    HW2 3743   2.875   2.296   3.070  1.9554  0.6026  0.7157
  936SOL     MW 3744   2.952   2.258   3.048  0.1171  0.3369  0.3021
  937SOL     OW 3745   1.975   2.192   2.633 -0.2248  0.3727 -0.3622
  937SOL    HW1 3746   2.048   2.151   2.684 -1.2302 -3.0001 -1.0951
  937SOL    HW2 3747   2.004   2.177   2.540  0.9663 -0.3612  0.2510
  937SOL     MW 3748   1.989   2.185   2.627 -0.2003 -0.1691 -0.3780
  938SOL     OW 3749   2.281   1.842   1.909  0.3573 -0.3206 -0.1876
  938SOL    HW1 3750   2.235   1.889   1.840  0.3624 -1.1588 -1.1662
  938SOL    HW2 3751   2.277   1.900   1.983  1.7043 -2.9740 -3.3788
  938SOL     MW 3752   2.274   1.856   1.910  0.5357 -0.7813 -0.7378
  939SOL     OW 3753   2.805   1.940   2.279  0.1168 -0.1805  0.4973
  939SOL    HW1 3754   2.815   1.888   2.202  0.4849 -0.5877  0.3559
  939SOL    HW2 3755   2.707   1.943   2.281 -1.9470 -1.5595  0.0691
  939SOL     MW 3756   2.793   1.933   2.269 -0.1070 -0.4161  0.4221
  940SOL     OW 3757   2.273   0.143   2.694  0.8213 -0.5192  0.3628
  940SOL    HW1 3758   2.281   0.053   2.672 -1.5866  1.1161  0.5604
  940SOL    HW2 3759   2.317   0.158   2.779 -0.9815  1.0579 -0.8951
  940SOL     MW 3760   2.280   0.133   2.702  0.2658 -0.0953  0.2229
  941SOL     OW 3761   0.164   2.352   2.069 -0.3540 -0.7537 -0.3034
  941SOL    HW1 3762   0.233   2.288   2.077 -3.6202  1.8351  0.3586
  941SOL    HW2 3763   0.102   2.323   2.000 -0.6846  0.5728  1.2893
  941SOL     MW 3764   0.165   2.340   2.061 -0.8285 -0.2371 -0.0059
  942SOL     OW 3765   2.885   2.226   2.165 -0.2961 -0.1600  0.0606
  942SOL    HW1 3766   2.803   2.281   2.178 -1.4359  0.3004  1.3327
  942SOL    HW2 3767   2.861   2.143   2.214  1.5630  0.6406 -1.2201
  942SOL     MW 3768   2.871   2.222   2.173 -0.2012  0.0064  0.0595
  943SOL     OW 3769   0.275   2.014   2.326  0.6383  0.0289  0.1387
  943SOL    HW1 3770   0.206   2.064   2.381 -0.2267  1.6237  1.8051
  943SOL    HW2 3771   0.363   2.018   2.367  2.0261  2.2543  0.8099
  943SOL     MW 3772   0.278   2.021   2.339  0.7073  0.5330  0.4471
  944SOL     OW 3773   2.112   2.655   1.999 -0.0072 -0.3223  0.1406
  944SOL    HW1 3774   2.176   2.611   2.057  0.8488 -2.0012 -1.7251
  944SOL    HW2 3775   2.048   2.696   2.054 -0.3533 -1.5199 -2.7981
  944SOL     MW 3776   2.112   2.654   2.014  0.0601 -0.7018 -0.4933
  945SOL     OW 3777   2.760   2.685   2.886 -0.0299 -0.1717 -0.3400
  945SOL    HW1 3778   2.723   2.596   2.892 -1.5591  2.7047  0.3287
  945SOL    HW2 3779   2.807   2.694   2.802  0.1853 -1.6496  0.6265
  945SOL     MW 3780   2.761   2.674   2.876 -0.2033  0.0128 -0.1242
  946SOL     OW 3781   2.520   2.753   2.295 -0.4247  0.3285  0.2334
  946SOL    HW1 3782   2.555   2.803   2.218 -0.4829  2.1936  1.9943
  946SOL    HW2 3783   2.449   2.703   2.259 -2.3504 -0.6601 -1.0255
  946SOL     MW 3784   2.515   2.753   2.280 -0.6865  0.4442  0.2996
  947SOL     OW 3785   2.045   0.019   0.333 -0.5037 -0.5844 -1.0773
  947SOL    HW1 3786   2.055  -0.079   0.327  0.3682 -4.0286  1.3068
  947SOL    HW2 3787   2.109   0.041   0.401  0.7889  1.4245  3.8064
  947SOL     MW 3788   2.055   0.009   0.342 -0.2182 -0.7738 -0.1184
  948SOL     OW 3789   1.821   3.086   2.605 -0.2059 -0.5428  0.2441
  948SOL    HW1 3790   1.895   3.025   2.619 -0.0379  0.2407  3.0340
  948SOL    HW2 3791   1.847   3.136   2.529 -2.7187  0.1578  1.8167
  948SOL     MW 3792   1.834   3.085   2.596 -0.5153 -0.3470  0.8197
  949SOL     OW 3793   2.535   2.011   2.307  0.2053  0.6267 -0.5989
  949SOL    HW1 3794   2.516   1.922   2.349 -1.5805  0.0628 -0.8699
  949SOL    HW2 3795   2.492   2.068   2.375 -2.6258 -0.3183  0.1537
  949SOL     MW 3796   2.527   2.007   2.322 -0.4039  0.4276 -0.5354
  950SOL     OW 3797   2.181   2.624   3.038 -0.1337  0.0023 -0.1785
  950SOL    HW1 3798   2.242   2.570   2.988  1.3842 -1.8830  0.4079
  950SOL    HW2 3799   2.115   2.663   2.979 -0.4596 -1.8982  1.4647
  950SOL     MW 3800   2.181   2.622   3.024  0.0236 -0.4972  0.1157
  951SOL     OW 3801   2.916   2.065   2.832  0.9287  0.4243 -0.8468
  951SOL    HW1 3802   2.944   2.123   2.901  1.7117 -3.1765 -0.4901
  951SOL    HW2 3803   2.995   2.059   2.775 -2.8855 -0.5389 -0.8747
  951SOL     MW 3804   2.930   2.072   2.834  0.5288 -0.1779 -0.8034
  952SOL     OW 3805   3.072   1.638   2.075 -0.7819  0.3200 -0.3857
  952SOL    HW1 3806   3.006   1.697   2.040 -2.9398  0.3977 -0.4772
  952SOL    HW2 3807   3.138   1.690   2.126 -1.5840 -0.8596 -1.4476
  952SOL     MW 3808   3.072   1.653   2.077 -1.1725  0.1747 -0.5379
  953SOL     OW 3809   1.955   1.830   2.864 -0.4247 -0.2595  0.1542
  953SOL    HW1 3810   1.872   1.784   2.882 -2.2239  1.5567  0.8073
  953SOL    HW2 3811   1.991   1.759   2.812  0.2176  1.0900  1.5819
  953SOL     MW 3812   1.949   1.815   2.859 -0.5773  0.1582  0.4287
  954SOL     OW 3813   2.436   2.092   2.926  0.5850  0.3552 -0.0695
  954SOL    HW1 3814   2.350   2.076   2.876 -0.9588  0.8956 -2.8115
  954SOL    HW2 3815   2.510   2.074   2.862 -3.0087 -0.7499 -0.1526
  954SOL     MW 3816   2.434   2.087   2.911 -0.0928  0.2807 -0.4422
  955SOL     OW 3817   1.581   1.638   2.601  0.2411 -0.3131 -0.3046
  955SOL    HW1 3818   1.556   1.626   2.512  2.0623 -1.7333 -2.4415
  955SOL    HW2 3819   1.676   1.671   2.603  2.6805 -0.8979  0.5086
  955SOL     MW 3820   1.590   1.641   2.589  0.8032 -0.5777 -0.4793
  956SOL     OW 3821   2.613   2.423   2.878 -0.0317  0.7292  0.4176
  956SOL    HW1 3822   2.665   2.410   2.966  0.0436 -1.0369 -0.2005
  956SOL    HW2 3823   2.655   2.348   2.825 -1.0048 -1.1707 -0.9678
  956SOL     MW 3824   2.626   2.411   2.883 -0.1501  0.2455  0.1533
  957SOL     OW 3825   2.303   2.799   0.409  0.1188 -0.2542  0.0762
  957SOL    HW1 3826   2.215   2.777   0.363 -1.0796  0.4035 -1.2204
  957SOL    HW2 3827   2.277   2.777   0.503 -2.2762  0.9384 -2.4958
  957SOL     MW 3828   2.288   2.793   0.415 -0.3553 -0.0101 -0.4342
  958SOL     OW 3829   1.999   2.680   2.845 -0.2260 -0.1419 -0.2283
  958SOL    HW1 3830   1.985   2.604   2.783 -0.8182  0.6714 -1.5217
  958SOL    HW2 3831   1.917   2.706   2.877  3.0648 -0.8281 -1.6737
  958SOL     MW 3832   1.986   2.673   2.841  0.1300 -0.1251 -0.5896
  959SOL     OW 3833   2.439   2.560   0.336  0.1157  0.0936 -0.1283
  959SOL    HW1 3834   2.513   2.569   0.274  0.2839 -2.3155  0.7244
  959SOL    HW2 3835   2.394   2.646   0.338 -3.2241  0.5248 -2.4682
  959SOL     MW 3836   2.443   2.572   0.328 -0.3028 -0.1674 -0.3245
  960SOL     OW 3837   1.941   2.409   2.303 -0.1756 -0.5113 -0.3516
  960SOL    HW1 3838   1.944   2.315   2.296 -1.1091  1.7459  3.3705
  960SOL    HW2 3839   1.863   2.422   2.356 -0.6970 -0.7183  1.0476
  960SOL     MW 3840   1.931   2.398   2.309 -0.3676 -0.2408  0.3241
  961SOL     OW 3841   2.232   2.403   2.342 -0.4678 -0.0114  0.8749
  961SOL    HW1 3842   2.139   2.392   2.350  2.7565 -1.8929 -0.0989
  961SOL    HW2 3843   2.268   2.458   2.412 -1.4946  3.5862 -4.5352
  961SOL     MW 3844   2.224   2.409   2.353 -0.1779  0.2151  0.0326
  962SOL     OW 3845   2.175   2.061   2.800  0.5597  0.2325  0.1728
  962SOL    HW1 3846   2.166   2.031   2.893  1.7666  0.1047  0.3366
  962SOL    HW2 3847   2.198   1.985   2.743  0.5325 -3.3538 -0.2591
  962SOL     MW 3848   2.177   2.047   2.805  0.7154 -0.2575  0.1374
  963SOL     OW 3849   1.762   2.571   2.126  0.4149  0.3669 -0.5787
  963SOL    HW1 3850   1.831   2.545   2.182 -3.2792  3.1600 -1.3955
  963SOL    HW2 3851   1.766   2.517   2.050  0.2598  1.3148  2.4288
  963SOL     MW 3852   1.772   2.560   2.124 -0.0930  0.8605 -0.2897
  964SOL     OW 3853   1.812   1.971   2.676  0.2864 -0.0559  0.9846
  964SOL    HW1 3854   1.868   2.057   2.664  0.4294  3.4168 -0.8522
  964SOL    HW2 3855   1.844   1.916   2.753  0.5924 -1.8707 -0.7474
  964SOL     MW 3856   1.823   1.975   2.685  0.3456  0.1629  0.5137
  965SOL     OW 3857   2.200   2.698   0.642 -0.0324 -0.5083 -0.3341
  965SOL    HW1 3858   2.173   2.605   0.639 -0.5781  0.7360  2.0169
  965SOL    HW2 3859   2.251   2.712   0.725 -0.6645 -1.4053  1.9514
  965SOL     MW 3860   2.203   2.687   0.652 -0.1878 -0.4625  0.2776
  966SOL     OW 3861   2.702   2.640   2.475 -0.2336  0.3435 -0.1883
  966SOL    HW1 3862   2.642   2.685   2.412 -0.2417 -0.6292 -1.9895
  966SOL    HW2 3863   2.722   2.561   2.423  0.8657  1.7340 -0.5659
  966SOL     MW 3864   2.697   2.636   2.460 -0.0896  0.3986 -0.4758
  967SOL     OW 3865   2.886   2.998   2.932 -0.3709 -0.3041 -0.0643
  967SOL    HW1 3866   2.838   2.934   2.980 -0.8880  3.5607  2.1559
  967SOL    HW2 3867   2.811   3.026   2.872 -0.4654 -1.1167  0.7606
  967SOL     MW 3868   2.870   2.993   2.930 -0.4516  0.0986  0.3375
  968SOL     OW 3869   3.018   2.547   3.003 -0.1040  0.3716 -1.2212
  968SOL    HW1 3870   2.946   2.591   2.979 -0.7658  0.1320  1.6069
  968SOL    HW2 3871   3.008   2.471   2.948 -3.4223 -0.8249  0.7501
  968SOL     MW 3872   3.007   2.543   2.993 -0.6291  0.1822 -0.5880
  969SOL     OW 3873   1.550   2.105   1.729  0.0708  0.7164 -0.3363
  969SOL    HW1 3874   1.633   2.049   1.715 -1.3146  1.6820  2.8458
  969SOL    HW2 3875   1.532   2.098   1.827 -2.0030 -2.5248  1.6004
  969SOL     MW 3876   1.559   2.097   1.740 -0.3856  0.4162  0.3391
  970SOL     OW 3877   1.662   1.699   1.862 -0.5279 -0.0538  0.2206
  970SOL    HW1 3878   1.692   1.666   1.948  1.1891 -1.4740 -0.7453
  970SOL    HW2 3879   1.568   1.707   1.867 -2.0142  1.4490  1.2126
  970SOL     MW 3880   1.654   1.695   1.874 -0.4974 -0.0429  0.2241
  971SOL     OW 3881   1.846   0.105   2.374 -0.2892  0.6283 -0.4005
  971SOL    HW1 3882   1.875   0.056   2.298 -3.9512 -0.5532  2.7875
  971SOL    HW2 3883   1.909   0.183   2.379  1.3880  2.7560  0.5219
  971SOL     MW 3884   1.858   0.109   2.364 -0.5511  0.7531  0.1418
  972SOL     OW 3885   0.286   2.796   2.535  0.0299 -0.4361 -0.4832
  972SOL    HW1 3886   0.284   2.701   2.506 -0.5116 -1.4820 -0.4544
  972SOL    HW2 3887   0.369   2.804   2.583  0.6768 -1.1407  1.8488
  972SOL     MW 3888   0.297   2.784   2.538  0.0438 -0.6670 -0.1717
  973SOL     OW 3889   2.598   0.007   2.048 -0.3596 -0.0210  0.0788
  973SOL    HW1 3890   2.622  -0.080   2.022 -0.4869  3.1639 -0.0790
  973SOL    HW2 3891   2.604   0.059   1.968 -0.1427  0.6129  0.4841
  973SOL     MW 3892   2.602   0.002   2.034 -0.3478  0.4829  0.1114
  974SOL     OW 3893   2.106   0.355   2.735  0.3177  0.3093 -0.1824
  974SOL    HW1 3894   2.186   0.303   2.716  2.0801  1.2190  1.8774
  974SOL    HW2 3895   2.056   0.295   2.794  3.4163  2.2838  1.0250
  974SOL     MW 3896   2.110   0.340   2.740  0.9591  0.6898  0.2487
  975SOL     OW 3897   2.264   2.574   2.549 -0.3195 -0.8422 -0.0342
  975SOL    HW1 3898   2.323   2.632   2.589 -1.7883 -0.0967 -0.6325
  975SOL    HW2 3899   2.191   2.620   2.506 -0.1954  0.1775  0.5048
  975SOL     MW 3900   2.262   2.588   2.548 -0.4969 -0.6093 -0.0420
  976SOL     OW 3901   0.217   0.268   1.707 -0.1273  0.3671 -0.5058
  976SOL    HW1 3902   0.263   0.204   1.755 -0.0794 -1.4165 -1.6289
  976SOL    HW2 3903   0.137   0.220   1.663 -0.3197 -0.1274  0.8970
  976SOL     MW 3904   0.212   0.253   1.707 -0.1464  0.0665 -0.4689
  977SOL     OW 3905   1.684   2.758   2.468  0.7653 -0.4742  0.4400
  977SOL    HW1 3906   1.711   2.662   2.468  1.5271 -0.0647  2.0892
  977SOL    HW2 3907   1.759   2.795   2.421 -0.6149  0.5494 -2.3720
  977SOL     MW 3908   1.698   2.751   2.462  0.6837 -0.2851  0.2866
   3.10000   3.10000   3.10000
