977 TIP4P/2005f water molecules t=   1.70000 step= 1700
 3908
    1SOL     OW    1   0.389   0.782   0.111  0.0988  0.0552  0.1059
    1SOL    HW1    2   0.364   0.732   0.034 -2.4742  1.7499  1.8035
    1SOL    HW2    3   0.418   0.701   0.156  1.5631 -2.2120 -3.5114
    1SOL     MW    4   0.389   0.765   0.107 -0.0475 -0.0203 -0.1474
    2SOL     OW    5   0.313   3.008   1.085 -0.1105  0.2615 -0.0883
    2SOL    HW1    6   0.360   3.093   1.079  0.9270 -0.9115 -0.7783
    2SOL    HW2    7   0.220   3.036   1.095 -0.5411 -0.4653 -3.3213
    2SOL     MW    8   0.307   3.023   1.085 -0.0304  0.0109 -0.6059
    3SOL     OW    9   2.669   0.336   0.979  0.4282 -0.1548  0.1037
    3SOL    HW1   10   2.724   0.408   0.943 -1.8184 -3.6323  0.1838
    3SOL    HW2   11   2.672   0.344   1.080  2.4507 -1.8611 -0.8736
    3SOL     MW   12   2.676   0.347   0.987  0.3987 -0.8387 -0.0147
    4SOL     OW   13   2.957   1.711   0.513 -0.8786  0.2358 -0.3892
    4SOL    HW1   14   2.898   1.785   0.480  0.4636  2.6701 -1.6824
    4SOL    HW2   15   3.024   1.695   0.447 -0.2089 -3.2280  0.1247
    4SOL     MW   16   2.958   1.719   0.500 -0.6131  0.0999 -0.4920
    5SOL     OW   17   1.599   1.411   0.617 -0.8095 -0.1205  0.1706
    5SOL    HW1   18   1.645   1.407   0.701  0.9975 -2.4350  2.0191
    5SOL    HW2   19   1.526   1.466   0.629  0.3148  0.7207 -3.2559
    5SOL     MW   20   1.595   1.417   0.630 -0.4228 -0.3149 -0.0376
    6SOL     OW   21   0.773   1.443   0.615 -0.4870 -0.4211 -0.3584
    6SOL    HW1   22   0.680   1.436   0.579  1.3258  2.0841 -0.3708
    6SOL    HW2   23   0.799   1.360   0.659 -0.8971  0.1508 -1.2985
    6SOL     MW   24   0.764   1.431   0.616 -0.3019 -0.0151 -0.4841
    7SOL     OW   25   1.940   1.076   0.001  0.6955 -0.0534  0.1939
    7SOL    HW1   26   2.005   1.141  -0.025 -1.3566 -2.8690 -2.1168
    7SOL    HW2   27   1.952   1.079   0.103 -1.2526 -0.0755  1.5342
    7SOL     MW   28   1.950   1.085   0.011  0.1677 -0.4278  0.0658
    8SOL     OW   29   0.792   1.465   1.071  0.0412 -0.1074 -0.4773
    8SOL    HW1   30   0.877   1.493   1.092 -2.4620  1.0539  0.1392
    8SOL    HW2   31   0.784   1.393   1.133 -0.4211  0.3559 -2.8875
    8SOL     MW   32   0.802   1.460   1.082 -0.3501  0.1069 -0.7139
    9SOL     OW   33   0.930   0.509   1.323 -0.2117  0.6355 -0.5254
    9SOL    HW1   34   0.864   0.447   1.274 -1.3489 -1.4158  0.1166
    9SOL    HW2   35   0.988   0.459   1.378 -0.5096  2.2753 -0.4724
    9SOL     MW   36   0.929   0.494   1.324 -0.4010  0.5812 -0.4337
   10SOL     OW   37   0.292   0.846   0.479 -0.3130 -0.4329  0.1473
   10SOL    HW1   38   0.381   0.886   0.475  0.2255 -1.8492 -0.6340
   10SOL    HW2   39   0.254   0.880   0.565  0.8029 -2.0890  3.0859
   10SOL     MW   40   0.298   0.855   0.490 -0.0947 -0.8383  0.4319
   11SOL     OW   41   0.775   1.124   1.487 -0.4495  0.6278  0.1888
   11SOL    HW1   42   0.827   1.133   1.571  2.9760 -0.6460 -1.9615
   11SOL    HW2   43   0.817   1.043   1.454  1.6170 -1.5852  1.4135
   11SOL     MW   44   0.787   1.115   1.494  0.2751  0.1678  0.0667
   12SOL     OW   45   0.031   1.075   0.897  0.5719  0.3809  0.8146
   12SOL    HW1   46   0.059   1.151   0.953  0.7173  0.8121 -1.2855
   12SOL    HW2   47  -0.021   1.118   0.834  0.4838 -0.5512 -0.5865
   12SOL     MW   48   0.028   1.091   0.896  0.5794  0.3148  0.3526
   13SOL     OW   49   1.805   1.412   1.324  0.2497 -0.2719 -0.4234
   13SOL    HW1   50   1.812   1.335   1.273  3.0992  0.4780  1.5479
   13SOL    HW2   51   1.878   1.464   1.295 -1.8471 -0.1479 -2.2269
   13SOL     MW   52   1.816   1.409   1.313  0.3490 -0.1566 -0.4013
   14SOL     OW   53   0.544   0.332   1.772 -0.0063 -0.1207  0.8767
   14SOL    HW1   54   0.472   0.268   1.770 -0.4595 -2.7260 -0.4679
   14SOL    HW2   55   0.605   0.295   1.703  2.8229  1.3011  1.3898
   14SOL     MW   56   0.543   0.318   1.763  0.3072 -0.2768  0.7670
   15SOL     OW   57   2.006   0.417   0.993 -0.3477  0.1515 -0.5150
   15SOL    HW1   58   2.046   0.492   1.039 -0.0022 -0.6364  1.6233
   15SOL    HW2   59   2.036   0.406   0.902 -0.5187  0.5708  1.0119
   15SOL     MW   60   2.015   0.426   0.987 -0.3247  0.1029 -0.0314
   16SOL     OW   61   0.269   1.820   0.288 -0.2098 -0.1666 -0.3182
   16SOL    HW1   62   0.356   1.782   0.310 -3.1889 -1.4932 -0.6718
   16SOL    HW2   63   0.272   1.914   0.302 -0.7892 -0.8301  1.5071
   16SOL     MW   64   0.281   1.827   0.293 -0.6793 -0.4292 -0.1240
   17SOL     OW   65   1.116   0.879   1.424  0.1559 -0.8942 -0.4605
   17SOL    HW1   66   1.163   0.877   1.513  0.6761 -0.5968 -0.8161
   17SOL    HW2   67   1.022   0.864   1.440  3.0054 -1.4184 -1.2150
   17SOL     MW   68   1.110   0.876   1.438  0.6005 -0.9241 -0.6069
   18SOL     OW   69   0.064   1.647   0.324 -0.3375 -0.1401  0.4086
   18SOL    HW1   70   0.145   1.704   0.320 -0.0148  1.0886  1.5132
   18SOL    HW2   71   0.061   1.620   0.234  2.3897 -0.6992 -1.3525
   18SOL     MW   72   0.074   1.651   0.312  0.0649 -0.0518  0.3220
   19SOL     OW   73   0.105   1.320   0.978  0.4147 -0.1038  0.0222
   19SOL    HW1   74   0.121   1.348   0.889 -1.3771 -1.2088  0.9441
   19SOL    HW2   75   0.012   1.344   0.985  0.7017  4.1761 -3.3688
   19SOL     MW   76   0.095   1.327   0.967  0.2161  0.3151 -0.3036
   20SOL     OW   77   0.432   2.114   1.264  0.0338 -0.0988 -0.1200
   20SOL    HW1   78   0.375   2.060   1.205 -0.3811  0.1047  0.2394
   20SOL    HW2   79   0.387   2.100   1.352  1.2863  0.1976  1.8526
   20SOL     MW   80   0.418   2.105   1.268  0.1443 -0.0329  0.1877
   21SOL     OW   81   0.556   0.876   0.406  0.1061  0.5051  0.3452
   21SOL    HW1   82   0.619   0.908   0.461 -2.1200  0.5676 -2.6326
   21SOL    HW2   83   0.595   0.889   0.317  2.1821 -3.9583 -1.2685
   21SOL     MW   84   0.569   0.882   0.401  0.0863 -0.0756 -0.2606
   22SOL     OW   85   1.545   0.700   1.025  0.6222  0.3852 -0.2961
   22SOL    HW1   86   1.543   0.696   0.930 -3.4612 -1.5296  0.4852
   22SOL    HW2   87   1.472   0.763   1.045 -1.8998 -0.8562  0.4673
   22SOL     MW   88   1.535   0.708   1.015 -0.2493 -0.0312 -0.0923
   23SOL     OW   89   3.044   0.819   0.730 -0.4798 -0.1241  0.4652
   23SOL    HW1   90   3.098   0.762   0.790  1.3976  1.6942 -0.0283
   23SOL    HW2   91   3.091   0.901   0.721  0.5153 -1.4468  1.6776
   23SOL     MW   92   3.058   0.822   0.737 -0.1008 -0.0587  0.5601
   24SOL     OW   93   2.078   2.186   0.067 -0.2246 -0.7831  0.2960
   24SOL    HW1   94   2.044   2.190   0.159  2.7229  0.9371  2.8932
   24SOL    HW2   95   2.103   2.094   0.053  3.6318 -0.9742 -1.2270
   24SOL     MW   96   2.077   2.175   0.078  0.6731 -0.5814  0.4377
   25SOL     OW   97   0.202   1.441   0.423  0.1988  0.3979 -0.3372
   25SOL    HW1   98   0.142   1.506   0.382  1.3793 -3.2038  1.3634
   25SOL    HW2   99   0.261   1.427   0.354 -1.7936  1.9531  0.8741
   25SOL     MW  100   0.202   1.447   0.408  0.0917  0.1279  0.0470
   26SOL     OW  101   1.989   1.056   0.285  0.5200  0.1903 -0.0733
   26SOL    HW1  102   1.951   1.085   0.372 -0.7316  4.9817 -2.0783
   26SOL    HW2  103   2.061   1.120   0.272  0.5249 -1.0095 -1.7494
   26SOL     MW  104   1.994   1.068   0.295  0.3555  0.6642 -0.5590
   27SOL     OW  105   1.858   1.374   0.133 -0.0561 -0.3260 -1.0316
   27SOL    HW1  106   1.798   1.443   0.158  0.4846  0.3715 -0.3002
   27SOL    HW2  107   1.914   1.345   0.205 -1.5594 -0.9096 -1.1110
   27SOL     MW  108   1.857   1.379   0.145 -0.1831 -0.3110 -0.9456
   28SOL     OW  109   0.412   0.933   2.023  0.0330 -0.2568  0.7110
   28SOL    HW1  110   0.451   0.911   2.107  1.2854 -0.0007  3.2538
   28SOL    HW2  111   0.313   0.930   2.022 -2.2753  0.5549  0.1938
   28SOL     MW  112   0.404   0.929   2.034 -0.1063 -0.1159  0.9783
   29SOL     OW  113   0.196   1.431   0.743 -0.4947  1.0031 -0.1797
   29SOL    HW1  114   0.224   1.527   0.735 -0.9890 -0.6910 -0.2704
   29SOL    HW2  115   0.221   1.403   0.655  0.0853 -1.8588  1.8369
   29SOL     MW  116   0.203   1.440   0.730 -0.4834  0.4020  0.0744
   30SOL     OW  117   0.707   1.261   1.224 -0.1999  0.7056  0.5781
   30SOL    HW1  118   0.613   1.281   1.240  1.0666  2.5518 -0.3818
   30SOL    HW2  119   0.737   1.202   1.299 -0.0450  1.4005 -0.3831
   30SOL     MW  120   0.698   1.256   1.236 -0.0123  1.0409  0.3246
   31SOL     OW  121   0.509   0.281   0.219  0.0380 -0.0545  0.1458
   31SOL    HW1  122   0.549   0.216   0.282 -0.0245 -1.0942  1.0071
   31SOL    HW2  123   0.524   0.246   0.128 -2.0176 -1.1483  2.8164
   31SOL     MW  124   0.516   0.268   0.215 -0.2414 -0.3360  0.6118
   32SOL     OW  125   2.709   0.951   1.077 -0.0991  0.2722 -0.2617
   32SOL    HW1  126   2.673   0.869   1.069 -2.6721 -0.6791 -0.4280
   32SOL    HW2  127   2.798   0.941   1.050  1.1540 -1.2434  0.5565
   32SOL     MW  128   2.716   0.939   1.072 -0.2732 -0.0532 -0.1757
   33SOL     OW  129   1.626   1.237   0.409 -0.3983  0.0344  0.0633
   33SOL    HW1  130   1.719   1.235   0.409 -2.2211 -2.4191  1.8394
   33SOL    HW2  131   1.609   1.274   0.494 -1.0972  2.4872 -0.4189
   33SOL     MW  132   1.636   1.241   0.420 -0.7310  0.0344  0.2341
   34SOL     OW  133   1.158   1.983   1.139  0.4306  0.3275  0.7319
   34SOL    HW1  134   1.087   1.996   1.204 -0.2358 -2.2644 -2.4671
   34SOL    HW2  135   1.240   1.989   1.190 -2.3643  1.2123 -0.3521
   34SOL     MW  136   1.160   1.986   1.154 -0.0261  0.1023  0.1668
   35SOL     OW  137   0.355   0.150   1.772  0.3275  0.2147 -0.8948
   35SOL    HW1  138   0.395   0.115   1.855 -0.1375 -1.3747 -0.5109
   35SOL    HW2  139   0.349   0.075   1.713 -0.6837 -3.5378  0.4979
   35SOL     MW  140   0.360   0.135   1.775  0.1328 -0.4901 -0.6604
   36SOL     OW  141   1.921   1.981   0.602 -0.2381 -0.0474 -0.0989
   36SOL    HW1  142   1.915   1.957   0.509  0.6619 -1.1387  1.9557
   36SOL    HW2  143   1.978   1.905   0.623  3.4695  0.3984 -0.8155
   36SOL     MW  144   1.928   1.968   0.593  0.3698 -0.1326  0.0776
   37SOL     OW  145   1.810   2.087   1.008 -0.3059  0.3749 -0.0617
   37SOL    HW1  146   1.772   2.040   0.935 -1.1204 -0.3731  0.0279
   37SOL    HW2  147   1.740   2.105   1.069  0.8834 -0.5718  0.8242
   37SOL     MW  148   1.796   2.083   1.007 -0.2565  0.1513  0.0670
   38SOL     OW  149   2.804   0.967   0.059 -0.4812 -0.0895 -0.5128
   38SOL    HW1  150   2.834   0.946   0.149 -0.3404 -2.5361 -2.1497
   38SOL    HW2  151   2.882   0.954   0.000  0.6873 -0.8654 -3.6749
   38SOL     MW  152   2.818   0.963   0.063 -0.3084 -0.5147 -1.1460
   39SOL     OW  153   1.514   0.664   0.765  0.7201  0.0503 -0.4274
   39SOL    HW1  154   1.477   0.577   0.795 -1.5783 -1.3449 -4.7962
   39SOL    HW2  155   1.442   0.718   0.740  2.9527 -0.7185  0.1864
   39SOL     MW  156   1.500   0.660   0.766  0.7114 -0.2352 -0.9228
   40SOL     OW  157   1.261   1.893   0.237 -0.4481  0.0160 -0.0302
   40SOL    HW1  158   1.296   1.807   0.265  1.4301 -0.7733 -0.5642
   40SOL    HW2  159   1.233   1.944   0.316 -0.9091  0.7426 -0.1476
   40SOL     MW  160   1.262   1.888   0.251 -0.2611  0.0078 -0.1162
   41SOL     OW  161   0.497   0.560   1.521 -0.6098 -0.1072  0.1340
   41SOL    HW1  162   0.568   0.609   1.481  2.5019  2.7159  0.8751
   41SOL    HW2  163   0.410   0.589   1.476 -0.9506 -3.4805 -0.0452
   41SOL     MW  164   0.495   0.570   1.510 -0.2442 -0.1798  0.2081
   42SOL     OW  165   1.214   2.946   1.987 -0.1151 -0.7782 -0.1097
   42SOL    HW1  166   1.170   2.964   2.064  0.6448 -1.7171 -0.1179
   42SOL    HW2  167   1.267   2.876   2.023  0.1583  1.1610  3.3120
   42SOL     MW  168   1.215   2.939   2.002  0.0212 -0.6462  0.3407
   43SOL     OW  169   1.420   0.097   1.693 -0.6774  0.0064 -0.2805
   43SOL    HW1  170   1.481   0.059   1.626  1.2250  2.4435 -1.0974
   43SOL    HW2  171   1.333   0.048   1.683 -0.0972 -0.2245  0.6197
   43SOL     MW  172   1.417   0.086   1.683 -0.3499  0.2975 -0.2695
   44SOL     OW  173   1.246   0.805   1.023 -0.7820  0.3715 -0.2427
   44SOL    HW1  174   1.218   0.895   1.014  0.1930  0.7800  2.4833
   44SOL    HW2  175   1.194   0.765   1.096  1.1880 -1.5021 -0.7655
   44SOL     MW  176   1.236   0.812   1.032 -0.3934  0.1782  0.0480
   45SOL     OW  177   1.300   0.850   0.728  0.1208  0.0696 -0.0399
   45SOL    HW1  178   1.256   0.815   0.803 -0.2073 -1.9382 -3.2152
   45SOL    HW2  179   1.247   0.808   0.661 -1.2482 -1.2518 -0.1424
   45SOL     MW  180   1.287   0.840   0.729 -0.1031 -0.3697 -0.4724
   46SOL     OW  181   0.441   1.135   0.653 -0.1947  0.1003  0.1694
   46SOL    HW1  182   0.478   1.153   0.563 -0.4163  1.2679 -1.0495
   46SOL    HW2  183   0.457   1.213   0.708  2.8200 -2.5922  0.9900
   46SOL     MW  184   0.448   1.148   0.649  0.1738 -0.1009  0.1168
   47SOL     OW  185   0.092   2.029   1.898  0.2743 -0.8018  0.2477
   47SOL    HW1  186   0.110   1.940   1.866 -1.6542  1.0229 -1.5601
   47SOL    HW2  187   0.045   2.009   1.983  1.5922 -1.2067 -1.1180
   47SOL     MW  188   0.088   2.015   1.905  0.1938 -0.6144 -0.1710
   48SOL     OW  189   1.214   0.499   1.012  0.2012  0.1760 -0.5247
   48SOL    HW1  190   1.197   0.460   0.928 -0.2178 -2.4876  1.4106
   48SOL    HW2  191   1.174   0.585   1.007 -0.4929  0.1195  1.7074
   48SOL     MW  192   1.206   0.505   1.000  0.0543 -0.1829  0.0251
   49SOL     OW  193   1.687   0.686   1.570  0.0112  0.1399  0.0932
   49SOL    HW1  194   1.739   0.642   1.637  0.7233 -1.4902 -0.1485
   49SOL    HW2  195   1.707   0.647   1.484 -0.0833  1.2682  0.1980
   49SOL     MW  196   1.696   0.675   1.567  0.0927  0.0737  0.0752
   50SOL     OW  197   1.308   1.216   0.616 -0.3956  0.1063 -0.0936
   50SOL    HW1  198   1.236   1.234   0.692 -1.0664 -1.6073 -2.3694
   50SOL    HW2  199   1.376   1.153   0.656  1.6953 -2.3436  1.8139
   50SOL     MW  200   1.307   1.210   0.631 -0.2082 -0.4430 -0.1422
   51SOL     OW  201   0.318   2.884   0.843  0.7473  0.9162  0.6877
   51SOL    HW1  202   0.409   2.855   0.849 -1.6555 -0.6872 -2.6526
   51SOL    HW2  203   0.309   2.921   0.928 -0.2424  0.1845 -2.7695
   51SOL     MW  204   0.329   2.885   0.855  0.2997  0.6081 -0.2092
   52SOL     OW  205   0.787   1.815   0.479 -0.1939  0.0919  0.2299
   52SOL    HW1  206   0.774   1.910   0.499 -0.5170  1.4607  1.0972
   52SOL    HW2  207   0.811   1.814   0.385  1.5954  1.2517  1.0073
   52SOL     MW  208   0.788   1.827   0.470 -0.0005  0.4255  0.4469
   53SOL     OW  209   0.492   2.156   0.587  0.2236 -0.7455  0.5618
   53SOL    HW1  210   0.464   2.133   0.495 -1.3878 -1.3308  0.4927
   53SOL    HW2  211   0.489   2.249   0.597 -0.9776 -3.0064 -0.7647
   53SOL     MW  212   0.488   2.165   0.577 -0.1475 -1.1210  0.3777
   54SOL     OW  213   2.045   0.980   0.743 -0.0810 -0.4285  0.3422
   54SOL    HW1  214   2.108   0.986   0.672 -3.5565  0.4517 -1.6382
   54SOL    HW2  215   2.012   0.890   0.740 -1.1312  1.6892 -1.0554
   54SOL     MW  216   2.049   0.969   0.733 -0.6782 -0.0330 -0.1035
   55SOL     OW  217   0.435   1.515   1.708 -0.1360  0.2570  0.5150
   55SOL    HW1  218   0.385   1.563   1.644  0.8296  0.2772  0.6406
   55SOL    HW2  219   0.522   1.490   1.663  0.4144  1.9003  0.9315
   55SOL     MW  220   0.440   1.518   1.694  0.0640  0.4765  0.5865
   56SOL     OW  221   0.658   0.926   0.145 -0.6521  0.1315 -0.3569
   56SOL    HW1  222   0.659   1.014   0.115 -0.9632 -0.8284  0.1285
   56SOL    HW2  223   0.572   0.901   0.109  0.0976 -0.3336 -1.4367
   56SOL     MW  224   0.647   0.934   0.136 -0.5942 -0.0565 -0.4353
   57SOL     OW  225   1.097   1.280   1.155  0.0124  0.3386  0.1229
   57SOL    HW1  226   1.187   1.318   1.160 -0.4742 -1.8295 -1.1069
   57SOL    HW2  227   1.075   1.237   1.244 -0.7318 -0.5851 -1.8141
   57SOL     MW  228   1.106   1.279   1.167 -0.1500 -0.0693 -0.2949
   58SOL     OW  229   0.460   1.273   1.295  0.1245 -0.4018  0.4495
   58SOL    HW1  230   0.411   1.351   1.319  2.7161  0.9118  0.0366
   58SOL    HW2  231   0.484   1.225   1.376  1.2381  1.1753 -1.4685
   58SOL     MW  232   0.457   1.277   1.309  0.6134 -0.0204  0.1420
   59SOL     OW  233   1.436   1.680   0.386  0.5547  0.1626 -0.0835
   59SOL    HW1  234   1.498   1.712   0.447 -0.9910  0.3350  0.9987
   59SOL    HW2  235   1.371   1.646   0.451 -4.4569 -0.8064  1.2564
   59SOL     MW  236   1.436   1.680   0.403 -0.3105  0.0575  0.2361
   60SOL     OW  237   3.102   0.180   1.627 -0.1703  0.5284  0.1563
   60SOL    HW1  238   3.020   0.219   1.650  0.8262  0.2950 -1.9982
   60SOL    HW2  239   3.122   0.109   1.691  1.1777 -2.8998  2.6215
   60SOL     MW  240   3.094   0.175   1.638  0.1391  0.0453  0.1973
   61SOL     OW  241   1.954   1.341   2.982 -0.1012 -0.2690  0.1515
   61SOL    HW1  242   1.922   1.339   3.072  0.4919  1.7305  0.2566
   61SOL    HW2  243   2.033   1.283   2.970  1.3685  1.1432  1.6509
   61SOL     MW  244   1.960   1.333   2.992  0.1710  0.1811  0.3632
   62SOL     OW  245   0.588   1.715   0.660  0.0860 -0.3978  0.0626
   62SOL    HW1  246   0.681   1.697   0.649 -0.0189 -1.5197  0.4426
   62SOL    HW2  247   0.548   1.631   0.683  0.2705  0.0382 -1.1444
   62SOL     MW  248   0.595   1.701   0.661  0.0965 -0.4883 -0.0465
   63SOL     OW  249   1.738   0.718   0.616 -0.6525 -0.4303 -0.1425
   63SOL    HW1  250   1.714   0.802   0.572 -1.0089  1.4722  0.6340
   63SOL    HW2  251   1.661   0.698   0.673  0.6134  0.9686 -1.7130
   63SOL     MW  252   1.725   0.727   0.618 -0.5325  0.0053 -0.2473
   64SOL     OW  253   0.279   1.674   0.708  0.1475 -0.3483 -0.3348
   64SOL    HW1  254   0.342   1.746   0.712  0.0105  1.0027 -1.4133
   64SOL    HW2  255   0.184   1.700   0.718 -2.6629  3.1722  1.0589
   64SOL     MW  256   0.275   1.687   0.710 -0.2414  0.2944 -0.2932
   65SOL     OW  257   1.490   2.291   0.387  0.2703  0.0082 -0.3339
   65SOL    HW1  258   1.567   2.343   0.399 -3.5020  0.0487  1.4604
   65SOL    HW2  259   1.436   2.327   0.463  2.0459 -0.0107  1.5381
   65SOL     MW  260   1.493   2.303   0.399  0.0069  0.0110  0.1498
   66SOL     OW  261   0.393   0.591   0.500 -0.3077  0.2040  0.7117
   66SOL    HW1  262   0.443   0.570   0.418 -0.1908  1.0545 -2.4053
   66SOL    HW2  263   0.361   0.679   0.498  1.3981  0.5007  1.1561
   66SOL     MW  264   0.395   0.600   0.489 -0.0672  0.3554  0.3591
   67SOL     OW  265   1.436   0.048   1.983 -0.4841  0.3236 -0.3549
   67SOL    HW1  266   1.447   0.077   1.893  1.3424  0.0414  0.3305
   67SOL    HW2  267   1.357  -0.008   1.976 -2.2108 -1.1932 -4.0400
   67SOL     MW  268   1.427   0.045   1.971 -0.4709  0.0863 -0.7507
   68SOL     OW  269   0.753   0.072   2.950  0.0192  0.1994 -0.3949
   68SOL    HW1  270   0.761   0.130   2.871  2.5849  0.4197  1.9009
   68SOL    HW2  271   0.840   0.069   2.979  1.3965 -0.0345 -0.8924
   68SOL     MW  272   0.766   0.080   2.943  0.5395  0.1976 -0.1577
   69SOL     OW  273   1.087   0.257   1.942  0.3994  0.9599  0.3793
   69SOL    HW1  274   1.157   0.291   2.002  2.8791 -0.1113  2.2941
   69SOL    HW2  275   1.055   0.176   1.985 -1.7391  2.6851  0.9520
   69SOL     MW  276   1.092   0.251   1.956  0.4444  1.0462  0.7075
   70SOL     OW  277   0.506   1.735   1.098  0.1250  0.0953  0.4231
   70SOL    HW1  278   0.591   1.773   1.086  1.3798 -2.5659 -0.9547
   70SOL    HW2  279   0.491   1.673   1.024 -1.0503 -1.8746  1.4593
   70SOL     MW  280   0.516   1.732   1.087  0.1355 -0.5158  0.3780
   71SOL     OW  281   1.540   0.557   1.266 -0.0204 -0.4964  0.4317
   71SOL    HW1  282   1.494   0.629   1.321 -0.2908  2.4006  0.4914
   71SOL    HW2  283   1.548   0.602   1.182  0.1271 -0.8397  1.2079
   71SOL     MW  284   1.535   0.572   1.262 -0.0366 -0.1594  0.5420
   72SOL     OW  285   0.805   1.839   1.003 -0.1757 -0.4171 -0.2761
   72SOL    HW1  286   0.809   1.907   0.929 -2.2204  0.0385 -1.3684
   72SOL    HW2  287   0.833   1.761   0.954  2.9698 -1.7179 -0.0957
   72SOL     MW  288   0.809   1.838   0.987 -0.0305 -0.5286 -0.3964
   73SOL     OW  289   1.125   0.672   1.231 -0.3663  0.7434 -0.6374
   73SOL    HW1  290   1.039   0.618   1.234  2.5787 -0.1651 -2.2350
   73SOL    HW2  291   1.098   0.750   1.284  1.5857  1.8605  0.4730
   73SOL     MW  292   1.110   0.675   1.238  0.2798  0.7709 -0.7016
   74SOL     OW  293   2.774   0.091   0.976 -0.4415 -0.0632  0.0354
   74SOL    HW1  294   2.856   0.132   0.945  0.3580  0.3332  0.5534
   74SOL    HW2  295   2.711   0.158   0.988  1.6855 -0.5288  0.4143
   74SOL     MW  296   2.777   0.105   0.973 -0.0554 -0.0723  0.1537
   75SOL     OW  297   1.520   1.356   0.155 -0.1927 -0.1333  0.3341
   75SOL    HW1  298   1.561   1.282   0.109 -0.0454 -1.0083  0.1880
   75SOL    HW2  299   1.554   1.341   0.250 -1.7883 -0.2415  2.5632
   75SOL     MW  300   1.530   1.344   0.162 -0.3838 -0.2630  0.6089
   76SOL     OW  301   3.030   0.688   0.502  0.2377 -0.1777 -1.0454
   76SOL    HW1  302   3.043   0.743   0.586  0.8585  2.4322  0.5247
   76SOL    HW2  303   3.113   0.647   0.478 -1.1906  1.2479 -0.6160
   76SOL     MW  304   3.043   0.690   0.510  0.1311  0.3547 -0.7816
   77SOL     OW  305   0.830   0.625   0.453 -0.0308 -0.0453  0.2878
   77SOL    HW1  306   0.789   0.659   0.372 -1.2225 -1.9846 -0.0947
   77SOL    HW2  307   0.822   0.526   0.441  0.8779  0.5339 -3.0204
   77SOL     MW  308   0.824   0.616   0.440 -0.0681 -0.2248 -0.1991
   78SOL     OW  309   0.779   0.882   1.087  0.1005 -0.3851 -0.1253
   78SOL    HW1  310   0.765   0.960   1.040  0.1998 -2.5585  0.0678
   78SOL    HW2  311   0.691   0.864   1.123 -0.7071 -0.3973  0.9224
   78SOL     MW  312   0.765   0.889   1.086  0.0070 -0.6735  0.0384
   79SOL     OW  313   1.845   1.503   0.551  0.2918 -0.1174 -0.5370
   79SOL    HW1  314   1.752   1.483   0.550 -0.6595  0.6981 -0.2396
   79SOL    HW2  315   1.894   1.450   0.619  0.2902 -0.5228 -1.8367
   79SOL     MW  316   1.839   1.493   0.560  0.1661 -0.0633 -0.6693
   80SOL     OW  317   0.150   0.995   0.305  0.8545 -0.7361 -0.3351
   80SOL    HW1  318   0.130   0.928   0.243 -1.2373 -1.5688 -1.1030
   80SOL    HW2  319   0.200   0.952   0.377  0.3151 -0.9220 -1.2069
   80SOL     MW  320   0.154   0.981   0.306  0.5074 -0.8705 -0.5514
   81SOL     OW  321   1.810   1.869   0.367  0.9972  0.2549 -0.3442
   81SOL    HW1  322   1.814   1.783   0.331  0.2052  1.7189  3.6509
   81SOL    HW2  323   1.775   1.922   0.288  1.4803  1.2160 -0.1549
   81SOL     MW  324   1.806   1.865   0.352  0.9565  0.5749  0.2079
   82SOL     OW  325   0.965   1.039   0.551  0.1298 -0.0615  0.4666
   82SOL    HW1  326   0.930   1.083   0.473 -0.6577 -0.9030 -0.7402
   82SOL    HW2  327   0.901   0.981   0.588  1.5129  2.2373  1.5942
   82SOL     MW  328   0.952   1.037   0.546  0.2084  0.1308  0.4562
   83SOL     OW  329   0.039   0.739   1.568 -0.6238  0.2322  0.2601
   83SOL    HW1  330   0.037   0.808   1.490  1.7314 -0.5727  3.8419
   83SOL    HW2  331   0.113   0.686   1.528 -0.9331  0.5482 -2.1126
   83SOL     MW  332   0.049   0.741   1.552 -0.3538  0.1677  0.4197
   84SOL     OW  333   0.037   0.170   0.937 -0.2804 -0.1744  0.0603
   84SOL    HW1  334   0.031   0.251   0.988  1.9171 -0.8133  0.1720
   84SOL    HW2  335   0.046   0.109   1.015 -1.4799  0.4219 -1.3207
   84SOL     MW  336   0.037   0.173   0.954 -0.1487 -0.1801 -0.1072
   85SOL     OW  337   0.326   0.494   0.772 -0.0399 -0.1881  0.2964
   85SOL    HW1  338   0.376   0.511   0.694 -0.8784  0.7238  1.3247
   85SOL    HW2  339   0.296   0.401   0.778 -0.8138  1.9342 -1.1734
   85SOL     MW  340   0.328   0.484   0.762 -0.2527  0.2122  0.2381
   86SOL     OW  341   1.227   0.271   1.152  0.3238 -0.1852  0.0122
   86SOL    HW1  342   1.223   0.359   1.111 -0.3710 -0.9660  1.7308
   86SOL    HW2  343   1.304   0.272   1.211  1.5107  0.1584 -1.6891
   86SOL     MW  344   1.237   0.283   1.155  0.3887 -0.2429  0.0145
   87SOL     OW  345   1.036   1.541   1.179  0.1148  0.0439 -0.4879
   87SOL    HW1  346   1.088   1.609   1.138 -0.5291  1.4979 -1.6694
   87SOL    HW2  347   1.063   1.453   1.147 -2.5193 -3.4941  0.6588
   87SOL     MW  348   1.047   1.538   1.169 -0.3177 -0.2310 -0.4925
   88SOL     OW  349   1.201   1.078   0.993 -0.6179 -0.0391 -0.3722
   88SOL    HW1  350   1.294   1.103   1.016  0.1604 -1.1590 -1.3263
   88SOL    HW2  351   1.144   1.136   1.045 -1.7509 -0.5500  0.8609
   88SOL     MW  352   1.206   1.089   1.003 -0.6647 -0.2543 -0.3354
   89SOL     OW  353   1.779   0.697   0.223 -0.2472 -0.3435 -0.6466
   89SOL    HW1  354   1.736   0.634   0.280 -0.3939 -1.0576  0.2802
   89SOL    HW2  355   1.858   0.719   0.275 -2.6788  3.4511  0.3609
   89SOL     MW  356   1.784   0.692   0.237 -0.5874  0.0629 -0.3914
   90SOL     OW  357   0.784   1.232   2.858 -0.0815 -0.1104 -0.2056
   90SOL    HW1  358   0.820   1.142   2.853 -1.3603  0.9667  0.0356
   90SOL    HW2  359   0.806   1.268   2.943  0.1875 -1.7658 -2.3171
   90SOL     MW  360   0.792   1.225   2.869 -0.2147 -0.1867 -0.4523
   91SOL     OW  361   2.209   0.606   0.468  0.3916  0.6794  0.5749
   91SOL    HW1  362   2.280   0.650   0.415 -0.3389 -1.9317  1.0034
   91SOL    HW2  363   2.208   0.517   0.425  1.8676  1.7613 -0.1578
   91SOL     MW  364   2.218   0.600   0.455  0.4899  0.4776  0.5348
   92SOL     OW  365   1.631   0.967   0.529 -0.0723  0.0521 -0.5931
   92SOL    HW1  366   1.594   1.000   0.610  1.9969 -0.8623 -1.7833
   92SOL    HW2  367   1.584   0.990   0.451  1.2062 -0.3357  1.0690
   92SOL     MW  368   1.620   0.975   0.529  0.3694 -0.1197 -0.5308
   93SOL     OW  369   1.058   0.292   0.362  0.6161 -0.1379  0.5659
   93SOL    HW1  370   0.971   0.321   0.383  0.5446 -1.2507  0.7803
   93SOL    HW2  371   1.088   0.317   0.269 -0.9327  2.4941 -0.0769
   93SOL     MW  372   1.051   0.299   0.352  0.4023  0.0625  0.5094
   94SOL     OW  373   1.882   1.385   1.576  0.5691  0.1608  0.5237
   94SOL    HW1  374   1.897   1.379   1.480  0.5184  0.4900  2.8837
   94SOL    HW2  375   1.890   1.292   1.605  1.9103 -1.2578 -0.9078
   94SOL     MW  376   1.885   1.372   1.567  0.7394  0.0171  0.6462
   95SOL     OW  377   0.593   1.552   0.921  0.4574 -0.0868  0.5618
   95SOL    HW1  378   0.660   1.507   0.975 -1.1192  2.0519 -2.2618
   95SOL    HW2  379   0.541   1.481   0.881 -0.3095  2.8956 -2.0026
   95SOL     MW  380   0.595   1.537   0.923  0.1482  0.5889 -0.1491
   96SOL     OW  381   1.342   1.860   1.683 -0.4926  0.5425 -0.1676
   96SOL    HW1  382   1.246   1.855   1.709 -0.4790 -1.4777  1.6593
   96SOL    HW2  383   1.366   1.770   1.657 -2.0690 -0.2551  1.6466
   96SOL     MW  384   1.333   1.848   1.683 -0.6988  0.1707  0.3128
   97SOL     OW  385   1.090   1.561   0.837  0.2656  0.2434 -0.1834
   97SOL    HW1  386   1.129   1.627   0.903 -2.6283  1.6847  0.8064
   97SOL    HW2  387   1.003   1.593   0.814 -0.2313  0.6156 -1.5322
   97SOL     MW  388   1.084   1.574   0.843 -0.1818  0.4827 -0.2308
   98SOL     OW  389   1.331   1.407   1.183 -0.1830 -0.1215  0.7020
   98SOL    HW1  390   1.379   1.435   1.266 -0.6752  1.7132 -0.0777
   98SOL    HW2  391   1.378   1.446   1.109  1.5981 -0.4902 -0.2286
   98SOL     MW  392   1.343   1.416   1.184 -0.0129  0.0719  0.4763
   99SOL     OW  393   1.500   0.294   1.337  0.3455  0.5044 -0.1096
   99SOL    HW1  394   1.506   0.386   1.307  2.0332 -2.8173  2.2095
   99SOL    HW2  395   1.470   0.305   1.433 -0.4248 -1.7989  2.2569
   99SOL     MW  396   1.497   0.308   1.346  0.4666 -0.2378  0.5086
  100SOL     OW  397   1.059   1.136   1.373 -0.4318  0.6020 -0.2743
  100SOL    HW1  398   1.103   1.181   1.446  2.1755  0.6263 -0.1587
  100SOL    HW2  399   1.087   1.040   1.382 -1.3995 -1.1374  2.4764
  100SOL     MW  400   1.068   1.130   1.384 -0.2155  0.3757  0.1038
  101SOL     OW  401   0.545   1.215   0.413 -0.0292  0.3503  0.0954
  101SOL    HW1  402   0.475   1.172   0.350 -2.3640 -2.6918 -0.7777
  101SOL    HW2  403   0.626   1.176   0.381 -1.0163 -0.9078 -0.5603
  101SOL     MW  404   0.546   1.204   0.400 -0.4675 -0.2171 -0.1063
  102SOL     OW  405   2.955   0.633   1.102  0.3449 -0.4562  0.0325
  102SOL    HW1  406   2.986   0.718   1.118 -0.3128 -3.2930  0.3841
  102SOL    HW2  407   2.915   0.612   1.192 -2.6107 -0.2643  0.2704
  102SOL     MW  408   2.954   0.641   1.116 -0.1319 -0.8052  0.1103
  103SOL     OW  409   1.858   0.270   1.789  0.1050 -0.7129 -0.2899
  103SOL    HW1  410   1.852   0.178   1.777  1.2643  1.0826  0.9005
  103SOL    HW2  411   1.832   0.282   1.884 -1.2463  0.2581 -0.8748
  103SOL     MW  412   1.854   0.260   1.800  0.0797 -0.3479 -0.2100
  104SOL     OW  413   0.046   1.533   1.662 -0.2247  0.1930  0.2731
  104SOL    HW1  414   0.091   1.455   1.713  0.4631  1.7971  1.0924
  104SOL    HW2  415  -0.040   1.499   1.659  1.9798  1.0029  0.3018
  104SOL     MW  416   0.040   1.519   1.668  0.1569  0.5115  0.3850
  105SOL     OW  417   0.007   1.229   0.403  0.8145  0.0857 -0.0193
  105SOL    HW1  418   0.035   1.141   0.376 -0.6291 -0.2734  2.7383
  105SOL    HW2  419   0.086   1.284   0.414 -0.9310 -1.5877  3.4253
  105SOL     MW  420   0.021   1.224   0.401  0.3937 -0.1825  0.7991
  106SOL     OW  421   0.780   0.295   0.828  0.0840 -0.6031  0.2894
  106SOL    HW1  422   0.719   0.356   0.877 -0.5199  1.4221 -0.3730
  106SOL    HW2  423   0.848   0.353   0.804 -2.2610 -0.3689 -0.5850
  106SOL     MW  424   0.781   0.311   0.831 -0.3051 -0.3050  0.0866
  107SOL     OW  425   0.819   2.212   2.888 -0.3329 -0.0258  0.1856
  107SOL    HW1  426   0.726   2.210   2.886 -1.2112  1.3305  2.9521
  107SOL    HW2  427   0.838   2.164   2.972  1.8613 -0.9240 -1.0434
  107SOL     MW  428   0.809   2.205   2.899 -0.1593  0.0346  0.3885
  108SOL     OW  429   1.367   1.574   1.635 -0.8051 -0.1835 -0.2405
  108SOL    HW1  430   1.293   1.534   1.597  1.7178 -0.0459 -1.7787
  108SOL    HW2  431   1.448   1.517   1.634  2.1452 -3.4086  0.2763
  108SOL     MW  432   1.368   1.561   1.630 -0.0830 -0.5909 -0.3753
  109SOL     OW  433   2.030   0.758   0.337  0.2733  0.0166  0.6814
  109SOL    HW1  434   2.039   0.859   0.340  0.7542  0.1613  1.1289
  109SOL    HW2  435   2.096   0.720   0.396  0.8316 -1.3374 -0.5076
  109SOL     MW  436   2.040   0.767   0.345  0.4104 -0.1430  0.5836
  110SOL     OW  437   0.413   1.923   0.745 -0.3612  1.0107  0.1999
  110SOL    HW1  438   0.489   1.883   0.710 -1.8470  0.3657 -0.1091
  110SOL    HW2  439   0.410   2.010   0.698 -0.2337 -1.4038  0.0700
  110SOL     MW  440   0.423   1.929   0.734 -0.5404  0.6071  0.1420
  111SOL     OW  441   0.860   0.864   1.361  0.3155  0.1869 -0.5551
  111SOL    HW1  442   0.865   0.861   1.267 -0.0343 -0.4277 -0.4263
  111SOL    HW2  443   0.802   0.798   1.395  2.0005  1.1889 -0.9787
  111SOL     MW  444   0.853   0.855   1.353  0.4916  0.2380 -0.5940
  112SOL     OW  445   1.402   1.103   1.592 -0.0047  0.2019  0.4801
  112SOL    HW1  446   1.324   1.161   1.594  0.0905 -1.4637 -1.0103
  112SOL    HW2  447   1.378   1.014   1.617  0.3065 -0.6408 -0.0089
  112SOL     MW  448   1.389   1.099   1.595  0.0490 -0.1291  0.2190
  113SOL     OW  449   1.225   3.007   1.721  0.3793 -0.0658  0.4851
  113SOL    HW1  450   1.229   2.961   1.807  0.4863 -0.7104  0.2290
  113SOL    HW2  451   1.183   2.954   1.658 -0.3215  1.7303  1.6839
  113SOL     MW  452   1.220   2.994   1.724  0.3010  0.0861  0.6094
  114SOL     OW  453   0.306   2.869   1.774  1.2986  0.0710 -0.5083
  114SOL    HW1  454   0.388   2.926   1.791 -0.3896 -0.6903 -2.2667
  114SOL    HW2  455   0.242   2.903   1.835  2.1617  2.8197  0.3503
  114SOL     MW  456   0.309   2.881   1.784  1.1898  0.3332 -0.6270
  115SOL     OW  457   0.520   0.847   1.193  0.7406  0.0990 -0.2524
  115SOL    HW1  458   0.495   0.756   1.194  1.7613 -1.0236 -0.9863
  115SOL    HW2  459   0.438   0.899   1.230 -1.2380  1.4234  1.1970
  115SOL     MW  460   0.506   0.842   1.198  0.6142  0.1256 -0.1580
  116SOL     OW  461   0.712   1.123   0.949 -0.3067  0.0350 -0.2973
  116SOL    HW1  462   0.758   1.167   0.868  0.8435  2.2107  0.3284
  116SOL    HW2  463   0.743   1.169   1.024 -1.3432  1.0123 -1.0679
  116SOL     MW  464   0.722   1.135   0.948 -0.2917  0.4510 -0.3164
  117SOL     OW  465   1.127   1.286   0.803  0.2480  0.7426 -0.3447
  117SOL    HW1  466   1.155   1.234   0.877 -0.0863  0.3398  0.6606
  117SOL    HW2  467   1.115   1.380   0.844 -0.2405 -0.5576  2.0671
  117SOL     MW  468   1.129   1.291   0.818  0.1394  0.5179  0.1061
  118SOL     OW  469   3.039   2.941   1.803  0.9020 -0.2231  0.3748
  118SOL    HW1  470   3.081   3.010   1.852  2.5422  0.8700 -2.9472
  118SOL    HW2  471   2.945   2.963   1.793 -1.2125 -0.1608  1.4703
  118SOL     MW  472   3.032   2.953   1.808  0.8395 -0.0707  0.0810
  119SOL     OW  473   0.368   1.544   1.237  0.2601  0.1606  0.3801
  119SOL    HW1  474   0.403   1.623   1.191 -2.0604 -1.4502 -0.9518
  119SOL    HW2  475   0.281   1.538   1.195  1.6668  1.6356 -0.3091
  119SOL     MW  476   0.361   1.554   1.225  0.1395  0.1427  0.1134
  120SOL     OW  477   0.270   0.829   0.994  0.1030  0.1267 -0.1192
  120SOL    HW1  478   0.301   0.820   1.084 -1.2569  4.9427  1.6851
  120SOL    HW2  479   0.350   0.842   0.944  1.1477 -2.1283  0.3965
  120SOL     MW  480   0.284   0.829   0.999  0.0614  0.4646  0.1869
  121SOL     OW  481   1.773   1.129   1.610  0.1139 -0.4207  0.1371
  121SOL    HW1  482   1.712   1.180   1.556  0.9125  0.2118 -1.7868
  121SOL    HW2  483   1.811   1.067   1.554  0.1657  1.1144 -0.9233
  121SOL     MW  484   1.770   1.128   1.596  0.2261 -0.1347 -0.2566
  122SOL     OW  485   0.111   0.623   0.848 -0.3480  0.7429  0.3836
  122SOL    HW1  486   0.184   0.584   0.802 -0.8459  2.7710 -1.9602
  122SOL    HW2  487   0.160   0.688   0.890 -0.3794 -1.1704 -1.6957
  122SOL     MW  488   0.127   0.626   0.847 -0.4179  0.7580 -0.2000
  123SOL     OW  489   1.867   1.097   0.529  0.1528  0.0488 -0.0909
  123SOL    HW1  490   1.799   1.029   0.517  1.1832 -1.3757 -0.0725
  123SOL    HW2  491   1.903   1.078   0.618 -2.0218 -0.7977  0.6299
  123SOL     MW  492   1.862   1.086   0.539  0.0018 -0.2508  0.0067
  124SOL     OW  493   0.600   0.448   0.961  0.7626  0.0634 -0.3816
  124SOL    HW1  494   0.537   0.427   0.893 -0.5372  2.9265 -0.8055
  124SOL    HW2  495   0.629   0.537   0.931 -0.9106  1.5702  1.3363
  124SOL     MW  496   0.596   0.457   0.948  0.3703  0.6400 -0.2109
  125SOL     OW  497   0.686   1.721   1.776 -0.2743 -0.7383 -0.6834
  125SOL    HW1  498   0.674   1.697   1.685  2.3807  0.1905 -1.7621
  125SOL    HW2  499   0.618   1.794   1.788  1.5987 -0.5200  1.0802
  125SOL     MW  500   0.676   1.727   1.766  0.3231 -0.5870 -0.5930
  126SOL     OW  501   2.132   1.537   1.907 -0.4536  0.4047  0.1113
  126SOL    HW1  502   2.196   1.602   1.882 -0.7686 -1.1766 -1.2600
  126SOL    HW2  503   2.180   1.460   1.939  0.9872  2.5350  0.3490
  126SOL     MW  504   2.147   1.535   1.908 -0.3051  0.4771 -0.0383
  127SOL     OW  505   0.535   0.786   1.808 -0.5944  0.0472  0.2138
  127SOL    HW1  506   0.630   0.789   1.779  2.7627 -0.2898 -0.8143
  127SOL    HW2  507   0.520   0.845   1.877 -2.1709  0.5885 -0.2167
  127SOL     MW  508   0.546   0.794   1.813 -0.3595  0.0742  0.0213
  128SOL     OW  509   1.747   0.708   2.898 -0.3538  0.1909 -0.3457
  128SOL    HW1  510   1.783   0.682   2.814  3.6649  0.7231 -1.9780
  128SOL    HW2  511   1.732   0.799   2.884 -2.0965  0.6640 -0.7850
  128SOL     MW  512   1.750   0.717   2.885 -0.0535  0.3236 -0.6190
  129SOL     OW  513   1.571   0.874   0.188 -0.2023 -0.6756  0.0063
  129SOL    HW1  514   1.514   0.807   0.156  0.1947 -2.8255  3.5318
  129SOL    HW2  515   1.653   0.830   0.181 -0.0671 -0.5607 -2.4039
  129SOL     MW  516   1.574   0.859   0.183 -0.1321 -0.9441  0.1534
  130SOL     OW  517   0.830   1.462   0.324 -0.2600  0.5266  0.5261
  130SOL    HW1  518   0.811   1.481   0.415  2.4971 -2.8183 -0.3062
  130SOL    HW2  519   0.928   1.462   0.309  3.9911  0.8250  1.1278
  130SOL     MW  520   0.840   1.465   0.334  0.6646  0.1247  0.4957
  131SOL     OW  521   0.062   0.797   0.099  0.4707  0.5022  0.6009
  131SOL    HW1  522   0.039   0.839   0.023 -1.9803 -1.2371  3.0091
  131SOL    HW2  523   0.135   0.742   0.076 -0.2858 -1.5853  0.5238
  131SOL     MW  524   0.068   0.795   0.086  0.0475 -0.0027  0.9084
  132SOL     OW  525   2.754   0.087   1.249  0.1125 -0.0994  0.0280
  132SOL    HW1  526   2.780   0.078   1.157 -1.6060 -0.7007 -3.5540
  132SOL    HW2  527   2.663   0.063   1.234 -2.2121 -0.8194  1.0819
  132SOL     MW  528   2.746   0.082   1.235 -0.4210 -0.2737 -0.3055
  133SOL     OW  529   1.034   0.132   1.668 -0.6034 -0.4252  0.1207
  133SOL    HW1  530   1.097   0.058   1.675  0.2730 -0.9232 -0.4974
  133SOL    HW2  531   1.047   0.175   1.750 -0.1103 -1.3932 -0.9100
  133SOL     MW  532   1.044   0.128   1.680 -0.4227 -0.6187 -0.0969
  134SOL     OW  533   1.415   2.464   1.468 -0.3049  0.8578 -0.5394
  134SOL    HW1  534   1.356   2.517   1.418 -0.7372  2.1773 -1.9993
  134SOL    HW2  535   1.430   2.516   1.548 -1.6013 -2.8072 -1.4459
  134SOL     MW  536   1.409   2.477   1.472 -0.5330  0.5483 -0.8516
  135SOL     OW  537   3.021   0.982   2.965  0.1522 -0.1077 -0.4127
  135SOL    HW1  538   3.114   1.009   2.987  1.9042 -2.7810 -0.0360
  135SOL    HW2  539   2.978   1.060   2.919  0.9790  0.5729 -0.7769
  135SOL     MW  540   3.027   0.996   2.962  0.4924 -0.3706 -0.4111
  136SOL     OW  541   0.193   1.974   0.870  0.0801 -0.0767  0.0716
  136SOL    HW1  542   0.137   1.911   0.826 -0.2342  2.1782  2.0549
  136SOL    HW2  543   0.279   1.954   0.826 -1.4182 -1.9587 -1.3867
  136SOL     MW  544   0.197   1.963   0.859 -0.1590 -0.0275  0.1409
  137SOL     OW  545   0.757   2.077   0.583 -0.4695 -0.0968  0.2114
  137SOL    HW1  546   0.760   2.051   0.677  0.6135  0.2888  2.0568
  137SOL    HW2  547   0.664   2.112   0.580  1.3168  1.3085  0.2199
  137SOL     MW  548   0.745   2.078   0.595 -0.0910  0.1395  0.4560
  138SOL     OW  549   0.470   0.576   1.183 -0.3316  0.1113 -0.8497
  138SOL    HW1  550   0.386   0.546   1.202  2.1671  0.2856 -2.2748
  138SOL    HW2  551   0.502   0.510   1.117  0.7418  1.0925 -1.1271
  138SOL     MW  552   0.463   0.563   1.177  0.1397  0.2637 -1.0743
  139SOL     OW  553   2.845   0.536   1.356  0.0531 -0.1938  0.2932
  139SOL    HW1  554   2.919   0.473   1.343 -0.4516  0.1923  0.4686
  139SOL    HW2  555   2.849   0.563   1.449 -0.6642 -0.5198 -0.8890
  139SOL     MW  556   2.855   0.531   1.366 -0.1081 -0.1858  0.1604
  140SOL     OW  557   0.871   0.451   1.965 -0.0310  0.3683 -0.5297
  140SOL    HW1  558   0.935   0.380   1.944  0.7602  0.1422 -0.0503
  140SOL    HW2  559   0.886   0.463   2.056  3.2373  2.1594 -1.9920
  140SOL     MW  560   0.881   0.443   1.974  0.5046  0.5748 -0.6594
  141SOL     OW  561   1.053   0.613   1.648  0.5241  0.4915  0.5932
  141SOL    HW1  562   1.054   0.532   1.597  0.3068  0.3233  0.2505
  141SOL    HW2  563   1.112   0.674   1.611 -1.9705 -1.8196  0.2518
  141SOL     MW  564   1.061   0.610   1.636  0.1663  0.1644  0.5030
  142SOL     OW  565   0.867   1.207   0.744 -0.0346 -0.1894 -0.0094
  142SOL    HW1  566   0.900   1.133   0.691 -1.7418  0.6850  0.2032
  142SOL    HW2  567   0.941   1.242   0.793 -1.3435  2.3786 -0.5159
  142SOL     MW  568   0.881   1.202   0.743 -0.4326  0.2648 -0.0482
  143SOL     OW  569   1.825   0.722   1.029  0.1424  0.8609  0.4827
  143SOL    HW1  570   1.881   0.724   0.953 -2.0744  1.5630 -2.2444
  143SOL    HW2  571   1.735   0.733   1.002  0.4954 -0.3241 -1.6015
  143SOL     MW  572   1.821   0.724   1.015 -0.1035  0.7972 -0.1521
  144SOL     OW  573   0.262   1.319   1.728 -0.2961 -0.2494 -0.0055
  144SOL    HW1  574   0.338   1.385   1.725 -2.5007  2.2493  2.6016
  144SOL    HW2  575   0.290   1.274   1.806  1.2145  1.8041 -2.0885
  144SOL     MW  576   0.276   1.322   1.738 -0.3877  0.3512  0.0637
  145SOL     OW  577   0.192   0.484   1.242  0.7624  0.5124 -0.5298
  145SOL    HW1  578   0.227   0.392   1.247  0.4399 -0.0230 -4.2656
  145SOL    HW2  579   0.141   0.486   1.159 -2.2966  0.3420 -1.7907
  145SOL     MW  580   0.190   0.472   1.231  0.3163  0.4193 -1.1890
  146SOL     OW  581   0.785   1.930   1.480 -0.4376  0.2556  0.8860
  146SOL    HW1  582   0.807   1.950   1.383  0.4839  0.4346  0.1804
  146SOL    HW2  583   0.724   1.851   1.477  1.4932 -1.1973 -0.3147
  146SOL     MW  584   0.780   1.922   1.467 -0.0613  0.0875  0.6345
  147SOL     OW  585   0.468   0.498   2.913  0.5320 -0.0683  0.2320
  147SOL    HW1  586   0.406   0.511   2.985  0.7549 -2.0128  1.8858
  147SOL    HW2  587   0.426   0.558   2.852 -1.8246  0.4080  3.3241
  147SOL     MW  588   0.454   0.508   2.915  0.2505 -0.2620  0.8582
  148SOL     OW  589   0.064   0.923   1.357 -0.4460  0.0418  0.8448
  148SOL    HW1  590   0.155   0.941   1.333  1.2616  0.7675 -1.0115
  148SOL    HW2  591   0.028   1.009   1.370 -2.2958 -0.8345 -0.1979
  148SOL     MW  592   0.071   0.937   1.356 -0.4648  0.0219  0.4623
  149SOL     OW  593   1.609   1.177   1.383 -0.0945  0.2753 -0.3265
  149SOL    HW1  594   1.542   1.140   1.445  3.3991  1.9503 -2.0695
  149SOL    HW2  595   1.587   1.270   1.389 -0.5630 -0.6070  0.8206
  149SOL     MW  596   1.597   1.185   1.392  0.3046  0.3799 -0.4051
  150SOL     OW  597   1.728   1.467   0.882  0.4720  0.3316 -0.4984
  150SOL    HW1  598   1.789   1.396   0.899 -2.5522 -2.0804 -0.0420
  150SOL    HW2  599   1.783   1.542   0.855 -1.1808  1.0467 -3.1423
  150SOL     MW  600   1.743   1.467   0.881 -0.1451  0.1077 -0.7870
  151SOL     OW  601   1.646   1.889   0.827 -0.3238 -0.3282 -0.0272
  151SOL    HW1  602   1.626   1.862   0.734 -1.4296 -0.2782  1.4291
  151SOL    HW2  603   1.593   1.836   0.888  0.1807  0.2107  1.1510
  151SOL     MW  604   1.637   1.878   0.823 -0.4031 -0.2505  0.3204
  152SOL     OW  605   0.643   1.420   1.561  0.0538  0.3087 -0.2825
  152SOL    HW1  606   0.702   1.457   1.502 -0.6416  0.7963  0.4191
  152SOL    HW2  607   0.645   1.322   1.562 -0.2117 -2.2258  2.3883
  152SOL     MW  608   0.651   1.412   1.553 -0.0730  0.0386  0.1625
  153SOL     OW  609   2.591   1.211   0.715 -0.2094  0.0543  0.0411
  153SOL    HW1  610   2.659   1.177   0.658 -1.1648  3.1455  0.0192
  153SOL    HW2  611   2.533   1.129   0.735 -2.9550 -0.5957  0.9317
  153SOL     MW  612   2.592   1.195   0.710 -0.6977  0.3764  0.1557
  154SOL     OW  613   0.122   1.780   1.784 -0.2314  0.3008 -0.1699
  154SOL    HW1  614   0.068   1.696   1.773  1.7997  1.5759  0.8678
  154SOL    HW2  615   0.208   1.745   1.785 -0.9575 -1.0943  1.4407
  154SOL     MW  616   0.126   1.765   1.783 -0.0592  0.2850  0.1795
  155SOL     OW  617   1.222   0.705   0.277  0.1873 -0.5203  0.6935
  155SOL    HW1  618   1.220   0.683   0.368 -0.8267  1.5358 -2.7132
  155SOL    HW2  619   1.201   0.801   0.275 -1.7761  1.3801  0.0621
  155SOL     MW  620   1.219   0.715   0.289 -0.2055  0.0017  0.1607
  156SOL     OW  621   1.553   0.010   1.086  0.0429  0.1414 -0.1645
  156SOL    HW1  622   1.596   0.049   1.159  1.0306 -2.1367 -2.6687
  156SOL    HW2  623   1.585  -0.079   1.088  0.3947 -0.0349 -0.6506
  156SOL     MW  624   1.563   0.003   1.096  0.2196 -0.1824 -0.5590
  157SOL     OW  625   1.327   1.140   0.182 -0.2153 -0.4004  0.5189
  157SOL    HW1  626   1.352   1.073   0.251  1.0861 -1.6813 -0.2217
  157SOL    HW2  627   1.382   1.213   0.188 -0.5132 -1.1419  0.4009
  157SOL     MW  628   1.337   1.141   0.192 -0.0829 -0.6673  0.4056
  158SOL     OW  629   0.407   1.670   2.229 -0.6402 -0.3403 -0.0955
  158SOL    HW1  630   0.467   1.737   2.199 -0.8894  0.6918 -0.0645
  158SOL    HW2  631   0.332   1.679   2.170 -0.7972  0.4637 -1.1914
  158SOL     MW  632   0.405   1.680   2.218 -0.6938 -0.0981 -0.2360
  159SOL     OW  633   1.200   1.637   0.548 -0.1540  0.6442 -0.2670
  159SOL    HW1  634   1.155   1.610   0.466 -0.3386  2.4051 -0.2032
  159SOL    HW2  635   1.144   1.701   0.598 -0.0974  1.0459  0.6502
  159SOL     MW  636   1.187   1.641   0.544 -0.1709  0.9295 -0.1376
  160SOL     OW  637   0.511   1.166   1.524  0.0170 -0.8040 -0.4773
  160SOL    HW1  638   0.460   1.091   1.565 -1.9753  1.9770 -2.0113
  160SOL    HW2  639   0.600   1.136   1.542  0.2989  1.5633  0.8810
  160SOL     MW  640   0.516   1.152   1.532 -0.2087 -0.1247 -0.5005
  161SOL     OW  641   0.444   2.243   2.683  0.6345  0.3101  0.3577
  161SOL    HW1  642   0.357   2.293   2.664 -0.1757  0.9980  0.2321
  161SOL    HW2  643   0.448   2.180   2.612  0.4248  1.7008  0.5937
  161SOL     MW  644   0.433   2.241   2.671  0.5000  0.5844  0.3722
  162SOL     OW  645   1.078   1.815   1.789  0.5083 -0.0140  0.0231
  162SOL    HW1  646   1.084   1.897   1.842  1.5111 -2.5828 -0.3746
  162SOL    HW2  647   0.999   1.781   1.824  0.5682  0.0338 -3.7618
  162SOL     MW  648   1.068   1.821   1.801  0.6485 -0.3466 -0.5288
  163SOL     OW  649   2.120   3.094   0.842  0.1139 -0.2472  0.0563
  163SOL    HW1  650   2.092   3.156   0.779 -0.0782  0.3613  0.1598
  163SOL    HW2  651   2.079   3.003   0.820  2.5124 -1.5867  0.0067
  163SOL     MW  652   2.111   3.090   0.831  0.4050 -0.3436  0.0634
  164SOL     OW  653   0.281   0.236   0.831  0.0484  0.0587  0.9089
  164SOL    HW1  654   0.191   0.204   0.854 -0.1362  1.7914 -1.0223
  164SOL    HW2  655   0.310   0.171   0.769 -1.1634  0.4436  0.5548
  164SOL     MW  656   0.273   0.223   0.826 -0.1358  0.3381  0.6074
  165SOL     OW  657   1.201   1.315   0.397 -0.2712  0.2058  0.4054
  165SOL    HW1  658   1.239   1.262   0.478 -0.5026 -0.1553  2.4971
  165SOL    HW2  659   1.225   1.255   0.325 -3.1881  0.4915  2.1964
  165SOL     MW  660   1.209   1.300   0.398 -0.6866  0.1958  0.9177
  166SOL     OW  661   0.452   1.169   1.049 -0.7652 -0.0365  0.4602
  166SOL    HW1  662   0.433   1.203   1.139 -2.9345 -1.0752 -1.7082
  166SOL    HW2  663   0.549   1.154   1.049  1.3305 -2.2862 -2.1305
  166SOL     MW  664   0.462   1.172   1.061 -0.7750 -0.4704 -0.1677
  167SOL     OW  665   0.810   1.169   0.330  0.5784 -0.3239  0.9482
  167SOL    HW1  666   0.818   1.263   0.340 -1.8305  1.6618 -2.7535
  167SOL    HW2  667   0.863   1.138   0.253 -0.5712  0.1683 -2.2035
  167SOL     MW  668   0.818   1.177   0.321  0.1089  0.0030  0.0440
  168SOL     OW  669   1.709   1.630   3.038 -0.2938  0.5223  0.2096
  168SOL    HW1  670   1.665   1.717   3.028 -0.4114  0.0886 -0.6592
  168SOL    HW2  671   1.641   1.565   3.014  0.9718 -1.4011 -1.5020
  168SOL     MW  672   1.694   1.633   3.034 -0.1424  0.2113 -0.1308
  169SOL     OW  673   0.336   0.984   1.315  0.2159 -0.3540 -0.0684
  169SOL    HW1  674   0.367   0.977   1.402 -1.8113 -0.4801  0.9100
  169SOL    HW2  675   0.374   1.063   1.283  0.3180 -1.5778  0.2868
  169SOL     MW  676   0.345   0.994   1.322 -0.0381 -0.5321  0.1076
  170SOL     OW  677   1.129   1.508   1.468  0.0892 -0.3219  0.1437
  170SOL    HW1  678   1.095   1.597   1.492  2.1930 -0.6770  2.7903
  170SOL    HW2  679   1.137   1.521   1.374 -2.1700  3.4574  0.1892
  170SOL     MW  680   1.125   1.521   1.459  0.0687  0.1299  0.4989
  171SOL     OW  681   0.514   1.443   0.576  0.4596 -0.0695  0.4539
  171SOL    HW1  682   0.473   1.511   0.523 -3.4069  2.0172 -1.5662
  171SOL    HW2  683   0.501   1.362   0.510  1.8552 -0.7183 -1.9642
  171SOL     MW  684   0.507   1.441   0.560  0.1336  0.1202 -0.1316
  172SOL     OW  685   0.756   0.295   1.276 -0.5077  0.4051  0.6692
  172SOL    HW1  686   0.735   0.263   1.189  1.5437  0.8796  2.3352
  172SOL    HW2  687   0.822   0.236   1.323  2.1202 -0.1048  2.7688
  172SOL     MW  688   0.762   0.283   1.271  0.1097  0.4005  1.1660
  173SOL     OW  689   0.558   1.702   0.331 -0.2718  0.4960  0.5058
  173SOL    HW1  690   0.577   1.617   0.294 -3.5799  3.6716  0.3015
  173SOL    HW2  691   0.627   1.726   0.389 -1.4044 -0.7487 -0.4899
  173SOL     MW  692   0.569   1.694   0.334 -0.8577  0.7508  0.3475
  174SOL     OW  693   1.912   0.911   1.486 -0.4808  0.8469 -0.5559
  174SOL    HW1  694   1.890   0.825   1.519 -0.3916  2.2017 -0.6740
  174SOL    HW2  695   1.881   0.913   1.396  0.4393  0.2529  0.5940
  174SOL     MW  696   1.905   0.900   1.479 -0.3476  0.9473 -0.4197
  175SOL     OW  697   0.573   1.483   0.187 -0.3410 -0.5737  0.0291
  175SOL    HW1  698   0.527   1.400   0.196  1.1020 -0.7884  1.0942
  175SOL    HW2  699   0.658   1.456   0.169  0.7974  2.7416  0.5141
  175SOL     MW  700   0.578   1.468   0.186 -0.0004 -0.1646  0.2336
  176SOL     OW  701   0.096   1.516   1.184 -0.5644  0.2953 -0.1928
  176SOL    HW1  702   0.090   1.472   1.096 -2.1656 -1.8395 -1.2683
  176SOL    HW2  703   0.038   1.465   1.238  0.6255 -0.1749  2.2958
  176SOL     MW  704   0.088   1.503   1.179 -0.6187 -0.0484 -0.0064
  177SOL     OW  705   0.502   0.296   1.428  0.1417 -1.0339 -0.0156
  177SOL    HW1  706   0.584   0.273   1.378 -0.6810  1.4135 -1.7242
  177SOL    HW2  707   0.519   0.392   1.459  2.2274 -1.3688 -2.3985
  177SOL     MW  708   0.515   0.305   1.425  0.3083 -0.7552 -0.5554
  178SOL     OW  709   3.060   0.520   3.018  0.3542  0.1994 -0.1729
  178SOL    HW1  710   2.964   0.550   3.033 -2.1562  5.6067 -1.6038
  178SOL    HW2  711   3.076   0.522   2.921  0.1659  0.6281  1.4504
  178SOL     MW  712   3.049   0.524   3.007 -0.0019  0.9694 -0.1475
  179SOL     OW  713   1.553   1.475   1.392  0.2916  0.1008  0.5832
  179SOL    HW1  714   1.542   1.471   1.488  1.8973  0.3471  2.3664
  179SOL    HW2  715   1.652   1.461   1.377 -1.4911  0.3432 -0.1488
  179SOL     MW  716   1.565   1.473   1.402  0.2683  0.1653  0.7219
  180SOL     OW  717   0.009   0.260   0.417  0.1626 -0.8550  0.0508
  180SOL    HW1  718  -0.070   0.285   0.375 -1.8211  0.5145  0.1645
  180SOL    HW2  719   0.069   0.337   0.420  2.7046  1.0491  0.1333
  180SOL     MW  720   0.007   0.273   0.412  0.2363 -0.4231  0.0767
  181SOL     OW  721   1.069   1.324   3.101  0.0721  0.6572  0.0869
  181SOL    HW1  722   1.136   1.387   3.129  1.3445 -1.1850 -0.7521
  181SOL    HW2  723   1.126   1.265   3.047  1.1705  1.7579  5.2399
  181SOL     MW  724   1.086   1.324   3.097  0.3849  0.5594  0.6561
  182SOL     OW  725   0.375   0.925   1.603  0.0731 -0.5669 -0.0761
  182SOL    HW1  726   0.296   0.939   1.649  0.9127  0.1149 -3.2167
  182SOL    HW2  727   0.421   0.847   1.640 -0.6759 -1.7282 -4.2778
  182SOL     MW  728   0.371   0.917   1.614  0.0850 -0.6301 -1.0449
  183SOL     OW  729   1.574   1.765   1.280  0.2076 -0.2530 -0.4376
  183SOL    HW1  730   1.670   1.766   1.280 -1.9801  1.6587 -0.4044
  183SOL    HW2  731   1.556   1.691   1.337 -1.0169 -0.1937  1.7544
  183SOL     MW  732   1.584   1.755   1.288 -0.2426  0.0071 -0.1440
  184SOL     OW  733   0.819   0.672   1.771  0.2260 -1.2480 -0.0845
  184SOL    HW1  734   0.913   0.653   1.749  1.6753  0.0724  1.4874
  184SOL    HW2  735   0.794   0.614   1.844 -0.2878 -0.9485 -0.9461
  184SOL     MW  736   0.828   0.662   1.778  0.3494 -1.0342  0.0092
  185SOL     OW  737   1.137   0.961   1.883 -0.0900  0.0279 -0.2902
  185SOL    HW1  738   1.099   0.880   1.924 -0.6451 -2.0268  0.2135
  185SOL    HW2  739   1.185   1.013   1.953  2.6991  2.5096 -1.7828
  185SOL     MW  740   1.139   0.957   1.898  0.2047  0.0842 -0.4207
  186SOL     OW  741   0.263   1.618   1.520 -0.0501 -0.3068  0.2967
  186SOL    HW1  742   0.288   1.566   1.443 -0.4238  0.2622 -2.1146
  186SOL    HW2  743   0.179   1.583   1.562 -2.0667  0.6721 -0.9445
  186SOL     MW  744   0.255   1.607   1.516 -0.3655 -0.1026 -0.1852
  187SOL     OW  745   1.385   0.779   1.378 -0.2388  0.3552 -0.3228
  187SOL    HW1  746   1.372   0.812   1.468 -2.4755  1.2100 -1.4328
  187SOL    HW2  747   1.293   0.778   1.349  0.5401  1.0097 -0.2907
  187SOL     MW  748   1.371   0.783   1.386 -0.4312  0.5543 -0.4650
  188SOL     OW  749   1.894   1.229   0.903 -0.3242  0.5823  0.2881
  188SOL    HW1  750   1.893   1.235   1.002 -0.4333 -0.1876  2.2459
  188SOL    HW2  751   1.918   1.141   0.881 -1.1697  0.7048  0.9684
  188SOL     MW  752   1.897   1.218   0.913 -0.4501  0.4968  0.6361
  189SOL     OW  753   0.700   0.704   0.885  0.0239  0.1826  0.2408
  189SOL    HW1  754   0.633   0.756   0.845 -0.4158 -3.7898 -0.3535
  189SOL    HW2  755   0.722   0.760   0.957  1.9303 -0.8993  0.7575
  189SOL     MW  756   0.694   0.719   0.889  0.2174 -0.4843  0.2306
  190SOL     OW  757   1.856   0.291   2.062  0.4068 -0.7512 -0.4096
  190SOL    HW1  758   1.850   0.274   2.161  0.4773  0.1457 -2.3248
  190SOL    HW2  759   1.935   0.348   2.041  1.5102  1.3840 -1.5735
  190SOL     MW  760   1.866   0.296   2.072  0.5617 -0.3511 -0.8158
  191SOL     OW  761   1.566   0.956   1.210 -0.1128  0.2240  0.2807
  191SOL    HW1  762   1.566   1.038   1.259 -1.6332 -0.8996 -0.5924
  191SOL    HW2  763   1.521   0.892   1.266 -0.6147 -0.3842 -2.5419
  191SOL     MW  764   1.560   0.959   1.224 -0.3796 -0.0045 -0.2069
  192SOL     OW  765   0.505   2.186   2.940  0.0602 -0.3931  0.6147
  192SOL    HW1  766   0.449   2.241   2.885 -0.9913  1.1666  1.9857
  192SOL    HW2  767   0.490   2.100   2.911 -1.4207  0.0419  2.1969
  192SOL     MW  768   0.495   2.182   2.929 -0.2739 -0.1299  1.0044
  193SOL     OW  769   0.830   1.634   0.802  0.7293  0.2847 -0.0746
  193SOL    HW1  770   0.734   1.619   0.845 -2.0272 -3.8356  3.5726
  193SOL    HW2  771   0.828   1.577   0.719  0.1513 -1.1881  3.3305
  193SOL     MW  772   0.817   1.625   0.797  0.2894 -0.4532  0.8558
  194SOL     OW  773   0.434   1.344   0.832 -0.3182  0.4125 -0.1505
  194SOL    HW1  774   0.399   1.289   0.908 -3.0381 -0.0867  2.5949
  194SOL    HW2  775   0.357   1.396   0.800 -3.7311 -2.4495 -0.9020
  194SOL     MW  776   0.419   1.343   0.838 -1.1274 -0.0310  0.1126
  195SOL     OW  777   1.227   1.097   3.010 -0.6508  0.6580  0.1579
  195SOL    HW1  778   1.298   1.084   3.072  0.3330 -4.4837 -0.0699
  195SOL    HW2  779   1.182   1.014   3.010 -0.7648  0.2912 -0.0988
  195SOL     MW  780   1.230   1.084   3.018 -0.5361 -0.0688  0.0940
  196SOL     OW  781   2.238   1.015   0.529 -0.1261  0.1641 -0.7326
  196SOL    HW1  782   2.276   0.986   0.447  0.2664 -1.0325 -3.9895
  196SOL    HW2  783   2.231   1.110   0.526  1.1976 -1.8305  2.9247
  196SOL     MW  784   2.242   1.024   0.518  0.1004 -0.2569 -0.6798
  197SOL     OW  785   0.610   1.338   2.161  0.0771 -0.0409 -0.3731
  197SOL    HW1  786   0.653   1.257   2.127  0.6584 -1.3918  1.4868
  197SOL    HW2  787   0.645   1.408   2.112  0.9499 -1.3552 -0.4510
  197SOL     MW  788   0.620   1.337   2.150  0.2689 -0.3926 -0.1380
  198SOL     OW  789   2.939   1.402   1.010 -0.0938 -0.9822  0.5462
  198SOL    HW1  790   2.923   1.489   0.971 -0.5474  2.6034  1.4959
  198SOL    HW2  791   2.864   1.354   0.985  1.4993 -0.9834 -0.2823
  198SOL     MW  792   2.927   1.407   1.002  0.0565 -0.5092  0.5622
  199SOL     OW  793   0.654   1.270   1.830  0.3134 -0.0703 -0.3289
  199SOL    HW1  794   0.563   1.248   1.852 -1.2477  0.0669  0.9093
  199SOL    HW2  795   0.652   1.352   1.789 -0.6769 -1.8413  0.5599
  199SOL     MW  796   0.642   1.278   1.827 -0.0232 -0.2858 -0.0483
  200SOL     OW  797   1.843   2.955   1.293 -0.0289  0.4839  0.1642
  200SOL    HW1  798   1.882   2.953   1.201  2.3551  1.1491 -2.3910
  200SOL    HW2  799   1.802   3.037   1.300  3.9983 -3.3425  0.2768
  200SOL     MW  800   1.842   2.965   1.282  0.8170  0.0668 -0.1581
  201SOL     OW  801   1.196   0.299   0.822  0.2500 -0.4071 -0.0029
  201SOL    HW1  802   1.144   0.218   0.819 -0.5716  0.9065 -3.8779
  201SOL    HW2  803   1.272   0.271   0.876 -0.3417  0.5333  2.7195
  201SOL     MW  804   1.199   0.284   0.828  0.0635 -0.1097 -0.1550
  202SOL     OW  805   1.497   1.721   1.001 -0.3488  0.3472  0.4434
  202SOL    HW1  806   1.492   1.630   0.980 -1.4245  4.0272  2.2565
  202SOL    HW2  807   1.552   1.729   1.082  1.8065 -1.9211  2.0127
  202SOL     MW  808   1.504   1.710   1.009 -0.2064  0.5335  0.8897
  203SOL     OW  809   3.023   0.344   1.303  0.2330  0.1915  0.1247
  203SOL    HW1  810   3.067   0.254   1.298  2.8447 -1.5992 -1.2953
  203SOL    HW2  811   3.096   0.405   1.320  1.1877  1.5514 -0.5596
  203SOL     MW  812   3.038   0.340   1.305  0.7036  0.1346 -0.1530
  204SOL     OW  813   0.988   1.812   0.671 -0.1792  0.0641  0.0226
  204SOL    HW1  814   0.910   1.772   0.715 -1.1732  2.1418  0.0579
  204SOL    HW2  815   0.964   1.807   0.581 -2.5600 -1.9684 -0.5463
  204SOL     MW  816   0.975   1.806   0.665 -0.6245  0.0701 -0.0478
  205SOL     OW  817   1.422   3.035   1.323  0.2571  0.2087  0.3427
  205SOL    HW1  818   1.449   3.046   1.231  1.0969 -1.3833  0.4201
  205SOL    HW2  819   1.359   3.103   1.343  0.0231  0.2526 -0.4291
  205SOL     MW  820   1.417   3.045   1.313  0.3371  0.0045  0.2511
  206SOL     OW  821   0.384   2.928   1.335 -0.5058 -0.3061 -0.1928
  206SOL    HW1  822   0.379   2.972   1.249  0.7837  1.9486  0.4117
  206SOL    HW2  823   0.479   2.913   1.350  0.6615 -0.0318 -0.8108
  206SOL     MW  824   0.396   2.932   1.325 -0.1817  0.0276 -0.1946
  207SOL     OW  825   0.888   1.747   0.224  0.2920 -0.2115  0.1756
  207SOL    HW1  826   0.970   1.779   0.196 -0.0236 -2.8024  1.6378
  207SOL    HW2  827   0.909   1.666   0.271  2.4148 -1.2306  0.0195
  207SOL     MW  828   0.901   1.741   0.227  0.5304 -0.6878  0.3479
  208SOL     OW  829   0.784   1.557   1.330  0.1705 -0.1049  0.0017
  208SOL    HW1  830   0.875   1.558   1.336 -1.9380  1.6990 -0.9348
  208SOL    HW2  831   0.759   1.545   1.236 -6.1224  1.0612 -0.5623
  208SOL     MW  832   0.792   1.556   1.318 -0.9380  0.2870 -0.1963
  209SOL     OW  833   1.602   0.496   2.837  0.4544 -0.1946 -0.1121
  209SOL    HW1  834   1.645   0.566   2.888 -1.2040  0.1546  3.1247
  209SOL    HW2  835   1.670   0.425   2.837 -0.5322  0.2180 -0.4530
  209SOL     MW  836   1.617   0.496   2.843  0.1054 -0.0941  0.2700
  210SOL     OW  837   1.465   1.448   0.945  0.1219 -0.5666  0.1794
  210SOL    HW1  838   1.556   1.436   0.922  0.4450 -1.7871 -1.5901
  210SOL    HW2  839   1.423   1.464   0.856  1.0112  0.6766 -0.8895
  210SOL     MW  840   1.471   1.448   0.930  0.2818 -0.5636 -0.1951
  211SOL     OW  841   1.732   0.422   0.903  0.0571  0.9235 -0.4536
  211SOL    HW1  842   1.750   0.422   0.802  2.7755 -0.3232  0.1858
  211SOL    HW2  843   1.821   0.429   0.937  1.5498  3.6586 -0.9353
  211SOL     MW  844   1.746   0.423   0.894  0.6127  1.1199 -0.4328
  212SOL     OW  845   0.367   1.148   0.230  0.4546  0.5606 -0.2178
  212SOL    HW1  846   0.287   1.097   0.240  1.6250 -0.4412  0.3355
  212SOL    HW2  847   0.431   1.118   0.167 -2.0431 -0.5729  0.0265
  212SOL     MW  848   0.365   1.138   0.223  0.2795  0.2789 -0.1126
  213SOL     OW  849   0.364   1.856   3.007 -0.0985 -0.6862 -0.0299
  213SOL    HW1  850   0.429   1.889   3.072  1.5009  1.9162  1.5830
  213SOL    HW2  851   0.405   1.888   2.921  0.6381  1.7352 -1.5707
  213SOL     MW  852   0.378   1.864   3.004  0.2097 -0.0234 -0.0204
  214SOL     OW  853   0.595   0.343   2.115  0.3599  0.8283 -0.1388
  214SOL    HW1  854   0.535   0.418   2.119  2.5437 -1.9227 -3.5700
  214SOL    HW2  855   0.650   0.371   2.045  0.0748  1.0942  2.8984
  214SOL     MW  856   0.595   0.357   2.106  0.6104  0.5004 -0.1908
  215SOL     OW  857   0.494   0.535   2.514  0.3892 -0.1606 -0.0444
  215SOL    HW1  858   0.442   0.594   2.455  0.8319  2.9171 -3.2723
  215SOL    HW2  859   0.493   0.442   2.494 -1.1109 -1.8518  0.9680
  215SOL     MW  860   0.487   0.530   2.504  0.2497  0.0223 -0.3367
  216SOL     OW  861   2.893   3.082   2.747 -0.5209  0.1881  0.6304
  216SOL    HW1  862   2.847   3.087   2.830  0.0450  0.6462  1.1597
  216SOL    HW2  863   2.897   3.181   2.724  1.7103 -1.3810 -1.4272
  216SOL     MW  864   2.888   3.096   2.755 -0.1519  0.0415  0.4287
  217SOL     OW  865   1.009   1.084   0.138 -0.3635 -0.0274 -0.7276
  217SOL    HW1  866   1.019   1.005   0.089  1.3876  1.1064 -1.8966
  217SOL    HW2  867   1.054   1.162   0.096 -0.7601 -0.3806  1.6918
  217SOL     MW  868   1.016   1.084   0.126 -0.1848  0.0756 -0.5626
  218SOL     OW  869   0.857   1.339   2.628  0.0717  0.0996 -0.4473
  218SOL    HW1  870   0.834   1.319   2.721 -0.9713 -0.1243 -1.8765
  218SOL    HW2  871   0.932   1.398   2.638  0.2230 -1.7664 -1.3713
  218SOL     MW  872   0.864   1.344   2.642 -0.0460 -0.1762 -0.7578
  219SOL     OW  873   1.050   0.448   2.604  0.0469  0.6573 -0.1149
  219SOL    HW1  874   1.112   0.511   2.642  1.6213  1.3794 -0.6565
  219SOL    HW2  875   0.971   0.504   2.584  1.9314  0.0200  0.1948
  219SOL     MW  876   1.048   0.464   2.606  0.5033  0.6685 -0.1455
  220SOL     OW  877   1.727   0.489   2.193 -0.3618 -0.2989  0.6446
  220SOL    HW1  878   1.641   0.532   2.167  1.1778  2.1735 -0.0887
  220SOL    HW2  879   1.767   0.444   2.118  1.8712  0.1308  0.9580
  220SOL     MW  880   1.721   0.489   2.180  0.1360  0.0840  0.5892
  221SOL     OW  881   0.387   1.373   2.944  0.1767  0.1822  0.2525
  221SOL    HW1  882   0.439   1.297   2.925  0.9938  2.7138 -2.3607
  221SOL    HW2  883   0.417   1.433   2.876  1.6485  1.1771 -1.9821
  221SOL     MW  884   0.398   1.371   2.933  0.4787  0.6475 -0.3871
  222SOL     OW  885   0.515   0.939   2.716  0.2985 -0.0743  0.1735
  222SOL    HW1  886   0.419   0.929   2.703  0.5482 -2.1879 -1.8710
  222SOL    HW2  887   0.546   0.851   2.723 -0.6036 -1.5312  0.8192
  222SOL     MW  888   0.506   0.926   2.715  0.2124 -0.5454 -0.0111
  223SOL     OW  889   3.092   2.034   2.533  0.0890  0.3675  0.3995
  223SOL    HW1  890   3.108   2.017   2.624 -0.5220 -1.3616  0.5746
  223SOL    HW2  891   3.119   2.127   2.517 -1.0378 -0.1317  0.7202
  223SOL     MW  892   3.098   2.044   2.543 -0.1403  0.0735  0.4649
  224SOL     OW  893   1.456   0.697   2.441  0.2712  0.1214  0.0930
  224SOL    HW1  894   1.540   0.664   2.468 -2.3214 -1.2809 -1.4589
  224SOL    HW2  895   1.441   0.791   2.457  1.4696  1.6485 -0.5254
  224SOL     MW  896   1.465   0.705   2.447  0.0872  0.1379 -0.1934
  225SOL     OW  897   2.950   1.476   2.273  0.2820  0.1466 -0.7706
  225SOL    HW1  898   2.988   1.560   2.245  0.8870  1.9081  1.4338
  225SOL    HW2  899   2.883   1.502   2.336  1.8697  2.1115 -1.3325
  225SOL     MW  900   2.946   1.491   2.278  0.5713  0.6382 -0.5539
  226SOL     OW  901   0.428   1.532   2.679  0.1509  0.4914 -0.0451
  226SOL    HW1  902   0.519   1.554   2.651 -1.1736  1.2758 -3.6408
  226SOL    HW2  903   0.379   1.619   2.703 -2.6814  0.8886 -1.7795
  226SOL     MW  904   0.434   1.547   2.678 -0.3975  0.6473 -0.7484
  227SOL     OW  905   0.552   1.122   2.908 -0.3382  0.0061  0.2979
  227SOL    HW1  906   0.636   1.161   2.886 -2.3941 -0.9368  0.8717
  227SOL    HW2  907   0.544   1.056   2.831 -0.6431  2.1241  0.8281
  227SOL     MW  908   0.562   1.118   2.895 -0.6497  0.1612  0.4435
  228SOL     OW  909   0.735   1.129   2.055  0.4221 -0.6797  0.2068
  228SOL    HW1  910   0.705   1.170   1.971 -0.6832 -1.4003  2.5827
  228SOL    HW2  911   0.827   1.158   2.070 -0.3711 -0.4618  0.8625
  228SOL     MW  912   0.744   1.138   2.046  0.1717 -0.7460  0.6068
  229SOL     OW  913   0.221   0.560   3.094 -0.7394  0.2350 -0.2296
  229SOL    HW1  914   0.134   0.555   3.060  1.9019  0.5966  3.1407
  229SOL    HW2  915   0.227   0.489   3.162 -1.1177 -0.0455  1.5287
  229SOL     MW  916   0.210   0.550   3.098 -0.4408  0.2457  0.4470
  230SOL     OW  917   1.770   1.358   2.038 -0.4945  0.4558  0.3889
  230SOL    HW1  918   1.720   1.321   2.107 -1.8612  0.6931 -2.2354
  230SOL    HW2  919   1.715   1.338   1.961 -0.8156 -0.8389 -0.5415
  230SOL     MW  920   1.756   1.350   2.037 -0.7172  0.3163 -0.0801
  231SOL     OW  921   2.719   1.238   2.244  0.5527  0.3850 -0.2243
  231SOL    HW1  922   2.770   1.299   2.293  0.0957  0.0012  2.5622
  231SOL    HW2  923   2.685   1.277   2.165 -2.4781 -0.6313 -2.0948
  231SOL     MW  924   2.721   1.251   2.240  0.0925  0.2003 -0.1034
  232SOL     OW  925   2.294   0.879   1.926 -0.1505  0.3429 -0.0472
  232SOL    HW1  926   2.207   0.894   1.907  2.6891  0.1951 -0.5235
  232SOL    HW2  927   2.286   0.828   2.007  1.7409  0.6680  3.1161
  232SOL     MW  928   2.282   0.874   1.934  0.4737  0.3663  0.3073
  233SOL     OW  929   2.113   0.426   2.075 -0.4650  0.0900 -0.5521
  233SOL    HW1  930   2.178   0.361   2.046  2.4521 -3.0106 -1.4757
  233SOL    HW2  931   2.138   0.465   2.165  0.0284  0.9200  0.7275
  233SOL     MW  932   2.125   0.423   2.083 -0.0150 -0.2096 -0.5051
  234SOL     OW  933   0.233   1.064   2.657  0.0332  0.1226  0.1152
  234SOL    HW1  934   0.172   1.067   2.579 -0.5316  0.2973  0.8296
  234SOL    HW2  935   0.276   1.154   2.651  2.2408 -0.1855  2.6466
  234SOL     MW  936   0.230   1.076   2.646  0.2500  0.1050  0.5435
  235SOL     OW  937   1.154   3.042   2.809  0.0270  0.5200  0.2621
  235SOL    HW1  938   1.196   3.015   2.893 -0.6251  0.2986  1.5498
  235SOL    HW2  939   1.134   3.140   2.814 -5.4644 -1.2394 -0.1206
  235SOL     MW  940   1.157   3.052   2.821 -0.7836  0.2587  0.3815
  236SOL     OW  941   2.960   0.613   0.214  0.5531 -0.4173  0.2060
  236SOL    HW1  942   2.978   0.650   0.301  0.9235  2.5038 -0.0221
  236SOL    HW2  943   3.026   0.665   0.173  1.0367 -0.8166  0.5471
  236SOL     MW  944   2.971   0.625   0.220  0.6658 -0.0845  0.2209
  237SOL     OW  945   1.908   1.093   2.157 -0.4079 -0.7785 -0.7366
  237SOL    HW1  946   1.819   1.135   2.153 -3.0804 -1.1117 -1.5205
  237SOL    HW2  947   1.933   1.070   2.068  1.6955  0.5429  3.3143
  237SOL     MW  948   1.900   1.095   2.145 -0.4830 -0.6481 -0.3056
  238SOL     OW  949   1.065   1.729   2.935  0.4077 -0.3426  0.2147
  238SOL    HW1  950   0.997   1.663   2.950 -0.8303  4.0186 -1.1750
  238SOL    HW2  951   1.153   1.693   2.930 -0.0295 -1.6200 -0.4895
  238SOL     MW  952   1.067   1.716   2.936  0.1867  0.0643 -0.0615
  239SOL     OW  953   1.196   1.308   2.351  0.1166  0.1953  0.3123
  239SOL    HW1  954   1.118   1.271   2.310  1.1918  2.3323 -0.3220
  239SOL    HW2  955   1.196   1.258   2.433  0.9052  3.1381 -0.7165
  239SOL     MW  956   1.186   1.296   2.356  0.3625  0.8656  0.0929
  240SOL     OW  957   0.569   0.875   2.279  0.1748  0.3333  0.0305
  240SOL    HW1  958   0.591   0.929   2.361  0.4160  2.1976  3.6587
  240SOL    HW2  959   0.654   0.851   2.249  0.9313 -1.1043  0.1192
  240SOL     MW  960   0.583   0.879   2.286  0.3064  0.3896  0.5209
  241SOL     OW  961   0.682   0.439   3.092  0.1044 -0.1467  0.3353
  241SOL    HW1  962   0.716   0.512   3.143  0.8445 -0.8567  0.6226
  241SOL    HW2  963   0.598   0.461   3.042  1.2861 -0.7084  0.7292
  241SOL     MW  964   0.676   0.451   3.092  0.3580 -0.3145  0.4252
  242SOL     OW  965   1.493   1.663   2.303  0.1091 -0.3959  0.0406
  242SOL    HW1  966   1.435   1.744   2.313 -2.0677  2.6449  0.8452
  242SOL    HW2  967   1.448   1.601   2.245 -0.1124  1.6776 -1.2854
  242SOL     MW  968   1.479   1.666   2.296 -0.2073  0.2788 -0.0282
  243SOL     OW  969   1.024   0.334   2.363 -0.4695  0.2450 -0.0917
  243SOL    HW1  970   1.114   0.309   2.332 -0.3516 -0.2430  1.6241
  243SOL    HW2  971   1.046   0.371   2.449  2.4078 -0.1373  0.1743
  243SOL     MW  972   1.039   0.336   2.370 -0.0743  0.1302  0.1698
  244SOL     OW  973   0.125   0.747   2.377 -0.2627  0.4005  0.0366
  244SOL    HW1  974   0.115   0.837   2.390 -2.1669 -1.8120 -2.7370
  244SOL    HW2  975   0.213   0.724   2.350 -2.5689  0.4175  1.4776
  244SOL     MW  976   0.136   0.756   2.375 -0.8182  0.1108 -0.1392
  245SOL     OW  977   1.272   0.190   2.395  0.3462 -0.6836  0.1419
  245SOL    HW1  978   1.323   0.129   2.330  4.4968 -0.2750  1.8166
  245SOL    HW2  979   1.288   0.134   2.475  0.6339  1.7470  0.3219
  245SOL     MW  980   1.281   0.174   2.397  0.9318 -0.3090  0.3866
  246SOL     OW  981   1.210   1.129   2.077 -0.1401  0.6117  0.1606
  246SOL    HW1  982   1.140   1.100   2.142 -1.8473 -0.6782  0.9937
  246SOL    HW2  983   1.293   1.101   2.124  1.8167  1.3596  1.7719
  246SOL     MW  984   1.212   1.121   2.092 -0.1072  0.5402  0.4831
  247SOL     OW  985   0.757   0.660   0.159  0.3055  0.3943  0.5306
  247SOL    HW1  986   0.746   0.758   0.143 -1.2395  1.0782 -0.3474
  247SOL    HW2  987   0.856   0.643   0.146  1.0311  0.2523  0.5452
  247SOL     MW  988   0.769   0.671   0.155  0.1974  0.4658  0.4167
  248SOL     OW  989   0.297   1.330   2.559  0.3302  0.7655  0.0396
  248SOL    HW1  990   0.325   1.326   2.467  0.8960  1.3393  2.6562
  248SOL    HW2  991   0.359   1.386   2.601  0.6908 -0.5148 -0.2790
  248SOL     MW  992   0.309   1.336   2.552  0.4524  0.6723  0.3428
  249SOL     OW  993   2.998   1.948   2.790  1.0243 -0.2696  0.1813
  249SOL    HW1  994   2.969   1.898   2.716  1.8749  0.4811 -0.0463
  249SOL    HW2  995   3.050   1.893   2.849 -1.7836 -1.7250  0.6417
  249SOL     MW  996   3.001   1.934   2.788  0.7661 -0.3626  0.2120
  250SOL     OW  997   2.226   0.791   2.182  0.1810 -0.2977 -0.3676
  250SOL    HW1  998   2.189   0.707   2.219 -0.9482 -4.2151  2.8577
  250SOL    HW2  999   2.231   0.846   2.262  3.5317 -2.6474  0.2181
  250SOL     MW 1000   2.222   0.787   2.197  0.4741 -1.1246  0.1352
  251SOL     OW 1001   0.137   0.888   2.041  0.3966 -0.1384 -0.3860
  251SOL    HW1 1002   0.095   0.814   2.088  1.5904  2.0578 -1.1846
  251SOL    HW2 1003   0.127   0.867   1.949 -0.2420  0.8736  1.4358
  251SOL     MW 1004   0.130   0.876   2.035  0.4699  0.2849 -0.2510
  252SOL     OW 1005   1.706   0.989   2.868  0.1859  0.2820  0.3228
  252SOL    HW1 1006   1.717   1.026   2.954  3.4076 -1.8152 -0.0579
  252SOL    HW2 1007   1.790   0.983   2.810 -0.2044  0.0401  0.8791
  252SOL     MW 1008   1.718   0.993   2.872  0.5595 -0.0267  0.3460
  253SOL     OW 1009   1.160   1.717   2.495 -0.4026 -0.1996  0.2563
  253SOL    HW1 1010   1.144   1.678   2.405 -2.3498 -3.3379  0.9133
  253SOL    HW2 1011   1.068   1.748   2.518  1.7510 -2.0944 -0.5919
  253SOL     MW 1012   1.146   1.716   2.486 -0.3753 -0.8637  0.2311
  254SOL     OW 1013   0.967   1.137   2.206  0.2533 -0.3083 -0.1704
  254SOL    HW1 1014   0.971   1.041   2.220  2.2200  0.4065 -0.4158
  254SOL    HW2 1015   0.904   1.179   2.272 -2.6050  1.9492 -0.1208
  254SOL     MW 1016   0.960   1.130   2.216  0.1357  0.0839 -0.1962
  255SOL     OW 1017   0.840   2.560   2.143  0.0795 -0.2451  0.5967
  255SOL    HW1 1018   0.778   2.489   2.136  4.2512 -2.6234  0.2694
  255SOL    HW2 1019   0.910   2.507   2.172 -4.1997  0.8849 -2.3395
  255SOL     MW 1020   0.841   2.544   2.146  0.0653 -0.4098  0.1661
  256SOL     OW 1021   1.290   2.778   3.012  0.3247  0.5742  0.6646
  256SOL    HW1 1022   1.254   2.690   3.005  0.2035 -0.6617  2.2054
  256SOL    HW2 1023   1.356   2.790   2.938  2.1986 -1.2263 -0.2883
  256SOL     MW 1024   1.294   2.768   3.002  0.5559  0.1736  0.7421
  257SOL     OW 1025   0.044   1.885   0.103 -0.0835  0.4695 -0.5293
  257SOL    HW1 1026   0.104   1.830   0.156  1.9007 -2.2169 -1.4892
  257SOL    HW2 1027   0.093   1.891   0.021  0.3973  1.3422  2.1289
  257SOL     MW 1028   0.058   1.878   0.099  0.2418  0.2302 -0.3052
  258SOL     OW 1029   0.669   1.002   2.494 -0.0699  0.2312  0.3707
  258SOL    HW1 1030   0.691   1.086   2.462 -1.8668  0.5452 -2.9118
  258SOL    HW2 1031   0.596   1.014   2.551  0.9981 -1.0000  2.7154
  258SOL     MW 1032   0.663   1.014   2.497 -0.1661  0.1102  0.2470
  259SOL     OW 1033   0.825   0.450   2.235 -0.8438 -0.5438 -0.2820
  259SOL    HW1 1034   0.742   0.400   2.209 -1.8798  0.4384  1.8752
  259SOL    HW2 1035   0.899   0.393   2.258 -1.5291 -1.0248  0.9012
  259SOL     MW 1036   0.824   0.436   2.234 -1.0709 -0.4777  0.1587
  260SOL     OW 1037   0.643   0.143   1.590 -0.1018 -0.3947 -0.1706
  260SOL    HW1 1038   0.584   0.191   1.536 -0.0914 -4.6981  0.6653
  260SOL    HW2 1039   0.724   0.139   1.539 -0.2705 -0.5268 -0.8626
  260SOL     MW 1040   0.646   0.149   1.576 -0.1227 -0.9799 -0.1516
  261SOL     OW 1041   1.050   0.734   1.992 -0.1098  0.0118  0.7660
  261SOL    HW1 1042   1.086   0.681   2.057 -0.9966 -0.1436 -2.7690
  261SOL    HW2 1043   0.995   0.676   1.938 -0.1670 -0.1206  1.4319
  261SOL     MW 1044   1.047   0.719   1.993 -0.2343 -0.0262  0.3874
  262SOL     OW 1045   1.149   0.344   0.107  0.2059 -0.6799  0.0236
  262SOL    HW1 1046   1.246   0.363   0.085  0.1533  1.4147  0.1905
  262SOL    HW2 1047   1.108   0.298   0.033 -0.3421 -0.8209  0.6035
  262SOL     MW 1048   1.156   0.341   0.094  0.1266 -0.4221  0.1222
  263SOL     OW 1049   0.404   0.027   2.534  0.2581 -0.1286 -0.2614
  263SOL    HW1 1050   0.318   0.054   2.557  0.6195  1.1141 -3.4391
  263SOL    HW2 1051   0.415   0.076   2.458  0.3171 -2.6698 -0.2097
  263SOL     MW 1052   0.394   0.037   2.527  0.3136 -0.2999 -0.6739
  264SOL     OW 1053   1.531   1.494   1.891 -0.3293  0.3347 -0.2901
  264SOL    HW1 1054   1.477   1.423   1.927  1.7112  0.7515  1.0192
  264SOL    HW2 1055   1.610   1.505   1.947  2.9218  1.0048 -0.2694
  264SOL     MW 1056   1.534   1.486   1.903  0.3688  0.4781 -0.1146
  265SOL     OW 1057   0.726   2.829   2.296  0.3660 -0.3053 -0.0393
  265SOL    HW1 1058   0.785   2.754   2.294 -2.1780 -0.0584  3.4780
  265SOL    HW2 1059   0.710   2.841   2.393 -0.2471  1.0569  0.0118
  265SOL     MW 1060   0.732   2.821   2.309 -0.0505 -0.0930  0.4315
  266SOL     OW 1061   0.828   0.882   2.144 -0.0454  0.2364 -0.2979
  266SOL    HW1 1062   0.817   0.971   2.110 -1.3004  0.6127 -0.5570
  266SOL    HW2 1063   0.902   0.829   2.097  2.3371 -2.4301 -2.9133
  266SOL     MW 1064   0.836   0.887   2.133  0.1034 -0.0657 -0.6771
  267SOL     OW 1065   1.388   1.686   2.651  0.3695  0.2717 -0.2522
  267SOL    HW1 1066   1.462   1.627   2.620  1.8422 -0.5687 -3.2425
  267SOL    HW2 1067   1.323   1.688   2.584  1.0163  0.7997  1.0747
  267SOL     MW 1068   1.389   1.678   2.638  0.6492  0.2305 -0.4717
  268SOL     OW 1069   0.120   0.902   1.779  0.2268  0.0140 -0.0675
  268SOL    HW1 1070   0.039   0.958   1.782 -1.8882 -3.9403 -0.3425
  268SOL    HW2 1071   0.101   0.830   1.717 -0.6435 -1.4698 -0.6578
  268SOL     MW 1072   0.107   0.900   1.771 -0.1671 -0.7035 -0.1817
  269SOL     OW 1073   1.340   1.879   2.309  0.6258 -0.1994  0.6840
  269SOL    HW1 1074   1.365   1.969   2.313  0.5704 -0.5885 -0.6645
  269SOL    HW2 1075   1.269   1.860   2.365  1.2645 -0.4321 -0.2652
  269SOL     MW 1076   1.334   1.888   2.317  0.7028 -0.2815  0.3808
  270SOL     OW 1077   1.098   0.350   1.527  0.4322  0.1622 -0.1350
  270SOL    HW1 1078   1.065   0.269   1.565  0.1065  0.0906 -0.8516
  270SOL    HW2 1079   1.187   0.356   1.566 -1.1837 -0.0420 -1.5813
  270SOL     MW 1080   1.106   0.340   1.537  0.1760  0.1258 -0.4203
  271SOL     OW 1081   0.900   0.095   2.481 -0.1132 -0.5299  0.2853
  271SOL    HW1 1082   0.940   0.068   2.565 -0.9484 -1.5393  0.5259
  271SOL    HW2 1083   0.953   0.174   2.454 -2.5588 -0.8224 -0.8048
  271SOL     MW 1084   0.912   0.102   2.489 -0.5460 -0.7016  0.1732
  272SOL     OW 1085   1.465   2.780   2.815 -0.2916 -0.4668 -0.6911
  272SOL    HW1 1086   1.420   2.787   2.734 -0.5724  0.7048  0.0856
  272SOL    HW2 1087   1.507   2.872   2.824  0.8374 -0.5629 -1.2157
  272SOL     MW 1088   1.465   2.793   2.806 -0.1797 -0.3249 -0.6579
  273SOL     OW 1089   1.454   0.824   2.807  0.6526  0.0740  0.0395
  273SOL    HW1 1090   1.531   0.781   2.784 -1.1366 -0.2654  2.3284
  273SOL    HW2 1091   1.485   0.916   2.817  1.9265  1.1411 -0.1511
  273SOL     MW 1092   1.468   0.831   2.805  0.5846  0.1700  0.3163
  274SOL     OW 1093   1.443   0.633   0.125 -0.0800 -0.2270 -0.3310
  274SOL    HW1 1094   1.503   0.596   0.189  0.2581 -0.2998 -0.8406
  274SOL    HW2 1095   1.364   0.657   0.180  1.1543 -0.1467  1.9728
  274SOL     MW 1096   1.440   0.631   0.141  0.1275 -0.2260 -0.0943
  275SOL     OW 1097   1.828   0.535   1.740  0.1995  0.8027 -0.1877
  275SOL    HW1 1098   1.884   0.557   1.820  0.5011  0.2797  0.6993
  275SOL    HW2 1099   1.812   0.438   1.742 -1.3858 -0.9622 -0.3958
  275SOL     MW 1100   1.833   0.525   1.751  0.0301  0.5008 -0.0981
  276SOL     OW 1101   0.406   1.208   1.932 -0.8253 -0.0845 -0.2508
  276SOL    HW1 1102   0.413   1.113   1.954 -0.0792 -1.7178  1.5354
  276SOL    HW2 1103   0.361   1.252   2.007 -0.1168  1.0338  2.6955
  276SOL     MW 1104   0.401   1.201   1.945 -0.6334 -0.1525  0.3736
  277SOL     OW 1105   1.993   1.137   2.461  0.5569 -0.3122  0.7853
  277SOL    HW1 1106   2.046   1.216   2.468  0.7022  1.3553 -0.1357
  277SOL    HW2 1107   1.989   1.113   2.367 -1.7469  1.9365 -1.2290
  277SOL     MW 1108   1.999   1.144   2.449  0.2721  0.2045  0.3980
  278SOL     OW 1109   1.409   0.610   1.677  0.5997 -0.3930 -0.3120
  278SOL    HW1 1110   1.417   0.568   1.767  1.8388  0.8302 -3.8247
  278SOL    HW2 1111   1.498   0.637   1.668  0.4506  1.8968  1.6332
  278SOL     MW 1112   1.422   0.608   1.687  0.7435  0.0705 -0.5188
  279SOL     OW 1113   0.514   0.104   2.255  0.0891  0.2225 -0.3614
  279SOL    HW1 1114   0.603   0.075   2.292 -0.2951 -1.2625  1.3159
  279SOL    HW2 1115   0.530   0.191   2.220  1.2649 -0.0598  0.5712
  279SOL     MW 1116   0.528   0.112   2.255  0.1935 -0.0107 -0.0171
  280SOL     OW 1117   1.443   1.045   2.228 -0.6979 -0.6500 -0.2253
  280SOL    HW1 1118   1.487   0.984   2.174 -1.1232 -1.2469 -0.8925
  280SOL    HW2 1119   1.448   1.007   2.316  2.0207  0.7850  0.2180
  280SOL     MW 1120   1.450   1.032   2.233 -0.3953 -0.5394 -0.2549
  281SOL     OW 1121   1.296   1.123   2.738  0.2008 -0.5003  0.4157
  281SOL    HW1 1122   1.379   1.174   2.730 -0.2046  0.6466 -0.4845
  281SOL    HW2 1123   1.277   1.114   2.834  0.3490 -2.8002  1.8708
  281SOL     MW 1124   1.305   1.128   2.750  0.1668 -0.6524  0.4889
  282SOL     OW 1125   1.181   1.277   1.625 -0.0420  0.5833  0.6382
  282SOL    HW1 1126   1.162   1.352   1.574 -0.3590  3.2296 -1.1412
  282SOL    HW2 1127   1.101   1.257   1.684 -3.0282  0.2721 -0.8467
  282SOL     MW 1128   1.168   1.284   1.626 -0.4778  0.8914  0.2075
  283SOL     OW 1129   0.813   1.390   3.096 -0.2642 -0.1371 -0.0404
  283SOL    HW1 1130   0.909   1.367   3.097  0.6324  1.8599 -0.0629
  283SOL    HW2 1131   0.800   1.479   3.067  0.9095  0.3669 -3.0487
  283SOL     MW 1132   0.824   1.398   3.092  0.0090  0.1929 -0.4403
  284SOL     OW 1133   0.378   0.676   2.321 -0.4151 -0.2584  1.0011
  284SOL    HW1 1134   0.446   0.745   2.305  0.2645  2.1296  0.6308
  284SOL    HW2 1135   0.388   0.594   2.264 -2.1210 -0.0012 -3.4728
  284SOL     MW 1136   0.389   0.674   2.311 -0.5505  0.0906  0.3620
  285SOL     OW 1137   0.875   0.826   2.848  0.0899  0.2341 -0.0268
  285SOL    HW1 1138   0.899   0.874   2.768 -1.2864  2.2492  0.4584
  285SOL    HW2 1139   0.796   0.782   2.806 -0.1092 -2.3530 -0.9118
  285SOL     MW 1140   0.868   0.826   2.832 -0.1180  0.1587 -0.0795
  286SOL     OW 1141   1.092   1.478   2.677 -0.4274 -0.1344  0.3598
  286SOL    HW1 1142   1.148   1.403   2.658  0.4272  2.7442  0.9890
  286SOL    HW2 1143   1.140   1.558   2.656  1.4810  2.2906  1.8077
  286SOL     MW 1144   1.105   1.479   2.672 -0.0628  0.5654  0.6338
  287SOL     OW 1145   1.147   0.971   0.346  0.1973 -0.1849 -0.3079
  287SOL    HW1 1146   1.093   0.988   0.425 -3.3645 -1.5303  1.0367
  287SOL    HW2 1147   1.090   1.009   0.272 -0.4910  1.8085 -0.1994
  287SOL     MW 1148   1.132   0.978   0.347 -0.3635 -0.0994 -0.1161
  288SOL     OW 1149   1.495   0.641   2.146 -0.1768  0.5552 -0.1685
  288SOL    HW1 1150   1.421   0.657   2.199  3.3765  2.9082 -3.3509
  288SOL    HW2 1151   1.517   0.731   2.114 -1.0726  2.1656 -1.4414
  288SOL     MW 1152   1.488   0.655   2.149  0.1738  1.0782 -0.7563
  289SOL     OW 1153   0.914   0.948   2.620  0.5484 -0.0354 -0.0932
  289SOL    HW1 1154   0.971   0.898   2.560  3.7939 -1.3673 -1.0808
  289SOL    HW2 1155   0.827   0.951   2.570  4.5486  2.8299  0.6055
  289SOL     MW 1156   0.910   0.942   2.605  1.5044  0.1669 -0.1314
  290SOL     OW 1157   0.765   0.647   1.493 -0.3949 -0.4457  0.7892
  290SOL    HW1 1158   0.829   0.600   1.439 -1.3679  0.6192 -0.2157
  290SOL    HW2 1159   0.791   0.634   1.582  1.4644 -1.5543 -1.4377
  290SOL     MW 1160   0.777   0.639   1.498 -0.2780 -0.4514  0.3628
  291SOL     OW 1161   0.240   0.315   0.165 -0.0174 -0.2361  0.6412
  291SOL    HW1 1162   0.329   0.327   0.203  0.5172 -0.7929  0.0439
  291SOL    HW2 1163   0.228   0.218   0.153 -0.1028 -1.8378 -0.3481
  291SOL     MW 1164   0.250   0.304   0.168  0.0418 -0.5209  0.4319
  292SOL     OW 1165   1.014   0.621   0.103 -0.1352 -0.8618 -0.3071
  292SOL    HW1 1166   1.071   0.686   0.150 -1.2181  1.9205  1.8068
  292SOL    HW2 1167   1.073   0.547   0.092 -1.1718 -0.2747 -0.1933
  292SOL     MW 1168   1.030   0.620   0.108 -0.4148 -0.4172 -0.0132
  293SOL     OW 1169   0.110   0.069   2.583  0.1040  0.3609 -0.4427
  293SOL    HW1 1170   0.097   0.030   2.500  0.3517  1.3004  1.5251
  293SOL    HW2 1171   0.029   0.122   2.605 -0.3002 -0.1700  0.1712
  293SOL     MW 1172   0.098   0.071   2.575  0.0833  0.4148 -0.1020
  294SOL     OW 1173   1.349   0.448   2.358 -0.2260 -0.3497 -0.0628
  294SOL    HW1 1174   1.372   0.536   2.390  1.1004  1.0102  0.7872
  294SOL    HW2 1175   1.311   0.394   2.429 -1.0608 -0.3157  2.3201
  294SOL     MW 1176   1.347   0.453   2.371 -0.1611 -0.1658  0.3638
  295SOL     OW 1177   0.852   0.593   2.508  0.1448  0.1626 -1.0593
  295SOL    HW1 1178   0.801   0.568   2.430  2.1803 -0.9049  0.1779
  295SOL    HW2 1179   0.788   0.636   2.566  0.8678 -1.7013 -0.8427
  295SOL     MW 1180   0.837   0.596   2.506  0.5088 -0.2241 -0.8675
  296SOL     OW 1181   1.322   0.296   2.071  0.6959  0.0327  0.4087
  296SOL    HW1 1182   1.365   0.213   2.043  1.1236  1.3483 -2.2955
  296SOL    HW2 1183   1.347   0.315   2.160 -2.4409 -1.1653  0.7677
  296SOL     MW 1184   1.331   0.287   2.079  0.3385  0.0482  0.0993
  297SOL     OW 1185   1.362   0.341   1.592 -0.0384 -0.5182 -0.8117
  297SOL    HW1 1186   1.378   0.422   1.637 -0.9416 -0.3595  0.2163
  297SOL    HW2 1187   1.419   0.275   1.633 -3.5758 -1.1442  2.5623
  297SOL     MW 1188   1.372   0.343   1.604 -0.6243 -0.5799 -0.2309
  298SOL     OW 1189   1.606   0.867   2.051  0.9485  0.2122  0.0141
  298SOL    HW1 1190   1.646   0.894   1.967 -0.9767 -0.8022  2.7134
  298SOL    HW2 1191   1.684   0.845   2.098 -1.3978 -0.6202 -2.1232
  298SOL     MW 1192   1.621   0.868   2.046  0.3849 -0.0315  0.0882
  299SOL     OW 1193   0.616   1.190   0.086  0.5327 -0.3714 -0.9364
  299SOL    HW1 1194   0.599   1.145  -0.001 -0.8434 -2.9827  2.0868
  299SOL    HW2 1195   0.691   1.251   0.079 -1.0264  3.2503 -0.3016
  299SOL     MW 1196   0.624   1.192   0.074  0.1454 -0.2381 -0.4538
  300SOL     OW 1197   1.107   1.135   2.555 -0.0393 -0.1054 -0.0473
  300SOL    HW1 1198   1.032   1.075   2.573 -1.3398  0.2129 -0.7722
  300SOL    HW2 1199   1.160   1.128   2.639 -1.4425 -0.8130  0.3740
  300SOL     MW 1200   1.104   1.126   2.569 -0.3960 -0.1568 -0.0874
  301SOL     OW 1201   1.494   1.043   0.746  0.7214 -0.7771  0.5200
  301SOL    HW1 1202   1.502   1.079   0.835 -1.6320 -1.1620  1.7068
  301SOL    HW2 1203   1.421   0.976   0.758  0.6539 -2.6719  0.1128
  301SOL     MW 1204   1.485   1.039   0.760  0.4019 -1.0779  0.6229
  302SOL     OW 1205   0.193   1.578   2.041  0.5571 -0.3950  0.2584
  302SOL    HW1 1206   0.185   1.488   2.057  2.6042  1.1175  1.6776
  302SOL    HW2 1207   0.115   1.629   2.064  4.0594  2.3944 -0.5161
  302SOL     MW 1208   0.182   1.573   2.046  1.2893  0.1726  0.3435
  303SOL     OW 1209   0.312   1.769   2.705 -0.6141 -0.2747  0.5037
  303SOL    HW1 1210   0.275   1.775   2.617  0.6671 -0.8177 -1.9858
  303SOL    HW2 1211   0.236   1.785   2.763 -2.2685  1.0803  1.7370
  303SOL     MW 1212   0.297   1.772   2.701 -0.6634 -0.1675  0.3380
  304SOL     OW 1213   0.518   2.055   2.474  0.2735  0.0664 -0.2844
  304SOL    HW1 1214   0.585   2.122   2.442  4.2339  1.5812  2.1278
  304SOL    HW2 1215   0.569   1.975   2.464 -1.4113 -1.7981 -3.5560
  304SOL     MW 1216   0.534   2.053   2.468  0.5737  0.0203 -0.3978
  305SOL     OW 1217   1.153   0.650   0.550  0.3282  0.1299 -0.1201
  305SOL    HW1 1218   1.056   0.655   0.534 -1.5927 -0.8138  1.2508
  305SOL    HW2 1219   1.177   0.558   0.550  0.1506 -3.7266  0.0264
  305SOL     MW 1220   1.143   0.638   0.548  0.0513 -0.5035  0.0801
  306SOL     OW 1221   1.085   1.540   0.308  0.1429  0.4334  0.1080
  306SOL    HW1 1222   1.127   1.454   0.338  0.9109 -1.7031 -2.7326
  306SOL    HW2 1223   1.141   1.556   0.234  0.2306  0.7509  1.0611
  306SOL     MW 1224   1.098   1.531   0.302  0.2558  0.1934 -0.1410
  307SOL     OW 1225   1.445   0.501   1.915  0.4225  0.3180 -0.2466
  307SOL    HW1 1226   1.395   0.432   1.960 -0.4193  1.7818 -0.3781
  307SOL    HW2 1227   1.481   0.552   1.989 -0.0570 -0.5989  0.9287
  307SOL     MW 1228   1.443   0.498   1.931  0.2482  0.3902 -0.1089
  308SOL     OW 1229   2.247   0.530   2.736  0.7860  0.4822  0.4268
  308SOL    HW1 1230   2.335   0.571   2.734  0.2788  2.2116  3.9995
  308SOL    HW2 1231   2.191   0.606   2.745  1.9822 -0.2043 -1.6311
  308SOL     MW 1232   2.251   0.545   2.737  0.8769  0.6198  0.6267
  309SOL     OW 1233   0.515   0.552   0.244 -0.1711 -0.5707  0.3549
  309SOL    HW1 1234   0.592   0.605   0.228  0.6825 -2.0027  1.6741
  309SOL    HW2 1235   0.549   0.470   0.216  0.8601  2.6958 -2.4747
  309SOL     MW 1236   0.530   0.548   0.238  0.0776 -0.3287  0.1556
  310SOL     OW 1237   0.403   0.534   1.869  0.0033 -0.5363 -0.3728
  310SOL    HW1 1238   0.465   0.462   1.846  0.5850 -0.1932 -0.2920
  310SOL    HW2 1239   0.448   0.617   1.844  0.1759  2.5976 -1.4138
  310SOL     MW 1240   0.417   0.535   1.862  0.1028 -0.0775 -0.4995
  311SOL     OW 1241   1.964   0.638   1.958  0.0343  0.1237  0.0525
  311SOL    HW1 1242   1.932   0.693   2.028  3.2029  1.4570 -2.3177
  311SOL    HW2 1243   2.044   0.588   1.993 -0.5833 -1.1464 -0.7180
  311SOL     MW 1244   1.970   0.638   1.972  0.3709  0.1321 -0.3619
  312SOL     OW 1245   1.710   2.456   0.145 -0.4166  0.1189  0.3819
  312SOL    HW1 1246   1.735   2.431   0.233 -0.6335  4.0695  1.8164
  312SOL    HW2 1247   1.650   2.531   0.150  1.4331 -0.7511 -0.0006
  312SOL     MW 1248   1.705   2.463   0.157 -0.2012  0.5253  0.5207
  313SOL     OW 1249   0.139   1.137   3.039 -0.0626  0.5362  0.1400
  313SOL    HW1 1250   0.081   1.166   3.116  0.8405  1.5528  0.5623
  313SOL    HW2 1251   0.157   1.209   2.979  1.5644  2.0800 -1.3326
  313SOL     MW 1252   0.134   1.150   3.041  0.2712  0.8740  0.0014
  314SOL     OW 1253   2.188   2.935   0.035  0.1088 -0.6786 -0.3286
  314SOL    HW1 1254   2.127   2.938  -0.044 -0.2426 -2.2800 -0.1617
  314SOL    HW2 1255   2.240   3.004   0.019 -3.0847 -3.4573  0.9796
  314SOL     MW 1256   2.187   2.944   0.023 -0.3589 -1.2565 -0.1340
  315SOL     OW 1257   1.537   1.852   2.995  0.1090  0.2381  0.8523
  315SOL    HW1 1258   1.476   1.899   3.052 -1.6973  0.4868 -0.7590
  315SOL    HW2 1259   1.566   1.920   2.926 -0.7497 -1.2301 -0.1825
  315SOL     MW 1260   1.532   1.867   2.993 -0.2427  0.0772  0.5032
  316SOL     OW 1261   1.201   0.647   2.694 -0.1457  0.0990 -0.4285
  316SOL    HW1 1262   1.289   0.675   2.705  0.1610  0.5761  0.8704
  316SOL    HW2 1263   1.165   0.627   2.789  0.1222  1.7978 -0.2168
  316SOL     MW 1264   1.208   0.648   2.708 -0.0699  0.3861 -0.2292
  317SOL     OW 1265   0.685   1.590   2.644  0.1933  0.0800 -0.3079
  317SOL    HW1 1266   0.729   1.508   2.651 -0.2050 -2.9814  0.1043
  317SOL    HW2 1267   0.704   1.623   2.554 -1.1596 -2.9281  1.5405
  317SOL     MW 1268   0.694   1.584   2.633 -0.0377 -0.7208 -0.0096
  318SOL     OW 1269   1.363   0.381   2.915  0.3088  0.0814 -0.7677
  318SOL    HW1 1270   1.273   0.401   2.879  0.3497  1.9468 -1.5493
  318SOL    HW2 1271   1.437   0.425   2.866  1.4076 -0.9686 -3.9371
  318SOL     MW 1272   1.361   0.389   2.904  0.4591  0.1890 -1.2890
  319SOL     OW 1273   0.788   0.470   2.832 -0.2478  0.7195  0.1591
  319SOL    HW1 1274   0.775   0.400   2.765  0.0135 -0.2715 -2.0841
  319SOL    HW2 1275   0.753   0.429   2.910  3.0847  3.7963 -1.5209
  319SOL     MW 1276   0.782   0.456   2.833  0.2264  0.9947 -0.3585
  320SOL     OW 1277   1.044   1.323   1.989 -0.1168 -0.1560  0.1268
  320SOL    HW1 1278   1.112   1.261   2.015 -3.5563 -0.5586  3.9598
  320SOL    HW2 1279   1.090   1.403   1.957 -0.7017  0.1992  0.5733
  320SOL     MW 1280   1.059   1.325   1.988 -0.6478 -0.1623  0.6914
  321SOL     OW 1281   1.066   0.872   3.049 -0.3154  0.0037  0.0529
  321SOL    HW1 1282   0.987   0.841   3.000  0.0161 -2.8836 -0.9111
  321SOL    HW2 1283   1.133   0.799   3.047 -2.1699  0.6875 -0.7573
  321SOL     MW 1284   1.065   0.858   3.042 -0.5164 -0.2870 -0.1812
  322SOL     OW 1285   1.253   0.855   1.657 -0.1564  0.4271  0.2227
  322SOL    HW1 1286   1.293   0.772   1.681  2.0220  2.8623 -1.2528
  322SOL    HW2 1287   1.221   0.897   1.738  1.9582 -0.8076  0.6268
  322SOL     MW 1288   1.254   0.849   1.671  0.4100  0.5855  0.0813
  323SOL     OW 1289   1.219   1.530   1.904 -0.6146 -0.3373 -0.2541
  323SOL    HW1 1290   1.246   1.527   1.812 -0.8914  1.5980 -0.2417
  323SOL    HW2 1291   1.191   1.621   1.923  2.6622  0.8611  2.5485
  323SOL     MW 1292   1.219   1.542   1.894 -0.2188  0.0762  0.1173
  324SOL     OW 1293   1.431   0.986   2.522 -0.2641 -0.4194  0.4082
  324SOL    HW1 1294   1.381   1.042   2.576  0.7518 -5.2929 -2.2303
  324SOL    HW2 1295   1.519   1.026   2.540  0.9134 -1.8834  0.8692
  324SOL     MW 1296   1.436   0.999   2.532  0.0253 -1.2556  0.1209
  325SOL     OW 1297   1.043   0.531   2.912  0.3424  0.0464  0.3229
  325SOL    HW1 1298   1.030   0.616   2.946  3.3483 -0.8587 -0.0607
  325SOL    HW2 1299   0.955   0.505   2.875 -1.9578  0.5666 -0.7713
  325SOL     MW 1300   1.030   0.539   2.911  0.4355 -0.0044  0.1279
  326SOL     OW 1301   0.381   1.384   2.308  0.0566 -0.4461  0.6043
  326SOL    HW1 1302   0.460   1.366   2.255  2.4118  2.3006  1.9186
  326SOL    HW2 1303   0.374   1.481   2.307  0.1056  3.2115  2.4061
  326SOL     MW 1304   0.390   1.395   2.301  0.3738  0.3989  1.0155
  327SOL     OW 1305   1.993   0.790   2.420  0.0252 -0.2933  0.2567
  327SOL    HW1 1306   1.936   0.738   2.475  0.0968 -0.6094 -1.8979
  327SOL    HW2 1307   2.009   0.860   2.483 -0.6548 -1.8093  0.2051
  327SOL     MW 1308   1.988   0.792   2.436 -0.0551 -0.5350 -0.0344
  328SOL     OW 1309   0.218   1.318   2.102  0.0818  0.8647  0.3486
  328SOL    HW1 1310   0.133   1.270   2.115 -0.4174  0.1841  0.1160
  328SOL    HW2 1311   0.252   1.335   2.187 -3.6389 -1.3145  1.2550
  328SOL     MW 1312   0.211   1.314   2.115 -0.4750  0.4874  0.4375
  329SOL     OW 1313   0.059   0.107   1.365  0.2230 -0.5034 -0.2632
  329SOL    HW1 1314   0.027   0.133   1.453 -2.7312  1.7853  0.9224
  329SOL    HW2 1315   0.148   0.150   1.349 -1.8744 -2.0913 -2.9795
  329SOL     MW 1316   0.067   0.116   1.375 -0.4435 -0.4109 -0.4651
  330SOL     OW 1317   0.384   0.048   2.017 -0.2067  0.5334 -0.2588
  330SOL    HW1 1318   0.428   0.075   2.101  0.3032  3.5518 -1.3631
  330SOL    HW2 1319   0.341  -0.039   2.031  1.5446 -0.7171 -0.3427
  330SOL     MW 1320   0.384   0.040   2.030  0.0916  0.7666 -0.4155
  331SOL     OW 1321   0.775   1.263   2.379 -0.2906  0.1105 -0.0932
  331SOL    HW1 1322   0.704   1.295   2.332 -0.2632 -2.4810  0.2674
  331SOL    HW2 1323   0.784   1.322   2.455  2.4536  0.1094 -1.4063
  331SOL     MW 1324   0.767   1.275   2.383  0.0751 -0.2316 -0.2188
  332SOL     OW 1325   1.366   1.647   2.931 -0.3449  0.1519  0.0365
  332SOL    HW1 1326   1.371   1.663   2.834 -0.7946  1.1187 -1.9559
  332SOL    HW2 1327   1.415   1.726   2.963 -0.3924 -1.1300 -0.4112
  332SOL     MW 1328   1.373   1.660   2.923 -0.4105  0.1103 -0.2854
  333SOL     OW 1329   1.673   1.350   2.917  0.6474  0.4898  0.0178
  333SOL    HW1 1330   1.769   1.360   2.905 -0.8908  1.6260 -0.9089
  333SOL    HW2 1331   1.672   1.293   2.994 -1.3138 -1.1683  2.8982
  333SOL     MW 1332   1.685   1.344   2.925  0.1857  0.4209  0.2755
  334SOL     OW 1333   1.337   3.093   2.625  0.6009 -0.0721 -0.3958
  334SOL    HW1 1334   1.267   3.059   2.691  0.1815 -0.1349  0.6526
  334SOL    HW2 1335   1.392   3.138   2.689 -2.0534  0.9654 -1.2514
  334SOL     MW 1336   1.335   3.094   2.642  0.1954  0.0565 -0.3703
  335SOL     OW 1337   1.280   0.729   3.004 -0.4023  0.4442  0.0643
  335SOL    HW1 1338   1.334   0.653   3.039  0.2694 -2.7738 -0.7212
  335SOL    HW2 1339   1.343   0.755   2.937 -3.0969 -2.8423  2.5001
  335SOL     MW 1340   1.296   0.722   3.000 -0.6692 -0.4140  0.2821
  336SOL     OW 1341   0.930   1.169   1.718 -0.3358 -0.3586 -0.0350
  336SOL    HW1 1342   0.874   1.228   1.764 -2.6969 -0.0540  2.1295
  336SOL    HW2 1343   0.927   1.091   1.774 -2.2742  1.5081 -0.8676
  336SOL     MW 1344   0.923   1.167   1.732 -0.9031 -0.0721  0.1407
  337SOL     OW 1345   0.492   1.950   2.779 -0.2404  0.2217 -0.0296
  337SOL    HW1 1346   0.435   1.895   2.724  0.0493  1.7719 -1.8837
  337SOL    HW2 1347   0.581   1.905   2.779  0.7245  0.2504 -1.1369
  337SOL     MW 1348   0.496   1.937   2.771 -0.0749  0.4300 -0.4203
  338SOL     OW 1349   1.056   0.785   2.453 -0.3596 -0.0526  0.2495
  338SOL    HW1 1350   0.988   0.714   2.450  0.3249  0.2128  0.3465
  338SOL    HW2 1351   1.120   0.766   2.518 -1.3322  0.3505 -1.7591
  338SOL     MW 1352   1.056   0.773   2.461 -0.3976  0.0356 -0.0027
  339SOL     OW 1353   1.409   1.238   1.907 -0.1869  0.5332  0.4653
  339SOL    HW1 1354   1.422   1.181   1.833 -0.1341  1.0565 -1.2751
  339SOL    HW2 1355   1.327   1.209   1.947 -1.2847  1.3625  1.3599
  339SOL     MW 1356   1.400   1.226   1.902 -0.3248  0.7117  0.3537
  340SOL     OW 1357   1.292   1.488   0.069  0.0052 -0.4726 -0.0003
  340SOL    HW1 1358   1.293   1.542  -0.015  1.8869  1.2487  0.3875
  340SOL    HW2 1359   1.366   1.434   0.065 -1.2304 -0.9302  0.9023
  340SOL     MW 1360   1.302   1.488   0.057  0.0905 -0.3059  0.1700
  341SOL     OW 1361   0.135   1.363   2.788  0.0891 -0.0902  0.4343
  341SOL    HW1 1362   0.216   1.370   2.833 -3.3315 -0.4973 -0.7990
  341SOL    HW2 1363   0.153   1.350   2.694  1.5424  0.4480 -0.6895
  341SOL     MW 1364   0.148   1.362   2.781 -0.1704 -0.0729  0.1233
  342SOL     OW 1365   1.420   0.339   0.075 -0.8255  0.1411 -0.0651
  342SOL    HW1 1366   1.485   0.395   0.125  1.3402 -1.7854 -3.1081
  342SOL    HW2 1367   1.426   0.371  -0.013  1.6783 -0.4122 -0.0404
  342SOL     MW 1368   1.429   0.350   0.070 -0.2094 -0.1861 -0.4634
  343SOL     OW 1369   0.237   0.235   2.143  0.0287 -0.4968 -0.0465
  343SOL    HW1 1370   0.262   0.152   2.106  0.7905 -2.2859  0.1530
  343SOL    HW2 1371   0.142   0.241   2.157 -0.1615 -2.2166 -0.0055
  343SOL     MW 1372   0.228   0.225   2.140  0.1041 -0.9598 -0.0148
  344SOL     OW 1373   1.701   1.983   0.135  0.5993  0.2051  0.9147
  344SOL    HW1 1374   1.720   2.079   0.115 -2.2895 -1.7221  1.0258
  344SOL    HW2 1375   1.625   1.978   0.072 -2.8654 -0.2695 -3.1657
  344SOL     MW 1376   1.693   1.995   0.124 -0.2390 -0.1118  0.3910
  345SOL     OW 1377   0.694   1.647   2.371 -0.2171  0.2027 -0.3773
  345SOL    HW1 1378   0.604   1.663   2.343 -0.1913 -3.0132  2.5143
  345SOL    HW2 1379   0.730   1.592   2.300 -1.0560 -2.3701 -0.8354
  345SOL     MW 1380   0.687   1.642   2.358 -0.3244 -0.5611 -0.0563
  346SOL     OW 1381   1.649   1.115   0.034  0.2077  0.4988  0.0812
  346SOL    HW1 1382   1.740   1.100   0.025 -1.2673  0.5300 -0.0052
  346SOL    HW2 1383   1.633   1.035   0.086  3.8848 -1.7269 -1.7698
  346SOL     MW 1384   1.659   1.102   0.040  0.4982  0.2093 -0.1744
  347SOL     OW 1385   1.162   0.617   2.221  0.1149 -0.1735 -0.4295
  347SOL    HW1 1386   1.198   0.540   2.265  2.3128 -2.0940  0.9205
  347SOL    HW2 1387   1.136   0.668   2.298  0.0569 -0.2173 -0.2309
  347SOL     MW 1388   1.163   0.613   2.237  0.3972 -0.4326 -0.2252
  348SOL     OW 1389   1.336   2.537   1.917  0.0771  0.1848  0.0032
  348SOL    HW1 1390   1.339   2.469   1.992  1.0221  0.4824 -1.5530
  348SOL    HW2 1391   1.346   2.617   1.973 -0.7516 -2.8587 -0.9934
  348SOL     MW 1392   1.338   2.539   1.934  0.0924 -0.1775 -0.3336
  349SOL     OW 1393   1.478   0.151   2.782 -0.1765  0.0528  0.1033
  349SOL    HW1 1394   1.460   0.202   2.858  1.5908  2.1034  0.4412
  349SOL    HW2 1395   1.543   0.088   2.820 -0.1025 -0.2435  0.4268
  349SOL     MW 1396   1.484   0.150   2.797  0.0665  0.2843  0.1906
  350SOL     OW 1397   1.818   0.657   2.638  0.0058 -0.1108  0.2214
  350SOL    HW1 1398   1.766   0.593   2.588  1.9781  1.9406 -1.3905
  350SOL    HW2 1399   1.884   0.594   2.679 -2.0091 -2.0416  4.0848
  350SOL     MW 1400   1.820   0.640   2.637  0.0002 -0.0949  0.5184
  351SOL     OW 1401   0.083   1.149   1.587 -0.3501  0.4132 -0.6439
  351SOL    HW1 1402   0.014   1.130   1.652  0.2423 -0.2742  0.2905
  351SOL    HW2 1403   0.143   1.213   1.622  0.9470 -0.1291 -3.9330
  351SOL     MW 1404   0.082   1.155   1.600 -0.1008  0.2509 -0.9546
  352SOL     OW 1405   0.753   1.814   2.781  0.0385  0.9765 -0.2194
  352SOL    HW1 1406   0.790   1.793   2.869 -2.0181  0.9091 -0.4064
  352SOL    HW2 1407   0.737   1.727   2.749 -3.1007 -0.0448  2.6703
  352SOL     MW 1408   0.756   1.799   2.789 -0.6470  0.8329  0.1372
  353SOL     OW 1409   0.016   2.577   2.641 -0.5123  0.4082 -0.4736
  353SOL    HW1 1410   0.105   2.537   2.638 -1.5168  0.7799 -0.1755
  353SOL    HW2 1411   0.022   2.655   2.585  1.3400  0.3116 -0.1010
  353SOL     MW 1412   0.028   2.582   2.633 -0.4004  0.4445 -0.3851
  354SOL     OW 1413   0.379   2.423   0.864  0.0060 -0.2953 -0.9766
  354SOL    HW1 1414   0.421   2.393   0.940 -0.3815  1.3934 -1.3487
  354SOL    HW2 1415   0.323   2.355   0.848 -0.7839  0.3789 -0.4594
  354SOL     MW 1416   0.377   2.410   0.872 -0.1494  0.0165 -0.9575
  355SOL     OW 1417   0.055   2.203   0.394  0.7183  0.6355  0.1377
  355SOL    HW1 1418  -0.020   2.138   0.393 -1.8197  0.4711  0.4445
  355SOL    HW2 1419   0.059   2.255   0.473  0.2230  2.4921 -0.9428
  355SOL     MW 1420   0.045   2.201   0.404  0.3181  0.8587  0.0356
  356SOL     OW 1421   0.747   2.960   1.061 -0.2398  0.5289 -0.1476
  356SOL    HW1 1422   0.807   2.978   0.986  0.5208  1.6367  0.7055
  356SOL    HW2 1423   0.679   2.901   1.028 -0.4683  0.2405 -2.0296
  356SOL     MW 1424   0.746   2.955   1.047 -0.1696  0.6370 -0.2834
  357SOL     OW 1425   1.841   2.811   0.457  0.1722 -0.4113 -0.4623
  357SOL    HW1 1426   1.833   2.786   0.549 -0.6691  0.8974 -0.7926
  357SOL    HW2 1427   1.904   2.746   0.425 -0.9068  1.4639 -0.0262
  357SOL     MW 1428   1.848   2.799   0.465 -0.0812  0.0088 -0.4483
  358SOL     OW 1429   0.432   0.155   1.073  0.3921 -0.4292  0.1011
  358SOL    HW1 1430   0.529   0.142   1.054  0.2573  1.5308 -0.6072
  358SOL    HW2 1431   0.393   0.197   0.994 -0.8779  0.0289  0.2964
  358SOL     MW 1432   0.440   0.158   1.060  0.2067 -0.1102  0.0334
  359SOL     OW 1433   0.898   2.986   1.849 -0.3443  0.4814 -0.1516
  359SOL    HW1 1434   0.913   2.894   1.868  2.6425 -1.8643  3.6778
  359SOL    HW2 1435   0.923   2.989   1.755 -1.2000 -2.7609  0.0234
  359SOL     MW 1436   0.904   2.974   1.839 -0.0631 -0.2559  0.3767
  360SOL     OW 1437   0.575   2.792   0.915  0.5274  0.2862 -0.2552
  360SOL    HW1 1438   0.582   2.743   0.834 -0.1697 -0.8954  1.7318
  360SOL    HW2 1439   0.559   2.722   0.984  0.7170 -0.1539  1.3614
  360SOL     MW 1440   0.574   2.776   0.913  0.4604  0.0723  0.2203
  361SOL     OW 1441   0.230   2.706   1.356 -0.8670  0.0261  0.0971
  361SOL    HW1 1442   0.171   2.735   1.420  0.9788 -0.5226 -1.6475
  361SOL    HW2 1443   0.310   2.767   1.351  2.9233 -1.9669 -2.3072
  361SOL     MW 1444   0.233   2.718   1.364 -0.1234 -0.3093 -0.4503
  362SOL     OW 1445   1.370   2.423   0.608  0.0290  0.0849 -0.0083
  362SOL    HW1 1446   1.426   2.380   0.672  0.5590 -2.8845  0.6697
  362SOL    HW2 1447   1.408   2.508   0.584  1.8986 -1.0612 -0.4792
  362SOL     MW 1448   1.382   2.429   0.613  0.3456 -0.4581  0.0190
  363SOL     OW 1449   0.318   3.102   0.681 -0.8451  0.2619  0.3076
  363SOL    HW1 1450   0.320   3.023   0.742 -1.9198 -1.9949  0.3409
  363SOL    HW2 1451   0.237   3.088   0.628 -2.2149 -0.7430  1.0742
  363SOL     MW 1452   0.308   3.090   0.682 -1.1676 -0.1685  0.4131
  364SOL     OW 1453   0.801   0.201   0.124  0.0575 -0.1223  0.0997
  364SOL    HW1 1454   0.741   0.146   0.176 -3.0802 -1.3049 -0.9669
  364SOL    HW2 1455   0.741   0.248   0.072  1.4693 -3.6978 -0.3269
  364SOL     MW 1456   0.785   0.200   0.124 -0.1702 -0.7501 -0.0973
  365SOL     OW 1457   0.878   2.004   1.220 -0.2820  0.4591  0.5823
  365SOL    HW1 1458   0.856   2.088   1.184  2.3834 -0.8844  2.9427
  365SOL    HW2 1459   0.866   1.942   1.141  1.0602  3.1886 -0.2333
  365SOL     MW 1460   0.874   2.007   1.205  0.2467  0.6420  0.7861
  366SOL     OW 1461   2.936   2.646   0.947 -0.1899  0.2452 -0.5061
  366SOL    HW1 1462   2.988   2.641   1.032  0.5554  1.3423 -1.8135
  366SOL    HW2 1463   2.998   2.671   0.879 -0.8995 -1.0366  1.7960
  366SOL     MW 1464   2.951   2.648   0.949 -0.1852  0.2208 -0.3748
  367SOL     OW 1465   1.211   2.987   0.995  1.0199  0.5088  0.3553
  367SOL    HW1 1466   1.283   3.035   0.958 -1.3673  0.1777  3.0145
  367SOL    HW2 1467   1.164   2.938   0.927 -2.4407 -0.6898 -1.1885
  367SOL     MW 1468   1.215   2.987   0.981  0.2483  0.3070  0.5025
  368SOL     OW 1469   1.722   0.431   0.639 -0.3098  0.6677 -0.1398
  368SOL    HW1 1470   1.776   0.366   0.597  0.4127  0.8988  2.8247
  368SOL    HW2 1471   1.746   0.519   0.605 -0.3381 -0.0358 -2.9419
  368SOL     MW 1472   1.732   0.434   0.629 -0.2182  0.6054 -0.1184
  369SOL     OW 1473   0.152   2.397   1.757 -0.3344  0.0484 -0.9448
  369SOL    HW1 1474   0.249   2.407   1.759  3.2064  0.8626  0.5929
  369SOL    HW2 1475   0.113   2.490   1.741  0.5367  0.5202 -1.4048
  369SOL     MW 1476   0.160   2.411   1.755  0.2477  0.2181 -0.8026
  370SOL     OW 1477   0.715   0.131   1.047 -1.0204 -0.9378 -0.2447
  370SOL    HW1 1478   0.772   0.175   0.979 -1.0171 -2.4154 -1.8095
  370SOL    HW2 1479   0.758   0.041   1.071 -0.0833 -0.9252  0.9328
  370SOL     MW 1480   0.728   0.125   1.041 -0.8964 -1.1311 -0.2958
  371SOL     OW 1481   1.172   2.886   1.471 -0.4783  0.5308  0.0094
  371SOL    HW1 1482   1.187   2.792   1.462 -1.7451 -0.4691 -2.2481
  371SOL    HW2 1483   1.147   2.920   1.384 -0.2836  1.1614  0.6279
  371SOL     MW 1484   1.171   2.878   1.459 -0.6197  0.4821 -0.2068
  372SOL     OW 1485   0.807   2.333   0.491  0.4757  0.4432 -0.5170
  372SOL    HW1 1486   0.760   2.253   0.518 -3.2022  2.0612  0.3082
  372SOL    HW2 1487   0.850   2.311   0.409  0.2597  1.2609 -0.6890
  372SOL     MW 1488   0.806   2.320   0.484 -0.0380  0.7645 -0.4309
  373SOL     OW 1489   2.858   3.003   1.413  0.0140  0.2678 -0.0266
  373SOL    HW1 1490   2.921   2.961   1.351  1.1807  1.0011 -2.1770
  373SOL    HW2 1491   2.827   3.078   1.371  3.5095 -0.6938  0.4492
  373SOL     MW 1492   2.862   3.008   1.399  0.6292  0.2377 -0.2476
  374SOL     OW 1493   1.597   0.461   0.285 -0.0844  0.7182 -0.2261
  374SOL    HW1 1494   1.672   0.401   0.268  3.0343 -0.6302 -0.3459
  374SOL    HW2 1495   1.563   0.426   0.367  2.3239 -0.5491  0.9221
  374SOL     MW 1496   1.602   0.449   0.294  0.6448  0.3731 -0.0904
  375SOL     OW 1497   1.036   2.118   2.272  0.5973 -0.8368 -0.0934
  375SOL    HW1 1498   1.078   2.098   2.353 -1.2629  1.9310 -1.0798
  375SOL    HW2 1499   0.978   2.046   2.250 -0.0998  0.4609  0.8155
  375SOL     MW 1500   1.034   2.106   2.280  0.2599 -0.3004 -0.1037
  376SOL     OW 1501   0.784   2.502   0.121  0.5812  0.5059  0.2511
  376SOL    HW1 1502   0.723   2.453   0.170 -0.2473  1.4360  0.1850
  376SOL    HW2 1503   0.785   2.471   0.031  1.8978 -0.7008 -0.3986
  376SOL     MW 1504   0.776   2.492   0.116  0.6456  0.4694  0.1567
  377SOL     OW 1505   1.350   2.055   0.931  0.5357  0.3575 -0.1214
  377SOL    HW1 1506   1.269   2.053   0.887  0.1948 -1.7913 -0.3488
  377SOL    HW2 1507   1.330   2.012   1.017  1.9800  0.2844 -0.9634
  377SOL     MW 1508   1.337   2.049   0.937  0.6813  0.0644 -0.2625
  378SOL     OW 1509   0.885   2.850   1.530  0.0766 -0.0494  0.5344
  378SOL    HW1 1510   0.916   2.770   1.569 -5.4925 -0.5025 -0.6604
  378SOL    HW2 1511   0.969   2.895   1.516  0.3439  1.8614 -3.6136
  378SOL     MW 1512   0.900   2.845   1.533 -0.6229  0.1429 -0.1705
  379SOL     OW 1513   1.092   1.610   2.239 -0.3794 -0.5832  0.5131
  379SOL    HW1 1514   1.010   1.563   2.233 -1.7708  2.9531  1.9303
  379SOL    HW2 1515   1.152   1.541   2.266 -0.1477 -1.2080  1.1372
  379SOL     MW 1516   1.089   1.595   2.242 -0.5324 -0.1991  0.7825
  380SOL     OW 1517   0.887   0.104   1.445  0.3671 -0.2070  0.3694
  380SOL    HW1 1518   0.920   0.035   1.393  0.5940  1.0233  3.5724
  380SOL    HW2 1519   0.948   0.109   1.524 -1.2680  1.1871  1.1251
  380SOL     MW 1520   0.900   0.095   1.449  0.1813  0.1393  0.8917
  381SOL     OW 1521   0.810   2.051   0.851  0.0678  0.5850  0.7906
  381SOL    HW1 1522   0.905   2.043   0.849  2.0882 -0.4053 -1.5715
  381SOL    HW2 1523   0.798   2.125   0.912  0.8394 -1.1282 -1.0929
  381SOL     MW 1524   0.821   2.060   0.859  0.4362  0.2283  0.2304
  382SOL     OW 1525   0.837   0.153   0.604  0.0738 -0.0918 -0.9504
  382SOL    HW1 1526   0.820   0.199   0.688 -0.0828 -0.4426  1.8711
  382SOL    HW2 1527   0.794   0.064   0.623  3.1782 -1.1184 -0.0221
  382SOL     MW 1528   0.829   0.147   0.617  0.4627 -0.2735 -0.4556
  383SOL     OW 1529   0.624   0.035   0.330  0.5702 -0.9044 -0.1166
  383SOL    HW1 1530   0.632  -0.032   0.266  0.5209  0.6760  0.1490
  383SOL    HW2 1531   0.554  -0.009   0.378  0.6170 -0.3960 -1.4880
  383SOL     MW 1532   0.616   0.021   0.328  0.5699 -0.6288 -0.2625
  384SOL     OW 1533   0.748   2.982   0.634  0.2361  0.4638 -0.2098
  384SOL    HW1 1534   0.804   2.959   0.711 -2.1112 -1.4349 -4.1089
  384SOL    HW2 1535   0.678   2.917   0.647  2.1306 -2.9696 -0.9020
  384SOL     MW 1536   0.746   2.971   0.646  0.1763 -0.2398 -0.8156
  385SOL     OW 1537   1.351   2.084   1.529 -0.4337  0.0191  0.0723
  385SOL    HW1 1538   1.424   2.118   1.578 -1.4147  0.9021 -1.8630
  385SOL    HW2 1539   1.328   2.004   1.578 -3.3980  1.8833 -1.2900
  385SOL     MW 1540   1.357   2.078   1.542 -0.9542  0.3816 -0.3628
  386SOL     OW 1541   1.459   0.433   0.905  0.5694  0.8616 -0.1475
  386SOL    HW1 1542   1.405   0.485   0.964  0.4642  0.0932  0.5673
  386SOL    HW2 1543   1.550   0.419   0.937 -1.1266 -1.3914  0.3873
  386SOL     MW 1544   1.464   0.438   0.917  0.3317  0.4629  0.0174
  387SOL     OW 1545   0.794   2.213   1.590 -0.0346  0.3645  0.3073
  387SOL    HW1 1546   0.865   2.234   1.530 -1.9991  0.0328  3.2534
  387SOL    HW2 1547   0.783   2.115   1.582 -0.1661  0.5391  1.5707
  387SOL     MW 1548   0.802   2.203   1.581 -0.3111  0.3438  0.8627
  388SOL     OW 1549   1.477   2.749   1.392 -0.0302 -0.2657  0.9829
  388SOL    HW1 1550   1.413   2.825   1.381 -0.0485  0.8202  2.8686
  388SOL    HW2 1551   1.464   2.686   1.318  2.4955  0.7000  0.1645
  388SOL     MW 1552   1.467   2.751   1.381  0.3007  0.0050  1.1237
  389SOL     OW 1553   0.508   0.139   3.067 -0.5241 -0.1659  0.0460
  389SOL    HW1 1554   0.593   0.093   3.051  0.4423  0.5717 -2.0163
  389SOL    HW2 1555   0.484   0.172   2.979 -2.7797  1.6789 -2.4375
  389SOL     MW 1556   0.516   0.137   3.053 -0.6942  0.1749 -0.5538
  390SOL     OW 1557   1.370   0.032   0.753 -0.1203 -0.1194  0.0631
  390SOL    HW1 1558   1.367   0.014   0.657 -0.7453 -0.1580 -1.4845
  390SOL    HW2 1559   1.453   0.068   0.777  0.6187  0.5596  1.5776
  390SOL     MW 1560   1.380   0.034   0.744 -0.1052 -0.0349  0.0588
  391SOL     OW 1561   0.343   2.184   1.505 -0.3122  0.2665 -0.1212
  391SOL    HW1 1562   0.378   2.168   1.596  1.0150 -0.8444 -0.6848
  391SOL    HW2 1563   0.293   2.267   1.498 -2.8207 -0.2068  1.2704
  391SOL     MW 1564   0.341   2.193   1.516 -0.4681  0.0575 -0.0120
  392SOL     OW 1565   1.958   2.225   0.318 -0.1534 -0.4766 -0.1692
  392SOL    HW1 1566   2.035   2.266   0.359 -0.4704 -1.0122 -0.8258
  392SOL    HW2 1567   1.886   2.283   0.340  1.0444 -0.7711 -1.0776
  392SOL     MW 1568   1.959   2.238   0.326 -0.0372 -0.5861 -0.3757
  393SOL     OW 1569   0.252   2.973   2.866 -0.1595 -0.3016 -0.1089
  393SOL    HW1 1570   0.322   2.935   2.815 -1.0523 -2.8165 -0.9299
  393SOL    HW2 1571   0.269   3.069   2.851  0.5296 -0.3136  0.5620
  393SOL     MW 1572   0.263   2.981   2.857 -0.1864 -0.6350 -0.1287
  394SOL     OW 1573   1.050   1.777   1.503 -0.1082  0.2973  0.1215
  394SOL    HW1 1574   1.040   1.785   1.602 -1.4299  1.6163  1.4286
  394SOL    HW2 1575   0.970   1.819   1.478  0.4507  0.7718  0.0715
  394SOL     MW 1576   1.038   1.784   1.513 -0.2088  0.5339  0.2874
  395SOL     OW 1577   0.914   2.949   2.698  0.0124 -0.3423  1.0412
  395SOL    HW1 1578   0.973   3.008   2.760  1.7253  1.7058  0.3300
  395SOL    HW2 1579   0.986   2.894   2.659  1.5663  1.4488  0.1447
  395SOL     MW 1580   0.932   2.949   2.701  0.4434  0.1642  0.8291
  396SOL     OW 1581   0.755   1.900   2.365  0.4097  0.6444 -0.6428
  396SOL    HW1 1582   0.816   1.888   2.440  2.8600 -3.1909  0.8884
  396SOL    HW2 1583   0.736   1.806   2.356 -0.5139  0.3981 -0.6543
  396SOL     MW 1584   0.761   1.886   2.374  0.6111  0.1059 -0.4423
  397SOL     OW 1585   0.973   2.306   1.384  0.1815  0.2675  0.3048
  397SOL    HW1 1586   0.993   2.340   1.299  1.8309  1.1180  1.7467
  397SOL    HW2 1587   1.062   2.299   1.416  4.4228  1.4378 -1.4182
  397SOL     MW 1588   0.988   2.310   1.377  0.9587  0.5341  0.2677
  398SOL     OW 1589   0.629   2.716   0.641  0.1624 -0.1836  0.3880
  398SOL    HW1 1590   0.569   2.701   0.568 -0.7284  3.9449  3.1649
  398SOL    HW2 1591   0.705   2.657   0.621  0.8374 -0.4075  0.8445
  398SOL     MW 1592   0.631   2.706   0.629  0.1340  0.3316  0.8146
  399SOL     OW 1593   0.319   2.096   0.344  0.5872 -0.0580  0.5645
  399SOL    HW1 1594   0.230   2.138   0.346  1.3681  0.4013  2.0658
  399SOL    HW2 1595   0.358   2.129   0.265  1.7805  1.8814 -0.2297
  399SOL     MW 1596   0.313   2.106   0.334  0.8477  0.2585  0.6578
  400SOL     OW 1597   0.607   1.903   0.076 -0.1646  0.2141 -0.3092
  400SOL    HW1 1598   0.569   1.995   0.093  0.5502 -1.9055 -0.2783
  400SOL    HW2 1599   0.611   1.870   0.165 -2.1174  2.1467 -0.6586
  400SOL     MW 1600   0.602   1.911   0.090 -0.3280  0.1895 -0.3512
  401SOL     OW 1601   0.825   2.077   0.033  0.3275  0.2192 -0.7527
  401SOL    HW1 1602   0.910   2.023   0.038  0.4873  0.7866  0.8295
  401SOL    HW2 1603   0.756   2.012   0.057 -0.0564 -0.1317  2.5858
  401SOL     MW 1604   0.827   2.061   0.037  0.2980  0.2477 -0.1035
  402SOL     OW 1605   0.556   3.012   1.750  0.4317  0.2196  0.5998
  402SOL    HW1 1606   0.637   2.990   1.798 -0.6752  0.0269  1.1585
  402SOL    HW2 1607   0.571   3.102   1.730 -0.9986  1.3127  0.1202
  402SOL     MW 1608   0.569   3.021   1.754  0.0969  0.3384  0.6102
  403SOL     OW 1609   0.142   0.523   0.397  0.3644  0.1976 -0.3755
  403SOL    HW1 1610   0.234   0.540   0.429  2.9100 -0.3441  2.0792
  403SOL    HW2 1611   0.158   0.508   0.304  0.3379 -0.4438  2.7939
  403SOL     MW 1612   0.156   0.523   0.389  0.6968  0.0415  0.3665
  404SOL     OW 1613   0.941   2.937   0.850 -0.4769  0.6420 -0.2587
  404SOL    HW1 1614   0.998   2.868   0.829  0.6434  1.1368  0.8539
  404SOL    HW2 1615   0.976   3.020   0.826 -0.2896  1.8321  3.8851
  404SOL     MW 1616   0.953   2.939   0.844 -0.3044  0.8643  0.4348
  405SOL     OW 1617   0.506   2.464   1.512  0.0590  0.0610  0.4636
  405SOL    HW1 1618   0.515   2.518   1.437  2.9454  0.2366  0.4766
  405SOL    HW2 1619   0.538   2.378   1.484  2.5620 -1.2255 -3.4899
  405SOL     MW 1620   0.511   2.460   1.499  0.7701 -0.0855 -0.0563
  406SOL     OW 1621   0.410   2.358   1.126  0.2031 -0.0778 -0.0024
  406SOL    HW1 1622   0.312   2.373   1.126 -0.7621  0.7728 -5.0521
  406SOL    HW2 1623   0.419   2.267   1.159 -0.8836  0.6787 -1.4870
  406SOL     MW 1624   0.398   2.348   1.130 -0.0676  0.1342 -0.8645
  407SOL     OW 1625   0.048   2.654   1.171  0.0586 -0.3913  0.0982
  407SOL    HW1 1626   0.109   2.662   1.243  3.5679  2.6987 -1.8894
  407SOL    HW2 1627   0.103   2.645   1.093  0.2741 -1.5202  1.3994
  407SOL     MW 1628   0.064   2.654   1.170  0.5500 -0.1326  0.0076
  408SOL     OW 1629   2.124   2.119   0.759  0.2298  0.4164 -0.1618
  408SOL    HW1 1630   2.072   2.187   0.817  1.0714  0.5677  2.4173
  408SOL    HW2 1631   2.057   2.086   0.687 -1.5594 -3.0330 -0.5848
  408SOL     MW 1632   2.109   2.124   0.757  0.1048 -0.0188  0.1227
  409SOL     OW 1633   1.623   0.132   0.832  0.0071 -0.3997 -0.3272
  409SOL    HW1 1634   1.669   0.215   0.836  3.8437 -0.8995 -1.5335
  409SOL    HW2 1635   1.591   0.116   0.920  1.2166 -3.7231 -0.7279
  409SOL     MW 1636   1.625   0.141   0.844  0.6729 -0.9042 -0.5392
  410SOL     OW 1637   1.085   2.412   1.148  0.0516  0.1473 -0.3102
  410SOL    HW1 1638   1.022   2.460   1.098 -0.6515 -0.8734 -0.8017
  410SOL    HW2 1639   1.146   2.376   1.085  0.5763  1.2772  2.2618
  410SOL     MW 1640   1.085   2.413   1.134  0.0280  0.1617 -0.0357
  411SOL     OW 1641   2.010   2.949   2.906  0.0725  0.1608  0.0021
  411SOL    HW1 1642   2.003   2.915   2.816 -2.2288 -0.4537 -0.4012
  411SOL    HW2 1643   1.977   3.039   2.902 -1.1603 -1.0010  0.1209
  411SOL     MW 1644   2.005   2.956   2.894 -0.3938 -0.0736 -0.0355
  412SOL     OW 1645   1.043   2.224   0.598  0.5602  0.3217 -0.3869
  412SOL    HW1 1646   1.075   2.313   0.622  2.1818  0.5693  2.0553
  412SOL    HW2 1647   0.947   2.237   0.585 -1.5621 -1.8655  0.7206
  412SOL     MW 1648   1.035   2.237   0.600  0.4941  0.0658  0.0815
  413SOL     OW 1649   0.599   2.715   0.086  0.5536 -0.3151 -1.0123
  413SOL    HW1 1650   0.653   2.633   0.116 -1.9613 -1.2964  0.4660
  413SOL    HW2 1651   0.614   2.729  -0.005  0.8871 -0.4877  0.4316
  413SOL     MW 1652   0.608   2.706   0.078  0.2658 -0.4673 -0.6267
  414SOL     OW 1653   1.996   3.034   1.076  0.3193 -0.1986 -0.5100
  414SOL    HW1 1654   1.994   3.118   1.119  1.3202 -1.2671 -0.7506
  414SOL    HW2 1655   1.983   3.062   0.983 -2.1649  1.0500 -1.6778
  414SOL     MW 1656   1.994   3.049   1.070  0.1236 -0.1749 -0.6958
  415SOL     OW 1657   1.617   2.822   1.117 -0.4912 -0.0989 -0.2525
  415SOL    HW1 1658   1.656   2.814   1.204  0.3094  2.4467  0.1038
  415SOL    HW2 1659   1.690   2.811   1.054 -1.3116 -2.7792  0.1562
  415SOL     MW 1660   1.632   2.819   1.120 -0.4938 -0.1167 -0.1515
  416SOL     OW 1661   0.617   1.700   1.493  0.8006 -0.1736 -1.0994
  416SOL    HW1 1662   0.526   1.712   1.469 -3.0826  2.6031  2.5024
  416SOL    HW2 1663   0.656   1.635   1.436 -0.4049 -0.3375  0.2757
  416SOL     MW 1664   0.610   1.693   1.483  0.1292  0.1711 -0.4427
  417SOL     OW 1665   0.982   0.012   2.093 -0.7311  0.1557  0.6578
  417SOL    HW1 1666   0.900   0.027   2.142 -2.0252  0.0173 -2.1027
  417SOL    HW2 1667   0.958  -0.028   2.009  1.1197  1.2716  1.8883
  417SOL     MW 1668   0.968   0.009   2.089 -0.6576  0.2847  0.4560
  418SOL     OW 1669   0.745   2.946   0.139 -0.5555 -0.7185  0.4096
  418SOL    HW1 1670   0.822   2.909   0.093 -0.8889 -0.2062 -0.2394
  418SOL    HW2 1671   0.681   2.872   0.122 -1.2156 -0.5514  0.4423
  418SOL     MW 1672   0.747   2.932   0.131 -0.6866 -0.6289  0.3283
  419SOL     OW 1673   0.594   2.677   1.352  0.4344 -0.3011 -0.3967
  419SOL    HW1 1674   0.593   2.767   1.395 -0.5824  0.6048  1.2291
  419SOL    HW2 1675   0.662   2.630   1.401  1.0489 -0.2739  2.1868
  419SOL     MW 1676   0.603   2.683   1.364  0.3813 -0.1780  0.1587
  420SOL     OW 1677   0.795   2.245   1.032  0.0105 -0.4832  0.0498
  420SOL    HW1 1678   0.737   2.266   1.103  2.0179 -1.2762  2.3947
  420SOL    HW2 1679   0.821   2.335   1.000 -1.6923 -1.6745  1.1447
  420SOL     MW 1680   0.791   2.260   1.037  0.0507 -0.7450  0.5037
  421SOL     OW 1681   2.896   0.174   0.044  0.0420  0.5522  0.5329
  421SOL    HW1 1682   2.820   0.121   0.019  2.3883 -1.9125  0.0324
  421SOL    HW2 1683   2.965   0.110   0.062  0.6999  3.2494  1.9552
  421SOL     MW 1684   2.895   0.159   0.043  0.4384  0.5829  0.6545
  422SOL     OW 1685   0.874   2.500   0.980  0.2891 -0.0777 -0.2847
  422SOL    HW1 1686   0.791   2.550   0.995  2.6490  0.2677 -1.0406
  422SOL    HW2 1687   0.904   2.532   0.895  1.5709  0.2932  2.5769
  422SOL     MW 1688   0.867   2.511   0.971  0.7696  0.0168 -0.0069
  423SOL     OW 1689   1.470   0.066   0.472  0.1530 -0.2217  0.3058
  423SOL    HW1 1690   1.516   0.048   0.386  2.4283  1.4454 -1.2329
  423SOL    HW2 1691   1.468   0.161   0.491  0.2784 -2.1911 -1.2113
  423SOL     MW 1692   1.476   0.076   0.463  0.4698 -0.2616 -0.0974
  424SOL     OW 1693   0.645   2.266   1.368  0.0434 -0.1029 -0.3798
  424SOL    HW1 1694   0.572   2.216   1.337  3.5523  0.2283 -3.2325
  424SOL    HW2 1695   0.680   2.230   1.450 -2.6280  2.1681 -0.1328
  424SOL     MW 1696   0.640   2.255   1.375  0.1539  0.2405 -0.7236
  425SOL     OW 1697   1.685   2.795   2.032  0.3477 -0.2327  0.0808
  425SOL    HW1 1698   1.709   2.822   1.941 -0.2033  0.7067 -2.0960
  425SOL    HW2 1699   1.748   2.726   2.056 -0.3798 -1.1615 -1.8851
  425SOL     MW 1700   1.696   2.789   2.023  0.1790 -0.2313 -0.4658
  426SOL     OW 1701   0.876   1.714   1.959  0.1983 -0.0333  0.3068
  426SOL    HW1 1702   0.798   1.705   1.902 -1.8070 -0.1515  0.0920
  426SOL    HW2 1703   0.865   1.787   2.017 -0.1404 -2.3801  0.0116
  426SOL     MW 1704   0.864   1.722   1.959 -0.1110 -0.3585  0.2395
  427SOL     OW 1705   0.394   1.725   1.890  0.3362  0.1818  0.2056
  427SOL    HW1 1706   0.439   1.658   1.845 -1.1922  2.5743  4.0768
  427SOL    HW2 1707   0.324   1.678   1.929 -0.7972 -1.5421 -0.3894
  427SOL     MW 1708   0.391   1.710   1.889 -0.0150  0.2700  0.6379
  428SOL     OW 1709   0.584   2.582   1.090  0.3556 -0.4313  0.5959
  428SOL    HW1 1710   0.516   2.515   1.087  0.4819 -2.6997 -1.7583
  428SOL    HW2 1711   0.582   2.613   1.184 -1.1179  1.3727 -2.5673
  428SOL     MW 1712   0.575   2.578   1.102  0.1778 -0.4926 -0.1321
  429SOL     OW 1713   1.158   2.716   1.098 -0.4379  0.3890 -0.2581
  429SOL    HW1 1714   1.070   2.722   1.135 -0.8320 -3.7879 -1.6396
  429SOL    HW2 1715   1.177   2.809   1.090 -0.6352  0.4544  0.2393
  429SOL     MW 1716   1.149   2.729   1.102 -0.5160 -0.1535 -0.3747
  430SOL     OW 1717   1.163   2.773   0.762 -0.0417  0.1015  0.6886
  430SOL    HW1 1718   1.166   2.677   0.781  1.1827 -2.1963  0.7392
  430SOL    HW2 1719   1.122   2.763   0.672 -0.5303  3.2951  2.3003
  430SOL     MW 1720   1.158   2.759   0.753  0.0554  0.2197  0.9079
  431SOL     OW 1721   0.306   1.928   1.115 -0.5064 -0.2929 -0.1339
  431SOL    HW1 1722   0.373   1.860   1.112  2.4234 -3.1390 -2.8341
  431SOL    HW2 1723   0.278   1.936   1.020  1.8283  1.0223 -1.5848
  431SOL     MW 1724   0.311   1.920   1.102  0.1882 -0.4949 -0.6816
  432SOL     OW 1725   0.058   3.087   1.122 -0.5272 -0.0834 -0.2096
  432SOL    HW1 1726   0.069   3.111   1.216  3.5006 -1.2849  2.2104
  432SOL    HW2 1727  -0.006   3.020   1.141  4.2876 -2.3417 -2.0055
  432SOL     MW 1728   0.051   3.081   1.137  0.6395 -0.5398 -0.1273
  433SOL     OW 1729   0.628   2.922   1.463 -0.1497  0.6003 -0.0248
  433SOL    HW1 1730   0.602   2.972   1.544 -1.2830 -2.1159  2.8627
  433SOL    HW2 1731   0.734   2.907   1.468  2.1652 -1.0440  0.2314
  433SOL     MW 1732   0.639   2.927   1.474  0.0062  0.0250  0.3900
  434SOL     OW 1733   1.526   2.834   1.629 -0.2013 -0.2341  0.5764
  434SOL    HW1 1734   1.441   2.878   1.642 -1.9209 -2.1228 -0.5670
  434SOL    HW2 1735   1.512   2.796   1.539  0.4316 -0.2398 -0.6539
  434SOL     MW 1736   1.513   2.835   1.619 -0.3447 -0.4841  0.2632
  435SOL     OW 1737   2.747   1.747   0.207 -0.3432 -0.6797  0.0961
  435SOL    HW1 1738   2.782   1.808   0.142  0.1531  1.9158 -1.8441
  435SOL    HW2 1739   2.658   1.771   0.202  0.4505 -2.1148 -0.3634
  435SOL     MW 1740   2.740   1.758   0.198 -0.1730 -0.5266 -0.2205
  436SOL     OW 1741   1.329   2.715   0.317 -0.4302  0.4356 -0.0582
  436SOL    HW1 1742   1.389   2.714   0.388 -1.1228 -2.1997  0.9724
  436SOL    HW2 1743   1.269   2.784   0.341 -0.5715  0.0143 -0.9982
  436SOL     MW 1744   1.329   2.724   0.329 -0.5402  0.0323 -0.0462
  437SOL     OW 1745   1.019   3.035   1.280 -0.9484  0.8941 -0.1454
  437SOL    HW1 1746   1.018   3.087   1.200 -1.8838  0.8559  1.0557
  437SOL    HW2 1747   0.964   2.960   1.270 -2.0928  1.4492 -0.8977
  437SOL     MW 1748   1.012   3.032   1.268 -1.2228  0.9623 -0.0862
  438SOL     OW 1749   0.907   2.712   1.915  0.0328  0.1022  0.4136
  438SOL    HW1 1750   0.888   2.647   1.988 -0.8576 -2.1296 -1.6919
  438SOL    HW2 1751   0.841   2.685   1.853 -1.1275 -3.3973 -0.7887
  438SOL     MW 1752   0.896   2.700   1.916 -0.2377 -0.6540 -0.0228
  439SOL     OW 1753   1.213   2.078   0.436 -0.7519  0.1666  0.2805
  439SOL    HW1 1754   1.163   2.125   0.507  0.5286  0.3412  0.7085
  439SOL    HW2 1755   1.174   2.119   0.354 -1.4114  1.1410  1.1815
  439SOL     MW 1756   1.201   2.089   0.435 -0.6700  0.3182  0.4558
  440SOL     OW 1757   1.751   2.927   3.025 -0.6486 -0.7113 -0.4286
  440SOL    HW1 1758   1.749   2.921   3.123  0.0912 -3.7325 -0.3766
  440SOL    HW2 1759   1.840   2.942   3.000  0.7403 -0.0859 -1.3373
  440SOL     MW 1760   1.763   2.928   3.034 -0.3677 -1.0274 -0.5417
  441SOL     OW 1761   0.460   2.643   0.430  1.1394  0.2323  0.0654
  441SOL    HW1 1762   0.391   2.583   0.391 -0.4902 -3.2063 -0.0508
  441SOL    HW2 1763   0.423   2.727   0.419 -0.9674  0.0749 -0.1378
  441SOL     MW 1764   0.446   2.646   0.423  0.6464 -0.2422  0.0232
  442SOL     OW 1765   0.031   2.343   0.641 -0.1563 -0.2050 -0.0403
  442SOL    HW1 1766   0.031   2.441   0.638  0.3505  2.4244  1.4017
  442SOL    HW2 1767  -0.053   2.321   0.678 -1.9958 -0.0619 -1.1024
  442SOL     MW 1768   0.020   2.353   0.646 -0.3321  0.1608  0.0098
  443SOL     OW 1769   1.478   1.764   1.890  0.0141 -0.8097  0.8776
  443SOL    HW1 1770   1.428   1.782   1.812  2.3953  0.0929  3.0827
  443SOL    HW2 1771   1.484   1.670   1.890  1.5689  1.1679 -0.2393
  443SOL     MW 1772   1.473   1.754   1.880  0.5334 -0.4297  1.0212
  444SOL     OW 1773   0.986   2.593   1.618 -0.5186 -0.4788 -0.8158
  444SOL    HW1 1774   1.043   2.530   1.663  0.5809  0.9641  0.5933
  444SOL    HW2 1775   0.916   2.577   1.683 -0.5373 -1.0391  1.3568
  444SOL     MW 1776   0.984   2.583   1.633 -0.3760 -0.3624 -0.3432
  445SOL     OW 1777   1.248   0.143   1.411 -0.4009 -0.9286 -0.0174
  445SOL    HW1 1778   1.268   0.224   1.457  2.6518  0.1012 -0.3347
  445SOL    HW2 1779   1.194   0.179   1.338 -1.2987 -0.0985 -0.3335
  445SOL     MW 1780   1.243   0.158   1.407 -0.1166 -0.6832 -0.1009
  446SOL     OW 1781   2.780   2.862   1.031  0.1437  0.1100  0.1470
  446SOL    HW1 1782   2.715   2.910   0.975  0.3441  0.9231 -0.2641
  446SOL    HW2 1783   2.810   2.799   0.971  1.2113  4.7242 -0.0980
  446SOL     MW 1784   2.775   2.860   1.016  0.3110  0.8261  0.0604
  447SOL     OW 1785   0.041   1.934   1.558 -0.4103  0.0858  0.3902
  447SOL    HW1 1786   0.032   1.865   1.629 -0.4770 -2.5587 -2.2232
  447SOL    HW2 1787  -0.032   1.903   1.495 -0.6201  0.3416 -2.0397
  447SOL     MW 1788   0.030   1.921   1.559 -0.4468 -0.2294 -0.2752
  448SOL     OW 1789   1.724   2.404   1.665 -0.1633 -0.3584  0.0396
  448SOL    HW1 1790   1.683   2.323   1.683 -1.2902 -0.1861 -1.2098
  448SOL    HW2 1791   1.649   2.462   1.682 -4.2840 -2.2779 -1.0578
  448SOL     MW 1792   1.709   2.401   1.669 -0.8557 -0.5889 -0.2700
  449SOL     OW 1793   0.886   2.949   0.405  0.5295  0.4785 -0.1600
  449SOL    HW1 1794   0.828   2.973   0.334 -0.7074 -1.4912  0.8313
  449SOL    HW2 1795   0.839   2.975   0.485  0.4323 -0.7450 -0.5796
  449SOL     MW 1796   0.872   2.956   0.406  0.3535  0.0572 -0.0846
  450SOL     OW 1797   1.150   2.498   0.781 -0.6290 -0.0223  0.2453
  450SOL    HW1 1798   1.190   2.431   0.847  0.5015 -1.2586 -0.5763
  450SOL    HW2 1799   1.213   2.478   0.710  0.0312 -2.2424  0.8039
  450SOL     MW 1800   1.164   2.486   0.780 -0.3927 -0.4784  0.2106
  451SOL     OW 1801   0.524   1.924   1.685 -0.0208  0.4228 -0.1346
  451SOL    HW1 1802   0.589   1.937   1.620 -0.6835  2.7109 -1.1273
  451SOL    HW2 1803   0.438   1.901   1.635 -2.7412  3.5114 -1.1550
  451SOL     MW 1804   0.521   1.923   1.670 -0.4671  1.1322 -0.4002
  452SOL     OW 1805   0.339   2.632   0.014  0.2852  0.3670  0.0476
  452SOL    HW1 1806   0.421   2.652   0.060  1.1711  1.4308  0.2769
  452SOL    HW2 1807   0.276   2.711  -0.005 -1.0713  1.4714 -1.8772
  452SOL     MW 1808   0.341   2.645   0.017  0.2231  0.6531 -0.1761
  453SOL     OW 1809   0.276   3.042   1.568 -0.4162 -0.5734  0.3454
  453SOL    HW1 1810   0.310   2.976   1.631 -1.0328 -0.0445  0.2683
  453SOL    HW2 1811   0.312   3.019   1.479 -0.7254 -3.4399 -0.4698
  453SOL     MW 1812   0.285   3.030   1.565 -0.5384 -0.8818  0.2277
  454SOL     OW 1813   0.934   2.758   1.236  0.0923  0.2958 -0.4696
  454SOL    HW1 1814   0.874   2.697   1.294  0.6453 -0.0511 -1.1310
  454SOL    HW2 1815   0.887   2.799   1.164  0.6285  0.4037 -0.2647
  454SOL     MW 1816   0.920   2.756   1.235  0.2360  0.2643 -0.5298
  455SOL     OW 1817   1.769   2.872   0.187  0.7741 -0.4105  0.2348
  455SOL    HW1 1818   1.808   2.840   0.267  2.1594  1.6096 -1.5834
  455SOL    HW2 1819   1.703   2.799   0.164 -1.0882  0.6449 -0.7220
  455SOL     MW 1820   1.765   2.858   0.194  0.7112 -0.0048 -0.1313
  456SOL     OW 1821   2.766   0.269   1.465 -0.1385  0.0266 -0.1683
  456SOL    HW1 1822   2.775   0.210   1.386  1.3240 -0.8228  0.1956
  456SOL    HW2 1823   2.813   0.346   1.442  2.2196 -0.4522  0.0591
  456SOL     MW 1824   2.773   0.272   1.452  0.3656 -0.1487 -0.0903
  457SOL     OW 1825   0.786   1.689   3.031  0.2239 -0.5060 -0.2966
  457SOL    HW1 1826   0.694   1.663   3.024  3.0783 -1.9043 -1.9274
  457SOL    HW2 1827   0.801   1.721   3.120  1.3827 -0.7490  0.8176
  457SOL     MW 1828   0.776   1.690   3.042  0.7534 -0.7226 -0.3648
  458SOL     OW 1829   1.364   1.495   0.714  0.2128 -0.3922  0.0839
  458SOL    HW1 1830   1.291   1.552   0.682  3.0140 -1.5093  1.2640
  458SOL    HW2 1831   1.339   1.409   0.683  0.0291  0.5026 -1.3015
  458SOL     MW 1832   1.351   1.491   0.705  0.5581 -0.4216  0.0568
  459SOL     OW 1833   1.610   3.087   0.256  0.9399 -0.0864  0.0555
  459SOL    HW1 1834   1.664   3.007   0.246  1.6839 -0.9965 -0.0779
  459SOL    HW2 1835   1.561   3.100   0.172 -1.3712 -0.5829 -0.9643
  459SOL     MW 1836   1.611   3.078   0.243  0.7331 -0.2720 -0.0966
  460SOL     OW 1837   1.776   2.229   0.657 -0.5146  0.0527 -0.0517
  460SOL    HW1 1838   1.688   2.224   0.696  1.0937 -0.6675 -0.0681
  460SOL    HW2 1839   1.808   2.138   0.635  0.6553  0.6824 -1.2375
  460SOL     MW 1840   1.769   2.216   0.659 -0.1480  0.0407 -0.2103
  461SOL     OW 1841   0.420   2.428   0.586 -0.5201 -0.0421 -0.1317
  461SOL    HW1 1842   0.455   2.512   0.554  1.3456  1.6715  0.4511
  461SOL    HW2 1843   0.392   2.439   0.677 -0.3126  0.7696 -1.5001
  461SOL     MW 1844   0.421   2.441   0.594 -0.2465  0.2911 -0.2353
  462SOL     OW 1845   0.278   0.227   1.278  0.5368  0.0874 -0.3942
  462SOL    HW1 1846   0.346   0.200   1.215  1.1217  1.1431 -2.7186
  462SOL    HW2 1847   0.339   0.254   1.346  0.1550 -0.0329 -0.8566
  462SOL     MW 1848   0.295   0.227   1.279  0.5636  0.2108 -0.7619
  463SOL     OW 1849   1.070   0.065   0.759 -0.0974 -0.5581  0.4893
  463SOL    HW1 1850   1.166   0.052   0.738  1.6347  2.4925 -2.2430
  463SOL    HW2 1851   1.015   0.078   0.683  1.2125 -2.2375 -0.6246
  463SOL     MW 1852   1.075   0.065   0.746  0.3039 -0.3772 -0.0182
  464SOL     OW 1853   0.763   3.103   2.270 -0.1803  0.0023 -0.2749
  464SOL    HW1 1854   0.769   3.007   2.264  0.3339  1.4014 -1.7645
  464SOL    HW2 1855   0.803   3.124   2.358  1.8589  0.7126 -3.4690
  464SOL     MW 1856   0.769   3.093   2.281  0.1566  0.2806 -0.8928
  465SOL     OW 1857   0.791   0.361   0.413  0.3569  0.5518  0.0436
  465SOL    HW1 1858   0.797   0.285   0.475  1.9679  1.7124  1.7507
  465SOL    HW2 1859   0.763   0.313   0.334 -2.7373  0.5793 -2.3288
  465SOL     MW 1860   0.788   0.344   0.411  0.1612  0.7085 -0.0442
  466SOL     OW 1861   1.097   2.031   0.798  0.0507 -0.0296  0.5671
  466SOL    HW1 1862   1.076   1.948   0.764  0.6849  3.4493  1.1259
  466SOL    HW2 1863   1.070   2.092   0.724 -1.4132 -1.9585 -0.3544
  466SOL     MW 1864   1.090   2.028   0.783 -0.0587  0.1749  0.5192
  467SOL     OW 1865   1.300   2.317   0.959  0.5247  0.4620 -0.5559
  467SOL    HW1 1866   1.380   2.363   0.983  1.4605 -0.8233  1.0182
  467SOL    HW2 1867   1.302   2.222   0.974  0.5678  0.2923 -1.5378
  467SOL     MW 1868   1.311   2.310   0.964  0.6539  0.2700 -0.4777
  468SOL     OW 1869   0.507   2.673   1.882 -0.0773  0.8156  0.3795
  468SOL    HW1 1870   0.471   2.591   1.849 -0.4858 -0.4993  1.7334
  468SOL    HW2 1871   0.484   2.738   1.805 -1.8796 -0.9368 -4.1892
  468SOL     MW 1872   0.499   2.671   1.867 -0.3690  0.4109 -0.0447
  469SOL     OW 1873   0.357   2.102   1.848 -0.9213 -0.3751 -0.3196
  469SOL    HW1 1874   0.264   2.080   1.852  0.4928  2.8385  0.8418
  469SOL    HW2 1875   0.406   2.026   1.811  0.2407 -0.7425 -1.2460
  469SOL     MW 1876   0.351   2.089   1.844 -0.5814  0.0004 -0.2886
  470SOL     OW 1877   3.049   2.601   0.098  0.3314 -0.4534 -0.2863
  470SOL    HW1 1878   2.966   2.607   0.150  1.5945 -1.6053  0.6884
  470SOL    HW2 1879   3.042   2.636   0.006 -0.8019  0.2805  0.0815
  470SOL     MW 1880   3.037   2.606   0.092  0.3485 -0.5086 -0.1092
  471SOL     OW 1881   1.173   2.613   1.379  0.2131  0.0840 -0.0667
  471SOL    HW1 1882   1.105   2.585   1.441 -0.6198 -1.1956 -0.6010
  471SOL    HW2 1883   1.133   2.595   1.293  0.9551 -0.3572 -3.0654
  471SOL     MW 1884   1.159   2.606   1.376  0.2011 -0.1430 -0.5329
  472SOL     OW 1885   2.879   2.114   0.346  0.8877 -0.2153 -0.4890
  472SOL    HW1 1886   2.861   2.076   0.261 -1.7113 -0.2111 -0.4616
  472SOL    HW2 1887   2.840   2.056   0.407  2.9834 -2.7493  1.9197
  472SOL     MW 1888   2.871   2.101   0.343  0.8213 -0.5491 -0.1676
  473SOL     OW 1889   0.823   2.557   1.404  0.9040 -0.6496  0.0706
  473SOL    HW1 1890   0.818   2.466   1.376 -0.0326 -1.2301 -0.3503
  473SOL    HW2 1891   0.865   2.548   1.493 -1.8616  0.7057  0.7471
  473SOL     MW 1892   0.827   2.544   1.412  0.4156 -0.5474  0.1043
  474SOL     OW 1893   0.667   2.315   1.807 -0.3766 -0.3633 -0.0165
  474SOL    HW1 1894   0.742   2.304   1.867 -0.0812  3.2580  0.2650
  474SOL    HW2 1895   0.711   2.299   1.726 -2.0073 -0.2583  2.1811
  474SOL     MW 1896   0.683   2.312   1.804 -0.5528  0.1284  0.3106
  475SOL     OW 1897   1.591   3.069   1.522 -0.0807  0.1430 -0.2755
  475SOL    HW1 1898   1.522   3.082   1.453 -1.8461  1.0097  0.0488
  475SOL    HW2 1899   1.580   2.982   1.566 -0.3512 -1.0688 -3.7767
  475SOL     MW 1900   1.581   3.059   1.519 -0.3493  0.0975 -0.6947
  476SOL     OW 1901   1.440   2.628   1.159  0.3488  0.2226  0.9424
  476SOL    HW1 1902   1.350   2.671   1.153  1.8279  2.2160  0.2949
  476SOL    HW2 1903   1.514   2.691   1.130  1.0348  1.0013 -0.0136
  476SOL     MW 1904   1.438   2.642   1.154  0.6345  0.5883  0.7308
  477SOL     OW 1905   0.839   2.554   0.634 -0.4242 -0.3854  0.3603
  477SOL    HW1 1906   0.921   2.586   0.600 -2.1460 -1.4041  0.5216
  477SOL    HW2 1907   0.814   2.483   0.580 -0.1702 -2.4468  0.7746
  477SOL     MW 1908   0.846   2.549   0.623 -0.6179 -0.7918  0.4362
  478SOL     OW 1909   0.211   2.646   0.948  0.2726 -0.9934  0.0882
  478SOL    HW1 1910   0.241   2.722   0.894 -0.5813  0.7209 -0.1862
  478SOL    HW2 1911   0.271   2.572   0.937 -0.2967 -0.0824 -0.1048
  478SOL     MW 1912   0.223   2.646   0.940  0.0849 -0.6470  0.0265
  479SOL     OW 1913   1.403   2.000   1.271 -0.4590 -0.0271 -0.2276
  479SOL    HW1 1914   1.374   2.043   1.352 -1.8639 -0.7226 -2.1156
  479SOL    HW2 1915   1.444   1.917   1.298  0.8712  2.0863 -1.7280
  479SOL     MW 1916   1.404   1.995   1.285 -0.4688  0.1600 -0.6746
  480SOL     OW 1917   2.010   2.453   1.331  0.0891 -0.6783  0.2460
  480SOL    HW1 1918   2.007   2.358   1.353 -0.9037 -0.1407 -0.1735
  480SOL    HW2 1919   2.043   2.464   1.241  2.5360  2.1712 -2.0083
  480SOL     MW 1920   2.014   2.442   1.322  0.2809 -0.2314 -0.1068
  481SOL     OW 1921   1.047   0.103   1.082  0.2772  0.3050  0.5222
  481SOL    HW1 1922   1.092   0.029   1.041 -0.4036  1.5910 -1.9079
  481SOL    HW2 1923   1.118   0.160   1.111 -0.8101  1.9755  0.3530
  481SOL     MW 1924   1.062   0.101   1.081  0.0439  0.6951  0.1793
  482SOL     OW 1925   1.091  -0.001   0.277 -0.5994  0.5094 -0.3639
  482SOL    HW1 1926   1.011  -0.045   0.323 -1.2252  0.7021  0.1809
  482SOL    HW2 1927   1.083   0.090   0.307 -0.4173  2.0853  1.8649
  482SOL     MW 1928   1.080   0.005   0.287 -0.6579  0.7427  0.0021
  483SOL     OW 1929   0.418   3.001   0.438  0.4648  0.1178  0.1430
  483SOL    HW1 1930   0.338   3.008   0.384 -1.3065  1.5962 -1.4220
  483SOL    HW2 1931   0.392   3.021   0.525 -2.7949  0.4031  0.4712
  483SOL     MW 1932   0.404   3.005   0.442 -0.1990  0.3505 -0.0202
  484SOL     OW 1933   1.867   1.961   1.497 -0.6669  0.6798 -0.5152
  484SOL    HW1 1934   1.890   2.042   1.453 -0.1475 -1.3815  0.9395
  484SOL    HW2 1935   1.833   1.974   1.585 -2.3160  2.9605 -0.1747
  484SOL     MW 1936   1.866   1.973   1.503 -0.8159  0.7088 -0.2783
  485SOL     OW 1937   0.573   2.386   0.239  0.2252  0.1565  0.3641
  485SOL    HW1 1938   0.577   2.407   0.331 -0.9927  0.2649 -2.2948
  485SOL    HW2 1939   0.478   2.405   0.217 -0.8049 -1.9482  0.8837
  485SOL     MW 1940   0.561   2.392   0.248 -0.0714 -0.1069  0.0818
  486SOL     OW 1941   0.186   2.424   1.495  0.1835 -0.1509 -0.0681
  486SOL    HW1 1942   0.249   2.495   1.476  1.1231  1.4014  0.7813
  486SOL    HW2 1943   0.156   2.423   1.588  1.2276  0.3897 -1.3478
  486SOL     MW 1944   0.190   2.433   1.504  0.4452  0.1253 -0.1249
  487SOL     OW 1945   1.208   1.717   1.028  0.1874  0.0846 -0.5708
  487SOL    HW1 1946   1.188   1.810   1.056 -3.3470  2.6470  0.6731
  487SOL    HW2 1947   1.302   1.718   1.008  1.1720 -1.2096  1.9343
  487SOL     MW 1948   1.217   1.730   1.029 -0.1490  0.2520 -0.0762
  488SOL     OW 1949   1.606   1.815   0.553 -0.7042 -0.2531 -0.1146
  488SOL    HW1 1950   1.686   1.811   0.498  1.5853  0.8375  0.8801
  488SOL    HW2 1951   1.567   1.906   0.540  0.5991 -0.0302 -1.7870
  488SOL     MW 1952   1.611   1.827   0.544 -0.2302 -0.0798 -0.2040
  489SOL     OW 1953   0.793   0.830   0.606  0.3010 -0.3139 -0.2190
  489SOL    HW1 1954   0.802   0.744   0.555 -2.9348  0.2096 -0.8524
  489SOL    HW2 1955   0.798   0.805   0.696  1.1679 -1.1854 -0.7481
  489SOL     MW 1956   0.795   0.815   0.611 -0.0116 -0.3598 -0.3723
  490SOL     OW 1957   1.480   2.052   0.512 -0.2665 -0.6260  0.0892
  490SOL    HW1 1958   1.488   2.132   0.456 -0.0243  1.5773 -0.6489
  490SOL    HW2 1959   1.386   2.026   0.502  2.0657 -1.3494  1.7418
  490SOL     MW 1960   1.468   2.059   0.504  0.0732 -0.4308  0.2099
  491SOL     OW 1961   1.277   2.960   0.430 -0.6012 -0.2521 -0.1110
  491SOL    HW1 1962   1.361   3.017   0.444  2.9484  2.2130 -1.8187
  491SOL    HW2 1963   1.215   3.018   0.386  0.2787  0.5554  2.2546
  491SOL     MW 1964   1.280   2.976   0.426 -0.0168  0.1797 -0.0242
  492SOL     OW 1965   1.532   2.210   0.738  0.3879  0.6834  0.6113
  492SOL    HW1 1966   1.507   2.148   0.672  0.3319  2.0871  0.3936
  492SOL    HW2 1967   1.504   2.168   0.816  3.3321  1.1477 -0.4268
  492SOL     MW 1968   1.525   2.196   0.740  0.7689  0.9298  0.4456
  493SOL     OW 1969   0.167   2.998   0.316  0.5231  0.1065 -0.3367
  493SOL    HW1 1970   0.133   3.042   0.398  0.5114 -0.9663  0.3282
  493SOL    HW2 1971   0.180   3.062   0.252 -0.4758 -1.0537 -1.8947
  493SOL     MW 1972   0.164   3.012   0.318  0.3897 -0.1881 -0.4546
  494SOL     OW 1973   0.407   2.453   1.756 -0.2910  0.2984 -0.2170
  494SOL    HW1 1974   0.485   2.404   1.785 -0.2457  1.8124 -0.7485
  494SOL    HW2 1975   0.423   2.464   1.661 -0.2390  1.9863  0.2911
  494SOL     MW 1976   0.419   2.448   1.747 -0.2782  0.7209 -0.2201
  495SOL     OW 1977   2.838   1.717   2.587 -0.1761  0.5247 -0.1880
  495SOL    HW1 1978   2.800   1.807   2.569 -1.1552  3.4792 -0.1595
  495SOL    HW2 1979   2.809   1.671   2.676  0.2245 -0.0782 -1.3285
  495SOL     MW 1980   2.829   1.722   2.596 -0.2525  0.8350 -0.3347
  496SOL     OW 1981   2.937   2.370   2.677  0.1008 -0.0467 -0.1451
  496SOL    HW1 1982   2.977   2.331   2.757 -0.1748  1.0599 -1.4424
  496SOL    HW2 1983   3.010   2.418   2.639 -1.3256  0.8527 -2.1444
  496SOL     MW 1984   2.952   2.371   2.682 -0.1237  0.2180 -0.5800
  497SOL     OW 1985   1.589   2.198   2.619 -0.6039 -0.0763  0.1952
  497SOL    HW1 1986   1.528   2.129   2.596 -1.2471 -1.3973 -0.0128
  497SOL    HW2 1987   1.599   2.181   2.715  1.9004 -0.2219  0.4835
  497SOL     MW 1988   1.582   2.187   2.629 -0.3583 -0.2698  0.2058
  498SOL     OW 1989   1.466   2.685   2.376  0.6011  0.3035  0.4540
  498SOL    HW1 1990   1.452   2.589   2.376 -2.5359 -0.1003 -1.3860
  498SOL    HW2 1991   1.557   2.697   2.381 -0.2179 -3.1595  1.8190
  498SOL     MW 1992   1.477   2.674   2.377  0.0791 -0.2067  0.3913
  499SOL     OW 1993   1.012   0.158   3.056 -0.0617  0.4632 -0.5185
  499SOL    HW1 1994   0.950   0.183   3.118  1.7565 -1.4903  0.5448
  499SOL    HW2 1995   1.085   0.127   3.112 -1.2191  0.1152 -2.0311
  499SOL     MW 1996   1.013   0.157   3.071  0.0255  0.1596 -0.5778
  500SOL     OW 1997   1.090   2.487   2.746 -1.2176  0.0788 -0.4199
  500SOL    HW1 1998   1.163   2.479   2.809 -0.3191  1.7088  0.7703
  500SOL    HW2 1999   1.019   2.477   2.808  0.5964 -3.1310  0.0172
  500SOL     MW 2000   1.091   2.484   2.762 -0.8598 -0.1296 -0.2052
  501SOL     OW 2001   1.794   2.194   3.082 -0.5212 -0.0595 -0.2528
  501SOL    HW1 2002   1.776   2.283   3.109 -0.2894 -1.0219 -1.4084
  501SOL    HW2 2003   1.891   2.185   3.091 -1.8736  0.8264  2.1338
  501SOL     MW 2004   1.804   2.204   3.087 -0.6691 -0.0696 -0.0904
  502SOL     OW 2005   0.153   2.813   3.074 -0.2294 -0.7287 -0.6093
  502SOL    HW1 2006   0.099   2.758   3.021  1.5466  0.7991 -0.0224
  502SOL    HW2 2007   0.207   2.869   3.007  0.9997  1.2974  2.0152
  502SOL     MW 2008   0.153   2.813   3.058  0.1671 -0.2598 -0.1856
  503SOL     OW 2009   0.993   2.858   2.162 -0.6763  0.3992 -0.2481
  503SOL    HW1 2010   0.951   2.802   2.096 -0.8174  0.9221  2.8679
  503SOL    HW2 2011   0.986   2.951   2.158  0.5622 -2.8388  0.2906
  503SOL     MW 2012   0.987   2.863   2.153 -0.5315  0.0409  0.2341
  504SOL     OW 2013   0.040   2.722   2.137 -0.0508  0.6434  0.4910
  504SOL    HW1 2014   0.052   2.642   2.088 -1.1509  1.3805 -2.0489
  504SOL    HW2 2015   0.054   2.694   2.226  2.0547  3.4011  3.7754
  504SOL     MW 2016   0.043   2.708   2.142  0.0819  1.1045  0.5892
  505SOL     OW 2017   1.701   2.698   2.675  0.2077  0.8634 -0.5245
  505SOL    HW1 2018   1.677   2.677   2.583  2.4537 -1.1762  0.9059
  505SOL    HW2 2019   1.613   2.720   2.712 -1.3602 -2.2344  1.0454
  505SOL     MW 2020   1.686   2.698   2.667  0.2972  0.1856 -0.1286
  506SOL     OW 2021   1.602   3.014   2.815  0.2876  0.2404 -0.2169
  506SOL    HW1 2022   1.652   2.999   2.897  1.3919  0.6533 -0.5470
  506SOL    HW2 2023   1.673   3.001   2.748 -1.4168 -0.0871 -0.8392
  506SOL     MW 2024   1.618   3.011   2.817  0.2084  0.2516 -0.3425
  507SOL     OW 2025   0.845   2.741   2.850  0.1170  0.3284  0.0933
  507SOL    HW1 2026   0.893   2.795   2.791 -4.3919 -2.7474  0.8115
  507SOL    HW2 2027   0.770   2.784   2.889 -0.3326 -1.3711 -0.9642
  507SOL     MW 2028   0.842   2.754   2.848 -0.5372 -0.3016  0.0486
  508SOL     OW 2029   1.133   2.050   2.528 -0.2495 -0.3757  0.3728
  508SOL    HW1 2030   1.221   2.045   2.569 -0.9282  0.1574  0.8602
  508SOL    HW2 2031   1.081   2.127   2.555  2.6985  0.9250 -1.1218
  508SOL     MW 2032   1.138   2.059   2.537  0.0499 -0.1337  0.2399
  509SOL     OW 2033   0.617   2.557   2.928 -0.0303 -0.1215  0.5354
  509SOL    HW1 2034   0.584   2.572   2.837  1.4577  1.9344  2.3877
  509SOL    HW2 2035   0.544   2.562   2.986 -0.6577 -0.8786 -2.2135
  509SOL     MW 2036   0.603   2.560   2.924  0.0833  0.0499  0.4171
  510SOL     OW 2037   1.527   2.560   1.711 -0.2165 -0.0746  0.7023
  510SOL    HW1 2038   1.555   2.645   1.692  0.3878 -0.7324  0.7132
  510SOL    HW2 2039   1.476   2.558   1.791  2.7378  1.3077  0.4048
  510SOL     MW 2040   1.524   2.571   1.719  0.2530  0.0210  0.6645
  511SOL     OW 2041   0.402   2.604   2.428 -0.5412  0.0817  0.2041
  511SOL    HW1 2042   0.481   2.561   2.466 -1.7193  0.6046 -1.4970
  511SOL    HW2 2043   0.450   2.630   2.345  2.7109  2.1636 -0.2318
  511SOL     MW 2044   0.419   2.602   2.422 -0.2676  0.4254 -0.0779
  512SOL     OW 2045   1.013   1.976   2.823 -0.1864 -0.0325 -0.4141
  512SOL    HW1 2046   0.924   1.987   2.852  0.1487  0.5372  1.7997
  512SOL    HW2 2047   1.026   1.883   2.839  0.3596  0.3544  0.8521
  512SOL     MW 2048   1.003   1.965   2.829 -0.0701  0.0937  0.0450
  513SOL     OW 2049   1.451   2.407   2.393 -0.6775 -0.3369  0.2040
  513SOL    HW1 2050   1.532   2.394   2.438  1.4162  1.6089 -3.0369
  513SOL    HW2 2051   1.416   2.318   2.388  0.7413 -0.3076 -1.4242
  513SOL     MW 2052   1.457   2.393   2.398 -0.2141 -0.0763 -0.4385
  514SOL     OW 2053   0.245   2.451   2.624 -0.2108 -0.3009 -0.2043
  514SOL    HW1 2054   0.295   2.512   2.576 -2.2395 -1.0539 -1.7579
  514SOL    HW2 2055   0.263   2.469   2.721  0.5533 -0.3999 -1.1553
  514SOL     MW 2056   0.254   2.462   2.631 -0.3776 -0.4133 -0.5347
  515SOL     OW 2057   1.074   2.045   1.953  0.7165 -0.2695  0.8001
  515SOL    HW1 2058   1.022   2.128   1.943  1.6491 -2.2991  0.5059
  515SOL    HW2 2059   1.114   2.049   2.035 -0.7589  0.2200 -0.6950
  515SOL     MW 2060   1.072   2.057   1.963  0.6449 -0.4727  0.5640
  516SOL     OW 2061   1.465   2.516   3.077  0.3689  0.2111  0.3639
  516SOL    HW1 2062   1.501   2.492   2.985  0.4000  2.4453 -2.2363
  516SOL    HW2 2063   1.376   2.481   3.075 -2.0656 -0.1787  1.3626
  516SOL     MW 2064   1.458   2.508   3.064  0.0518  0.4544  0.1526
  517SOL     OW 2065   0.600   2.396   2.146  0.2003  0.5048 -0.0870
  517SOL    HW1 2066   0.565   2.479   2.169 -0.3737 -1.4416 -0.6153
  517SOL    HW2 2067   0.525   2.360   2.109  2.0916 -1.2302  1.2028
  517SOL     MW 2068   0.586   2.402   2.144  0.3741  0.0191  0.0134
  518SOL     OW 2069   1.900   0.105   2.932 -0.1262 -0.4147  0.3597
  518SOL    HW1 2070   1.861   0.173   2.875  1.6967 -1.5926 -0.7679
  518SOL    HW2 2071   1.858   0.114   3.018 -0.9838 -1.9740  0.9360
  518SOL     MW 2072   1.890   0.115   2.936  0.0012 -0.7759  0.2869
  519SOL     OW 2073   0.733   2.575   1.750  0.4992  0.0591 -0.0636
  519SOL    HW1 2074   0.718   2.488   1.779  0.4945 -0.6473  3.5250
  519SOL    HW2 2075   0.658   2.622   1.787  0.0620 -0.9782  0.2998
  519SOL     MW 2076   0.721   2.570   1.759  0.4409 -0.1710  0.4579
  520SOL     OW 2077   1.267   2.109   2.951 -0.4800  0.0403 -0.1499
  520SOL    HW1 2078   1.187   2.059   2.951  0.8251 -1.3409 -2.3952
  520SOL    HW2 2079   1.326   2.079   3.022 -0.8387 -0.1891 -2.6122
  520SOL     MW 2080   1.264   2.098   2.961 -0.3551 -0.1722 -0.7710
  521SOL     OW 2081   1.735   2.044   2.248 -0.4728 -0.5047 -0.0654
  521SOL    HW1 2082   1.768   2.058   2.160 -1.4993 -0.3308  0.0650
  521SOL    HW2 2083   1.755   1.951   2.265  2.4840 -0.6404 -1.4755
  521SOL     MW 2084   1.742   2.033   2.239 -0.2181 -0.4997 -0.2343
  522SOL     OW 2085   2.832   2.550   2.187  0.0981 -0.3533 -0.1036
  522SOL    HW1 2086   2.902   2.513   2.233 -1.7424 -0.6522 -1.7005
  522SOL    HW2 2087   2.802   2.608   2.256  1.3134 -0.0372 -2.0708
  522SOL     MW 2088   2.837   2.553   2.202  0.0156 -0.3510 -0.5739
  523SOL     OW 2089   0.857   1.494   2.114  0.1109 -0.2641 -0.1773
  523SOL    HW1 2090   0.872   1.582   2.075 -0.1095 -1.0454  0.4377
  523SOL    HW2 2091   0.929   1.431   2.083  2.7256  1.2846  0.4679
  523SOL     MW 2092   0.869   1.497   2.105  0.4268 -0.1628 -0.0110
  524SOL     OW 2093   0.894   2.462   2.945 -0.0335  0.3870  0.0913
  524SOL    HW1 2094   0.818   2.520   2.940 -1.9282  1.5023  2.2442
  524SOL    HW2 2095   0.856   2.377   2.923 -1.2999  0.7422  1.5672
  524SOL     MW 2096   0.879   2.459   2.942 -0.4506  0.5810  0.5701
  525SOL     OW 2097   0.349   2.259   2.070 -0.1369 -0.1699  0.0210
  525SOL    HW1 2098   0.337   2.220   2.162 -0.3504  0.1884  0.7429
  525SOL    HW2 2099   0.358   2.182   2.006  0.3995  0.4445 -0.6423
  525SOL     MW 2100   0.348   2.243   2.074 -0.0943 -0.0416  0.0287
  526SOL     OW 2101   0.657   2.089   2.006 -0.7011 -0.1523  0.8851
  526SOL    HW1 2102   0.651   2.139   1.923 -0.6287 -1.2638  1.2299
  526SOL    HW2 2103   0.619   2.138   2.079 -1.0959 -3.4834 -0.6842
  526SOL     MW 2104   0.651   2.102   2.004 -0.7437 -0.7384  0.7236
  527SOL     OW 2105   1.350   1.973   2.042  0.0812 -0.2913 -0.0241
  527SOL    HW1 2106   1.331   1.935   2.125  0.5720 -1.8446 -1.3318
  527SOL    HW2 2107   1.395   1.911   1.984  0.5196 -0.2959 -1.2279
  527SOL     MW 2108   1.354   1.960   2.045  0.2038 -0.4969 -0.3555
  528SOL     OW 2109   0.660   2.910   2.923 -0.0959  0.6856  0.1946
  528SOL    HW1 2110   0.693   2.996   2.903  0.3857 -0.4536  0.4752
  528SOL    HW2 2111   0.584   2.903   2.868  0.7689 -1.2030 -2.6536
  528SOL     MW 2112   0.655   2.920   2.913  0.0817  0.2861 -0.1442
  529SOL     OW 2113   0.922   2.273   1.903  0.4461 -0.3705  0.6597
  529SOL    HW1 2114   0.963   2.293   1.985  1.4323  1.0761  0.2863
  529SOL    HW2 2115   0.996   2.305   1.846  0.5188 -2.4582  2.7851
  529SOL     MW 2116   0.937   2.280   1.906  0.5858 -0.4551  0.8908
  530SOL     OW 2117   1.209   2.423   2.985  0.0530 -0.2174  0.0700
  530SOL    HW1 2118   1.131   2.440   3.047  0.7962 -0.9661 -0.0469
  530SOL    HW2 2119   1.214   2.326   2.990 -1.7479  1.0090  0.0178
  530SOL     MW 2120   1.200   2.412   2.994 -0.0866 -0.1544  0.0477
  531SOL     OW 2121   0.940   1.858   2.572 -0.6384 -0.1811 -0.1065
  531SOL    HW1 2122   0.993   1.935   2.576  0.2520  0.4860  1.8530
  531SOL    HW2 2123   0.915   1.836   2.670  1.2349  1.1596  0.4151
  531SOL     MW 2124   0.944   1.865   2.586 -0.2737  0.0838  0.2209
  532SOL     OW 2125   1.769   0.295   2.772  0.9246 -0.4744 -0.2193
  532SOL    HW1 2126   1.707   0.276   2.705  0.3800 -1.0476  0.3866
  532SOL    HW2 2127   1.855   0.289   2.724  3.5503  0.0114 -0.2193
  532SOL     MW 2128   1.773   0.292   2.757  1.1991 -0.4859 -0.1394
  533SOL     OW 2129   1.863   2.653   3.067  0.8769 -0.5185  0.0523
  533SOL    HW1 2130   1.811   2.585   3.109  2.7223 -2.9672  2.6294
  533SOL    HW2 2131   1.811   2.718   3.032  1.0936 -1.0694  3.3001
  533SOL     MW 2132   1.850   2.653   3.068  1.1490 -0.9143  0.8208
  534SOL     OW 2133   1.741   2.392   2.482 -0.2063 -0.2573 -0.1963
  534SOL    HW1 2134   1.711   2.302   2.513  0.5609 -0.9848  1.8133
  534SOL    HW2 2135   1.824   2.405   2.537  2.8913 -0.2395 -1.4091
  534SOL     MW 2136   1.748   2.382   2.494  0.3036 -0.3509 -0.0912
  535SOL     OW 2137   1.880   2.399   1.906  0.2576  0.3944 -0.3371
  535SOL    HW1 2138   1.822   2.400   1.830 -2.0926 -0.6588 -0.5888
  535SOL    HW2 2139   1.974   2.399   1.885  0.1864 -0.4673 -0.5598
  535SOL     MW 2140   1.885   2.400   1.893 -0.0619  0.1418 -0.3997
  536SOL     OW 2141   0.548   1.840   2.090 -0.5437  0.7903  0.1331
  536SOL    HW1 2142   0.502   1.798   2.015  1.4015  2.2901 -0.6894
  536SOL    HW2 2143   0.565   1.927   2.048  2.1982 -2.3494  0.6987
  536SOL     MW 2144   0.544   1.846   2.075  0.0747  0.5739  0.0992
  537SOL     OW 2145   1.087   0.216   2.771  0.0787  0.5635  0.3777
  537SOL    HW1 2146   1.036   0.220   2.856 -0.8944 -0.3082  0.3642
  537SOL    HW2 2147   1.061   0.295   2.719 -1.2817  1.1779 -1.2720
  537SOL     MW 2148   1.077   0.227   2.775 -0.2292  0.5295  0.1582
  538SOL     OW 2149   1.459   0.060   0.041 -0.5488  0.2711 -0.1820
  538SOL    HW1 2150   1.441   0.153   0.039 -2.2478  1.4764  1.2860
  538SOL    HW2 2151   1.378   0.017   0.048  1.5824 -2.1930  3.0236
  538SOL     MW 2152   1.446   0.067   0.042 -0.4918  0.1050  0.4347
  539SOL     OW 2153   0.692   2.802   2.561 -0.4030 -0.1735 -0.1488
  539SOL    HW1 2154   0.772   2.826   2.605 -0.2367 -1.4083 -0.8253
  539SOL    HW2 2155   0.706   2.711   2.566  1.0336 -0.1386  0.8458
  539SOL     MW 2156   0.704   2.793   2.567 -0.1915 -0.3318 -0.1068
  540SOL     OW 2157   0.249   2.473   2.903  0.0389  0.2868  0.0137
  540SOL    HW1 2158   0.276   2.520   2.985 -4.2379  1.8574  2.5705
  540SOL    HW2 2159   0.219   2.380   2.932 -0.5645 -0.0402  0.8718
  540SOL     MW 2160   0.249   2.467   2.918 -0.6050  0.4509  0.4642
  541SOL     OW 2161   0.217   2.938   2.117  0.0470 -0.2776 -0.1161
  541SOL    HW1 2162   0.160   2.862   2.096  0.4206  0.6593  0.6059
  541SOL    HW2 2163   0.251   2.910   2.200  0.3663 -0.9862  1.6392
  541SOL     MW 2164   0.214   2.924   2.125  0.1384 -0.2475  0.2107
  542SOL     OW 2165   0.989   2.264   2.649  0.0818  0.1120 -0.9799
  542SOL    HW1 2166   0.949   2.227   2.731  0.3110 -0.1742 -0.3003
  542SOL    HW2 2167   1.054   2.335   2.680  0.0855 -0.0827 -0.1670
  542SOL     MW 2168   0.992   2.268   2.664  0.1125  0.0486 -0.7830
  543SOL     OW 2169   1.639   2.454   2.800 -0.2029 -0.2053  0.0580
  543SOL    HW1 2170   1.597   2.404   2.729 -3.0965 -1.2124 -1.8712
  543SOL    HW2 2171   1.695   2.528   2.767 -0.5708 -1.2454 -1.4649
  543SOL     MW 2172   1.641   2.457   2.786 -0.6332 -0.4754 -0.3975
  544SOL     OW 2173   0.733   0.234   2.696 -0.7108  0.9945 -0.0636
  544SOL    HW1 2174   0.641   0.201   2.705  0.1759 -1.0729 -1.2022
  544SOL    HW2 2175   0.758   0.199   2.608 -1.1729  0.7952  0.3026
  544SOL     MW 2176   0.724   0.225   2.685 -0.6548  0.6954 -0.1655
  545SOL     OW 2177   1.486   2.121   2.318  0.2284 -0.0120  0.0814
  545SOL    HW1 2178   1.465   2.170   2.242  0.4053  1.1381  0.5798
  545SOL    HW2 2179   1.588   2.107   2.301  1.5912 -0.3103  0.8843
  545SOL     MW 2180   1.497   2.125   2.306  0.4316  0.1004  0.2531
  546SOL     OW 2181   2.861   1.980   0.091  0.0096 -0.3279  0.0037
  546SOL    HW1 2182   2.878   2.067   0.056  2.1275 -1.8255  0.7185
  546SOL    HW2 2183   2.947   1.929   0.088 -0.7283  2.4998  1.0266
  546SOL     MW 2184   2.874   1.985   0.086  0.1917 -0.1524  0.2330
  547SOL     OW 2185   0.225   0.051   0.087  0.1390  0.2800 -0.1410
  547SOL    HW1 2186   0.305   0.048   0.036 -1.9537 -0.1204  0.7960
  547SOL    HW2 2187   0.155   0.019   0.027 -1.0959 -1.9275 -1.2842
  547SOL     MW 2188   0.226   0.047   0.072 -0.3001 -0.0641 -0.1682
  548SOL     OW 2189   0.313   2.439   0.211  0.0869  0.8386 -0.2402
  548SOL    HW1 2190   0.309   2.518   0.158 -1.0119 -0.0801 -1.2614
  548SOL    HW2 2191   0.227   2.392   0.187  1.7436  1.9060  0.2717
  548SOL     MW 2192   0.302   2.443   0.201  0.1605  0.8582 -0.3074
  549SOL     OW 2193   0.877   1.929   2.140 -0.1622 -0.5271 -0.4404
  549SOL    HW1 2194   0.814   1.990   2.092 -0.2305 -0.7668  1.4490
  549SOL    HW2 2195   0.821   1.910   2.226 -1.7194  0.3571  1.5092
  549SOL     MW 2196   0.861   1.935   2.145 -0.3766 -0.4421  0.0661
  550SOL     OW 2197   1.901   1.754   2.514  0.5871 -0.5550  0.0447
  550SOL    HW1 2198   1.833   1.765   2.442 -1.3544 -1.0276  1.4611
  550SOL    HW2 2199   1.870   1.819   2.582  1.3617 -0.4019 -1.0667
  550SOL     MW 2200   1.888   1.764   2.513  0.4332 -0.5972  0.0849
  551SOL     OW 2201   0.883   2.215   0.257  0.7830 -0.1712 -0.4853
  551SOL    HW1 2202   0.978   2.204   0.262 -2.0176  1.1188  1.8286
  551SOL    HW2 2203   0.855   2.182   0.176  0.0754  2.1569  2.1661
  551SOL     MW 2204   0.892   2.209   0.247  0.3201  0.3061  0.1698
  552SOL     OW 2205   1.754   1.785   2.290 -0.2762 -0.2901 -0.5232
  552SOL    HW1 2206   1.668   1.743   2.269 -5.5794 -2.8653  0.9080
  552SOL    HW2 2207   1.817   1.752   2.218  0.2056  1.6873 -2.2471
  552SOL     MW 2208   1.751   1.775   2.278 -0.9123 -0.3690 -0.5618
  553SOL     OW 2209   1.199   2.307   1.546  0.1556 -0.1763  0.1043
  553SOL    HW1 2210   1.247   2.219   1.559  1.0077  0.0181 -0.6493
  553SOL    HW2 2211   1.269   2.364   1.513  0.7961  0.2873 -1.6179
  553SOL     MW 2212   1.215   2.303   1.543  0.3525 -0.0895 -0.2224
  554SOL     OW 2213   0.479   2.906   2.720  0.2151  0.0329  0.4000
  554SOL    HW1 2214   0.457   2.979   2.658  0.5193 -2.3672 -0.3439
  554SOL    HW2 2215   0.557   2.866   2.678  2.7222  3.1041  1.0930
  554SOL     MW 2216   0.487   2.910   2.707  0.5860  0.1215  0.3933
  555SOL     OW 2217   0.573   2.480   2.587 -0.2639  0.4310  0.6579
  555SOL    HW1 2218   0.581   2.403   2.644  0.2952 -0.0249  0.5186
  555SOL    HW2 2219   0.654   2.460   2.533 -1.5214 -1.1565  0.0334
  555SOL     MW 2220   0.585   2.467   2.588 -0.3560  0.1614  0.5571
  556SOL     OW 2221   1.049   1.906   0.049  0.5813 -0.6085 -0.0298
  556SOL    HW1 2222   1.059   1.847  -0.024  0.9654 -0.4604 -1.1474
  556SOL    HW2 2223   1.127   1.904   0.098 -0.0724 -2.7639 -0.0462
  556SOL     MW 2224   1.060   1.898   0.046  0.5457 -0.8733 -0.1794
  557SOL     OW 2225   1.028   2.716   0.526  0.2075  0.2306  0.7304
  557SOL    HW1 2226   1.030   2.647   0.451  1.6820 -0.5526 -0.6026
  557SOL    HW2 2227   0.968   2.784   0.493  2.0911  2.1344  0.9427
  557SOL     MW 2228   1.020   2.716   0.512  0.6506  0.3785  0.5825
  558SOL     OW 2229   0.176   2.230   3.034  0.4739 -0.3421  0.6775
  558SOL    HW1 2230   0.105   2.186   2.991  0.6731 -0.6133 -0.4065
  558SOL    HW2 2231   0.139   2.275   3.105  0.1940 -2.3886 -0.4547
  558SOL     MW 2232   0.162   2.230   3.038  0.4632 -0.6479  0.3851
  559SOL     OW 2233   1.054   2.353   2.134  0.4318  0.2198  0.3594
  559SOL    HW1 2234   1.144   2.375   2.149 -0.7830 -0.7268 -2.1001
  559SOL    HW2 2235   1.053   2.263   2.174  1.0870 -1.3016 -2.0659
  559SOL     MW 2236   1.066   2.344   2.142  0.3580 -0.1058 -0.2851
  560SOL     OW 2237   2.079   2.682   0.143  0.7453 -0.4264  0.4704
  560SOL    HW1 2238   2.100   2.758   0.089  1.5574 -0.5632 -2.4120
  560SOL    HW2 2239   1.999   2.653   0.096  0.6423 -0.0954  0.1462
  560SOL     MW 2240   2.071   2.688   0.129  0.8388 -0.4008  0.0474
  561SOL     OW 2241   0.495   2.155   0.103  0.3578  0.8217  0.1913
  561SOL    HW1 2242   0.496   2.158   0.008 -0.0739 -1.1439  1.2373
  561SOL    HW2 2243   0.553   2.231   0.133 -1.6352  1.2709 -2.5134
  561SOL     MW 2244   0.503   2.166   0.095  0.0379  0.6217 -0.0276
  562SOL     OW 2245   0.680   2.229   2.331  0.0751  0.2634  0.7007
  562SOL    HW1 2246   0.661   2.297   2.268  0.2817  1.5386  0.4369
  562SOL    HW2 2247   0.768   2.246   2.332 -1.3909  2.0465 -1.1285
  562SOL     MW 2248   0.689   2.240   2.323 -0.0911  0.6669  0.4246
  563SOL     OW 2249   1.238   0.381   0.554  0.3372 -0.0751 -0.4108
  563SOL    HW1 2250   1.164   0.338   0.507 -0.5679 -1.1214  0.6921
  563SOL    HW2 2251   1.228   0.346   0.654 -0.1916 -5.2028  2.8785
  563SOL     MW 2252   1.227   0.371   0.561  0.1480 -0.8897  0.1687
  564SOL     OW 2253   1.030   2.628   2.359 -0.3425  0.1416 -0.1130
  564SOL    HW1 2254   1.044   2.703   2.307  1.1010  0.1576 -1.9660
  564SOL    HW2 2255   1.056   2.666   2.446  1.0217  1.4634 -0.8104
  564SOL     MW 2256   1.035   2.643   2.364  0.0279  0.3181 -0.4495
  565SOL     OW 2257   2.765   2.845   2.542 -0.0152  0.1879  0.0282
  565SOL    HW1 2258   2.720   2.906   2.485 -0.1617 -0.1783 -0.0271
  565SOL    HW2 2259   2.762   2.764   2.485  1.0515 -0.4168 -2.5865
  565SOL     MW 2260   2.759   2.842   2.527  0.1062  0.0598 -0.3241
  566SOL     OW 2261   2.183   1.957   2.348  0.2645 -0.0719  0.3615
  566SOL    HW1 2262   2.173   1.912   2.262  0.2982  0.2098  2.2905
  566SOL    HW2 2263   2.260   2.018   2.344 -1.3271  0.2111 -2.9354
  566SOL     MW 2264   2.192   1.959   2.336  0.0589  0.0026  0.1810
  567SOL     OW 2265   1.211   3.013   0.038 -0.2705 -0.0486  0.6142
  567SOL    HW1 2266   1.180   3.027   0.131 -0.5549 -0.6063 -0.1354
  567SOL    HW2 2267   1.261   2.927   0.029 -0.2868 -3.0383 -1.0032
  567SOL     MW 2268   1.214   3.003   0.049 -0.3102 -0.5166  0.3019
  568SOL     OW 2269   1.670   2.060   2.887 -0.1236 -0.1143 -0.3865
  568SOL    HW1 2270   1.724   2.122   2.947 -1.0611  0.6989  0.4631
  568SOL    HW2 2271   1.727   1.996   2.834 -0.3899 -2.1432  0.5615
  568SOL     MW 2272   1.685   2.060   2.888 -0.2824 -0.2747 -0.1493
  569SOL     OW 2273   0.123   2.281   2.454  0.3016 -0.5708 -0.6268
  569SOL    HW1 2274   0.088   2.328   2.376 -1.0890 -0.2320  1.0017
  569SOL    HW2 2275   0.163   2.358   2.496 -0.9654 -2.7614 -0.0749
  569SOL     MW 2276   0.124   2.298   2.449 -0.0491 -0.8151 -0.3391
  570SOL     OW 2277   1.502   0.339   0.504 -0.6380  0.2033 -0.3376
  570SOL    HW1 2278   1.411   0.356   0.541 -2.0537  1.1981  1.3425
  570SOL    HW2 2279   1.564   0.382   0.564 -3.5607  0.4485 -1.1650
  570SOL     MW 2280   1.498   0.347   0.517 -1.2104  0.3669 -0.2251
  571SOL     OW 2281   1.343   2.381   2.133 -0.0698  0.1394  0.2597
  571SOL    HW1 2282   1.390   2.418   2.211  0.9335 -0.1255  0.9343
  571SOL    HW2 2283   1.409   2.329   2.089 -1.8753  0.1503  1.0515
  571SOL     MW 2284   1.358   2.379   2.138 -0.1756  0.1059  0.4532
  572SOL     OW 2285   1.062   2.570   0.070  0.5579 -0.5579  0.5595
  572SOL    HW1 2286   1.040   2.649   0.020 -1.3937  2.0425 -2.8503
  572SOL    HW2 2287   0.973   2.530   0.077  2.0183  0.5341  0.6747
  572SOL     MW 2288   1.047   2.575   0.064  0.4931 -0.0707  0.1248
  573SOL     OW 2289   1.149   2.242   0.208  0.1015  0.0630  0.0521
  573SOL    HW1 2290   1.236   2.236   0.172 -0.7180 -0.5261  1.6057
  573SOL    HW2 2291   1.141   2.325   0.260  1.4448  1.6100 -0.7576
  573SOL     MW 2292   1.159   2.252   0.210  0.1706  0.1894  0.1503
  574SOL     OW 2293   1.132   2.509   0.321 -0.1134 -0.2810 -0.2177
  574SOL    HW1 2294   1.216   2.544   0.336  2.0007  0.5904 -1.7921
  574SOL    HW2 2295   1.106   2.533   0.230  0.9429 -2.4804  3.2765
  574SOL     MW 2296   1.140   2.517   0.311  0.3049 -0.4562  0.0356
  575SOL     OW 2297   3.068   2.181   1.640 -0.3606 -0.2541  0.1470
  575SOL    HW1 2298   3.083   2.099   1.591  1.7818 -0.5990  0.9883
  575SOL    HW2 2299   3.143   2.188   1.695  0.7524  0.7844 -1.5500
  575SOL     MW 2300   3.079   2.171   1.640  0.0689 -0.1626  0.0341
  576SOL     OW 2301   2.862   1.886   1.981  0.4117 -0.1738 -0.1031
  576SOL    HW1 2302   2.891   1.963   1.925  1.5634 -0.2381  0.2192
  576SOL    HW2 2303   2.789   1.839   1.931 -2.5482 -0.0905 -3.1563
  576SOL     MW 2304   2.856   1.890   1.967  0.1731 -0.1713 -0.4634
  577SOL     OW 2305   2.125   0.205   0.008 -0.0275 -0.6942 -0.1833
  577SOL    HW1 2306   2.064   0.202  -0.063 -2.2556 -1.2836  1.3572
  577SOL    HW2 2307   2.076   0.157   0.080 -0.5473 -1.1668 -3.1011
  577SOL     MW 2308   2.110   0.199   0.008 -0.3901 -0.8344 -0.3650
  578SOL     OW 2309   1.960   2.116   2.377  0.1357  0.5507  0.2320
  578SOL    HW1 2310   1.882   2.079   2.328  2.7606  1.3897 -4.8028
  578SOL    HW2 2311   2.032   2.063   2.343  0.8138  0.8779  0.6936
  578SOL     MW 2312   1.959   2.104   2.366  0.5715  0.7046 -0.3714
  579SOL     OW 2313   0.860   2.447   2.477  0.1878 -0.0773 -0.1720
  579SOL    HW1 2314   0.915   2.401   2.538 -0.3606  1.1152 -0.7576
  579SOL    HW2 2315   0.928   2.507   2.438 -2.0105  1.9970 -2.6652
  579SOL     MW 2316   0.876   2.449   2.480 -0.1746  0.3537 -0.5782
  580SOL     OW 2317   0.957   2.834   3.095  0.0522  0.4965 -0.3481
  580SOL    HW1 2318   1.032   2.891   3.092  0.1868  1.4389 -1.9229
  580SOL    HW2 2319   0.935   2.821   3.004  2.5519  0.3415 -0.1924
  580SOL     MW 2320   0.964   2.840   3.082  0.3998  0.6004 -0.5353
  581SOL     OW 2321   1.122   2.417   1.775 -0.1631  0.6488 -0.2091
  581SOL    HW1 2322   1.192   2.440   1.830 -0.3197  0.0727 -0.5043
  581SOL    HW2 2323   1.154   2.357   1.703  0.7822 -1.8482 -3.0980
  581SOL     MW 2324   1.135   2.412   1.773 -0.0590  0.2433 -0.6292
  582SOL     OW 2325   3.099   2.902   2.678 -0.0504  0.3495 -0.7086
  582SOL    HW1 2326   3.012   2.937   2.711  0.9369 -1.0949  1.3533
  582SOL    HW2 2327   3.163   2.906   2.750  0.8627  1.6439 -2.1718
  582SOL     MW 2328   3.096   2.907   2.692  0.2003  0.3297 -0.6296
  583SOL     OW 2329   1.970   2.385   2.625 -0.0419 -0.4267 -0.5864
  583SOL    HW1 2330   2.064   2.408   2.605  1.0018  0.2462  1.2042
  583SOL    HW2 2331   1.968   2.292   2.651 -1.7974 -1.0969  3.3556
  583SOL     MW 2332   1.982   2.375   2.626 -0.1358 -0.4263  0.1699
  584SOL     OW 2333   0.141   1.901   2.201  0.2422 -0.2334  0.0751
  584SOL    HW1 2334   0.173   1.859   2.285 -2.2204 -1.0847 -1.5417
  584SOL    HW2 2335   0.197   1.976   2.199 -0.5873 -0.7547 -2.1296
  584SOL     MW 2336   0.152   1.905   2.212 -0.1921 -0.4145 -0.4291
  585SOL     OW 2337   1.565   2.698   0.158  0.1542  0.4580  0.1828
  585SOL    HW1 2338   1.544   2.669   0.070  0.8015 -0.2683  2.5827
  585SOL    HW2 2339   1.478   2.725   0.195 -1.5712 -0.3041  0.0526
  585SOL     MW 2340   1.551   2.698   0.151  0.0120  0.2616  0.4823
  586SOL     OW 2341   1.336   2.834   2.574 -0.1638 -0.5909 -0.0354
  586SOL    HW1 2342   1.387   2.784   2.501  0.7359 -1.2216 -1.6574
  586SOL    HW2 2343   1.352   2.930   2.574  1.4943  3.1360 -0.5386
  586SOL     MW 2344   1.345   2.840   2.564  0.1737 -0.1824 -0.3158
  587SOL     OW 2345   1.357   1.466   2.164 -0.4673 -0.4580  0.2885
  587SOL    HW1 2346   1.343   1.397   2.226 -0.9604 -1.0645 -2.2883
  587SOL    HW2 2347   1.297   1.458   2.092  3.6478 -1.6390  0.1237
  587SOL     MW 2348   1.347   1.456   2.163  0.0106 -0.6938 -0.0732
  588SOL     OW 2349   1.367   1.994   2.667 -0.1663  0.2775  0.6393
  588SOL    HW1 2350   1.382   1.908   2.701 -0.3357 -0.6951  2.3834
  588SOL    HW2 2351   1.335   2.043   2.740 -0.0361 -0.5458 -0.2387
  588SOL     MW 2352   1.365   1.989   2.681 -0.1715  0.0406  0.7536
  589SOL     OW 2353   1.417   2.022   0.060  0.2884 -0.1740 -0.5151
  589SOL    HW1 2354   1.430   2.122   0.083 -0.2114  0.3185  0.8539
  589SOL    HW2 2355   1.385   1.979   0.141  0.1677  0.5067 -2.3880
  589SOL     MW 2356   1.414   2.030   0.073  0.2066 -0.0192 -0.5816
  590SOL     OW 2357   0.537   2.659   2.186  0.0361 -0.3472 -0.2479
  590SOL    HW1 2358   0.510   2.694   2.105  2.0000  0.8224  0.3440
  590SOL    HW2 2359   0.599   2.726   2.219 -0.7344  0.4600  2.9646
  590SOL     MW 2360   0.542   2.672   2.180  0.1936 -0.0864  0.2540
  591SOL     OW 2361   2.232   0.695   0.112  0.3931 -0.2223  0.5140
  591SOL    HW1 2362   2.157   0.682   0.168 -4.3408  0.0397  2.2549
  591SOL    HW2 2363   2.207   0.747   0.033  0.1314 -0.1977  1.7967
  591SOL     MW 2364   2.219   0.700   0.109 -0.2661 -0.1845  0.9129
  592SOL     OW 2365   1.678   2.950   0.825 -0.2097 -0.3975  0.0391
  592SOL    HW1 2366   1.683   3.044   0.842 -0.4351 -2.2433  0.6631
  592SOL    HW2 2367   1.761   2.929   0.790 -2.1660 -1.4624 -1.0885
  592SOL     MW 2368   1.690   2.960   0.823 -0.4976 -0.7815 -0.0273
  593SOL     OW 2369   1.959   0.698   0.798 -0.2360  0.0944 -0.1735
  593SOL    HW1 2370   1.879   0.706   0.738 -2.6673  1.7752  0.7148
  593SOL    HW2 2371   2.003   0.615   0.775  0.9315 -0.9614  2.0515
  593SOL     MW 2372   1.954   0.688   0.787 -0.4027  0.1768  0.2373
  594SOL     OW 2373   2.754   1.029   1.407  1.3261  0.1323  0.2604
  594SOL    HW1 2374   2.836   1.067   1.375  1.5161  0.5565  2.5469
  594SOL    HW2 2375   2.696   1.036   1.329 -1.5457 -1.1663 -1.1345
  594SOL     MW 2376   2.757   1.035   1.393  0.9723  0.0169  0.3781
  595SOL     OW 2377   0.500   0.918   0.841  0.4294  0.3137 -0.1897
  595SOL    HW1 2378   0.483   0.989   0.782  0.2452  0.5668  0.7013
  595SOL    HW2 2379   0.535   0.966   0.908 -0.5685  0.0109 -0.4605
  595SOL     MW 2380   0.503   0.934   0.842  0.2734  0.3071 -0.1079
  596SOL     OW 2381   2.460   1.348   0.488 -0.0655  0.3307  0.2121
  596SOL    HW1 2382   2.472   1.436   0.450  0.4131 -0.3277  0.1045
  596SOL    HW2 2383   2.505   1.351   0.571  1.0744  2.1022 -0.5894
  596SOL     MW 2384   2.468   1.360   0.494  0.1480  0.4776  0.0922
  597SOL     OW 2385   2.229   0.623   1.556  1.1579  0.0850  0.3576
  597SOL    HW1 2386   2.255   0.560   1.622  4.5930  1.1356  1.3737
  597SOL    HW2 2387   2.153   0.575   1.518 -2.0512 -3.1934 -1.6876
  597SOL     MW 2388   2.222   0.608   1.559  1.1877 -0.2089  0.2218
  598SOL     OW 2389   2.599   1.046   2.893  0.4531 -0.1385  0.3529
  598SOL    HW1 2390   2.596   0.950   2.878 -4.7446 -0.5287 -0.8108
  598SOL    HW2 2391   2.695   1.063   2.893 -0.6427 -1.6005  0.9452
  598SOL     MW 2392   2.611   1.036   2.891 -0.3773 -0.3829  0.2775
  599SOL     OW 2393   3.081   0.418   2.259  0.0987  0.3679  0.1613
  599SOL    HW1 2394   3.086   0.423   2.358  0.7568 -0.1247 -2.9544
  599SOL    HW2 2395   3.091   0.504   2.220  0.0688  0.6916 -2.5493
  599SOL     MW 2396   3.083   0.430   2.267  0.1815  0.3456 -0.6074
  600SOL     OW 2397   1.848   1.710   0.825 -0.0802  0.6389  0.1417
  600SOL    HW1 2398   1.883   1.745   0.905 -0.7618  0.7369 -1.1401
  600SOL    HW2 2399   1.768   1.762   0.812  0.2903  0.4440 -2.0845
  600SOL     MW 2400   1.842   1.721   0.834 -0.1213  0.6261 -0.3212
  601SOL     OW 2401   2.556   0.729   0.822  0.3074  0.5015  0.3619
  601SOL    HW1 2402   2.525   0.720   0.912 -0.5716 -2.6678 -0.9864
  601SOL    HW2 2403   2.505   0.664   0.760 -1.6514 -1.0113 -0.3434
  601SOL     MW 2404   2.545   0.719   0.826 -0.0670 -0.1162  0.0910
  602SOL     OW 2405   2.267   1.899   0.750 -0.2874 -0.0888 -0.0221
  602SOL    HW1 2406   2.199   1.838   0.702 -1.4233 -0.7768 -1.3891
  602SOL    HW2 2407   2.227   1.990   0.751 -1.6666  0.7860 -0.6976
  602SOL     MW 2408   2.253   1.903   0.744 -0.6192 -0.0642 -0.2916
  603SOL     OW 2409   2.958   1.392   1.951  0.2517 -0.0076 -0.4360
  603SOL    HW1 2410   2.929   1.430   2.034  0.0903 -2.1655  2.5412
  603SOL    HW2 2411   3.006   1.309   1.975 -1.3112  1.8545 -0.1433
  603SOL     MW 2412   2.961   1.386   1.965  0.0242 -0.0466 -0.0046
  604SOL     OW 2413   2.018   1.380   0.386  0.2982 -0.2538  0.5839
  604SOL    HW1 2414   2.074   1.347   0.458  0.5778  0.3685 -0.2755
  604SOL    HW2 2415   1.952   1.435   0.426 -1.7081 -0.7813 -1.8337
  604SOL     MW 2416   2.017   1.382   0.401  0.0704 -0.2413  0.1515
  605SOL     OW 2417   2.409   1.452   0.811  0.1399  0.0323 -0.4536
  605SOL    HW1 2418   2.427   1.520   0.747  1.2370 -1.7129 -0.1242
  605SOL    HW2 2419   2.453   1.372   0.789 -0.8651 -0.9445  0.8279
  605SOL     MW 2420   2.418   1.450   0.800  0.1520 -0.3268 -0.2410
  606SOL     OW 2421   2.655   1.750   1.806  0.4650 -0.8562 -0.3098
  606SOL    HW1 2422   2.561   1.749   1.823 -0.4530 -0.0748 -0.9098
  606SOL    HW2 2423   2.683   1.653   1.788  1.8035 -2.1939  1.8646
  606SOL     MW 2424   2.646   1.737   1.806  0.5205 -0.9296 -0.1021
  607SOL     OW 2425   2.376   0.995   3.062  0.2044 -0.5740 -0.0096
  607SOL    HW1 2426   2.453   1.021   3.010 -0.9608  1.0311 -0.0623
  607SOL    HW2 2427   2.389   0.996   3.162  0.1937 -1.2642  1.4415
  607SOL     MW 2428   2.388   0.999   3.068  0.0492 -0.4533  0.1749
  608SOL     OW 2429   1.857   0.229   0.526  0.5378  0.4104  0.0591
  608SOL    HW1 2430   1.851   0.252   0.437  0.5032  3.2109  2.2089
  608SOL    HW2 2431   1.800   0.147   0.540  2.7436 -3.3175  2.8610
  608SOL     MW 2432   1.849   0.221   0.516  0.8243  0.2880  0.7124
  609SOL     OW 2433   2.126   1.888   3.085 -0.4935 -0.5840  0.0488
  609SOL    HW1 2434   2.067   1.836   3.027 -0.4785  1.9590  0.0207
  609SOL    HW2 2435   2.099   1.874   3.178 -0.2305  0.2771  2.2287
  609SOL     MW 2436   2.114   1.880   3.089 -0.4568 -0.1349  0.3327
  610SOL     OW 2437   1.840   0.923   1.195  0.2559 -0.4457 -0.0964
  610SOL    HW1 2438   1.855   0.865   1.123  0.4862 -1.5065  1.4172
  610SOL    HW2 2439   1.744   0.908   1.213  0.0440 -0.7474  0.0625
  610SOL     MW 2440   1.830   0.913   1.188  0.2584 -0.6255  0.1243
  611SOL     OW 2441   2.481   1.640   0.598 -0.3003  0.2045  0.5780
  611SOL    HW1 2442   2.542   1.619   0.523  1.3691  2.7277  0.1602
  611SOL    HW2 2443   2.467   1.731   0.579  0.1858 -3.2822 -0.0507
  611SOL     MW 2444   2.487   1.649   0.586 -0.0159  0.0774  0.4399
  612SOL     OW 2445   2.939   2.951   0.348 -0.4045 -0.4377 -0.2106
  612SOL    HW1 2446   2.923   2.978   0.436 -1.4545  0.6267 -0.2490
  612SOL    HW2 2447   2.996   2.874   0.347  1.6449 -3.4678  0.3712
  612SOL     MW 2448   2.945   2.944   0.360 -0.2727 -0.6970 -0.1389
  613SOL     OW 2449   1.464   1.135   1.015 -0.5428 -0.4147  0.1446
  613SOL    HW1 2450   1.469   1.228   1.025 -0.6232 -0.7880 -2.8561
  613SOL    HW2 2451   1.514   1.083   1.076  0.9859 -1.2362 -2.0021
  613SOL     MW 2452   1.471   1.141   1.024 -0.3517 -0.5723 -0.5346
  614SOL     OW 2453   2.036   0.461   1.401 -0.1129 -0.0565 -0.7545
  614SOL    HW1 2454   2.022   0.423   1.483 -0.0637  0.7163 -0.6679
  614SOL    HW2 2455   1.953   0.502   1.384  0.3716  0.6690 -2.7170
  614SOL     MW 2456   2.023   0.461   1.409 -0.0425  0.1412 -1.0020
  615SOL     OW 2457   2.405   0.722   0.324  0.2851  0.6804  0.0207
  615SOL    HW1 2458   2.474   0.663   0.355 -0.0859  0.8549  0.2054
  615SOL    HW2 2459   2.383   0.694   0.228 -1.8105  1.0622 -2.1615
  615SOL     MW 2460   2.411   0.711   0.316 -0.0404  0.7538 -0.2428
  616SOL     OW 2461   2.558   0.421   1.606  0.0955  0.3014 -0.2932
  616SOL    HW1 2462   2.574   0.342   1.556  1.1000  0.2338  3.5414
  616SOL    HW2 2463   2.535   0.492   1.548 -1.1168 -0.3485 -1.1973
  616SOL     MW 2464   2.557   0.420   1.592  0.0681  0.2067  0.0935
  617SOL     OW 2465   2.866   0.543   1.869 -0.9521 -0.1146  0.3488
  617SOL    HW1 2466   2.795   0.554   1.932 -0.3184  0.8544 -0.3466
  617SOL    HW2 2467   2.872   0.453   1.855 -0.8435  1.7798 -0.5067
  617SOL     MW 2468   2.858   0.532   1.875 -0.8542  0.2632  0.1442
  618SOL     OW 2469   2.799   0.225   2.008  0.5998 -0.1188 -0.3158
  618SOL    HW1 2470   2.752   0.270   2.082 -5.6774 -2.9486  2.2841
  618SOL    HW2 2471   2.893   0.214   2.050  0.9493  0.0382  1.4690
  618SOL     MW 2472   2.805   0.230   2.023 -0.1823 -0.4715  0.2627
  619SOL     OW 2473   2.715   0.705   0.105 -0.2895 -0.0284 -0.4269
  619SOL    HW1 2474   2.741   0.792   0.084 -1.8863 -1.1003  1.7985
  619SOL    HW2 2475   2.791   0.659   0.148  0.6997 -3.1892 -1.8455
  619SOL     MW 2476   2.729   0.710   0.108 -0.3696 -0.5868 -0.3205
  620SOL     OW 2477   2.209   1.051   0.950  0.2387 -0.4457  0.0521
  620SOL    HW1 2478   2.302   1.046   0.923  0.5438  0.8314 -0.2366
  620SOL    HW2 2479   2.158   0.996   0.893  1.4685  1.1099 -1.4941
  620SOL     MW 2480   2.214   1.043   0.939  0.4412 -0.0720 -0.1900
  621SOL     OW 2481   1.507   2.205   2.002  0.2317  0.3815  0.2652
  621SOL    HW1 2482   1.445   2.134   2.028  1.9462  2.8363  1.7072
  621SOL    HW2 2483   1.601   2.185   2.015  0.0923  1.3172 -0.7192
  621SOL     MW 2484   1.511   2.193   2.007  0.4395  0.8288  0.3255
  622SOL     OW 2485   2.622   0.271   0.225  0.0434 -0.0479 -0.6366
  622SOL    HW1 2486   2.708   0.301   0.263  0.2536  1.5048 -0.8241
  622SOL    HW2 2487   2.644   0.178   0.234 -1.1399  1.8233 -0.1559
  622SOL     MW 2488   2.636   0.262   0.231 -0.0850  0.4039 -0.5979
  623SOL     OW 2489   2.368   2.759   0.849 -0.7911  0.0645 -0.4475
  623SOL    HW1 2490   2.438   2.816   0.846 -1.0209 -1.1678 -0.1071
  623SOL    HW2 2491   2.314   2.787   0.931  0.3327  1.6958 -1.1591
  623SOL     MW 2492   2.370   2.770   0.859 -0.6732  0.1171 -0.4965
  624SOL     OW 2493   2.153   1.528   3.068  0.1513 -0.1243 -0.0275
  624SOL    HW1 2494   2.078   1.469   3.050  3.6070  0.2460  0.7632
  624SOL    HW2 2495   2.127   1.610   3.043 -0.7935 -1.8726 -0.2903
  624SOL     MW 2496   2.139   1.531   3.062  0.4826 -0.3061  0.0421
  625SOL     OW 2497   2.187   1.884   1.011 -0.1051  0.4446  0.6676
  625SOL    HW1 2498   2.225   1.808   1.057  0.4272  0.3247 -0.4648
  625SOL    HW2 2499   2.221   1.880   0.919 -1.3062 -0.6549 -1.4510
  625SOL     MW 2500   2.197   1.873   1.005 -0.1933  0.2837  0.2387
  626SOL     OW 2501   0.182   1.821   2.466  0.8036  0.2675  0.4726
  626SOL    HW1 2502   0.121   1.752   2.493  1.7264  0.5662 -5.5001
  626SOL    HW2 2503   0.127   1.898   2.468 -2.0240 -0.8347 -3.4762
  626SOL     MW 2504   0.167   1.822   2.470  0.5523  0.1614 -0.8365
  627SOL     OW 2505   2.578   0.834   2.573  0.9352 -0.8646  0.2596
  627SOL    HW1 2506   2.500   0.892   2.586 -1.4818 -0.9333  4.4980
  627SOL    HW2 2507   2.556   0.783   2.494 -1.9675  0.2332  0.3002
  627SOL     MW 2508   2.565   0.835   2.564  0.2333 -0.7289  0.8242
  628SOL     OW 2509   2.320   1.363   1.284  0.1435  0.6256  0.2098
  628SOL    HW1 2510   2.258   1.295   1.255  1.3029  1.6952  1.2486
  628SOL    HW2 2511   2.386   1.354   1.218 -2.1927 -0.9356 -0.9921
  628SOL     MW 2512   2.320   1.353   1.271 -0.0118  0.5607  0.1883
  629SOL     OW 2513   1.809   0.612   1.310  0.2451  0.3865  0.1907
  629SOL    HW1 2514   1.840   0.664   1.236  1.3747 -2.3600  0.5862
  629SOL    HW2 2515   1.719   0.584   1.286  0.9713  1.4077 -0.1992
  629SOL     MW 2516   1.801   0.615   1.297  0.4899  0.1589  0.1914
  630SOL     OW 2517   2.422   1.889   3.035  0.1201  0.1508  0.2941
  630SOL    HW1 2518   2.427   1.979   3.009 -4.2417 -2.9100 -0.5821
  630SOL    HW2 2519   2.329   1.885   3.056  0.1095 -0.4030  1.2042
  630SOL     MW 2520   2.410   1.900   3.035 -0.4568 -0.3261  0.2986
  631SOL     OW 2521   2.090   1.816   1.511  0.3830  0.6067 -0.1920
  631SOL    HW1 2522   2.081   1.736   1.556 -2.2198  3.2709  0.4844
  631SOL    HW2 2523   2.012   1.869   1.531 -0.9113  0.3603 -2.0487
  631SOL     MW 2524   2.079   1.813   1.519 -0.1312  0.9257 -0.3478
  632SOL     OW 2525   0.307   1.880   1.549  0.3455 -0.3410 -0.2875
  632SOL    HW1 2526   0.221   1.923   1.547  6.0206  1.0340 -0.4995
  632SOL    HW2 2527   0.292   1.793   1.519  0.7842  1.9744 -0.2309
  632SOL     MW 2528   0.293   1.874   1.545  1.1522  0.1459 -0.3080
  633SOL     OW 2529   2.585   0.519   0.397 -0.0863 -0.2176 -0.0609
  633SOL    HW1 2530   2.664   0.523   0.453  0.3709 -2.7586 -2.1822
  633SOL    HW2 2531   2.587   0.425   0.365 -2.0388 -0.0177 -0.7679
  633SOL     MW 2532   2.595   0.507   0.400 -0.2836 -0.5265 -0.4341
  634SOL     OW 2533   2.629   3.093   0.614  0.4322 -0.3843 -0.4489
  634SOL    HW1 2534   2.643   3.184   0.594 -0.7833 -0.8888  0.2341
  634SOL    HW2 2535   2.606   3.047   0.533  2.2929 -0.0781 -0.5547
  634SOL     MW 2536   2.628   3.099   0.601  0.5173 -0.4105 -0.3727
  635SOL     OW 2537   2.630   0.050   1.899  0.2819  0.2643 -0.1096
  635SOL    HW1 2538   2.697   0.009   1.835 -0.3065  1.2010  0.1844
  635SOL    HW2 2539   2.683   0.114   1.948  1.5047 -0.1444 -0.2908
  635SOL     MW 2540   2.646   0.053   1.897  0.3656  0.3340 -0.0947
  636SOL     OW 2541   2.698   1.720   0.757 -0.2816 -0.2974 -0.5570
  636SOL    HW1 2542   2.621   1.718   0.703  0.0616 -1.3352 -1.5982
  636SOL    HW2 2543   2.690   1.781   0.832 -0.8775 -0.6083 -0.7342
  636SOL     MW 2544   2.687   1.727   0.760 -0.3150 -0.4753 -0.7177
  637SOL     OW 2545   2.851   1.487   0.683  0.0429 -0.1686  0.1087
  637SOL    HW1 2546   2.928   1.539   0.658  0.5522 -0.4468 -0.9804
  637SOL    HW2 2547   2.796   1.555   0.733 -0.4794  0.9137  0.6321
  637SOL     MW 2548   2.854   1.503   0.687  0.0412 -0.0625  0.0340
  638SOL     OW 2549   2.801   0.523   0.578  0.6244 -0.0078 -1.0765
  638SOL    HW1 2550   2.869   0.568   0.532 -2.8615 -0.2438 -0.3900
  638SOL    HW2 2551   2.803   0.540   0.673 -0.2518 -1.2036 -1.8962
  638SOL     MW 2552   2.810   0.531   0.584  0.0489 -0.1967 -1.0941
  639SOL     OW 2553   1.745   3.076   0.539  0.7638 -0.6260 -0.0037
  639SOL    HW1 2554   1.647   3.051   0.540 -0.7916  0.7793  1.5890
  639SOL    HW2 2555   1.784   3.007   0.479  1.0626  1.7457 -0.6612
  639SOL     MW 2556   1.737   3.063   0.532  0.5980 -0.1276  0.1197
  640SOL     OW 2557   0.286   1.415   0.098  0.0825  0.5041 -0.3651
  640SOL    HW1 2558   0.333   1.442   0.012  1.0511 -0.7287  1.4130
  640SOL    HW2 2559   0.293   1.321   0.092  0.2372  1.3220  0.0154
  640SOL     MW 2560   0.293   1.406   0.086  0.2307  0.4494 -0.0803
  641SOL     OW 2561   2.230   0.352   0.410 -0.0450 -0.3930 -0.0160
  641SOL    HW1 2562   2.272   0.299   0.347  0.6592  0.6870  0.9570
  641SOL    HW2 2563   2.192   0.287   0.473  3.5456 -0.3297  1.3050
  641SOL     MW 2564   2.230   0.337   0.410  0.5216 -0.2421  0.2866
  642SOL     OW 2565   0.079   0.023   0.547  0.8343 -0.5997 -0.3542
  642SOL    HW1 2566   0.068   0.111   0.500  0.3119  1.2972  1.6277
  642SOL    HW2 2567   0.006   0.006   0.609  1.0053 -0.0815 -0.8373
  642SOL     MW 2568   0.068   0.033   0.549  0.7879 -0.2810 -0.1564
  643SOL     OW 2569   2.090   0.326   1.652  0.2171 -0.4668  0.4364
  643SOL    HW1 2570   2.013   0.301   1.707 -0.3805 -0.3361  0.5150
  643SOL    HW2 2571   2.121   0.245   1.615  1.3433 -1.8759  1.8681
  643SOL     MW 2572   2.084   0.312   1.654  0.2869 -0.6355  0.6356
  644SOL     OW 2573   2.632   1.890   0.966 -0.0381  0.0937 -0.2607
  644SOL    HW1 2574   2.632   1.820   1.033 -0.5659 -1.0292 -0.3749
  644SOL    HW2 2575   2.567   1.962   0.980  0.6281  3.2940  1.2986
  644SOL     MW 2576   2.623   1.890   0.977 -0.0198  0.3678 -0.0700
  645SOL     OW 2577   2.784   0.868   0.758  0.6282  0.4646  0.2011
  645SOL    HW1 2578   2.875   0.828   0.766  1.2882  1.5274  1.9920
  645SOL    HW2 2579   2.721   0.799   0.758 -1.5958  1.3355  0.4590
  645SOL     MW 2580   2.788   0.854   0.759  0.4219  0.7197  0.4714
  646SOL     OW 2581   0.162   2.243   0.853  0.0209  0.4706  0.1466
  646SOL    HW1 2582   0.162   2.140   0.850  0.3385  0.4735  0.8549
  646SOL    HW2 2583   0.129   2.276   0.771  0.0572 -0.5207  1.3608
  646SOL     MW 2584   0.157   2.234   0.842  0.0676  0.3402  0.4003
  647SOL     OW 2585   2.777   0.535   2.999  0.2806  0.3893 -0.0969
  647SOL    HW1 2586   2.719   0.461   3.022 -1.1773 -2.4816 -0.1313
  647SOL    HW2 2587   2.756   0.592   3.075  0.9039 -1.3048  0.0646
  647SOL     MW 2588   2.767   0.533   3.012  0.1705 -0.2130 -0.0802
  648SOL     OW 2589   2.229   0.648   1.131 -0.1553 -0.2737  0.1381
  648SOL    HW1 2590   2.248   0.568   1.179 -2.9174  1.9797 -1.1985
  648SOL    HW2 2591   2.241   0.719   1.194  1.0800 -1.8394  0.3291
  648SOL     MW 2592   2.233   0.647   1.146 -0.3568 -0.1830 -0.0131
  649SOL     OW 2593   2.398   2.706   1.263 -0.0836  0.2506  0.1305
  649SOL    HW1 2594   2.491   2.727   1.260 -1.9404 -1.0491  0.9294
  649SOL    HW2 2595   2.398   2.611   1.238 -1.3467 -2.7416  5.2597
  649SOL     MW 2596   2.411   2.696   1.260 -0.4952 -0.3157  0.9126
  650SOL     OW 2597   2.765   0.254   0.559 -0.4440  0.4387 -0.0167
  650SOL    HW1 2598   2.791   0.347   0.567  0.2786 -0.3824  1.1499
  650SOL    HW2 2599   2.835   0.214   0.507 -1.7249  1.8097 -3.9302
  650SOL     MW 2600   2.777   0.261   0.553 -0.5176  0.5113 -0.3791
  651SOL     OW 2601   0.041   0.435   1.025  0.7375 -0.0660 -0.2298
  651SOL    HW1 2602   0.065   0.498   0.950 -2.0697  0.4027  0.0462
  651SOL    HW2 2603  -0.035   0.484   1.061 -0.7203  0.9957  1.6061
  651SOL     MW 2604   0.034   0.450   1.020  0.1748  0.1359  0.0489
  652SOL     OW 2605   2.389   1.427   3.009 -0.1132  0.5765 -0.0102
  652SOL    HW1 2606   2.445   1.493   2.970 -1.4666  0.0303 -0.4705
  652SOL    HW2 2607   2.299   1.467   3.029 -1.3462  1.6076 -0.4551
  652SOL     MW 2608   2.385   1.441   3.006 -0.4544  0.6405 -0.1296
  653SOL     OW 2609   1.826   0.328   0.271 -0.0100  0.2345 -0.6483
  653SOL    HW1 2610   1.830   0.261   0.199 -1.0419  0.3591 -0.3735
  653SOL    HW2 2611   1.859   0.407   0.230 -0.8308  1.9849  0.0524
  653SOL     MW 2612   1.831   0.330   0.256 -0.2545  0.4819 -0.5196
  654SOL     OW 2613   2.435   0.994   0.784  0.2584  0.6171 -0.2264
  654SOL    HW1 2614   2.398   0.991   0.698  0.6281  0.4884 -1.9038
  654SOL    HW2 2615   2.467   0.899   0.793 -0.0991 -3.4293  0.1968
  654SOL     MW 2616   2.435   0.981   0.774  0.2600  0.0662 -0.3919
  655SOL     OW 2617   2.889   0.910   0.323 -0.3004 -0.0217 -0.8165
  655SOL    HW1 2618   2.851   0.970   0.387  0.7943 -0.1044 -1.6308
  655SOL    HW2 2619   2.956   0.863   0.372  0.4423  0.4555 -0.4041
  655SOL     MW 2620   2.893   0.912   0.338 -0.0580  0.0303 -0.8696
  656SOL     OW 2621   1.819   2.641   1.412 -0.4670  0.1001  0.1403
  656SOL    HW1 2622   1.873   2.719   1.404 -0.1474 -0.5702  1.5233
  656SOL    HW2 2623   1.868   2.570   1.366  0.3237  0.3900 -0.8613
  656SOL     MW 2624   1.833   2.642   1.405 -0.3205  0.0499  0.1906
  657SOL     OW 2625   0.085   1.793   1.156  0.8024 -0.1242 -0.4192
  657SOL    HW1 2626   0.162   1.848   1.142  1.5906 -0.1389  0.7685
  657SOL    HW2 2627   0.111   1.727   1.217 -1.6704 -1.8535 -2.3732
  657SOL     MW 2628   0.098   1.791   1.162  0.5801 -0.3543 -0.5203
  658SOL     OW 2629   2.675   1.364   0.226 -0.9049  0.4118 -0.2495
  658SOL    HW1 2630   2.671   1.289   0.281  0.2050 -0.7978  1.7131
  658SOL    HW2 2631   2.693   1.433   0.292 -0.2280  3.8999 -0.3036
  658SOL     MW 2632   2.677   1.364   0.242 -0.6692  0.7124  0.0023
  659SOL     OW 2633   2.145   1.460   1.034 -0.0305 -0.2068 -0.0987
  659SOL    HW1 2634   2.217   1.393   1.022 -1.6605 -2.3720  1.0457
  659SOL    HW2 2635   2.105   1.436   1.112 -1.0001  1.4160 -0.5919
  659SOL     MW 2636   2.150   1.448   1.043 -0.3735 -0.2784 -0.0128
  660SOL     OW 2637   2.094   1.563   1.638 -0.3729 -0.5988 -0.8086
  660SOL    HW1 2638   2.080   1.565   1.732 -0.2972 -0.5071 -0.8969
  660SOL    HW2 2639   2.020   1.501   1.624 -0.0855 -2.9990  4.2258
  660SOL     MW 2640   2.083   1.555   1.648 -0.3250 -0.9034 -0.1560
  661SOL     OW 2641   2.404   0.986   0.256 -0.5340  0.2269 -0.1410
  661SOL    HW1 2642   2.488   1.032   0.283  0.1364 -1.4956 -0.5324
  661SOL    HW2 2643   2.410   0.885   0.273  0.7248 -0.3728  2.0624
  661SOL     MW 2644   2.416   0.979   0.262 -0.2795 -0.0795  0.0981
  662SOL     OW 2645   2.585   2.951   0.857  0.1848  0.5108 -0.5957
  662SOL    HW1 2646   2.537   3.018   0.904  0.2175 -1.7784 -0.5160
  662SOL    HW2 2647   2.620   3.003   0.781  0.4534 -1.1796  1.3900
  662SOL     MW 2648   2.584   2.966   0.853  0.2245 -0.0143 -0.3232
  663SOL     OW 2649   2.701   1.575   0.433  0.3960 -0.5944 -0.3673
  663SOL    HW1 2650   2.729   1.635   0.363  0.5635 -0.3084 -3.2252
  663SOL    HW2 2651   2.764   1.583   0.499 -2.5482  0.4686 -2.2432
  663SOL     MW 2652   2.713   1.584   0.433  0.0296 -0.4164 -0.9919
  664SOL     OW 2653   2.534   1.483   1.509  0.4678 -0.2768  0.4571
  664SOL    HW1 2654   2.537   1.580   1.510 -0.6599  0.6651 -1.8204
  664SOL    HW2 2655   2.441   1.461   1.531  1.5948 -0.3043  0.7749
  664SOL     MW 2656   2.522   1.493   1.512  0.4677 -0.1562  0.1986
  665SOL     OW 2657   2.850   0.836   2.106 -0.2037 -0.3291 -0.6116
  665SOL    HW1 2658   2.798   0.866   2.031 -2.8167  0.9052  2.9919
  665SOL    HW2 2659   2.916   0.774   2.073 -0.0351 -0.5807 -1.8148
  665SOL     MW 2660   2.852   0.832   2.092 -0.5262 -0.1994 -0.2949
  666SOL     OW 2661   2.773   3.021   1.697  0.1587 -0.0262  0.0326
  666SOL    HW1 2662   2.789   3.037   1.607 -1.5245 -0.6582 -0.8353
  666SOL    HW2 2663   2.719   2.942   1.701 -0.4283 -0.8413  0.0766
  666SOL     MW 2664   2.768   3.013   1.686 -0.1408 -0.2171 -0.0761
  667SOL     OW 2665   2.003   2.737   1.746 -0.0207  0.2923 -0.2010
  667SOL    HW1 2666   2.046   2.696   1.822 -0.1077  0.4403 -3.0127
  667SOL    HW2 2667   2.062   2.805   1.717 -1.1052  0.0404 -0.4014
  667SOL     MW 2668   2.016   2.740   1.753 -0.1752  0.2786 -0.5984
  668SOL     OW 2669   2.773   0.570   0.849 -0.0425  0.1544 -0.3223
  668SOL    HW1 2670   2.816   0.614   0.929 -0.2926  1.1921 -1.0107
  668SOL    HW2 2671   2.693   0.615   0.831 -1.3110  1.0606  0.5389
  668SOL     MW 2672   2.768   0.582   0.857 -0.2428  0.4109 -0.2995
  669SOL     OW 2673   0.207   0.984   0.699 -0.3477 -0.4748 -0.6667
  669SOL    HW1 2674   0.176   1.017   0.786  2.1531  0.9724 -1.7903
  669SOL    HW2 2675   0.286   1.047   0.687 -0.3061  0.0707  1.0492
  669SOL     MW 2676   0.213   0.997   0.709 -0.0122 -0.2119 -0.5886
  670SOL     OW 2677   2.894   0.337   0.269 -0.5341 -0.0213  0.1799
  670SOL    HW1 2678   2.903   0.299   0.178 -0.0678  1.7817 -1.0963
  670SOL    HW2 2679   2.903   0.431   0.249  3.5722  1.9304 -1.2934
  670SOL     MW 2680   2.897   0.344   0.254  0.0692  0.4741 -0.1829
  671SOL     OW 2681   2.007   3.036   1.503  0.4518  0.4123 -0.3150
  671SOL    HW1 2682   1.953   2.998   1.429 -0.9051 -1.5137 -1.0291
  671SOL    HW2 2683   1.951   3.040   1.582 -1.3719 -3.9159 -1.4430
  671SOL     MW 2684   1.992   3.031   1.504  0.0322 -0.4129 -0.5581
  672SOL     OW 2685   1.884   1.752   1.307 -0.1673  0.4294 -0.2868
  672SOL    HW1 2686   1.888   1.836   1.359  0.9696 -0.9939 -2.4756
  672SOL    HW2 2687   1.905   1.780   1.208 -0.3674  1.0637 -1.8706
  672SOL     MW 2688   1.887   1.767   1.300 -0.0437  0.3253 -0.7846
  673SOL     OW 2689   2.787   1.083   0.572  0.0140 -0.4037 -0.0847
  673SOL    HW1 2690   2.797   1.006   0.638  1.7918 -3.9558  1.2974
  673SOL    HW2 2691   2.859   1.136   0.592 -0.7707 -2.3756  1.1488
  673SOL     MW 2692   2.798   1.080   0.583  0.1450 -1.1325  0.2604
  674SOL     OW 2693   2.461   0.007   1.256 -0.2023  0.0933 -0.3780
  674SOL    HW1 2694   2.407   0.036   1.179 -0.6055 -0.1128 -1.7751
  674SOL    HW2 2695   2.467  -0.084   1.236 -1.5605 -1.1823 -0.3276
  674SOL     MW 2696   2.455  -0.001   1.243 -0.4347 -0.1022 -0.5557
  675SOL     OW 2697   3.026   0.893   1.099  0.0020  0.3000 -0.3065
  675SOL    HW1 2698   3.082   0.914   1.177 -0.8193 -0.5948  1.2560
  675SOL    HW2 2699   3.054   0.954   1.021 -0.4547 -2.4511 -2.5867
  675SOL     MW 2700   3.037   0.904   1.099 -0.1666 -0.1811 -0.4012
  676SOL     OW 2701   2.899   1.441   1.703 -0.4859 -0.1296 -0.2546
  676SOL    HW1 2702   2.864   1.358   1.668  1.3789  0.6140 -0.2319
  676SOL    HW2 2703   2.925   1.426   1.791  0.5588 -2.7722  1.5326
  676SOL     MW 2704   2.898   1.428   1.710 -0.1021 -0.3802 -0.0158
  677SOL     OW 2705   2.454   0.606   1.961  0.1707  0.8919 -0.3665
  677SOL    HW1 2706   2.404   0.544   1.897  0.1715 -0.8790 -0.5227
  677SOL    HW2 2707   2.463   0.685   1.908  2.4271  2.4069 -2.3779
  677SOL     MW 2708   2.448   0.608   1.946  0.4685  0.8581 -0.6525
  678SOL     OW 2709   2.404   1.608   0.327 -0.0859 -0.6496 -0.3172
  678SOL    HW1 2710   2.323   1.615   0.378  1.0135 -4.0207  1.6490
  678SOL    HW2 2711   2.379   1.542   0.260 -1.5168  0.8531  1.6100
  678SOL     MW 2712   2.390   1.600   0.325 -0.1296 -0.8961  0.1965
  679SOL     OW 2713   2.256   0.406   1.254 -0.1435 -0.0338  0.3616
  679SOL    HW1 2714   2.226   0.322   1.215 -0.0744  1.7123 -1.2940
  679SOL    HW2 2715   2.195   0.426   1.323  3.0125  1.9674 -0.7650
  679SOL     MW 2716   2.244   0.398   1.258  0.2820  0.4606 -0.0055
  680SOL     OW 2717   2.466   0.103   1.510  0.7529  0.3523  0.0109
  680SOL    HW1 2718   2.372   0.134   1.488 -1.5824 -1.6925  2.1325
  680SOL    HW2 2719   2.473   0.049   1.436  0.7535 -0.7318 -0.4588
  680SOL     MW 2720   2.454   0.100   1.498  0.4449 -0.0605  0.2288
  681SOL     OW 2721   0.248   0.601   1.464  0.3244 -0.0884  0.1517
  681SOL    HW1 2722   0.237   0.547   1.541  2.0586 -1.4967 -1.3937
  681SOL    HW2 2723   0.237   0.538   1.385 -0.4761 -1.8991  1.7790
  681SOL     MW 2724   0.245   0.586   1.463  0.4476 -0.5131  0.1625
  682SOL     OW 2725   0.077   2.837   1.542 -0.6335  0.0091  0.0165
  682SOL    HW1 2726   0.143   2.909   1.537  0.0168  1.7215 -1.0409
  682SOL    HW2 2727   0.023   2.890   1.593 -1.3304  1.7351 -0.2920
  682SOL     MW 2728   0.078   2.853   1.548 -0.6397  0.4628 -0.1637
  683SOL     OW 2729   2.076   0.793   3.004 -0.1307  0.2411 -0.0277
  683SOL    HW1 2730   2.022   0.747   3.067  0.4310 -1.2035 -1.7771
  683SOL    HW2 2731   2.073   0.888   3.023  0.2298  2.6099 -1.4160
  683SOL     MW 2732   2.068   0.800   3.015 -0.0091  0.3630 -0.4417
  684SOL     OW 2733   2.056   1.743   0.650 -0.7276  0.3674  0.5251
  684SOL    HW1 2734   2.077   1.687   0.571  0.5587  0.4781  1.0169
  684SOL    HW2 2735   1.970   1.716   0.688  1.2129 -0.6207  0.5626
  684SOL     MW 2736   2.047   1.732   0.645 -0.3019  0.2517  0.5949
  685SOL     OW 2737   2.685   1.705   1.185 -0.0723  0.2142  0.1335
  685SOL    HW1 2738   2.723   1.679   1.268  1.0775 -1.3566 -2.8124
  685SOL    HW2 2739   2.614   1.651   1.155 -1.2470  1.1350  2.0379
  685SOL     MW 2740   2.681   1.694   1.192 -0.0756  0.1284 -0.0039
  686SOL     OW 2741   2.883   0.666   1.615  0.1062  0.0554  0.0968
  686SOL    HW1 2742   2.881   0.627   1.699 -2.3731  0.8496 -2.2262
  686SOL    HW2 2743   2.978   0.690   1.594 -0.6348  2.5809  0.9194
  686SOL     MW 2744   2.895   0.664   1.623 -0.3187  0.4934 -0.1011
  687SOL     OW 2745   2.120   0.212   1.149 -0.4498 -0.3767  0.2207
  687SOL    HW1 2746   2.144   0.157   1.079  0.9725  0.0570  1.1214
  687SOL    HW2 2747   2.067   0.282   1.105  1.4861  0.4887  0.8769
  687SOL     MW 2748   2.116   0.214   1.134 -0.0068 -0.2053  0.4261
  688SOL     OW 2749   2.460   0.584   1.414  0.3980 -0.0986  0.4663
  688SOL    HW1 2750   2.426   0.512   1.360 -0.7813  2.0166  0.2561
  688SOL    HW2 2751   2.385   0.618   1.473 -0.2322  0.1154 -0.3748
  688SOL     MW 2752   2.445   0.579   1.415  0.1593  0.2087  0.3276
  689SOL     OW 2753   2.510   0.741   2.977 -0.0425 -0.3191 -0.1275
  689SOL    HW1 2754   2.452   0.806   3.020 -1.2114 -1.3773  1.3398
  689SOL    HW2 2755   2.569   0.702   3.041  1.9627 -0.4367  1.7417
  689SOL     MW 2756   2.510   0.744   2.991  0.0678 -0.4743  0.3127
  690SOL     OW 2757   2.013   0.887   1.833  0.8356  0.1606 -0.1810
  690SOL    HW1 2758   2.001   0.800   1.871  0.4264 -0.7268 -1.4245
  690SOL    HW2 2759   2.064   0.878   1.750 -2.4489  1.4837 -1.1583
  690SOL     MW 2760   2.018   0.874   1.827  0.3483  0.2181 -0.4740
  691SOL     OW 2761   2.417   0.301   0.882  0.2869  0.0877  0.1588
  691SOL    HW1 2762   2.504   0.298   0.918 -1.5901 -0.5765 -0.8750
  691SOL    HW2 2763   2.394   0.390   0.874  2.9998 -0.5239 -1.7429
  691SOL     MW 2764   2.425   0.312   0.886  0.3972 -0.0806 -0.2285
  692SOL     OW 2765   2.853   1.599   1.436 -0.7286  0.2431  0.0383
  692SOL    HW1 2766   2.838   1.591   1.531  0.6685  0.4135 -1.4671
  692SOL    HW2 2767   2.877   1.693   1.425  2.1618 -1.5958 -2.1832
  692SOL     MW 2768   2.854   1.611   1.447 -0.1629  0.0230 -0.4534
  693SOL     OW 2769   2.335   0.390   0.030 -0.4810 -0.0078 -0.4945
  693SOL    HW1 2770   2.269   0.335  -0.015  2.0443  1.5874  0.1469
  693SOL    HW2 2771   2.323   0.475   0.001  0.0173  0.4541 -1.1998
  693SOL     MW 2772   2.325   0.394   0.020 -0.0821  0.2636 -0.5029
  694SOL     OW 2773   1.900   1.172   1.172 -0.1514  0.0412  0.4166
  694SOL    HW1 2774   1.992   1.165   1.163 -1.7475 -1.8230  1.9997
  694SOL    HW2 2775   1.870   1.081   1.174  1.7665  3.6089  0.2873
  694SOL     MW 2776   1.908   1.159   1.171 -0.1090  0.2659  0.6084
  695SOL     OW 2777   2.950   1.405   1.272 -0.5282 -0.1703  0.5424
  695SOL    HW1 2778   2.934   1.425   1.177  0.1445 -0.8387 -4.0283
  695SOL    HW2 2779   2.913   1.477   1.328  1.2630 -0.3544  0.2162
  695SOL     MW 2780   2.943   1.417   1.267 -0.2031 -0.2828 -0.1037
  696SOL     OW 2781   2.018   1.425   0.786 -0.5149 -0.2364 -0.2117
  696SOL    HW1 2782   2.064   1.448   0.865 -2.0810  0.5296  1.0085
  696SOL    HW2 2783   1.972   1.342   0.813  2.6882 -1.6936  0.8326
  696SOL     MW 2784   2.018   1.417   0.800 -0.2989 -0.3276  0.0870
  697SOL     OW 2785   2.941   1.061   2.246  0.2040 -0.0123 -0.3609
  697SOL    HW1 2786   2.866   1.124   2.246 -2.2615  2.7289 -0.0340
  697SOL    HW2 2787   2.908   0.979   2.218  1.4416  0.8908 -0.2610
  697SOL     MW 2788   2.927   1.059   2.242  0.0420  0.4685 -0.3046
  698SOL     OW 2789   2.597   0.325   3.046  0.1173  0.4501  0.5574
  698SOL    HW1 2790   2.514   0.361   3.072  0.9004  0.0318  1.6383
  698SOL    HW2 2791   2.628   0.295   3.135  0.9284  1.6704 -0.6064
  698SOL     MW 2792   2.590   0.326   3.061  0.3276  0.5560  0.5465
  699SOL     OW 2793   1.899   1.616   2.076 -0.1710 -0.0693 -0.3359
  699SOL    HW1 2794   1.837   1.545   2.083  1.6188 -1.0124  2.0771
  699SOL    HW2 2795   1.980   1.584   2.030  0.4222 -3.2473  0.1284
  699SOL     MW 2796   1.901   1.602   2.071  0.1434 -0.6130  0.0437
  700SOL     OW 2797   2.668   0.842   1.605 -0.5197  0.3500  0.1125
  700SOL    HW1 2798   2.723   0.900   1.550  1.8782 -0.2031  0.2578
  700SOL    HW2 2799   2.719   0.764   1.606  1.4874  3.0211  1.4217
  700SOL     MW 2800   2.682   0.840   1.598  0.0615  0.6295  0.3044
  701SOL     OW 2801   1.696   1.116   2.514  0.2059 -0.6138 -0.0949
  701SOL    HW1 2802   1.788   1.115   2.517 -0.9815 -2.6744  2.1936
  701SOL    HW2 2803   1.656   1.169   2.582 -2.4787  0.6208 -2.6499
  701SOL     MW 2804   1.703   1.123   2.524 -0.3050 -0.7228 -0.1301
  702SOL     OW 2805   2.096   0.468   0.723 -0.1897  0.3952 -0.9081
  702SOL    HW1 2806   2.089   0.374   0.697 -2.0853 -1.5152  0.6815
  702SOL    HW2 2807   2.153   0.510   0.655 -1.0541  0.6100 -0.9367
  702SOL     MW 2808   2.103   0.461   0.710 -0.5539  0.1715 -0.7021
  703SOL     OW 2809   2.716   1.255   0.952  0.0008  0.3987  0.2267
  703SOL    HW1 2810   2.683   1.228   0.868  0.1862 -1.2261  1.3326
  703SOL    HW2 2811   2.718   1.168   0.990 -2.6230  1.9239 -1.6534
  703SOL     MW 2812   2.712   1.240   0.946 -0.3209  0.3855  0.1245
  704SOL     OW 2813   3.076   1.245   0.117  0.5355  0.2388 -0.3074
  704SOL    HW1 2814   2.982   1.249   0.085 -1.4261 -0.6047 -1.1518
  704SOL    HW2 2815   3.073   1.237   0.215 -2.6382  3.6629 -0.7622
  704SOL     MW 2816   3.063   1.244   0.126 -0.1420  0.5793 -0.4788
  705SOL     OW 2817   2.056   1.551   1.299 -0.3401 -0.2050  0.2819
  705SOL    HW1 2818   2.005   1.631   1.311  1.8502  0.0187 -1.3356
  705SOL    HW2 2819   2.104   1.541   1.379 -0.5658 -0.6079 -1.6096
  705SOL     MW 2820   2.056   1.560   1.311 -0.0809 -0.2286 -0.1811
  706SOL     OW 2821   3.005   1.227   0.674  0.1465  0.0263  0.6890
  706SOL    HW1 2822   3.060   1.249   0.597  1.3913 -0.2171 -0.0663
  706SOL    HW2 2823   2.942   1.298   0.687 -0.0786  0.6595  2.4204
  706SOL     MW 2824   3.004   1.239   0.666  0.2810  0.0777  0.8178
  707SOL     OW 2825   2.371   0.034   0.962 -0.3030 -0.1564  0.1570
  707SOL    HW1 2826   2.381   0.127   0.944  0.2300  2.0366 -0.8102
  707SOL    HW2 2827   2.300   0.009   0.895 -2.2803 -0.7828  1.8859
  707SOL     MW 2828   2.363   0.043   0.950 -0.4935  0.0503  0.2575
  708SOL     OW 2829   2.412   1.379   0.182 -0.0333  0.0335 -0.2871
  708SOL    HW1 2830   2.498   1.380   0.221 -1.2888  3.0691  0.2344
  708SOL    HW2 2831   2.421   1.396   0.086  0.4445 -0.9957  1.1705
  708SOL     MW 2832   2.425   1.382   0.174 -0.1359  0.2982 -0.0260
  709SOL     OW 2833   1.755   1.649   0.226 -0.2902  0.3134 -0.4849
  709SOL    HW1 2834   1.744   1.657   0.132 -1.4231  0.3010 -0.6862
  709SOL    HW2 2835   1.660   1.649   0.257 -1.0923 -1.1242 -1.9177
  709SOL     MW 2836   1.741   1.650   0.218 -0.5455  0.1221 -0.7005
  710SOL     OW 2837   2.185   1.176   1.187  0.7998  0.1416  0.4189
  710SOL    HW1 2838   2.201   1.120   1.104 -2.9988  0.2840  1.6035
  710SOL    HW2 2839   2.201   1.108   1.264  0.1427  1.3002  2.3035
  710SOL     MW 2840   2.189   1.159   1.186  0.2119  0.3133  0.8238
  711SOL     OW 2841   2.401   0.151   1.767 -0.0122 -0.5983 -0.0259
  711SOL    HW1 2842   2.490   0.158   1.812 -0.7201  2.9319  1.7171
  711SOL    HW2 2843   2.424   0.095   1.689  0.2231 -1.7475 -0.5293
  711SOL     MW 2844   2.415   0.145   1.763 -0.0746 -0.2842  0.1376
  712SOL     OW 2845   1.893   0.608   3.090 -0.2092 -0.2856 -0.2606
  712SOL    HW1 2846   1.833   0.645   3.020  0.4062 -1.2952  2.9815
  712SOL    HW2 2847   1.858   0.637   3.176 -1.3026  0.4739  0.8281
  712SOL     MW 2848   1.881   0.617   3.092 -0.2723 -0.3186  0.3108
  713SOL     OW 2849   2.520   0.691   1.086 -0.1887 -0.2085  0.0017
  713SOL    HW1 2850   2.512   0.599   1.124 -1.0184 -0.6922  1.0085
  713SOL    HW2 2851   2.449   0.747   1.121  2.2045  0.6625  0.9020
  713SOL     MW 2852   2.510   0.686   1.096  0.0176 -0.1574  0.2533
  714SOL     OW 2853   2.224   0.162   1.977 -0.3977 -0.4144  0.5784
  714SOL    HW1 2854   2.291   0.133   2.040  2.4285  0.2294  0.6218
  714SOL    HW2 2855   2.273   0.155   1.894 -0.7763 -2.8404  0.7745
  714SOL     MW 2856   2.240   0.157   1.974 -0.0748 -0.6495  0.6100
  715SOL     OW 2857   1.808   2.026   1.754  0.1095 -0.1206 -0.1489
  715SOL    HW1 2858   1.900   2.045   1.756 -1.6268 -0.8668  0.2619
  715SOL    HW2 2859   1.814   1.942   1.806  1.8216 -2.1765 -1.0485
  715SOL     MW 2860   1.821   2.018   1.761  0.1063 -0.4903 -0.2134
  716SOL     OW 2861   2.406   0.567   0.668  0.4902  0.0137 -0.1407
  716SOL    HW1 2862   2.451   0.493   0.616  1.5321 -2.6123 -0.6285
  716SOL    HW2 2863   2.344   0.603   0.602 -0.2915 -2.8538  3.2514
  716SOL     MW 2864   2.403   0.562   0.653  0.5245 -0.7111  0.2425
  717SOL     OW 2865   2.832   1.602   2.822  0.0113  0.5201 -0.2444
  717SOL    HW1 2866   2.918   1.601   2.854 -1.4972  0.5731  0.6110
  717SOL    HW2 2867   2.787   1.675   2.873  3.1071 -1.0708  0.4831
  717SOL     MW 2868   2.837   1.612   2.833  0.2207  0.3172 -0.0355
  718SOL     OW 2869   2.647   1.340   1.279 -0.1148 -0.1796 -0.8590
  718SOL    HW1 2870   2.613   1.374   1.361  0.5570  1.8641  0.2533
  718SOL    HW2 2871   2.738   1.328   1.284 -0.0064  1.2265  1.0946
  718SOL     MW 2872   2.654   1.343   1.291 -0.0118  0.2756 -0.4545
  719SOL     OW 2873   2.213   1.304   0.584  0.0213  0.2921 -0.3435
  719SOL    HW1 2874   2.297   1.329   0.558 -0.4852 -1.2324 -1.6877
  719SOL    HW2 2875   2.171   1.348   0.658 -1.2495 -3.2316 -0.9320
  719SOL     MW 2876   2.218   1.313   0.590 -0.2132 -0.3740 -0.5985
  720SOL     OW 2877   2.834   1.246   0.027  0.0025  1.0324 -0.1685
  720SOL    HW1 2878   2.820   1.156   0.056  0.0447  0.8057  0.1112
  720SOL    HW2 2879   2.773   1.297   0.080 -1.5140 -0.8915  2.4388
  720SOL     MW 2880   2.824   1.241   0.038 -0.1920  0.7486  0.2124
  721SOL     OW 2881   2.504   0.859   1.363  1.0220 -0.4390 -0.1560
  721SOL    HW1 2882   2.502   0.762   1.383 -0.0339 -0.5865  3.9784
  721SOL    HW2 2883   2.560   0.881   1.443 -0.9879  0.6176  4.2544
  721SOL     MW 2884   2.511   0.849   1.376  0.6175 -0.3191  0.9714
  722SOL     OW 2885   2.594   1.138   0.384 -0.3634 -0.3420 -0.0607
  722SOL    HW1 2886   2.537   1.215   0.401  1.4456  0.4343  1.3946
  722SOL    HW2 2887   2.671   1.149   0.435 -1.6507  0.2627 -0.8795
  722SOL     MW 2888   2.596   1.149   0.393 -0.2945 -0.1598  0.0233
  723SOL     OW 2889   2.281   1.344   1.567 -0.1445 -0.5736 -0.1652
  723SOL    HW1 2890   2.273   1.336   1.473  0.7492 -0.5031  0.0572
  723SOL    HW2 2891   2.221   1.420   1.576 -2.2506  2.6809  0.0716
  723SOL     MW 2892   2.272   1.353   1.555 -0.3045 -0.1349 -0.1046
  724SOL     OW 2893   2.493   0.317   0.605  0.1740  0.2980  0.1517
  724SOL    HW1 2894   2.455   0.297   0.692 -0.8553 -0.8121 -0.8160
  724SOL    HW2 2895   2.586   0.304   0.608 -0.6378  0.4426  0.6153
  724SOL     MW 2896   2.501   0.312   0.617 -0.0689  0.1706  0.0852
  725SOL     OW 2897   2.622   0.419   1.251 -0.2613  0.2031  0.1778
  725SOL    HW1 2898   2.681   0.493   1.280 -0.4845 -0.8804 -0.9164
  725SOL    HW2 2899   2.647   0.351   1.312 -0.2274  0.2055 -2.8665
  725SOL     MW 2900   2.633   0.420   1.263 -0.2863  0.0605 -0.3682
  726SOL     OW 2901   2.500   2.500   0.456 -0.1603  0.1924 -0.0473
  726SOL    HW1 2902   2.495   2.587   0.418  0.9685  0.8674 -0.3840
  726SOL    HW2 2903   2.489   2.502   0.555 -0.9451 -0.6840  1.1781
  726SOL     MW 2904   2.498   2.512   0.464 -0.1149  0.1658  0.0700
  727SOL     OW 2905   2.860   0.296   1.726  0.0221 -0.3367  0.3071
  727SOL    HW1 2906   2.817   0.283   1.642  1.7656 -0.4268 -1.0616
  727SOL    HW2 2907   2.804   0.246   1.786  1.7644  1.5536 -1.5222
  727SOL     MW 2908   2.847   0.288   1.723  0.4820 -0.0992 -0.1148
  728SOL     OW 2909   2.846   1.182   2.849 -0.0623 -0.1364 -0.0442
  728SOL    HW1 2910   2.839   1.233   2.763 -2.8032 -1.5001  0.8127
  728SOL    HW2 2911   2.828   1.244   2.917  0.6054 -0.4514 -0.0446
  728SOL     MW 2912   2.843   1.197   2.847 -0.3358 -0.3579  0.0688
  729SOL     OW 2913   2.505   1.508   1.113  0.2255  0.3598 -0.0353
  729SOL    HW1 2914   2.579   1.458   1.158 -1.0696 -0.6666  3.0007
  729SOL    HW2 2915   2.500   1.471   1.023  1.4570 -0.1958  0.5211
  729SOL     MW 2916   2.514   1.496   1.107  0.2171  0.1511  0.4387
  730SOL     OW 2917   2.220   1.166   0.178  0.1629 -0.5047  0.3597
  730SOL    HW1 2918   2.263   1.092   0.214  2.0205  0.0893 -0.7416
  730SOL    HW2 2919   2.287   1.235   0.179  1.1203 -0.1171  0.4732
  730SOL     MW 2920   2.234   1.165   0.183  0.5343 -0.3752  0.2293
  731SOL     OW 2921   2.744   2.068   2.866  0.3736 -0.3630  0.2016
  731SOL    HW1 2922   2.679   2.019   2.806 -3.2807  2.6755  0.9305
  731SOL    HW2 2923   2.829   2.047   2.826  1.4302  0.9010  0.0478
  731SOL     MW 2924   2.747   2.059   2.853  0.0309  0.2046  0.2775
  732SOL     OW 2925   2.253   0.993   1.361  0.2184 -0.0287 -0.1821
  732SOL    HW1 2926   2.226   0.945   1.446  0.9884 -1.4422  0.9026
  732SOL    HW2 2927   2.341   0.955   1.349 -0.6441  3.6854 -0.0286
  732SOL     MW 2928   2.261   0.981   1.371  0.2062  0.2748 -0.0188
  733SOL     OW 2929   2.382   2.790   3.013  0.1815 -0.7490 -0.0705
  733SOL    HW1 2930   2.307   2.829   3.064  1.4838 -1.3819  0.8170
  733SOL    HW2 2931   2.366   2.690   3.021  0.8432 -0.6465 -1.5191
  733SOL     MW 2932   2.370   2.782   3.021  0.4406 -0.8190 -0.1446
  734SOL     OW 2933   1.560   0.262   2.554 -0.9273  0.2940 -0.3055
  734SOL    HW1 2934   1.505   0.249   2.632 -2.1108  0.1163 -1.4831
  734SOL    HW2 2935   1.549   0.175   2.514  1.3644 -0.3085  0.7977
  734SOL     MW 2936   1.551   0.249   2.559 -0.7811  0.1910 -0.3153
  735SOL     OW 2937   2.975   0.946   2.697  0.2207 -0.3637  0.6911
  735SOL    HW1 2938   2.983   0.848   2.693  1.3003 -2.7049  0.5791
  735SOL    HW2 2939   3.000   0.970   2.787 -2.5466  0.1706  0.0327
  735SOL     MW 2940   2.979   0.936   2.708 -0.0019 -0.6021  0.5895
  736SOL     OW 2941   0.137   0.585   2.585 -0.1569  0.0794 -0.3079
  736SOL    HW1 2942   0.127   0.646   2.506  1.2735  1.2175  0.4421
  736SOL    HW2 2943   0.144   0.492   2.554  0.5456  1.1414 -0.3049
  736SOL     MW 2944   0.136   0.581   2.571  0.1245  0.3697 -0.2085
  737SOL     OW 2945   2.984   0.663   2.635  0.2396 -0.6653  0.5507
  737SOL    HW1 2946   2.928   0.639   2.555 -2.4379  0.8390 -0.9073
  737SOL    HW2 2947   3.070   0.638   2.615 -0.9852  1.2101 -1.2136
  737SOL     MW 2948   2.988   0.656   2.622 -0.2753 -0.2194  0.1256
  738SOL     OW 2949   0.128   0.486   1.875 -0.3874 -0.4374 -0.0280
  738SOL    HW1 2950   0.224   0.505   1.857  0.3262 -2.1425  0.2629
  738SOL    HW2 2951   0.110   0.428   1.802 -1.8821 -0.7788 -1.5472
  738SOL     MW 2952   0.138   0.480   1.863 -0.4904 -0.7074 -0.1901
  739SOL     OW 2953   2.479   1.006   2.100 -0.3783 -0.3436  0.5105
  739SOL    HW1 2954   2.406   1.001   2.042  1.9014  0.5794  2.8800
  739SOL    HW2 2955   2.553   0.972   2.049 -0.4762  1.6116 -0.9014
  739SOL     MW 2956   2.479   1.001   2.085 -0.0904  0.0361  0.6369
  740SOL     OW 2957   0.103   1.825   2.930  0.2695  0.0055 -0.2017
  740SOL    HW1 2958   0.068   1.732   2.935  0.3281 -1.4551 -0.0415
  740SOL    HW2 2959   0.194   1.825   2.961 -1.7641 -0.6730  2.4468
  740SOL     MW 2960   0.111   1.813   2.935  0.0089 -0.2767  0.1689
  741SOL     OW 2961   2.220   1.138   2.717 -0.9211 -0.5013 -0.7062
  741SOL    HW1 2962   2.183   1.204   2.664  0.1577 -3.4183  2.4923
  741SOL    HW2 2963   2.208   1.179   2.804  1.1994 -0.2977 -0.1383
  741SOL     MW 2964   2.213   1.152   2.721 -0.4990 -0.8593 -0.2092
  742SOL     OW 2965   1.665   1.213   2.256 -0.8316  0.3935  0.4045
  742SOL    HW1 2966   1.582   1.169   2.232 -0.7010  0.4887  1.9961
  742SOL    HW2 2967   1.654   1.217   2.352 -1.1643  0.2632 -0.6253
  742SOL     MW 2968   1.653   1.208   2.265 -0.8583  0.3889  0.4786
  743SOL     OW 2969   2.483   1.236   2.695 -0.1048  0.1140  0.4438
  743SOL    HW1 2970   2.397   1.208   2.722  3.1016  0.4921 -0.1515
  743SOL    HW2 2971   2.543   1.187   2.749  1.9442 -0.0805  1.0415
  743SOL     MW 2972   2.480   1.226   2.706  0.5886  0.1382  0.4441
  744SOL     OW 2973   2.703   0.876   1.864 -0.6144 -0.7247  0.6334
  744SOL    HW1 2974   2.692   0.973   1.859  0.7692 -0.7157 -1.0141
  744SOL    HW2 2975   2.698   0.848   1.770  2.6558 -1.9374  2.4603
  744SOL     MW 2976   2.701   0.885   1.851 -0.0004 -0.8835  0.6571
  745SOL     OW 2977   1.693   0.501   2.453 -0.0265 -0.1719  0.5296
  745SOL    HW1 2978   1.686   0.507   2.352 -0.5095  1.4875 -0.1887
  745SOL    HW2 2979   1.624   0.440   2.482 -0.8515 -1.3795 -3.3160
  745SOL     MW 2980   1.683   0.494   2.443 -0.1991 -0.1123 -0.0726
  746SOL     OW 2981   1.605   1.433   1.642  0.0476  0.3694 -0.0235
  746SOL    HW1 2982   1.696   1.416   1.640 -1.3167  0.9963  0.9169
  746SOL    HW2 2983   1.594   1.457   1.734  2.3769 -1.4475 -2.5079
  746SOL     MW 2984   1.615   1.434   1.654  0.1749  0.2124 -0.2272
  747SOL     OW 2985   2.629   1.135   1.816  0.4859  0.1538 -0.0332
  747SOL    HW1 2986   2.533   1.128   1.786 -1.8767 -0.1855  2.3015
  747SOL    HW2 2987   2.623   1.183   1.901  1.5481  1.1375 -0.6451
  747SOL     MW 2988   2.615   1.140   1.823  0.3143  0.2388  0.1941
  748SOL     OW 2989   0.051   0.073   1.895 -0.1429 -0.2867  0.1091
  748SOL    HW1 2990   0.143   0.076   1.905 -1.1008  1.2660  0.0219
  748SOL    HW2 2991   0.013   0.127   1.972 -1.1042  1.8825  1.4195
  748SOL     MW 2992   0.058   0.080   1.906 -0.3961  0.2044  0.2705
  749SOL     OW 2993   2.506   0.608   2.738  0.6083  0.7804  0.2351
  749SOL    HW1 2994   2.527   0.679   2.678 -0.5258 -1.2236 -0.8388
  749SOL    HW2 2995   2.518   0.640   2.831  1.3868  2.2489 -1.5554
  749SOL     MW 2996   2.510   0.622   2.742  0.5614  0.7098 -0.1428
  750SOL     OW 2997   2.049   3.068   1.996 -0.2161  0.5042 -0.2462
  750SOL    HW1 2998   2.105   3.147   2.006  0.7483  0.6148  0.9866
  750SOL    HW2 2999   2.106   2.988   1.992 -2.2156  0.5499  2.3124
  750SOL     MW 3000   2.064   3.068   1.996 -0.3527  0.5248  0.2540
  751SOL     OW 3001   0.187   0.312   2.459  0.9426 -0.7709 -0.2798
  751SOL    HW1 3002   0.156   0.222   2.484  0.6314 -0.8499 -1.0561
  751SOL    HW2 3003   0.204   0.300   2.368  1.8721  1.5390  0.2193
  751SOL     MW 3004   0.185   0.298   2.450  1.0242 -0.4766 -0.3164
  752SOL     OW 3005   2.126   0.794   2.737  0.1078  0.5100 -0.3996
  752SOL    HW1 3006   2.210   0.838   2.722  1.4765 -0.5357  1.7225
  752SOL    HW2 3007   2.116   0.797   2.834 -2.0429  2.9593  0.1791
  752SOL     MW 3008   2.136   0.800   2.748  0.0046  0.6952 -0.0432
  753SOL     OW 3009   2.872   0.197   2.386 -0.9718 -0.2689 -0.1219
  753SOL    HW1 3010   2.844   0.104   2.376 -2.5158 -1.8406 -1.9201
  753SOL    HW2 3011   2.815   0.250   2.332 -0.1205 -1.6826 -1.1770
  753SOL     MW 3012   2.861   0.192   2.378 -1.0632 -0.6628 -0.4983
  754SOL     OW 3013   2.228   2.983   2.589  0.0206 -0.2819 -0.0973
  754SOL    HW1 3014   2.273   2.983   2.503 -0.1416 -1.7724 -1.0603
  754SOL    HW2 3015   2.284   2.931   2.652  2.5846 -1.9175 -1.6394
  754SOL     MW 3016   2.241   2.976   2.586  0.3375 -0.6943 -0.4278
  755SOL     OW 3017   2.713   1.528   2.458  0.1638  0.5507 -0.3145
  755SOL    HW1 3018   2.721   1.447   2.512  0.8452  1.0955  1.8701
  755SOL    HW2 3019   2.755   1.602   2.516  3.2866 -0.7518 -1.1748
  755SOL     MW 3020   2.720   1.527   2.473  0.6657  0.4507 -0.1397
  756SOL     OW 3021   2.214   1.222   2.988 -0.0782 -0.0314 -0.1706
  756SOL    HW1 3022   2.288   1.284   2.989 -1.4563 -0.9304  0.8530
  756SOL    HW2 3023   2.256   1.139   3.022 -0.9066  0.7196 -3.1990
  756SOL     MW 3024   2.230   1.219   2.992 -0.3693 -0.0509 -0.4351
  757SOL     OW 3025   2.157   0.886   1.599  0.5778 -0.0403  0.5720
  757SOL    HW1 3026   2.163   0.790   1.597 -1.9557  0.6982  2.2484
  757SOL    HW2 3027   2.068   0.904   1.557 -2.1750  1.6470 -0.9983
  757SOL     MW 3028   2.146   0.875   1.593 -0.1196  0.2798  0.5860
  758SOL     OW 3029   2.220   1.854   2.612 -0.6325  0.3183 -0.4777
  758SOL    HW1 3030   2.201   1.898   2.533  0.3301  0.7243  3.2055
  758SOL    HW2 3031   2.312   1.833   2.603 -0.6066  3.0630 -1.3668
  758SOL     MW 3032   2.230   1.857   2.601 -0.5021  0.7340 -0.1091
  759SOL     OW 3033   1.555   1.262   2.684 -0.2198  0.1448 -0.0230
  759SOL    HW1 3034   1.557   1.353   2.639 -1.9907  1.2033  2.6302
  759SOL    HW2 3035   1.600   1.286   2.768 -2.0809 -1.0410  1.8033
  759SOL     MW 3036   1.561   1.277   2.689 -0.6990  0.1280  0.5680
  760SOL     OW 3037   2.513   1.972   2.736 -0.4120 -0.1713 -0.1808
  760SOL    HW1 3038   2.507   1.886   2.689  0.5559 -2.3704  2.2981
  760SOL    HW2 3039   2.517   2.036   2.665 -1.0565  2.2184  1.8111
  760SOL     MW 3040   2.513   1.969   2.720 -0.3693 -0.1462  0.4091
  761SOL     OW 3041   2.155   0.381   2.516 -0.2681  0.7143  0.4109
  761SOL    HW1 3042   2.092   0.324   2.550  1.1544 -0.8157  1.4108
  761SOL    HW2 3043   2.183   0.435   2.597  2.4383  1.5518 -0.0955
  761SOL     MW 3044   2.151   0.381   2.531  0.2767  0.6229  0.4760
  762SOL     OW 3045   3.020   0.190   2.125 -0.5551  0.3119  0.7008
  762SOL    HW1 3046   3.032   0.117   2.187  1.5564  3.2181 -0.0260
  762SOL    HW2 3047   3.044   0.269   2.185 -3.3450  1.1227  0.6074
  762SOL     MW 3048   3.025   0.191   2.141 -0.6446  0.8023  0.5926
  763SOL     OW 3049   2.320   1.035   2.348  0.0032 -0.3152 -0.1357
  763SOL    HW1 3050   2.376   1.042   2.269  1.5064 -0.7931  0.1334
  763SOL    HW2 3051   2.352   1.105   2.409 -1.6817  3.5701  3.1712
  763SOL     MW 3052   2.331   1.045   2.346 -0.0208  0.1344  0.3361
  764SOL     OW 3053   0.473   0.243   2.799 -0.6729  0.3477  0.4612
  764SOL    HW1 3054   0.386   0.195   2.807 -2.2758  0.9234 -1.4527
  764SOL    HW2 3055   0.462   0.337   2.814  0.7986  0.8954 -1.3746
  764SOL     MW 3056   0.460   0.249   2.802 -0.6902  0.4959 -0.0335
  765SOL     OW 3057   2.738   3.063   2.355  0.2560 -0.2800  0.2802
  765SOL    HW1 3058   2.706   3.066   2.264  2.2999  0.4980  1.4501
  765SOL    HW2 3059   2.814   3.000   2.350  0.1112 -0.0178 -1.3878
  765SOL     MW 3060   2.743   3.055   2.342  0.5065 -0.1428  0.2145
  766SOL     OW 3061   1.871   2.966   2.166  0.0902 -0.3015  0.4168
  766SOL    HW1 3062   1.926   3.019   2.102  1.0626  2.6754  0.4574
  766SOL    HW2 3063   1.820   2.900   2.116 -0.0843  1.2928 -2.0007
  766SOL     MW 3064   1.871   2.964   2.151  0.1955  0.3017  0.1032
  767SOL     OW 3065   2.695   0.592   2.098  0.2274 -0.6186  0.0915
  767SOL    HW1 3066   2.714   0.686   2.086  0.8716  0.3094  0.2861
  767SOL    HW2 3067   2.613   0.582   2.041  0.5506 -3.2394 -0.6640
  767SOL     MW 3068   2.686   0.603   2.089  0.3551 -0.8420  0.0175
  768SOL     OW 3069  -0.001   1.577   2.949 -0.1369 -1.0438 -0.4287
  768SOL    HW1 3070   0.006   1.560   3.054 -1.2642  0.1417  2.6305
  768SOL    HW2 3071   0.030   1.494   2.905 -1.9757  3.5747 -0.4651
  768SOL     MW 3072   0.004   1.564   2.957 -0.5282 -0.2780 -0.0298
  769SOL     OW 3073   2.459   0.685   2.357  0.2539  0.1122  0.3175
  769SOL    HW1 3074   2.376   0.650   2.384 -1.9677  0.0709  0.2293
  769SOL    HW2 3075   2.455   0.737   2.277  3.6961  0.1991  0.3698
  769SOL     MW 3076   2.448   0.687   2.350  0.4149  0.1182  0.3127
  770SOL     OW 3077   0.026   1.636   2.577 -0.5851  0.4106 -0.4119
  770SOL    HW1 3078  -0.051   1.681   2.584 -3.4344 -5.8004 -0.6778
  770SOL    HW2 3079   0.012   1.545   2.609  1.1146 -0.3452  2.4871
  770SOL     MW 3080   0.014   1.630   2.582 -0.7368 -0.5086 -0.0645
  771SOL     OW 3081   3.058   0.605   2.071  0.0476 -0.3361  0.3702
  771SOL    HW1 3082   2.984   0.588   2.011 -0.7839 -0.5431 -1.2102
  771SOL    HW2 3083   3.123   0.551   2.014  0.3121 -1.0567 -2.2539
  771SOL     MW 3084   3.057   0.596   2.056 -0.0272 -0.4585 -0.1845
  772SOL     OW 3085   0.065   0.007   2.303  0.0714  0.4447  0.0287
  772SOL    HW1 3086  -0.008  -0.047   2.287 -0.5198  1.0446  0.5410
  772SOL    HW2 3087   0.130  -0.033   2.244 -0.1508  0.5971 -2.5187
  772SOL     MW 3088   0.064  -0.005   2.293 -0.0359  0.5440 -0.2398
  773SOL     OW 3089   2.409   2.861   2.752  0.4539  0.5148 -0.0087
  773SOL    HW1 3090   2.434   2.772   2.727 -1.2738 -0.2167 -2.6594
  773SOL    HW2 3091   2.397   2.855   2.846 -0.2428 -2.7323  1.2701
  773SOL     MW 3092   2.411   2.849   2.761  0.1340 -0.0101 -0.1897
  774SOL     OW 3093   2.346   1.155   1.730 -0.1355  0.5746 -0.4889
  774SOL    HW1 3094   2.319   1.216   1.658  0.4012  0.8819 -1.9249
  774SOL    HW2 3095   2.294   1.081   1.710  0.1936  1.9912  1.6348
  774SOL     MW 3096   2.335   1.153   1.718 -0.0212  0.8020 -0.3982
  775SOL     OW 3097   2.329   2.880   2.325  0.2709  0.0784  0.0077
  775SOL    HW1 3098   2.361   2.951   2.271  0.5960  2.2323 -0.7832
  775SOL    HW2 3099   2.387   2.809   2.301  1.6579  2.3206 -0.3659
  775SOL     MW 3100   2.341   2.880   2.314  0.4968  0.6584 -0.1459
  776SOL     OW 3101   0.023   1.509   0.091 -0.1258 -0.0802 -0.0437
  776SOL    HW1 3102   0.114   1.483   0.089  0.6349  1.8711  0.1901
  776SOL    HW2 3103  -0.016   1.424   0.118 -1.7106  2.0971 -0.1860
  776SOL     MW 3104   0.030   1.494   0.094 -0.2345  0.4645 -0.0316
  777SOL     OW 3105   2.979   1.039   1.743  0.4383 -0.7711  0.1336
  777SOL    HW1 3106   2.917   1.112   1.729 -2.0621  0.2985 -0.0664
  777SOL    HW2 3107   2.941   0.998   1.819 -3.3122  0.6014 -1.7442
  777SOL     MW 3108   2.966   1.043   1.751 -0.3865 -0.4489 -0.1406
  778SOL     OW 3109   2.888   0.440   2.766 -0.0271 -1.0020 -0.2343
  778SOL    HW1 3110   2.852   0.472   2.853 -0.7449 -0.5230  0.1400
  778SOL    HW2 3111   2.907   0.519   2.719  0.3452 -0.6941  1.3818
  778SOL     MW 3112   2.886   0.454   2.772 -0.0727 -0.8982  0.0283
  779SOL     OW 3113   2.126   0.573   2.313 -0.3252 -0.4413 -0.1025
  779SOL    HW1 3114   2.096   0.645   2.361  1.6522  2.9619  0.2131
  779SOL    HW2 3115   2.139   0.502   2.371 -3.5593  3.2093  0.2599
  779SOL     MW 3116   2.124   0.573   2.327 -0.4910  0.4894 -0.0131
  780SOL     OW 3117   0.227   0.138   2.824 -0.0159 -0.0671  0.1505
  780SOL    HW1 3118   0.154   0.160   2.883  0.4667  0.5264  1.7542
  780SOL    HW2 3119   0.175   0.114   2.743 -3.0617 -2.0749  0.1998
  780SOL     MW 3120   0.211   0.138   2.821 -0.3541 -0.2537  0.3686
  781SOL     OW 3121   3.071   1.330   2.513  0.1544  0.3271 -0.4600
  781SOL    HW1 3122   3.086   1.369   2.429 -1.0907  2.7328  0.5240
  781SOL    HW2 3123   3.090   1.241   2.495 -0.7654  2.5549  0.4209
  781SOL     MW 3124   3.076   1.323   2.499 -0.1313  0.9385 -0.2140
  782SOL     OW 3125   0.523   1.631   3.051 -0.6653 -0.4596 -0.0080
  782SOL    HW1 3126   0.465   1.708   3.037  1.1773  1.2423  0.2800
  782SOL    HW2 3127   0.531   1.600   3.148  0.6611  0.3661  3.4203
  782SOL     MW 3128   0.517   1.637   3.062 -0.2472 -0.1261  0.4823
  783SOL     OW 3129   2.789   0.552   2.480 -0.3717 -0.0941  0.0695
  783SOL    HW1 3130   2.773   0.539   2.387  0.3143  0.7694 -2.1773
  783SOL    HW2 3131   2.730   0.494   2.526  2.1123  0.7304  1.9609
  783SOL     MW 3132   2.779   0.542   2.474  0.0465  0.1286  0.0226
  784SOL     OW 3133   0.259   0.911   2.918 -0.5687  0.2082 -0.0778
  784SOL    HW1 3134   0.264   0.954   2.999  0.1824  1.5037  3.2381
  784SOL    HW2 3135   0.232   0.967   2.844  2.0112 -2.0313  0.3393
  784SOL     MW 3136   0.256   0.924   2.919 -0.1292  0.0836  0.4147
  785SOL     OW 3137   0.372   0.483   2.139 -0.3057 -0.5321 -0.6227
  785SOL    HW1 3138   0.369   0.508   2.047  1.2983  1.1066  1.9728
  785SOL    HW2 3139   0.317   0.405   2.133  1.6403  2.1171 -0.1966
  785SOL     MW 3140   0.364   0.476   2.126  0.1627  0.0336 -0.2240
  786SOL     OW 3141   1.975   0.473   2.865 -0.1826  0.4024  0.3301
  786SOL    HW1 3142   1.961   0.517   2.946 -0.8188  0.4928 -0.9656
  786SOL    HW2 3143   2.063   0.494   2.825 -2.5197 -0.9666 -3.0396
  786SOL     MW 3144   1.985   0.481   2.870 -0.5749  0.2337 -0.2854
  787SOL     OW 3145   2.408   0.173   2.894  0.6655  0.6850  0.4236
  787SOL    HW1 3146   2.461   0.103   2.857  1.3075 -1.2373 -1.7916
  787SOL    HW2 3147   2.475   0.234   2.913 -0.4076 -0.6965 -0.1734
  787SOL     MW 3148   2.424   0.172   2.891  0.6086  0.2491  0.0526
  788SOL     OW 3149   2.966   2.926   2.273  0.0551 -0.2715  0.2789
  788SOL    HW1 3150   2.945   2.867   2.196 -0.4553 -3.3665  0.3634
  788SOL    HW2 3151   3.031   2.872   2.323  2.3706  1.5258  0.8899
  788SOL     MW 3152   2.972   2.911   2.270  0.2932 -0.4427  0.3707
  789SOL     OW 3153   0.045   0.232   2.996 -0.6351 -0.0662  0.8706
  789SOL    HW1 3154  -0.053   0.236   3.004 -2.2284  4.1640 -0.1472
  789SOL    HW2 3155   0.071   0.282   3.071 -2.4793 -0.1253 -0.8283
  789SOL     MW 3156   0.035   0.239   3.007 -1.0886  0.4841  0.5122
  790SOL     OW 3157   3.103   1.043   2.450 -0.1090  0.3552  0.3027
  790SOL    HW1 3158   3.068   1.008   2.527  3.3859  1.7117  0.2136
  790SOL    HW2 3159   3.035   1.036   2.382  0.9689 -2.1791 -0.0528
  790SOL     MW 3160   3.090   1.038   2.451  0.4943  0.1998  0.2440
  791SOL     OW 3161   2.636   0.395   2.646  0.1259  0.3497 -0.4423
  791SOL    HW1 3162   2.583   0.456   2.691 -0.5355 -2.2127  0.8513
  791SOL    HW2 3163   2.705   0.382   2.709  0.4860  2.3406 -0.4455
  791SOL     MW 3164   2.638   0.401   2.660  0.0861  0.2743 -0.2720
  792SOL     OW 3165   2.374   0.241   2.396  0.3780 -0.2782 -0.0192
  792SOL    HW1 3166   2.302   0.306   2.427 -0.5535 -0.6470 -1.3268
  792SOL    HW2 3167   2.394   0.191   2.474  1.1804  1.9106 -1.4075
  792SOL     MW 3168   2.367   0.243   2.410  0.3610 -0.0381 -0.3749
  793SOL     OW 3169   1.770   0.998   1.875 -0.8760  0.5586 -0.1234
  793SOL    HW1 3170   1.751   1.043   1.799  2.2474 -0.0246 -0.7312
  793SOL    HW2 3171   1.860   0.964   1.863 -2.4794 -1.0336  1.9523
  793SOL     MW 3172   1.779   0.999   1.863 -0.6755  0.2716  0.0703
  794SOL     OW 3173   1.430   2.287   0.125 -0.2052  0.0531  0.3039
  794SOL    HW1 3174   1.474   2.362   0.082 -1.9800  1.9433 -1.4044
  794SOL    HW2 3175   1.458   2.283   0.216  0.3548  1.4396 -0.3719
  794SOL     MW 3176   1.439   2.297   0.131 -0.3655  0.4854 -0.0107
  795SOL     OW 3177   2.320   0.932   2.602  0.3900  0.2000 -0.3720
  795SOL    HW1 3178   2.288   1.010   2.646  1.3060 -0.9345 -1.3143
  795SOL    HW2 3179   2.312   0.945   2.506  1.0774  1.2636 -0.9375
  795SOL     MW 3180   2.315   0.944   2.595  0.6015  0.1906 -0.5709
  796SOL     OW 3181   0.320   0.675   2.766 -0.2490  0.0039 -0.1417
  796SOL    HW1 3182   0.278   0.748   2.814 -1.8572 -0.5665 -0.7435
  796SOL    HW2 3183   0.265   0.642   2.695  0.0329  2.3795  0.7644
  796SOL     MW 3184   0.307   0.680   2.763 -0.4240  0.2421 -0.1015
  797SOL     OW 3185   2.598   0.119   2.567 -0.2950 -0.2761  0.0505
  797SOL    HW1 3186   2.625   0.213   2.578  2.4996  2.6782  0.6140
  797SOL    HW2 3187   2.667   0.080   2.511  0.9305 -0.7066  1.5438
  797SOL     MW 3188   2.611   0.126   2.561  0.2354  0.0569  0.3219
  798SOL     OW 3189   2.357   0.058   2.190  0.2122  0.1312 -0.4853
  798SOL    HW1 3190   2.370   0.128   2.258  4.0940 -0.5886  0.4295
  798SOL    HW2 3191   2.443   0.023   2.154  0.4268 -1.9429  0.1900
  798SOL     MW 3192   2.370   0.063   2.194  0.7527 -0.2374 -0.2755
  799SOL     OW 3193   2.482   2.927   0.199 -0.0692  0.0550  0.0052
  799SOL    HW1 3194   2.511   2.874   0.125 -1.0063  1.3806 -0.9178
  799SOL    HW2 3195   2.450   3.008   0.160  1.4527 -1.7628  0.3829
  799SOL     MW 3196   2.481   2.931   0.184  0.0079 -0.0099 -0.0668
  800SOL     OW 3197   1.904   3.098   1.769 -0.1708  0.1328 -0.2070
  800SOL    HW1 3198   1.836   3.029   1.773  0.5669 -0.8832  1.3178
  800SOL    HW2 3199   1.959   3.088   1.850  0.7744  0.6506 -0.1073
  800SOL     MW 3200   1.902   3.087   1.780  0.0513  0.0671  0.0073
  801SOL     OW 3201   2.799   1.294   2.564  0.1418 -0.4218  0.1719
  801SOL    HW1 3202   2.771   1.203   2.534  1.7118 -1.5238  0.4222
  801SOL    HW2 3203   2.890   1.312   2.538  0.3561  1.4107 -0.3491
  801SOL     MW 3204   2.807   1.284   2.556  0.3773 -0.3254  0.1362
  802SOL     OW 3205   2.559   1.519   2.764  0.0202 -0.0743  0.0020
  802SOL    HW1 3206   2.540   1.430   2.740  0.6596 -0.3017 -1.3671
  802SOL    HW2 3207   2.650   1.529   2.804 -0.7745 -2.2289  1.2790
  802SOL     MW 3208   2.569   1.509   2.766 -0.0003 -0.3886 -0.0101
  803SOL     OW 3209   2.313   1.297   1.960 -0.2929  0.0640  0.1917
  803SOL    HW1 3210   2.275   1.243   2.025  1.6539 -1.4362  0.7973
  803SOL    HW2 3211   2.297   1.252   1.872  0.9369 -0.4098 -0.5143
  803SOL     MW 3212   2.306   1.284   1.957  0.1263 -0.1964  0.1784
  804SOL     OW 3213   2.350   0.049   0.029  0.0694  0.0858  0.3505
  804SOL    HW1 3214   2.284   0.120   0.031  0.1196 -0.8534  0.4296
  804SOL    HW2 3215   2.403   0.067  -0.049  0.7201  0.6903 -1.3703
  804SOL     MW 3216   2.348   0.060   0.019  0.1619  0.0416  0.1339
  805SOL     OW 3217   2.772   1.023   2.540 -0.3571 -0.1035 -0.1616
  805SOL    HW1 3218   2.706   0.950   2.556  0.1140 -1.4456 -3.9864
  805SOL    HW2 3219   2.851   1.002   2.597  0.8193  1.6880 -0.0834
  805SOL     MW 3220   2.774   1.011   2.549 -0.1397 -0.0442 -0.6559
  806SOL     OW 3221   2.673   0.355   2.253  0.5656 -0.1048 -0.6360
  806SOL    HW1 3222   2.591   0.337   2.302 -1.2593  1.6663 -0.2826
  806SOL    HW2 3223   2.675   0.443   2.209 -1.2049  0.2831 -0.1297
  806SOL     MW 3224   2.662   0.364   2.254  0.0912  0.1801 -0.5226
  807SOL     OW 3225   0.024   1.141   2.032  0.3656  0.4072  0.5274
  807SOL    HW1 3226   0.086   1.068   2.012 -1.5877 -1.6662 -0.6282
  807SOL    HW2 3227  -0.032   1.108   2.103 -0.5342 -1.2476  1.1179
  807SOL     MW 3228   0.025   1.127   2.039 -0.0108 -0.0847  0.4528
  808SOL     OW 3229   2.568   3.085   2.796 -0.0443  0.4146 -0.0325
  808SOL    HW1 3230   2.553   2.995   2.762  3.7532 -1.6356 -0.6033
  808SOL    HW2 3231   2.576   3.131   2.712  0.0565 -3.0994  1.4638
  808SOL     MW 3232   2.567   3.079   2.780  0.4701 -0.3196  0.0896
  809SOL     OW 3233   2.486   1.253   2.416  0.3112 -0.4511 -0.0177
  809SOL    HW1 3234   2.501   1.255   2.513  0.0689 -2.7094 -0.8808
  809SOL    HW2 3235   2.573   1.256   2.382  0.5426  2.8136 -0.6241
  809SOL     MW 3236   2.499   1.254   2.424  0.3098 -0.3183 -0.2116
  810SOL     OW 3237   2.160   1.186   2.178  0.1840  0.1650 -0.2656
  810SOL    HW1 3238   2.214   1.116   2.217  1.4274  2.6601  0.4452
  810SOL    HW2 3239   2.067   1.155   2.181 -1.1304 -1.6340 -1.1488
  810SOL     MW 3240   2.155   1.173   2.184  0.1746  0.2569 -0.2883
  811SOL     OW 3241   1.473   0.100   2.252 -0.7054  0.2762  0.6115
  811SOL    HW1 3242   1.567   0.094   2.258 -0.0834  2.0430 -1.3891
  811SOL    HW2 3243   1.465   0.093   2.151  1.0395  2.1900 -2.5263
  811SOL     MW 3244   1.485   0.099   2.239 -0.3931  0.7619 -0.0665
  812SOL     OW 3245   1.396   2.769   2.099  0.0648  0.1605  0.4015
  812SOL    HW1 3246   1.490   2.789   2.072  0.3239 -0.9240 -1.6106
  812SOL    HW2 3247   1.406   2.743   2.192  4.2925  1.5938  0.7688
  812SOL     MW 3248   1.409   2.768   2.108  0.6567  0.2065  0.1845
  813SOL     OW 3249   1.855   0.762   2.166  0.2058 -0.2970 -0.3619
  813SOL    HW1 3250   1.819   0.677   2.190  0.7491  1.6216  2.3893
  813SOL    HW2 3251   1.881   0.801   2.247 -0.3374  1.5985  0.6674
  813SOL     MW 3252   1.854   0.756   2.180  0.2058  0.2063  0.1369
  814SOL     OW 3253   2.801   1.220   1.617 -0.2315 -0.0337  0.1938
  814SOL    HW1 3254   2.730   1.214   1.689  0.0724 -0.6764  0.2959
  814SOL    HW2 3255   2.773   1.146   1.561  1.1841  1.6984 -1.9067
  814SOL     MW 3256   2.788   1.210   1.619 -0.0047  0.1100 -0.0699
  815SOL     OW 3257   2.466   1.643   2.351  0.3987  0.2426 -0.6901
  815SOL    HW1 3258   2.392   1.594   2.329 -2.2242  0.4255  2.1726
  815SOL    HW2 3259   2.535   1.589   2.391 -2.8154  1.3879 -0.5345
  815SOL     MW 3260   2.465   1.629   2.353 -0.3714  0.4178 -0.2919
  816SOL     OW 3261   0.670   0.706   2.708  0.0559 -0.3355 -0.3456
  816SOL    HW1 3262   0.676   0.630   2.761  1.3758  0.2517 -2.9725
  816SOL    HW2 3263   0.608   0.669   2.637 -1.2924  1.6457 -0.2318
  816SOL     MW 3264   0.663   0.691   2.706  0.0521  0.0034 -0.6772
  817SOL     OW 3265   3.028   1.148   1.375 -0.4142 -0.4517 -0.2396
  817SOL    HW1 3266   3.080   1.172   1.453 -0.4761  4.2641 -2.4623
  817SOL    HW2 3267   3.010   1.231   1.328  2.0032  2.5355 -1.2504
  817SOL     MW 3268   3.032   1.162   1.379 -0.1034  0.5646 -0.6663
  818SOL     OW 3269   1.914   0.971   2.681 -0.0458 -0.4533  0.0576
  818SOL    HW1 3270   1.950   1.036   2.625 -2.1952  1.5628  0.9867
  818SOL    HW2 3271   1.982   0.907   2.701  0.4216  0.8841  0.8238
  818SOL     MW 3272   1.927   0.971   2.677 -0.2677 -0.0109  0.2813
  819SOL     OW 3273   1.839   0.273   2.352  0.5067 -0.0736 -0.8049
  819SOL    HW1 3274   1.783   0.345   2.376 -0.1860 -0.2281  1.6687
  819SOL    HW2 3275   1.899   0.264   2.427 -0.4026 -1.8363 -1.0652
  819SOL     MW 3276   1.839   0.282   2.365  0.2953 -0.3266 -0.5129
  820SOL     OW 3277   2.474   1.726   2.618  0.5927  0.6587  0.0626
  820SOL    HW1 3278   2.481   1.665   2.690 -1.3162  0.1171  0.4756
  820SOL    HW2 3279   2.482   1.678   2.533 -0.3703 -2.6783 -1.4929
  820SOL     MW 3280   2.476   1.711   2.616  0.2138  0.1469 -0.0882
  821SOL     OW 3281   2.575   1.332   2.018 -0.0685 -0.1018 -1.0234
  821SOL    HW1 3282   2.588   1.405   1.954 -2.4731  1.3643 -0.7778
  821SOL    HW2 3283   2.486   1.311   2.006  0.2607 -0.6008  1.9295
  821SOL     MW 3284   2.565   1.339   2.008 -0.3423  0.0258 -0.6014
  822SOL     OW 3285   2.916   2.682   1.386  0.2059 -0.2397  0.4873
  822SOL    HW1 3286   2.850   2.748   1.363  0.9491  0.4179  1.0473
  822SOL    HW2 3287   2.977   2.726   1.444 -0.5559 -1.5901 -1.1586
  822SOL     MW 3288   2.915   2.696   1.390  0.2034 -0.3311  0.3440
  823SOL     OW 3289   2.321   0.435   1.751  0.4841  0.1978 -0.4209
  823SOL    HW1 3290   2.403   0.383   1.735  1.8868  1.9993  2.7104
  823SOL    HW2 3291   2.244   0.376   1.731 -1.3895  0.1527 -1.5760
  823SOL     MW 3292   2.322   0.420   1.746  0.4220  0.4295 -0.1601
  824SOL     OW 3293   2.124   1.352   2.562 -0.2198  1.1481  0.6729
  824SOL    HW1 3294   2.170   1.375   2.476  0.6766  1.3900 -0.7281
  824SOL    HW2 3295   2.093   1.440   2.600 -1.3416  0.7717  2.4228
  824SOL     MW 3296   2.126   1.367   2.556 -0.2496  1.1304  0.7189
  825SOL     OW 3297   2.153   2.395   0.387 -0.8907  0.0483 -0.6525
  825SOL    HW1 3298   2.208   2.448   0.334 -1.6591  2.1098 -3.3190
  825SOL    HW2 3299   2.207   2.375   0.464 -1.4962 -1.9885 -3.2926
  825SOL     MW 3300   2.168   2.399   0.390 -1.0720  0.0515 -1.3527
  826SOL     OW 3301   1.746   2.366   0.404 -0.1948  0.8257  0.3058
  826SOL    HW1 3302   1.741   2.292   0.469  0.2772 -1.0405  1.2406
  826SOL    HW2 3303   1.740   2.447   0.462 -1.1098  2.7171  0.8568
  826SOL     MW 3304   1.744   2.367   0.420 -0.2533  0.8290  0.5018
  827SOL     OW 3305   1.934   2.291   0.863  0.1870 -0.1521 -0.5598
  827SOL    HW1 3306   1.881   2.281   0.780  0.7862  0.7359 -1.0890
  827SOL    HW2 3307   1.906   2.218   0.926  0.3168 -1.3813  3.0026
  827SOL     MW 3308   1.924   2.280   0.861  0.2832 -0.1971 -0.1596
  828SOL     OW 3309   0.049   2.598   0.562  0.3601  0.3852 -0.3108
  828SOL    HW1 3310   0.140   2.577   0.562 -0.4391 -3.4347 -0.3661
  828SOL    HW2 3311   0.040   2.620   0.466 -0.0033 -1.2101 -0.6837
  828SOL     MW 3312   0.060   2.598   0.550  0.2067 -0.3293 -0.3673
  829SOL     OW 3313   3.002   2.887   1.220 -0.6793 -0.0067 -0.2453
  829SOL    HW1 3314   2.942   2.887   1.152  0.9726 -0.3890  0.8419
  829SOL    HW2 3315   3.050   2.805   1.206  0.0656  1.1086  0.4911
  829SOL     MW 3316   3.001   2.876   1.209 -0.3631  0.0900 -0.0047
  830SOL     OW 3317   2.494   2.779   1.983  0.9007 -0.2963  0.0870
  830SOL    HW1 3318   2.410   2.830   1.967 -2.7791  3.1324  0.4815
  830SOL    HW2 3319   2.548   2.794   1.904 -0.1513 -3.0062 -0.7904
  830SOL     MW 3320   2.490   2.788   1.970  0.2764 -0.2014  0.0232
  831SOL     OW 3321   2.459   2.435   1.207 -0.0425 -0.1165  0.4414
  831SOL    HW1 3322   2.436   2.367   1.277 -0.1825 -1.5350  3.6547
  831SOL    HW2 3323   2.553   2.414   1.197  1.1275  2.5920  1.9341
  831SOL     MW 3324   2.468   2.423   1.215  0.0934  0.0537  1.0623
  832SOL     OW 3325   2.416   2.118   1.909  0.3233  0.1227  0.2472
  832SOL    HW1 3326   2.449   2.206   1.920  0.9085  2.5639 -0.3021
  832SOL    HW2 3327   2.499   2.071   1.889  0.3959 -1.3037 -1.6969
  832SOL     MW 3328   2.431   2.124   1.908  0.4101  0.2566 -0.0818
  833SOL     OW 3329   1.629   2.546   0.838 -0.0396 -1.2049 -0.1850
  833SOL    HW1 3330   1.609   2.513   0.931 -1.1685  1.4207 -1.0133
  833SOL    HW2 3331   1.569   2.627   0.835 -1.1937  0.3710  2.3678
  833SOL     MW 3332   1.618   2.552   0.850 -0.3409 -0.6506  0.0426
  834SOL     OW 3333   2.257   2.368   0.641  0.0567  0.4234  0.4386
  834SOL    HW1 3334   2.221   2.288   0.684  1.2362 -3.2256  1.0626
  834SOL    HW2 3335   2.346   2.363   0.658 -1.4555 -0.0144 -1.7273
  834SOL     MW 3336   2.264   2.357   0.649  0.0128 -0.1158  0.2352
  835SOL     OW 3337   1.777   2.538   0.612  1.0122 -0.5108  0.1527
  835SOL    HW1 3338   1.727   2.544   0.692 -0.2235  3.8427 -1.9142
  835SOL    HW2 3339   1.811   2.450   0.637  4.1047 -1.3467  0.7008
  835SOL     MW 3340   1.775   2.527   0.626  1.2572 -0.0467 -0.0477
  836SOL     OW 3341   2.093   2.090   1.704  0.5015 -0.3364  0.5194
  836SOL    HW1 3342   2.177   2.045   1.700 -1.0916  0.3221  2.2248
  836SOL    HW2 3343   2.110   2.166   1.761 -0.0703 -0.4729  0.4221
  836SOL     MW 3344   2.107   2.094   1.711  0.2158 -0.2675  0.7316
  837SOL     OW 3345   2.104   0.172   0.627 -0.1904 -0.0700 -0.3311
  837SOL    HW1 3346   2.018   0.187   0.600  0.8379  3.5179 -0.8963
  837SOL    HW2 3347   2.144   0.098   0.580 -0.8557 -0.7745 -1.2426
  837SOL     MW 3348   2.098   0.164   0.617 -0.1425  0.3105 -0.5259
  838SOL     OW 3349   2.906   2.056   0.901  0.5460 -0.0810 -0.2079
  838SOL    HW1 3350   2.828   2.006   0.896 -0.4105  0.7664  0.1797
  838SOL    HW2 3351   2.956   2.032   0.984 -1.5269  0.9712  1.7355
  838SOL     MW 3352   2.903   2.046   0.912  0.1463  0.1696  0.0997
  839SOL     OW 3353   1.556   2.388   1.049 -0.5535  0.1906 -0.0466
  839SOL    HW1 3354   1.531   2.464   1.096  0.3385 -0.4721 -1.9592
  839SOL    HW2 3355   1.561   2.305   1.116 -2.8921  0.2546  1.5776
  839SOL     MW 3356   1.554   2.387   1.064 -0.7444  0.1116 -0.0847
  840SOL     OW 3357   2.430   2.103   2.332  0.2033 -0.1391 -0.4924
  840SOL    HW1 3358   2.393   2.190   2.306 -1.7019  1.3669  0.5120
  840SOL    HW2 3359   2.480   2.130   2.410  1.7752  1.9933 -0.2649
  840SOL     MW 3360   2.432   2.118   2.339  0.1593  0.3410 -0.3299
  841SOL     OW 3361   2.326   2.289   0.115  0.1121 -0.2785  0.4479
  841SOL    HW1 3362   2.356   2.372   0.083 -0.7258  0.4019 -2.3793
  841SOL    HW2 3363   2.239   2.270   0.078  0.9329 -0.3191  0.7146
  841SOL     MW 3364   2.318   2.297   0.106  0.1098 -0.1941  0.1101
  842SOL     OW 3365   2.634   1.913   1.446 -0.0802  0.1947  0.8394
  842SOL    HW1 3366   2.562   1.854   1.424 -0.3622  0.4041  1.6008
  842SOL    HW2 3367   2.643   1.975   1.371  0.5094  0.3628 -0.1260
  842SOL     MW 3368   2.625   1.914   1.433 -0.0396  0.2445  0.8125
  843SOL     OW 3369   2.636   2.778   1.751  0.2139 -0.1097  0.4640
  843SOL    HW1 3370   2.728   2.759   1.782  2.7213  3.4899  1.6717
  843SOL    HW2 3371   2.606   2.686   1.719 -0.6975 -0.8807 -1.0649
  843SOL     MW 3372   2.644   2.763   1.751  0.4244  0.2635  0.4216
  844SOL     OW 3373   2.709   2.329   1.103 -0.4114 -0.0487 -0.4854
  844SOL    HW1 3374   2.727   2.367   1.018 -2.2872  0.5820  1.1192
  844SOL    HW2 3375   2.767   2.380   1.162  0.4033  0.4430 -1.0492
  844SOL     MW 3376   2.719   2.340   1.100 -0.5514  0.0994 -0.3481
  845SOL     OW 3377   2.862   2.597   0.289  0.2183  0.1084  0.1398
  845SOL    HW1 3378   2.834   2.527   0.345 -2.2881  2.3632 -0.3438
  845SOL    HW2 3379   2.865   2.659   0.358  0.4993 -1.0065 -0.6604
  845SOL     MW 3380   2.859   2.596   0.306 -0.0754  0.2588 -0.0296
  846SOL     OW 3381   1.469   2.761   0.796  0.0377 -0.0075 -0.0305
  846SOL    HW1 3382   1.522   2.842   0.808 -0.1519  0.3788  0.8594
  846SOL    HW2 3383   1.379   2.786   0.816  0.3557 -1.3240 -1.4824
  846SOL     MW 3384   1.464   2.775   0.800  0.0546 -0.1302 -0.1047
  847SOL     OW 3385   2.480   1.849   0.224 -0.4814 -0.0354  0.2729
  847SOL    HW1 3386   2.443   1.768   0.271 -2.4144  0.1768 -0.5442
  847SOL    HW2 3387   2.461   1.829   0.123 -1.5893 -0.1876 -0.9214
  847SOL     MW 3388   2.473   1.836   0.217 -0.8826 -0.0275  0.0075
  848SOL     OW 3389   2.685   2.057   1.202 -0.0715 -0.3327 -0.0543
  848SOL    HW1 3390   2.715   2.145   1.167  0.8621 -3.6321 -3.4004
  848SOL    HW2 3391   2.681   2.005   1.122  0.6345  2.0995  0.8171
  848SOL     MW 3392   2.688   2.062   1.187  0.1448 -0.4471 -0.3808
  849SOL     OW 3393   1.961   2.854   0.806 -0.5149 -0.2524  0.7413
  849SOL    HW1 3394   1.897   2.804   0.859 -2.2536  0.6858  0.9226
  849SOL    HW2 3395   2.020   2.779   0.787  1.0020 -0.8372 -0.9497
  849SOL     MW 3396   1.960   2.837   0.810 -0.5441 -0.2057  0.5421
  850SOL     OW 3397   2.308   1.888   1.624 -0.2480  0.2071 -0.2452
  850SOL    HW1 3398   2.220   1.886   1.583  2.8213  2.7573 -0.0578
  850SOL    HW2 3399   2.352   1.975   1.604  0.6663  3.0837  0.2385
  850SOL     MW 3400   2.302   1.899   1.616  0.2776  0.9231 -0.1566
  851SOL     OW 3401   2.477   2.224   0.377  0.9691 -0.4381  0.5261
  851SOL    HW1 3402   2.522   2.215   0.293  1.9018 -0.9579 -1.1744
  851SOL    HW2 3403   2.462   2.320   0.398 -0.3289  0.3057 -3.0094
  851SOL     MW 3404   2.481   2.235   0.369  0.9209 -0.4085 -0.1648
  852SOL     OW 3405   2.295   2.007   0.367 -0.2415 -0.3898 -0.2390
  852SOL    HW1 3406   2.331   2.095   0.374 -2.9529  0.4123  0.4928
  852SOL    HW2 3407   2.366   1.959   0.320 -2.9971  1.3280 -2.3123
  852SOL     MW 3408   2.309   2.012   0.362 -0.9628 -0.0573 -0.4160
  853SOL     OW 3409   2.526   2.374   1.925  0.4885 -0.3883 -0.0349
  853SOL    HW1 3410   2.515   2.439   1.856  0.7245  0.0481 -0.3808
  853SOL    HW2 3411   2.622   2.386   1.939 -1.7868  1.3190 -1.4879
  853SOL     MW 3412   2.537   2.384   1.917  0.2194 -0.1055 -0.2723
  854SOL     OW 3413   2.880   2.290   0.736  0.6396  0.0726 -0.2404
  854SOL    HW1 3414   2.838   2.259   0.655  0.1593 -1.1055  2.2488
  854SOL    HW2 3415   2.897   2.212   0.794  1.0744 -0.9710  0.8947
  854SOL     MW 3416   2.877   2.276   0.733  0.6336 -0.2205  0.2378
  855SOL     OW 3417   2.778   2.376   0.432  0.3070  0.6265 -0.4551
  855SOL    HW1 3418   2.684   2.350   0.438  1.7664 -0.3518  2.3401
  855SOL    HW2 3419   2.820   2.296   0.397  0.8546  1.6168  1.8146
  855SOL     MW 3420   2.771   2.362   0.428  0.5718  0.6281  0.2131
  856SOL     OW 3421   2.059   1.857   0.237 -0.1167  0.0265 -0.7154
  856SOL    HW1 3422   1.965   1.866   0.261  0.8668  1.4889  2.3111
  856SOL    HW2 3423   2.112   1.908   0.299  0.2711 -1.5743  0.9975
  856SOL     MW 3424   2.054   1.865   0.248  0.0642  0.0082 -0.0901
  857SOL     OW 3425   2.472   1.953   0.575 -0.2253 -0.2234  0.3188
  857SOL    HW1 3426   2.426   1.993   0.496  0.2847  0.5954 -0.7205
  857SOL    HW2 3427   2.404   1.928   0.648 -1.0629  0.0851  3.2353
  857SOL     MW 3428   2.457   1.955   0.574 -0.2686 -0.0747  0.5665
  858SOL     OW 3429   2.900   2.681   1.783 -0.1885  0.1978  0.0863
  858SOL    HW1 3430   2.974   2.744   1.780 -0.2318 -0.4100  3.5552
  858SOL    HW2 3431   2.929   2.604   1.733 -0.7844  1.8346 -0.2652
  858SOL     MW 3432   2.913   2.679   1.776 -0.2728  0.3335  0.4976
  859SOL     OW 3433   1.822   2.691   0.995 -0.7798  0.2178 -0.6759
  859SOL    HW1 3434   1.770   2.626   0.947 -3.2611 -0.5885 -1.5040
  859SOL    HW2 3435   1.884   2.634   1.034  1.4150 -2.1730 -0.4277
  859SOL     MW 3436   1.824   2.675   0.994 -0.8176 -0.2040 -0.7524
  860SOL     OW 3437   2.611   2.583   0.161 -0.0563 -0.4678 -0.4209
  860SOL    HW1 3438   2.698   2.587   0.211  0.1444 -0.6839 -1.5628
  860SOL    HW2 3439   2.617   2.659   0.106  2.6311  1.1864 -0.5487
  860SOL     MW 3440   2.623   2.593   0.160  0.3248 -0.2781 -0.5884
  861SOL     OW 3441   1.631   2.140   1.202 -0.0203 -0.1841 -0.3127
  861SOL    HW1 3442   1.661   2.198   1.272 -1.7711  4.5361 -0.0422
  861SOL    HW2 3443   1.551   2.105   1.241 -1.1523  0.6309  0.6484
  861SOL     MW 3444   1.624   2.143   1.216 -0.4007  0.5462 -0.1502
  862SOL     OW 3445   2.440   1.724   1.429 -0.5854 -0.0713  0.0392
  862SOL    HW1 3446   2.381   1.770   1.488  0.4078 -2.8504 -1.3545
  862SOL    HW2 3447   2.388   1.674   1.368  0.2719 -0.1224  0.7757
  862SOL     MW 3448   2.426   1.723   1.429 -0.3413 -0.4447 -0.0475
  863SOL     OW 3449   2.974   1.711   0.979 -1.0074  0.3747 -0.3515
  863SOL    HW1 3450   3.064   1.720   1.015 -0.4350 -0.0917 -2.0523
  863SOL    HW2 3451   2.932   1.748   1.053  1.7119  0.4297  0.3124
  863SOL     MW 3452   2.981   1.717   0.993 -0.5731  0.3204 -0.4883
  864SOL     OW 3453   0.019   1.780   0.749  0.0850 -0.6453  0.4474
  864SOL    HW1 3454  -0.041   1.752   0.820 -0.7045 -0.9028  0.5324
  864SOL    HW2 3455  -0.026   1.773   0.667  2.1189  2.4651  0.6641
  864SOL     MW 3456   0.005   1.775   0.747  0.2492 -0.2689  0.4872
  865SOL     OW 3457   2.567   2.165   0.101 -0.0952 -0.0600  0.0609
  865SOL    HW1 3458   2.560   2.068   0.090 -2.1314 -0.8460  0.2982
  865SOL    HW2 3459   2.487   2.216   0.084  2.7719  1.1538  0.9232
  865SOL     MW 3460   2.555   2.159   0.097  0.0145 -0.0036  0.2060
  866SOL     OW 3461   2.693   2.362   1.538  0.6198 -0.2976 -0.1283
  866SOL    HW1 3462   2.703   2.274   1.568 -0.0224 -0.1291 -0.7902
  866SOL    HW2 3463   2.719   2.356   1.444  1.1670 -2.9265 -3.0140
  866SOL     MW 3464   2.698   2.350   1.529  0.6073 -0.6222 -0.5964
  867SOL     OW 3465   0.101   2.640   1.734 -0.1802 -0.4901  0.0321
  867SOL    HW1 3466   0.166   2.698   1.777  2.4027 -0.3223  0.2597
  867SOL    HW2 3467   0.084   2.697   1.656  0.5167  0.6574 -1.7833
  867SOL     MW 3468   0.107   2.655   1.729  0.2526 -0.3166 -0.1774
  868SOL     OW 3469   2.751   2.698   0.555 -0.3952  0.1041  0.7601
  868SOL    HW1 3470   2.703   2.617   0.536 -1.8070 -3.6682 -2.3485
  868SOL    HW2 3471   2.692   2.766   0.528 -0.9294  0.2082  1.2214
  868SOL     MW 3472   2.737   2.697   0.549 -0.6520 -0.3799  0.4108
  869SOL     OW 3473   2.018   2.475   1.049 -0.8330 -0.2207  0.2699
  869SOL    HW1 3474   2.073   2.525   0.988  1.4317 -3.2840 -0.7059
  869SOL    HW2 3475   1.963   2.414   0.993 -0.0909 -0.9284 -3.8818
  869SOL     MW 3476   2.018   2.474   1.033 -0.4363 -0.7183 -0.4066
  870SOL     OW 3477   2.237   3.081   0.475  0.1830 -0.1371 -0.2177
  870SOL    HW1 3478   2.324   3.111   0.457 -1.1659 -0.3982 -1.2590
  870SOL    HW2 3479   2.242   2.994   0.510 -1.7318 -0.8623  2.7050
  870SOL     MW 3480   2.249   3.073   0.477 -0.2476 -0.2672  0.0305
  871SOL     OW 3481   2.482   2.113   0.890  0.2411 -0.2716  0.3486
  871SOL    HW1 3482   2.414   2.048   0.864  1.0595 -1.0065  0.9238
  871SOL    HW2 3483   2.447   2.196   0.919 -2.6718 -0.9082  0.2003
  871SOL     MW 3484   2.468   2.115   0.890 -0.0353 -0.4526  0.4049
  872SOL     OW 3485   2.126   2.538   1.575  0.0510 -0.1420  1.1834
  872SOL    HW1 3486   2.071   2.595   1.631  0.9924 -1.3241  2.6313
  872SOL    HW2 3487   2.075   2.503   1.499 -3.0242 -0.3678 -0.6966
  872SOL     MW 3488   2.112   2.541   1.572 -0.2306 -0.3278  1.1264
  873SOL     OW 3489   2.866   2.134   1.824  0.1839  1.0128 -0.6463
  873SOL    HW1 3490   2.850   2.229   1.851 -1.1293  0.2537  1.0241
  873SOL    HW2 3491   2.944   2.141   1.765  0.8684 -0.1667  1.2668
  873SOL     MW 3492   2.874   2.147   1.820  0.1009  0.7570 -0.1735
  874SOL     OW 3493   2.248   1.390   2.341 -0.3021  0.3186 -0.1681
  874SOL    HW1 3494   2.223   1.322   2.272  1.0744 -2.3462 -1.0283
  874SOL    HW2 3495   2.333   1.368   2.359 -1.1805  1.7939 -1.7261
  874SOL     MW 3496   2.256   1.378   2.334 -0.2364  0.1616 -0.4872
  875SOL     OW 3497   2.386   2.371   0.944  0.1948 -0.1372 -0.2077
  875SOL    HW1 3498   2.436   2.435   0.890 -0.2499  2.0733  1.7671
  875SOL    HW2 3499   2.400   2.390   1.038  0.5459  0.8428  2.4517
  875SOL     MW 3500   2.394   2.382   0.949  0.1825  0.2837  0.4037
  876SOL     OW 3501   3.080   2.242   1.301 -0.6196 -0.1174 -0.0852
  876SOL    HW1 3502   3.156   2.277   1.248  0.6998  3.1536  2.2259
  876SOL    HW2 3503   3.109   2.248   1.389 -2.4352 -2.8245 -1.1279
  876SOL     MW 3504   3.094   2.248   1.305 -0.6850 -0.0430  0.0821
  877SOL     OW 3505   0.033   2.741   0.328 -0.6940 -0.4358  0.1867
  877SOL    HW1 3506   0.075   2.825   0.331 -1.4087 -2.0433 -1.8368
  877SOL    HW2 3507   0.033   2.728   0.233 -0.8815 -1.7362 -2.5895
  877SOL     MW 3508   0.038   2.751   0.316 -0.8130 -0.8194 -0.4465
  878SOL     OW 3509   2.263   1.686   1.175 -0.1630 -0.6309 -0.5857
  878SOL    HW1 3510   2.181   1.626   1.212 -0.0291 -1.5530 -0.0673
  878SOL    HW2 3511   2.310   1.620   1.130 -2.7070 -0.3879 -2.2667
  878SOL     MW 3512   2.258   1.670   1.174 -0.4810 -0.7205 -0.7391
  879SOL     OW 3513   2.729   2.473   0.843  0.0346  0.0966 -0.1812
  879SOL    HW1 3514   2.791   2.542   0.865 -2.6495 -0.0557 -1.5720
  879SOL    HW2 3515   2.784   2.393   0.814 -0.3691  1.3533 -2.4522
  879SOL     MW 3516   2.744   2.471   0.842 -0.3728  0.2423 -0.6643
  880SOL     OW 3517   2.583   2.216   0.663 -0.0658 -0.1175  0.6220
  880SOL    HW1 3518   2.550   2.177   0.747 -0.4420  0.2876 -1.4536
  880SOL    HW2 3519   2.541   2.161   0.604  2.7183 -2.0120 -1.1171
  880SOL     MW 3520   2.573   2.204   0.667  0.2519 -0.3140  0.1187
  881SOL     OW 3521   2.982   2.775   0.690  0.1395  0.2665  0.2208
  881SOL    HW1 3522   2.902   2.750   0.638  2.3984  0.1256 -0.0916
  881SOL    HW2 3523   3.047   2.739   0.624  0.0876  2.6226  1.1844
  881SOL     MW 3524   2.980   2.767   0.674  0.4307  0.5588  0.3067
  882SOL     OW 3525   2.256   2.889   1.940 -0.6872  0.5951 -0.3127
  882SOL    HW1 3526   2.260   2.902   1.843  0.6135  0.0340 -0.4727
  882SOL    HW2 3527   2.203   2.809   1.950 -0.2854  0.5905  0.8864
  882SOL     MW 3528   2.250   2.880   1.929 -0.4626  0.5204 -0.1756
  883SOL     OW 3529   2.429   2.160   1.305  0.2415 -0.6466 -0.3789
  883SOL    HW1 3530   2.500   2.114   1.265  2.5646  1.0949  0.9116
  883SOL    HW2 3531   2.354   2.143   1.238 -0.1927 -1.1118  0.8974
  883SOL     MW 3532   2.428   2.151   1.291  0.4907 -0.4782 -0.0402
  884SOL     OW 3533   1.927   1.836   1.050 -0.0624 -0.0084  0.2204
  884SOL    HW1 3534   1.873   1.918   1.038 -1.8931 -2.2786 -1.0244
  884SOL    HW2 3535   2.017   1.869   1.040 -1.6499  2.7547 -3.3301
  884SOL     MW 3536   1.932   1.852   1.047 -0.5134  0.0566 -0.4123
  885SOL     OW 3537   2.907   2.435   1.692  0.8834  0.0107 -0.2919
  885SOL    HW1 3538   2.983   2.389   1.659  0.0866  0.1799  1.2758
  885SOL    HW2 3539   2.840   2.431   1.623 -3.2168 -0.6319 -0.2450
  885SOL     MW 3540   2.908   2.428   1.679  0.2373 -0.0518 -0.0788
  886SOL     OW 3541   2.885   2.433   1.275  0.2788 -0.3876 -0.4289
  886SOL    HW1 3542   2.955   2.372   1.288  1.1932  1.2445  0.5837
  886SOL    HW2 3543   2.905   2.521   1.323  2.2976  1.1176  2.6649
  886SOL     MW 3544   2.897   2.437   1.283  0.6658  0.0263  0.1129
  887SOL     OW 3545   2.338   2.711   1.548 -0.5945 -0.1360  0.7661
  887SOL    HW1 3546   2.389   2.703   1.467 -0.8216  0.4917 -0.9094
  887SOL    HW2 3547   2.267   2.642   1.542 -1.4764  0.6094  0.2920
  887SOL     MW 3548   2.335   2.701   1.537 -0.7408  0.0452  0.4825
  888SOL     OW 3549   2.054   2.159   1.396 -0.2334 -0.0852  0.6836
  888SOL    HW1 3550   2.124   2.128   1.340 -1.3467  0.5989 -1.2683
  888SOL    HW2 3551   2.088   2.175   1.481  2.5927  3.3645 -0.9259
  888SOL     MW 3552   2.068   2.157   1.400 -0.0074  0.4602  0.2137
  889SOL     OW 3553   2.283   1.917   2.040  0.0482 -0.5202  0.7140
  889SOL    HW1 3554   2.356   1.874   2.091 -0.0196 -1.6853  0.0722
  889SOL    HW2 3555   2.331   1.998   2.011  1.5475 -1.1975 -0.0445
  889SOL     MW 3556   2.299   1.922   2.043  0.2371 -0.7633  0.5292
  890SOL     OW 3557   0.054   2.346   0.169 -0.2528  0.2765  0.1566
  890SOL    HW1 3558   0.019   2.435   0.184 -1.5649  1.2722  0.0215
  890SOL    HW2 3559   0.046   2.305   0.253  2.4974 -0.7509  2.2624
  890SOL     MW 3560   0.048   2.353   0.182 -0.0630  0.2723  0.4166
  891SOL     OW 3561   3.011   2.025   1.165 -0.3880 -0.6194  0.2589
  891SOL    HW1 3562   3.088   1.977   1.154  0.7569  1.4026  1.9435
  891SOL    HW2 3563   3.044   2.097   1.227  3.1965 -0.5070 -0.4011
  891SOL     MW 3564   3.026   2.029   1.172  0.2360 -0.3378  0.3941
  892SOL     OW 3565   2.480   2.386   2.794  0.0352 -0.3567 -0.1736
  892SOL    HW1 3566   2.444   2.310   2.833  0.4958  0.1589 -0.7256
  892SOL    HW2 3567   2.571   2.400   2.828  1.7427 -0.7966  2.0271
  892SOL     MW 3568   2.487   2.378   2.803  0.3212 -0.3467  0.0439
  893SOL     OW 3569   1.646   2.337   1.378 -0.1172 -0.4627  0.0247
  893SOL    HW1 3570   1.565   2.386   1.413 -1.9036  0.5579 -1.2907
  893SOL    HW2 3571   1.716   2.354   1.442 -0.2371 -1.1515  0.5761
  893SOL     MW 3572   1.644   2.346   1.391 -0.3687 -0.4189 -0.0761
  894SOL     OW 3573   2.760   1.887   0.465  0.2087  0.7558  0.5826
  894SOL    HW1 3574   2.687   1.889   0.534 -0.1054  1.7156 -0.8090
  894SOL    HW2 3575   2.734   1.841   0.389  1.5843  1.6349  0.6000
  894SOL     MW 3576   2.747   1.881   0.464  0.3487  0.9984  0.4013
  895SOL     OW 3577   2.258   2.125   1.117  0.1474 -0.9525  0.1615
  895SOL    HW1 3578   2.209   2.191   1.064 -1.4707  0.2111 -0.7684
  895SOL    HW2 3579   2.246   2.037   1.072  0.9961 -3.4629 -1.0863
  895SOL     MW 3580   2.250   2.122   1.104  0.0459 -1.1302 -0.1258
  896SOL     OW 3581   2.226   2.777   1.064  0.4528  0.6470 -0.0064
  896SOL    HW1 3582   2.271   2.765   1.151 -1.6282 -2.2989 -0.8001
  896SOL    HW2 3583   2.148   2.830   1.084 -0.5175  0.5710 -1.5148
  896SOL     MW 3584   2.222   2.782   1.078  0.0502  0.2483 -0.3101
  897SOL     OW 3585   3.080   3.020   0.007  0.1735  0.5100  0.0854
  897SOL    HW1 3586   3.134   2.940   0.016  1.5910 -2.3813  1.1113
  897SOL    HW2 3587   3.023   2.998  -0.062  1.4044 -1.5200 -2.7473
  897SOL     MW 3588   3.080   3.006  -0.001  0.5230 -0.1393 -0.1530
  898SOL     OW 3589   2.186   0.138   1.455  0.1982  0.3002 -0.1375
  898SOL    HW1 3590   2.128   0.067   1.482  0.1298  0.1933  0.0052
  898SOL    HW2 3591   2.152   0.163   1.365 -0.2238  3.0141  0.3042
  898SOL     MW 3592   2.174   0.132   1.447  0.1335  0.6442 -0.0604
  899SOL     OW 3593   2.911   3.021   0.612  0.8759 -0.3377  0.5892
  899SOL    HW1 3594   2.934   2.942   0.663 -3.6908  0.8742  1.4383
  899SOL    HW2 3595   2.819   3.051   0.629  0.0732  1.6035  2.9749
  899SOL     MW 3596   2.902   3.015   0.621  0.1675  0.0783  1.0160
  900SOL     OW 3597   0.131   2.365   1.104  1.0933  0.8544 -0.1748
  900SOL    HW1 3598   0.067   2.433   1.089 -0.4571  0.0658 -0.2580
  900SOL    HW2 3599   0.127   2.304   1.028 -0.9578 -1.4171  0.7027
  900SOL     MW 3600   0.122   2.366   1.092  0.6181  0.4506 -0.0700
  901SOL     OW 3601   1.746   2.878   1.783  0.5897 -0.0444 -0.0523
  901SOL    HW1 3602   1.806   2.813   1.763  1.2823  4.2001 -0.5328
  901SOL    HW2 3603   1.673   2.851   1.731  1.3719  1.2267 -0.5910
  901SOL     MW 3604   1.744   2.866   1.773  0.7843  0.6833 -0.1868
  902SOL     OW 3605   2.643   2.111   1.654 -0.0115 -0.1953  0.8576
  902SOL    HW1 3606   2.640   2.017   1.625  1.2251 -1.0624  1.5168
  902SOL    HW2 3607   2.718   2.117   1.715  1.9205  1.1403  0.4452
  902SOL     MW 3608   2.652   2.099   1.658  0.4065 -0.1335  0.8902
  903SOL     OW 3609   1.513   2.646   0.537  0.0443 -0.0971 -0.1911
  903SOL    HW1 3610   1.605   2.618   0.543  0.7038 -0.6606 -2.3239
  903SOL    HW2 3611   1.507   2.693   0.627 -0.6472  0.3230  4.7308
  903SOL     MW 3612   1.524   2.648   0.550  0.0401 -0.1160  0.1769
  904SOL     OW 3613   2.517   2.542   1.697 -0.0134  0.0733 -0.3150
  904SOL    HW1 3614   2.442   2.588   1.648 -0.1760  1.9854  0.5652
  904SOL    HW2 3615   2.555   2.481   1.637  0.4516 -0.3838 -0.3473
  904SOL     MW 3616   2.512   2.540   1.682  0.0265  0.2653 -0.2031
  905SOL     OW 3617   2.336   2.472   2.089  0.2649  0.5162  0.1336
  905SOL    HW1 3618   2.420   2.440   2.052  1.0346  0.3171 -2.2658
  905SOL    HW2 3619   2.283   2.400   2.142  0.1872 -1.9141  0.3650
  905SOL     MW 3620   2.340   2.458   2.091  0.3562  0.1693 -0.1525
  906SOL     OW 3621   2.494   2.525   0.744 -0.2060  0.1163 -0.7370
  906SOL    HW1 3622   2.580   2.502   0.776 -1.2413 -0.6606 -1.5058
  906SOL    HW2 3623   2.476   2.609   0.781  1.1145 -1.3756  0.4759
  906SOL     MW 3624   2.503   2.533   0.753 -0.1684 -0.1831 -0.6784
  907SOL     OW 3625   2.660   2.833   1.299  0.0727 -0.8770  0.0294
  907SOL    HW1 3626   2.711   2.902   1.349 -1.1630 -0.8241  3.1494
  907SOL    HW2 3627   2.689   2.841   1.210 -2.1384 -2.5684  2.9851
  907SOL     MW 3628   2.670   2.843   1.294 -0.3821 -1.0932  0.8310
  908SOL     OW 3629   2.694   2.380   0.009 -0.8288 -0.7660 -0.2960
  908SOL    HW1 3630   2.661   2.291   0.035  2.5395 -0.2084  1.0259
  908SOL    HW2 3631   2.655   2.460   0.063  0.6176  1.2141  0.2417
  908SOL     MW 3632   2.684   2.379   0.020 -0.1936 -0.4312 -0.0506
  909SOL     OW 3633   1.684   0.089   1.313 -0.0896  0.0359  0.6708
  909SOL    HW1 3634   1.653   0.182   1.324  0.7967  1.1767  1.4155
  909SOL    HW2 3635   1.663   0.055   1.402 -1.5923  2.4869  0.1759
  909SOL     MW 3636   1.677   0.097   1.326 -0.1709  0.5098  0.7038
  910SOL     OW 3637   2.123   1.644   0.383  0.2207 -0.2127 -0.0636
  910SOL    HW1 3638   2.101   1.552   0.346 -0.1368 -0.1287 -0.5829
  910SOL    HW2 3639   2.089   1.713   0.324  1.7117  2.1310  1.7277
  910SOL     MW 3640   2.115   1.641   0.370  0.3703  0.1076  0.1042
  911SOL     OW 3641   2.362   2.160   1.569  0.6690  0.5487 -0.2863
  911SOL    HW1 3642   2.447   2.174   1.599 -0.3970  1.5718 -2.2475
  911SOL    HW2 3643   2.365   2.160   1.469 -0.8952  1.1570  0.5172
  911SOL     MW 3644   2.373   2.162   1.560  0.3220  0.7639 -0.4390
  912SOL     OW 3645   2.917   1.865   1.381 -0.2284  0.1166  0.0026
  912SOL    HW1 3646   2.943   1.898   1.293  2.2809  0.8593 -3.9785
  912SOL    HW2 3647   2.835   1.901   1.408  3.2507 -1.7370  0.9360
  912SOL     MW 3648   2.910   1.874   1.373  0.5617 -0.0299 -0.3995
  913SOL     OW 3649   2.691   0.010   0.253  0.1002  0.5608  0.0621
  913SOL    HW1 3650   2.773  -0.036   0.266  0.6989  2.6896 -0.2960
  913SOL    HW2 3651   2.624  -0.064   0.257 -0.5784  1.8387 -1.0500
  913SOL     MW 3652   2.693  -0.006   0.255  0.0897  1.0103 -0.1318
  914SOL     OW 3653   2.703   1.805   2.943 -0.2612  0.0660  0.4271
  914SOL    HW1 3654   2.720   1.898   2.933 -2.3419 -2.0187  1.9490
  914SOL    HW2 3655   2.606   1.800   2.939 -1.6309 -1.0745 -0.9141
  914SOL     MW 3656   2.692   1.817   2.941 -0.7164 -0.3595  0.4509
  915SOL     OW 3657   1.816   0.117   0.107 -0.5529 -0.2299 -0.1005
  915SOL    HW1 3658   1.885   0.064   0.149  0.9380 -1.5906 -1.0573
  915SOL    HW2 3659   1.736   0.086   0.142  0.1555 -0.2521 -0.4080
  915SOL     MW 3660   1.814   0.106   0.117 -0.2627 -0.4123 -0.2673
  916SOL     OW 3661   1.773   2.167   1.980  0.4499 -0.3422 -0.6186
  916SOL    HW1 3662   1.830   2.246   1.968  0.2044 -3.0770 -0.1699
  916SOL    HW2 3663   1.770   2.115   1.898 -0.3587 -2.2276  0.2329
  916SOL     MW 3664   1.780   2.170   1.967  0.3108 -0.9518 -0.4470
  917SOL     OW 3665   2.554   2.211   2.584 -0.1040 -0.5613 -0.1744
  917SOL    HW1 3666   2.531   2.276   2.651 -1.5416 -1.8524 -1.5443
  917SOL    HW2 3667   2.618   2.252   2.535 -0.7200 -1.8245  0.9165
  917SOL     MW 3668   2.559   2.225   2.586 -0.3750 -0.8983 -0.2112
  918SOL     OW 3669   2.066   1.604   2.666 -0.3637 -0.6064  0.8155
  918SOL    HW1 3670   2.001   1.638   2.607 -1.6229  1.0131 -0.4062
  918SOL    HW2 3671   2.130   1.674   2.663 -2.8789 -1.5626  1.6658
  918SOL     MW 3672   2.066   1.618   2.658 -0.8617 -0.5189  0.7665
  919SOL     OW 3673   3.052   2.431   2.274 -0.5609  0.3189  0.4880
  919SOL    HW1 3674   3.000   2.351   2.284  0.7213 -3.1588  1.9674
  919SOL    HW2 3675   3.067   2.444   2.181 -0.0780  2.3247  3.3152
  919SOL     MW 3676   3.047   2.422   2.263 -0.3280  0.1247  1.0562
  920SOL     OW 3677   2.639   2.798   3.070  0.0344  0.9123  0.4777
  920SOL    HW1 3678   2.548   2.805   3.041 -1.9252 -0.5367  1.8515
  920SOL    HW2 3679   2.688   2.760   2.993 -1.3202 -0.6299  3.2371
  920SOL     MW 3680   2.634   2.794   3.056 -0.4029  0.5177  1.0230
  921SOL     OW 3681   2.460   2.609   2.647 -0.4594 -0.5745 -0.4362
  921SOL    HW1 3682   2.530   2.620   2.584  0.7926 -0.0963  1.9743
  921SOL    HW2 3683   2.463   2.528   2.701 -2.1542 -1.3969 -0.4556
  921SOL     MW 3684   2.470   2.600   2.646 -0.5178 -0.6199 -0.1207
  922SOL     OW 3685   2.085   2.655   0.421 -0.0427 -0.6785 -0.1119
  922SOL    HW1 3686   2.094   2.663   0.327 -0.5067  2.6070  1.1894
  922SOL    HW2 3687   2.097   2.562   0.434  0.3606  3.6542 -1.0037
  922SOL     MW 3688   2.088   2.644   0.411 -0.0507  0.3267 -0.0579
  923SOL     OW 3689   2.200   2.914   1.674  0.2589 -0.0562 -0.3291
  923SOL    HW1 3690   2.255   2.846   1.628  0.3674  1.6177 -0.2726
  923SOL    HW2 3691   2.146   2.945   1.600 -1.9166 -1.0880  0.6638
  923SOL     MW 3692   2.200   2.909   1.658 -0.0138  0.0285 -0.1907
  924SOL     OW 3693   1.082   2.734   2.625  0.7426 -0.0346 -0.0808
  924SOL    HW1 3694   1.177   2.755   2.618  0.9800 -0.4250  0.6032
  924SOL    HW2 3695   1.069   2.645   2.660 -0.3710 -1.9201  2.0595
  924SOL     MW 3696   1.093   2.725   2.629  0.6270 -0.3349  0.2918
  925SOL     OW 3697   2.996   0.232   2.628  0.3486 -0.7012 -0.3621
  925SOL    HW1 3698   2.952   0.234   2.542 -0.8198  1.5351 -0.1929
  925SOL    HW2 3699   2.964   0.304   2.686  1.2380  3.0246  0.7244
  925SOL     MW 3700   2.986   0.241   2.624  0.3118  0.0855 -0.1964
  926SOL     OW 3701   2.796   2.384   1.955 -0.1333  0.5345  0.5682
  926SOL    HW1 3702   2.822   2.446   2.021 -1.6479 -0.2671 -1.4478
  926SOL    HW2 3703   2.828   2.434   1.876 -0.2921  1.9295  1.2277
  926SOL     MW 3704   2.804   2.399   1.953 -0.3541  0.6128  0.3892
  927SOL     OW 3705   2.408   0.131   0.297  0.5157 -0.6654  0.1536
  927SOL    HW1 3706   2.475   0.204   0.289  0.5212  1.9898  2.6921
  927SOL    HW2 3707   2.381   0.117   0.200  0.2275  0.5048 -2.0146
  927SOL     MW 3708   2.414   0.139   0.283  0.4784 -0.1607  0.2025
  928SOL     OW 3709   2.155   2.337   1.809 -0.1844  0.1055  0.2664
  928SOL    HW1 3710   2.185   2.369   1.722  2.5965 -0.6192  0.5598
  928SOL    HW2 3711   2.233   2.311   1.859  1.0523 -1.9366  0.5175
  928SOL     MW 3712   2.169   2.338   1.804  0.3457 -0.2596  0.3382
  929SOL     OW 3713   2.751   2.346   2.456  0.2985 -0.0606 -0.8348
  929SOL    HW1 3714   2.786   2.278   2.387 -1.9839  0.5039 -2.6823
  929SOL    HW2 3715   2.820   2.351   2.519  2.7016  2.1794 -1.4449
  929SOL     MW 3716   2.765   2.337   2.455  0.3144  0.3094 -1.1590
  930SOL     OW 3717   2.003   2.803   2.674 -0.6038  0.4763  0.1161
  930SOL    HW1 3718   2.046   2.731   2.712 -0.0642 -0.7226 -2.2913
  930SOL    HW2 3719   2.074   2.857   2.645  1.5791 -0.3020  1.3312
  930SOL     MW 3720   2.018   2.801   2.675 -0.2446  0.2154 -0.0412
  931SOL     OW 3721   0.046   2.793   2.434  0.0608  0.2654 -0.3956
  931SOL    HW1 3722   0.023   2.840   2.526 -0.0159  1.6617  1.1230
  931SOL    HW2 3723   0.137   2.822   2.419 -1.7035 -0.0083 -0.6105
  931SOL     MW 3724   0.055   2.803   2.444 -0.1821  0.4135 -0.2236
  932SOL     OW 3725   2.807   1.983   2.518 -0.9203 -0.0543 -0.5137
  932SOL    HW1 3726   2.902   1.995   2.497  0.3839  0.7610  2.0546
  932SOL    HW2 3727   2.774   1.972   2.430  1.3747  0.8339 -0.7350
  932SOL     MW 3728   2.815   1.983   2.504 -0.4455  0.1704 -0.2041
  933SOL     OW 3729   2.091   2.801   2.207  0.0672 -0.3618 -0.0312
  933SOL    HW1 3730   2.169   2.842   2.236  0.2008  0.5258  2.2081
  933SOL    HW2 3731   2.032   2.867   2.184 -2.6614  2.5239 -0.5139
  933SOL     MW 3732   2.094   2.815   2.208 -0.2752  0.1361  0.2006
  934SOL     OW 3733   2.017   2.666   2.427 -0.1136  0.2471  0.0563
  934SOL    HW1 3734   2.013   2.727   2.496  2.2667 -2.4943 -0.1497
  934SOL    HW2 3735   2.038   2.723   2.342  1.1688  1.2196  0.6497
  934SOL     MW 3736   2.020   2.681   2.425  0.3696  0.0137  0.1074
  935SOL     OW 3737   2.636   1.479   1.776 -0.0512  0.2644 -0.0488
  935SOL    HW1 3738   2.730   1.464   1.766  0.0302 -1.0751  0.1317
  935SOL    HW2 3739   2.584   1.470   1.693 -0.6057 -0.6450  2.3703
  935SOL     MW 3740   2.642   1.476   1.764 -0.1136 -0.0323  0.2942
  936SOL     OW 3741   2.942   2.240   0.022 -0.2763 -0.2839  0.3463
  936SOL    HW1 3742   3.013   2.268   0.074 -2.3207 -0.6120 -1.2370
  936SOL    HW2 3743   2.875   2.310   0.024  4.6486  0.4391 -1.8402
  936SOL     MW 3744   2.943   2.253   0.029  0.1038 -0.2318 -0.1511
  937SOL     OW 3745   1.955   2.129   2.666  0.0077  0.5036 -0.6396
  937SOL    HW1 3746   2.040   2.096   2.686 -1.5955  0.4525 -0.2640
  937SOL    HW2 3747   1.941   2.127   2.573 -0.4525  0.1287  0.6382
  937SOL     MW 3748   1.964   2.125   2.656 -0.2645  0.4474 -0.4215
  938SOL     OW 3749   2.303   1.724   1.835 -0.7363  0.5718  0.3185
  938SOL    HW1 3750   2.292   1.792   1.760 -2.6354  2.1351  1.0455
  938SOL    HW2 3751   2.275   1.789   1.909  1.0544 -0.3067  0.6792
  938SOL     MW 3752   2.298   1.742   1.835 -0.7506  0.6622  0.4620
  939SOL     OW 3753   2.766   1.949   2.241 -0.4180  0.4039 -0.3397
  939SOL    HW1 3754   2.794   1.926   2.150 -1.4544  1.3172 -1.9568
  939SOL    HW2 3755   2.669   1.931   2.234  0.1765 -1.3972  0.4252
  939SOL     MW 3756   2.757   1.943   2.228 -0.4763  0.2868 -0.4521
  940SOL     OW 3757   2.176   0.126   2.748 -0.5752  0.1461  0.7845
  940SOL    HW1 3758   2.220   0.042   2.732  0.2082 -2.8964  0.0784
  940SOL    HW2 3759   2.245   0.171   2.796  0.1751  0.5528 -0.6677
  940SOL     MW 3760   2.191   0.121   2.752 -0.3729 -0.2017  0.4997
  941SOL     OW 3761   0.124   2.458   2.025 -0.2245  0.1472  0.1585
  941SOL    HW1 3762   0.197   2.405   2.041 -2.7186 -1.3671 -0.2104
  941SOL    HW2 3763   0.140   2.462   1.930  1.2853 -0.1653  1.8803
  941SOL     MW 3764   0.136   2.451   2.015 -0.3543 -0.0938  0.3370
  942SOL     OW 3765   2.862   2.228   2.203 -0.6579 -0.3929  0.1276
  942SOL    HW1 3766   2.804   2.256   2.134  0.2423 -0.6935  1.2287
  942SOL    HW2 3767   2.825   2.136   2.216 -2.5191 -1.6119  0.9860
  942SOL     MW 3768   2.849   2.220   2.196 -0.7847 -0.5934  0.3861
  943SOL     OW 3769   0.301   2.126   2.317  0.0630  0.5211  0.1311
  943SOL    HW1 3770   0.248   2.167   2.384  1.7047 -1.5561 -2.3903
  943SOL    HW2 3771   0.381   2.099   2.364  0.5514  3.9206 -1.8389
  943SOL     MW 3772   0.304   2.127   2.332  0.3441  0.6956 -0.4615
  944SOL     OW 3773   2.131   2.646   1.956 -0.3756 -0.1494  0.2701
  944SOL    HW1 3774   2.195   2.603   2.013  1.7432  0.5571  1.6490
  944SOL    HW2 3775   2.055   2.630   2.006 -0.8421 -2.6410  1.1537
  944SOL     MW 3776   2.130   2.639   1.970 -0.1576 -0.3849  0.5686
  945SOL     OW 3777   2.804   2.767   2.829 -0.5744 -0.4644 -0.1980
  945SOL    HW1 3778   2.788   2.674   2.817 -0.4872 -2.3242  3.6632
  945SOL    HW2 3779   2.808   2.808   2.739 -2.6237 -0.5573  2.4592
  945SOL     MW 3780   2.802   2.760   2.816 -0.8332 -0.7220  0.6620
  946SOL     OW 3781   2.463   2.655   2.233 -0.0418  0.0267  0.2062
  946SOL    HW1 3782   2.495   2.688   2.148  2.7191  3.0563 -2.8363
  946SOL    HW2 3783   2.400   2.592   2.205 -0.3347  1.4334 -1.0427
  946SOL     MW 3784   2.459   2.651   2.218  0.2838  0.6120 -0.3600
  947SOL     OW 3785   2.035   0.008   0.213  0.1439 -0.2189  0.5482
  947SOL    HW1 3786   2.088  -0.069   0.180 -1.9012  0.4438  2.9891
  947SOL    HW2 3787   2.079   0.017   0.301  1.4339  0.7465  1.4735
  947SOL     MW 3788   2.048  -0.001   0.221  0.0443 -0.0041  0.9924
  948SOL     OW 3789   1.794   3.003   2.620  0.3277  0.0645  0.1822
  948SOL    HW1 3790   1.799   2.905   2.627 -0.5968  0.0523 -1.3865
  948SOL    HW2 3791   1.765   3.010   2.529  1.1454  1.6097  0.0838
  948SOL     MW 3792   1.791   2.991   2.609  0.3136  0.2668 -0.0377
  949SOL     OW 3793   2.503   1.866   2.198  0.3258 -0.2417  0.1141
  949SOL    HW1 3794   2.512   1.785   2.248  1.1693 -2.0143 -2.7470
  949SOL    HW2 3795   2.465   1.932   2.260  2.0128 -0.9082 -0.0981
  949SOL     MW 3796   2.499   1.864   2.213  0.6597 -0.5635 -0.2914
  950SOL     OW 3797   2.337   2.532   2.995 -0.2553 -0.7645 -0.2395
  950SOL    HW1 3798   2.389   2.487   2.930 -0.3090  0.2258 -0.2689
  950SOL    HW2 3799   2.249   2.543   2.973 -0.5746 -0.4240  2.8804
  950SOL     MW 3800   2.333   2.528   2.984 -0.3045 -0.5889  0.1683
  951SOL     OW 3801   3.050   2.189   2.887 -0.5038 -0.0174  0.0229
  951SOL    HW1 3802   3.005   2.215   2.972  0.6625  0.6185  2.7713
  951SOL    HW2 3803   3.020   2.107   2.847 -0.5911  1.9564 -0.0702
  951SOL     MW 3804   3.040   2.182   2.893 -0.3615  0.3269  0.3732
  952SOL     OW 3805   3.022   1.716   2.144 -0.1121  0.4215  0.1707
  952SOL    HW1 3806   2.969   1.753   2.072 -0.7732 -0.0591 -1.9000
  952SOL    HW2 3807   3.097   1.784   2.147  1.1852 -1.7010  0.8057
  952SOL     MW 3808   3.025   1.730   2.135 -0.0281  0.0780 -0.0187
  953SOL     OW 3809   1.966   1.722   2.932  0.4201  0.1784 -0.0279
  953SOL    HW1 3810   1.880   1.697   2.977 -1.6833  3.6553  0.1977
  953SOL    HW2 3811   1.985   1.648   2.871  0.0621  3.0328 -2.6763
  953SOL     MW 3812   1.957   1.709   2.930  0.0953  1.0137 -0.3475
  954SOL     OW 3813   2.389   2.152   2.904 -0.5975  0.1429 -0.3285
  954SOL    HW1 3814   2.302   2.124   2.874 -0.0749 -2.9234 -0.6672
  954SOL    HW2 3815   2.445   2.100   2.844 -0.9219 -1.8137 -3.2190
  954SOL     MW 3816   2.385   2.141   2.892 -0.5714 -0.5198 -0.7545
  955SOL     OW 3817   1.592   1.509   2.548 -0.2142  0.1668  0.2609
  955SOL    HW1 3818   1.547   1.545   2.463  1.4833 -1.0294 -2.9790
  955SOL    HW2 3819   1.658   1.571   2.575 -1.4786 -1.0118 -0.8623
  955SOL     MW 3820   1.595   1.522   2.540 -0.1571 -0.1466 -0.3148
  956SOL     OW 3821   2.733   2.487   2.859 -0.0570 -0.2943 -0.3252
  956SOL    HW1 3822   2.742   2.455   2.944 -3.1084 -1.0162  0.2757
  956SOL    HW2 3823   2.790   2.432   2.806  0.9346 -0.5353 -0.0479
  956SOL     MW 3824   2.742   2.476   2.863 -0.3288 -0.4213 -0.2093
  957SOL     OW 3825   2.268   2.825   0.595 -0.5058 -0.4634 -0.0333
  957SOL    HW1 3826   2.214   2.748   0.584  0.5374  3.9154  1.3104
  957SOL    HW2 3827   2.323   2.804   0.677  1.5610 -3.5641  1.9565
  957SOL     MW 3828   2.268   2.812   0.605 -0.0955 -0.2948  0.4066
  958SOL     OW 3829   2.075   2.569   2.895  0.2408 -0.2530  0.0705
  958SOL    HW1 3830   2.035   2.485   2.892 -0.4061 -1.5259  0.8531
  958SOL    HW2 3831   2.012   2.626   2.938  0.1323  1.3384 -1.2328
  958SOL     MW 3832   2.062   2.565   2.900  0.1411 -0.2110  0.0018
  959SOL     OW 3833   2.510   2.812   0.457  0.0803 -0.0083 -0.0028
  959SOL    HW1 3834   2.502   2.839   0.366  0.2436 -4.3897 -0.1236
  959SOL    HW2 3835   2.420   2.821   0.495 -0.0367  1.6652 -1.5041
  959SOL     MW 3836   2.497   2.817   0.450  0.0864 -0.3655 -0.2168
  960SOL     OW 3837   1.921   2.384   2.258  0.0199  0.3305  0.0754
  960SOL    HW1 3838   1.930   2.297   2.295 -0.9412 -1.3117 -1.0265
  960SOL    HW2 3839   1.860   2.426   2.319  0.3208  0.7520  1.8706
  960SOL     MW 3840   1.914   2.378   2.271 -0.0672  0.1694  0.1669
  961SOL     OW 3841   2.237   2.311   2.312 -0.3420  0.4592  0.3442
  961SOL    HW1 3842   2.150   2.280   2.294 -0.7592  0.2502 -0.1034
  961SOL    HW2 3843   2.235   2.384   2.371  1.2503  1.3335 -0.5376
  961SOL     MW 3844   2.225   2.317   2.318 -0.1870  0.5470  0.1688
  962SOL     OW 3845   2.153   2.012   2.849 -0.0241 -0.1070 -0.5308
  962SOL    HW1 3846   2.144   1.964   2.933 -0.3359  2.4060  0.9497
  962SOL    HW2 3847   2.182   1.954   2.783 -0.6596  3.9039  2.6630
  962SOL     MW 3848   2.155   1.998   2.851 -0.1491  0.7538  0.0859
  963SOL     OW 3849   1.889   2.614   2.083  0.0276  0.4682  0.0229
  963SOL    HW1 3850   1.905   2.556   2.161 -1.5809 -0.4603  0.0052
  963SOL    HW2 3851   1.864   2.551   2.008 -1.3875 -0.4188 -1.6546
  963SOL     MW 3852   1.888   2.598   2.083 -0.3713  0.2286 -0.2007
  964SOL     OW 3853   1.834   1.895   2.736 -0.0853 -0.5328 -0.1068
  964SOL    HW1 3854   1.887   1.974   2.713 -0.4244 -0.3334 -0.4093
  964SOL    HW2 3855   1.884   1.861   2.802 -0.9870 -0.4704  0.0293
  964SOL     MW 3856   1.847   1.901   2.742 -0.2490 -0.4983 -0.1287
  965SOL     OW 3857   2.109   2.610   0.812 -0.9963 -0.2554  0.2881
  965SOL    HW1 3858   2.107   2.533   0.754  0.7178 -0.9508 -1.6184
  965SOL    HW2 3859   2.202   2.647   0.814  0.0806 -0.2205  1.3117
  965SOL     MW 3860   2.121   2.605   0.805 -0.6281 -0.3425  0.1716
  966SOL     OW 3861   2.680   2.608   2.416 -0.1283  0.0514 -0.2625
  966SOL    HW1 3862   2.622   2.608   2.338 -1.9641  1.4259  1.7527
  966SOL    HW2 3863   2.693   2.513   2.426 -0.6673 -0.4165  2.3669
  966SOL     MW 3864   2.674   2.596   2.407 -0.4416  0.1710  0.3503
  967SOL     OW 3865   2.736   3.059   3.018 -0.5903  0.5001  0.3281
  967SOL    HW1 3866   2.735   2.965   3.055  0.6921 -0.0503 -0.1877
  967SOL    HW2 3867   2.679   3.068   2.940 -1.5108 -2.9706 -1.1672
  967SOL     MW 3868   2.729   3.048   3.013 -0.5425 -0.0304  0.0628
  968SOL     OW 3869   3.065   2.692   2.916  0.6380  0.2915 -0.0308
  968SOL    HW1 3870   2.980   2.733   2.894 -0.5617  2.6057  0.2910
  968SOL    HW2 3871   3.099   2.658   2.829 -1.1097 -0.5776 -1.4886
  968SOL     MW 3872   3.058   2.693   2.902  0.2491  0.4821 -0.1807
  969SOL     OW 3873   1.552   2.178   1.697  0.1610 -0.5693 -0.3803
  969SOL    HW1 3874   1.617   2.110   1.696 -0.9728 -0.9369 -1.1979
  969SOL    HW2 3875   1.519   2.182   1.788 -2.0655 -0.2675  3.2110
  969SOL     MW 3876   1.556   2.169   1.709 -0.2824 -0.5780 -0.0143
  970SOL     OW 3877   1.745   1.810   1.913 -0.2111  0.1728 -0.3219
  970SOL    HW1 3878   1.798   1.742   1.951 -0.4313 -0.7077 -0.2017
  970SOL    HW2 3879   1.657   1.792   1.942  1.0521 -1.4694 -0.0738
  970SOL     MW 3880   1.740   1.799   1.922 -0.0735 -0.1600 -0.2733
  971SOL     OW 3881   1.726   0.018   2.343  0.4968  0.0415 -0.1454
  971SOL    HW1 3882   1.786  -0.029   2.275  2.4978  1.7997  1.2894
  971SOL    HW2 3883   1.776   0.096   2.367  2.2444  0.6176 -0.0815
  971SOL     MW 3884   1.740   0.022   2.338  0.9914  0.3495  0.0524
  972SOL     OW 3885   0.307   2.888   2.398 -0.0720 -0.5323  0.4030
  972SOL    HW1 3886   0.357   2.805   2.401 -1.0227  0.3190 -3.3741
  972SOL    HW2 3887   0.360   2.958   2.429  0.6474 -2.1446 -1.0467
  972SOL     MW 3888   0.321   2.886   2.402 -0.1025 -0.6327 -0.2866
  973SOL     OW 3889   2.597   3.010   2.110 -0.2029 -0.2758  0.5601
  973SOL    HW1 3890   2.578   2.916   2.090 -1.9764 -0.8924 -0.9629
  973SOL    HW2 3891   2.630   3.055   2.034  1.7768 -0.0498 -2.1431
  973SOL     MW 3892   2.599   3.004   2.097 -0.1757 -0.3273  0.0025
  974SOL     OW 3893   1.946   0.159   2.602 -0.2420 -0.1085  0.2176
  974SOL    HW1 3894   2.027   0.136   2.646 -2.0193 -0.3120 -0.1730
  974SOL    HW2 3895   1.894   0.081   2.613 -0.0540  1.7329  0.5512
  974SOL     MW 3896   1.950   0.146   2.609 -0.4517  0.1076  0.2101
  975SOL     OW 3897   2.209   2.496   2.523  0.0433 -0.2290  0.2305
  975SOL    HW1 3898   2.282   2.552   2.555 -0.9809  2.0416  0.0245
  975SOL    HW2 3899   2.148   2.555   2.487 -2.1949  0.3023 -1.2214
  975SOL     MW 3900   2.211   2.511   2.523 -0.3871  0.1407  0.0117
  976SOL     OW 3901   0.202   0.362   1.603 -0.4964  0.3849 -0.9091
  976SOL    HW1 3902   0.283   0.317   1.634  0.0964  1.6839  1.3812
  976SOL    HW2 3903   0.128   0.303   1.612  0.2061  0.5264  3.4772
  976SOL     MW 3904   0.203   0.348   1.608 -0.3255  0.5749 -0.0282
  977SOL     OW 3905   1.760   2.765   2.385 -0.0425 -0.3260  0.0548
  977SOL    HW1 3906   1.828   2.716   2.430  0.1289  3.0924  0.4755
  977SOL    HW2 3907   1.792   2.832   2.323 -2.3201  2.3056  1.4734
  977SOL     MW 3908   1.773   2.767   2.383 -0.3204  0.4723  0.2975
   3.10000   3.10000   3.10000
