977 TIP4P/2005f water molecules t=   1.15000 step= 1150
 3908
    1SOL     OW    1   0.413   0.785   3.082  0.0549  0.1961 -0.6248
    1SOL    HW1    2   0.383   0.826   3.004 -0.9290 -0.2049  0.6365
    1SOL    HW2    3   0.338   0.726   3.108 -0.7186  0.3093 -1.1904
    1SOL     MW    4   0.399   0.783   3.075 -0.1769  0.1582 -0.5330
    2SOL     OW    5   0.329   3.043   1.151 -0.1527 -0.2066 -0.2863
    2SOL    HW1    6   0.357   3.137   1.134 -0.1556  2.9503 -3.1723
    2SOL    HW2    7   0.245   3.058   1.198  1.1569  2.4568  0.9123
    2SOL     MW    8   0.322   3.058   1.155  0.0197  0.5613 -0.5090
    3SOL     OW    9   2.574   0.398   0.991 -0.4484 -0.5248  0.2388
    3SOL    HW1   10   2.632   0.451   0.950 -0.3628 -2.3998  0.4527
    3SOL    HW2   11   2.551   0.455   1.064  2.1098 -3.2195 -1.8136
    3SOL     MW   12   2.578   0.412   0.995 -0.0996 -1.1277 -0.0038
    4SOL     OW   13   2.961   1.715   0.530  1.1961  0.2367  0.3067
    4SOL    HW1   14   2.876   1.759   0.524 -0.6748 -1.0092 -0.0518
    4SOL    HW2   15   2.992   1.687   0.446 -0.0082 -0.4400 -0.1899
    4SOL     MW   16   2.954   1.717   0.518  0.7903 -0.0169  0.1939
    5SOL     OW   17   1.711   1.501   0.521 -0.3075  0.3491 -0.3307
    5SOL    HW1   18   1.709   1.441   0.595 -1.1414 -0.3956  0.2309
    5SOL    HW2   19   1.616   1.522   0.516  0.9942 -2.2770 -0.4300
    5SOL     MW   20   1.698   1.496   0.530 -0.2458 -0.0956 -0.2697
    6SOL     OW   21   0.810   1.345   0.592  0.3294  0.6170 -0.2687
    6SOL    HW1   22   0.715   1.365   0.599 -1.0749 -1.2890 -0.8282
    6SOL    HW2   23   0.821   1.259   0.633  1.8132 -0.2515 -1.1498
    6SOL     MW   24   0.799   1.337   0.598  0.3399  0.2509 -0.4588
    7SOL     OW   25   2.077   1.031   0.019 -0.2440  0.2425 -0.4286
    7SOL    HW1   26   2.109   1.114  -0.011  2.2795 -1.6670  1.4512
    7SOL    HW2   27   2.120   1.018   0.104 -1.3636 -0.5057  1.3251
    7SOL     MW   28   2.087   1.040   0.026 -0.0588 -0.1082  0.0508
    8SOL     OW   29   0.916   1.461   1.185  0.0932  0.0479  0.5037
    8SOL    HW1   30   1.007   1.440   1.181 -1.4411  0.1799 -0.5076
    8SOL    HW2   31   0.872   1.382   1.204  0.3866 -1.1868 -0.9059
    8SOL     MW   32   0.922   1.448   1.187 -0.0705 -0.0976  0.1842
    9SOL     OW   33   1.002   0.522   1.391 -0.1170 -0.0806  0.1781
    9SOL    HW1   34   0.958   0.443   1.353 -0.7033  1.5844  1.4967
    9SOL    HW2   35   1.036   0.482   1.469  1.3342 -0.5147 -1.4873
    9SOL     MW   36   1.001   0.507   1.396 -0.0029  0.0818  0.1324
   10SOL     OW   37   0.228   0.779   0.483  0.1644  0.2294  0.1246
   10SOL    HW1   38   0.316   0.819   0.471  0.6945  1.5449  0.2351
   10SOL    HW2   39   0.199   0.825   0.563 -1.0996 -1.2342 -1.2747
   10SOL     MW   40   0.236   0.791   0.492  0.0676  0.2098 -0.0454
   11SOL     OW   41   0.789   1.135   1.600 -0.4929 -0.1731  0.4767
   11SOL    HW1   42   0.838   1.142   1.676 -1.3062 -4.0980 -2.0480
   11SOL    HW2   43   0.810   1.050   1.568 -0.9446  0.8564 -1.7776
   11SOL     MW   44   0.798   1.125   1.606 -0.6598 -0.5551 -0.1538
   12SOL     OW   45   0.007   1.057   0.894 -0.2229  0.1459  0.0120
   12SOL    HW1   46   0.039   1.138   0.931 -1.0389  0.8223  0.8681
   12SOL    HW2   47  -0.039   1.071   0.811 -1.3848 -1.0281 -2.8124
   12SOL     MW   48   0.005   1.069   0.888 -0.4838  0.0803 -0.2477
   13SOL     OW   49   1.860   1.421   1.362  0.4214 -0.4364  0.7627
   13SOL    HW1   50   1.908   1.359   1.312 -1.4792 -2.4967  0.9145
   13SOL    HW2   51   1.882   1.512   1.335 -2.1909 -0.0501  2.1307
   13SOL     MW   52   1.869   1.425   1.352 -0.1740 -0.6573  0.9632
   14SOL     OW   53   0.557   0.377   1.863  0.0122 -0.8987 -0.0969
   14SOL    HW1   54   0.508   0.301   1.890 -0.6340  1.7281  0.6699
   14SOL    HW2   55   0.586   0.357   1.773 -0.5060 -0.7702 -3.3327
   14SOL     MW   56   0.554   0.364   1.855 -0.1414 -0.5352 -0.4227
   15SOL     OW   57   1.966   0.345   1.059 -0.3204 -0.1540  0.2912
   15SOL    HW1   58   1.948   0.416   1.123 -1.0336  1.9796 -0.5738
   15SOL    HW2   59   2.022   0.389   0.995  0.9960 -2.5697  2.0201
   15SOL     MW   60   1.971   0.360   1.059 -0.2408 -0.1912  0.4052
   16SOL     OW   61   0.185   1.805   0.290  0.1010  0.4803 -0.7108
   16SOL    HW1   62   0.281   1.779   0.288 -0.6463  0.2833 -3.9524
   16SOL    HW2   63   0.189   1.904   0.306 -2.3535  3.1138 -0.4000
   16SOL     MW   64   0.198   1.814   0.292 -0.3215  0.8017 -1.0975
   17SOL     OW   65   1.053   0.933   1.450 -0.7393  0.3196  0.2316
   17SOL    HW1   66   1.095   0.910   1.530 -1.2252 -1.2738 -1.0889
   17SOL    HW2   67   0.957   0.916   1.469 -0.1961 -1.8129  1.7150
   17SOL     MW   68   1.046   0.928   1.463 -0.7317 -0.1720  0.2531
   18SOL     OW   69   0.058   1.573   0.362  0.3876  0.2834 -1.0204
   18SOL    HW1   70   0.081   1.664   0.346  2.4378 -2.2440  3.3576
   18SOL    HW2   71   0.037   1.537   0.276  1.1759 -0.3367  1.9334
   18SOL     MW   72   0.058   1.581   0.349  0.7621 -0.1318 -0.0530
   19SOL     OW   73   0.076   1.279   1.038  0.4214 -0.3004 -0.1594
   19SOL    HW1   74   0.099   1.334   0.957 -2.9006 -0.9050 -0.5126
   19SOL    HW2   75  -0.019   1.292   1.049 -0.6239  0.0007 -0.9451
   19SOL     MW   76   0.066   1.288   1.029 -0.1548 -0.3405 -0.3097
   20SOL     OW   77   0.437   2.168   1.169 -0.6846  0.3622 -0.1629
   20SOL    HW1   78   0.399   2.088   1.137  1.6535 -2.4420 -0.3005
   20SOL    HW2   79   0.390   2.202   1.250 -1.7119  1.1261 -1.6415
   20SOL     MW   80   0.426   2.162   1.176 -0.5117  0.0930 -0.3761
   21SOL     OW   81   0.477   0.881   0.418  0.3724  0.1821 -0.1606
   21SOL    HW1   82   0.527   0.849   0.493  0.7715 -0.0819 -1.2143
   21SOL    HW2   83   0.536   0.867   0.345  2.2775  0.2208  1.0381
   21SOL     MW   84   0.491   0.875   0.418  0.6764  0.1524 -0.1414
   22SOL     OW   85   1.564   0.670   1.030 -0.6760  0.5717 -0.2960
   22SOL    HW1   86   1.513   0.644   0.954  2.9475  0.6459  0.4672
   22SOL    HW2   87   1.508   0.723   1.087 -2.2100  0.9813  0.6399
   22SOL     MW   88   1.550   0.674   1.027 -0.4003  0.6355 -0.0719
   23SOL     OW   89   3.035   0.686   0.717  0.2164 -0.1046  0.6218
   23SOL    HW1   90   3.097   0.610   0.729 -0.4100  0.0875 -1.1108
   23SOL    HW2   91   3.094   0.760   0.706  0.4613 -0.5762 -1.7087
   23SOL     MW   92   3.051   0.686   0.717  0.1660 -0.1415  0.0857
   24SOL     OW   93   2.035   2.210   0.043  0.1796  0.5714 -0.1386
   24SOL    HW1   94   1.984   2.208   0.124  1.2510  2.6749  0.8423
   24SOL    HW2   95   2.044   2.114   0.021  0.9471 -2.0543  1.8476
   24SOL     MW   96   2.029   2.197   0.051  0.4222  0.5025  0.2529
   25SOL     OW   97   0.212   1.419   0.555 -0.4814 -0.1425 -0.1909
   25SOL    HW1   98   0.171   1.480   0.498 -2.1881 -1.3977 -1.2494
   25SOL    HW2   99   0.310   1.419   0.537  1.7339  0.5288 -1.9410
   25SOL     MW  100   0.220   1.427   0.545 -0.4143 -0.2195 -0.5615
   26SOL     OW  101   2.068   1.038   0.312 -0.2535 -0.3634 -0.4052
   26SOL    HW1  102   2.002   1.076   0.375 -2.2042 -1.4740 -2.0540
   26SOL    HW2  103   2.140   1.100   0.282 -2.6104 -2.2998 -0.4166
   26SOL     MW  104   2.069   1.051   0.316 -0.8218 -0.7654 -0.6243
   27SOL     OW  105   1.980   1.461   0.220 -0.2209  0.3805  0.1573
   27SOL    HW1  106   1.891   1.478   0.249  0.8844  0.3805  0.1602
   27SOL    HW2  107   2.038   1.488   0.291  2.2778 -2.6723 -0.9579
   27SOL     MW  108   1.976   1.467   0.234  0.2546 -0.0223  0.0105
   28SOL     OW  109   0.445   0.993   1.957  0.1409  0.1438 -0.0985
   28SOL    HW1  110   0.506   0.984   2.027  1.2043 -0.9051  3.0117
   28SOL    HW2  111   0.367   0.946   1.978  1.3279  1.2839  0.2236
   28SOL     MW  112   0.443   0.986   1.969  0.4378  0.1558  0.3544
   29SOL     OW  113   0.213   1.448   0.857  0.2732  0.1987 -0.5377
   29SOL    HW1  114   0.206   1.543   0.854  0.1204 -1.5470  0.9496
   29SOL    HW2  115   0.179   1.424   0.768 -0.3157  1.5419 -0.1431
   29SOL     MW  116   0.208   1.458   0.845  0.1753  0.1456 -0.2894
   30SOL     OW  117   0.800   1.205   1.251 -0.4568  0.5139 -0.0969
   30SOL    HW1  118   0.712   1.213   1.299 -0.5956 -0.0472  1.4465
   30SOL    HW2  119   0.879   1.211   1.312  3.1328 -0.7603  0.6559
   30SOL     MW  120   0.799   1.207   1.265 -0.0015  0.2718  0.2061
   31SOL     OW  121   0.430   0.253   0.159 -0.6450 -0.0624  0.1980
   31SOL    HW1  122   0.466   0.174   0.205  0.6742 -2.4672  0.1871
   31SOL    HW2  123   0.423   0.216   0.069 -3.3230  0.3087  0.6697
   31SOL     MW  124   0.434   0.238   0.153 -0.8243 -0.3307  0.2588
   32SOL     OW  125   2.807   0.969   1.181 -0.5761  0.3152 -0.1739
   32SOL    HW1  126   2.735   0.901   1.170 -3.5226  1.4246  0.5423
   32SOL    HW2  127   2.892   0.934   1.154 -1.0331  0.3418  0.2223
   32SOL     MW  128   2.809   0.956   1.176 -1.0252  0.4651 -0.0272
   33SOL     OW  129   1.687   1.306   0.330 -0.6564  0.0735  0.0542
   33SOL    HW1  130   1.766   1.250   0.339  0.4884 -0.0108  1.7094
   33SOL    HW2  131   1.687   1.365   0.406 -1.0292  1.0614  0.6506
   33SOL     MW  132   1.697   1.306   0.341 -0.5546  0.1927  0.3513
   34SOL     OW  133   1.217   1.925   1.103  0.1489  0.0305 -0.1626
   34SOL    HW1  134   1.141   1.971   1.139  0.9083  1.4592  0.2031
   34SOL    HW2  135   1.292   1.935   1.165  1.0237  2.3137 -0.4675
   34SOL     MW  136   1.217   1.933   1.116  0.3645  0.5203 -0.1546
   35SOL     OW  137   0.381   0.143   1.840 -0.0073 -0.5484 -0.2966
   35SOL    HW1  138   0.413   0.085   1.910 -1.2315  0.6900 -0.4470
   35SOL    HW2  139   0.433   0.123   1.757 -0.9162  1.1596  0.7693
   35SOL     MW  140   0.392   0.133   1.839 -0.2887 -0.1597 -0.1758
   36SOL     OW  141   1.972   1.953   0.586  0.3763 -0.3571 -0.5921
   36SOL    HW1  142   1.993   1.913   0.500 -2.0654 -1.2244  1.0773
   36SOL    HW2  143   1.930   1.882   0.633 -1.3284 -1.4160 -1.2281
   36SOL     MW  144   1.970   1.938   0.581 -0.1708 -0.6113 -0.4558
   37SOL     OW  145   1.785   1.990   0.973 -0.5020  0.8558  0.1543
   37SOL    HW1  146   1.719   1.954   0.909  1.1739  2.3821  0.6429
   37SOL    HW2  147   1.733   2.063   1.015  2.1815  2.0261  1.0505
   37SOL     MW  148   1.769   1.995   0.970  0.0732  1.2116  0.3370
   38SOL     OW  149   2.806   0.936   0.151  0.2386  0.1142 -0.2732
   38SOL    HW1  150   2.848   0.918   0.238 -0.2335  0.6082  1.0284
   38SOL    HW2  151   2.884   0.934   0.095 -0.1784  0.4279 -2.9211
   38SOL     MW  152   2.822   0.933   0.155  0.1213  0.2208 -0.4508
   39SOL     OW  153   1.427   0.607   0.810 -0.3806 -0.1882 -0.1390
   39SOL    HW1  154   1.378   0.528   0.844 -0.2683 -0.4044 -2.0857
   39SOL    HW2  155   1.372   0.651   0.750 -0.8709  3.5350  0.9209
   39SOL     MW  156   1.413   0.602   0.807 -0.4304  0.2745 -0.2560
   40SOL     OW  157   1.172   1.911   0.312 -0.2800 -0.5906 -0.0971
   40SOL    HW1  158   1.210   1.837   0.366  0.6920  0.8852  2.7049
   40SOL    HW2  159   1.168   1.988   0.370 -1.6905 -0.4385  1.0891
   40SOL     MW  160   1.176   1.911   0.327 -0.3379 -0.3758  0.4291
   41SOL     OW  161   0.560   0.507   1.565 -0.3982 -0.1266  0.1253
   41SOL    HW1  162   0.647   0.550   1.570 -0.8690  0.3766  0.3423
   41SOL    HW2  163   0.516   0.526   1.640  1.5748  0.5585 -3.4770
   41SOL     MW  164   0.566   0.515   1.575 -0.2000  0.0302 -0.3213
   42SOL     OW  165   1.256   3.003   2.019 -0.5046  0.1455 -0.2212
   42SOL    HW1  166   1.166   2.997   2.058 -2.3352 -0.2666  1.5985
   42SOL    HW2  167   1.308   2.929   2.045 -0.4653  0.3757 -0.0237
   42SOL     MW  168   1.251   2.993   2.028 -0.7410  0.1215  0.0450
   43SOL     OW  169   1.507   0.126   1.712 -0.6281  0.1072 -0.2050
   43SOL    HW1  170   1.576   0.071   1.672  1.9231 -0.7355  1.0585
   43SOL    HW2  171   1.427   0.068   1.700 -3.9149 -0.5718  3.2565
   43SOL     MW  172   1.505   0.111   1.705 -0.7251 -0.0936  0.4184
   44SOL     OW  173   1.131   0.784   0.991  0.4616 -0.6633 -0.4441
   44SOL    HW1  174   1.108   0.876   0.974 -0.3182  0.7609  1.7535
   44SOL    HW2  175   1.161   0.790   1.084  1.3930  0.0462  1.9158
   44SOL     MW  176   1.132   0.797   1.001  0.4816 -0.3817  0.1572
   45SOL     OW  177   1.226   0.754   0.636 -0.0023 -0.2272  0.4457
   45SOL    HW1  178   1.155   0.780   0.692 -0.5231 -0.7638  2.1165
   45SOL    HW2  179   1.198   0.691   0.564 -2.4692 -1.0259 -0.6300
   45SOL     MW  180   1.213   0.749   0.634 -0.3965 -0.4034  0.5242
   46SOL     OW  181   0.580   1.133   0.587 -0.4917 -0.2644 -0.3246
   46SOL    HW1  182   0.523   1.115   0.513  2.4556 -2.2106 -1.1108
   46SOL    HW2  183   0.665   1.085   0.574  1.7612  1.8273 -0.8428
   46SOL     MW  184   0.584   1.124   0.576  0.1944 -0.2452 -0.4967
   47SOL     OW  185   0.233   2.000   1.967 -0.4056 -0.3705 -0.0417
   47SOL    HW1  186   0.320   1.952   1.988  1.2707  1.9023  0.9762
   47SOL    HW2  187   0.208   2.051   2.044 -0.2859 -2.4132 -1.5633
   47SOL     MW  188   0.241   2.000   1.980 -0.1686 -0.3401 -0.1082
   48SOL     OW  189   1.092   0.520   1.082  0.6585  0.2226 -0.0843
   48SOL    HW1  190   0.995   0.522   1.087 -3.1206 -0.6530  1.6590
   48SOL    HW2  191   1.116   0.612   1.059  0.3668 -0.6152  0.6485
   48SOL     MW  192   1.082   0.533   1.080  0.1214 -0.0034  0.2424
   49SOL     OW  193   1.696   0.691   1.565  0.3414  0.1644 -0.5842
   49SOL    HW1  194   1.685   0.628   1.639 -1.4875 -0.3834  0.5537
   49SOL    HW2  195   1.764   0.652   1.506  1.0787 -0.0464 -0.5918
   49SOL     MW  196   1.703   0.678   1.567  0.1974  0.0643 -0.4351
   50SOL     OW  197   1.307   1.103   0.510 -0.3735  0.4865  0.2215
   50SOL    HW1  198   1.260   1.139   0.587 -0.7005 -0.7641 -0.2727
   50SOL    HW2  199   1.377   1.045   0.534  0.3241  1.1886 -0.8904
   50SOL     MW  200   1.310   1.100   0.523 -0.3246  0.4141  0.0096
   51SOL     OW  201   0.347   2.943   0.914 -0.4567  0.0407 -0.0276
   51SOL    HW1  202   0.436   2.896   0.923  1.3129  0.2615 -0.2686
   51SOL    HW2  203   0.342   2.984   1.008  0.9365 -0.2090  1.2274
   51SOL     MW  204   0.358   2.942   0.928 -0.0394  0.0369  0.1062
   52SOL     OW  205   0.817   1.732   0.415  0.4416  0.3320 -0.0309
   52SOL    HW1  206   0.770   1.803   0.374 -0.0227  1.2533 -1.0683
   52SOL    HW2  207   0.849   1.674   0.341  0.5006  2.6502 -0.7974
   52SOL     MW  208   0.815   1.734   0.400  0.3881  0.7594 -0.2689
   53SOL     OW  209   0.447   2.132   0.465 -0.2418  0.4940  0.0971
   53SOL    HW1  210   0.383   2.106   0.397 -3.6744 -0.6734 -0.4856
   53SOL    HW2  211   0.427   2.225   0.492  0.1690 -1.4413  0.6441
   53SOL     MW  212   0.435   2.141   0.459 -0.6405  0.0847  0.0924
   54SOL     OW  213   1.992   0.911   0.798  0.0302 -0.2919 -0.2295
   54SOL    HW1  214   2.046   0.920   0.721  0.8964 -2.0522  0.1260
   54SOL    HW2  215   1.972   0.814   0.803 -1.3824 -1.5809 -0.5414
   54SOL     MW  216   1.996   0.899   0.789 -0.0419 -0.6942 -0.2238
   55SOL     OW  217   0.536   1.560   1.600  0.1958  0.0011 -0.0847
   55SOL    HW1  218   0.486   1.584   1.519 -0.4064 -2.0594 -0.4340
   55SOL    HW2  219   0.626   1.527   1.579  0.1296 -1.9529 -2.2621
   55SOL     MW  220   0.542   1.559   1.587  0.1076 -0.5286 -0.4181
   56SOL     OW  221   0.620   0.847   0.191  0.2792  0.0959  0.1059
   56SOL    HW1  222   0.670   0.925   0.179  0.8845 -0.5903 -1.1479
   56SOL    HW2  223   0.562   0.844   0.116  0.3453 -3.5239  2.1481
   56SOL     MW  224   0.619   0.857   0.179  0.3678 -0.4722  0.2099
   57SOL     OW  225   1.193   1.282   1.155 -0.2451  0.6676 -0.4132
   57SOL    HW1  226   1.288   1.282   1.160 -3.3773 -0.1026 -0.1859
   57SOL    HW2  227   1.172   1.236   1.236 -0.4501 -0.5705  0.6391
   57SOL     MW  228   1.203   1.276   1.166 -0.6854  0.4026 -0.2444
   58SOL     OW  229   0.532   1.233   1.354  0.4438  0.0475 -0.1269
   58SOL    HW1  230   0.509   1.321   1.316  0.5859 -1.4505 -2.2201
   58SOL    HW2  231   0.518   1.224   1.452  2.0428 -3.3122 -1.2495
   58SOL     MW  232   0.527   1.244   1.362  0.6735 -0.5934 -0.5512
   59SOL     OW  233   1.540   1.693   0.354 -0.5217 -0.0093 -0.4625
   59SOL    HW1  234   1.576   1.762   0.413 -0.5440 -1.1403  1.2641
   59SOL    HW2  235   1.456   1.693   0.391  2.3973 -1.0469 -0.0575
   59SOL     MW  236   1.533   1.702   0.367 -0.1395 -0.2955 -0.1813
   60SOL     OW  237   0.035   0.233   1.675 -0.4238  0.5261  0.3180
   60SOL    HW1  238  -0.043   0.280   1.698  1.8921 -2.5294 -3.8536
   60SOL    HW2  239   0.030   0.154   1.732 -1.0913 -0.7877 -0.1855
   60SOL     MW  240   0.024   0.229   1.685 -0.2063 -0.0504 -0.2989
   61SOL     OW  241   1.998   1.406   3.050 -0.3949 -0.4248 -0.3019
   61SOL    HW1  242   1.992   1.426   3.147 -2.1817  2.4313  0.5513
   61SOL    HW2  243   2.080   1.359   3.037 -1.4557 -0.5206 -0.3303
   61SOL     MW  244   2.008   1.402   3.061 -0.7706 -0.0606 -0.1931
   62SOL     OW  245   0.592   1.666   0.572  0.0870 -0.3739 -0.8566
   62SOL    HW1  246   0.670   1.686   0.519 -2.4352  2.9853 -1.1846
   62SOL    HW2  247   0.585   1.579   0.602 -3.2209 -1.2025  2.3108
   62SOL     MW  248   0.601   1.657   0.569 -0.6822 -0.0400 -0.4819
   63SOL     OW  249   1.701   0.685   0.712  0.3729 -0.3790  0.0805
   63SOL    HW1  250   1.724   0.766   0.664  2.2189 -1.3147  0.2951
   63SOL    HW2  251   1.618   0.703   0.752  0.6215 -0.6080 -0.5262
   63SOL     MW  252   1.693   0.698   0.711  0.6493 -0.5327  0.0288
   64SOL     OW  253   0.220   1.732   0.855  0.1077 -0.3631  0.3421
   64SOL    HW1  254   0.248   1.766   0.772 -1.4641  0.2084 -1.5838
   64SOL    HW2  255   0.132   1.762   0.854 -0.9028 -0.2594  0.0107
   64SOL     MW  256   0.212   1.740   0.844 -0.2330 -0.2740  0.0443
   65SOL     OW  257   1.590   2.294   0.423  0.0473 -0.0386  0.3438
   65SOL    HW1  258   1.677   2.288   0.452 -1.5650 -1.2339  0.7238
   65SOL    HW2  259   1.536   2.346   0.483 -0.0352 -2.3385 -1.7978
   65SOL     MW  260   1.594   2.300   0.435 -0.1763 -0.4998  0.1114
   66SOL     OW  261   0.308   0.520   0.526  0.2728  0.3743 -0.2396
   66SOL    HW1  262   0.371   0.517   0.454  2.6363 -0.8860 -1.5865
   66SOL    HW2  263   0.272   0.607   0.521 -2.4828 -0.3440 -0.0141
   66SOL     MW  264   0.312   0.531   0.516  0.2211  0.1133 -0.3875
   67SOL     OW  265   1.479   0.113   1.971  0.1225  0.6953 -0.2229
   67SOL    HW1  266   1.479   0.096   1.873  0.2774 -0.1701 -1.8840
   67SOL    HW2  267   1.399   0.061   1.998 -1.8966  0.0076  3.0642
   67SOL     MW  268   1.469   0.104   1.962 -0.1234  0.4904 -0.0084
   68SOL     OW  269   0.710   0.045   2.988  0.4814  0.5728  0.4706
   68SOL    HW1  270   0.704   0.117   2.922  0.0552  3.9307  1.1942
   68SOL    HW2  271   0.793   0.075   3.032 -1.0752  0.7615  0.0330
   68SOL     MW  272   0.720   0.058   2.985  0.2198  1.0407  0.5083
   69SOL     OW  273   1.015   0.195   1.975 -0.0864 -0.1282 -0.0756
   69SOL    HW1  274   1.109   0.198   1.997 -1.2402  0.7070 -0.2257
   69SOL    HW2  275   0.982   0.113   2.012 -0.9571 -2.1020  0.3814
   69SOL     MW  276   1.023   0.185   1.983 -0.3535 -0.2784 -0.0351
   70SOL     OW  277   0.571   1.771   1.172 -0.1581  0.8703 -0.1225
   70SOL    HW1  278   0.627   1.710   1.226 -2.3237  1.6047 -1.1523
   70SOL    HW2  279   0.643   1.797   1.112 -0.5493  1.1788 -1.4559
   70SOL     MW  280   0.588   1.766   1.171 -0.4955  1.0079 -0.4343
   71SOL     OW  281   1.592   0.479   1.243 -0.0736  0.3321 -0.2789
   71SOL    HW1  282   1.557   0.548   1.304  0.0783 -0.9130  0.8402
   71SOL    HW2  283   1.553   0.498   1.157 -0.8854 -0.0982 -0.0790
   71SOL     MW  284   1.582   0.490   1.239 -0.1607  0.1110 -0.1049
   72SOL     OW  285   0.801   1.861   1.038  0.0084  0.1007  0.3400
   72SOL    HW1  286   0.789   1.926   0.965 -1.6616 -2.8543  0.5544
   72SOL    HW2  287   0.819   1.772   0.997  1.8219 -1.3749  0.4456
   72SOL     MW  288   0.802   1.858   1.023  0.0273 -0.4839  0.3822
   73SOL     OW  289   1.173   0.742   1.300  0.1617 -0.2400 -0.0802
   73SOL    HW1  290   1.108   0.669   1.305 -0.0533 -3.5429 -0.2859
   73SOL    HW2  291   1.115   0.815   1.333 -0.3231  0.7574 -0.7728
   73SOL     MW  292   1.157   0.742   1.305  0.0693 -0.5442 -0.1988
   74SOL     OW  293   2.768   0.202   1.115  0.4010  0.5140  0.5626
   74SOL    HW1  294   2.794   0.141   1.043 -0.8989  0.2012  0.6127
   74SOL    HW2  295   2.706   0.258   1.066  0.3754 -0.9791  0.1548
   74SOL     MW  296   2.763   0.201   1.099  0.2261  0.2757  0.5154
   75SOL     OW  297   1.567   1.456   0.131  0.5673 -0.2442 -0.1700
   75SOL    HW1  298   1.622   1.519   0.174  0.1114 -1.0360 -0.9021
   75SOL    HW2  299   1.567   1.393   0.199 -0.5316  1.5403 -1.6983
   75SOL     MW  300   1.574   1.456   0.146  0.3622 -0.1132 -0.4682
   76SOL     OW  301   2.948   0.547   0.477  0.2242  0.4999 -0.0311
   76SOL    HW1  302   2.974   0.581   0.564 -1.4657  0.0976  0.5104
   76SOL    HW2  303   3.016   0.490   0.447  0.9125  1.1053 -1.2081
   76SOL     MW  304   2.961   0.544   0.485  0.0920  0.5267 -0.1149
   77SOL     OW  305   0.833   0.572   0.479 -0.3706 -0.3119 -0.0244
   77SOL    HW1  306   0.827   0.587   0.384  0.3994 -0.7225  0.0355
   77SOL    HW2  307   0.800   0.481   0.494  1.7675  0.9854  1.0301
   77SOL     MW  308   0.828   0.562   0.469  0.0131 -0.1949  0.1226
   78SOL     OW  309   0.761   0.898   1.211  0.0034 -0.2311 -0.5621
   78SOL    HW1  310   0.790   0.941   1.132  2.1229  0.2459 -3.3970
   78SOL    HW2  311   0.678   0.864   1.178  0.0506 -2.4495 -0.1166
   78SOL     MW  312   0.754   0.899   1.196  0.2893 -0.4608 -0.8774
   79SOL     OW  313   1.901   1.663   0.610 -0.1118 -0.1562  0.3235
   79SOL    HW1  314   1.819   1.620   0.584 -1.4590  0.0876 -1.6331
   79SOL    HW2  315   1.905   1.649   0.705  0.0553  1.4879  1.0149
   79SOL     MW  316   1.891   1.655   0.619 -0.2675  0.0929  0.1566
   80SOL     OW  317   0.055   0.925   0.317 -0.1028 -0.2460  0.1236
   80SOL    HW1  318  -0.041   0.915   0.332 -0.0812 -1.1216  0.2724
   80SOL    HW2  319   0.107   0.876   0.377  0.9372  2.5277  0.0863
   80SOL     MW  320   0.049   0.917   0.327  0.0373  0.0044  0.1383
   81SOL     OW  321   1.889   1.860   0.314 -0.1911  0.5510  0.2756
   81SOL    HW1  322   1.860   1.767   0.290  0.8832  0.2427  1.1843
   81SOL    HW2  323   1.827   1.927   0.268  2.0072  1.5293 -0.5011
   81SOL     MW  324   1.877   1.857   0.305  0.2407  0.6394  0.2930
   82SOL     OW  325   0.809   1.001   0.545  0.1696 -0.3433  0.2375
   82SOL    HW1  326   0.848   1.013   0.454  0.5707 -0.9992  0.7133
   82SOL    HW2  327   0.769   0.916   0.549 -0.6770 -1.3273 -2.0917
   82SOL     MW  328   0.809   0.991   0.533  0.1108 -0.5597 -0.0071
   83SOL     OW  329   0.087   0.684   1.450  0.5816  0.2966  0.4058
   83SOL    HW1  330   0.139   0.747   1.401 -0.4035  0.2273 -0.7107
   83SOL    HW2  331   0.154   0.622   1.475 -1.4119 -1.8378 -1.0865
   83SOL     MW  332   0.103   0.684   1.447  0.1886  0.0058  0.0616
   84SOL     OW  333   0.100   0.192   0.976 -0.0992 -0.2396 -0.7147
   84SOL    HW1  334   0.036   0.265   0.993 -1.8475 -1.3311 -0.0916
   84SOL    HW2  335   0.102   0.144   1.060  0.5880  1.2457  1.8221
   84SOL     MW  336   0.092   0.196   0.989 -0.2392 -0.1877 -0.2978
   85SOL     OW  337   0.454   0.469   0.747 -0.1717 -0.0287  0.5170
   85SOL    HW1  338   0.418   0.499   0.660  0.6636  0.9327 -1.2172
   85SOL    HW2  339   0.420   0.387   0.762  1.3756 -0.2358 -1.9478
   85SOL     MW  340   0.445   0.462   0.737  0.1426  0.0708 -0.0370
   86SOL     OW  341   1.167   0.249   1.116 -0.0663  0.5524  0.5480
   86SOL    HW1  342   1.133   0.338   1.116 -1.6501  1.9417 -1.7290
   86SOL    HW2  343   1.256   0.252   1.150 -0.0661  1.1118 -1.9904
   86SOL     MW  344   1.174   0.261   1.121 -0.2752  0.8095 -0.0873
   87SOL     OW  345   1.193   1.532   1.267 -0.8924 -0.7071 -0.7165
   87SOL    HW1  346   1.242   1.589   1.210  1.8753 -1.2554  2.5863
   87SOL    HW2  347   1.198   1.454   1.220  0.0856 -0.4236 -0.5263
   87SOL     MW  348   1.200   1.529   1.253 -0.3982 -0.7421 -0.2556
   88SOL     OW  349   1.192   1.053   0.967 -0.4757 -0.1599  0.3633
   88SOL    HW1  350   1.288   1.040   0.978  3.7383  3.0464 -0.2198
   88SOL    HW2  351   1.174   1.131   1.024 -0.7392 -1.1920 -0.1312
   88SOL     MW  352   1.202   1.062   0.976  0.0455  0.1269  0.2211
   89SOL     OW  353   1.751   0.755   0.358  0.1306 -0.0956 -0.5270
   89SOL    HW1  354   1.752   0.660   0.364 -1.7009  0.5404 -0.5396
   89SOL    HW2  355   1.839   0.772   0.316  2.0742  1.0514  0.3622
   89SOL     MW  356   1.763   0.745   0.353  0.1454  0.1397 -0.4114
   90SOL     OW  357   0.812   1.068   2.796  0.0313  0.1165 -0.1117
   90SOL    HW1  358   0.863   1.003   2.837 -3.2231  1.9131 -1.6702
   90SOL    HW2  359   0.823   1.153   2.836 -0.3444  1.3975 -1.2072
   90SOL     MW  360   0.820   1.070   2.807 -0.4476  0.5226 -0.4619
   91SOL     OW  361   2.161   0.662   0.497  0.2852  0.0037  0.6960
   91SOL    HW1  362   2.213   0.729   0.445  1.2763  2.4552  2.7086
   91SOL    HW2  363   2.198   0.584   0.460  0.2095 -1.2395  1.4882
   91SOL     MW  364   2.172   0.661   0.485  0.4060  0.1631  1.0660
   92SOL     OW  365   1.747   0.917   0.568 -0.4340  0.2792  0.7151
   92SOL    HW1  366   1.661   0.940   0.594  1.4266 -1.3913 -0.6352
   92SOL    HW2  367   1.740   0.861   0.485 -1.2063  2.7315 -1.7062
   92SOL     MW  368   1.735   0.912   0.560 -0.2904  0.3823  0.2175
   93SOL     OW  369   0.996   0.225   0.427  0.9730 -0.5194 -0.3018
   93SOL    HW1  370   0.911   0.255   0.457  1.8322  0.4300 -0.5173
   93SOL    HW2  371   0.997   0.255   0.332  0.1470  0.7142 -0.7553
   93SOL     MW  372   0.985   0.233   0.418  0.9774 -0.2314 -0.3901
   94SOL     OW  373   1.866   1.384   1.658  0.0925  0.3177 -1.3933
   94SOL    HW1  374   1.859   1.404   1.563  1.9876 -0.7549  2.2390
   94SOL    HW2  375   1.824   1.298   1.674 -0.0308  0.3402 -0.9356
   94SOL     MW  376   1.860   1.375   1.647  0.3263  0.1791 -0.8537
   95SOL     OW  377   0.806   1.559   0.951 -0.1332 -0.0445 -0.0880
   95SOL    HW1  378   0.845   1.527   1.031 -0.2594  0.1267  0.2529
   95SOL    HW2  379   0.726   1.505   0.946  1.8813 -2.5673 -0.0345
   95SOL     MW  380   0.800   1.548   0.961  0.1159 -0.3547 -0.0359
   96SOL     OW  381   1.297   1.886   1.688  0.3011  0.1681  0.4565
   96SOL    HW1  382   1.204   1.881   1.709 -0.5596  0.7610  2.6635
   96SOL    HW2  383   1.322   1.790   1.675 -1.7092  4.1414  0.7420
   96SOL     MW  384   1.288   1.873   1.689 -0.0777  0.7706  0.7854
   97SOL     OW  385   1.166   1.443   0.867 -0.8717 -0.1639  0.1119
   97SOL    HW1  386   1.214   1.508   0.917 -0.2242 -0.0513  0.6681
   97SOL    HW2  387   1.077   1.477   0.840  0.3688 -0.4627  2.5822
   97SOL     MW  388   1.161   1.456   0.870 -0.6226 -0.1884  0.5112
   98SOL     OW  389   1.454   1.287   1.096  0.8163  0.0778  0.1961
   98SOL    HW1  390   1.504   1.327   1.167  1.8548  2.7380 -0.7994
   98SOL    HW2  391   1.454   1.337   1.019  0.9067 -2.8753  1.4312
   98SOL     MW  392   1.461   1.299   1.095  0.9652  0.0392  0.2277
   99SOL     OW  393   1.381   0.279   1.277  0.1715  0.1148  0.2067
   99SOL    HW1  394   1.469   0.315   1.248 -0.1049 -3.6069 -1.1508
   99SOL    HW2  395   1.383   0.307   1.371  1.5127 -1.1042  0.3142
   99SOL     MW  396   1.393   0.288   1.285  0.3120 -0.5371  0.0418
  100SOL     OW  397   1.034   1.197   1.379 -0.2294  0.4422 -0.4668
  100SOL    HW1  398   1.042   1.227   1.472 -1.5570  0.1389 -0.7318
  100SOL    HW2  399   1.035   1.097   1.386  2.3937 -0.2640 -0.6670
  100SOL     MW  400   1.035   1.188   1.393 -0.0585  0.3090 -0.5282
  101SOL     OW  401   0.501   1.178   0.301 -0.0565  0.1827 -0.1234
  101SOL    HW1  402   0.421   1.145   0.258 -1.4815  2.2085 -1.6936
  101SOL    HW2  403   0.572   1.147   0.243 -4.0817 -0.1673 -0.4037
  101SOL     MW  404   0.500   1.169   0.287 -0.7756  0.4038 -0.3675
  102SOL     OW  405   2.907   0.649   0.976  0.1755 -0.0470 -0.0972
  102SOL    HW1  406   2.970   0.719   0.979  2.2535  1.4273 -0.7214
  102SOL    HW2  407   2.888   0.651   1.071  2.9635  0.8891  0.6120
  102SOL     MW  408   2.913   0.659   0.989  0.8175  0.2710 -0.0860
  103SOL     OW  409   1.681   0.290   1.868 -0.0630 -0.4321  0.2480
  103SOL    HW1  410   1.691   0.216   1.808  1.1332 -2.0086 -0.8511
  103SOL    HW2  411   1.606   0.264   1.916  2.5642  1.1341 -2.2516
  103SOL     MW  412   1.672   0.277   1.866  0.4415 -0.4335 -0.2268
  104SOL     OW  413   0.146   1.499   1.614 -0.0904 -0.1340 -0.4407
  104SOL    HW1  414   0.198   1.427   1.631 -0.8231  0.8057  1.8692
  104SOL    HW2  415   0.068   1.468   1.574  1.4398  0.8811  2.4174
  104SOL     MW  416   0.143   1.486   1.611  0.0148  0.1239  0.2412
  105SOL     OW  417   0.053   1.218   0.402 -0.3766 -0.0787  0.3428
  105SOL    HW1  418   0.091   1.127   0.378  1.4037 -3.5497 -0.7122
  105SOL    HW2  419   0.127   1.276   0.416  1.9613 -0.7865 -0.9779
  105SOL     MW  420   0.068   1.214   0.400  0.1668 -0.6301  0.0294
  106SOL     OW  421   0.820   0.360   1.010 -0.1681  0.5402  0.2958
  106SOL    HW1  422   0.759   0.419   0.963  0.2147 -0.3829 -0.2199
  106SOL    HW2  423   0.894   0.358   0.944  0.1314  1.9281  1.7117
  106SOL     MW  424   0.822   0.368   0.995 -0.0781  0.6015  0.4146
  107SOL     OW  425   0.797   2.188   2.921 -0.1804 -0.1728 -0.2936
  107SOL    HW1  426   0.726   2.171   2.859 -0.0703 -2.6100 -0.0510
  107SOL    HW2  427   0.767   2.131   2.996  0.5047 -2.0794 -1.2809
  107SOL     MW  428   0.784   2.178   2.923 -0.0755 -0.7459 -0.3919
  108SOL     OW  429   1.333   1.625   1.629  0.8927 -0.5236  0.0137
  108SOL    HW1  430   1.262   1.581   1.569  0.5842 -1.7868 -2.7667
  108SOL    HW2  431   1.413   1.574   1.620 -2.4069 -0.1448 -2.1075
  108SOL     MW  432   1.334   1.613   1.620  0.4167 -0.6403 -0.6330
  109SOL     OW  433   2.003   0.790   0.254  0.7896  0.3479  0.0390
  109SOL    HW1  434   2.020   0.886   0.249  1.3384  1.7686 -1.8029
  109SOL    HW2  435   2.058   0.757   0.326 -0.1825 -0.9466 -1.7969
  109SOL     MW  436   2.013   0.798   0.263  0.7338  0.3645 -0.4462
  110SOL     OW  437   0.384   1.882   0.625  0.7354  0.7246 -0.2069
  110SOL    HW1  438   0.464   1.835   0.627 -2.0184  1.3230 -2.2158
  110SOL    HW2  439   0.394   1.958   0.565 -2.2894  0.4454  1.0647
  110SOL     MW  440   0.396   1.886   0.617 -0.0271  0.7667 -0.3042
  111SOL     OW  441   0.790   0.886   1.479 -0.7552 -0.5187 -0.0028
  111SOL    HW1  442   0.757   0.899   1.388  0.2365  0.4265 -1.5020
  111SOL    HW2  443   0.778   0.798   1.508  1.0218 -1.2048 -0.9862
  111SOL     MW  444   0.784   0.876   1.471 -0.3899 -0.4846 -0.3304
  112SOL     OW  445   1.297   1.114   1.631  0.3721 -0.2409 -0.0527
  112SOL    HW1  446   1.216   1.166   1.640  0.9484 -0.7172  0.5324
  112SOL    HW2  447   1.264   1.027   1.618  1.9693 -1.1107 -0.8921
  112SOL     MW  448   1.282   1.110   1.630  0.6588 -0.4185 -0.0863
  113SOL     OW  449   1.273   3.072   1.734  0.0201  0.4514 -0.0024
  113SOL    HW1  450   1.246   3.053   1.827  1.4849 -2.9409  1.3453
  113SOL    HW2  451   1.285   2.991   1.682  0.9737 -0.2524 -3.1923
  113SOL     MW  452   1.271   3.059   1.740  0.3392 -0.0890 -0.2455
  114SOL     OW  453   0.266   2.839   1.923 -0.3305 -0.3555 -0.8852
  114SOL    HW1  454   0.335   2.893   1.961  2.7144  0.0849  0.1628
  114SOL    HW2  455   0.241   2.884   1.846 -2.8206  0.6805  1.1881
  114SOL     MW  456   0.272   2.852   1.918 -0.2573 -0.1607 -0.4734
  115SOL     OW  457   0.498   0.860   1.125 -0.5822  0.5431 -0.0165
  115SOL    HW1  458   0.514   0.768   1.147 -0.2567 -0.5905  0.2796
  115SOL    HW2  459   0.454   0.902   1.204 -1.3245  1.0556  0.6819
  115SOL     MW  460   0.495   0.853   1.138 -0.6372  0.4611  0.1147
  116SOL     OW  461   0.787   1.061   0.983 -0.1947  0.1575  0.6974
  116SOL    HW1  462   0.837   1.098   0.907 -2.3070 -1.7177  0.8695
  116SOL    HW2  463   0.797   1.132   1.056 -2.0678  0.6831  0.1167
  116SOL     MW  464   0.795   1.075   0.983 -0.7205 -0.0206  0.6435
  117SOL     OW  465   1.176   1.203   0.730 -0.7462 -0.1663  0.1284
  117SOL    HW1  466   1.192   1.133   0.800  0.7644  1.3077  0.3536
  117SOL    HW2  467   1.192   1.287   0.775  1.9216  0.6974  2.3781
  117SOL     MW  468   1.180   1.205   0.745 -0.1949  0.1421  0.4549
  118SOL     OW  469   3.037   2.960   1.650 -0.0212  0.2777 -0.3800
  118SOL    HW1  470   3.073   2.993   1.738  1.8286 -1.9083  2.2033
  118SOL    HW2  471   2.969   3.021   1.628  0.9735 -1.3502 -0.2632
  118SOL     MW  472   3.033   2.973   1.659  0.3541 -0.2255 -0.0238
  119SOL     OW  473   0.463   1.493   1.204 -0.2280  0.3314 -0.1048
  119SOL    HW1  474   0.493   1.574   1.158  0.3577 -0.3376  2.6785
  119SOL    HW2  475   0.366   1.486   1.192 -0.4821  0.7255  2.2721
  119SOL     MW  476   0.454   1.503   1.196 -0.1842  0.2951  0.5760
  120SOL     OW  477   0.304   0.769   0.951 -0.4716 -0.0444 -0.3219
  120SOL    HW1  478   0.237   0.782   1.013  0.0129  2.0572 -0.1673
  120SOL    HW2  479   0.375   0.826   0.976  0.8843 -1.0354 -0.3553
  120SOL     MW  480   0.305   0.778   0.962 -0.2288  0.1021 -0.3059
  121SOL     OW  481   1.766   1.115   1.704  0.1878 -0.4194 -0.2350
  121SOL    HW1  482   1.677   1.083   1.718  4.6603 -1.8585 -0.4658
  121SOL    HW2  483   1.809   1.048   1.650  2.7153 -1.1337 -0.8216
  121SOL     MW  484   1.760   1.102   1.699  1.1114 -0.7035 -0.3429
  122SOL     OW  485   0.149   0.515   0.803  0.4330 -0.7182  0.2516
  122SOL    HW1  486   0.194   0.440   0.761  1.7600  0.2030 -0.6754
  122SOL    HW2  487   0.224   0.563   0.847 -0.6930  0.4136  0.2035
  122SOL     MW  488   0.165   0.511   0.803  0.4595 -0.4473  0.1229
  123SOL     OW  489   1.889   1.139   0.504 -0.2583  0.2979  0.0937
  123SOL    HW1  490   1.849   1.056   0.541 -1.6029  0.1561 -1.7884
  123SOL    HW2  491   1.934   1.188   0.570 -3.1938  0.1460  0.2823
  123SOL     MW  492   1.890   1.134   0.518 -0.8230  0.2592 -0.1297
  124SOL     OW  493   0.622   0.572   0.926 -0.6202 -0.1082 -0.4912
  124SOL    HW1  494   0.566   0.534   0.856  2.0078  1.1482 -3.1590
  124SOL    HW2  495   0.642   0.667   0.903  1.6735 -1.4311  0.8321
  124SOL     MW  496   0.617   0.579   0.914  0.0291 -0.1170 -0.6686
  125SOL     OW  497   0.670   1.779   1.723  0.6493 -0.1983  0.1411
  125SOL    HW1  498   0.610   1.710   1.693 -0.4976  2.0420  0.8051
  125SOL    HW2  499   0.618   1.864   1.703 -1.5371  2.4601  0.4867
  125SOL     MW  500   0.655   1.781   1.717  0.2095  0.4481  0.2743
  126SOL     OW  501   2.112   1.591   1.961  0.2734  0.2003  0.1532
  126SOL    HW1  502   2.160   1.675   1.971 -2.1404  1.5725 -1.1954
  126SOL    HW2  503   2.176   1.517   1.970  0.6121  2.1019  0.8005
  126SOL     MW  504   2.127   1.592   1.964 -0.0004  0.6323  0.0607
  127SOL     OW  505   0.599   0.794   1.835 -0.3056 -0.0555  0.2652
  127SOL    HW1  506   0.684   0.766   1.876  0.8750  1.0735  1.3347
  127SOL    HW2  507   0.567   0.880   1.867 -3.6197  0.7441 -2.2286
  127SOL     MW  508   0.606   0.802   1.844 -0.5871  0.1990  0.0773
  128SOL     OW  509   1.723   0.720   2.912 -0.3208 -0.3140 -0.5283
  128SOL    HW1  510   1.736   0.702   2.820 -2.4816 -2.1251  1.3976
  128SOL    HW2  511   1.705   0.816   2.907 -1.2410  0.9561  0.3354
  128SOL     MW  512   1.722   0.731   2.899 -0.7273 -0.3854 -0.1603
  129SOL     OW  513   1.613   0.936   0.169  0.5745 -0.4998 -0.3009
  129SOL    HW1  514   1.538   0.878   0.147 -0.9191 -0.8309 -1.8035
  129SOL    HW2  515   1.639   0.886   0.247  0.3107 -1.7520 -1.1370
  129SOL     MW  516   1.606   0.922   0.176  0.3426 -0.7087 -0.6094
  130SOL     OW  517   0.746   1.389   0.319  0.2544 -0.3194 -0.0041
  130SOL    HW1  518   0.785   1.382   0.406 -1.6298  0.3938 -1.0080
  130SOL    HW2  519   0.809   1.446   0.270  2.8994  1.2054  0.0180
  130SOL     MW  520   0.759   1.395   0.324  0.3548 -0.0241 -0.1336
  131SOL     OW  521   3.049   0.845   0.036  0.0650  0.6034 -0.0489
  131SOL    HW1  522   3.057   0.903  -0.035  3.2809 -1.6037  0.2486
  131SOL    HW2  523   3.138   0.811   0.047 -2.9959  0.5367  1.5060
  131SOL     MW  524   3.062   0.848   0.028  0.0855  0.3034  0.1955
  132SOL     OW  525   2.669   0.137   1.345 -0.0586 -0.3816  0.6539
  132SOL    HW1  526   2.730   0.155   1.268  1.7347 -0.4612 -1.2681
  132SOL    HW2  527   2.587   0.107   1.305 -0.9881  1.1973 -1.9872
  132SOL     MW  528   2.667   0.136   1.330  0.0554 -0.1838  0.0519
  133SOL     OW  529   1.058   0.155   1.719  0.5406  0.0275  0.5459
  133SOL    HW1  530   1.139   0.103   1.712  1.4822 -0.7059  0.9654
  133SOL    HW2  531   1.034   0.161   1.814 -3.7049 -0.8075 -0.5173
  133SOL     MW  532   1.065   0.149   1.730  0.1047 -0.1795  0.4610
  134SOL     OW  533   1.422   2.535   1.405  0.0498 -0.1152 -0.2104
  134SOL    HW1  534   1.348   2.595   1.406 -2.6811 -0.4512  0.0515
  134SOL    HW2  535   1.467   2.553   1.487 -1.6555  0.1775  0.2062
  134SOL     MW  536   1.418   2.546   1.416 -0.5355 -0.1209 -0.1209
  135SOL     OW  537   3.011   0.998   2.890  0.5621 -0.1663 -0.2163
  135SOL    HW1  538   3.095   1.061   2.893  0.4225  2.2667  0.3488
  135SOL    HW2  539   2.933   1.057   2.897  1.6960  0.3979 -1.8763
  135SOL     MW  540   3.012   1.014   2.891  0.6933  0.2292 -0.3608
  136SOL     OW  541   0.178   2.020   0.791  0.1364  0.2851 -0.1744
  136SOL    HW1  542   0.103   1.956   0.787 -0.2884 -1.9058 -1.3616
  136SOL    HW2  543   0.241   1.990   0.727  1.0740  2.5168  0.0378
  136SOL     MW  544   0.176   2.008   0.782  0.2041  0.2905 -0.3031
  137SOL     OW  545   0.690   2.013   0.521 -0.2237 -0.1546 -0.4014
  137SOL    HW1  546   0.702   1.991   0.616  3.0925 -0.5854 -0.0463
  137SOL    HW2  547   0.602   2.048   0.522 -1.1426 -0.5560  0.0913
  137SOL     MW  548   0.680   2.015   0.534  0.0926 -0.2644 -0.2895
  138SOL     OW  549   0.502   0.588   1.170  0.0542 -0.0278  0.3713
  138SOL    HW1  550   0.417   0.544   1.176 -0.0408 -1.1540  0.9961
  138SOL    HW2  551   0.528   0.575   1.076  1.7811  0.9996 -0.7453
  138SOL     MW  552   0.494   0.581   1.159  0.2696 -0.0408  0.3064
  139SOL     OW  553   2.828   0.592   1.235  0.8217 -0.1827 -1.0023
  139SOL    HW1  554   2.886   0.516   1.258  2.0384 -1.1759  0.6774
  139SOL    HW2  555   2.844   0.658   1.302 -2.5133 -3.0371  1.2180
  139SOL     MW  556   2.837   0.591   1.247  0.5422 -0.6903 -0.4877
  140SOL     OW  557   0.946   0.466   2.049  0.2954  0.8764 -0.0216
  140SOL    HW1  558   0.951   0.401   1.984 -1.0398 -0.9535  0.3270
  140SOL    HW2  559   0.932   0.425   2.131 -0.8038  2.9970 -1.5542
  140SOL     MW  560   0.945   0.452   2.051 -0.0258  0.9147 -0.1778
  141SOL     OW  561   1.023   0.622   1.761 -0.4178  0.1685 -0.1836
  141SOL    HW1  562   1.058   0.539   1.730  1.8002  1.2808  1.1304
  141SOL    HW2  563   1.065   0.697   1.715 -1.5861 -0.7593 -0.4326
  141SOL     MW  564   1.033   0.621   1.751 -0.2793  0.1928 -0.0431
  142SOL     OW  565   0.895   1.155   0.747  0.0354 -0.7909  0.0271
  142SOL    HW1  566   0.884   1.085   0.673  1.2299 -0.6237  1.1125
  142SOL    HW2  567   0.984   1.192   0.737 -1.2337  0.9351  0.2926
  142SOL     MW  568   0.905   1.150   0.736  0.0256 -0.5411  0.2053
  143SOL     OW  569   1.823   0.759   1.068 -0.1997  0.2059  0.4245
  143SOL    HW1  570   1.875   0.743   0.990 -0.1485 -0.6046 -1.0968
  143SOL    HW2  571   1.731   0.733   1.050  1.4297  0.3267 -1.5282
  143SOL     MW  572   1.818   0.753   1.055  0.0221  0.1149 -0.0338
  144SOL     OW  573   0.300   1.286   1.651  0.6763  0.0251  0.5981
  144SOL    HW1  574   0.395   1.270   1.635 -0.2311  0.1813  0.0997
  144SOL    HW2  575   0.287   1.277   1.748 -2.6517 -1.3824 -0.6267
  144SOL     MW  576   0.311   1.282   1.662  0.1174 -0.1400  0.3708
  145SOL     OW  577   0.253   0.498   1.179 -0.5904  0.0610 -0.1260
  145SOL    HW1  578   0.271   0.413   1.224  4.7042  2.0627  0.2386
  145SOL    HW2  579   0.159   0.498   1.158  4.0047  0.1058  2.1562
  145SOL     MW  580   0.243   0.487   1.182  0.7145  0.3310  0.2232
  146SOL     OW  581   0.849   1.978   1.407 -0.7448 -0.0955  0.2214
  146SOL    HW1  582   0.907   1.996   1.331  0.9611  1.1850 -0.5476
  146SOL    HW2  583   0.757   1.995   1.373  1.5546  1.7686 -0.8262
  146SOL     MW  584   0.844   1.982   1.393 -0.2164  0.3194 -0.0183
  147SOL     OW  585   0.379   0.456   3.015 -0.3774  0.5353  0.0789
  147SOL    HW1  586   0.325   0.463   3.096 -0.8806 -0.9937  1.7998
  147SOL    HW2  587   0.326   0.499   2.948 -1.1336 -0.6449  1.0039
  147SOL     MW  588   0.365   0.462   3.017 -0.5436  0.1779  0.4280
  148SOL     OW  589   0.118   0.952   1.315 -0.2191  0.3269 -0.0356
  148SOL    HW1  590   0.207   0.980   1.296 -1.9804 -3.0721 -1.1712
  148SOL    HW2  591   0.101   1.008   1.390 -3.8054  0.1926  1.1474
  148SOL     MW  592   0.128   0.963   1.322 -0.9247 -0.1393 -0.0294
  149SOL     OW  593   1.418   1.141   1.374  0.5015 -0.6926  0.4150
  149SOL    HW1  594   1.380   1.142   1.462 -1.6266  0.1072 -2.1820
  149SOL    HW2  595   1.473   1.218   1.371 -1.9505 -0.5657  3.7259
  149SOL     MW  596   1.420   1.151   1.385 -0.1028 -0.5703  0.5092
  150SOL     OW  597   1.744   1.376   0.755  0.0002  0.2404  0.1855
  150SOL    HW1  598   1.793   1.303   0.794  0.1063  2.4005 -2.2728
  150SOL    HW2  599   1.788   1.447   0.801 -3.7773 -1.3970  1.4134
  150SOL     MW  600   1.757   1.376   0.766 -0.4842  0.3094  0.0232
  151SOL     OW  601   1.667   1.780   0.814  0.0809 -0.2530 -0.6293
  151SOL    HW1  602   1.665   1.801   0.719 -0.2916  3.4790 -2.6688
  151SOL    HW2  603   1.581   1.735   0.835 -0.2643  0.1901 -2.1554
  151SOL     MW  604   1.655   1.777   0.804 -0.0138  0.2978 -1.0997
  152SOL     OW  605   0.781   1.417   1.587 -0.1378  0.4858  1.0978
  152SOL    HW1  606   0.801   1.327   1.574  0.5347  1.7611 -1.7896
  152SOL    HW2  607   0.860   1.455   1.625  0.1251 -1.4661 -2.5063
  152SOL     MW  608   0.794   1.410   1.590 -0.0144  0.3965  0.2413
  153SOL     OW  609   2.622   1.216   0.804 -0.1530 -0.1937 -0.2138
  153SOL    HW1  610   2.703   1.178   0.759  2.7028 -1.5145  0.1366
  153SOL    HW2  611   2.559   1.147   0.800 -1.5454 -1.1111 -2.3398
  153SOL     MW  612   2.624   1.202   0.798  0.0400 -0.4890 -0.4481
  154SOL     OW  613   0.175   1.761   1.712 -0.1006 -0.1131 -0.1219
  154SOL    HW1  614   0.163   1.681   1.665  4.0700  1.1282  0.5847
  154SOL    HW2  615   0.245   1.749   1.772 -3.6103 -1.7661  3.3580
  154SOL     MW  616   0.182   1.749   1.714 -0.0134 -0.1674  0.4305
  155SOL     OW  617   1.177   0.658   0.236 -0.2525  0.6147  0.3294
  155SOL    HW1  618   1.146   0.593   0.295  0.4117  0.3269 -3.5576
  155SOL    HW2  619   1.172   0.738   0.295 -1.5400 -0.5657  3.3373
  155SOL     MW  620   1.172   0.660   0.251 -0.3348  0.4210  0.2134
  156SOL     OW  621   1.513   3.007   1.086  0.1466 -0.1414 -0.3524
  156SOL    HW1  622   1.587   3.051   1.129  0.5220  1.1783 -1.0549
  156SOL    HW2  623   1.518   2.917   1.114  0.6679 -1.3538 -0.2491
  156SOL     MW  624   1.523   3.001   1.095  0.2649 -0.1272 -0.4315
  157SOL     OW  625   1.442   1.180   0.105 -0.6619  0.3202 -0.0773
  157SOL    HW1  626   1.488   1.105   0.160  2.1648 -0.1949  0.1856
  157SOL    HW2  627   1.525   1.213   0.068 -0.3595 -0.1102 -0.3386
  157SOL     MW  628   1.459   1.175   0.108 -0.2491  0.1955 -0.0771
  158SOL     OW  629   0.446   1.619   2.228 -0.6913  0.5737  0.3552
  158SOL    HW1  630   0.439   1.687   2.161 -3.6102 -0.6597  0.2054
  158SOL    HW2  631   0.406   1.658   2.304  1.0223 -2.1869 -0.3431
  158SOL     MW  632   0.440   1.633   2.229 -0.8503  0.0467  0.2433
  159SOL     OW  633   1.258   1.693   0.458 -0.4910  0.6762 -0.3091
  159SOL    HW1  634   1.219   1.621   0.397 -1.6847 -1.1629 -0.0155
  159SOL    HW2  635   1.186   1.715   0.516  0.3667 -0.3252 -2.2121
  159SOL     MW  636   1.243   1.687   0.458 -0.5353  0.3015 -0.5214
  160SOL     OW  637   0.517   1.127   1.606 -0.1097  0.7327 -0.5064
  160SOL    HW1  638   0.480   1.036   1.611  0.8267 -0.0950  1.8121
  160SOL    HW2  639   0.606   1.116   1.579 -0.8811  0.4349  0.3942
  160SOL     MW  640   0.524   1.113   1.603 -0.0879  0.5842 -0.0817
  161SOL     OW  641   0.508   2.280   2.547 -0.1277  0.2895  0.2713
  161SOL    HW1  642   0.417   2.299   2.565  2.1767 -1.0135 -1.5186
  161SOL    HW2  643   0.509   2.203   2.490  0.5673 -0.7926 -0.5908
  161SOL     MW  644   0.496   2.272   2.542  0.2681 -0.0252 -0.0786
  162SOL     OW  645   1.095   1.783   1.902  0.7581 -0.0984 -0.5463
  162SOL    HW1  646   1.112   1.874   1.944  2.2549 -0.6914  0.3621
  162SOL    HW2  647   1.002   1.753   1.898  3.1431 -3.1726  0.7849
  162SOL     MW  648   1.085   1.791   1.907  1.2702 -0.5823 -0.2508
  163SOL     OW  649   2.119   3.042   0.854  0.2776 -0.7648  0.2492
  163SOL    HW1  650   2.084   3.115   0.790 -1.8688  0.7195 -0.5850
  163SOL    HW2  651   2.085   2.958   0.826  0.8741 -0.0804 -2.7436
  163SOL     MW  652   2.110   3.041   0.842  0.0731 -0.4787 -0.2557
  164SOL     OW  653   0.324   0.213   0.820 -0.3586  0.2586  0.5249
  164SOL    HW1  654   0.238   0.202   0.869  0.9796  0.0347 -0.5079
  164SOL    HW2  655   0.334   0.140   0.766 -0.3019 -0.3791  0.8074
  164SOL     MW  656   0.314   0.202   0.819 -0.1745  0.1450  0.4259
  165SOL     OW  657   1.357   1.311   0.356 -0.5172 -0.0584 -0.0982
  165SOL    HW1  658   1.336   1.243   0.424  0.2238  2.8621 -0.5437
  165SOL    HW2  659   1.377   1.264   0.275 -1.3403  1.9601 -0.0439
  165SOL     MW  660   1.357   1.296   0.354 -0.5280  0.5933 -0.1498
  166SOL     OW  661   0.520   1.201   0.989  0.4667 -0.2228  0.0498
  166SOL    HW1  662   0.518   1.169   1.074 -0.2620 -1.6580 -1.5381
  166SOL    HW2  663   0.604   1.170   0.953 -1.3756  0.8383 -2.6891
  166SOL     MW  664   0.531   1.193   0.995  0.1275 -0.2722 -0.5211
  167SOL     OW  665   0.810   1.080   0.282 -0.0363 -0.2750 -0.2618
  167SOL    HW1  666   0.818   1.178   0.286 -0.5550  3.8450  2.4317
  167SOL    HW2  667   0.872   1.072   0.214  1.3826  1.1171  0.4908
  167SOL     MW  668   0.819   1.092   0.273  0.0825  0.4523  0.1929
  168SOL     OW  669   1.696   1.658   3.038  0.0369  0.0383  0.6886
  168SOL    HW1  670   1.626   1.719   3.027  0.7837  2.3180  0.2582
  168SOL    HW2  671   1.655   1.575   3.028  2.8546 -1.9944  2.8604
  168SOL     MW  672   1.681   1.655   3.036  0.5072  0.0709  0.9183
  169SOL     OW  673   0.388   0.993   1.322 -0.1093 -0.0886 -0.3932
  169SOL    HW1  674   0.396   0.935   1.400  1.4002 -0.5297 -0.3475
  169SOL    HW2  675   0.453   1.067   1.333 -1.5578  1.8068 -0.7364
  169SOL     MW  676   0.398   0.995   1.334 -0.1013  0.1032 -0.4324
  170SOL     OW  677   1.073   1.571   1.523 -0.3898  0.1568  0.3758
  170SOL    HW1  678   1.010   1.643   1.528 -1.6560 -2.4525 -2.1524
  170SOL    HW2  679   1.086   1.557   1.430 -0.0267 -2.8814 -0.3120
  170SOL     MW  680   1.066   1.579   1.511 -0.5090 -0.5883 -0.0486
  171SOL     OW  681   0.549   1.407   0.636 -0.0306 -0.2978  0.5264
  171SOL    HW1  682   0.553   1.393   0.731  0.7362  0.2379  0.6578
  171SOL    HW2  683   0.548   1.318   0.595  1.4038 -1.9086  0.9770
  171SOL     MW  684   0.549   1.393   0.643  0.2598 -0.4396  0.6032
  172SOL     OW  685   0.890   0.282   1.280 -0.3152  0.0694 -0.3362
  172SOL    HW1  686   0.875   0.320   1.188 -0.7125  2.6977 -1.5989
  172SOL    HW2  687   0.803   0.286   1.316  2.2398 -1.4171  3.5016
  172SOL     MW  688   0.876   0.288   1.273 -0.0305  0.2200  0.0036
  173SOL     OW  689   0.455   1.742   0.301  0.3043  0.4817 -0.6435
  173SOL    HW1  690   0.479   1.656   0.261  2.9630  1.2910  0.1420
  173SOL    HW2  691   0.471   1.733   0.396 -1.0328  2.7127  2.4289
  173SOL     MW  692   0.460   1.729   0.308  0.4787  0.8828 -0.1345
  174SOL     OW  693   1.850   0.910   1.496 -0.4004 -0.4425 -0.1555
  174SOL    HW1  694   1.801   0.831   1.521 -0.3732 -1.3348  0.2405
  174SOL    HW2  695   1.830   0.934   1.405  0.8527 -0.0429 -2.9600
  174SOL     MW  696   1.841   0.903   1.487 -0.2315 -0.5075 -0.4732
  175SOL     OW  697   0.496   1.469   0.218 -0.2713  0.6707 -0.4081
  175SOL    HW1  698   0.429   1.395   0.197  1.5446 -1.7352 -0.8581
  175SOL    HW2  699   0.551   1.425   0.278 -1.4225 -1.6100  0.8413
  175SOL     MW  700   0.495   1.453   0.223 -0.1836  0.0524 -0.3026
  176SOL     OW  701   0.201   1.491   1.173  0.1005  0.0806  0.2216
  176SOL    HW1  702   0.174   1.400   1.134 -3.3539 -1.6613 -0.0294
  176SOL    HW2  703   0.118   1.510   1.227  0.3129 -2.1645 -1.1790
  176SOL     MW  704   0.187   1.482   1.175 -0.3272 -0.4454  0.0037
  177SOL     OW  705   0.627   0.404   1.328 -1.0339 -0.8321 -0.8778
  177SOL    HW1  706   0.585   0.476   1.264  2.4564 -2.3725 -1.0842
  177SOL    HW2  707   0.619   0.434   1.419  0.9861 -0.4391 -1.5023
  177SOL     MW  708   0.621   0.417   1.331 -0.3069 -0.9835 -0.9874
  178SOL     OW  709   3.064   0.580   2.943  0.2308 -0.1813 -0.0964
  178SOL    HW1  710   2.985   0.601   2.991 -0.5151  0.1357  0.2512
  178SOL    HW2  711   3.026   0.565   2.854 -0.7248  0.3708  1.6096
  178SOL     MW  712   3.049   0.580   2.938  0.0063 -0.0667  0.1746
  179SOL     OW  713   1.576   1.391   1.316 -0.2479  0.2282  0.7941
  179SOL    HW1  714   1.538   1.427   1.398 -1.1568 -3.0382 -2.0371
  179SOL    HW2  715   1.671   1.398   1.316 -1.9631  1.5206  2.6786
  179SOL     MW  716   1.583   1.397   1.327 -0.5941 -0.0323  0.6692
  180SOL     OW  717   2.993   0.249   0.459 -0.4527  0.0010  0.1599
  180SOL    HW1  718   2.954   0.247   0.368  0.5114  0.0736 -1.7301
  180SOL    HW2  719   3.059   0.325   0.452  0.6499  1.2423 -0.0234
  180SOL     MW  720   2.997   0.259   0.446 -0.1800  0.1744 -0.1136
  181SOL     OW  721   1.106   1.341   3.073 -0.2685  0.4600 -0.4749
  181SOL    HW1  722   1.164   1.400   3.117 -0.9862 -1.0650 -1.2323
  181SOL    HW2  723   1.158   1.300   3.005  0.3224 -1.1909  2.1415
  181SOL     MW  724   1.120   1.344   3.070 -0.2852  0.0410 -0.2296
  182SOL     OW  725   0.453   0.841   1.571  0.1480  0.1738 -0.0397
  182SOL    HW1  726   0.355   0.815   1.586 -0.5778 -2.8316  3.5874
  182SOL    HW2  727   0.502   0.796   1.640  0.7096 -1.6403 -0.0279
  182SOL     MW  728   0.447   0.831   1.582  0.1263 -0.4621  0.4404
  183SOL     OW  729   1.586   1.635   1.173 -0.0582  1.1946  0.3464
  183SOL    HW1  730   1.635   1.692   1.232  2.8062 -0.4684  2.7554
  183SOL    HW2  731   1.556   1.568   1.233 -1.0331  1.9891  1.2909
  183SOL     MW  732   1.589   1.634   1.189  0.1911  1.0800  0.7889
  184SOL     OW  733   0.840   0.694   1.939 -0.0093  0.3500 -0.3126
  184SOL    HW1  734   0.900   0.680   1.870 -0.3834 -0.6525  1.1890
  184SOL    HW2  735   0.862   0.611   1.990 -1.9795  1.3577 -0.7548
  184SOL     MW  736   0.851   0.681   1.937 -0.3186  0.3507 -0.1728
  185SOL     OW  737   1.144   0.972   1.910 -0.5520  0.1596  0.0715
  185SOL    HW1  738   1.132   0.888   1.967  1.7424 -0.1112  1.0743
  185SOL    HW2  739   1.198   1.025   1.961 -0.2330 -1.4214 -1.5196
  185SOL     MW  740   1.150   0.968   1.924 -0.2072 -0.0847 -0.0061
  186SOL     OW  741   0.378   1.643   1.410 -0.1560 -0.4625 -0.1743
  186SOL    HW1  742   0.406   1.588   1.336  3.5863  1.5625  2.6221
  186SOL    HW2  743   0.311   1.602   1.466 -1.4104 -0.3524  0.9954
  186SOL     MW  744   0.373   1.630   1.407  0.1723 -0.1808  0.3490
  187SOL     OW  745   1.490   0.716   1.329  0.3081 -0.1177  0.4799
  187SOL    HW1  746   1.555   0.727   1.398  2.6178  3.7966 -2.0853
  187SOL    HW2  747   1.406   0.707   1.374  0.8099  0.0506 -1.3448
  187SOL     MW  748   1.488   0.717   1.344  0.6791  0.4209 -0.0993
  188SOL     OW  749   1.887   1.153   0.916 -0.0413 -0.3024  0.0523
  188SOL    HW1  750   1.896   1.181   1.007  1.4226 -0.8005  0.4097
  188SOL    HW2  751   1.903   1.061   0.902  0.0328 -0.1438  2.9335
  188SOL     MW  752   1.890   1.145   0.926  0.1617 -0.3472  0.4796
  189SOL     OW  753   0.676   0.837   0.876  0.3441  0.1279  0.6796
  189SOL    HW1  754   0.584   0.880   0.871  1.0834 -3.3064 -1.1590
  189SOL    HW2  755   0.733   0.896   0.929 -0.7774 -1.8019  0.0095
  189SOL     MW  756   0.672   0.851   0.883  0.2937 -0.5798  0.3486
  190SOL     OW  757   1.912   0.238   2.169 -0.0728  0.0877 -0.6108
  190SOL    HW1  758   1.906   0.215   2.264 -2.0620  1.1447  0.9023
  190SOL    HW2  759   1.983   0.309   2.163 -2.1077  0.7529  2.2724
  190SOL     MW  760   1.920   0.244   2.181 -0.6037  0.3149 -0.0308
  191SOL     OW  761   1.516   0.945   1.174  0.5195  0.0029 -0.6435
  191SOL    HW1  762   1.476   1.023   1.210  4.1887 -0.2875  0.0745
  191SOL    HW2  763   1.491   0.878   1.241  2.1879  0.9630 -0.2155
  191SOL     MW  764   1.507   0.947   1.188  1.2237  0.0913 -0.4923
  192SOL     OW  765   0.591   2.099   2.756 -0.1206  0.5253 -0.1114
  192SOL    HW1  766   0.587   2.118   2.667 -0.4247  0.8496  0.5718
  192SOL    HW2  767   0.589   2.000   2.770 -2.4923 -0.2556  0.7537
  192SOL     MW  768   0.590   2.088   2.746 -0.4736  0.4651  0.0929
  193SOL     OW  769   0.940   1.555   0.725 -0.3887  0.7365  0.2811
  193SOL    HW1  770   0.896   1.542   0.805  2.2926  0.0343 -0.2436
  193SOL    HW2  771   0.892   1.489   0.664  0.6935 -0.1534 -2.3881
  193SOL     MW  772   0.928   1.545   0.728  0.1079  0.5264 -0.1403
  194SOL     OW  773   0.526   1.488   0.921 -0.0908 -0.2141 -0.8785
  194SOL    HW1  774   0.517   1.393   0.946 -1.8633 -1.7524 -1.0868
  194SOL    HW2  775   0.435   1.510   0.928 -0.3508  0.4429 -1.6366
  194SOL     MW  776   0.513   1.478   0.925 -0.3590 -0.3304 -1.0060
  195SOL     OW  777   1.298   1.171   2.954  0.1640 -0.3227 -0.1202
  195SOL    HW1  778   1.365   1.174   3.019 -0.7523  0.8116  0.3107
  195SOL    HW2  779   1.263   1.080   2.960 -0.6298  0.7897  0.5074
  195SOL     MW  780   1.302   1.160   2.963 -0.0617 -0.0263  0.0195
  196SOL     OW  781   2.187   1.000   0.569  0.3946 -0.1313 -0.3874
  196SOL    HW1  782   2.159   1.001   0.482 -2.5313  0.0458 -1.3870
  196SOL    HW2  783   2.195   1.094   0.594 -2.4259  2.7327 -0.9936
  196SOL     MW  784   2.185   1.012   0.561 -0.3636  0.2699 -0.5993
  197SOL     OW  785   0.668   1.352   2.106  0.0033  1.1270  0.2956
  197SOL    HW1  786   0.682   1.254   2.078  2.2509 -0.2955  0.9254
  197SOL    HW2  787   0.612   1.390   2.034  0.7064  1.8576  1.3916
  197SOL     MW  788   0.663   1.344   2.093  0.3926  1.0357  0.5233
  198SOL     OW  789   2.924   1.392   1.049 -0.2759  0.6322 -0.0004
  198SOL    HW1  790   2.896   1.459   0.987 -0.3839  2.5917  3.3130
  198SOL    HW2  791   2.849   1.336   1.056  0.6625 -0.2739 -1.9011
  198SOL     MW  792   2.910   1.394   1.042 -0.1664  0.7712  0.1860
  199SOL     OW  793   0.526   1.405   1.888  0.9751 -0.1799  0.0836
  199SOL    HW1  794   0.456   1.344   1.901  0.9219 -0.3524 -0.1910
  199SOL    HW2  795   0.573   1.369   1.814 -2.9954  2.3650 -0.9376
  199SOL     MW  796   0.523   1.392   1.880  0.4442  0.1331 -0.0873
  200SOL     OW  797   1.896   2.902   1.389 -0.6819 -0.5594  0.3647
  200SOL    HW1  798   1.929   2.926   1.296  0.1513  1.9882 -1.9570
  200SOL    HW2  799   1.830   2.967   1.409  1.2132 -0.5835 -0.9864
  200SOL     MW  800   1.892   2.914   1.380 -0.3220 -0.2265 -0.1199
  201SOL     OW  801   1.010   0.333   0.797 -0.3080  0.8916 -0.1028
  201SOL    HW1  802   1.023   0.250   0.756 -0.1043  0.1051 -2.3586
  201SOL    HW2  803   1.103   0.363   0.805 -2.7614  2.6259  2.1493
  201SOL     MW  804   1.024   0.326   0.793 -0.6048  1.0166 -0.1033
  202SOL     OW  805   1.517   1.566   0.898 -0.1567  0.2364  0.1432
  202SOL    HW1  806   1.542   1.487   0.848 -1.3609  2.3308 -1.0822
  202SOL    HW2  807   1.568   1.576   0.979 -1.1055 -0.3369  0.6626
  202SOL     MW  808   1.527   1.557   0.902 -0.4408  0.4371  0.0500
  203SOL     OW  809   3.007   0.453   1.395  0.6646 -0.3658  0.5117
  203SOL    HW1  810   3.083   0.395   1.384 -0.4397  3.3806  2.4013
  203SOL    HW2  811   3.041   0.532   1.438  0.0580  1.4063 -0.5909
  203SOL     MW  812   3.022   0.456   1.399  0.4388  0.3623  0.6155
  204SOL     OW  813   1.015   1.766   0.589  0.1577 -0.0134  0.5251
  204SOL    HW1  814   0.984   1.691   0.646  1.1393 -0.6322  3.7754
  204SOL    HW2  815   0.956   1.773   0.512  1.9348 -0.2387  0.0911
  204SOL     MW  816   1.003   1.757   0.586  0.5217 -0.1248  0.8967
  205SOL     OW  817   1.390   0.010   1.332  0.1048 -0.8173  0.5770
  205SOL    HW1  818   1.369  -0.035   1.253  1.2799 -0.7478 -1.5539
  205SOL    HW2  819   1.384   0.103   1.304  3.3639 -1.2458 -1.6010
  205SOL     MW  820   1.386   0.017   1.318  0.6899 -0.8646  0.0085
  206SOL     OW  821   0.486   3.050   1.395  0.3218  0.5594 -0.2615
  206SOL    HW1  822   0.449   3.062   1.306 -1.4078  1.0757  1.9946
  206SOL    HW2  823   0.536   2.966   1.396  1.3853  0.6730 -0.2223
  206SOL     MW  824   0.488   3.041   1.384  0.2339  0.6425  0.0414
  207SOL     OW  825   0.925   1.594   0.201  0.4552  0.9205  0.0498
  207SOL    HW1  826   0.938   1.680   0.155 -1.7707  2.3224 -0.0399
  207SOL    HW2  827   1.016   1.565   0.225 -0.5690 -0.5020  0.1543
  207SOL     MW  828   0.939   1.601   0.198  0.0264  0.9178  0.0517
  208SOL     OW  829   0.750   1.631   1.325  0.1789  0.0654 -0.5291
  208SOL    HW1  830   0.775   1.674   1.404 -0.9899  0.5651 -0.2043
  208SOL    HW2  831   0.817   1.572   1.289 -0.0470  1.7431  2.4927
  208SOL     MW  832   0.762   1.629   1.330 -0.0051  0.3527 -0.0876
  209SOL     OW  833   1.568   0.485   2.922 -0.0113  0.8754 -0.4136
  209SOL    HW1  834   1.617   0.570   2.913  2.8939  0.7944  0.8906
  209SOL    HW2  835   1.616   0.413   2.871  0.7688 -1.2931 -0.4578
  209SOL     MW  836   1.581   0.487   2.914  0.4750  0.5786 -0.2474
  210SOL     OW  837   1.490   1.294   0.761 -0.8784  0.3714  0.1373
  210SOL    HW1  838   1.587   1.300   0.752  1.2647  0.2898 -1.9836
  210SOL    HW2  839   1.455   1.345   0.689  0.6189  0.0438 -0.1376
  210SOL     MW  840   1.498   1.301   0.750 -0.3981  0.3174 -0.1788
  211SOL     OW  841   1.726   0.237   0.963 -0.1925  0.1946  0.1239
  211SOL    HW1  842   1.696   0.301   0.897  0.7610  1.1635 -1.3028
  211SOL    HW2  843   1.810   0.279   0.989  1.9792 -0.2885 -1.1381
  211SOL     MW  844   1.733   0.251   0.957  0.2199  0.2587 -0.2308
  212SOL     OW  845   0.277   1.044   0.170 -0.3233  0.2055  0.4217
  212SOL    HW1  846   0.207   0.988   0.211  0.6762 -1.2756  1.5122
  212SOL    HW2  847   0.347   0.980   0.150 -0.8964 -1.5015 -0.5924
  212SOL     MW  848   0.277   1.028   0.173 -0.2671 -0.2152  0.4317
  213SOL     OW  849   0.510   1.717   3.015 -0.6733  0.0561 -0.6785
  213SOL    HW1  850   0.515   1.792   3.083  0.3301  0.5666  0.7196
  213SOL    HW2  851   0.559   1.758   2.940  2.0197  0.4838  2.6463
  213SOL     MW  852   0.517   1.733   3.014 -0.1856  0.1799 -0.0553
  214SOL     OW  853   0.669   0.368   2.158  0.2151  0.1564  0.3586
  214SOL    HW1  854   0.585   0.427   2.171 -0.3275  0.3002  1.0713
  214SOL    HW2  855   0.668   0.378   2.061  0.0897  1.3111 -1.7158
  214SOL     MW  856   0.658   0.377   2.147  0.1270  0.3277  0.1790
  215SOL     OW  857   0.498   0.707   2.655  0.2637 -0.4649 -0.0810
  215SOL    HW1  858   0.491   0.701   2.563  2.5800  4.2402 -3.4184
  215SOL    HW2  859   0.423   0.665   2.698  0.6116 -1.7009 -0.8637
  215SOL     MW  860   0.487   0.701   2.648  0.6152 -0.0072 -0.6246
  216SOL     OW  861   2.960   3.005   2.712  0.5932 -0.3886  0.3038
  216SOL    HW1  862   2.907   3.025   2.794  0.2463 -1.8842  3.8379
  216SOL    HW2  863   3.015   3.082   2.705 -1.9305  1.7650 -0.3812
  216SOL     MW  864   2.960   3.018   2.722  0.2145 -0.3018  0.6797
  217SOL     OW  865   1.056   1.118   0.133  0.4973  0.2857 -0.2711
  217SOL    HW1  866   1.074   1.066   0.055  0.1119  0.1434 -0.4124
  217SOL    HW2  867   1.062   1.199   0.085 -1.5095 -1.4354  0.7826
  217SOL     MW  868   1.059   1.121   0.116  0.1817  0.0398 -0.1507
  218SOL     OW  869   0.924   1.356   2.595 -0.0851  0.3017  0.7500
  218SOL    HW1  870   0.964   1.283   2.636  0.8934  2.4536 -0.2967
  218SOL    HW2  871   0.985   1.428   2.618  0.8662 -0.5792 -0.4069
  218SOL     MW  872   0.937   1.356   2.604  0.1695  0.4694  0.4592
  219SOL     OW  873   1.116   0.363   2.625 -0.2586  0.4217 -0.6848
  219SOL    HW1  874   1.205   0.402   2.646  2.3913  2.1634  1.0597
  219SOL    HW2  875   1.060   0.433   2.589  3.3770  0.8419  1.0534
  219SOL     MW  876   1.120   0.378   2.623  0.5707  0.7070 -0.2253
  220SOL     OW  877   1.750   0.458   2.217 -0.1000 -0.0835  0.2301
  220SOL    HW1  878   1.677   0.464   2.151  1.2697 -0.9984 -1.3673
  220SOL    HW2  879   1.790   0.377   2.194 -0.4677  0.4332  0.4738
  220SOL     MW  880   1.746   0.448   2.205  0.0322 -0.1360  0.0515
  221SOL     OW  881   0.350   1.309   2.938 -0.0509  0.2542 -0.2618
  221SOL    HW1  882   0.431   1.267   2.908 -0.4009 -1.6525  0.4886
  221SOL    HW2  883   0.355   1.392   2.887 -1.4820  2.2539  2.0850
  221SOL     MW  884   0.362   1.315   2.927 -0.2859  0.2665  0.1468
  222SOL     OW  885   0.426   0.981   2.671  0.2399 -0.0061 -0.0488
  222SOL    HW1  886   0.348   1.005   2.624  1.9570  0.5154 -1.1049
  222SOL    HW2  887   0.460   0.897   2.643 -2.2609  1.0672  0.5581
  222SOL     MW  888   0.420   0.973   2.661  0.1365  0.2043 -0.1080
  223SOL     OW  889   0.078   2.024   2.504  0.1821 -0.1010  0.0975
  223SOL    HW1  890   0.122   1.979   2.578 -0.3553 -0.3715  0.6072
  223SOL    HW2  891   0.114   2.110   2.504  0.3060 -0.9990 -2.4703
  223SOL     MW  892   0.089   2.029   2.514  0.1275 -0.2552 -0.1741
  224SOL     OW  893   1.576   0.757   2.565 -0.0680 -0.1626 -0.7016
  224SOL    HW1  894   1.567   0.797   2.650  2.7528 -0.1793  0.5597
  224SOL    HW2  895   1.548   0.826   2.502 -1.6780  0.3417 -2.7521
  224SOL     MW  896   1.571   0.771   2.568  0.0917 -0.0982 -0.8057
  225SOL     OW  897   2.942   1.459   2.273  0.5479 -0.2049  0.2617
  225SOL    HW1  898   2.990   1.528   2.226  0.2371  2.7759 -0.2877
  225SOL    HW2  899   2.892   1.504   2.334  0.8985 -0.6423 -0.2847
  225SOL     MW  900   2.942   1.474   2.275  0.5531  0.1307  0.1171
  226SOL     OW  901   0.418   1.498   2.747 -0.4826  0.0665  0.4831
  226SOL    HW1  902   0.506   1.478   2.709  1.5211 -0.1015  1.4603
  226SOL    HW2  903   0.438   1.580   2.794  1.0780  2.1959  1.7537
  226SOL     MW  904   0.432   1.506   2.748 -0.0123  0.3253  0.7797
  227SOL     OW  905   0.553   1.136   2.875  0.2028  0.0434 -0.2339
  227SOL    HW1  906   0.643   1.111   2.853  0.1980  0.7369  0.5794
  227SOL    HW2  907   0.502   1.110   2.802  1.5211  2.8978  0.6941
  227SOL     MW  908   0.559   1.129   2.863  0.3761  0.5115 -0.0042
  228SOL     OW  909   0.721   1.092   2.028  0.3567  0.3508 -0.1470
  228SOL    HW1  910   0.802   1.099   1.975 -0.8865 -1.7453 -0.7491
  228SOL    HW2  911   0.751   1.032   2.097 -0.2421 -2.2013 -0.5239
  228SOL     MW  912   0.736   1.085   2.030  0.1137 -0.2624 -0.2762
  229SOL     OW  913   0.154   0.649   0.038 -0.6740  0.0284  0.3962
  229SOL    HW1  914   0.096   0.616  -0.028  2.4893 -1.4986  1.6479
  229SOL    HW2  915   0.159   0.586   0.108  0.1183  0.4568  2.0729
  229SOL     MW  916   0.147   0.636   0.038 -0.1521 -0.1165  0.7825
  230SOL     OW  917   1.700   1.328   2.013  0.7962  0.6205  0.0341
  230SOL    HW1  918   1.648   1.299   2.092  0.3491 -2.0546  1.2992
  230SOL    HW2  919   1.739   1.246   1.984 -2.2456  0.6674 -1.1474
  230SOL     MW  920   1.698   1.313   2.020  0.3358  0.2737  0.0451
  231SOL     OW  921   2.762   1.274   2.212  0.9182  0.2187 -0.5712
  231SOL    HW1  922   2.828   1.334   2.238 -0.0537  1.5786  0.8304
  231SOL    HW2  923   2.705   1.329   2.163  0.5898  0.3233  3.8799
  231SOL     MW  924   2.763   1.289   2.209  0.7466  0.4119  0.2010
  232SOL     OW  925   2.248   0.858   2.002  0.0074 -0.4830 -0.2251
  232SOL    HW1  926   2.175   0.867   1.939  0.8190 -2.0370 -0.3795
  232SOL    HW2  927   2.204   0.833   2.079 -0.4604 -0.0162 -0.0604
  232SOL     MW  928   2.233   0.856   2.004  0.0528 -0.6265 -0.2237
  233SOL     OW  929   2.092   0.431   2.078 -0.2439  0.0609  0.0266
  233SOL    HW1  930   2.150   0.356   2.052 -2.4097 -3.8205 -1.9438
  233SOL    HW2  931   2.140   0.492   2.134 -1.0461 -0.0296 -1.8695
  233SOL     MW  932   2.106   0.429   2.082 -0.6355 -0.4631 -0.4835
  234SOL     OW  933   0.209   1.059   2.492  0.1493 -0.0835  0.6090
  234SOL    HW1  934   0.111   1.064   2.489 -1.8444 -3.0997 -1.2146
  234SOL    HW2  935   0.247   1.146   2.515  1.1333  1.0607 -3.4877
  234SOL     MW  936   0.201   1.071   2.494  0.0161 -0.3305 -0.1721
  235SOL     OW  937   1.123   3.055   2.766 -0.3344  0.0186  0.0248
  235SOL    HW1  938   1.167   3.037   2.851 -0.0532 -1.5234 -2.2458
  235SOL    HW2  939   1.083   3.141   2.783  0.7945  0.3313  0.0993
  235SOL     MW  940   1.123   3.064   2.779 -0.1483 -0.1436 -0.2650
  236SOL     OW  941   2.916   0.608   0.135 -0.0072 -0.6327 -0.2293
  236SOL    HW1  942   2.837   0.641   0.095  1.2048 -0.0029  2.2088
  236SOL    HW2  943   2.971   0.686   0.110 -0.0728  1.2708  0.0283
  236SOL     MW  944   2.913   0.623   0.126  0.1440 -0.2984  0.1264
  237SOL     OW  945   2.018   1.155   2.219  0.0952  0.3267  0.2781
  237SOL    HW1  946   1.955   1.136   2.147 -1.1578  2.9101 -2.0391
  237SOL    HW2  947   2.063   1.066   2.240  0.1910  0.2652 -0.4089
  237SOL     MW  948   2.016   1.141   2.212 -0.0575  0.6595 -0.1182
  238SOL     OW  949   1.080   1.808   2.959 -0.0989 -0.0465  0.2301
  238SOL    HW1  950   1.044   1.725   2.926  1.7346 -0.2801  2.0386
  238SOL    HW2  951   1.172   1.788   2.955 -0.6476 -1.5760  1.5066
  238SOL     MW  952   1.087   1.794   2.954  0.0706 -0.2791  0.6371
  239SOL     OW  953   1.286   1.434   2.390 -0.6459  0.0552  0.1975
  239SOL    HW1  954   1.199   1.452   2.430  1.7639  1.9519  1.6886
  239SOL    HW2  955   1.304   1.346   2.427  1.7033  1.7448 -2.6462
  239SOL     MW  956   1.277   1.425   2.400 -0.0180  0.5284  0.0190
  240SOL     OW  957   0.630   0.908   2.322 -0.3131  0.4074 -0.1533
  240SOL    HW1  958   0.677   0.951   2.401  1.4729  0.5789 -2.5417
  240SOL    HW2  959   0.696   0.851   2.283 -1.6638 -0.8242  1.3782
  240SOL     MW  960   0.645   0.906   2.327 -0.2557  0.2675 -0.2663
  241SOL     OW  961   0.681   0.395   0.010  0.4138  0.2851 -0.1778
  241SOL    HW1  962   0.696   0.469   0.073 -2.0335  2.2772  0.0348
  241SOL    HW2  963   0.583   0.393   0.002 -2.3775 -1.2171  4.5680
  241SOL     MW  964   0.670   0.404   0.017 -0.2774  0.3497  0.4764
  242SOL     OW  965   1.486   1.738   2.326 -0.1776 -0.1059 -0.0101
  242SOL    HW1  966   1.438   1.822   2.343  0.9776  2.3795 -4.7794
  242SOL    HW2  967   1.448   1.700   2.246 -0.4074  1.8086  0.7429
  242SOL     MW  968   1.475   1.744   2.318 -0.0555  0.4746 -0.5400
  243SOL     OW  969   0.998   0.170   2.469 -0.6050 -0.3983  0.1662
  243SOL    HW1  970   1.057   0.129   2.404 -1.5155  0.3583 -0.8819
  243SOL    HW2  971   1.045   0.231   2.535 -2.3357  0.4510  0.5456
  243SOL     MW  972   1.012   0.173   2.469 -0.9535 -0.1865  0.0780
  244SOL     OW  973   0.201   0.806   2.358 -0.5683 -0.1375 -0.2234
  244SOL    HW1  974   0.217   0.890   2.397 -0.7811  0.0034  1.3392
  244SOL    HW2  975   0.289   0.773   2.342 -0.8321 -0.4506  0.5657
  244SOL     MW  976   0.215   0.813   2.361 -0.6312 -0.1602  0.0869
  245SOL     OW  977   1.220   0.167   2.292  0.4962 -0.0216 -0.0491
  245SOL    HW1  978   1.284   0.098   2.306 -0.3665 -2.9185  0.4306
  245SOL    HW2  979   1.231   0.213   2.379 -1.2306 -1.3187 -1.5042
  245SOL     MW  980   1.230   0.164   2.305  0.1546 -0.5750 -0.1778
  246SOL     OW  981   1.246   1.165   2.086  0.6238 -0.0780  0.2416
  246SOL    HW1  982   1.183   1.119   2.143 -0.8701  0.5748  0.0786
  246SOL    HW2  983   1.333   1.170   2.127 -2.4488 -1.0573 -1.6020
  246SOL     MW  984   1.249   1.160   2.099  0.0213 -0.1210 -0.0231
  247SOL     OW  985   0.751   0.584   0.204 -0.3956  0.0801 -0.0124
  247SOL    HW1  986   0.719   0.674   0.194 -2.6478  0.7740  3.5029
  247SOL    HW2  987   0.841   0.586   0.154  0.9284  3.3136 -2.6667
  247SOL     MW  988   0.759   0.596   0.196 -0.5180  0.5983  0.1012
  248SOL     OW  989   0.307   1.290   2.606  0.0639 -0.2649 -0.0962
  248SOL    HW1  990   0.391   1.289   2.559  0.0641 -0.8261 -0.2876
  248SOL    HW2  991   0.307   1.367   2.660 -2.7850 -2.8104 -0.7491
  248SOL     MW  992   0.318   1.300   2.607 -0.3119 -0.6748 -0.2076
  249SOL     OW  993   0.149   1.864   2.752 -0.7972 -0.4820  0.2234
  249SOL    HW1  994   0.128   1.788   2.692  0.0964 -1.4643  1.7677
  249SOL    HW2  995   0.177   1.826   2.834  2.0452 -0.2114 -0.7517
  249SOL     MW  996   0.150   1.849   2.755 -0.3043 -0.5759  0.2985
  250SOL     OW  997   2.175   0.921   2.299 -0.1912 -0.2424  0.0246
  250SOL    HW1  998   2.235   0.850   2.307  0.3391  1.4017  4.8219
  250SOL    HW2  999   2.234   0.995   2.310  3.5183 -2.5859 -1.8500
  250SOL     MW 1000   2.190   0.921   2.301  0.3682 -0.3347  0.4102
  251SOL     OW 1001   0.178   0.921   1.936 -0.0867 -0.4349 -0.3573
  251SOL    HW1 1002   0.095   0.867   1.926 -2.0495  0.4856 -1.9242
  251SOL    HW2 1003   0.204   0.909   1.843  0.6497  1.5836  2.3366
  251SOL     MW 1004   0.171   0.913   1.922 -0.2485 -0.0471 -0.2086
  252SOL     OW 1005   1.743   1.001   2.893  0.3099 -0.4884  0.1131
  252SOL    HW1 1006   1.766   1.065   2.964  1.2294 -0.3767  1.7842
  252SOL    HW2 1007   1.821   1.009   2.832  2.3204 -0.3660  0.6077
  252SOL     MW 1008   1.756   1.010   2.894  0.6965 -0.4575  0.3988
  253SOL     OW 1009   1.147   1.772   2.536 -0.5303 -0.5098 -0.5668
  253SOL    HW1 1010   1.140   1.745   2.440 -0.4565 -1.8405  2.1621
  253SOL    HW2 1011   1.061   1.814   2.558 -0.1208 -0.2305  1.2478
  253SOL     MW 1012   1.135   1.774   2.526 -0.4666 -0.6485  0.0326
  254SOL     OW 1013   1.031   1.058   2.245 -0.6276  0.4089  0.2825
  254SOL    HW1 1014   0.994   0.969   2.248 -0.3509 -0.5554 -3.5247
  254SOL    HW2 1015   0.960   1.117   2.288 -2.0337 -1.1873  0.7167
  254SOL     MW 1016   1.017   1.054   2.251 -0.7766  0.0711 -0.1626
  255SOL     OW 1017   0.809   2.561   2.123  0.5479 -0.0195  0.2650
  255SOL    HW1 1018   0.728   2.509   2.120  1.9935 -0.6970  1.1372
  255SOL    HW2 1019   0.877   2.495   2.136 -1.4582  0.5980  0.9325
  255SOL     MW 1020   0.808   2.545   2.124  0.4740 -0.0274  0.4682
  256SOL     OW 1021   1.329   2.708   2.934 -0.4618  0.0254 -0.1265
  256SOL    HW1 1022   1.269   2.678   2.860 -0.3149 -1.6575  1.2911
  256SOL    HW2 1023   1.405   2.744   2.894  2.5415 -1.9550  0.4576
  256SOL     MW 1024   1.331   2.709   2.919 -0.0462 -0.4579  0.1376
  257SOL     OW 1025   0.186   1.923   0.043 -0.0489  0.0086  0.1865
  257SOL    HW1 1026   0.198   1.877   0.128 -0.6299 -0.6823  3.9202
  257SOL    HW2 1027   0.194   1.851  -0.019 -1.1992 -0.9341  0.3330
  257SOL     MW 1028   0.188   1.908   0.046 -0.2773 -0.2070  0.6985
  258SOL     OW 1029   0.812   1.032   2.516  0.0046 -0.7146  0.8656
  258SOL    HW1 1030   0.810   1.120   2.489  0.0231 -2.1482  1.7995
  258SOL    HW2 1031   0.799   1.028   2.613  0.9630  1.1257 -1.1167
  258SOL     MW 1032   0.810   1.043   2.525  0.1335 -0.6610  0.7273
  259SOL     OW 1033   0.906   0.378   2.322  0.3249  0.2316 -0.8079
  259SOL    HW1 1034   0.825   0.374   2.266 -1.6394  0.0260 -0.2138
  259SOL    HW2 1035   0.928   0.289   2.350  3.4483  0.8906  2.4747
  259SOL     MW 1036   0.898   0.366   2.318  0.4778  0.2915 -0.2964
  260SOL     OW 1037   0.540   0.118   1.640  0.4952  0.8102  0.2227
  260SOL    HW1 1038   0.524   0.082   1.548 -0.6667 -1.4431  0.8961
  260SOL    HW2 1039   0.639   0.137   1.630  1.6376  1.4173 -0.6475
  260SOL     MW 1040   0.551   0.115   1.626  0.4926  0.5930  0.1967
  261SOL     OW 1041   1.175   0.737   2.038 -0.0107  0.2081 -0.1218
  261SOL    HW1 1042   1.171   0.720   2.132 -0.4337 -0.1773  2.0370
  261SOL    HW2 1043   1.176   0.655   1.995  1.6541  0.3149 -3.0320
  261SOL     MW 1044   1.174   0.724   2.045  0.1532  0.1714 -0.2209
  262SOL     OW 1045   1.052   0.297   0.161  0.0929  0.2327 -0.0025
  262SOL    HW1 1046   1.146   0.316   0.184  1.4627 -0.3761  2.5567
  262SOL    HW2 1047   1.049   0.227   0.094 -1.1918  1.4817  0.0051
  262SOL     MW 1048   1.064   0.290   0.155  0.1041  0.3172  0.3362
  263SOL     OW 1049   0.438   0.029   2.470  0.2198 -0.0196  0.4384
  263SOL    HW1 1050   0.351   0.074   2.469  0.4025 -1.0667  0.5857
  263SOL    HW2 1051   0.486   0.080   2.404  0.6239  0.5821  0.4269
  263SOL     MW 1052   0.433   0.041   2.461  0.2972 -0.0784  0.4563
  264SOL     OW 1053   1.502   1.344   1.812  0.3782 -0.5624  0.6935
  264SOL    HW1 1054   1.472   1.254   1.824 -2.2632  1.5594 -0.4176
  264SOL    HW2 1055   1.553   1.358   1.890 -0.4023  1.2510 -0.8938
  264SOL     MW 1056   1.505   1.334   1.824 -0.0733 -0.0432  0.3374
  265SOL     OW 1057   0.790   2.813   2.216  0.5913  0.3697 -0.3576
  265SOL    HW1 1058   0.808   2.729   2.170  2.0298 -0.0318  1.6237
  265SOL    HW2 1059   0.766   2.784   2.304  2.9170 -1.1396 -0.2895
  265SOL     MW 1060   0.789   2.798   2.222  1.0880  0.1176 -0.0872
  266SOL     OW 1061   0.840   0.764   2.218 -0.3498  0.1340  0.0472
  266SOL    HW1 1062   0.840   0.746   2.124 -1.6832 -0.2012 -0.4468
  266SOL    HW2 1063   0.917   0.723   2.257  1.6875  1.4232  1.3278
  266SOL     MW 1064   0.850   0.756   2.211 -0.2569  0.2599  0.1510
  267SOL     OW 1065   1.381   1.769   2.679 -0.5933 -0.0237 -0.4629
  267SOL    HW1 1066   1.426   1.706   2.619  2.0143 -0.9560 -2.6666
  267SOL    HW2 1067   1.308   1.800   2.618 -4.6645  1.1858  0.3358
  267SOL     MW 1068   1.377   1.765   2.663 -0.7864  0.0129 -0.6483
  268SOL     OW 1069   0.204   0.868   1.660 -0.3350  0.6669  0.3192
  268SOL    HW1 1070   0.166   0.952   1.629 -1.5902 -0.3627  0.0282
  268SOL    HW2 1071   0.147   0.811   1.614  1.1317  2.6057 -0.1653
  268SOL     MW 1072   0.192   0.872   1.650 -0.3071  0.7868  0.2169
  269SOL     OW 1073   1.386   2.005   2.339 -0.4318  0.1432  0.5258
  269SOL    HW1 1074   1.439   2.071   2.378 -2.7901  0.9955  0.2071
  269SOL    HW2 1075   1.315   2.002   2.397  1.2078  0.3538 -4.2262
  269SOL     MW 1076   1.384   2.013   2.352 -0.5267  0.2835 -0.1432
  270SOL     OW 1077   1.144   0.426   1.615  0.5210 -0.3198 -0.4819
  270SOL    HW1 1078   1.116   0.341   1.655  1.0213 -0.9561 -1.9217
  270SOL    HW2 1079   1.239   0.423   1.612  2.6509 -1.3694  2.0037
  270SOL     MW 1080   1.153   0.414   1.620  0.8681 -0.5422 -0.3439
  271SOL     OW 1081   0.821   0.018   2.587 -0.5835 -0.1417 -0.3148
  271SOL    HW1 1082   0.864  -0.060   2.631 -1.6148 -2.3899 -1.1239
  271SOL    HW2 1083   0.894   0.075   2.545 -1.3140 -0.8407 -2.7297
  271SOL     MW 1084   0.836   0.015   2.588 -0.8160 -0.5306 -0.7402
  272SOL     OW 1085   1.517   2.830   2.781  0.0093 -0.0326  0.6328
  272SOL    HW1 1086   1.452   2.824   2.707 -1.1276 -2.0741 -2.4885
  272SOL    HW2 1087   1.520   2.925   2.810 -0.4782 -0.5478 -1.4622
  272SOL     MW 1088   1.509   2.842   2.775 -0.2051 -0.3699 -0.0554
  273SOL     OW 1089   1.506   0.914   2.800 -0.2655 -0.0553  0.0130
  273SOL    HW1 1090   1.584   0.965   2.836 -0.3033 -1.6510  0.9747
  273SOL    HW2 1091   1.460   0.980   2.748 -1.6593 -0.2245 -0.6913
  273SOL     MW 1092   1.510   0.929   2.798 -0.4544 -0.2881  0.0470
  274SOL     OW 1093   1.414   0.717   0.125 -0.5207  0.0526  0.1547
  274SOL    HW1 1094   1.489   0.656   0.133  0.2184  0.6459 -0.1085
  274SOL    HW2 1095   1.341   0.669   0.171 -0.4833  0.3976 -1.8242
  274SOL     MW 1096   1.414   0.702   0.133 -0.4182  0.1764 -0.1412
  275SOL     OW 1097   1.645   0.538   1.785  0.0994 -0.4209  0.2266
  275SOL    HW1 1098   1.720   0.572   1.837 -0.3309  0.1672  1.3708
  275SOL    HW2 1099   1.642   0.449   1.825  0.2733  1.1363  1.3317
  275SOL     MW 1100   1.655   0.531   1.797  0.0656 -0.1379  0.5233
  276SOL     OW 1101   0.307   1.246   1.931 -0.0602  0.4634 -0.1548
  276SOL    HW1 1102   0.342   1.161   1.933  0.5171  1.3915  1.4362
  276SOL    HW2 1103   0.303   1.273   2.024  1.5801 -2.5010 -0.4021
  276SOL     MW 1104   0.311   1.239   1.944  0.2324  0.1947  0.0225
  277SOL     OW 1105   1.918   1.149   2.478  0.7300  0.0591  0.9415
  277SOL    HW1 1106   1.968   1.232   2.493  0.8715  1.1859  1.4780
  277SOL    HW2 1107   1.925   1.138   2.382  1.3921 -5.0485  1.1761
  277SOL     MW 1108   1.926   1.158   2.467  0.8361 -0.4661  1.0432
  278SOL     OW 1109   1.422   0.689   1.668 -0.3450  0.1032 -0.5095
  278SOL    HW1 1110   1.374   0.634   1.736 -0.3344 -0.9388 -2.3197
  278SOL    HW2 1111   1.512   0.690   1.690 -1.6744  1.1685 -0.2325
  278SOL     MW 1112   1.427   0.682   1.680 -0.5190  0.1063 -0.7118
  279SOL     OW 1113   0.585   0.120   2.238 -0.7752  0.0234 -0.5124
  279SOL    HW1 1114   0.672   0.073   2.232  2.3750  0.4926  0.7830
  279SOL    HW2 1115   0.601   0.213   2.229  0.0806  1.5893  3.4959
  279SOL     MW 1116   0.598   0.126   2.236 -0.2467  0.2919  0.1874
  280SOL     OW 1117   1.470   0.959   2.161 -0.0435  0.1435  0.2691
  280SOL    HW1 1118   1.520   0.889   2.119 -1.1157  3.1069 -2.6946
  280SOL    HW2 1119   1.464   0.946   2.253 -0.4762  1.4993 -1.8517
  280SOL     MW 1120   1.476   0.948   2.168 -0.2421  0.7133 -0.4017
  281SOL     OW 1121   1.341   1.320   2.743 -0.4718  0.1444 -0.3658
  281SOL    HW1 1122   1.434   1.338   2.745 -2.2921  2.1672  1.3787
  281SOL    HW2 1123   1.331   1.267   2.826  2.6424  0.8172  0.9998
  281SOL     MW 1124   1.352   1.315   2.754 -0.3011  0.5001  0.0445
  282SOL     OW 1125   1.085   1.291   1.633 -0.0862  0.5714  0.0087
  282SOL    HW1 1126   1.085   1.389   1.633  2.8469  1.1777 -1.1760
  282SOL    HW2 1127   1.005   1.275   1.680  0.9147  0.5477 -0.6294
  282SOL     MW 1128   1.074   1.302   1.639  0.4329  0.6483 -0.2318
  283SOL     OW 1129   0.821   1.253   3.011  0.4941  0.4421  0.6631
  283SOL    HW1 1130   0.832   1.233   3.103  0.3918 -1.2908 -1.6543
  283SOL    HW2 1131   0.779   1.337   3.011 -0.3830 -2.1464 -1.2623
  283SOL     MW 1132   0.817   1.261   3.023  0.3649 -0.1281  0.1033
  284SOL     OW 1133   0.459   0.700   2.387 -0.5211  0.4310 -0.2764
  284SOL    HW1 1134   0.530   0.754   2.349  0.3451  0.2687  3.0923
  284SOL    HW2 1135   0.455   0.623   2.326 -0.2480 -0.5126 -2.5319
  284SOL     MW 1136   0.468   0.697   2.374 -0.3708  0.2851 -0.1295
  285SOL     OW 1137   0.963   0.826   2.820 -0.4927  0.1529  0.2964
  285SOL    HW1 1138   1.024   0.820   2.750  0.3400  1.0077  2.7957
  285SOL    HW2 1139   0.883   0.778   2.791 -0.3388  1.6336 -0.3658
  285SOL     MW 1140   0.961   0.819   2.807 -0.3625  0.4610  0.5388
  286SOL     OW 1141   1.137   1.493   2.676  0.6226 -0.3115 -0.0151
  286SOL    HW1 1142   1.215   1.450   2.710 -1.2262  0.5416 -0.9717
  286SOL    HW2 1143   1.162   1.584   2.643  1.2487  2.2678  1.3866
  286SOL     MW 1144   1.151   1.499   2.676  0.4613  0.1414  0.0436
  287SOL     OW 1145   1.147   0.929   0.362  0.3673 -0.2428 -0.2665
  287SOL    HW1 1146   1.215   0.974   0.414 -0.3581 -1.1488 -0.3890
  287SOL    HW2 1147   1.117   0.991   0.292 -1.4804  3.5625 -0.3941
  287SOL     MW 1148   1.152   0.943   0.360  0.0278  0.1397 -0.2995
  288SOL     OW 1149   1.539   0.567   2.057 -0.5913 -0.1270  0.1034
  288SOL    HW1 1150   1.476   0.577   2.130 -2.1348  1.9826  0.7067
  288SOL    HW2 1151   1.561   0.652   2.022 -0.5960  1.9182  0.2119
  288SOL     MW 1152   1.534   0.580   2.062 -0.7956  0.4212  0.1973
  289SOL     OW 1153   1.091   0.979   2.597 -0.4361 -0.1435 -0.3307
  289SOL    HW1 1154   1.103   0.887   2.580 -0.3602 -0.7805  1.9552
  289SOL    HW2 1155   1.005   0.997   2.556  0.7437  0.1332  1.3801
  289SOL     MW 1156   1.081   0.969   2.590 -0.2704 -0.1910  0.1966
  290SOL     OW 1157   0.805   0.609   1.581 -0.8189  0.0430 -0.1762
  290SOL    HW1 1158   0.863   0.576   1.510  1.5933 -0.5616 -0.8855
  290SOL    HW2 1159   0.857   0.625   1.657  3.0878 -2.6739 -2.2616
  290SOL     MW 1160   0.819   0.607   1.582  0.0148 -0.3952 -0.5449
  291SOL     OW 1161   0.185   0.380   0.132 -0.0374 -0.1712 -0.3177
  291SOL    HW1 1162   0.250   0.314   0.149 -0.2609 -0.6274 -0.1148
  291SOL    HW2 1163   0.127   0.342   0.065 -0.1258  3.1536 -0.1593
  291SOL     MW 1164   0.186   0.366   0.125 -0.0785  0.2073 -0.2701
  292SOL     OW 1165   1.002   0.552   0.077  0.1959 -0.3711  0.5622
  292SOL    HW1 1166   1.072   0.594   0.126  1.4760 -0.1699  0.4972
  292SOL    HW2 1167   1.016   0.458   0.097  1.4439  1.5755 -0.9365
  292SOL     MW 1168   1.013   0.545   0.086  0.5294 -0.0877  0.3559
  293SOL     OW 1169   0.165   0.117   2.440  0.4933  0.0550  0.4668
  293SOL    HW1 1170   0.126   0.085   2.358 -1.0021  0.9229  2.4793
  293SOL    HW2 1171   0.091   0.155   2.483  2.7672  0.9011  1.3725
  293SOL     MW 1172   0.150   0.118   2.435  0.5960  0.2811  0.8518
  294SOL     OW 1173   1.453   0.580   2.332  0.0478 -0.3048 -0.3320
  294SOL    HW1 1174   1.490   0.633   2.397 -4.0402 -0.7860  1.1310
  294SOL    HW2 1175   1.429   0.503   2.380  3.6891  0.6249  1.0627
  294SOL     MW 1176   1.455   0.577   2.347 -0.0111 -0.2456  0.0451
  295SOL     OW 1177   0.928   0.535   2.538 -0.1207  0.1249  0.0883
  295SOL    HW1 1178   0.908   0.478   2.461 -0.2465 -0.8577  0.5775
  295SOL    HW2 1179   0.853   0.541   2.592 -1.6355  0.4623  3.3222
  295SOL     MW 1180   0.916   0.528   2.535 -0.3372  0.0398  0.5796
  296SOL     OW 1181   1.272   0.279   2.038 -0.3520  0.1578 -0.4286
  296SOL    HW1 1182   1.348   0.232   2.002 -1.0124  1.2961 -0.8227
  296SOL    HW2 1183   1.267   0.256   2.134  1.6138 -1.1119 -0.9212
  296SOL     MW 1184   1.281   0.270   2.046 -0.1797  0.1405 -0.5456
  297SOL     OW 1185   1.408   0.415   1.570  0.0522  0.0466 -0.4736
  297SOL    HW1 1186   1.447   0.500   1.604  0.0701 -0.7831  0.1960
  297SOL    HW2 1187   1.444   0.343   1.621  1.2346  3.0258  0.1524
  297SOL     MW 1188   1.418   0.417   1.581  0.2106  0.3302 -0.3026
  298SOL     OW 1189   1.638   0.827   1.989 -0.3120  0.2332  0.6527
  298SOL    HW1 1190   1.675   0.907   1.950  2.9469  0.1377  3.1197
  298SOL    HW2 1191   1.717   0.809   2.046  2.1169  3.4735 -2.5865
  298SOL     MW 1192   1.653   0.835   1.992  0.4385  0.6481  0.5508
  299SOL     OW 1193   0.561   1.099   0.047  0.0508 -0.2271  0.5492
  299SOL    HW1 1194   0.538   1.086  -0.047 -0.5631  3.0797 -2.5375
  299SOL    HW2 1195   0.572   1.192   0.039  1.5563  0.8767 -4.4713
  299SOL     MW 1196   0.559   1.110   0.033  0.1685  0.3548 -0.5204
  300SOL     OW 1197   1.305   1.159   2.512  0.1341  0.1753 -1.0083
  300SOL    HW1 1198   1.224   1.113   2.541  1.1621 -1.7876  2.0654
  300SOL    HW2 1199   1.336   1.218   2.581 -0.7994  0.5423 -2.1067
  300SOL     MW 1200   1.298   1.161   2.525  0.1465 -0.0352 -0.7477
  301SOL     OW 1201   1.479   0.916   0.660  0.9024  1.1834  0.3272
  301SOL    HW1 1202   1.479   0.974   0.738 -0.9432 -0.7495  0.3132
  301SOL    HW2 1203   1.410   0.855   0.668 -1.7715  0.9672 -0.9306
  301SOL     MW 1204   1.470   0.916   0.671  0.3061  0.8998  0.1594
  302SOL     OW 1205   0.129   1.589   2.009 -0.0959  0.5593  0.0440
  302SOL    HW1 1206   0.146   1.532   2.085 -1.7097  1.3661  1.5791
  302SOL    HW2 1207   0.055   1.631   2.045 -1.7080 -2.4081  0.8906
  302SOL     MW 1208   0.122   1.587   2.023 -0.5215  0.2743  0.3582
  303SOL     OW 1209   0.432   1.809   2.665 -0.1698 -0.2886  0.2873
  303SOL    HW1 1210   0.403   1.769   2.585 -0.8075  0.7260  2.9823
  303SOL    HW2 1211   0.352   1.849   2.690  1.0686  0.4252 -2.1347
  303SOL     MW 1212   0.417   1.809   2.658 -0.0906 -0.0606  0.3234
  304SOL     OW 1213   0.528   2.062   2.384 -0.5682 -0.6639 -0.6005
  304SOL    HW1 1214   0.582   2.110   2.319 -0.1089 -0.3814  1.3617
  304SOL    HW2 1215   0.581   1.982   2.390  0.6129  3.4395 -3.6608
  304SOL     MW 1216   0.542   2.057   2.376 -0.3518 -0.0852 -0.7454
  305SOL     OW 1217   1.110   0.553   0.492 -0.3627 -0.3281  0.2769
  305SOL    HW1 1218   1.013   0.552   0.483  0.5303  1.2428 -1.7618
  305SOL    HW2 1219   1.143   0.475   0.534 -1.0626 -1.1734 -0.9538
  305SOL     MW 1220   1.102   0.543   0.496 -0.3373 -0.2324 -0.1544
  306SOL     OW 1221   1.175   1.518   0.285  0.6503  0.7268  0.5915
  306SOL    HW1 1222   1.218   1.434   0.321 -1.7562 -0.0367  0.4234
  306SOL    HW2 1223   1.223   1.532   0.205 -1.8928  0.1243 -0.9601
  306SOL     MW 1224   1.187   1.509   0.279 -0.0027  0.5466  0.3646
  307SOL     OW 1225   1.346   0.498   1.875 -0.1982 -0.7294 -0.6232
  307SOL    HW1 1226   1.296   0.426   1.913  2.4763  0.2548  0.3034
  307SOL    HW2 1227   1.411   0.525   1.946 -0.8221 -1.0828  2.4843
  307SOL     MW 1228   1.348   0.492   1.889  0.0723 -0.6461 -0.0909
  308SOL     OW 1229   2.171   0.566   2.718  0.3823 -0.0123  0.0532
  308SOL    HW1 1230   2.270   0.575   2.730  1.8711  1.3632 -1.5257
  308SOL    HW2 1231   2.159   0.643   2.666  3.2721 -2.4976 -2.9110
  308SOL     MW 1232   2.182   0.577   2.713  0.9600 -0.1587 -0.5462
  309SOL     OW 1233   0.469   0.497   0.324  0.0548  0.4449 -0.5696
  309SOL    HW1 1234   0.566   0.504   0.328  0.0961  0.7240 -0.0845
  309SOL    HW2 1235   0.448   0.433   0.257  0.5234  1.8402 -1.8661
  309SOL     MW 1236   0.479   0.490   0.315  0.1221  0.6658 -0.6766
  310SOL     OW 1237   0.433   0.605   1.934 -0.1688 -0.1512 -0.4199
  310SOL    HW1 1238   0.463   0.528   1.873  1.3963 -2.3790 -1.8360
  310SOL    HW2 1239   0.492   0.678   1.912 -0.7458  0.0276 -0.5945
  310SOL     MW 1240   0.445   0.605   1.923 -0.0385 -0.4216 -0.6298
  311SOL     OW 1241   1.866   0.591   1.941  0.4296 -0.2349 -0.9272
  311SOL    HW1 1242   1.817   0.606   2.020  0.8761 -1.6684  1.0328
  311SOL    HW2 1243   1.920   0.515   1.971  0.3915 -0.5341  3.2439
  311SOL     MW 1244   1.866   0.583   1.955  0.4835 -0.4635 -0.1183
  312SOL     OW 1245   1.808   2.505   0.148 -0.5744 -0.2918  0.3759
  312SOL    HW1 1246   1.884   2.512   0.207  0.0131 -0.0978  1.8647
  312SOL    HW2 1247   1.732   2.547   0.196 -0.6047 -0.6293 -2.3667
  312SOL     MW 1248   1.808   2.512   0.162 -0.5009 -0.3108  0.2104
  313SOL     OW 1249   0.138   1.122   2.954 -0.7572 -0.0081 -0.3595
  313SOL    HW1 1250   0.094   1.141   3.043  2.0978  2.1744  0.7039
  313SOL    HW2 1251   0.212   1.180   2.964 -3.5541  1.8031 -0.9192
  313SOL     MW 1252   0.142   1.132   2.967 -0.7495  0.5188 -0.2931
  314SOL     OW 1253   2.162   3.005   2.947 -0.2862  0.4558  0.1001
  314SOL    HW1 1254   2.092   3.069   2.932 -1.1561 -0.6637  1.6478
  314SOL    HW2 1255   2.226   3.044   3.005 -0.7929 -2.3083  0.3504
  314SOL     MW 1256   2.162   3.019   2.953 -0.4679 -0.0566  0.3373
  315SOL     OW 1257   1.537   1.874   3.050 -0.3885 -0.6651 -0.4713
  315SOL    HW1 1258   1.484   1.917   3.111  2.0676  0.9108  0.4137
  315SOL    HW2 1259   1.552   1.942   2.982 -0.2604  0.4852 -0.3313
  315SOL     MW 1260   1.532   1.889   3.049 -0.0475 -0.3054 -0.3360
  316SOL     OW 1261   1.326   0.537   2.708  0.1065 -0.6362 -0.4180
  316SOL    HW1 1262   1.418   0.579   2.705  1.2893 -1.4889  2.8385
  316SOL    HW2 1263   1.281   0.551   2.796  0.2376  0.3368  1.4595
  316SOL     MW 1264   1.332   0.545   2.719  0.2799 -0.6203  0.2594
  317SOL     OW 1265   0.669   1.455   2.592 -0.2326  0.0886  0.4707
  317SOL    HW1 1266   0.750   1.407   2.600 -0.6291 -1.6094  1.0576
  317SOL    HW2 1267   0.674   1.477   2.492  1.4950  1.6597 -2.0360
  317SOL     MW 1268   0.681   1.452   2.580 -0.0570  0.0718  0.2174
  318SOL     OW 1269   1.321   0.342   2.969 -0.1229  0.4655  0.2010
  318SOL    HW1 1270   1.238   0.385   2.932  0.8336  1.2535 -1.9262
  318SOL    HW2 1271   1.389   0.412   2.959 -2.4632  0.3136  0.8344
  318SOL     MW 1272   1.319   0.357   2.963 -0.3055  0.5494  0.0039
  319SOL     OW 1273   0.834   0.439   2.868  0.5036 -0.2645  0.4645
  319SOL    HW1 1274   0.791   0.356   2.838 -1.9275  0.5231 -1.6401
  319SOL    HW2 1275   0.794   0.439   2.952  0.7901 -0.0915 -1.8792
  319SOL     MW 1276   0.823   0.428   2.875  0.2207 -0.1378 -0.1224
  320SOL     OW 1277   1.071   1.355   2.016 -0.3810 -0.2860 -0.5058
  320SOL    HW1 1278   1.142   1.298   2.050  1.5098  1.5282  1.3213
  320SOL    HW2 1279   1.115   1.415   1.953 -2.4948 -1.5415 -1.3703
  320SOL     MW 1280   1.086   1.355   2.012 -0.4104 -0.2123 -0.3788
  321SOL     OW 1281   1.135   0.948   3.003 -0.2883 -0.0391 -0.3232
  321SOL    HW1 1282   1.077   0.919   2.934  1.5625 -1.3739 -1.9388
  321SOL    HW2 1283   1.198   0.877   2.997 -5.0954 -0.1436  3.8037
  321SOL     MW 1284   1.136   0.935   2.993 -0.6784 -0.2290  0.0081
  322SOL     OW 1285   1.195   0.848   1.671  0.0118 -0.1378  0.1488
  322SOL    HW1 1286   1.276   0.799   1.673 -2.3172  0.3158  1.9677
  322SOL    HW2 1287   1.190   0.875   1.763 -1.2206  0.2421  0.6076
  322SOL     MW 1288   1.205   0.845   1.684 -0.4581 -0.0278  0.4493
  323SOL     OW 1289   1.221   1.538   1.878  0.2726  0.8732  0.3541
  323SOL    HW1 1290   1.257   1.552   1.792 -0.5042  0.7250  0.0178
  323SOL    HW2 1291   1.185   1.625   1.887 -0.6767 -1.6619 -1.2797
  323SOL     MW 1292   1.221   1.551   1.868  0.0449  0.5192  0.0942
  324SOL     OW 1293   1.482   0.967   2.428 -0.2656 -0.5790 -0.0832
  324SOL    HW1 1294   1.408   1.021   2.450 -0.2238  4.6258  2.1697
  324SOL    HW2 1295   1.552   1.023   2.466 -2.4580  1.3254  0.4573
  324SOL     MW 1296   1.482   0.982   2.436 -0.5494  0.3590  0.2854
  325SOL     OW 1297   1.110   0.517   2.911  0.3703  0.0872  0.0052
  325SOL    HW1 1298   1.080   0.538   2.999 -0.5943 -2.1639  0.8584
  325SOL    HW2 1299   1.033   0.453   2.890  2.1689 -1.8207 -0.5804
  325SOL     MW 1300   1.096   0.511   2.920  0.4803 -0.4615  0.0405
  326SOL     OW 1301   0.468   1.357   2.335  0.0131 -0.3495  0.2703
  326SOL    HW1 1302   0.536   1.313   2.280 -1.7435  2.1530  0.7149
  326SOL    HW2 1303   0.447   1.445   2.293 -1.5121 -2.9962  2.5090
  326SOL     MW 1304   0.474   1.363   2.322 -0.4199 -0.3686  0.6243
  327SOL     OW 1305   1.910   0.796   2.437 -0.0867  0.2184 -0.3325
  327SOL    HW1 1306   1.868   0.746   2.513  0.7994 -1.3893 -1.0793
  327SOL    HW2 1307   1.980   0.855   2.471 -0.3420 -2.5771  1.3093
  327SOL     MW 1308   1.914   0.798   2.451 -0.0035 -0.3626 -0.2144
  328SOL     OW 1309   0.196   1.408   2.184 -0.0334 -0.4035 -0.3085
  328SOL    HW1 1310   0.143   1.329   2.178 -0.6926  1.8118 -2.0678
  328SOL    HW2 1311   0.250   1.392   2.259 -2.2016  0.0134  2.3020
  328SOL     MW 1312   0.196   1.395   2.193 -0.4064 -0.0562 -0.1962
  329SOL     OW 1313   0.114   0.244   1.407 -0.1870  0.2845  0.1938
  329SOL    HW1 1314   0.090   0.225   1.500 -2.9188  0.0265 -0.2399
  329SOL    HW2 1315   0.208   0.268   1.411 -1.9309  2.5171 -1.8603
  329SOL     MW 1316   0.123   0.244   1.420 -0.7775  0.5450 -0.1344
  330SOL     OW 1317   0.389   3.086   2.082  0.1790 -0.3957  0.1761
  330SOL    HW1 1318   0.461   3.117   2.142 -1.4973  1.7173 -0.5564
  330SOL    HW2 1319   0.339   3.016   2.124 -0.2484  0.4590  1.4711
  330SOL     MW 1320   0.392   3.081   2.095 -0.0986 -0.0042  0.2503
  331SOL     OW 1321   0.839   1.242   2.320 -0.2462  0.2450  0.4373
  331SOL    HW1 1322   0.808   1.289   2.241 -1.6430  3.5051  1.2024
  331SOL    HW2 1323   0.866   1.316   2.374 -2.3477 -1.3798  1.7849
  331SOL     MW 1324   0.838   1.258   2.317 -0.7078  0.4608  0.7161
  332SOL     OW 1325   1.357   1.701   2.946  0.0753 -0.2052 -0.3580
  332SOL    HW1 1326   1.375   1.726   2.853 -0.4804  0.9406 -1.3896
  332SOL    HW2 1327   1.407   1.768   2.995 -0.5693 -0.4432  0.1346
  332SOL     MW 1328   1.366   1.713   2.940 -0.0831 -0.0854 -0.4292
  333SOL     OW 1329   1.730   1.382   2.970  0.2849 -0.6817  0.2862
  333SOL    HW1 1330   1.818   1.413   2.973  2.1726  1.0123 -2.3240
  333SOL    HW2 1331   1.727   1.328   3.046  0.3770 -0.8742 -0.9519
  333SOL     MW 1332   1.741   1.379   2.980  0.5461 -0.4836 -0.2215
  334SOL     OW 1333   1.307   0.056   2.555 -0.4776  0.4485 -0.0941
  334SOL    HW1 1334   1.237   0.012   2.604  2.8707 -0.1058  0.2086
  334SOL    HW2 1335   1.343   0.112   2.624 -1.5563 -0.0301  1.6420
  334SOL     MW 1336   1.303   0.058   2.570 -0.1781  0.3122  0.1749
  335SOL     OW 1337   1.327   0.767   2.951 -0.1224 -0.3147  0.1074
  335SOL    HW1 1338   1.362   0.762   3.043  2.4081 -0.3284 -2.7128
  335SOL    HW2 1339   1.398   0.820   2.906  0.8721  0.3767  0.9254
  335SOL     MW 1340   1.341   0.774   2.957  0.3427 -0.2253 -0.1568
  336SOL     OW 1341   0.948   1.161   1.873 -0.2230  0.5495  0.0889
  336SOL    HW1 1342   0.979   1.224   1.931  0.1715 -0.3700 -2.4359
  336SOL    HW2 1343   1.017   1.094   1.882  1.2092  0.7224 -2.9838
  336SOL     MW 1344   0.961   1.160   1.882  0.0180  0.4510 -0.6496
  337SOL     OW 1345   0.655   1.818   2.786  0.2145 -0.3381 -0.4652
  337SOL    HW1 1346   0.581   1.805   2.722  0.3671 -1.2682 -1.4637
  337SOL    HW2 1347   0.725   1.758   2.775  1.2161 -0.1065  1.6754
  337SOL     MW 1348   0.654   1.808   2.776  0.3668 -0.4302 -0.3145
  338SOL     OW 1349   1.139   0.715   2.587 -0.1807 -0.6536  0.5095
  338SOL    HW1 1350   1.060   0.654   2.583  0.2503 -1.0169  0.2320
  338SOL    HW2 1351   1.199   0.669   2.651 -2.0132 -1.2848  1.6453
  338SOL     MW 1352   1.136   0.701   2.595 -0.3656 -0.7848  0.6228
  339SOL     OW 1353   1.490   1.074   1.840  0.2513 -0.0371  0.3428
  339SOL    HW1 1354   1.418   1.082   1.779  0.2869  0.5013  0.4269
  339SOL    HW2 1355   1.444   1.038   1.917 -2.2081  1.0697 -1.7839
  339SOL     MW 1356   1.474   1.070   1.842 -0.0685  0.1800  0.0733
  340SOL     OW 1357   1.297   1.533   0.045 -0.2765 -0.1378  0.2222
  340SOL    HW1 1358   1.319   1.607  -0.012  0.1734 -3.4256 -0.3707
  340SOL    HW2 1359   1.383   1.500   0.073  1.6638 -1.5488 -0.8584
  340SOL     MW 1360   1.311   1.538   0.041  0.0389 -0.7578  0.0014
  341SOL     OW 1361   0.046   1.359   2.757 -0.3647 -0.2037  0.2035
  341SOL    HW1 1362   0.080   1.269   2.757 -0.2019 -1.0887 -1.2593
  341SOL    HW2 1363  -0.010   1.355   2.675 -0.1794 -2.3319  0.0400
  341SOL     MW 1364   0.043   1.347   2.746 -0.3188 -0.6013 -0.0111
  342SOL     OW 1365   1.313   0.335   0.143  0.0721  0.4719  0.0635
  342SOL    HW1 1366   1.388   0.375   0.182 -3.3971  0.5956 -0.2697
  342SOL    HW2 1367   1.321   0.345   0.045 -0.2265 -0.4221 -2.9531
  342SOL     MW 1368   1.324   0.342   0.135 -0.4250  0.3703 -0.3785
  343SOL     OW 1369   0.261   0.282   2.089  0.0784  0.6593  0.3693
  343SOL    HW1 1370   0.273   0.183   2.101  5.5114  2.3228  1.0419
  343SOL    HW2 1371   0.174   0.280   2.048 -0.8814  0.5297  0.8110
  343SOL     MW 1372   0.251   0.269   2.085  0.6686  0.8617  0.5163
  344SOL     OW 1373   1.692   2.031   0.181 -0.0880  0.6591 -0.1407
  344SOL    HW1 1374   1.706   2.098   0.111 -0.3735  0.3571  0.0433
  344SOL    HW2 1375   1.612   1.981   0.150 -1.1602 -0.2507  0.1334
  344SOL     MW 1376   1.683   2.033   0.167 -0.2671  0.4992 -0.0803
  345SOL     OW 1377   0.710   1.559   2.346 -0.6166  0.3465 -0.1794
  345SOL    HW1 1378   0.643   1.558   2.279  2.6456 -1.2349 -1.2186
  345SOL    HW2 1379   0.791   1.535   2.299  0.5461 -1.1594 -0.7601
  345SOL     MW 1380   0.712   1.556   2.331 -0.0327 -0.0608 -0.3931
  346SOL     OW 1381   1.765   1.143   0.052  0.1804  0.4111  0.2182
  346SOL    HW1 1382   1.853   1.160   0.090  0.7310  3.4587 -0.9910
  346SOL    HW2 1383   1.740   1.060   0.088 -1.1092  0.6158  0.5429
  346SOL     MW 1384   1.773   1.134   0.062  0.0829  0.8402  0.1015
  347SOL     OW 1385   1.166   0.641   2.299 -0.0989 -0.3719 -0.3171
  347SOL    HW1 1386   1.248   0.598   2.293 -1.2496  0.8372 -0.7839
  347SOL    HW2 1387   1.175   0.679   2.391 -0.4011 -0.7606  3.8926
  347SOL     MW 1388   1.178   0.640   2.310 -0.2906 -0.2637  0.1767
  348SOL     OW 1389   1.324   2.643   1.896 -0.5447  0.0066 -0.2299
  348SOL    HW1 1390   1.359   2.553   1.915 -1.6581 -0.6173 -0.3095
  348SOL    HW2 1391   1.362   2.702   1.956 -0.7015 -3.2207 -1.6894
  348SOL     MW 1392   1.333   2.639   1.906 -0.7123 -0.5016 -0.4330
  349SOL     OW 1393   1.453   0.226   2.730  0.0437 -0.3254 -0.5849
  349SOL    HW1 1394   1.428   0.283   2.804  0.4997 -0.5483  0.0278
  349SOL    HW2 1395   1.516   0.164   2.780 -0.9414 -2.4873 -0.1232
  349SOL     MW 1396   1.458   0.225   2.746 -0.0261 -0.6401 -0.4431
  350SOL     OW 1397   1.845   0.607   2.658  0.3642 -0.3190  0.5159
  350SOL    HW1 1398   1.780   0.554   2.613  0.8128  2.2852 -0.4400
  350SOL    HW2 1399   1.899   0.546   2.710 -1.9886  2.4945  0.2581
  350SOL     MW 1400   1.844   0.592   2.659  0.1130  0.3958  0.3558
  351SOL     OW 1401   0.115   1.112   1.560  0.0611  0.7444 -0.0271
  351SOL    HW1 1402   0.041   1.115   1.625 -2.5097 -2.3310  0.8955
  351SOL    HW2 1403   0.195   1.164   1.602  2.3352 -2.6634  1.4588
  351SOL     MW 1404   0.116   1.119   1.574  0.0219 -0.1110  0.2907
  352SOL     OW 1405   0.848   1.649   2.716  0.8320  0.0723  0.7340
  352SOL    HW1 1406   0.884   1.604   2.789 -0.2954  1.2625  0.1551
  352SOL    HW2 1407   0.786   1.586   2.677 -1.6159  0.5581 -2.3334
  352SOL     MW 1408   0.845   1.635   2.720  0.3603  0.2935  0.2529
  353SOL     OW 1409   3.070   2.526   2.696  0.1269 -0.2331  0.7374
  353SOL    HW1 1410   3.171   2.517   2.701  2.5845 -3.0604 -1.2063
  353SOL    HW2 1411   3.060   2.607   2.648  0.2462  0.9035 -0.4742
  353SOL     MW 1412   3.082   2.536   2.691  0.4669 -0.4562  0.3211
  354SOL     OW 1413   0.270   2.468   0.819  0.2019 -0.4541 -0.2542
  354SOL    HW1 1414   0.311   2.453   0.903 -0.7471 -0.3281 -0.2873
  354SOL    HW2 1415   0.210   2.392   0.830  0.2826 -0.5201  0.3424
  354SOL     MW 1416   0.268   2.456   0.832  0.0874 -0.4462 -0.1799
  355SOL     OW 1417   0.009   2.247   0.396 -0.0545 -0.3808 -0.3844
  355SOL    HW1 1418  -0.073   2.200   0.411  2.0157 -1.0728 -1.0405
  355SOL    HW2 1419   0.023   2.302   0.475 -0.5004 -0.9919 -3.2585
  355SOL     MW 1420   0.000   2.248   0.409  0.1598 -0.5528 -0.8502
  356SOL     OW 1421   0.846   2.786   0.986  0.4035 -0.2407 -0.3337
  356SOL    HW1 1422   0.885   2.855   0.920  2.2562 -2.0657 -0.6318
  356SOL    HW2 1423   0.752   2.794   0.973 -0.2294  1.0166 -2.1166
  356SOL     MW 1424   0.839   2.796   0.976  0.5644 -0.3156 -0.6083
  357SOL     OW 1425   1.776   2.921   0.376 -0.0150 -0.6283 -0.4810
  357SOL    HW1 1426   1.749   2.836   0.408  1.9137 -1.8668 -0.9164
  357SOL    HW2 1427   1.871   2.899   0.369 -1.1960  2.1928 -0.9139
  357SOL     MW 1428   1.785   2.907   0.379  0.0837 -0.4195 -0.5956
  358SOL     OW 1429   0.453   0.170   1.047 -0.1859 -0.1731 -0.0834
  358SOL    HW1 1430   0.528   0.117   1.026 -0.1756  0.2862  0.4960
  358SOL    HW2 1431   0.407   0.186   0.967 -1.3009 -2.3936 -0.0228
  358SOL     MW 1432   0.457   0.165   1.033 -0.3317 -0.4054  0.0010
  359SOL     OW 1433   0.867   2.889   1.845  0.0013  0.1321  0.2650
  359SOL    HW1 1434   0.849   2.805   1.883 -1.1118  0.1925  0.0728
  359SOL    HW2 1435   0.905   2.867   1.757  0.7917 -2.8035 -1.7314
  359SOL     MW 1436   0.870   2.875   1.838 -0.0413 -0.2472 -0.0238
  360SOL     OW 1437   0.572   2.789   0.920 -0.2498  0.2178  0.5110
  360SOL    HW1 1438   0.555   2.758   0.830  1.8424  2.5453  0.3487
  360SOL    HW2 1439   0.560   2.711   0.978  0.1456  0.6031 -2.4660
  360SOL     MW 1440   0.568   2.775   0.915  0.0784  0.5758  0.0968
  361SOL     OW 1441   0.181   2.622   1.361  0.0984  0.4223 -0.3973
  361SOL    HW1 1442   0.165   2.705   1.402  2.1744  1.0475 -0.4937
  361SOL    HW2 1443   0.276   2.627   1.334  0.2303  0.6868  0.1176
  361SOL     MW 1444   0.192   2.634   1.363  0.3897  0.5397 -0.3420
  362SOL     OW 1445   1.461   2.433   0.659 -0.4421  0.8231 -0.2562
  362SOL    HW1 1446   1.487   2.387   0.744 -0.4202  1.3292  0.4480
  362SOL    HW2 1447   1.504   2.520   0.660 -0.8761  0.3732  0.0421
  362SOL     MW 1448   1.470   2.438   0.670 -0.4965  0.8305 -0.1239
  363SOL     OW 1449   0.297   3.060   0.680 -0.0861  0.3097  0.3297
  363SOL    HW1 1450   0.321   3.016   0.760 -0.2238  1.7824 -1.6279
  363SOL    HW2 1451   0.204   3.078   0.678  1.2995 -0.3512  2.2770
  363SOL     MW 1452   0.288   3.056   0.690  0.0785  0.4168  0.3284
  364SOL     OW 1453   0.744   0.201   0.217 -0.2170 -0.0612  0.4373
  364SOL    HW1 1454   0.671   0.139   0.227  1.7569  1.1568  0.4236
  364SOL    HW2 1455   0.714   0.257   0.143  1.2923  0.6989  1.1294
  364SOL     MW 1456   0.731   0.200   0.209  0.2426  0.1998  0.5268
  365SOL     OW 1457   0.959   2.026   1.171  0.0209 -0.0060  0.3217
  365SOL    HW1 1458   0.946   2.107   1.129 -0.8279 -0.2030 -0.8279
  365SOL    HW2 1459   0.883   1.975   1.130  0.0018  1.6993 -0.9485
  365SOL     MW 1460   0.947   2.030   1.160 -0.0936  0.1930  0.0025
  366SOL     OW 1461   2.870   2.695   1.005  0.3106 -0.1163 -0.3295
  366SOL    HW1 1462   2.949   2.680   1.066 -0.9540 -1.0241 -0.7671
  366SOL    HW2 1463   2.899   2.695   0.910  2.2817  1.0747 -1.6542
  366SOL     MW 1464   2.884   2.693   1.000  0.4038 -0.0789 -0.5620
  367SOL     OW 1465   1.225   2.980   0.896  0.1960 -0.2475  0.3654
  367SOL    HW1 1466   1.240   3.052   0.829  1.0958 -0.5600 -1.7921
  367SOL    HW2 1467   1.189   2.904   0.854 -1.4627  1.2582  0.1083
  367SOL     MW 1468   1.222   2.980   0.882  0.0959 -0.0900  0.0468
  368SOL     OW 1469   1.654   0.390   0.737 -0.1506 -1.0772  0.3629
  368SOL    HW1 1470   1.712   0.344   0.674  0.5621  1.2687  0.4192
  368SOL    HW2 1471   1.678   0.480   0.713 -0.4257 -0.7772 -1.0507
  368SOL     MW 1472   1.665   0.396   0.725 -0.0928 -0.7281  0.1838
  369SOL     OW 1473   0.163   2.448   1.795 -0.0879 -0.0661  0.0944
  369SOL    HW1 1474   0.261   2.457   1.784 -1.9917 -0.3732 -0.0474
  369SOL    HW2 1475   0.124   2.537   1.771 -1.0330  3.3774 -2.2572
  369SOL     MW 1476   0.171   2.461   1.790 -0.4638  0.3477 -0.2346
  370SOL     OW 1477   0.717   0.099   0.974  0.2314  0.6865 -0.4131
  370SOL    HW1 1478   0.731   0.191   0.988  0.9669 -2.9667 -0.4269
  370SOL    HW2 1479   0.798   0.053   0.983 -1.9467 -3.7131  1.1217
  370SOL     MW 1480   0.730   0.105   0.977  0.0411 -0.3760 -0.2124
  371SOL     OW 1481   1.339   2.924   1.519  0.2606  0.5790 -0.2365
  371SOL    HW1 1482   1.273   2.856   1.500  2.0196 -1.3852 -2.1045
  371SOL    HW2 1483   1.319   2.983   1.446  0.1239 -1.3987 -0.6123
  371SOL     MW 1484   1.328   2.923   1.507  0.4746  0.0589 -0.5325
  372SOL     OW 1485   0.752   2.294   0.461  0.2144 -0.2930  0.3615
  372SOL    HW1 1486   0.724   2.205   0.466 -0.4780 -1.2485 -1.5651
  372SOL    HW2 1487   0.785   2.298   0.365  3.2556 -1.0767 -4.0180
  372SOL     MW 1488   0.753   2.283   0.449  0.5243 -0.5225 -0.4705
  373SOL     OW 1489   2.806   3.017   1.450  0.5796  0.3384  0.2694
  373SOL    HW1 1490   2.858   2.983   1.380  0.3870 -0.5628  0.1965
  373SOL    HW2 1491   2.767   3.095   1.419  1.4722 -0.6677 -0.9748
  373SOL     MW 1492   2.808   3.023   1.437  0.6720  0.0868  0.0956
  374SOL     OW 1493   1.537   0.459   0.219 -0.2961  0.6910  0.1927
  374SOL    HW1 1494   1.581   0.375   0.198  2.6496  1.6440  0.0079
  374SOL    HW2 1495   1.526   0.466   0.312 -1.2261 -0.2338  1.1530
  374SOL     MW 1496   1.542   0.449   0.229 -0.0301  0.6947  0.2950
  375SOL     OW 1497   0.976   2.116   2.258 -0.4176  0.5473 -0.1041
  375SOL    HW1 1498   1.004   2.102   2.352  2.0720 -0.1835 -1.4149
  375SOL    HW2 1499   1.018   2.048   2.205  0.5018 -2.0925  2.5520
  375SOL     MW 1500   0.985   2.105   2.263  0.0322  0.1026  0.0734
  376SOL     OW 1501   0.759   2.550   0.092  0.6361  0.4548  0.3205
  376SOL    HW1 1502   0.751   2.473   0.143  1.4884 -0.3194 -4.5514
  376SOL    HW2 1503   0.729   2.512   0.009 -2.5275  0.0433 -3.2114
  376SOL     MW 1504   0.754   2.535   0.088  0.3311  0.2984 -0.7883
  377SOL     OW 1505   1.274   2.017   0.855 -0.8744 -0.0549  0.2276
  377SOL    HW1 1506   1.187   2.013   0.801  1.3985 -1.0528  1.3705
  377SOL    HW2 1507   1.250   1.971   0.934 -0.1861  0.7394  0.5431
  377SOL     MW 1508   1.259   2.010   0.858 -0.4837 -0.0818  0.4200
  378SOL     OW 1509   0.879   2.843   1.569 -0.4348  0.1512 -0.0705
  378SOL    HW1 1510   0.902   2.750   1.553  2.5443 -0.9478 -0.4922
  378SOL    HW2 1511   0.874   2.892   1.484  0.7481 -1.2241 -0.4178
  378SOL     MW 1512   0.881   2.837   1.556  0.1143 -0.1752 -0.1719
  379SOL     OW 1513   1.163   1.749   2.268  0.2389 -0.5867  0.1520
  379SOL    HW1 1514   1.097   1.687   2.236 -1.3886  0.3080  0.5509
  379SOL    HW2 1515   1.232   1.712   2.214  2.2281  0.0101  0.3875
  379SOL     MW 1516   1.164   1.736   2.257  0.2866 -0.3899  0.2357
  380SOL     OW 1517   0.820   0.118   1.586  0.3780  0.1111 -1.0044
  380SOL    HW1 1518   0.840   0.036   1.553 -1.2533 -1.3497  0.1828
  380SOL    HW2 1519   0.905   0.145   1.624 -0.2143 -1.8370  1.9946
  380SOL     MW 1520   0.834   0.111   1.587  0.0846 -0.3386 -0.4521
  381SOL     OW 1521   0.791   2.003   0.798 -0.1418  0.0164  0.0812
  381SOL    HW1 1522   0.882   1.985   0.777  0.8567 -2.5427  2.2709
  381SOL    HW2 1523   0.789   2.093   0.825 -2.1918  0.9452  3.6046
  381SOL     MW 1524   0.803   2.013   0.799 -0.2806 -0.1987  0.8350
  382SOL     OW 1525   0.724   0.080   0.713 -0.2295 -0.0279 -0.8711
  382SOL    HW1 1526   0.716   0.096   0.811  0.4720 -0.9953  0.5297
  382SOL    HW2 1527   0.700  -0.004   0.680 -0.2536  3.1176  0.1159
  382SOL     MW 1528   0.720   0.071   0.722 -0.1401  0.2595 -0.5560
  383SOL     OW 1529   0.550   0.016   0.256  0.3298  0.8218 -0.1283
  383SOL    HW1 1530   0.596  -0.044   0.195 -1.1534  1.3823  0.2352
  383SOL    HW2 1531   0.511  -0.037   0.323 -1.2516  0.3812  1.5223
  383SOL     MW 1532   0.551   0.001   0.257 -0.0745  0.8376  0.1374
  384SOL     OW 1533   0.695   2.912   0.626  0.0401  0.1101  0.0649
  384SOL    HW1 1534   0.784   2.892   0.662  0.8202 -1.2731 -0.2975
  384SOL    HW2 1535   0.640   2.835   0.632 -0.6750  0.2226 -1.8175
  384SOL     MW 1536   0.699   2.899   0.632  0.0486 -0.0576 -0.2313
  385SOL     OW 1537   1.383   2.079   1.521  0.2948  0.6799 -0.6845
  385SOL    HW1 1538   1.463   2.107   1.572  0.6778 -5.7800  0.8339
  385SOL    HW2 1539   1.339   2.012   1.571  2.3455  3.1278 -1.0392
  385SOL     MW 1540   1.387   2.074   1.534  0.6159  0.1506 -0.5309
  386SOL     OW 1541   1.294   0.385   0.886 -0.5132 -0.2603 -0.2605
  386SOL    HW1 1542   1.253   0.391   0.974 -1.3738  2.2717  1.6591
  386SOL    HW2 1543   1.339   0.303   0.882  0.8589  2.0771 -1.5810
  386SOL     MW 1544   1.295   0.375   0.897 -0.4457  0.3822 -0.1814
  387SOL     OW 1545   0.847   2.216   1.534  0.4943  0.3117 -0.4246
  387SOL    HW1 1546   0.913   2.258   1.473 -0.6185  0.6269 -0.1203
  387SOL    HW2 1547   0.844   2.125   1.501 -2.5259  1.1371  0.4177
  387SOL     MW 1548   0.855   2.210   1.522 -0.0510  0.4622 -0.2733
  388SOL     OW 1549   1.530   2.762   1.187  0.3056 -0.0706  0.4673
  388SOL    HW1 1550   1.432   2.776   1.185  1.1934 -1.4452 -0.6769
  388SOL    HW2 1551   1.531   2.692   1.125 -2.0171  0.5129  2.3463
  388SOL     MW 1552   1.517   2.755   1.179  0.1163 -0.1750  0.5642
  389SOL     OW 1553   0.435   0.135   3.006 -0.0450  0.2192 -0.2056
  389SOL    HW1 1554   0.520   0.091   3.012 -1.0222  1.0091 -0.7086
  389SOL    HW2 1555   0.425   0.193   2.925 -1.2745  1.8211  2.1494
  389SOL     MW 1556   0.445   0.137   2.997 -0.3362  0.5347  0.0387
  390SOL     OW 1557   1.305   0.085   0.714  0.7927 -0.0807  0.9573
  390SOL    HW1 1558   1.368   0.063   0.641  0.6343  1.2127  0.3715
  390SOL    HW2 1559   1.360   0.102   0.789 -2.7791 -0.5742  0.6467
  390SOL     MW 1560   1.320   0.085   0.714  0.3005  0.0248  0.8390
  391SOL     OW 1561   0.336   2.232   1.418 -0.3118  0.0803  0.0034
  391SOL    HW1 1562   0.275   2.156   1.428  1.7804 -0.3697  0.5874
  391SOL    HW2 1563   0.282   2.288   1.469  1.1840 -0.2987  2.6560
  391SOL     MW 1564   0.321   2.230   1.426  0.1616 -0.0291  0.4304
  392SOL     OW 1565   2.015   2.205   0.312 -0.0524 -0.4548  0.2591
  392SOL    HW1 1566   2.098   2.190   0.350  0.0806  0.7687 -1.8048
  392SOL    HW2 1567   1.966   2.246   0.385  3.7792 -2.7021  1.4782
  392SOL     MW 1568   2.020   2.208   0.327  0.4707 -0.5899  0.1476
  393SOL     OW 1569   0.263   2.964   2.795  0.8916 -0.3714 -0.1702
  393SOL    HW1 1570   0.354   2.955   2.754 -0.9126 -0.3004 -1.1863
  393SOL    HW2 1571   0.250   3.059   2.787 -2.0780 -2.4159 -1.7769
  393SOL     MW 1572   0.273   2.976   2.789  0.2618 -0.6318 -0.5163
  394SOL     OW 1573   0.883   1.745   1.539  0.7360 -0.2287 -0.1294
  394SOL    HW1 1574   0.823   1.765   1.615  1.3486  0.6865  1.8272
  394SOL    HW2 1575   0.867   1.826   1.480  0.8118  0.4790  2.7811
  394SOL     MW 1576   0.873   1.758   1.541  0.8268 -0.0146  0.5128
  395SOL     OW 1577   0.951   2.880   2.666 -0.0546  1.1527  0.1643
  395SOL    HW1 1578   1.015   2.935   2.709 -0.5298  1.1653 -0.2232
  395SOL    HW2 1579   1.005   2.827   2.606 -0.3861  0.3960  0.5590
  395SOL     MW 1580   0.966   2.880   2.663 -0.1610  1.0545  0.1653
  396SOL     OW 1581   0.710   1.845   2.381 -0.3077 -0.4287 -0.0796
  396SOL    HW1 1582   0.775   1.856   2.454  0.0834  1.2066  2.6963
  396SOL    HW2 1583   0.697   1.754   2.377  3.0731  1.7210  1.1911
  396SOL     MW 1584   0.717   1.835   2.390  0.1900  0.0707  0.4543
  397SOL     OW 1585   1.017   2.340   1.371  0.1070  0.2918  0.8537
  397SOL    HW1 1586   1.033   2.370   1.283  0.7632  1.7602  1.0163
  397SOL    HW2 1587   1.104   2.315   1.403 -1.1728  3.1866 -2.5839
  397SOL     MW 1588   1.031   2.340   1.364  0.0247  0.8675  0.4216
  398SOL     OW 1589   0.555   2.665   0.679  0.7200 -0.2707 -0.0930
  398SOL    HW1 1590   0.495   2.644   0.605 -0.1859  0.9522 -3.2656
  398SOL    HW2 1591   0.625   2.597   0.676  0.5944  3.7697 -0.5275
  398SOL     MW 1592   0.557   2.653   0.669  0.5839  0.4237 -0.5689
  399SOL     OW 1593   0.223   2.090   0.282 -0.0603 -0.1433 -0.4215
  399SOL    HW1 1594   0.149   2.132   0.326 -0.4989  0.9462  0.8485
  399SOL    HW2 1595   0.235   2.134   0.196 -0.2249 -1.3957  1.6542
  399SOL     MW 1596   0.215   2.101   0.276 -0.1399 -0.1648  0.0199
  400SOL     OW 1597   0.517   1.927   0.091  0.1668 -0.1363  0.1268
  400SOL    HW1 1598   0.474   2.012   0.069  0.5295  2.3260  1.1403
  400SOL    HW2 1599   0.510   1.916   0.187 -0.8118 -2.2421 -0.4412
  400SOL     MW 1600   0.511   1.937   0.101  0.0855 -0.0893  0.1856
  401SOL     OW 1601   0.776   2.047   0.056  0.3802 -0.1274  0.1092
  401SOL    HW1 1602   0.853   1.984   0.072 -0.1257  0.7343 -3.3869
  401SOL    HW2 1603   0.689   2.003   0.066  0.4309 -1.7993 -0.5788
  401SOL     MW 1604   0.774   2.033   0.060  0.3202 -0.2343 -0.4429
  402SOL     OW 1605   0.610   2.963   1.739  0.2919 -0.6809 -0.4162
  402SOL    HW1 1606   0.695   2.956   1.775 -0.6598 -1.7169  1.0579
  402SOL    HW2 1607   0.605   3.050   1.701 -0.5829  0.9913  1.3394
  402SOL     MW 1608   0.621   2.974   1.739  0.0509 -0.5970  0.0099
  403SOL     OW 1609   0.096   0.415   0.395 -0.1833 -0.5276  0.0571
  403SOL    HW1 1610   0.171   0.455   0.446 -2.1510 -0.0869  2.4344
  403SOL    HW2 1611   0.136   0.387   0.314  0.4034  3.7813 -0.0204
  403SOL     MW 1612   0.112   0.416   0.391 -0.3655  0.0991  0.3605
  404SOL     OW 1613   0.959   2.912   0.755 -0.3078 -0.4060 -0.2709
  404SOL    HW1 1614   1.029   2.848   0.739  0.5715 -0.6820  1.9566
  404SOL    HW2 1615   0.993   3.002   0.735  0.5424  0.7408  1.3000
  404SOL     MW 1616   0.973   2.916   0.750 -0.0796 -0.2911  0.2303
  405SOL     OW 1617   0.543   2.432   1.540  0.4284  0.0810  0.1435
  405SOL    HW1 1618   0.523   2.500   1.476 -0.1157  0.0873 -0.9688
  405SOL    HW2 1619   0.495   2.350   1.517  0.2855 -0.7406  1.4520
  405SOL     MW 1620   0.534   2.430   1.529  0.3378 -0.0266  0.1694
  406SOL     OW 1621   0.360   2.405   1.060 -0.0443  0.2819 -0.1129
  406SOL    HW1 1622   0.270   2.416   1.087 -1.3538 -0.9291  0.2538
  406SOL    HW2 1623   0.380   2.311   1.082  0.1604 -0.2850 -2.1554
  406SOL     MW 1624   0.351   2.394   1.066 -0.1901  0.0473 -0.3340
  407SOL     OW 1625   0.020   2.678   1.150  0.2109  0.8432 -0.1986
  407SOL    HW1 1626   0.062   2.632   1.230  1.1755  1.1601  1.8460
  407SOL    HW2 1627   0.089   2.687   1.079 -1.0132 -0.5105 -0.2758
  407SOL     MW 1628   0.035   2.673   1.152  0.1767  0.7064  0.0609
  408SOL     OW 1629   2.165   2.169   0.627 -0.5871 -0.4019 -0.1709
  408SOL    HW1 1630   2.128   2.211   0.706 -0.2933  0.2666 -0.6488
  408SOL    HW2 1631   2.089   2.125   0.594  2.1597  0.8552 -4.4651
  408SOL     MW 1632   2.150   2.169   0.633 -0.1860 -0.1478 -0.8006
  409SOL     OW 1633   1.434   0.144   0.937  0.3258 -0.3101 -0.2875
  409SOL    HW1 1634   1.530   0.150   0.954 -1.3669 -1.1258  2.2300
  409SOL    HW2 1635   1.405   0.070   0.989  1.3325 -0.3022  0.7890
  409SOL     MW 1636   1.443   0.135   0.946  0.2353 -0.4167  0.1867
  410SOL     OW 1637   1.099   2.439   1.115 -0.3898 -0.0115  0.7642
  410SOL    HW1 1638   1.031   2.478   1.058 -2.8115 -1.9071 -2.3610
  410SOL    HW2 1639   1.149   2.369   1.061  1.3636 -1.2897  1.9052
  410SOL     MW 1640   1.097   2.435   1.100 -0.4780 -0.4303  0.5024
  411SOL     OW 1641   1.958   0.062   2.863 -0.2800 -0.0929 -0.1465
  411SOL    HW1 1642   1.906   0.017   2.800  0.7920 -0.1978 -0.8688
  411SOL    HW2 1643   1.899   0.120   2.916 -2.7568 -1.4496  1.7871
  411SOL     MW 1644   1.943   0.064   2.862 -0.4653 -0.2857  0.0133
  412SOL     OW 1645   1.057   2.271   0.571  0.1178  0.3193 -0.3203
  412SOL    HW1 1646   1.082   2.358   0.610  0.5059  0.3876  0.8026
  412SOL    HW2 1647   0.969   2.266   0.551  4.5933  0.4410  0.3051
  412SOL     MW 1648   1.049   2.282   0.573  0.7595  0.3443 -0.0896
  413SOL     OW 1649   0.569   2.718   3.068 -0.7634 -0.0161 -0.1473
  413SOL    HW1 1650   0.626   2.659   3.123  1.2789 -3.9405  1.3803
  413SOL    HW2 1651   0.623   2.753   3.004 -0.7977  0.7408 -1.0628
  413SOL     MW 1652   0.584   2.715   3.067 -0.4985 -0.4340 -0.0665
  414SOL     OW 1653   1.907   2.972   1.101  0.8601 -0.4448  0.5096
  414SOL    HW1 1654   1.836   3.026   1.130  0.0053 -0.5496  0.0174
  414SOL    HW2 1655   1.948   3.025   1.034 -0.2926 -1.2980 -1.9635
  414SOL     MW 1656   1.903   2.986   1.096  0.5952 -0.5712  0.1183
  415SOL     OW 1657   1.850   2.716   1.069  0.1862  0.4869 -0.1990
  415SOL    HW1 1658   1.823   2.703   1.162 -1.4420  0.3990 -0.4163
  415SOL    HW2 1659   1.861   2.810   1.055 -0.0336  1.4133  0.9722
  415SOL     MW 1660   1.848   2.727   1.080 -0.0576  0.5975 -0.0732
  416SOL     OW 1661   0.557   1.987   1.354  0.5765 -0.4049 -0.4275
  416SOL    HW1 1662   0.496   2.042   1.308  0.6350 -1.3420  1.5533
  416SOL    HW2 1663   0.558   1.907   1.296 -0.1533 -2.6740 -2.6403
  416SOL     MW 1664   0.549   1.984   1.341  0.4879 -0.8279 -0.4581
  417SOL     OW 1665   0.983   3.020   2.051 -0.0008 -0.8250 -0.3756
  417SOL    HW1 1666   0.916   3.022   2.118 -0.8333  1.2511  3.1978
  417SOL    HW2 1667   0.933   2.975   1.975  0.7483  0.5719 -1.6150
  417SOL     MW 1668   0.967   3.014   2.050 -0.0118 -0.3668 -0.0677
  418SOL     OW 1669   0.671   2.934   0.101 -0.5787  0.0375  0.0841
  418SOL    HW1 1670   0.746   2.921   0.040  1.7325  0.7380  2.0223
  418SOL    HW2 1671   0.600   2.875   0.063 -2.3887 -0.2960  0.1134
  418SOL     MW 1672   0.671   2.925   0.088 -0.5126  0.0859  0.3437
  419SOL     OW 1673   0.496   2.612   1.352  0.1145  0.6873  0.0262
  419SOL    HW1 1674   0.543   2.672   1.408  1.8959  0.4712 -4.5397
  419SOL    HW2 1675   0.555   2.595   1.276  1.5781 -0.3111  1.8985
  419SOL     MW 1676   0.510   2.618   1.349  0.5427  0.5270 -0.3292
  420SOL     OW 1677   0.864   2.248   1.014 -0.1230 -0.7230  0.5386
  420SOL    HW1 1678   0.787   2.275   1.061  0.7769 -1.2147  0.0527
  420SOL    HW2 1679   0.894   2.329   0.965  1.2012 -0.2001  1.6677
  420SOL     MW 1680   0.858   2.262   1.014  0.1704 -0.7189  0.6234
  421SOL     OW 1681   2.944   0.186   3.045  0.3229  0.7310  0.5662
  421SOL    HW1 1682   2.882   0.156   2.983  2.2831  2.7703  1.7256
  421SOL    HW2 1683   2.986   0.103   3.060 -1.1734  1.2268 -3.2247
  421SOL     MW 1684   2.942   0.171   3.039  0.3841  1.0655  0.2190
  422SOL     OW 1685   0.899   2.525   0.941 -0.1227  0.3934  0.0182
  422SOL    HW1 1686   0.884   2.620   0.955  0.1847  1.7682  0.9469
  422SOL    HW2 1687   0.876   2.506   0.847  0.4392  1.1847 -0.9340
  422SOL     MW 1688   0.894   2.535   0.931 -0.0080  0.6792  0.0151
  423SOL     OW 1689   1.453   0.085   0.466 -0.3025  0.4503 -0.2913
  423SOL    HW1 1690   1.449   0.066   0.374 -3.9556 -0.4073 -0.6123
  423SOL    HW2 1691   1.482   0.173   0.464  3.2018  0.3772 -1.4018
  423SOL     MW 1692   1.456   0.095   0.454 -0.3222  0.3275 -0.4802
  424SOL     OW 1693   0.679   2.303   1.218  0.3502  0.4250  0.4548
  424SOL    HW1 1694   0.587   2.272   1.193 -1.0838  1.2878 -0.8671
  424SOL    HW2 1695   0.657   2.339   1.305 -1.4467  0.7219  0.9653
  424SOL     MW 1696   0.664   2.304   1.226 -0.0761  0.5780  0.3478
  425SOL     OW 1697   1.712   2.802   2.036  0.3008 -0.3078 -0.4077
  425SOL    HW1 1698   1.707   2.842   1.945  2.9672  1.3041 -1.6893
  425SOL    HW2 1699   1.744   2.711   2.042 -2.1311  0.9506  3.5292
  425SOL     MW 1700   1.716   2.795   2.025  0.3318  0.0709 -0.0574
  426SOL     OW 1701   0.827   1.686   1.969 -0.3653 -0.3521 -0.0741
  426SOL    HW1 1702   0.762   1.719   1.905 -0.2065  0.5178 -0.3081
  426SOL    HW2 1703   0.852   1.766   2.015  0.6749 -1.1965 -2.3068
  426SOL     MW 1704   0.822   1.701   1.967 -0.2071 -0.3487 -0.3996
  427SOL     OW 1705   0.392   1.663   1.883  0.2635  0.5652 -0.0698
  427SOL    HW1 1706   0.459   1.600   1.865  0.6169  0.1947 -2.6739
  427SOL    HW2 1707   0.314   1.617   1.914  1.4311 -0.5068  0.0291
  427SOL     MW 1708   0.391   1.649   1.885  0.4641  0.3748 -0.4003
  428SOL     OW 1709   0.598   2.572   1.068 -0.9149 -0.5847 -1.0459
  428SOL    HW1 1710   0.688   2.556   1.047  0.2975  0.6015 -1.4772
  428SOL    HW2 1711   0.533   2.509   1.027 -3.0057 -1.4005  0.2391
  428SOL     MW 1712   0.602   2.561   1.060 -1.0308 -0.5358 -0.9333
  429SOL     OW 1713   1.252   2.785   1.142 -0.2075  0.4835  0.0536
  429SOL    HW1 1714   1.162   2.765   1.174  1.6237 -1.4090 -1.3653
  429SOL    HW2 1715   1.237   2.867   1.098 -0.4829 -0.7810 -0.7573
  429SOL     MW 1716   1.238   2.793   1.140 -0.0022  0.0669 -0.2406
  430SOL     OW 1717   1.150   2.726   0.711  0.2951 -0.4445  0.2181
  430SOL    HW1 1718   1.178   2.639   0.734  3.1487 -0.7198  0.2512
  430SOL    HW2 1719   1.115   2.696   0.623 -0.2449  0.5621  0.2849
  430SOL     MW 1720   1.149   2.710   0.702  0.6004 -0.3480  0.2312
  431SOL     OW 1721   0.362   1.946   1.033  0.0179  0.3143 -0.3110
  431SOL    HW1 1722   0.414   1.862   1.020 -1.5253 -1.8749 -0.6809
  431SOL    HW2 1723   0.291   1.950   0.964 -0.2425  0.5840 -0.0186
  431SOL     MW 1724   0.359   1.935   1.022 -0.2201  0.0610 -0.3212
  432SOL     OW 1725   0.083   0.036   1.222  0.2616 -0.1716 -0.8072
  432SOL    HW1 1726   0.084   0.089   1.304 -0.3259  0.4835 -3.6594
  432SOL    HW2 1727   0.010  -0.027   1.233  2.4322  1.8539  1.7821
  432SOL     MW 1728   0.073   0.034   1.234  0.4705  0.1821 -0.8419
  433SOL     OW 1729   0.597   2.804   1.508 -0.2878 -0.1641 -0.0732
  433SOL    HW1 1730   0.598   2.797   1.607  2.4032  0.7841  2.3346
  433SOL    HW2 1731   0.689   2.814   1.496  0.5910  0.3226  1.2468
  433SOL     MW 1732   0.609   2.805   1.520  0.1832  0.0253  0.4187
  434SOL     OW 1733   1.600   2.809   1.522  1.0645 -0.2338 -0.1322
  434SOL    HW1 1734   1.514   2.855   1.509  0.0667  0.5885  1.1175
  434SOL    HW2 1735   1.613   2.757   1.440 -2.8985 -1.8628  1.2188
  434SOL     MW 1736   1.590   2.808   1.510  0.4099 -0.3402  0.2110
  435SOL     OW 1737   2.854   1.786   0.191 -0.3079  0.1425 -0.5848
  435SOL    HW1 1738   2.925   1.850   0.178 -0.7547  0.0994  1.3887
  435SOL    HW2 1739   2.800   1.768   0.104 -0.7423 -0.9424 -0.6870
  435SOL     MW 1740   2.856   1.792   0.178 -0.4242 -0.0063 -0.3379
  436SOL     OW 1741   1.384   2.670   0.453  0.4145 -0.4284 -0.0574
  436SOL    HW1 1742   1.461   2.678   0.511  1.0072  1.8023 -0.4170
  436SOL    HW2 1743   1.328   2.743   0.457  0.8616  1.0702  1.3239
  436SOL     MW 1744   1.387   2.681   0.461  0.5517  0.0637  0.0774
  437SOL     OW 1745   0.872   2.985   1.351  0.1815  0.0752  0.4024
  437SOL    HW1 1746   0.946   3.051   1.351 -0.1318  1.1095 -2.3057
  437SOL    HW2 1747   0.899   2.939   1.272 -0.0394 -0.6855 -0.9613
  437SOL     MW 1748   0.886   2.988   1.341  0.1110  0.1113 -0.1348
  438SOL     OW 1749   0.810   2.604   1.870 -0.0011 -0.2784  0.0797
  438SOL    HW1 1750   0.852   2.574   1.948  0.8992 -0.7199  0.4333
  438SOL    HW2 1751   0.768   2.525   1.830 -0.3807  2.0108  0.4073
  438SOL     MW 1752   0.810   2.590   1.875  0.0676 -0.0346  0.1696
  439SOL     OW 1753   1.246   2.154   0.408 -0.0499 -0.3465 -0.2162
  439SOL    HW1 1754   1.188   2.178   0.480  0.9412 -0.0433 -1.1413
  439SOL    HW2 1755   1.199   2.195   0.335 -0.9180 -0.4093  0.6599
  439SOL     MW 1756   1.232   2.163   0.408 -0.0337 -0.3148 -0.2226
  440SOL     OW 1757   1.764   3.028   3.063 -0.2651 -0.4507 -0.2593
  440SOL    HW1 1758   1.703   2.990   3.131 -0.5093  0.3974  2.0844
  440SOL    HW2 1759   1.844   2.980   3.076 -3.5205 -0.4873  2.9853
  440SOL     MW 1760   1.766   3.017   3.073 -0.7269 -0.3436  0.4780
  441SOL     OW 1761   0.323   2.649   0.467  0.5395  0.4646  0.0318
  441SOL    HW1 1762   0.317   2.600   0.379  0.0867  0.2880 -3.4637
  441SOL    HW2 1763   0.348   2.736   0.435 -0.0217 -2.7218 -1.5221
  441SOL     MW 1764   0.326   2.654   0.451  0.4057  0.0209 -0.6344
  442SOL     OW 1765   0.009   2.408   0.617 -0.1277 -0.5029  0.5467
  442SOL    HW1 1766   0.016   2.499   0.597  2.9017  2.0457 -0.6190
  442SOL    HW2 1767  -0.082   2.396   0.646  0.2393  1.0844  1.3868
  442SOL     MW 1768  -0.002   2.418   0.618  0.3204  0.0428  0.5037
  443SOL     OW 1769   1.423   1.787   1.921  0.4687 -0.3034  1.1085
  443SOL    HW1 1770   1.380   1.821   1.843  3.0571  0.3286  0.0545
  443SOL    HW2 1771   1.354   1.743   1.973  0.0996  0.4613 -1.5140
  443SOL     MW 1772   1.408   1.786   1.918  0.7615 -0.1191  0.6234
  444SOL     OW 1773   0.852   2.567   1.532 -0.4395  0.2516  0.3896
  444SOL    HW1 1774   0.900   2.513   1.603  2.3490  1.7608  0.9210
  444SOL    HW2 1775   0.762   2.582   1.557  0.7937  0.9317  1.4489
  444SOL     MW 1776   0.846   2.562   1.545  0.0911  0.5405  0.5995
  445SOL     OW 1777   1.058   0.073   1.331  0.7900 -0.4321  0.1364
  445SOL    HW1 1778   0.985   0.134   1.327  1.8969  0.6534 -1.4612
  445SOL    HW2 1779   1.123   0.126   1.284 -0.4318  2.1888 -3.2034
  445SOL     MW 1780   1.057   0.088   1.325  0.7749  0.0570 -0.5150
  446SOL     OW 1781   2.740   2.914   1.115  0.0029 -0.0519 -0.0153
  446SOL    HW1 1782   2.685   2.955   1.046  2.1653  0.3343 -0.7083
  446SOL    HW2 1783   2.777   2.836   1.070  0.3929 -2.1784 -1.1799
  446SOL     MW 1784   2.738   2.909   1.100  0.3397 -0.2815 -0.2604
  447SOL     OW 1785   0.056   2.008   1.636  0.0759 -0.1910 -0.1941
  447SOL    HW1 1786   0.102   1.933   1.674 -0.5042 -1.7114 -2.4316
  447SOL    HW2 1787  -0.039   1.983   1.621 -1.6613  0.5051  1.4255
  447SOL     MW 1788   0.050   1.995   1.639 -0.2298 -0.2997 -0.2757
  448SOL     OW 1789   1.750   2.424   1.632 -0.2188  0.0229  0.1912
  448SOL    HW1 1790   1.697   2.342   1.616 -1.4321 -0.6643  1.4519
  448SOL    HW2 1791   1.686   2.497   1.654 -0.7373 -0.2090 -0.4450
  448SOL     MW 1792   1.735   2.423   1.633 -0.4473 -0.0984  0.2736
  449SOL     OW 1793   0.825   2.889   0.347  0.4586  0.2207 -0.2604
  449SOL    HW1 1794   0.777   2.850   0.274 -0.9183  0.5561  1.7104
  449SOL    HW2 1795   0.770   2.918   0.426 -1.4468  1.9595  0.7830
  449SOL     MW 1796   0.811   2.888   0.348  0.0256  0.4944  0.1373
  450SOL     OW 1797   1.197   2.450   0.720 -0.3236 -0.2151 -0.5455
  450SOL    HW1 1798   1.204   2.408   0.809  1.1304 -0.8808  3.4949
  450SOL    HW2 1799   1.282   2.440   0.679 -1.0191  1.5233 -3.9776
  450SOL     MW 1800   1.209   2.443   0.726 -0.2235 -0.0736 -0.4652
  451SOL     OW 1801   0.547   2.069   1.616 -0.2094 -0.0891  0.0287
  451SOL    HW1 1802   0.637   2.093   1.630  1.2266 -2.2076  1.1103
  451SOL    HW2 1803   0.534   2.030   1.524 -1.2678 -4.1881  0.3206
  451SOL     MW 1804   0.557   2.067   1.605 -0.1596 -0.9094  0.2099
  452SOL     OW 1805   0.280   2.691   0.022  0.0183 -0.1485  0.3923
  452SOL    HW1 1806   0.361   2.737   0.005  0.6648 -3.1813  0.8908
  452SOL    HW2 1807   0.223   2.740  -0.042  1.1960 -0.6686  0.5866
  452SOL     MW 1808   0.284   2.704   0.011  0.2590 -0.6173  0.4837
  453SOL     OW 1809   0.341   2.990   1.642 -0.3279 -0.0552 -0.4123
  453SOL    HW1 1810   0.429   2.982   1.677  0.9898  0.6104  1.3658
  453SOL    HW2 1811   0.360   3.009   1.547  3.0628 -0.7500  0.8154
  453SOL     MW 1812   0.355   2.991   1.634  0.2933 -0.0590 -0.0157
  454SOL     OW 1813   0.984   2.780   1.213 -0.5314 -0.0952  0.0352
  454SOL    HW1 1814   0.959   2.689   1.249  4.7364 -0.5176  1.6720
  454SOL    HW2 1815   0.937   2.788   1.129 -2.4335 -0.0705  0.9831
  454SOL     MW 1816   0.975   2.769   1.206 -0.0873 -0.1477  0.3762
  455SOL     OW 1817   1.611   2.929   0.152 -0.2325 -0.4000 -0.0782
  455SOL    HW1 1818   1.657   2.956   0.235 -0.8722 -1.5487  1.6320
  455SOL    HW2 1819   1.596   2.831   0.159 -0.4246 -0.8695  1.2131
  455SOL     MW 1820   1.615   2.920   0.164 -0.3423 -0.6135  0.3178
  456SOL     OW 1821   2.749   0.347   1.479 -0.4891  0.3695  0.0902
  456SOL    HW1 1822   2.709   0.267   1.435 -3.4217 -2.8224 -0.1883
  456SOL    HW2 1823   2.833   0.373   1.429  2.0639 -1.9818 -0.3943
  456SOL     MW 1824   2.755   0.340   1.466 -0.5392 -0.3619 -0.0105
  457SOL     OW 1825   0.969   1.544   2.947 -0.2520 -0.1904  0.5871
  457SOL    HW1 1826   0.889   1.538   3.006 -4.4612  1.8926  1.4604
  457SOL    HW2 1827   1.034   1.481   2.980 -1.8626  0.3833  3.2700
  457SOL     MW 1828   0.967   1.535   2.959 -1.0199  0.1601  1.0563
  458SOL     OW 1829   1.419   1.472   0.569 -0.9794 -0.0879  0.3573
  458SOL    HW1 1830   1.362   1.549   0.560 -3.6384 -0.0269  0.1666
  458SOL    HW2 1831   1.409   1.424   0.484  1.7980 -0.6232 -0.7372
  458SOL     MW 1832   1.410   1.476   0.557 -0.9638 -0.1505  0.1877
  459SOL     OW 1833   1.490   0.060   0.193  0.2927 -1.0249  0.4074
  459SOL    HW1 1834   1.503  -0.036   0.180  1.1002 -0.9363 -1.4703
  459SOL    HW2 1835   1.442   0.081   0.116  2.0823 -2.8629  0.0797
  459SOL     MW 1836   1.485   0.050   0.181  0.6353 -1.2557  0.1164
  460SOL     OW 1837   1.753   2.156   0.606  0.3450  0.1418 -0.2862
  460SOL    HW1 1838   1.676   2.121   0.656  1.1225 -3.4632 -0.0620
  460SOL    HW2 1839   1.829   2.095   0.606  2.6031  3.0242 -2.4100
  460SOL     MW 1840   1.753   2.143   0.612  0.7455  0.0465 -0.5368
  461SOL     OW 1841   0.369   2.374   0.572  0.2228  0.0660 -0.1717
  461SOL    HW1 1842   0.341   2.452   0.520 -2.8442 -0.1358  2.0591
  461SOL    HW2 1843   0.341   2.394   0.658  1.8066 -2.6017  0.6507
  461SOL     MW 1844   0.362   2.387   0.577  0.0271 -0.3126  0.2312
  462SOL     OW 1845   0.392   0.278   1.280 -0.5573 -0.4163 -0.0217
  462SOL    HW1 1846   0.426   0.249   1.190  1.2204  0.2345 -0.8738
  462SOL    HW2 1847   0.472   0.311   1.321 -2.3248 -1.4926  2.0974
  462SOL     MW 1848   0.407   0.279   1.274 -0.5559 -0.4724  0.1454
  463SOL     OW 1849   0.997   0.078   0.658  0.1884  0.1173  0.9152
  463SOL    HW1 1850   0.992   0.112   0.566  1.0395 -1.4167 -0.9731
  463SOL    HW2 1851   0.908   0.101   0.687  1.3047  0.0538 -4.1925
  463SOL     MW 1852   0.985   0.085   0.650  0.4480 -0.0935 -0.0079
  464SOL     OW 1853   0.813   3.064   2.296 -0.2628 -0.4265 -0.1715
  464SOL    HW1 1854   0.795   2.973   2.276 -0.3990  1.0020  0.2300
  464SOL    HW2 1855   0.837   3.060   2.394  1.1006 -0.9264 -1.7227
  464SOL     MW 1856   0.814   3.052   2.306 -0.1009 -0.3040 -0.3232
  465SOL     OW 1857   0.732   0.291   0.494  0.3502  0.0792 -0.0564
  465SOL    HW1 1858   0.693   0.244   0.569  1.9189  0.4032  1.9177
  465SOL    HW2 1859   0.718   0.251   0.406  1.0621 -1.3439  1.3621
  465SOL     MW 1860   0.725   0.280   0.493  0.6511 -0.0658  0.3912
  466SOL     OW 1861   1.048   2.005   0.707 -0.5152 -0.3632 -0.1370
  466SOL    HW1 1862   1.011   1.924   0.668 -2.3574  0.2918  0.8047
  466SOL    HW2 1863   1.018   2.081   0.657  0.7694  0.2419 -2.3169
  466SOL     MW 1864   1.039   2.004   0.696 -0.5888 -0.1969 -0.3004
  467SOL     OW 1865   1.221   2.270   0.929 -0.1939 -0.5836 -0.0976
  467SOL    HW1 1866   1.316   2.298   0.931  0.4920 -0.6174  1.1108
  467SOL    HW2 1867   1.227   2.176   0.914  0.5183 -1.8897  0.3076
  467SOL     MW 1868   1.235   2.261   0.927 -0.0094 -0.7604  0.1153
  468SOL     OW 1869   0.372   2.614   2.031 -0.1433  0.5237  0.0017
  468SOL    HW1 1870   0.383   2.547   1.960  1.3109  3.2277  0.6777
  468SOL    HW2 1871   0.346   2.695   1.975  2.7655 -0.6543 -1.1823
  468SOL     MW 1872   0.370   2.616   2.014  0.4324  0.7251 -0.0653
  469SOL     OW 1873   0.362   2.189   1.809  0.0311 -0.5496  0.1306
  469SOL    HW1 1874   0.315   2.114   1.845  1.2161 -1.1060  0.5602
  469SOL    HW2 1875   0.426   2.147   1.741  1.9589 -1.8446  1.0165
  469SOL     MW 1876   0.365   2.173   1.805  0.4418 -0.7939  0.3042
  470SOL     OW 1877   3.019   2.602   0.103  0.4067  0.1334  0.3719
  470SOL    HW1 1878   2.931   2.571   0.108  2.5832  1.4398 -1.8147
  470SOL    HW2 1879   3.024   2.624   0.006  1.3389  0.0886  0.0166
  470SOL     MW 1880   3.008   2.601   0.091  0.8169  0.2999  0.0365
  471SOL     OW 1881   1.185   2.706   1.462 -0.0982 -0.6220 -0.3003
  471SOL    HW1 1882   1.146   2.632   1.514  1.7583  0.9142 -0.1581
  471SOL    HW2 1883   1.131   2.712   1.384  0.8467  0.9988  1.0093
  471SOL     MW 1884   1.173   2.697   1.458  0.2714 -0.2054 -0.1088
  472SOL     OW 1885   2.862   2.090   0.340 -0.1862 -0.3364 -0.1843
  472SOL    HW1 1886   2.866   2.053   0.251 -0.9646  0.0595 -3.3422
  472SOL    HW2 1887   2.827   2.016   0.391 -1.1878 -1.0204 -2.9391
  472SOL     MW 1888   2.858   2.075   0.335 -0.4210 -0.3744 -0.9644
  473SOL     OW 1889   0.832   2.535   1.272  0.5247 -0.5410  0.3288
  473SOL    HW1 1890   0.806   2.462   1.213 -2.3461 -0.4309 -1.6345
  473SOL    HW2 1891   0.838   2.499   1.361 -1.1198 -1.2627 -1.2468
  473SOL     MW 1892   0.830   2.520   1.276 -0.0710 -0.6217 -0.1382
  474SOL     OW 1893   0.864   2.113   1.799  0.1824  0.2555 -0.0107
  474SOL    HW1 1894   0.942   2.140   1.841 -2.0869 -0.9985  1.9819
  474SOL    HW2 1895   0.871   2.146   1.706 -1.2133 -0.7299  0.3982
  474SOL     MW 1896   0.875   2.121   1.792 -0.3012 -0.0400  0.3061
  475SOL     OW 1897   1.643   3.075   1.484 -0.2432 -0.7123 -0.2426
  475SOL    HW1 1898   1.561   3.082   1.423 -0.9584 -0.5057 -2.6886
  475SOL    HW2 1899   1.639   2.982   1.512 -0.1480 -2.0494 -1.5008
  475SOL     MW 1900   1.632   3.064   1.480 -0.3250 -0.8614 -0.7313
  476SOL     OW 1901   1.422   2.609   0.986  0.5015  0.0111  0.4251
  476SOL    HW1 1902   1.348   2.632   1.037 -1.6153 -0.3392 -0.2514
  476SOL    HW2 1903   1.463   2.684   0.951  0.2310 -1.9232  0.5029
  476SOL     MW 1904   1.418   2.622   0.988  0.1865 -0.2903  0.3461
  477SOL     OW 1905   0.771   2.505   0.668 -0.1019  0.3633  0.8447
  477SOL    HW1 1906   0.830   2.572   0.633  2.0066 -1.6843 -1.6394
  477SOL    HW2 1907   0.762   2.442   0.597  2.2062  0.6839  0.1319
  477SOL     MW 1908   0.778   2.506   0.654  0.4809  0.1355  0.4229
  478SOL     OW 1909   0.167   2.721   0.924  0.3389 -0.2649 -0.1761
  478SOL    HW1 1910   0.237   2.787   0.922  0.2065  4.5757  1.5085
  478SOL    HW2 1911   0.201   2.643   0.875 -0.5330 -0.2971  4.0144
  478SOL     MW 1912   0.181   2.720   0.917  0.2064  0.3695  0.5991
  479SOL     OW 1913   1.445   1.987   1.261  0.5239  0.2109 -0.2314
  479SOL    HW1 1914   1.409   2.009   1.349  0.2212 -1.5229  2.0704
  479SOL    HW2 1915   1.501   1.913   1.273 -2.8286 -1.4564 -0.2255
  479SOL     MW 1916   1.448   1.980   1.274  0.0416 -0.2378  0.0731
  480SOL     OW 1917   1.881   2.403   1.285 -0.3272  0.4452 -0.7107
  480SOL    HW1 1918   1.881   2.319   1.330  2.2275 -0.5333 -0.6369
  480SOL    HW2 1919   1.934   2.386   1.210 -1.1996  3.9021 -1.2992
  480SOL     MW 1920   1.888   2.390   1.281 -0.1053  0.7722 -0.7786
  481SOL     OW 1921   1.000   0.042   0.981  0.0792 -0.6026 -1.0319
  481SOL    HW1 1922   1.077  -0.013   0.960  0.5660  0.0378  1.4233
  481SOL    HW2 1923   1.042   0.117   1.021 -0.2292  1.7758 -1.1546
  481SOL     MW 1924   1.016   0.044   0.983  0.1027 -0.2043 -0.7241
  482SOL     OW 1925   1.040   3.022   0.262  0.5713  0.3720 -0.1355
  482SOL    HW1 1926   0.958   2.978   0.286  1.5036  1.1259  3.4132
  482SOL    HW2 1927   1.042   3.104   0.310 -1.1594  0.0607 -1.2447
  482SOL     MW 1928   1.029   3.027   0.271  0.4660  0.4304  0.1863
  483SOL     OW 1929   0.417   2.904   0.465  0.0054  0.0269 -0.2935
  483SOL    HW1 1930   0.351   2.943   0.408  2.0599  0.8825 -0.3102
  483SOL    HW2 1931   0.396   2.937   0.552  1.2208 -2.3705 -0.1438
  483SOL     MW 1932   0.405   2.913   0.469  0.4368 -0.1766 -0.2759
  484SOL     OW 1933   1.704   1.873   1.392  0.5630  0.3118  0.0933
  484SOL    HW1 1934   1.748   1.958   1.380 -0.1463  0.2676  2.1398
  484SOL    HW2 1935   1.670   1.887   1.479  2.9407 -1.0607  1.4089
  484SOL     MW 1936   1.705   1.886   1.402  0.7832  0.1249  0.5369
  485SOL     OW 1937   0.550   2.361   0.230 -0.3649 -0.7973  0.2284
  485SOL    HW1 1938   0.553   2.336   0.318 -4.3368  0.1887 -3.1661
  485SOL    HW2 1939   0.486   2.437   0.232  1.2904  0.6483  1.2659
  485SOL     MW 1940   0.542   2.368   0.242 -0.6706 -0.4764 -0.0826
  486SOL     OW 1941   0.156   2.399   1.524  0.1195 -0.7273  0.5946
  486SOL    HW1 1942   0.163   2.485   1.474 -0.6618 -0.8850  2.1255
  486SOL    HW2 1943   0.145   2.416   1.621  0.3443  0.9864  0.2030
  486SOL     MW 1944   0.156   2.412   1.530  0.0460 -0.5220  0.7449
  487SOL     OW 1945   1.292   1.652   1.039 -0.0218  0.4746 -0.3877
  487SOL    HW1 1946   1.274   1.744   1.040 -1.9322  0.7484  0.9531
  487SOL    HW2 1947   1.370   1.631   0.981  3.7241 -2.2500 -1.7955
  487SOL     MW 1948   1.300   1.661   1.031  0.2204  0.1513 -0.3965
  488SOL     OW 1949   1.671   1.847   0.537  0.4822 -0.1190  0.3589
  488SOL    HW1 1950   1.748   1.863   0.490  0.7965 -1.3405  0.4380
  488SOL    HW2 1951   1.606   1.917   0.524  1.8807 -0.5971  0.5481
  488SOL     MW 1952   1.673   1.859   0.529  0.7082 -0.3433  0.3943
  489SOL     OW 1953   0.647   0.782   0.609  0.6197  0.0867 -0.2166
  489SOL    HW1 1954   0.685   0.704   0.577 -1.1132 -1.5304  0.2906
  489SOL    HW2 1955   0.661   0.797   0.704 -0.9536  3.2835 -1.6652
  489SOL     MW 1956   0.654   0.774   0.617  0.1835  0.2951 -0.3408
  490SOL     OW 1957   1.493   2.038   0.420  0.4372  0.5623  0.2974
  490SOL    HW1 1958   1.554   2.104   0.401 -0.4354  1.0251  0.9681
  490SOL    HW2 1959   1.402   2.083   0.422 -0.6449 -1.2109  0.1740
  490SOL     MW 1960   1.489   2.053   0.418  0.1793  0.3894  0.3696
  491SOL     OW 1961   1.233   2.940   0.459  0.6328 -0.0118 -0.7089
  491SOL    HW1 1962   1.283   3.022   0.454  1.6808  0.7891  0.7785
  491SOL    HW2 1963   1.160   2.946   0.400  0.4496 -2.4488 -0.8239
  491SOL     MW 1964   1.230   2.952   0.450  0.7469 -0.2276 -0.5278
  492SOL     OW 1965   1.513   2.092   0.744  0.2532  0.1007 -0.2369
  492SOL    HW1 1966   1.463   2.103   0.666  0.4566  0.9644  0.3778
  492SOL    HW2 1967   1.437   2.068   0.805 -1.7997  0.2200  1.2503
  492SOL     MW 1968   1.496   2.090   0.742  0.0092  0.2304  0.0404
  493SOL     OW 1969   0.216   2.984   0.313 -0.0271  0.0681 -0.4177
  493SOL    HW1 1970   0.147   3.036   0.354 -0.0760 -2.2717 -0.3452
  493SOL    HW2 1971   0.218   3.009   0.219  1.1578  1.3329 -0.2595
  493SOL     MW 1972   0.207   2.994   0.306  0.1228 -0.0737 -0.3872
  494SOL     OW 1973   0.427   2.454   1.794 -0.4163  0.0810  0.0585
  494SOL    HW1 1974   0.405   2.359   1.806 -1.7492  1.1902  1.3962
  494SOL    HW2 1975   0.472   2.458   1.709  2.7181 -3.7746 -2.6418
  494SOL     MW 1976   0.430   2.442   1.785 -0.1786 -0.2814 -0.1213
  495SOL     OW 1977   2.905   1.679   2.594  0.4565 -0.0298  0.4871
  495SOL    HW1 1978   2.904   1.771   2.570 -0.7050 -1.9974 -0.0950
  495SOL    HW2 1979   2.888   1.668   2.688  0.6283  2.7244 -2.9278
  495SOL     MW 1980   2.902   1.689   2.603  0.3259  0.0740 -0.0403
  496SOL     OW 1981   2.917   2.295   2.678  0.2140 -0.2321 -0.1978
  496SOL    HW1 1982   2.959   2.212   2.713  1.9507 -2.1010  0.2234
  496SOL    HW2 1983   2.971   2.373   2.657 -0.5018 -1.3324 -0.9660
  496SOL     MW 1984   2.930   2.294   2.679  0.3487 -0.6238 -0.2436
  497SOL     OW 1985   1.565   2.259   2.635 -0.7174  0.4332 -0.1692
  497SOL    HW1 1986   1.492   2.230   2.582  1.5686 -0.8131 -2.2465
  497SOL    HW2 1987   1.560   2.210   2.719 -0.5780  1.3462  1.5521
  497SOL     MW 1988   1.554   2.249   2.639 -0.3974  0.3892 -0.2162
  498SOL     OW 1989   1.549   2.734   2.387  0.1448  0.0566 -0.1281
  498SOL    HW1 1990   1.558   2.651   2.341  0.1772  2.0943  0.3331
  498SOL    HW2 1991   1.611   2.738   2.462  3.6023 -0.8008  0.8791
  498SOL     MW 1992   1.558   2.723   2.391  0.6053  0.2123  0.0656
  499SOL     OW 1993   0.945   0.090   0.019 -0.2087 -0.3834 -0.0060
  499SOL    HW1 1994   0.879   0.114   0.086  0.0084  3.7552 -1.5678
  499SOL    HW2 1995   0.954  -0.002   0.030 -0.6156  3.6632  1.7217
  499SOL     MW 1996   0.938   0.081   0.029 -0.2337  0.6966  0.0159
  500SOL     OW 1997   1.149   2.552   2.771 -0.0909  0.0154  0.7086
  500SOL    HW1 1998   1.155   2.499   2.852  1.3304  0.3369  1.8444
  500SOL    HW2 1999   1.068   2.599   2.800 -0.4103  1.4155  1.8484
  500SOL     MW 2000   1.139   2.551   2.786  0.0545  0.2426  1.0088
  501SOL     OW 2001   1.763   2.224   3.072 -0.4234 -0.2320  0.4411
  501SOL    HW1 2002   1.740   2.320   3.102  1.0639  0.5851  1.6271
  501SOL    HW2 2003   1.859   2.213   3.069  1.0236  1.8454 -1.7002
  501SOL     MW 2004   1.773   2.235   3.075 -0.0362  0.1499  0.3151
  502SOL     OW 2005   0.088   2.804   2.966  0.1962  0.0859 -0.2390
  502SOL    HW1 2006   0.023   2.745   2.942  0.7844 -1.0526  0.8098
  502SOL    HW2 2007   0.129   2.838   2.885 -1.3056  1.1480  2.4547
  502SOL     MW 2008   0.085   2.801   2.952  0.0756  0.0759  0.2548
  503SOL     OW 2009   1.113   2.685   2.090  0.2981  0.2202  0.3877
  503SOL    HW1 2010   1.157   2.700   2.007  1.1297  1.0888 -1.1766
  503SOL    HW2 2011   1.043   2.752   2.107  0.4472  1.6332  3.2528
  503SOL     MW 2012   1.109   2.696   2.081  0.4275  0.5213  0.5593
  504SOL     OW 2013   3.093   2.703   2.085  0.0638  0.1048  0.4788
  504SOL    HW1 2014   3.162   2.644   2.057  0.7739  0.7345 -1.1854
  504SOL    HW2 2015   3.015   2.655   2.102  2.0840 -0.8106  0.1259
  504SOL     MW 2016   3.091   2.689   2.084  0.4241  0.0671  0.2127
  505SOL     OW 2017   1.724   2.616   2.850  0.0634  0.0996 -0.5470
  505SOL    HW1 2018   1.756   2.652   2.769  0.5705  0.5037 -1.0071
  505SOL    HW2 2019   1.649   2.674   2.870 -0.3727  1.9771 -1.4775
  505SOL     MW 2020   1.718   2.628   2.842  0.0727  0.4007 -0.7305
  506SOL     OW 2021   1.577   3.087   2.873  0.2131 -0.0661 -0.0370
  506SOL    HW1 2022   1.632   3.044   2.941  1.0189 -2.0180 -2.4202
  506SOL    HW2 2023   1.640   3.071   2.801 -2.2993 -1.9554 -0.6149
  506SOL     MW 2024   1.593   3.079   2.872 -0.0121 -0.5729 -0.4277
  507SOL     OW 2025   0.887   2.654   2.841  0.3912  0.4911 -0.1246
  507SOL    HW1 2026   0.909   2.724   2.782 -3.8236  2.8147 -1.6071
  507SOL    HW2 2027   0.790   2.651   2.822 -0.9044 -1.4986 -3.4014
  507SOL     MW 2028   0.877   2.663   2.831 -0.3358  0.5352 -0.7525
  508SOL     OW 2029   1.132   2.095   2.477 -0.2499 -0.3872 -0.3677
  508SOL    HW1 2030   1.194   2.067   2.538 -0.3733  0.0683 -1.2332
  508SOL    HW2 2031   1.072   2.158   2.534 -1.2821  1.9415  0.2856
  508SOL     MW 2032   1.132   2.100   2.493 -0.4023 -0.0199 -0.3957
  509SOL     OW 2033   0.637   2.605   2.736  0.3038  0.1177 -0.2500
  509SOL    HW1 2034   0.644   2.547   2.660  1.6065  0.3770  0.7960
  509SOL    HW2 2035   0.551   2.580   2.783 -0.6710 -0.1242 -2.4034
  509SOL     MW 2036   0.626   2.594   2.732  0.3471  0.1200 -0.3961
  510SOL     OW 2037   1.487   2.603   1.653  0.0790 -0.5383  0.1762
  510SOL    HW1 2038   1.534   2.670   1.609  0.0676  2.0533  0.8254
  510SOL    HW2 2039   1.440   2.658   1.715 -0.7456 -0.9907 -0.7888
  510SOL     MW 2040   1.487   2.619   1.656 -0.0313 -0.2561  0.1345
  511SOL     OW 2041   0.425   2.626   2.453  0.6522 -0.2332 -0.0073
  511SOL    HW1 2042   0.498   2.563   2.458 -4.3465  3.3056 -0.0945
  511SOL    HW2 2043   0.447   2.678   2.373 -0.1895  1.3367  1.1071
  511SOL     MW 2044   0.437   2.624   2.443 -0.1184  0.4408  0.1283
  512SOL     OW 2045   0.979   2.019   2.788  0.2429 -0.7522  0.0965
  512SOL    HW1 2046   0.908   2.051   2.840  0.5110 -2.5319  0.6363
  512SOL    HW2 2047   1.016   1.956   2.849  1.4577 -2.1527 -2.2145
  512SOL     MW 2048   0.974   2.015   2.803  0.4386 -1.1718 -0.1372
  513SOL     OW 2049   1.573   2.470   2.289 -0.0908 -0.0316  0.4313
  513SOL    HW1 2050   1.625   2.511   2.220  4.1234 -0.5311  0.3548
  513SOL    HW2 2051   1.628   2.466   2.369 -0.7047 -0.3333  2.5633
  513SOL     MW 2052   1.587   2.475   2.291  0.3842 -0.1373  0.7025
  514SOL     OW 2053   0.270   2.488   2.630  0.5433 -0.2320 -0.1262
  514SOL    HW1 2054   0.322   2.544   2.569  2.1979 -1.8571  2.8055
  514SOL    HW2 2055   0.336   2.483   2.705  1.2861 -2.3933  1.3032
  514SOL     MW 2056   0.285   2.495   2.632  0.8596 -0.7316  0.4492
  515SOL     OW 2057   1.145   2.017   2.025  0.3406 -0.0364 -0.3638
  515SOL    HW1 2058   1.121   2.093   1.963 -2.3667  1.4035 -0.9789
  515SOL    HW2 2059   1.240   2.038   2.030  1.7712  0.4204 -0.3018
  515SOL     MW 2060   1.155   2.030   2.017  0.1721  0.2138 -0.4368
  516SOL     OW 2061   1.474   2.533   0.016 -0.6166  0.1718 -0.5899
  516SOL    HW1 2062   1.479   2.467  -0.052  0.8601  0.2227  0.5283
  516SOL    HW2 2063   1.407   2.590  -0.028 -0.7747 -0.9025 -1.3420
  516SOL     MW 2064   1.465   2.532   0.001 -0.4426  0.0368 -0.5416
  517SOL     OW 2065   0.574   2.438   2.108  0.0165 -0.1241 -0.3258
  517SOL    HW1 2066   0.527   2.522   2.088 -1.6265 -1.4381 -2.4562
  517SOL    HW2 2067   0.504   2.373   2.101 -2.4471 -3.9088  0.1224
  517SOL     MW 2068   0.559   2.441   2.105 -0.5253 -0.7968 -0.5478
  518SOL     OW 2069   1.743   0.204   3.066  0.0076  0.5529 -0.4459
  518SOL    HW1 2070   1.705   0.234   3.153 -0.7736 -1.7183  5.0538
  518SOL    HW2 2071   1.744   0.106   3.072  2.9067 -0.1258 -2.5199
  518SOL     MW 2072   1.738   0.195   3.078  0.2870  0.1637  0.0061
  519SOL     OW 2073   0.732   2.340   1.783  0.3388 -0.7614 -0.2654
  519SOL    HW1 2074   0.796   2.271   1.809  1.2939 -0.9908  3.9578
  519SOL    HW2 2075   0.735   2.331   1.688  0.9283  0.5019  1.3778
  519SOL     MW 2076   0.741   2.330   1.774  0.5426 -0.6250  0.5086
  520SOL     OW 2077   1.232   2.114   2.973  1.0844 -0.1764 -0.1176
  520SOL    HW1 2078   1.147   2.089   2.939  1.8433 -1.3030  2.0671
  520SOL    HW2 2079   1.268   2.057   3.037  0.1628  1.5713  0.5702
  520SOL     MW 2080   1.226   2.103   2.977  1.0629 -0.0945  0.2614
  521SOL     OW 2081   1.756   2.035   2.173 -0.0979 -0.1231  0.6829
  521SOL    HW1 2082   1.781   2.104   2.104  0.4451 -0.0560  1.5738
  521SOL    HW2 2083   1.718   1.961   2.125  1.7005 -0.7441 -0.7704
  521SOL     MW 2084   1.754   2.035   2.157  0.2110 -0.1962  0.6087
  522SOL     OW 2085   2.881   2.540   2.232  0.2485  0.1569 -0.0948
  522SOL    HW1 2086   2.950   2.474   2.251  1.0340 -0.4926 -1.3088
  522SOL    HW2 2087   2.898   2.607   2.295  3.4658  1.4738  3.1999
  522SOL     MW 2088   2.892   2.540   2.243  0.7766  0.2450  0.1797
  523SOL     OW 2089   0.962   1.533   2.191 -0.1549 -0.4610  0.3563
  523SOL    HW1 2090   0.924   1.586   2.120 -2.3497 -2.9843  0.1656
  523SOL    HW2 2091   1.007   1.471   2.135  0.1262 -0.1800 -2.0781
  523SOL     MW 2092   0.963   1.532   2.174 -0.4074 -0.7568  0.0100
  524SOL     OW 2093   0.690   2.431   2.942 -0.2396 -0.2561  0.3742
  524SOL    HW1 2094   0.710   2.473   2.864  0.7206 -1.7062 -1.0424
  524SOL    HW2 2095   0.745   2.345   2.943  1.2148 -0.3908  2.3738
  524SOL     MW 2096   0.700   2.425   2.932  0.0790 -0.4652  0.4511
  525SOL     OW 2097   0.328   2.287   2.088 -0.5109  0.0912  0.2704
  525SOL    HW1 2098   0.318   2.219   2.151 -0.3008 -1.6434  0.3060
  525SOL    HW2 2099   0.326   2.243   2.004  0.3139  2.9723  2.1455
  525SOL     MW 2100   0.327   2.272   2.085 -0.3743  0.2425  0.5225
  526SOL     OW 2101   0.650   2.027   1.981 -0.2229  0.5153  1.0313
  526SOL    HW1 2102   0.682   2.065   1.899 -2.7209 -1.2302 -0.9384
  526SOL    HW2 2103   0.658   2.091   2.053 -2.4518 -0.1518 -0.9664
  526SOL     MW 2104   0.655   2.041   1.980 -0.8466  0.1970  0.5079
  527SOL     OW 2105   1.437   2.016   2.066 -0.5060 -0.0981 -1.0463
  527SOL    HW1 2106   1.435   2.017   2.162  1.0275 -0.6629 -3.3090
  527SOL    HW2 2107   1.428   1.926   2.032  1.9117  0.2654  1.7274
  527SOL     MW 2108   1.436   2.004   2.074  0.0154 -0.1247 -0.9789
  528SOL     OW 2109   0.678   2.920   2.853 -0.3817 -0.0799  0.1155
  528SOL    HW1 2110   0.708   3.006   2.884  1.5138 -0.8930 -0.6766
  528SOL    HW2 2111   0.613   2.935   2.780 -1.1977  1.1500  1.3925
  528SOL     MW 2112   0.673   2.934   2.847 -0.2392 -0.0249  0.1795
  529SOL     OW 2113   1.095   2.239   1.885 -0.1832  0.2049 -0.4703
  529SOL    HW1 2114   1.064   2.279   1.976  0.3951  0.3117  3.8337
  529SOL    HW2 2115   1.113   2.308   1.826 -1.4915 -3.5861  0.4415
  529SOL     MW 2116   1.094   2.253   1.890 -0.2795 -0.2812  0.2179
  530SOL     OW 2117   1.152   2.400   3.015  0.2760  0.5524 -0.0439
  530SOL    HW1 2118   1.132   2.446   3.099 -0.5071  2.1554  0.5962
  530SOL    HW2 2119   1.209   2.323   3.024  1.1444  0.1525 -0.1262
  530SOL     MW 2120   1.157   2.396   3.027  0.2873  0.7111  0.0297
  531SOL     OW 2121   0.896   1.878   2.583  0.5859  0.3085  0.1166
  531SOL    HW1 2122   0.915   1.935   2.660 -1.4305  0.1082 -2.6591
  531SOL    HW2 2123   0.865   1.795   2.619 -0.4431 -0.0073 -0.3863
  531SOL     MW 2124   0.894   1.874   2.598  0.1841  0.2404 -0.3160
  532SOL     OW 2125   1.765   0.300   2.811  0.0638 -0.1646 -0.6518
  532SOL    HW1 2126   1.751   0.266   2.901  0.3437 -0.9303 -1.4021
  532SOL    HW2 2127   1.829   0.366   2.826 -3.1849 -0.1626 -1.2596
  532SOL     MW 2128   1.771   0.304   2.825 -0.3279 -0.2654 -0.8310
  533SOL     OW 2129   1.924   2.627   3.034  0.6605  0.0431  0.3005
  533SOL    HW1 2130   1.892   2.577   3.109  1.0943 -1.0336  0.0628
  533SOL    HW2 2131   1.843   2.626   2.973  3.1692  0.5179  2.3414
  533SOL     MW 2132   1.909   2.620   3.036  1.0487 -0.0363  0.5384
  534SOL     OW 2133   1.751   2.418   2.506 -0.2701 -0.2916  0.6738
  534SOL    HW1 2134   1.690   2.352   2.547 -0.5774 -0.1960  0.0721
  534SOL    HW2 2135   1.823   2.413   2.572  0.5995 -0.0804 -2.6553
  534SOL     MW 2136   1.753   2.409   2.520 -0.1959 -0.2511  0.1551
  535SOL     OW 2137   1.901   2.369   1.843  0.2568  0.2546  0.2467
  535SOL    HW1 2138   1.849   2.393   1.764 -1.4618 -0.3982  1.2688
  535SOL    HW2 2139   1.996   2.394   1.829  0.0564  1.3137  0.0038
  535SOL     MW 2140   1.906   2.375   1.831  0.0036  0.3082  0.3495
  536SOL     OW 2141   0.446   1.871   2.050  0.7648 -0.3412 -0.0820
  536SOL    HW1 2142   0.450   1.794   1.981  0.3899 -0.8435  1.8429
  536SOL    HW2 2143   0.510   1.935   2.020 -1.1327  0.8143 -1.9062
  536SOL     MW 2144   0.455   1.869   2.037  0.4650 -0.2550 -0.0687
  537SOL     OW 2145   1.064   0.224   2.848  0.4937 -0.3277  0.3779
  537SOL    HW1 2146   0.973   0.235   2.877  2.1581  1.1218 -2.1465
  537SOL    HW2 2147   1.088   0.288   2.776  0.1652 -1.4906 -1.0634
  537SOL     MW 2148   1.055   0.234   2.843  0.6700 -0.2898 -0.1454
  538SOL     OW 2149   1.349   0.068   3.037 -0.6919 -0.0684  0.8700
  538SOL    HW1 2150   1.324   0.154   3.000  0.3671 -0.0856  0.0258
  538SOL    HW2 2151   1.405   0.028   2.969 -0.4143  0.7504  2.4495
  538SOL     MW 2152   1.353   0.074   3.023 -0.5156  0.0374  0.9670
  539SOL     OW 2153   0.734   2.788   2.486 -0.1995  0.1423 -0.1721
  539SOL    HW1 2154   0.787   2.800   2.564 -2.2764 -2.2314 -1.0752
  539SOL    HW2 2155   0.677   2.717   2.509 -1.5638  2.1770 -0.3939
  539SOL     MW 2156   0.734   2.780   2.500 -0.6535  0.0975 -0.3205
  540SOL     OW 2157   0.428   2.465   2.856 -0.2261  0.8078  0.0976
  540SOL    HW1 2158   0.509   2.428   2.895  0.2433  1.4767 -0.7030
  540SOL    HW2 2159   0.363   2.405   2.896  2.2036 -1.0237  3.0811
  540SOL     MW 2160   0.430   2.453   2.866  0.1564  0.6544  0.3856
  541SOL     OW 2161   0.179   2.901   2.197 -0.3588 -0.0397  0.3796
  541SOL    HW1 2162   0.172   2.844   2.125 -0.4294  0.7700 -0.6883
  541SOL    HW2 2163   0.231   2.865   2.271  1.3350 -0.9718  1.1449
  541SOL     MW 2164   0.185   2.889   2.197 -0.1447 -0.0559  0.3396
  542SOL     OW 2165   1.016   2.282   2.658  0.0579  0.3565 -0.3767
  542SOL    HW1 2166   1.016   2.202   2.708  1.9108  1.5682 -0.3948
  542SOL    HW2 2167   1.058   2.350   2.718 -1.4411 -0.5153  0.3517
  542SOL     MW 2168   1.021   2.281   2.672  0.1046  0.4013 -0.2830
  543SOL     OW 2169   1.509   2.432   2.851  0.8265  0.0006  0.2031
  543SOL    HW1 2170   1.509   2.360   2.783  2.0695  0.7594 -1.5258
  543SOL    HW2 2171   1.595   2.484   2.837  1.8539 -1.0671 -0.3007
  543SOL     MW 2172   1.521   2.430   2.840  1.1260 -0.0402 -0.0915
  544SOL     OW 2173   0.715   0.195   2.769 -0.1240  0.3207 -0.2074
  544SOL    HW1 2174   0.623   0.220   2.745 -2.9469  2.0723  0.5353
  544SOL    HW2 2175   0.761   0.138   2.707 -0.2148 -0.9461  1.2486
  544SOL     MW 2176   0.709   0.191   2.758 -0.5084  0.3847  0.0827
  545SOL     OW 2177   1.581   2.200   2.333 -0.2181 -0.0833  0.1235
  545SOL    HW1 2178   1.555   2.285   2.302 -1.8693 -1.8474 -0.0929
  545SOL    HW2 2179   1.647   2.158   2.277  1.0530 -1.4612  2.2707
  545SOL     MW 2180   1.586   2.205   2.321 -0.2683 -0.4979  0.3782
  546SOL     OW 2181   3.039   1.988   0.139 -0.0807 -0.1973  0.5153
  546SOL    HW1 2182   3.013   2.043   0.063  1.2112  2.0175 -0.4535
  546SOL    HW2 2183   3.120   1.941   0.109  0.8789 -0.3071  0.7476
  546SOL     MW 2184   3.046   1.989   0.125  0.2164  0.0804  0.4181
  547SOL     OW 2185   0.216   3.068   0.028 -0.1863  0.7357 -0.3943
  547SOL    HW1 2186   0.276   3.093  -0.033 -1.7373 -0.5101 -1.1745
  547SOL    HW2 2187   0.134   3.038  -0.018  1.1818  0.0315 -1.5296
  547SOL     MW 2188   0.213   3.067   0.014 -0.2104  0.4784 -0.6471
  548SOL     OW 2189   0.302   2.516   0.221  0.0508 -0.2283  0.9863
  548SOL    HW1 2190   0.308   2.585   0.147 -0.8892  1.6079 -1.2774
  548SOL    HW2 2191   0.233   2.457   0.196  2.1298 -0.4225  0.3234
  548SOL     MW 2192   0.293   2.517   0.208  0.2011 -0.0117  0.6002
  549SOL     OW 2193   0.842   1.890   2.135 -0.5011 -0.1148 -0.4247
  549SOL    HW1 2194   0.774   1.933   2.087 -2.7501  0.9845  0.9139
  549SOL    HW2 2195   0.809   1.886   2.230 -3.4525  2.0755 -0.5235
  549SOL     MW 2196   0.829   1.895   2.142 -1.1873  0.3192 -0.2611
  550SOL     OW 2197   1.782   1.732   2.591 -0.0489  0.0618 -0.8032
  550SOL    HW1 2198   1.797   1.703   2.500 -0.3262  0.8793 -1.4890
  550SOL    HW2 2199   1.760   1.824   2.600 -0.6596  2.9136 -1.6960
  550SOL     MW 2200   1.781   1.740   2.580 -0.1661  0.5460 -1.0115
  551SOL     OW 2201   0.830   2.286   0.206  0.0092 -0.0033 -0.0876
  551SOL    HW1 2202   0.925   2.276   0.182  1.0167  0.7391  1.1925
  551SOL    HW2 2203   0.776   2.218   0.167  0.1364 -0.5280  0.3934
  551SOL     MW 2204   0.835   2.276   0.197  0.1589  0.0254  0.1447
  552SOL     OW 2205   1.757   1.680   2.307 -0.0395 -0.2415 -0.8406
  552SOL    HW1 2206   1.673   1.701   2.277  2.5057  0.5587  3.0307
  552SOL    HW2 2207   1.782   1.620   2.235  0.0159  3.4544  3.1157
  552SOL     MW 2208   1.749   1.675   2.294  0.3036  0.3517  0.1922
  553SOL     OW 2209   1.250   2.316   1.502  0.0739 -0.2459  0.4856
  553SOL    HW1 2210   1.293   2.229   1.501 -1.4029  1.2845 -0.6641
  553SOL    HW2 2211   1.314   2.385   1.480  0.5255 -0.1946 -0.0927
  553SOL     MW 2212   1.264   2.314   1.499 -0.0614 -0.0372  0.2576
  554SOL     OW 2213   0.514   2.932   2.630 -0.4950  0.6490 -0.2880
  554SOL    HW1 2214   0.506   3.012   2.574  0.0060 -2.6374 -0.5509
  554SOL    HW2 2215   0.590   2.881   2.591  0.4055 -1.0793  1.3637
  554SOL     MW 2216   0.523   2.936   2.617 -0.3101 -0.0126 -0.1048
  555SOL     OW 2217   0.661   2.484   2.494 -1.1569  0.0905 -0.4878
  555SOL    HW1 2218   0.604   2.399   2.512 -1.5728  0.6741  0.5823
  555SOL    HW2 2219   0.749   2.463   2.466  1.5250 -1.1195 -0.8438
  555SOL     MW 2220   0.665   2.470   2.493 -0.8579  0.0079 -0.3936
  556SOL     OW 2221   0.973   1.872   0.115  0.0436 -0.6591 -0.5704
  556SOL    HW1 2222   1.029   1.849   0.039  3.1696  4.7679 -1.1876
  556SOL    HW2 2223   1.036   1.902   0.188  0.2424  0.0455  1.3793
  556SOL     MW 2224   0.989   1.873   0.115  0.4823  0.1499 -0.3946
  557SOL     OW 2225   0.946   2.680   0.502  0.1165 -0.7701 -0.1598
  557SOL    HW1 2226   0.994   2.615   0.459 -0.2931  1.2012  1.9795
  557SOL    HW2 2227   0.921   2.746   0.432 -1.1089 -0.2800 -3.2032
  557SOL     MW 2228   0.949   2.680   0.487 -0.0992 -0.4454 -0.2791
  558SOL     OW 2229   0.202   2.338   3.013 -0.1632  0.0565 -0.3792
  558SOL    HW1 2230   0.128   2.279   2.993 -0.1667  0.1788  2.0263
  558SOL    HW2 2231   0.162   2.377   3.095 -0.7865 -0.2819 -0.7500
  558SOL     MW 2232   0.187   2.335   3.021 -0.2459  0.0280 -0.1107
  559SOL     OW 2233   1.003   2.334   2.111  0.8948  0.0068 -0.0722
  559SOL    HW1 2234   1.066   2.389   2.155 -0.5258  0.2565  1.6648
  559SOL    HW2 2235   0.981   2.258   2.176  1.1819  0.8845  2.4358
  559SOL     MW 2236   1.008   2.331   2.125  0.7453  0.1555  0.4879
  560SOL     OW 2237   1.995   2.893   0.016  0.5252  0.0285 -0.4186
  560SOL    HW1 2238   2.061   2.929  -0.049 -0.0145 -3.2114  0.5650
  560SOL    HW2 2239   1.969   2.799  -0.002 -1.9743  0.2027 -1.4147
  560SOL     MW 2240   2.000   2.885   0.005  0.1242 -0.3760 -0.4202
  561SOL     OW 2241   0.403   2.182   0.046 -0.3697 -0.5825 -0.5571
  561SOL    HW1 2242   0.352   2.238  -0.015  0.3318 -1.1082  0.7679
  561SOL    HW2 2243   0.457   2.252   0.092 -1.5649  0.0304 -0.4385
  561SOL     MW 2244   0.404   2.199   0.044 -0.4348 -0.5710 -0.3666
  562SOL     OW 2245   0.696   2.197   2.201  0.6721  0.1989  0.6107
  562SOL    HW1 2246   0.705   2.293   2.197  2.1048  2.2033  1.8252
  562SOL    HW2 2247   0.786   2.158   2.225 -1.2364 -0.9925 -2.6563
  562SOL     MW 2248   0.709   2.205   2.204  0.6093  0.3062  0.3399
  563SOL     OW 2249   1.222   0.311   0.572 -0.1923  0.1035 -0.0852
  563SOL    HW1 2250   1.141   0.291   0.524  1.8034  0.4998 -0.5416
  563SOL    HW2 2251   1.241   0.233   0.619  2.4024  0.7387  0.8950
  563SOL     MW 2252   1.214   0.298   0.572  0.4134  0.2396 -0.0161
  564SOL     OW 2253   1.131   2.509   2.296  0.5037 -0.1703  0.1190
  564SOL    HW1 2254   1.149   2.564   2.220  0.3277 -1.3805 -0.7776
  564SOL    HW2 2255   1.139   2.575   2.371  1.0101 -1.8364 -0.7100
  564SOL     MW 2256   1.135   2.525   2.296  0.5473 -0.5498 -0.1087
  565SOL     OW 2257   2.825   2.746   2.652 -0.3770  0.3066  0.1624
  565SOL    HW1 2258   2.860   2.835   2.646 -0.8315 -0.2241  2.5254
  565SOL    HW2 2259   2.764   2.720   2.580  0.7510  2.9644  1.4113
  565SOL     MW 2260   2.821   2.754   2.642 -0.2881  0.5872  0.6389
  566SOL     OW 2261   2.141   1.851   2.360 -0.3407  0.0357  0.4092
  566SOL    HW1 2262   2.179   1.803   2.287  0.9161 -0.5987  1.8595
  566SOL    HW2 2263   2.196   1.931   2.361 -1.6628 -3.3109  1.8194
  566SOL     MW 2264   2.153   1.855   2.351 -0.3493 -0.4895  0.7866
  567SOL     OW 2265   1.188   2.931   3.018 -0.1410  0.4670  0.6274
  567SOL    HW1 2266   1.226   2.999   3.074  0.9921 -0.6464  0.1320
  567SOL    HW2 2267   1.252   2.849   3.006  1.5954  0.6961  1.6945
  567SOL     MW 2268   1.202   2.929   3.024  0.2376  0.3503  0.7028
  568SOL     OW 2269   1.593   2.120   2.896  0.6138 -0.0144  0.7720
  568SOL    HW1 2270   1.649   2.172   2.951 -0.9272  1.6961 -1.5889
  568SOL    HW2 2271   1.649   2.081   2.830  0.1557 -2.2877 -2.1277
  568SOL     MW 2272   1.608   2.122   2.894  0.3501 -0.0886  0.0779
  569SOL     OW 2273   0.176   2.306   2.465 -0.2398  0.7565  0.2261
  569SOL    HW1 2274   0.105   2.325   2.404 -0.6521 -1.6510  1.0917
  569SOL    HW2 2275   0.204   2.382   2.521 -0.1540 -0.9284 -0.6352
  569SOL     MW 2276   0.170   2.319   2.464 -0.2829  0.2165  0.2267
  570SOL     OW 2277   1.488   0.372   0.502  0.9400 -0.3792  0.3463
  570SOL    HW1 2278   1.390   0.362   0.524 -0.6911 -0.1732  1.9482
  570SOL    HW2 2279   1.525   0.398   0.586 -0.0345  0.4099  0.8504
  570SOL     MW 2280   1.480   0.374   0.516  0.5962 -0.2479  0.6241
  571SOL     OW 2281   1.473   2.448   2.003 -0.6176 -0.0093  0.0530
  571SOL    HW1 2282   1.497   2.447   2.095 -1.2312  0.0681  0.5313
  571SOL    HW2 2283   1.507   2.364   1.972 -1.9340 -2.3643 -2.0735
  571SOL     MW 2284   1.481   2.437   2.011 -0.8722 -0.3098 -0.1645
  572SOL     OW 2285   1.073   2.589   0.108 -0.1532 -0.2891  0.0074
  572SOL    HW1 2286   1.087   2.683   0.099  1.9684 -0.8525  1.2837
  572SOL    HW2 2287   0.972   2.570   0.099  0.7850 -1.1250  2.3576
  572SOL     MW 2288   1.062   2.599   0.106  0.2505 -0.4738  0.4859
  573SOL     OW 2289   1.107   2.277   0.193  0.4082  0.0801 -0.0812
  573SOL    HW1 2290   1.191   2.276   0.153  0.6203 -0.8517  1.7553
  573SOL    HW2 2291   1.123   2.350   0.261  0.8791 -0.5531  2.0445
  573SOL     MW 2292   1.120   2.287   0.197  0.4983 -0.1264  0.4416
  574SOL     OW 2293   1.126   2.511   0.365 -0.1053 -0.0990  0.0789
  574SOL    HW1 2294   1.212   2.538   0.397  1.5557 -0.0876 -0.9684
  574SOL    HW2 2295   1.115   2.562   0.281 -0.0065 -0.2708  1.6756
  574SOL     MW 2296   1.136   2.521   0.358  0.1269 -0.1202  0.1514
  575SOL     OW 2297   3.062   2.200   1.814 -0.2118 -0.2180  0.1234
  575SOL    HW1 2298   3.096   2.133   1.750 -3.5059 -1.2152  0.2470
  575SOL    HW2 2299   3.134   2.260   1.820  0.3948  0.1080  0.4285
  575SOL     MW 2300   3.076   2.199   1.807 -0.5664 -0.3066  0.1800
  576SOL     OW 2301   2.790   1.767   2.105 -0.0526  0.2631 -0.1680
  576SOL    HW1 2302   2.800   1.850   2.057  0.3515 -1.6963 -1.1589
  576SOL    HW2 2303   2.706   1.731   2.076  0.6265  1.9614  0.0428
  576SOL     MW 2304   2.780   1.773   2.095  0.0903  0.2286 -0.2709
  577SOL     OW 2305   2.054   0.210   0.092 -0.6441 -0.0938 -0.0943
  577SOL    HW1 2306   1.977   0.244   0.054  0.8017 -0.3434 -2.2496
  577SOL    HW2 2307   2.018   0.149   0.157 -1.2034  0.2809  1.4138
  577SOL     MW 2308   2.039   0.206   0.096 -0.5271 -0.0773 -0.1797
  578SOL     OW 2309   1.938   2.034   2.349 -0.1536  0.5802  0.1050
  578SOL    HW1 2310   1.857   2.031   2.284  1.2529 -0.5068 -3.4220
  578SOL    HW2 2311   1.991   1.959   2.323  0.1442 -0.4089  0.1075
  578SOL     MW 2312   1.934   2.023   2.337  0.0712  0.3063 -0.3601
  579SOL     OW 2313   0.907   2.381   2.425  0.1598  0.0578  0.6116
  579SOL    HW1 2314   0.932   2.332   2.501 -3.4263  0.0297 -0.8328
  579SOL    HW2 2315   0.988   2.398   2.380 -0.2095  0.2286  0.2766
  579SOL     MW 2316   0.921   2.377   2.429 -0.3621  0.0767  0.3768
  580SOL     OW 2317   0.922   2.889   3.075  0.0674 -0.4067  0.7057
  580SOL    HW1 2318   1.014   2.919   3.067 -0.2733  0.4671  1.3165
  580SOL    HW2 2319   0.907   2.849   2.988  0.7217 -0.7568 -1.6562
  580SOL     MW 2320   0.932   2.887   3.063  0.1088 -0.3376  0.4746
  581SOL     OW 2321   1.128   2.470   1.692 -0.0165  0.7503 -0.2318
  581SOL    HW1 2322   1.198   2.523   1.745  1.7934 -0.7396  0.9631
  581SOL    HW2 2323   1.177   2.390   1.658  0.6367 -2.1369 -0.9721
  581SOL     MW 2324   1.144   2.467   1.694  0.3085  0.1728 -0.1718
  582SOL     OW 2325   0.056   2.783   2.606  0.1661  0.0950  0.0612
  582SOL    HW1 2326   0.023   2.854   2.659 -2.7020 -2.1913 -1.0791
  582SOL    HW2 2327   0.137   2.819   2.568  0.2828  4.2600  0.9913
  582SOL     MW 2328   0.062   2.797   2.608 -0.1969  0.3428  0.0335
  583SOL     OW 2329   1.988   2.394   2.651 -0.4408 -0.3251 -0.1939
  583SOL    HW1 2330   2.046   2.432   2.579 -0.6140  1.0812 -2.1319
  583SOL    HW2 2331   1.979   2.298   2.623  0.5815 -0.2901  0.4003
  583SOL     MW 2332   1.995   2.387   2.638 -0.3288 -0.1349 -0.3712
  584SOL     OW 2333   0.105   1.869   2.242 -0.0983  0.6500  0.2969
  584SOL    HW1 2334   0.115   1.847   2.148  0.9613 -1.6442  2.5643
  584SOL    HW2 2335   0.160   1.943   2.269 -1.5150  1.2980  0.4330
  584SOL     MW 2336   0.114   1.876   2.233 -0.1454  0.4328  0.6140
  585SOL     OW 2337   1.586   2.649   0.226  0.7366 -0.2970  0.4299
  585SOL    HW1 2338   1.540   2.591   0.162 -1.3159  1.4856 -0.3623
  585SOL    HW2 2339   1.536   2.636   0.315  1.3456 -0.1857  3.1850
  585SOL     MW 2340   1.573   2.640   0.229  0.5461 -0.0471  0.6889
  586SOL     OW 2341   1.362   2.865   2.559  0.1586 -0.0412  0.3831
  586SOL    HW1 2342   1.422   2.836   2.484 -2.3171 -0.9508  0.4738
  586SOL    HW2 2343   1.346   2.955   2.545  2.6506 -1.3790  1.5148
  586SOL     MW 2344   1.368   2.873   2.547  0.1607 -0.3377  0.5444
  587SOL     OW 2345   1.341   1.600   2.118 -0.1337  0.0371 -0.5512
  587SOL    HW1 2346   1.334   1.523   2.181 -1.0918 -0.4703 -0.2921
  587SOL    HW2 2347   1.309   1.569   2.034  2.1455  0.4355  0.6465
  587SOL     MW 2348   1.336   1.586   2.115  0.0406  0.0227 -0.3590
  588SOL     OW 2349   1.310   2.077   2.695  0.0437 -0.1270 -0.4670
  588SOL    HW1 2350   1.355   1.991   2.708  1.2760 -1.5123 -2.2068
  588SOL    HW2 2351   1.310   2.118   2.784 -1.1328 -0.4360  2.6848
  588SOL     MW 2352   1.316   2.071   2.709  0.0511 -0.3505 -0.2807
  589SOL     OW 2353   1.365   1.999   0.107  0.3365 -0.2532 -0.5646
  589SOL    HW1 2354   1.406   2.078   0.143  1.3172 -0.5192  1.6670
  589SOL    HW2 2355   1.308   1.963   0.174  1.3237 -1.5127  1.4920
  589SOL     MW 2356   1.363   2.004   0.121  0.5961 -0.4545  0.0012
  590SOL     OW 2357   0.489   2.768   2.231 -0.1472 -0.0937  0.5822
  590SOL    HW1 2358   0.454   2.701   2.169 -1.9509 -0.0113  1.0366
  590SOL    HW2 2359   0.580   2.785   2.224 -1.7751  1.9347  0.5711
  590SOL     MW 2360   0.497   2.762   2.222 -0.6000  0.1848  0.6407
  591SOL     OW 2361   2.258   0.641   3.100 -0.2407  0.3249 -0.2036
  591SOL    HW1 2362   2.195   0.678   3.046  2.7519 -3.0680  0.0217
  591SOL    HW2 2363   2.328   0.650   3.039  0.7013  2.8059 -1.9524
  591SOL     MW 2364   2.259   0.647   3.085  0.2784  0.2046 -0.4046
  592SOL     OW 2365   1.758   2.953   0.776 -0.1927  0.1542 -0.2811
  592SOL    HW1 2366   1.736   3.006   0.703  2.8051 -1.4705  0.9737
  592SOL    HW2 2367   1.847   2.923   0.771 -0.8647 -0.3140  0.0796
  592SOL     MW 2368   1.767   2.956   0.766  0.1142 -0.1220 -0.0680
  593SOL     OW 2369   1.961   0.647   0.817  0.1436  0.0314  0.5741
  593SOL    HW1 2370   1.890   0.630   0.751 -0.0304  0.8001 -0.3511
  593SOL    HW2 2371   2.013   0.566   0.813  0.2759 -0.6896  1.6002
  593SOL     MW 2372   1.959   0.634   0.808  0.1381  0.0377  0.5874
  594SOL     OW 2373   2.780   1.170   1.396 -0.1530 -0.1828 -0.2222
  594SOL    HW1 2374   2.864   1.213   1.394  2.6413 -0.4380 -0.9258
  594SOL    HW2 2375   2.765   1.120   1.314 -1.5636  0.1426 -0.9063
  594SOL     MW 2376   2.789   1.169   1.385  0.0296 -0.1735 -0.4053
  595SOL     OW 2377   0.442   0.987   0.812  0.0612 -0.0236  0.4509
  595SOL    HW1 2378   0.471   1.026   0.735  3.6995 -1.6043  0.7045
  595SOL    HW2 2379   0.436   1.064   0.878 -1.8665  2.5594 -0.1040
  595SOL     MW 2380   0.445   1.002   0.811  0.2869  0.1087  0.4112
  596SOL     OW 2381   2.482   1.325   0.569 -0.2431 -0.4869 -0.4004
  596SOL    HW1 2382   2.535   1.392   0.526  1.3050 -3.3087  0.4624
  596SOL    HW2 2383   2.542   1.284   0.633  0.4320 -0.5670  2.1191
  596SOL     MW 2384   2.497   1.328   0.572  0.0502 -0.8698  0.0459
  597SOL     OW 2385   2.195   0.671   1.629 -0.2398 -0.2851  0.2525
  597SOL    HW1 2386   2.206   0.601   1.694 -0.4028 -0.2001 -3.0802
  597SOL    HW2 2387   2.121   0.643   1.581  3.2339 -0.8423  1.7046
  597SOL     MW 2388   2.187   0.658   1.631  0.1970 -0.3474  0.0044
  598SOL     OW 2389   2.558   1.045   2.769 -0.1621  0.4127 -0.2007
  598SOL    HW1 2390   2.566   1.032   2.673  1.2060  1.8575 -0.3548
  598SOL    HW2 2391   2.644   1.079   2.807  1.0021  0.0999 -0.0883
  598SOL     MW 2392   2.571   1.048   2.762  0.1720  0.5621 -0.2062
  599SOL     OW 2393   2.983   0.391   2.050  0.1042  0.0263  0.6269
  599SOL    HW1 2394   3.034   0.430   2.120  1.5615  1.7089 -1.9550
  599SOL    HW2 2395   2.966   0.465   1.990  3.1400  1.5473 -0.7513
  599SOL     MW 2396   2.987   0.406   2.052  0.6970  0.4490  0.1044
  600SOL     OW 2397   1.857   1.595   0.881 -0.0583  0.0852  0.0013
  600SOL    HW1 2398   1.894   1.660   0.940 -2.7127 -1.2873  1.5965
  600SOL    HW2 2399   1.772   1.642   0.872 -1.7735  0.8404  2.0635
  600SOL     MW 2400   1.850   1.610   0.888 -0.6348  0.0038  0.4839
  601SOL     OW 2401   2.512   0.766   0.810  0.1385 -0.0172 -0.4202
  601SOL    HW1 2402   2.512   0.780   0.904 -0.3336  0.2534 -0.8266
  601SOL    HW2 2403   2.430   0.718   0.795 -2.3943 -1.0902 -1.5116
  601SOL     MW 2404   2.501   0.761   0.820 -0.2580 -0.1231 -0.6178
  602SOL     OW 2405   2.277   1.939   0.766 -0.6529  0.7081 -0.2731
  602SOL    HW1 2406   2.260   1.845   0.745  0.1802  0.3671  1.3010
  602SOL    HW2 2407   2.193   1.981   0.750 -1.5905 -0.4545 -0.1189
  602SOL     MW 2408   2.264   1.932   0.761 -0.6667  0.5097 -0.0451
  603SOL     OW 2409   0.009   1.346   1.831 -0.0975  0.0520  0.4760
  603SOL    HW1 2410   0.049   1.426   1.863 -0.8481 -1.3084  3.7074
  603SOL    HW2 2411   0.029   1.282   1.898 -0.7055  2.9145  1.5773
  603SOL     MW 2412   0.017   1.348   1.844 -0.2767  0.2502  1.0476
  604SOL     OW 2413   2.110   1.542   0.465 -0.5890  0.3698 -0.2879
  604SOL    HW1 2414   2.094   1.454   0.492 -0.3374  1.7965  1.8525
  604SOL    HW2 2415   2.036   1.584   0.500  2.3807 -1.4355 -1.5886
  604SOL     MW 2416   2.098   1.536   0.473 -0.1640  0.3199 -0.1771
  605SOL     OW 2417   2.530   1.483   0.872 -0.3788  0.4278  0.5461
  605SOL    HW1 2418   2.532   1.538   0.798 -1.2401 -1.2024  3.9301
  605SOL    HW2 2419   2.571   1.405   0.846 -1.5257  0.7205  1.7733
  605SOL     MW 2420   2.536   1.480   0.859 -0.6437  0.2514  1.1545
  606SOL     OW 2421   2.533   1.688   2.022  0.1214  0.3379 -0.0238
  606SOL    HW1 2422   2.451   1.733   1.992  1.2419  1.5343  0.7320
  606SOL    HW2 2423   2.568   1.639   1.946 -2.0525 -0.1171  1.3266
  606SOL     MW 2424   2.527   1.687   2.008 -0.0176  0.4357  0.2541
  607SOL     OW 2425   2.437   1.062   3.024  0.2487 -0.7051 -0.2457
  607SOL    HW1 2426   2.492   1.042   2.943  0.3002  0.1769 -0.5321
  607SOL    HW2 2427   2.478   1.030   3.104 -2.9136  1.7529 -0.9822
  607SOL     MW 2428   2.450   1.055   3.024 -0.1617 -0.2644 -0.3807
  608SOL     OW 2429   1.857   0.283   0.576 -0.0043  0.3365  0.1443
  608SOL    HW1 2430   1.880   0.335   0.499  0.2507 -1.4124 -3.6512
  608SOL    HW2 2431   1.811   0.204   0.542 -2.9705 -0.5402  1.0720
  608SOL     MW 2432   1.854   0.279   0.561 -0.3620 -0.0099 -0.2341
  609SOL     OW 2433   2.057   1.960   3.046  0.4488 -0.3242  0.8564
  609SOL    HW1 2434   1.982   1.899   3.044  1.5137  1.3421  0.2012
  609SOL    HW2 2435   2.091   1.942   3.138  0.0868  1.1914  0.6458
  609SOL     MW 2436   2.052   1.950   3.058  0.5416  0.0956  0.7422
  610SOL     OW 2437   1.802   0.972   1.238  0.7689 -0.7483 -0.2706
  610SOL    HW1 2438   1.843   0.903   1.181 -0.2508  2.2601 -2.1484
  610SOL    HW2 2439   1.713   0.953   1.209 -1.2933  0.6518  0.6767
  610SOL     MW 2440   1.796   0.960   1.226  0.3623 -0.1667 -0.3934
  611SOL     OW 2441   2.530   1.691   0.672  0.4788 -0.1480 -0.3331
  611SOL    HW1 2442   2.509   1.752   0.605 -2.8231 -0.1884 -0.0728
  611SOL    HW2 2443   2.444   1.688   0.719  2.0102 -1.0833 -0.2616
  611SOL     MW 2444   2.516   1.699   0.669  0.2452 -0.2768 -0.2893
  612SOL     OW 2445   2.863   2.896   0.365 -0.2548  0.1440 -0.1322
  612SOL    HW1 2446   2.895   2.919   0.454  1.7875 -0.6937 -0.5891
  612SOL    HW2 2447   2.931   2.844   0.326 -1.2404  0.0644  1.4033
  612SOL     MW 2448   2.876   2.892   0.372 -0.1154  0.0230  0.0101
  613SOL     OW 2449   1.450   1.030   0.899 -0.0428  0.3276 -0.1978
  613SOL    HW1 2450   1.463   1.127   0.889  1.3158  0.6316  2.8243
  613SOL    HW2 2451   1.485   0.997   0.982  1.7969 -1.9104  0.8291
  613SOL     MW 2452   1.456   1.039   0.909  0.3792  0.0724  0.3364
  614SOL     OW 2453   1.984   0.535   1.481 -0.0495 -0.3832  0.3917
  614SOL    HW1 2454   1.980   0.454   1.544 -1.8850 -2.7019  0.6036
  614SOL    HW2 2455   1.943   0.524   1.394 -0.3793  1.5482 -0.8811
  614SOL     MW 2456   1.978   0.523   1.478 -0.3352 -0.4343  0.2517
  615SOL     OW 2457   2.319   0.771   0.254 -0.3828  0.1790  0.2016
  615SOL    HW1 2458   2.378   0.699   0.250  0.2406  1.5113  1.2072
  615SOL    HW2 2459   2.278   0.757   0.173  1.4398 -1.5968  2.7317
  615SOL     MW 2460   2.321   0.760   0.243 -0.0601  0.1205  0.6681
  616SOL     OW 2461   2.498   0.409   1.670 -0.1054  0.0268  0.4416
  616SOL    HW1 2462   2.518   0.330   1.621  1.5477  2.7828  1.3781
  616SOL    HW2 2463   2.498   0.473   1.596 -1.3501 -0.3244 -1.4857
  616SOL     MW 2464   2.501   0.407   1.654 -0.0515  0.3441  0.3108
  617SOL     OW 2465   2.791   0.622   1.702 -0.0065 -0.4872 -0.1820
  617SOL    HW1 2466   2.732   0.676   1.757  1.2902 -1.8907 -1.5797
  617SOL    HW2 2467   2.736   0.550   1.672 -1.8145 -0.4087  1.8616
  617SOL     MW 2468   2.776   0.620   1.705 -0.0740 -0.6621 -0.0968
  618SOL     OW 2469   2.707   0.353   1.951 -0.3805  0.6875  0.5969
  618SOL    HW1 2470   2.655   0.435   1.963 -1.4975 -0.0698 -0.1435
  618SOL    HW2 2471   2.746   0.336   2.037 -0.3994 -0.6463  1.6440
  618SOL     MW 2472   2.705   0.361   1.964 -0.5304  0.4116  0.6373
  619SOL     OW 2473   2.645   0.740   0.045 -0.6382  0.3165 -0.4754
  619SOL    HW1 2474   2.668   0.826   0.078  0.1113 -0.7916 -1.4412
  619SOL    HW2 2475   2.603   0.697   0.118  0.0814  1.8906 -1.1810
  619SOL     MW 2476   2.642   0.746   0.059 -0.4444  0.3780 -0.6959
  620SOL     OW 2477   2.210   1.040   0.911  0.2506 -0.0384  0.0207
  620SOL    HW1 2478   2.295   1.029   0.861  0.5554 -0.7258 -2.2310
  620SOL    HW2 2479   2.142   0.975   0.895 -0.9362  1.4619  0.6567
  620SOL     MW 2480   2.212   1.030   0.902  0.1342  0.0689 -0.1924
  621SOL     OW 2481   1.561   2.200   1.925 -0.0751 -0.5112  0.3977
  621SOL    HW1 2482   1.502   2.133   1.971 -0.4583  1.7281 -1.2478
  621SOL    HW2 2483   1.653   2.169   1.943  2.8186  2.0998 -0.9964
  621SOL     MW 2484   1.565   2.187   1.934  0.2561  0.1287 -0.0033
  622SOL     OW 2485   2.631   0.199   0.242  0.7290  0.2654 -0.0647
  622SOL    HW1 2486   2.719   0.234   0.241  1.4687 -0.5567 -0.9884
  622SOL    HW2 2487   2.639   0.104   0.269  0.2064  0.2498  1.3517
  622SOL     MW 2488   2.644   0.191   0.246  0.7577  0.1549  0.0003
  623SOL     OW 2489   2.445   2.759   0.846  0.5694 -0.5546 -0.0956
  623SOL    HW1 2490   2.527   2.806   0.826  1.0203  0.9395 -0.6591
  623SOL    HW2 2491   2.412   2.788   0.931  0.9979  1.5355 -1.2433
  623SOL     MW 2492   2.452   2.769   0.855  0.6854 -0.0817 -0.3214
  624SOL     OW 2493   2.157   1.640   3.031  0.1376 -0.7227  0.3615
  624SOL    HW1 2494   2.094   1.572   3.046 -1.4290 -4.3435 -2.0740
  624SOL    HW2 2495   2.099   1.716   3.008 -2.6058  3.1929 -0.4432
  624SOL     MW 2496   2.141   1.641   3.030 -0.4311 -0.6838 -0.0660
  625SOL     OW 2497   2.213   1.872   1.061  1.0402  0.8609  0.4681
  625SOL    HW1 2498   2.290   1.871   1.120 -1.4458  0.3895  0.5061
  625SOL    HW2 2499   2.241   1.905   0.977 -0.8921 -1.5698 -1.1148
  625SOL     MW 2500   2.226   1.877   1.058  0.4572  0.4780  0.2643
  626SOL     OW 2501   0.282   1.733   2.430  0.1815  0.6712 -0.2923
  626SOL    HW1 2502   0.221   1.677   2.475  0.4865  2.5240  0.6673
  626SOL    HW2 2503   0.222   1.783   2.371 -0.8709  2.4012  2.2107
  626SOL     MW 2504   0.266   1.732   2.428  0.0829  1.1439  0.1645
  627SOL     OW 2505   2.491   0.724   2.545  0.8711  0.1522  0.3478
  627SOL    HW1 2506   2.466   0.817   2.554 -2.0402  0.3835  0.6970
  627SOL    HW2 2507   2.448   0.704   2.464 -1.0659 -1.7658  0.7210
  627SOL     MW 2508   2.482   0.734   2.535  0.2314 -0.0703  0.4431
  628SOL     OW 2509   2.272   1.383   1.308 -0.3589 -0.7992 -0.4039
  628SOL    HW1 2510   2.225   1.312   1.260  0.1153 -0.5051  2.3844
  628SOL    HW2 2511   2.355   1.397   1.254  0.3033  2.0474 -3.2501
  628SOL     MW 2512   2.277   1.376   1.295 -0.2090 -0.3848 -0.4115
  629SOL     OW 2513   1.870   0.545   1.228  0.2691 -0.3097 -0.1373
  629SOL    HW1 2514   1.855   0.617   1.170  0.3718 -1.5835 -1.4068
  629SOL    HW2 2515   1.788   0.496   1.240  1.5135 -1.3815  1.9438
  629SOL     MW 2516   1.858   0.548   1.222  0.4468 -0.6192 -0.0302
  630SOL     OW 2517   2.368   1.879   3.056  0.5786  0.0270 -0.3142
  630SOL    HW1 2518   2.364   1.951   2.984 -2.3383  0.1722  1.3901
  630SOL    HW2 2519   2.291   1.826   3.053 -2.0541  0.9950 -0.6526
  630SOL     MW 2520   2.358   1.882   3.046 -0.1536  0.1739 -0.1340
  631SOL     OW 2521   2.059   1.731   1.546 -0.6977 -0.6019 -0.3045
  631SOL    HW1 2522   2.072   1.650   1.597 -0.8591 -4.8241  1.3267
  631SOL    HW2 2523   1.997   1.707   1.477  1.9518 -1.3324  0.2346
  631SOL     MW 2524   2.052   1.717   1.544 -0.3694 -1.2553 -0.0181
  632SOL     OW 2525   0.238   1.985   1.420 -0.1654 -0.1864  0.4480
  632SOL    HW1 2526   0.180   1.970   1.497  3.0790  0.0268  0.3662
  632SOL    HW2 2527   0.272   1.902   1.407 -0.4249 -0.5918  0.5593
  632SOL     MW 2528   0.234   1.972   1.428  0.2284 -0.2118  0.4519
  633SOL     OW 2529   2.547   0.616   0.256 -0.5323 -0.1437 -0.3965
  633SOL    HW1 2530   2.559   0.642   0.345 -2.7230 -1.0694 -0.9382
  633SOL    HW2 2531   2.522   0.523   0.266 -1.8013  1.9770  2.0945
  633SOL     MW 2532   2.546   0.607   0.269 -0.9888  0.0140 -0.1393
  634SOL     OW 2533   2.678   0.032   0.654 -0.0255 -0.4301  0.0871
  634SOL    HW1 2534   2.726   0.119   0.664  1.9713  2.1415  1.7367
  634SOL    HW2 2535   2.657   0.025   0.560  1.5755 -2.9010 -1.4849
  634SOL     MW 2536   2.682   0.042   0.643  0.4492 -0.4169  0.0974
  635SOL     OW 2537   2.583   0.137   1.834 -0.3534 -0.2791 -0.5043
  635SOL    HW1 2538   2.649   0.091   1.774 -0.0882  1.0623 -0.0317
  635SOL    HW2 2539   2.636   0.212   1.876  3.7135 -0.9839  2.6524
  635SOL     MW 2540   2.599   0.141   1.831  0.2182 -0.1951 -0.0254
  636SOL     OW 2541   2.829   1.588   0.891 -0.4711 -0.5941 -0.8265
  636SOL    HW1 2542   2.753   1.641   0.897  0.4194 -0.5979  1.5328
  636SOL    HW2 2543   2.896   1.637   0.935  0.0959 -1.3018 -0.0142
  636SOL     MW 2544   2.828   1.601   0.897 -0.2788 -0.6880 -0.4080
  637SOL     OW 2545   2.873   1.477   0.631  0.4796  0.5582 -0.6849
  637SOL    HW1 2546   2.908   1.563   0.602 -0.8299  0.9229  0.7661
  637SOL    HW2 2547   2.857   1.493   0.728 -1.2368 -4.2059  1.6110
  637SOL     MW 2548   2.876   1.490   0.640  0.0804 -0.0222 -0.1905
  638SOL     OW 2549   2.660   0.506   0.510  0.2362 -0.2203 -0.3271
  638SOL    HW1 2550   2.745   0.516   0.472 -0.1673 -0.6187 -0.7075
  638SOL    HW2 2551   2.673   0.529   0.606 -1.0461 -1.9652  0.3310
  638SOL     MW 2552   2.673   0.510   0.518  0.0138 -0.5031 -0.2905
  639SOL     OW 2553   1.704   0.028   0.560  0.3590  0.3144  0.0693
  639SOL    HW1 2554   1.606   0.030   0.537 -2.1591 -2.2673 -1.8887
  639SOL    HW2 2555   1.730  -0.044   0.499  0.3820  0.1704  2.6377
  639SOL     MW 2556   1.694   0.019   0.549  0.0298 -0.0453  0.1498
  640SOL     OW 2557   0.265   1.322   0.097  0.0931  0.4286 -0.6247
  640SOL    HW1 2558   0.305   1.321   0.008  1.1927 -0.3463  0.3903
  640SOL    HW2 2559   0.245   1.231   0.112  0.2212  1.6571 -0.8073
  640SOL     MW 2560   0.268   1.310   0.087  0.2551  0.4884 -0.5149
  641SOL     OW 2561   2.239   0.425   0.401  0.3116  0.0872 -0.0685
  641SOL    HW1 2562   2.243   0.415   0.308 -1.1128 -0.2015 -0.2412
  641SOL    HW2 2563   2.313   0.388   0.437 -1.9140  0.4515 -2.0893
  641SOL     MW 2564   2.249   0.419   0.394 -0.1700  0.0972 -0.3579
  642SOL     OW 2565   0.043   0.015   0.512  0.6310  0.4848 -0.6330
  642SOL    HW1 2566   0.006   0.099   0.517 -0.7941 -1.7836 -0.5067
  642SOL    HW2 2567  -0.035  -0.040   0.542  0.1038 -2.2198 -0.3901
  642SOL     MW 2568   0.028   0.018   0.517  0.3734 -0.1713 -0.5843
  643SOL     OW 2569   2.009   0.353   1.690 -0.3173 -0.2641  0.4972
  643SOL    HW1 2570   1.958   0.307   1.749  0.4351  1.5736  1.2786
  643SOL    HW2 2571   2.029   0.290   1.615  1.5317 -2.2032  0.8420
  643SOL     MW 2572   2.005   0.338   1.688  0.0259 -0.2775  0.6458
  644SOL     OW 2573   2.680   1.910   1.037 -0.7388 -0.7386 -0.1312
  644SOL    HW1 2574   2.686   1.841   1.105  2.1626 -0.2332 -0.9617
  644SOL    HW2 2575   2.590   1.939   1.030 -1.0687  1.0772 -0.0512
  644SOL     MW 2576   2.669   1.904   1.045 -0.3995 -0.4324 -0.2302
  645SOL     OW 2577   2.818   0.842   0.648 -0.3380  0.1729  0.5439
  645SOL    HW1 2578   2.889   0.795   0.687 -1.3672 -0.8450 -0.3617
  645SOL    HW2 2579   2.742   0.788   0.648  0.9095  2.2175 -0.9397
  645SOL     MW 2580   2.818   0.829   0.653 -0.3092  0.3083  0.2287
  646SOL     OW 2581   0.067   2.264   0.864  0.1432  0.2111 -0.3475
  646SOL    HW1 2582   0.087   2.170   0.862  1.2558 -1.4725 -0.7815
  646SOL    HW2 2583   0.038   2.299   0.781  1.4875 -1.7115 -1.4155
  646SOL     MW 2584   0.066   2.256   0.853  0.4673 -0.2647 -0.5457
  647SOL     OW 2585   2.718   0.499   2.939  0.1000 -0.0227  0.1251
  647SOL    HW1 2586   2.647   0.452   2.984 -1.3105 -3.0498 -1.0023
  647SOL    HW2 2587   2.682   0.587   2.943  1.1092  0.2344  2.8041
  647SOL     MW 2588   2.704   0.504   2.945  0.0470 -0.3882  0.3298
  648SOL     OW 2589   2.198   0.718   1.149  0.1443  0.4773 -0.9000
  648SOL    HW1 2590   2.232   0.642   1.193  0.9865 -1.8684 -0.0900
  648SOL    HW2 2591   2.191   0.790   1.211  2.2353  3.4272 -1.1578
  648SOL     MW 2592   2.201   0.718   1.163  0.5313  0.5570 -0.8271
  649SOL     OW 2593   2.378   2.688   1.341  0.4458  0.4514  0.0684
  649SOL    HW1 2594   2.465   2.712   1.367  0.5337 -0.0943  0.0473
  649SOL    HW2 2595   2.401   2.603   1.298  0.4880 -3.4904  3.3241
  649SOL     MW 2596   2.393   2.680   1.339  0.4630 -0.1407  0.4952
  650SOL     OW 2597   2.843   0.234   0.681 -0.0594  0.1879  0.1221
  650SOL    HW1 2598   2.870   0.319   0.714 -1.2615  0.2087  0.7926
  650SOL    HW2 2599   2.902   0.224   0.603 -0.8189  0.1479  2.1116
  650SOL     MW 2600   2.854   0.244   0.675 -0.3182  0.1854  0.4730
  651SOL     OW 2601   3.073   0.441   0.997  0.6239 -0.1094  0.1458
  651SOL    HW1 2602   3.141   0.465   0.928  0.8470 -0.1215  1.5031
  651SOL    HW2 2603   3.010   0.515   0.993  0.2608  0.7351 -0.2557
  651SOL     MW 2604   3.074   0.454   0.987  0.6054  0.0004  0.2719
  652SOL     OW 2605   2.400   1.555   3.052 -0.7937 -0.0061 -0.3397
  652SOL    HW1 2606   2.446   1.561   2.970  1.4263  1.4538 -1.2019
  652SOL    HW2 2607   2.316   1.602   3.026  1.8563  0.6699  0.2081
  652SOL     MW 2608   2.395   1.562   3.038 -0.1511  0.2757 -0.3812
  653SOL     OW 2609   1.803   0.463   0.333 -0.1426 -0.0670 -0.5061
  653SOL    HW1 2610   1.728   0.403   0.305  0.2768  0.2379  1.1803
  653SOL    HW2 2611   1.842   0.469   0.248 -2.3439 -3.2378  0.0380
  653SOL     MW 2612   1.798   0.456   0.318 -0.3777 -0.4451 -0.2118
  654SOL     OW 2613   2.434   1.004   0.734  0.4924 -0.3007 -0.4645
  654SOL    HW1 2614   2.380   0.990   0.655  1.8623  1.1718 -0.0709
  654SOL    HW2 2615   2.482   0.924   0.752 -2.3639  1.0108  0.7276
  654SOL     MW 2616   2.434   0.992   0.726  0.2963  0.0666 -0.2553
  655SOL     OW 2617   2.895   0.855   0.389  0.2480 -0.3181  0.0415
  655SOL    HW1 2618   2.885   0.853   0.483 -0.9338 -0.4204  0.1744
  655SOL    HW2 2619   2.905   0.762   0.359 -1.5293  1.2346  0.3398
  655SOL     MW 2620   2.895   0.843   0.398 -0.1424 -0.1267  0.0984
  656SOL     OW 2621   1.762   2.664   1.363 -0.4062  0.2262  0.0745
  656SOL    HW1 2622   1.830   2.732   1.387 -1.4318 -1.3614  0.2960
  656SOL    HW2 2623   1.811   2.585   1.355 -0.3811  1.2218 -0.6960
  656SOL     MW 2624   1.777   2.663   1.365 -0.5382  0.1481  0.0021
  657SOL     OW 2625   0.148   1.760   1.169  0.2145 -0.0165  0.0336
  657SOL    HW1 2626   0.239   1.794   1.153  0.1816  0.6388  1.5723
  657SOL    HW2 2627   0.167   1.671   1.161  0.8406  1.4048 -1.1527
  657SOL     MW 2628   0.163   1.752   1.166  0.2928  0.2575  0.0801
  658SOL     OW 2629   2.647   1.300   0.249 -0.3229  0.1254  0.0392
  658SOL    HW1 2630   2.636   1.218   0.302 -1.0592 -2.6312  3.1873
  658SOL    HW2 2631   2.673   1.365   0.321  2.1663 -1.3726  1.4132
  658SOL     MW 2632   2.649   1.298   0.265 -0.0916 -0.4359  0.6358
  659SOL     OW 2633   2.255   1.546   0.974 -0.2692 -0.2764 -0.1444
  659SOL    HW1 2634   2.346   1.517   0.993 -1.7422  0.1362 -0.3775
  659SOL    HW2 2635   2.224   1.594   1.061  1.8327  2.9806  1.6802
  659SOL     MW 2636   2.263   1.548   0.988 -0.1862  0.2077  0.0656
  660SOL     OW 2637   2.105   1.508   1.708  0.4871 -0.5364  0.5642
  660SOL    HW1 2638   2.121   1.548   1.797 -1.8160 -0.8431 -0.3907
  660SOL    HW2 2639   2.018   1.462   1.714 -0.6462  3.1983  1.4657
  660SOL     MW 2640   2.096   1.507   1.721  0.0337 -0.0841  0.5572
  661SOL     OW 2641   2.494   0.963   0.162  0.2847 -0.7692  0.9077
  661SOL    HW1 2642   2.533   1.005   0.236 -0.3330 -1.0797  0.6235
  661SOL    HW2 2643   2.412   0.919   0.199  1.8495  0.8715  4.1680
  661SOL     MW 2644   2.489   0.963   0.176  0.4097 -0.5937  1.3004
  662SOL     OW 2645   2.589   3.018   0.905  0.3395 -0.6259  0.1549
  662SOL    HW1 2646   2.511   3.073   0.927  0.0679 -0.4927 -0.7512
  662SOL    HW2 2647   2.606   3.053   0.820 -0.8943 -0.4223  0.1385
  662SOL     MW 2648   2.581   3.030   0.897  0.1409 -0.5815  0.0332
  663SOL     OW 2649   2.678   1.479   0.441 -0.3511 -0.2570 -0.5387
  663SOL    HW1 2650   2.624   1.558   0.429  0.0183  1.5666  1.1040
  663SOL    HW2 2651   2.742   1.487   0.512 -2.4038  0.8805 -2.3383
  663SOL     MW 2652   2.680   1.491   0.448 -0.5732  0.1337 -0.5594
  664SOL     OW 2653   2.568   1.540   1.595 -0.3954 -0.3205  0.3797
  664SOL    HW1 2654   2.560   1.633   1.577 -0.2402 -0.3740  0.1149
  664SOL    HW2 2655   2.479   1.498   1.591  1.8488  1.9090  2.2328
  664SOL     MW 2656   2.555   1.547   1.592 -0.0789 -0.0334  0.5892
  665SOL     OW 2657   2.775   0.822   2.031 -0.3469 -0.7452 -0.0127
  665SOL    HW1 2658   2.749   0.863   1.949 -1.5985  0.4575  1.0814
  665SOL    HW2 2659   2.833   0.748   2.006  1.4348  1.7990 -2.5274
  665SOL     MW 2660   2.779   0.817   2.017 -0.2769 -0.2508 -0.2001
  666SOL     OW 2661   2.764   3.088   1.716 -0.0534 -0.1423  0.2719
  666SOL    HW1 2662   2.764   3.065   1.621 -3.3123  0.9187 -0.2525
  666SOL    HW2 2663   2.722   3.009   1.754 -1.6914 -0.2827 -1.4765
  666SOL     MW 2664   2.758   3.074   1.708 -0.6995 -0.0208 -0.0280
  667SOL     OW 2665   1.950   2.690   1.759 -0.1018  0.5788 -0.3443
  667SOL    HW1 2666   1.982   2.665   1.845 -0.2563 -1.0044 -1.1721
  667SOL    HW2 2667   2.020   2.747   1.725 -0.5546  0.9034  0.3066
  667SOL     MW 2668   1.963   2.695   1.766 -0.1820  0.4127 -0.3676
  668SOL     OW 2669   2.704   0.574   0.795 -0.8515  0.0167  0.1661
  668SOL    HW1 2670   2.785   0.607   0.830  0.0475 -1.4765 -0.9527
  668SOL    HW2 2671   2.635   0.656   0.799  1.2732 -1.0367 -0.8019
  668SOL     MW 2672   2.706   0.589   0.800 -0.4526 -0.3193 -0.1093
  669SOL     OW 2673   0.135   0.871   0.741  0.2703 -0.2269  0.8651
  669SOL    HW1 2674   0.100   0.934   0.809 -1.6403 -0.1127  1.7615
  669SOL    HW2 2675   0.219   0.827   0.773 -1.1282 -1.9630  2.2366
  669SOL     MW 2676   0.141   0.873   0.754 -0.1663 -0.4409  1.1643
  670SOL     OW 2677   2.874   0.288   0.198  0.3498 -0.0085 -0.4255
  670SOL    HW1 2678   2.901   0.244   0.111  0.9964 -0.2759 -0.6068
  670SOL    HW2 2679   2.887   0.386   0.183  1.6015  2.4256  1.4259
  670SOL     MW 2680   2.879   0.295   0.185  0.6003  0.2774 -0.2051
  671SOL     OW 2681   2.012   3.063   1.569 -0.5858  0.1264  0.0422
  671SOL    HW1 2682   1.965   2.989   1.528  1.0122 -1.0671  0.2130
  671SOL    HW2 2683   1.965   3.094   1.647 -1.2324  0.3230  0.3490
  671SOL     MW 2684   2.000   3.057   1.574 -0.4603 -0.0051  0.1052
  672SOL     OW 2685   1.906   1.693   1.311  0.0249 -0.3635  0.6177
  672SOL    HW1 2686   1.834   1.753   1.340  0.5356  1.6655  2.2859
  672SOL    HW2 2687   1.931   1.733   1.222  1.1937 -0.3143 -1.0709
  672SOL     MW 2688   1.900   1.706   1.303  0.2465 -0.0893  0.6150
  673SOL     OW 2689   2.794   1.112   0.631  0.1214 -0.7087  0.2954
  673SOL    HW1 2690   2.806   1.018   0.642 -1.4589 -0.0432  2.7055
  673SOL    HW2 2691   2.880   1.160   0.635  0.5983  1.3994 -0.8452
  673SOL     MW 2692   2.807   1.106   0.633 -0.0242 -0.3428  0.4629
  674SOL     OW 2693   2.454   3.089   1.254 -0.2575  0.5534 -0.5119
  674SOL    HW1 2694   2.401   3.103   1.171  0.6681  1.9997  1.2072
  674SOL    HW2 2695   2.429   2.999   1.269  0.7248  0.6428 -2.6462
  674SOL     MW 2696   2.444   3.079   1.245 -0.0057  0.7560 -0.5667
  675SOL     OW 2697   3.049   0.881   1.087 -0.3418  0.0378  0.2628
  675SOL    HW1 2698   3.094   0.900   1.172  0.0883 -2.0381  1.1147
  675SOL    HW2 2699   3.069   0.949   1.029  0.1888 -1.5576  2.8838
  675SOL     MW 2700   3.058   0.893   1.091 -0.2151 -0.4466  0.7210
  676SOL     OW 2701   2.950   1.479   1.645 -0.0072  0.2657 -0.4285
  676SOL    HW1 2702   2.885   1.412   1.660 -1.9731  1.0129  2.8957
  676SOL    HW2 2703   3.006   1.440   1.709 -0.2210  0.3457 -1.1182
  676SOL     MW 2704   2.949   1.465   1.656 -0.2948  0.3749 -0.0809
  677SOL     OW 2705   2.366   0.612   2.018  0.3658  0.6529  0.6576
  677SOL    HW1 2706   2.329   0.565   1.946 -0.1536  3.0089  0.6145
  677SOL    HW2 2707   2.337   0.709   2.000 -2.6832  0.7202  4.5572
  677SOL     MW 2708   2.357   0.618   2.006 -0.1050  0.9726  1.1664
  678SOL     OW 2709   2.494   1.677   0.318 -0.5996  0.0072 -0.1259
  678SOL    HW1 2710   2.432   1.702   0.383  2.3054  0.4510 -0.3038
  678SOL    HW2 2711   2.457   1.600   0.278 -0.8638  1.8963  2.2906
  678SOL     MW 2712   2.481   1.670   0.322 -0.2512  0.3150  0.1694
  679SOL     OW 2713   2.224   0.472   1.296 -0.5648 -0.2941  0.2392
  679SOL    HW1 2714   2.217   0.389   1.249  0.4423 -0.9427  0.4989
  679SOL    HW2 2715   2.145   0.490   1.347 -0.8263 -2.0107  3.5740
  679SOL     MW 2716   2.212   0.463   1.297 -0.4664 -0.6061  0.7134
  680SOL     OW 2717   2.374   0.179   1.455  0.2768 -0.2676 -0.3744
  680SOL    HW1 2718   2.279   0.192   1.478 -0.5114  0.7838  1.4107
  680SOL    HW2 2719   2.388   0.118   1.390 -2.4164  2.1881  1.7182
  680SOL     MW 2720   2.364   0.173   1.449 -0.1825  0.1951  0.1372
  681SOL     OW 2721   0.274   0.549   1.565 -0.6135  0.8722  0.4381
  681SOL    HW1 2722   0.268   0.489   1.648 -0.5722 -0.8199  2.4090
  681SOL    HW2 2723   0.364   0.541   1.535  2.1441 -0.7885  0.4670
  681SOL     MW 2724   0.285   0.540   1.572 -0.2442  0.4298  0.7020
  682SOL     OW 2725   0.130   2.830   1.534 -0.1430 -0.4874  0.2886
  682SOL    HW1 2726   0.217   2.862   1.565  1.5168 -1.1043 -1.6542
  682SOL    HW2 2727   0.071   2.895   1.568  0.0818 -1.2435  1.3175
  682SOL     MW 2728   0.134   2.843   1.543  0.1056 -0.6685  0.1680
  683SOL     OW 2729   2.063   0.790   2.945 -0.1172  0.1122 -0.1490
  683SOL    HW1 2730   1.977   0.765   2.917  2.0359  1.5468  1.7141
  683SOL    HW2 2731   2.057   0.880   2.981  2.0336  0.0145 -1.9441
  683SOL     MW 2732   2.050   0.799   2.946  0.4507  0.2886 -0.1400
  684SOL     OW 2733   2.259   1.683   0.737 -0.2219 -0.3923 -0.6274
  684SOL    HW1 2734   2.217   1.623   0.676 -1.0102  2.5339 -0.1430
  684SOL    HW2 2735   2.257   1.647   0.828 -0.1351  0.6887 -0.3240
  684SOL     MW 2736   2.253   1.670   0.741 -0.3145  0.1364 -0.5235
  685SOL     OW 2737   2.641   1.702   1.234  0.0014 -0.0211  0.7190
  685SOL    HW1 2738   2.716   1.666   1.281  1.2704  0.1731 -1.3243
  685SOL    HW2 2739   2.593   1.627   1.207  1.7605  0.6717 -1.0872
  685SOL     MW 2740   2.644   1.687   1.237  0.4009  0.0959  0.2111
  686SOL     OW 2741   2.908   0.741   1.478 -0.0219  0.3102 -0.5633
  686SOL    HW1 2742   2.878   0.688   1.549  1.5360 -1.6093  0.1193
  686SOL    HW2 2743   3.005   0.721   1.479 -0.6816 -0.3275  1.7622
  686SOL     MW 2744   2.917   0.732   1.488  0.0966 -0.0272 -0.1664
  687SOL     OW 2745   2.151   0.210   1.211 -0.0592  0.1055 -0.0044
  687SOL    HW1 2746   2.199   0.153   1.151 -0.6753  0.9934  0.1749
  687SOL    HW2 2747   2.088   0.255   1.161  1.7754 -0.4978 -0.6290
  687SOL     MW 2748   2.149   0.208   1.197  0.1016  0.1430 -0.0632
  688SOL     OW 2749   2.424   0.598   1.465  0.4673 -0.1053  0.0280
  688SOL    HW1 2750   2.365   0.554   1.401 -0.3594  0.7891 -0.7640
  688SOL    HW2 2751   2.376   0.644   1.532  2.3809  2.6269  0.2554
  688SOL     MW 2752   2.410   0.598   1.465  0.6107  0.3732 -0.0465
  689SOL     OW 2753   2.488   0.697   2.951  0.1141  0.0370  0.2231
  689SOL    HW1 2754   2.467   0.792   2.938  0.8508 -0.1035  1.0514
  689SOL    HW2 2755   2.530   0.707   3.040 -1.4081 -1.7251 -0.1987
  689SOL     MW 2756   2.491   0.711   2.961  0.0105 -0.2140  0.2767
  690SOL     OW 2757   1.987   0.826   1.875  0.2441  0.3125  0.6865
  690SOL    HW1 2758   1.952   0.739   1.894  0.1382  1.7599 -0.1152
  690SOL    HW2 2759   1.975   0.826   1.778  0.3961 -2.7038 -0.4065
  690SOL     MW 2760   1.981   0.814   1.865  0.2502  0.1055  0.4365
  691SOL     OW 2761   2.389   0.244   0.852 -0.5019 -0.5335  0.0711
  691SOL    HW1 2762   2.452   0.262   0.918  0.0394 -2.1707 -2.1607
  691SOL    HW2 2763   2.341   0.326   0.838  2.5418  0.2082 -1.4456
  691SOL     MW 2764   2.391   0.257   0.859 -0.0289 -0.6516 -0.4235
  692SOL     OW 2765   2.874   1.660   1.456  0.8775 -0.5759  0.2290
  692SOL    HW1 2766   2.897   1.604   1.530 -0.1990 -1.0907  2.7293
  692SOL    HW2 2767   2.903   1.753   1.488  1.6384  0.4271 -0.2240
  692SOL     MW 2768   2.881   1.665   1.470  0.8359 -0.5115  0.4991
  693SOL     OW 2769   2.251   0.388   0.142 -0.2077  0.4782  0.1572
  693SOL    HW1 2770   2.185   0.321   0.124 -2.6229  0.0136 -1.8866
  693SOL    HW2 2771   2.226   0.465   0.093  0.1680 -0.3483  2.0847
  693SOL     MW 2772   2.239   0.389   0.133 -0.4768  0.3079  0.1418
  694SOL     OW 2773   1.917   1.213   1.177 -0.2170  0.1449 -0.4388
  694SOL    HW1 2774   2.006   1.174   1.193 -0.3935 -2.4770 -2.8965
  694SOL    HW2 2775   1.855   1.142   1.203  0.2286 -1.7191 -3.0370
  694SOL     MW 2776   1.920   1.198   1.183 -0.1815 -0.4470 -1.1059
  695SOL     OW 2777   3.055   1.513   1.299 -1.1005  0.0076  0.1325
  695SOL    HW1 2778   2.998   1.494   1.224  0.1328 -0.1063  2.0156
  695SOL    HW2 2779   3.002   1.582   1.352 -1.1496 -0.8652  0.6988
  695SOL     MW 2780   3.040   1.520   1.296 -0.9442 -0.1226  0.4556
  696SOL     OW 2781   2.063   1.355   0.809  0.2455 -0.1189 -0.4977
  696SOL    HW1 2782   2.108   1.409   0.869  0.0431  2.4739  1.4415
  696SOL    HW2 2783   2.013   1.296   0.858  0.0724  1.6370 -0.2728
  696SOL     MW 2784   2.063   1.354   0.824  0.1960  0.4549 -0.2121
  697SOL     OW 2785   2.916   1.032   2.167 -0.8957 -0.4172  0.2661
  697SOL    HW1 2786   2.871   1.109   2.173  1.7388 -1.5781 -2.0960
  697SOL    HW2 2787   2.867   0.981   2.103 -0.1743  1.5602 -1.2231
  697SOL     MW 2788   2.904   1.035   2.159 -0.4529 -0.3095 -0.2420
  698SOL     OW 2789   2.494   0.342   0.031  0.8044  0.0129 -0.1012
  698SOL    HW1 2790   2.409   0.362   0.070 -0.4204 -1.4954  2.6418
  698SOL    HW2 2791   2.540   0.294   0.106  1.8997  0.3065  3.5968
  698SOL     MW 2792   2.489   0.338   0.046  0.7873 -0.1473  0.7486
  699SOL     OW 2793   1.838   1.554   2.070  0.0272  0.1585 -0.0006
  699SOL    HW1 2794   1.823   1.461   2.047  0.1169 -1.1137  0.2025
  699SOL    HW2 2795   1.923   1.568   2.037  2.4390  0.8698 -1.3725
  699SOL     MW 2796   1.847   1.544   2.063  0.3573  0.0845 -0.1548
  700SOL     OW 2797   2.708   0.917   1.524 -0.2135 -0.0046  0.9648
  700SOL    HW1 2798   2.738   1.007   1.523  3.6361 -0.3497 -0.6901
  700SOL    HW2 2799   2.774   0.863   1.480 -0.5098  0.6782  2.0936
  700SOL     MW 2800   2.721   0.922   1.518  0.2553  0.0400  0.8954
  701SOL     OW 2801   1.657   1.196   2.484  0.3790  0.2577 -0.6331
  701SOL    HW1 2802   1.751   1.186   2.497 -1.4670  0.6123 -1.8855
  701SOL    HW2 2803   1.638   1.258   2.558  0.6943  1.6073  1.6710
  701SOL     MW 2804   1.667   1.203   2.496  0.1770  0.4825 -0.4944
  702SOL     OW 2805   2.152   0.409   0.846  0.0947  0.0302 -0.5163
  702SOL    HW1 2806   2.133   0.343   0.779  2.0089 -0.4587  1.8450
  702SOL    HW2 2807   2.212   0.481   0.807  2.0745 -0.1202  0.9679
  702SOL     MW 2808   2.157   0.410   0.832  0.6085 -0.0541 -0.0089
  703SOL     OW 2809   2.721   1.221   1.067 -0.0187 -0.0150  0.2251
  703SOL    HW1 2810   2.693   1.211   0.979  1.4680 -0.9541  1.8681
  703SOL    HW2 2811   2.760   1.134   1.091 -1.9897  2.2278  0.1652
  703SOL     MW 2812   2.723   1.209   1.058 -0.0826  0.1570  0.4340
  704SOL     OW 2813   3.073   1.162   0.080  0.3997  0.1056  0.3401
  704SOL    HW1 2814   2.979   1.177   0.053  0.3596 -0.6437  2.9856
  704SOL    HW2 2815   3.076   1.128   0.173  4.0240 -0.5368  2.7793
  704SOL     MW 2816   3.061   1.160   0.089  0.8726 -0.0780  1.0109
  705SOL     OW 2817   2.185   1.624   1.236 -0.2311  0.6856  0.3291
  705SOL    HW1 2818   2.111   1.644   1.298  0.4512  1.4877  1.1624
  705SOL    HW2 2819   2.221   1.544   1.276 -1.1236  0.1789 -0.5375
  705SOL     MW 2820   2.180   1.616   1.250 -0.2588  0.7246  0.3247
  706SOL     OW 2821   3.026   1.251   0.654  0.3369  0.5921 -0.3793
  706SOL    HW1 2822   3.090   1.228   0.580 -1.1545 -0.8016  1.0445
  706SOL    HW2 2823   2.982   1.334   0.634  0.7964 -1.0275  3.5446
  706SOL     MW 2824   3.029   1.259   0.642  0.2007  0.1945  0.3262
  707SOL     OW 2825   2.305   0.056   1.035 -0.2696 -0.4718  0.1735
  707SOL    HW1 2826   2.298   0.115   0.964  0.0835  0.4844  0.2849
  707SOL    HW2 2827   2.258  -0.017   0.999 -0.8067  1.2096  0.8814
  707SOL     MW 2828   2.298   0.055   1.021 -0.2939 -0.1238  0.2816
  708SOL     OW 2829   2.426   1.444   0.213  0.1421  0.3062  0.6614
  708SOL    HW1 2830   2.513   1.406   0.192  0.3629  0.2696 -1.9677
  708SOL    HW2 2831   2.405   1.491   0.134 -0.3035 -1.4135  2.6046
  708SOL     MW 2832   2.435   1.445   0.200  0.1125  0.0745  0.5709
  709SOL     OW 2833   1.764   1.641   0.202 -0.5043 -0.5683 -0.3550
  709SOL    HW1 2834   1.734   1.653   0.106 -1.2773  1.5489 -1.4619
  709SOL    HW2 2835   1.693   1.668   0.262 -0.1900  0.1924 -1.3999
  709SOL     MW 2836   1.751   1.646   0.197 -0.5648 -0.1885 -0.6389
  710SOL     OW 2837   2.178   1.158   1.164 -0.7524  0.2481  0.1520
  710SOL    HW1 2838   2.171   1.151   1.068  0.4447 -0.7711  1.5676
  710SOL    HW2 2839   2.204   1.069   1.199  2.3826 -0.2605  0.5468
  710SOL     MW 2840   2.181   1.146   1.156 -0.1808  0.0465  0.3909
  711SOL     OW 2841   2.334   0.183   1.723 -0.0259 -0.3596  0.4687
  711SOL    HW1 2842   2.426   0.177   1.760  0.4646 -0.4869 -0.1792
  711SOL    HW2 2843   2.346   0.164   1.633  0.4736  2.2982 -0.1862
  711SOL     MW 2844   2.347   0.180   1.716  0.1047 -0.0257  0.2968
  712SOL     OW 2845   1.912   0.570   0.096 -0.0196  1.0828 -0.1946
  712SOL    HW1 2846   1.846   0.589   0.027  1.5356  3.1722  2.1477
  712SOL    HW2 2847   1.928   0.651   0.136  0.6789  0.7315 -1.2944
  712SOL     MW 2848   1.905   0.583   0.093  0.2778  1.3121 -0.0306
  713SOL     OW 2849   2.559   0.827   1.084  0.1510 -0.0054 -0.0608
  713SOL    HW1 2850   2.546   0.747   1.125  1.3653  2.5157 -1.1861
  713SOL    HW2 2851   2.529   0.903   1.144  2.0983  0.7559  1.9375
  713SOL     MW 2852   2.553   0.827   1.097  0.5682  0.4277  0.0544
  714SOL     OW 2853   2.206   0.199   1.991 -0.1255 -0.1789  0.1590
  714SOL    HW1 2854   2.250   0.132   2.055 -0.0732 -2.8902  1.6949
  714SOL    HW2 2855   2.255   0.213   1.907 -0.8390 -0.1798  1.1070
  714SOL     MW 2856   2.219   0.192   1.989 -0.2127 -0.5367  0.4868
  715SOL     OW 2857   1.748   1.918   1.714 -0.0277  0.7089  0.1739
  715SOL    HW1 2858   1.838   1.880   1.704 -1.0356  1.1990  0.8960
  715SOL    HW2 2859   1.723   1.883   1.799 -0.2643 -1.0802  1.2902
  715SOL     MW 2860   1.757   1.909   1.724 -0.1919  0.5375  0.4164
  716SOL     OW 2861   2.291   0.592   0.715  0.1092 -0.2100 -0.5064
  716SOL    HW1 2862   2.355   0.539   0.671  0.0759 -0.1351 -0.2587
  716SOL    HW2 2863   2.243   0.637   0.642  0.1096  1.5163 -0.5526
  716SOL     MW 2864   2.293   0.591   0.700  0.1049  0.0277 -0.4798
  717SOL     OW 2865   2.881   1.608   2.860 -0.3388 -0.1574 -0.5283
  717SOL    HW1 2866   2.965   1.596   2.901 -3.2828 -1.0103  2.3027
  717SOL    HW2 2867   2.828   1.654   2.928  1.9894  1.5828 -1.0414
  717SOL     MW 2868   2.885   1.612   2.875 -0.4200 -0.0403 -0.2225
  718SOL     OW 2869   2.700   1.427   1.331  0.0890 -0.3749 -0.3175
  718SOL    HW1 2870   2.676   1.465   1.416 -0.2732  1.7105  0.4613
  718SOL    HW2 2871   2.738   1.343   1.357 -2.2152  0.0258  2.0743
  718SOL     MW 2872   2.702   1.421   1.345 -0.2628 -0.0469  0.1008
  719SOL     OW 2873   2.217   1.263   0.612  0.4005 -0.4069  0.1512
  719SOL    HW1 2874   2.306   1.297   0.606 -2.2343 -0.0648  0.0079
  719SOL    HW2 2875   2.170   1.292   0.694 -1.0934  0.5725  0.7045
  719SOL     MW 2876   2.223   1.271   0.622 -0.1443 -0.2326  0.2053
  720SOL     OW 2877   2.807   1.201   0.064  0.3950  0.6996  0.0289
  720SOL    HW1 2878   2.778   1.110   0.095  0.4121  0.5628 -2.0420
  720SOL    HW2 2879   2.747   1.252   0.127  1.6364 -1.6945  2.3316
  720SOL     MW 2880   2.796   1.196   0.076  0.5611  0.3657  0.0595
  721SOL     OW 2881   2.490   0.833   1.385  0.5290  0.4457  0.9549
  721SOL    HW1 2882   2.474   0.737   1.410  4.4842  0.7713 -0.2177
  721SOL    HW2 2883   2.555   0.859   1.450  1.7190  0.5195 -1.2440
  721SOL     MW 2884   2.496   0.824   1.397  1.2078  0.4984  0.5101
  722SOL     OW 2885   2.583   1.109   0.418 -0.4753  0.2199 -0.2618
  722SOL    HW1 2886   2.543   1.188   0.456 -4.4858 -0.0504 -1.0869
  722SOL    HW2 2887   2.659   1.107   0.473 -1.3857 -2.9339 -1.0078
  722SOL     MW 2888   2.588   1.119   0.430 -1.1246 -0.2318 -0.4691
  723SOL     OW 2889   2.307   1.404   1.571  0.1566  0.4273  0.0598
  723SOL    HW1 2890   2.284   1.392   1.478  0.3916  1.4724  1.1705
  723SOL    HW2 2891   2.236   1.449   1.615 -1.1209 -0.4660  1.5938
  723SOL     MW 2892   2.295   1.408   1.564  0.0190  0.4473  0.4087
  724SOL     OW 2893   2.435   0.383   0.613  0.2926  0.6820 -0.2804
  724SOL    HW1 2894   2.430   0.325   0.689 -2.3904  0.9786 -0.2358
  724SOL    HW2 2895   2.529   0.382   0.594 -0.9492  0.0876  0.8996
  724SOL     MW 2896   2.447   0.375   0.621 -0.2252  0.6427 -0.1188
  725SOL     OW 2897   2.560   0.576   1.213  0.1471 -0.9011 -0.0426
  725SOL    HW1 2898   2.651   0.556   1.224 -1.4219  2.2605 -1.2104
  725SOL    HW2 2899   2.530   0.599   1.297  0.4495 -0.2740 -0.5543
  725SOL     MW 2900   2.568   0.576   1.225 -0.0200 -0.4012 -0.2642
  726SOL     OW 2901   2.558   2.472   0.569 -0.1748 -0.1339  0.3275
  726SOL    HW1 2902   2.511   2.538   0.522  0.7664  0.0657 -0.6228
  726SOL    HW2 2903   2.522   2.455   0.657  3.2313  0.4704 -1.0046
  726SOL     MW 2904   2.547   2.478   0.574  0.3988 -0.0279  0.0264
  727SOL     OW 2905   2.892   0.327   1.716 -0.0425 -0.2152  0.7575
  727SOL    HW1 2906   2.831   0.334   1.640  1.1472 -1.4879  2.1967
  727SOL    HW2 2907   2.840   0.341   1.794  3.3933 -1.3425 -2.1139
  727SOL     MW 2908   2.877   0.330   1.716  0.5678 -0.5319  0.5686
  728SOL     OW 2909   2.778   1.153   2.896 -0.7305 -0.4952 -0.0855
  728SOL    HW1 2910   2.807   1.224   2.839 -1.5197  0.5479 -1.3993
  728SOL    HW2 2911   2.783   1.184   2.986 -0.3654 -2.4327 -0.1496
  728SOL     MW 2912   2.783   1.166   2.900 -0.7864 -0.6132 -0.2673
  729SOL     OW 2913   2.494   1.484   1.155  0.1946 -0.7105  0.4886
  729SOL    HW1 2914   2.558   1.435   1.218 -0.4455 -1.6316 -1.5275
  729SOL    HW2 2915   2.546   1.494   1.073  4.7129  3.4268  3.1910
  729SOL     MW 2916   2.510   1.479   1.152  0.7063 -0.2861  0.5791
  730SOL     OW 2917   2.281   1.192   0.173  0.5891  0.0042  0.1515
  730SOL    HW1 2918   2.351   1.140   0.142 -3.4827 -0.8447 -1.8135
  730SOL    HW2 2919   2.325   1.272   0.209  0.2054  4.5224 -3.0533
  730SOL     MW 2920   2.296   1.196   0.174  0.0012  0.4884 -0.5306
  731SOL     OW 2921   2.773   1.967   2.878  0.1031  0.3633  0.6122
  731SOL    HW1 2922   2.735   1.955   2.789  1.1537 -0.4040  1.5433
  731SOL    HW2 2923   2.857   2.000   2.853 -0.6007  1.4876  1.8553
  731SOL     MW 2924   2.779   1.969   2.863  0.1489  0.4104  0.8991
  732SOL     OW 2925   2.216   0.913   1.343  0.1308 -1.2691  0.2001
  732SOL    HW1 2926   2.196   0.942   1.433 -2.3839  0.8579 -0.6627
  732SOL    HW2 2927   2.311   0.894   1.342 -2.6057  1.6131  0.3737
  732SOL     MW 2928   2.226   0.914   1.355 -0.5621 -0.6082  0.1092
  733SOL     OW 2929   2.354   2.767   3.002  0.1177  0.9788  0.3187
  733SOL    HW1 2930   2.265   2.802   3.006 -0.3552  2.9841  0.5578
  733SOL    HW2 2931   2.337   2.682   2.965 -0.4309  1.6995  0.1021
  733SOL     MW 2932   2.340   2.761   2.997 -0.0171  1.3384  0.3217
  734SOL     OW 2933   1.427   0.344   2.455  0.4177 -0.0267 -0.7672
  734SOL    HW1 2934   1.434   0.311   2.542  2.6914 -0.2053 -1.5905
  734SOL    HW2 2935   1.450   0.270   2.396 -1.9404 -2.2768  0.5547
  734SOL     MW 2936   1.431   0.330   2.459  0.4066 -0.3471 -0.7014
  735SOL     OW 2937   2.917   0.911   2.650 -0.1599  0.0002 -0.2420
  735SOL    HW1 2938   2.936   0.820   2.627  2.0167 -2.8734 -0.9584
  735SOL    HW2 2939   2.950   0.938   2.736 -1.0620  1.1141 -0.3658
  735SOL     MW 2940   2.924   0.903   2.659  0.0082 -0.2319 -0.3529
  736SOL     OW 2941   0.100   0.593   2.509  0.1430  0.4371 -0.4073
  736SOL    HW1 2942   0.126   0.655   2.444 -0.5103  1.5616  0.9355
  736SOL    HW2 2943   0.090   0.510   2.459  1.6562  1.0209 -1.0666
  736SOL     MW 2944   0.102   0.590   2.494  0.2564  0.6625 -0.3171
  737SOL     OW 2945   2.929   0.629   2.594 -0.1824 -0.2011  0.4291
  737SOL    HW1 2946   2.875   0.613   2.520  0.2201 -0.8232 -0.9051
  737SOL    HW2 2947   3.019   0.606   2.563  1.5551  0.4247 -0.5889
  737SOL     MW 2948   2.934   0.624   2.580  0.1000 -0.2006  0.1188
  738SOL     OW 2949   0.120   0.577   1.918  0.0053  0.0437  0.6311
  738SOL    HW1 2950   0.182   0.615   1.981 -0.1422  3.9543 -0.1574
  738SOL    HW2 2951   0.179   0.525   1.861 -1.6300 -1.0839 -0.8700
  738SOL     MW 2952   0.136   0.575   1.919 -0.2299  0.4109  0.3290
  739SOL     OW 2953   2.493   0.993   2.032  0.3148 -0.3023 -0.3159
  739SOL    HW1 2954   2.411   0.955   1.999 -0.0121 -1.3063 -1.0057
  739SOL    HW2 2955   2.521   1.026   1.946 -0.1842  2.8198  0.0623
  739SOL     MW 2956   2.486   0.993   2.016  0.2059 -0.0228 -0.3571
  740SOL     OW 2957   0.241   1.735   2.959 -0.1417  0.6156  0.1805
  740SOL    HW1 2958   0.192   1.653   2.981  0.9076  0.1483 -2.0222
  740SOL    HW2 2959   0.336   1.730   2.988  1.8197  1.8450  0.7162
  740SOL     MW 2960   0.247   1.724   2.966  0.2555  0.7162 -0.0394
  741SOL     OW 2961   2.216   1.098   2.757 -0.2556 -0.4612  0.2764
  741SOL    HW1 2962   2.120   1.075   2.752 -1.1254  3.4897 -0.9926
  741SOL    HW2 2963   2.225   1.134   2.848  0.1084  0.5743 -1.0646
  741SOL     MW 2964   2.204   1.099   2.769 -0.3223  0.1967 -0.0680
  742SOL     OW 2965   1.541   1.225   2.212  0.3307 -0.7659  0.1639
  742SOL    HW1 2966   1.531   1.129   2.206 -1.4420 -1.1020 -1.2893
  742SOL    HW2 2967   1.559   1.237   2.309 -0.0277  0.6482 -0.5343
  742SOL     MW 2968   1.542   1.214   2.224  0.0495 -0.6237 -0.1199
  743SOL     OW 2969   2.464   1.298   2.710  0.3371  0.2965  0.4277
  743SOL    HW1 2970   2.372   1.291   2.711  4.3449 -0.0438 -1.6485
  743SOL    HW2 2971   2.492   1.213   2.746  1.3721 -3.2244  0.4219
  743SOL     MW 2972   2.456   1.286   2.715  1.0025 -0.2130  0.1530
  744SOL     OW 2973   2.744   0.945   1.796  0.5657 -1.1520 -0.2199
  744SOL    HW1 2974   2.715   1.042   1.794 -2.9015  0.2946 -0.6710
  744SOL    HW2 2975   2.731   0.921   1.703  1.1012 -0.8905  0.6193
  744SOL     MW 2976   2.738   0.954   1.784  0.1789 -0.9267 -0.1687
  745SOL     OW 2977   1.695   0.465   2.482 -0.3890 -0.3037  0.3989
  745SOL    HW1 2978   1.721   0.475   2.390  0.8393 -0.8082 -1.1345
  745SOL    HW2 2979   1.604   0.442   2.469 -0.5249 -2.2103 -0.4686
  745SOL     MW 2980   1.686   0.463   2.468 -0.2449 -0.6219  0.0821
  746SOL     OW 2981   1.557   1.447   1.572 -0.0935  0.7031 -0.5313
  746SOL    HW1 2982   1.649   1.461   1.578 -0.9770  1.5861  0.8179
  746SOL    HW2 2983   1.526   1.419   1.661  0.3534  0.6450  0.9394
  746SOL     MW 2984   1.565   1.445   1.584 -0.1511  0.8120 -0.1593
  747SOL     OW 2985   2.547   1.138   1.813  0.0828 -0.2888  0.0930
  747SOL    HW1 2986   2.457   1.133   1.767 -0.8561  2.0498 -3.0157
  747SOL    HW2 2987   2.548   1.194   1.896 -0.8508  0.6811  0.9964
  747SOL     MW 2988   2.535   1.145   1.818 -0.1643  0.1477 -0.1980
  748SOL     OW 2989   0.107   0.007   1.834 -0.5001 -0.7844 -0.1032
  748SOL    HW1 2990   0.198   0.039   1.838  1.7092  0.2455 -1.2423
  748SOL    HW2 2991   0.060   0.050   1.913  0.4246  1.7870  0.6413
  748SOL     MW 2992   0.113   0.017   1.845 -0.0866 -0.3093 -0.1553
  749SOL     OW 2993   2.458   0.515   2.749 -0.2538  0.0465 -0.4440
  749SOL    HW1 2994   2.514   0.571   2.691 -0.3876 -1.7233 -2.3933
  749SOL    HW2 2995   2.479   0.549   2.836  0.8866 -0.3005 -2.6535
  749SOL     MW 2996   2.468   0.527   2.753 -0.1210 -0.2328 -0.9927
  750SOL     OW 2997   2.024   3.079   2.003  0.0208 -0.6004  0.0746
  750SOL    HW1 2998   2.058   3.165   2.019 -0.9469 -1.6453 -1.1564
  750SOL    HW2 2999   2.095   3.022   1.980  1.4230  0.7586 -1.6042
  750SOL     MW 3000   2.037   3.083   2.002  0.0781 -0.5590 -0.3093
  751SOL     OW 3001   0.060   0.408   2.305 -0.2727  0.1050  0.2304
  751SOL    HW1 3002  -0.007   0.346   2.330  0.4062  3.3200  0.8019
  751SOL    HW2 3003   0.132   0.352   2.277  0.4965 -0.5205 -1.7527
  751SOL     MW 3004   0.060   0.392   2.305 -0.0817  0.4467  0.0442
  752SOL     OW 3005   2.133   0.823   2.679  0.2701 -0.2417  0.5402
  752SOL    HW1 3006   2.215   0.869   2.664 -0.9414  2.2388  0.5827
  752SOL    HW2 3007   2.133   0.798   2.775  2.2297  1.5776 -0.3258
  752SOL     MW 3008   2.144   0.826   2.690  0.3688  0.3256  0.4316
  753SOL     OW 3009   2.923   0.270   2.408 -0.1755  0.5002 -0.1569
  753SOL    HW1 3010   2.888   0.199   2.347 -2.0318 -1.5941 -2.1838
  753SOL    HW2 3011   2.851   0.337   2.414 -4.3629  0.4344  0.9109
  753SOL     MW 3012   2.909   0.269   2.401 -0.9729  0.2152 -0.2834
  754SOL     OW 3013   2.266   2.980   2.601  0.2802 -0.0278  0.8033
  754SOL    HW1 3014   2.290   2.953   2.514  1.0334  0.7654  0.0927
  754SOL    HW2 3015   2.337   2.944   2.656 -1.3970 -2.0876 -1.4452
  754SOL     MW 3016   2.279   2.972   2.597  0.1583 -0.1949  0.4129
  755SOL     OW 3017   2.719   1.521   2.506  0.0619 -0.1078  0.1119
  755SOL    HW1 3018   2.741   1.449   2.556 -2.1795 -0.2469 -0.1672
  755SOL    HW2 3019   2.779   1.592   2.543 -0.6914 -0.1147  2.5718
  755SOL     MW 3020   2.730   1.521   2.517 -0.3332 -0.1270  0.3996
  756SOL     OW 3021   2.277   1.284   2.981 -0.5368 -0.0071  0.0668
  756SOL    HW1 3022   2.322   1.369   2.980  1.6548  0.2036  1.8629
  756SOL    HW2 3023   2.345   1.223   3.017 -0.0335 -2.2131  1.3977
  756SOL     MW 3024   2.292   1.288   2.986 -0.1812 -0.2704  0.4794
  757SOL     OW 3025   2.111   0.934   1.611 -0.6173  0.6258  0.1882
  757SOL    HW1 3026   2.147   0.847   1.628  1.0946  0.9476 -0.3991
  757SOL    HW2 3027   2.027   0.922   1.561 -0.4497  1.1489 -3.0656
  757SOL     MW 3028   2.105   0.921   1.606 -0.3693  0.7373 -0.3186
  758SOL     OW 3029   2.189   1.768   2.620  0.0467 -0.5489  0.3403
  758SOL    HW1 3030   2.182   1.767   2.523 -1.5406 -0.0535  0.3941
  758SOL    HW2 3031   2.276   1.745   2.650 -0.6574 -0.4680  1.1477
  758SOL     MW 3032   2.199   1.765   2.611 -0.2556 -0.4728  0.4539
  759SOL     OW 3033   1.614   1.361   2.704  0.3334  0.0035 -0.1361
  759SOL    HW1 3034   1.595   1.454   2.667 -1.7494 -0.1095  1.4335
  759SOL    HW2 3035   1.656   1.382   2.791 -1.1540 -0.3644  0.4529
  759SOL     MW 3036   1.617   1.376   2.711 -0.1377 -0.0599  0.1487
  760SOL     OW 3037   2.577   2.008   2.677 -0.1784  0.1810 -0.0655
  760SOL    HW1 3038   2.536   1.915   2.667  2.0518  0.9803 -1.5864
  760SOL    HW2 3039   2.556   2.062   2.604 -0.9668 -2.0089 -0.8036
  760SOL     MW 3040   2.569   2.003   2.666  0.0118 -0.0025 -0.3636
  761SOL     OW 3041   2.147   0.425   2.487  0.6562 -0.6822 -0.0845
  761SOL    HW1 3042   2.093   0.351   2.505  0.4843  0.3166  2.8990
  761SOL    HW2 3043   2.151   0.470   2.573 -2.9635  3.5177  0.0097
  761SOL     MW 3044   2.140   0.421   2.501  0.1560  0.0037  0.3215
  762SOL     OW 3045   0.025   0.161   2.037  0.3249  0.1321  0.4788
  762SOL    HW1 3046   0.007   0.105   2.114 -0.0873 -1.2450 -1.0101
  762SOL    HW2 3047  -0.028   0.242   2.040  0.3451 -1.0618  1.3821
  762SOL     MW 3048   0.016   0.165   2.048  0.2732 -0.2071  0.4015
  763SOL     OW 3049   2.418   1.078   2.299 -0.7930  0.2905 -0.0239
  763SOL    HW1 3050   2.448   1.050   2.210  0.0572 -0.1107 -0.8021
  763SOL    HW2 3051   2.493   1.130   2.332 -2.3284 -3.2724 -0.0813
  763SOL     MW 3052   2.432   1.081   2.291 -0.8834 -0.2325 -0.1342
  764SOL     OW 3053   0.449   0.290   2.793  0.3673 -0.0368  0.0422
  764SOL    HW1 3054   0.372   0.257   2.761  1.0410  0.3430  1.9517
  764SOL    HW2 3055   0.418   0.349   2.861  1.8504  0.9010  0.5310
  764SOL     MW 3056   0.435   0.293   2.798  0.6519  0.1370  0.3586
  765SOL     OW 3057   2.767   0.089   2.282  0.5594  0.3400  0.3584
  765SOL    HW1 3058   2.707   0.060   2.211  0.3409  1.3915  1.3197
  765SOL    HW2 3059   2.802   0.001   2.314 -0.1861 -1.2593  0.9031
  765SOL     MW 3060   2.764   0.073   2.277  0.4323  0.2677  0.5571
  766SOL     OW 3061   1.875   3.002   2.227 -0.0307 -0.4036  0.2960
  766SOL    HW1 3062   1.945   3.027   2.162  1.0974  1.2419  0.0169
  766SOL    HW2 3063   1.801   2.985   2.176 -0.1301  2.8346  1.0379
  766SOL     MW 3064   1.874   3.003   2.212  0.1050  0.2408  0.3570
  767SOL     OW 3065   2.635   0.621   1.931 -0.1012 -0.0344 -0.2916
  767SOL    HW1 3066   2.677   0.698   1.973 -0.4889  0.2572  0.6074
  767SOL    HW2 3067   2.542   0.634   1.954  0.1864  0.5220 -0.8138
  767SOL     MW 3068   2.628   0.633   1.940 -0.1144  0.0775 -0.2419
  768SOL     OW 3069   0.035   1.535   2.951  0.3984 -0.4180 -0.1425
  768SOL    HW1 3070   0.025   1.489   3.035 -1.5016 -2.0428 -2.8438
  768SOL    HW2 3071   0.022   1.462   2.883  0.6579 -1.8125  1.7720
  768SOL     MW 3072   0.032   1.519   2.953  0.1819 -0.8164 -0.2463
  769SOL     OW 3073   2.358   0.690   2.277  0.3972 -0.3988 -0.5581
  769SOL    HW1 3074   2.272   0.655   2.286  2.1408  2.0577 -0.8617
  769SOL    HW2 3075   2.384   0.665   2.188 -1.7732  2.4343  0.0904
  769SOL     MW 3076   2.350   0.682   2.266  0.3409  0.2991 -0.5126
  770SOL     OW 3077   0.088   1.603   2.595 -0.6339 -0.4088  0.1336
  770SOL    HW1 3078  -0.003   1.631   2.582  0.8168  0.1832  0.0305
  770SOL    HW2 3079   0.073   1.523   2.643  1.0059  2.2662  0.0447
  770SOL     MW 3080   0.074   1.596   2.599 -0.2261  0.0223  0.1083
  771SOL     OW 3081   2.951   0.629   1.934 -0.2536  0.2606 -0.0139
  771SOL    HW1 3082   2.922   0.636   1.846  0.2636  1.1651  2.4757
  771SOL    HW2 3083   3.046   0.621   1.923 -0.5190  1.3177  0.1550
  771SOL     MW 3084   2.960   0.629   1.921 -0.2204  0.5194  0.3369
  772SOL     OW 3085   0.000   0.008   2.258  0.3065 -0.6248 -0.0946
  772SOL    HW1 3086  -0.067  -0.040   2.302  0.4016  0.9653  0.3135
  772SOL    HW2 3087   0.070  -0.061   2.241 -2.6234  2.0336 -0.2013
  772SOL     MW 3088   0.001  -0.008   2.262 -0.0675 -0.0642 -0.0548
  773SOL     OW 3089   2.452   2.844   2.732  0.1358  0.7161  0.0233
  773SOL    HW1 3090   2.470   2.763   2.690 -1.9429  0.3240 -1.9281
  773SOL    HW2 3091   2.431   2.808   2.818 -0.2561 -0.2366  0.1521
  773SOL     MW 3092   2.452   2.829   2.738 -0.1902  0.5387 -0.2172
  774SOL     OW 3093   2.294   1.159   1.737 -0.2350  0.1396 -0.0169
  774SOL    HW1 3094   2.280   1.251   1.708 -0.8228  2.0101  1.3157
  774SOL    HW2 3095   2.241   1.097   1.678  0.9004 -0.4083  1.8497
  774SOL     MW 3096   2.285   1.163   1.726 -0.1628  0.3141  0.4052
  775SOL     OW 3097   2.317   2.918   2.321 -0.2124  0.1131 -0.7510
  775SOL    HW1 3098   2.321   2.998   2.269  0.1305 -0.8290  1.0885
  775SOL    HW2 3099   2.375   2.843   2.297 -3.0363 -2.2863  2.7395
  775SOL     MW 3100   2.325   2.919   2.311 -0.5398 -0.3278 -0.0478
  776SOL     OW 3101   0.019   1.451   0.127  0.3574 -0.0435 -0.1449
  776SOL    HW1 3102   0.101   1.411   0.110 -3.5514  0.3923 -0.6446
  776SOL    HW2 3103  -0.027   1.376   0.156  1.4480  3.7478  1.3650
  776SOL     MW 3104   0.024   1.436   0.129 -0.0145  0.5142 -0.0116
  777SOL     OW 3105   3.017   1.078   1.758 -0.4544 -0.3416  0.1808
  777SOL    HW1 3106   2.985   1.161   1.796 -0.1879  1.0636  0.9608
  777SOL    HW2 3107   2.941   1.027   1.748 -0.8328  1.5179  1.0277
  777SOL     MW 3108   3.003   1.082   1.762 -0.4692  0.0891  0.3954
  778SOL     OW 3109   2.903   0.405   2.757 -0.4739  0.1528  0.2352
  778SOL    HW1 3110   2.837   0.442   2.817  0.7417 -0.7138 -0.1774
  778SOL    HW2 3111   2.922   0.476   2.699  1.4076 -1.3948 -1.5971
  778SOL     MW 3112   2.897   0.420   2.757 -0.0652 -0.1657 -0.0610
  779SOL     OW 3113   2.092   0.611   2.297 -0.2735 -0.0032 -0.1291
  779SOL    HW1 3114   2.022   0.672   2.327 -2.7538  1.6579  0.9943
  779SOL    HW2 3115   2.105   0.542   2.356  2.5920  2.0936 -1.8179
  779SOL     MW 3116   2.084   0.610   2.309 -0.2227  0.4927 -0.2037
  780SOL     OW 3117   0.208   0.129   2.772  0.1799 -0.2235  0.7732
  780SOL    HW1 3118   0.187   0.193   2.838  0.5145 -1.4698  2.2072
  780SOL    HW2 3119   0.157   0.140   2.692 -1.3030 -1.1824  1.0261
  780SOL     MW 3120   0.198   0.139   2.770  0.0284 -0.5144  0.9958
  781SOL     OW 3121   3.048   1.334   2.509 -0.5878  0.5787 -0.4028
  781SOL    HW1 3122   3.036   1.383   2.429  1.1439 -0.6747 -0.6401
  781SOL    HW2 3123   3.056   1.243   2.482 -1.0800 -3.0516 -1.3478
  781SOL     MW 3124   3.047   1.329   2.495 -0.4243 -0.0656 -0.5588
  782SOL     OW 3125   0.710   1.555   3.087 -0.7657  0.4353  0.5843
  782SOL    HW1 3126   0.636   1.610   3.057 -1.5455 -1.3594 -0.3848
  782SOL    HW2 3127   0.681   1.513   3.164 -2.7904  0.1341  1.2238
  782SOL     MW 3128   0.696   1.557   3.093 -1.1357  0.1588  0.5408
  783SOL     OW 3129   2.712   0.472   2.423 -0.3174 -0.2826  0.2168
  783SOL    HW1 3130   2.651   0.449   2.348  0.8146  0.6560 -0.7373
  783SOL    HW2 3131   2.669   0.458   2.506  2.4621  2.3448  1.1753
  783SOL     MW 3132   2.698   0.467   2.424  0.1987  0.1879  0.2174
  784SOL     OW 3133   0.271   0.897   2.890  0.8182  0.3461 -0.3857
  784SOL    HW1 3134   0.202   0.959   2.901  0.6270  0.4228 -0.7712
  784SOL    HW2 3135   0.323   0.921   2.817 -0.6632 -1.2013  4.2963
  784SOL     MW 3136   0.269   0.908   2.882  0.5975  0.1521  0.1812
  785SOL     OW 3137   0.421   0.501   2.192 -0.2686 -0.0072  0.1283
  785SOL    HW1 3138   0.419   0.561   2.121  0.6868  1.3950  0.0539
  785SOL    HW2 3139   0.356   0.434   2.163  0.7278  0.2076 -0.8282
  785SOL     MW 3140   0.412   0.500   2.179 -0.0111  0.2062 -0.0077
  786SOL     OW 3141   1.945   0.488   2.896 -0.0914  0.5780 -0.2344
  786SOL    HW1 3142   1.952   0.523   2.991 -0.3755 -0.5324 -0.8430
  786SOL    HW2 3143   2.038   0.498   2.868 -2.5809 -3.7050  0.0629
  786SOL     MW 3144   1.958   0.494   2.905 -0.4573 -0.1336 -0.2755
  787SOL     OW 3145   2.427   0.154   2.943 -0.1446 -0.5508  0.6123
  787SOL    HW1 3146   2.491   0.107   2.883 -0.7338  0.4413  1.7526
  787SOL    HW2 3147   2.479   0.210   3.007  1.7766 -1.5288  2.5389
  787SOL     MW 3148   2.442   0.155   2.944  0.0312 -0.5489  1.0170
  788SOL     OW 3149   2.873   2.947   2.363 -0.2254 -0.2153 -0.0201
  788SOL    HW1 3150   2.811   2.950   2.439  1.5365 -1.4818 -0.8006
  788SOL    HW2 3151   2.919   2.859   2.354 -0.6782 -1.2573  2.7694
  788SOL     MW 3152   2.871   2.935   2.372 -0.0527 -0.5199  0.2450
  789SOL     OW 3153   0.085   0.318   2.949  0.7325 -0.1612  0.1263
  789SOL    HW1 3154   0.001   0.271   2.965 -2.0854  1.4824 -1.5875
  789SOL    HW2 3155   0.066   0.412   2.952  0.8094 -2.5601 -1.6282
  789SOL     MW 3156   0.071   0.324   2.952  0.3708 -0.2609 -0.3313
  790SOL     OW 3157   3.042   1.058   2.433 -0.1221 -0.0401 -0.2468
  790SOL    HW1 3158   2.985   1.011   2.491  1.1568  1.5638  2.4328
  790SOL    HW2 3159   2.996   1.051   2.348 -2.2116 -1.0217 -0.6413
  790SOL     MW 3160   3.029   1.051   2.430 -0.2291  0.0420  0.0547
  791SOL     OW 3161   2.620   0.322   2.643  0.8812 -0.3220  0.2669
  791SOL    HW1 3162   2.567   0.383   2.697  1.5084 -1.7620  1.4706
  791SOL    HW2 3163   2.711   0.327   2.657 -0.8974  1.3231 -0.5971
  791SOL     MW 3164   2.625   0.331   2.652  0.7293 -0.2949  0.3117
  792SOL     OW 3165   2.362   0.268   2.370  0.2899 -0.1119 -0.1380
  792SOL    HW1 3166   2.281   0.320   2.392 -0.5993  0.8676 -1.7644
  792SOL    HW2 3167   2.395   0.247   2.460 -1.2904  0.8382 -0.4398
  792SOL     MW 3168   2.356   0.272   2.385 -0.0360  0.1427 -0.3924
  793SOL     OW 3169   1.848   1.077   1.978  0.1945  0.1885 -0.3580
  793SOL    HW1 3170   1.815   1.100   1.897 -1.0261  0.5767  0.5458
  793SOL    HW2 3171   1.920   1.016   1.953  0.3996 -0.4736 -0.5662
  793SOL     MW 3172   1.853   1.072   1.964  0.0606  0.1523 -0.2662
  794SOL     OW 3173   1.446   2.261   0.181  0.4587  0.2457 -0.2941
  794SOL    HW1 3174   1.458   2.335   0.127 -0.5627 -2.3600  0.9344
  794SOL    HW2 3175   1.495   2.277   0.261 -2.0107  0.3175  2.2330
  794SOL     MW 3176   1.454   2.273   0.184 -0.0019 -0.0886  0.2014
  795SOL     OW 3177   2.354   0.969   2.562  0.0136  0.2778 -0.0133
  795SOL    HW1 3178   2.300   1.036   2.609 -1.0144 -0.7504 -0.6656
  795SOL    HW2 3179   2.366   0.995   2.475 -1.0060 -0.7916  2.8545
  795SOL     MW 3180   2.349   0.981   2.557 -0.2565  0.0010  0.2790
  796SOL     OW 3181   0.257   0.597   2.746 -0.5026 -0.0401  0.8137
  796SOL    HW1 3182   0.205   0.673   2.784 -3.2424  0.5300 -0.4617
  796SOL    HW2 3183   0.220   0.586   2.656 -0.6184  0.6601  1.4927
  796SOL     MW 3184   0.246   0.606   2.739 -0.8794  0.1275  0.7350
  797SOL     OW 3185   2.566   0.096   2.505 -0.2364 -0.5771  0.1611
  797SOL    HW1 3186   2.574   0.175   2.554 -0.3402  3.0018  2.5704
  797SOL    HW2 3187   2.601   0.109   2.419 -0.2031 -0.9564 -1.9268
  797SOL     MW 3188   2.572   0.108   2.500 -0.2457 -0.1550  0.2035
  798SOL     OW 3189   2.338   0.052   2.185  0.1434 -0.2493 -0.8131
  798SOL    HW1 3190   2.335   0.132   2.241 -1.1207 -0.5544 -0.7760
  798SOL    HW2 3191   2.430   0.041   2.166  2.6004  1.7494 -1.6847
  798SOL     MW 3192   2.350   0.061   2.190  0.3008 -0.0259 -0.9232
  799SOL     OW 3193   2.455   2.919   0.129 -0.0821 -0.2439 -0.2343
  799SOL    HW1 3194   2.417   2.847   0.077  0.3645  0.5700  0.4808
  799SOL    HW2 3195   2.386   2.987   0.134 -0.2769 -1.6289 -0.4817
  799SOL     MW 3196   2.441   2.918   0.123 -0.0489 -0.3193 -0.1726
  800SOL     OW 3197   1.836   3.089   1.786 -0.3570 -0.4050  0.2512
  800SOL    HW1 3198   1.813   2.997   1.763  0.6266 -0.2604 -0.2031
  800SOL    HW2 3199   1.887   3.085   1.865 -1.7270 -0.3422 -0.0202
  800SOL     MW 3200   1.840   3.076   1.794 -0.4080 -0.3777  0.1555
  801SOL     OW 3201   2.799   1.268   2.650  0.3158  0.0502  0.3021
  801SOL    HW1 3202   2.770   1.199   2.600 -0.0986  0.6143  0.1270
  801SOL    HW2 3203   2.877   1.299   2.608 -3.3068 -1.1167 -1.6905
  801SOL     MW 3204   2.805   1.263   2.638 -0.2169 -0.0293  0.0161
  802SOL     OW 3205   2.579   1.541   2.813 -0.2671 -0.2701 -0.3728
  802SOL    HW1 3206   2.546   1.457   2.771  1.7879  1.6109 -0.0024
  802SOL    HW2 3207   2.670   1.530   2.830 -1.5091 -0.4671  1.5568
  802SOL     MW 3208   2.587   1.528   2.810 -0.1599 -0.0479 -0.0693
  803SOL     OW 3209   2.280   1.394   1.976 -0.3713 -0.7490 -1.0759
  803SOL    HW1 3210   2.295   1.367   2.062  0.3430  3.3355 -4.3845
  803SOL    HW2 3211   2.268   1.315   1.929  1.2754 -0.6655  1.3817
  803SOL     MW 3212   2.280   1.380   1.981 -0.0598 -0.1991 -1.1882
  804SOL     OW 3213   2.275   0.047   0.054  0.6176 -0.4208  0.2995
  804SOL    HW1 3214   2.194   0.104   0.056 -0.3307 -0.3434  1.0831
  804SOL    HW2 3215   2.326   0.070  -0.027  0.6307 -0.0870 -1.8719
  804SOL     MW 3216   2.271   0.058   0.044  0.4942 -0.3665  0.1164
  805SOL     OW 3217   2.699   1.010   2.503 -0.0066  0.3305 -0.1029
  805SOL    HW1 3218   2.665   0.957   2.431  3.4994  0.9249 -2.2648
  805SOL    HW2 3219   2.761   0.953   2.548 -0.7845  0.9469  1.9366
  805SOL     MW 3220   2.703   0.995   2.500  0.3533  0.4902 -0.1191
  806SOL     OW 3221   2.551   0.391   2.213  0.4756  0.1360 -0.1144
  806SOL    HW1 3222   2.483   0.342   2.264 -2.6975 -1.1023 -0.6633
  806SOL    HW2 3223   2.508   0.424   2.136  0.0653 -1.2431  0.6639
  806SOL     MW 3224   2.536   0.389   2.210  0.0028 -0.2093 -0.0841
  807SOL     OW 3225   0.043   1.153   2.099  0.1116 -0.1216 -0.5241
  807SOL    HW1 3226   0.107   1.087   2.062  0.7021 -2.1952 -1.3592
  807SOL    HW2 3227  -0.026   1.089   2.135  1.0373 -0.8703 -0.9168
  807SOL     MW 3228   0.043   1.136   2.099  0.3116 -0.4940 -0.6861
  808SOL     OW 3229   2.576   3.090   2.767  0.4083  0.1738  0.7618
  808SOL    HW1 3230   2.528   3.007   2.755 -0.5762  0.2147  0.1278
  808SOL    HW2 3231   2.564   3.129   2.677 -1.1638  0.8475 -4.9996
  808SOL     MW 3232   2.568   3.084   2.754  0.0710  0.2680 -0.0820
  809SOL     OW 3233   2.568   1.274   2.412 -0.0327 -0.3036  0.0314
  809SOL    HW1 3234   2.598   1.234   2.498 -1.2103  1.1614  0.0836
  809SOL    HW2 3235   2.641   1.283   2.356 -2.6153  0.8435  0.7785
  809SOL     MW 3236   2.582   1.270   2.416 -0.5288  0.0411  0.1369
  810SOL     OW 3237   2.264   1.301   2.234  0.0870 -0.2006  0.0021
  810SOL    HW1 3238   2.317   1.219   2.250 -0.0390 -2.4274  0.6556
  810SOL    HW2 3239   2.173   1.264   2.235 -1.9145 -0.4996  0.8892
  810SOL     MW 3240   2.259   1.286   2.236 -0.1937 -0.5339  0.2054
  811SOL     OW 3241   1.549   0.133   2.269 -0.4598  0.0682  0.0637
  811SOL    HW1 3242   1.611   0.103   2.348 -0.3441 -0.7074  1.0089
  811SOL    HW2 3243   1.595   0.138   2.187  0.1167 -0.8752  0.1514
  811SOL     MW 3244   1.563   0.130   2.268 -0.3685 -0.1586  0.2000
  812SOL     OW 3245   1.451   2.813   2.120 -0.5532 -0.8915 -0.2520
  812SOL    HW1 3246   1.543   2.802   2.083  0.2628 -0.1176  0.4845
  812SOL    HW2 3247   1.464   2.811   2.216 -0.0591  0.9776  1.1877
  812SOL     MW 3248   1.465   2.812   2.128 -0.3803 -0.5428  0.0351
  813SOL     OW 3249   1.794   0.716   2.189 -0.6489 -0.2049  0.0901
  813SOL    HW1 3250   1.774   0.621   2.201 -1.0925  1.1932  0.5720
  813SOL    HW2 3251   1.815   0.739   2.280 -1.8111 -0.1084  1.1289
  813SOL     MW 3252   1.794   0.707   2.202 -0.8607 -0.0077  0.2907
  814SOL     OW 3253   2.794   1.274   1.673  0.3323 -0.4243  0.0992
  814SOL    HW1 3254   2.704   1.271   1.709  0.6250  0.0389 -3.2751
  814SOL    HW2 3255   2.775   1.225   1.593  0.0175  0.1610  1.5225
  814SOL     MW 3256   2.780   1.267   1.667  0.3294 -0.2860 -0.1582
  815SOL     OW 3257   2.481   1.646   2.432  0.1513  0.0745 -0.2649
  815SOL    HW1 3258   2.410   1.581   2.445 -3.4868 -0.3006 -1.1224
  815SOL    HW2 3259   2.561   1.605   2.466  4.2982 -1.4927  1.5374
  815SOL     MW 3260   2.482   1.632   2.438  0.2184 -0.1817 -0.1402
  816SOL     OW 3261   0.758   0.694   2.717  0.6245 -0.5914  0.0445
  816SOL    HW1 3262   0.766   0.622   2.779  0.6976  0.5001 -2.9781
  816SOL    HW2 3263   0.662   0.697   2.692 -0.9924 -0.3439  0.7207
  816SOL     MW 3264   0.746   0.685   2.722  0.4208 -0.4148 -0.2651
  817SOL     OW 3265   3.030   1.270   1.395  0.0615 -0.7832 -0.0746
  817SOL    HW1 3266   3.114   1.240   1.430 -1.4858 -0.7568 -0.2469
  817SOL    HW2 3267   3.037   1.360   1.359 -0.8851 -0.6856  1.4058
  817SOL     MW 3268   3.042   1.278   1.395 -0.2675 -0.7668  0.0980
  818SOL     OW 3269   1.951   1.003   2.726 -0.6454 -0.2821  0.5078
  818SOL    HW1 3270   1.935   1.061   2.651  0.1388 -1.0275  0.1956
  818SOL    HW2 3271   2.021   0.936   2.698  1.4950  0.6668  0.7696
  818SOL     MW 3272   1.958   1.002   2.713 -0.2595 -0.2553  0.5012
  819SOL     OW 3273   1.896   0.279   2.468  0.0298  0.1642  0.2883
  819SOL    HW1 3274   1.833   0.350   2.478  1.0848 -2.4029 -0.6947
  819SOL    HW2 3275   1.934   0.267   2.564  0.7112  1.7892  2.1222
  819SOL     MW 3276   1.893   0.287   2.482  0.2589  0.0399  0.4006
  820SOL     OW 3277   2.459   1.756   2.678 -0.1541  0.5085  0.2184
  820SOL    HW1 3278   2.510   1.685   2.722 -0.8869 -0.3059 -1.4594
  820SOL    HW2 3279   2.469   1.739   2.586  0.8532 -0.1840  0.1828
  820SOL     MW 3280   2.467   1.745   2.671 -0.1179  0.3097 -0.0077
  821SOL     OW 3281   2.568   1.351   1.997  0.2300  0.0234  0.3040
  821SOL    HW1 3282   2.604   1.420   1.941 -1.6886  0.5313  0.0796
  821SOL    HW2 3283   2.480   1.389   2.017 -0.0024 -1.4945 -0.9568
  821SOL     MW 3284   2.561   1.365   1.992 -0.0538 -0.1098  0.1081
  822SOL     OW 3285   2.820   2.608   1.486 -0.1764  0.8239 -0.0516
  822SOL    HW1 3286   2.830   2.630   1.580  1.7741  0.4036  1.1680
  822SOL    HW2 3287   2.779   2.682   1.448  0.5737 -1.1062  2.5737
  822SOL     MW 3288   2.816   2.620   1.493  0.1799  0.5138  0.4557
  823SOL     OW 3289   2.250   0.467   1.788  0.0247 -0.5284  0.2717
  823SOL    HW1 3290   2.318   0.410   1.747  1.8346  0.4938 -0.8365
  823SOL    HW2 3291   2.172   0.416   1.778 -0.4979  3.0520 -2.9155
  823SOL     MW 3292   2.249   0.453   1.781  0.1946  0.0788 -0.2950
  824SOL     OW 3293   2.074   1.383   2.548 -0.1713 -0.1896 -1.0607
  824SOL    HW1 3294   2.168   1.414   2.537  0.3592 -0.1918 -2.1462
  824SOL    HW2 3295   2.032   1.432   2.627  0.5346 -1.9411  1.0272
  824SOL     MW 3296   2.081   1.394   2.557 -0.0082 -0.4210 -0.9285
  825SOL     OW 3297   2.095   2.568   0.289  0.3540 -0.3028  0.1941
  825SOL    HW1 3298   2.135   2.513   0.357  0.1237  2.8929  0.9473
  825SOL    HW2 3299   2.144   2.527   0.214  0.5608 -2.4508  1.9529
  825SOL     MW 3300   2.107   2.555   0.288  0.3509 -0.1646  0.5255
  826SOL     OW 3301   1.939   2.331   0.547 -0.3993 -0.3747  0.2430
  826SOL    HW1 3302   1.867   2.268   0.572 -0.4797 -1.1495  0.7053
  826SOL    HW2 3303   1.907   2.415   0.591  0.2595  0.8447  3.4290
  826SOL     MW 3304   1.926   2.334   0.556 -0.3230 -0.3161  0.7243
  827SOL     OW 3305   1.976   2.186   0.842  0.1925  0.0481 -0.1161
  827SOL    HW1 3306   1.897   2.241   0.836 -1.2882 -1.8821 -2.1608
  827SOL    HW2 3307   1.948   2.112   0.889  2.0154 -0.1769 -0.2385
  827SOL     MW 3308   1.962   2.184   0.847  0.2377 -0.2362 -0.4021
  828SOL     OW 3309   0.048   2.678   0.553 -0.1690 -0.1232 -0.6725
  828SOL    HW1 3310   0.141   2.689   0.568  1.4855 -0.9277  0.1211
  828SOL    HW2 3311   0.042   2.682   0.456 -1.6460 -0.3256 -2.8466
  828SOL     MW 3312   0.060   2.680   0.542 -0.1456 -0.2561 -0.8546
  829SOL     OW 3313   2.990   2.930   1.257  0.0469  0.0873 -0.1258
  829SOL    HW1 3314   2.942   2.949   1.179 -0.4236 -0.9282 -1.6083
  829SOL    HW2 3315   3.059   2.871   1.230 -1.2766  0.7349 -0.2098
  829SOL     MW 3316   2.993   2.925   1.243 -0.1898  0.0388 -0.3325
  830SOL     OW 3317   2.502   2.871   2.036 -0.0880  0.2958  0.1821
  830SOL    HW1 3318   2.410   2.863   1.999 -1.4885 -3.2499 -0.8034
  830SOL    HW2 3319   2.563   2.874   1.964 -2.5527  0.4893 -0.6540
  830SOL     MW 3320   2.498   2.870   2.022 -0.5980 -0.1465 -0.0582
  831SOL     OW 3321   2.386   2.417   1.242 -0.1129  0.5229 -0.5495
  831SOL    HW1 3322   2.339   2.348   1.296 -1.4197 -1.5934 -0.7497
  831SOL    HW2 3323   2.481   2.397   1.247 -1.4198 -0.0860  2.4454
  831SOL     MW 3324   2.392   2.405   1.250 -0.4578  0.1633 -0.1808
  832SOL     OW 3325   2.435   2.224   1.896  0.0782 -0.9085 -0.1048
  832SOL    HW1 3326   2.422   2.326   1.892  1.9016 -0.3174 -3.0747
  832SOL    HW2 3327   2.529   2.208   1.873  0.5233  0.0321  0.1495
  832SOL     MW 3328   2.446   2.235   1.892  0.3775 -0.7064 -0.4631
  833SOL     OW 3329   1.781   2.459   0.922  0.4905  0.5619 -0.5376
  833SOL    HW1 3330   1.707   2.415   0.969 -1.6560 -1.5602  0.5891
  833SOL    HW2 3331   1.811   2.541   0.963  0.1067  5.9093 -0.0111
  833SOL     MW 3332   1.775   2.464   0.933  0.1566  0.9874 -0.3194
  834SOL     OW 3333   2.225   2.452   0.516 -0.2339 -0.3889 -0.3848
  834SOL    HW1 3334   2.156   2.390   0.537 -1.3807  2.3688  0.2188
  834SOL    HW2 3335   2.289   2.409   0.448  2.2747 -0.2097 -1.4952
  834SOL     MW 3336   2.224   2.438   0.510 -0.0542 -0.0014 -0.4517
  835SOL     OW 3337   1.859   2.584   0.690  0.2164  0.3862  0.1318
  835SOL    HW1 3338   1.810   2.544   0.771  1.7955 -0.3820  0.7631
  835SOL    HW2 3339   1.931   2.645   0.699  2.0342  0.2636  1.9474
  835SOL     MW 3340   1.862   2.587   0.702  0.6646  0.2687  0.4546
  836SOL     OW 3341   1.970   2.142   1.666  0.6071  0.2922 -0.2580
  836SOL    HW1 3342   2.063   2.134   1.647  1.2599  1.1474 -0.5260
  836SOL    HW2 3343   1.953   2.213   1.728 -0.3650 -1.8326  0.7577
  836SOL     MW 3344   1.980   2.150   1.672  0.5650  0.1247 -0.1594
  837SOL     OW 3345   2.086   0.189   0.709 -0.1262  0.0326 -0.1314
  837SOL    HW1 3346   1.998   0.220   0.666  0.3014  0.9463 -2.9423
  837SOL    HW2 3347   2.125   0.153   0.625 -0.0089 -0.6999  1.1586
  837SOL     MW 3348   2.080   0.188   0.692 -0.0543  0.0565 -0.3321
  838SOL     OW 3349   2.915   2.022   0.910 -0.0005 -0.0659 -0.0186
  838SOL    HW1 3350   2.834   1.978   0.938  1.0071  0.3276  0.8181
  838SOL    HW2 3351   2.965   1.965   0.855  0.8897 -1.1691  0.2853
  838SOL     MW 3352   2.911   2.009   0.907  0.2499 -0.1595  0.1319
  839SOL     OW 3353   1.476   2.348   0.918  0.0019  0.5680  0.4035
  839SOL    HW1 3354   1.473   2.433   0.962  0.8756  1.4053 -0.6859
  839SOL    HW2 3355   1.518   2.287   0.982  0.7188 -1.9709 -0.8019
  839SOL     MW 3356   1.481   2.351   0.932  0.2118  0.3435  0.1007
  840SOL     OW 3357   2.292   2.068   2.406 -0.6284 -0.2263 -0.1508
  840SOL    HW1 3358   2.253   2.139   2.352  0.6424 -0.8608  3.2433
  840SOL    HW2 3359   2.365   2.123   2.428  3.5642 -3.5099 -1.6482
  840SOL     MW 3360   2.297   2.084   2.402  0.0925 -0.7432  0.0995
  841SOL     OW 3361   2.179   2.435   0.057  0.1013  0.0386 -0.5984
  841SOL    HW1 3362   2.197   2.466  -0.033  0.9006  0.3027 -2.9866
  841SOL    HW2 3363   2.137   2.344   0.053 -0.7343  0.7964  0.4143
  841SOL     MW 3364   2.176   2.427   0.045  0.0965  0.1734 -0.7799
  842SOL     OW 3365   2.676   2.000   1.566 -0.0119 -0.4536  0.0627
  842SOL    HW1 3366   2.611   1.930   1.561  0.9721 -0.4308  3.2911
  842SOL    HW2 3367   2.638   2.065   1.498  1.3229  4.3806 -2.9808
  842SOL     MW 3368   2.662   1.999   1.556  0.2941  0.1872  0.0871
  843SOL     OW 3369   2.663   2.857   1.823  0.2203 -0.1513 -0.2775
  843SOL    HW1 3370   2.748   2.819   1.815 -1.1402 -0.9222 -0.3899
  843SOL    HW2 3371   2.608   2.798   1.769  1.9523 -4.2084 -0.5126
  843SOL     MW 3372   2.667   2.844   1.815  0.2693 -0.7883 -0.3234
  844SOL     OW 3373   2.659   2.336   1.209  0.0051  0.5613 -0.2461
  844SOL    HW1 3374   2.712   2.363   1.135 -3.7686  1.1498  0.4220
  844SOL    HW2 3375   2.711   2.345   1.290 -1.3974 -3.2816  1.2569
  844SOL     MW 3376   2.673   2.341   1.210 -0.6778  0.1319  0.0403
  845SOL     OW 3377   2.832   2.517   0.328 -0.4729  0.2265  0.0540
  845SOL    HW1 3378   2.775   2.438   0.341  0.1974  1.5302  3.9860
  845SOL    HW2 3379   2.829   2.559   0.420 -0.5640 -0.7202  3.8723
  845SOL     MW 3380   2.824   2.512   0.342 -0.3965  0.2736  1.0766
  846SOL     OW 3381   1.520   2.817   0.837 -0.6256 -0.1893  0.3370
  846SOL    HW1 3382   1.601   2.871   0.854  0.0382 -1.9778 -1.2895
  846SOL    HW2 3383   1.445   2.873   0.849 -1.6065 -3.7256  1.8149
  846SOL     MW 3384   1.521   2.832   0.841 -0.6674 -0.8918  0.3174
  847SOL     OW 3385   2.514   1.947   0.176 -0.1400 -0.5728 -0.1332
  847SOL    HW1 3386   2.569   1.876   0.203  1.7318 -1.4062  1.0681
  847SOL    HW2 3387   2.457   1.903   0.109 -1.5900  2.8072  0.9334
  847SOL     MW 3388   2.514   1.932   0.171 -0.0843 -0.2368  0.1660
  848SOL     OW 3389   2.572   2.099   1.350  0.3827  0.3085 -0.7844
  848SOL    HW1 3390   2.608   2.165   1.295  0.1111 -1.5567  2.7626
  848SOL    HW2 3391   2.556   2.023   1.293 -0.2148 -2.7184  0.7206
  848SOL     MW 3392   2.575   2.098   1.335  0.2681 -0.3370 -0.1179
  849SOL     OW 3393   2.037   2.798   0.780  0.1894 -0.6104  0.2048
  849SOL    HW1 3394   2.032   2.739   0.858 -1.0380  2.1415  0.6834
  849SOL    HW2 3395   2.122   2.765   0.739  2.3859  1.4856 -1.4647
  849SOL     MW 3396   2.047   2.786   0.785  0.3173  0.0292  0.0477
  850SOL     OW 3397   2.252   1.859   1.696 -0.0580 -0.2477  0.0470
  850SOL    HW1 3398   2.168   1.822   1.665  4.2241 -1.5163 -0.5559
  850SOL    HW2 3399   2.235   1.954   1.684  0.4726 -0.8892 -1.6701
  850SOL     MW 3400   2.239   1.867   1.690  0.5770 -0.4997 -0.2591
  851SOL     OW 3401   2.359   2.353   0.302  0.1461  0.2608 -0.5638
  851SOL    HW1 3402   2.336   2.355   0.211 -0.3355 -1.0929 -2.0038
  851SOL    HW2 3403   2.456   2.372   0.309  1.0930  1.0834 -0.0396
  851SOL     MW 3404   2.369   2.355   0.291  0.2075  0.1907 -0.6846
  852SOL     OW 3405   2.315   2.089   0.331 -0.1832  0.3140  0.0200
  852SOL    HW1 3406   2.332   2.182   0.319 -1.1182 -1.1914 -0.0816
  852SOL    HW2 3407   2.399   2.047   0.301 -1.5024 -0.2815 -0.3057
  852SOL     MW 3408   2.329   2.096   0.326 -0.4807  0.0368 -0.0364
  853SOL     OW 3409   2.457   2.498   1.950 -0.1771 -0.3495 -0.5892
  853SOL    HW1 3410   2.497   2.536   1.870  0.7946  0.0630 -1.0126
  853SOL    HW2 3411   2.536   2.457   1.990  1.2957  1.4403 -2.6287
  853SOL     MW 3412   2.473   2.498   1.945  0.1455 -0.0589 -0.9142
  854SOL     OW 3413   2.867   2.275   0.779 -0.1024  0.8477 -0.3722
  854SOL    HW1 3414   2.792   2.229   0.738 -0.0369 -1.9062  1.2973
  854SOL    HW2 3415   2.893   2.200   0.844 -0.0850 -0.5218  2.5890
  854SOL     MW 3416   2.861   2.259   0.782 -0.0915  0.3036  0.2388
  855SOL     OW 3417   2.644   2.318   0.351 -0.6588  0.6357 -0.2420
  855SOL    HW1 3418   2.620   2.345   0.443  1.3299 -0.3713  2.9523
  855SOL    HW2 3419   2.718   2.258   0.367  2.7747 -0.5514 -1.0363
  855SOL     MW 3420   2.651   2.314   0.365  0.0566  0.3462  0.0747
  856SOL     OW 3421   2.140   1.943   0.194 -0.7683  0.7119 -0.2203
  856SOL    HW1 3422   2.061   1.931   0.247  0.4596  1.5912 -2.5210
  856SOL    HW2 3423   2.207   1.997   0.244  1.3411  0.2046  0.2983
  856SOL     MW 3424   2.138   1.949   0.208 -0.3280  0.7610 -0.4555
  857SOL     OW 3425   2.481   1.980   0.554 -0.4617 -0.0804  0.2011
  857SOL    HW1 3426   2.411   1.997   0.482 -1.5599 -0.4641 -2.3794
  857SOL    HW2 3427   2.439   1.977   0.637  3.6781 -0.2397  0.1267
  857SOL     MW 3428   2.466   1.982   0.555 -0.0604 -0.1520 -0.1492
  858SOL     OW 3429   2.867   2.669   1.747 -0.0075  0.9197 -0.1009
  858SOL    HW1 3430   2.952   2.705   1.785 -0.8059  2.3328 -1.0513
  858SOL    HW2 3431   2.877   2.581   1.774 -1.2104  2.2413 -3.4576
  858SOL     MW 3432   2.880   2.662   1.755 -0.2715  1.2805 -0.6691
  859SOL     OW 3433   2.143   2.579   0.911  0.0437  0.3362 -0.3794
  859SOL    HW1 3434   2.091   2.509   0.942 -1.3778  0.9136 -1.3312
  859SOL    HW2 3435   2.218   2.534   0.874  1.6942  1.1785  2.6803
  859SOL     MW 3436   2.146   2.564   0.910  0.0739  0.5235 -0.1013
  860SOL     OW 3437   2.686   2.590   0.121  0.7686 -0.1532  0.3233
  860SOL    HW1 3438   2.746   2.584   0.199 -0.0429 -1.7148 -1.6648
  860SOL    HW2 3439   2.679   2.683   0.101 -5.7471 -1.8506 -3.0398
  860SOL     MW 3440   2.693   2.601   0.128 -0.1982 -0.5832 -0.3827
  861SOL     OW 3441   1.614   2.170   1.108  0.2720  0.0809  0.3492
  861SOL    HW1 3442   1.609   2.251   1.164  0.9748  1.0274  1.8130
  861SOL    HW2 3443   1.547   2.108   1.135 -0.3047  0.6723 -0.2959
  861SOL     MW 3444   1.604   2.172   1.119  0.2887  0.2838  0.4572
  862SOL     OW 3445   2.479   1.811   1.547 -0.0199  0.0705 -0.5027
  862SOL    HW1 3446   2.400   1.818   1.604 -1.7326 -1.5482 -0.5275
  862SOL    HW2 3447   2.444   1.794   1.458 -1.6452 -0.0614 -0.4044
  862SOL     MW 3448   2.464   1.810   1.542 -0.4603 -0.1604 -0.4930
  863SOL     OW 3449   3.005   1.753   1.031 -0.2514 -0.1589  0.2522
  863SOL    HW1 3450   3.092   1.739   1.074 -1.3944  1.7094  1.0333
  863SOL    HW2 3451   2.967   1.819   1.087  1.6433  0.7594 -1.2351
  863SOL     MW 3452   3.011   1.760   1.044 -0.1522  0.2087  0.1590
  864SOL     OW 3453   3.063   1.844   0.774  0.5811 -0.0739  0.4912
  864SOL    HW1 3454   3.047   1.813   0.869  1.2557 -0.4827  2.2099
  864SOL    HW2 3455   3.001   1.804   0.708 -1.5142 -0.7115 -0.5607
  864SOL     MW 3456   3.053   1.835   0.778  0.3936 -0.2120  0.5792
  865SOL     OW 3457   2.476   2.200   0.046 -0.0774 -0.0378  0.6554
  865SOL    HW1 3458   2.472   2.104   0.049  0.1286  1.8249 -1.9278
  865SOL    HW2 3459   2.446   2.221  -0.042 -3.4803 -1.7039  3.6395
  865SOL     MW 3460   2.472   2.190   0.035 -0.4992 -0.0119  0.7083
  866SOL     OW 3461   2.677   2.337   1.669  0.1571 -0.3500 -0.2945
  866SOL    HW1 3462   2.677   2.255   1.723 -1.9255  0.7141  0.7721
  866SOL    HW2 3463   2.736   2.313   1.590  1.6375  0.3781 -1.6286
  866SOL     MW 3464   2.685   2.323   1.666  0.0776 -0.1136 -0.3298
  867SOL     OW 3465   0.049   2.694   1.781  0.6674 -0.6352 -0.1563
  867SOL    HW1 3466   0.097   2.735   1.847 -0.7583  1.1824  1.7615
  867SOL    HW2 3467   0.056   2.750   1.704  0.2222 -3.1510 -1.5167
  867SOL     MW 3468   0.057   2.707   1.780  0.4205 -0.7273 -0.0828
  868SOL     OW 3469   2.776   2.659   0.549 -0.1258  0.8334  0.3280
  868SOL    HW1 3470   2.697   2.608   0.546  0.8770  0.6371 -0.5109
  868SOL    HW2 3471   2.766   2.734   0.493  0.7595  2.2892  2.5356
  868SOL     MW 3472   2.764   2.662   0.541  0.1233  0.9996  0.5086
  869SOL     OW 3473   2.058   2.307   1.055  0.0062  0.0559  0.0623
  869SOL    HW1 3474   2.153   2.318   1.039  1.2032 -0.0824 -0.8387
  869SOL    HW2 3475   2.033   2.264   0.968  2.0831 -0.1762 -0.7627
  869SOL     MW 3476   2.067   2.303   1.042  0.4382  0.0070 -0.1654
  870SOL     OW 3477   2.125   0.026   0.480  0.0439 -0.6696  0.5928
  870SOL    HW1 3478   2.188   0.075   0.420  2.0343 -0.4480  0.0453
  870SOL    HW2 3479   2.174  -0.057   0.488 -0.2736  0.7639  2.6694
  870SOL     MW 3480   2.140   0.021   0.473  0.2646 -0.4512  0.7945
  871SOL     OW 3481   2.450   2.033   0.965 -0.3734  0.0144 -0.0151
  871SOL    HW1 3482   2.394   2.002   0.894 -1.2626  3.7056  1.3321
  871SOL    HW2 3483   2.417   2.121   0.992 -3.2812 -0.3654  2.7510
  871SOL     MW 3484   2.439   2.041   0.959 -0.8744  0.4513  0.5276
  872SOL     OW 3485   2.034   2.493   1.552  0.4973  0.0969 -0.0517
  872SOL    HW1 3486   1.989   2.556   1.605 -2.9150  0.1785 -3.6973
  872SOL    HW2 3487   1.973   2.446   1.498  3.3324 -0.8528  0.4272
  872SOL     MW 3488   2.020   2.495   1.552  0.4211 -0.0176 -0.4695
  873SOL     OW 3489   2.906   2.043   1.961 -0.1895  0.2391  0.2248
  873SOL    HW1 3490   2.881   2.107   2.031 -2.5113  0.7143 -0.4446
  873SOL    HW2 3491   2.970   2.102   1.908  3.0648 -1.2389 -1.6688
  873SOL     MW 3492   2.911   2.060   1.963 -0.0665  0.1068 -0.1133
  874SOL     OW 3493   2.332   1.430   2.463  0.1171  0.0866  0.3793
  874SOL    HW1 3494   2.297   1.399   2.381 -0.5337 -0.0928  0.2220
  874SOL    HW2 3495   2.417   1.382   2.460  2.3277  1.3859  1.5143
  874SOL     MW 3496   2.339   1.420   2.452  0.3229  0.2344  0.5083
  875SOL     OW 3497   2.337   2.295   1.004  0.1293  0.0987 -0.6460
  875SOL    HW1 3498   2.372   2.345   0.930  0.3341  1.4383  0.9884
  875SOL    HW2 3499   2.384   2.332   1.082 -0.1177 -2.6096  1.8025
  875SOL     MW 3500   2.348   2.307   1.004  0.1238 -0.0819 -0.1073
  876SOL     OW 3501   3.058   2.294   1.335  0.0712 -0.1714  1.2354
  876SOL    HW1 3502   3.081   2.338   1.244  1.6277 -1.7825  0.5772
  876SOL    HW2 3503   3.141   2.302   1.387 -0.1783  0.0239 -0.4150
  876SOL     MW 3504   3.072   2.301   1.330  0.2436 -0.3582  0.9308
  877SOL     OW 3505   0.014   2.788   0.306 -0.0724  0.1895 -0.4113
  877SOL    HW1 3506   0.080   2.859   0.304 -1.0754  1.4063 -0.7639
  877SOL    HW2 3507   0.016   2.734   0.227  1.3380  0.9517  1.0188
  877SOL     MW 3508   0.023   2.790   0.295 -0.0186  0.4506 -0.2691
  878SOL     OW 3509   2.375   1.813   1.267  0.1297 -0.4883 -0.5814
  878SOL    HW1 3510   2.317   1.733   1.275  2.6041  1.3902  0.8302
  878SOL    HW2 3511   2.462   1.788   1.227  1.1445 -1.9226 -0.0900
  878SOL     MW 3512   2.378   1.799   1.263  0.5901 -0.4297 -0.3303
  879SOL     OW 3513   2.750   2.442   0.973 -0.0341 -0.1983  0.0231
  879SOL    HW1 3514   2.793   2.524   0.994 -1.5984 -1.0949 -2.9502
  879SOL    HW2 3515   2.803   2.389   0.911  1.2580 -1.1492  0.0104
  879SOL     MW 3516   2.763   2.446   0.968 -0.0700 -0.4421 -0.3709
  880SOL     OW 3517   2.613   2.159   0.731 -0.2961  0.0337 -0.0128
  880SOL    HW1 3518   2.577   2.134   0.820 -0.2507  0.4879 -2.0899
  880SOL    HW2 3519   2.583   2.084   0.673  1.6564 -3.7148 -1.9129
  880SOL     MW 3520   2.604   2.146   0.735 -0.0325 -0.4010 -0.5375
  881SOL     OW 3521   2.956   2.706   0.741  0.5709 -0.2604 -0.2316
  881SOL    HW1 3522   2.881   2.679   0.691 -0.6713 -0.7113 -1.6838
  881SOL    HW2 3523   3.029   2.696   0.683 -1.3450 -2.4911  1.0330
  881SOL     MW 3524   2.955   2.701   0.727  0.1542 -0.6142 -0.2564
  882SOL     OW 3525   2.233   2.897   1.953  0.0638 -0.0623  0.0295
  882SOL    HW1 3526   2.215   2.899   1.854  1.8443  0.2761  2.2227
  882SOL    HW2 3527   2.181   2.813   1.984 -3.0956 -3.0564  0.3763
  882SOL     MW 3528   2.223   2.886   1.944 -0.1182 -0.4127  0.3646
  883SOL     OW 3529   2.325   2.203   1.395  0.5248  0.3103  0.2142
  883SOL    HW1 3530   2.417   2.161   1.385  0.5492 -1.5067 -2.0272
  883SOL    HW2 3531   2.265   2.152   1.339 -0.2049  0.3769 -1.5782
  883SOL     MW 3532   2.330   2.190   1.386  0.4317  0.0794 -0.3180
  884SOL     OW 3533   1.945   1.795   1.065  0.0617  0.5188 -0.1446
  884SOL    HW1 3534   1.898   1.870   1.020 -3.0472  2.4698 -0.0237
  884SOL    HW2 3535   2.041   1.826   1.081  2.7223  2.2837  2.4289
  884SOL     MW 3536   1.951   1.809   1.062  0.0025  1.0091  0.2109
  885SOL     OW 3537   2.879   2.400   1.834 -0.5221 -0.0743 -0.1718
  885SOL    HW1 3538   2.945   2.330   1.821 -2.2774 -1.0243  1.1481
  885SOL    HW2 3539   2.811   2.384   1.771  1.6202  0.9271 -1.1199
  885SOL     MW 3540   2.879   2.389   1.824 -0.4711 -0.0675 -0.1228
  886SOL     OW 3541   2.828   2.346   1.436  0.2593  0.4038 -0.8499
  886SOL    HW1 3542   2.907   2.341   1.387  2.5677 -0.8476 -0.8608
  886SOL    HW2 3543   2.817   2.444   1.447 -1.6179  1.5789 -2.2105
  886SOL     MW 3544   2.837   2.358   1.431  0.3162  0.3937 -1.0308
  887SOL     OW 3545   2.277   2.634   1.577 -0.2914 -0.3941  0.0530
  887SOL    HW1 3546   2.318   2.638   1.487 -1.0680  0.3442 -1.8168
  887SOL    HW2 3547   2.198   2.585   1.557  0.1826  0.0086 -2.0628
  887SOL     MW 3548   2.272   2.628   1.562 -0.3313 -0.2436 -0.4729
  888SOL     OW 3549   1.866   2.127   1.402 -0.5008  0.3390  0.5687
  888SOL    HW1 3550   1.951   2.100   1.373 -0.3853 -1.7875  1.9288
  888SOL    HW2 3551   1.866   2.150   1.495 -1.9702  2.1737  0.2036
  888SOL     MW 3552   1.877   2.127   1.411 -0.6795  0.3005  0.7000
  889SOL     OW 3553   2.335   2.035   2.074  0.5770  0.2067  0.3152
  889SOL    HW1 3554   2.407   2.035   2.139  0.8991  2.2175 -1.2015
  889SOL    HW2 3555   2.349   2.112   2.015 -2.6872  1.5613  1.3426
  889SOL     MW 3556   2.346   2.045   2.075  0.1888  0.6508  0.2506
  890SOL     OW 3557   0.049   2.381   0.139  0.0399  0.8241  0.4995
  890SOL    HW1 3558  -0.003   2.469   0.137 -0.7847  1.2477 -0.5782
  890SOL    HW2 3559   0.017   2.333   0.219  1.3256 -0.4044 -0.2254
  890SOL     MW 3560   0.038   2.386   0.150  0.1007  0.7179  0.2617
  891SOL     OW 3561   3.058   2.006   1.296  0.3686 -0.0980  0.1067
  891SOL    HW1 3562   3.148   1.971   1.311 -0.1754 -0.1093  1.4750
  891SOL    HW2 3563   3.056   2.098   1.297  0.1875 -0.4367 -0.9267
  891SOL     MW 3564   3.069   2.014   1.298  0.2729 -0.1442  0.1509
  892SOL     OW 3565   2.447   2.317   2.756  0.2434  0.3719  0.3894
  892SOL    HW1 3566   2.423   2.234   2.795 -3.0453  2.4843  1.4467
  892SOL    HW2 3567   2.533   2.330   2.791 -1.8385 -2.1858  0.4711
  892SOL     MW 3568   2.455   2.308   2.765 -0.4652  0.3131  0.5397
  893SOL     OW 3569   1.599   2.409   1.216 -0.0962  0.1298 -0.3081
  893SOL    HW1 3570   1.531   2.458   1.258  0.2383 -0.0600 -3.2964
  893SOL    HW2 3571   1.681   2.443   1.250  0.2152 -1.8564  0.1997
  893SOL     MW 3572   1.601   2.420   1.226 -0.0109 -0.1573 -0.6354
  894SOL     OW 3573   2.748   1.873   0.456  0.1201  0.2358 -0.1531
  894SOL    HW1 3574   2.661   1.914   0.456 -2.9897  1.5008  1.4712
  894SOL    HW2 3575   2.762   1.860   0.359 -1.7098  0.2824 -1.4479
  894SOL     MW 3576   2.739   1.877   0.443 -0.5316  0.4088 -0.1096
  895SOL     OW 3577   2.135   2.102   1.231 -0.2104 -0.1253 -0.4315
  895SOL    HW1 3578   2.088   2.170   1.169 -0.6654 -0.2926 -2.2986
  895SOL    HW2 3579   2.160   2.024   1.177  2.3568 -1.5644 -1.6248
  895SOL     MW 3580   2.132   2.101   1.215  0.0683 -0.3372 -0.8353
  896SOL     OW 3581   2.314   2.817   1.108  0.0763  0.2662  0.5270
  896SOL    HW1 3582   2.345   2.784   1.188  1.5385  0.5660 -0.3035
  896SOL    HW2 3583   2.249   2.761   1.075 -3.2437 -2.5766  0.4475
  896SOL     MW 3584   2.310   2.805   1.114 -0.1688 -0.0693  0.4069
  897SOL     OW 3585   3.067   3.027   3.082  0.4321  0.9025  0.0883
  897SOL    HW1 3586   3.108   2.951   3.033 -1.7353 -4.3675 -2.7968
  897SOL    HW2 3587   3.047   3.004   3.170 -1.7921 -0.9913 -1.1308
  897SOL     MW 3588   3.070   3.014   3.087 -0.1473 -0.0427 -0.4532
  898SOL     OW 3589   2.108   0.200   1.495  0.0943  0.1038 -0.1681
  898SOL    HW1 3590   2.076   0.113   1.519 -0.1420  1.5227  1.9327
  898SOL    HW2 3591   2.108   0.196   1.400  1.4562 -2.7559  1.8351
  898SOL     MW 3592   2.104   0.188   1.485  0.2428 -0.0863  0.3734
  899SOL     OW 3593   2.914   2.974   0.644 -0.2669  0.0826 -0.2042
  899SOL    HW1 3594   2.908   2.898   0.701 -1.7222 -0.8922  1.8993
  899SOL    HW2 3595   2.834   3.022   0.667  0.0289 -0.6015 -0.1249
  899SOL     MW 3596   2.903   2.970   0.655 -0.4199 -0.1363  0.0838
  900SOL     OW 3597   0.060   2.395   1.118 -0.1908 -0.0136  0.6545
  900SOL    HW1 3598   0.050   2.486   1.102  0.4506  0.2016  0.1262
  900SOL    HW2 3599   0.060   2.350   1.031 -0.2240 -0.2760  0.3805
  900SOL     MW 3600   0.059   2.401   1.104 -0.1106 -0.0198  0.5486
  901SOL     OW 3601   1.740   2.843   1.758  0.2426  0.0796 -0.2313
  901SOL    HW1 3602   1.825   2.789   1.767  0.0865  2.1166 -2.1594
  901SOL    HW2 3603   1.708   2.828   1.666 -0.7826  0.7834  1.2536
  901SOL     MW 3604   1.747   2.834   1.747  0.0868  0.4412 -0.2898
  902SOL     OW 3605   2.682   2.120   1.821 -0.5122 -0.5089  0.3636
  902SOL    HW1 3606   2.705   2.068   1.745 -2.0654  0.4946  0.9485
  902SOL    HW2 3607   2.765   2.111   1.869 -0.5164  2.8574 -1.0400
  902SOL     MW 3608   2.696   2.112   1.817 -0.7177  0.0676  0.2556
  903SOL     OW 3609   1.608   2.694   0.616  0.7368 -0.7114  0.5092
  903SOL    HW1 3610   1.692   2.659   0.638 -1.7430 -2.0202  1.4161
  903SOL    HW2 3611   1.575   2.739   0.694 -1.2345 -3.4135  2.0488
  903SOL     MW 3612   1.615   2.695   0.629  0.1495 -1.2406  0.8320
  904SOL     OW 3613   2.527   2.584   1.711 -0.0879  0.1150 -0.2721
  904SOL    HW1 3614   2.449   2.602   1.659 -0.0197  0.4233  0.0455
  904SOL    HW2 3615   2.570   2.519   1.662 -0.1354  0.2937 -0.3236
  904SOL     MW 3616   2.522   2.578   1.698 -0.0851  0.1792 -0.2370
  905SOL     OW 3617   2.285   2.513   2.136 -0.1744 -0.1284 -0.2544
  905SOL    HW1 3618   2.351   2.503   2.056 -1.6065 -1.9845  1.1711
  905SOL    HW2 3619   2.260   2.429   2.171 -1.4649  1.8423  0.5965
  905SOL     MW 3620   2.290   2.500   2.130 -0.5336 -0.1133  0.0460
  906SOL     OW 3621   2.461   2.487   0.827  0.4865  0.3309 -0.4723
  906SOL    HW1 3622   2.551   2.454   0.837  2.3909  2.0534 -1.1615
  906SOL    HW2 3623   2.469   2.577   0.826  4.1032 -3.0027  0.0359
  906SOL     MW 3624   2.474   2.494   0.828  1.2150  0.1183 -0.4962
  907SOL     OW 3625   2.639   2.803   1.345  0.0764  0.1968 -0.0624
  907SOL    HW1 3626   2.662   2.871   1.403  0.8751  0.7703 -1.7523
  907SOL    HW2 3627   2.665   2.834   1.257 -1.7963 -2.4473 -0.6987
  907SOL     MW 3628   2.645   2.816   1.341 -0.0653 -0.0764 -0.3693
  908SOL     OW 3629   2.710   2.348   0.001  0.3125  0.5578  0.2190
  908SOL    HW1 3630   2.638   2.286   0.026  2.6710  2.2643  1.6682
  908SOL    HW2 3631   2.689   2.429   0.053 -1.0913 -1.2486  1.0513
  908SOL     MW 3632   2.698   2.350   0.011  0.4385  0.5446  0.5200
  909SOL     OW 3633   1.734   0.059   1.194 -0.1396  0.3876  0.3765
  909SOL    HW1 3634   1.754   0.125   1.123 -0.0208 -0.3042 -0.9897
  909SOL    HW2 3635   1.728   0.103   1.274 -3.7350 -0.7933  1.8179
  909SOL     MW 3636   1.736   0.074   1.195 -0.5983  0.1406  0.3864
  910SOL     OW 3637   2.250   1.803   0.410 -0.3299 -0.6466  0.1509
  910SOL    HW1 3638   2.188   1.728   0.407 -1.9749 -0.7359  1.1756
  910SOL    HW2 3639   2.232   1.851   0.328  1.0083 -0.8837 -0.7699
  910SOL     MW 3640   2.239   1.799   0.399 -0.3704 -0.6897  0.1646
  911SOL     OW 3641   2.252   2.134   1.657 -0.4137 -0.9072 -0.6080
  911SOL    HW1 3642   2.333   2.146   1.706  1.1225 -0.8447 -0.5285
  911SOL    HW2 3643   2.279   2.169   1.569  1.0923 -1.0893  0.1454
  911SOL     MW 3644   2.266   2.140   1.652 -0.0123 -0.9230 -0.4981
  912SOL     OW 3645   2.944   1.917   1.519  0.1208 -0.6123 -0.7776
  912SOL    HW1 3646   2.964   1.961   1.429 -1.0389  3.2627 -1.5441
  912SOL    HW2 3647   2.852   1.937   1.550 -1.4665  2.4517  0.3330
  912SOL     MW 3648   2.934   1.925   1.511 -0.2417  0.3033 -0.7322
  913SOL     OW 3649   2.633   3.041   0.358  0.0864  0.0752 -0.1528
  913SOL    HW1 3650   2.724   2.998   0.358  0.4660  1.2536  1.8950
  913SOL    HW2 3651   2.569   2.985   0.310 -2.9802 -0.4496 -2.4674
  913SOL     MW 3652   2.637   3.028   0.352 -0.2681  0.1614 -0.1880
  914SOL     OW 3653   2.721   1.748   3.037  0.4444 -0.0280 -0.2649
  914SOL    HW1 3654   2.724   1.837   2.999  0.6240  2.6856 -0.7886
  914SOL    HW2 3655   2.626   1.722   3.029 -3.3410 -0.1733  1.6655
  914SOL     MW 3656   2.709   1.756   3.031 -0.0314  0.3109 -0.0793
  915SOL     OW 3657   1.688   0.220   0.238 -0.0696  0.0972  0.6311
  915SOL    HW1 3658   1.765   0.168   0.271  1.3490 -0.0087  1.3862
  915SOL    HW2 3659   1.605   0.167   0.245 -0.0077  1.2475 -1.0450
  915SOL     MW 3660   1.687   0.206   0.243  0.1258  0.2350  0.5096
  916SOL     OW 3661   1.831   2.123   1.932  0.4069  0.4441  0.1965
  916SOL    HW1 3662   1.847   2.214   1.906  2.6009 -1.0915 -0.3164
  916SOL    HW2 3663   1.844   2.071   1.854 -0.8206  1.3738 -0.5733
  916SOL     MW 3664   1.835   2.128   1.918  0.5344  0.3642  0.0272
  917SOL     OW 3665   2.492   2.212   2.510 -0.2925 -0.3745  0.2406
  917SOL    HW1 3666   2.487   2.259   2.596  0.2763  1.3043 -0.5284
  917SOL    HW2 3667   2.577   2.249   2.481 -0.7712  0.2564 -0.0539
  917SOL     MW 3668   2.503   2.223   2.518 -0.2806 -0.0697  0.1002
  918SOL     OW 3669   1.986   1.611   2.712  0.2684  0.2667 -0.3984
  918SOL    HW1 3670   1.907   1.653   2.676  1.9299  0.2060  1.3211
  918SOL    HW2 3671   2.055   1.657   2.668 -1.3977 -0.0481  0.3902
  918SOL     MW 3672   1.984   1.622   2.701  0.2678  0.2172 -0.0675
  919SOL     OW 3673   3.079   2.340   2.265  0.2610  0.6332 -0.2942
  919SOL    HW1 3674   3.021   2.274   2.227  1.1418  1.2775  2.9718
  919SOL    HW2 3675   3.127   2.378   2.188 -1.5232 -0.8106  3.3664
  919SOL     MW 3676   3.078   2.336   2.250  0.1418  0.5277  0.6197
  920SOL     OW 3677   2.703   2.876   0.004 -0.1817  0.1254  0.2253
  920SOL    HW1 3678   2.624   2.900   0.053 -1.5966 -1.7124 -0.4041
  920SOL    HW2 3679   2.673   2.819  -0.076  1.4716 -1.1595 -0.5594
  920SOL     MW 3680   2.688   2.871  -0.000 -0.1503 -0.2866  0.0388
  921SOL     OW 3681   2.424   2.581   2.644  0.0819  0.5003 -0.2844
  921SOL    HW1 3682   2.480   2.596   2.573 -2.0938 -1.8279 -1.0654
  921SOL    HW2 3683   2.460   2.517   2.695  0.2948  0.6193 -1.2058
  921SOL     MW 3684   2.436   2.575   2.642 -0.1771  0.2088 -0.5090
  922SOL     OW 3685   2.013   2.847   0.291 -0.1103 -0.5160 -0.0552
  922SOL    HW1 3686   2.009   2.869   0.196 -1.2274  1.7629  0.5597
  922SOL    HW2 3687   2.040   2.754   0.293 -0.3102  0.9854 -1.1342
  922SOL     MW 3688   2.016   2.838   0.279 -0.2841 -0.0172 -0.1164
  923SOL     OW 3689   2.167   2.853   1.705  0.2089  0.1616  0.4012
  923SOL    HW1 3690   2.225   2.786   1.669  0.7242  0.5418  2.0678
  923SOL    HW2 3691   2.159   2.922   1.640  1.8420  0.1466 -0.7675
  923SOL     MW 3692   2.174   2.853   1.691  0.4923  0.2098  0.4669
  924SOL     OW 3693   1.124   2.693   2.517 -0.1673  0.3282 -0.2558
  924SOL    HW1 3694   1.209   2.740   2.521  1.7116 -0.0135  0.1641
  924SOL    HW2 3695   1.146   2.633   2.585  2.6960  4.0272  0.5068
  924SOL     MW 3696   1.138   2.692   2.527  0.4584  0.7712 -0.0998
  925SOL     OW 3697   3.066   0.178   2.617  0.2420 -0.1994 -0.5779
  925SOL    HW1 3698   2.997   0.206   2.555  1.3069  1.8903  1.6258
  925SOL    HW2 3699   3.048   0.234   2.697 -0.8333  0.6924  1.4539
  925SOL     MW 3700   3.055   0.189   2.619  0.2406  0.1940 -0.0191
  926SOL     OW 3701   2.713   2.411   2.048 -0.0852  0.0893 -0.0173
  926SOL    HW1 3702   2.745   2.470   2.116  1.3799 -3.4473  1.4538
  926SOL    HW2 3703   2.791   2.411   1.984  2.7869  1.3896  1.6157
  926SOL     MW 3704   2.728   2.419   2.048  0.4870 -0.2057  0.3922
  927SOL     OW 3705   2.332   0.119   0.317 -0.4883 -0.0992 -0.0152
  927SOL    HW1 3706   2.421   0.145   0.317  0.5504  0.9781 -0.4887
  927SOL    HW2 3707   2.311   0.099   0.222 -0.2479  2.4667  1.6066
  927SOL     MW 3708   2.341   0.120   0.305 -0.3196  0.3815  0.1363
  928SOL     OW 3709   2.179   2.387   1.780  0.5101 -0.2089 -0.3702
  928SOL    HW1 3710   2.177   2.438   1.703 -3.7261 -1.3717 -2.7917
  928SOL    HW2 3711   2.203   2.302   1.748  0.7990 -0.1178  1.9555
  928SOL     MW 3712   2.182   2.383   1.765 -0.0107 -0.3503 -0.3829
  929SOL     OW 3713   2.755   2.343   2.452 -0.0575 -0.7171  0.0894
  929SOL    HW1 3714   2.815   2.334   2.376 -1.0432 -1.1023  0.8847
  929SOL    HW2 3715   2.807   2.327   2.531  1.5336 -2.0968 -0.1272
  929SOL     MW 3716   2.770   2.340   2.452  0.0223 -0.9500  0.1658
  930SOL     OW 3717   2.011   2.853   2.742 -0.1221 -0.0145 -0.1815
  930SOL    HW1 3718   2.040   2.762   2.756 -0.2106 -2.2256  0.6106
  930SOL    HW2 3719   2.091   2.908   2.727  2.8146  0.7403  0.0592
  930SOL     MW 3720   2.025   2.848   2.742  0.2537 -0.2067 -0.0452
  931SOL     OW 3721   3.026   2.723   2.368 -0.3128 -0.3864  0.1359
  931SOL    HW1 3722   3.069   2.736   2.456  2.5608  1.1370 -0.3117
  931SOL    HW2 3723   3.098   2.718   2.304 -2.0156  0.6275  2.3255
  931SOL     MW 3724   3.041   2.724   2.371 -0.1584 -0.0516  0.3658
  932SOL     OW 3725   2.921   1.945   2.530  0.4358 -0.2354 -0.6676
  932SOL    HW1 3726   3.009   1.978   2.512 -0.9579 -1.2340 -0.9383
  932SOL    HW2 3727   2.869   1.964   2.449  0.5083 -1.5730 -0.5774
  932SOL     MW 3728   2.926   1.951   2.517  0.2615 -0.5436 -0.6914
  933SOL     OW 3729   2.068   2.812   2.249 -0.1462 -0.5279 -0.4472
  933SOL    HW1 3730   2.147   2.851   2.287  4.0132 -1.7391 -0.7715
  933SOL    HW2 3731   1.992   2.874   2.259 -1.9973  1.8563  0.8257
  933SOL     MW 3732   2.068   2.826   2.255  0.1583 -0.3731 -0.3221
  934SOL     OW 3733   2.021   2.738   2.493 -0.5485  0.8466 -0.5075
  934SOL    HW1 3734   2.027   2.798   2.567  0.5128  0.7085  1.2781
  934SOL    HW2 3735   2.052   2.780   2.410 -0.1103 -3.0752 -2.6935
  934SOL     MW 3736   2.026   2.752   2.492 -0.3507  0.3109 -0.5603
  935SOL     OW 3737   2.695   1.529   1.837  0.1102  0.6715  0.2334
  935SOL    HW1 3738   2.787   1.517   1.838  0.6226 -0.1590  5.0110
  935SOL    HW2 3739   2.653   1.531   1.755  1.3310  1.3679  1.4376
  935SOL     MW 3740   2.702   1.528   1.827  0.3389  0.6538  1.0226
  936SOL     OW 3741   2.995   2.218   3.077 -0.6958  0.1492  0.2140
  936SOL    HW1 3742   3.045   2.284   3.123 -1.8911  0.6280 -2.1173
  936SOL    HW2 3743   2.911   2.265   3.085 -0.8005  0.8514 -0.1403
  936SOL     MW 3744   2.991   2.233   3.084 -0.8673  0.3050 -0.1403
  937SOL     OW 3745   1.963   2.139   2.606  0.5127 -0.0350  0.2312
  937SOL    HW1 3746   2.034   2.094   2.663 -1.0328 -0.7479  1.0840
  937SOL    HW2 3747   1.965   2.088   2.523  0.3927  0.5394 -2.8775
  937SOL     MW 3748   1.973   2.126   2.603  0.2929 -0.0533 -0.0664
  938SOL     OW 3749   2.299   1.795   1.947 -0.2462 -0.0388 -0.9351
  938SOL    HW1 3750   2.293   1.822   1.853 -2.7755  0.3216  0.1710
  938SOL    HW2 3751   2.312   1.880   1.986  1.5321  0.9709 -1.8536
  938SOL     MW 3752   2.300   1.810   1.940 -0.3453  0.1420 -0.9103
  939SOL     OW 3753   2.758   1.992   2.297  0.4293 -0.0033 -0.4629
  939SOL    HW1 3754   2.775   1.915   2.246 -1.1702  0.3939  0.0226
  939SOL    HW2 3755   2.657   1.971   2.310 -1.4308 -2.1496  1.2128
  939SOL     MW 3756   2.747   1.979   2.292 -0.0271 -0.2340 -0.1778
  940SOL     OW 3757   2.279   0.166   2.689  0.0286 -0.2368 -0.4221
  940SOL    HW1 3758   2.272   0.074   2.686 -0.8193 -0.4135 -1.0519
  940SOL    HW2 3759   2.321   0.169   2.779  0.5891  0.4391  0.4557
  940SOL     MW 3760   2.283   0.155   2.700 -0.0093 -0.1709 -0.3894
  941SOL     OW 3761   0.115   2.458   2.056 -0.5173 -0.1362  0.0746
  941SOL    HW1 3762   0.199   2.435   2.081 -1.4069  1.6002 -1.3328
  941SOL    HW2 3763   0.124   2.455   1.958 -0.5207 -0.1824 -1.3583
  941SOL     MW 3764   0.128   2.454   2.046 -0.6351  0.0868 -0.3001
  942SOL     OW 3765   2.835   2.214   2.170 -0.5079 -0.0768  0.1342
  942SOL    HW1 3766   2.777   2.269   2.117  2.1640 -0.0087 -2.0344
  942SOL    HW2 3767   2.788   2.152   2.221  0.4763  1.1672 -1.0283
  942SOL     MW 3768   2.821   2.213   2.170 -0.0255  0.0963 -0.3053
  943SOL     OW 3769   0.279   2.090   2.273  0.0206 -0.4236 -0.2751
  943SOL    HW1 3770   0.242   2.150   2.333 -0.1053  1.0071 -0.5628
  943SOL    HW2 3771   0.362   2.059   2.315 -2.4881 -2.5068  0.0025
  943SOL     MW 3772   0.285   2.094   2.287 -0.3270 -0.5097 -0.2764
  944SOL     OW 3773   2.087   2.663   2.013  0.2956  0.4024 -0.3756
  944SOL    HW1 3774   2.148   2.595   2.028 -0.3757  1.7871 -1.5169
  944SOL    HW2 3775   2.066   2.707   2.099 -0.6629  0.1116  0.0711
  944SOL     MW 3776   2.093   2.660   2.027  0.0806  0.5467 -0.4672
  945SOL     OW 3777   2.679   2.696   2.886  0.6489  0.2289 -0.5347
  945SOL    HW1 3778   2.674   2.600   2.874  1.3480 -1.9489  0.0282
  945SOL    HW2 3779   2.737   2.722   2.815 -1.0951 -0.6023 -1.4171
  945SOL     MW 3780   2.686   2.687   2.875  0.5110 -0.1681 -0.5769
  946SOL     OW 3781   2.478   2.677   2.242  0.4140  0.2507 -0.6304
  946SOL    HW1 3782   2.495   2.738   2.165 -2.8533 -2.5634  0.1018
  946SOL    HW2 3783   2.400   2.616   2.220 -3.0558 -0.1914  1.0513
  946SOL     MW 3784   2.470   2.677   2.229 -0.4749 -0.1789 -0.3119
  947SOL     OW 3785   1.916   0.079   0.296  0.3541  0.2025 -0.6092
  947SOL    HW1 3786   1.885  -0.017   0.299 -1.5448 -3.1689  1.3824
  947SOL    HW2 3787   1.987   0.081   0.361  0.2105  1.1799  2.1441
  947SOL     MW 3788   1.921   0.066   0.305  0.0846 -0.1133  0.0168
  948SOL     OW 3789   1.795   3.029   2.710  0.0071  0.1266 -0.1143
  948SOL    HW1 3790   1.844   2.944   2.718 -0.1008 -1.2021 -1.4956
  948SOL    HW2 3791   1.788   3.057   2.613 -0.9599 -0.1329  1.4564
  948SOL     MW 3792   1.801   3.021   2.698 -0.1347 -0.0829 -0.0893
  949SOL     OW 3793   2.487   1.914   2.269  0.6500 -0.1790  0.1248
  949SOL    HW1 3794   2.474   1.817   2.262 -1.6902 -2.6431 -0.4811
  949SOL    HW2 3795   2.419   1.956   2.320  2.2370  0.4945  0.8162
  949SOL     MW 3796   2.476   1.907   2.275  0.5507 -0.4153  0.1361
  950SOL     OW 3797   2.324   2.502   2.913  0.0661 -0.0809  0.2113
  950SOL    HW1 3798   2.372   2.430   2.875  0.7753  0.7535  0.5752
  950SOL    HW2 3799   2.260   2.522   2.838 -0.5093 -0.8396 -2.1815
  950SOL     MW 3800   2.322   2.495   2.898  0.0838 -0.0709 -0.0564
  951SOL     OW 3801   3.014   2.084   2.829  0.4854  0.3977  0.2018
  951SOL    HW1 3802   3.004   2.130   2.915  0.7669  1.9518 -1.4603
  951SOL    HW2 3803   3.097   2.042   2.835  0.9266  1.9930 -1.3925
  951SOL     MW 3804   3.024   2.084   2.841  0.5808  0.8132 -0.2279
  952SOL     OW 3805   3.025   1.684   2.181  0.1932 -0.3195 -0.2617
  952SOL    HW1 3806   2.942   1.716   2.148  1.8329  0.7678  2.4593
  952SOL    HW2 3807   3.064   1.756   2.233 -0.4702 -2.2764  2.7264
  952SOL     MW 3808   3.019   1.698   2.184  0.3220 -0.4342  0.4915
  953SOL     OW 3809   1.899   1.765   2.907  0.5142  0.4423  0.1899
  953SOL    HW1 3810   1.824   1.719   2.947 -0.1743 -1.0480 -0.8062
  953SOL    HW2 3811   1.940   1.702   2.850 -0.7978 -2.5741 -0.9477
  953SOL     MW 3812   1.895   1.750   2.905  0.2502 -0.1523 -0.0916
  954SOL     OW 3813   2.372   2.080   2.864  0.1574 -0.2640 -0.8516
  954SOL    HW1 3814   2.289   2.080   2.820  1.6336  1.5490  3.4661
  954SOL    HW2 3815   2.441   2.049   2.792  1.1421 -1.0489 -2.7129
  954SOL     MW 3816   2.370   2.076   2.849  0.4821 -0.1284 -0.5275
  955SOL     OW 3817   1.562   1.577   2.566 -0.1742  0.2303  0.1697
  955SOL    HW1 3818   1.540   1.611   2.481  0.5371  1.5639  1.8051
  955SOL    HW2 3819   1.650   1.620   2.577 -0.6827  0.1580 -2.6903
  955SOL     MW 3820   1.571   1.587   2.556 -0.1474  0.3967  0.0081
  956SOL     OW 3821   2.687   2.407   2.839  0.0779 -0.1695  0.6140
  956SOL    HW1 3822   2.701   2.383   2.935 -2.8326 -2.5145 -1.6197
  956SOL    HW2 3823   2.769   2.396   2.790  2.5665 -2.8178 -2.3894
  956SOL     MW 3824   2.699   2.402   2.845  0.0222 -0.8283 -0.0769
  957SOL     OW 3825   2.295   2.841   0.397 -0.5410  0.2530  0.2567
  957SOL    HW1 3826   2.217   2.834   0.340  0.3441 -0.4590 -0.3506
  957SOL    HW2 3827   2.262   2.796   0.482  0.1877  1.0324  4.5640
  957SOL     MW 3828   2.281   2.834   0.401 -0.3280  0.2619  0.7448
  958SOL     OW 3829   2.088   2.587   2.802 -0.0862 -0.0704  0.8392
  958SOL    HW1 3830   2.048   2.507   2.770 -2.2090 -2.0038  1.9951
  958SOL    HW2 3831   2.044   2.598   2.891 -0.3921 -2.8416 -0.6451
  958SOL     MW 3832   2.077   2.578   2.810 -0.4066 -0.6912  0.7959
  959SOL     OW 3833   2.519   2.648   0.373 -0.4843  0.4178  0.4610
  959SOL    HW1 3834   2.503   2.618   0.282 -1.2878  1.9524 -3.2815
  959SOL    HW2 3835   2.458   2.721   0.384  2.5106  2.1255  0.3523
  959SOL     MW 3836   2.509   2.654   0.362 -0.1951  0.8456 -0.0471
  960SOL     OW 3837   1.917   2.298   2.304 -0.3980  0.2929  0.4010
  960SOL    HW1 3838   1.917   2.204   2.312  2.1225  0.2922 -0.5404
  960SOL    HW2 3839   1.863   2.345   2.365  0.0322 -0.1510  1.4645
  960SOL     MW 3840   1.910   2.292   2.313 -0.0087  0.2342  0.4171
  961SOL     OW 3841   2.185   2.319   2.298 -0.5223 -0.5594  0.0293
  961SOL    HW1 3842   2.092   2.308   2.291  1.2539 -1.6784 -0.4413
  961SOL    HW2 3843   2.196   2.384   2.369 -0.3330  2.0852 -0.0987
  961SOL     MW 3844   2.174   2.326   2.306 -0.2630 -0.3581 -0.0497
  962SOL     OW 3845   2.142   1.988   2.767  0.0127  0.1537  0.0116
  962SOL    HW1 3846   2.104   1.966   2.852 -1.1488  0.4299  1.1963
  962SOL    HW2 3847   2.159   1.901   2.716  0.2173 -1.2817  2.5268
  962SOL     MW 3848   2.139   1.974   2.772 -0.1135  0.0008  0.4997
  963SOL     OW 3849   1.818   2.507   2.072 -0.4371 -0.5912  0.1716
  963SOL    HW1 3850   1.878   2.501   2.141 -0.0177  0.5070 -0.2468
  963SOL    HW2 3851   1.860   2.454   2.000 -2.0937 -2.7371  0.3334
  963SOL     MW 3852   1.832   2.499   2.072 -0.6003 -0.7294  0.1377
  964SOL     OW 3853   1.766   2.003   2.722  0.3715 -0.5194  0.1587
  964SOL    HW1 3854   1.824   2.069   2.680  1.8118 -2.1123  1.8584
  964SOL    HW2 3855   1.830   1.941   2.751  0.2005  1.6220 -2.5458
  964SOL     MW 3856   1.782   2.004   2.720  0.5389 -0.4470  0.0261
  965SOL     OW 3857   2.237   2.696   0.632  0.0778 -0.4482  0.7361
  965SOL    HW1 3858   2.244   2.603   0.605  0.0118 -1.0862 -0.0299
  965SOL    HW2 3859   2.314   2.734   0.679 -0.1835  1.4209 -0.5124
  965SOL     MW 3860   2.248   2.689   0.634  0.0346 -0.2858  0.4703
  966SOL     OW 3861   2.644   2.623   2.472  0.0529 -0.3347  0.2648
  966SOL    HW1 3862   2.594   2.644   2.384  0.3496 -1.5934  0.7406
  966SOL    HW2 3863   2.705   2.557   2.448 -0.5616  2.5302  1.7103
  966SOL     MW 3864   2.645   2.617   2.457  0.0110 -0.1228  0.5183
  967SOL     OW 3865   2.781   3.094   2.956 -0.3289  0.1455 -0.0576
  967SOL    HW1 3866   2.779   3.019   3.016 -1.9557  0.3033 -0.1380
  967SOL    HW2 3867   2.702   3.078   2.911  2.5750  1.0145  1.0516
  967SOL     MW 3868   2.771   3.082   2.958 -0.1604  0.2810  0.0781
  968SOL     OW 3869   2.969   2.616   2.931  0.2974  0.1013  0.7969
  968SOL    HW1 3870   2.877   2.653   2.915 -0.9562  1.8476 -1.7556
  968SOL    HW2 3871   2.991   2.562   2.857 -1.6082 -1.7671  2.4986
  968SOL     MW 3872   2.960   2.614   2.919 -0.1194  0.0852  0.6846
  969SOL     OW 3873   1.608   2.145   1.662 -0.2771 -0.2589  0.0291
  969SOL    HW1 3874   1.664   2.062   1.675  0.7930  0.1289 -1.1569
  969SOL    HW2 3875   1.586   2.168   1.755  0.7691  0.4434 -0.2435
  969SOL     MW 3876   1.613   2.137   1.676  0.0021 -0.1150 -0.1634
  970SOL     OW 3877   1.693   1.778   1.954 -0.2339 -0.2690 -0.2616
  970SOL    HW1 3878   1.709   1.691   1.991 -0.2842  3.5855  0.4003
  970SOL    HW2 3879   1.601   1.770   1.937  2.4047 -0.0716 -0.9735
  970SOL     MW 3880   1.683   1.765   1.957  0.1076  0.2656 -0.2682
  971SOL     OW 3881   1.759   0.057   2.434  0.5596  0.3246 -0.1951
  971SOL    HW1 3882   1.807   0.009   2.367  0.1703  1.3904 -0.3259
  971SOL    HW2 3883   1.806   0.139   2.450  2.9198 -1.7114  3.5264
  971SOL     MW 3884   1.772   0.061   2.427  0.8197  0.1966  0.2786
  972SOL     OW 3885   0.273   2.864   2.461  0.0496 -0.2589 -0.3357
  972SOL    HW1 3886   0.341   2.812   2.503  2.1522 -0.5149 -3.3130
  972SOL    HW2 3887   0.310   2.950   2.452  1.4573  0.7626 -0.7960
  972SOL     MW 3888   0.287   2.869   2.465  0.5127 -0.1579 -0.7893
  973SOL     OW 3889   2.591   0.016   2.111  0.3660  0.2876 -0.1689
  973SOL    HW1 3890   2.558  -0.073   2.091  0.2482 -0.7341 -1.5282
  973SOL    HW2 3891   2.593   0.051   2.020 -0.2435  1.4979 -0.3395
  973SOL     MW 3892   2.587   0.009   2.096  0.2701  0.3125 -0.3708
  974SOL     OW 3893   2.027   0.282   2.695 -0.0599  0.0359  0.4794
  974SOL    HW1 3894   2.121   0.270   2.688  0.4700  0.6662 -1.2151
  974SOL    HW2 3895   1.998   0.214   2.754  0.5927  0.9284 -0.8892
  974SOL     MW 3896   2.036   0.271   2.701  0.0961  0.2368  0.0753
  975SOL     OW 3897   2.180   2.519   2.513  0.2618 -0.1044  0.3664
  975SOL    HW1 3898   2.261   2.531   2.556  0.7256  1.6486 -1.3498
  975SOL    HW2 3899   2.132   2.601   2.519 -0.7301  0.3642 -0.4491
  975SOL     MW 3900   2.184   2.532   2.519  0.1921  0.1887  0.0323
  976SOL     OW 3901   0.257   0.388   1.776  0.2570  0.9350 -0.1708
  976SOL    HW1 3902   0.296   0.315   1.817 -1.4133 -1.2699 -2.1445
  976SOL    HW2 3903   0.183   0.348   1.727 -0.0572 -1.0283 -0.9570
  976SOL     MW 3904   0.252   0.373   1.775 -0.0048  0.3851 -0.5350
  977SOL     OW 3905   1.761   2.685   2.551 -0.2476 -0.0222  0.2457
  977SOL    HW1 3906   1.748   2.593   2.536  3.7702  2.0721  0.4828
  977SOL    HW2 3907   1.851   2.703   2.521  0.7604  0.6459 -0.9681
  977SOL     MW 3908   1.771   2.675   2.545  0.4155  0.3423  0.1168
   3.10000   3.10000   3.10000
