977 TIP4P/2005f water molecules t=   0.51000 step= 510
 3908
    1SOL     OW    1   0.250   0.802   0.030 -1.1049  0.3955 -0.4477
    1SOL    HW1    2   0.239   0.827  -0.059 -0.2557  1.1118  1.0252
    1SOL    HW2    3   0.223   0.710   0.026  0.2709  1.9104 -1.5424
    1SOL     MW    4   0.245   0.793   0.018 -0.8114  0.6899 -0.3978
    2SOL     OW    5   0.267   3.046   1.162  0.0650 -0.7242 -0.5061
    2SOL    HW1    6   0.324   3.111   1.118  2.0120  0.2458 -1.8091
    2SOL    HW2    7   0.180   3.092   1.158 -2.7135 -3.2621  0.6163
    2SOL     MW    8   0.263   3.060   1.155 -0.0447 -0.9311 -0.5299
    3SOL     OW    9   2.694   0.388   0.930  0.6314 -0.2485  0.0203
    3SOL    HW1   10   2.721   0.455   0.870 -2.8734  0.4705  1.2953
    3SOL    HW2   11   2.659   0.437   1.013 -0.2811  1.8733 -2.7630
    3SOL     MW   12   2.693   0.404   0.933  0.0486  0.1263 -0.1787
    4SOL     OW   13   3.048   1.757   0.594  0.5874  0.1394 -0.0924
    4SOL    HW1   14   2.979   1.801   0.543  1.1692  0.9195 -0.4190
    4SOL    HW2   15   3.107   1.693   0.555  0.1630 -1.2068  0.7189
    4SOL     MW   16   3.047   1.754   0.582  0.6082  0.0647 -0.0285
    5SOL     OW   17   1.740   1.501   0.596 -0.3987 -0.3842 -0.0508
    5SOL    HW1   18   1.781   1.431   0.651 -1.4569  1.7886  0.4495
    5SOL    HW2   19   1.644   1.482   0.614 -0.9983 -3.2755 -1.7753
    5SOL     MW   20   1.733   1.489   0.606 -0.6174 -0.4790 -0.2123
    6SOL     OW   21   0.865   1.386   0.685 -0.0208  0.2294 -0.4032
    6SOL    HW1   22   0.778   1.381   0.716  1.9517  2.3584  1.6368
    6SOL    HW2   23   0.900   1.299   0.688  0.1564 -0.4426  3.1816
    6SOL     MW   24   0.858   1.374   0.690  0.2629  0.4216  0.3389
    7SOL     OW   25   1.994   1.087   0.050  0.5146  0.4434 -0.1941
    7SOL    HW1   26   2.041   1.159   0.013 -0.3133 -0.0731 -2.9591
    7SOL    HW2   27   2.033   1.079   0.140 -0.5084  3.1422  2.6537
    7SOL     MW   28   2.005   1.096   0.057  0.2704  0.7313 -0.1832
    8SOL     OW   29   0.961   1.360   1.017 -0.2948  0.1189  0.1860
    8SOL    HW1   30   0.979   1.326   0.926 -1.4801  3.4548 -3.4324
    8SOL    HW2   31   0.939   1.284   1.078 -2.2878  0.8031 -1.4650
    8SOL     MW   32   0.961   1.345   1.013 -0.7142  0.6493 -0.5093
    9SOL     OW   33   1.075   0.481   1.367  0.0820  0.0645  0.0634
    9SOL    HW1   34   1.016   0.421   1.322 -0.8209 -1.3239  2.4473
    9SOL    HW2   35   1.117   0.428   1.434 -0.8605  0.6651 -2.3185
    9SOL     MW   36   1.073   0.466   1.370 -0.1615 -0.0394  0.0637
   10SOL     OW   37   0.266   0.775   0.446 -0.4579  0.2655 -0.4130
   10SOL    HW1   38   0.355   0.814   0.433  3.2216  0.8327 -0.2045
   10SOL    HW2   39   0.226   0.820   0.522 -2.8390  0.1926  1.1093
   10SOL     MW   40   0.272   0.786   0.454 -0.2866  0.3307 -0.1846
   11SOL     OW   41   0.796   1.097   1.634 -0.4681  0.2891  0.4143
   11SOL    HW1   42   0.791   1.088   1.727  1.8512  0.3366  1.0981
   11SOL    HW2   43   0.780   1.008   1.599 -0.5326  3.4099  1.9153
   11SOL     MW   44   0.794   1.084   1.641 -0.1706  0.7071  0.7025
   12SOL     OW   45   0.039   1.073   0.859 -0.0578  0.0394 -0.4736
   12SOL    HW1   46   0.064   1.150   0.910 -2.0635 -2.9538  0.2312
   12SOL    HW2   47  -0.032   1.080   0.794  0.5762 -5.2723  1.0109
   12SOL     MW   48   0.033   1.084   0.857 -0.2388 -1.0564 -0.1848
   13SOL     OW   49   1.873   1.415   1.322 -0.5209  0.4279 -0.0935
   13SOL    HW1   50   1.902   1.374   1.244 -0.8844  3.0014  1.3712
   13SOL    HW2   51   1.841   1.509   1.300 -1.6779  0.9718  0.7001
   13SOL     MW   52   1.872   1.422   1.308 -0.7215  0.8392  0.2044
   14SOL     OW   53   0.591   0.311   1.802 -0.1687  0.4094  0.3837
   14SOL    HW1   54   0.557   0.254   1.727 -0.5746 -1.1071  1.3491
   14SOL    HW2   55   0.657   0.255   1.840 -1.9098  0.2934 -0.5422
   14SOL     MW   56   0.595   0.296   1.797 -0.4520  0.1940  0.3889
   15SOL     OW   57   1.970   0.514   0.961 -0.6266  0.3970  0.2282
   15SOL    HW1   58   2.022   0.542   1.040  2.5493  0.1888  0.7468
   15SOL    HW2   59   2.038   0.458   0.918 -1.5108 -0.4864  0.5240
   15SOL     MW   60   1.986   0.510   0.966 -0.3243  0.2530  0.3357
   16SOL     OW   61   0.219   1.773   0.333  0.7134  0.4123 -0.3779
   16SOL    HW1   62   0.308   1.733   0.328  0.4353  0.1133  2.9003
   16SOL    HW2   63   0.238   1.866   0.359 -1.8092 -1.7614  0.4277
   16SOL     MW   64   0.233   1.780   0.336  0.3438  0.0861  0.1609
   17SOL     OW   65   1.004   0.830   1.493 -0.1276  0.6879  0.0323
   17SOL    HW1   66   1.063   0.809   1.565 -1.9718 -1.7648 -0.7471
   17SOL    HW2   67   0.918   0.789   1.508  0.0510  0.4935 -0.2519
   17SOL     MW   68   1.001   0.822   1.505 -0.3473  0.3387 -0.1080
   18SOL     OW   69   0.083   1.573   0.449  0.0117  0.3698 -0.1825
   18SOL    HW1   70   0.137   1.641   0.404 -0.5764  1.1046  0.5060
   18SOL    HW2   71   0.037   1.521   0.386  0.8160  1.2230 -2.0501
   18SOL     MW   72   0.084   1.575   0.435  0.0402  0.5793 -0.3381
   19SOL     OW   73   0.087   1.308   0.985 -0.0405 -0.5852  0.2614
   19SOL    HW1   74   0.139   1.364   0.924 -0.0566  2.2532  1.7026
   19SOL    HW2   75   0.009   1.357   1.000  1.3794 -0.7596 -0.2833
   19SOL     MW   76   0.083   1.322   0.979  0.1448 -0.2337  0.3797
   20SOL     OW   77   0.434   2.134   1.304 -0.2768 -0.0508  0.0841
   20SOL    HW1   78   0.382   2.067   1.257  0.2376  3.0899 -0.3581
   20SOL    HW2   79   0.366   2.173   1.360 -0.5604 -2.6010 -0.6692
   20SOL     MW   80   0.418   2.130   1.305 -0.2463  0.0271 -0.0736
   21SOL     OW   81   0.522   0.840   0.359 -0.2672 -0.1462  0.4782
   21SOL    HW1   82   0.601   0.821   0.406  1.2222 -0.9937 -0.5786
   21SOL    HW2   83   0.536   0.792   0.276  0.6065 -2.1880  2.2806
   21SOL     MW   84   0.534   0.831   0.354  0.0446 -0.5274  0.5766
   22SOL     OW   85   1.557   0.579   1.108 -0.6050 -0.2092  0.1767
   22SOL    HW1   86   1.610   0.530   1.034 -2.2157  0.6349  0.1144
   22SOL    HW2   87   1.507   0.646   1.063  2.0091  0.0872  0.6176
   22SOL     MW   88   1.557   0.581   1.093 -0.4726 -0.0588  0.2267
   23SOL     OW   89   3.077   0.751   0.700  0.3300  0.0631 -0.2023
   23SOL    HW1   90   3.127   0.678   0.736 -1.0185 -0.0841 -0.4076
   23SOL    HW2   91   3.139   0.828   0.695  0.4289  1.7612 -0.6457
   23SOL     MW   92   3.092   0.751   0.704  0.1652  0.2677 -0.2879
   24SOL     OW   93   2.006   2.179   0.070 -0.4722  0.4928  0.0216
   24SOL    HW1   94   2.003   2.156   0.165 -1.8898  0.5487 -0.6470
   24SOL    HW2   95   2.063   2.117   0.029  0.0642  1.6807  2.6450
   24SOL     MW   96   2.013   2.167   0.077 -0.5885  0.6569  0.2795
   25SOL     OW   97   0.311   1.427   0.523 -0.6141 -0.5700 -0.0753
   25SOL    HW1   98   0.247   1.502   0.501 -2.2526  0.2544 -0.0377
   25SOL    HW2   99   0.378   1.427   0.461 -2.4407  2.3059  4.9900
   25SOL     MW  100   0.311   1.437   0.512 -1.0713 -0.0818  0.5980
   26SOL     OW  101   2.040   0.903   0.465 -0.7984  0.1415 -0.4782
   26SOL    HW1  102   1.976   0.966   0.444  3.7313  0.2159  2.8595
   26SOL    HW2  103   2.117   0.927   0.411 -0.4248  0.4410  0.5457
   26SOL     MW  104   2.042   0.915   0.455 -0.1515  0.1908  0.0972
   27SOL     OW  105   2.037   1.379   0.266  0.0486  0.2800  0.4311
   27SOL    HW1  106   1.944   1.383   0.297  0.1821  0.5544  1.9682
   27SOL    HW2  107   2.078   1.447   0.322 -2.0226  1.7151  0.0341
   27SOL     MW  108   2.030   1.389   0.277 -0.2071  0.5056  0.5815
   28SOL     OW  109   0.351   1.056   1.968  0.1905  0.7090  0.0282
   28SOL    HW1  110   0.439   1.066   2.002 -1.4591  5.4948  0.4332
   28SOL    HW2  111   0.309   0.973   1.975  2.1189 -0.2956  0.4632
   28SOL     MW  112   0.357   1.046   1.973  0.2273  1.2079  0.1390
   29SOL     OW  113   0.266   1.422   0.812 -0.2491  0.2519 -0.3085
   29SOL    HW1  114   0.272   1.518   0.797  0.3381 -0.0536  2.9371
   29SOL    HW2  115   0.283   1.390   0.725  0.9454  1.6134  1.2660
   29SOL     MW  116   0.269   1.430   0.799 -0.0140  0.3912  0.3275
   30SOL     OW  117   0.875   1.099   1.224 -0.0294  0.6846  0.3314
   30SOL    HW1  118   0.787   1.117   1.265 -1.6344  3.0982  0.7171
   30SOL    HW2  119   0.934   1.104   1.302  0.1417 -0.7240  2.7738
   30SOL     MW  120   0.871   1.102   1.239 -0.2186  0.8172  0.7046
   31SOL     OW  121   0.393   0.247   0.193 -0.2895  0.3047 -0.6529
   31SOL    HW1  122   0.411   0.171   0.256 -0.3296 -1.7861  0.4526
   31SOL    HW2  123   0.402   0.206   0.110 -0.7598 -2.3704  2.0048
   31SOL     MW  124   0.397   0.232   0.190 -0.3568 -0.3241 -0.1564
   32SOL     OW  125   2.761   1.043   1.118  0.0419 -0.6529 -0.0446
   32SOL    HW1  126   2.704   0.969   1.102 -0.0000  1.2286  2.1766
   32SOL    HW2  127   2.846   1.012   1.085  0.1456 -1.0125 -0.0649
   32SOL     MW  128   2.765   1.029   1.112  0.0501 -0.4521  0.2458
   33SOL     OW  129   1.785   1.363   0.347  0.8224 -0.0525 -0.4047
   33SOL    HW1  130   1.802   1.285   0.400  1.3195  1.3243  1.1200
   33SOL    HW2  131   1.758   1.427   0.411 -1.8011 -1.6344 -0.1712
   33SOL     MW  132   1.784   1.361   0.362  0.5418 -0.0796 -0.1727
   34SOL     OW  133   1.216   1.892   1.101  0.5460  0.0478  0.1772
   34SOL    HW1  134   1.130   1.935   1.128 -0.6434  2.0349  0.1118
   34SOL    HW2  135   1.276   1.895   1.181 -2.2426 -0.8000 -1.2802
   34SOL     MW  136   1.213   1.898   1.115  0.0211  0.1981 -0.0237
   35SOL     OW  137   0.323   0.129   1.811  0.4233  0.0842 -0.2238
   35SOL    HW1  138   0.354   0.129   1.899 -0.6378 -0.9604  1.5443
   35SOL    HW2  139   0.368   0.055   1.762  0.6391  0.1963  1.0419
   35SOL     MW  140   0.333   0.119   1.816  0.3117 -0.0388  0.1765
   36SOL     OW  141   1.853   1.934   0.499 -0.4431 -0.4098 -0.9833
   36SOL    HW1  142   1.889   1.938   0.405 -1.2819 -2.2035 -1.1165
   36SOL    HW2  143   1.891   1.854   0.536  3.0005 -2.6216  0.8342
   36SOL     MW  144   1.863   1.924   0.492 -0.0994 -0.9383 -0.7611
   37SOL     OW  145   1.748   2.064   1.021  0.4222 -0.1677  0.7838
   37SOL    HW1  146   1.709   1.995   0.969 -3.1028 -0.1130  0.8250
   37SOL    HW2  147   1.692   2.055   1.108  0.0928 -1.4890  1.0429
   37SOL     MW  148   1.735   2.053   1.026 -0.0864 -0.3348  0.8234
   38SOL     OW  149   2.830   0.924   0.175 -0.1152  0.1151 -0.4110
   38SOL    HW1  150   2.877   0.947   0.257 -0.2660 -2.2590  3.5139
   38SOL    HW2  151   2.898   0.909   0.114 -0.9399  1.8849  0.4603
   38SOL     MW  152   2.845   0.925   0.178 -0.2439  0.0354  0.2218
   39SOL     OW  153   1.430   0.618   0.800 -0.4318 -0.2419 -0.0842
   39SOL    HW1  154   1.411   0.524   0.794 -2.1570 -0.1241  3.7307
   39SOL    HW2  155   1.347   0.662   0.817  0.5843  1.6166  0.5255
   39SOL     MW  156   1.416   0.611   0.802 -0.5253  0.0189  0.4996
   40SOL     OW  157   1.228   1.877   0.252 -0.7546 -0.3063  0.0410
   40SOL    HW1  158   1.292   1.813   0.288  0.0392  0.9562 -1.2726
   40SOL    HW2  159   1.240   1.950   0.312 -0.7192  1.8061 -3.2382
   40SOL     MW  160   1.238   1.878   0.264 -0.6452  0.1390 -0.5649
   41SOL     OW  161   0.597   0.486   1.573  0.0685  0.3721  0.0824
   41SOL    HW1  162   0.688   0.514   1.566  0.7035 -1.8179 -1.6590
   41SOL    HW2  163   0.601   0.430   1.646 -0.5685 -0.9384 -0.9814
   41SOL     MW  164   0.610   0.482   1.582  0.0682 -0.0897 -0.2877
   42SOL     OW  165   1.282   2.998   1.988 -0.5317 -0.5916  0.2018
   42SOL    HW1  166   1.200   2.984   2.030 -0.0240  0.2414 -3.0822
   42SOL    HW2  167   1.318   2.910   1.994 -1.7479 -1.4690 -2.7843
   42SOL     MW  168   1.276   2.984   1.994 -0.6252 -0.5975 -0.6255
   43SOL     OW  169   1.519   0.166   1.717 -0.0901 -0.1279  0.3702
   43SOL    HW1  170   1.586   0.107   1.683 -1.6924 -2.4051  0.4401
   43SOL    HW2  171   1.448   0.096   1.713 -3.8407 -1.9052 -2.1071
   43SOL     MW  172   1.518   0.149   1.712 -0.7963 -0.6629  0.0526
   44SOL     OW  173   1.268   0.734   1.086 -0.5924  0.0145  0.0541
   44SOL    HW1  174   1.232   0.827   1.074 -1.0634  1.1313 -1.9811
   44SOL    HW2  175   1.255   0.707   1.178 -1.5120  0.1512 -0.0080
   44SOL     MW  176   1.261   0.743   1.096 -0.7759  0.1799 -0.2226
   45SOL     OW  177   1.156   0.727   0.791 -0.6969  0.1004  0.4153
   45SOL    HW1  178   1.145   0.672   0.870  0.9097  0.6558 -2.8251
   45SOL    HW2  179   1.097   0.683   0.727  2.4966 -0.1248  1.5534
   45SOL     MW  180   1.147   0.714   0.793 -0.0635  0.1439  0.1379
   46SOL     OW  181   0.551   1.161   0.535 -0.6843  0.2437  0.6079
   46SOL    HW1  182   0.552   1.155   0.433  1.5029 -0.2479 -0.4251
   46SOL    HW2  183   0.643   1.133   0.553 -1.9585 -0.2799  2.5945
   46SOL     MW  184   0.563   1.156   0.524 -0.5639  0.1098  0.7337
   47SOL     OW  185   0.206   1.909   1.801  0.3721  0.2332 -0.4618
   47SOL    HW1  186   0.290   1.858   1.798 -1.0735  1.1208 -1.6310
   47SOL    HW2  187   0.179   1.908   1.898  0.8374 -1.6476  0.1823
   47SOL     MW  188   0.213   1.902   1.814  0.2427  0.1022 -0.5311
   48SOL     OW  189   1.034   0.612   1.021  0.2950 -0.0611 -0.1045
   48SOL    HW1  190   0.941   0.619   1.047  1.6330  0.1778  0.3748
   48SOL    HW2  191   1.081   0.676   1.071 -2.8397 -2.0601  0.4265
   48SOL     MW  192   1.028   0.621   1.031  0.0580 -0.2933  0.0288
   49SOL     OW  193   1.812   0.756   1.561  0.2023 -0.8704 -0.4553
   49SOL    HW1  194   1.759   0.748   1.642 -3.2837  1.4701  0.3156
   49SOL    HW2  195   1.882   0.683   1.559  2.2561 -1.5492 -0.1303
   49SOL     MW  196   1.814   0.745   1.572  0.0134 -0.6512 -0.3107
   50SOL     OW  197   1.172   1.050   0.511 -0.4491  0.2751 -0.2300
   50SOL    HW1  198   1.180   1.091   0.595  2.4662  0.2405 -0.4862
   50SOL    HW2  199   1.228   0.968   0.505 -0.1993 -0.1039 -0.4889
   50SOL     MW  200   1.181   1.045   0.521 -0.0315  0.2206 -0.2979
   51SOL     OW  201   0.342   2.878   0.960  0.3236 -0.1780  0.1611
   51SOL    HW1  202   0.437   2.861   0.969 -0.7295 -1.3266  0.3869
   51SOL    HW2  203   0.313   2.931   1.037  2.5404  1.6489 -0.4045
   51SOL     MW  204   0.351   2.883   0.972  0.4771 -0.0885  0.1163
   52SOL     OW  205   0.795   1.786   0.386  0.2159  0.6878  0.0256
   52SOL    HW1  206   0.769   1.873   0.408  0.3720 -1.6135  0.8418
   52SOL    HW2  207   0.803   1.784   0.290  2.4421 -0.2755  0.5714
   52SOL     MW  208   0.793   1.798   0.377  0.5302  0.2571  0.2053
   53SOL     OW  209   0.506   2.124   0.593  0.0270  0.8613  0.1072
   53SOL    HW1  210   0.424   2.097   0.547  0.0607 -1.0006  0.3078
   53SOL    HW2  211   0.491   2.217   0.572 -0.3006  4.1296 -0.2794
   53SOL     MW  212   0.493   2.133   0.584 -0.0118  1.0469  0.0827
   54SOL     OW  213   2.179   0.813   0.849  0.4538  0.0735  0.6176
   54SOL    HW1  214   2.241   0.797   0.779 -1.2499  2.7779  0.0614
   54SOL    HW2  215   2.096   0.804   0.806  0.1378  0.2129 -2.0157
   54SOL     MW  216   2.176   0.810   0.834  0.1873  0.4487  0.1967
   55SOL     OW  217   0.552   1.492   1.574  0.4717 -0.0484  0.0747
   55SOL    HW1  218   0.522   1.548   1.500 -1.1323  0.4159 -0.1819
   55SOL    HW2  219   0.636   1.457   1.547  3.6046  0.0232  0.5582
   55SOL     MW  220   0.559   1.495   1.561  0.6734  0.0223  0.1046
   56SOL     OW  221   0.557   0.774   0.088  0.2696 -0.7835 -0.0434
   56SOL    HW1  222   0.569   0.862   0.049 -1.6543 -1.4769  2.8887
   56SOL    HW2  223   0.467   0.762   0.079  1.6457 -0.0392  1.0855
   56SOL     MW  224   0.547   0.784   0.081  0.1973 -0.7768  0.4924
   57SOL     OW  225   1.256   1.231   1.213 -0.0917 -0.3187 -0.4681
   57SOL    HW1  226   1.346   1.235   1.174 -1.7765  1.9041 -1.0282
   57SOL    HW2  227   1.273   1.184   1.292 -0.7361  4.0934  1.3249
   57SOL     MW  228   1.270   1.225   1.218 -0.3990  0.5567 -0.3054
   58SOL     OW  229   0.588   1.128   1.287 -0.6113  0.5714 -0.2880
   58SOL    HW1  230   0.560   1.209   1.245 -1.8252  0.4725 -1.5408
   58SOL    HW2  231   0.591   1.145   1.378 -1.8353 -0.6100 -0.5207
   58SOL     MW  232   0.585   1.141   1.294 -0.9330  0.4025 -0.4840
   59SOL     OW  233   1.586   1.627   0.372 -0.0601  0.3310  0.2255
   59SOL    HW1  234   1.648   1.653   0.445 -1.6213  1.1211  1.1907
   59SOL    HW2  235   1.500   1.637   0.414 -1.3757 -1.3685 -2.4036
   59SOL     MW  236   1.583   1.631   0.387 -0.4397  0.2110  0.0060
   60SOL     OW  237   0.044   0.215   1.697  0.8386 -0.0988  0.1122
   60SOL    HW1  238  -0.046   0.231   1.676  0.3467  0.6775  2.8866
   60SOL    HW2  239   0.041   0.132   1.744 -0.7467 -0.7820  2.0947
   60SOL     MW  240   0.032   0.206   1.701  0.5645 -0.0865  0.7398
   61SOL     OW  241   2.040   1.440   0.002 -0.1228  0.4551 -0.2502
   61SOL    HW1  242   2.030   1.425   0.101  1.2249 -1.0318  0.6952
   61SOL    HW2  243   2.083   1.365  -0.036  0.9087 -0.8444 -1.0347
   61SOL     MW  244   2.045   1.428   0.010  0.1911  0.0875 -0.2290
   62SOL     OW  245   0.663   1.670   0.624 -0.0403  0.4305 -0.1861
   62SOL    HW1  246   0.706   1.686   0.543 -2.5570  0.1800  4.7331
   62SOL    HW2  247   0.643   1.573   0.633 -0.8873 -1.0403 -1.0867
   62SOL     MW  248   0.666   1.660   0.614 -0.4841  0.2034  0.3441
   63SOL     OW  249   1.661   0.744   0.712 -0.0015  0.0339  0.1644
   63SOL    HW1  250   1.642   0.811   0.645 -0.6617 -0.9139  1.2536
   63SOL    HW2  251   1.574   0.718   0.742 -0.9523 -0.3024 -0.7501
   63SOL     MW  252   1.647   0.750   0.707 -0.2141 -0.1356  0.1874
   64SOL     OW  253   0.261   1.697   0.751 -0.0555  0.2200 -0.6718
   64SOL    HW1  254   0.329   1.758   0.735 -1.2918  0.8338 -2.5641
   64SOL    HW2  255   0.195   1.738   0.808  3.4715 -3.2187 -0.3847
   64SOL     MW  256   0.261   1.711   0.757  0.2468 -0.1527 -0.8836
   65SOL     OW  257   1.546   2.318   0.369 -0.6910  0.5225  0.5161
   65SOL    HW1  258   1.633   2.283   0.373 -0.8615 -0.9895  0.9944
   65SOL    HW2  259   1.523   2.374   0.446  1.2242 -2.5758 -1.9572
   65SOL     MW  260   1.554   2.321   0.379 -0.4608 -0.0858  0.2529
   66SOL     OW  261   0.321   0.512   0.519 -0.9484 -0.3509  0.5929
   66SOL    HW1  262   0.389   0.473   0.465 -3.9667 -0.7826  0.9507
   66SOL    HW2  263   0.315   0.609   0.496  2.5726  1.3430 -2.8583
   66SOL     MW  264   0.329   0.520   0.509 -0.8821 -0.1844  0.1848
   67SOL     OW  265   1.466   0.108   2.043 -0.1596 -0.2219  0.1423
   67SOL    HW1  266   1.499   0.138   1.958 -0.8594  2.1583  2.0216
   67SOL    HW2  267   1.407   0.035   2.020  2.2379  1.8016 -0.4189
   67SOL     MW  268   1.463   0.102   2.029  0.0644  0.3591  0.3162
   68SOL     OW  269   0.630   0.083   2.971 -0.3619  0.2348  0.8278
   68SOL    HW1  270   0.645   0.118   2.879 -1.5967  0.2216 -0.4249
   68SOL    HW2  271   0.619   0.170   3.017  1.9199 -0.1020  2.3584
   68SOL     MW  272   0.631   0.099   2.965 -0.2238  0.1886  0.8644
   69SOL     OW  273   0.996   0.200   1.954 -0.4397 -0.2963  0.3586
   69SOL    HW1  274   1.077   0.247   1.985  0.9612 -2.0347 -0.3710
   69SOL    HW2  275   1.000   0.112   1.999 -1.7443  2.2120 -0.0200
   69SOL     MW  276   1.007   0.195   1.964 -0.4270 -0.1947  0.2124
   70SOL     OW  277   0.571   1.786   1.123 -0.0272 -0.2956  0.2145
   70SOL    HW1  278   0.615   1.709   1.167  0.1755 -0.5820 -1.8267
   70SOL    HW2  279   0.621   1.785   1.047  0.7468 -0.5415 -1.4031
   70SOL     MW  280   0.583   1.776   1.119  0.1017 -0.3658 -0.2682
   71SOL     OW  281   1.713   0.616   1.321  0.0377 -0.3045  0.1461
   71SOL    HW1  282   1.691   0.663   1.405 -0.2681  2.5869  1.2050
   71SOL    HW2  283   1.625   0.598   1.280 -0.9436 -1.1243  1.2300
   71SOL     MW  284   1.699   0.620   1.327 -0.1321 -0.0311  0.4288
   72SOL     OW  285   0.817   1.762   0.971 -0.5999 -0.0271  0.3866
   72SOL    HW1  286   0.799   1.813   0.885 -1.6498  0.9522 -1.8075
   72SOL    HW2  287   0.771   1.677   0.953 -0.6468 -0.2249  2.8912
   72SOL     MW  288   0.808   1.757   0.958 -0.7446  0.0760  0.4276
   73SOL     OW  289   1.206   0.713   1.347  0.3412 -0.4206  0.1769
   73SOL    HW1  290   1.153   0.632   1.348 -0.4088  0.2751 -0.5573
   73SOL    HW2  291   1.146   0.781   1.381 -0.8410 -0.2911 -0.9435
   73SOL     MW  292   1.191   0.711   1.352  0.0863 -0.3117 -0.0678
   74SOL     OW  293   2.887   0.193   0.993  0.2534  0.2871 -0.5584
   74SOL    HW1  294   2.883   0.144   0.910 -1.8802  3.6681 -0.7210
   74SOL    HW2  295   2.813   0.253   0.985 -0.9292 -1.7411  1.2080
   74SOL     MW  296   2.876   0.194   0.981 -0.1842  0.4656 -0.3468
   75SOL     OW  297   1.605   1.358   0.133  0.2767  1.0158  0.6320
   75SOL    HW1  298   1.649   1.359   0.217  1.5842  2.3141 -1.6516
   75SOL    HW2  299   1.644   1.278   0.087 -1.1509  0.8727 -2.8540
   75SOL     MW  300   1.616   1.347   0.138  0.2609  1.1682 -0.1292
   76SOL     OW  301   3.010   0.640   0.450  0.5599  0.0017 -0.6631
   76SOL    HW1  302   3.045   0.669   0.531  0.3592 -2.8770 -0.6907
   76SOL    HW2  303   3.064   0.561   0.432 -1.1554 -0.5417  1.3320
   76SOL     MW  304   3.022   0.633   0.458  0.3071 -0.4498 -0.4035
   77SOL     OW  305   0.830   0.517   0.439 -0.1084  0.7057 -0.2405
   77SOL    HW1  306   0.778   0.510   0.359  2.3673  0.9301 -1.2147
   77SOL    HW2  307   0.792   0.452   0.499 -0.9477  2.0340 -2.0640
   77SOL     MW  308   0.818   0.507   0.436  0.1075  0.9105 -0.6096
   78SOL     OW  309   0.735   0.800   1.231  0.0516  0.3154  0.1701
   78SOL    HW1  310   0.648   0.829   1.196  1.3310 -1.8549  1.5049
   78SOL    HW2  311   0.792   0.873   1.217  1.1378 -0.2171 -1.8442
   78SOL     MW  312   0.731   0.813   1.225  0.3637 -0.0412  0.0804
   79SOL     OW  313   1.924   1.706   0.614  0.4595  0.5468  0.3374
   79SOL    HW1  314   1.855   1.646   0.589 -0.6770 -1.9625 -0.0868
   79SOL    HW2  315   1.918   1.711   0.706 -0.5128 -2.3055 -1.8769
   79SOL     MW  316   1.914   1.699   0.623  0.1813 -0.1606 -0.0107
   80SOL     OW  317   0.149   1.022   0.315 -0.3290 -0.1593 -0.3174
   80SOL    HW1  318   0.054   1.005   0.330 -1.4071  0.9470 -0.0071
   80SOL    HW2  319   0.201   0.946   0.353  1.4114 -2.6742 -0.0429
   80SOL     MW  320   0.144   1.009   0.322 -0.2416 -0.3452 -0.2403
   81SOL     OW  321   1.910   1.926   0.202  0.5466  0.2966 -0.1558
   81SOL    HW1  322   1.850   1.853   0.177  0.8635 -1.6651 -1.8423
   81SOL    HW2  323   1.853   2.007   0.207  1.3011 -0.3493  1.5136
   81SOL     MW  324   1.894   1.927   0.199  0.6879 -0.0475 -0.1581
   82SOL     OW  325   0.809   1.052   0.532  0.3504  0.0613  0.1375
   82SOL    HW1  326   0.837   1.084   0.453  1.1929 -1.7614  0.2314
   82SOL    HW2  327   0.800   0.961   0.522  0.6114 -0.8393 -0.3365
   82SOL     MW  328   0.811   1.044   0.520  0.4960 -0.2980  0.0873
   83SOL     OW  329   0.205   0.597   1.310  0.3926 -0.2014 -0.4400
   83SOL    HW1  330   0.159   0.675   1.320 -0.6572  0.1408 -0.7264
   83SOL    HW2  331   0.265   0.604   1.388  0.6036 -1.8515  1.5068
   83SOL     MW  332   0.206   0.608   1.322  0.2819 -0.3740 -0.2209
   84SOL     OW  333   0.073   0.210   0.896 -0.1779 -0.4218 -0.2293
   84SOL    HW1  334   0.002   0.279   0.881 -0.5598  0.4306 -0.9376
   84SOL    HW2  335   0.051   0.170   0.982  1.9440 -1.3867  0.8542
   84SOL     MW  336   0.061   0.214   0.906  0.0517 -0.4366 -0.1798
   85SOL     OW  337   0.448   0.453   0.750  0.6745  0.4009  0.2273
   85SOL    HW1  338   0.462   0.487   0.658  1.5865  0.2971  0.7035
   85SOL    HW2  339   0.416   0.367   0.724 -2.1666 -1.0817 -1.4362
   85SOL     MW  340   0.446   0.446   0.735  0.4200  0.1916  0.0706
   86SOL     OW  341   1.235   0.388   1.054 -0.1348 -0.3527 -0.1627
   86SOL    HW1  342   1.169   0.460   1.046  1.7602  1.7247  0.2710
   86SOL    HW2  343   1.282   0.411   1.136  2.6175 -0.8787  0.2381
   86SOL     MW  344   1.232   0.400   1.064  0.4784 -0.1480 -0.0526
   87SOL     OW  345   1.186   1.483   1.224 -0.2037 -0.4179  0.5328
   87SOL    HW1  346   1.176   1.524   1.141 -1.3035  0.0423  2.0688
   87SOL    HW2  347   1.207   1.389   1.206 -0.6508  1.4929  0.3237
   87SOL     MW  348   1.188   1.476   1.211 -0.4078 -0.1051  0.7079
   88SOL     OW  349   1.239   1.012   1.048 -0.4929  0.0437  0.0151
   88SOL    HW1  350   1.336   1.015   1.028 -1.1143 -0.9168 -1.3023
   88SOL    HW2  351   1.220   1.074   1.123  0.4477  0.8722  0.4139
   88SOL     MW  352   1.249   1.021   1.055 -0.4508  0.0263 -0.1061
   89SOL     OW  353   1.772   0.669   0.327  0.0725  0.1737 -0.5509
   89SOL    HW1  354   1.804   0.580   0.355 -0.1918 -2.8367 -0.5867
   89SOL    HW2  355   1.841   0.696   0.265  0.0445  1.5976 -0.1624
   89SOL     MW  356   1.785   0.661   0.322  0.0340 -0.0356 -0.5044
   90SOL     OW  357   0.682   1.182   2.808 -0.5312 -0.5206  0.8040
   90SOL    HW1  358   0.745   1.111   2.801 -0.9671  2.5651  1.8581
   90SOL    HW2  359   0.691   1.234   2.880 -0.7396  0.9254 -2.4384
   90SOL     MW  360   0.691   1.179   2.816 -0.6162  0.0773  0.5153
   91SOL     OW  361   2.208   0.702   0.564  0.4738 -0.0565 -0.4847
   91SOL    HW1  362   2.146   0.770   0.551  1.2369 -1.4093 -2.3831
   91SOL    HW2  363   2.179   0.626   0.511  2.1380 -2.2941  0.0720
   91SOL     MW  364   2.196   0.701   0.555  0.7940 -0.5302 -0.6617
   92SOL     OW  365   1.638   0.865   0.444 -0.2233  0.2913 -0.0657
   92SOL    HW1  366   1.541   0.851   0.446  1.4446  1.7324  1.1948
   92SOL    HW2  367   1.682   0.791   0.396 -1.1159 -0.4683  0.3609
   92SOL     MW  368   1.631   0.854   0.438 -0.1210  0.3812  0.1569
   93SOL     OW  369   1.040   0.311   0.351 -0.1506 -0.1885  0.3228
   93SOL    HW1  370   0.960   0.361   0.337 -0.7956 -0.9892  0.0021
   93SOL    HW2  371   1.093   0.332   0.273  0.0312  2.0250 -0.9741
   93SOL     MW  372   1.037   0.320   0.339 -0.2117 -0.0021  0.1094
   94SOL     OW  373   1.921   1.339   1.581 -0.1194  0.0522  0.0148
   94SOL    HW1  374   1.917   1.348   1.485 -0.4781 -1.5601 -0.1772
   94SOL    HW2  375   1.872   1.257   1.616  2.2003 -0.0408 -1.6754
   94SOL     MW  376   1.914   1.329   1.573  0.1393 -0.1728 -0.2336
   95SOL     OW  377   0.720   1.512   0.947 -0.0541  0.0609  0.4899
   95SOL    HW1  378   0.797   1.460   0.978 -1.4996 -0.9119  1.7376
   95SOL    HW2  379   0.646   1.452   0.974 -0.7201 -0.8966 -1.3205
   95SOL     MW  380   0.720   1.497   0.955 -0.3327 -0.1938  0.4156
   96SOL     OW  381   1.212   1.815   1.584  0.4620  0.5984 -0.5758
   96SOL    HW1  382   1.126   1.769   1.585 -2.8196 -3.0024  1.0667
   96SOL    HW2  383   1.259   1.762   1.526 -1.8455  0.9984 -0.9317
   96SOL     MW  384   1.207   1.802   1.577 -0.2754  0.1761 -0.4061
   97SOL     OW  385   1.203   1.426   0.760  0.1475  0.2709 -0.3667
   97SOL    HW1  386   1.235   1.487   0.831 -1.6875  0.3346  2.1896
   97SOL    HW2  387   1.130   1.475   0.729  3.1329  0.5267  0.2521
   97SOL     MW  388   1.198   1.440   0.766  0.2993  0.3130  0.0522
   98SOL     OW  389   1.495   1.292   1.063 -0.1319  0.1441  0.0982
   98SOL    HW1  390   1.522   1.349   1.133 -0.2086 -1.0726 -1.5282
   98SOL    HW2  391   1.543   1.342   0.999  2.6831 -3.0526 -0.3661
   98SOL     MW  392   1.505   1.306   1.064  0.2294 -0.4382 -0.1776
   99SOL     OW  393   1.460   0.357   1.296 -0.9244 -0.0156 -0.2322
   99SOL    HW1  394   1.495   0.435   1.249  0.7036  1.2720  0.9219
   99SOL    HW2  395   1.471   0.388   1.384  2.3816 -2.9597  1.8210
   99SOL     MW  396   1.466   0.372   1.301 -0.2734 -0.2341  0.1910
  100SOL     OW  397   1.006   1.101   1.472  0.7060  0.1594 -0.0040
  100SOL    HW1  398   0.981   1.110   1.566  1.3521  1.1484 -0.3580
  100SOL    HW2  399   1.009   1.007   1.469 -1.5155  0.9387 -0.4931
  100SOL     MW  400   1.003   1.090   1.484  0.4981  0.3927 -0.1152
  101SOL     OW  401   0.572   1.087   0.253 -0.2989 -0.5517  0.1059
  101SOL    HW1  402   0.564   0.996   0.290  0.3517  0.4713 -0.1920
  101SOL    HW2  403   0.535   1.077   0.165 -0.1982 -0.4199 -2.2880
  101SOL     MW  404   0.566   1.074   0.246 -0.1998 -0.3993 -0.2493
  102SOL     OW  405   2.973   0.653   0.981  0.7050  0.0089 -0.5100
  102SOL    HW1  406   3.037   0.721   0.980  0.3431  2.8193  4.2767
  102SOL    HW2  407   3.006   0.604   1.055  3.3113  2.0847 -1.0495
  102SOL     MW  408   2.986   0.656   0.991  1.0011  0.6536  0.0504
  103SOL     OW  409   1.673   0.369   1.851  0.5912 -0.0928 -0.1505
  103SOL    HW1  410   1.623   0.302   1.813 -3.0180 -1.0687  0.8593
  103SOL    HW2  411   1.752   0.329   1.877  0.9838  2.0110 -0.2446
  103SOL     MW  412   1.677   0.355   1.849  0.1668  0.0560 -0.0297
  104SOL     OW  413   0.163   1.824   1.456  0.4754 -0.4882  1.0023
  104SOL    HW1  414   0.188   1.805   1.540 -3.3111 -3.4504 -0.5937
  104SOL    HW2  415   0.150   1.742   1.402  1.5507 -2.2102  0.6297
  104SOL     MW  416   0.164   1.810   1.460  0.1176 -1.1062  0.7426
  105SOL     OW  417   0.107   1.232   0.508 -0.5181  0.6899 -0.4822
  105SOL    HW1  418   0.142   1.151   0.458  0.8320  0.0791 -1.5186
  105SOL    HW2  419   0.185   1.289   0.503 -0.3120 -2.8118  0.0169
  105SOL     MW  420   0.122   1.229   0.501 -0.3128  0.1473 -0.5531
  106SOL     OW  421   0.843   0.308   0.981 -0.1219 -0.0414  0.5107
  106SOL    HW1  422   0.804   0.379   0.932  1.2454  1.7702  1.1817
  106SOL    HW2  423   0.920   0.289   0.926 -2.0997  2.4178 -0.8902
  106SOL     MW  424   0.848   0.315   0.967 -0.2024  0.5221  0.4144
  107SOL     OW  425   0.821   2.170   2.970  0.0706  0.4495  0.2099
  107SOL    HW1  426   0.757   2.115   2.925  0.4838 -4.1980  2.4492
  107SOL    HW2  427   0.812   2.149   3.063 -3.8651  0.9793 -0.1988
  107SOL     MW  428   0.812   2.160   2.976 -0.3942 -0.0938  0.4514
  108SOL     OW  429   1.327   1.602   1.423 -0.2273 -0.7947  0.2970
  108SOL    HW1  430   1.251   1.563   1.367  0.0347  2.2010 -2.0560
  108SOL    HW2  431   1.361   1.539   1.485  0.2120  0.7868 -3.7074
  108SOL     MW  432   1.322   1.589   1.424 -0.1348 -0.1908 -0.5418
  109SOL     OW  433   1.990   0.780   0.171  0.2443 -0.2282  0.6040
  109SOL    HW1  434   1.994   0.836   0.090 -0.7923  2.2584 -2.2584
  109SOL    HW2  435   2.071   0.779   0.223  0.7793 -0.8700  0.2294
  109SOL     MW  436   2.001   0.787   0.167  0.1781  0.0152  0.1769
  110SOL     OW  437   0.480   1.892   0.757 -0.4096  0.5355  1.0087
  110SOL    HW1  438   0.555   1.835   0.720  0.6508 -1.4024 -1.3466
  110SOL    HW2  439   0.500   1.976   0.724  1.7985 -0.0458  1.2960
  110SOL     MW  440   0.493   1.896   0.748  0.0217  0.2031  0.7359
  111SOL     OW  441   0.718   0.873   1.491 -0.0244  0.4899  0.6225
  111SOL    HW1  442   0.705   0.845   1.401  0.2356  1.5720 -0.1553
  111SOL    HW2  443   0.642   0.847   1.540 -1.8173  0.3540 -1.0077
  111SOL     MW  444   0.707   0.866   1.485 -0.2267  0.6148  0.3048
  112SOL     OW  445   1.315   1.088   1.710 -0.1727 -0.5342 -0.0064
  112SOL    HW1  446   1.258   1.161   1.716 -0.3866 -1.7929  2.0667
  112SOL    HW2  447   1.260   1.010   1.735  0.5140 -3.8834  0.5643
  112SOL     MW  448   1.300   1.087   1.714 -0.1103 -1.1422  0.3425
  113SOL     OW  449   1.316   3.095   1.736 -0.6929 -0.3081  0.2994
  113SOL    HW1  450   1.300   3.040   1.814  2.2270 -1.7425 -0.6903
  113SOL    HW2  451   1.304   3.039   1.652  1.1463 -0.0621 -1.9774
  113SOL     MW  452   1.313   3.080   1.735 -0.0650 -0.4649 -0.1316
  114SOL     OW  453   0.477   2.815   1.921 -0.2633  0.1929  0.4405
  114SOL    HW1  454   0.434   2.888   1.962  0.9304 -1.1284  0.9873
  114SOL    HW2  455   0.440   2.830   1.831 -1.3356  0.1135  2.0014
  114SOL     MW  456   0.467   2.826   1.915 -0.2473  0.0081  0.7186
  115SOL     OW  457   0.489   0.829   1.116  0.1591 -0.2668  0.1537
  115SOL    HW1  458   0.505   0.738   1.133 -2.6864 -2.6668 -0.4290
  115SOL    HW2  459   0.430   0.854   1.184  1.1168 -2.4289 -1.0760
  115SOL     MW  460   0.483   0.821   1.127 -0.0899 -0.8687 -0.0854
  116SOL     OW  461   0.785   1.049   0.968  0.2106 -0.6183  0.0774
  116SOL    HW1  462   0.837   1.067   0.885 -1.5303  0.8388 -2.9230
  116SOL    HW2  463   0.833   1.073   1.049  1.6778  2.0042 -2.0439
  116SOL     MW  464   0.798   1.055   0.968  0.1745 -0.0800 -0.5984
  117SOL     OW  465   1.222   1.136   0.767 -0.2078  0.5441  0.7511
  117SOL    HW1  466   1.221   1.103   0.857  0.2476  1.1852 -1.0155
  117SOL    HW2  467   1.230   1.229   0.777 -1.3936 -0.7641 -3.1277
  117SOL     MW  468   1.223   1.144   0.780 -0.3042  0.4561  0.0062
  118SOL     OW  469   3.065   2.945   1.700 -0.2461 -0.8234 -0.0680
  118SOL    HW1  470   3.108   2.985   1.780 -5.1294 -1.9250  0.7566
  118SOL    HW2  471   2.982   2.984   1.694 -1.4546 -0.3430 -0.2562
  118SOL     MW  472   3.060   2.955   1.710 -1.0499 -0.9053  0.0160
  119SOL     OW  473   0.490   1.369   1.199 -0.7498  0.0945 -0.4440
  119SOL    HW1  474   0.496   1.347   1.109 -0.4193  0.8022 -0.6969
  119SOL    HW2  475   0.403   1.357   1.226  1.7015 -1.0100 -0.0846
  119SOL     MW  476   0.479   1.364   1.191 -0.3828  0.0421 -0.4300
  120SOL     OW  477   0.164   0.704   0.975  0.0392 -0.2945  0.7542
  120SOL    HW1  478   0.215   0.662   1.041 -1.1339  1.1225  0.0934
  120SOL    HW2  479   0.220   0.763   0.932 -1.0966 -2.6460  0.1978
  120SOL     MW  480   0.178   0.706   0.978 -0.2655 -0.4178  0.5936
  121SOL     OW  481   1.850   1.112   1.711 -0.3370  0.0483 -0.4291
  121SOL    HW1  482   1.762   1.076   1.724 -1.0445 -1.1172 -0.3632
  121SOL    HW2  483   1.905   1.055   1.662  0.3825  0.8523  2.0682
  121SOL     MW  484   1.846   1.100   1.706 -0.3355  0.0006 -0.0909
  122SOL     OW  485   0.152   0.546   0.742  0.2097  0.5004 -0.1317
  122SOL    HW1  486   0.222   0.519   0.682  0.6510  1.1624  0.3099
  122SOL    HW2  487   0.193   0.592   0.816  0.5472 -0.2217 -0.1913
  122SOL     MW  488   0.167   0.548   0.744  0.3124  0.4925 -0.0813
  123SOL     OW  489   1.819   1.092   0.480  0.0041  0.2103  0.3727
  123SOL    HW1  490   1.768   1.007   0.467 -1.2192  0.2631 -0.2497
  123SOL    HW2  491   1.843   1.083   0.579  2.3309 -1.7688 -0.9362
  123SOL     MW  492   1.816   1.079   0.492  0.1497 -0.0439  0.1179
  124SOL     OW  493   0.658   0.558   0.918 -0.2049  0.2046  0.2192
  124SOL    HW1  494   0.579   0.526   0.867 -1.1259 -2.5886  0.5305
  124SOL    HW2  495   0.679   0.643   0.880 -0.8056  1.8586 -2.1605
  124SOL     MW  496   0.650   0.565   0.906 -0.4057  0.0543 -0.0537
  125SOL     OW  497   0.658   1.735   1.696 -0.0025  0.2396 -0.0674
  125SOL    HW1  498   0.593   1.668   1.666 -0.6497  0.8693  2.7827
  125SOL    HW2  499   0.627   1.812   1.641 -0.1818  0.3904 -3.9234
  125SOL     MW  500   0.645   1.736   1.685 -0.1116  0.3426 -0.2001
  126SOL     OW  501   2.085   1.607   1.952  0.1538  0.0739  0.1461
  126SOL    HW1  502   2.157   1.666   1.927  0.6706  0.4063 -1.2103
  126SOL    HW2  503   2.141   1.533   1.976  2.4065 -1.4027  0.3532
  126SOL     MW  504   2.102   1.605   1.952  0.5192 -0.0770 -0.0055
  127SOL     OW  505   0.621   0.747   1.878  0.1636  0.0167  0.1963
  127SOL    HW1  506   0.710   0.705   1.894  2.5724 -1.0401  1.7958
  127SOL    HW2  507   0.620   0.836   1.917  1.1869 -0.4686 -1.2404
  127SOL     MW  508   0.633   0.753   1.886  0.6164 -0.1868  0.2178
  128SOL     OW  509   1.839   0.784   2.875 -0.1546 -0.1507 -0.3746
  128SOL    HW1  510   1.839   0.772   2.781 -2.5329  0.4172 -0.0499
  128SOL    HW2  511   1.783   0.867   2.889 -0.8566  0.6532 -0.4288
  128SOL     MW  512   1.831   0.793   2.865 -0.5610  0.0303 -0.3389
  129SOL     OW  513   1.549   0.983   0.182  0.1755 -0.0982  0.3652
  129SOL    HW1  514   1.500   0.908   0.195  3.1162 -0.0907  0.1077
  129SOL    HW2  515   1.611   0.983   0.257 -0.3103  1.0102 -0.0999
  129SOL     MW  516   1.551   0.973   0.194  0.4994  0.0490  0.2699
  130SOL     OW  517   0.741   1.417   0.406  0.4420  0.1813 -0.0010
  130SOL    HW1  518   0.802   1.397   0.475  1.6149 -1.3059  3.5205
  130SOL    HW2  519   0.796   1.409   0.326  3.9991 -3.4349  0.8144
  130SOL     MW  520   0.756   1.413   0.405  1.0661 -0.4920  0.5712
  131SOL     OW  521   3.017   0.825   0.012 -0.3529 -0.3683 -0.5052
  131SOL    HW1  522   3.015   0.905  -0.049  1.2095  1.8875 -0.6949
  131SOL    HW2  523   3.102   0.788   0.008  2.5151 -1.3749 -2.1377
  131SOL     MW  524   3.028   0.831   0.003  0.2316 -0.2035 -0.7456
  132SOL     OW  525   2.777   0.139   1.239  0.2628 -0.2914 -0.4218
  132SOL    HW1  526   2.816   0.142   1.153  0.2210 -1.2313  0.0328
  132SOL    HW2  527   2.681   0.155   1.234  0.5097  0.7195  0.2286
  132SOL     MW  528   2.770   0.142   1.227  0.2899 -0.2820 -0.2760
  133SOL     OW  529   1.094   0.122   1.716  0.0576  0.2805  0.0091
  133SOL    HW1  530   1.180   0.078   1.725  0.2431  2.2282  2.4501
  133SOL    HW2  531   1.055   0.133   1.806 -2.8146 -1.0958 -1.2126
  133SOL     MW  532   1.100   0.118   1.729 -0.2969  0.3559  0.1700
  134SOL     OW  533   1.402   2.518   1.433  0.4493  0.0999  0.0910
  134SOL    HW1  534   1.357   2.590   1.392 -0.0303  1.4520  0.5785
  134SOL    HW2  535   1.424   2.556   1.520 -0.5410 -1.5851 -1.4796
  134SOL     MW  536   1.399   2.532   1.439  0.2553  0.0560 -0.0519
  135SOL     OW  537   3.039   1.007   2.898  0.0921  0.6436 -0.3069
  135SOL    HW1  538   3.110   1.075   2.914  2.4524 -2.0429 -2.8941
  135SOL    HW2  539   2.960   1.057   2.914  2.4701 -2.6291  1.2345
  135SOL     MW  540   3.038   1.022   2.902  0.7173 -0.1427 -0.4449
  136SOL     OW  541   0.239   2.014   0.835  1.0944  0.2196  0.1869
  136SOL    HW1  542   0.167   1.950   0.820  2.0401  0.5700 -1.0004
  136SOL    HW2  543   0.304   1.968   0.789 -1.6709 -1.0388 -0.2014
  136SOL     MW  544   0.238   2.000   0.827  0.8543  0.0998 -0.0210
  137SOL     OW  545   0.767   2.023   0.507 -0.0697  0.1580  0.0588
  137SOL    HW1  546   0.778   1.996   0.596 -0.0718  0.6395 -1.0683
  137SOL    HW2  547   0.673   2.045   0.510  0.5692 -0.8689  2.2934
  137SOL     MW  548   0.756   2.022   0.519  0.0143  0.0861  0.2050
  138SOL     OW  549   0.528   0.560   1.166 -0.3646 -0.5368  0.4612
  138SOL    HW1  550   0.434   0.536   1.141  0.1136  0.8269 -0.8758
  138SOL    HW2  551   0.576   0.550   1.084 -0.3570 -1.6400  3.4627
  138SOL     MW  552   0.522   0.556   1.152 -0.3005 -0.5024  0.6808
  139SOL     OW  553   2.676   0.521   1.398 -0.0486 -0.2192  0.3922
  139SOL    HW1  554   2.739   0.451   1.381 -1.8041 -1.9608  2.2387
  139SOL    HW2  555   2.742   0.591   1.419  1.5675  0.3456  3.9637
  139SOL     MW  556   2.693   0.521   1.398 -0.0670 -0.3745  1.1071
  140SOL     OW  557   0.850   0.400   2.075 -0.0408 -0.0019  0.1111
  140SOL    HW1  558   0.895   0.325   2.029  0.0345  1.9193 -0.3416
  140SOL    HW2  559   0.898   0.414   2.158  0.7841 -1.5387 -0.5438
  140SOL     MW  560   0.862   0.392   2.080  0.0780  0.0488 -0.0351
  141SOL     OW  561   1.054   0.585   1.749  1.1146 -0.3029 -0.0309
  141SOL    HW1  562   1.099   0.508   1.720  0.6471  3.8454 -0.7554
  141SOL    HW2  563   1.116   0.658   1.752  0.7270  3.2090  0.7697
  141SOL     MW  564   1.068   0.585   1.745  1.0018  0.7078 -0.0208
  142SOL     OW  565   0.946   1.103   0.760 -0.2899 -0.5651  0.8108
  142SOL    HW1  566   0.913   1.073   0.668 -0.8521  1.2458 -0.5832
  142SOL    HW2  567   1.038   1.084   0.770  1.1753 -1.9345 -1.6540
  142SOL     MW  568   0.954   1.097   0.749 -0.1708 -0.5068  0.3017
  143SOL     OW  569   1.785   0.786   1.105  0.0525 -0.1401  0.2458
  143SOL    HW1  570   1.800   0.762   1.014 -1.9619  2.4913  0.2856
  143SOL    HW2  571   1.735   0.713   1.153 -1.7794 -1.3494 -1.2308
  143SOL     MW  572   1.780   0.774   1.100 -0.4550  0.0475  0.0562
  144SOL     OW  573   0.216   1.224   1.538 -0.6815  0.3698  0.0656
  144SOL    HW1  574   0.305   1.197   1.510 -1.4528  1.6891 -3.0263
  144SOL    HW2  575   0.225   1.242   1.633  1.7503  0.5282  0.9462
  144SOL     MW  576   0.229   1.223   1.547 -0.4624  0.5648 -0.2262
  145SOL     OW  577   0.302   0.435   1.066  0.5262 -0.2152  0.8434
  145SOL    HW1  578   0.265   0.382   1.139  2.1660  1.2985 -2.2282
  145SOL    HW2  579   0.273   0.392   0.978 -2.7576 -0.5743 -2.4585
  145SOL     MW  580   0.293   0.422   1.064  0.3093 -0.0628  0.0025
  146SOL     OW  581   0.860   1.959   1.391 -0.0581  0.3226 -0.2627
  146SOL    HW1  582   0.889   1.962   1.295  0.0492  1.3036 -0.1374
  146SOL    HW2  583   0.772   1.924   1.374 -3.5832 -0.8253 -1.2857
  146SOL     MW  584   0.852   1.955   1.376 -0.5090  0.3006 -0.3811
  147SOL     OW  585   0.382   0.435   2.956 -0.4326 -0.5635  0.1093
  147SOL    HW1  586   0.316   0.476   3.014 -2.4535  0.8242 -0.9323
  147SOL    HW2  587   0.349   0.459   2.871  0.3033 -0.1546 -2.1760
  147SOL     MW  588   0.369   0.444   2.952 -0.6021 -0.3265 -0.3297
  148SOL     OW  589   0.078   0.870   1.372  0.4106  0.0527  0.1939
  148SOL    HW1  590   0.175   0.895   1.363  0.5746 -1.5174 -1.0908
  148SOL    HW2  591   0.069   0.898   1.459  0.8446  2.3842 -1.4798
  148SOL     MW  592   0.089   0.877   1.382  0.4895  0.1531 -0.1964
  149SOL     OW  593   1.388   1.153   1.459 -0.0199  0.5281 -0.4712
  149SOL    HW1  594   1.357   1.140   1.548 -0.6406  3.8015  0.0093
  149SOL    HW2  595   1.468   1.199   1.474  0.0123 -3.4144 -0.5400
  149SOL     MW  596   1.395   1.157   1.473 -0.0976  0.4399 -0.4169
  150SOL     OW  597   1.864   1.341   0.776 -0.0216  0.6227 -1.0109
  150SOL    HW1  598   1.865   1.246   0.765  1.5506  0.2716  0.5637
  150SOL    HW2  599   1.946   1.365   0.814 -1.0823  1.7668 -0.6983
  150SOL     MW  600   1.875   1.331   0.780  0.0459  0.7273 -0.7619
  151SOL     OW  601   1.660   1.869   0.851 -0.2518  0.2114  0.1644
  151SOL    HW1  602   1.610   1.905   0.778  0.9115 -1.1040 -1.3716
  151SOL    HW2  603   1.589   1.833   0.903  4.2500 -0.9045 -0.9713
  151SOL     MW  604   1.644   1.869   0.848  0.4957 -0.1094 -0.1881
  152SOL     OW  605   0.781   1.342   1.471 -0.1122  0.1525 -0.2678
  152SOL    HW1  606   0.777   1.265   1.518 -1.4224  3.4712  1.8167
  152SOL    HW2  607   0.874   1.364   1.475  1.1262 -1.4390  0.4096
  152SOL     MW  608   0.793   1.335   1.478 -0.1217  0.3804  0.0966
  153SOL     OW  609   2.610   1.270   0.743 -0.0500 -0.1976  0.3409
  153SOL    HW1  610   2.705   1.245   0.751 -0.4318  0.0405 -1.5914
  153SOL    HW2  611   2.566   1.184   0.751  1.1035  2.7346  0.8555
  153SOL     MW  612   2.617   1.256   0.745  0.0518  0.2207  0.1539
  154SOL     OW  613   0.376   1.726   1.692 -0.1773  0.0059  0.4209
  154SOL    HW1  614   0.374   1.673   1.610 -0.8763 -0.9133 -0.5703
  154SOL    HW2  615   0.371   1.662   1.757  2.5579  3.4149 -1.4335
  154SOL     MW  616   0.375   1.710   1.689  0.0913  0.3344  0.0455
  155SOL     OW  617   1.093   0.646   0.295 -0.2090 -0.4265 -0.1011
  155SOL    HW1  618   1.112   0.622   0.388  2.1800  1.0397  0.5233
  155SOL    HW2  619   1.041   0.732   0.295  1.2233  1.0030 -0.6273
  155SOL     MW  620   1.089   0.654   0.307  0.2952 -0.0445 -0.0881
  156SOL     OW  621   1.526   3.013   1.056  0.7358  0.1324  0.0980
  156SOL    HW1  622   1.569   3.099   1.079 -0.5085  2.0261  0.9016
  156SOL    HW2  623   1.523   2.962   1.140  0.0963  0.5181  3.9008
  156SOL     MW  624   1.531   3.017   1.070  0.4873  0.4331  0.7058
  157SOL     OW  625   1.378   1.212   0.130  0.8993 -1.1413  0.1735
  157SOL    HW1  626   1.430   1.142   0.168  1.9124  0.5524 -1.6591
  157SOL    HW2  627   1.438   1.285   0.122 -2.3320 -0.1602 -0.0974
  157SOL     MW  628   1.393   1.212   0.134  0.6066 -0.7884 -0.1040
  158SOL     OW  629   0.470   1.612   2.229 -0.2301  0.6284  0.1537
  158SOL    HW1  630   0.475   1.677   2.160 -1.5496  2.0218  0.0277
  158SOL    HW2  631   0.394   1.627   2.281  0.1082  1.4733  0.1513
  158SOL     MW  632   0.461   1.622   2.227 -0.3596  0.9237  0.1368
  159SOL     OW  633   1.321   1.698   0.464 -0.4652  0.3557  0.2778
  159SOL    HW1  634   1.297   1.625   0.409 -0.2658  3.8161 -0.0380
  159SOL    HW2  635   1.237   1.722   0.512  0.6879 -1.2632 -1.1041
  159SOL     MW  636   1.307   1.691   0.463 -0.2868  0.5986  0.0538
  160SOL     OW  637   0.474   1.127   1.566  0.0978 -0.2158  0.3007
  160SOL    HW1  638   0.480   1.035   1.599  0.0151  1.0237 -2.5199
  160SOL    HW2  639   0.479   1.190   1.644 -0.7198 -0.4519  0.3924
  160SOL     MW  640   0.475   1.123   1.581 -0.0210 -0.0834 -0.0594
  161SOL     OW  641   0.541   2.154   2.641 -0.1084  0.0564 -0.2271
  161SOL    HW1  642   0.459   2.111   2.665 -0.5251  1.0113 -2.8088
  161SOL    HW2  643   0.566   2.134   2.553  1.9334  0.5028 -0.3039
  161SOL     MW  644   0.534   2.145   2.632  0.1060  0.2413 -0.5778
  162SOL     OW  645   0.994   1.693   1.737 -0.1364  1.1490  0.1823
  162SOL    HW1  646   1.029   1.783   1.772  0.4499  0.7172  1.6883
  162SOL    HW2  647   0.918   1.673   1.797 -2.2299 -2.3198  2.3761
  162SOL     MW  648   0.989   1.702   1.750 -0.3353  0.6344  0.6704
  163SOL     OW  649   2.117   0.125   0.979 -0.1293 -0.9050 -0.1239
  163SOL    HW1  650   2.115   0.126   0.884 -1.0816  2.3482  3.5452
  163SOL    HW2  651   2.043   0.065   1.003 -0.5600 -0.4322  0.2197
  163SOL     MW  652   2.107   0.117   0.970 -0.3117 -0.4134  0.4056
  164SOL     OW  653   0.292   0.214   0.737  0.3727 -0.3930  0.4182
  164SOL    HW1  654   0.207   0.226   0.783 -1.6502  0.4241 -0.0708
  164SOL    HW2  655   0.308   0.119   0.730  1.9604  0.4864  3.2497
  164SOL     MW  656   0.283   0.203   0.742  0.3153 -0.1691  0.7272
  165SOL     OW  657   1.362   1.267   0.413 -0.2961 -0.4902 -0.3649
  165SOL    HW1  658   1.303   1.215   0.474 -0.9649  0.3222  2.5422
  165SOL    HW2  659   1.336   1.224   0.332 -0.3805  2.5998  0.9453
  165SOL     MW  660   1.351   1.254   0.410 -0.3955  0.0247  0.1915
  166SOL     OW  661   0.522   1.025   0.932 -0.0813  0.5975  0.1737
  166SOL    HW1  662   0.491   0.953   0.996 -0.9530 -1.4226 -1.7059
  166SOL    HW2  663   0.616   1.030   0.942 -1.3101  0.8217 -0.6826
  166SOL     MW  664   0.530   1.016   0.942 -0.3584  0.3606 -0.1873
  167SOL     OW  665   0.837   1.168   0.252 -0.1455 -0.3684 -0.6577
  167SOL    HW1  666   0.750   1.165   0.205  0.8025  0.1145 -0.7242
  167SOL    HW2  667   0.881   1.221   0.192 -1.5336 -0.2646  2.2021
  167SOL     MW  668   0.832   1.175   0.238 -0.2036 -0.2910 -0.2892
  168SOL     OW  669   1.689   1.710   2.916 -0.3791 -0.3655  0.2690
  168SOL    HW1  670   1.603   1.722   2.881 -0.0730  0.5726  0.2405
  168SOL    HW2  671   1.691   1.625   2.948 -0.4386  3.4891 -0.2497
  168SOL     MW  672   1.678   1.700   2.916 -0.3465  0.2669  0.1968
  169SOL     OW  673   0.353   0.971   1.310  0.4107  0.3811 -0.5293
  169SOL    HW1  674   0.405   0.946   1.384 -1.8388 -1.7205  1.0200
  169SOL    HW2  675   0.383   1.060   1.281 -1.1538  1.6921  1.0493
  169SOL     MW  676   0.364   0.980   1.316 -0.0925  0.2768 -0.1166
  170SOL     OW  677   1.046   1.463   1.500 -0.6748  0.1003 -0.5047
  170SOL    HW1  678   0.992   1.542   1.485 -0.2791 -1.3566  0.6246
  170SOL    HW2  679   1.071   1.451   1.402 -1.0600 -0.1360  2.5439
  170SOL     MW  680   1.042   1.472   1.485 -0.6734 -0.1231  0.0466
  171SOL     OW  681   0.579   1.405   0.687 -0.3215  0.4718  0.2287
  171SOL    HW1  682   0.553   1.377   0.770  0.1969 -0.7387  0.2100
  171SOL    HW2  683   0.520   1.363   0.624  0.8245  3.2540 -0.6207
  171SOL     MW  684   0.567   1.396   0.690 -0.1019  0.6792  0.1142
  172SOL     OW  685   0.865   0.318   1.251  0.5818  0.0990  0.6705
  172SOL    HW1  686   0.862   0.327   1.150 -0.5539  0.8928  0.0118
  172SOL    HW2  687   0.768   0.302   1.272 -1.4649 -0.0560  0.3908
  172SOL     MW  688   0.851   0.317   1.241  0.1619  0.1833  0.5467
  173SOL     OW  689   0.475   1.680   0.386  0.1563 -0.4886  0.2641
  173SOL    HW1  690   0.501   1.588   0.359  0.3585 -4.1220 -0.5584
  173SOL    HW2  691   0.485   1.681   0.481 -0.5000 -1.7009  1.9746
  173SOL     MW  692   0.479   1.668   0.395  0.0964 -1.1280  0.3813
  174SOL     OW  693   1.981   0.922   1.445 -0.3744  0.6314  0.1093
  174SOL    HW1  694   1.910   0.877   1.503 -1.8150  0.3813  0.2348
  174SOL    HW2  695   1.937   0.956   1.370  2.2206  1.0126 -0.0265
  174SOL     MW  696   1.966   0.920   1.443 -0.2221  0.6487  0.1079
  175SOL     OW  697   0.497   1.418   0.321 -0.1635 -0.3199  0.0816
  175SOL    HW1  698   0.473   1.381   0.240  0.2775 -0.8413  1.3984
  175SOL    HW2  699   0.580   1.387   0.351 -3.6339  1.0193  0.4827
  175SOL     MW  700   0.505   1.409   0.315 -0.5632 -0.2120  0.3082
  176SOL     OW  701   0.239   1.279   1.278  0.1144  0.5973  0.3350
  176SOL    HW1  702   0.159   1.245   1.232 -0.3643  0.0432 -2.4633
  176SOL    HW2  703   0.213   1.265   1.376 -0.1227  2.3190 -0.2159
  176SOL     MW  704   0.225   1.273   1.285  0.0199  0.7514 -0.1069
  177SOL     OW  705   0.584   0.331   1.318 -0.1719  0.0718 -0.6750
  177SOL    HW1  706   0.571   0.374   1.235 -1.0537 -0.4441 -1.4865
  177SOL    HW2  707   0.585   0.405   1.377  0.8801 -3.1944 -1.9050
  177SOL     MW  708   0.582   0.347   1.315 -0.1495 -0.4272 -0.9444
  178SOL     OW  709   3.053   0.406   2.909 -0.2569 -0.3956 -0.4032
  178SOL    HW1  710   3.030   0.450   2.996 -1.1170 -1.1033  0.0444
  178SOL    HW2  711   2.975   0.404   2.851  3.3007 -0.0365 -1.0021
  178SOL     MW  712   3.040   0.412   2.913  0.0990 -0.4416 -0.4232
  179SOL     OW  713   1.640   1.318   1.440 -0.2183  0.2138  0.3047
  179SOL    HW1  714   1.657   1.398   1.496  0.2163  1.8663 -1.4084
  179SOL    HW2  715   1.720   1.306   1.386  2.0217 -1.6124 -1.5135
  179SOL     MW  716   1.653   1.327   1.440  0.1346  0.1909 -0.1612
  180SOL     OW  717   2.992   0.181   0.435 -0.4310 -0.1802 -0.2788
  180SOL    HW1  718   2.948   0.199   0.350 -0.7058  0.3749  1.4222
  180SOL    HW2  719   3.049   0.262   0.449  0.9785  1.4727  1.5842
  180SOL     MW  720   2.994   0.194   0.426 -0.2813  0.1111  0.1914
  181SOL     OW  721   1.154   1.453   3.022  0.0439 -0.0542  0.6208
  181SOL    HW1  722   1.225   1.474   3.083 -0.3798  2.1315 -0.9304
  181SOL    HW2  723   1.185   1.393   2.952 -0.7327 -2.1408  0.5555
  181SOL     MW  724   1.168   1.448   3.021 -0.1145 -0.0412  0.4075
  182SOL     OW  725   0.477   0.849   1.659  0.3371  0.3430 -0.1363
  182SOL    HW1  726   0.390   0.844   1.698  0.8790 -2.6234 -0.9322
  182SOL    HW2  727   0.528   0.796   1.724  1.4593 -0.6802 -1.1140
  182SOL     MW  728   0.472   0.842   1.673  0.5566 -0.1834 -0.3703
  183SOL     OW  729   1.543   1.481   1.244 -0.7852  0.2377 -0.5352
  183SOL    HW1  730   1.456   1.514   1.276 -0.1791  0.1456  0.6207
  183SOL    HW2  731   1.574   1.424   1.311  0.4667  0.0735 -0.4571
  183SOL     MW  732   1.536   1.478   1.257 -0.5400  0.2039 -0.3724
  184SOL     OW  733   0.858   0.627   1.947 -0.0357 -0.0750  0.6493
  184SOL    HW1  734   0.934   0.616   1.888 -0.7014 -3.9753  0.1749
  184SOL    HW2  735   0.860   0.546   1.990  0.2812  0.7791 -2.8007
  184SOL     MW  736   0.868   0.615   1.945 -0.0817 -0.4770  0.1315
  185SOL     OW  737   1.199   0.936   1.976  0.1411 -0.0301 -0.6525
  185SOL    HW1  738   1.205   0.851   2.019  1.6649  0.4141 -2.2607
  185SOL    HW2  739   1.233   0.999   2.033  0.4165  0.1193  1.3283
  185SOL     MW  740   1.205   0.933   1.989  0.3785  0.0482 -0.6034
  186SOL     OW  741   0.417   1.653   1.407 -0.1550 -0.0292  0.0092
  186SOL    HW1  742   0.419   1.736   1.361  0.3315  0.2560 -1.5248
  186SOL    HW2  743   0.340   1.615   1.373  0.6976  1.8319 -2.0918
  186SOL     MW  744   0.407   1.659   1.397  0.0217  0.2540 -0.4704
  187SOL     OW  745   1.464   0.749   1.472 -0.5371  0.2590 -0.3837
  187SOL    HW1  746   1.468   0.706   1.556 -0.2589  1.0975 -1.5553
  187SOL    HW2  747   1.380   0.721   1.436  0.0342  2.6456 -0.5966
  187SOL     MW  748   1.453   0.740   1.478 -0.4250  0.6845 -0.5664
  188SOL     OW  749   1.887   1.051   0.735 -0.1604  0.3021  0.7288
  188SOL    HW1  750   1.876   0.963   0.761 -0.0332  2.4790 -0.2377
  188SOL    HW2  751   1.979   1.073   0.751  1.6609 -1.9014  2.8270
  188SOL     MW  752   1.898   1.043   0.741  0.0967  0.2986  0.8781
  189SOL     OW  753   0.698   0.834   0.795  0.7595 -0.3844 -0.5736
  189SOL    HW1  754   0.629   0.881   0.743  0.2659 -1.9319 -1.2353
  189SOL    HW2  755   0.726   0.885   0.872  3.0539  1.6205  1.5833
  189SOL     MW  756   0.692   0.847   0.798  0.9971 -0.3241 -0.3763
  190SOL     OW  757   1.873   0.221   2.020  0.1029 -0.4179  0.1222
  190SOL    HW1  758   1.899   0.130   2.027  1.1977 -3.2800  1.8963
  190SOL    HW2  759   1.948   0.279   2.026  0.8021  1.1567  1.4749
  190SOL     MW  760   1.886   0.217   2.021  0.3396 -0.5878  0.5348
  191SOL     OW  761   1.515   0.977   1.292 -0.0820 -0.3364 -0.8591
  191SOL    HW1  762   1.478   1.039   1.356  0.6480 -0.9164  0.6450
  191SOL    HW2  763   1.504   0.889   1.330  1.1014 -0.5369  0.0150
  191SOL     MW  764   1.509   0.973   1.305  0.1705 -0.4394 -0.5453
  192SOL     OW  765   0.673   1.990   2.834 -1.0550  0.2692 -0.3082
  192SOL    HW1  766   0.625   2.043   2.772  2.7079 -0.3905  1.7314
  192SOL    HW2  767   0.619   1.907   2.835  0.1578  0.7764 -2.0192
  192SOL     MW  768   0.660   1.986   2.826 -0.3985  0.2491 -0.2648
  193SOL     OW  769   0.970   1.638   0.753  0.3887 -0.2150 -0.9216
  193SOL    HW1  770   0.949   1.647   0.844  2.0730 -2.3386  2.7264
  193SOL    HW2  771   0.907   1.569   0.730  1.4998 -0.3278  0.6936
  193SOL     MW  772   0.959   1.630   0.762  0.7575 -0.5101 -0.2272
  194SOL     OW  773   0.494   1.311   0.946  0.9088  0.0287  0.4703
  194SOL    HW1  774   0.502   1.218   0.949 -0.3156  3.5147  0.0334
  194SOL    HW2  775   0.406   1.331   0.924  2.6444  0.3330  1.2978
  194SOL     MW  776   0.483   1.302   0.944  0.9763  0.5288  0.5218
  195SOL     OW  777   1.298   1.093   2.963 -0.0360 -0.4633 -0.3623
  195SOL    HW1  778   1.335   1.117   3.053  0.3698  0.7277  1.0135
  195SOL    HW2  779   1.208   1.073   2.983 -1.8371  2.5886 -1.2673
  195SOL     MW  780   1.291   1.094   2.977 -0.2201  0.0965 -0.3002
  196SOL     OW  781   2.199   1.080   0.621 -0.1144 -0.1760 -0.0254
  196SOL    HW1  782   2.147   1.045   0.548  1.3366  0.9072 -0.4541
  196SOL    HW2  783   2.189   1.176   0.603 -2.9102  0.7995  1.0998
  196SOL     MW  784   2.191   1.088   0.609 -0.2918  0.0956  0.0665
  197SOL     OW  785   0.626   1.262   2.031  0.1719  0.4547  0.0042
  197SOL    HW1  786   0.641   1.165   2.028  2.8702  3.8347 -1.9500
  197SOL    HW2  787   0.601   1.291   1.945  0.2523  0.8878 -1.0178
  197SOL     MW  788   0.625   1.253   2.019  0.5385  0.9578 -0.3885
  198SOL     OW  789   2.940   1.479   1.026  0.1423  0.0138  0.6181
  198SOL    HW1  790   2.935   1.579   1.009 -0.7391  2.2225 -0.1449
  198SOL    HW2  791   2.856   1.444   1.006  0.8636 -0.8682  2.2597
  198SOL     MW  792   2.928   1.488   1.021  0.1211  0.1888  0.7341
  199SOL     OW  793   0.506   1.302   1.771 -0.0348  0.1129  1.0643
  199SOL    HW1  794   0.414   1.313   1.785  0.0059  0.1993 -0.8080
  199SOL    HW2  795   0.521   1.362   1.692  1.1696 -1.0704  0.0199
  199SOL     MW  796   0.496   1.311   1.763  0.1295 -0.0318  0.6795
  200SOL     OW  797   1.902   3.100   1.345  0.2882  0.0315  0.5720
  200SOL    HW1  798   1.889   3.068   1.257  0.4010  2.2987  0.9767
  200SOL    HW2  799   1.812   3.104   1.380  1.1021 -3.5330 -2.1905
  200SOL     MW  800   1.889   3.096   1.338  0.4105 -0.1396  0.2609
  201SOL     OW  801   1.072   0.282   0.805 -0.3349 -0.3516  0.0006
  201SOL    HW1  802   1.056   0.190   0.801 -1.8882 -1.4297 -2.2467
  201SOL    HW2  803   1.102   0.299   0.709  2.5605 -1.5135 -1.6696
  201SOL     MW  804   1.074   0.272   0.792 -0.1578 -0.6471 -0.5163
  202SOL     OW  805   1.540   1.671   1.043  0.1693  0.1158 -0.1845
  202SOL    HW1  806   1.581   1.605   0.980 -0.8824 -0.8541 -0.1693
  202SOL    HW2  807   1.554   1.629   1.128 -0.5128  1.5401 -0.0814
  202SOL     MW  808   1.547   1.656   1.046 -0.0595  0.1757 -0.1689
  203SOL     OW  809  -0.005   0.481   1.164 -0.2526 -0.1278 -0.2760
  203SOL    HW1  810   0.021   0.410   1.108  0.2731 -1.7010 -0.9547
  203SOL    HW2  811   0.072   0.505   1.222  0.1843 -0.0072 -1.1063
  203SOL     MW  812   0.009   0.475   1.164 -0.1256 -0.3194 -0.4751
  204SOL     OW  813   1.051   1.785   0.527 -0.0853  0.0626  0.2512
  204SOL    HW1  814   1.015   1.737   0.602 -0.5040  1.6100 -0.7770
  204SOL    HW2  815   0.986   1.792   0.459  0.5013 -1.8071 -0.3879
  204SOL     MW  816   1.038   1.780   0.528 -0.0632  0.0201  0.0312
  205SOL     OW  817   1.358   0.100   1.343 -0.0972 -0.1875  0.1603
  205SOL    HW1  818   1.306   0.068   1.272  0.5714 -0.8568  1.1867
  205SOL    HW2  819   1.374   0.191   1.328  1.2997 -1.2599  3.2445
  205SOL     MW  820   1.353   0.107   1.332  0.1753 -0.4173  0.7026
  206SOL     OW  821   0.417   3.089   1.421 -0.1580 -0.0627  0.1969
  206SOL    HW1  822   0.347   3.072   1.366  0.6959 -1.0158  2.3913
  206SOL    HW2  823   0.458   3.003   1.405 -0.6578  0.4069  0.8199
  206SOL     MW  824   0.413   3.075   1.411 -0.1113 -0.1265  0.5686
  207SOL     OW  825   0.956   1.503   0.203  0.5216  0.3455 -0.0893
  207SOL    HW1  826   0.944   1.596   0.207  1.3342 -0.7772 -0.2332
  207SOL    HW2  827   1.029   1.492   0.256 -0.7595 -1.4993 -3.8203
  207SOL     MW  828   0.964   1.514   0.211  0.4598 -0.0460 -0.6005
  208SOL     OW  829   0.697   1.584   1.283 -0.0413 -0.1338  0.6103
  208SOL    HW1  830   0.746   1.609   1.365  2.2355  0.5059  2.3120
  208SOL    HW2  831   0.675   1.494   1.299 -0.0802 -1.0144  2.6214
  208SOL     MW  832   0.701   1.575   1.296  0.2539 -0.1656  1.1001
  209SOL     OW  833   1.560   0.538   2.832  0.1342  0.0328  0.4972
  209SOL    HW1  834   1.611   0.607   2.877  0.6465  0.0555 -1.9801
  209SOL    HW2  835   1.618   0.453   2.831 -1.4280  2.3173  0.2937
  209SOL     MW  836   1.574   0.536   2.838 -0.0043  0.3372  0.1435
  210SOL     OW  837   1.619   1.448   0.877  0.3692 -0.1923 -0.3679
  210SOL    HW1  838   1.704   1.411   0.857  0.5610  0.8116  1.0288
  210SOL    HW2  839   1.570   1.440   0.790 -1.9865  0.3199 -1.5595
  210SOL     MW  840   1.624   1.442   0.863  0.0837  0.0077 -0.3408
  211SOL     OW  841   1.708   0.407   0.934 -0.5156 -1.2549  0.1820
  211SOL    HW1  842   1.705   0.401   0.840 -0.5514 -0.1499  2.9265
  211SOL    HW2  843   1.797   0.435   0.956  1.0006  0.2911  1.9286
  211SOL     MW  844   1.719   0.410   0.924 -0.3203 -0.9051  0.7746
  212SOL     OW  845   0.236   1.132   0.090  0.0712 -0.4589 -0.0987
  212SOL    HW1  846   0.180   1.091   0.159  0.8692  0.0349 -0.3491
  212SOL    HW2  847   0.298   1.064   0.066 -0.0567  0.5929 -0.6629
  212SOL     MW  848   0.237   1.118   0.096  0.1596 -0.2550 -0.2062
  213SOL     OW  849   0.404   1.762   3.036  0.0321  0.3903 -0.4927
  213SOL    HW1  850   0.451   1.782   3.116 -1.1799 -0.8196  0.2480
  213SOL    HW2  851   0.462   1.770   2.960  0.6565 -0.1015 -1.2686
  213SOL     MW  852   0.418   1.766   3.037 -0.0454  0.1658 -0.4974
  214SOL     OW  853   0.623   0.280   2.242 -0.2618  0.2306  0.0234
  214SOL    HW1  854   0.545   0.336   2.216 -0.2403  3.1270 -3.7233
  214SOL    HW2  855   0.688   0.304   2.179  0.6400 -1.0351 -2.2252
  214SOL     MW  856   0.622   0.290   2.230 -0.1400  0.4458 -0.7677
  215SOL     OW  857   0.465   0.698   2.612  0.0262 -0.1040  0.5277
  215SOL    HW1  858   0.450   0.666   2.522  1.2165 -2.8299  0.2905
  215SOL    HW2  859   0.395   0.668   2.678 -3.1010 -1.8811  0.3805
  215SOL     MW  860   0.453   0.690   2.609 -0.2294 -0.6981  0.4770
  216SOL     OW  861   3.041   3.038   2.669 -0.2399  0.1419 -0.5267
  216SOL    HW1  862   2.997   3.049   2.760 -0.7535 -4.2483 -1.4923
  216SOL    HW2  863   3.038   3.118   2.616  0.5535 -1.1621 -1.4658
  216SOL     MW  864   3.034   3.050   2.674 -0.2030 -0.6094 -0.7780
  217SOL     OW  865   0.961   1.272   0.029 -0.0415 -0.2207  0.2915
  217SOL    HW1  866   0.988   1.184   0.002 -2.8231  1.1907 -2.1123
  217SOL    HW2  867   1.038   1.320   0.013 -0.6257 -2.6051 -1.7497
  217SOL     MW  868   0.975   1.267   0.023 -0.4856 -0.3491 -0.2949
  218SOL     OW  869   0.906   1.325   2.539 -0.5505  0.4536 -0.2890
  218SOL    HW1  870   0.922   1.238   2.574  0.3735  2.6115 -2.3567
  218SOL    HW2  871   0.974   1.379   2.564  0.8509 -2.7082 -1.2155
  218SOL     MW  872   0.917   1.321   2.547 -0.2437  0.3211 -0.6840
  219SOL     OW  873   1.058   0.463   2.518  0.3998  0.0639 -0.0190
  219SOL    HW1  874   1.105   0.473   2.603 -1.1325 -0.2481  0.9192
  219SOL    HW2  875   1.010   0.547   2.513  0.1700 -0.8968  1.0946
  219SOL     MW  876   1.057   0.475   2.529  0.1673 -0.1040  0.2517
  220SOL     OW  877   1.795   0.433   2.187 -0.5757 -0.5436  0.0149
  220SOL    HW1  878   1.728   0.492   2.152  1.0125 -1.3721  1.2954
  220SOL    HW2  879   1.803   0.353   2.138  1.7921 -0.6068  1.8589
  220SOL     MW  880   1.787   0.430   2.176 -0.0537 -0.6612  0.4272
  221SOL     OW  881   0.361   1.328   2.889 -0.2105 -0.1576 -0.5451
  221SOL    HW1  882   0.393   1.238   2.880 -0.6240 -0.2693  1.2107
  221SOL    HW2  883   0.342   1.376   2.811 -1.6644  1.3891 -0.2848
  221SOL     MW  884   0.363   1.322   2.878 -0.4569  0.0318 -0.2791
  222SOL     OW  885   0.277   0.909   2.622  0.0652 -0.4292  0.7013
  222SOL    HW1  886   0.270   0.944   2.532  0.6923 -1.8766 -2.7753
  222SOL    HW2  887   0.335   0.836   2.606 -1.0507 -0.5323  3.9685
  222SOL     MW  888   0.284   0.904   2.608  0.0007 -0.6338  0.6737
  223SOL     OW  889   0.034   2.058   2.608  0.1223  0.6241  0.0945
  223SOL    HW1  890   0.062   1.971   2.621  1.1380 -2.9070 -1.0481
  223SOL    HW2  891   0.111   2.091   2.557  2.2613  1.4817  0.8590
  223SOL     MW  892   0.048   2.051   2.603  0.5385  0.2714  0.0446
  224SOL     OW  893   1.479   0.806   2.590  0.2277 -0.1919  0.3691
  224SOL    HW1  894   1.440   0.824   2.669  2.2939 -1.6166  0.5384
  224SOL    HW2  895   1.486   0.890   2.549  0.0349  1.1868  0.4053
  224SOL     MW  896   1.475   0.820   2.595  0.4749 -0.1979  0.3962
  225SOL     OW  897   2.968   1.518   2.292 -0.3269  0.4198 -0.1364
  225SOL    HW1  898   3.016   1.584   2.241  0.6408  1.7891  2.5813
  225SOL    HW2  899   2.911   1.558   2.364 -0.3025 -2.9216  2.9669
  225SOL     MW  900   2.967   1.532   2.295 -0.1960  0.1596  0.6316
  226SOL     OW  901   0.403   1.428   2.609  0.2474 -0.1425  0.1961
  226SOL    HW1  902   0.501   1.432   2.621  1.0025  0.2288  0.3521
  226SOL    HW2  903   0.381   1.521   2.584 -2.4128 -1.6764 -0.1012
  226SOL     MW  904   0.413   1.441   2.607 -0.0040 -0.2959  0.1775
  227SOL     OW  905   0.445   1.059   2.802  0.0066  0.1266 -0.2126
  227SOL    HW1  906   0.528   1.102   2.786  1.4667 -2.1222 -0.2638
  227SOL    HW2  907   0.395   1.033   2.724  2.9709  1.9493  1.1397
  227SOL     MW  908   0.450   1.061   2.789  0.5903  0.0703 -0.0409
  228SOL     OW  909   0.643   1.002   1.999 -0.2589 -0.1576  0.0964
  228SOL    HW1  910   0.733   1.037   1.975  2.1627 -1.3264 -0.4992
  228SOL    HW2  911   0.659   0.965   2.094 -1.4647  1.3997  2.6176
  228SOL     MW  912   0.657   1.002   2.009 -0.0985 -0.1063  0.3505
  229SOL     OW  913   0.185   0.550   3.085 -0.2493  0.2233  0.0615
  229SOL    HW1  914   0.126   0.539   3.008  0.1100  2.2525 -0.8423
  229SOL    HW2  915   0.159   0.490   3.158  0.1518  2.2671 -2.5557
  229SOL     MW  916   0.174   0.541   3.085 -0.1490  0.7607 -0.4031
  230SOL     OW  917   1.762   1.393   2.030 -0.0876  0.7427  0.2407
  230SOL    HW1  918   1.725   1.391   2.121 -0.9198 -0.4446  0.4330
  230SOL    HW2  919   1.832   1.329   2.009 -1.5179 -0.8160 -2.6700
  230SOL     MW  920   1.766   1.384   2.039 -0.3861  0.3804 -0.1179
  231SOL     OW  921   2.779   1.335   2.212  0.3587  0.6863  0.5044
  231SOL    HW1  922   2.851   1.398   2.232 -0.4552 -2.1603  3.7098
  231SOL    HW2  923   2.728   1.366   2.133 -0.9340 -0.5936 -0.6154
  231SOL     MW  924   2.782   1.348   2.204  0.0808  0.1418  0.7796
  232SOL     OW  925   2.275   0.872   2.140 -0.7837  0.3643 -0.1310
  232SOL    HW1  926   2.225   0.910   2.063 -0.5452 -0.4024 -0.0804
  232SOL    HW2  927   2.219   0.854   2.213  0.9117 -1.1867 -1.1808
  232SOL     MW  928   2.261   0.874   2.139 -0.5286  0.0585 -0.2629
  233SOL     OW  929   2.045   0.526   1.959 -0.0434  0.2618  0.1914
  233SOL    HW1  930   2.064   0.498   1.871 -3.3972 -2.8889 -1.8741
  233SOL    HW2  931   2.113   0.480   2.006  1.0727  0.7569  2.7440
  233SOL     MW  932   2.056   0.516   1.954 -0.3387 -0.0886  0.2557
  234SOL     OW  933   0.287   1.001   2.387  0.4542 -0.0554 -0.0763
  234SOL    HW1  934   0.199   1.038   2.381  0.9476 -1.9998  0.5181
  234SOL    HW2  935   0.345   1.077   2.403 -0.8781  2.8703  0.3688
  234SOL     MW  936   0.283   1.016   2.388  0.3435  0.0741  0.0609
  235SOL     OW  937   1.087   3.073   2.742 -0.0482  0.4243  0.2635
  235SOL    HW1  938   1.106   2.999   2.802  1.0030  0.0323 -0.1698
  235SOL    HW2  939   1.064   3.143   2.798  2.6657 -0.9909 -0.7887
  235SOL     MW  940   1.087   3.072   2.757  0.4486  0.1859  0.0675
  236SOL     OW  941   2.962   0.545   0.019  0.2187 -0.0169  0.3949
  236SOL    HW1  942   2.885   0.534  -0.041  1.0050  1.9582 -0.5242
  236SOL    HW2  943   2.960   0.635   0.057 -1.0550  0.1382 -0.1311
  236SOL     MW  944   2.951   0.556   0.016  0.1543  0.2641  0.2042
  237SOL     OW  945   1.815   0.968   2.158  0.6134 -0.1872 -0.0937
  237SOL    HW1  946   1.849   1.052   2.123  0.8509  2.9141  1.2627
  237SOL    HW2  947   1.781   0.984   2.248 -2.0535  3.3348  1.1493
  237SOL     MW  948   1.815   0.981   2.165  0.2929  0.6867  0.2493
  238SOL     OW  949   1.063   1.770   2.980  0.0075 -0.3357  0.6521
  238SOL    HW1  950   1.003   1.704   2.940  0.5433  2.0163 -1.0959
  238SOL    HW2  951   1.151   1.729   2.969 -0.6800 -0.6168  0.4933
  238SOL     MW  952   1.067   1.756   2.973 -0.0125 -0.0625  0.4006
  239SOL     OW  953   1.207   1.433   2.350  0.6714 -0.1280  0.1216
  239SOL    HW1  954   1.170   1.453   2.436 -1.1107 -1.9731  0.6029
  239SOL    HW2  955   1.249   1.354   2.381 -2.4528  1.0076  3.2061
  239SOL     MW  956   1.208   1.425   2.365  0.0241 -0.2216  0.5921
  240SOL     OW  957   0.689   0.886   2.243  0.2121 -0.7109 -0.9411
  240SOL    HW1  958   0.694   0.935   2.325  2.3291  1.9318  0.2578
  240SOL    HW2  959   0.780   0.852   2.218  1.8469 -4.0100 -2.0864
  240SOL     MW  960   0.701   0.888   2.250  0.7071 -0.7975 -0.9341
  241SOL     OW  961   0.624   0.341   3.057  0.3478  0.1320  0.3361
  241SOL    HW1  962   0.652   0.407   3.127  2.0313  1.2242  1.9307
  241SOL    HW2  963   0.546   0.372   3.007 -1.4776 -1.7897  1.9240
  241SOL     MW  964   0.618   0.354   3.060  0.3291  0.0226  0.7560
  242SOL     OW  965   1.526   1.748   2.263  0.3017 -0.4066 -0.1587
  242SOL    HW1  966   1.460   1.797   2.307  2.2321 -0.5779 -1.9622
  242SOL    HW2  967   1.475   1.690   2.210 -1.2341 -2.0159  2.1907
  242SOL     MW  968   1.511   1.747   2.262  0.3537 -0.6416 -0.0867
  243SOL     OW  969   0.971   0.222   2.375  0.8408  0.2778  0.7526
  243SOL    HW1  970   1.060   0.189   2.346  0.1344  2.6335  0.4886
  243SOL    HW2  971   1.001   0.290   2.431 -2.2352 -1.5585  1.2981
  243SOL     MW  972   0.986   0.226   2.378  0.3418  0.3464  0.7898
  244SOL     OW  973   0.224   0.712   2.354  0.0878  0.3824  0.5508
  244SOL    HW1  974   0.233   0.810   2.347  1.1728  2.5709 -0.9195
  244SOL    HW2  975   0.309   0.677   2.356  0.5095 -0.5881  3.0139
  244SOL     MW  976   0.236   0.720   2.353  0.2866  0.5431  0.6818
  245SOL     OW  977   1.261   0.229   2.339  0.0811 -0.1697 -0.5327
  245SOL    HW1  978   1.345   0.181   2.346  2.5634  0.7563 -0.7203
  245SOL    HW2  979   1.266   0.307   2.393 -0.4599  0.0932  1.8239
  245SOL     MW  980   1.273   0.233   2.347  0.3372 -0.0128 -0.2466
  246SOL     OW  981   1.249   1.193   2.117 -0.9792  0.3919  0.5105
  246SOL    HW1  982   1.192   1.148   2.181  0.9104  2.5296  3.3141
  246SOL    HW2  983   1.341   1.168   2.140 -4.2422  0.4258 -0.7256
  246SOL     MW  984   1.254   1.184   2.128 -1.1604  0.6784  0.7173
  247SOL     OW  985   0.714   0.536   0.121  0.6656  0.8612 -0.0485
  247SOL    HW1  986   0.675   0.619   0.087  1.6835 -1.3096 -3.9183
  247SOL    HW2  987   0.804   0.522   0.092  0.2249  0.8851 -0.8951
  247SOL     MW  988   0.720   0.545   0.113  0.7418  0.5779 -0.6708
  248SOL     OW  989   0.481   1.202   2.453  0.3784 -1.0020  0.3948
  248SOL    HW1  990   0.489   1.256   2.373  1.0143  1.1409 -1.0993
  248SOL    HW2  991   0.453   1.268   2.519 -3.0915  1.4412  0.8586
  248SOL     MW  992   0.478   1.218   2.451  0.0045 -0.3969  0.2589
  249SOL     OW  993   0.200   1.829   2.683 -0.3394 -0.0459 -0.1778
  249SOL    HW1  994   0.153   1.743   2.678  2.2626  1.8871 -1.1589
  249SOL    HW2  995   0.184   1.854   2.771 -1.0953 -0.5973 -0.9559
  249SOL     MW  996   0.192   1.821   2.694 -0.0958  0.1364 -0.4099
  250SOL     OW  997   2.130   0.841   2.395  0.0684  0.0644  0.6440
  250SOL    HW1  998   2.155   0.744   2.392  0.8682 -0.3256  0.8063
  250SOL    HW2  999   2.204   0.874   2.443  0.2341 -2.8758  0.0756
  250SOL     MW 1000   2.143   0.832   2.401  0.1958 -0.3750  0.5904
  251SOL     OW 1001   0.220   0.830   2.069 -0.3111  0.2146  0.2714
  251SOL    HW1 1002   0.191   0.753   2.113 -2.5288 -0.9880  0.1915
  251SOL    HW2 1003   0.223   0.793   1.979 -1.2124  1.3025  2.7022
  251SOL     MW 1004   0.216   0.815   2.063 -0.7226  0.1995  0.5816
  252SOL     OW 1005   1.680   1.024   2.871 -0.0917  0.0081  0.0756
  252SOL    HW1 1006   1.683   1.104   2.923 -0.3541 -0.7497  0.2737
  252SOL    HW2 1007   1.738   1.036   2.791 -0.3561  1.0641  0.4227
  252SOL     MW 1008   1.688   1.036   2.868 -0.1612  0.0474  0.1475
  253SOL     OW 1009   1.146   1.726   2.544 -0.2013  0.2346  0.1451
  253SOL    HW1 1010   1.128   1.756   2.448 -1.3091  1.4941  0.8784
  253SOL    HW2 1011   1.072   1.773   2.596 -2.5298  0.0289  2.1149
  253SOL     MW 1012   1.134   1.736   2.538 -0.6547  0.3736  0.5018
  254SOL     OW 1013   1.023   1.076   2.224  0.0905 -0.0681 -0.1890
  254SOL    HW1 1014   0.996   0.982   2.223  0.1692 -1.2772 -0.5977
  254SOL    HW2 1015   0.944   1.131   2.244 -0.5933  2.5999  2.2923
  254SOL     MW 1016   1.009   1.071   2.226  0.0106  0.1244  0.0845
  255SOL     OW 1017   0.835   2.464   2.151  0.1875  0.9661 -0.4212
  255SOL    HW1 1018   0.760   2.417   2.184  2.2819  1.8715 -0.9090
  255SOL    HW2 1019   0.881   2.481   2.231 -1.3396 -2.1056  0.5451
  255SOL     MW 1020   0.831   2.460   2.166  0.2623  0.6803 -0.3581
  256SOL     OW 1021   1.169   2.842   2.868  0.0933 -0.0176 -0.8674
  256SOL    HW1 1022   1.125   2.769   2.834 -0.1430 -0.4084 -0.1913
  256SOL    HW2 1023   1.269   2.837   2.850  1.4525  3.4627 -3.0239
  256SOL     MW 1024   1.177   2.832   2.861  0.2415  0.3901 -1.0627
  257SOL     OW 1025   0.167   1.916   0.107 -0.2264  0.7961  0.0275
  257SOL    HW1 1026   0.191   1.849   0.171 -3.9181 -2.6084 -0.5096
  257SOL    HW2 1027   0.145   1.864   0.027  2.1217  1.2923  2.0326
  257SOL     MW 1028   0.167   1.900   0.105 -0.4037  0.4124  0.2212
  258SOL     OW 1029   0.702   1.039   2.485 -0.0638 -0.0710  0.8154
  258SOL    HW1 1030   0.715   1.090   2.407 -2.4773  0.8481 -2.4979
  258SOL    HW2 1031   0.615   1.064   2.501  1.0537  0.0706  0.9473
  258SOL     MW 1032   0.692   1.049   2.476 -0.2348  0.0690  0.3957
  259SOL     OW 1033   0.761   0.518   2.361  0.1581  0.0448 -0.5358
  259SOL    HW1 1034   0.671   0.553   2.370 -2.7963 -3.3067 -0.7024
  259SOL    HW2 1035   0.743   0.426   2.343 -0.9995  2.0293 -2.6149
  259SOL     MW 1036   0.747   0.511   2.360 -0.3844 -0.1355 -0.8321
  260SOL     OW 1037   0.590   0.145   1.597 -0.0102  0.0595  0.0784
  260SOL    HW1 1038   0.544   0.103   1.524  0.3786  1.0846  0.5944
  260SOL    HW2 1039   0.683   0.149   1.569 -0.1755  1.7754  1.1567
  260SOL     MW 1040   0.596   0.140   1.583  0.0193  0.4211  0.2888
  261SOL     OW 1041   1.200   0.677   2.059  0.1194 -0.2748 -0.5351
  261SOL    HW1 1042   1.235   0.668   2.150  1.4167 -2.2512 -0.9837
  261SOL    HW2 1043   1.244   0.608   2.009  1.1784  1.2456  0.6933
  261SOL     MW 1044   1.210   0.666   2.064  0.4303 -0.3350 -0.4322
  262SOL     OW 1045   1.175   0.314   0.101  0.2700 -0.0263  0.3682
  262SOL    HW1 1046   1.271   0.304   0.080  0.4418  0.8507  2.0205
  262SOL    HW2 1047   1.131   0.235   0.081 -1.9274 -1.1244 -1.6010
  262SOL     MW 1048   1.182   0.303   0.095  0.0027 -0.0555  0.3264
  263SOL     OW 1049   0.441   3.048   2.507 -0.4830 -0.1380  0.7157
  263SOL    HW1 1050   0.357   3.088   2.484  0.5241  0.2957 -1.0541
  263SOL    HW2 1051   0.473   3.044   2.415  1.5734  3.2176  0.1987
  263SOL     MW 1052   0.434   3.052   2.492 -0.0788  0.3619  0.4140
  264SOL     OW 1053   1.529   1.308   1.926 -0.0915  0.0958 -0.0273
  264SOL    HW1 1054   1.476   1.288   2.001  0.7961 -2.9843  0.9846
  264SOL    HW2 1055   1.609   1.345   1.968 -2.1293 -0.6663 -0.2158
  264SOL     MW 1056   1.532   1.310   1.942 -0.2432 -0.4111  0.0814
  265SOL     OW 1057   0.637   2.713   2.250 -0.5478  0.1854  0.3131
  265SOL    HW1 1058   0.666   2.641   2.195  0.6670 -0.6970 -0.6236
  265SOL    HW2 1059   0.696   2.713   2.320  0.0269 -2.1469 -3.3699
  265SOL     MW 1060   0.648   2.703   2.252 -0.3117 -0.2388 -0.2964
  266SOL     OW 1061   0.940   0.819   2.184  0.7528  0.0458 -0.3791
  266SOL    HW1 1062   0.952   0.771   2.106  0.3326 -0.8742 -0.5397
  266SOL    HW2 1063   0.945   0.753   2.246  1.6869  1.2171 -1.1361
  266SOL     MW 1064   0.942   0.804   2.182  0.8206  0.0790 -0.5002
  267SOL     OW 1065   1.369   1.687   2.696  0.1505 -0.5195 -0.0007
  267SOL    HW1 1066   1.432   1.665   2.629  0.8681 -2.8922  1.7616
  267SOL    HW2 1067   1.305   1.713   2.633 -0.3234  0.5680  1.0562
  267SOL     MW 1068   1.369   1.688   2.679  0.1826 -0.6891  0.3713
  268SOL     OW 1069   0.248   0.762   1.777 -0.1143  0.3432  0.3271
  268SOL    HW1 1070   0.196   0.820   1.712 -1.3734  1.3020 -2.6679
  268SOL    HW2 1071   0.265   0.679   1.736  0.1411  1.8140 -0.9234
  268SOL     MW 1072   0.244   0.759   1.763 -0.2467  0.6638 -0.2331
  269SOL     OW 1073   1.374   1.919   2.421  0.1980  0.0521 -0.4387
  269SOL    HW1 1074   1.421   2.000   2.408  0.4272 -0.2586 -2.6318
  269SOL    HW2 1075   1.314   1.925   2.494  2.1942  1.0746 -4.2172
  269SOL     MW 1076   1.372   1.930   2.429  0.4916  0.1460 -1.2266
  270SOL     OW 1077   1.173   0.360   1.609  0.1542 -0.2566  0.1152
  270SOL    HW1 1078   1.150   0.271   1.630 -0.7974 -0.0169 -0.7581
  270SOL    HW2 1079   1.267   0.373   1.631  2.1047  0.9703  2.5317
  270SOL     MW 1080   1.183   0.350   1.614  0.2860 -0.0631  0.3188
  271SOL     OW 1081   0.857   3.063   2.403  0.5642  0.4376  0.3740
  271SOL    HW1 1082   0.894   3.037   2.484  0.5310  1.0438 -1.3616
  271SOL    HW2 1083   0.884   3.158   2.401  0.3802  2.5646 -0.6333
  271SOL     MW 1084   0.865   3.072   2.413  0.5355  0.7982  0.0121
  272SOL     OW 1085   1.453   2.857   2.798  0.6326 -0.4043  0.2238
  272SOL    HW1 1086   1.406   2.903   2.725 -0.3925 -0.4169 -5.4332
  272SOL    HW2 1087   1.473   2.921   2.862 -0.0788  1.2033 -1.7104
  272SOL     MW 1088   1.449   2.872   2.797  0.4035 -0.1939 -0.7778
  273SOL     OW 1089   1.424   0.866   2.870 -0.2138 -0.3474  0.0027
  273SOL    HW1 1090   1.510   0.902   2.852  3.7985 -0.3833  0.7994
  273SOL    HW2 1091   1.381   0.949   2.896  1.8746  0.8881 -0.8951
  273SOL     MW 1092   1.430   0.882   2.871  0.5912 -0.1892 -0.0106
  274SOL     OW 1093   1.383   0.748   0.222  0.4158 -0.2821 -0.3210
  274SOL    HW1 1094   1.422   0.659   0.227  1.2025 -1.0394  1.3542
  274SOL    HW2 1095   1.301   0.740   0.266 -0.6963  1.0395 -0.9896
  274SOL     MW 1096   1.377   0.735   0.228  0.3729 -0.2077 -0.1882
  275SOL     OW 1097   1.716   0.687   1.792 -0.5188  0.0870 -0.2515
  275SOL    HW1 1098   1.782   0.730   1.854 -0.7215 -0.0223 -1.8619
  275SOL    HW2 1099   1.712   0.600   1.825  0.9373  0.9385 -1.5837
  275SOL     MW 1100   1.724   0.681   1.804 -0.3534  0.1849 -0.6398
  276SOL     OW 1101   0.211   1.261   1.801  0.5409 -0.1680  0.2064
  276SOL    HW1 1102   0.215   1.195   1.871  0.4605  2.1679  0.4364
  276SOL    HW2 1103   0.121   1.303   1.804  1.2670 -1.8600 -0.2247
  276SOL     MW 1104   0.199   1.258   1.811  0.6261 -0.0830  0.1799
  277SOL     OW 1105   1.901   1.349   2.574  0.0855 -0.3314 -0.2136
  277SOL    HW1 1106   1.972   1.405   2.540  2.0060  1.8921 -1.3162
  277SOL    HW2 1107   1.949   1.273   2.614  2.7293  0.6483  0.2435
  277SOL     MW 1108   1.917   1.346   2.575  0.6877  0.0912 -0.2987
  278SOL     OW 1109   1.420   0.700   1.748  0.4084 -0.6500  0.3455
  278SOL    HW1 1110   1.412   0.632   1.817 -1.9393 -2.7394  0.9245
  278SOL    HW2 1111   1.497   0.755   1.770  0.9306  0.2900 -1.8595
  278SOL     MW 1112   1.429   0.699   1.760  0.1676 -0.8017  0.1310
  279SOL     OW 1113   0.542   0.007   2.240 -0.4406  0.4238 -0.3869
  279SOL    HW1 1114   0.600  -0.051   2.189  2.1978  1.1659  0.8922
  279SOL    HW2 1115   0.596   0.085   2.252 -0.9970  1.3819  3.5114
  279SOL     MW 1116   0.557   0.010   2.235 -0.1659  0.6481  0.2962
  280SOL     OW 1117   1.504   1.128   2.205  0.2199 -0.1737  0.2518
  280SOL    HW1 1118   1.525   1.046   2.164 -2.4739 -0.7159  1.1164
  280SOL    HW2 1119   1.506   1.113   2.296  0.6261 -0.7052 -0.9676
  280SOL     MW 1120   1.507   1.116   2.212 -0.0819 -0.3154  0.2050
  281SOL     OW 1121   1.284   1.306   2.786  0.4106 -0.7051 -0.6338
  281SOL    HW1 1122   1.367   1.351   2.768  1.3500 -0.4358  1.7854
  281SOL    HW2 1123   1.315   1.238   2.847  1.7660  1.3911  0.1081
  281SOL     MW 1124   1.299   1.303   2.792  0.7134 -0.3930 -0.2167
  282SOL     OW 1125   1.128   1.305   1.700 -0.2163  0.3252  0.3147
  282SOL    HW1 1126   1.076   1.360   1.632 -0.0668 -3.0254 -0.3568
  282SOL    HW2 1127   1.076   1.312   1.780  0.0479  0.3714 -0.3362
  282SOL     MW 1128   1.114   1.313   1.701 -0.1617 -0.1108  0.1402
  283SOL     OW 1129   0.687   1.266  -0.001 -0.0200 -0.0757 -0.3050
  283SOL    HW1 1130   0.783   1.272   0.002 -0.0035  1.0748 -1.2100
  283SOL    HW2 1131   0.666   1.353   0.036  0.6834  2.0873  0.7430
  283SOL     MW 1132   0.697   1.279   0.004  0.0750  0.3614 -0.2861
  284SOL     OW 1133   0.510   0.650   2.352  0.7012  0.0460 -0.0519
  284SOL    HW1 1134   0.562   0.724   2.318 -0.5948  1.5877  0.0395
  284SOL    HW2 1135   0.485   0.587   2.278 -1.1915 -4.4206 -0.9027
  284SOL     MW 1136   0.514   0.651   2.338  0.2805 -0.3399 -0.1521
  285SOL     OW 1137   0.831   0.953   2.870  0.6251  0.2851  0.8370
  285SOL    HW1 1138   0.884   0.980   2.788 -1.7146  1.0985 -1.7753
  285SOL    HW2 1139   0.786   0.875   2.848 -0.6580 -0.8689  1.1423
  285SOL     MW 1140   0.832   0.946   2.856  0.1471  0.2402  0.5326
  286SOL     OW 1141   1.137   1.463   2.613 -0.3418 -0.1375 -0.5912
  286SOL    HW1 1142   1.204   1.426   2.676  0.5844 -0.7705  1.2842
  286SOL    HW2 1143   1.158   1.556   2.612 -2.2141 -1.1064  0.1131
  286SOL     MW 1144   1.148   1.470   2.621 -0.4666 -0.3488 -0.2508
  287SOL     OW 1145   0.991   0.902   0.316 -0.1697  0.2111 -0.1308
  287SOL    HW1 1146   1.049   0.943   0.378  0.0063  0.4818 -1.6949
  287SOL    HW2 1147   0.972   0.970   0.254 -1.2265  1.6846 -0.6841
  287SOL     MW 1148   0.996   0.916   0.316 -0.2859  0.4412 -0.4102
  288SOL     OW 1149   1.574   0.625   2.102  0.5995 -0.5104 -0.1059
  288SOL    HW1 1150   1.535   0.631   2.192  1.0871  0.9418 -0.8526
  288SOL    HW2 1151   1.570   0.716   2.070 -1.5561  0.3399  2.0418
  288SOL     MW 1152   1.569   0.638   2.110  0.3794 -0.2066  0.0789
  289SOL     OW 1153   0.939   1.054   2.636  0.4866 -0.3524  0.1260
  289SOL    HW1 1154   1.000   0.988   2.603 -1.2803  4.7663 -1.8836
  289SOL    HW2 1155   0.855   1.041   2.585 -4.6148  0.3781  1.7219
  289SOL     MW 1156   0.936   1.043   2.625 -0.4196  0.4193  0.0714
  290SOL     OW 1157   0.865   0.543   1.558  0.0297 -0.0442  0.3367
  290SOL    HW1 1158   0.918   0.518   1.483 -0.4881 -2.8250  0.6944
  290SOL    HW2 1159   0.921   0.546   1.638 -2.2674 -3.0152  0.8706
  290SOL     MW 1160   0.879   0.540   1.559 -0.3417 -0.8031  0.4543
  291SOL     OW 1161   0.129   0.331   0.167 -0.2893 -0.2459  0.1248
  291SOL    HW1 1162   0.226   0.301   0.177  4.8696 -0.5620 -0.3755
  291SOL    HW2 1163   0.112   0.287   0.085  0.1923  0.3121  0.6107
  291SOL     MW 1164   0.140   0.321   0.157  0.4549 -0.2140  0.1229
  292SOL     OW 1165   0.983   0.527   0.064 -0.2568  0.0157  0.0666
  292SOL    HW1 1166   1.023   0.568   0.145  2.1308  2.0022  0.2121
  292SOL    HW2 1167   1.038   0.449   0.060  3.6644  0.7246  1.7329
  292SOL     MW 1168   0.996   0.522   0.074  0.5756  0.3713  0.3056
  293SOL     OW 1169   0.220   0.127   2.471  0.3613  0.5297 -0.1181
  293SOL    HW1 1170   0.131   0.096   2.451 -0.1515  1.5701 -2.2444
  293SOL    HW2 1171   0.211   0.199   2.537 -0.2344  1.2421  0.6579
  293SOL     MW 1172   0.207   0.132   2.477  0.2151  0.7610 -0.2962
  294SOL     OW 1173   1.507   0.632   2.387  0.4132 -0.6507  0.5056
  294SOL    HW1 1174   1.507   0.691   2.458 -0.7954  0.4372 -0.3587
  294SOL    HW2 1175   1.506   0.540   2.419  1.9800  1.4033 -0.4371
  294SOL     MW 1176   1.506   0.628   2.400  0.4605 -0.2362  0.2672
  295SOL     OW 1177   0.898   0.684   2.521  0.2279 -0.2938 -0.3728
  295SOL    HW1 1178   0.864   0.628   2.459  0.7144  0.5992  1.6541
  295SOL    HW2 1179   0.837   0.672   2.593  1.1878  0.6820  1.5502
  295SOL     MW 1180   0.885   0.675   2.522  0.4188 -0.0472  0.1484
  296SOL     OW 1181   1.285   0.302   2.067 -0.2425  0.5334  0.1053
  296SOL    HW1 1182   1.356   0.229   2.056  0.5102  1.6658 -0.2979
  296SOL    HW2 1183   1.249   0.289   2.162  0.2770  0.0317  0.0046
  296SOL     MW 1184   1.289   0.291   2.078 -0.0747  0.6166  0.0388
  297SOL     OW 1185   1.481   0.415   1.586 -0.0544 -0.0652  0.6608
  297SOL    HW1 1186   1.529   0.462   1.651 -0.0271 -2.1354  1.1689
  297SOL    HW2 1187   1.484   0.330   1.627 -1.5148 -0.8853  0.9455
  297SOL     MW 1188   1.488   0.410   1.600 -0.2435 -0.4465  0.7654
  298SOL     OW 1189   1.550   0.887   2.048  1.2084 -0.3305 -0.3703
  298SOL    HW1 1190   1.544   0.930   1.962  1.3445  0.2493 -0.1698
  298SOL    HW2 1191   1.643   0.891   2.070  0.7471  0.6073  1.8156
  298SOL     MW 1192   1.562   0.893   2.040  1.1655 -0.1303 -0.0554
  299SOL     OW 1193   0.508   1.036   3.088 -0.1293  0.2351 -0.7095
  299SOL    HW1 1194   0.558   1.117   3.087  0.0311 -0.6946 -1.0055
  299SOL    HW2 1195   0.495   1.026   2.997  1.1709  0.2918  1.7244
  299SOL     MW 1196   0.513   1.045   3.076  0.0634  0.1199 -0.4274
  300SOL     OW 1197   1.256   1.177   2.505 -0.7245  0.3459  0.2908
  300SOL    HW1 1198   1.185   1.121   2.484 -2.3959  1.8087 -2.0899
  300SOL    HW2 1199   1.238   1.209   2.595  1.2917 -2.7426 -1.5039
  300SOL     MW 1200   1.244   1.174   2.514 -0.6790  0.1314 -0.2601
  301SOL     OW 1201   1.366   0.848   0.573  0.6590  0.8039 -0.0949
  301SOL    HW1 1202   1.334   0.901   0.647 -2.2248  0.2614  0.2130
  301SOL    HW2 1203   1.325   0.761   0.596 -0.5247 -0.3760  0.9249
  301SOL     MW 1204   1.356   0.843   0.586  0.1223  0.5766  0.0803
  302SOL     OW 1205   0.096   1.481   2.010 -0.4852  0.7455 -0.1347
  302SOL    HW1 1206   0.120   1.430   2.089 -1.9996  2.3498 -0.3190
  302SOL    HW2 1207   0.073   1.566   2.043 -0.9928  3.5975 -1.3835
  302SOL     MW 1208   0.096   1.485   2.025 -0.7520  1.3335 -0.3238
  303SOL     OW 1209   0.391   1.706   2.564 -0.2091 -0.4161 -0.4311
  303SOL    HW1 1210   0.357   1.708   2.475 -2.8624 -0.4510 -0.2852
  303SOL    HW2 1211   0.321   1.757   2.603  2.1352  1.6828 -0.7659
  303SOL     MW 1212   0.378   1.713   2.557 -0.2499 -0.1438 -0.4560
  304SOL     OW 1213   0.648   2.059   2.397  0.0857 -0.4002  0.0503
  304SOL    HW1 1214   0.679   2.132   2.346  0.4143 -0.1199  1.7212
  304SOL    HW2 1215   0.719   1.994   2.414  1.1173  1.0985  0.9917
  304SOL     MW 1216   0.661   2.060   2.392  0.2652 -0.1655  0.3950
  305SOL     OW 1217   1.069   0.559   0.566 -0.2669 -0.3319 -0.4083
  305SOL    HW1 1218   0.978   0.529   0.526 -1.8862  0.6258 -2.9415
  305SOL    HW2 1219   1.123   0.480   0.585  0.7178 -0.5817 -0.9958
  305SOL     MW 1220   1.064   0.545   0.563 -0.3506 -0.2385 -0.8200
  306SOL     OW 1221   1.221   1.476   0.315 -0.0512 -0.0357 -1.0578
  306SOL    HW1 1222   1.268   1.404   0.353 -1.2889  2.5920  0.2608
  306SOL    HW2 1223   1.240   1.473   0.220 -1.6494 -1.9354 -2.4663
  306SOL     MW 1224   1.230   1.466   0.307 -0.4253  0.0603 -1.0697
  307SOL     OW 1225   1.389   0.496   1.917  0.2510 -0.1911  0.1690
  307SOL    HW1 1226   1.336   0.429   1.975  0.1657 -0.6974 -0.1359
  307SOL    HW2 1227   1.468   0.524   1.968  0.0440  0.3600 -0.6917
  307SOL     MW 1228   1.392   0.491   1.931  0.2124 -0.1852  0.0152
  308SOL     OW 1229   2.141   0.638   2.655 -0.4987 -0.3227  0.1778
  308SOL    HW1 1230   2.194   0.595   2.729  0.4146  2.5257 -0.6963
  308SOL    HW2 1231   2.139   0.731   2.693 -0.0917 -1.2105 -0.4114
  308SOL     MW 1232   2.148   0.644   2.670 -0.3245 -0.0640 -0.0153
  309SOL     OW 1233   0.535   0.399   0.386 -0.6809 -0.9336  0.0410
  309SOL    HW1 1234   0.565   0.328   0.444 -1.3015  0.0531 -0.3504
  309SOL    HW2 1235   0.482   0.353   0.319 -0.3599 -0.9915 -0.3487
  309SOL     MW 1236   0.532   0.383   0.385 -0.7204 -0.8111 -0.0621
  310SOL     OW 1237   0.470   0.538   1.926 -0.1499 -0.0282 -0.3448
  310SOL    HW1 1238   0.503   0.465   1.876  0.0409 -1.3057 -2.0507
  310SOL    HW2 1239   0.521   0.620   1.908  0.1936 -0.2915 -0.2407
  310SOL     MW 1240   0.481   0.539   1.917 -0.0794 -0.2315 -0.5561
  311SOL     OW 1241   1.903   0.779   1.952  0.0115  0.1528  0.2245
  311SOL    HW1 1242   1.879   0.835   2.026  0.1937 -1.4538 -1.9502
  311SOL    HW2 1243   1.936   0.694   1.992  1.0159  0.4400  0.0421
  311SOL     MW 1244   1.904   0.775   1.967  0.1681 -0.0213 -0.0865
  312SOL     OW 1245   1.707   2.497   0.041 -0.6575 -0.0454  0.7904
  312SOL    HW1 1246   1.770   2.536   0.106 -0.3541 -1.1235  0.8013
  312SOL    HW2 1247   1.624   2.554   0.059  0.9692  1.7616  2.8979
  312SOL     MW 1248   1.704   2.510   0.052 -0.4029  0.0507  1.0699
  313SOL     OW 1249   0.116   1.178   2.944 -0.0746 -0.0146  0.7048
  313SOL    HW1 1250   0.169   1.168   3.028  2.8108  2.9473 -0.1159
  313SOL    HW2 1251   0.179   1.203   2.869  0.0133  2.3817 -1.8395
  313SOL     MW 1252   0.131   1.180   2.945  0.3177  0.6924  0.2609
  314SOL     OW 1253   2.144   2.989   3.003  0.3969  0.2204  0.1534
  314SOL    HW1 1254   2.075   3.024   2.948 -0.0424  0.7770 -2.0867
  314SOL    HW2 1255   2.167   3.058   3.061 -2.0091  0.3873 -0.6476
  314SOL     MW 1256   2.138   3.003   3.003  0.0215  0.3159 -0.2479
  315SOL     OW 1257   1.509   1.881   3.059  0.0973 -0.5617  0.2980
  315SOL    HW1 1258   1.457   1.948   3.102 -2.5408 -0.7550  0.0415
  315SOL    HW2 1259   1.569   1.943   3.005 -1.3203 -0.7527 -0.2762
  315SOL     MW 1260   1.510   1.898   3.057 -0.4378 -0.6124  0.1884
  316SOL     OW 1261   1.255   0.619   2.709  0.0053 -0.3857 -0.2471
  316SOL    HW1 1262   1.346   0.595   2.717 -0.1943 -1.5557  1.5616
  316SOL    HW2 1263   1.219   0.577   2.781 -0.8158  2.3610  0.2195
  316SOL     MW 1264   1.262   0.610   2.720 -0.1294 -0.1777  0.0531
  317SOL     OW 1265   0.678   1.442   2.604  0.1568  0.4816 -0.6299
  317SOL    HW1 1266   0.754   1.381   2.615 -1.8263 -3.1207 -1.1444
  317SOL    HW2 1267   0.718   1.489   2.518 -2.3155  0.0352 -1.7962
  317SOL     MW 1268   0.694   1.440   2.594 -0.4310 -0.0526 -0.8516
  318SOL     OW 1269   1.356   0.389   2.913  0.1294  0.2573  0.2163
  318SOL    HW1 1270   1.279   0.443   2.924  1.6183 -1.0340 -1.5967
  318SOL    HW2 1271   1.424   0.448   2.876  0.4074  1.9796 -0.3338
  318SOL     MW 1272   1.355   0.404   2.909  0.3625  0.3142 -0.0955
  319SOL     OW 1273   0.835   0.478   2.813  0.0752 -0.5190 -0.0131
  319SOL    HW1 1274   0.802   0.392   2.789  0.0091 -0.1892  1.1069
  319SOL    HW2 1275   0.786   0.485   2.896 -1.5884  0.1917 -0.9950
  319SOL     MW 1276   0.824   0.468   2.821 -0.1530 -0.3817  0.0052
  320SOL     OW 1277   1.038   1.349   1.970 -0.2600 -0.2528 -0.5007
  320SOL    HW1 1278   1.094   1.301   2.024 -0.3761 -0.4206 -1.0360
  320SOL    HW2 1279   1.088   1.422   1.937 -1.9180 -1.6780 -1.8407
  320SOL     MW 1280   1.052   1.352   1.973 -0.4941 -0.4629 -0.7481
  321SOL     OW 1281   1.037   1.004   3.063 -0.3905  0.1440 -0.2430
  321SOL    HW1 1282   0.956   0.982   3.019  0.1197  0.9785 -1.0563
  321SOL    HW2 1283   1.084   0.920   3.078  0.3634  0.0995  2.8517
  321SOL     MW 1284   1.032   0.990   3.059 -0.2237  0.2482  0.0580
  322SOL     OW 1285   1.182   0.835   1.730 -0.4427  0.1307  0.0465
  322SOL    HW1 1286   1.264   0.785   1.710 -1.0252 -1.2861 -2.3477
  322SOL    HW2 1287   1.185   0.856   1.830  0.5368 -1.8601  1.3253
  322SOL     MW 1288   1.193   0.831   1.741 -0.3903 -0.3189 -0.1007
  323SOL     OW 1289   1.195   1.533   1.826  0.8079 -0.5775 -0.0877
  323SOL    HW1 1290   1.212   1.475   1.752 -1.6165  3.1898 -0.0555
  323SOL    HW2 1291   1.137   1.597   1.789  1.1499  0.2613 -0.1812
  323SOL     MW 1292   1.190   1.534   1.811  0.5331  0.0302 -0.0958
  324SOL     OW 1293   1.515   1.072   2.482  0.1613 -0.2235 -0.2735
  324SOL    HW1 1294   1.421   1.096   2.495 -1.8889  1.5119 -2.1384
  324SOL    HW2 1295   1.564   1.135   2.537 -1.3491 -3.3868 -1.2929
  324SOL     MW 1296   1.509   1.083   2.491 -0.3085 -0.4119 -0.6540
  325SOL     OW 1297   1.089   0.479   2.907  0.3087 -0.1528 -0.0384
  325SOL    HW1 1298   1.077   0.547   2.980  1.4206  0.9895  1.3660
  325SOL    HW2 1299   1.011   0.494   2.856 -3.0518 -2.8920  2.5313
  325SOL     MW 1300   1.077   0.490   2.910  0.0120 -0.3635  0.4859
  326SOL     OW 1301   0.483   1.349   2.232 -0.2019 -0.0643 -0.8156
  326SOL    HW1 1302   0.519   1.314   2.146  2.5637 -1.7539  0.6238
  326SOL    HW2 1303   0.493   1.445   2.226  0.9153 -0.5562 -0.6442
  326SOL     MW 1304   0.489   1.357   2.220  0.3104 -0.3521 -0.6031
  327SOL     OW 1305   1.850   0.903   2.470  0.2622 -0.3609  0.7198
  327SOL    HW1 1306   1.839   0.811   2.510  0.2034  1.5264 -2.0392
  327SOL    HW2 1307   1.941   0.898   2.449 -1.0335 -0.4477  0.6786
  327SOL     MW 1308   1.860   0.890   2.473  0.0835 -0.1234  0.3504
  328SOL     OW 1309   0.201   1.310   2.218  0.7521 -0.2701  0.6891
  328SOL    HW1 1310   0.176   1.243   2.153 -0.8700 -1.0647 -0.8490
  328SOL    HW2 1311   0.295   1.331   2.220 -1.6236  0.0885  1.1092
  328SOL     MW 1312   0.210   1.304   2.210  0.2246 -0.3276  0.5416
  329SOL     OW 1313   0.105   0.126   1.446 -0.2180 -0.3616 -0.3059
  329SOL    HW1 1314   0.089   0.165   1.539  1.1613  1.3771  2.7343
  329SOL    HW2 1315   0.171   0.187   1.397  3.5706  1.0683 -1.5130
  329SOL     MW 1316   0.112   0.139   1.452  0.4639  0.0565 -0.0641
  330SOL     OW 1317   0.349   3.005   2.067 -0.1956  0.3779  0.1993
  330SOL    HW1 1318   0.397   3.065   2.122 -0.0141  3.6015  1.8677
  330SOL    HW2 1319   0.283   2.964   2.130  3.3640  0.0319  0.9456
  330SOL     MW 1320   0.347   3.007   2.083  0.2980  0.7576  0.5179
  331SOL     OW 1321   0.764   1.218   2.283 -0.0186  0.2180  0.2515
  331SOL    HW1 1322   0.725   1.280   2.223  0.9671 -0.9509  0.9774
  331SOL    HW2 1323   0.790   1.278   2.357 -1.0989  0.4931  0.4102
  331SOL     MW 1324   0.762   1.234   2.285 -0.0311  0.1001  0.3682
  332SOL     OW 1325   1.340   1.689   2.981 -0.2236 -0.4707  0.1936
  332SOL    HW1 1326   1.342   1.688   2.886 -1.9599 -1.3475  0.2045
  332SOL    HW2 1327   1.381   1.779   3.009 -0.9532  1.3936  0.0606
  332SOL     MW 1328   1.345   1.700   2.972 -0.5489 -0.3404  0.1775
  333SOL     OW 1329   1.725   1.466   3.010  0.2805 -0.3689 -0.1066
  333SOL    HW1 1330   1.819   1.481   3.022 -0.9131  2.7655  2.7413
  333SOL    HW2 1331   1.683   1.422   3.089 -0.1279 -1.4861 -1.4397
  333SOL     MW 1332   1.732   1.462   3.022  0.0691 -0.1027  0.0933
  334SOL     OW 1333   1.341   3.067   2.623  0.4502  0.1108  0.0404
  334SOL    HW1 1334   1.254   3.058   2.666  1.9542 -1.4906 -1.7332
  334SOL    HW2 1335   1.374   3.159   2.642  1.6105  1.7218 -0.6790
  334SOL     MW 1336   1.334   3.078   2.632  0.8017  0.1121 -0.2885
  335SOL     OW 1337   1.217   0.787   3.056 -0.5651  0.6377  0.1473
  335SOL    HW1 1338   1.277   0.767   3.129  1.9446  0.5021 -0.1386
  335SOL    HW2 1339   1.285   0.798   2.991 -1.7589 -2.0465  1.6813
  335SOL     MW 1340   1.234   0.786   3.057 -0.3915  0.2657  0.3120
  336SOL     OW 1341   0.888   1.107   1.921  0.2758 -0.2757  0.2595
  336SOL    HW1 1342   0.921   1.196   1.939 -2.7897 -2.2928 -1.1100
  336SOL    HW2 1343   0.960   1.045   1.939  1.0713  1.5370 -0.4196
  336SOL     MW 1344   0.902   1.111   1.926 -0.0237 -0.3027 -0.0108
  337SOL     OW 1345   0.513   1.787   2.802 -0.1292 -0.1537 -0.1822
  337SOL    HW1 1346   0.462   1.776   2.725  0.6883 -2.1949  2.7733
  337SOL    HW2 1347   0.592   1.725   2.792 -0.0026  1.4154 -2.8781
  337SOL     MW 1348   0.517   1.777   2.790 -0.0046 -0.2160 -0.1479
  338SOL     OW 1349   1.123   0.849   2.532 -0.2579  0.1471  0.2403
  338SOL    HW1 1350   1.054   0.784   2.513  0.8109 -0.2560 -3.6438
  338SOL    HW2 1351   1.169   0.801   2.604  0.1589 -0.7914  0.8403
  338SOL     MW 1352   1.120   0.834   2.539 -0.0619 -0.0299 -0.1930
  339SOL     OW 1353   1.581   1.034   1.815 -0.5796 -0.3142 -0.3264
  339SOL    HW1 1354   1.507   1.035   1.759 -1.4742  0.3423  0.0903
  339SOL    HW2 1355   1.579   1.123   1.855 -0.0466  3.4307 -1.2679
  339SOL     MW 1356   1.571   1.046   1.813 -0.6273  0.2665 -0.3957
  340SOL     OW 1357   1.363   1.522   0.081 -0.0629 -0.4177  0.0564
  340SOL    HW1 1358   1.350   1.596   0.019  2.3690 -0.9885  1.6014
  340SOL    HW2 1359   1.448   1.482   0.071  1.5913 -1.5637  0.6286
  340SOL     MW 1360   1.372   1.526   0.072  0.4762 -0.6442  0.3358
  341SOL     OW 1361   0.138   1.354   2.660  0.1544  0.2641 -0.1970
  341SOL    HW1 1362   0.227   1.365   2.624  0.5224 -2.5496  0.5354
  341SOL    HW2 1363   0.072   1.346   2.591  1.6506 -2.7803 -0.2556
  341SOL     MW 1364   0.141   1.354   2.646  0.4004 -0.5088 -0.1081
  342SOL     OW 1365   1.445   0.312   0.068  0.1815  0.1691  0.0710
  342SOL    HW1 1366   1.504   0.381   0.103  0.7674 -0.2331 -1.5530
  342SOL    HW2 1367   1.421   0.339  -0.020 -0.8542 -1.1864  1.0956
  342SOL     MW 1368   1.450   0.324   0.061  0.1222 -0.0628 -0.0081
  343SOL     OW 1369   0.223   0.283   2.232  0.0178  0.3134 -0.0205
  343SOL    HW1 1370   0.233   0.221   2.303 -3.2381 -0.8609  1.6356
  343SOL    HW2 1371   0.159   0.255   2.162  1.0766 -1.6644 -2.4438
  343SOL     MW 1372   0.216   0.271   2.232 -0.2721 -0.1025 -0.1217
  344SOL     OW 1373   1.679   2.066   0.251 -0.2656 -0.0779 -0.2002
  344SOL    HW1 1374   1.672   2.124   0.178  0.2487 -2.0385 -1.5519
  344SOL    HW2 1375   1.634   1.986   0.219  2.3934  2.0660 -0.4227
  344SOL     MW 1376   1.672   2.063   0.237  0.1531 -0.0537 -0.4079
  345SOL     OW 1377   0.723   1.586   2.389  0.1138  0.2999 -0.1753
  345SOL    HW1 1378   0.641   1.601   2.346 -1.3848 -0.2223  1.6391
  345SOL    HW2 1379   0.782   1.546   2.314  0.0102 -2.5528  1.0122
  345SOL     MW 1380   0.720   1.582   2.373 -0.0976 -0.1454  0.2208
  346SOL     OW 1381   1.726   1.138   0.031  0.3369  0.4038  0.0331
  346SOL    HW1 1382   1.823   1.117   0.030  0.1772 -1.4305 -0.4626
  346SOL    HW2 1383   1.686   1.060   0.076  1.3909  0.0327  1.8147
  346SOL     MW 1384   1.733   1.125   0.037  0.4549  0.1128  0.2028
  347SOL     OW 1385   1.244   0.718   2.316  0.2624  0.1216 -0.3783
  347SOL    HW1 1386   1.331   0.695   2.346 -1.8301  2.1980 -0.8928
  347SOL    HW2 1387   1.196   0.755   2.390 -0.1248 -1.0789 -3.2184
  347SOL     MW 1388   1.249   0.720   2.329 -0.0648  0.2372 -0.8209
  348SOL     OW 1389   1.309   2.593   1.890 -0.0705 -0.4598  0.0101
  348SOL    HW1 1390   1.372   2.519   1.916 -0.9048  2.3520 -2.3303
  348SOL    HW2 1391   1.354   2.670   1.928  0.0874  0.0575 -0.3327
  348SOL     MW 1392   1.324   2.593   1.899 -0.1598 -0.0206 -0.3439
  349SOL     OW 1393   1.445   0.236   2.695  0.1511  0.5753  0.3311
  349SOL    HW1 1394   1.424   0.297   2.763  1.5733  2.1153 -1.7079
  349SOL    HW2 1395   1.533   0.201   2.706  1.7195  0.5969  2.5497
  349SOL     MW 1396   1.454   0.239   2.705  0.5457  0.7813  0.3548
  350SOL     OW 1397   1.870   0.668   2.603  0.2527 -0.2469 -0.3015
  350SOL    HW1 1398   1.846   0.585   2.564  2.1118 -2.7773  0.7043
  350SOL    HW2 1399   1.964   0.647   2.632  0.7023  1.9648 -2.0927
  350SOL     MW 1400   1.879   0.654   2.602  0.5573 -0.2889 -0.4051
  351SOL     OW 1401   0.101   0.949   1.631  0.7513 -0.2573  0.1545
  351SOL    HW1 1402   0.019   0.986   1.668 -1.3713 -0.9478  0.5253
  351SOL    HW2 1403   0.158   1.025   1.633 -1.0372  1.6433  2.2075
  351SOL     MW 1404   0.098   0.964   1.636  0.2352 -0.0976  0.4743
  352SOL     OW 1405   0.747   1.635   2.778  0.8174 -0.4484 -0.0013
  352SOL    HW1 1406   0.790   1.606   2.861  0.5602  0.3080  3.0566
  352SOL    HW2 1407   0.719   1.559   2.720  2.6317  0.9277 -1.1400
  352SOL     MW 1408   0.749   1.621   2.781  1.0228 -0.1671  0.2519
  353SOL     OW 1409   3.006   2.436   2.714  0.4762 -0.2521 -0.6632
  353SOL    HW1 1410   3.101   2.417   2.691  1.6511 -1.6806  0.8123
  353SOL    HW2 1411   2.973   2.497   2.645  0.0445  1.6084 -1.2630
  353SOL     MW 1412   3.014   2.442   2.702  0.5742 -0.1951 -0.5477
  354SOL     OW 1413   0.417   2.426   0.845  0.1303  0.4675 -0.0736
  354SOL    HW1 1414   0.452   2.415   0.932 -1.0222 -0.6884  1.6678
  354SOL    HW2 1415   0.340   2.370   0.828  0.0363  2.6266 -0.2560
  354SOL     MW 1416   0.411   2.417   0.854 -0.0342  0.5999  0.1321
  355SOL     OW 1417   0.061   2.176   0.405 -0.2650  0.0595  0.6349
  355SOL    HW1 1418  -0.031   2.147   0.377 -1.2444  1.6100  0.5827
  355SOL    HW2 1419   0.025   2.233   0.472 -3.3877  1.9665 -0.1902
  355SOL     MW 1420   0.044   2.179   0.410 -0.8062  0.5157  0.5191
  356SOL     OW 1421   0.849   2.928   1.023 -0.7704 -0.8126  0.2818
  356SOL    HW1 1422   0.885   2.915   0.932 -0.1127  0.5973 -2.1784
  356SOL    HW2 1423   0.771   2.875   1.023  3.0353  0.7902 -0.0708
  356SOL     MW 1424   0.843   2.920   1.011 -0.1815 -0.4151 -0.0893
  357SOL     OW 1425   1.751   2.929   0.384  0.6587 -0.0361  0.1605
  357SOL    HW1 1426   1.703   2.861   0.434 -0.5086  3.7086  1.2867
  357SOL    HW2 1427   1.830   2.891   0.347 -0.1204  4.7229  1.0011
  357SOL     MW 1428   1.755   2.915   0.385  0.4019  1.0859  0.4200
  358SOL     OW 1429   0.435   0.123   1.046 -0.9137 -0.0953 -0.2970
  358SOL    HW1 1430   0.528   0.112   1.028 -0.3784 -2.5946 -0.1044
  358SOL    HW2 1431   0.392   0.136   0.961 -1.5465 -0.6355 -2.4166
  358SOL     MW 1432   0.441   0.123   1.032 -0.9266 -0.4964 -0.5513
  359SOL     OW 1433   0.966   2.874   1.825 -0.2983 -0.1048  0.1713
  359SOL    HW1 1434   0.936   2.798   1.885 -1.6267  0.8953 -0.8586
  359SOL    HW2 1435   1.006   2.849   1.742 -1.6181  3.0429  2.3217
  359SOL     MW 1436   0.967   2.861   1.822 -0.6477  0.4424  0.3192
  360SOL     OW 1437   0.604   2.772   1.011 -0.6319  0.1956  0.1020
  360SOL    HW1 1438   0.643   2.719   0.942  1.3087  1.2987 -0.5481
  360SOL    HW2 1439   0.560   2.709   1.072 -1.1324 -3.7803  0.1856
  360SOL     MW 1440   0.604   2.757   1.010 -0.4419 -0.1834  0.0272
  361SOL     OW 1441   0.180   2.706   1.342  0.3263 -0.7000 -0.5809
  361SOL    HW1 1442   0.164   2.794   1.385 -1.3415  3.2066 -1.3338
  361SOL    HW2 1443   0.273   2.703   1.354 -2.0836 -1.0113 -0.6704
  361SOL     MW 1444   0.190   2.717   1.349 -0.2117 -0.2256 -0.6921
  362SOL     OW 1445   1.485   2.432   0.603 -0.1919  0.3418  0.2098
  362SOL    HW1 1446   1.503   2.343   0.645  1.6166  2.1946 -0.8627
  362SOL    HW2 1447   1.508   2.502   0.664 -1.1167  0.0262 -0.6022
  362SOL     MW 1448   1.490   2.430   0.617 -0.0753  0.5446 -0.0388
  363SOL     OW 1449   0.284   3.023   0.741  0.4186 -0.2409 -0.4955
  363SOL    HW1 1450   0.298   2.966   0.818  1.9534 -1.0499  1.2411
  363SOL    HW2 1451   0.199   3.023   0.700  0.2945  1.7061 -0.0759
  363SOL     MW 1452   0.274   3.016   0.746  0.6047 -0.0908 -0.2110
  364SOL     OW 1453   0.729   0.165   0.257  0.3413  0.3190 -0.0691
  364SOL    HW1 1454   0.688   0.075   0.249  2.1524  0.1151 -0.7898
  364SOL    HW2 1455   0.661   0.228   0.252  1.2276 -3.7407  1.3803
  364SOL     MW 1456   0.715   0.162   0.255  0.6972 -0.2435  0.0271
  365SOL     OW 1457   0.923   1.945   1.127 -0.1823 -0.6008 -0.2659
  365SOL    HW1 1458   0.862   2.015   1.104  2.1807 -1.1391  0.2872
  365SOL    HW2 1459   0.890   1.872   1.073 -1.8500  0.0159  1.6292
  365SOL     MW 1460   0.911   1.945   1.117 -0.0905 -0.5904  0.0571
  366SOL     OW 1461   2.886   2.605   1.008  0.8134  0.3699  0.1697
  366SOL    HW1 1462   2.955   2.650   1.066 -3.1421  0.9780  1.8610
  366SOL    HW2 1463   2.922   2.634   0.914  0.3620  1.4418  0.4444
  366SOL     MW 1464   2.900   2.615   1.003  0.2320  0.5916  0.4291
  367SOL     OW 1465   1.264   2.794   0.875 -0.3439  0.2392 -0.0069
  367SOL    HW1 1466   1.185   2.840   0.912  0.1480  0.3175 -0.7801
  367SOL    HW2 1467   1.235   2.765   0.792 -0.3322 -0.0121  2.6791
  367SOL     MW 1468   1.250   2.796   0.869 -0.2774  0.2164  0.2455
  368SOL     OW 1469   1.675   0.473   0.664 -0.3050 -0.0147 -0.4085
  368SOL    HW1 1470   1.745   0.417   0.622 -0.2614 -1.3348  2.5944
  368SOL    HW2 1471   1.689   0.567   0.671 -1.7658 -1.8795 -2.0735
  368SOL     MW 1472   1.686   0.478   0.660 -0.4920 -0.4349 -0.2320
  369SOL     OW 1473   0.143   2.467   1.702  0.2178 -0.5422  0.1732
  369SOL    HW1 1474   0.236   2.456   1.726  2.6976 -1.7116 -0.8659
  369SOL    HW2 1475   0.113   2.540   1.761  1.9511  0.8864  0.4738
  369SOL     MW 1476   0.151   2.475   1.713  0.7737 -0.5080  0.0757
  370SOL     OW 1477   0.713   0.075   0.995  1.3194  0.3189 -0.0463
  370SOL    HW1 1478   0.769   0.151   1.002  1.1609 -0.4842  0.0209
  370SOL    HW2 1479   0.761  -0.001   1.029  1.7658  3.2072  2.5873
  370SOL     MW 1480   0.727   0.075   1.000  1.3574  0.5940  0.3100
  371SOL     OW 1481   1.314   2.984   1.496  0.0157  0.5181  0.1151
  371SOL    HW1 1482   1.255   2.926   1.449 -0.3577  2.2122  1.4782
  371SOL    HW2 1483   1.322   3.062   1.440  2.1707 -2.4945 -0.2295
  371SOL     MW 1484   1.308   2.987   1.482  0.2508  0.3441  0.2495
  372SOL     OW 1485   0.830   2.290   0.478  0.0337  0.2228 -0.1980
  372SOL    HW1 1486   0.811   2.195   0.479 -0.7147  1.3011 -1.5267
  372SOL    HW2 1487   0.841   2.307   0.381  1.1798  0.0061 -0.5782
  372SOL     MW 1488   0.829   2.280   0.465  0.0862  0.3365 -0.4235
  373SOL     OW 1489   2.828   3.000   1.393 -0.3346 -0.2213 -0.0673
  373SOL    HW1 1490   2.900   2.952   1.351  0.4200 -2.5676 -0.0618
  373SOL    HW2 1491   2.843   3.091   1.355 -0.4983  0.9544  1.2198
  373SOL     MW 1492   2.839   3.006   1.383 -0.2566 -0.3758  0.1033
  374SOL     OW 1493   1.528   0.504   0.254 -0.2544 -0.1487 -0.1345
  374SOL    HW1 1494   1.610   0.550   0.277 -1.6880 -2.5630 -2.2831
  374SOL    HW2 1495   1.498   0.445   0.322  3.9580  0.7940  1.2241
  374SOL     MW 1496   1.535   0.502   0.266  0.1122 -0.3428 -0.2387
  375SOL     OW 1497   1.123   2.120   2.315  0.1891 -0.1504  0.1956
  375SOL    HW1 1498   1.127   2.130   2.409  0.1778 -0.2351 -2.9579
  375SOL    HW2 1499   1.134   2.025   2.299 -0.7674 -0.3581 -0.9595
  375SOL     MW 1500   1.125   2.109   2.325  0.0614 -0.1890 -0.3729
  376SOL     OW 1501   0.688   2.525   0.065  0.5484 -0.9127 -0.2760
  376SOL    HW1 1502   0.726   2.478   0.139 -2.2332 -0.0872 -1.5547
  376SOL    HW2 1503   0.654   2.453   0.006 -0.9755 -3.0622 -1.8822
  376SOL     MW 1504   0.688   2.509   0.067 -0.0197 -1.0874 -0.6566
  377SOL     OW 1505   1.304   1.962   0.848 -0.0921 -0.3136  0.3528
  377SOL    HW1 1506   1.211   1.952   0.821 -0.2911 -2.6874  2.4555
  377SOL    HW2 1507   1.307   1.947   0.943  0.6916  1.3285 -0.6138
  377SOL     MW 1508   1.292   1.959   0.857 -0.0149 -0.4101  0.5027
  378SOL     OW 1509   1.039   2.788   1.561  0.5858  0.3277 -0.0811
  378SOL    HW1 1510   0.970   2.717   1.569 -1.4631  2.0143  3.1735
  378SOL    HW2 1511   0.989   2.839   1.491  0.4261  1.4648 -0.8026
  378SOL     MW 1512   1.023   2.785   1.553  0.2944  0.7003  0.2531
  379SOL     OW 1513   1.113   1.802   2.256  0.3897 -0.0333 -0.2584
  379SOL    HW1 1514   1.017   1.797   2.260 -2.8854  1.1243  2.6293
  379SOL    HW2 1515   1.140   1.716   2.219  1.3335 -0.8967  0.0937
  379SOL     MW 1516   1.104   1.790   2.252  0.0821  0.0055  0.1691
  380SOL     OW 1517   0.874   0.082   1.542 -0.5316 -1.0792  0.1705
  380SOL    HW1 1518   0.935   0.091   1.467  1.2524 -2.2087  2.2218
  380SOL    HW2 1519   0.932   0.076   1.613  0.0217  0.3204  1.2123
  380SOL     MW 1520   0.890   0.082   1.541 -0.2232 -1.0436  0.5786
  381SOL     OW 1521   0.787   1.958   0.772 -0.3958 -0.0915  0.1765
  381SOL    HW1 1522   0.886   1.960   0.766  0.9393  0.1316  0.3784
  381SOL    HW2 1523   0.765   2.022   0.836  1.8826  0.9968 -1.0273
  381SOL     MW 1524   0.797   1.967   0.780  0.0810  0.0815  0.0443
  382SOL     OW 1525   0.731   0.071   0.718  0.0537  0.1840  0.1159
  382SOL    HW1 1526   0.700   0.084   0.810 -1.9302  0.0350  2.4596
  382SOL    HW2 1527   0.692  -0.015   0.684 -1.1796 -0.7077 -2.6086
  382SOL     MW 1528   0.722   0.062   0.725 -0.3708  0.0467  0.0657
  383SOL     OW 1529   0.435   0.048   0.367  0.8086 -0.3025 -0.3208
  383SOL    HW1 1530   0.479  -0.025   0.331 -2.5066  1.2194  2.2024
  383SOL    HW2 1531   0.358   0.022   0.414  1.3810 -0.5242  0.4736
  383SOL     MW 1532   0.430   0.035   0.368  0.4467 -0.1310  0.1169
  384SOL     OW 1533   0.635   2.914   0.653  0.2170  0.0531  0.0898
  384SOL    HW1 1534   0.649   2.845   0.710  0.3055 -0.5743 -0.9511
  384SOL    HW2 1535   0.544   2.901   0.618  0.7413 -0.7816  1.9913
  384SOL     MW 1536   0.625   2.903   0.656  0.2978 -0.1399  0.2033
  385SOL     OW 1537   1.311   2.066   1.520 -0.3482 -0.5624 -0.3327
  385SOL    HW1 1538   1.381   2.075   1.581  0.0336  0.1781 -1.5806
  385SOL    HW2 1539   1.259   1.994   1.555  1.1067  2.1924 -0.7503
  385SOL     MW 1540   1.314   2.058   1.533 -0.1059 -0.1012 -0.5524
  386SOL     OW 1541   1.369   0.333   0.821  0.5593 -0.1705  0.1792
  386SOL    HW1 1542   1.296   0.285   0.795  1.1738 -0.2836 -1.4567
  386SOL    HW2 1543   1.331   0.380   0.899 -3.5186 -3.5571  0.5263
  386SOL     MW 1544   1.354   0.333   0.828  0.1023 -0.6322  0.0092
  387SOL     OW 1545   0.824   2.199   1.468 -0.5023 -0.0847 -0.0151
  387SOL    HW1 1546   0.902   2.257   1.443  0.8554 -0.5147 -2.2619
  387SOL    HW2 1547   0.856   2.105   1.449  1.3754 -2.2070  0.5628
  387SOL     MW 1548   0.839   2.194   1.462 -0.0754 -0.4214 -0.2353
  388SOL     OW 1549   1.554   2.776   1.272  0.5516 -0.2139  0.1070
  388SOL    HW1 1550   1.476   2.724   1.250 -0.5678  1.0632 -0.0764
  388SOL    HW2 1551   1.625   2.751   1.210  0.9089 -1.0647  1.9793
  388SOL     MW 1552   1.553   2.766   1.261  0.4510 -0.1577  0.3298
  389SOL     OW 1553   0.362   0.075   3.086  0.2316 -1.1851 -0.7359
  389SOL    HW1 1554   0.445   0.054   3.044  0.1135 -0.2581 -0.5596
  389SOL    HW2 1555   0.290   0.070   3.012 -0.8043  1.6663 -0.7621
  389SOL     MW 1556   0.363   0.071   3.071  0.0794 -0.6866 -0.7161
  390SOL     OW 1557   1.312   0.010   0.621 -0.7688 -0.0572 -0.3751
  390SOL    HW1 1558   1.392   0.045   0.589  0.8440  0.9408  2.8030
  390SOL    HW2 1559   1.333   0.009   0.715 -1.3510 -4.1068 -1.3231
  390SOL     MW 1560   1.325   0.014   0.629 -0.6328 -0.4598 -0.0809
  391SOL     OW 1561   0.290   2.269   1.510 -0.0442  0.3325 -0.2303
  391SOL    HW1 1562   0.228   2.196   1.518  0.0599  1.2590  0.7114
  391SOL    HW2 1563   0.231   2.345   1.486  0.6231 -0.4308  0.9776
  391SOL     MW 1564   0.274   2.269   1.508  0.0576  0.3540  0.0533
  392SOL     OW 1565   2.010   2.188   0.377  0.6265 -0.8737 -0.0332
  392SOL    HW1 1566   1.934   2.194   0.439  0.7027  1.4480  0.4002
  392SOL    HW2 1567   2.078   2.246   0.416  1.9525 -0.4571  2.1362
  392SOL     MW 1568   2.009   2.197   0.390  0.8115 -0.5124  0.3102
  393SOL     OW 1569   0.235   2.990   2.811 -0.2471  0.0392 -0.0314
  393SOL    HW1 1570   0.285   3.066   2.790 -1.2606  1.2763 -2.0569
  393SOL    HW2 1571   0.165   2.993   2.748  2.2510  0.3099  2.7147
  393SOL     MW 1572   0.232   3.001   2.800 -0.0513  0.2381  0.0637
  394SOL     OW 1573   0.870   1.682   1.472  0.2927 -0.1660  0.1640
  394SOL    HW1 1574   0.856   1.675   1.565  0.1195 -0.3609  0.2935
  394SOL    HW2 1575   0.875   1.775   1.456 -2.4771  1.3271  1.6189
  394SOL     MW 1576   0.869   1.693   1.482 -0.0956  0.0053  0.3730
  395SOL     OW 1577   0.967   2.851   2.618 -0.1083 -0.0705  0.2236
  395SOL    HW1 1578   1.018   2.915   2.670  1.0410  0.5973  1.1413
  395SOL    HW2 1579   1.043   2.785   2.590  1.5796 -1.0030 -0.3001
  395SOL     MW 1580   0.984   2.851   2.621  0.2661 -0.1054  0.2756
  396SOL     OW 1581   0.838   1.842   2.370  0.5629 -0.1012  0.0103
  396SOL    HW1 1582   0.855   1.857   2.465 -1.1187  0.3376  1.8433
  396SOL    HW2 1583   0.813   1.752   2.367  2.2278  1.3288  1.9628
  396SOL     MW 1584   0.837   1.832   2.382  0.5607  0.1454  0.5097
  397SOL     OW 1585   1.025   2.356   1.370  0.2208  0.4255  0.0911
  397SOL    HW1 1586   1.046   2.387   1.281 -0.3289  1.0304  0.5561
  397SOL    HW2 1587   1.105   2.354   1.430 -1.2278 -1.2314  3.9633
  397SOL     MW 1588   1.039   2.360   1.366 -0.0429  0.2867  0.6634
  398SOL     OW 1589   0.657   2.627   0.780  0.1360  0.1925  0.3779
  398SOL    HW1 1590   0.601   2.567   0.728 -3.5601  0.6807 -1.4612
  398SOL    HW2 1591   0.751   2.612   0.745  1.0085  0.0237  2.9389
  398SOL     MW 1592   0.662   2.617   0.768 -0.2365  0.2347  0.4731
  399SOL     OW 1593   0.283   2.007   0.435  0.0678  0.5384  0.2487
  399SOL    HW1 1594   0.198   2.058   0.452 -3.1071  0.8840 -1.2113
  399SOL    HW2 1595   0.324   2.060   0.362  1.0808  0.4404 -0.3219
  399SOL     MW 1596   0.277   2.021   0.428 -0.2174  0.5710 -0.0192
  400SOL     OW 1597   0.570   1.828   0.168 -0.4434 -0.0258  0.9545
  400SOL    HW1 1598   0.538   1.913   0.184  0.7884  1.4306  0.7444
  400SOL    HW2 1599   0.562   1.785   0.254  0.5678  0.6514 -1.9146
  400SOL     MW 1600   0.565   1.834   0.181 -0.1475  0.2557  0.5482
  401SOL     OW 1601   0.907   2.078   0.204  0.1881  0.0761 -0.3371
  401SOL    HW1 1602   0.922   1.989   0.185  0.6618 -2.1378  1.8297
  401SOL    HW2 1603   0.984   2.101   0.254 -3.1069 -1.4841  1.0780
  401SOL     MW 1604   0.919   2.069   0.208 -0.1842 -0.4219  0.1355
  402SOL     OW 1605   0.680   2.958   1.685  0.2148  0.7080 -0.0721
  402SOL    HW1 1606   0.739   2.932   1.754 -0.7596 -0.1921 -2.7794
  402SOL    HW2 1607   0.718   3.038   1.644 -1.0014 -0.4337  0.7226
  402SOL     MW 1608   0.693   2.965   1.689 -0.0742  0.4386 -0.3245
  403SOL     OW 1609   0.067   0.389   0.443  0.5091  0.0686 -0.3788
  403SOL    HW1 1610   0.146   0.379   0.502  1.8360  2.4905 -0.7075
  403SOL    HW2 1611   0.094   0.363   0.356  1.7081  2.3646  0.1082
  403SOL     MW 1612   0.081   0.384   0.439  0.8424  0.6911 -0.3579
  404SOL     OW 1613   0.983   2.864   0.799 -0.0483 -0.3617 -0.1455
  404SOL    HW1 1614   1.032   2.806   0.741 -1.7359  1.1231  0.0299
  404SOL    HW2 1615   0.993   2.955   0.763 -0.8432  0.9027  0.1516
  404SOL     MW 1616   0.991   2.868   0.786 -0.3759  0.0010 -0.0832
  405SOL     OW 1617   0.494   2.433   1.576  0.1416 -0.1784 -0.4212
  405SOL    HW1 1618   0.477   2.508   1.518  3.1523 -1.6085  2.2462
  405SOL    HW2 1619   0.432   2.354   1.549 -1.5826 -3.1777  0.6130
  405SOL     MW 1620   0.484   2.432   1.565  0.3114 -0.7628  0.0672
  406SOL     OW 1621   0.399   2.311   1.094 -0.1243  0.5169 -0.0854
  406SOL    HW1 1622   0.300   2.316   1.092 -2.5147 -2.3146  0.4068
  406SOL    HW2 1623   0.412   2.257   1.178 -1.9102 -0.9962  1.6423
  406SOL     MW 1624   0.388   2.304   1.105 -0.6753 -0.0563  0.2075
  407SOL     OW 1625   0.020   2.725   1.107 -0.7121  0.1792 -0.1067
  407SOL    HW1 1626   0.068   2.696   1.186 -3.1262 -0.6321 -0.8494
  407SOL    HW2 1627   0.084   2.704   1.032  4.9693  1.0161 -2.1409
  407SOL     MW 1628   0.035   2.719   1.107 -0.2810  0.1826 -0.4731
  408SOL     OW 1629   2.096   2.045   0.666 -0.2126  0.1156  0.0792
  408SOL    HW1 1630   2.046   2.100   0.728 -0.8025 -1.6369  2.9313
  408SOL    HW2 1631   2.042   2.022   0.598  0.1160  1.5909  1.9585
  408SOL     MW 1632   2.082   2.049   0.665 -0.2471  0.0790  0.7034
  409SOL     OW 1633   1.365   0.072   0.896  0.4633 -0.2774  0.4722
  409SOL    HW1 1634   1.407   0.161   0.900  2.9185  0.7886 -2.1480
  409SOL    HW2 1635   1.418   0.013   0.951  1.6347  3.3204  0.4867
  409SOL     MW 1636   1.378   0.076   0.904  0.9418  0.3379  0.1284
  410SOL     OW 1637   1.106   2.440   1.123  0.0340  0.1973 -0.7790
  410SOL    HW1 1638   1.027   2.460   1.075  1.3394 -2.0075 -0.0355
  410SOL    HW2 1639   1.142   2.356   1.084 -3.2971 -1.3178 -0.6021
  410SOL     MW 1640   1.100   2.431   1.112 -0.2333 -0.2935 -0.6576
  411SOL     OW 1641   1.955   0.056   2.872  0.0800 -0.5803  0.6420
  411SOL    HW1 1642   1.915   0.013   2.788  0.8043 -1.2682 -1.0463
  411SOL    HW2 1643   1.879   0.072   2.925 -1.8935 -0.4832  0.5258
  411SOL     MW 1644   1.940   0.052   2.868 -0.0848 -0.6582  0.4039
  412SOL     OW 1645   1.081   2.208   0.600 -0.0272  0.2879 -0.0551
  412SOL    HW1 1646   1.144   2.270   0.635 -3.7493  0.0846  2.4406
  412SOL    HW2 1647   1.002   2.253   0.598  0.1165 -2.0847 -0.7074
  412SOL     MW 1648   1.079   2.222   0.605 -0.4993 -0.0520  0.1881
  413SOL     OW 1649   0.541   2.773   0.087 -0.1880  0.0462 -0.4136
  413SOL    HW1 1650   0.558   2.680   0.074 -2.7702 -0.0215  0.0101
  413SOL    HW2 1651   0.558   2.801  -0.004  0.1798  0.1699 -0.4691
  413SOL     MW 1652   0.546   2.765   0.073 -0.4802  0.0536 -0.3650
  414SOL     OW 1653   1.959   3.000   1.069 -0.4693 -0.5716 -0.3777
  414SOL    HW1 1654   1.911   2.976   0.990 -0.8268  2.2750  1.1191
  414SOL    HW2 1655   2.040   2.945   1.068 -0.8067 -2.8778 -1.3672
  414SOL     MW 1656   1.963   2.989   1.058 -0.5610 -0.5003 -0.3108
  415SOL     OW 1657   1.705   2.646   1.091  0.3447 -0.6587  0.6304
  415SOL    HW1 1658   1.655   2.570   1.131 -2.0764  1.4010  1.9752
  415SOL    HW2 1659   1.796   2.642   1.131  0.5150 -0.5376  1.9821
  415SOL     MW 1660   1.710   2.635   1.101  0.0477 -0.3710  0.9862
  416SOL     OW 1661   0.616   1.909   1.354 -0.1178 -0.0571 -0.3738
  416SOL    HW1 1662   0.571   1.992   1.338 -1.6516  0.1495 -2.1116
  416SOL    HW2 1663   0.613   1.862   1.268  2.0325 -0.1810 -2.5831
  416SOL     MW 1664   0.610   1.914   1.340 -0.0365 -0.0462 -0.8946
  417SOL     OW 1665   1.008   3.052   2.038 -0.2963 -0.5460 -0.1954
  417SOL    HW1 1666   0.937   3.040   2.104 -0.6042  1.4478  0.1516
  417SOL    HW2 1667   0.991   2.994   1.964  1.2348  0.9512 -0.0333
  417SOL     MW 1668   0.997   3.043   2.037 -0.1349 -0.0854 -0.1283
  418SOL     OW 1669   0.630   2.985   0.223 -0.4673  0.2955 -0.1216
  418SOL    HW1 1670   0.707   2.981   0.162 -0.1881  0.1737 -0.8433
  418SOL    HW2 1671   0.584   2.912   0.178  3.1072  0.6312  0.3932
  418SOL     MW 1672   0.634   2.975   0.209  0.0412  0.3237 -0.1489
  419SOL     OW 1673   0.453   2.642   1.385  0.6384 -0.1875  0.1973
  419SOL    HW1 1674   0.504   2.728   1.386  0.5806  0.2388 -0.2563
  419SOL    HW2 1675   0.466   2.596   1.301  0.2992  1.0373 -1.0647
  419SOL     MW 1676   0.462   2.647   1.374  0.5860  0.0304 -0.0291
  420SOL     OW 1677   0.759   2.133   0.992 -0.4001 -0.0787  0.1046
  420SOL    HW1 1678   0.710   2.146   1.076  1.1319 -0.7704  1.0495
  420SOL    HW2 1679   0.805   2.217   0.977  1.0329  1.4811  0.7269
  420SOL     MW 1680   0.759   2.146   1.001 -0.0089  0.0358  0.3114
  421SOL     OW 1681   2.941   0.074   0.030  0.0723  0.3449  0.0673
  421SOL    HW1 1682   2.908   0.019  -0.045  0.0271  0.2356 -1.2459
  421SOL    HW2 1683   2.984   0.010   0.081  1.1500  1.5972 -1.6092
  421SOL     MW 1684   2.942   0.058   0.027  0.2085  0.4957 -0.3272
  422SOL     OW 1685   0.829   2.458   0.990 -0.0664 -0.1473  0.5254
  422SOL    HW1 1686   0.736   2.481   0.993  0.0709  1.2145 -0.7298
  422SOL    HW2 1687   0.855   2.497   0.905 -1.4227  1.3870  0.9645
  422SOL     MW 1688   0.820   2.466   0.979 -0.2273  0.2348  0.4177
  423SOL     OW 1689   1.526   0.153   0.505 -0.1667 -0.5684  0.2563
  423SOL    HW1 1690   1.515   0.161   0.404  0.3651  2.0250  0.6924
  423SOL    HW2 1691   1.513   0.238   0.539 -0.6711 -1.3725 -1.5777
  423SOL     MW 1692   1.523   0.165   0.496 -0.1631 -0.3323  0.0719
  424SOL     OW 1693   0.686   2.249   1.247 -0.0816 -0.4348 -0.2370
  424SOL    HW1 1694   0.601   2.244   1.275  3.1925 -0.5781 -2.8960
  424SOL    HW2 1695   0.740   2.235   1.327 -2.1344 -2.0950  0.7403
  424SOL     MW 1696   0.682   2.246   1.261  0.0796 -0.6727 -0.4589
  425SOL     OW 1697   1.717   2.825   1.922 -0.2925  0.0871 -0.2247
  425SOL    HW1 1698   1.749   2.846   1.831  1.6377 -3.6785  0.1375
  425SOL    HW2 1699   1.777   2.750   1.943  0.0395  1.0682 -0.5654
  425SOL     MW 1700   1.729   2.818   1.913  0.0060 -0.2803 -0.2218
  426SOL     OW 1701   0.814   1.693   1.935  0.2410  0.5579  0.0821
  426SOL    HW1 1702   0.764   1.697   1.856  2.0687 -0.4073 -2.1710
  426SOL    HW2 1703   0.804   1.774   1.980 -0.1326  0.8052  0.8326
  426SOL     MW 1704   0.806   1.704   1.930  0.4329  0.4631 -0.1161
  427SOL     OW 1705   0.322   1.547   1.890 -0.0434 -0.1606  0.1614
  427SOL    HW1 1706   0.357   1.523   1.970 -0.8744 -1.6396 -1.6255
  427SOL    HW2 1707   0.234   1.505   1.908  0.2828 -1.2192 -2.4708
  427SOL     MW 1708   0.315   1.538   1.903 -0.1100 -0.4954 -0.4217
  428SOL     OW 1709   0.559   2.543   1.136 -0.4644  0.0116 -0.3094
  428SOL    HW1 1710   0.636   2.546   1.197 -0.8126 -1.0249 -2.4264
  428SOL    HW2 1711   0.513   2.460   1.149 -0.7823  2.2137  0.1792
  428SOL     MW 1712   0.563   2.532   1.145 -0.5523  0.1654 -0.5243
  429SOL     OW 1713   1.344   2.610   1.084 -0.0524 -0.2515  0.1308
  429SOL    HW1 1714   1.258   2.568   1.111 -0.3216  0.4027  1.1979
  429SOL    HW2 1715   1.316   2.696   1.042 -0.0918  0.5356 -1.3150
  429SOL     MW 1716   1.329   2.616   1.082 -0.0931 -0.0613  0.0808
  430SOL     OW 1717   1.112   2.689   0.636 -0.2128 -0.0134 -0.2131
  430SOL    HW1 1718   1.162   2.606   0.647  0.2433  0.6379 -2.4646
  430SOL    HW2 1719   1.080   2.683   0.547 -0.1072  0.2161  0.2073
  430SOL     MW 1720   1.115   2.678   0.626 -0.1387  0.1028 -0.4547
  431SOL     OW 1721   0.339   1.948   1.116 -0.3724 -0.2028 -0.2715
  431SOL    HW1 1722   0.418   1.892   1.115  1.8090 -1.3199  0.1821
  431SOL    HW2 1723   0.317   1.966   1.026 -0.1195 -2.3130 -2.7278
  431SOL     MW 1724   0.346   1.943   1.104 -0.0512 -0.6286 -0.5357
  432SOL     OW 1725   0.040   0.090   1.179 -0.2625  0.6958  0.0934
  432SOL    HW1 1726   0.052   0.107   1.275 -1.3632  0.8450 -0.7686
  432SOL    HW2 1727  -0.018   0.005   1.168  0.4342 -1.0345 -0.3734
  432SOL     MW 1728   0.034   0.081   1.190 -0.3158  0.4872 -0.0819
  433SOL     OW 1729   0.612   2.892   1.418  0.0686 -0.3461 -0.4295
  433SOL    HW1 1730   0.645   2.903   1.507 -0.6273  2.5762 -1.8903
  433SOL    HW2 1731   0.689   2.918   1.366 -2.5211 -1.1073  0.0173
  433SOL     MW 1732   0.626   2.897   1.423 -0.3649 -0.0610 -0.5633
  434SOL     OW 1733   1.561   2.817   1.529  0.2940 -0.4757 -0.5566
  434SOL    HW1 1734   1.476   2.862   1.538 -0.4710  1.7607 -0.3442
  434SOL    HW2 1735   1.569   2.803   1.435  3.8174  1.2879  1.7664
  434SOL     MW 1736   1.551   2.821   1.518  0.6580  0.0521 -0.2221
  435SOL     OW 1737   2.865   1.767   0.189 -0.2462  0.3862 -0.4462
  435SOL    HW1 1738   2.905   1.844   0.145  2.4318  2.2260  0.2638
  435SOL    HW2 1739   2.823   1.724   0.119  0.5892  1.2209  0.4201
  435SOL     MW 1740   2.865   1.771   0.174  0.2173  0.7391 -0.2382
  436SOL     OW 1741   1.391   2.745   0.327 -0.4687  0.3839  0.4283
  436SOL    HW1 1742   1.471   2.754   0.381 -0.0841 -1.3095 -0.9090
  436SOL    HW2 1743   1.339   2.823   0.350  1.7775 -2.0093  1.4720
  436SOL     MW 1744   1.395   2.756   0.337 -0.1216 -0.1553  0.3896
  437SOL     OW 1745   0.890   2.908   1.358 -0.4356 -0.9693 -0.0023
  437SOL    HW1 1746   0.914   2.998   1.330 -0.9394  0.5375  0.7075
  437SOL    HW2 1747   0.924   2.853   1.289  2.4354 -1.6613  0.3094
  437SOL     MW 1748   0.898   2.913   1.345 -0.1233 -0.8618  0.1325
  438SOL     OW 1749   0.908   2.637   1.957  0.5119  0.4416 -0.0897
  438SOL    HW1 1750   0.881   2.563   2.019 -0.2249 -2.0789 -1.5378
  438SOL    HW2 1751   0.872   2.589   1.881  0.7539  0.7875  0.5697
  438SOL     MW 1752   0.900   2.621   1.955  0.4466  0.1547 -0.1938
  439SOL     OW 1753   1.143   2.175   0.338 -0.1699 -0.2300  0.1534
  439SOL    HW1 1754   1.123   2.204   0.431 -0.8498  1.3410  0.8978
  439SOL    HW2 1755   1.169   2.248   0.277 -1.0803 -0.0388 -0.4325
  439SOL     MW 1756   1.144   2.188   0.342 -0.3797  0.0025  0.1743
  440SOL     OW 1757   1.600   2.919   3.029 -0.1906 -1.0406 -0.2293
  440SOL    HW1 1758   1.577   2.910   3.123  2.5155 -2.8332 -0.8288
  440SOL    HW2 1759   1.673   2.859   3.014 -2.5780 -0.2636 -0.2091
  440SOL     MW 1760   1.606   2.910   3.039 -0.1486 -1.1746 -0.3058
  441SOL     OW 1761   0.344   2.576   0.520 -0.2232 -0.1479 -0.0012
  441SOL    HW1 1762   0.348   2.555   0.426  2.9087 -0.1030 -0.5543
  441SOL    HW2 1763   0.341   2.672   0.522 -0.6588 -1.4830  1.4122
  441SOL     MW 1764   0.344   2.586   0.508  0.1325 -0.3182  0.1123
  442SOL     OW 1765   3.052   2.287   0.637  0.1083 -0.3207 -0.0538
  442SOL    HW1 1766   3.084   2.377   0.643 -0.6372  0.8621 -2.7211
  442SOL    HW2 1767   2.961   2.288   0.671  0.9673 -0.7168  0.1339
  442SOL     MW 1768   3.044   2.299   0.643  0.1233 -0.2169 -0.3810
  443SOL     OW 1769   1.354   1.740   1.831  0.5807  0.4012  0.4020
  443SOL    HW1 1770   1.304   1.789   1.759 -0.7309  0.0960  0.4366
  443SOL    HW2 1771   1.311   1.656   1.816  1.2554  1.8291 -1.0133
  443SOL     MW 1772   1.342   1.736   1.820  0.4967  0.5493  0.2198
  444SOL     OW 1773   0.859   2.583   1.547  0.6494  0.1270  0.0603
  444SOL    HW1 1774   0.949   2.553   1.579  3.0237 -1.9802  1.3232
  444SOL    HW2 1775   0.800   2.565   1.625  0.1769 -1.3992 -0.0116
  444SOL     MW 1776   0.863   2.576   1.562  0.9003 -0.3524  0.2174
  445SOL     OW 1777   0.966   0.066   1.278 -0.0355  0.7858 -0.1921
  445SOL    HW1 1778   0.933   0.157   1.264 -3.1977  1.3440 -2.8463
  445SOL    HW2 1779   1.016   0.051   1.201  1.3746 -1.4999 -0.0383
  445SOL     MW 1780   0.968   0.076   1.266 -0.2666  0.5579 -0.5220
  446SOL     OW 1781   2.705   2.820   1.053 -0.5018 -0.5283  0.4011
  446SOL    HW1 1782   2.637   2.830   0.985  0.6891  0.0348 -1.6294
  446SOL    HW2 1783   2.757   2.740   1.034 -0.5144 -1.9433  0.7196
  446SOL     MW 1784   2.703   2.810   1.041 -0.3463 -0.6407  0.1752
  447SOL     OW 1785   3.045   2.036   1.713  0.1160  0.2713  0.0731
  447SOL    HW1 1786   3.113   1.974   1.745 -1.4093  2.2612 -1.6315
  447SOL    HW2 1787   2.970   1.989   1.668 -1.7978 -0.2323  1.6406
  447SOL     MW 1788   3.044   2.021   1.711 -0.3378  0.4674  0.0550
  448SOL     OW 1789   1.674   2.349   1.660 -0.4410  0.9452 -0.1940
  448SOL    HW1 1790   1.605   2.280   1.664  2.2024  1.3009 -2.2232
  448SOL    HW2 1791   1.613   2.428   1.649  0.5110 -2.1429  1.5364
  448SOL     MW 1792   1.657   2.351   1.659  0.0334  0.5847 -0.2334
  449SOL     OW 1793   0.802   2.966   0.449 -0.6908 -0.2180 -0.2390
  449SOL    HW1 1794   0.739   2.958   0.376  0.1391 -2.2188 -0.3878
  449SOL    HW2 1795   0.749   2.945   0.527  0.8996 -1.8793  0.9002
  449SOL     MW 1796   0.787   2.962   0.450 -0.3715 -0.7012 -0.1084
  450SOL     OW 1797   1.227   2.413   0.691 -0.2744 -0.1442  0.1521
  450SOL    HW1 1798   1.224   2.356   0.770  0.1915  0.0717  2.5489
  450SOL    HW2 1799   1.318   2.419   0.656 -0.5703  0.4736  0.0287
  450SOL     MW 1800   1.239   2.406   0.697 -0.2520 -0.0342  0.4521
  451SOL     OW 1801   0.586   2.032   1.657 -0.1499 -0.3284  0.0110
  451SOL    HW1 1802   0.671   2.074   1.695 -0.4401  1.7388  0.7269
  451SOL    HW2 1803   0.573   2.078   1.572  1.8534  0.5918 -2.0213
  451SOL     MW 1804   0.595   2.044   1.650  0.0761  0.0657 -0.1627
  452SOL     OW 1805   0.272   2.734   0.124 -0.6468 -0.0701 -0.8905
  452SOL    HW1 1806   0.364   2.741   0.112  1.0614  1.5772 -1.5559
  452SOL    HW2 1807   0.233   2.722   0.030 -0.8259 -1.2637 -0.1198
  452SOL     MW 1808   0.279   2.734   0.110 -0.4450 -0.0102 -0.8766
  453SOL     OW 1809   0.410   2.976   1.704  0.1393  0.5683 -0.2664
  453SOL    HW1 1810   0.507   2.991   1.713  1.5213  0.3662 -0.6064
  453SOL    HW2 1811   0.385   2.994   1.611 -2.3014 -1.3724  2.2728
  453SOL     MW 1812   0.419   2.981   1.693 -0.0004  0.2856  0.0237
  454SOL     OW 1813   1.027   2.782   1.176 -0.7150 -0.6269  1.0494
  454SOL    HW1 1814   0.983   2.698   1.149 -0.9436 -1.4029  0.2060
  454SOL    HW2 1815   0.974   2.852   1.136 -0.0753  0.7839 -1.3624
  454SOL     MW 1816   1.014   2.780   1.167 -0.6608 -0.5431  0.6199
  455SOL     OW 1817   1.535   2.962   0.201 -0.5855 -0.1896  0.0062
  455SOL    HW1 1818   1.609   2.949   0.261  0.0701 -1.4096 -2.2336
  455SOL    HW2 1819   1.476   2.891   0.231 -0.0433 -1.8309  0.7138
  455SOL     MW 1820   1.537   2.951   0.213 -0.4274 -0.5671 -0.1959
  456SOL     OW 1821   2.899   0.377   1.331 -0.2688  1.0438 -0.3602
  456SOL    HW1 1822   2.864   0.292   1.304 -3.2317 -1.8751 -0.5757
  456SOL    HW2 1823   2.968   0.396   1.266 -0.3767  1.4796  1.1214
  456SOL     MW 1824   2.904   0.368   1.319 -0.6740  0.7162 -0.1931
  457SOL     OW 1825   0.885   1.557   2.992  0.5796  0.3098  0.1995
  457SOL    HW1 1826   0.802   1.563   3.047  1.3050  0.2100 -0.5038
  457SOL    HW2 1827   0.921   1.490   3.043  1.0900  2.3210 -2.1641
  457SOL     MW 1828   0.879   1.549   3.006  0.7427  0.5620 -0.2051
  458SOL     OW 1829   1.475   1.408   0.634 -0.0448  0.3757 -0.1396
  458SOL    HW1 1830   1.387   1.418   0.674 -1.3781 -1.0978  2.2016
  458SOL    HW2 1831   1.463   1.368   0.553  1.7634  1.4341  3.0320
  458SOL     MW 1832   1.462   1.404   0.628  0.0179  0.3209  0.5878
  459SOL     OW 1833   1.559   0.148   0.244  0.4278  0.2068 -0.5503
  459SOL    HW1 1834   1.544   0.053   0.224  2.0605  0.0450  0.8963
  459SOL    HW2 1835   1.515   0.189   0.164  0.2224 -0.0564  1.4632
  459SOL     MW 1836   1.551   0.141   0.231  0.6161  0.1507 -0.0938
  460SOL     OW 1837   1.731   2.154   0.628 -0.1741  0.2532  0.3103
  460SOL    HW1 1838   1.634   2.165   0.655 -2.4910  1.8097 -0.4383
  460SOL    HW2 1839   1.751   2.061   0.586  3.6635 -1.0258  2.7032
  460SOL     MW 1840   1.720   2.143   0.626  0.0266  0.2898  0.5273
  461SOL     OW 1841   0.558   2.438   0.617 -0.1251 -0.2287 -0.4582
  461SOL    HW1 1842   0.488   2.484   0.569 -0.7428 -0.7317  0.0923
  461SOL    HW2 1843   0.494   2.409   0.688 -1.9878  3.2266 -0.8838
  461SOL     MW 1844   0.541   2.440   0.620 -0.4523  0.1608 -0.4417
  462SOL     OW 1845   0.305   0.253   1.260 -0.7304  0.1698  0.2276
  462SOL    HW1 1846   0.348   0.195   1.203  0.4127 -1.1530 -1.3048
  462SOL    HW2 1847   0.378   0.286   1.316 -2.2395 -2.8682 -1.3439
  462SOL     MW 1848   0.320   0.249   1.260 -0.7787 -0.4056 -0.1820
  463SOL     OW 1849   0.997   0.042   0.695 -0.1207 -0.5089 -0.3377
  463SOL    HW1 1850   1.016   0.054   0.601 -1.2985  1.3189 -0.5931
  463SOL    HW2 1851   0.898   0.049   0.706 -0.2440  0.6275 -1.7744
  463SOL     MW 1852   0.986   0.044   0.684 -0.2924 -0.1178 -0.5609
  464SOL     OW 1853   0.746   2.942   2.163  0.5505  0.1394 -0.2117
  464SOL    HW1 1854   0.724   2.847   2.171  1.1852  3.7585  1.8352
  464SOL    HW2 1855   0.773   2.963   2.253 -0.6904  2.3298  3.2741
  464SOL     MW 1856   0.747   2.932   2.176  0.4705  0.9059  0.5183
  465SOL     OW 1857   0.729   0.264   0.522 -0.2892  0.6156  0.7746
  465SOL    HW1 1858   0.740   0.187   0.582 -1.7342  0.1650 -1.2549
  465SOL    HW2 1859   0.751   0.222   0.440 -0.1873  1.9355 -0.2563
  465SOL     MW 1860   0.733   0.248   0.519 -0.4664  0.7303  0.3708
  466SOL     OW 1861   1.065   1.973   0.720  0.3964  0.6024  0.0503
  466SOL    HW1 1862   1.064   1.911   0.642 -2.7253 -0.6216  0.9756
  466SOL    HW2 1863   1.065   2.062   0.681  0.7687 -0.0943 -1.4251
  466SOL     MW 1864   1.065   1.976   0.705  0.0336  0.3490 -0.0223
  467SOL     OW 1865   1.229   2.257   0.948  0.2059 -0.2437 -0.6352
  467SOL    HW1 1866   1.322   2.287   0.958  0.9915 -0.0519  0.6232
  467SOL    HW2 1867   1.243   2.162   0.923 -1.1609 -2.4238 -1.8689
  467SOL     MW 1868   1.243   2.248   0.946  0.1292 -0.5060 -0.6320
  468SOL     OW 1869   0.353   2.595   2.005  0.2728 -0.1835 -0.1156
  468SOL    HW1 1870   0.358   2.555   1.920 -1.3970 -1.1661 -0.5254
  468SOL    HW2 1871   0.412   2.670   1.990 -1.0474 -3.6365  0.6499
  468SOL     MW 1872   0.362   2.600   1.992 -0.1217 -0.7687 -0.0687
  469SOL     OW 1873   0.388   2.140   1.818 -0.5387  0.2188 -0.2728
  469SOL    HW1 1874   0.317   2.077   1.830  1.1014  2.5480  0.9534
  469SOL    HW2 1875   0.444   2.095   1.753  1.3959 -0.8250  3.3359
  469SOL     MW 1876   0.386   2.126   1.811 -0.0670  0.3884  0.3651
  470SOL     OW 1877   3.034   2.551   0.157 -0.0469  0.3895 -0.4316
  470SOL    HW1 1878   2.954   2.512   0.199 -1.8517  3.6446 -0.3282
  470SOL    HW2 1879   3.018   2.565   0.065 -3.1200 -1.5337 -1.0536
  470SOL     MW 1880   3.022   2.547   0.151 -0.6905  0.5653 -0.5000
  471SOL     OW 1881   1.239   2.741   1.356  0.8644 -0.3335  0.7444
  471SOL    HW1 1882   1.185   2.732   1.439 -2.4249  1.7591  0.9940
  471SOL    HW2 1883   1.175   2.756   1.283  2.6070  1.7427  0.8122
  471SOL     MW 1884   1.224   2.742   1.358  0.6603  0.2166  0.7863
  472SOL     OW 1885   2.899   2.096   0.323  0.0355 -0.1003 -0.2439
  472SOL    HW1 1886   2.949   2.058   0.243 -1.2447 -1.8121  2.5331
  472SOL    HW2 1887   2.889   2.014   0.381  0.6320 -0.6562 -0.7082
  472SOL     MW 1888   2.904   2.080   0.320 -0.0547 -0.3995  0.0612
  473SOL     OW 1889   0.783   2.548   1.276  0.2399  0.0665 -0.7699
  473SOL    HW1 1890   0.778   2.453   1.253 -0.6750  0.0765 -3.9104
  473SOL    HW2 1891   0.795   2.569   1.372  1.0047  2.4615  0.7150
  473SOL     MW 1892   0.784   2.538   1.285  0.2201  0.3838 -0.9884
  474SOL     OW 1893   0.778   2.235   1.727 -0.5258  0.1224 -0.3300
  474SOL    HW1 1894   0.868   2.230   1.773  1.4837  2.3192  0.6898
  474SOL    HW2 1895   0.792   2.235   1.627  1.4437  0.8091 -2.3608
  474SOL     MW 1896   0.792   2.234   1.720 -0.0008  0.5028 -0.4634
  475SOL     OW 1897   1.627   3.088   1.436 -0.1884  0.6864  0.1236
  475SOL    HW1 1898   1.542   3.129   1.403 -1.0821  2.3729 -0.5572
  475SOL    HW2 1899   1.604   2.999   1.465 -1.3407  1.7586  0.2642
  475SOL     MW 1900   1.613   3.082   1.436 -0.4584  1.0504  0.0523
  476SOL     OW 1901   1.472   2.590   0.806  0.4468 -0.0098 -0.0031
  476SOL    HW1 1902   1.420   2.600   0.887  1.6605  2.0654 -1.5020
  476SOL    HW2 1903   1.499   2.676   0.779 -0.8542  0.0149  2.8957
  476SOL     MW 1904   1.469   2.602   0.813  0.4353  0.2673  0.1816
  477SOL     OW 1905   0.861   2.502   0.672 -0.3343 -0.5215  0.4058
  477SOL    HW1 1906   0.906   2.564   0.622  0.0652  3.7874 -0.5916
  477SOL    HW2 1907   0.821   2.438   0.611 -2.6809 -0.4392  1.1884
  477SOL     MW 1908   0.861   2.502   0.657 -0.5912  0.0578  0.3775
  478SOL     OW 1909   0.239   2.631   0.905 -0.0899  0.7035 -0.0624
  478SOL    HW1 1910   0.275   2.729   0.920  1.0551  1.1814  1.4282
  478SOL    HW2 1911   0.319   2.592   0.872 -0.1099  0.9070 -1.6985
  478SOL     MW 1912   0.254   2.639   0.903  0.0585  0.7934 -0.0816
  479SOL     OW 1913   1.398   1.943   1.300  0.0771 -0.3334 -0.2362
  479SOL    HW1 1914   1.363   1.980   1.385  1.6450  1.9824  3.8721
  479SOL    HW2 1915   1.458   1.872   1.321  0.8898 -0.7404 -0.3688
  479SOL     MW 1916   1.401   1.938   1.314  0.3912 -0.0815  0.2884
  480SOL     OW 1917   1.851   2.391   1.301  0.0392  0.3030  0.2108
  480SOL    HW1 1918   1.867   2.303   1.338 -0.6134 -0.2762 -0.1592
  480SOL    HW2 1919   1.900   2.397   1.217  1.5352  0.4494  1.4734
  480SOL     MW 1920   1.859   2.380   1.295  0.1505  0.2459  0.3286
  481SOL     OW 1921   1.206   0.123   1.106 -0.8134  0.1063  0.1931
  481SOL    HW1 1922   1.260   0.095   1.029  2.7938  0.4742 -0.5552
  481SOL    HW2 1923   1.199   0.218   1.091  1.3953 -1.0238 -1.8274
  481SOL     MW 1924   1.213   0.132   1.094 -0.0461  0.0057 -0.1722
  482SOL     OW 1925   1.049   0.038   0.433 -0.2547 -0.0215  0.2275
  482SOL    HW1 1926   0.980  -0.028   0.433  1.7923 -0.8064  0.0402
  482SOL    HW2 1927   1.019   0.114   0.383  0.4241 -0.2253 -1.4831
  482SOL     MW 1928   1.036   0.039   0.426  0.1049 -0.1519 -0.0229
  483SOL     OW 1929   0.380   2.857   0.554  0.8019  0.4159 -0.2701
  483SOL    HW1 1930   0.313   2.873   0.492  2.5459 -3.8250  1.2424
  483SOL    HW2 1931   0.338   2.902   0.630 -0.6704  2.3562 -0.8376
  483SOL     MW 1932   0.366   2.865   0.556  0.8377  0.1124 -0.1454
  484SOL     OW 1933   1.669   1.851   1.448 -0.1261 -0.1306 -0.1427
  484SOL    HW1 1934   1.727   1.924   1.417  1.9238  2.0029 -1.5610
  484SOL    HW2 1935   1.677   1.845   1.543 -1.7906 -0.0468  0.8360
  484SOL     MW 1936   1.677   1.860   1.456 -0.0753  0.1620 -0.2007
  485SOL     OW 1937   0.550   2.297   0.360 -0.5074 -0.8025  0.3045
  485SOL    HW1 1938   0.638   2.301   0.403  4.5912  1.9698 -4.8165
  485SOL    HW2 1939   0.552   2.360   0.282  0.5340  3.0373 -1.6215
  485SOL     MW 1940   0.562   2.306   0.355  0.3027  0.0699 -0.6253
  486SOL     OW 1941   0.102   2.471   1.429 -0.0375 -0.1360 -0.0195
  486SOL    HW1 1942   0.138   2.561   1.391 -2.6313  0.8080  1.5369
  486SOL    HW2 1943   0.097   2.477   1.527 -2.3531  1.5649 -1.5442
  486SOL     MW 1944   0.106   2.484   1.437 -0.6853  0.2130 -0.0153
  487SOL     OW 1945   1.264   1.625   0.976 -0.2759  0.2334  0.3796
  487SOL    HW1 1946   1.211   1.703   0.986 -1.8134  0.6181  1.7753
  487SOL    HW2 1947   1.351   1.642   1.010  0.3592 -1.1382  0.4253
  487SOL     MW 1948   1.269   1.638   0.982 -0.3950  0.1032  0.5698
  488SOL     OW 1949   1.530   1.878   0.576  0.2287  0.3650 -0.4946
  488SOL    HW1 1950   1.543   1.930   0.499  0.6348 -1.1018  0.3416
  488SOL    HW2 1951   1.460   1.821   0.554  1.3424  0.0175 -2.0943
  488SOL     MW 1952   1.523   1.877   0.563  0.4292  0.1257 -0.5954
  489SOL     OW 1953   0.750   0.774   0.503  0.5187  0.1274 -0.2039
  489SOL    HW1 1954   0.804   0.731   0.441 -1.7648  1.2607  0.3711
  489SOL    HW2 1955   0.772   0.749   0.590  0.5659  1.1682  1.5383
  489SOL     MW 1956   0.760   0.765   0.506  0.2237  0.4143  0.1018
  490SOL     OW 1957   1.410   2.089   0.405  0.2028  0.5651 -0.2897
  490SOL    HW1 1958   1.470   2.161   0.378  0.0867  0.8749  0.6288
  490SOL    HW2 1959   1.325   2.127   0.389 -0.8335 -0.6592  0.5800
  490SOL     MW 1960   1.406   2.103   0.399  0.0508  0.4444 -0.0538
  491SOL     OW 1961   1.242   2.954   0.387  0.0926 -0.4989 -0.1735
  491SOL    HW1 1962   1.273   2.968   0.475 -1.2056 -1.5313 -0.5514
  491SOL    HW2 1963   1.174   3.022   0.373 -2.6883  1.3865  0.1820
  491SOL     MW 1964   1.237   2.965   0.397 -0.4456 -0.3864 -0.1764
  492SOL     OW 1965   1.453   2.137   0.700  0.6411  0.2160  0.1365
  492SOL    HW1 1966   1.429   2.094   0.620  0.3362 -0.4189 -0.4868
  492SOL    HW2 1967   1.411   2.070   0.757  0.6524 -1.5922 -0.0322
  492SOL     MW 1968   1.444   2.123   0.697  0.6024 -0.1064  0.0320
  493SOL     OW 1969   0.188   2.987   0.371 -0.7330 -0.3797 -0.3362
  493SOL    HW1 1970   0.126   3.049   0.416  0.1509  1.5794  0.1914
  493SOL    HW2 1971   0.175   3.013   0.274 -0.1051  3.1008  0.1079
  493SOL     MW 1972   0.178   2.999   0.364 -0.5335  0.3380 -0.2080
  494SOL     OW 1973   0.390   2.413   1.817 -0.1225 -0.0621 -0.0162
  494SOL    HW1 1974   0.405   2.313   1.831 -2.0987  1.0883 -0.7930
  494SOL    HW2 1975   0.433   2.438   1.737  2.7090  0.9148  0.4921
  494SOL     MW 1976   0.398   2.403   1.808 -0.0096  0.2186 -0.0517
  495SOL     OW 1977   2.910   1.653   2.725 -0.2328  0.0097  0.0025
  495SOL    HW1 1978   2.897   1.725   2.782  2.5597 -1.7108 -0.8741
  495SOL    HW2 1979   2.876   1.579   2.776 -2.8695 -0.8653 -1.7465
  495SOL     MW 1980   2.904   1.653   2.739 -0.2123 -0.3328 -0.3440
  496SOL     OW 1981   2.755   2.260   2.706  0.0423  0.1480 -0.3754
  496SOL    HW1 1982   2.784   2.167   2.704  1.5590 -0.9592  1.7948
  496SOL    HW2 1983   2.834   2.310   2.738  0.8251  1.7363  0.4481
  496SOL     MW 1984   2.769   2.254   2.710  0.3457  0.2115  0.0196
  497SOL     OW 1985   1.505   2.333   2.525 -0.1791 -0.0239 -0.2922
  497SOL    HW1 1986   1.499   2.268   2.446  0.2419 -1.7651 -2.6784
  497SOL    HW2 1987   1.502   2.274   2.600  1.0514 -0.7491  2.0896
  497SOL     MW 1988   1.504   2.317   2.524  0.0388 -0.3493 -0.2928
  498SOL     OW 1989   1.538   2.793   2.268  0.3633 -0.4087 -0.3002
  498SOL    HW1 1990   1.533   2.700   2.244  1.0914  0.2366 -0.7175
  498SOL    HW2 1991   1.607   2.801   2.340  1.0098 -1.6268  1.7735
  498SOL     MW 1992   1.546   2.781   2.274  0.5447 -0.4843 -0.0817
  499SOL     OW 1993   0.926   0.148   0.038 -0.3774  0.1604 -0.6699
  499SOL    HW1 1994   0.854   0.159   0.097  1.4891 -0.2151 -0.1428
  499SOL    HW2 1995   0.917   0.055   0.020  2.9254  0.0714 -2.9953
  499SOL     MW 1996   0.916   0.137   0.044  0.3046  0.0991 -0.9072
  500SOL     OW 1997   1.038   2.484   2.768  0.0768 -0.6550  0.0676
  500SOL    HW1 1998   1.061   2.442   2.853 -1.0670 -1.1140  0.9023
  500SOL    HW2 1999   0.974   2.559   2.784  1.9266  1.1028  0.9911
  500SOL     MW 2000   1.033   2.489   2.781  0.1700 -0.4836  0.2996
  501SOL     OW 2001   1.726   2.211   0.019  0.4004 -0.2806  0.1730
  501SOL    HW1 2002   1.710   2.308   0.031 -0.3478 -0.0708 -1.8150
  501SOL    HW2 2003   1.822   2.209   0.035  0.3320  0.5256  0.3176
  501SOL     MW 2004   1.737   2.224   0.023  0.2927 -0.1465 -0.0702
  502SOL     OW 2005   0.176   2.721   2.968  0.0503  0.9352 -0.0159
  502SOL    HW1 2006   0.107   2.655   2.961  2.2653 -0.0759  0.1856
  502SOL    HW2 2007   0.170   2.776   2.891 -1.5157  0.8932  1.0159
  502SOL     MW 2008   0.166   2.720   2.957  0.1359  0.7963  0.1469
  503SOL     OW 2009   1.142   2.604   2.105  0.2180  0.0677 -0.4619
  503SOL    HW1 2010   1.212   2.581   2.047 -0.6929  2.8816 -0.8764
  503SOL    HW2 2011   1.079   2.639   2.043  1.9030  0.0575 -1.9880
  503SOL     MW 2012   1.143   2.605   2.089  0.3201  0.4376 -0.7179
  504SOL     OW 2013   0.089   2.620   2.097 -0.1328  0.5032 -0.6780
  504SOL    HW1 2014   0.169   2.578   2.076 -1.4048 -2.0395  0.7727
  504SOL    HW2 2015   0.049   2.561   2.160  0.1830 -0.7809  1.1208
  504SOL     MW 2016   0.094   2.607   2.103 -0.2590 -0.0017 -0.2493
  505SOL     OW 2017   1.631   2.668   2.703 -0.0955 -0.2540 -0.1242
  505SOL    HW1 2018   1.674   2.702   2.619  3.6990  2.0395 -1.7464
  505SOL    HW2 2019   1.576   2.735   2.741  1.8927 -2.3533  2.0233
  505SOL     MW 2020   1.629   2.681   2.697  0.6675 -0.2283 -0.0549
  506SOL     OW 2021   1.599   0.033   2.816  0.0813 -0.0105  0.5854
  506SOL    HW1 2022   1.602  -0.025   2.888 -1.9768  3.3221 -2.4056
  506SOL    HW2 2023   1.672   0.012   2.756  2.3466 -0.2216  1.2490
  506SOL     MW 2024   1.609   0.022   2.817  0.1086  0.4013  0.2783
  507SOL     OW 2025   0.875   2.691   2.843  0.1782 -0.1667 -0.0833
  507SOL    HW1 2026   0.862   2.770   2.793 -0.4294  0.5196  0.3136
  507SOL    HW2 2027   0.786   2.681   2.883  0.3009 -0.2303  2.6487
  507SOL     MW 2028   0.861   2.700   2.841  0.1142 -0.0845  0.3296
  508SOL     OW 2029   1.139   2.078   2.587  0.5316  0.4233 -0.5555
  508SOL    HW1 2030   1.227   2.102   2.627 -0.8199 -1.2116  0.5801
  508SOL    HW2 2031   1.067   2.119   2.640 -0.0289  2.3542 -0.5660
  508SOL     MW 2032   1.141   2.086   2.599  0.2794  0.4623 -0.4071
  509SOL     OW 2033   0.607   2.568   2.834 -0.3473  0.1201 -0.2040
  509SOL    HW1 2034   0.610   2.535   2.744  0.2012 -1.0326 -0.9951
  509SOL    HW2 2035   0.519   2.599   2.843 -1.4772  1.8118  3.5166
  509SOL     MW 2036   0.596   2.567   2.824 -0.4240  0.1912  0.1825
  510SOL     OW 2037   1.507   2.586   1.675 -0.6139  0.2453  0.2015
  510SOL    HW1 2038   1.540   2.675   1.643  1.4491  2.3011 -1.6899
  510SOL    HW2 2039   1.461   2.603   1.756  1.2000 -1.1804  0.3475
  510SOL     MW 2040   1.505   2.600   1.682 -0.1024  0.3284 -0.0288
  511SOL     OW 2041   0.324   2.539   2.525 -0.3060  0.5565  0.3170
  511SOL    HW1 2042   0.412   2.508   2.559  1.3002 -0.4365 -1.0259
  511SOL    HW2 2043   0.347   2.550   2.430 -1.2562 -0.7259  0.7219
  511SOL     MW 2044   0.339   2.537   2.517 -0.2195  0.2563  0.1932
  512SOL     OW 2045   1.040   1.999   2.858  0.1231  0.3355  0.2495
  512SOL    HW1 2046   0.973   2.057   2.893 -1.6416 -2.2031 -0.9585
  512SOL    HW2 2047   1.049   1.919   2.914 -1.3830  0.0606 -1.7887
  512SOL     MW 2048   1.032   1.996   2.870 -0.3085 -0.0357 -0.1788
  513SOL     OW 2049   1.601   2.531   2.160  0.8459 -0.1547  0.2123
  513SOL    HW1 2050   1.683   2.569   2.118 -1.7353 -2.7706  2.8199
  513SOL    HW2 2051   1.637   2.507   2.249  0.3318  1.0764 -1.3122
  513SOL     MW 2052   1.617   2.533   2.166  0.4375 -0.3374  0.3552
  514SOL     OW 2053   0.162   2.362   2.653 -0.0115 -0.3708  0.1973
  514SOL    HW1 2054   0.217   2.423   2.597 -1.7766  1.8931 -0.8405
  514SOL    HW2 2055   0.222   2.343   2.724 -1.8412  3.3783  1.6224
  514SOL     MW 2056   0.177   2.367   2.655 -0.4858  0.4226  0.2484
  515SOL     OW 2057   1.091   1.929   1.844 -0.6100  0.3505  0.2779
  515SOL    HW1 2058   1.065   2.027   1.842 -1.7363 -1.8895 -0.6192
  515SOL    HW2 2059   1.143   1.920   1.922  0.8655 -1.1736  1.2626
  515SOL     MW 2060   1.095   1.941   1.854 -0.5639 -0.1461  0.2894
  516SOL     OW 2061   1.367   2.546   2.942  0.8706 -0.2680  0.0290
  516SOL    HW1 2062   1.367   2.544   2.847  0.3668 -0.1996 -0.9961
  516SOL    HW2 2063   1.278   2.518   2.964 -1.9380  0.5972 -2.2224
  516SOL     MW 2064   1.355   2.542   2.933  0.4335 -0.1448 -0.4033
  517SOL     OW 2065   0.615   2.364   2.296  0.0486 -0.5745  0.1924
  517SOL    HW1 2066   0.556   2.436   2.327 -1.7429  1.7617 -2.5958
  517SOL    HW2 2067   0.561   2.312   2.239  0.4247  1.6085 -3.9652
  517SOL     MW 2068   0.600   2.366   2.293 -0.1382  0.0218 -0.7240
  518SOL     OW 2069   1.786   0.035   3.086  0.0714 -0.2449 -0.5483
  518SOL    HW1 2070   1.803   0.099   3.157  2.1993  0.6693  0.3614
  518SOL    HW2 2071   1.709  -0.022   3.091  1.4260 -3.0187  0.1616
  518SOL     MW 2072   1.778   0.036   3.096  0.5309 -0.4903 -0.3347
  519SOL     OW 2073   0.743   2.502   1.791 -0.2104  0.2335 -0.0311
  519SOL    HW1 2074   0.746   2.409   1.762  0.0571 -1.0932 -4.0330
  519SOL    HW2 2075   0.652   2.529   1.794 -1.2621  1.2695 -0.2797
  519SOL     MW 2076   0.731   2.494   1.788 -0.3138  0.1951 -0.5919
  520SOL     OW 2077   1.228   2.178   2.935 -0.5419  0.6793  0.2238
  520SOL    HW1 2078   1.178   2.098   2.905 -1.1186  1.3220  0.8997
  520SOL    HW2 2079   1.283   2.143   3.008 -1.3837 -0.0364 -0.9252
  520SOL     MW 2080   1.229   2.163   2.941 -0.7290  0.6697  0.1614
  521SOL     OW 2081   1.789   2.089   2.230 -0.4004 -0.2793 -0.2011
  521SOL    HW1 2082   1.770   2.068   2.140 -0.9804  0.8003  0.5728
  521SOL    HW2 2083   1.784   1.999   2.263  0.1307  1.1459 -1.5181
  521SOL     MW 2084   1.785   2.074   2.223 -0.4069  0.0512 -0.2727
  522SOL     OW 2085   2.888   2.538   2.245  0.1542 -0.0210  0.2778
  522SOL    HW1 2086   2.974   2.493   2.253  3.2174 -0.6391  1.3480
  522SOL    HW2 2087   2.907   2.637   2.238 -0.2749 -1.8681  2.4187
  522SOL     MW 2088   2.902   2.545   2.245  0.5017 -0.3463  0.7014
  523SOL     OW 2089   0.842   1.519   2.145  0.6511 -0.1559 -0.0326
  523SOL    HW1 2090   0.824   1.575   2.072 -1.3646 -0.7514 -0.0098
  523SOL    HW2 2091   0.923   1.469   2.129  2.5928  1.0670  0.7600
  523SOL     MW 2092   0.851   1.520   2.134  0.6413 -0.0731  0.0750
  524SOL     OW 2093   0.583   2.339   2.973 -0.3692 -0.1260  0.0416
  524SOL    HW1 2094   0.585   2.412   2.910 -1.8132 -1.5562 -2.9598
  524SOL    HW2 2095   0.675   2.295   2.977  2.3591  0.4464  0.4726
  524SOL     MW 2096   0.595   2.343   2.965 -0.1998 -0.2392 -0.2976
  525SOL     OW 2097   0.464   2.213   2.124  0.6369 -0.1925  0.1826
  525SOL    HW1 2098   0.447   2.142   2.182  0.9101 -3.4335  1.1819
  525SOL    HW2 2099   0.523   2.176   2.054  0.8405 -1.1077  2.2597
  525SOL     MW 2100   0.470   2.199   2.123  0.6998 -0.7408  0.5885
  526SOL     OW 2101   0.708   2.163   1.977 -0.3342 -0.2316 -0.4615
  526SOL    HW1 2102   0.716   2.187   1.891 -0.4342 -0.9465  1.8826
  526SOL    HW2 2103   0.796   2.168   2.020 -3.4773 -0.8881 -0.0613
  526SOL     MW 2104   0.721   2.167   1.971 -0.7621 -0.4125 -0.0994
  527SOL     OW 2105   1.279   1.901   2.052  0.4149  0.1969  0.5208
  527SOL    HW1 2106   1.236   1.842   2.114 -0.5458  0.4676 -1.1758
  527SOL    HW2 2107   1.323   1.838   2.001 -0.8926  2.1183 -0.3601
  527SOL     MW 2108   1.279   1.885   2.053  0.1156  0.4861  0.1807
  528SOL     OW 2109   0.668   2.914   2.937  0.0190  0.4824 -0.3199
  528SOL    HW1 2110   0.658   3.009   2.958  0.9607  0.3481 -0.4136
  528SOL    HW2 2111   0.642   2.904   2.844 -1.8258 -5.6795 -0.8152
  528SOL     MW 2112   0.663   2.925   2.927 -0.1002 -0.3483 -0.3976
  529SOL     OW 2113   1.016   2.221   1.843 -0.7988  0.7032  0.4457
  529SOL    HW1 2114   1.076   2.219   1.919  0.2154 -3.0919  0.4794
  529SOL    HW2 2115   1.028   2.308   1.805 -0.0462  0.0821  1.1975
  529SOL     MW 2116   1.026   2.232   1.848 -0.5657  0.1205  0.5493
  530SOL     OW 2117   1.134   2.421   3.005 -0.5896  0.1071  0.1847
  530SOL    HW1 2118   1.078   2.434   3.076  1.5030 -0.9643 -2.2472
  530SOL    HW2 2119   1.146   2.328   2.990 -0.0928  2.2700  0.1555
  530SOL     MW 2120   1.128   2.411   3.012 -0.2480  0.2511 -0.1400
  531SOL     OW 2121   0.924   1.853   2.657 -0.5008  0.4753 -0.1325
  531SOL    HW1 2122   0.974   1.890   2.728 -0.7052  0.5086 -0.9421
  531SOL    HW2 2123   0.863   1.802   2.702  2.6123 -1.7238  1.7053
  531SOL     MW 2124   0.923   1.851   2.672 -0.1170  0.1895  0.0032
  532SOL     OW 2125   1.692   0.294   2.845  0.4430 -0.4273 -0.3666
  532SOL    HW1 2126   1.662   0.201   2.868 -0.8166 -2.0652  0.2946
  532SOL    HW2 2127   1.768   0.317   2.900 -1.2290 -0.4650  1.1531
  532SOL     MW 2128   1.698   0.285   2.855  0.0562 -0.6484 -0.0789
  533SOL     OW 2129   1.767   2.705   2.975 -0.1967  0.1010  0.2436
  533SOL    HW1 2130   1.733   2.622   3.022 -0.1662 -0.4311  2.4063
  533SOL    HW2 2131   1.745   2.682   2.882 -0.0490  0.5722 -1.5385
  533SOL     MW 2132   1.760   2.691   2.969 -0.1732  0.0930  0.2938
  534SOL     OW 2133   1.724   2.460   2.451  0.0707 -0.1797 -0.7641
  534SOL    HW1 2134   1.643   2.422   2.481 -1.2508 -0.9353 -0.5784
  534SOL    HW2 2135   1.786   2.467   2.526 -0.7280  0.8538 -1.1070
  534SOL     MW 2136   1.721   2.456   2.464 -0.2091 -0.1431 -0.7848
  535SOL     OW 2137   1.837   2.330   1.912  0.5006  0.2301  0.0676
  535SOL    HW1 2138   1.809   2.363   1.823  1.2910  0.9104  2.0585
  535SOL    HW2 2139   1.930   2.317   1.906 -0.1355 -2.6645  1.8175
  535SOL     MW 2140   1.845   2.333   1.899  0.5210 -0.0620  0.5611
  536SOL     OW 2141   0.456   1.821   2.015  0.3053  0.0006  0.1426
  536SOL    HW1 2142   0.479   1.838   1.927 -1.7977 -3.3240 -0.5550
  536SOL    HW2 2143   0.521   1.872   2.067  1.1176  0.2868  2.0679
  536SOL     MW 2144   0.468   1.830   2.010  0.1350 -0.4003  0.3046
  537SOL     OW 2145   1.079   0.216   2.922 -0.4087  0.2988 -0.1536
  537SOL    HW1 2146   1.002   0.193   2.979  1.6477 -1.3765 -0.7878
  537SOL    HW2 2147   1.072   0.315   2.925 -0.0954  3.3488  1.6276
  537SOL     MW 2148   1.068   0.226   2.930 -0.0961  0.4802 -0.0022
  538SOL     OW 2149   1.285   0.052   2.975  0.3400 -0.6630 -0.0509
  538SOL    HW1 2150   1.208   0.115   2.960  0.1432  0.6311 -0.2433
  538SOL    HW2 2151   1.359   0.101   2.936 -0.7734 -1.0942 -0.3183
  538SOL     MW 2152   1.285   0.067   2.968  0.1671 -0.5491 -0.1116
  539SOL     OW 2153   0.747   2.674   2.511  0.3418 -0.5900 -0.3987
  539SOL    HW1 2154   0.820   2.730   2.520 -2.3338  0.3542 -0.1260
  539SOL    HW2 2155   0.793   2.596   2.523  0.8621  0.3976  1.3949
  539SOL     MW 2156   0.763   2.671   2.513  0.0575 -0.3351 -0.1261
  540SOL     OW 2157   0.321   2.259   2.879  0.4897 -0.0661 -0.1120
  540SOL    HW1 2158   0.401   2.287   2.919 -2.5955  2.6506 -0.5400
  540SOL    HW2 2159   0.280   2.234   2.960  0.2568  0.8904  0.0033
  540SOL     MW 2160   0.326   2.259   2.895  0.0519  0.4185 -0.1532
  541SOL     OW 2161   0.153   2.855   2.220 -0.2484  0.1682 -0.2069
  541SOL    HW1 2162   0.129   2.790   2.154 -1.3686  0.6241 -0.5044
  541SOL    HW2 2163   0.186   2.806   2.295  2.3100  0.8293  0.1994
  541SOL     MW 2164   0.154   2.840   2.221 -0.0587  0.3156 -0.1925
  542SOL     OW 2165   0.928   2.251   2.677  0.4066 -0.1942 -0.3733
  542SOL    HW1 2166   0.889   2.195   2.746  0.1801 -4.1391  2.3772
  542SOL    HW2 2167   0.966   2.330   2.723  0.5113 -0.4179  1.1422
  542SOL     MW 2168   0.928   2.254   2.693  0.3905 -0.7442  0.1896
  543SOL     OW 2169   1.375   2.549   2.652  0.0412 -0.2009  0.2280
  543SOL    HW1 2170   1.389   2.471   2.590 -0.9275 -0.6387 -0.9932
  543SOL    HW2 2171   1.467   2.574   2.668  0.4906  2.4885 -0.4614
  543SOL     MW 2172   1.389   2.542   2.646 -0.0273  0.0962 -0.0241
  544SOL     OW 2173   0.631   0.192   2.728 -0.7480  0.5010  0.1092
  544SOL    HW1 2174   0.537   0.190   2.720 -4.2632 -1.2775 -1.8979
  544SOL    HW2 2175   0.670   0.162   2.645  2.2077  1.7791 -0.2121
  544SOL     MW 2176   0.624   0.188   2.716 -0.8218  0.4350 -0.1980
  545SOL     OW 2177   1.537   2.145   2.319 -0.1678 -0.1291 -0.3590
  545SOL    HW1 2178   1.478   2.148   2.243  2.5355 -3.3687  0.0738
  545SOL    HW2 2179   1.626   2.130   2.283 -2.7743  1.7647 -4.4221
  545SOL     MW 2180   1.541   2.143   2.304 -0.1550 -0.3067 -0.8380
  546SOL     OW 2181   3.006   1.991   0.104 -0.1634  0.2474  0.4286
  546SOL    HW1 2182   3.019   2.062   0.047 -1.8286 -1.8961  2.1350
  546SOL    HW2 2183   3.091   1.952   0.113  0.0446  0.9479  0.2010
  546SOL     MW 2184   3.019   1.995   0.098 -0.3557  0.0570  0.6237
  547SOL     OW 2185   0.180   3.016   0.118  0.4195 -0.0889  0.7514
  547SOL    HW1 2186   0.229   3.072   0.059  1.4229 -1.9035 -1.5870
  547SOL    HW2 2187   0.225   2.928   0.112  1.7085 -0.9834 -0.0586
  547SOL     MW 2188   0.193   3.012   0.110  0.7220 -0.4463  0.3360
  548SOL     OW 2189   0.302   2.504   0.271  0.4529  0.8500  0.1250
  548SOL    HW1 2190   0.269   2.577   0.216  0.9974  1.8488  0.5724
  548SOL    HW2 2191   0.246   2.428   0.238 -1.7100  1.3632 -2.3302
  548SOL     MW 2192   0.291   2.504   0.260  0.2393  1.0495 -0.1399
  549SOL     OW 2193   0.699   1.908   2.091 -0.4039 -0.1297 -0.6301
  549SOL    HW1 2194   0.718   1.992   2.055 -1.1851  0.3193 -2.8641
  549SOL    HW2 2195   0.754   1.898   2.164  0.5166  1.0152 -1.7206
  549SOL     MW 2196   0.709   1.918   2.096 -0.3855  0.0806 -1.0688
  550SOL     OW 2197   1.824   1.755   2.586  0.2895 -0.0123 -0.0043
  550SOL    HW1 2198   1.817   1.786   2.495 -1.2216 -0.5926 -0.1710
  550SOL    HW2 2199   1.842   1.831   2.644  0.3036  0.7953 -1.1175
  550SOL     MW 2200   1.826   1.769   2.582  0.0920  0.0177 -0.1732
  551SOL     OW 2201   0.860   2.339   0.208  0.0891  0.3360 -0.1020
  551SOL    HW1 2202   0.951   2.377   0.197  2.9145  0.6353  2.0236
  551SOL    HW2 2203   0.864   2.242   0.191 -2.0208 -1.0007 -1.1647
  551SOL     MW 2204   0.872   2.331   0.204  0.1835  0.1991  0.0382
  552SOL     OW 2205   1.775   1.815   2.286 -0.3298 -0.2739 -0.4067
  552SOL    HW1 2206   1.676   1.807   2.277 -3.2431 -1.6381 -2.4043
  552SOL    HW2 2207   1.816   1.771   2.205 -0.8029  2.5587  3.2104
  552SOL     MW 2208   1.768   1.808   2.274 -0.7766 -0.0802 -0.1930
  553SOL     OW 2209   1.231   2.320   1.528  0.8403 -0.0773 -0.1914
  553SOL    HW1 2210   1.249   2.228   1.518  0.8825  2.1097 -1.0654
  553SOL    HW2 2211   1.297   2.365   1.482  0.4659 -2.6435 -0.9325
  553SOL     MW 2212   1.242   2.314   1.521  0.7965 -0.1273 -0.4045
  554SOL     OW 2213   0.567   2.853   2.664  0.1450  0.3223 -0.4873
  554SOL    HW1 2214   0.545   2.915   2.597 -0.0028  2.7477 -0.0820
  554SOL    HW2 2215   0.608   2.782   2.623  1.5515 -1.0634  0.3751
  554SOL     MW 2216   0.570   2.852   2.650  0.3111  0.4595 -0.3201
  555SOL     OW 2217   0.572   2.423   2.580  0.1936  0.4472  0.1550
  555SOL    HW1 2218   0.564   2.342   2.631 -1.9494  1.6672 -3.2509
  555SOL    HW2 2219   0.659   2.431   2.528  2.0332  2.9732 -1.7620
  555SOL     MW 2220   0.582   2.413   2.580  0.1536  0.9414 -0.5473
  556SOL     OW 2221   0.981   1.807   0.144 -0.2790 -0.0274  0.4987
  556SOL    HW1 2222   0.991   1.775   0.056 -0.3707  0.1549  1.4821
  556SOL    HW2 2223   1.074   1.827   0.170 -0.3492  0.3970 -0.1578
  556SOL     MW 2224   0.995   1.806   0.136 -0.3004  0.0527  0.5418
  557SOL     OW 2225   0.896   2.691   0.454 -0.4939  0.5112  0.4507
  557SOL    HW1 2226   0.968   2.667   0.394  0.7428  3.0562 -1.8197
  557SOL    HW2 2227   0.866   2.777   0.437  0.9837 -1.7272  0.1239
  557SOL     MW 2228   0.901   2.699   0.444 -0.1358  0.5516  0.1080
  558SOL     OW 2229   0.267   2.185   0.025  0.0773  0.0164  0.6322
  558SOL    HW1 2230   0.270   2.086   0.040  0.3493 -1.3220 -0.4441
  558SOL    HW2 2231   0.200   2.235   0.079 -2.0636  0.8920  0.7978
  558SOL     MW 2232   0.258   2.179   0.034 -0.1693 -0.0447  0.5121
  559SOL     OW 2233   1.190   2.324   2.106 -0.0048 -0.3436  0.5050
  559SOL    HW1 2234   1.157   2.410   2.113 -0.1902 -0.5486  3.0070
  559SOL    HW2 2235   1.181   2.283   2.188 -1.0891  1.0453 -1.4285
  559SOL     MW 2236   1.184   2.330   2.118 -0.1724 -0.1874  0.5800
  560SOL     OW 2237   1.994   2.793   0.037 -0.3000 -0.2436  0.8334
  560SOL    HW1 2238   2.044   2.855  -0.011 -2.7846 -1.1117  2.8960
  560SOL    HW2 2239   1.917   2.772  -0.018 -0.5996 -0.1359 -1.2307
  560SOL     MW 2240   1.991   2.798   0.023 -0.6674 -0.3439  0.8332
  561SOL     OW 2241   0.440   2.083   0.221  0.1235 -0.0274  0.3857
  561SOL    HW1 2242   0.414   2.145   0.147 -2.6874  2.8995 -2.0074
  561SOL    HW2 2243   0.491   2.144   0.274  2.1884  2.8573  0.2684
  561SOL     MW 2244   0.443   2.099   0.218  0.0251  0.7394  0.0545
  562SOL     OW 2245   0.903   2.178   2.165  0.0495  0.4516  0.4564
  562SOL    HW1 2246   0.879   2.266   2.178  0.9021 -0.7085 -0.9227
  562SOL    HW2 2247   0.981   2.152   2.221 -0.6029  1.3391 -2.6289
  562SOL     MW 2248   0.910   2.186   2.174  0.0759  0.4156 -0.1327
  563SOL     OW 2249   1.222   0.283   0.571 -0.3709  0.7077  0.2389
  563SOL    HW1 2250   1.198   0.284   0.476 -1.5434  0.1910 -1.2359
  563SOL    HW2 2251   1.244   0.189   0.584  0.3590 -0.2732  1.2802
  563SOL     MW 2252   1.221   0.271   0.560 -0.4293  0.5101  0.1817
  564SOL     OW 2253   1.087   2.558   2.379  0.3889 -0.1673 -0.2508
  564SOL    HW1 2254   1.124   2.588   2.293  2.1693  0.6199 -0.0287
  564SOL    HW2 2255   1.147   2.608   2.438  3.1490  1.0892 -1.1057
  564SOL     MW 2256   1.100   2.569   2.376  0.9880  0.1024 -0.3343
  565SOL     OW 2257   2.892   2.685   2.572 -0.5302  0.2128 -0.5379
  565SOL    HW1 2258   2.968   2.728   2.532 -1.4608  0.9108 -1.6141
  565SOL    HW2 2259   2.827   2.672   2.510  3.2869  1.0846  2.7830
  565SOL     MW 2260   2.893   2.689   2.559 -0.1494  0.4200 -0.2418
  566SOL     OW 2261   2.258   1.901   2.365  0.1496 -0.2478  0.3306
  566SOL    HW1 2262   2.267   1.898   2.268 -0.1416 -0.7354 -0.4130
  566SOL    HW2 2263   2.292   1.990   2.386  2.7073  0.5315  0.0244
  566SOL     MW 2264   2.263   1.913   2.355  0.4486 -0.2093  0.1921
  567SOL     OW 2265   1.161   2.875   0.048 -0.4207  0.5339  0.1293
  567SOL    HW1 2266   1.212   2.954   0.050 -3.0807 -0.2689  1.4254
  567SOL    HW2 2267   1.161   2.859  -0.048 -0.1155 -0.5520 -0.1586
  567SOL     MW 2268   1.167   2.883   0.036 -0.7314  0.2847  0.2623
  568SOL     OW 2269   1.651   2.100   2.872  0.0247 -0.5966  1.0270
  568SOL    HW1 2270   1.668   2.136   2.960 -1.3480  1.9391 -0.3405
  568SOL    HW2 2271   1.721   2.048   2.839 -0.8296 -1.1923 -0.4979
  568SOL     MW 2272   1.662   2.098   2.879 -0.2691 -0.3406  0.6454
  569SOL     OW 2273   0.219   2.185   2.429  0.1118  0.3122  0.3297
  569SOL    HW1 2274   0.166   2.232   2.362  0.2207 -0.0167 -2.2606
  569SOL    HW2 2275   0.232   2.249   2.498 -0.5304 -0.7314 -2.3088
  569SOL     MW 2276   0.214   2.199   2.429  0.0414  0.1311 -0.3602
  570SOL     OW 2277   1.444   0.418   0.519  0.4743  0.7854  0.0763
  570SOL    HW1 2278   1.379   0.370   0.572  1.0012  3.5329  0.3421
  570SOL    HW2 2279   1.521   0.430   0.583  0.3076 -0.4766  2.0992
  570SOL     MW 2280   1.445   0.413   0.534  0.5219  0.9814  0.3783
  571SOL     OW 2281   1.484   2.397   1.937 -0.0241 -0.2110  0.9082
  571SOL    HW1 2282   1.545   2.418   2.012  3.4486 -2.6623 -0.7819
  571SOL    HW2 2283   1.455   2.307   1.952 -1.5882 -0.1065  0.7859
  571SOL     MW 2284   1.488   2.388   1.949  0.2277 -0.5206  0.6691
  572SOL     OW 2285   0.938   2.663   0.070 -0.1173  0.4955  0.6078
  572SOL    HW1 2286   0.944   2.674  -0.025  1.1002  1.9354 -0.1642
  572SOL    HW2 2287   0.846   2.637   0.079  1.7038  0.8886 -1.0694
  572SOL     MW 2288   0.927   2.661   0.059  0.2836  0.7374  0.2846
  573SOL     OW 2289   1.142   2.406   0.183  0.3268 -0.4185  0.3549
  573SOL    HW1 2290   1.210   2.410   0.124 -1.9326  2.5553  3.7817
  573SOL    HW2 2291   1.137   2.494   0.219 -1.8483  0.1023  0.4307
  573SOL     MW 2292   1.150   2.418   0.180 -0.2583  0.0425  0.8170
  574SOL     OW 2293   1.113   2.650   0.290 -0.6227 -0.9316 -0.0696
  574SOL    HW1 2294   1.194   2.699   0.299  2.2133  0.4345 -2.1455
  574SOL    HW2 2295   1.066   2.687   0.214  1.7560 -0.1916  1.6787
  574SOL     MW 2296   1.117   2.661   0.281  0.0654 -0.6537 -0.1128
  575SOL     OW 2297   3.068   2.278   1.813  0.2560 -0.0731 -0.6192
  575SOL    HW1 2298   3.064   2.191   1.765  0.6887  0.8125 -0.7674
  575SOL    HW2 2299   3.140   2.334   1.777  0.3740  0.9679  1.1549
  575SOL     MW 2300   3.077   2.274   1.802  0.3287  0.1811 -0.4047
  576SOL     OW 2301   2.822   1.831   2.052  0.3562 -0.0424 -0.2210
  576SOL    HW1 2302   2.868   1.900   2.012  1.4271 -1.9214  2.5841
  576SOL    HW2 2303   2.745   1.799   2.005 -0.3796  0.2414 -0.5880
  576SOL     MW 2304   2.818   1.836   2.040  0.4004 -0.2529  0.1007
  577SOL     OW 2305   2.079   0.313   0.045  0.0757  0.1956  0.0112
  577SOL    HW1 2306   2.025   0.357  -0.023 -0.2779 -1.3430 -0.2679
  577SOL    HW2 2307   2.012   0.292   0.118 -0.3288 -0.0917  2.5247
  577SOL     MW 2308   2.063   0.316   0.046 -0.0243 -0.0453  0.3060
  578SOL     OW 2309   2.025   2.033   2.424 -0.6972 -0.1696  0.5469
  578SOL    HW1 2310   1.969   2.057   2.344  0.5407 -1.4182 -0.9738
  578SOL    HW2 2311   2.102   1.982   2.389 -1.1055 -1.9876  0.3104
  578SOL     MW 2312   2.028   2.029   2.408 -0.5877 -0.5742  0.3151
  579SOL     OW 2313   0.855   2.421   2.471 -0.2142  0.2930  0.6173
  579SOL    HW1 2314   0.872   2.373   2.555  1.1897  0.8726  0.7132
  579SOL    HW2 2315   0.942   2.453   2.437  0.9965  0.2264 -0.1357
  579SOL     MW 2316   0.869   2.419   2.478  0.1308  0.3607  0.5306
  580SOL     OW 2317   0.865   2.980   0.013 -0.5417 -0.0709  0.2882
  580SOL    HW1 2318   0.930   2.912   0.041  2.6519 -3.8585  1.0206
  580SOL    HW2 2319   0.823   2.949  -0.069  1.6032 -0.5088  0.3303
  580SOL     MW 2320   0.868   2.967   0.006  0.1627 -0.6284  0.3904
  581SOL     OW 2321   1.057   2.444   1.703 -0.1543 -0.7205  0.5672
  581SOL    HW1 2322   1.107   2.497   1.769  1.1624  3.3510 -3.7536
  581SOL    HW2 2323   1.129   2.412   1.651 -1.5715  0.4571  1.4072
  581SOL     MW 2324   1.073   2.446   1.705 -0.1676 -0.0279  0.1079
  582SOL     OW 2325   0.001   2.824   2.477 -0.4750 -0.5865  0.1572
  582SOL    HW1 2326  -0.029   2.892   2.543 -1.4044  0.8801  1.1536
  582SOL    HW2 2327   0.090   2.799   2.515 -2.0243  1.1594  2.2903
  582SOL     MW 2328   0.009   2.830   2.491 -0.8021 -0.1626  0.5701
  583SOL     OW 2329   1.929   2.450   2.641  0.1321 -0.0418 -0.1135
  583SOL    HW1 2330   1.981   2.447   2.563  0.3102  0.5031  1.5175
  583SOL    HW2 2331   1.962   2.370   2.683  0.4287 -2.0713  1.4106
  583SOL     MW 2332   1.941   2.439   2.637  0.1947 -0.2377  0.3028
  584SOL     OW 2333   0.199   1.899   2.089  0.2007  0.2256 -0.1366
  584SOL    HW1 2334   0.282   1.861   2.062  1.6205  1.1733 -2.3315
  584SOL    HW2 2335   0.225   1.972   2.139 -0.4082 -0.5014  0.1737
  584SOL     MW 2336   0.214   1.904   2.092  0.3077  0.2547 -0.3852
  585SOL     OW 2337   1.484   2.658   0.082  0.5176  0.2853 -0.2521
  585SOL    HW1 2338   1.429   2.657   0.008  1.2710  2.1363 -1.8942
  585SOL    HW2 2339   1.433   2.664   0.159 -3.3755  1.2933 -0.7024
  585SOL     MW 2340   1.470   2.659   0.082  0.1034  0.6625 -0.5282
  586SOL     OW 2341   1.296   2.889   2.395  1.0091 -1.4716 -0.4807
  586SOL    HW1 2342   1.374   2.867   2.345  0.3936 -0.0506  0.0791
  586SOL    HW2 2343   1.311   2.964   2.452  0.7322 -0.1921  2.8222
  586SOL     MW 2344   1.308   2.896   2.396  0.8914 -1.1153  0.0290
  587SOL     OW 2345   1.267   1.615   2.111  0.1781 -0.4308 -0.4420
  587SOL    HW1 2346   1.254   1.550   2.184  1.2301 -0.3373  1.0341
  587SOL    HW2 2347   1.271   1.568   2.031  2.1138 -0.0667  3.3195
  587SOL     MW 2348   1.266   1.601   2.110  0.5723 -0.3704  0.2490
  588SOL     OW 2349   1.414   2.161   2.737  0.0614  0.4258 -0.1710
  588SOL    HW1 2350   1.497   2.138   2.783  0.1232 -2.4278 -0.5456
  588SOL    HW2 2351   1.364   2.208   2.808 -0.4328 -1.2459 -1.7783
  588SOL     MW 2352   1.418   2.164   2.753  0.0044 -0.1713 -0.4325
  589SOL     OW 2353   1.364   2.095   0.069  0.1521  0.1988 -0.0996
  589SOL    HW1 2354   1.387   2.184   0.103  2.2245 -0.7995 -0.1477
  589SOL    HW2 2355   1.301   2.057   0.131  1.0358  1.2334  0.3398
  589SOL     MW 2356   1.359   2.102   0.081  0.5421  0.2036 -0.0480
  590SOL     OW 2357   0.409   2.582   2.262  0.6798  0.3183  0.0152
  590SOL    HW1 2358   0.365   2.588   2.175  0.2129 -3.6540 -0.2084
  590SOL    HW2 2359   0.482   2.645   2.256 -0.1036  0.7872  0.9190
  590SOL     MW 2360   0.413   2.591   2.250  0.5148 -0.1439  0.1049
  591SOL     OW 2361   2.291   0.709   0.025  0.0648 -0.1266 -0.0266
  591SOL    HW1 2362   2.224   0.767  -0.016 -1.1423 -0.1553 -0.1039
  591SOL    HW2 2363   2.376   0.730  -0.018 -2.7564 -1.2540 -0.3737
  591SOL     MW 2364   2.293   0.719   0.014 -0.4667 -0.2791 -0.0826
  592SOL     OW 2365   1.874   3.041   0.812  0.1810  0.1525 -0.2514
  592SOL    HW1 2366   1.889   3.074   0.723  0.3116 -1.0273 -2.0870
  592SOL    HW2 2367   1.898   2.950   0.793 -0.1701 -0.7684 -1.3153
  592SOL     MW 2368   1.879   3.034   0.798  0.1519 -0.1247 -0.6340
  593SOL     OW 2369   1.896   0.755   0.845 -0.4227 -0.0276  0.3539
  593SOL    HW1 2370   1.812   0.742   0.798  1.7281  0.7114 -1.1775
  593SOL    HW2 2371   1.921   0.664   0.862  0.5496 -1.6012 -0.7616
  593SOL     MW 2372   1.888   0.742   0.841 -0.0106 -0.1377  0.0046
  594SOL     OW 2373   2.730   1.129   1.407 -0.1447 -0.1034 -0.1615
  594SOL    HW1 2374   2.821   1.159   1.426 -0.3867  0.1450 -1.3721
  594SOL    HW2 2375   2.729   1.101   1.318  2.6751  0.8028  1.2142
  594SOL     MW 2376   2.742   1.130   1.398  0.1954  0.0490 -0.1397
  595SOL     OW 2377   0.470   0.951   0.669  0.6171  0.0494 -0.0014
  595SOL    HW1 2378   0.500   1.033   0.624  2.8726  0.4059 -0.3088
  595SOL    HW2 2379   0.459   0.976   0.764 -1.2241  1.3738 -0.1282
  595SOL     MW 2380   0.473   0.965   0.676  0.6718  0.2712 -0.0587
  596SOL     OW 2381   2.440   1.383   0.560  0.3332  0.3102 -0.3503
  596SOL    HW1 2382   2.480   1.451   0.510 -1.1511 -0.5276  2.5973
  596SOL    HW2 2383   2.507   1.360   0.624  1.4481  1.4107 -0.4220
  596SOL     MW 2384   2.454   1.389   0.562  0.2845  0.3449  0.0291
  597SOL     OW 2385   2.196   0.679   1.685  0.5215 -0.2399 -0.5689
  597SOL    HW1 2386   2.248   0.602   1.717 -0.4883  1.8663 -0.9555
  597SOL    HW2 2387   2.118   0.638   1.635 -0.7824 -1.4263  0.7590
  597SOL     MW 2388   2.192   0.664   1.683  0.2162 -0.1185 -0.4447
  598SOL     OW 2389   2.608   1.014   2.862  0.9625 -0.5107 -0.6584
  598SOL    HW1 2390   2.648   0.992   2.781 -3.0119  0.5062  0.8073
  598SOL    HW2 2391   2.667   1.058   2.925 -0.3143  2.4966 -0.0172
  598SOL     MW 2392   2.621   1.017   2.860  0.2697  0.0202 -0.3804
  599SOL     OW 2393   2.911   0.330   2.075 -0.2420  0.2797  0.4627
  599SOL    HW1 2394   2.874   0.364   2.161  0.4330  0.1089 -1.1004
  599SOL    HW2 2395   2.938   0.411   2.021  1.4869  0.0487 -0.4556
  599SOL     MW 2396   2.910   0.345   2.079  0.0752  0.2267  0.1353
  600SOL     OW 2397   1.896   1.714   0.885  0.0586  0.2295 -0.1696
  600SOL    HW1 2398   1.898   1.735   0.977  1.5872 -0.4598  0.4559
  600SOL    HW2 2399   1.815   1.761   0.860 -0.1993  0.6379 -0.5392
  600SOL     MW 2400   1.886   1.723   0.894  0.2262  0.1924 -0.1358
  601SOL     OW 2401   2.508   0.809   0.821 -0.3861  0.2436 -0.2596
  601SOL    HW1 2402   2.512   0.814   0.919  1.2465 -1.8368 -1.3874
  601SOL    HW2 2403   2.485   0.714   0.799 -1.8741 -0.0572 -0.5482
  601SOL     MW 2404   2.505   0.797   0.831 -0.3670 -0.0706 -0.4464
  602SOL     OW 2405   2.325   1.940   0.769  0.2708  0.5878  0.9902
  602SOL    HW1 2406   2.276   1.871   0.826  1.0573  1.0475  2.8613
  602SOL    HW2 2407   2.251   1.989   0.728  2.3235 -0.3633  1.5481
  602SOL     MW 2408   2.309   1.938   0.771  0.6454  0.5230  1.3107
  603SOL     OW 2409   3.078   1.378   1.790  0.0472  0.3155 -0.0790
  603SOL    HW1 2410   3.113   1.412   1.876 -3.8448 -0.5952  3.7888
  603SOL    HW2 2411   3.064   1.280   1.798  2.1615  0.6710 -4.0097
  603SOL     MW 2412   3.081   1.370   1.802 -0.1874  0.2422 -0.0873
  604SOL     OW 2413   2.104   1.572   0.444 -0.3375 -0.2024  0.1484
  604SOL    HW1 2414   2.144   1.513   0.503  0.9048 -3.2739 -1.2775
  604SOL    HW2 2415   2.029   1.609   0.493  0.0612  2.5660 -2.0223
  604SOL     MW 2416   2.099   1.569   0.458 -0.1210 -0.2424 -0.3261
  605SOL     OW 2417   2.710   1.551   0.827  0.1094 -0.4618 -0.5198
  605SOL    HW1 2418   2.651   1.621   0.858 -0.1406 -0.4135  0.1815
  605SOL    HW2 2419   2.660   1.471   0.835  1.0210  2.1786  3.0025
  605SOL     MW 2420   2.695   1.549   0.832  0.1967 -0.1071  0.0375
  606SOL     OW 2421   2.569   1.787   1.837 -0.0629  0.2607 -0.5058
  606SOL    HW1 2422   2.476   1.789   1.864  0.7923 -0.1610  0.2971
  606SOL    HW2 2423   2.592   1.693   1.844  0.1057 -0.9482  0.9078
  606SOL     MW 2424   2.560   1.775   1.842  0.0722  0.0455 -0.2133
  607SOL     OW 2425   2.358   1.014   2.960  0.5527 -0.2409  0.1953
  607SOL    HW1 2426   2.448   1.015   2.913 -1.9926 -2.8517 -0.2072
  607SOL    HW2 2427   2.373   1.010   3.050  1.0597 -0.3613  0.3352
  607SOL     MW 2428   2.372   1.014   2.965  0.2838 -0.6012  0.1606
  608SOL     OW 2429   1.860   0.304   0.560 -0.2455 -0.6207  0.2295
  608SOL    HW1 2430   1.890   0.346   0.481  1.7010 -2.4266  0.3819
  608SOL    HW2 2431   1.851   0.210   0.531 -1.4561  2.1749  1.8687
  608SOL     MW 2432   1.863   0.297   0.546 -0.1484 -0.4901  0.4659
  609SOL     OW 2433   2.129   1.959   3.069 -0.2276  0.1375 -0.1655
  609SOL    HW1 2434   2.062   1.891   3.049 -1.2731  1.1102 -0.0192
  609SOL    HW2 2435   2.163   1.944   3.161 -2.0357  1.1682 -0.1966
  609SOL     MW 2436   2.125   1.948   3.078 -0.6041  0.4019 -0.1503
  610SOL     OW 2437   1.779   1.022   1.238 -0.9597 -0.4103 -0.0334
  610SOL    HW1 2438   1.802   0.944   1.183 -0.2792 -0.4407 -0.4413
  610SOL    HW2 2439   1.691   1.013   1.269 -2.2163 -2.0469 -2.1917
  610SOL     MW 2440   1.771   1.011   1.235 -1.0357 -0.6303 -0.3720
  611SOL     OW 2441   2.446   1.677   0.745  0.5480  0.0148 -0.4642
  611SOL    HW1 2442   2.396   1.753   0.731  0.6467  0.2543 -0.9361
  611SOL    HW2 2443   2.481   1.638   0.667 -1.6087  0.1931  1.3048
  611SOL     MW 2444   2.444   1.682   0.733  0.2764  0.0699 -0.2931
  612SOL     OW 2445   2.781   2.843   0.441  0.0438 -0.3373 -0.2759
  612SOL    HW1 2446   2.819   2.878   0.524 -2.2114  0.3117 -0.0885
  612SOL    HW2 2447   2.857   2.839   0.381  0.7762 -0.1293  1.5149
  612SOL     MW 2448   2.796   2.847   0.444 -0.1571 -0.2242 -0.0149
  613SOL     OW 2449   1.504   1.034   0.996 -0.2280 -0.2763 -0.6825
  613SOL    HW1 2450   1.527   1.125   1.009 -0.6986  0.1983  0.1915
  613SOL    HW2 2451   1.556   0.980   1.057  0.7985 -2.4713  0.8751
  613SOL     MW 2452   1.514   1.039   1.006 -0.1547 -0.5033 -0.3617
  614SOL     OW 2453   1.993   0.562   1.548 -0.6865  0.2221 -0.0483
  614SOL    HW1 2454   1.990   0.473   1.583 -1.1593  0.2167  2.9751
  614SOL    HW2 2455   2.004   0.544   1.454 -2.9549 -1.7232 -1.0183
  614SOL     MW 2456   1.994   0.548   1.540 -1.0482 -0.0353  0.2226
  615SOL     OW 2457   2.256   0.805   0.284  0.9030 -0.3241  0.6277
  615SOL    HW1 2458   2.319   0.768   0.343  0.0354 -1.6196 -1.7654
  615SOL    HW2 2459   2.274   0.757   0.206 -0.1439 -2.3563  2.3299
  615SOL     MW 2460   2.267   0.794   0.282  0.6504 -0.7631  0.5366
  616SOL     OW 2461   2.570   0.356   1.606 -0.3256  0.4435  0.0482
  616SOL    HW1 2462   2.497   0.310   1.560 -0.4239 -0.8469 -0.9090
  616SOL    HW2 2463   2.616   0.403   1.539 -3.5048  2.2749  0.2970
  616SOL     MW 2464   2.566   0.356   1.591 -0.7580  0.5149 -0.0453
  617SOL     OW 2465   2.850   0.537   1.684  0.6987 -0.2793  0.2502
  617SOL    HW1 2466   2.790   0.544   1.763 -1.8877  3.6697 -0.1613
  617SOL    HW2 2467   2.855   0.441   1.661  0.8061 -2.6138  4.4324
  617SOL     MW 2468   2.843   0.525   1.692  0.3716 -0.0663  0.7477
  618SOL     OW 2469   2.682   0.351   1.961 -0.4175 -0.5790  0.4189
  618SOL    HW1 2470   2.671   0.448   1.971 -2.5534 -0.5508  1.3525
  618SOL    HW2 2471   2.770   0.334   2.003  1.2356  0.2615 -0.1832
  618SOL     MW 2472   2.692   0.361   1.968 -0.4812 -0.4644  0.4626
  619SOL     OW 2473   2.633   0.726   0.141  0.1476  0.0328  0.2600
  619SOL    HW1 2474   2.703   0.791   0.150  1.0648 -0.6772  1.0817
  619SOL    HW2 2475   2.583   0.735   0.217 -0.6905 -3.5366 -2.9233
  619SOL     MW 2476   2.635   0.736   0.152  0.1581 -0.5318 -0.0516
  620SOL     OW 2477   2.335   1.062   0.995  0.1510 -0.2242  0.1356
  620SOL    HW1 2478   2.336   1.073   0.900  1.9395 -0.2727  1.4960
  620SOL    HW2 2479   2.289   0.981   1.013  0.8864 -0.1982 -1.7461
  620SOL     MW 2480   2.329   1.053   0.985  0.4840 -0.2271  0.0668
  621SOL     OW 2481   1.471   2.121   1.987  0.2063  0.7435  0.0300
  621SOL    HW1 2482   1.412   2.052   2.008 -1.3411 -1.9181  1.1427
  621SOL    HW2 2483   1.562   2.088   1.975  2.7454  2.5873 -0.0803
  621SOL     MW 2484   1.476   2.108   1.988  0.3371  0.6356  0.1622
  622SOL     OW 2485   2.654   0.174   0.260 -0.6689 -0.5545  0.2141
  622SOL    HW1 2486   2.741   0.218   0.241 -0.1741 -1.0144  2.4914
  622SOL    HW2 2487   2.661   0.085   0.296  0.4627  1.6627  2.8876
  622SOL     MW 2488   2.667   0.168   0.262 -0.4543 -0.3226  0.8673
  623SOL     OW 2489   2.311   2.733   0.908 -0.5147 -0.3613 -0.9111
  623SOL    HW1 2490   2.382   2.801   0.909  1.4046  0.8130  0.2656
  623SOL    HW2 2491   2.257   2.751   0.990  0.0861 -1.9760  0.6105
  623SOL     MW 2492   2.313   2.744   0.919 -0.1822 -0.4194 -0.5551
  624SOL     OW 2493   2.220   1.672   2.998 -0.0186 -0.2675 -0.5113
  624SOL    HW1 2494   2.158   1.632   3.057 -0.1251  0.1663  1.2740
  624SOL    HW2 2495   2.219   1.767   3.017  0.4229 -2.6321  1.1653
  624SOL     MW 2496   2.212   1.680   3.008  0.0256 -0.5223 -0.0545
  625SOL     OW 2497   2.183   1.995   1.115  0.7987  0.5706  0.5450
  625SOL    HW1 2498   2.263   1.947   1.130 -1.7571  0.2552 -0.3404
  625SOL    HW2 2499   2.210   2.057   1.046  1.3204  1.9471 -0.0947
  625SOL     MW 2500   2.197   1.997   1.108  0.5304  0.7106  0.3438
  626SOL     OW 2501   0.184   1.639   2.331  0.7222  0.1330  0.5019
  626SOL    HW1 2502   0.173   1.552   2.302  0.9868 -1.4646 -2.0525
  626SOL    HW2 2503   0.098   1.657   2.358  1.5965 -1.0094  0.8292
  626SOL     MW 2504   0.171   1.630   2.331  0.8724 -0.2285  0.2081
  627SOL     OW 2505   2.507   0.823   2.628 -0.0897  0.0701  0.1821
  627SOL    HW1 2506   2.444   0.897   2.631 -0.9598  0.5584  0.1189
  627SOL    HW2 2507   2.470   0.776   2.547 -1.5506  1.4054 -1.5685
  627SOL     MW 2508   2.494   0.827   2.618 -0.3973  0.3107 -0.0572
  628SOL     OW 2509   2.246   1.366   1.361 -0.1838  0.5056 -0.1413
  628SOL    HW1 2510   2.203   1.305   1.308 -1.0735 -1.6773  0.1466
  628SOL    HW2 2511   2.340   1.349   1.354 -1.1322  0.0383 -0.4864
  628SOL     MW 2512   2.253   1.356   1.353 -0.4263  0.1559 -0.1489
  629SOL     OW 2513   1.988   0.562   1.247 -0.5850  0.5277 -0.0599
  629SOL    HW1 2514   2.022   0.647   1.218 -0.6572  0.6477 -1.2797
  629SOL    HW2 2515   1.895   0.573   1.266 -0.9289 -1.3291 -0.1258
  629SOL     MW 2516   1.980   0.575   1.246 -0.6399  0.2985 -0.2295
  630SOL     OW 2517   2.482   1.844   3.050 -0.2818 -0.2203  0.4535
  630SOL    HW1 2518   2.468   1.920   2.996 -0.4222  0.5001  2.9997
  630SOL    HW2 2519   2.419   1.783   3.024 -2.3831 -1.3886  0.5370
  630SOL     MW 2520   2.472   1.846   3.040 -0.5776 -0.2794  0.8005
  631SOL     OW 2521   1.983   1.831   1.592  0.4648  0.3055 -0.3729
  631SOL    HW1 2522   2.002   1.744   1.626  1.1421  0.7060 -0.3152
  631SOL    HW2 2523   1.998   1.832   1.499 -1.1899  0.5918 -1.4810
  631SOL     MW 2524   1.987   1.820   1.584  0.3359  0.3961 -0.5115
  632SOL     OW 2525   0.098   2.082   1.491 -0.4715 -0.3432 -0.2963
  632SOL    HW1 2526   0.044   2.073   1.563  1.9990 -1.2098 -1.4615
  632SOL    HW2 2527   0.126   1.996   1.472 -0.8957  1.4430  3.4084
  632SOL     MW 2528   0.095   2.070   1.498 -0.2015 -0.2219  0.0387
  633SOL     OW 2529   2.485   0.682   0.382  0.8000 -0.2369 -0.4992
  633SOL    HW1 2530   2.538   0.691   0.462 -2.0558  1.0598  2.1092
  633SOL    HW2 2531   2.484   0.589   0.355  0.5086  0.7821  0.5958
  633SOL     MW 2532   2.492   0.671   0.389  0.3848  0.0686 -0.0106
  634SOL     OW 2533   2.633   3.065   0.692  0.6960 -0.8476 -0.4984
  634SOL    HW1 2534   2.690   3.143   0.674  1.7947  0.6331 -1.2897
  634SOL    HW2 2535   2.576   3.058   0.611 -2.4020  1.3616 -1.1012
  634SOL     MW 2536   2.633   3.075   0.679  0.4322 -0.3608 -0.6824
  635SOL     OW 2537   2.593   0.126   1.838  0.0330  0.0210 -0.0630
  635SOL    HW1 2538   2.659   0.068   1.789 -0.7883 -2.3353 -2.3675
  635SOL    HW2 2539   2.635   0.215   1.847  0.6321  0.5887 -2.0079
  635SOL     MW 2540   2.607   0.130   1.833  0.0037 -0.2150 -0.6236
  636SOL     OW 2541   2.909   1.758   1.010 -0.1970  0.1604  1.3587
  636SOL    HW1 2542   2.841   1.828   1.009 -0.1152  2.8944  3.2258
  636SOL    HW2 2543   2.968   1.787   1.080  1.3520 -0.9451  0.4363
  636SOL     MW 2544   2.908   1.771   1.019  0.0182  0.3753  1.4834
  637SOL     OW 2545   2.907   1.525   0.667 -0.6985  0.0051  0.1579
  637SOL    HW1 2546   2.959   1.607   0.670 -0.1694 -0.9491 -0.1203
  637SOL    HW2 2547   2.840   1.535   0.734  0.3464  1.5063 -0.3390
  637SOL     MW 2548   2.905   1.537   0.676 -0.4908  0.0773  0.0556
  638SOL     OW 2549   2.729   0.570   0.522  0.3303 -0.3827  0.4512
  638SOL    HW1 2550   2.805   0.585   0.461  0.0426 -0.4313  0.4700
  638SOL    HW2 2551   2.766   0.574   0.614 -0.8042  1.4685  0.5998
  638SOL     MW 2552   2.744   0.573   0.526  0.1427 -0.1449  0.4733
  639SOL     OW 2553   1.774   0.071   0.510  0.2250 -0.0316  0.2824
  639SOL    HW1 2554   1.682   0.092   0.502 -0.1141 -1.8526  1.0928
  639SOL    HW2 2555   1.790  -0.018   0.482 -1.2617 -0.2542  0.9532
  639SOL     MW 2556   1.764   0.062   0.505 -0.0159 -0.3013  0.4779
  640SOL     OW 2557   0.345   1.382   0.065  0.2667  0.2819 -0.2761
  640SOL    HW1 2558   0.334   1.361  -0.029 -2.7565  0.8062  0.7833
  640SOL    HW2 2559   0.288   1.316   0.099 -2.0486  0.9389  0.5861
  640SOL     MW 2560   0.336   1.371   0.057 -0.4376  0.4378 -0.0225
  641SOL     OW 2561   2.200   0.453   0.389 -0.2127  0.1436  0.1355
  641SOL    HW1 2562   2.241   0.455   0.306 -0.5109 -1.3443  2.1612
  641SOL    HW2 2563   2.268   0.426   0.445  0.1759  1.0541 -0.9647
  641SOL     MW 2564   2.214   0.449   0.385 -0.2007  0.0674  0.2576
  642SOL     OW 2565   0.035   3.096   0.586 -0.4806 -0.3171  0.5673
  642SOL    HW1 2566   0.000   3.173   0.539 -1.5552  1.6110  0.1680
  642SOL    HW2 2567  -0.034   3.054   0.631  0.5785  0.6740 -0.4818
  642SOL     MW 2568   0.021   3.101   0.586 -0.4827  0.0681  0.3762
  643SOL     OW 2569   2.079   0.342   1.707  0.4949  0.5700 -0.1147
  643SOL    HW1 2570   2.074   0.281   1.780 -0.1875 -1.4696 -1.3911
  643SOL    HW2 2571   2.062   0.275   1.637 -3.7445 -0.7140  1.7441
  643SOL     MW 2572   2.076   0.325   1.708 -0.1545  0.1314 -0.0378
  644SOL     OW 2573   2.721   1.946   1.069  0.0596  0.3175 -0.5524
  644SOL    HW1 2574   2.688   1.917   1.154 -2.2683 -0.7428  2.1231
  644SOL    HW2 2575   2.641   1.964   1.019 -0.3685  1.6156  1.0267
  644SOL     MW 2576   2.706   1.944   1.074 -0.3041  0.3489  0.0089
  645SOL     OW 2577   2.834   0.882   0.675 -0.0317  0.0235 -0.0590
  645SOL    HW1 2578   2.917   0.835   0.678 -0.7260  2.5391  0.9984
  645SOL    HW2 2579   2.778   0.821   0.723  0.6631  0.3462  1.3310
  645SOL     MW 2580   2.838   0.868   0.682 -0.0316  0.3980  0.2639
  646SOL     OW 2581   0.186   2.265   0.804 -0.8788  0.4309 -0.5215
  646SOL    HW1 2582   0.200   2.165   0.813 -0.3704 -2.4155 -0.0177
  646SOL    HW2 2583   0.105   2.283   0.749  1.1204  0.5331 -0.2524
  646SOL     MW 2584   0.177   2.254   0.798 -0.5479  0.0688 -0.4195
  647SOL     OW 2585   2.716   0.501   2.984  0.2929 -0.4369 -0.1124
  647SOL    HW1 2586   2.670   0.440   3.044  0.1479  0.2745 -2.3851
  647SOL    HW2 2587   2.669   0.590   2.988 -1.3746  3.0824  1.0627
  647SOL     MW 2588   2.704   0.505   2.992  0.0537  0.1213 -0.2572
  648SOL     OW 2589   2.134   0.750   1.122  0.0335 -0.0473 -0.5168
  648SOL    HW1 2590   2.134   0.770   1.026 -1.0476  0.7797 -0.0569
  648SOL    HW2 2591   2.172   0.823   1.166 -0.9535  2.4726  0.1265
  648SOL     MW 2592   2.139   0.762   1.115 -0.2393  0.3943 -0.3713
  649SOL     OW 2593   2.362   2.778   1.282 -0.6620  0.1049  0.4905
  649SOL    HW1 2594   2.446   2.827   1.285  0.1274 -0.6519 -0.2565
  649SOL    HW2 2595   2.378   2.687   1.259 -1.7978  0.6574 -0.9770
  649SOL     MW 2596   2.375   2.773   1.279 -0.7077  0.0779  0.1983
  650SOL     OW 2597   2.828   0.185   0.671  0.0700 -0.2285  0.0216
  650SOL    HW1 2598   2.877   0.261   0.696 -2.0336  0.6771  0.3127
  650SOL    HW2 2599   2.864   0.159   0.581  0.7188 -2.4012  0.0031
  650SOL     MW 2600   2.839   0.192   0.662 -0.1220 -0.3957  0.0576
  651SOL     OW 2601   2.982   0.407   0.792  0.1269  0.3885 -0.3749
  651SOL    HW1 2602   3.054   0.440   0.736 -0.6119 -2.4929  0.1272
  651SOL    HW2 2603   2.986   0.476   0.859  2.3181 -1.4279  0.4966
  651SOL     MW 2604   2.992   0.420   0.793  0.3185 -0.2313 -0.1937
  652SOL     OW 2605   2.400   1.496   3.027  0.9394  0.3812  0.2327
  652SOL    HW1 2606   2.451   1.486   2.950 -0.6972 -0.8626 -1.3930
  652SOL    HW2 2607   2.321   1.557   3.011  0.9142  0.1847 -0.1978
  652SOL     MW 2608   2.397   1.503   3.015  0.7201  0.1911 -0.0386
  653SOL     OW 2609   1.915   0.439   0.335  0.6526  0.2537  0.0334
  653SOL    HW1 2610   1.876   0.383   0.264 -0.6772 -0.7927 -0.2205
  653SOL    HW2 2611   2.003   0.447   0.304 -1.7291  1.6642 -0.7467
  653SOL     MW 2612   1.922   0.433   0.321  0.1629  0.3017 -0.1030
  654SOL     OW 2613   2.460   1.062   0.704  0.1755  0.3593  0.1254
  654SOL    HW1 2614   2.385   1.072   0.646  1.4107  1.2099  0.3465
  654SOL    HW2 2615   2.465   0.966   0.720 -0.1330 -1.0833 -1.8839
  654SOL     MW 2616   2.451   1.051   0.699  0.2978  0.2812 -0.1106
  655SOL     OW 2617   2.987   0.921   0.385 -0.3684 -0.2200  0.1353
  655SOL    HW1 2618   2.943   0.966   0.461  2.9733  1.5559  0.9562
  655SOL    HW2 2619   2.977   0.821   0.388 -2.1192 -0.9381 -1.0609
  655SOL     MW 2620   2.980   0.914   0.396 -0.1585 -0.0804  0.0858
  656SOL     OW 2621   1.973   2.679   1.204 -0.0531  0.4319  0.1207
  656SOL    HW1 2622   1.926   2.752   1.251 -1.8249  1.0252  0.8641
  656SOL    HW2 2623   2.022   2.638   1.273  0.4654 -2.4127 -1.6019
  656SOL     MW 2624   1.973   2.683   1.220 -0.2184  0.1349 -0.0085
  657SOL     OW 2625   0.193   1.582   1.272 -0.1607 -0.0205  0.1524
  657SOL    HW1 2626   0.121   1.618   1.216 -0.1846  0.0349  0.3521
  657SOL    HW2 2627   0.185   1.486   1.271 -1.2043 -0.1741  3.1560
  657SOL     MW 2628   0.183   1.574   1.264 -0.3015 -0.0334  0.5750
  658SOL     OW 2629   2.686   1.355   0.192 -0.3221 -0.3227 -0.6319
  658SOL    HW1 2630   2.613   1.301   0.233  1.9985 -2.3942  0.4863
  658SOL    HW2 2631   2.728   1.399   0.272 -0.9868 -0.9394  2.5559
  658SOL     MW 2632   2.681   1.354   0.208 -0.1036 -0.6774 -0.0638
  659SOL     OW 2633   2.300   1.529   1.031  0.6650 -0.2843  0.2558
  659SOL    HW1 2634   2.377   1.512   1.087 -2.8068  3.1678 -3.2290
  659SOL    HW2 2635   2.234   1.565   1.092 -0.9985 -1.6679 -2.5840
  659SOL     MW 2636   2.301   1.532   1.046 -0.0126 -0.0114 -0.5787
  660SOL     OW 2637   2.033   1.571   1.693 -0.0454 -0.4797 -0.0900
  660SOL    HW1 2638   2.038   1.569   1.794 -0.8441 -0.0704 -0.8038
  660SOL    HW2 2639   1.977   1.499   1.665 -2.7909  3.1764  1.7816
  660SOL     MW 2640   2.026   1.561   1.703 -0.5130  0.0567  0.0628
  661SOL     OW 2641   2.372   1.053   0.218 -0.4906 -1.1728  0.3440
  661SOL    HW1 2642   2.424   1.084   0.298 -1.0531  0.7708  2.3934
  661SOL    HW2 2643   2.346   0.962   0.245  2.0773 -0.2746  1.3852
  661SOL     MW 2644   2.376   1.045   0.232 -0.2260 -0.7979  0.7518
  662SOL     OW 2645   2.512   2.925   0.892  0.4431 -0.0527  0.0972
  662SOL    HW1 2646   2.454   2.994   0.925  0.2863 -2.8996 -0.2442
  662SOL    HW2 2647   2.558   2.969   0.820  0.1690  0.1425 -0.3655
  662SOL     MW 2648   2.510   2.940   0.887  0.3863 -0.4026 -0.0089
  663SOL     OW 2649   2.850   1.503   0.363  0.3367 -0.6079 -0.3003
  663SOL    HW1 2650   2.867   1.569   0.300 -2.4322 -0.7154 -0.3640
  663SOL    HW2 2651   2.833   1.546   0.452 -1.5106  0.1812  1.0691
  663SOL     MW 2652   2.850   1.517   0.367 -0.2724 -0.5179 -0.1280
  664SOL     OW 2653   2.467   1.556   1.572  0.2133 -0.0167  0.1915
  664SOL    HW1 2654   2.458   1.650   1.546  0.4343 -2.4184  0.5341
  664SOL    HW2 2655   2.378   1.520   1.573  0.8115  0.0444 -2.5014
  664SOL     MW 2656   2.454   1.564   1.569  0.3214 -0.3255 -0.1186
  665SOL     OW 2657   2.845   0.804   2.068  0.4176  0.2673 -0.5633
  665SOL    HW1 2658   2.832   0.859   1.990 -1.1389  1.7009 -0.6170
  665SOL    HW2 2659   2.908   0.738   2.056 -2.0584  1.8854  1.9695
  665SOL     MW 2660   2.852   0.802   2.056 -0.1144  0.6700 -0.2362
  666SOL     OW 2661   2.745   3.039   1.681 -0.3657 -0.2863  0.2155
  666SOL    HW1 2662   2.769   3.012   1.592 -2.1644  0.9486 -1.6503
  666SOL    HW2 2663   2.699   2.956   1.719 -0.7453 -2.0080 -3.7003
  666SOL     MW 2664   2.742   3.024   1.674 -0.6531 -0.3506 -0.5473
  667SOL     OW 2665   1.987   2.682   1.668 -0.0245 -0.3496  0.2341
  667SOL    HW1 2666   2.007   2.612   1.734 -1.2086  1.0105  0.0576
  667SOL    HW2 2667   2.064   2.739   1.676  0.0466 -2.6090  1.5496
  667SOL     MW 2668   2.000   2.680   1.678 -0.1713 -0.4683  0.3844
  668SOL     OW 2669   2.735   0.630   0.800 -0.6423 -0.1103 -0.4477
  668SOL    HW1 2670   2.812   0.650   0.859  2.7817 -0.2971  0.4598
  668SOL    HW2 2671   2.672   0.701   0.829  0.0247 -1.0714 -0.0615
  668SOL     MW 2672   2.737   0.642   0.811 -0.1026 -0.2618 -0.2770
  669SOL     OW 2673   0.182   0.950   0.661 -0.6886  0.1624 -0.1519
  669SOL    HW1 2674   0.158   1.006   0.731  2.7357 -1.2396  1.8048
  669SOL    HW2 2675   0.277   0.938   0.648  1.5213 -0.2935  2.2209
  669SOL     MW 2676   0.191   0.956   0.668  0.0548 -0.0828  0.4193
  670SOL     OW 2677   2.884   0.301   0.202  0.1110  0.4921  0.0440
  670SOL    HW1 2678   2.929   0.242   0.134  1.0064 -0.3497 -0.5144
  670SOL    HW2 2679   2.885   0.392   0.172 -0.7218  0.5478 -1.1918
  670SOL     MW 2680   2.890   0.305   0.189  0.1193  0.3884 -0.1927
  671SOL     OW 2681   2.136   3.026   1.552 -0.5691  0.2322 -1.0062
  671SOL    HW1 2682   2.068   3.027   1.489  1.0348 -1.3162  2.7810
  671SOL    HW2 2683   2.125   3.114   1.582 -0.5310 -2.5708 -0.0349
  671SOL     MW 2684   2.126   3.038   1.548 -0.3525 -0.3419 -0.3783
  672SOL     OW 2685   1.846   1.689   1.317 -0.1254 -0.1213  0.0217
  672SOL    HW1 2686   1.765   1.728   1.358  0.1351 -2.0198 -1.7553
  672SOL    HW2 2687   1.863   1.740   1.235  0.6238 -1.0228 -0.4394
  672SOL     MW 2688   1.838   1.701   1.312  0.0078 -0.4907 -0.2736
  673SOL     OW 2689   2.786   1.102   0.499 -0.0755 -0.3038  0.4723
  673SOL    HW1 2690   2.777   1.034   0.564 -0.4975 -0.2269  1.6537
  673SOL    HW2 2691   2.840   1.170   0.548  3.4041  0.2237 -0.7001
  673SOL     MW 2692   2.792   1.102   0.514  0.3279 -0.2241  0.4735
  674SOL     OW 2693   2.515   0.113   1.210 -0.0372 -0.2825  0.0760
  674SOL    HW1 2694   2.455   0.099   1.135 -1.8516 -0.6631  0.9162
  674SOL    HW2 2695   2.525   0.025   1.245 -2.8914  0.9251 -3.6684
  674SOL     MW 2696   2.508   0.100   1.205 -0.6532 -0.1734 -0.3072
  675SOL     OW 2697   3.018   0.937   1.103 -0.1015 -0.4214  0.1460
  675SOL    HW1 2698   3.073   0.947   1.178 -2.0148 -0.4124  0.1036
  675SOL    HW2 2699   3.070   0.970   1.029 -0.6362  0.8207 -0.7704
  675SOL     MW 2700   3.032   0.943   1.103 -0.4245 -0.2563  0.0195
  676SOL     OW 2701   2.889   1.509   1.634 -0.0043 -0.4747  0.5669
  676SOL    HW1 2702   2.847   1.426   1.615  1.4297  2.3185  1.9697
  676SOL    HW2 2703   2.966   1.480   1.679  0.7948  3.3730 -2.9500
  676SOL     MW 2704   2.894   1.494   1.637  0.2903  0.4015  0.2880
  677SOL     OW 2705   2.451   0.725   1.928 -0.2681 -0.5553  0.5445
  677SOL    HW1 2706   2.417   0.653   1.876  0.1817  2.5734  1.0418
  677SOL    HW2 2707   2.381   0.765   1.969  0.2788 -0.8293 -0.4169
  677SOL     MW 2708   2.437   0.721   1.927 -0.1366 -0.1787  0.4833
  678SOL     OW 2709   2.532   1.608   0.400 -0.4796  0.8255 -0.2268
  678SOL    HW1 2710   2.464   1.680   0.386 -0.4045 -2.4156 -1.2857
  678SOL    HW2 2711   2.553   1.596   0.308  0.1688  0.4060 -2.0357
  678SOL     MW 2712   2.526   1.616   0.386 -0.3841  0.3425 -0.6052
  679SOL     OW 2713   2.304   0.505   1.162 -0.2631  0.2924  0.5913
  679SOL    HW1 2714   2.249   0.423   1.160 -0.6340 -0.2119 -1.3477
  679SOL    HW2 2715   2.246   0.576   1.136 -1.3362 -1.8623  1.1146
  679SOL     MW 2716   2.289   0.503   1.158 -0.4536 -0.0585  0.4045
  680SOL     OW 2717   2.378   0.247   1.400 -0.3702 -0.5444 -0.4681
  680SOL    HW1 2718   2.294   0.215   1.393 -3.0247  1.7290  0.8241
  680SOL    HW2 2719   2.433   0.212   1.323  1.9671  0.9809  1.2527
  680SOL     MW 2720   2.374   0.238   1.389 -0.4120 -0.0432 -0.0705
  681SOL     OW 2721   0.349   0.593   1.549  0.5320  0.4607 -0.3029
  681SOL    HW1 2722   0.312   0.507   1.573  1.0317 -2.1532  0.3580
  681SOL    HW2 2723   0.445   0.563   1.540  1.1595  0.6920  0.0524
  681SOL     MW 2724   0.357   0.578   1.551  0.6807  0.1464 -0.1688
  682SOL     OW 2725   0.133   2.946   1.464  0.2985 -0.2735 -0.3086
  682SOL    HW1 2726   0.116   3.038   1.445 -1.1417  2.6425  0.2987
  682SOL    HW2 2727   0.105   2.929   1.552  1.2337  2.6993  0.3864
  682SOL     MW 2728   0.127   2.956   1.473  0.2318  0.5035 -0.1368
  683SOL     OW 2729   2.076   0.867   3.039 -0.1368  0.4843 -0.0847
  683SOL    HW1 2730   1.991   0.850   2.997  0.2784  0.2921  1.3213
  683SOL    HW2 2731   2.054   0.954   3.074 -1.5693  2.4570 -1.9086
  683SOL     MW 2732   2.062   0.876   3.038 -0.2710  0.7192 -0.1398
  684SOL     OW 2733   2.195   1.770   0.909 -0.3645 -0.1482  0.3564
  684SOL    HW1 2734   2.108   1.734   0.880 -2.9689 -0.1761 -2.4750
  684SOL    HW2 2735   2.256   1.694   0.921  1.6717 -0.3988  0.8379
  684SOL     MW 2736   2.192   1.755   0.907 -0.4395 -0.1849  0.0464
  685SOL     OW 2737   2.627   1.745   1.241  0.3405  0.1314 -0.2097
  685SOL    HW1 2738   2.695   1.738   1.306  2.3680 -1.5078 -2.0431
  685SOL    HW2 2739   2.633   1.653   1.207  0.5336  0.2296 -1.5635
  685SOL     MW 2740   2.637   1.732   1.245  0.6334 -0.0720 -0.6302
  686SOL     OW 2741   2.870   0.714   1.460  0.4227  0.3318  0.1914
  686SOL    HW1 2742   2.881   0.656   1.542  0.2238 -2.6833 -1.5546
  686SOL    HW2 2743   2.918   0.663   1.397  1.4278  0.1765 -2.3727
  686SOL     MW 2744   2.877   0.700   1.462  0.5291 -0.0865 -0.3773
  687SOL     OW 2745   2.151   0.290   1.208 -0.3305 -0.1127 -0.6831
  687SOL    HW1 2746   2.123   0.251   1.121  0.2535 -1.4301  0.4245
  687SOL    HW2 2747   2.077   0.343   1.244 -0.2827  2.3766  0.6208
  687SOL     MW 2748   2.138   0.292   1.201 -0.2471  0.0420 -0.3650
  688SOL     OW 2749   2.362   0.621   1.477 -0.2855  0.5799 -0.0513
  688SOL    HW1 2750   2.334   0.541   1.436  2.7423  0.9993 -1.4793
  688SOL    HW2 2751   2.302   0.633   1.553 -2.2615 -0.0065  1.3775
  688SOL     MW 2752   2.351   0.612   1.482 -0.1467  0.5579 -0.0512
  689SOL     OW 2753   2.549   0.738   2.994 -0.2048 -0.1274  0.4514
  689SOL    HW1 2754   2.561   0.818   2.943 -0.4354 -1.3221 -1.0139
  689SOL    HW2 2755   2.585   0.766   3.085 -0.0231  0.9646 -0.8759
  689SOL     MW 2756   2.556   0.752   2.999 -0.2113 -0.1409  0.0830
  690SOL     OW 2757   2.120   0.946   1.907  0.0081 -0.5128  0.2400
  690SOL    HW1 2758   2.043   0.892   1.906  0.6431  0.0248 -0.5205
  690SOL    HW2 2759   2.139   0.940   1.812  1.4058  0.5473 -0.3301
  690SOL     MW 2760   2.112   0.938   1.894  0.2763 -0.3020  0.0644
  691SOL     OW 2761   2.440   0.273   0.829  0.3437 -0.1294 -0.1946
  691SOL    HW1 2762   2.522   0.315   0.872  0.2037 -0.0213 -2.1098
  691SOL    HW2 2763   2.365   0.325   0.856 -2.2579  2.0706  0.0468
  691SOL     MW 2764   2.441   0.286   0.838 -0.0180  0.1751 -0.4155
  692SOL     OW 2765   2.820   1.695   1.463  0.2477 -1.0214  0.2126
  692SOL    HW1 2766   2.850   1.654   1.537 -0.2629 -2.6605  0.3437
  692SOL    HW2 2767   2.807   1.781   1.491  0.0262 -0.6951 -0.1685
  692SOL     MW 2768   2.822   1.701   1.476  0.1511 -1.1946  0.1796
  693SOL     OW 2769   2.332   0.436   0.118  0.0749 -0.1958  0.0237
  693SOL    HW1 2770   2.258   0.383   0.093 -2.9170  0.5069 -1.6186
  693SOL    HW2 2771   2.327   0.512   0.064 -0.4972 -1.0682  3.8365
  693SOL     MW 2772   2.321   0.439   0.107 -0.3953 -0.2182  0.3101
  694SOL     OW 2773   1.935   1.282   1.094 -0.1307 -0.4413  0.3612
  694SOL    HW1 2774   1.999   1.226   1.138 -2.1761 -0.5716  0.3019
  694SOL    HW2 2775   1.866   1.223   1.071 -0.0033 -0.4000 -1.9607
  694SOL     MW 2776   1.935   1.267   1.097 -0.3838 -0.4530  0.0471
  695SOL     OW 2777   2.973   1.440   1.301  0.3261 -0.0153 -0.0858
  695SOL    HW1 2778   2.957   1.454   1.209 -1.4014 -3.0420 -1.4275
  695SOL    HW2 2779   2.960   1.517   1.357 -0.2331  1.6812 -0.6019
  695SOL     MW 2780   2.969   1.452   1.296  0.0244 -0.1908 -0.3309
  696SOL     OW 2781   2.100   1.393   0.896 -0.1015 -0.1786 -0.0665
  696SOL    HW1 2782   2.177   1.427   0.947  0.5406  1.5989  2.0185
  696SOL    HW2 2783   2.045   1.364   0.970 -0.8701  1.3583  0.0311
  696SOL     MW 2784   2.103   1.394   0.912 -0.1182  0.2587  0.2215
  697SOL     OW 2785   2.920   1.103   2.137 -0.1821  0.3937 -0.4599
  697SOL    HW1 2786   2.851   1.161   2.168 -4.1839 -1.5911  1.2212
  697SOL    HW2 2787   2.877   1.019   2.118 -0.8695 -2.8207 -0.4725
  697SOL     MW 2788   2.905   1.100   2.139 -0.8008 -0.2923 -0.2398
  698SOL     OW 2789   2.569   0.290   0.013  0.0329  0.5615 -0.5720
  698SOL    HW1 2790   2.490   0.321   0.050  1.3131 -2.0024  1.2904
  698SOL    HW2 2791   2.616   0.248   0.096 -0.7364 -1.0739  1.5172
  698SOL     MW 2792   2.564   0.288   0.029  0.1003  0.0074 -0.0506
  699SOL     OW 2793   1.828   1.644   2.059 -0.7160  0.0934  0.1529
  699SOL    HW1 2794   1.805   1.549   2.046  1.6676 -0.4847  0.9091
  699SOL    HW2 2795   1.923   1.642   2.033 -1.0406 -1.1907  0.5982
  699SOL     MW 2796   1.837   1.632   2.054 -0.4443 -0.1523  0.3114
  700SOL     OW 2797   2.733   0.912   1.577  0.1530  0.2826  0.3733
  700SOL    HW1 2798   2.741   0.974   1.501  0.0167  0.6605  0.8542
  700SOL    HW2 2799   2.769   0.833   1.532 -2.4037  2.8862 -1.7614
  700SOL     MW 2800   2.738   0.910   1.561 -0.2023  0.6760  0.1551
  701SOL     OW 2801   1.645   1.281   2.577 -0.8978 -0.2863 -0.8321
  701SOL    HW1 2802   1.738   1.299   2.570 -3.7485  0.7211 -3.3015
  701SOL    HW2 2803   1.615   1.312   2.666  0.6940 -0.8103 -0.1150
  701SOL     MW 2804   1.653   1.288   2.588 -1.0639 -0.2225 -1.0633
  702SOL     OW 2805   2.184   0.395   0.845 -0.2429 -0.1773  0.4868
  702SOL    HW1 2806   2.152   0.330   0.785  3.0087 -0.3960 -0.3872
  702SOL    HW2 2807   2.234   0.445   0.782 -0.3084 -0.7753  1.0217
  702SOL     MW 2808   2.186   0.393   0.829  0.1775 -0.2851  0.4421
  703SOL     OW 2809   2.678   1.286   1.019  0.1989 -0.2157  0.5956
  703SOL    HW1 2810   2.649   1.256   0.932  0.1856 -1.9895 -1.8221
  703SOL    HW2 2811   2.716   1.212   1.076  2.5454  1.0350  2.5314
  703SOL     MW 2812   2.679   1.272   1.015  0.5067 -0.2847  0.5320
  704SOL     OW 2813   3.090   1.325   0.286 -0.1905  0.1554 -0.5299
  704SOL    HW1 2814   3.025   1.267   0.248  0.5807 -0.4645  2.3044
  704SOL    HW2 2815   3.111   1.296   0.380 -0.3758 -4.5139  1.7666
  704SOL     MW 2816   3.084   1.313   0.293 -0.1132 -0.5424  0.1471
  705SOL     OW 2817   2.178   1.608   1.266  0.3406 -0.5123  0.4067
  705SOL    HW1 2818   2.085   1.599   1.247  6.3650  1.4326  4.3818
  705SOL    HW2 2819   2.201   1.523   1.301 -0.0636 -0.0153  0.5612
  705SOL     MW 2820   2.169   1.596   1.268  1.0821 -0.1901  0.9515
  706SOL     OW 2821   2.956   1.249   0.684 -0.4259 -0.7285  0.8484
  706SOL    HW1 2822   3.037   1.246   0.641 -0.0281 -0.6385 -1.3546
  706SOL    HW2 2823   2.936   1.345   0.682 -0.7260  0.1065  0.6848
  706SOL     MW 2824   2.964   1.262   0.678 -0.4130 -0.6065  0.5361
  707SOL     OW 2825   2.384   0.053   0.984 -0.0980  0.4080  0.2425
  707SOL    HW1 2826   2.411   0.129   0.921  0.3439 -0.8020 -1.7488
  707SOL    HW2 2827   2.288   0.058   0.998  0.1648  0.4480  1.0548
  707SOL     MW 2828   2.375   0.064   0.978 -0.0050  0.2536  0.0869
  708SOL     OW 2829   2.543   1.581   0.135  0.2695 -0.4347  0.3734
  708SOL    HW1 2830   2.588   1.496   0.157 -0.5385 -1.5213 -0.6726
  708SOL    HW2 2831   2.481   1.549   0.069 -3.6523 -0.1265  0.4453
  708SOL     MW 2832   2.541   1.566   0.129 -0.3546 -0.5374  0.2449
  709SOL     OW 2833   1.718   1.740   0.136  0.1057 -0.5092  0.6286
  709SOL    HW1 2834   1.670   1.743   0.048  0.9082  1.4184 -0.7904
  709SOL    HW2 2835   1.657   1.693   0.185  1.5454 -1.7918 -0.8495
  709SOL     MW 2836   1.703   1.734   0.131  0.4015 -0.4241  0.2463
  710SOL     OW 2837   2.132   1.145   1.193  0.0040 -0.1385  0.3492
  710SOL    HW1 2838   2.208   1.135   1.129 -1.5946  1.1239 -2.5457
  710SOL    HW2 2839   2.159   1.085   1.264  1.2580  3.2227  0.1092
  710SOL     MW 2840   2.146   1.136   1.194 -0.0414  0.4716 -0.0644
  711SOL     OW 2841   2.323   0.120   1.750  0.5144  0.1394  0.9376
  711SOL    HW1 2842   2.413   0.130   1.789 -2.3926  0.0920 -1.8386
  711SOL    HW2 2843   2.328   0.092   1.658 -2.5248 -0.3275 -0.3042
  711SOL     MW 2844   2.335   0.118   1.743 -0.2702  0.0715  0.4075
  712SOL     OW 2845   1.770   0.616   3.069  1.3577  0.2147 -0.8206
  712SOL    HW1 2846   1.812   0.682   3.015  0.9141  0.5123  1.5176
  712SOL    HW2 2847   1.820   0.612   3.150  2.1660 -3.1111  3.3998
  712SOL     MW 2848   1.782   0.624   3.072  1.4058 -0.1849  0.0447
  713SOL     OW 2849   2.592   0.811   1.087  0.2733  1.1210 -0.1577
  713SOL    HW1 2850   2.597   0.712   1.081 -1.6194 -1.8825  0.1250
  713SOL    HW2 2851   2.585   0.822   1.181  0.2408 -2.3994 -0.4392
  713SOL     MW 2852   2.592   0.799   1.098  0.0193  0.2602 -0.1575
  714SOL     OW 2853   2.154   0.213   1.948 -0.3327  0.2919  0.1613
  714SOL    HW1 2854   2.212   0.194   2.023  1.8308 -0.5638 -1.9001
  714SOL    HW2 2855   2.216   0.184   1.871  0.5459 -0.5451 -2.4443
  714SOL     MW 2856   2.170   0.207   1.948  0.0687  0.0686 -0.4545
  715SOL     OW 2857   1.754   1.911   1.728 -0.2987 -0.0331  0.4678
  715SOL    HW1 2858   1.832   1.879   1.670 -1.4097  1.5978  0.4721
  715SOL    HW2 2859   1.724   1.829   1.769 -1.1347  1.0773  3.1154
  715SOL     MW 2860   1.760   1.896   1.726 -0.5556  0.3286  0.8177
  716SOL     OW 2861   2.394   0.564   0.732  0.4394 -0.3997  0.1387
  716SOL    HW1 2862   2.437   0.499   0.675  0.5589  2.0122  1.3052
  716SOL    HW2 2863   2.350   0.622   0.670  0.2374 -0.5388 -1.2532
  716SOL     MW 2864   2.394   0.563   0.717  0.4285 -0.0999  0.1090
  717SOL     OW 2865   2.859   1.466   2.899  0.0701 -0.3331 -0.0445
  717SOL    HW1 2866   2.953   1.464   2.923 -2.3417  1.6210 -0.6555
  717SOL    HW2 2867   2.825   1.530   2.962 -0.9325 -1.6685 -1.1601
  717SOL     MW 2868   2.867   1.474   2.910 -0.3804 -0.2514 -0.2723
  718SOL     OW 2869   2.527   1.335   1.388 -0.2084  0.7290 -0.4306
  718SOL    HW1 2870   2.559   1.399   1.454 -1.6128 -2.4381 -0.0242
  718SOL    HW2 2871   2.601   1.274   1.373 -1.4554 -1.8840  0.3765
  718SOL     MW 2872   2.541   1.336   1.394 -0.5583 -0.0336 -0.2705
  719SOL     OW 2873   2.165   1.334   0.590 -0.3157 -0.3808 -1.0158
  719SOL    HW1 2874   2.260   1.349   0.576  0.7471  1.3630  1.3418
  719SOL    HW2 2875   2.146   1.375   0.674  2.4487 -1.8259  1.0705
  719SOL     MW 2876   2.175   1.341   0.599  0.1892 -0.3414 -0.4295
  720SOL     OW 2877   2.886   1.193   0.138 -0.0440 -0.0682  0.2621
  720SOL    HW1 2878   2.851   1.108   0.156 -0.1382  0.4827  1.3931
  720SOL    HW2 2879   2.824   1.258   0.164  1.6714 -0.0583  0.4918
  720SOL     MW 2880   2.873   1.190   0.144  0.1699  0.0058  0.4416
  721SOL     OW 2881   2.518   0.835   1.357 -0.2156 -0.0706  0.2143
  721SOL    HW1 2882   2.493   0.745   1.392  1.7820 -5.2391 -0.9674
  721SOL    HW2 2883   2.566   0.868   1.438 -0.4697  1.1923 -0.4251
  721SOL     MW 2884   2.521   0.827   1.372  0.0144 -0.5859 -0.0260
  722SOL     OW 2885   2.541   1.213   0.371  0.3425 -0.2730 -0.6990
  722SOL    HW1 2886   2.508   1.284   0.437 -1.7392  0.1649  2.5971
  722SOL    HW2 2887   2.609   1.164   0.417  1.2745 -3.4175 -4.4062
  722SOL     MW 2888   2.546   1.216   0.386  0.1908 -0.6301 -0.7532
  723SOL     OW 2889   2.222   1.377   1.637 -0.2791 -0.0822  0.2876
  723SOL    HW1 2890   2.204   1.359   1.546 -0.8112  2.6053  1.3770
  723SOL    HW2 2891   2.155   1.433   1.671  0.2577 -1.8372  0.0672
  723SOL     MW 2892   2.211   1.382   1.630 -0.2785  0.0408  0.4022
  724SOL     OW 2893   2.491   0.371   0.550  0.3183  0.2531  0.0609
  724SOL    HW1 2894   2.484   0.311   0.621 -0.2959  0.4227  0.5308
  724SOL    HW2 2895   2.581   0.397   0.536 -0.6786 -0.1555 -3.1723
  724SOL     MW 2896   2.502   0.366   0.557  0.1057  0.2216 -0.3037
  725SOL     OW 2897   2.587   0.527   1.133  0.0542 -0.3336 -0.4965
  725SOL    HW1 2898   2.611   0.538   1.220 -1.1149 -0.7284  1.2353
  725SOL    HW2 2899   2.496   0.500   1.147 -0.1006  1.4736 -1.0563
  725SOL     MW 2900   2.578   0.525   1.146 -0.1205 -0.1473 -0.3419
  726SOL     OW 2901   2.567   2.430   0.537  0.3394 -0.0422  0.5285
  726SOL    HW1 2902   2.495   2.478   0.489 -1.7374 -0.3402 -1.5900
  726SOL    HW2 2903   2.529   2.367   0.594  4.9184  0.9600 -0.2104
  726SOL     MW 2904   2.553   2.428   0.538  0.6695  0.0507  0.1515
  727SOL     OW 2905   2.880   0.286   1.596  0.8088 -0.2076 -0.3069
  727SOL    HW1 2906   2.885   0.322   1.503  0.0067 -0.4511 -3.5697
  727SOL    HW2 2907   2.799   0.237   1.598  0.1203 -0.3984 -1.0218
  727SOL     MW 2908   2.870   0.284   1.584  0.6122 -0.2649 -0.8317
  728SOL     OW 2909   2.818   1.157   2.968 -0.1255  0.3986  0.1915
  728SOL    HW1 2910   2.814   1.245   2.940  1.4221 -1.2341  0.3672
  728SOL    HW2 2911   2.838   1.172   3.064 -3.9178 -3.6745  0.1373
  728SOL     MW 2912   2.820   1.170   2.977 -0.4217 -0.3542  0.2076
  729SOL     OW 2913   2.559   1.482   1.159  0.0988  0.5010  0.1196
  729SOL    HW1 2914   2.540   1.430   1.240  4.4083  3.6351 -0.3798
  729SOL    HW2 2915   2.597   1.414   1.098 -1.3977 -2.2078  0.9923
  729SOL     MW 2916   2.562   1.467   1.162  0.4700  0.5571  0.1689
  730SOL     OW 2917   2.115   1.118   0.285 -0.0022 -0.2574 -0.0232
  730SOL    HW1 2918   2.205   1.120   0.250 -0.1430 -0.4967  0.3204
  730SOL    HW2 2919   2.096   1.211   0.294 -0.2514  1.3349  0.8226
  730SOL     MW 2920   2.124   1.131   0.281 -0.0537 -0.0789  0.1337
  731SOL     OW 2921   2.805   1.850   2.902  0.0457 -0.1876 -0.2239
  731SOL    HW1 2922   2.736   1.881   2.841 -0.2999 -2.1193 -1.6597
  731SOL    HW2 2923   2.872   1.919   2.894 -1.2511  0.7195  0.2164
  731SOL     MW 2924   2.805   1.863   2.893 -0.1710 -0.3228 -0.3553
  732SOL     OW 2925   2.246   0.937   1.333 -0.5303 -0.1501 -0.7019
  732SOL    HW1 2926   2.183   0.897   1.394 -1.5802  0.1595 -0.6489
  732SOL    HW2 2927   2.340   0.909   1.338  0.4636  1.9330 -1.8340
  732SOL     MW 2928   2.250   0.928   1.342 -0.5377  0.1656 -0.8443
  733SOL     OW 2929   2.347   2.817   3.072  0.0411 -0.6105 -0.3458
  733SOL    HW1 2930   2.291   2.885   3.039  0.0237  0.3037  0.8937
  733SOL    HW2 2931   2.303   2.729   3.069 -0.4520  0.3640 -0.6493
  733SOL     MW 2932   2.334   2.815   3.067 -0.0262 -0.3613 -0.2223
  734SOL     OW 2933   1.492   0.377   2.454 -0.2370 -0.7073  0.3335
  734SOL    HW1 2934   1.456   0.349   2.540 -0.0149 -1.4002  0.7943
  734SOL    HW2 2935   1.509   0.298   2.401 -0.0288  3.6830  0.8269
  734SOL     MW 2936   1.490   0.363   2.458 -0.1802 -0.2195  0.4594
  735SOL     OW 2937   3.022   0.986   2.614 -0.2143 -0.2372 -0.9184
  735SOL    HW1 2938   3.031   0.892   2.604 -1.0506  1.3155  0.4139
  735SOL    HW2 2939   3.016   0.997   2.708  0.4370 -1.6278 -0.2502
  735SOL     MW 2940   3.023   0.975   2.625 -0.2387 -0.2158 -0.6544
  736SOL     OW 2941   0.072   0.591   2.559 -0.2784 -0.4075 -0.1285
  736SOL    HW1 2942   0.110   0.642   2.485 -0.5615  0.0009 -1.1735
  736SOL    HW2 2943   0.035   0.511   2.513 -0.2578  1.1809 -0.7130
  736SOL     MW 2944   0.072   0.587   2.543 -0.3130 -0.1440 -0.3435
  737SOL     OW 2945   2.914   0.697   2.614  0.3291 -0.0915  0.1794
  737SOL    HW1 2946   2.848   0.667   2.548 -0.5589  0.5710  0.5291
  737SOL    HW2 2947   2.997   0.658   2.595 -1.2493 -0.1126  0.0162
  737SOL     MW 2948   2.916   0.688   2.603  0.0037 -0.0069  0.2040
  738SOL     OW 2949   0.164   0.535   1.978  0.2617 -0.4076 -0.6059
  738SOL    HW1 2950   0.258   0.542   1.998  0.7247  1.4012  1.6665
  738SOL    HW2 2951   0.169   0.496   1.889 -1.4938  3.3307 -0.7007
  738SOL     MW 2952   0.177   0.531   1.969  0.0911  0.3243 -0.3186
  739SOL     OW 2953   2.523   0.946   2.152 -0.1002  0.2648  0.0591
  739SOL    HW1 2954   2.432   0.909   2.134  1.2381 -2.1825  0.1608
  739SOL    HW2 2955   2.546   0.983   2.067 -1.8221  0.2538 -1.1253
  739SOL     MW 2956   2.514   0.946   2.138 -0.1508 -0.0595 -0.0837
  740SOL     OW 2957   0.123   1.777   2.955 -0.5113 -0.1148 -0.2132
  740SOL    HW1 2958   0.083   1.688   2.956 -1.4142  0.5353  0.3818
  740SOL    HW2 2959   0.216   1.764   2.986 -0.9841  2.6599  0.6145
  740SOL     MW 2960   0.130   1.763   2.959 -0.6928  0.3371 -0.0255
  741SOL     OW 2961   2.228   1.209   2.714  0.1226  0.3047  0.3708
  741SOL    HW1 2962   2.187   1.281   2.658  0.6745 -1.2626 -0.8476
  741SOL    HW2 2963   2.195   1.235   2.800  2.1130  1.6688 -0.4066
  741SOL     MW 2964   2.218   1.222   2.718  0.4580  0.2779  0.1075
  742SOL     OW 2965   1.654   1.376   2.277 -0.2296  0.4156 -0.0815
  742SOL    HW1 2966   1.584   1.316   2.256  1.1198 -0.1626  0.9738
  742SOL    HW2 2967   1.668   1.356   2.373  1.4363 -1.1817 -1.4927
  742SOL     MW 2968   1.646   1.366   2.287  0.1682  0.1285 -0.1284
  743SOL     OW 2969   2.496   1.234   2.700  0.1518  0.0186  0.5134
  743SOL    HW1 2970   2.403   1.218   2.686  1.2408  2.4657  0.1689
  743SOL    HW2 2971   2.542   1.168   2.753 -2.8156  2.4104 -1.3583
  743SOL     MW 2972   2.490   1.223   2.705 -0.0961  0.6571  0.2210
  744SOL     OW 2973   2.788   0.991   1.831  0.0244  0.0430 -0.0922
  744SOL    HW1 2974   2.709   1.035   1.866 -0.5102  0.9400 -0.8826
  744SOL    HW2 2975   2.757   0.961   1.746 -0.1439 -0.1795 -0.5634
  744SOL     MW 2976   2.774   0.992   1.825 -0.0683  0.1320 -0.2586
  745SOL     OW 2977   1.780   0.435   2.453  0.3722  0.1738 -0.4331
  745SOL    HW1 2978   1.765   0.438   2.357 -0.0003  2.1043  0.1053
  745SOL    HW2 2979   1.698   0.400   2.484 -0.7060 -1.0119  1.1292
  745SOL     MW 2980   1.767   0.431   2.444  0.1808  0.2721 -0.1560
  746SOL     OW 2981   1.504   1.475   1.689 -0.0560  0.1170  0.0273
  746SOL    HW1 2982   1.573   1.532   1.725 -0.4001 -0.0212 -0.2846
  746SOL    HW2 2983   1.500   1.396   1.734 -0.9925 -0.1910 -1.2724
  746SOL     MW 2984   1.512   1.472   1.700 -0.2250  0.0582 -0.1853
  747SOL     OW 2985   2.566   1.119   1.920 -0.2837  0.5257 -0.1546
  747SOL    HW1 2986   2.468   1.122   1.911  0.9272 -1.5261  1.9633
  747SOL    HW2 2987   2.588   1.210   1.943 -2.0853 -0.4220  0.5391
  747SOL     MW 2988   2.556   1.132   1.922 -0.3616  0.1300  0.2163
  748SOL     OW 2989   0.074   3.056   1.910  0.1120 -0.0576  0.3381
  748SOL    HW1 2990   0.168   3.055   1.909 -0.6662  0.9093  0.6453
  748SOL    HW2 2991   0.055   3.129   1.964 -1.5426  2.3525 -2.5340
  748SOL     MW 2992   0.084   3.065   1.917 -0.2089  0.3880 -0.0003
  749SOL     OW 2993   2.442   0.602   2.778  0.4118 -0.4580  0.0009
  749SOL    HW1 2994   2.457   0.683   2.726  3.7384 -0.2543 -0.9388
  749SOL    HW2 2995   2.482   0.637   2.866  4.1133 -0.7620  0.1591
  749SOL     MW 2996   2.449   0.617   2.783  1.3391 -0.4713 -0.1022
  750SOL     OW 2997   2.065   3.054   1.948 -0.2532  0.4602  0.4272
  750SOL    HW1 2998   2.116   3.137   1.944 -1.6311 -3.0717  1.5177
  750SOL    HW2 2999   2.133   2.987   1.944  1.6895 -1.9008 -1.9256
  750SOL     MW 3000   2.081   3.056   1.947 -0.1787 -0.3173  0.2607
  751SOL     OW 3001   3.094   0.379   2.384  0.2855  0.4735  0.5818
  751SOL    HW1 3002   3.020   0.398   2.332  2.9133  0.5369 -0.9129
  751SOL    HW2 3003   3.170   0.351   2.326  1.4582 -0.8886  1.1202
  751SOL     MW 3004   3.094   0.378   2.370  0.7869  0.3022  0.4556
  752SOL     OW 3005   2.136   0.896   2.789 -0.6033  0.2465 -0.0426
  752SOL    HW1 3006   2.206   0.956   2.767  1.1101 -0.5610 -1.0776
  752SOL    HW2 3007   2.135   0.886   2.887 -0.6271 -0.8453 -1.1687
  752SOL     MW 3008   2.145   0.902   2.799 -0.3803 -0.0041 -0.3277
  753SOL     OW 3009   2.829   0.432   2.311  0.4917 -0.2367 -0.0040
  753SOL    HW1 3010   2.786   0.347   2.322  1.4878 -0.4222  1.5596
  753SOL    HW2 3011   2.778   0.495   2.364 -1.3137  1.7927 -0.2684
  753SOL     MW 3012   2.817   0.429   2.320  0.3849  0.0066  0.1674
  754SOL     OW 3013   2.278   2.987   2.620 -0.6755  0.6010 -0.5792
  754SOL    HW1 3014   2.290   2.966   2.524 -1.7083 -0.0627 -0.4847
  754SOL    HW2 3015   2.332   2.928   2.676  1.7309 -0.6733 -0.3685
  754SOL     MW 3016   2.287   2.976   2.615 -0.4943  0.3453 -0.5390
  755SOL     OW 3017   2.808   1.584   2.478 -0.0878  0.3192  0.1083
  755SOL    HW1 3018   2.749   1.513   2.500  0.0041 -0.3298 -1.4561
  755SOL    HW2 3019   2.837   1.613   2.566  1.0471 -0.2360  1.0394
  755SOL     MW 3020   2.804   1.579   2.492  0.0741  0.1603  0.0247
  756SOL     OW 3021   2.235   1.266   2.981  0.0506 -0.2822 -0.4643
  756SOL    HW1 3022   2.296   1.344   2.995  3.3242  3.0877 -2.6746
  756SOL    HW2 3023   2.280   1.180   2.981  0.5690 -0.1544  1.0045
  756SOL     MW 3024   2.249   1.265   2.983  0.5509  0.1793 -0.5621
  757SOL     OW 3025   2.198   0.941   1.648  0.0523 -0.2113 -0.1988
  757SOL    HW1 3026   2.221   0.846   1.659  1.2504 -2.4879 -0.1489
  757SOL    HW2 3027   2.142   0.957   1.568 -0.6789 -2.7392 -0.4966
  757SOL     MW 3028   2.194   0.930   1.639  0.1139 -0.8452 -0.2315
  758SOL     OW 3029   2.266   1.809   2.619  0.2022 -0.5192 -0.0487
  758SOL    HW1 3030   2.260   1.833   2.522  1.6830 -1.6408  0.5939
  758SOL    HW2 3031   2.347   1.760   2.631  1.3623  0.0075  0.4490
  758SOL     MW 3032   2.276   1.806   2.608  0.5506 -0.5977  0.1018
  759SOL     OW 3033   1.538   1.419   2.767  0.1060 -0.2469  0.2159
  759SOL    HW1 3034   1.545   1.497   2.714 -0.9555  2.2242 -0.8192
  759SOL    HW2 3035   1.587   1.435   2.852 -2.0794  1.2671  0.4291
  759SOL     MW 3036   1.545   1.431   2.772 -0.3224  0.2789  0.1074
  760SOL     OW 3037   2.634   1.990   2.699  0.0997 -0.2722 -0.7064
  760SOL    HW1 3038   2.601   1.901   2.691  0.5853  2.5000 -0.1305
  760SOL    HW2 3039   2.708   1.976   2.644 -0.6833  1.3554  2.6368
  760SOL     MW 3040   2.639   1.977   2.690  0.0605  0.3083 -0.1893
  761SOL     OW 3041   2.177   0.447   2.452 -0.2657 -0.0788 -0.2759
  761SOL    HW1 3042   2.110   0.388   2.475 -0.3205 -1.7120 -1.7328
  761SOL    HW2 3043   2.169   0.534   2.495  0.5625  3.1163  1.2222
  761SOL     MW 3044   2.167   0.451   2.460 -0.1636  0.1273 -0.2704
  762SOL     OW 3045   0.035   0.159   2.087 -0.0517 -0.3996 -0.3587
  762SOL    HW1 3046   0.042   0.109   2.168  0.8511  1.6634  1.4918
  762SOL    HW2 3047  -0.042   0.214   2.098  0.8110 -0.2661  1.4936
  762SOL     MW 3048   0.026   0.160   2.099  0.1812 -0.1098  0.1299
  763SOL     OW 3049   2.437   1.158   2.370  0.3061 -0.1768  0.6504
  763SOL    HW1 3050   2.482   1.098   2.308  0.6720  1.6784 -2.0511
  763SOL    HW2 3051   2.494   1.230   2.379 -0.9886  0.7056  1.3521
  763SOL     MW 3052   2.451   1.159   2.363  0.1836  0.1844  0.3866
  764SOL     OW 3053   0.334   0.178   2.775 -0.0568  0.3425  0.2912
  764SOL    HW1 3054   0.254   0.223   2.747  0.0102 -2.9917  2.7072
  764SOL    HW2 3055   0.351   0.215   2.857 -1.3756 -0.9143 -0.7392
  764SOL     MW 3056   0.325   0.189   2.782 -0.2220 -0.2632  0.4740
  765SOL     OW 3057   2.745   0.173   2.328  0.4887  0.3643 -0.3200
  765SOL    HW1 3058   2.691   0.139   2.254 -2.0769  0.1878 -0.0721
  765SOL    HW2 3059   2.791   0.095   2.361  1.9607 -0.8210 -3.2108
  765SOL     MW 3060   2.744   0.158   2.323  0.3444  0.1846 -0.6687
  766SOL     OW 3061   1.849   3.007   2.102 -0.0347 -0.1511 -0.3536
  766SOL    HW1 3062   1.924   3.009   2.045  0.2305  1.1419 -1.0690
  766SOL    HW2 3063   1.788   2.959   2.044  2.0344 -2.9202  0.6131
  766SOL     MW 3064   1.851   3.001   2.087  0.2733 -0.3459 -0.3205
  767SOL     OW 3065   2.703   0.622   1.947  0.2218  0.0364 -0.3037
  767SOL    HW1 3066   2.722   0.684   2.016  1.8743  0.4439  0.5890
  767SOL    HW2 3067   2.619   0.653   1.908  0.7322 -0.0871 -2.0028
  767SOL     MW 3068   2.695   0.634   1.951  0.5072  0.0738 -0.4101
  768SOL     OW 3069   0.035   1.455   2.961  0.1386  0.3041 -0.3976
  768SOL    HW1 3070   0.059   1.479   3.051 -0.5490 -1.6763 -0.4533
  768SOL    HW2 3071   0.071   1.367   2.943 -1.5570  1.6989 -0.9208
  768SOL     MW 3072   0.043   1.446   2.970 -0.1759  0.2269 -0.4740
  769SOL     OW 3073   2.390   0.653   2.452  0.3567 -0.5876  0.7663
  769SOL    HW1 3074   2.347   0.566   2.471 -3.7016 -2.0894 -0.0268
  769SOL    HW2 3075   2.431   0.649   2.364  0.3745  3.0551  3.2277
  769SOL     MW 3076   2.390   0.641   2.443 -0.1764 -0.3051  0.9864
  770SOL     OW 3077   0.067   1.621   2.637  0.1786 -0.0128 -0.3553
  770SOL    HW1 3078  -0.019   1.621   2.677  0.1422  1.6073 -0.4403
  770SOL    HW2 3079   0.097   1.534   2.663 -0.9467  2.2103  0.7386
  770SOL     MW 3080   0.060   1.610   2.646  0.0253  0.4942 -0.2222
  771SOL     OW 3081   2.988   0.564   1.966  0.0627  0.2384  0.4148
  771SOL    HW1 3082   2.961   0.584   1.877 -0.9682  1.5104 -1.9294
  771SOL    HW2 3083   3.078   0.553   1.972 -0.4760  0.5467 -1.1447
  771SOL     MW 3084   2.996   0.565   1.955 -0.1444  0.4469 -0.1002
  772SOL     OW 3085   0.016   3.078   2.316  0.1887 -0.1708 -0.2615
  772SOL    HW1 3086  -0.075   3.058   2.339  1.2983  0.9518  2.9385
  772SOL    HW2 3087   0.062   2.994   2.301  1.9597  1.0518 -1.0366
  772SOL     MW 3088   0.010   3.064   2.317  0.5688  0.1386  0.0584
  773SOL     OW 3089   2.475   2.844   2.804 -0.3165  0.3141 -0.3215
  773SOL    HW1 3090   2.469   2.765   2.743 -1.0402 -2.7048 -1.0613
  773SOL    HW2 3091   2.421   2.823   2.884 -1.0269 -1.2240  0.6334
  773SOL     MW 3092   2.467   2.831   2.806 -0.5058 -0.2871 -0.2931
  774SOL     OW 3093   2.286   1.171   1.826 -0.0083 -0.2416 -0.1738
  774SOL    HW1 3094   2.291   1.245   1.762  0.9684  0.1793  1.0627
  774SOL    HW2 3095   2.252   1.098   1.764  0.0471 -2.3159 -1.9937
  774SOL     MW 3096   2.282   1.171   1.809  0.1279 -0.4598 -0.2508
  775SOL     OW 3097   2.292   2.972   2.335  0.4288  0.2731 -0.1113
  775SOL    HW1 3098   2.319   3.048   2.278 -0.1503  2.6358  0.4857
  775SOL    HW2 3099   2.338   2.895   2.300  1.4598  3.5683 -0.8144
  775SOL     MW 3100   2.301   2.972   2.323  0.4884  1.0196 -0.1253
  776SOL     OW 3101   0.106   1.519   0.122 -0.0839 -0.7546  0.1793
  776SOL    HW1 3102   0.198   1.485   0.112  0.6920 -0.8681 -2.7596
  776SOL    HW2 3103   0.068   1.458   0.185 -1.8829  1.2217  0.2656
  776SOL     MW 3104   0.113   1.507   0.129 -0.2189 -0.5089 -0.1971
  777SOL     OW 3105   3.023   1.131   1.729  0.2792  0.1735 -0.4880
  777SOL    HW1 3106   2.995   1.166   1.647 -0.5585  0.7403  3.2362
  777SOL    HW2 3107   2.940   1.102   1.761  1.4000 -1.8883  0.1596
  777SOL     MW 3108   3.008   1.132   1.722  0.3165 -0.0238  0.0888
  778SOL     OW 3109   2.800   0.426   2.701 -0.1596  0.0799  0.1022
  778SOL    HW1 3110   2.755   0.427   2.782  1.7849  1.4853 -2.4419
  778SOL    HW2 3111   2.795   0.515   2.662  2.1542 -0.0646 -0.5822
  778SOL     MW 3112   2.794   0.438   2.707  0.4023  0.2463 -0.3237
  779SOL     OW 3113   2.244   0.563   2.180  0.5017 -0.2842  0.8374
  779SOL    HW1 3114   2.168   0.618   2.170 -0.3301 -2.4359 -2.8433
  779SOL    HW2 3115   2.225   0.518   2.264 -3.8779  4.0602 -0.5441
  779SOL     MW 3116   2.232   0.565   2.190 -0.1859  0.0051  0.1695
  780SOL     OW 3117   0.117   0.311   2.683  0.0127  0.2425 -0.1595
  780SOL    HW1 3118   0.032   0.271   2.701 -2.3193  2.9521  2.0489
  780SOL    HW2 3119   0.089   0.400   2.687 -0.2939  2.2470 -1.1590
  780SOL     MW 3120   0.102   0.318   2.686 -0.3354  0.8644  0.0000
  781SOL     OW 3121   3.055   1.313   2.450  0.4538 -0.2775 -0.0793
  781SOL    HW1 3122   3.035   1.374   2.377  0.6841 -0.7346  0.7571
  781SOL    HW2 3123   3.086   1.231   2.412  2.1278 -1.7361 -0.7120
  781SOL     MW 3124   3.056   1.310   2.435  0.7051 -0.5303 -0.0524
  782SOL     OW 3125   0.635   1.576   0.036  0.3545  0.1522 -0.8644
  782SOL    HW1 3126   0.559   1.573  -0.013  4.4034  2.4955  2.5172
  782SOL    HW2 3127   0.630   1.660   0.090  2.9080 -0.5204  2.1852
  782SOL     MW 3128   0.624   1.587   0.037  1.2256  0.3726 -0.0158
  783SOL     OW 3129   2.707   0.637   2.458 -0.4000  0.3920 -0.0182
  783SOL    HW1 3130   2.690   0.659   2.370  1.1731 -1.0985  1.0897
  783SOL    HW2 3131   2.642   0.571   2.494  0.0666 -0.6967  2.7292
  783SOL     MW 3132   2.696   0.631   2.451 -0.1309  0.0517  0.4904
  784SOL     OW 3133   0.154   0.855   2.873 -0.6305 -0.4806 -0.1151
  784SOL    HW1 3134   0.070   0.900   2.883  4.0382  1.2580 -0.3372
  784SOL    HW2 3135   0.197   0.898   2.795  0.6193 -1.7957  0.1904
  784SOL     MW 3136   0.149   0.866   2.864  0.1504 -0.4247 -0.1041
  785SOL     OW 3137   0.439   0.461   2.167 -0.1370  0.4527 -0.2490
  785SOL    HW1 3138   0.446   0.500   2.077 -2.9091 -3.7549 -1.0961
  785SOL    HW2 3139   0.366   0.404   2.178  0.6826  0.5788  1.1429
  785SOL     MW 3140   0.430   0.459   2.157 -0.3946 -0.0858 -0.1771
  786SOL     OW 3141   1.907   0.387   2.964  0.4262 -0.2853 -0.3014
  786SOL    HW1 3142   1.874   0.476   2.972  1.0208  2.2823  0.4309
  786SOL    HW2 3143   1.958   0.365   2.887 -1.0549  1.6310 -0.3601
  786SOL     MW 3144   1.910   0.396   2.954  0.3092  0.3063 -0.2125
  787SOL     OW 3145   2.480   0.085   2.952 -0.1584  0.2445  1.0856
  787SOL    HW1 3146   2.546   0.038   2.894  0.1650 -1.3011 -1.7213
  787SOL    HW2 3147   2.529   0.167   2.972  2.2114 -0.4365 -0.8881
  787SOL     MW 3148   2.495   0.090   2.947  0.1969 -0.0493  0.4549
  788SOL     OW 3149   2.877   3.045   2.431  0.0083 -0.0805  0.3129
  788SOL    HW1 3150   2.901   3.053   2.525  0.9383 -1.3625  0.4988
  788SOL    HW2 3151   2.811   2.972   2.427  0.6210 -0.1018  0.0613
  788SOL     MW 3152   2.871   3.037   2.443  0.2118 -0.2525  0.3042
  789SOL     OW 3153   0.068   0.196   3.034 -0.3654  0.1232 -0.0502
  789SOL    HW1 3154  -0.001   0.127   3.036 -1.3592 -0.6296 -0.4805
  789SOL    HW2 3155   0.056   0.263   2.965 -2.2676  0.1502  2.1952
  789SOL     MW 3156   0.057   0.196   3.025 -0.7475  0.0274  0.1893
  790SOL     OW 3157   3.087   1.042   2.357 -0.1482  0.3844  0.0353
  790SOL    HW1 3158   3.052   1.012   2.442  0.0910 -1.2375 -0.9036
  790SOL    HW2 3159   3.014   1.048   2.294 -1.3316  0.3070 -2.7179
  790SOL     MW 3160   3.073   1.039   2.360 -0.2727  0.1602 -0.4519
  791SOL     OW 3161   2.559   0.435   2.575  0.2453 -0.1127 -0.2395
  791SOL    HW1 3162   2.517   0.502   2.643 -3.0915 -0.3143  1.4571
  791SOL    HW2 3163   2.634   0.402   2.629  1.9518 -1.1041  0.9641
  791SOL     MW 3164   2.563   0.440   2.591  0.0302 -0.2701  0.1432
  792SOL     OW 3165   2.332   0.200   2.425 -0.0400 -0.2343 -0.1501
  792SOL    HW1 3166   2.316   0.295   2.437  1.7791 -0.4949  0.2653
  792SOL    HW2 3167   2.302   0.178   2.514  0.5509 -0.6743  0.1440
  792SOL     MW 3168   2.326   0.209   2.438  0.2780 -0.3267 -0.0565
  793SOL     OW 3169   1.939   1.174   1.983  0.9030  0.9086 -0.3735
  793SOL    HW1 3170   1.902   1.121   1.909  1.2423 -1.7650  1.0524
  793SOL    HW2 3171   2.030   1.195   1.966 -0.7263 -0.2634  1.5161
  793SOL     MW 3172   1.946   1.170   1.971  0.7328  0.4012  0.0639
  794SOL     OW 3173   1.409   2.376   0.134  0.0425 -0.0496  0.0641
  794SOL    HW1 3174   1.457   2.432   0.067 -0.0382  0.9689  0.7366
  794SOL    HW2 3175   1.468   2.367   0.210 -0.2423  1.1369  0.5835
  794SOL     MW 3176   1.423   2.382   0.135 -0.0057  0.2413  0.2214
  795SOL     OW 3177   2.320   1.005   2.542  0.1465 -0.2218 -0.3322
  795SOL    HW1 3178   2.266   1.074   2.587  1.0969  2.5152 -1.2925
  795SOL    HW2 3179   2.366   1.048   2.470 -0.2510 -0.2123 -1.8075
  795SOL     MW 3180   2.319   1.020   2.539  0.2194  0.1406 -0.6535
  796SOL     OW 3181   0.249   0.611   2.756  0.0449 -0.5557  0.3562
  796SOL    HW1 3182   0.227   0.692   2.805  2.6043  1.7034  2.0964
  796SOL    HW2 3183   0.183   0.603   2.685 -1.6049 -0.9876  1.9442
  796SOL     MW 3184   0.237   0.621   2.753  0.1649 -0.3146  0.7953
  797SOL     OW 3185   2.610   0.144   2.581 -0.2416  0.4445  0.0888
  797SOL    HW1 3186   2.545   0.204   2.593  0.5525  0.4036 -1.3589
  797SOL    HW2 3187   2.657   0.171   2.497 -0.6880  1.0515  1.0415
  797SOL     MW 3188   2.607   0.155   2.571 -0.1957  0.5192  0.0234
  798SOL     OW 3189   2.346   0.087   2.143 -0.2355  0.0676  0.0459
  798SOL    HW1 3190   2.364   0.141   2.217 -1.7842 -3.4312 -0.2478
  798SOL    HW2 3191   2.437   0.061   2.120 -1.1286 -3.2519  0.3806
  798SOL     MW 3192   2.360   0.091   2.149 -0.5577 -0.8320  0.0513
  799SOL     OW 3193   2.561   2.950   0.118  0.0478 -0.4485  0.1022
  799SOL    HW1 3194   2.485   2.919   0.072 -1.3718  3.3374 -0.5803
  799SOL    HW2 3195   2.545   2.960   0.211 -0.2876 -0.5595 -1.9524
  799SOL     MW 3196   2.549   2.947   0.124 -0.1838  0.0364 -0.2589
  800SOL     OW 3197   1.926   0.036   1.718 -0.3558 -0.4680 -0.6825
  800SOL    HW1 3198   1.885  -0.044   1.688  0.6172 -0.6973  0.9646
  800SOL    HW2 3199   1.956   0.017   1.808 -1.5945 -0.1458  1.6048
  800SOL     MW 3200   1.924   0.023   1.726 -0.3909 -0.4557 -0.1633
  801SOL     OW 3201   2.816   1.246   2.612  0.2557  0.2631  0.3590
  801SOL    HW1 3202   2.821   1.151   2.597 -3.1687 -1.0604 -2.5365
  801SOL    HW2 3203   2.894   1.279   2.568 -0.8120  0.4672  2.0096
  801SOL     MW 3204   2.827   1.238   2.604 -0.3370  0.1154  0.1947
  802SOL     OW 3205   2.598   1.482   2.812 -0.3301 -0.2399  0.3810
  802SOL    HW1 3206   2.565   1.400   2.772 -1.5378  1.4888 -1.1195
  802SOL    HW2 3207   2.687   1.467   2.853  1.6100  1.7235  1.8851
  802SOL     MW 3208   2.605   1.469   2.812 -0.2335  0.2473  0.3815
  803SOL     OW 3209   2.232   1.371   2.035 -0.0665  1.0055 -0.0294
  803SOL    HW1 3210   2.225   1.333   2.121  0.5152 -2.4341 -1.8666
  803SOL    HW2 3211   2.246   1.290   1.985  0.1247  1.3234 -0.1186
  803SOL     MW 3212   2.233   1.355   2.040  0.0355  0.5936 -0.2836
  804SOL     OW 3213   2.252   0.082   0.045 -0.0036  0.1033 -0.4929
  804SOL    HW1 3214   2.204   0.167   0.032 -0.1890  0.1189 -3.0930
  804SOL    HW2 3215   2.320   0.080  -0.021 -1.8584 -0.6729  1.3250
  804SOL     MW 3216   2.255   0.093   0.034 -0.2728  0.0030 -0.5961
  805SOL     OW 3217   2.736   0.947   2.600 -0.8303  0.0346  0.5811
  805SOL    HW1 3218   2.656   0.894   2.594 -0.5679  1.4379 -0.3205
  805SOL    HW2 3219   2.813   0.889   2.599  1.0368 -0.0720 -1.8934
  805SOL     MW 3220   2.736   0.932   2.599 -0.5493  0.2057  0.1356
  806SOL     OW 3221   2.516   0.631   2.221  0.4733 -0.4824 -0.4553
  806SOL    HW1 3222   2.441   0.606   2.164  2.7232 -1.2002 -0.6136
  806SOL    HW2 3223   2.549   0.711   2.190  0.8255 -0.7557  1.2998
  806SOL     MW 3224   2.510   0.638   2.210  0.8166 -0.6132 -0.2446
  807SOL     OW 3225   0.098   1.082   2.046  0.6537  0.3791  0.1919
  807SOL    HW1 3226   0.135   1.008   2.091 -0.1710  2.0014 -2.6029
  807SOL    HW2 3227  -0.000   1.083   2.054  2.2947 -0.3831  0.3759
  807SOL     MW 3228   0.090   1.073   2.053  0.7614  0.4926 -0.1526
  808SOL     OW 3229   2.649   3.063   2.778  0.2153 -0.5275  0.1660
  808SOL    HW1 3230   2.589   2.988   2.788 -0.1955 -3.2584 -1.3119
  808SOL    HW2 3231   2.622   3.114   2.699  0.6177  0.1775  2.9686
  808SOL     MW 3232   2.637   3.060   2.769  0.2142 -0.7948  0.3408
  809SOL     OW 3233   2.589   1.381   2.449 -0.1975  0.1066  0.2386
  809SOL    HW1 3234   2.607   1.305   2.499 -1.6103 -1.2415  0.0984
  809SOL    HW2 3235   2.652   1.369   2.371 -0.7405 -0.5433  0.2140
  809SOL     MW 3236   2.599   1.369   2.446 -0.4555 -0.1570  0.2168
  810SOL     OW 3237   2.230   1.317   2.297 -0.1270 -0.0124  0.0102
  810SOL    HW1 3238   2.294   1.248   2.313  0.1152  4.1755  0.4780
  810SOL    HW2 3239   2.192   1.338   2.384 -1.2459  1.9964 -0.7171
  810SOL     MW 3240   2.233   1.310   2.310 -0.2427  0.8052 -0.0240
  811SOL     OW 3241   1.526   0.145   2.321  0.2855  0.1126 -0.1549
  811SOL    HW1 3242   1.615   0.109   2.344 -0.7846 -1.5913  0.9382
  811SOL    HW2 3243   1.513   0.119   2.230  0.7262  1.4772 -0.6003
  811SOL     MW 3244   1.536   0.137   2.312  0.2025  0.0679 -0.0694
  812SOL     OW 3245   1.458   2.782   2.009 -0.2876  0.3643  0.1649
  812SOL    HW1 3246   1.549   2.791   1.974 -1.8620 -0.6045  0.4277
  812SOL    HW2 3247   1.473   2.805   2.101 -0.8910 -0.3147 -2.0235
  812SOL     MW 3248   1.472   2.787   2.017 -0.5750  0.1469 -0.0891
  813SOL     OW 3249   1.969   0.630   2.246  0.0344  1.0202  0.5467
  813SOL    HW1 3250   1.930   0.554   2.212  0.8402  1.0768 -2.1839
  813SOL    HW2 3251   1.908   0.673   2.307 -2.1181  3.9091  0.5286
  813SOL     MW 3252   1.956   0.626   2.249 -0.1433  1.4088  0.1840
  814SOL     OW 3253   2.697   1.258   1.634 -0.0991  0.2245 -0.1120
  814SOL    HW1 3254   2.628   1.227   1.692 -1.1599 -1.3905  1.3251
  814SOL    HW2 3255   2.676   1.216   1.544  1.1501  1.4522  0.6869
  814SOL     MW 3256   2.685   1.249   1.630 -0.0743  0.1734  0.1830
  815SOL     OW 3257   2.576   1.742   2.410 -0.1512  0.1205 -0.2567
  815SOL    HW1 3258   2.507   1.673   2.408 -0.2813  1.3599 -1.8030
  815SOL    HW2 3259   2.655   1.696   2.447  3.0292 -2.4705 -1.6817
  815SOL     MW 3260   2.577   1.727   2.415  0.2512 -0.0578 -0.6488
  816SOL     OW 3261   0.722   0.702   2.714 -0.3046  0.3336  0.0336
  816SOL    HW1 3262   0.741   0.615   2.753 -1.7639 -3.1350 -2.3795
  816SOL    HW2 3263   0.647   0.706   2.649 -0.8557 -1.5972 -0.8365
  816SOL     MW 3264   0.714   0.691   2.711 -0.5698 -0.3788 -0.3996
  817SOL     OW 3265   3.009   1.211   1.452  0.4027  0.1877  0.1285
  817SOL    HW1 3266   3.102   1.185   1.431  2.2876 -1.2985  0.7594
  817SOL    HW2 3267   2.996   1.290   1.391 -0.6227 -0.4870 -1.3120
  817SOL     MW 3268   3.019   1.218   1.441  0.5161 -0.0974  0.0217
  818SOL     OW 3269   1.906   1.037   2.693 -0.1034 -0.5846  0.4573
  818SOL    HW1 3270   1.881   0.980   2.615  0.6265  0.4448  0.4165
  818SOL    HW2 3271   1.976   0.991   2.742 -0.7518  0.3883  0.3138
  818SOL     MW 3272   1.912   1.023   2.689 -0.0926 -0.3204  0.4330
  819SOL     OW 3273   1.994   0.262   2.518 -0.2322 -0.5086  0.1625
  819SOL    HW1 3274   1.923   0.324   2.481  0.6895  0.4268 -1.0155
  819SOL    HW2 3275   1.993   0.280   2.611 -0.5898  0.9694 -1.0249
  819SOL     MW 3276   1.984   0.272   2.525 -0.1577 -0.1901 -0.1496
  820SOL     OW 3277   2.516   1.739   2.670 -0.0306  0.5094  0.6153
  820SOL    HW1 3278   2.533   1.654   2.709 -1.8396  1.4185  1.9332
  820SOL    HW2 3279   2.524   1.733   2.571 -0.7597  3.2606 -0.9445
  820SOL     MW 3280   2.519   1.727   2.662 -0.3655  0.9924  0.5834
  821SOL     OW 3281   2.580   1.365   2.016  0.2517  0.6811  0.1782
  821SOL    HW1 3282   2.608   1.438   1.956  0.0849 -2.9830  3.4269
  821SOL    HW2 3283   2.485   1.373   2.001  1.5902 -3.0452  1.3105
  821SOL     MW 3284   2.571   1.376   2.006  0.4063 -0.2940  0.7562
  822SOL     OW 3285   2.786   2.653   1.399 -0.6067 -0.8422 -0.3431
  822SOL    HW1 3286   2.848   2.680   1.471  0.0519  0.1143 -2.2468
  822SOL    HW2 3287   2.737   2.733   1.368 -2.2542  0.9614 -0.0265
  822SOL     MW 3288   2.788   2.667   1.405 -0.7372 -0.4781 -0.5525
  823SOL     OW 3289   2.369   0.477   1.774  0.0453 -0.0920 -0.6579
  823SOL    HW1 3290   2.445   0.457   1.729 -2.5484  0.2729 -2.6309
  823SOL    HW2 3291   2.376   0.404   1.832 -2.2139  1.0547 -2.2278
  823SOL     MW 3292   2.380   0.465   1.776 -0.5950  0.1074 -1.1253
  824SOL     OW 3293   2.160   1.433   2.546 -0.4249  0.5330 -0.4127
  824SOL    HW1 3294   2.247   1.475   2.537 -1.0961  1.5354  1.3622
  824SOL    HW2 3295   2.118   1.500   2.595 -0.0427  1.3873 -1.8446
  824SOL     MW 3296   2.166   1.448   2.551 -0.4630  0.7780 -0.3674
  825SOL     OW 3297   1.861   2.540   0.266 -0.7321  0.4840 -0.3364
  825SOL    HW1 3298   1.857   2.493   0.345  1.0468  1.6243 -1.6245
  825SOL    HW2 3299   1.941   2.508   0.222 -1.0080  0.9137 -2.0493
  825SOL     MW 3300   1.871   2.530   0.271 -0.5338  0.6912 -0.7323
  826SOL     OW 3301   1.837   2.386   0.524  0.5315 -0.2369  0.3942
  826SOL    HW1 3302   1.803   2.308   0.568  0.7512  1.1905  1.7868
  826SOL    HW2 3303   1.794   2.460   0.566  1.8917 -2.3396  0.8995
  826SOL     MW 3304   1.827   2.386   0.535  0.7399 -0.3260  0.6446
  827SOL     OW 3305   1.929   2.184   0.859 -0.1008 -0.2469  0.9624
  827SOL    HW1 3306   1.880   2.214   0.786  3.2153 -0.2498 -0.5467
  827SOL    HW2 3307   1.866   2.129   0.917  1.1324 -1.3452 -0.9458
  827SOL     MW 3308   1.914   2.180   0.857  0.4994 -0.3922  0.5115
  828SOL     OW 3309   0.051   2.571   0.578  0.2828  0.1671  0.5144
  828SOL    HW1 3310   0.145   2.571   0.577 -1.1994 -0.3279 -0.2571
  828SOL    HW2 3311   0.007   2.620   0.511  0.1260 -1.7875  0.9344
  828SOL     MW 3312   0.057   2.577   0.569  0.0666 -0.1561  0.4680
  829SOL     OW 3313   2.990   2.966   1.153 -0.1443  0.3103 -0.0206
  829SOL    HW1 3314   2.907   2.931   1.116  1.3028 -0.2355 -0.0025
  829SOL    HW2 3315   3.053   2.893   1.155  0.5906  0.9985 -1.8377
  829SOL     MW 3316   2.987   2.952   1.148  0.1436  0.3291 -0.2580
  830SOL     OW 3317   2.566   2.820   2.032 -0.1972  0.6285  0.1527
  830SOL    HW1 3318   2.470   2.825   2.003 -3.3782 -1.6240  0.0005
  830SOL    HW2 3319   2.599   2.789   1.945 -0.0270 -2.6725 -1.8261
  830SOL     MW 3320   2.558   2.817   2.017 -0.5944 -0.1042 -0.1285
  831SOL     OW 3321   2.376   2.498   1.217  0.6852  0.1947  0.0668
  831SOL    HW1 3322   2.364   2.453   1.299 -1.6040 -0.8944  1.8551
  831SOL    HW2 3323   2.446   2.442   1.188 -2.1982  1.5679  0.3945
  831SOL     MW 3324   2.383   2.485   1.224  0.0027  0.2322  0.3460
  832SOL     OW 3325   2.364   2.195   1.915  0.4179 -0.0489  0.0962
  832SOL    HW1 3326   2.403   2.280   1.938  2.3657  1.6154 -0.1071
  832SOL    HW2 3327   2.434   2.132   1.890 -3.1280 -0.2751 -1.2165
  832SOL     MW 3328   2.378   2.198   1.914  0.2071  0.1409 -0.1039
  833SOL     OW 3329   1.735   2.454   0.901  0.4590 -0.0619  0.6207
  833SOL    HW1 3330   1.644   2.425   0.906 -0.5224 -2.3226 -1.1893
  833SOL    HW2 3331   1.743   2.516   0.963 -0.9696 -0.0599 -2.5712
  833SOL     MW 3332   1.724   2.458   0.910  0.1411 -0.3599 -0.0393
  834SOL     OW 3333   2.110   2.456   0.600 -0.1137  0.1945  0.2693
  834SOL    HW1 3334   2.012   2.436   0.580 -1.6173 -2.1124 -0.8606
  834SOL    HW2 3335   2.176   2.447   0.522 -1.0282  0.1717 -0.2275
  834SOL     MW 3336   2.106   2.452   0.587 -0.4328 -0.1129  0.0547
  835SOL     OW 3337   1.767   2.614   0.682  0.2239  0.4822  0.7191
  835SOL    HW1 3338   1.747   2.561   0.767  1.5717 -1.2197  2.3745
  835SOL    HW2 3339   1.836   2.671   0.693 -0.1953 -2.9546  1.4041
  835SOL     MW 3340   1.773   2.614   0.695  0.3464 -0.1958  1.0279
  836SOL     OW 3341   1.926   2.215   1.634 -0.3056 -0.0093  0.1529
  836SOL    HW1 3342   1.987   2.287   1.631 -0.4157  0.3679  1.2973
  836SOL    HW2 3343   1.835   2.246   1.648 -0.3964 -0.4917  1.0449
  836SOL     MW 3344   1.922   2.229   1.635 -0.3321 -0.0232  0.4216
  837SOL     OW 3345   2.081   0.183   0.679 -0.2563 -1.0088 -0.0655
  837SOL    HW1 3346   2.022   0.241   0.625  0.2728  2.4377  0.1242
  837SOL    HW2 3347   2.111   0.112   0.624  0.4181 -1.8138  1.6477
  837SOL     MW 3348   2.077   0.182   0.665 -0.0975 -0.6603  0.1856
  838SOL     OW 3349   2.927   2.060   0.918 -0.4634  0.3321  0.2278
  838SOL    HW1 3350   2.860   2.022   0.975  1.5810  0.1040  2.0046
  838SOL    HW2 3351   2.976   1.993   0.872  1.2415  0.3887  0.6544
  838SOL     MW 3352   2.924   2.046   0.920  0.0313  0.3095  0.5186
  839SOL     OW 3353   1.489   2.338   0.969  0.6322 -0.1661 -0.3800
  839SOL    HW1 3354   1.463   2.404   1.035 -2.9844 -3.0849  1.0177
  839SOL    HW2 3355   1.526   2.258   1.019  1.3811  1.9735  2.9663
  839SOL     MW 3356   1.491   2.336   0.984  0.2538 -0.2689  0.2459
  840SOL     OW 3357   2.369   2.149   2.434  0.0395 -0.6369 -0.2220
  840SOL    HW1 3358   2.290   2.204   2.415  1.6161 -2.9387  2.2349
  840SOL    HW2 3359   2.412   2.190   2.509  1.9994  1.3778 -1.6967
  840SOL     MW 3360   2.364   2.162   2.441  0.5061 -0.6748 -0.0924
  841SOL     OW 3361   2.111   2.431   0.139 -0.2990 -0.0950  0.1852
  841SOL    HW1 3362   2.142   2.477   0.057 -0.5615 -0.2042 -1.6884
  841SOL    HW2 3363   2.095   2.337   0.117 -1.5081  1.3225  1.9148
  841SOL     MW 3364   2.113   2.424   0.125 -0.4932  0.0776  0.1662
  842SOL     OW 3365   2.576   2.083   1.530 -0.7869  0.1461 -0.4297
  842SOL    HW1 3366   2.533   1.999   1.539  2.5867 -2.8878 -1.7972
  842SOL    HW2 3367   2.556   2.107   1.443  0.0585 -0.0482  0.9758
  842SOL     MW 3368   2.568   2.075   1.520 -0.2303 -0.2798 -0.4247
  843SOL     OW 3369   2.660   2.764   1.751 -0.4891  0.2214  0.2546
  843SOL    HW1 3370   2.743   2.718   1.717  3.1035 -0.4669 -1.2730
  843SOL    HW2 3371   2.586   2.702   1.720 -2.9700 -1.3051 -2.4042
  843SOL     MW 3372   2.662   2.750   1.742 -0.3424 -0.0708 -0.2977
  844SOL     OW 3373   2.589   2.325   1.146  0.5010  0.0091  0.0112
  844SOL    HW1 3374   2.618   2.368   1.061 -4.2395  2.0391  0.2388
  844SOL    HW2 3375   2.655   2.333   1.213 -0.1973  1.9949  0.7686
  844SOL     MW 3376   2.602   2.331   1.143 -0.2166  0.5389  0.1411
  845SOL     OW 3377   2.823   2.449   0.301 -0.0853  0.2653  0.1816
  845SOL    HW1 3378   2.770   2.370   0.311  1.0126  0.7024  0.8898
  845SOL    HW2 3379   2.843   2.465   0.393 -0.3858 -2.1853  2.0728
  845SOL     MW 3380   2.819   2.441   0.315  0.0199 -0.0004  0.5246
  846SOL     OW 3381   1.529   2.910   0.741 -0.4834 -0.0841 -0.3783
  846SOL    HW1 3382   1.611   2.939   0.782  0.6609 -0.1638 -0.2847
  846SOL    HW2 3383   1.456   2.926   0.809  1.5857  1.3266  0.6565
  846SOL     MW 3384   1.530   2.916   0.756 -0.0594  0.0915 -0.2294
  847SOL     OW 3385   2.606   1.922   0.176  0.5021 -0.3081 -0.0220
  847SOL    HW1 3386   2.684   1.876   0.188 -1.1400  0.2376  0.8648
  847SOL    HW2 3387   2.562   1.887   0.090 -1.5383  0.1635  2.1446
  847SOL     MW 3388   2.610   1.911   0.166  0.0162 -0.1739  0.3809
  848SOL     OW 3389   2.434   2.126   1.298 -0.7175 -0.6025 -0.0362
  848SOL    HW1 3390   2.483   2.159   1.227 -1.0233  0.0123 -0.8965
  848SOL    HW2 3391   2.411   2.040   1.269 -0.5194 -0.7367 -1.5905
  848SOL     MW 3392   2.437   2.119   1.285 -0.7317 -0.5391 -0.3548
  849SOL     OW 3393   1.976   2.781   0.735 -0.1725 -0.0896 -0.1808
  849SOL    HW1 3394   1.997   2.711   0.794 -0.7840 -1.6449 -1.3742
  849SOL    HW2 3395   2.056   2.805   0.683 -2.9086 -1.5274  1.1184
  849SOL     MW 3396   1.989   2.775   0.736 -0.6142 -0.4845 -0.1668
  850SOL     OW 3397   2.200   1.960   1.678 -0.7422  0.6823  0.3374
  850SOL    HW1 3398   2.127   1.913   1.628 -1.6310  1.1727 -2.0615
  850SOL    HW2 3399   2.168   2.047   1.700  1.5091 -0.9946 -0.5358
  850SOL     MW 3400   2.186   1.965   1.674 -0.5625  0.5257 -0.0943
  851SOL     OW 3401   2.253   2.403   0.366 -0.3023  0.3012 -0.3110
  851SOL    HW1 3402   2.190   2.403   0.284 -0.1274  2.5043  1.0776
  851SOL    HW2 3403   2.314   2.476   0.337  1.1426  0.7875 -1.5903
  851SOL     MW 3404   2.253   2.413   0.351 -0.0886  0.6560 -0.2966
  852SOL     OW 3405   2.313   2.160   0.179  0.1002 -0.1076  0.3085
  852SOL    HW1 3406   2.311   2.230   0.249  1.2084 -2.8922  0.7585
  852SOL    HW2 3407   2.401   2.175   0.132 -1.4413  0.6982 -0.4796
  852SOL     MW 3408   2.324   2.171   0.182  0.0430 -0.3686  0.2639
  853SOL     OW 3409   2.459   2.453   1.972 -0.6390 -0.0177 -0.2336
  853SOL    HW1 3410   2.460   2.508   1.895  0.7291  2.1881  0.6955
  853SOL    HW2 3411   2.544   2.450   2.017 -0.0922  1.4509 -0.9539
  853SOL     MW 3412   2.470   2.460   1.968 -0.3864  0.4671 -0.2060
  854SOL     OW 3413   2.827   2.273   0.786 -0.6305 -0.2362 -0.1344
  854SOL    HW1 3414   2.750   2.223   0.758 -1.7163  0.7676 -0.6436
  854SOL    HW2 3415   2.871   2.222   0.854 -0.1975 -0.9582 -1.5117
  854SOL     MW 3416   2.822   2.260   0.791 -0.7166 -0.1990 -0.3833
  855SOL     OW 3417   2.666   2.224   0.331  0.3848  0.2060  0.6050
  855SOL    HW1 3418   2.653   2.272   0.417  0.3901  2.7855  1.5278
  855SOL    HW2 3419   2.752   2.183   0.329 -2.7833 -0.9679 -1.3115
  855SOL     MW 3420   2.675   2.225   0.342 -0.0325  0.3914  0.4739
  856SOL     OW 3421   2.189   1.921   0.233 -0.0226 -0.5170 -0.0118
  856SOL    HW1 3422   2.097   1.930   0.260 -0.2341  1.7953  0.1800
  856SOL    HW2 3423   2.221   2.012   0.227  0.1620 -0.6286  1.0988
  856SOL     MW 3424   2.181   1.934   0.236 -0.0262 -0.2266  0.1600
  857SOL     OW 3425   2.594   2.018   0.479  0.5627 -0.0497 -0.3979
  857SOL    HW1 3426   2.613   2.085   0.407 -1.3202  1.4407 -2.0486
  857SOL    HW2 3427   2.505   1.991   0.464 -4.4091  0.4530 -0.5815
  857SOL     MW 3428   2.585   2.023   0.468 -0.3417  0.2133 -0.6399
  858SOL     OW 3429   2.887   2.650   1.671 -0.0564  0.0281 -0.0346
  858SOL    HW1 3430   2.972   2.657   1.718 -1.0920 -3.5262 -0.3630
  858SOL    HW2 3431   2.851   2.572   1.713 -0.8371  1.7772  0.9528
  858SOL     MW 3432   2.893   2.641   1.683 -0.2961 -0.2101  0.0524
  859SOL     OW 3433   2.128   2.495   0.864  0.1712  0.4737  0.1650
  859SOL    HW1 3434   2.124   2.451   0.777 -0.2105  0.6181  0.9906
  859SOL    HW2 3435   2.224   2.511   0.871 -1.6508 -0.6845  1.9894
  859SOL     MW 3436   2.140   2.491   0.853 -0.1195  0.3399  0.5146
  860SOL     OW 3437   2.663   2.588   0.126 -0.1547  0.4367  0.2409
  860SOL    HW1 3438   2.712   2.563   0.205  0.4917 -1.4754 -0.2290
  860SOL    HW2 3439   2.708   2.665   0.084  0.6019 -1.4669 -2.4833
  860SOL     MW 3440   2.675   2.595   0.131  0.0304 -0.0667 -0.1805
  861SOL     OW 3441   1.565   2.137   1.198  0.0108 -0.0763 -1.0230
  861SOL    HW1 3442   1.531   2.224   1.219 -1.6355  3.6791 -0.7262
  861SOL    HW2 3443   1.499   2.075   1.228  0.7123  1.4003  0.8107
  861SOL     MW 3444   1.552   2.141   1.205 -0.1139  0.6140 -0.7419
  862SOL     OW 3445   2.417   1.856   1.524  0.5178 -1.3512  1.0067
  862SOL    HW1 3446   2.340   1.870   1.584 -0.0897 -1.2572 -2.2153
  862SOL    HW2 3447   2.370   1.865   1.438  1.1646  0.7471  0.3446
  862SOL     MW 3448   2.401   1.859   1.521  0.5230 -1.0619  0.4942
  863SOL     OW 3449   0.026   1.809   1.175 -0.1387  0.8004 -0.6447
  863SOL    HW1 3450   0.100   1.858   1.135 -0.2398  1.1383 -0.6842
  863SOL    HW2 3451  -0.019   1.872   1.227  3.5183  4.1837 -1.3881
  863SOL     MW 3452   0.030   1.824   1.177  0.3305  1.2914 -0.7480
  864SOL     OW 3453   0.017   1.841   0.824  0.3131  0.1583 -0.1837
  864SOL    HW1 3454  -0.047   1.803   0.888  0.1159  1.8348  0.3946
  864SOL    HW2 3455  -0.018   1.809   0.737 -1.3111  0.9192  3.9123
  864SOL     MW 3456   0.004   1.832   0.821  0.0728  0.4799  0.4331
  865SOL     OW 3457   2.555   2.170   0.050  0.3034 -0.3455 -0.1209
  865SOL    HW1 3458   2.565   2.089   0.100  0.9487  2.8193 -0.4560
  865SOL    HW2 3459   2.523   2.145  -0.038  3.1967 -0.4960  0.1728
  865SOL     MW 3460   2.552   2.156   0.045  0.7703  0.0522 -0.1263
  866SOL     OW 3461   2.633   2.342   1.619  0.1218  0.2355  0.7025
  866SOL    HW1 3462   2.617   2.243   1.625  1.6434 -1.4114 -0.5715
  866SOL    HW2 3463   2.703   2.359   1.555 -0.0495  1.9363  0.6811
  866SOL     MW 3464   2.640   2.331   1.611  0.2999  0.2426  0.5316
  867SOL     OW 3465   0.042   2.698   1.829  0.0843 -0.3332 -0.0960
  867SOL    HW1 3466   0.027   2.713   1.922 -2.1708 -3.6578  2.5689
  867SOL    HW2 3467   0.021   2.784   1.782 -2.2883 -1.1803 -0.3946
  867SOL     MW 3468   0.037   2.712   1.835 -0.5263 -0.8836  0.2162
  868SOL     OW 3469   2.799   2.587   0.554 -0.1555  0.0570 -0.7354
  868SOL    HW1 3470   2.709   2.549   0.563 -0.2550 -0.7656  0.4573
  868SOL    HW2 3471   2.774   2.675   0.524  2.1315 -0.5774  0.7007
  868SOL     MW 3472   2.784   2.594   0.551  0.1331 -0.1353 -0.3886
  869SOL     OW 3473   1.986   2.369   1.059 -0.3102  1.0061  0.6730
  869SOL    HW1 3474   2.041   2.422   1.003 -0.7483  1.1326 -0.7222
  869SOL    HW2 3475   1.944   2.305   0.998  0.8644 -4.0399 -1.8017
  869SOL     MW 3476   1.988   2.367   1.043 -0.2130  0.3570  0.1624
  870SOL     OW 3477   2.179   3.099   0.467  0.1073  0.3072 -0.0712
  870SOL    HW1 3478   2.231   3.183   0.457 -1.7091 -0.0049  0.1218
  870SOL    HW2 3479   2.243   3.027   0.453  1.3362  0.2828 -1.3950
  870SOL     MW 3480   2.195   3.101   0.464  0.0298  0.2628 -0.2204
  871SOL     OW 3481   2.507   2.081   0.919  0.3645  0.1961 -0.1113
  871SOL    HW1 3482   2.441   2.024   0.875 -1.9099 -1.4422  1.7102
  871SOL    HW2 3483   2.452   2.141   0.966  1.1883 -0.8267 -1.2024
  871SOL     MW 3484   2.491   2.082   0.919  0.1731 -0.1550 -0.0149
  872SOL     OW 3485   2.054   2.527   1.425  0.1862  0.2496 -0.0525
  872SOL    HW1 3486   2.014   2.567   1.505 -2.8148  1.9233 -0.1471
  872SOL    HW2 3487   1.985   2.472   1.391  0.5117 -2.0857  0.5649
  872SOL     MW 3488   2.039   2.525   1.431 -0.1668  0.1623  0.0165
  873SOL     OW 3489   2.849   2.072   1.956  0.8679  0.1503  0.0094
  873SOL    HW1 3490   2.891   2.126   2.022  0.5282 -0.2215 -0.2959
  873SOL    HW2 3491   2.906   2.065   1.876  0.7220 -2.6973 -3.2765
  873SOL     MW 3492   2.862   2.079   1.954  0.8038 -0.2745 -0.4644
  874SOL     OW 3493   2.377   1.553   2.442 -0.5702 -0.2797 -0.3046
  874SOL    HW1 3494   2.320   1.533   2.371 -1.2805  1.5600 -1.6411
  874SOL    HW2 3495   2.455   1.491   2.446  2.3699 -3.0117  0.0596
  874SOL     MW 3496   2.380   1.543   2.433 -0.2760 -0.3974 -0.4329
  875SOL     OW 3497   2.281   2.280   1.025 -0.3777  0.3334  0.7572
  875SOL    HW1 3498   2.307   2.331   0.949 -2.5391 -1.1113 -0.1333
  875SOL    HW2 3499   2.281   2.348   1.087  0.2789  1.3445 -0.0942
  875SOL     MW 3500   2.285   2.295   1.023 -0.5762  0.2762  0.5274
  876SOL     OW 3501   3.030   2.345   1.252  0.1376 -0.0667 -0.1275
  876SOL    HW1 3502   3.056   2.386   1.172  1.9487  2.2239 -2.1017
  876SOL    HW2 3503   3.087   2.382   1.319  1.5688 -2.2050 -1.3560
  876SOL     MW 3504   3.041   2.355   1.250  0.5654 -0.0466 -0.5501
  877SOL     OW 3505   3.059   2.749   0.386  0.3894  0.6402  0.3271
  877SOL    HW1 3506   3.145   2.775   0.415 -1.1125  1.6746  0.9941
  877SOL    HW2 3507   3.073   2.697   0.306 -0.7322 -1.8952  1.2517
  877SOL     MW 3508   3.072   2.745   0.379  0.0432  0.4421  0.5371
  878SOL     OW 3509   2.370   1.846   1.247  0.5164  0.1839 -0.3635
  878SOL    HW1 3510   2.301   1.780   1.243  0.7769 -1.1792  4.5914
  878SOL    HW2 3511   2.452   1.800   1.241 -1.0571 -2.3749 -3.1443
  878SOL     MW 3512   2.372   1.831   1.246  0.3432 -0.3336 -0.0766
  879SOL     OW 3513   2.676   2.452   0.920 -0.1869  0.0770  0.2545
  879SOL    HW1 3514   2.745   2.512   0.946 -1.6853 -0.9336  0.4662
  879SOL    HW2 3515   2.720   2.399   0.849 -0.3004  0.4634 -3.9103
  879SOL     MW 3516   2.691   2.453   0.914 -0.3996 -0.0054 -0.2671
  880SOL     OW 3517   2.575   2.190   0.701 -0.0320  0.2335  0.5697
  880SOL    HW1 3518   2.545   2.147   0.786  0.0226 -0.9214 -2.2802
  880SOL    HW2 3519   2.566   2.126   0.636 -0.4178  1.8803 -1.1280
  880SOL     MW 3520   2.570   2.176   0.704 -0.0757  0.2984 -0.0303
  881SOL     OW 3521   2.958   2.690   0.766  0.0090  0.0255  0.1056
  881SOL    HW1 3522   2.882   2.662   0.713 -1.1009 -1.4757 -1.1973
  881SOL    HW2 3523   3.032   2.659   0.716 -0.0575 -1.2566 -0.1265
  881SOL     MW 3524   2.957   2.682   0.753 -0.1462 -0.3417 -0.0969
  882SOL     OW 3525   2.297   2.816   1.962 -0.4747  0.2964  0.0525
  882SOL    HW1 3526   2.300   2.808   1.867  0.1322  1.7872 -0.2822
  882SOL    HW2 3527   2.242   2.758   2.011 -0.1044  1.7115  1.9631
  882SOL     MW 3528   2.291   2.807   1.956 -0.3458  0.6798  0.2604
  883SOL     OW 3529   2.288   2.316   1.429 -0.1401 -0.3680  0.2286
  883SOL    HW1 3530   2.352   2.251   1.398  1.1812  1.0054 -1.0173
  883SOL    HW2 3531   2.202   2.293   1.385 -0.1538  0.8538  1.3489
  883SOL     MW 3532   2.285   2.304   1.419  0.0324 -0.0256  0.2120
  884SOL     OW 3533   1.938   1.875   1.127  0.6108 -0.0451 -0.0293
  884SOL    HW1 3534   1.883   1.954   1.102 -0.9237  0.6494  0.4799
  884SOL    HW2 3535   2.029   1.903   1.101  0.3800 -0.7318  0.1709
  884SOL     MW 3536   1.942   1.889   1.121  0.3779 -0.0441  0.0643
  885SOL     OW 3537   2.817   2.405   1.812  0.6005  0.1381 -0.6278
  885SOL    HW1 3538   2.904   2.368   1.798 -1.9019  2.2152 -1.5538
  885SOL    HW2 3539   2.756   2.362   1.742 -0.2584 -1.2992 -0.8884
  885SOL     MW 3540   2.821   2.394   1.801  0.1571  0.2225 -0.7844
  886SOL     OW 3541   2.760   2.384   1.385  0.7462  0.3983 -0.2481
  886SOL    HW1 3542   2.839   2.351   1.342 -0.9922 -1.6260  1.4738
  886SOL    HW2 3543   2.765   2.479   1.384 -0.5031  1.5271 -0.6660
  886SOL     MW 3544   2.771   2.392   1.379  0.3520  0.2801 -0.0761
  887SOL     OW 3545   2.333   2.629   1.512  0.2039 -0.1652 -0.4891
  887SOL    HW1 3546   2.354   2.703   1.450  0.7857 -0.5276  3.7650
  887SOL    HW2 3547   2.272   2.567   1.468 -0.1098  1.9997 -1.1979
  887SOL     MW 3548   2.328   2.631   1.498  0.2393  0.0726 -0.0213
  888SOL     OW 3549   1.878   2.052   1.411  0.0864 -0.0362 -0.3446
  888SOL    HW1 3550   1.968   2.061   1.382  1.7711  1.3789 -1.6409
  888SOL    HW2 3551   1.881   2.111   1.484 -0.3616 -0.8360  0.2799
  888SOL     MW 3552   1.891   2.061   1.417  0.2496  0.0450 -0.4332
  889SOL     OW 3553   2.337   1.998   2.113 -0.6104 -0.3474  0.0806
  889SOL    HW1 3554   2.413   1.992   2.176 -0.5321 -2.3539  1.5383
  889SOL    HW2 3555   2.356   2.081   2.070 -1.0056 -0.3773  0.8480
  889SOL     MW 3556   2.350   2.008   2.116 -0.6522 -0.6161  0.3742
  890SOL     OW 3557   0.106   2.334   0.182 -0.1551  0.1238  0.7330
  890SOL    HW1 3558   0.048   2.409   0.179 -0.6973  1.3462 -1.9683
  890SOL    HW2 3559   0.091   2.287   0.268  1.8734 -0.1463  0.2242
  890SOL     MW 3560   0.096   2.338   0.193  0.0410  0.2494  0.3094
  891SOL     OW 3561   2.985   2.022   1.298 -0.4791 -0.0458 -0.0099
  891SOL    HW1 3562   3.043   2.052   1.371  0.7182 -0.0253 -0.3733
  891SOL    HW2 3563   2.976   2.095   1.241 -1.0992  1.8056 -1.0507
  891SOL     MW 3564   2.991   2.036   1.300 -0.4030  0.2012 -0.1952
  892SOL     OW 3565   2.394   2.356   2.916  0.5252  0.2250 -0.7649
  892SOL    HW1 3566   2.439   2.269   2.904  0.1275 -1.5974 -1.7658
  892SOL    HW2 3567   2.463   2.416   2.938  1.2085 -4.5092 -0.2446
  892SOL     MW 3568   2.409   2.353   2.918  0.5629 -0.6401 -0.8283
  893SOL     OW 3569   1.580   2.428   1.246  0.0189 -0.5381  0.3484
  893SOL    HW1 3570   1.516   2.475   1.306  1.0074 -0.0327 -0.7814
  893SOL    HW2 3571   1.663   2.411   1.285 -2.9870  0.3250 -0.8056
  893SOL     MW 3572   1.582   2.432   1.259 -0.2473 -0.3576  0.0471
  894SOL     OW 3573   2.840   1.864   0.446 -0.3487 -0.6161 -0.4593
  894SOL    HW1 3574   2.748   1.876   0.452 -3.9548 -3.2128  0.6653
  894SOL    HW2 3575   2.861   1.819   0.360 -1.9840  1.9195 -0.5295
  894SOL     MW 3576   2.831   1.859   0.436 -1.0402 -0.6242 -0.3202
  895SOL     OW 3577   2.103   2.209   1.251  0.4033  0.1953  0.3272
  895SOL    HW1 3578   2.065   2.267   1.180  1.0024  0.4118  3.8007
  895SOL    HW2 3579   2.134   2.125   1.207  0.7781  0.7642 -0.4845
  895SOL     MW 3580   2.102   2.205   1.236  0.5318  0.2989  0.6784
  896SOL     OW 3581   2.165   2.837   1.116  0.2369 -0.0842 -0.0957
  896SOL    HW1 3582   2.235   2.826   1.177  0.1329 -2.7779  0.2101
  896SOL    HW2 3583   2.093   2.772   1.141  1.2141  0.2829  0.6501
  896SOL     MW 3584   2.164   2.827   1.128  0.3521 -0.3911  0.0431
  897SOL     OW 3585   2.977   2.900   0.124 -0.3396 -0.5792 -0.8476
  897SOL    HW1 3586   3.066   2.876   0.098  0.2202  0.9013  1.7118
  897SOL    HW2 3587   2.919   2.841   0.071  0.7176 -0.4099  3.4495
  897SOL     MW 3588   2.981   2.889   0.114 -0.1263 -0.3615  0.0571
  898SOL     OW 3589   2.089   0.180   1.450  0.1903 -0.4770 -0.2898
  898SOL    HW1 3590   2.025   0.120   1.415  1.3198  0.5455  0.2382
  898SOL    HW2 3591   2.112   0.234   1.373 -1.1054 -0.7458 -1.3743
  898SOL     MW 3592   2.084   0.179   1.435  0.1684 -0.3776 -0.3633
  899SOL     OW 3593   2.889   2.940   0.658 -0.0438 -0.3080 -0.0841
  899SOL    HW1 3594   2.910   2.859   0.708 -1.0337 -0.8412 -0.1748
  899SOL    HW2 3595   2.809   2.978   0.701 -0.8761 -1.7729  0.4419
  899SOL     MW 3596   2.882   2.935   0.670 -0.2842 -0.5717 -0.0266
  900SOL     OW 3597   0.129   2.407   1.033 -0.1728 -0.5265 -0.4427
  900SOL    HW1 3598   0.165   2.479   0.974 -1.9656  1.4793 -0.3993
  900SOL    HW2 3599   0.100   2.330   0.979 -0.6666  0.3293 -0.1898
  900SOL     MW 3600   0.130   2.406   1.018 -0.4745 -0.1490 -0.4036
  901SOL     OW 3601   1.797   2.901   1.674  0.1930 -0.1212  0.0563
  901SOL    HW1 3602   1.860   2.830   1.651 -2.1238  0.2505 -1.0193
  901SOL    HW2 3603   1.723   2.897   1.614 -0.3494  1.4500 -2.1259
  901SOL     MW 3604   1.795   2.891   1.663 -0.1843  0.1351 -0.3735
  902SOL     OW 3605   2.592   2.053   1.863 -0.0110  0.1501  0.1931
  902SOL    HW1 3606   2.584   1.960   1.846  0.8349  1.7329 -0.9732
  902SOL    HW2 3607   2.682   2.064   1.892 -0.2956  3.6674 -1.0882
  902SOL     MW 3608   2.603   2.042   1.864  0.0631  0.8230 -0.1299
  903SOL     OW 3609   1.585   2.751   0.507 -0.1601  0.5663 -0.0094
  903SOL    HW1 3610   1.645   2.686   0.548  1.4902 -2.5154 -2.6760
  903SOL    HW2 3611   1.562   2.815   0.570  1.5513  0.7215 -4.3611
  903SOL     MW 3612   1.590   2.751   0.521  0.2835  0.1802 -0.9354
  904SOL     OW 3613   2.498   2.559   1.710  0.4203 -0.1945 -0.1265
  904SOL    HW1 3614   2.440   2.570   1.637  0.5113 -2.1438  1.6334
  904SOL    HW2 3615   2.543   2.480   1.686 -2.4458  0.0304  1.1747
  904SOL     MW 3616   2.496   2.550   1.697  0.0541 -0.4220  0.2774
  905SOL     OW 3617   2.309   2.498   2.211  0.2485 -0.3837  0.1709
  905SOL    HW1 3618   2.375   2.469   2.153 -1.6052 -0.6372 -0.8324
  905SOL    HW2 3619   2.269   2.415   2.240  0.4442  2.4885 -0.0510
  905SOL     MW 3620   2.313   2.483   2.207  0.0297 -0.0382  0.0093
  906SOL     OW 3621   2.397   2.474   0.840 -0.4446  0.5515  0.3015
  906SOL    HW1 3622   2.488   2.447   0.853 -0.5618  1.4298  0.7235
  906SOL    HW2 3623   2.390   2.563   0.873  2.2201  0.3794  2.6407
  906SOL     MW 3624   2.408   2.482   0.846 -0.1085  0.6447  0.6658
  907SOL     OW 3625   2.587   2.924   1.282 -0.6710 -0.1330  0.0266
  907SOL    HW1 3626   2.665   2.963   1.320 -0.7077 -0.5064  0.6423
  907SOL    HW2 3627   2.614   2.887   1.201 -1.2868 -1.1678 -1.0540
  907SOL     MW 3628   2.601   2.924   1.276 -0.7571 -0.3188 -0.0347
  908SOL     OW 3629   2.734   2.369   3.091  0.7513  0.1410 -0.1090
  908SOL    HW1 3630   2.678   2.290   3.110  3.5860  2.1046 -1.5308
  908SOL    HW2 3631   2.702   2.437   3.143  1.1640  1.7312 -1.4483
  908SOL     MW 3632   2.723   2.367   3.100  1.1798  0.6099 -0.4733
  909SOL     OW 3633   1.576   0.182   1.109  0.3227 -0.0919 -0.2001
  909SOL    HW1 3634   1.602   0.253   1.047 -2.2564  0.6911  0.0517
  909SOL    HW2 3635   1.542   0.222   1.184  0.2486 -0.8092 -1.1389
  909SOL     MW 3636   1.575   0.196   1.110 -0.0274 -0.0832 -0.2907
  910SOL     OW 3637   2.313   1.751   0.387  0.4022 -0.5142  0.2748
  910SOL    HW1 3638   2.256   1.678   0.396  1.7015 -0.2741 -1.3990
  910SOL    HW2 3639   2.261   1.810   0.325 -1.7951  0.2097  0.2638
  910SOL     MW 3640   2.299   1.749   0.380  0.2837 -0.3870  0.0525
  911SOL     OW 3641   2.221   2.267   1.691  0.5336 -0.3967  0.0840
  911SOL    HW1 3642   2.286   2.236   1.750 -1.5893  0.9523 -0.7435
  911SOL    HW2 3643   2.252   2.286   1.599 -1.0108  0.2392 -1.7278
  911SOL     MW 3644   2.233   2.265   1.687  0.0497 -0.1348 -0.2643
  912SOL     OW 3645   2.831   1.954   1.513  0.0925 -0.1895  0.0899
  912SOL    HW1 3646   2.872   1.977   1.430  0.9389  1.1224 -1.9580
  912SOL    HW2 3647   2.739   1.982   1.519 -0.7953 -0.5442  2.4016
  912SOL     MW 3648   2.824   1.961   1.503  0.0870 -0.0632  0.1247
  913SOL     OW 3649   2.535   2.969   0.429  0.4590  0.1284 -0.1245
  913SOL    HW1 3650   2.625   2.930   0.425  0.3450 -1.3862 -0.9065
  913SOL    HW2 3651   2.471   2.899   0.418  0.7549 -0.6936 -1.1574
  913SOL     MW 3652   2.539   2.955   0.427  0.4830 -0.1799 -0.3640
  914SOL     OW 3653   2.747   1.635   3.065 -0.3980 -0.4292 -0.4310
  914SOL    HW1 3654   2.742   1.716   3.015  2.4513 -3.2824  0.5520
  914SOL    HW2 3655   2.663   1.623   3.108  5.0174 -1.6224 -1.2256
  914SOL     MW 3656   2.735   1.644   3.064  0.6925 -0.9631 -0.4062
  915SOL     OW 3657   1.826   0.243   0.184 -0.4939  0.6211 -0.2254
  915SOL    HW1 3658   1.892   0.177   0.204 -0.0187  0.8575 -2.7802
  915SOL    HW2 3659   1.742   0.218   0.223  0.8770 -0.0700  2.2915
  915SOL     MW 3660   1.824   0.231   0.192 -0.2503  0.5611 -0.2304
  916SOL     OW 3661   1.731   2.071   1.936 -0.6462  0.1373  0.2388
  916SOL    HW1 3662   1.775   2.158   1.915  2.3649 -0.9133  0.5502
  916SOL    HW2 3663   1.759   2.008   1.869 -0.6950  1.2953 -2.1774
  916SOL     MW 3664   1.740   2.074   1.925 -0.2554  0.1515 -0.0389
  917SOL     OW 3665   2.450   2.317   2.640  0.0255  0.0630 -0.3358
  917SOL    HW1 3666   2.421   2.351   2.722 -0.3973  2.1403 -1.8506
  917SOL    HW2 3667   2.453   2.397   2.587  2.9578 -0.1441 -1.5287
  917SOL     MW 3668   2.446   2.332   2.644  0.3566  0.3097 -0.6930
  918SOL     OW 3669   2.061   1.645   2.704 -0.1738  0.1380  0.0221
  918SOL    HW1 3670   1.977   1.672   2.665  3.0986 -0.2706 -2.2333
  918SOL    HW2 3671   2.130   1.719   2.679  2.3871  1.6225  1.4325
  918SOL     MW 3672   2.059   1.659   2.696  0.5959  0.2800 -0.0894
  919SOL     OW 3673   0.063   2.376   2.262  0.3321 -0.2940 -0.1481
  919SOL    HW1 3674  -0.016   2.318   2.240  1.2939  0.0866  0.0029
  919SOL    HW2 3675   0.128   2.372   2.194  0.1871  0.3793  0.8631
  919SOL     MW 3676   0.061   2.368   2.250  0.4399 -0.1549  0.0052
  920SOL     OW 3677   2.753   2.794   3.096  0.2332 -0.0627  0.0276
  920SOL    HW1 3678   2.698   2.871   3.123  3.0355 -0.6926 -0.9061
  920SOL    HW2 3679   2.741   2.783   3.000 -1.0106 -0.1277 -2.6498
  920SOL     MW 3680   2.744   2.803   3.087  0.4388 -0.1544 -0.4489
  921SOL     OW 3681   2.465   2.622   2.653  0.2507  0.2846  0.1583
  921SOL    HW1 3682   2.524   2.640   2.577 -2.9690 -1.6870  1.4390
  921SOL    HW2 3683   2.522   2.596   2.731  1.3094  1.6966 -0.8492
  921SOL     MW 3684   2.481   2.621   2.653 -0.0344  0.2107  0.1944
  922SOL     OW 3685   1.993   2.772   0.306 -0.3623 -0.5420 -0.1493
  922SOL    HW1 3686   1.997   2.804   0.212 -0.1564  1.5010 -3.5788
  922SOL    HW2 3687   1.955   2.687   0.299 -2.0528  3.1292  0.1377
  922SOL     MW 3688   1.989   2.765   0.293 -0.5582  0.2120 -0.5639
  923SOL     OW 3689   2.221   2.809   1.708 -0.1011  0.0836  0.2693
  923SOL    HW1 3690   2.251   2.739   1.643  1.8554 -0.0821 -0.0039
  923SOL    HW2 3691   2.214   2.889   1.649  1.3930  0.8155 -0.7861
  923SOL     MW 3692   2.224   2.811   1.692  0.3542  0.1583  0.0940
  924SOL     OW 3693   1.210   2.741   2.589  0.4044 -0.0191 -0.0262
  924SOL    HW1 3694   1.241   2.786   2.509  0.5371 -2.2283  0.6608
  924SOL    HW2 3695   1.271   2.667   2.597  0.7765 -0.2939 -1.4391
  924SOL     MW 3696   1.222   2.737   2.580  0.4710 -0.3468 -0.1220
  925SOL     OW 3697   2.955   0.183   2.591  0.0942  0.1269 -0.1818
  925SOL    HW1 3698   2.973   0.236   2.518 -0.0685  2.6005 -1.6483
  925SOL    HW2 3699   2.874   0.224   2.626 -0.9497  3.6211 -1.8237
  925SOL     MW 3700   2.947   0.195   2.586 -0.0650  0.9143 -0.5920
  926SOL     OW 3701   2.715   2.412   2.082  0.0948 -0.0543 -0.1602
  926SOL    HW1 3702   2.775   2.474   2.122 -2.3082 -0.0600  1.0704
  926SOL    HW2 3703   2.740   2.394   1.992  0.5117  1.3878  1.1439
  926SOL     MW 3704   2.726   2.418   2.075 -0.1673  0.1352  0.1742
  927SOL     OW 3705   2.373   0.150   0.310 -0.2165  0.2390  0.0777
  927SOL    HW1 3706   2.464   0.164   0.297 -0.1120 -0.3379 -0.3511
  927SOL    HW2 3707   2.337   0.142   0.224 -0.7832  3.2208  2.8232
  927SOL     MW 3708   2.380   0.151   0.297 -0.2775  0.5563  0.3834
  928SOL     OW 3709   2.079   2.474   1.813 -0.1698 -0.4958  0.6502
  928SOL    HW1 3710   2.148   2.412   1.792  0.3337  0.2868  1.5627
  928SOL    HW2 3711   2.101   2.506   1.899 -0.6999  0.1294 -1.7291
  928SOL     MW 3712   2.091   2.470   1.821 -0.1733 -0.3100  0.4567
  929SOL     OW 3713   2.689   2.376   2.447 -0.5904  0.1666 -0.1788
  929SOL    HW1 3714   2.753   2.369   2.378 -4.5306  1.1186  0.2837
  929SOL    HW2 3715   2.715   2.329   2.531  2.1702  0.6990 -2.0200
  929SOL     MW 3716   2.701   2.369   2.449 -0.7461  0.3624 -0.3607
  930SOL     OW 3717   2.011   2.922   2.659 -0.2091 -0.1248 -0.6095
  930SOL    HW1 3718   2.008   2.837   2.714  2.0623 -1.0418  3.1073
  930SOL    HW2 3719   2.098   2.951   2.645 -1.4277 -1.2190  0.3657
  930SOL     MW 3720   2.022   2.915   2.664 -0.0702 -0.3902  0.0096
  931SOL     OW 3721   2.943   2.800   2.254  0.7411  0.3574 -0.0715
  931SOL    HW1 3722   3.022   2.806   2.310 -0.1635  0.9547  2.2707
  931SOL    HW2 3723   2.958   2.859   2.185 -3.7907 -1.3681  0.2464
  931SOL     MW 3724   2.955   2.808   2.252  0.0238  0.2086  0.2795
  932SOL     OW 3725   2.875   1.905   2.560  0.6639  0.5171 -0.8176
  932SOL    HW1 3726   2.945   1.961   2.595  1.9099  1.5933  0.6169
  932SOL    HW2 3727   2.867   1.911   2.464  2.5492 -2.0032 -1.9749
  932SOL     MW 3728   2.883   1.913   2.552  1.0770  0.3266 -0.7810
  933SOL     OW 3729   2.064   2.866   2.224  0.3140  0.1382  0.7274
  933SOL    HW1 3730   2.142   2.922   2.246  1.7721 -0.7149  1.5920
  933SOL    HW2 3731   1.997   2.925   2.188 -0.5919 -1.5480  0.8611
  933SOL     MW 3732   2.066   2.881   2.222  0.3868 -0.1969  0.8591
  934SOL     OW 3733   2.005   2.750   2.447 -0.9125 -0.1528 -0.5541
  934SOL    HW1 3734   2.010   2.808   2.528  0.7737 -0.3870 -1.7689
  934SOL    HW2 3735   2.029   2.811   2.374  1.2344  0.6339 -0.9203
  934SOL     MW 3736   2.009   2.766   2.448 -0.4068 -0.0799 -0.7627
  935SOL     OW 3737   2.635   1.530   1.801  0.3746  0.5306 -0.3211
  935SOL    HW1 3738   2.727   1.522   1.766  1.0433 -1.6552  0.5046
  935SOL    HW2 3739   2.575   1.519   1.724 -2.6054 -1.2366 -0.1391
  935SOL     MW 3740   2.639   1.528   1.786  0.0697  0.0090 -0.1881
  936SOL     OW 3741   2.995   2.249   3.092 -0.1943 -0.1225 -0.0047
  936SOL    HW1 3742   3.050   2.297   3.154  3.4983 -0.4761 -0.0291
  936SOL    HW2 3743   2.909   2.297   3.099 -1.2917 -0.2841  0.9781
  936SOL     MW 3744   2.991   2.261   3.101  0.1481 -0.1905  0.1218
  937SOL     OW 3745   2.052   2.174   2.679  0.0547  0.0138  0.5951
  937SOL    HW1 3746   2.108   2.113   2.726 -1.0749  4.4276 -0.7257
  937SOL    HW2 3747   2.072   2.149   2.585  1.5059 -0.4525  2.1674
  937SOL     MW 3748   2.062   2.163   2.673  0.0971  0.5346  0.6283
  938SOL     OW 3749   2.296   1.815   1.922  0.2970 -0.2444  0.3576
  938SOL    HW1 3750   2.265   1.883   1.855 -2.4164  0.7016 -0.3114
  938SOL    HW2 3751   2.316   1.879   1.992  0.4870  1.5938 -0.1087
  938SOL     MW 3752   2.295   1.833   1.922 -0.0360  0.1229  0.2078
  939SOL     OW 3753   2.816   1.998   2.310 -0.0969 -0.2609  0.0567
  939SOL    HW1 3754   2.839   1.935   2.243 -0.2990  0.9276 -0.2024
  939SOL    HW2 3755   2.720   1.984   2.306  0.7656 -0.8542  0.5127
  939SOL     MW 3756   2.807   1.988   2.300 -0.0098 -0.1824  0.0827
  940SOL     OW 3757   2.318   0.137   2.722 -0.3616  0.1578 -0.5013
  940SOL    HW1 3758   2.310   0.039   2.700 -0.4759  0.1166 -0.9920
  940SOL    HW2 3759   2.361   0.134   2.806  3.6062 -0.0055 -0.3062
  940SOL     MW 3760   2.323   0.124   2.730  0.1468  0.1308 -0.5403
  941SOL     OW 3761   0.221   2.325   2.041 -0.4225 -0.2384 -0.0876
  941SOL    HW1 3762   0.318   2.313   2.073 -3.4021 -2.0846 -0.0183
  941SOL    HW2 3763   0.231   2.368   1.963 -0.2620  0.4856  2.5934
  941SOL     MW 3764   0.235   2.329   2.035 -0.7944 -0.3864  0.2753
  942SOL     OW 3765   2.921   2.224   2.183  0.6535  0.0536  0.1235
  942SOL    HW1 3766   2.850   2.279   2.162  0.9377  0.4397  0.3975
  942SOL    HW2 3767   2.893   2.148   2.235  1.5402  2.3451 -2.2183
  942SOL     MW 3768   2.908   2.221   2.187  0.8080  0.4069 -0.1493
  943SOL     OW 3769   0.404   1.992   2.277  0.1880 -0.1181 -0.2985
  943SOL    HW1 3770   0.335   2.035   2.335 -1.8118  0.0417 -1.2856
  943SOL    HW2 3771   0.481   1.990   2.331  1.6458 -0.9426  0.3062
  943SOL     MW 3772   0.405   1.997   2.291  0.1165 -0.2058 -0.3490
  944SOL     OW 3773   2.106   2.624   2.092 -0.1316  0.2915  0.5114
  944SOL    HW1 3774   2.178   2.571   2.132 -0.6434  0.4079 -0.6327
  944SOL    HW2 3775   2.083   2.702   2.141  0.9886  1.2078  0.3757
  944SOL     MW 3776   2.113   2.627   2.104 -0.0514  0.4277  0.3426
  945SOL     OW 3777   2.779   2.721   2.839  0.2231 -0.1415  0.3170
  945SOL    HW1 3778   2.715   2.647   2.836 -1.6279  0.1390 -1.1639
  945SOL    HW2 3779   2.808   2.715   2.747 -1.0095  1.7548  1.1422
  945SOL     MW 3780   2.774   2.710   2.827 -0.1837  0.1457  0.2305
  946SOL     OW 3781   2.450   2.736   2.270  0.0952 -0.4769  0.0876
  946SOL    HW1 3782   2.485   2.765   2.187  2.0542  1.2769  2.0004
  946SOL    HW2 3783   2.397   2.662   2.251 -0.8397  1.6758 -0.1337
  946SOL     MW 3784   2.447   2.730   2.257  0.2303  0.0386  0.3107
  947SOL     OW 3785   2.009   0.054   0.231 -0.3143  0.6057 -0.0609
  947SOL    HW1 3786   2.055   0.000   0.169  2.1824 -1.9200 -0.1192
  947SOL    HW2 3787   2.077   0.051   0.308 -3.0553  1.5225 -0.8245
  947SOL     MW 3788   2.024   0.046   0.233 -0.3465  0.3934 -0.1693
  948SOL     OW 3789   1.796   3.073   2.649 -0.0132 -0.2324  0.2325
  948SOL    HW1 3790   1.869   3.004   2.640 -1.1551 -0.8351 -0.0342
  948SOL    HW2 3791   1.776   3.082   2.554  2.0207 -0.3376  1.3552
  948SOL     MW 3792   1.803   3.065   2.635  0.1045 -0.3258  0.3454
  949SOL     OW 3793   2.538   1.987   2.280  0.0159 -0.6884  0.1740
  949SOL    HW1 3794   2.546   1.900   2.335  4.0722 -2.8856  2.3299
  949SOL    HW2 3795   2.488   2.051   2.332 -1.1138  1.0811 -0.6641
  949SOL     MW 3796   2.533   1.984   2.294  0.4021 -0.7449  0.3479
  950SOL     OW 3797   2.251   2.566   3.019  0.4929  0.3447  0.0777
  950SOL    HW1 3798   2.300   2.496   2.965  0.9790 -1.9625  1.0599
  950SOL    HW2 3799   2.188   2.598   2.961  1.8128 -0.1898  0.0763
  950SOL     MW 3800   2.249   2.561   3.004  0.7312 -0.0303  0.2071
  951SOL     OW 3801   2.967   2.072   2.831  0.1156  0.5649 -0.2062
  951SOL    HW1 3802   2.951   2.125   2.904  1.5921  0.6907 -1.0890
  951SOL    HW2 3803   3.053   2.086   2.794  2.2421 -0.7961 -0.3908
  951SOL     MW 3804   2.976   2.081   2.836  0.5910  0.4019 -0.3470
  952SOL     OW 3805   3.073   1.689   2.106 -0.0680  0.2437  0.3722
  952SOL    HW1 3806   3.007   1.745   2.069 -0.8889 -0.1669  0.8767
  952SOL    HW2 3807   3.149   1.750   2.118 -1.3175  0.2875 -0.9862
  952SOL     MW 3808   3.074   1.705   2.103 -0.3412  0.1953  0.2595
  953SOL     OW 3809   1.965   1.809   2.943 -0.7952  0.0425 -0.0317
  953SOL    HW1 3810   1.870   1.781   2.933  0.6738 -2.2401  1.0947
  953SOL    HW2 3811   2.006   1.735   2.898  0.5968 -1.5137 -0.7147
  953SOL     MW 3812   1.958   1.796   2.935 -0.4177 -0.4640  0.0268
  954SOL     OW 3813   2.481   2.100   2.886 -0.4207 -0.4282 -0.6412
  954SOL    HW1 3814   2.403   2.075   2.843 -0.6450  0.4261  0.4993
  954SOL    HW2 3815   2.551   2.071   2.829  1.2358 -0.7214  0.9940
  954SOL     MW 3816   2.480   2.093   2.873 -0.2317 -0.3542 -0.2750
  955SOL     OW 3817   1.582   1.632   2.519  0.6215  0.3550  0.2509
  955SOL    HW1 3818   1.575   1.668   2.431 -0.3628 -0.8221 -2.4640
  955SOL    HW2 3819   1.663   1.667   2.544 -3.2296 -2.1986 -3.0447
  955SOL     MW 3820   1.592   1.641   2.511 -0.0165 -0.1372 -0.5421
  956SOL     OW 3821   2.641   2.471   2.837  0.1203 -0.1947  0.1780
  956SOL    HW1 3822   2.676   2.430   2.915  0.2988  0.7748 -3.0240
  956SOL    HW2 3823   2.652   2.403   2.771  4.0192 -0.2562 -0.8633
  956SOL     MW 3824   2.647   2.457   2.839  0.6583 -0.0749 -0.3819
  957SOL     OW 3825   2.269   2.819   0.388 -0.6351  0.7183  0.2026
  957SOL    HW1 3826   2.189   2.795   0.347 -0.0519  0.3325 -1.9805
  957SOL    HW2 3827   2.262   2.793   0.479  0.6301 -1.4616  0.5725
  957SOL     MW 3828   2.257   2.812   0.395 -0.3913  0.3797 -0.0366
  958SOL     OW 3829   2.005   2.676   2.822 -0.3945 -0.3653  0.1777
  958SOL    HW1 3830   2.003   2.600   2.757  1.5256  1.7059  2.5305
  958SOL    HW2 3831   1.928   2.663   2.880  0.7455  0.1204  0.5524
  958SOL     MW 3832   1.994   2.665   2.821  0.0092 -0.0280  0.5376
  959SOL     OW 3833   2.446   2.589   0.307  0.4824  0.1445  0.4334
  959SOL    HW1 3834   2.511   2.578   0.233  1.6184  0.2981 -4.2799
  959SOL    HW2 3835   2.414   2.679   0.299  0.0625  2.5549  0.0321
  959SOL     MW 3836   2.450   2.599   0.296  0.5769  0.4828 -0.2414
  960SOL     OW 3837   1.900   2.315   2.283  0.0859  0.1552 -0.0896
  960SOL    HW1 3838   1.855   2.240   2.245 -1.0825  1.3850 -3.5769
  960SOL    HW2 3839   1.848   2.356   2.351  1.6091 -1.5436  1.5322
  960SOL     MW 3840   1.887   2.311   2.287  0.1327  0.0933 -0.3358
  961SOL     OW 3841   2.161   2.320   2.355  0.1358  0.0148 -0.2071
  961SOL    HW1 3842   2.075   2.301   2.327 -3.8308  0.5484  1.3383
  961SOL    HW2 3843   2.154   2.397   2.407 -0.0284 -0.2559  0.0060
  961SOL     MW 3844   2.149   2.328   2.358 -0.4092  0.0495  0.0249
  962SOL     OW 3845   2.232   2.020   2.805  0.4328 -0.6537 -0.0909
  962SOL    HW1 3846   2.196   1.989   2.889  1.7043 -1.1510 -2.1399
  962SOL    HW2 3847   2.246   1.946   2.748 -1.0347 -0.2822 -0.4896
  962SOL     MW 3848   2.229   2.006   2.809  0.4069 -0.6703 -0.4139
  963SOL     OW 3849   1.847   2.584   2.028 -0.1876 -0.3608 -0.7499
  963SOL    HW1 3850   1.929   2.592   2.073 -1.1321 -0.9503 -2.3149
  963SOL    HW2 3851   1.847   2.495   1.990  1.3843  2.3145  2.3487
  963SOL     MW 3852   1.858   2.574   2.029 -0.1048 -0.0856 -0.5476
  964SOL     OW 3853   1.867   1.973   2.750  0.0692 -0.5430  0.3452
  964SOL    HW1 3854   1.932   2.046   2.716 -0.4671  1.2182 -0.5530
  964SOL    HW2 3855   1.923   1.919   2.807 -1.4465  2.2850 -4.4971
  964SOL     MW 3856   1.883   1.975   2.753 -0.2015  0.0625 -0.4122
  965SOL     OW 3857   2.241   2.726   0.649  0.6232  0.6919  0.5163
  965SOL    HW1 3858   2.198   2.643   0.640  2.8710 -1.8518  1.1876
  965SOL    HW2 3859   2.269   2.718   0.741 -0.0264 -0.2312  0.5044
  965SOL     MW 3860   2.239   2.714   0.660  0.8341  0.2345  0.6033
  966SOL     OW 3861   2.622   2.640   2.443 -0.2326 -0.2731  0.5962
  966SOL    HW1 3862   2.568   2.682   2.378  2.3051  0.0289  1.2287
  966SOL    HW2 3863   2.643   2.541   2.421 -1.1208 -0.7171 -2.3519
  966SOL     MW 3864   2.618   2.633   2.432 -0.0150 -0.2918  0.2907
  967SOL     OW 3865   2.910   3.036   2.903  0.3805 -0.0869  0.0373
  967SOL    HW1 3866   2.898   2.951   2.941  2.2755  0.0338  0.3827
  967SOL    HW2 3867   2.821   3.063   2.869  0.4187  1.6918  0.4908
  967SOL     MW 3868   2.897   3.028   2.903  0.6356  0.1637  0.1427
  968SOL     OW 3869   3.038   2.595   2.928 -0.7363  0.1765  0.1258
  968SOL    HW1 3870   2.980   2.665   2.903 -0.3184  2.0071 -2.3781
  968SOL    HW2 3871   3.035   2.519   2.858 -0.3014 -1.1963  2.3230
  968SOL     MW 3872   3.030   2.594   2.916 -0.6238  0.2369  0.0853
  969SOL     OW 3873   1.513   2.130   1.709 -0.1516  0.1283 -0.4887
  969SOL    HW1 3874   1.582   2.060   1.712  0.8084 -3.3132  1.3441
  969SOL    HW2 3875   1.493   2.141   1.801 -1.6765  0.0403 -0.2922
  969SOL     MW 3876   1.519   2.122   1.722 -0.2262 -0.3374 -0.2209
  970SOL     OW 3877   1.685   1.665   1.834  0.2889 -0.6622 -0.4024
  970SOL    HW1 3878   1.730   1.652   1.917  0.5660  1.3522 -2.6437
  970SOL    HW2 3879   1.606   1.721   1.846 -2.5332 -1.7645 -1.0234
  970SOL     MW 3880   1.680   1.670   1.846 -0.0469 -0.5419 -0.7800
  971SOL     OW 3881   1.792   0.024   2.375 -0.3587 -0.3945  0.4521
  971SOL    HW1 3882   1.776  -0.015   2.283 -3.7941 -0.4760 -4.9173
  971SOL    HW2 3883   1.872   0.071   2.375  1.4201  1.6516 -1.9180
  971SOL     MW 3884   1.800   0.025   2.363 -0.5773 -0.1353 -0.5690
  972SOL     OW 3885   0.278   2.801   2.497 -0.4799  0.1803 -0.6010
  972SOL    HW1 3886   0.296   2.708   2.518  0.6502 -0.8350 -2.8781
  972SOL    HW2 3887   0.343   2.867   2.521 -1.3760 -0.4982 -2.2099
  972SOL     MW 3888   0.289   2.797   2.503 -0.4490 -0.0432 -1.1137
  973SOL     OW 3889   2.606   0.024   2.104 -0.5893  0.0786  0.4971
  973SOL    HW1 3890   2.637  -0.062   2.073 -1.2632  0.6773  0.3118
  973SOL    HW2 3891   2.607   0.076   2.024  1.0359 -1.2701  3.5414
  973SOL     MW 3892   2.610   0.019   2.089 -0.4638 -0.0204  0.8743
  974SOL     OW 3893   2.093   0.283   2.787 -0.6280 -0.0097 -0.2279
  974SOL    HW1 3894   2.175   0.247   2.750  0.2782  1.4626 -2.3268
  974SOL    HW2 3895   2.038   0.206   2.820 -0.9788  2.6728  1.3240
  974SOL     MW 3896   2.096   0.268   2.786 -0.5547  0.5385 -0.3001
  975SOL     OW 3897   2.185   2.560   2.524 -0.5395 -0.0332 -0.1322
  975SOL    HW1 3898   2.257   2.598   2.580  1.0927  0.1492  1.0500
  975SOL    HW2 3899   2.130   2.633   2.498  0.8762 -0.2214 -1.7722
  975SOL     MW 3900   2.188   2.575   2.528 -0.1374 -0.0339 -0.1926
  976SOL     OW 3901   0.253   0.402   1.723  0.6216  0.1679  0.7771
  976SOL    HW1 3902   0.316   0.344   1.771 -1.5977  1.9090  0.4547
  976SOL    HW2 3903   0.195   0.330   1.709 -1.5202 -0.5974  2.1979
  976SOL     MW 3904   0.254   0.385   1.728  0.0462  0.2967  0.9221
  977SOL     OW 3905   1.741   2.742   2.462  0.3681 -0.1716 -0.2642
  977SOL    HW1 3906   1.727   2.646   2.455  0.8266  1.9829 -0.5848
  977SOL    HW2 3907   1.836   2.753   2.447  1.5507  0.5464  2.5752
  977SOL     MW 3908   1.752   2.731   2.459  0.5846  0.2074  0.0681
   3.10000   3.10000   3.10000
