977 TIP4P/2005f water molecules t=   0.63000 step= 630
 3908
    1SOL     OW    1   0.177   0.842   0.014 -0.4959 -0.1469 -0.4392
    1SOL    HW1    2   0.177   0.839  -0.079  2.2678  0.1817 -0.8839
    1SOL    HW2    3   0.165   0.745   0.022  1.2232 -2.9011  1.3453
    1SOL     MW    4   0.175   0.829   0.003  0.0956 -0.4669 -0.2624
    2SOL     OW    5   0.236   3.015   1.184 -0.5816 -0.1984  0.4492
    2SOL    HW1    6   0.277   3.089   1.142  0.3319  0.6506  1.0085
    2SOL    HW2    7   0.146   3.040   1.190 -1.3964 -2.6822 -0.7890
    2SOL     MW    8   0.230   3.028   1.179 -0.5686 -0.4141  0.3596
    3SOL     OW    9   2.674   0.409   0.924  0.1464 -0.1940  0.5619
    3SOL    HW1   10   2.690   0.491   0.874 -2.0969  3.1264 -2.8623
    3SOL    HW2   11   2.627   0.445   0.998 -1.3028  1.4115 -2.3423
    3SOL     MW   12   2.670   0.424   0.927 -0.3408  0.4559 -0.2731
    4SOL     OW   13   3.029   1.730   0.600 -0.1380 -1.1270  0.0491
    4SOL    HW1   14   2.957   1.761   0.542  0.8507 -0.2752  2.5129
    4SOL    HW2   15   3.095   1.700   0.542  0.0302  2.2548  1.0213
    4SOL     MW   16   3.028   1.730   0.585  0.0146 -0.5684  0.5024
    5SOL     OW   17   1.728   1.506   0.543 -0.3239 -0.7302 -0.0997
    5SOL    HW1   18   1.764   1.438   0.605 -0.8619  0.6732 -1.4432
    5SOL    HW2   19   1.636   1.495   0.548 -0.6928  0.2335 -1.3992
    5SOL     MW   20   1.721   1.495   0.552 -0.4435 -0.4179 -0.4484
    6SOL     OW   21   0.861   1.375   0.689  0.1283  0.2415 -0.4217
    6SOL    HW1   22   0.769   1.387   0.676  1.2914  1.1691 -0.5498
    6SOL    HW2   23   0.872   1.283   0.724 -0.2577  0.5376 -0.6285
    6SOL     MW   24   0.851   1.364   0.692  0.2308  0.4029 -0.4659
    7SOL     OW   25   2.006   1.151   0.012 -0.1109 -0.7733 -0.4083
    7SOL    HW1   26   2.091   1.182  -0.007 -1.1916  0.7992  2.2510
    7SOL    HW2   27   2.006   1.155   0.107 -1.7734  1.7143  0.6356
    7SOL     MW   28   2.017   1.155   0.022 -0.4729 -0.2376  0.0803
    8SOL     OW   29   0.954   1.345   1.016  0.0622 -0.3132 -0.0273
    8SOL    HW1   30   1.008   1.262   1.024  1.2101 -0.7592 -0.3873
    8SOL    HW2   31   0.926   1.352   1.110  0.0955 -0.9676  0.3516
    8SOL     MW   32   0.957   1.335   1.029  0.2180 -0.4584 -0.0248
    9SOL     OW   33   1.068   0.452   1.364 -0.3283  0.0344 -0.5716
    9SOL    HW1   34   0.994   0.385   1.350 -0.8398 -1.0782 -0.1540
    9SOL    HW2   35   1.114   0.418   1.439 -2.2297 -2.4929 -0.8278
    9SOL     MW   36   1.064   0.438   1.372 -0.6467 -0.4458 -0.5503
   10SOL     OW   37   0.262   0.793   0.419  0.4481  0.3696 -0.0568
   10SOL    HW1   38   0.349   0.787   0.395 -3.1586  2.7217  1.0793
   10SOL    HW2   39   0.258   0.842   0.503 -2.6902 -0.7278  1.1766
   10SOL     MW   40   0.273   0.799   0.427 -0.4418  0.5351  0.2558
   11SOL     OW   41   0.783   1.151   1.687  0.1511 -0.4683  0.3293
   11SOL    HW1   42   0.847   1.128   1.749 -1.2690  0.3525 -1.8017
   11SOL    HW2   43   0.782   1.074   1.626  2.9572  1.4385  3.6624
   11SOL     MW   44   0.791   1.138   1.687  0.3339 -0.1084  0.4879
   12SOL     OW   45   3.095   1.068   0.886 -0.2742  0.4293  0.3397
   12SOL    HW1   46   3.129   1.137   0.945  6.0494 -0.8714 -0.5503
   12SOL    HW2   47   3.032   1.124   0.835 -1.9850 -0.9467 -2.8218
   12SOL     MW   48   3.091   1.084   0.887  0.3344  0.0761 -0.1949
   13SOL     OW   49   1.837   1.417   1.326  0.2838  0.2356  0.3067
   13SOL    HW1   50   1.858   1.353   1.254 -0.2595 -1.2565 -3.0907
   13SOL    HW2   51   1.865   1.508   1.301  0.4528 -0.4427  0.5562
   13SOL     MW   52   1.844   1.420   1.313  0.2344 -0.0508 -0.1086
   14SOL     OW   53   0.601   0.349   1.802  0.0579  0.5217  0.1783
   14SOL    HW1   54   0.595   0.276   1.739  1.7403  1.7982 -1.0269
   14SOL    HW2   55   0.688   0.358   1.832 -1.0133  2.2923 -0.2936
   14SOL     MW   56   0.612   0.341   1.798  0.1385  0.9238 -0.0430
   15SOL     OW   57   1.920   0.493   0.969  0.6003 -0.1733 -0.5734
   15SOL    HW1   58   1.940   0.527   1.059  0.5823 -0.0159  0.8902
   15SOL    HW2   59   2.010   0.486   0.942  0.5405  0.4134 -1.7514
   15SOL     MW   60   1.934   0.496   0.978  0.5900 -0.0752 -0.5357
   16SOL     OW   61   0.258   1.828   0.334 -0.1265  0.4941  0.1915
   16SOL    HW1   62   0.328   1.765   0.359 -1.4768 -2.1078  1.0788
   16SOL    HW2   63   0.269   1.914   0.375  0.8603  2.7107 -0.1872
   16SOL     MW   64   0.269   1.831   0.343 -0.1744  0.4433  0.2586
   17SOL     OW   65   1.023   0.876   1.498  0.1508  0.5232  0.2473
   17SOL    HW1   66   1.076   0.848   1.572  0.8915  2.0973 -0.1151
   17SOL    HW2   67   0.933   0.874   1.522  1.0406  2.0069  3.0016
   17SOL     MW   68   1.018   0.872   1.511  0.3660  0.9267  0.5629
   18SOL     OW   69   0.101   1.601   0.379  0.1650  0.3239 -0.2215
   18SOL    HW1   70   0.140   1.687   0.351 -1.3059  1.4613  0.5316
   18SOL    HW2   71   0.068   1.559   0.301  2.3000  1.5827  0.2923
   18SOL     MW   72   0.102   1.607   0.365  0.2526  0.6400 -0.0543
   19SOL     OW   73   0.077   1.299   0.996  0.0993 -0.0444 -0.8173
   19SOL    HW1   74   0.125   1.364   0.944 -0.4511 -0.4219  0.7698
   19SOL    HW2   75  -0.001   1.352   1.024 -0.6724  4.1931  1.2205
   19SOL     MW   76   0.073   1.315   0.993 -0.0752  0.4649 -0.3390
   20SOL     OW   77   0.404   2.132   1.227  0.2680  0.5163 -0.6067
   20SOL    HW1   78   0.352   2.062   1.186 -0.3425 -0.5809 -0.9278
   20SOL    HW2   79   0.347   2.164   1.302 -2.2315 -0.4058  1.8466
   20SOL     MW   80   0.390   2.127   1.232 -0.1424  0.2499 -0.3254
   21SOL     OW   81   0.526   0.802   0.356  0.0880 -0.0760 -0.5029
   21SOL    HW1   82   0.613   0.798   0.395  0.8965 -0.1399 -1.5281
   21SOL    HW2   83   0.545   0.795   0.262  0.8419 -1.3715  0.8042
   21SOL     MW   84   0.540   0.800   0.349  0.2941 -0.2554 -0.4657
   22SOL     OW   85   1.493   0.562   1.098 -0.0674  0.4321  0.0340
   22SOL    HW1   86   1.538   0.500   1.038 -2.1789  0.2399  3.8477
   22SOL    HW2   87   1.430   0.617   1.050  1.2951 -0.7190  0.4311
   22SOL     MW   88   1.490   0.561   1.084 -0.1662  0.2549  0.5895
   23SOL     OW   89   0.003   0.774   0.652  0.5050  0.0929  0.2354
   23SOL    HW1   90   0.058   0.720   0.711  2.0140 -0.4234 -0.8884
   23SOL    HW2   91   0.055   0.848   0.634 -0.8340 -2.8531 -0.4037
   23SOL     MW   92   0.017   0.776   0.658  0.5274 -0.3639  0.0028
   24SOL     OW   93   2.017   2.216   0.108  0.1946  0.1292 -0.1595
   24SOL    HW1   94   2.049   2.188   0.195  0.1911  3.0444 -0.2504
   24SOL    HW2   95   2.027   2.131   0.058 -0.0278 -0.1040  0.4946
   24SOL     MW   96   2.022   2.201   0.113  0.1648  0.4831 -0.0852
   25SOL     OW   97   0.222   1.373   0.546 -1.0064 -0.4538 -0.1655
   25SOL    HW1   98   0.209   1.459   0.505 -0.4995 -0.2116  1.3861
   25SOL    HW2   99   0.303   1.344   0.494  2.9803 -0.9199 -0.4789
   25SOL     MW  100   0.231   1.380   0.534 -0.4135 -0.4833 -0.0021
   26SOL     OW  101   2.006   0.935   0.431 -0.1625  0.1414 -0.7312
   26SOL    HW1  102   1.927   0.986   0.476 -1.1768  3.4375 -2.4358
   26SOL    HW2  103   2.035   1.006   0.371 -0.5427  1.2738  1.6851
   26SOL     MW  104   1.999   0.951   0.429 -0.3465  0.7257 -0.6373
   27SOL     OW  105   2.055   1.399   0.225 -0.2453  0.1730 -0.3773
   27SOL    HW1  106   1.966   1.386   0.260 -0.3529 -0.8354  0.7672
   27SOL    HW2  107   2.095   1.447   0.297 -1.2893  0.4936  0.5785
   27SOL     MW  108   2.049   1.404   0.239 -0.3972  0.0822 -0.1002
   28SOL     OW  109   0.402   1.087   1.989 -0.1320 -0.5738  0.9014
   28SOL    HW1  110   0.496   1.104   2.003 -1.4455  1.3942 -1.6013
   28SOL    HW2  111   0.381   1.008   2.036 -2.0735 -0.9693 -2.3554
   28SOL     MW  112   0.412   1.078   1.997 -0.5615 -0.3663  0.1415
   29SOL     OW  113   0.243   1.446   0.820 -1.1475  0.5155 -0.3609
   29SOL    HW1  114   0.261   1.535   0.797 -0.4704  0.3109  0.0582
   29SOL    HW2  115   0.241   1.411   0.731 -0.2171 -1.4556 -0.2470
   29SOL     MW  116   0.245   1.453   0.805 -0.9354  0.2284 -0.2906
   30SOL     OW  117   0.832   1.167   1.221 -0.3005  0.2122 -0.2337
   30SOL    HW1  118   0.763   1.190   1.286 -0.1192  1.5284 -1.5719
   30SOL    HW2  119   0.912   1.152   1.277 -1.6855  1.5536  0.8294
   30SOL     MW  120   0.833   1.168   1.237 -0.4593  0.5628 -0.2700
   31SOL     OW  121   0.380   0.184   0.144  0.0496  0.1178  0.3080
   31SOL    HW1  122   0.390   0.126   0.216  0.2406 -0.4783 -1.9018
   31SOL    HW2  123   0.361   0.125   0.071 -1.3763  0.1470  0.6414
   31SOL     MW  124   0.379   0.169   0.144 -0.1133  0.0430  0.0604
   32SOL     OW  125   2.783   1.007   1.130  0.4348 -0.3385 -0.2589
   32SOL    HW1  126   2.711   0.945   1.129 -2.0518  1.2448  1.9306
   32SOL    HW2  127   2.863   0.955   1.110 -0.1320 -0.0509  1.2581
   32SOL     MW  128   2.784   0.992   1.127  0.0320 -0.0917  0.2301
   33SOL     OW  129   1.823   1.320   0.357  0.6654  0.0603 -0.1348
   33SOL    HW1  130   1.834   1.235   0.400  1.3213 -0.3473 -0.1680
   33SOL    HW2  131   1.815   1.391   0.424  0.6588  0.2621 -0.3023
   33SOL     MW  132   1.823   1.318   0.372  0.7511  0.0331 -0.1613
   34SOL     OW  133   1.227   1.872   1.101  0.4424  0.1047 -0.5377
   34SOL    HW1  134   1.136   1.914   1.108  0.8800 -1.8050  0.5034
   34SOL    HW2  135   1.275   1.884   1.183  0.6174 -1.0650  0.8342
   34SOL     MW  136   1.221   1.879   1.113  0.5232 -0.3016 -0.2193
   35SOL     OW  137   0.372   0.139   1.865  0.5134  0.3355 -0.0828
   35SOL    HW1  138   0.348   0.088   1.941 -0.6779  2.5823 -1.1157
   35SOL    HW2  139   0.411   0.077   1.800  0.3558  1.7215  1.2697
   35SOL     MW  140   0.374   0.124   1.867  0.3354  0.8148 -0.0406
   36SOL     OW  141   1.838   1.928   0.496 -0.0255  0.4382  0.3277
   36SOL    HW1  142   1.848   1.910   0.407 -0.7442 -0.1865  0.3842
   36SOL    HW2  143   1.870   1.846   0.533 -0.0952 -0.0186 -0.4949
   36SOL     MW  144   1.844   1.915   0.489 -0.1295  0.2955  0.2267
   37SOL     OW  145   1.763   1.990   1.068 -0.0480 -0.4651  0.0599
   37SOL    HW1  146   1.722   1.946   0.991 -1.3037 -1.5349 -1.6807
   37SOL    HW2  147   1.694   2.042   1.112  2.5680  2.8292 -2.6004
   37SOL     MW  148   1.748   1.991   1.064  0.1315 -0.1716 -0.5208
   38SOL     OW  149   2.837   0.901   0.151 -0.4078 -0.3134 -0.0670
   38SOL    HW1  150   2.896   0.890   0.229 -1.1290 -0.8401  0.6654
   38SOL    HW2  151   2.886   0.858   0.082 -0.9433 -0.3230 -0.2303
   38SOL     MW  152   2.852   0.894   0.152 -0.5736 -0.3841  0.0081
   39SOL     OW  153   1.396   0.636   0.787  0.2527  0.3262 -0.3387
   39SOL    HW1  154   1.390   0.538   0.786 -2.0540 -1.0609  0.1160
   39SOL    HW2  155   1.306   0.671   0.788  3.0896  2.4655 -1.0672
   39SOL     MW  156   1.383   0.628   0.787  0.3227  0.4254 -0.3748
   40SOL     OW  157   1.189   1.894   0.235  0.1503  0.4699 -0.5167
   40SOL    HW1  158   1.230   1.824   0.287  0.2966 -0.2130 -1.0281
   40SOL    HW2  159   1.157   1.960   0.300 -2.6106 -0.1371 -0.6921
   40SOL     MW  160   1.190   1.894   0.250 -0.1947  0.2997 -0.6073
   41SOL     OW  161   0.616   0.464   1.551  0.2671  0.0673  0.3593
   41SOL    HW1  162   0.708   0.490   1.555  0.5401  0.5778  0.5546
   41SOL    HW2  163   0.604   0.427   1.643  0.6014  1.8186 -0.0213
   41SOL     MW  164   0.626   0.462   1.564  0.3472  0.3657  0.3349
   42SOL     OW  165   1.253   3.004   2.025  0.0566 -0.2597  0.1179
   42SOL    HW1  166   1.172   2.959   2.044 -1.2115  0.2505 -0.3692
   42SOL    HW2  167   1.312   2.935   1.999 -1.1198  1.9242 -0.7383
   42SOL     MW  168   1.250   2.989   2.024 -0.2659  0.0958 -0.0594
   43SOL     OW  169   1.552   0.135   1.764  0.2737 -0.1654  0.4813
   43SOL    HW1  170   1.603   0.091   1.697 -2.1889  0.1164 -1.7222
   43SOL    HW2  171   1.470   0.087   1.744  3.0279 -1.7044 -0.3035
   43SOL     MW  172   1.548   0.123   1.753  0.3122 -0.3312  0.0870
   44SOL     OW  173   1.258   0.756   1.108  0.3749  0.2585  0.1898
   44SOL    HW1  174   1.227   0.845   1.082  0.7260 -1.3041 -0.0641
   44SOL    HW2  175   1.231   0.740   1.203 -0.9988  0.8842  1.3289
   44SOL     MW  176   1.250   0.765   1.117  0.2400  0.1349  0.3066
   45SOL     OW  177   1.132   0.704   0.757  0.1580 -0.0680 -0.1439
   45SOL    HW1  178   1.092   0.657   0.827  0.3142 -0.9563  0.4776
   45SOL    HW2  179   1.111   0.652   0.682 -1.6324 -0.9453  1.7528
   45SOL     MW  180   1.124   0.691   0.757 -0.0576 -0.3009  0.1884
   46SOL     OW  181   0.559   1.192   0.549  0.6129 -0.6726  0.0278
   46SOL    HW1  182   0.545   1.212   0.461 -1.3483  0.7980  2.7437
   46SOL    HW2  183   0.649   1.161   0.546  1.0518  3.4222 -1.0550
   46SOL     MW  184   0.569   1.191   0.537  0.4120  0.0617  0.2432
   47SOL     OW  185   0.164   1.929   1.788  0.0403 -0.7251 -0.0591
   47SOL    HW1  186   0.219   1.853   1.761 -1.2076  3.0059  0.0397
   47SOL    HW2  187   0.160   1.914   1.887  1.1874  0.7873  0.0843
   47SOL     MW  188   0.171   1.917   1.797  0.0270 -0.0333 -0.0271
   48SOL     OW  189   1.051   0.580   0.989  0.1641 -0.2599 -1.1469
   48SOL    HW1  190   0.981   0.521   1.029  0.9474  0.5093  0.4136
   48SOL    HW2  191   1.105   0.634   1.046 -0.1128  0.2843 -1.7149
   48SOL     MW  192   1.049   0.579   1.002  0.2309 -0.0866 -1.0159
   49SOL     OW  193   1.810   0.759   1.558  0.0046 -0.1156  0.6747
   49SOL    HW1  194   1.761   0.741   1.643  0.5847 -0.8217 -0.5280
   49SOL    HW2  195   1.866   0.682   1.531  4.2101  0.1195  0.8366
   49SOL     MW  196   1.811   0.747   1.566  0.6360 -0.1778  0.5374
   50SOL     OW  197   1.170   1.049   0.507  0.0322  0.1422  0.4773
   50SOL    HW1  198   1.155   1.111   0.580  0.7056  2.0640 -2.9610
   50SOL    HW2  199   1.242   0.991   0.534 -0.9514  1.7249  2.3890
   50SOL     MW  200   1.178   1.049   0.520 -0.0088  0.6046  0.2759
   51SOL     OW  201   0.324   2.889   0.928 -0.3415 -0.1705  0.2718
   51SOL    HW1  202   0.411   2.854   0.940  0.4371 -0.7258 -1.3565
   51SOL    HW2  203   0.309   2.933   1.009 -1.3943  1.3273 -0.5552
   51SOL     MW  204   0.334   2.890   0.940 -0.3777 -0.0461 -0.0522
   52SOL     OW  205   0.795   1.814   0.444 -0.8067  0.4525  0.7494
   52SOL    HW1  206   0.760   1.896   0.476  1.8987  0.3259  2.7378
   52SOL    HW2  207   0.767   1.814   0.354  1.2389 -0.5804 -1.5193
   52SOL     MW  208   0.787   1.825   0.437 -0.1798  0.2995  0.7124
   53SOL     OW  209   0.477   2.153   0.646 -0.4200  0.1127  0.4182
   53SOL    HW1  210   0.429   2.115   0.576 -0.0576  0.4916  2.7891
   53SOL    HW2  211   0.502   2.244   0.616  0.6513 -0.0735  3.2769
   53SOL     MW  212   0.474   2.160   0.633 -0.2309  0.1381  1.1082
   54SOL     OW  213   2.161   0.857   0.865 -0.2838  0.2763  0.8237
   54SOL    HW1  214   2.144   0.918   0.790 -1.6642 -1.0912  0.8989
   54SOL    HW2  215   2.075   0.808   0.875 -0.6468 -1.1447 -0.9563
   54SOL     MW  216   2.148   0.859   0.856 -0.5138 -0.0916  0.5988
   55SOL     OW  217   0.583   1.521   1.597  0.4468  0.3640  0.5260
   55SOL    HW1  218   0.515   1.546   1.533 -0.7005  2.0603  1.4522
   55SOL    HW2  219   0.651   1.476   1.549  1.5748 -0.4655 -1.7768
   55SOL     MW  220   0.583   1.518   1.583  0.4442  0.4784  0.3444
   56SOL     OW  221   0.529   0.780   0.093 -0.0900  0.2949 -0.1051
   56SOL    HW1  222   0.561   0.866   0.058 -1.4812  3.6946  1.5726
   56SOL    HW2  223   0.457   0.752   0.044  1.1165  0.4817 -2.1419
   56SOL     MW  224   0.524   0.788   0.082 -0.1143  0.7681 -0.1524
   57SOL     OW  225   1.238   1.219   1.149 -0.4596 -0.1276 -1.0119
   57SOL    HW1  226   1.328   1.258   1.128 -0.7334 -0.5932  1.0655
   57SOL    HW2  227   1.253   1.179   1.235  0.7199 -1.3528  0.4619
   57SOL     MW  228   1.251   1.219   1.157 -0.3401 -0.3507 -0.5433
   58SOL     OW  229   0.552   1.171   1.312 -0.2705  0.2381 -0.1701
   58SOL    HW1  230   0.526   1.258   1.277 -0.5525 -0.0679 -1.2146
   58SOL    HW2  231   0.538   1.179   1.413 -0.6565  0.7772  0.9731
   58SOL     MW  232   0.547   1.183   1.321 -0.3586  0.2689 -0.1570
   59SOL     OW  233   1.531   1.676   0.339  0.0230  0.1293 -0.7504
   59SOL    HW1  234   1.559   1.747   0.400  1.1592  1.5970  2.4840
   59SOL    HW2  235   1.435   1.686   0.339 -1.4005  1.0917  1.1664
   59SOL     MW  236   1.522   1.687   0.347 -0.0149  0.4499 -0.0708
   60SOL     OW  237   0.070   0.171   1.671 -0.2424 -0.6977 -0.3406
   60SOL    HW1  238  -0.018   0.203   1.642 -3.3422 -1.0991  0.0706
   60SOL    HW2  239   0.053   0.125   1.753 -0.0807 -1.2404  0.9231
   60SOL     MW  240   0.056   0.169   1.678 -0.6301 -0.8222 -0.1196
   61SOL     OW  241   2.059   1.457   3.039  0.4790 -0.1806 -0.3487
   61SOL    HW1  242   2.033   1.459   3.135 -1.8046  1.7186 -0.8114
   61SOL    HW2  243   2.108   1.374   3.033 -0.4483  1.0373  0.3462
   61SOL     MW  244   2.062   1.446   3.051  0.0554  0.2307 -0.3180
   62SOL     OW  245   0.623   1.711   0.624 -0.0133  0.0524 -0.1132
   62SOL    HW1  246   0.699   1.728   0.564  3.8111  0.9122 -2.3997
   62SOL    HW2  247   0.621   1.612   0.637  0.7346 -0.9400  0.8213
   62SOL     MW  248   0.633   1.700   0.618  0.5900  0.0349 -0.2916
   63SOL     OW  249   1.654   0.722   0.716  0.3127 -0.4197  0.5055
   63SOL    HW1  250   1.638   0.801   0.661  1.2545  0.8336 -0.0452
   63SOL    HW2  251   1.565   0.700   0.742 -0.1439  1.5487 -0.4762
   63SOL     MW  252   1.640   0.730   0.712  0.3767  0.0054  0.3033
   64SOL     OW  253   0.278   1.710   0.721  0.0537  0.4034  0.2417
   64SOL    HW1  254   0.334   1.781   0.756  0.1840 -0.0099  1.4775
   64SOL    HW2  255   0.192   1.754   0.728  2.0893 -2.5127 -0.2859
   64SOL     MW  256   0.274   1.726   0.727  0.3395 -0.0359  0.3352
   65SOL     OW  257   1.552   2.352   0.376 -0.0622  0.1572  0.3183
   65SOL    HW1  258   1.642   2.324   0.391  0.4714  0.5848  1.5749
   65SOL    HW2  259   1.512   2.391   0.459  0.7467 -1.1062 -0.6014
   65SOL     MW  260   1.559   2.353   0.389  0.1150  0.0469  0.3627
   66SOL     OW  261   0.294   0.558   0.562 -0.1838 -0.1181  1.0098
   66SOL    HW1  262   0.338   0.500   0.501 -2.2096  3.1853 -1.0531
   66SOL    HW2  263   0.275   0.636   0.510  0.6818 -0.6101 -0.3973
   66SOL     MW  264   0.297   0.560   0.547 -0.3369  0.2528  0.5520
   67SOL     OW  265   1.436   0.096   2.023  0.6123 -0.1190 -0.0260
   67SOL    HW1  266   1.486   0.082   1.942 -0.3476  0.3803 -0.3416
   67SOL    HW2  267   1.371   0.024   2.031  1.0298  1.3276 -2.3764
   67SOL     MW  268   1.434   0.084   2.013  0.5407  0.1378 -0.3777
   68SOL     OW  269   0.634   0.096   2.953  0.2148 -0.2759 -0.5496
   68SOL    HW1  270   0.616   0.149   2.875 -2.5542 -1.0548  0.0708
   68SOL    HW2  271   0.714   0.137   2.979  1.7435  0.0324 -0.8496
   68SOL     MW  272   0.642   0.108   2.946  0.0512 -0.3380 -0.5074
   69SOL     OW  273   1.003   0.175   1.986 -0.5214  0.0748 -0.2765
   69SOL    HW1  274   1.094   0.199   2.007  1.7152 -0.8272  0.9664
   69SOL    HW2  275   0.997   0.079   2.013 -2.0977 -2.4102 -1.4237
   69SOL     MW  276   1.014   0.165   1.992 -0.4342 -0.3721 -0.2639
   70SOL     OW  277   0.518   1.729   1.132 -0.4436 -0.0879  0.1137
   70SOL    HW1  278   0.560   1.654   1.170  1.3858 -0.5498 -1.2957
   70SOL    HW2  279   0.569   1.740   1.048 -1.0852 -0.0949  0.2413
   70SOL     MW  280   0.530   1.721   1.126 -0.2869 -0.1497 -0.0554
   71SOL     OW  281   1.665   0.552   1.347 -0.8638 -0.2968 -0.3424
   71SOL    HW1  282   1.620   0.604   1.413 -1.0906  0.1466 -1.2790
   71SOL    HW2  283   1.620   0.580   1.264 -1.0511 -0.0479 -0.7954
   71SOL     MW  284   1.653   0.562   1.345 -0.9185 -0.2054 -0.5257
   72SOL     OW  285   0.789   1.772   0.970  0.0711  0.1391  0.2509
   72SOL    HW1  286   0.748   1.818   0.895 -0.4907 -0.1465  1.5227
   72SOL    HW2  287   0.757   1.681   0.967 -2.3995 -0.1263  1.2691
   72SOL     MW  288   0.779   1.766   0.960 -0.3290  0.0664  0.5531
   73SOL     OW  289   1.187   0.706   1.355  0.2079  0.1748 -0.2715
   73SOL    HW1  290   1.138   0.624   1.362 -1.1437  0.3645 -1.4472
   73SOL    HW2  291   1.136   0.775   1.401  1.0277 -1.7553  1.9895
   73SOL     MW  292   1.174   0.704   1.362  0.1377 -0.0548 -0.1283
   74SOL     OW  293   2.847   0.178   0.952 -0.7992 -0.2439 -0.1555
   74SOL    HW1  294   2.843   0.145   0.862  0.7240  2.9934  0.6796
   74SOL    HW2  295   2.809   0.265   0.944 -0.1655  1.3267 -0.4463
   74SOL     MW  296   2.841   0.185   0.939 -0.5146  0.3904 -0.0837
   75SOL     OW  297   1.671   1.385   0.124  0.2329  0.2239 -0.6429
   75SOL    HW1  298   1.722   1.384   0.207  0.3808 -1.3556  1.1193
   75SOL    HW2  299   1.682   1.296   0.085 -0.6995 -2.5892 -1.6155
   75SOL     MW  300   1.679   1.373   0.130  0.1294 -0.3556 -0.5387
   76SOL     OW  301   2.997   0.621   0.426 -0.5145 -0.1235 -0.3257
   76SOL    HW1  302   3.039   0.669   0.499 -1.4360  2.1914  0.2091
   76SOL    HW2  303   3.054   0.546   0.422 -1.1746  1.8333  1.9444
   76SOL     MW  304   3.010   0.617   0.435 -0.7232  0.4401  0.0444
   77SOL     OW  305   0.833   0.531   0.411  0.4451  0.3479  0.4046
   77SOL    HW1  306   0.794   0.529   0.322  2.1226 -0.2845  1.6403
   77SOL    HW2  307   0.806   0.448   0.452  0.1192 -0.6857  0.5637
   77SOL     MW  308   0.824   0.520   0.405  0.6234  0.1281  0.5886
   78SOL     OW  309   0.753   0.873   1.265  0.1441  0.5224  0.4506
   78SOL    HW1  310   0.706   0.906   1.188 -2.7908  3.9108 -0.7305
   78SOL    HW2  311   0.839   0.849   1.235  1.0991 -1.8759  0.1761
   78SOL     MW  312   0.758   0.874   1.251 -0.1171  0.6530  0.2585
   79SOL     OW  313   1.905   1.704   0.625  0.2025  0.6627  0.2429
   79SOL    HW1  314   1.827   1.652   0.601 -0.3777 -0.9581  0.9236
   79SOL    HW2  315   1.898   1.735   0.714 -1.6526 -0.2342 -4.7675
   79SOL     MW  316   1.894   1.701   0.634 -0.1188  0.3305 -0.3284
   80SOL     OW  317   0.105   0.995   0.305 -0.2229 -0.4855 -0.4520
   80SOL    HW1  318   0.014   0.962   0.340 -0.8219  0.0098  2.2309
   80SOL    HW2  319   0.171   0.932   0.343  0.1996 -1.0477 -1.2486
   80SOL     MW  320   0.102   0.982   0.314 -0.2462 -0.4943 -0.2031
   81SOL     OW  321   1.911   1.913   0.214 -0.0285  0.1984  0.5560
   81SOL    HW1  322   1.872   1.831   0.178  2.2186 -2.8942 -0.9800
   81SOL    HW2  323   1.843   1.977   0.194  1.2974 -1.6943  1.3707
   81SOL     MW  324   1.897   1.911   0.207  0.4429 -0.4594  0.4608
   82SOL     OW  325   0.809   1.095   0.531 -0.3519  0.0001  0.3238
   82SOL    HW1  326   0.819   1.141   0.449 -1.1345 -0.1923 -0.2100
   82SOL    HW2  327   0.829   1.011   0.513 -0.1149  1.6895  0.0043
   82SOL     MW  328   0.813   1.090   0.518 -0.4239  0.1976  0.2112
   83SOL     OW  329   0.183   0.601   1.322 -0.4239 -0.5686  0.6303
   83SOL    HW1  330   0.154   0.696   1.310 -1.6934 -0.4490 -0.3074
   83SOL    HW2  331   0.228   0.615   1.406 -0.2892 -0.4757  1.3881
   83SOL     MW  332   0.185   0.616   1.331 -0.5736 -0.5405  0.6066
   84SOL     OW  333   0.093   0.218   0.898 -0.0578  0.2389  0.0191
   84SOL    HW1  334   0.012   0.224   0.848 -2.0504  0.3355 -0.6361
   84SOL    HW2  335   0.069   0.170   0.979  0.0940  2.5204  1.3973
   84SOL     MW  336   0.079   0.213   0.902 -0.3007  0.5527  0.1145
   85SOL     OW  337   0.487   0.442   0.763  0.2297  0.0246  0.1693
   85SOL    HW1  338   0.423   0.464   0.690 -1.5525 -2.0606  0.2136
   85SOL    HW2  339   0.459   0.355   0.780  1.5472  2.2627  0.6782
   85SOL     MW  340   0.475   0.434   0.756  0.1684  0.0448  0.2423
   86SOL     OW  341   1.216   0.367   1.086  0.0952 -0.4933  0.3000
   86SOL    HW1  342   1.157   0.435   1.057  1.1061 -2.1583 -0.8689
   86SOL    HW2  343   1.245   0.395   1.171  0.3590  2.0008  0.8581
   86SOL     MW  344   1.212   0.379   1.093  0.2634 -0.3839  0.2194
   87SOL     OW  345   1.145   1.453   1.246 -0.0675 -0.2301  0.3731
   87SOL    HW1  346   1.178   1.529   1.189  0.1227  1.5067  0.5727
   87SOL    HW2  347   1.174   1.374   1.190 -0.3876 -1.2662 -0.8507
   87SOL     MW  348   1.153   1.453   1.231 -0.0846 -0.1377  0.2379
   88SOL     OW  349   1.211   1.006   0.987 -0.4161 -0.1581 -0.2258
   88SOL    HW1  350   1.306   1.005   0.972  1.4031 -0.8868  0.6092
   88SOL    HW2  351   1.193   1.067   1.063  1.0168  0.8883 -1.6673
   88SOL     MW  352   1.221   1.014   0.995  0.0130 -0.1162 -0.3058
   89SOL     OW  353   1.758   0.679   0.305  0.2899 -0.2085  0.5912
   89SOL    HW1  354   1.812   0.606   0.348  0.9024  1.7395  2.2723
   89SOL    HW2  355   1.799   0.693   0.218 -0.7190  0.8280 -0.0775
   89SOL     MW  356   1.770   0.671   0.299  0.2376  0.1852  0.7248
   90SOL     OW  357   0.677   1.167   2.814 -0.5406 -0.0384 -0.1313
   90SOL    HW1  358   0.732   1.089   2.815  1.4202 -2.0832 -3.9409
   90SOL    HW2  359   0.680   1.207   2.906 -0.9390  0.8956 -1.1432
   90SOL     MW  360   0.685   1.162   2.827 -0.3345 -0.1850 -0.7675
   91SOL     OW  361   2.206   0.648   0.528 -0.4189 -0.3426 -0.5562
   91SOL    HW1  362   2.231   0.717   0.467 -0.5593 -1.0280  1.2427
   91SOL    HW2  363   2.222   0.565   0.483  0.0304 -0.6395  1.3669
   91SOL     MW  364   2.211   0.646   0.514 -0.3781 -0.4722 -0.0652
   92SOL     OW  365   1.634   0.880   0.490 -0.2218 -0.7906  0.3931
   92SOL    HW1  366   1.536   0.886   0.515 -1.9227 -0.6908  0.0109
   92SOL    HW2  367   1.644   0.788   0.459  0.0439 -0.0428 -1.6385
   92SOL     MW  368   1.622   0.869   0.489 -0.4112 -0.6788  0.0746
   93SOL     OW  369   1.009   0.322   0.375 -0.3113  0.2052  0.2626
   93SOL    HW1  370   0.985   0.414   0.361  1.4423  2.1111  2.3076
   93SOL    HW2  371   1.052   0.299   0.291 -0.3845  0.9774 -1.8997
   93SOL     MW  372   1.012   0.331   0.362 -0.0896  0.5586  0.2471
   94SOL     OW  373   1.888   1.365   1.606 -0.2579  0.5145  0.3707
   94SOL    HW1  374   1.884   1.370   1.513 -1.7369 -2.8222  1.3145
   94SOL    HW2  375   1.856   1.280   1.636 -0.4210 -1.6777  0.7295
   94SOL     MW  376   1.883   1.354   1.598 -0.4746 -0.2150  0.5425
   95SOL     OW  377   0.710   1.503   0.991  0.2671  0.1517  0.0381
   95SOL    HW1  378   0.790   1.447   0.974 -2.2511 -1.3128  0.7129
   95SOL    HW2  379   0.641   1.460   0.940  1.8212  0.3246 -1.5029
   95SOL     MW  380   0.711   1.490   0.982  0.1399 -0.0187 -0.0762
   96SOL     OW  381   1.232   1.820   1.586 -0.0287  0.6892  0.8916
   96SOL    HW1  382   1.160   1.801   1.650  4.6206  3.8693  0.9258
   96SOL    HW2  383   1.267   1.738   1.564  1.7805  0.0714  0.3429
   96SOL     MW  384   1.227   1.807   1.592  0.8234  1.0273  0.8237
   97SOL     OW  385   1.259   1.465   0.821  0.6236 -0.3783  0.3833
   97SOL    HW1  386   1.260   1.499   0.908  1.7277 -1.2696 -0.0477
   97SOL    HW2  387   1.175   1.491   0.779 -0.8062  0.6739  0.7384
   97SOL     MW  388   1.248   1.473   0.827  0.5806 -0.3570  0.3732
   98SOL     OW  389   1.480   1.310   1.055 -0.1851  0.2626  0.1489
   98SOL    HW1  390   1.486   1.381   1.114  0.6505 -1.7104 -1.9046
   98SOL    HW2  391   1.524   1.343   0.978  0.7604 -1.6546 -0.3096
   98SOL     MW  392   1.487   1.324   1.053  0.0499 -0.2506 -0.1825
   99SOL     OW  393   1.400   0.382   1.321 -0.6869  0.0275  0.6034
   99SOL    HW1  394   1.438   0.457   1.273 -2.1404  0.5973  0.9575
   99SOL    HW2  395   1.416   0.404   1.414  1.2245 -1.6221 -1.1395
   99SOL     MW  396   1.407   0.395   1.327 -0.6265 -0.1150  0.4202
  100SOL     OW  397   1.039   1.139   1.418 -0.2093  0.3784 -0.6569
  100SOL    HW1  398   1.062   1.199   1.489 -0.2723  0.4567 -1.3824
  100SOL    HW2  399   1.054   1.048   1.452  2.1834 -2.3127 -1.9698
  100SOL     MW  400   1.044   1.135   1.432  0.0981  0.0337 -0.9259
  101SOL     OW  401   0.543   1.073   0.269 -0.3779 -0.1551  0.0022
  101SOL    HW1  402   0.553   0.989   0.315  1.0614  2.9633  2.3701
  101SOL    HW2  403   0.520   1.055   0.177  0.6445 -0.5184  4.0842
  101SOL     MW  404   0.542   1.059   0.263 -0.0531  0.2084  0.8532
  102SOL     OW  405   2.951   0.640   0.961  0.0455 -0.3231  0.7447
  102SOL    HW1  406   2.978   0.727   1.007  0.6271 -1.5254  2.3860
  102SOL    HW2  407   3.003   0.574   1.014 -0.1639 -0.3005  0.5409
  102SOL     MW  408   2.961   0.643   0.974  0.0946 -0.4787  0.9344
  103SOL     OW  409   1.752   0.386   1.839  0.5847 -0.3553  0.0202
  103SOL    HW1  410   1.693   0.320   1.818  0.4779  2.4283  0.5252
  103SOL    HW2  411   1.804   0.338   1.904 -1.7765  1.6112 -2.2677
  103SOL     MW  412   1.751   0.371   1.845  0.2590  0.2714 -0.2150
  104SOL     OW  413   0.160   1.774   1.515  0.0395 -0.7391  0.2299
  104SOL    HW1  414   0.106   1.732   1.570  2.1495  1.4524  1.7709
  104SOL    HW2  415   0.178   1.725   1.433 -4.0640  0.8580 -2.1067
  104SOL     MW  416   0.155   1.762   1.511 -0.2235 -0.2392  0.1250
  105SOL     OW  417   0.029   1.160   0.489 -0.0776 -0.2260 -0.1922
  105SOL    HW1  418   0.087   1.099   0.446 -1.3843 -0.7767  1.2573
  105SOL    HW2  419   0.088   1.215   0.538  2.1200 -0.9284 -0.6133
  105SOL     MW  420   0.045   1.159   0.490  0.0400 -0.3913 -0.0565
  106SOL     OW  421   0.868   0.389   1.021  0.2489  0.1021  0.6079
  106SOL    HW1  422   0.793   0.439   0.982 -0.1444 -0.0062 -3.2363
  106SOL    HW2  423   0.909   0.349   0.946 -0.4266 -2.1393  0.7681
  106SOL     MW  424   0.863   0.391   1.006  0.1079 -0.2079  0.1219
  107SOL     OW  425   0.790   2.156   2.999 -0.6722  0.1086  0.3449
  107SOL    HW1  426   0.715   2.106   2.966  1.6471  1.1484 -2.9280
  107SOL    HW2  427   0.768   2.156   3.091 -1.1819 -3.1266 -0.2555
  107SOL     MW  428   0.777   2.149   3.007 -0.4335 -0.1811 -0.1661
  108SOL     OW  429   1.339   1.558   1.490 -0.2754 -0.6886  0.3006
  108SOL    HW1  430   1.299   1.504   1.426  2.0572  0.0895  1.2974
  108SOL    HW2  431   1.389   1.500   1.555  0.2240 -1.9352  2.2477
  108SOL     MW  432   1.340   1.543   1.490  0.0983 -0.7504  0.6890
  109SOL     OW  433   2.000   0.755   0.182  0.0049  0.1499 -0.4674
  109SOL    HW1  434   2.037   0.829   0.147 -0.1940  0.6897  2.5586
  109SOL    HW2  435   2.004   0.753   0.277 -0.3503  0.2765 -1.7102
  109SOL     MW  436   2.005   0.764   0.190 -0.0682  0.2378 -0.2321
  110SOL     OW  437   0.476   1.906   0.777 -0.5627  0.5212  0.1604
  110SOL    HW1  438   0.524   1.842   0.717 -1.7847 -0.3985  1.5747
  110SOL    HW2  439   0.499   1.994   0.741 -5.0434 -2.0796  0.1913
  110SOL     MW  440   0.485   1.909   0.765 -1.3151  0.0567  0.3510
  111SOL     OW  441   0.759   0.939   1.531  0.0502  0.4924  0.4106
  111SOL    HW1  442   0.747   0.926   1.435 -1.4866  1.5469  0.5980
  111SOL    HW2  443   0.682   0.898   1.571  1.0402  0.2409 -0.1756
  111SOL     MW  444   0.747   0.932   1.524 -0.0219  0.5983  0.3580
  112SOL     OW  445   1.324   1.072   1.623  0.7216 -0.2672 -1.0372
  112SOL    HW1  446   1.276   1.149   1.653  1.2834  1.1161 -0.4250
  112SOL    HW2  447   1.269   0.997   1.622  0.5791 -0.3234  0.4637
  112SOL     MW  448   1.311   1.072   1.626  0.7769 -0.0921 -0.7584
  113SOL     OW  449   1.269   0.024   1.750 -0.2821  0.4685 -0.3281
  113SOL    HW1  450   1.259  -0.026   1.830 -0.5449  0.4143 -1.1821
  113SOL    HW2  451   1.255  -0.038   1.675  0.4807  0.8723  0.7956
  113SOL     MW  452   1.266   0.010   1.751 -0.2161  0.5147 -0.2925
  114SOL     OW  453   0.424   2.846   1.938 -0.7049 -0.0825  0.1242
  114SOL    HW1  454   0.410   2.917   2.000 -1.0628  2.3301 -2.8561
  114SOL    HW2  455   0.410   2.901   1.860 -1.2328  1.1017 -2.5044
  114SOL     MW  456   0.421   2.863   1.936 -0.8217  0.3921 -0.6159
  115SOL     OW  457   0.481   0.825   1.104  0.0144 -0.2488 -0.2257
  115SOL    HW1  458   0.489   0.730   1.107  1.1481  0.1963 -0.4913
  115SOL    HW2  459   0.422   0.844   1.177 -0.0975  1.1487 -1.1437
  115SOL     MW  460   0.474   0.815   1.114  0.1492 -0.0056 -0.3818
  116SOL     OW  461   0.779   0.998   0.996  0.3033  0.4761 -0.2345
  116SOL    HW1  462   0.832   1.034   0.920  2.6915  0.3189 -1.1254
  116SOL    HW2  463   0.815   1.043   1.075  1.0517 -1.2582  3.0175
  116SOL     MW  464   0.791   1.009   0.996  0.7171  0.2265  0.0770
  117SOL     OW  465   1.185   1.187   0.758 -0.3481  0.1261 -0.5252
  117SOL    HW1  466   1.178   1.119   0.826 -1.4105  1.7416 -1.7046
  117SOL    HW2  467   1.236   1.261   0.799 -0.3852  4.1963 -0.6665
  117SOL     MW  468   1.191   1.188   0.772 -0.4931  0.8763 -0.6994
  118SOL     OW  469   3.028   2.913   1.696 -0.0881  0.4049  0.0109
  118SOL    HW1  470   3.076   2.948   1.772 -0.7865  0.7900  1.2367
  118SOL    HW2  471   2.942   2.953   1.699  3.2494 -0.3168 -0.3528
  118SOL     MW  472   3.023   2.923   1.707  0.2601  0.3605  0.1246
  119SOL     OW  473   0.461   1.423   1.221 -0.5069 -0.0152  0.2668
  119SOL    HW1  474   0.490   1.408   1.128 -0.8489 -1.2263 -0.4687
  119SOL    HW2  475   0.372   1.397   1.221  2.2122  1.2539  1.0973
  119SOL     MW  476   0.453   1.418   1.208 -0.1933 -0.0075  0.2794
  120SOL     OW  477   0.260   0.688   1.010  1.0157  0.3871 -0.5056
  120SOL    HW1  478   0.261   0.608   1.067 -0.9051  1.5483  0.1450
  120SOL    HW2  479   0.329   0.743   1.043  0.3741 -0.4451  1.1321
  120SOL     MW  480   0.270   0.685   1.022  0.6776  0.4305 -0.2037
  121SOL     OW  481   1.807   1.109   1.696 -0.0691  1.0132  0.4270
  121SOL    HW1  482   1.727   1.066   1.726  0.1325  2.1263 -0.1735
  121SOL    HW2  483   1.833   1.068   1.609  0.0685  0.7648  0.1807
  121SOL     MW  484   1.800   1.098   1.689 -0.0244  1.1273  0.3153
  122SOL     OW  485   0.139   0.593   0.795  0.1813  0.3622  0.2581
  122SOL    HW1  486   0.193   0.579   0.716  0.7101  2.4580  0.5532
  122SOL    HW2  487   0.193   0.627   0.865 -0.6802  2.9775 -2.4264
  122SOL     MW  488   0.153   0.595   0.794  0.1374  0.9838 -0.0572
  123SOL     OW  489   1.803   1.096   0.545  0.0415 -0.0187  1.0613
  123SOL    HW1  490   1.720   1.044   0.544  1.9789 -0.8664  1.7643
  123SOL    HW2  491   1.834   1.088   0.633 -1.0178 -1.7248  2.1758
  123SOL     MW  492   1.796   1.088   0.557  0.1574 -0.3557  1.3011
  124SOL     OW  493   0.675   0.552   0.939 -0.2755 -0.7482 -0.1699
  124SOL    HW1  494   0.608   0.509   0.880 -0.5737 -2.9194 -0.9611
  124SOL    HW2  495   0.696   0.642   0.899 -1.1084  0.7387 -0.7932
  124SOL     MW  496   0.669   0.558   0.926 -0.4247 -0.8385 -0.3565
  125SOL     OW  497   0.703   1.767   1.695 -0.0666  0.0585  0.3253
  125SOL    HW1  498   0.633   1.708   1.658  1.3277 -2.8797 -1.8235
  125SOL    HW2  499   0.654   1.852   1.707  0.6626 -2.3256 -1.5308
  125SOL     MW  500   0.687   1.771   1.692  0.2136 -0.6437 -0.2031
  126SOL     OW  501   2.110   1.637   1.949  0.5956 -0.2186 -0.3741
  126SOL    HW1  502   2.185   1.700   1.930  1.8744 -2.3264 -1.2848
  126SOL    HW2  503   2.160   1.570   1.994  1.1395 -0.9170 -0.4104
  126SOL     MW  504   2.127   1.637   1.952  0.8361 -0.5888 -0.4990
  127SOL     OW  505   0.674   0.759   1.874  0.6580 -0.1930  0.2187
  127SOL    HW1  506   0.762   0.719   1.903  0.2366  0.8356 -0.2436
  127SOL    HW2  507   0.670   0.849   1.897 -1.4787 -0.7696 -2.8900
  127SOL     MW  508   0.685   0.766   1.881  0.3205 -0.1334 -0.2524
  128SOL     OW  509   1.834   0.788   2.862 -0.0603  0.3808  0.6199
  128SOL    HW1  510   1.830   0.764   2.766 -4.7477 -0.3591  0.7279
  128SOL    HW2  511   1.784   0.868   2.877  1.5005 -1.2750 -0.2128
  128SOL     MW  512   1.827   0.795   2.851 -0.4728  0.0647  0.5243
  129SOL     OW  513   1.603   0.922   0.186  0.2296  0.0033 -0.5203
  129SOL    HW1  514   1.535   0.849   0.184 -2.9517 -1.5509  1.2209
  129SOL    HW2  515   1.642   0.917   0.270  3.0496 -0.4140 -0.7669
  129SOL     MW  516   1.599   0.912   0.197  0.1819 -0.2568 -0.3231
  130SOL     OW  517   0.798   1.409   0.401 -0.2694 -0.2976  0.0169
  130SOL    HW1  518   0.861   1.418   0.464 -2.3026  0.7825 -4.0453
  130SOL    HW2  519   0.825   1.466   0.329  0.9086 -1.3338  1.0916
  130SOL     MW  520   0.810   1.418   0.400 -0.3822 -0.2918 -0.3773
  131SOL     OW  521   3.011   0.833   3.076  0.1304  0.3238 -0.3806
  131SOL    HW1  522   2.996   0.873   2.992  2.4261 -0.3723 -0.6298
  131SOL    HW2  523   3.103   0.857   3.110 -0.5218 -0.7698 -2.0417
  131SOL     MW  524   3.021   0.841   3.069  0.3472  0.0877 -0.6326
  132SOL     OW  525   2.791   0.135   1.214 -0.7979 -0.1695 -0.1547
  132SOL    HW1  526   2.834   0.137   1.130 -0.6157  0.8821  1.6709
  132SOL    HW2  527   2.698   0.116   1.204  0.1712 -1.8010  1.3879
  132SOL     MW  528   2.785   0.133   1.202 -0.6460 -0.2460  0.2897
  133SOL     OW  529   1.057   0.172   1.717 -0.2393 -0.3605  0.5574
  133SOL    HW1  530   1.136   0.120   1.735  0.1646  1.4899  0.5409
  133SOL    HW2  531   1.024   0.198   1.805  2.0341  2.7954 -0.1063
  133SOL     MW  532   1.063   0.169   1.731  0.1139  0.3000  0.4676
  134SOL     OW  533   1.425   2.524   1.428 -0.2971  0.0640  0.0713
  134SOL    HW1  534   1.349   2.585   1.416 -0.9542  2.1035 -1.9305
  134SOL    HW2  535   1.458   2.548   1.514 -0.1653  1.0025 -1.2480
  134SOL     MW  536   1.419   2.535   1.438 -0.3664  0.4569 -0.3669
  135SOL     OW  537   3.035   1.032   2.847  0.5220  0.0101 -0.4390
  135SOL    HW1  538   3.115   1.093   2.861  4.0419  1.1699  0.5914
  135SOL    HW2  539   2.964   1.088   2.882 -2.7350 -1.7897  0.7232
  135SOL     MW  540   3.036   1.047   2.853  0.5567 -0.0743 -0.1497
  136SOL     OW  541   0.255   2.055   0.879  0.1112 -0.0301  0.3543
  136SOL    HW1  542   0.174   2.008   0.852  2.0565  2.8776 -1.3102
  136SOL    HW2  543   0.320   2.015   0.823  0.2212 -2.5059 -0.7250
  136SOL     MW  544   0.253   2.044   0.868  0.3824  0.0269 -0.0077
  137SOL     OW  545   0.719   2.058   0.530 -0.2480  0.1598 -0.1470
  137SOL    HW1  546   0.755   2.020   0.612 -0.0073  3.5522 -0.1326
  137SOL    HW2  547   0.623   2.068   0.556  0.2957  0.7089  1.3325
  137SOL     MW  548   0.711   2.054   0.544 -0.1445  0.6798  0.0501
  138SOL     OW  549   0.520   0.529   1.163 -0.2878 -0.3582 -0.1070
  138SOL    HW1  550   0.441   0.469   1.139  2.1555 -1.7364 -0.2687
  138SOL    HW2  551   0.585   0.521   1.097 -3.3730 -1.1582 -0.8944
  138SOL     MW  552   0.518   0.520   1.151 -0.3725 -0.6456 -0.2322
  139SOL     OW  553   2.687   0.560   1.377  1.2714  0.1178 -0.0817
  139SOL    HW1  554   2.751   0.489   1.368 -2.4179  1.9034  1.8746
  139SOL    HW2  555   2.728   0.618   1.441  0.0536  1.6239  1.3820
  139SOL     MW  556   2.701   0.558   1.384  0.6240  0.5521  0.3695
  140SOL     OW  557   0.845   0.378   2.078 -0.0927 -0.0583 -0.5163
  140SOL    HW1  558   0.899   0.304   2.043  0.0558 -0.2142 -0.0970
  140SOL    HW2  559   0.875   0.380   2.170  0.5699  1.0053  1.1234
  140SOL     MW  560   0.856   0.369   2.085  0.0143  0.0614 -0.2446
  141SOL     OW  561   1.079   0.551   1.789  0.5201  0.0331  0.2646
  141SOL    HW1  562   1.117   0.484   1.733 -0.8351  3.4670  0.9876
  141SOL    HW2  563   1.137   0.626   1.774 -0.9198 -1.2709  0.0720
  141SOL     MW  564   1.092   0.552   1.780  0.1513  0.3141  0.3346
  142SOL     OW  565   0.902   1.130   0.788 -0.8891 -0.3389  0.7530
  142SOL    HW1  566   0.892   1.093   0.698  0.0701 -2.3079  1.8778
  142SOL    HW2  567   0.996   1.160   0.799  0.8220  1.8286  1.0836
  142SOL     MW  568   0.913   1.129   0.778 -0.5368 -0.3127  0.9450
  143SOL     OW  569   1.761   0.788   1.106 -0.2865  0.2550  0.1000
  143SOL    HW1  570   1.822   0.788   1.034 -0.6200 -0.7438  1.1030
  143SOL    HW2  571   1.680   0.745   1.067 -1.7351  1.3476  0.1506
  143SOL     MW  572   1.758   0.782   1.091 -0.5217  0.2674  0.2390
  144SOL     OW  573   0.195   1.232   1.534  0.3577  0.3831 -0.3780
  144SOL    HW1  574   0.287   1.229   1.510 -0.6241  2.5068  1.3393
  144SOL    HW2  575   0.211   1.249   1.631 -0.6548 -0.1164  0.7566
  144SOL     MW  576   0.209   1.234   1.544  0.0946  0.5974 -0.0018
  145SOL     OW  577   0.285   0.400   1.054  0.2431 -0.0106  0.6819
  145SOL    HW1  578   0.289   0.348   1.135  3.0442  0.2692 -3.2058
  145SOL    HW2  579   0.278   0.341   0.976 -3.5167 -4.5952 -2.5109
  145SOL     MW  580   0.285   0.385   1.054  0.1166 -0.5786 -0.2523
  146SOL     OW  581   0.848   1.957   1.361 -0.5608  0.2227 -0.7136
  146SOL    HW1  582   0.889   1.944   1.270  1.5317  1.6091  3.0968
  146SOL    HW2  583   0.752   1.941   1.349  3.4614  0.5829 -0.7016
  146SOL     MW  584   0.840   1.953   1.347  0.2459  0.4531 -0.2093
  147SOL     OW  585   0.379   0.394   2.984  0.0930  0.0527  0.5504
  147SOL    HW1  586   0.293   0.406   3.020 -0.1125  1.8877  0.2150
  147SOL    HW2  587   0.368   0.455   2.907  0.6050 -0.2988  0.5235
  147SOL     MW  588   0.366   0.404   2.979  0.1334  0.2484  0.5026
  148SOL     OW  589   0.106   0.882   1.326 -0.1973  0.5294 -0.5007
  148SOL    HW1  590   0.186   0.924   1.312 -1.6635 -2.2286  0.3015
  148SOL    HW2  591   0.089   0.903   1.422 -1.4987  1.7883  1.2218
  148SOL     MW  592   0.114   0.891   1.337 -0.5624  0.3316 -0.1676
  149SOL     OW  593   1.380   1.161   1.385 -0.1423 -0.2904 -0.8594
  149SOL    HW1  594   1.379   1.133   1.481 -1.0564  3.2616 -0.6403
  149SOL    HW2  595   1.463   1.206   1.382  0.0091 -0.8569  2.1287
  149SOL     MW  596   1.391   1.164   1.397 -0.2430  0.1035 -0.4362
  150SOL     OW  597   1.855   1.368   0.734 -0.1307  0.4323 -0.3320
  150SOL    HW1  598   1.880   1.281   0.761  2.0944  0.3405 -0.4725
  150SOL    HW2  599   1.920   1.430   0.770 -0.3337  2.1519  2.1415
  150SOL     MW  600   1.867   1.365   0.742  0.1361  0.6471 -0.0242
  151SOL     OW  601   1.645   1.864   0.837 -0.6189 -0.3030 -0.1845
  151SOL    HW1  602   1.609   1.874   0.748  0.6029  2.7350 -1.3959
  151SOL    HW2  603   1.576   1.820   0.873  0.7837 -0.4869  1.4730
  151SOL     MW  604   1.631   1.860   0.830 -0.2726  0.0736 -0.1256
  152SOL     OW  605   0.730   1.324   1.464 -0.4397  0.5445  0.2998
  152SOL    HW1  606   0.740   1.262   1.532  0.6554  0.4062 -2.4365
  152SOL    HW2  607   0.822   1.353   1.456 -0.8233 -1.5949  0.9562
  152SOL     MW  608   0.744   1.320   1.472 -0.3458  0.2440  0.0254
  153SOL     OW  609   2.640   1.263   0.764  0.0275 -0.5507 -0.1672
  153SOL    HW1  610   2.698   1.229   0.688  0.5422 -0.2526 -1.1249
  153SOL    HW2  611   2.577   1.190   0.760 -2.5701  2.0529  0.2463
  153SOL     MW  612   2.639   1.249   0.753 -0.2473 -0.1678 -0.2390
  154SOL     OW  613   0.388   1.744   1.733  0.0716 -0.2051  0.3629
  154SOL    HW1  614   0.381   1.744   1.640  0.0792  1.0711 -0.2740
  154SOL    HW2  615   0.383   1.655   1.759  0.0024  1.7753 -0.7044
  154SOL     MW  616   0.387   1.733   1.724  0.0635  0.2246  0.1381
  155SOL     OW  617   1.160   0.691   0.292  0.4489 -0.1796  0.4579
  155SOL    HW1  618   1.134   0.644   0.377  1.4840 -0.6048  1.2102
  155SOL    HW2  619   1.120   0.776   0.301  0.4935 -0.8707  2.3856
  155SOL     MW  620   1.151   0.696   0.304  0.5914 -0.3269  0.8115
  156SOL     OW  621   1.597   3.005   1.057  0.1053  0.1484 -0.8792
  156SOL    HW1  622   1.619   3.084   1.111 -0.9865 -1.2692 -0.1090
  156SOL    HW2  623   1.595   2.934   1.116 -2.0566  1.6935 -1.3383
  156SOL     MW  624   1.600   3.006   1.072 -0.3240  0.1653 -0.8381
  157SOL     OW  625   1.413   1.139   0.123  0.2712 -0.0137  0.0472
  157SOL    HW1  626   1.459   1.061   0.139 -1.2631  2.7728 -0.0009
  157SOL    HW2  627   1.476   1.206   0.103  1.7027 -2.7874  0.4689
  157SOL     MW  628   1.427   1.137   0.123  0.2577 -0.0120  0.0965
  158SOL     OW  629   0.445   1.643   2.232 -0.4045 -0.5668 -0.3201
  158SOL    HW1  630   0.430   1.682   2.149 -1.4299 -1.2751 -0.3544
  158SOL    HW2  631   0.357   1.623   2.271 -1.9850  1.3919  1.3066
  158SOL     MW  632   0.431   1.646   2.226 -0.7484 -0.4018 -0.1100
  159SOL     OW  633   1.283   1.720   0.418 -0.2911  0.3168 -0.0510
  159SOL    HW1  634   1.247   1.633   0.403 -2.3191  0.7813  1.4088
  159SOL    HW2  635   1.219   1.765   0.484  0.3163 -0.9139  0.6604
  159SOL     MW  636   1.270   1.714   0.425 -0.4785  0.2157  0.2355
  160SOL     OW  637   0.462   1.144   1.577  0.4014  0.3197  0.4880
  160SOL    HW1  638   0.485   1.054   1.587  0.4374  1.6133 -1.4060
  160SOL    HW2  639   0.494   1.185   1.652 -2.4094 -1.6035  1.3951
  160SOL     MW  640   0.469   1.138   1.588  0.0353  0.2366  0.3578
  161SOL     OW  641   0.521   2.183   2.585 -0.4941 -0.3604 -0.8010
  161SOL    HW1  642   0.431   2.176   2.553 -0.3206  1.1920  0.9167
  161SOL    HW2  643   0.575   2.120   2.536  0.8543 -0.8185  0.7737
  161SOL     MW  644   0.516   2.174   2.574 -0.2933 -0.2160 -0.3666
  162SOL     OW  645   1.060   1.755   1.810  0.1227  0.6766  0.8472
  162SOL    HW1  646   1.059   1.848   1.852 -1.2402  4.3482  1.2125
  162SOL    HW2  647   0.969   1.721   1.816  1.8272  2.1964  2.3095
  162SOL     MW  648   1.048   1.763   1.816  0.1678  1.3616  1.0883
  163SOL     OW  649   2.096   0.066   0.973  0.0188 -0.3230  0.1445
  163SOL    HW1  650   2.087   0.099   0.886  1.1318  3.7778  0.1737
  163SOL    HW2  651   2.024   0.006   0.984  0.1422  2.4407  1.5088
  163SOL     MW  652   2.085   0.063   0.963  0.1819  0.5827  0.3284
  164SOL     OW  653   0.334   0.211   0.791  0.1320  0.2225  0.0531
  164SOL    HW1  654   0.244   0.224   0.822  0.2580  0.3136 -0.5712
  164SOL    HW2  655   0.338   0.131   0.740  0.4244 -2.2289  1.6198
  164SOL     MW  656   0.323   0.202   0.788  0.1872 -0.0889  0.1774
  165SOL     OW  657   1.326   1.251   0.373 -0.1103 -0.4751 -0.0762
  165SOL    HW1  658   1.264   1.188   0.409  0.3745  1.7874 -1.1797
  165SOL    HW2  659   1.343   1.208   0.287  1.5408  1.5054 -5.2817
  165SOL     MW  660   1.320   1.237   0.367  0.1715  0.0847 -0.9086
  166SOL     OW  661   0.509   1.063   0.974  0.1240  0.2305  0.5831
  166SOL    HW1  662   0.471   1.000   1.033 -2.4842  0.7807 -2.1050
  166SOL    HW2  663   0.605   1.052   0.988 -0.3806 -0.7247  0.4052
  166SOL     MW  664   0.517   1.053   0.984 -0.2867  0.1770  0.2049
  167SOL     OW  665   0.806   1.098   0.239 -0.5144 -0.5512 -0.1744
  167SOL    HW1  666   0.712   1.077   0.235  2.3375  2.3305 -0.8754
  167SOL    HW2  667   0.824   1.136   0.151 -0.0168 -2.1199 -2.1003
  167SOL     MW  668   0.796   1.100   0.227 -0.0724 -0.3780 -0.5210
  168SOL     OW  669   1.648   1.682   2.924 -0.1041 -0.5844  0.2760
  168SOL    HW1  670   1.555   1.660   2.930 -0.5487  0.1192  0.4936
  168SOL    HW2  671   1.695   1.596   2.923 -0.6748  1.7134  0.2440
  168SOL     MW  672   1.642   1.668   2.925 -0.2380 -0.1884  0.3005
  169SOL     OW  673   0.374   0.964   1.314  0.1618 -0.2336  0.6822
  169SOL    HW1  674   0.391   0.910   1.388  1.1991 -0.7398  0.6046
  169SOL    HW2  675   0.448   1.033   1.312 -0.9492  1.6959  0.8253
  169SOL     MW  676   0.386   0.966   1.324  0.1520 -0.0458  0.6909
  170SOL     OW  677   0.992   1.445   1.494  0.3020 -0.1547  0.4251
  170SOL    HW1  678   0.951   1.534   1.507 -1.6422 -0.9482 -1.2651
  170SOL    HW2  679   1.063   1.467   1.425 -1.9216 -0.7001  0.5690
  170SOL     MW  680   0.996   1.459   1.487 -0.2479 -0.3314  0.2211
  171SOL     OW  681   0.596   1.444   0.651 -0.3565  0.0480 -0.3975
  171SOL    HW1  682   0.559   1.434   0.743  1.6410  0.5476  1.8481
  171SOL    HW2  683   0.575   1.359   0.608 -0.8130 -0.1441  0.5535
  171SOL     MW  684   0.589   1.431   0.657 -0.1532  0.0886  0.0242
  172SOL     OW  685   0.842   0.319   1.279  0.0102 -0.8465  0.4373
  172SOL    HW1  686   0.841   0.352   1.184  1.7152 -1.8833 -1.2189
  172SOL    HW2  687   0.753   0.288   1.304 -0.3587  1.9643  1.1850
  172SOL     MW  688   0.830   0.319   1.270  0.1865 -0.6124  0.3174
  173SOL     OW  689   0.470   1.650   0.389 -0.4143 -0.1172 -0.4524
  173SOL    HW1  690   0.429   1.564   0.420  0.2785 -0.2666  0.3720
  173SOL    HW2  691   0.528   1.674   0.461  1.0585 -1.8646 -0.6959
  173SOL     MW  692   0.472   1.642   0.403 -0.1286 -0.3675 -0.3757
  174SOL     OW  693   1.921   0.991   1.485 -0.8243  0.0497 -0.0927
  174SOL    HW1  694   1.884   0.904   1.527 -0.1514 -2.5356  2.4074
  174SOL    HW2  695   1.873   1.008   1.400  1.1642  0.4101 -0.2066
  174SOL     MW  696   1.910   0.982   1.479 -0.4731 -0.2439  0.2222
  175SOL     OW  697   0.466   1.372   0.331 -0.3379  0.1827 -0.0903
  175SOL    HW1  698   0.446   1.370   0.240  0.6684 -2.0521  0.6442
  175SOL    HW2  699   0.555   1.408   0.341  4.0971  0.4346  1.5363
  175SOL     MW  700   0.475   1.376   0.320  0.3800 -0.0790  0.2213
  176SOL     OW  701   0.183   1.355   1.240  0.0131  0.2397 -0.4015
  176SOL    HW1  702   0.136   1.332   1.160  1.5046  2.1468 -0.5792
  176SOL    HW2  703   0.130   1.316   1.309  1.1421 -0.4669  3.4957
  176SOL     MW  704   0.170   1.347   1.239  0.3589  0.3981  0.0892
  177SOL     OW  705   0.563   0.328   1.336 -0.4922  0.5562  0.0640
  177SOL    HW1  706   0.563   0.410   1.284  0.7046 -1.5526  0.0611
  177SOL    HW2  707   0.575   0.369   1.420  2.1503  1.3379 -2.9575
  177SOL     MW  708   0.565   0.344   1.340  0.0143  0.3811 -0.3350
  178SOL     OW  709   3.051   0.393   2.894  0.5202 -0.3481  0.1947
  178SOL    HW1  710   3.008   0.429   2.972  0.1953 -0.2721 -2.9681
  178SOL    HW2  711   2.994   0.422   2.821  0.7522  0.9334 -0.6318
  178SOL     MW  712   3.038   0.401   2.894  0.5079 -0.1690 -0.3317
  179SOL     OW  713   1.596   1.362   1.432 -0.4056  0.1879 -0.7093
  179SOL    HW1  714   1.570   1.391   1.520  2.1583 -0.4767  0.9731
  179SOL    HW2  715   1.687   1.387   1.416 -2.5931 -2.0587 -2.3615
  179SOL     MW  716   1.604   1.369   1.442 -0.3559 -0.1962 -0.7053
  180SOL     OW  717   2.976   0.201   0.459  0.1448 -0.0112  0.1948
  180SOL    HW1  718   2.908   0.212   0.389 -2.5067 -3.2671 -0.6408
  180SOL    HW2  719   3.027   0.287   0.455 -0.8798  0.8127 -2.5713
  180SOL     MW  720   2.974   0.214   0.450 -0.3403 -0.3321 -0.2804
  181SOL     OW  721   1.164   1.366   3.047  0.0026 -0.7342 -0.1006
  181SOL    HW1  722   1.236   1.394   3.103 -0.6819  2.1513  2.1517
  181SOL    HW2  723   1.203   1.303   2.982  0.7117 -3.3597  1.8286
  181SOL     MW  724   1.179   1.362   3.046  0.0058 -0.6999  0.4511
  182SOL     OW  725   0.501   0.867   1.671  0.2240  0.4548 -0.1159
  182SOL    HW1  726   0.410   0.856   1.706 -0.3779 -1.2084  1.5215
  182SOL    HW2  727   0.561   0.824   1.730 -0.9029 -0.3062 -1.8775
  182SOL     MW  728   0.497   0.860   1.683 -0.0041  0.1349 -0.1323
  183SOL     OW  729   1.501   1.509   1.235  0.1889  0.3379 -0.5613
  183SOL    HW1  730   1.455   1.582   1.275 -1.2218 -0.7659  0.2768
  183SOL    HW2  731   1.532   1.456   1.318  1.4663 -0.3376  1.3102
  183SOL     MW  732   1.499   1.512   1.251  0.1713  0.1032 -0.2038
  184SOL     OW  733   0.898   0.621   1.960 -0.5227 -0.2274  0.0047
  184SOL    HW1  734   0.966   0.594   1.896 -1.9214 -1.1590 -0.4101
  184SOL    HW2  735   0.887   0.535   2.006  2.6812 -1.6606  2.7701
  184SOL     MW  736   0.905   0.606   1.957 -0.2845 -0.5395  0.3149
  185SOL     OW  737   1.174   0.963   1.944  0.3706 -0.1496 -0.3774
  185SOL    HW1  738   1.153   0.870   1.964 -0.4107 -1.1479  1.9558
  185SOL    HW2  739   1.196   1.002   2.024  0.6535  2.7941 -1.0882
  185SOL     MW  740   1.174   0.956   1.957  0.3048  0.1070 -0.1633
  186SOL     OW  741   0.420   1.635   1.423 -0.5752  0.1120 -0.0527
  186SOL    HW1  742   0.507   1.632   1.385 -1.6094  0.5185 -2.6414
  186SOL    HW2  743   0.356   1.606   1.351 -2.0200 -0.9092  1.1764
  186SOL     MW  744   0.423   1.631   1.409 -0.9022  0.0309 -0.2321
  187SOL     OW  745   1.442   0.755   1.442 -0.3330 -0.5115 -0.3698
  187SOL    HW1  746   1.427   0.732   1.535  0.1766  0.5280 -0.3825
  187SOL    HW2  747   1.362   0.729   1.397 -0.5977  1.7194  0.0229
  187SOL     MW  748   1.430   0.749   1.449 -0.3007 -0.0800 -0.3197
  188SOL     OW  749   1.908   1.108   0.808  0.2588  0.5353  0.5061
  188SOL    HW1  750   1.892   1.119   0.899  0.5744 -0.7026 -2.5994
  188SOL    HW2  751   1.999   1.085   0.791  0.0990 -0.0946 -0.4971
  188SOL     MW  752   1.918   1.107   0.818  0.2793  0.2888 -0.0360
  189SOL     OW  753   0.730   0.775   0.798 -0.1074  0.6917  0.1881
  189SOL    HW1  754   0.636   0.802   0.795 -0.0877 -0.6893 -2.9249
  189SOL    HW2  755   0.775   0.831   0.855 -0.4623 -2.4746 -0.0450
  189SOL     MW  756   0.723   0.786   0.805 -0.1516  0.0917 -0.2534
  190SOL     OW  757   1.857   0.191   2.028 -0.0356  0.5997 -0.0113
  190SOL    HW1  758   1.844   0.104   1.996 -2.8893 -0.4208 -0.1487
  190SOL    HW2  759   1.948   0.210   2.023 -0.8040 -2.8025 -1.4049
  190SOL     MW  760   1.867   0.182   2.023 -0.5135  0.0162 -0.2133
  191SOL     OW  761   1.462   0.962   1.237  0.0059  0.1035  0.2525
  191SOL    HW1  762   1.424   1.022   1.304 -1.8359 -1.2545  0.5024
  191SOL    HW2  763   1.452   0.872   1.265  2.2050 -0.1138 -1.5912
  191SOL     MW  764   1.456   0.958   1.249  0.0530 -0.1043  0.0422
  192SOL     OW  765   0.606   2.038   2.819 -0.7017  0.0432 -0.2073
  192SOL    HW1  766   0.560   2.084   2.752  2.5560 -2.4630  2.3467
  192SOL    HW2  767   0.594   1.945   2.804  0.6976 -1.3143  0.7653
  192SOL     MW  768   0.599   2.032   2.808 -0.0873 -0.4666  0.2580
  193SOL     OW  769   1.019   1.586   0.721  0.1688  0.0696 -0.1254
  193SOL    HW1  770   1.004   1.582   0.811  0.1375  0.7988  1.8160
  193SOL    HW2  771   0.966   1.506   0.693  2.1573 -1.1110  3.3059
  193SOL     MW  772   1.010   1.575   0.729  0.4270  0.0100  0.5834
  194SOL     OW  773   0.500   1.346   0.914  0.0796  0.0784  0.0880
  194SOL    HW1  774   0.476   1.253   0.942  0.9353  2.5905 -0.7495
  194SOL    HW2  775   0.413   1.393   0.897 -1.9255 -1.3206  0.8495
  194SOL     MW  776   0.486   1.340   0.915 -0.0720  0.2253  0.0780
  195SOL     OW  777   1.304   1.109   2.961  0.3140  0.9188  0.2198
  195SOL    HW1  778   1.341   1.121   3.046 -1.3000 -1.6064 -1.7626
  195SOL    HW2  779   1.218   1.077   2.988 -1.9487 -1.7568 -3.0139
  195SOL     MW  780   1.298   1.106   2.976 -0.1975  0.2326 -0.4684
  196SOL     OW  781   2.180   1.032   0.639  0.1479  0.6260 -0.3357
  196SOL    HW1  782   2.143   0.987   0.560  0.0521  0.5371  0.5477
  196SOL    HW2  783   2.179   1.125   0.617 -2.3329  0.7960  2.9854
  196SOL     MW  784   2.175   1.038   0.626 -0.1921  0.6367  0.2190
  197SOL     OW  785   0.700   1.272   2.029  0.0188 -0.3649  0.1149
  197SOL    HW1  786   0.720   1.182   2.023  3.4601 -0.6676 -1.2646
  197SOL    HW2  787   0.658   1.291   1.945 -0.3853 -0.6113 -1.1859
  197SOL     MW  788   0.697   1.262   2.017  0.4195 -0.4373 -0.2387
  198SOL     OW  789   2.958   1.430   1.057  0.6849 -0.4874  0.3281
  198SOL    HW1  790   2.938   1.525   1.043 -0.7677  0.1933  1.1082
  198SOL    HW2  791   2.873   1.382   1.039 -2.1065 -0.1575  1.8029
  198SOL     MW  792   2.944   1.436   1.053  0.1249 -0.3541  0.6256
  199SOL     OW  793   0.529   1.339   1.809  0.5388 -0.1194  0.4670
  199SOL    HW1  794   0.434   1.322   1.801  0.0391 -0.3011  0.4985
  199SOL    HW2  795   0.543   1.412   1.745  1.1179  0.7589 -0.5342
  199SOL     MW  796   0.518   1.347   1.799  0.5493 -0.0275  0.3390
  200SOL     OW  797   1.892   3.078   1.339  0.0277  0.0544 -0.2991
  200SOL    HW1  798   1.881   3.048   1.247 -4.7237 -0.4073 -1.5770
  200SOL    HW2  799   1.806   3.121   1.359 -2.0961 -1.3704  0.1691
  200SOL     MW  800   1.879   3.080   1.330 -0.8794 -0.1945 -0.4060
  201SOL     OW  801   0.989   0.238   0.827 -0.7647 -0.2011  0.0834
  201SOL    HW1  802   0.983   0.144   0.801  0.8173 -0.6558  0.9470
  201SOL    HW2  803   1.052   0.273   0.765  0.7543  1.5364 -2.5999
  201SOL     MW  804   0.997   0.230   0.815 -0.3555 -0.0319 -0.1567
  202SOL     OW  805   1.518   1.639   0.979 -0.3452 -0.6053 -0.3035
  202SOL    HW1  806   1.541   1.575   0.910 -1.4975  2.2668 -1.5742
  202SOL    HW2  807   1.522   1.586   1.062  1.1190  0.2255  1.3709
  202SOL     MW  808   1.521   1.624   0.981 -0.3040 -0.1168 -0.2502
  203SOL     OW  809  -0.004   0.445   1.151 -0.1087  0.2539  0.1220
  203SOL    HW1  810   0.058   0.423   1.084  0.6092  0.0869 -1.3277
  203SOL    HW2  811   0.047   0.482   1.222 -0.9048  0.6057 -1.3167
  203SOL     MW  812   0.011   0.447   1.152 -0.1190  0.2783 -0.2591
  204SOL     OW  813   1.064   1.805   0.568  0.1379 -0.0674  0.4185
  204SOL    HW1  814   1.054   1.719   0.620  1.9423 -1.5409  1.5212
  204SOL    HW2  815   0.973   1.811   0.536 -1.6201 -2.2617  0.6425
  204SOL     MW  816   1.051   1.795   0.571  0.1441 -0.5513  0.5936
  205SOL     OW  817   1.358   0.103   1.334 -0.2310 -0.0329  0.4295
  205SOL    HW1  818   1.327   0.082   1.243 -0.9363 -1.8581  1.0984
  205SOL    HW2  819   1.362   0.203   1.341  3.7916  0.1912 -1.7118
  205SOL     MW  820   1.354   0.113   1.323  0.2067 -0.2442  0.2352
  206SOL     OW  821   0.418   3.068   1.415  0.0541 -0.3835 -0.4911
  206SOL    HW1  822   0.359   3.051   1.341  2.5774  1.5827  0.7578
  206SOL    HW2  823   0.484   2.988   1.407 -3.2539 -0.4624 -0.8327
  206SOL     MW  824   0.419   3.055   1.404 -0.0495 -0.1345 -0.3714
  207SOL     OW  825   0.955   1.523   0.216  0.0796 -0.1019  0.0616
  207SOL    HW1  826   0.937   1.611   0.187  1.4638  0.1047  0.0576
  207SOL    HW2  827   1.040   1.525   0.248  1.5592 -3.2884  0.6421
  207SOL     MW  828   0.964   1.535   0.216  0.4574 -0.4951  0.1376
  208SOL     OW  829   0.674   1.617   1.336 -0.3210  0.3062  0.4369
  208SOL    HW1  830   0.759   1.639   1.385 -0.0027  1.4301 -0.8249
  208SOL    HW2  831   0.681   1.523   1.329  3.2503  0.6407 -2.2714
  208SOL     MW  832   0.686   1.608   1.342  0.1922  0.4986 -0.0869
  209SOL     OW  833   1.585   0.536   2.868  0.1946 -0.4214  0.2991
  209SOL    HW1  834   1.652   0.581   2.914 -1.0344  0.2644 -0.7454
  209SOL    HW2  835   1.624   0.458   2.829 -2.2678  2.0288  3.8744
  209SOL     MW  836   1.599   0.532   2.869 -0.2925 -0.0076  0.6331
  210SOL     OW  837   1.614   1.411   0.836 -0.5516 -0.4204 -0.5540
  210SOL    HW1  838   1.699   1.370   0.813  2.6560 -0.5919  0.5338
  210SOL    HW2  839   1.570   1.412   0.750 -2.3404  0.2181 -0.7943
  210SOL     MW  840   1.619   1.405   0.822 -0.3644 -0.3588 -0.4422
  211SOL     OW  841   1.658   0.404   0.970 -0.7839  0.2583  0.4143
  211SOL    HW1  842   1.624   0.397   0.881 -0.4829  0.2163 -1.8913
  211SOL    HW2  843   1.756   0.426   0.957  0.4266 -0.7227  1.0773
  211SOL     MW  844   1.666   0.406   0.956 -0.5844  0.1234  0.1976
  212SOL     OW  845   0.246   1.127   0.113 -0.7047  0.0105  0.3537
  212SOL    HW1  846   0.192   1.111   0.191 -1.3040 -0.7053  1.1298
  212SOL    HW2  847   0.255   1.036   0.083 -0.0489  0.0484 -0.7745
  212SOL     MW  848   0.240   1.113   0.120 -0.6972 -0.0789  0.3073
  213SOL     OW  849   0.422   1.743   3.033  0.7017 -0.5916 -0.1823
  213SOL    HW1  850   0.466   1.793   3.104  0.6107 -1.2447  1.1880
  213SOL    HW2  851   0.478   1.748   2.952  1.0294 -0.9408 -2.2897
  213SOL     MW  852   0.435   1.750   3.032  0.7329 -0.7239 -0.2796
  214SOL     OW  853   0.596   0.295   2.222 -0.1316  0.0439  0.2130
  214SOL    HW1  854   0.530   0.365   2.209 -1.1181  0.4792 -0.3483
  214SOL    HW2  855   0.663   0.312   2.154  1.7842  0.3235 -4.3086
  214SOL     MW  856   0.596   0.307   2.211 -0.0090  0.1382 -0.4576
  215SOL     OW  857   0.480   0.655   2.642  0.3601 -0.4819 -0.0402
  215SOL    HW1  858   0.498   0.640   2.549 -1.4647 -0.0455  0.8920
  215SOL    HW2  859   0.414   0.595   2.673  2.0334  2.6812  3.5458
  215SOL     MW  860   0.474   0.645   2.634  0.3401 -0.0070  0.5559
  216SOL     OW  861   3.038   3.086   2.665 -0.2607  0.2407  0.0812
  216SOL    HW1  862   2.995   3.057   2.749 -0.6280 -0.3230  0.6434
  216SOL    HW2  863   3.009   3.182   2.652 -4.0396  1.8490 -2.0270
  216SOL     MW  864   3.028   3.095   2.675 -0.8078  0.3785 -0.1228
  217SOL     OW  865   0.908   1.236   0.032  0.1240 -0.2879 -0.0873
  217SOL    HW1  866   0.958   1.166  -0.006 -0.8121  1.1427  2.1348
  217SOL    HW2  867   0.973   1.277   0.092 -1.9109 -1.7834  1.6375
  217SOL     MW  868   0.923   1.232   0.035 -0.2680 -0.2965  0.4335
  218SOL     OW  869   0.900   1.299   2.546 -0.3586  0.5913  0.3047
  218SOL    HW1  870   0.914   1.219   2.593  1.6711  2.6074  0.8041
  218SOL    HW2  871   0.964   1.354   2.589 -0.6610 -2.1594 -0.3312
  218SOL     MW  872   0.910   1.296   2.558 -0.1307  0.4944  0.2867
  219SOL     OW  873   1.088   0.472   2.564  0.0033  0.5348  0.5487
  219SOL    HW1  874   1.163   0.515   2.601 -0.0117  0.0048 -0.1069
  219SOL    HW2  875   1.016   0.530   2.565 -0.6788 -0.2783  0.9433
  219SOL     MW  876   1.089   0.486   2.569 -0.0887  0.3576  0.5143
  220SOL     OW  877   1.794   0.414   2.203  0.0092  0.2399 -0.2174
  220SOL    HW1  878   1.749   0.488   2.162  0.8145  1.0789  0.1492
  220SOL    HW2  879   1.804   0.342   2.138  4.3962  0.0210  3.0072
  220SOL     MW  880   1.789   0.414   2.189  0.6943  0.3217  0.2564
  221SOL     OW  881   0.380   1.352   2.897  0.1980  0.5767  0.6321
  221SOL    HW1  882   0.395   1.258   2.873 -0.7462  0.6682 -2.4175
  221SOL    HW2  883   0.402   1.398   2.814 -1.0043 -1.4074  0.0321
  221SOL     MW  884   0.385   1.346   2.883 -0.0852  0.3270  0.1505
  222SOL     OW  885   0.317   0.893   2.639  0.0941  0.1847  0.1625
  222SOL    HW1  886   0.289   0.928   2.553  0.4427 -1.5769  1.6157
  222SOL    HW2  887   0.376   0.821   2.619  0.7751  1.3566 -0.4536
  222SOL     MW  888   0.321   0.888   2.625  0.2299  0.1069  0.2729
  223SOL     OW  889   0.050   2.088   2.608 -0.0355  0.0137  0.1648
  223SOL    HW1  890   0.102   2.014   2.640 -0.6758 -2.1574 -2.0092
  223SOL    HW2  891   0.105   2.101   2.534  0.8452 -1.8252  1.8908
  223SOL     MW  892   0.064   2.080   2.603 -0.0037 -0.5154  0.1057
  224SOL     OW  893   1.508   0.790   2.611  0.1324 -0.1587 -0.0599
  224SOL    HW1  894   1.485   0.810   2.702  0.1368  1.9476  3.1370
  224SOL    HW2  895   1.485   0.871   2.568 -0.1916  0.0851 -1.6748
  224SOL     MW  896   1.502   0.804   2.617  0.0902  0.1514  0.1488
  225SOL     OW  897   2.984   1.524   2.311 -0.1085 -0.0747  0.1768
  225SOL    HW1  898   3.046   1.594   2.291  0.2465 -0.6220  3.6290
  225SOL    HW2  899   2.936   1.553   2.391 -0.6777 -2.9295  0.9289
  225SOL     MW  900   2.986   1.537   2.319 -0.1368 -0.5236  0.7315
  226SOL     OW  901   0.425   1.419   2.611  0.6222  0.0047 -0.0204
  226SOL    HW1  902   0.521   1.423   2.614  3.7562 -0.4853 -0.9103
  226SOL    HW2  903   0.393   1.511   2.598 -0.9396 -1.2969  0.8481
  226SOL     MW  904   0.433   1.432   2.610  0.8296 -0.2317 -0.0232
  227SOL     OW  905   0.428   1.073   2.838  0.4939  0.2869  0.2739
  227SOL    HW1  906   0.516   1.111   2.816 -1.3098 -4.1465 -0.3030
  227SOL    HW2  907   0.393   1.021   2.767  1.8026  4.3186  2.8497
  227SOL     MW  908   0.435   1.071   2.826  0.4286  0.2339  0.5376
  228SOL     OW  909   0.707   0.988   2.032  0.8693  0.0763  0.5003
  228SOL    HW1  910   0.796   0.980   1.998 -0.5000 -1.1275  1.6055
  228SOL    HW2  911   0.707   0.922   2.102 -1.3881 -0.7695  2.6677
  228SOL     MW  912   0.718   0.978   2.036  0.3908 -0.1942  0.9321
  229SOL     OW  913   0.140   0.565   3.094 -0.1176  0.5684  0.4611
  229SOL    HW1  914   0.050   0.558   3.052 -0.2910  1.4784 -1.3089
  229SOL    HW2  915   0.149   0.497   3.164  1.8258  4.4233  0.0444
  229SOL     MW  916   0.129   0.555   3.098  0.1160  1.1971  0.1726
  230SOL     OW  917   1.758   1.410   2.031  0.2655  0.3286 -0.3912
  230SOL    HW1  918   1.721   1.386   2.117 -0.1280  0.6386  0.2429
  230SOL    HW2  919   1.829   1.351   2.006  0.2828  0.4232  1.1535
  230SOL     MW  920   1.762   1.399   2.039  0.2159  0.3819 -0.1037
  231SOL     OW  921   2.755   1.333   2.241  0.2872 -0.1439 -0.3694
  231SOL    HW1  922   2.824   1.405   2.240 -0.6433  2.2287  1.3478
  231SOL    HW2  923   2.697   1.360   2.165 -3.2465  0.1386 -0.7509
  231SOL     MW  924   2.757   1.346   2.231 -0.3018  0.2064 -0.1932
  232SOL     OW  925   2.252   0.835   2.164  0.1607 -0.6737 -0.4943
  232SOL    HW1  926   2.190   0.880   2.104  0.4376 -0.0955  2.9949
  232SOL    HW2  927   2.222   0.844   2.257  2.3108  0.8594  0.4898
  232SOL     MW  928   2.240   0.842   2.168  0.4809 -0.3952  0.0959
  233SOL     OW  929   2.042   0.521   1.975  0.3264 -0.4957  0.3428
  233SOL    HW1  930   2.091   0.467   1.917  0.4830 -2.7513  0.3134
  233SOL    HW2  931   2.107   0.530   2.044  2.3571  0.4156 -3.5655
  233SOL     MW  932   2.057   0.515   1.976  0.6150 -0.6731 -0.1768
  234SOL     OW  933   0.268   1.009   2.371  0.2376 -0.2183  0.1803
  234SOL    HW1  934   0.183   1.052   2.365 -1.2201  0.6634  2.7649
  234SOL    HW2  935   0.331   1.082   2.391 -0.1799  2.3563 -0.3784
  234SOL     MW  936   0.265   1.024   2.372 -0.0098  0.2378  0.4476
  235SOL     OW  937   1.113   3.065   2.709  1.0542 -0.0738 -0.0452
  235SOL    HW1  938   1.151   3.001   2.769  1.1100  0.2511  1.0732
  235SOL    HW2  939   1.114   3.152   2.759  0.7378  3.8617 -1.0114
  235SOL     MW  940   1.118   3.068   2.724  1.0198  0.4883 -0.0251
  236SOL     OW  941   2.941   0.523   0.013 -0.2043 -0.1840 -0.3830
  236SOL    HW1  942   2.855   0.489  -0.021 -1.4475 -0.9779  0.9396
  236SOL    HW2  943   2.921   0.612   0.045 -0.4182  0.2999 -0.2566
  236SOL     MW  944   2.927   0.530   0.013 -0.3965 -0.2249 -0.1919
  237SOL     OW  945   1.904   1.000   2.167  0.6787  0.4650  0.3030
  237SOL    HW1  946   1.901   1.090   2.152 -0.1094 -0.1503 -2.3266
  237SOL    HW2  947   1.892   0.974   2.257  0.6664  1.7436  1.2852
  237SOL     MW  948   1.902   1.008   2.177  0.5731  0.5525  0.0856
  238SOL     OW  949   1.082   1.793   3.029  0.0330 -0.4992  0.0266
  238SOL    HW1  950   1.042   1.703   3.009 -0.2354  0.5869 -0.2942
  238SOL    HW2  951   1.174   1.765   3.023  1.3865 -0.0892  1.6287
  238SOL     MW  952   1.089   1.778   3.025  0.1762 -0.3018  0.1956
  239SOL     OW  953   1.275   1.387   2.354  0.0790 -0.2863 -0.2390
  239SOL    HW1  954   1.223   1.442   2.408  0.6488 -0.3951  0.7549
  239SOL    HW2  955   1.272   1.301   2.406 -1.4502 -0.3498  2.8162
  239SOL     MW  956   1.268   1.383   2.368 -0.0476 -0.3091  0.2952
  240SOL     OW  957   0.731   0.824   2.253  0.8859  0.2996  0.3991
  240SOL    HW1  958   0.721   0.887   2.326 -0.9038 -0.8099  0.4499
  240SOL    HW2  959   0.831   0.812   2.248  1.4361 -0.5247  1.8697
  240SOL     MW  960   0.743   0.831   2.262  0.7223  0.0444  0.5998
  241SOL     OW  961   0.665   0.363   3.094  0.1505 -0.2926  0.3920
  241SOL    HW1  962   0.692   0.440   3.147  0.5071 -0.2981 -0.9372
  241SOL    HW2  963   0.571   0.367   3.074 -0.4120  1.6397 -0.2003
  241SOL     MW  964   0.656   0.374   3.099  0.1234 -0.0384  0.1385
  242SOL     OW  965   1.494   1.675   2.305  0.4438 -0.1174  0.8511
  242SOL    HW1  966   1.452   1.763   2.319  0.8417 -0.6325 -1.5148
  242SOL    HW2  967   1.432   1.637   2.240  1.4991  1.8211  0.7439
  242SOL     MW  968   1.480   1.681   2.298  0.6355  0.0704  0.5248
  243SOL     OW  969   1.026   0.243   2.429  0.3709  0.2280  0.0786
  243SOL    HW1  970   1.093   0.229   2.369  0.2277  1.7079  0.4849
  243SOL    HW2  971   1.028   0.332   2.461 -2.5858 -0.5337  0.3572
  243SOL     MW  972   1.035   0.253   2.425 -0.0381  0.3228  0.1690
  244SOL     OW  973   0.265   0.739   2.397 -0.2227 -0.1604 -0.1816
  244SOL    HW1  974   0.262   0.837   2.386  2.4164  0.3524 -0.4065
  244SOL    HW2  975   0.357   0.708   2.370 -0.9231  0.5825 -0.0259
  244SOL     MW  976   0.277   0.748   2.392  0.0331  0.0053 -0.1907
  245SOL     OW  977   1.287   0.235   2.333  0.3951  0.1198 -0.2041
  245SOL    HW1  978   1.362   0.179   2.319 -2.8933 -0.3321  0.8875
  245SOL    HW2  979   1.306   0.297   2.399 -0.1634 -1.4969 -1.0089
  245SOL     MW  980   1.299   0.236   2.340 -0.1125 -0.1532 -0.1662
  246SOL     OW  981   1.188   1.225   2.135 -0.3525 -0.0749  0.4423
  246SOL    HW1  982   1.136   1.168   2.194  0.1819 -0.4445  1.2670
  246SOL    HW2  983   1.231   1.292   2.200  1.5609 -0.5194  2.4401
  246SOL     MW  984   1.187   1.227   2.152 -0.0295 -0.1823  0.8147
  247SOL     OW  985   0.767   0.589   0.123 -0.0936  0.2361 -0.2717
  247SOL    HW1  986   0.726   0.672   0.101  2.3457  2.4839 -0.9368
  247SOL    HW2  987   0.856   0.588   0.091  1.0594  1.3465 -1.3992
  247SOL     MW  988   0.773   0.600   0.116  0.3804  0.6792 -0.5082
  248SOL     OW  989   0.463   1.178   2.470  0.0228  0.4138 -0.4986
  248SOL    HW1  990   0.496   1.219   2.385 -0.7309 -0.3313  0.0072
  248SOL    HW2  991   0.435   1.258   2.515  2.2456 -0.3523  1.0233
  248SOL     MW  992   0.463   1.194   2.464  0.2166  0.2144 -0.2311
  249SOL     OW  993   0.173   1.827   2.695 -0.6844 -0.7789 -0.3192
  249SOL    HW1  994   0.111   1.760   2.671  1.7480  3.0228  0.8485
  249SOL    HW2  995   0.171   1.831   2.793  0.0683  0.3003  0.9226
  249SOL     MW  996   0.165   1.819   2.704 -0.2641 -0.1349 -0.0013
  250SOL     OW  997   2.173   0.872   2.427  0.4910  0.0322  0.1217
  250SOL    HW1  998   2.230   0.789   2.430  3.4628 -1.4091  0.6606
  250SOL    HW2  999   2.234   0.942   2.444 -0.3952  0.3725 -0.3399
  250SOL     MW 1000   2.189   0.870   2.430  0.7661 -0.1131  0.1319
  251SOL     OW 1001   0.179   0.888   2.049 -0.1930  1.5012 -0.1461
  251SOL    HW1 1002   0.145   0.845   2.130 -1.5568 -0.4255  1.0406
  251SOL    HW2 1003   0.195   0.815   1.994 -1.4284 -0.9838  2.4537
  251SOL     MW 1004   0.177   0.872   2.053 -0.5359  0.9191  0.3535
  252SOL     OW 1005   1.677   1.008   2.911  0.4184 -0.2388  0.2017
  252SOL    HW1 1006   1.670   1.052   3.000 -0.5019  0.7158  0.4738
  252SOL    HW2 1007   1.688   1.073   2.842 -0.1139 -0.3734  1.2915
  252SOL     MW 1008   1.678   1.023   2.914  0.2267 -0.1306  0.3814
  253SOL     OW 1009   1.162   1.756   2.568  0.1169  0.5531  0.1477
  253SOL    HW1 1010   1.163   1.777   2.475 -0.8533  3.0391 -1.3206
  253SOL    HW2 1011   1.109   1.823   2.608  4.5181 -0.1986 -1.3943
  253SOL     MW 1012   1.155   1.768   2.561  0.5696  0.7820 -0.2495
  254SOL     OW 1013   1.020   1.051   2.254  0.6223 -0.3318  0.1784
  254SOL    HW1 1014   1.014   0.960   2.215  0.5767  0.0065 -1.7410
  254SOL    HW2 1015   0.931   1.100   2.248 -0.1656 -0.5959 -0.8661
  254SOL     MW 1016   1.008   1.046   2.248  0.5123 -0.3220 -0.2126
  255SOL     OW 1017   0.834   2.540   2.216  0.0873  0.3270 -0.0567
  255SOL    HW1 1018   0.757   2.486   2.243  2.0161 -0.9282  2.7255
  255SOL    HW2 1019   0.900   2.521   2.282 -1.6650  1.0440 -0.6253
  255SOL     MW 1020   0.832   2.530   2.228  0.1106  0.2560  0.2354
  256SOL     OW 1021   1.201   2.835   2.849  0.0498 -0.4704 -0.4136
  256SOL    HW1 1022   1.190   2.760   2.798 -1.1715 -1.6256  0.5334
  256SOL    HW2 1023   1.294   2.866   2.826 -0.0613  3.4509 -0.9098
  256SOL     MW 1024   1.212   2.829   2.840 -0.1260 -0.1054 -0.3541
  257SOL     OW 1025   0.131   1.918   0.093 -0.6105  0.2661  0.2503
  257SOL    HW1 1026   0.162   1.852   0.160 -2.4773 -0.3063  0.1113
  257SOL    HW2 1027   0.114   1.866   0.014 -0.1320 -1.6538  1.0665
  257SOL     MW 1028   0.133   1.902   0.091 -0.7936 -0.0627  0.3397
  258SOL     OW 1029   0.715   1.010   2.446  0.1178 -0.6586 -0.7833
  258SOL    HW1 1030   0.720   1.086   2.388 -0.8567  0.9778 -2.7911
  258SOL    HW2 1031   0.632   1.036   2.497  0.7087  1.2211  0.7868
  258SOL     MW 1032   0.705   1.024   2.445  0.0672 -0.1947 -0.8410
  259SOL     OW 1033   0.749   0.505   2.340 -0.6231 -0.1204  0.0561
  259SOL    HW1 1034   0.676   0.566   2.324  0.4008 -2.9920 -0.9414
  259SOL    HW2 1035   0.703   0.423   2.313 -0.7781 -0.1825  0.7494
  259SOL     MW 1036   0.733   0.502   2.334 -0.5084 -0.5075  0.0160
  260SOL     OW 1037   0.585   0.160   1.570 -0.2468 -0.3648  0.0197
  260SOL    HW1 1038   0.520   0.119   1.512 -0.6874  1.1129 -1.2472
  260SOL    HW2 1039   0.671   0.148   1.526  1.8260 -2.9821 -0.5844
  260SOL     MW 1040   0.588   0.153   1.557 -0.0314 -0.5152 -0.2271
  261SOL     OW 1041   1.238   0.695   2.028  0.4400  0.4435 -0.2855
  261SOL    HW1 1042   1.265   0.707   2.122  2.6580  0.6994 -2.1863
  261SOL    HW2 1043   1.306   0.630   1.997  2.6977  0.9623  0.1248
  261SOL     MW 1044   1.251   0.688   2.037  1.0305  0.5457 -0.4822
  262SOL     OW 1045   1.145   0.276   0.138 -0.7633 -0.6227  0.0283
  262SOL    HW1 1046   1.240   0.266   0.124 -0.0738  1.7255  0.4426
  262SOL    HW2 1047   1.103   0.221   0.075  1.1111  0.8554  2.4737
  262SOL     MW 1048   1.152   0.267   0.128 -0.4250 -0.1179  0.4056
  263SOL     OW 1049   0.421   3.058   2.497  0.4659 -0.0112 -0.0513
  263SOL    HW1 1050   0.350   3.125   2.488 -1.2960 -2.7968 -0.2604
  263SOL    HW2 1051   0.467   3.078   2.414 -0.3767 -1.4115  0.9393
  263SOL     MW 1052   0.417   3.069   2.485  0.1223 -0.5635  0.0518
  264SOL     OW 1053   1.515   1.313   1.910  0.0542  0.4709  0.2034
  264SOL    HW1 1054   1.511   1.256   1.986  1.6664 -0.9477  0.4487
  264SOL    HW2 1055   1.595   1.365   1.932 -1.5099  0.1980 -0.0132
  264SOL     MW 1056   1.525   1.313   1.923  0.0605  0.2477  0.2072
  265SOL     OW 1057   0.687   2.768   2.241  0.1587  0.2649  0.2083
  265SOL    HW1 1058   0.746   2.697   2.227 -1.4975  0.3322  1.1715
  265SOL    HW2 1059   0.698   2.772   2.338  0.3799  3.2614 -3.0821
  265SOL     MW 1060   0.696   2.759   2.252 -0.0307  0.6692 -0.0987
  266SOL     OW 1061   0.990   0.798   2.174 -0.1005  0.1501  0.8880
  266SOL    HW1 1062   0.963   0.721   2.125 -1.0418 -2.0431  1.1658
  266SOL    HW2 1063   1.051   0.758   2.235 -2.8762  0.4317 -0.8327
  266SOL     MW 1064   0.995   0.783   2.176 -0.5909 -0.1021  0.6976
  267SOL     OW 1065   1.377   1.651   2.711  0.1945  0.0021  0.2062
  267SOL    HW1 1066   1.456   1.668   2.656 -1.5324 -0.4192  2.0441
  267SOL    HW2 1067   1.307   1.700   2.662 -3.0681 -0.5931  0.5622
  267SOL     MW 1068   1.378   1.660   2.697 -0.4638 -0.1320  0.4956
  268SOL     OW 1069   0.269   0.799   1.808  0.2960  0.8557 -0.7328
  268SOL    HW1 1070   0.196   0.851   1.762 -1.4650 -0.2721 -2.3436
  268SOL    HW2 1071   0.291   0.728   1.748 -0.3343 -0.4146  0.6369
  268SOL     MW 1072   0.262   0.796   1.794 -0.0195  0.5393 -0.7646
  269SOL     OW 1073   1.388   1.928   2.370  0.0154  0.4155  0.0296
  269SOL    HW1 1074   1.413   1.993   2.306 -0.7373  0.9288  0.9397
  269SOL    HW2 1075   1.337   1.976   2.434  1.7601 -2.2114 -2.3805
  269SOL     MW 1076   1.385   1.943   2.370  0.1463  0.1366 -0.1683
  270SOL     OW 1077   1.177   0.376   1.614 -0.1478 -0.0692 -0.0941
  270SOL    HW1 1078   1.121   0.299   1.645 -0.8758  1.4458  1.2816
  270SOL    HW2 1079   1.273   0.352   1.626  1.2168 -0.6050  2.4145
  270SOL     MW 1080   1.182   0.363   1.620 -0.0638  0.0600  0.4184
  271SOL     OW 1081   0.902  -0.003   2.469 -0.0195 -0.2356  0.8308
  271SOL    HW1 1082   0.954  -0.024   2.542  1.6810  0.7936 -0.8660
  271SOL    HW2 1083   0.944   0.088   2.456  0.4238 -1.2224  0.4647
  271SOL     MW 1084   0.915   0.006   2.477  0.2634 -0.2300  0.5587
  272SOL     OW 1085   1.478   2.885   2.770  0.0873  0.4934 -0.2871
  272SOL    HW1 1086   1.471   2.977   2.730  1.3761 -0.8605  0.8962
  272SOL    HW2 1087   1.520   2.887   2.861  0.9216 -0.5501  2.1507
  272SOL     MW 1088   1.483   2.897   2.776  0.3674  0.1771  0.1907
  273SOL     OW 1089   1.429   0.887   2.879  0.1386  0.1319 -0.0808
  273SOL    HW1 1090   1.521   0.914   2.894 -2.1911  1.1048  1.4042
  273SOL    HW2 1091   1.388   0.969   2.901 -3.1708 -2.0430 -0.0116
  273SOL     MW 1092   1.436   0.901   2.884 -0.6054 -0.0267  0.1243
  274SOL     OW 1093   1.401   0.748   0.196  1.5315  0.3136  0.1819
  274SOL    HW1 1094   1.432   0.657   0.186 -0.7389  1.1808  0.0226
  274SOL    HW2 1095   1.329   0.745   0.263  0.9880  1.3089  2.6864
  274SOL     MW 1096   1.396   0.736   0.204  1.1603  0.5594  0.4913
  275SOL     OW 1097   1.689   0.645   1.796 -0.0943 -0.0207 -0.3377
  275SOL    HW1 1098   1.750   0.685   1.855 -0.6875 -0.4181 -1.9914
  275SOL    HW2 1099   1.696   0.549   1.818  0.1522 -2.0858  0.8944
  275SOL     MW 1100   1.698   0.638   1.806 -0.1401 -0.3456 -0.3933
  276SOL     OW 1101   0.259   1.243   1.805  0.3851 -0.5716 -0.3394
  276SOL    HW1 1102   0.294   1.176   1.866 -0.6957  0.1361 -0.0819
  276SOL    HW2 1103   0.167   1.254   1.843 -0.1076  3.3575  2.1137
  276SOL     MW 1104   0.251   1.236   1.818  0.1775  0.0402  0.0182
  277SOL     OW 1105   1.886   1.272   2.530 -0.2890  0.1457 -1.0277
  277SOL    HW1 1106   1.944   1.341   2.548  0.8481  1.5964 -0.9440
  277SOL    HW2 1107   1.904   1.200   2.591  1.1398  1.5147 -0.0501
  277SOL     MW 1108   1.896   1.272   2.541  0.0495  0.5177 -0.8877
  278SOL     OW 1109   1.415   0.650   1.707  0.5089 -0.7493  0.1094
  278SOL    HW1 1110   1.401   0.586   1.786 -1.0439 -1.8934  2.3594
  278SOL    HW2 1111   1.502   0.680   1.732  0.9930  0.5818  0.7779
  278SOL     MW 1112   1.424   0.645   1.721  0.3679 -0.7246  0.4944
  279SOL     OW 1113   0.512   0.026   2.270 -0.5201 -0.1658  0.0203
  279SOL    HW1 1114   0.588  -0.031   2.248 -0.3589 -0.4500  0.9201
  279SOL    HW2 1115   0.553   0.102   2.311 -1.5247  0.4115  1.8927
  279SOL     MW 1116   0.528   0.029   2.273 -0.6314 -0.1271  0.3861
  280SOL     OW 1117   1.523   1.099   2.173  0.0359 -0.7194 -0.5958
  280SOL    HW1 1118   1.575   1.021   2.152 -0.4251 -1.3227  0.7714
  280SOL    HW2 1119   1.476   1.071   2.252 -0.6719 -0.6879  0.0836
  280SOL     MW 1120   1.523   1.085   2.181 -0.1183 -0.7949 -0.3258
  281SOL     OW 1121   1.304   1.273   2.734 -0.0585 -0.1013  0.1000
  281SOL    HW1 1122   1.369   1.335   2.778 -0.9803  0.0712  0.8506
  281SOL    HW2 1123   1.294   1.209   2.808  1.5550  1.1885 -0.3554
  281SOL     MW 1124   1.311   1.273   2.750  0.0328  0.0916  0.1390
  282SOL     OW 1125   1.131   1.293   1.671 -0.8412  0.6583 -0.7281
  282SOL    HW1 1126   1.068   1.335   1.620  1.7653 -0.8044  2.7983
  282SOL    HW2 1127   1.087   1.289   1.755  2.3926 -0.0798  1.2444
  282SOL     MW 1128   1.117   1.298   1.675 -0.0707  0.3679 -0.0026
  283SOL     OW 1129   0.654   1.315   3.073 -0.0516 -0.0949 -0.3142
  283SOL    HW1 1130   0.749   1.301   3.087  0.4914 -1.4424  2.1850
  283SOL    HW2 1131   0.639   1.403   3.099 -4.5180  0.8724 -1.7114
  283SOL     MW 1132   0.665   1.324   3.078 -0.5692 -0.1451 -0.1688
  284SOL     OW 1133   0.508   0.663   2.356  0.4788 -0.1063  0.5211
  284SOL    HW1 1134   0.566   0.730   2.317  1.6718  0.8083  2.1764
  284SOL    HW2 1135   0.478   0.592   2.290  0.3818  1.5585 -0.3791
  284SOL     MW 1136   0.512   0.662   2.342  0.6234  0.2340  0.6207
  285SOL     OW 1137   0.854   0.944   2.850  0.4238  0.1570 -0.0034
  285SOL    HW1 1138   0.902   0.979   2.767  2.1799 -1.2928  0.2479
  285SOL    HW2 1139   0.807   0.860   2.824  0.0062  0.3234  0.4397
  285SOL     MW 1140   0.854   0.938   2.836  0.6004 -0.0123  0.0882
  286SOL     OW 1141   1.087   1.481   2.590  0.2727  0.0819 -0.3499
  286SOL    HW1 1142   1.156   1.476   2.655 -0.8439  0.5122  2.5206
  286SOL    HW2 1143   1.084   1.576   2.575  1.3615 -0.6005 -0.2277
  286SOL     MW 1144   1.096   1.493   2.597  0.2690  0.0486  0.0449
  287SOL     OW 1145   1.038   0.943   0.306  0.2349  0.6583 -0.3364
  287SOL    HW1 1146   1.089   0.985   0.382 -0.7860  1.3770  1.8524
  287SOL    HW2 1147   0.961   1.000   0.294  0.8939 -1.2061  0.3827
  287SOL     MW 1148   1.035   0.956   0.315  0.1872  0.5071  0.0473
  288SOL     OW 1149   1.595   0.622   2.124  0.2284  0.2795 -0.0709
  288SOL    HW1 1150   1.585   0.633   2.221  1.7593  2.4353  0.1713
  288SOL    HW2 1151   1.596   0.714   2.088 -0.8032  1.8154  1.9130
  288SOL     MW 1152   1.594   0.636   2.132  0.2943  0.7666  0.2228
  289SOL     OW 1153   0.966   1.041   2.624  0.2436 -0.4985 -0.6026
  289SOL    HW1 1154   1.025   0.976   2.583 -3.5085 -0.1396  1.5631
  289SOL    HW2 1155   0.882   1.025   2.584 -0.2263  0.2708  1.1112
  289SOL     MW 1156   0.963   1.030   2.613 -0.3134 -0.3497 -0.0907
  290SOL     OW 1157   0.888   0.539   1.582 -0.3357  0.0876 -0.0556
  290SOL    HW1 1158   0.940   0.551   1.505 -0.7734 -0.1622  0.5313
  290SOL    HW2 1159   0.945   0.534   1.655 -1.2909  0.4065 -1.6530
  290SOL     MW 1160   0.902   0.540   1.581 -0.5195  0.0967 -0.1889
  291SOL     OW 1161   0.162   0.327   0.153  0.4395 -0.3444 -0.2111
  291SOL    HW1 1162   0.246   0.283   0.143  0.1683  0.8128  1.4797
  291SOL    HW2 1163   0.122   0.294   0.070  2.5284 -0.7867  2.2813
  291SOL     MW 1164   0.168   0.317   0.141  0.6793 -0.2501  0.3409
  292SOL     OW 1165   1.050   0.556   0.082 -0.0419  0.1261 -0.0417
  292SOL    HW1 1166   1.097   0.606   0.152 -0.5136  0.6500  2.9800
  292SOL    HW2 1167   1.093   0.468   0.095  2.6091 -0.5859  0.0151
  292SOL     MW 1168   1.061   0.551   0.093  0.2456  0.1013  0.3645
  293SOL     OW 1169   0.231   0.148   2.460  0.4378 -0.0716 -0.1773
  293SOL    HW1 1170   0.146   0.105   2.437 -1.1258  0.0786  2.9885
  293SOL    HW2 1171   0.210   0.198   2.539  1.0609  1.5124 -2.1587
  293SOL     MW 1172   0.217   0.149   2.467  0.3137  0.1572 -0.0210
  294SOL     OW 1173   1.508   0.626   2.385 -0.4590 -0.1774  0.1886
  294SOL    HW1 1174   1.492   0.677   2.463  1.7702 -0.1635  0.6112
  294SOL    HW2 1175   1.486   0.533   2.400  1.1001  3.8125  0.0040
  294SOL     MW 1176   1.503   0.620   2.397  0.0409  0.3509  0.2200
  295SOL     OW 1177   0.914   0.678   2.502  0.0787 -0.0911  0.2834
  295SOL    HW1 1178   0.880   0.637   2.417  0.1062  1.5502  3.5424
  295SOL    HW2 1179   0.832   0.689   2.553  1.1394  1.3559  0.1947
  295SOL     MW 1180   0.899   0.674   2.497  0.2223  0.3163  0.7017
  296SOL     OW 1181   1.256   0.273   2.054  0.3336  0.2139  0.1705
  296SOL    HW1 1182   1.341   0.222   2.029  1.3346 -0.5115 -0.5198
  296SOL    HW2 1183   1.244   0.262   2.152  1.0782 -0.8758  0.2768
  296SOL     MW 1184   1.266   0.265   2.064  0.5639 -0.0256  0.0935
  297SOL     OW 1185   1.471   0.366   1.613  0.3097 -0.2630 -0.1617
  297SOL    HW1 1186   1.525   0.442   1.629  1.5819 -2.2271 -0.5712
  297SOL    HW2 1187   1.524   0.289   1.642  1.4820  1.1177  1.2329
  297SOL     MW 1188   1.485   0.365   1.619  0.6322 -0.3400 -0.0318
  298SOL     OW 1189   1.638   0.903   2.034  0.0945  0.2556  0.0366
  298SOL    HW1 1190   1.601   0.952   1.960 -1.7916  2.1889  0.1604
  298SOL    HW2 1191   1.734   0.899   2.032  0.7448 -1.8036 -0.2654
  298SOL     MW 1192   1.646   0.909   2.024 -0.0686  0.2390  0.0131
  299SOL     OW 1193   0.544   1.035   3.091  0.6035 -0.1256  0.4451
  299SOL    HW1 1194   0.569   1.128   3.094 -0.3887  0.0195  0.7370
  299SOL    HW2 1195   0.480   1.030   3.023  2.8711 -2.3182  1.0570
  299SOL     MW 1196   0.539   1.047   3.082  0.7718 -0.3958  0.5643
  300SOL     OW 1197   1.219   1.160   2.496 -0.9481 -0.5344  0.3081
  300SOL    HW1 1198   1.127   1.170   2.510 -1.8046  2.5677  0.4036
  300SOL    HW2 1199   1.242   1.215   2.569 -2.4257 -0.1811 -3.7085
  300SOL     MW 1200   1.210   1.169   2.507 -1.2561 -0.0785 -0.2092
  301SOL     OW 1201   1.373   0.914   0.622  0.1644  0.1823  0.7874
  301SOL    HW1 1202   1.367   0.971   0.695 -0.6857 -0.1717  2.4579
  301SOL    HW2 1203   1.331   0.833   0.647 -0.3698 -1.1276  1.6708
  301SOL     MW 1204   1.367   0.911   0.635 -0.0182 -0.0372  1.1244
  302SOL     OW 1205   0.072   1.496   2.046  0.0605  0.2466 -0.2984
  302SOL    HW1 1206   0.120   1.431   2.103  0.8033 -1.7233  1.0868
  302SOL    HW2 1207   0.052   1.562   2.115  0.6317  0.1018  0.7028
  302SOL     MW 1208   0.076   1.496   2.063  0.2339 -0.0324  0.0165
  303SOL     OW 1209   0.366   1.687   2.597 -0.3624  0.0663  0.3352
  303SOL    HW1 1210   0.356   1.709   2.506  0.2123  2.6446  1.4640
  303SOL    HW2 1211   0.281   1.725   2.627 -1.3841 -0.6240 -1.3011
  303SOL     MW 1212   0.354   1.695   2.589 -0.4214  0.3154  0.2682
  304SOL     OW 1213   0.683   2.045   2.371  0.1388  0.5661 -0.3257
  304SOL    HW1 1214   0.733   2.117   2.328 -0.7443 -0.9477 -3.6185
  304SOL    HW2 1215   0.743   1.974   2.387 -0.5294  0.1006 -1.5863
  304SOL     MW 1216   0.698   2.045   2.367 -0.0659  0.3050 -0.9265
  305SOL     OW 1217   1.076   0.568   0.523 -0.2133  0.1871 -0.8629
  305SOL    HW1 1218   0.981   0.563   0.495  2.7802  1.8012 -0.7712
  305SOL    HW2 1219   1.104   0.474   0.533 -0.1511 -0.7039  0.7507
  305SOL     MW 1220   1.067   0.555   0.521  0.1899  0.2825 -0.6379
  306SOL     OW 1221   1.233   1.491   0.293  0.0021 -0.1230 -0.6353
  306SOL    HW1 1222   1.270   1.418   0.339 -0.7159  1.7708  0.7476
  306SOL    HW2 1223   1.285   1.481   0.212 -0.8306 -0.8235  0.6626
  306SOL     MW 1224   1.245   1.480   0.289 -0.2025  0.0344 -0.2816
  307SOL     OW 1225   1.397   0.491   1.937 -0.4589  0.0142 -0.4502
  307SOL    HW1 1226   1.345   0.435   2.007 -0.4280 -0.7870  0.9073
  307SOL    HW2 1227   1.467   0.524   1.993  0.4248  0.5132  0.8434
  307SOL     MW 1228   1.400   0.488   1.954 -0.3383 -0.0257 -0.1004
  308SOL     OW 1229   2.159   0.612   2.688 -0.0469 -0.5397  0.1105
  308SOL    HW1 1230   2.250   0.583   2.719  2.4950 -0.9815 -0.3388
  308SOL    HW2 1231   2.153   0.709   2.721  1.4709 -0.5517  0.5882
  308SOL     MW 1232   2.170   0.621   2.696  0.4887 -0.5996  0.1143
  309SOL     OW 1233   0.435   0.367   0.393 -0.4552 -0.0382  0.3277
  309SOL    HW1 1234   0.522   0.352   0.426  0.4343  1.2760 -1.9268
  309SOL    HW2 1235   0.417   0.291   0.342 -0.4467  0.1406 -1.0558
  309SOL     MW 1236   0.444   0.355   0.390 -0.3367  0.1588 -0.1523
  310SOL     OW 1237   0.461   0.590   1.925  0.8067  0.5065 -0.1907
  310SOL    HW1 1238   0.488   0.498   1.898 -0.6689  0.2131 -1.1693
  310SOL    HW2 1239   0.531   0.653   1.904  2.5058  1.0887  0.8836
  310SOL     MW 1240   0.474   0.586   1.918  0.8362  0.5446 -0.1781
  311SOL     OW 1241   1.882   0.744   1.963 -0.1922 -0.0597 -0.0005
  311SOL    HW1 1242   1.877   0.760   2.060  1.3931 -1.0330  1.8482
  311SOL    HW2 1243   1.943   0.663   1.968  2.5227 -1.3469  0.2204
  311SOL     MW 1244   1.890   0.735   1.976  0.3752 -0.3579  0.2726
  312SOL     OW 1245   1.667   2.497   0.081 -0.0305  0.4967  0.8908
  312SOL    HW1 1246   1.727   2.512   0.155  2.4840 -1.9500  0.1196
  312SOL    HW2 1247   1.608   2.572   0.083 -2.5070  0.4422  2.0790
  312SOL     MW 1248   1.667   2.509   0.091 -0.0255  0.1667  0.9458
  313SOL     OW 1249   0.096   1.236   2.958 -0.2240 -0.0097  0.1700
  313SOL    HW1 1250   0.120   1.200   3.043 -0.4472  0.4602  0.0833
  313SOL    HW2 1251   0.180   1.279   2.926 -1.3821 -1.6408 -1.4533
  313SOL     MW 1252   0.110   1.237   2.965 -0.4063 -0.1629 -0.0556
  314SOL     OW 1253   2.145   2.972   3.021 -0.0262  0.3309  0.1251
  314SOL    HW1 1254   2.090   3.000   2.948  0.4366 -1.1607 -0.3142
  314SOL    HW2 1255   2.162   3.050   3.068 -2.7293  0.7760 -0.5699
  314SOL     MW 1256   2.140   2.986   3.017 -0.3218  0.1928 -0.0245
  315SOL     OW 1257   1.487   1.870   0.023  0.3455  0.0755  0.9651
  315SOL    HW1 1258   1.426   1.948   0.039 -2.6166  0.8502  0.1201
  315SOL    HW2 1259   1.546   1.899  -0.052 -0.6127 -0.2042 -0.2941
  315SOL     MW 1260   1.487   1.884   0.015 -0.1717  0.1408  0.6874
  316SOL     OW 1261   1.274   0.655   2.674  0.3788  0.8899 -0.0489
  316SOL    HW1 1262   1.366   0.673   2.693 -0.5204  2.9332  0.4122
  316SOL    HW2 1263   1.239   0.653   2.765  3.6970 -1.5793 -1.0422
  316SOL     MW 1264   1.282   0.657   2.688  0.6980  0.8337 -0.1191
  317SOL     OW 1265   0.707   1.484   2.558  0.5434  0.1630 -0.7268
  317SOL    HW1 1266   0.764   1.406   2.549 -0.4559  0.2743 -1.6125
  317SOL    HW2 1267   0.711   1.541   2.473 -0.1270  0.4543 -0.5062
  317SOL     MW 1268   0.715   1.481   2.546  0.3231  0.2161 -0.8146
  318SOL     OW 1269   1.352   0.412   2.936 -0.0388  0.1833  0.0378
  318SOL    HW1 1270   1.268   0.454   2.943 -2.3652 -0.4397  2.5176
  318SOL    HW2 1271   1.423   0.479   2.925  1.3366 -0.0168 -1.4266
  318SOL     MW 1272   1.350   0.426   2.936 -0.1643  0.0747  0.1718
  319SOL     OW 1273   0.780   0.410   2.853 -0.3748  0.0193  0.3774
  319SOL    HW1 1274   0.745   0.332   2.809  0.4576  0.9602 -2.0481
  319SOL    HW2 1275   0.746   0.400   2.944 -1.1981 -3.1317  1.8484
  319SOL     MW 1276   0.771   0.398   2.860 -0.3736 -0.2723  0.2514
  320SOL     OW 1277   1.017   1.341   1.941  0.0988 -0.2182 -0.6239
  320SOL    HW1 1278   1.081   1.296   2.001 -1.9117  0.7643 -0.8149
  320SOL    HW2 1279   1.064   1.421   1.916  1.1438 -0.8503 -2.0206
  320SOL     MW 1280   1.032   1.346   1.945 -0.0286 -0.1720 -0.8334
  321SOL     OW 1281   1.033   0.994   3.052 -0.6456 -0.1429 -0.2572
  321SOL    HW1 1282   0.984   0.949   2.981 -2.6482 -2.3856 -0.7483
  321SOL    HW2 1283   1.083   0.922   3.090  2.9656  2.2582 -0.4304
  321SOL     MW 1284   1.033   0.979   3.048 -0.4334 -0.1220 -0.3449
  322SOL     OW 1285   1.181   0.806   1.716 -0.1730 -0.2793  0.2813
  322SOL    HW1 1286   1.266   0.767   1.730  1.3429 -0.8897 -0.3080
  322SOL    HW2 1287   1.178   0.882   1.775  0.5279  0.2618 -0.0407
  322SOL     MW 1288   1.192   0.811   1.725  0.1195 -0.2885  0.1611
  323SOL     OW 1289   1.206   1.538   1.875  0.4131 -0.2769  0.9462
  323SOL    HW1 1290   1.235   1.498   1.792 -3.0531  0.6019 -2.9805
  323SOL    HW2 1291   1.154   1.614   1.847 -0.8924 -1.7621  1.0664
  323SOL     MW 1292   1.203   1.543   1.860 -0.2165 -0.3569  0.4440
  324SOL     OW 1293   1.440   1.019   2.450  0.8417 -0.2103 -0.3296
  324SOL    HW1 1294   1.348   1.068   2.458 -2.5517 -1.0280  1.8395
  324SOL    HW2 1295   1.501   1.081   2.489 -0.2970 -3.7390 -0.8994
  324SOL     MW 1296   1.436   1.034   2.456  0.2437 -0.7838 -0.1186
  325SOL     OW 1297   1.094   0.523   2.899 -0.2209 -0.0040 -0.3709
  325SOL    HW1 1298   1.075   0.549   2.990  2.4460  0.0888  0.7534
  325SOL    HW2 1299   1.007   0.500   2.855 -0.2691 -1.3699  0.4838
  325SOL     MW 1300   1.080   0.523   2.905  0.1246 -0.1720 -0.1098
  326SOL     OW 1301   0.483   1.366   2.207  0.0944  0.2952  0.1361
  326SOL    HW1 1302   0.551   1.370   2.143 -1.6437  0.0374  0.4614
  326SOL    HW2 1303   0.478   1.459   2.235 -0.3018  0.1593 -0.5623
  326SOL     MW 1304   0.491   1.379   2.202 -0.1872  0.2433  0.0869
  327SOL     OW 1305   1.874   0.887   2.462 -0.0619 -0.3751 -0.0093
  327SOL    HW1 1306   1.837   0.801   2.500  0.8130  1.2235 -1.0564
  327SOL    HW2 1307   1.969   0.882   2.477  0.9495  0.4386  0.2083
  327SOL     MW 1308   1.881   0.875   2.469  0.1870 -0.0568 -0.1187
  328SOL     OW 1309   0.186   1.326   2.251  0.0874 -0.9509 -0.4780
  328SOL    HW1 1310   0.152   1.264   2.180 -1.0800 -0.1214 -0.5262
  328SOL    HW2 1311   0.281   1.321   2.251 -2.6823 -0.9547 -1.5309
  328SOL     MW 1312   0.194   1.317   2.242 -0.4321 -0.8420 -0.6233
  329SOL     OW 1313   0.119   0.110   1.413  0.4072 -0.5853 -0.4886
  329SOL    HW1 1314   0.097   0.147   1.500 -1.1575  1.1626  0.2731
  329SOL    HW2 1315   0.199   0.152   1.378  0.4278  3.1821 -2.1600
  329SOL     MW 1316   0.126   0.121   1.420  0.2035  0.1424 -0.6086
  330SOL     OW 1317   0.319   3.085   2.072 -0.1594  0.0956  0.5010
  330SOL    HW1 1318   0.396   3.121   2.125  0.2068  1.3921  0.5654
  330SOL    HW2 1319   0.277   3.035   2.136  2.8911  5.4370  0.2192
  330SOL     MW 1320   0.324   3.083   2.088  0.2914  0.9714  0.4723
  331SOL     OW 1321   0.770   1.220   2.277 -0.0215 -0.0481 -0.1560
  331SOL    HW1 1322   0.735   1.261   2.194 -2.5423 -0.0421  0.7311
  331SOL    HW2 1323   0.799   1.293   2.331  0.6709 -1.7291 -1.7122
  331SOL     MW 1324   0.769   1.235   2.273 -0.2628 -0.2691 -0.2443
  332SOL     OW 1325   1.351   1.695   2.986  0.0168 -0.0720 -0.0013
  332SOL    HW1 1326   1.355   1.694   2.893  1.3593 -1.1417  0.7801
  332SOL    HW2 1327   1.386   1.775   3.025 -0.1077  1.9634  1.1591
  332SOL     MW 1328   1.357   1.706   2.979  0.1775  0.0554  0.2549
  333SOL     OW 1329   1.791   1.452   2.983  0.3166 -0.0541 -0.0413
  333SOL    HW1 1330   1.888   1.448   2.986  0.7537  2.1706  1.2806
  333SOL    HW2 1331   1.755   1.448   3.073  2.3349  1.3198 -3.5430
  333SOL     MW 1332   1.799   1.451   2.995  0.6406  0.4207 -0.3289
  334SOL     OW 1333   1.373   3.082   2.605 -0.1510  0.1224 -0.3057
  334SOL    HW1 1334   1.276   3.073   2.615 -0.0558 -1.9288  1.3055
  334SOL    HW2 1335   1.393   3.171   2.588 -0.9672 -0.0939 -0.7444
  334SOL     MW 1336   1.363   3.093   2.604 -0.2461 -0.1767 -0.1510
  335SOL     OW 1337   1.238   0.785   3.062  0.2595 -0.1977 -1.1310
  335SOL    HW1 1338   1.271   0.752   3.146  1.7631  0.3152 -1.0590
  335SOL    HW2 1339   1.318   0.810   3.011 -0.0524 -0.8514  1.1082
  335SOL     MW 1340   1.253   0.784   3.066  0.4167 -0.2163 -0.8260
  336SOL     OW 1341   0.938   1.067   1.900 -0.2368  0.4455 -0.4159
  336SOL    HW1 1342   0.967   1.151   1.928  3.0969  1.2160 -0.8431
  336SOL    HW2 1343   1.017   1.014   1.920  1.0553  1.8636 -3.6530
  336SOL     MW 1344   0.953   1.071   1.907  0.3736  0.7342 -0.8994
  337SOL     OW 1345   0.577   1.755   2.811  0.6965  0.9031  1.0303
  337SOL    HW1 1346   0.529   1.730   2.726  0.2198 -3.9517  0.4840
  337SOL    HW2 1347   0.661   1.710   2.796 -0.7160 -1.9108  0.7880
  337SOL     MW 1348   0.582   1.746   2.798  0.4472 -0.1087  0.9262
  338SOL     OW 1349   1.128   0.833   2.546  0.4906 -0.4956 -0.2330
  338SOL    HW1 1350   1.051   0.774   2.534 -0.7804  1.9470 -1.1301
  338SOL    HW2 1351   1.187   0.774   2.595  0.3828 -0.7558  1.6683
  338SOL     MW 1352   1.125   0.817   2.551  0.3087 -0.2076 -0.1005
  339SOL     OW 1353   1.551   1.042   1.791 -0.1115 -0.4643 -0.0636
  339SOL    HW1 1354   1.473   1.032   1.738 -2.7323 -1.1064 -1.8241
  339SOL    HW2 1355   1.555   1.138   1.814  0.0763  1.4441 -1.3721
  339SOL     MW 1356   1.541   1.054   1.787 -0.4325 -0.2972 -0.4686
  340SOL     OW 1357   1.386   1.486   0.064  0.0370 -0.3605 -0.1792
  340SOL    HW1 1358   1.373   1.540  -0.010  0.0225 -0.4641  0.3638
  340SOL    HW2 1359   1.480   1.477   0.080 -0.4399  0.6767 -0.2466
  340SOL     MW 1360   1.397   1.492   0.056 -0.0278 -0.2373 -0.1164
  341SOL     OW 1361   0.124   1.368   2.678 -0.6723  0.6344  0.0692
  341SOL    HW1 1362   0.209   1.336   2.654  0.3694  0.8402  1.4044
  341SOL    HW2 1363   0.058   1.333   2.617  1.1425  0.2808  2.1559
  341SOL     MW 1364   0.127   1.359   2.667 -0.2954  0.6149  0.5207
  342SOL     OW 1365   1.415   0.302   0.097 -0.3281 -0.2978  0.2994
  342SOL    HW1 1366   1.471   0.381   0.114 -3.7593  0.5510 -1.4630
  342SOL    HW2 1367   1.413   0.298   0.001 -0.9658  1.0453 -0.3056
  342SOL     MW 1368   1.422   0.312   0.087 -0.8649 -0.0086 -0.0130
  343SOL     OW 1369   0.211   0.315   2.214 -0.1142  0.0852 -0.1717
  343SOL    HW1 1370   0.234   0.244   2.278  0.0856 -1.8229  0.4855
  343SOL    HW2 1371   0.153   0.266   2.151  0.3110  0.3318 -0.7492
  343SOL     MW 1372   0.206   0.299   2.214 -0.0317 -0.1340 -0.1612
  344SOL     OW 1373   1.673   2.074   0.209 -0.1106 -0.1946 -0.2297
  344SOL    HW1 1374   1.684   2.129   0.131 -1.4409  0.5094 -1.6012
  344SOL    HW2 1375   1.600   2.015   0.188  1.6369  3.1841 -0.6358
  344SOL     MW 1376   1.665   2.073   0.196 -0.0555  0.3441 -0.4642
  345SOL     OW 1377   0.728   1.641   2.319  0.8200 -0.2187  0.0844
  345SOL    HW1 1378   0.639   1.649   2.286 -1.4916 -2.4359 -1.5790
  345SOL    HW2 1379   0.781   1.601   2.247 -2.0192  1.7587 -1.3190
  345SOL     MW 1380   0.723   1.637   2.305  0.1404 -0.2503 -0.3202
  346SOL     OW 1381   1.722   1.135   0.042  0.2497 -0.7780  0.0022
  346SOL    HW1 1382   1.814   1.120   0.017  0.5427  0.0225  0.5194
  346SOL    HW2 1383   1.703   1.075   0.113  0.7722 -2.3164 -1.0241
  346SOL     MW 1384   1.731   1.125   0.048  0.3573 -0.8753 -0.0650
  347SOL     OW 1385   1.281   0.738   2.284  0.0148  0.4118  0.4510
  347SOL    HW1 1386   1.356   0.694   2.321 -0.1327 -0.4509  1.0588
  347SOL    HW2 1387   1.273   0.829   2.324  0.7339  1.3061 -3.1866
  347SOL     MW 1388   1.290   0.744   2.294  0.0902  0.4160  0.0512
  348SOL     OW 1389   1.323   2.579   1.869 -0.1826  0.1164 -0.1160
  348SOL    HW1 1390   1.379   2.513   1.903  0.0140  0.4164  0.4704
  348SOL    HW2 1391   1.348   2.658   1.914 -2.0913 -0.4820  0.7444
  348SOL     MW 1392   1.334   2.580   1.879 -0.4085  0.0770  0.0749
  349SOL     OW 1393   1.427   0.238   2.715 -0.0677  0.2018 -0.4405
  349SOL    HW1 1394   1.387   0.305   2.773 -0.8734  3.1186 -0.8699
  349SOL    HW2 1395   1.513   0.216   2.751 -1.2319  0.5641 -0.1564
  349SOL     MW 1396   1.433   0.244   2.727 -0.3276  0.6344 -0.4597
  350SOL     OW 1397   1.873   0.651   2.617  0.3841  0.0980 -0.1745
  350SOL    HW1 1398   1.820   0.567   2.601  0.4924 -0.7937 -0.9742
  350SOL    HW2 1399   1.960   0.622   2.608  0.1544 -0.2554  0.5552
  350SOL     MW 1400   1.878   0.636   2.613  0.3680 -0.0663 -0.1837
  351SOL     OW 1401   0.127   0.953   1.607 -0.0301 -0.9239 -0.0742
  351SOL    HW1 1402   0.054   0.994   1.653 -1.4157 -1.0795 -2.2899
  351SOL    HW2 1403   0.151   1.031   1.555 -0.8769  1.3001 -0.7311
  351SOL     MW 1404   0.120   0.969   1.606 -0.3246 -0.6510 -0.4532
  352SOL     OW 1405   0.830   1.642   2.743  0.5661  0.0935 -0.7085
  352SOL    HW1 1406   0.857   1.609   2.836  0.4680  0.5782  0.3674
  352SOL    HW2 1407   0.811   1.568   2.684 -0.3257  0.0715 -0.0458
  352SOL     MW 1408   0.831   1.628   2.748  0.4355  0.1545 -0.4791
  353SOL     OW 1409   3.046   2.465   2.680  0.0784  0.5744  0.4898
  353SOL    HW1 1410   3.143   2.460   2.657  1.0523 -4.0738 -0.2099
  353SOL    HW2 1411   3.012   2.544   2.644  0.9610 -0.2362 -1.1693
  353SOL     MW 1412   3.055   2.475   2.672  0.3233 -0.1459  0.1786
  354SOL     OW 1413   0.383   2.469   0.842  0.1333  0.2934  0.2487
  354SOL    HW1 1414   0.392   2.445   0.937  0.0347 -1.0268 -0.2620
  354SOL    HW2 1415   0.323   2.403   0.794  0.6012  2.2194  1.1932
  354SOL     MW 1416   0.376   2.457   0.848  0.1820  0.3733  0.3059
  355SOL     OW 1417   0.033   2.200   0.417 -0.1986  0.2246  0.0167
  355SOL    HW1 1418  -0.050   2.149   0.411 -1.0034  1.3498 -1.4019
  355SOL    HW2 1419   0.001   2.246   0.492 -0.9607  0.6942 -1.4326
  355SOL     MW 1420   0.018   2.199   0.426 -0.4053  0.4350 -0.3617
  356SOL     OW 1421   0.881   2.877   1.063  0.0190  0.0667  0.3768
  356SOL    HW1 1422   0.896   2.836   0.971  1.0880  1.4859 -2.5193
  356SOL    HW2 1423   0.785   2.871   1.067  3.1262  1.9098  0.2638
  356SOL     MW 1424   0.870   2.871   1.051  0.5700  0.4971 -0.0202
  357SOL     OW 1425   1.762   2.932   0.358  0.6966  0.2976  0.2013
  357SOL    HW1 1426   1.710   2.889   0.434 -0.0435 -0.3924  2.6248
  357SOL    HW2 1427   1.842   2.892   0.334 -2.3094  0.9960  2.0951
  357SOL     MW 1428   1.765   2.921   0.365  0.2023  0.2987  0.7709
  358SOL     OW 1429   0.399   0.090   1.070  0.7838 -0.6324  0.3231
  358SOL    HW1 1430   0.484   0.048   1.072  1.8805  3.0049  1.2459
  358SOL    HW2 1431   0.382   0.120   0.980  1.1695 -0.4623  0.3007
  358SOL     MW 1432   0.408   0.089   1.059  0.9794 -0.1300  0.4419
  359SOL     OW 1433   0.898   2.872   1.802  0.0953 -0.7938  1.1176
  359SOL    HW1 1434   0.879   2.780   1.838 -0.2495  0.7627  0.7947
  359SOL    HW2 1435   0.933   2.858   1.718 -2.0569  0.6773 -0.0927
  359SOL     MW 1436   0.900   2.858   1.796 -0.2342 -0.3943  0.9153
  360SOL     OW 1437   0.593   2.784   1.026 -0.2051  0.2181 -0.1302
  360SOL    HW1 1438   0.623   2.738   0.942  0.2200  0.4048 -0.6478
  360SOL    HW2 1439   0.569   2.715   1.093 -0.0148  0.1761  0.0188
  360SOL     MW 1440   0.594   2.769   1.024 -0.1239  0.2372 -0.1788
  361SOL     OW 1441   0.214   2.700   1.327 -0.4668  0.2941  0.2178
  361SOL    HW1 1442   0.195   2.785   1.363  0.3236 -0.0604 -1.2923
  361SOL    HW2 1443   0.299   2.693   1.367 -1.3043 -0.3682  2.6788
  361SOL     MW 1444   0.223   2.710   1.337 -0.4730  0.1599  0.3432
  362SOL     OW 1445   1.455   2.429   0.660 -0.3610  0.4538  0.3261
  362SOL    HW1 1446   1.456   2.335   0.693  0.8018  1.7457 -1.3349
  362SOL    HW2 1447   1.500   2.477   0.729 -1.4627  0.0961 -0.0634
  362SOL     MW 1448   1.461   2.423   0.674 -0.3529  0.5771  0.0556
  363SOL     OW 1449   0.310   3.048   0.684 -0.0647  0.4083 -0.3491
  363SOL    HW1 1450   0.315   2.992   0.768 -0.9030  0.2598 -0.4613
  363SOL    HW2 1451   0.219   3.057   0.649  2.8145  1.0230 -3.1033
  363SOL     MW 1452   0.298   3.042   0.690  0.2045  0.4698 -0.7273
  364SOL     OW 1453   0.751   0.206   0.243 -0.5735  0.8069 -0.2749
  364SOL    HW1 1454   0.697   0.133   0.284 -1.0457 -1.3828  1.4311
  364SOL    HW2 1455   0.693   0.238   0.173  0.3361  1.1968  0.5381
  364SOL     MW 1456   0.737   0.201   0.239 -0.5158  0.5694  0.0574
  365SOL     OW 1457   0.946   1.947   1.100 -0.0726  0.4309 -0.1395
  365SOL    HW1 1458   0.913   2.032   1.055 -1.5828 -0.4451 -1.4547
  365SOL    HW2 1459   0.900   1.874   1.049 -2.5943 -0.6480  0.9139
  365SOL     MW 1460   0.935   1.948   1.087 -0.6046  0.1729 -0.1740
  366SOL     OW 1461   2.878   2.617   1.026 -0.2107  0.0491  1.2240
  366SOL    HW1 1462   2.942   2.657   1.086  0.4264  0.3787  4.0793
  366SOL    HW2 1463   2.916   2.647   0.942  1.8558 -0.7848  0.0368
  366SOL     MW 1464   2.891   2.627   1.022  0.1460 -0.0175  1.4441
  367SOL     OW 1465   1.231   2.820   0.890  0.3207  0.6214 -0.0230
  367SOL    HW1 1466   1.142   2.842   0.911 -1.9984  0.3891  0.5624
  367SOL    HW2 1467   1.232   2.796   0.796  1.2150  1.7406  0.5274
  367SOL     MW 1468   1.219   2.820   0.880  0.1327  0.7384  0.1269
  368SOL     OW 1469   1.673   0.445   0.687  0.0557 -0.5021 -0.4986
  368SOL    HW1 1470   1.754   0.398   0.664 -0.4760  2.9292 -1.8200
  368SOL    HW2 1471   1.699   0.534   0.719 -0.4763  1.4068  1.6876
  368SOL     MW 1472   1.687   0.451   0.688 -0.0846  0.2025 -0.3845
  369SOL     OW 1473   0.172   2.450   1.679  0.0927 -0.0660 -0.2629
  369SOL    HW1 1474   0.267   2.435   1.695  0.3395  1.4149 -2.7594
  369SOL    HW2 1475   0.152   2.524   1.733  1.0402 -1.9887  1.7697
  369SOL     MW 1476   0.182   2.458   1.688  0.2503 -0.1243 -0.3241
  370SOL     OW 1477   0.757   0.071   1.008 -0.0936 -0.0203 -0.0917
  370SOL    HW1 1478   0.796   0.158   1.034  1.5002 -0.1505  1.9080
  370SOL    HW2 1479   0.826   0.002   1.015  0.5974 -0.5283  1.6830
  370SOL     MW 1480   0.771   0.074   1.012  0.2079 -0.1045  0.4063
  371SOL     OW 1481   1.337   2.991   1.510 -0.2193  0.5261  0.1508
  371SOL    HW1 1482   1.289   2.924   1.463 -1.2258  1.5205 -2.2739
  371SOL    HW2 1483   1.332   3.064   1.451  0.6467 -0.2922  0.8284
  371SOL     MW 1484   1.330   2.992   1.496 -0.2379  0.5494 -0.0797
  372SOL     OW 1485   0.792   2.320   0.478 -0.5491 -0.0719  0.4317
  372SOL    HW1 1486   0.756   2.234   0.509 -2.0311  1.2551 -0.3516
  372SOL    HW2 1487   0.815   2.318   0.381  0.9449  0.6019  0.2006
  372SOL     MW 1488   0.791   2.308   0.470 -0.5475  0.1921  0.2978
  373SOL     OW 1489   2.792   3.023   1.384  0.1659  0.5222 -0.5579
  373SOL    HW1 1490   2.867   2.982   1.344  0.5762  0.2479 -1.5450
  373SOL    HW2 1491   2.790   3.103   1.325 -1.4288 -0.0627  0.5023
  373SOL     MW 1492   2.801   3.028   1.371  0.0097  0.4088 -0.5482
  374SOL     OW 1493   1.542   0.525   0.209  0.0015 -0.1751 -0.3597
  374SOL    HW1 1494   1.618   0.574   0.224 -1.7612  0.1663  2.0225
  374SOL    HW2 1495   1.518   0.497   0.296  0.8413  1.5108 -1.1671
  374SOL     MW 1496   1.549   0.528   0.222 -0.1203  0.0924 -0.1519
  375SOL     OW 1497   1.123   2.084   2.280 -0.5005  0.2782  0.1912
  375SOL    HW1 1498   1.156   2.105   2.366 -0.1823 -0.2575 -3.0217
  375SOL    HW2 1499   1.128   1.988   2.277  3.4632  0.5356 -0.4657
  375SOL     MW 1500   1.128   2.074   2.291  0.0645  0.2415 -0.3194
  376SOL     OW 1501   0.698   2.516   0.049 -0.6427  0.0640  0.2041
  376SOL    HW1 1502   0.748   2.459   0.103 -0.3699 -0.3292 -0.1921
  376SOL    HW2 1503   0.652   2.450  -0.014 -0.6004  0.9392 -0.2215
  376SOL     MW 1504   0.699   2.500   0.048 -0.6011  0.1276  0.0957
  377SOL     OW 1505   1.313   1.990   0.851  0.0405 -0.0459  0.0674
  377SOL    HW1 1506   1.225   2.014   0.816 -1.2648 -0.9388  2.4597
  377SOL    HW2 1507   1.297   1.942   0.935  0.3498 -1.6803 -1.0268
  377SOL     MW 1508   1.300   1.987   0.857 -0.0909 -0.3794  0.2387
  378SOL     OW 1509   1.038   2.819   1.559 -0.2374  0.3018 -0.3160
  378SOL    HW1 1510   0.987   2.734   1.559 -0.4115 -0.0800 -1.6476
  378SOL    HW2 1511   0.983   2.873   1.501  2.1077 -0.2812 -2.1724
  378SOL     MW 1512   1.024   2.815   1.551  0.0490  0.1745 -0.7367
  379SOL     OW 1513   1.130   1.798   2.286 -0.1292 -0.6976  0.2695
  379SOL    HW1 1514   1.035   1.793   2.302 -0.7961 -2.1254 -0.0930
  379SOL    HW2 1515   1.141   1.721   2.233  1.9073 -0.9584 -0.6842
  379SOL     MW 1516   1.119   1.787   2.281  0.0515 -0.9204  0.0958
  380SOL     OW 1517   0.851   0.061   1.550 -0.6825  0.4540  0.6635
  380SOL    HW1 1518   0.901   0.072   1.469  0.5806  0.8168 -2.0363
  380SOL    HW2 1519   0.914   0.100   1.617  1.6694  0.6389  0.6845
  380SOL     MW 1520   0.866   0.067   1.549 -0.2055  0.5263  0.3100
  381SOL     OW 1521   0.806   1.986   0.772  0.2065  0.2731 -0.3504
  381SOL    HW1 1522   0.902   1.995   0.756  0.4381  2.8642  1.9709
  381SOL    HW2 1523   0.797   2.049   0.840 -1.3823 -0.4967  1.4580
  381SOL     MW 1524   0.817   1.996   0.779  0.0274  0.5134  0.1945
  382SOL     OW 1525   0.696   0.078   0.728 -0.3317  0.4932 -0.2778
  382SOL    HW1 1526   0.687   0.048   0.819 -0.3397 -1.1047  2.0727
  382SOL    HW2 1527   0.667   0.007   0.669 -2.1894  1.0177  1.0058
  382SOL     MW 1528   0.691   0.065   0.732 -0.5779  0.3516  0.2017
  383SOL     OW 1529   0.477   0.031   0.356  0.6130 -0.3397  0.3017
  383SOL    HW1 1530   0.507  -0.022   0.286 -2.2679 -1.9333 -0.0437
  383SOL    HW2 1531   0.440  -0.029   0.418 -2.3736 -0.1770  0.2179
  383SOL     MW 1532   0.476   0.016   0.355 -0.1612 -0.5285  0.2451
  384SOL     OW 1533   0.644   2.912   0.635 -0.1967  0.0488 -0.3538
  384SOL    HW1 1534   0.640   2.844   0.709 -1.2662 -1.0331  2.7895
  384SOL    HW2 1535   0.569   2.897   0.580 -0.1381 -0.3020  2.5603
  384SOL     MW 1536   0.633   2.901   0.638 -0.3301 -0.1402  0.4454
  385SOL     OW 1537   1.329   2.062   1.499  0.1880 -0.1184  0.0826
  385SOL    HW1 1538   1.405   2.084   1.556 -0.6282  0.1973  0.7255
  385SOL    HW2 1539   1.282   1.978   1.533  2.2880  1.2603 -0.0611
  385SOL     MW 1540   1.333   2.054   1.511  0.3574  0.1052  0.1485
  386SOL     OW 1541   1.381   0.358   0.834 -0.5397  0.5896  0.3438
  386SOL    HW1 1542   1.318   0.352   0.768  2.5749 -0.5928  1.0131
  386SOL    HW2 1543   1.337   0.350   0.923 -3.4898 -1.9548 -0.9598
  386SOL     MW 1544   1.367   0.356   0.837 -0.5180  0.0978  0.2601
  387SOL     OW 1545   0.836   2.215   1.445  0.1761 -0.0859 -0.1644
  387SOL    HW1 1546   0.919   2.246   1.407  0.1366  1.4992  0.0538
  387SOL    HW2 1547   0.837   2.119   1.422  1.3172  0.3874 -2.1328
  387SOL     MW 1548   0.847   2.206   1.437  0.3214  0.1857 -0.3953
  388SOL     OW 1549   1.566   2.780   1.232  0.1443 -0.4963  0.1774
  388SOL    HW1 1550   1.483   2.735   1.232  0.0584 -0.1936 -0.9213
  388SOL    HW2 1551   1.626   2.713   1.189 -1.0795 -0.5789 -2.4000
  388SOL     MW 1552   1.563   2.765   1.226 -0.0285 -0.4672 -0.3077
  389SOL     OW 1553   0.353   0.014   3.041 -0.0086 -0.9933 -0.1463
  389SOL    HW1 1554   0.446   0.029   3.024 -1.4098 -0.2255  0.7242
  389SOL    HW2 1555   0.311   0.052   2.972  2.5380 -0.5153  3.0281
  389SOL     MW 1556   0.360   0.021   3.030  0.1425 -0.8290  0.3873
  390SOL     OW 1557   1.288   0.061   0.639  0.2187  0.3195  0.3987
  390SOL    HW1 1558   1.369   0.099   0.605  2.0854 -0.9533  2.8746
  390SOL    HW2 1559   1.307   0.048   0.733  1.4031 -0.2462 -0.6262
  390SOL     MW 1560   1.301   0.064   0.647  0.6213  0.0770  0.5901
  391SOL     OW 1561   0.271   2.240   1.436 -0.3016 -0.2111 -0.6023
  391SOL    HW1 1562   0.211   2.172   1.473  0.1500 -1.7515  1.0456
  391SOL    HW2 1563   0.216   2.318   1.413 -0.4261 -0.0609  0.0343
  391SOL     MW 1564   0.256   2.241   1.438 -0.2584 -0.3945 -0.3009
  392SOL     OW 1565   2.070   2.137   0.373  0.0928 -0.2716  0.3909
  392SOL    HW1 1566   2.134   2.179   0.430  2.0637 -2.1072 -0.6229
  392SOL    HW2 1567   2.003   2.080   0.415 -1.4943 -0.5604  2.6244
  392SOL     MW 1568   2.070   2.135   0.386  0.1434 -0.5519  0.5518
  393SOL     OW 1569   0.173   3.030   2.749 -0.1922  0.0403 -0.9200
  393SOL    HW1 1570   0.215   3.117   2.758  0.0890  1.4972  2.2405
  393SOL    HW2 1571   0.072   3.049   2.746 -1.5105  1.0874 -1.2726
  393SOL     MW 1572   0.165   3.044   2.750 -0.3290  0.3707 -0.5495
  394SOL     OW 1573   0.869   1.687   1.506  0.1266 -0.2692  0.1862
  394SOL    HW1 1574   0.812   1.711   1.582 -0.8763  0.9495  0.8594
  394SOL    HW2 1575   0.889   1.770   1.458 -2.1812  3.2523 -0.1337
  394SOL     MW 1576   0.864   1.701   1.510 -0.3102  0.3563  0.2328
  395SOL     OW 1577   0.973   2.864   2.644  0.4032 -0.6980  0.2440
  395SOL    HW1 1578   1.026   2.941   2.677  1.1986  1.0587  0.0972
  395SOL    HW2 1579   1.041   2.808   2.596  0.6652 -0.1019  1.0863
  395SOL     MW 1580   0.989   2.867   2.642  0.5427 -0.3876  0.3357
  396SOL     OW 1581   0.874   1.860   2.371 -0.1715  0.4145  0.1483
  396SOL    HW1 1582   0.901   1.870   2.465  1.9581 -0.8690 -1.3012
  396SOL    HW2 1583   0.825   1.773   2.366  3.0154  1.4719  1.6885
  396SOL     MW 1584   0.871   1.849   2.383  0.5300  0.3846  0.1603
  397SOL     OW 1585   1.051   2.373   1.331  0.4309 -0.1256 -1.0559
  397SOL    HW1 1586   1.088   2.352   1.244 -0.2542 -3.9959 -0.7571
  397SOL    HW2 1587   1.130   2.374   1.395 -1.1299  0.2404  1.5172
  397SOL     MW 1588   1.067   2.370   1.328  0.1346 -0.5880 -0.6770
  398SOL     OW 1589   0.635   2.657   0.785 -0.4898 -0.1278 -0.2687
  398SOL    HW1 1590   0.570   2.620   0.734 -0.7911 -0.5278  1.3716
  398SOL    HW2 1591   0.714   2.603   0.765  0.6501  1.8190  0.0235
  398SOL     MW 1592   0.637   2.645   0.776 -0.3792  0.0763 -0.0137
  399SOL     OW 1593   0.275   2.081   0.455 -0.4369 -0.0554 -0.1929
  399SOL    HW1 1594   0.193   2.136   0.436 -0.8671  1.9442  2.0751
  399SOL    HW2 1595   0.319   2.073   0.366 -0.1938 -1.9062  0.2009
  399SOL     MW 1596   0.270   2.087   0.441 -0.4616 -0.0358  0.1583
  400SOL     OW 1597   0.559   1.791   0.167  0.3837 -0.6911 -0.4680
  400SOL    HW1 1598   0.533   1.874   0.201  1.2973 -0.2581 -0.9612
  400SOL    HW2 1599   0.523   1.729   0.222 -1.1564  3.2303 -2.9882
  400SOL     MW 1600   0.550   1.794   0.179  0.3010 -0.1166 -0.8656
  401SOL     OW 1601   0.919   2.074   0.144 -0.0913  0.5009 -0.7074
  401SOL    HW1 1602   0.893   1.979   0.146 -1.4253 -0.4385  0.2282
  401SOL    HW2 1603   0.986   2.075   0.215  1.7735  0.5436  2.5969
  401SOL     MW 1604   0.925   2.061   0.153 -0.0213  0.3826 -0.1480
  402SOL     OW 1605   0.674   2.940   1.673 -0.1381  0.1782  0.1846
  402SOL    HW1 1606   0.751   2.908   1.727  1.1540 -0.0508  0.7156
  402SOL    HW2 1607   0.708   3.020   1.638  0.9532 -1.0561 -1.2856
  402SOL     MW 1608   0.689   2.946   1.675  0.1764 -0.0149  0.0607
  403SOL     OW 1609   0.072   0.409   0.401  0.5477  0.1717  0.0404
  403SOL    HW1 1610   0.135   0.406   0.468  0.7805  0.6103 -0.9670
  403SOL    HW2 1611   0.110   0.365   0.329 -0.6302  2.6573  0.9684
  403SOL     MW 1612   0.085   0.402   0.401  0.4230  0.5575  0.0299
  404SOL     OW 1613   0.964   2.826   0.817 -0.7124 -0.2965 -0.2997
  404SOL    HW1 1614   1.031   2.772   0.775 -0.8566 -0.2697  2.3838
  404SOL    HW2 1615   0.984   2.914   0.785  0.7755  0.0292  1.4138
  404SOL     MW 1616   0.976   2.830   0.807 -0.5351 -0.2500  0.2805
  405SOL     OW 1617   0.518   2.399   1.526 -0.6299 -0.7243 -0.1743
  405SOL    HW1 1618   0.508   2.486   1.494  1.2322 -1.6394 -2.3776
  405SOL    HW2 1619   0.431   2.351   1.516  2.4494  0.6779  0.4106
  405SOL     MW 1620   0.505   2.404   1.521  0.0220 -0.6600 -0.3878
  406SOL     OW 1621   0.352   2.364   1.104  0.0087  0.4912 -0.1425
  406SOL    HW1 1622   0.253   2.384   1.085 -1.9338  3.4038 -0.7373
  406SOL    HW2 1623   0.359   2.271   1.129 -2.3188  1.4212 -1.9461
  406SOL     MW 1624   0.340   2.355   1.105 -0.5547  0.9982 -0.4589
  407SOL     OW 1625   0.028   2.759   1.113 -0.3646  0.0592  0.3007
  407SOL    HW1 1626   0.087   2.754   1.184 -1.0482  0.3052  2.5489
  407SOL    HW2 1627   0.089   2.735   1.035  1.2606 -0.8563  0.7038
  407SOL     MW 1628   0.043   2.755   1.112 -0.2404 -0.0292  0.6505
  408SOL     OW 1629   2.076   2.058   0.698 -0.1028 -0.2326  0.8419
  408SOL    HW1 1630   2.004   2.112   0.735  0.0878  1.1319 -3.1494
  408SOL    HW2 1631   2.033   1.995   0.650  0.7566  2.7677 -1.4753
  408SOL     MW 1632   2.061   2.057   0.696  0.0357  0.3433  0.0095
  409SOL     OW 1633   1.378  -0.003   0.906 -0.1936 -0.6287  0.1193
  409SOL    HW1 1634   1.425   0.073   0.872 -0.9738  1.8097  0.4500
  409SOL    HW2 1635   1.432  -0.022   0.984  0.7486  2.3794  2.3364
  409SOL     MW 1636   1.392   0.005   0.912 -0.1722  0.0899  0.4555
  410SOL     OW 1637   1.119   2.403   1.054  0.1145 -0.1549  0.5462
  410SOL    HW1 1638   1.038   2.425   1.003 -0.2734  1.0653 -1.6074
  410SOL    HW2 1639   1.166   2.342   0.997 -0.6336  3.7206 -1.9595
  410SOL     MW 1640   1.115   2.398   1.039 -0.0354  0.5174 -0.0686
  411SOL     OW 1641   1.971   0.037   2.856 -0.1976 -0.0913 -0.0411
  411SOL    HW1 1642   1.908   0.009   2.788  1.6341  0.1710  1.5990
  411SOL    HW2 1643   1.916   0.068   2.934 -1.6976 -2.6624  2.2816
  411SOL     MW 1644   1.955   0.037   2.858 -0.1538 -0.3960  0.4817
  412SOL     OW 1645   1.051   2.232   0.595 -0.1048 -0.0001  0.4551
  412SOL    HW1 1646   1.089   2.319   0.623 -2.5475 -0.2126 -2.5727
  412SOL    HW2 1647   0.967   2.260   0.559 -0.2168  0.8097  1.4087
  412SOL     MW 1648   1.045   2.247   0.594 -0.4419  0.0787  0.1814
  413SOL     OW 1649   0.548   2.761   0.024  0.4507 -0.2934 -0.1932
  413SOL    HW1 1650   0.598   2.678   0.024 -0.9448 -0.7093 -0.1967
  413SOL    HW2 1651   0.594   2.802  -0.054  2.2163 -2.1439  3.5756
  413SOL     MW 1652   0.561   2.755   0.014  0.4996 -0.5924  0.3036
  414SOL     OW 1653   1.897   2.987   1.087 -0.1464  0.0563  0.1834
  414SOL    HW1 1654   1.839   2.992   1.008 -0.2350 -0.9363 -1.0176
  414SOL    HW2 1655   1.969   2.934   1.057 -0.5012  2.8387  0.4358
  414SOL     MW 1656   1.899   2.981   1.072 -0.2049  0.2924  0.0582
  415SOL     OW 1657   1.735   2.573   1.133 -0.1035 -0.0420  0.0193
  415SOL    HW1 1658   1.700   2.501   1.195 -1.7428 -1.5316 -1.1832
  415SOL    HW2 1659   1.810   2.615   1.181 -0.2016  2.7706 -0.6447
  415SOL     MW 1660   1.740   2.569   1.147 -0.3327  0.1325 -0.2269
  416SOL     OW 1661   0.586   1.935   1.371  0.0627  0.3730  0.5024
  416SOL    HW1 1662   0.557   2.005   1.310 -0.5556 -1.1004  1.6736
  416SOL    HW2 1663   0.544   1.852   1.340 -0.2898 -0.1852 -0.4470
  416SOL     MW 1664   0.577   1.934   1.359 -0.0654  0.1049  0.5316
  417SOL     OW 1665   0.968   3.012   2.029 -0.5581 -0.4733 -0.0741
  417SOL    HW1 1666   0.888   3.011   2.086  0.0953  0.5474  2.3177
  417SOL    HW2 1667   0.935   2.968   1.945 -0.6010 -1.2038 -1.9550
  417SOL     MW 1668   0.953   3.006   2.026 -0.4775 -0.4350 -0.0067
  418SOL     OW 1669   0.610   2.977   0.181 -0.7524 -0.6747 -0.2303
  418SOL    HW1 1670   0.700   2.988   0.142  2.1509 -1.8820  1.0955
  418SOL    HW2 1671   0.583   2.909   0.121  1.4248  2.2728  1.6215
  418SOL     MW 1672   0.618   2.969   0.168 -0.0821 -0.4451  0.1890
  419SOL     OW 1673   0.456   2.633   1.398 -0.0277  0.2434  0.2863
  419SOL    HW1 1674   0.514   2.714   1.417 -1.2067  1.4360  3.6707
  419SOL    HW2 1675   0.494   2.606   1.312 -0.4346 -1.2389 -1.2590
  419SOL     MW 1676   0.468   2.640   1.389 -0.2369  0.2052  0.5290
  420SOL     OW 1677   0.804   2.166   0.987  0.6432  0.3729  0.3706
  420SOL    HW1 1678   0.754   2.186   1.065  0.9582  1.1661 -2.5544
  420SOL    HW2 1679   0.848   2.242   0.953  0.6455 -1.0393  1.7035
  420SOL     MW 1680   0.803   2.179   0.993  0.6851  0.2912  0.1606
  421SOL     OW 1681   2.937   0.069   0.050  0.1593  0.1639 -0.4963
  421SOL    HW1 1682   2.904   0.037  -0.033 -2.7752 -0.8762  1.5283
  421SOL    HW2 1683   2.968  -0.019   0.086  1.5118 -1.5140  0.8356
  421SOL     MW 1684   2.937   0.053   0.044 -0.0494 -0.1947 -0.0534
  422SOL     OW 1685   0.870   2.417   0.935  0.7287 -0.2879 -0.4104
  422SOL    HW1 1686   0.785   2.431   0.975 -0.3374 -1.5879 -0.7116
  422SOL    HW2 1687   0.867   2.453   0.849 -2.6381 -0.6525  0.2989
  422SOL     MW 1688   0.858   2.423   0.929  0.1438 -0.5075 -0.3566
  423SOL     OW 1689   1.514   0.149   0.495  0.2962  0.2304 -0.1050
  423SOL    HW1 1690   1.502   0.106   0.412  0.5593  3.2195 -0.7671
  423SOL    HW2 1691   1.542   0.243   0.480  0.5417 -0.7687  1.1407
  423SOL     MW 1692   1.516   0.156   0.482  0.3633  0.4930 -0.0280
  424SOL     OW 1693   0.647   2.229   1.224  0.7393  0.2740 -0.3431
  424SOL    HW1 1694   0.556   2.205   1.245 -1.8256 -0.8041 -0.5768
  424SOL    HW2 1695   0.694   2.233   1.304 -1.5612  1.3760  0.5103
  424SOL     MW 1696   0.641   2.226   1.237  0.0973  0.2771 -0.2613
  425SOL     OW 1697   1.708   2.834   1.928 -0.3343  0.4391  0.6569
  425SOL    HW1 1698   1.748   2.839   1.834  2.3229  0.4706 -1.6062
  425SOL    HW2 1699   1.746   2.751   1.966  1.5336  0.1314 -0.2690
  425SOL     MW 1700   1.718   2.824   1.920  0.2627  0.4027  0.2362
  426SOL     OW 1701   0.805   1.658   1.934 -0.0639  0.1363 -0.2486
  426SOL    HW1 1702   0.749   1.660   1.859  1.7181 -0.9407  0.0303
  426SOL    HW2 1703   0.787   1.734   1.991  1.5499 -0.5351 -3.3182
  426SOL     MW 1704   0.795   1.668   1.932  0.3842 -0.0944 -0.6168
  427SOL     OW 1705   0.357   1.533   1.902  0.1512 -0.0917  0.0900
  427SOL    HW1 1706   0.414   1.456   1.904 -2.1328  1.9759 -0.8184
  427SOL    HW2 1707   0.268   1.492   1.911 -2.1018 -0.0069  0.3099
  427SOL     MW 1708   0.353   1.517   1.904 -0.4474  0.1923 -0.0009
  428SOL     OW 1709   0.560   2.543   1.151  0.6870 -0.1337  0.3326
  428SOL    HW1 1710   0.635   2.510   1.201 -0.6268 -1.0428  2.0724
  428SOL    HW2 1711   0.499   2.468   1.147  0.6558 -0.4941 -0.7071
  428SOL     MW 1712   0.562   2.529   1.157  0.5095 -0.3012  0.4249
  429SOL     OW 1713   1.309   2.630   1.059 -0.2254  0.0078  0.3115
  429SOL    HW1 1714   1.235   2.571   1.062  0.7413 -1.3448 -0.7214
  429SOL    HW2 1715   1.273   2.711   1.009 -0.7272  0.0003 -2.4048
  429SOL     MW 1716   1.294   2.633   1.053 -0.1641 -0.1716 -0.1832
  430SOL     OW 1717   1.143   2.700   0.665  0.2658  0.6037  0.4067
  430SOL    HW1 1718   1.145   2.606   0.689 -0.0355  0.0882 -1.1122
  430SOL    HW2 1719   1.080   2.705   0.594  3.2269 -0.9361  0.8590
  430SOL     MW 1720   1.135   2.688   0.658  0.6167  0.3325  0.2660
  431SOL     OW 1721   0.325   1.900   1.132 -0.0546 -0.9240 -0.0587
  431SOL    HW1 1722   0.395   1.830   1.148  0.0252 -0.3818  0.5045
  431SOL    HW2 1723   0.316   1.928   1.039 -2.2508 -1.7113 -0.6400
  431SOL     MW 1724   0.333   1.894   1.122 -0.3339 -0.9564 -0.0611
  432SOL     OW 1725   0.017   0.106   1.155 -0.0929 -0.6354 -0.3846
  432SOL    HW1 1726  -0.003   0.128   1.250  0.3287 -0.5319  1.6693
  432SOL    HW2 1727  -0.044   0.031   1.139  1.0186 -0.5869  0.9375
  432SOL     MW 1728   0.007   0.099   1.165  0.1094 -0.6153  0.0608
  433SOL     OW 1729   0.605   2.863   1.433  0.2856 -0.2153 -0.4195
  433SOL    HW1 1730   0.622   2.885   1.531  0.0018 -3.1803 -0.3454
  433SOL    HW2 1731   0.680   2.894   1.385  0.0464 -0.4736  1.0711
  433SOL     MW 1732   0.617   2.870   1.440  0.2166 -0.6406 -0.2131
  434SOL     OW 1733   1.584   2.832   1.516  0.2250  0.0801 -0.5689
  434SOL    HW1 1734   1.499   2.884   1.527  0.4856  3.1031 -2.7707
  434SOL    HW2 1735   1.585   2.826   1.422 -1.0381 -2.7630 -2.4409
  434SOL     MW 1736   1.573   2.838   1.505  0.0927  0.1039 -1.1064
  435SOL     OW 1737   2.836   1.774   0.175 -0.3040  0.0122  0.4579
  435SOL    HW1 1738   2.896   1.838   0.136 -0.4066  0.5262  2.1749
  435SOL    HW2 1739   2.808   1.715   0.102 -0.3924 -1.1860 -1.7214
  435SOL     MW 1740   2.840   1.775   0.160 -0.3292 -0.0781  0.3969
  436SOL     OW 1741   1.312   2.733   0.298 -0.7236  0.1128  0.0889
  436SOL    HW1 1742   1.359   2.696   0.375 -0.4292 -1.2448 -0.5069
  436SOL    HW2 1743   1.269   2.816   0.333 -0.4855  2.9231 -0.1505
  436SOL     MW 1744   1.313   2.739   0.312 -0.6533  0.3045 -0.0213
  437SOL     OW 1745   0.882   2.899   1.350  0.0929 -0.2042 -0.2586
  437SOL    HW1 1746   0.886   2.984   1.305  0.0385 -0.1795  0.2784
  437SOL    HW2 1747   0.939   2.842   1.296  0.9157 -1.3882 -0.6516
  437SOL     MW 1748   0.890   2.903   1.337  0.1943 -0.3571 -0.2396
  438SOL     OW 1749   0.904   2.624   1.932 -0.3658 -0.3841  0.4299
  438SOL    HW1 1750   0.864   2.582   2.004  0.5440  1.8826 -0.2049
  438SOL    HW2 1751   0.837   2.595   1.869 -1.0211  0.4641 -0.0506
  438SOL     MW 1752   0.890   2.614   1.933 -0.3322  0.0269  0.2828
  439SOL     OW 1753   1.105   2.128   0.357 -0.4322 -0.3172  0.1890
  439SOL    HW1 1754   1.066   2.138   0.444  1.2092  1.6731 -0.9225
  439SOL    HW2 1755   1.120   2.215   0.313 -0.7932  0.3184 -0.2221
  439SOL     MW 1756   1.102   2.141   0.363 -0.2633  0.0293 -0.0119
  440SOL     OW 1757   1.620   2.896   3.039  0.7125 -0.0099  0.0521
  440SOL    HW1 1758   1.584   2.900   3.125  2.5773  1.3351  1.0334
  440SOL    HW2 1759   1.670   2.814   3.038  2.0361 -2.6853  1.4169
  440SOL     MW 1760   1.622   2.886   3.050  1.1331 -0.1854  0.3617
  441SOL     OW 1761   0.330   2.613   0.528  0.3981 -0.1118 -0.3030
  441SOL    HW1 1762   0.316   2.599   0.432 -1.0456  2.5353 -0.1452
  441SOL    HW2 1763   0.355   2.702   0.537  2.0406  0.0022 -0.9100
  441SOL     MW 1764   0.331   2.623   0.517  0.4243  0.2525 -0.3623
  442SOL     OW 1765   3.052   2.341   0.617  0.2410  0.0640 -0.0074
  442SOL    HW1 1766   3.064   2.439   0.612  0.5605  0.4061  0.1475
  442SOL    HW2 1767   2.968   2.328   0.662  0.2095 -1.3107 -1.5913
  442SOL     MW 1768   3.042   2.352   0.622  0.2790 -0.0722 -0.1960
  443SOL     OW 1769   1.412   1.774   1.842 -0.9371 -0.2723  0.2715
  443SOL    HW1 1770   1.367   1.822   1.772 -1.8340  2.3730  0.0396
  443SOL    HW2 1771   1.350   1.710   1.862 -1.3309  2.3977 -0.6035
  443SOL     MW 1772   1.398   1.772   1.835 -1.1074  0.4290  0.1255
  444SOL     OW 1773   0.912   2.588   1.554  0.1895 -0.3724  0.2007
  444SOL    HW1 1774   0.946   2.511   1.516 -0.0926  2.7478  0.1723
  444SOL    HW2 1775   0.847   2.562   1.623 -1.2059 -3.1375 -2.3734
  444SOL     MW 1776   0.908   2.574   1.558 -0.0318 -0.3256 -0.1427
  445SOL     OW 1777   0.932   0.063   1.286  0.0455  0.1543 -0.4173
  445SOL    HW1 1778   0.889   0.150   1.267 -2.7172  1.2119 -2.3074
  445SOL    HW2 1779   1.012   0.059   1.228  0.8851  1.6082 -0.9737
  445SOL     MW 1780   0.937   0.074   1.276 -0.2082  0.4857 -0.7401
  446SOL     OW 1781   2.683   2.816   1.086 -0.0020  0.7052 -0.2563
  446SOL    HW1 1782   2.660   2.859   1.001  0.0195  0.9945 -0.8719
  446SOL    HW2 1783   2.717   2.726   1.066 -1.3543 -0.0524 -0.8430
  446SOL     MW 1784   2.685   2.810   1.072 -0.1776  0.6434 -0.4149
  447SOL     OW 1785   3.026   2.052   1.686 -0.4374  0.5888 -0.7317
  447SOL    HW1 1786   3.088   1.981   1.711 -0.0309  0.8154  0.7635
  447SOL    HW2 1787   2.960   1.998   1.640 -0.9139  0.8217  0.8974
  447SOL     MW 1788   3.026   2.036   1.683 -0.4466  0.6494 -0.3195
  448SOL     OW 1789   1.691   2.380   1.693 -0.3504 -0.1051 -0.1099
  448SOL    HW1 1790   1.633   2.302   1.695 -2.8292  0.6482 -3.3019
  448SOL    HW2 1791   1.631   2.456   1.700  2.8650 -3.7119 -0.2888
  448SOL     MW 1792   1.675   2.380   1.694 -0.2532 -0.4816 -0.5547
  449SOL     OW 1793   0.770   2.922   0.409 -0.2003 -1.1771 -0.5706
  449SOL    HW1 1794   0.703   2.906   0.340 -1.3592 -2.5149  1.1293
  449SOL    HW2 1795   0.726   2.920   0.496 -0.5670  0.5054 -3.5448
  449SOL     MW 1796   0.755   2.919   0.412 -0.4016 -1.1316 -0.7387
  450SOL     OW 1797   1.182   2.436   0.707  0.2126 -0.2146  0.0442
  450SOL    HW1 1798   1.183   2.370   0.779 -0.2830  0.4450 -1.8966
  450SOL    HW2 1799   1.275   2.442   0.671 -2.5335 -2.6278 -0.5073
  450SOL     MW 1800   1.194   2.428   0.712 -0.2151 -0.4460 -0.2847
  451SOL     OW 1801   0.583   2.008   1.644  0.3129  0.1882 -0.0925
  451SOL    HW1 1802   0.641   2.079   1.644 -0.0009 -1.6310 -3.6788
  451SOL    HW2 1803   0.583   1.971   1.555  0.9645  0.3770 -0.8359
  451SOL     MW 1804   0.591   2.012   1.632  0.3575 -0.0269 -0.6638
  452SOL     OW 1805   0.279   2.744   0.063  0.2640 -0.0297 -0.5960
  452SOL    HW1 1806   0.372   2.748   0.052 -3.3447  1.8679  3.3582
  452SOL    HW2 1807   0.236   2.757  -0.025 -1.7212 -1.0975 -1.0253
  452SOL     MW 1808   0.286   2.746   0.049 -0.4741  0.0798 -0.1309
  453SOL     OW 1809   0.417   3.007   1.709 -0.6638  0.2186  0.6781
  453SOL    HW1 1810   0.508   2.964   1.704  1.3727 -0.8488 -0.2438
  453SOL    HW2 1811   0.376   3.013   1.622 -0.9690  1.1662 -0.4095
  453SOL     MW 1812   0.424   3.002   1.696 -0.4354  0.2028  0.4129
  454SOL     OW 1813   1.019   2.702   1.216  0.7129 -0.3003  0.7409
  454SOL    HW1 1814   0.954   2.636   1.235  1.0476 -0.3479 -1.7341
  454SOL    HW2 1815   0.971   2.757   1.153  0.9929  1.0669  0.3483
  454SOL     MW 1816   1.004   2.701   1.210  0.7940 -0.1262  0.3626
  455SOL     OW 1817   1.532   2.933   0.211 -0.2539 -0.5187 -0.3542
  455SOL    HW1 1818   1.611   2.910   0.261 -0.7080 -0.9783  1.3941
  455SOL    HW2 1819   1.472   2.862   0.226 -4.4765 -0.4543 -0.5212
  455SOL     MW 1820   1.535   2.921   0.220 -0.8710 -0.5709 -0.1455
  456SOL     OW 1821   2.876   0.369   1.320  0.2520 -0.1789  0.1773
  456SOL    HW1 1822   2.840   0.289   1.274 -2.2841 -0.7319 -1.3740
  456SOL    HW2 1823   2.946   0.409   1.270  1.1514 -0.5635  1.5604
  456SOL     MW 1824   2.880   0.364   1.307  0.0361 -0.3026  0.1551
  457SOL     OW 1825   0.918   1.574   2.994  0.1386  0.2849  0.2677
  457SOL    HW1 1826   0.832   1.561   3.035  3.7406 -0.8304  1.8531
  457SOL    HW2 1827   0.968   1.491   3.020 -0.3605  0.2689 -0.7195
  457SOL     MW 1828   0.913   1.562   3.002  0.5480  0.1357  0.3467
  458SOL     OW 1829   1.461   1.412   0.613  0.1896 -0.2371 -0.3261
  458SOL    HW1 1830   1.392   1.466   0.652 -0.2395  1.5658 -0.8289
  458SOL    HW2 1831   1.422   1.365   0.531  1.3963  0.8786 -2.7508
  458SOL     MW 1832   1.447   1.413   0.608  0.2922  0.1480 -0.7124
  459SOL     OW 1833   1.559   0.117   0.233 -0.3200  0.2451 -0.1707
  459SOL    HW1 1834   1.529   0.026   0.215  1.6813 -1.8267  1.4921
  459SOL    HW2 1835   1.495   0.174   0.184  1.0881  0.4966 -0.0318
  459SOL     MW 1836   1.547   0.112   0.224  0.1298  0.0049  0.0670
  460SOL     OW 1837   1.787   2.147   0.655  0.3207 -0.2662 -0.0175
  460SOL    HW1 1838   1.689   2.175   0.667  2.3629  1.7474 -0.3584
  460SOL    HW2 1839   1.789   2.067   0.607  0.3415 -1.5683  1.7675
  460SOL     MW 1840   1.774   2.140   0.650  0.5929 -0.1723  0.1731
  461SOL     OW 1841   0.519   2.425   0.620 -0.7694  0.3045  0.4304
  461SOL    HW1 1842   0.450   2.487   0.591 -0.1836 -0.2738 -1.1258
  461SOL    HW2 1843   0.495   2.410   0.713 -0.8037 -1.2766 -2.1712
  461SOL     MW 1844   0.507   2.431   0.629 -0.6967  0.0196 -0.1182
  462SOL     OW 1845   0.329   0.245   1.272  0.3908  0.3153  0.1643
  462SOL    HW1 1846   0.360   0.179   1.193  1.4574 -2.7531  0.3675
  462SOL    HW2 1847   0.410   0.270   1.308 -1.7659 -0.8756 -1.0071
  462SOL     MW 1848   0.344   0.240   1.266  0.2470 -0.2467  0.0366
  463SOL     OW 1849   0.948   3.097   0.680 -0.6741 -0.1142 -0.1811
  463SOL    HW1 1850   0.976   3.112   0.591 -0.1251 -1.9840 -1.0431
  463SOL    HW2 1851   0.860   3.128   0.688  1.5446 -0.1857 -1.0356
  463SOL     MW 1852   0.940   3.103   0.670 -0.3089 -0.3703 -0.4076
  464SOL     OW 1853   0.758   3.023   2.226  0.2088  0.4418 -0.0862
  464SOL    HW1 1854   0.749   2.915   2.229  2.1689  0.9592  1.4912
  464SOL    HW2 1855   0.818   3.047   2.296 -2.4514  0.5976  4.2073
  464SOL     MW 1856   0.764   3.012   2.236  0.1164  0.5306  0.6885
  465SOL     OW 1857   0.681   0.309   0.517 -0.7760 -0.1275 -0.5182
  465SOL    HW1 1858   0.673   0.265   0.603 -0.5464 -1.2276 -0.0162
  465SOL    HW2 1859   0.729   0.247   0.466 -0.8068 -2.0173  0.8953
  465SOL     MW 1860   0.686   0.295   0.522 -0.7498 -0.5220 -0.2655
  466SOL     OW 1861   1.078   2.013   0.738  0.3217  0.5754  0.1042
  466SOL    HW1 1862   1.085   1.947   0.670 -0.1779 -0.4115 -0.1017
  466SOL    HW2 1863   1.086   2.102   0.696 -0.5044  1.5376  1.0042
  466SOL     MW 1864   1.080   2.016   0.724  0.1468  0.5721  0.1958
  467SOL     OW 1865   1.258   2.252   0.900  0.0477  0.0275 -0.2614
  467SOL    HW1 1866   1.336   2.304   0.937  0.6255  0.8900 -0.6724
  467SOL    HW2 1867   1.287   2.163   0.897  2.2613  1.5915 -2.2601
  467SOL     MW 1868   1.272   2.247   0.905  0.4160  0.3476 -0.5794
  468SOL     OW 1869   0.356   2.585   2.013  0.4126  0.0692 -0.2152
  468SOL    HW1 1870   0.373   2.517   1.942  0.8025  0.1012 -0.8909
  468SOL    HW2 1871   0.379   2.674   1.972 -2.6129  0.3492  2.6210
  468SOL     MW 1872   0.362   2.588   1.998  0.0648  0.1104  0.0699
  469SOL     OW 1873   0.386   2.127   1.781  0.1681  0.0407 -0.2736
  469SOL    HW1 1874   0.311   2.065   1.775 -1.2939 -1.2665  0.4518
  469SOL    HW2 1875   0.463   2.081   1.747  0.0264  1.3346 -2.0349
  469SOL     MW 1876   0.386   2.113   1.775 -0.0435  0.0390 -0.4103
  470SOL     OW 1877   3.054   2.611   0.136  0.8117  0.4903  0.3863
  470SOL    HW1 1878   2.975   2.565   0.164 -0.5197  1.4805  0.7817
  470SOL    HW2 1879   3.042   2.629   0.043 -2.2299 -0.1403 -0.3022
  470SOL     MW 1880   3.042   2.607   0.127  0.2347  0.5377  0.3476
  471SOL     OW 1881   1.232   2.721   1.396 -0.4820 -0.1200 -0.4093
  471SOL    HW1 1882   1.176   2.758   1.466  0.5357 -1.0392  2.0652
  471SOL    HW2 1883   1.171   2.702   1.322 -2.9934  0.6051 -1.3493
  471SOL     MW 1884   1.217   2.723   1.395 -0.6791 -0.1456 -0.2068
  472SOL     OW 1885   2.881   2.064   0.382  0.4091 -0.2233 -0.0966
  472SOL    HW1 1886   2.901   2.041   0.283  1.1901 -1.8720  0.8095
  472SOL    HW2 1887   2.869   1.970   0.406 -2.9900 -0.7868  2.3996
  472SOL     MW 1888   2.882   2.049   0.372  0.0636 -0.5152  0.3523
  473SOL     OW 1889   0.791   2.506   1.294 -0.3295 -0.9646  0.9738
  473SOL    HW1 1890   0.847   2.430   1.275  1.3119 -0.8694 -1.0518
  473SOL    HW2 1891   0.803   2.518   1.393 -3.4706 -0.4906 -0.9943
  473SOL     MW 1892   0.800   2.497   1.304 -0.5274 -0.8895  0.4469
  474SOL     OW 1893   0.766   2.263   1.702  0.3606  0.2166 -0.6728
  474SOL    HW1 1894   0.844   2.257   1.755 -0.5816  0.0254  2.0215
  474SOL    HW2 1895   0.790   2.261   1.613  1.7098  0.9295  0.4320
  474SOL     MW 1896   0.779   2.262   1.697  0.4143  0.2854 -0.1716
  475SOL     OW 1897   1.615   0.058   1.463 -0.1770  0.1577  0.2432
  475SOL    HW1 1898   1.559   0.081   1.394  0.6479  1.4055  0.1670
  475SOL    HW2 1899   1.587  -0.028   1.487  2.2992 -0.3856  0.5937
  475SOL     MW 1900   1.604   0.049   1.457  0.2585  0.2507  0.2794
  476SOL     OW 1901   1.500   2.639   0.854  0.1176 -0.7064  0.1925
  476SOL    HW1 1902   1.447   2.658   0.937 -1.6679  1.0431  2.4868
  476SOL    HW2 1903   1.503   2.722   0.804 -0.0505  1.7020  0.8135
  476SOL     MW 1904   1.493   2.652   0.858 -0.1401 -0.1578  0.5771
  477SOL     OW 1905   0.829   2.502   0.681 -0.4493  0.2207 -0.5752
  477SOL    HW1 1906   0.853   2.583   0.618  1.7764  1.7594 -2.6879
  477SOL    HW2 1907   0.800   2.428   0.626 -0.6747 -0.2733 -0.8404
  477SOL     MW 1908   0.828   2.503   0.666 -0.1854  0.3585 -0.8889
  478SOL     OW 1909   0.185   2.640   0.899 -0.1633 -0.0831 -0.2256
  478SOL    HW1 1910   0.226   2.720   0.873 -1.1586  3.0706 -1.7838
  478SOL    HW2 1911   0.261   2.593   0.874 -0.9234 -1.4823 -1.6313
  478SOL     MW 1912   0.201   2.644   0.893 -0.3949  0.1484 -0.6167
  479SOL     OW 1913   1.440   1.926   1.300 -0.1566 -0.3667  0.2077
  479SOL    HW1 1914   1.405   1.975   1.375 -1.2171  1.1141 -0.7649
  479SOL    HW2 1915   1.530   1.906   1.323 -1.6584 -0.8364 -0.3853
  479SOL     MW 1916   1.447   1.930   1.313 -0.4947 -0.2333  0.0012
  480SOL     OW 1917   1.851   2.386   1.378 -0.1564 -0.0978  0.2999
  480SOL    HW1 1918   1.868   2.301   1.417  0.0718 -0.4270  1.6949
  480SOL    HW2 1919   1.874   2.374   1.289  0.3575  0.2695  1.1373
  480SOL     MW 1920   1.856   2.373   1.371 -0.0585 -0.0928  0.5945
  481SOL     OW 1921   1.180   0.098   1.107 -0.0718 -0.5476 -0.2116
  481SOL    HW1 1922   1.216   0.067   1.026 -0.2698  0.9349  1.8324
  481SOL    HW2 1923   1.184   0.195   1.098  0.4129  1.3456 -2.4670
  481SOL     MW 1924   1.186   0.107   1.095 -0.0340 -0.1022 -0.2395
  482SOL     OW 1925   0.964   0.022   0.402 -0.0856 -0.0210  0.0297
  482SOL    HW1 1926   0.894  -0.040   0.389 -0.3912 -0.3133  0.1538
  482SOL    HW2 1927   0.951   0.096   0.344  2.4824  0.0697 -0.5793
  482SOL     MW 1928   0.953   0.024   0.392  0.2129 -0.0476 -0.0343
  483SOL     OW 1929   0.416   2.869   0.518 -0.1471  0.5798  0.2168
  483SOL    HW1 1930   0.345   2.876   0.452 -0.1951  1.3702 -1.7254
  483SOL    HW2 1931   0.377   2.935   0.582  0.4053  0.0447 -1.7378
  483SOL     MW 1932   0.402   2.879   0.518 -0.0805  0.6135 -0.2973
  484SOL     OW 1933   1.686   1.890   1.422 -0.1530 -0.3152 -0.2198
  484SOL    HW1 1934   1.749   1.958   1.396  1.7489 -0.6054  0.8224
  484SOL    HW2 1935   1.684   1.892   1.516 -1.5867 -0.9072 -0.6421
  484SOL     MW 1936   1.694   1.900   1.431 -0.0912 -0.4316 -0.1380
  485SOL     OW 1937   0.560   2.334   0.304  0.3153  0.1782 -0.7244
  485SOL    HW1 1938   0.598   2.344   0.385 -0.5799  1.3389 -2.0117
  485SOL    HW2 1939   0.508   2.406   0.269 -5.3099  2.1152  2.4005
  485SOL     MW 1940   0.558   2.345   0.310 -0.5450  0.5869 -0.4820
  486SOL     OW 1941   0.093   2.467   1.408  0.3876  0.2729 -0.7412
  486SOL    HW1 1942   0.148   2.539   1.378  0.0975 -2.0012  0.8818
  486SOL    HW2 1943   0.106   2.452   1.500 -1.4321  0.8607 -2.3652
  486SOL     MW 1944   0.102   2.475   1.416  0.1092  0.0504 -0.7413
  487SOL     OW 1945   1.262   1.596   1.050  0.3630 -0.3865  0.7595
  487SOL    HW1 1946   1.210   1.683   1.055 -1.2941  0.4076  2.9899
  487SOL    HW2 1947   1.352   1.629   1.018  1.7348  2.6057  1.3354
  487SOL     MW 1948   1.267   1.612   1.047  0.3254  0.1130  1.1298
  488SOL     OW 1949   1.558   1.856   0.571  0.5601  0.0229  0.3656
  488SOL    HW1 1950   1.647   1.884   0.547  0.3327 -3.1479 -0.0031
  488SOL    HW2 1951   1.496   1.921   0.541  2.2491  2.1026  3.0906
  488SOL     MW 1952   1.562   1.868   0.564  0.7529 -0.1211  0.6765
  489SOL     OW 1953   0.773   0.800   0.488  0.0107  0.0938  0.1819
  489SOL    HW1 1954   0.788   0.716   0.443  1.7354 -0.9108 -1.3504
  489SOL    HW2 1955   0.753   0.781   0.578 -0.3925  0.1961 -0.4117
  489SOL     MW 1956   0.772   0.786   0.494  0.1851 -0.0253 -0.0986
  490SOL     OW 1957   1.405   2.109   0.433 -0.0246 -0.2060 -0.1368
  490SOL    HW1 1958   1.444   2.192   0.397  1.9775  2.0389  1.1953
  490SOL    HW2 1959   1.316   2.104   0.393  0.1044  1.4871  1.7168
  490SOL     MW 1960   1.399   2.119   0.423  0.2566  0.3136  0.2835
  491SOL     OW 1961   1.210   2.964   0.413 -0.6229  0.2169  0.2213
  491SOL    HW1 1962   1.257   3.013   0.481  1.3101 -0.2590  0.2555
  491SOL    HW2 1963   1.128   3.001   0.395  0.9776  2.1893  0.4068
  491SOL     MW 1964   1.205   2.975   0.419 -0.1567  0.4143  0.2503
  492SOL     OW 1965   1.482   2.140   0.683  0.6863 -0.1783  0.6030
  492SOL    HW1 1966   1.450   2.114   0.592  2.1535 -2.5357 -1.5018
  492SOL    HW2 1967   1.423   2.084   0.737 -0.2807 -0.2396  0.6722
  492SOL     MW 1968   1.470   2.129   0.678  0.7523 -0.4975  0.3344
  493SOL     OW 1969   0.164   2.938   0.421 -0.1686 -0.3079 -0.9441
  493SOL    HW1 1970   0.101   2.996   0.467  0.5035  0.1513 -1.7819
  493SOL    HW2 1971   0.162   2.970   0.327 -1.5265 -1.1200 -1.0630
  493SOL     MW 1972   0.156   2.950   0.415 -0.2591 -0.3545 -1.0704
  494SOL     OW 1973   0.434   2.409   1.789  0.4141  0.2274 -0.2905
  494SOL    HW1 1974   0.412   2.312   1.809 -0.1326 -1.4218 -0.5724
  494SOL    HW2 1975   0.480   2.397   1.710  0.6187 -1.2824  3.7973
  494SOL     MW 1976   0.437   2.394   1.781  0.3690 -0.1894  0.2117
  495SOL     OW 1977   2.924   1.636   2.728  0.0667  0.1966 -0.3280
  495SOL    HW1 1978   2.891   1.706   2.778  0.9782 -0.3153 -0.8165
  495SOL    HW2 1979   2.929   1.571   2.796 -1.1260 -0.3195 -1.4728
  495SOL     MW 1980   2.921   1.637   2.744  0.0296  0.0609 -0.5435
  496SOL     OW 1981   2.807   2.292   2.642  0.6941  0.0471 -0.0408
  496SOL    HW1 1982   2.812   2.220   2.701 -1.3662 -0.7398 -0.2723
  496SOL    HW2 1983   2.891   2.337   2.648  1.0096  1.4219  2.0022
  496SOL     MW 1984   2.819   2.289   2.650  0.4639  0.1246  0.1982
  497SOL     OW 1985   1.497   2.302   2.493  0.1791 -0.0484 -0.0731
  497SOL    HW1 1986   1.504   2.264   2.405 -0.1164 -0.3932  1.4379
  497SOL    HW2 1987   1.424   2.251   2.538 -2.1595 -0.6039  0.3040
  497SOL     MW 1988   1.488   2.290   2.488 -0.1684 -0.1672  0.1760
  498SOL     OW 1989   1.595   2.752   2.226  0.2495  0.1081  0.3346
  498SOL    HW1 1990   1.617   2.658   2.215  0.8641 -2.3999 -2.6940
  498SOL    HW2 1991   1.636   2.776   2.310 -0.2047 -2.9374 -1.1722
  498SOL     MW 1992   1.603   2.743   2.235  0.2707 -0.6246 -0.2638
  499SOL     OW 1993   0.918   0.147   0.013  0.4746  0.3272 -0.4700
  499SOL    HW1 1994   0.874   0.181   0.092  0.5309 -1.1877  2.1308
  499SOL    HW2 1995   0.903   0.054   0.013  2.0222 -1.8528  0.3751
  499SOL     MW 1996   0.911   0.140   0.024  0.6862 -0.1603 -0.0153
  500SOL     OW 1997   1.039   2.455   2.790  0.0831 -0.1895  0.6457
  500SOL    HW1 1998   1.069   2.436   2.879  0.8036 -0.8466 -0.3309
  500SOL    HW2 1999   0.978   2.527   2.800 -1.7543 -2.9467  1.0490
  500SOL     MW 2000   1.035   2.462   2.803 -0.0643 -0.6400  0.5700
  501SOL     OW 2001   1.726   2.221   3.085  0.3153 -0.0893 -0.6397
  501SOL    HW1 2002   1.695   2.310   3.114 -2.1778 -1.3759 -0.1695
  501SOL    HW2 2003   1.821   2.227   3.098 -0.1627  0.1150  0.5406
  501SOL     MW 2004   1.735   2.234   3.090 -0.0767 -0.2321 -0.4219
  502SOL     OW 2005   0.143   2.783   2.923 -0.3160  0.2003 -0.0473
  502SOL    HW1 2006   0.086   2.716   2.887 -0.5072 -1.5700  3.0481
  502SOL    HW2 2007   0.145   2.859   2.868 -2.4496  1.1262 -0.4095
  502SOL     MW 2008   0.136   2.784   2.911 -0.6228  0.0889  0.3133
  503SOL     OW 2009   1.160   2.608   2.093 -0.3400  0.0163 -0.0233
  503SOL    HW1 2010   1.232   2.602   2.023  0.3030  1.0188 -2.8943
  503SOL    HW2 2011   1.079   2.616   2.040  1.4366  0.5825 -1.4752
  503SOL     MW 2012   1.159   2.609   2.077 -0.0207  0.2233 -0.5936
  504SOL     OW 2013   0.085   2.649   2.073 -0.0888  0.2352 -0.3469
  504SOL    HW1 2014   0.166   2.629   2.029  0.4440 -2.7507  1.8010
  504SOL    HW2 2015   0.068   2.566   2.115 -1.1081 -0.2853  0.2970
  504SOL     MW 2016   0.093   2.635   2.072 -0.1530 -0.2274  0.0215
  505SOL     OW 2017   1.647   2.672   2.739 -0.3788  0.2612  0.0265
  505SOL    HW1 2018   1.710   2.690   2.662  0.0698  1.8108 -1.8024
  505SOL    HW2 2019   1.584   2.746   2.737  1.1400 -0.8134  1.9586
  505SOL     MW 2020   1.647   2.684   2.729 -0.1192  0.3239  0.0401
  506SOL     OW 2021   1.579   0.029   2.849  0.1261  0.4544 -0.3858
  506SOL    HW1 2022   1.626  -0.007   2.924  0.2290 -3.0379  2.0299
  506SOL    HW2 2023   1.626   0.001   2.771  0.1632 -0.2407 -2.2095
  506SOL     MW 2024   1.592   0.021   2.849  0.1446 -0.0981 -0.3077
  507SOL     OW 2025   0.869   2.681   2.850 -0.0267  0.1129 -0.1088
  507SOL    HW1 2026   0.919   2.739   2.793 -2.2648  0.1123  0.4289
  507SOL    HW2 2027   0.782   2.689   2.813 -0.5467  2.7117  1.6507
  507SOL     MW 2028   0.864   2.689   2.838 -0.3906  0.4557  0.1943
  508SOL     OW 2029   1.237   2.121   2.539  0.3810 -0.0312 -0.5605
  508SOL    HW1 2030   1.295   2.112   2.617  1.7656 -0.7221  1.8338
  508SOL    HW2 2031   1.150   2.118   2.581  2.6125  0.1090 -2.2804
  508SOL     MW 2032   1.233   2.119   2.555  0.8581 -0.1038 -0.4715
  509SOL     OW 2033   0.597   2.612   2.816  0.5109  0.2944 -0.2728
  509SOL    HW1 2034   0.586   2.577   2.731 -0.2717 -1.7014  1.0194
  509SOL    HW2 2035   0.571   2.702   2.805  0.6113  1.9762 -0.7561
  509SOL     MW 2036   0.592   2.619   2.803  0.4209  0.2529 -0.1660
  510SOL     OW 2037   1.526   2.605   1.667  1.1540 -0.2612 -0.1056
  510SOL    HW1 2038   1.555   2.692   1.614  1.4539 -0.6109 -0.9177
  510SOL    HW2 2039   1.472   2.631   1.742 -3.1618  0.8031  1.2259
  510SOL     MW 2040   1.523   2.620   1.670  0.6241 -0.1669 -0.0371
  511SOL     OW 2041   0.331   2.584   2.550  0.6898  0.5003  0.1146
  511SOL    HW1 2042   0.423   2.547   2.566 -0.7088  1.2391 -0.6723
  511SOL    HW2 2043   0.333   2.581   2.452  0.8510 -1.7677 -0.1983
  511SOL     MW 2044   0.344   2.579   2.539  0.5265  0.2985 -0.0305
  512SOL     OW 2045   1.012   2.015   2.888  0.0727  0.4730 -0.0523
  512SOL    HW1 2046   0.934   2.047   2.933  0.2535 -1.1337  2.6050
  512SOL    HW2 2047   1.036   1.939   2.946  1.0684 -2.3382 -3.5046
  512SOL     MW 2048   1.004   2.009   2.901  0.2280 -0.1099 -0.1572
  513SOL     OW 2049   1.685   2.472   2.186  0.3857 -0.5114  0.3348
  513SOL    HW1 2050   1.764   2.506   2.131  4.8094  1.8151  0.0786
  513SOL    HW2 2051   1.729   2.445   2.268  0.4406 -0.6157  3.3159
  513SOL     MW 2052   1.701   2.473   2.189  0.9766 -0.2182  0.6943
  514SOL     OW 2053   0.203   2.368   2.657  0.6236  0.5094 -0.0851
  514SOL    HW1 2054   0.230   2.461   2.631 -1.0487  2.7806  0.8212
  514SOL    HW2 2055   0.256   2.338   2.730  1.0493 -1.5051 -0.7514
  514SOL     MW 2056   0.214   2.376   2.663  0.4592  0.5433 -0.0534
  515SOL     OW 2057   1.077   2.002   1.910  0.1299 -0.0138  0.2108
  515SOL    HW1 2058   1.067   2.093   1.901 -2.9913 -0.0588 -1.6351
  515SOL    HW2 2059   1.141   1.985   1.985 -1.8117  0.3260  1.2200
  515SOL     MW 2060   1.084   2.011   1.919 -0.5381  0.0251  0.1004
  516SOL     OW 2061   1.385   2.517   2.956  0.3363 -0.0927  0.2119
  516SOL    HW1 2062   1.416   2.497   2.865 -0.8288 -1.4881 -1.0368
  516SOL    HW2 2063   1.307   2.465   2.974  0.0558  0.0184 -3.1713
  516SOL     MW 2064   1.379   2.507   2.947  0.1456 -0.2622 -0.3993
  517SOL     OW 2065   0.623   2.369   2.266  0.2267  0.1278 -0.0273
  517SOL    HW1 2066   0.535   2.402   2.297 -2.5087 -0.9322 -2.2409
  517SOL    HW2 2067   0.591   2.324   2.184 -3.0368 -1.5920 -2.5032
  517SOL     MW 2068   0.607   2.367   2.259 -0.5648 -0.2390 -0.6460
  518SOL     OW 2069   1.798   0.022   3.092  0.3290  0.1944  0.3782
  518SOL    HW1 2070   1.762   0.094   3.142  1.7075  2.9677 -0.0979
  518SOL    HW2 2071   1.740  -0.053   3.089  3.2509 -1.5749 -1.3200
  518SOL     MW 2072   1.785   0.021   3.098  0.8964  0.3269  0.0914
  519SOL     OW 2073   0.717   2.549   1.737 -0.1239  0.3585 -0.6000
  519SOL    HW1 2074   0.729   2.453   1.721  1.6160 -1.8586 -0.6170
  519SOL    HW2 2075   0.634   2.559   1.787 -0.1189  0.9666  2.1945
  519SOL     MW 2076   0.707   2.538   1.741  0.1063  0.1462 -0.2336
  520SOL     OW 2077   1.219   2.204   2.945 -0.0464  0.1097  0.1017
  520SOL    HW1 2078   1.150   2.136   2.915 -1.2711  0.5021  0.2400
  520SOL    HW2 2079   1.262   2.153   3.021 -0.9681  0.7191  0.8827
  520SOL     MW 2080   1.216   2.188   2.951 -0.3296  0.2419  0.2230
  521SOL     OW 2081   1.765   2.064   2.244  0.0890 -0.0935  0.2529
  521SOL    HW1 2082   1.759   2.044   2.151 -0.0343  0.8384 -1.3064
  521SOL    HW2 2083   1.787   1.974   2.277  0.1065 -0.0406  2.5161
  521SOL     MW 2084   1.767   2.050   2.236  0.0750  0.0365  0.3458
  522SOL     OW 2085   2.907   2.517   2.272 -0.0607  0.1607 -0.0122
  522SOL    HW1 2086   2.988   2.481   2.297  1.3647  1.5399 -1.2690
  522SOL    HW2 2087   2.917   2.610   2.266 -0.8342 -0.7988 -1.2512
  522SOL     MW 2088   2.919   2.525   2.275  0.0253  0.2161 -0.3415
  523SOL     OW 2089   0.900   1.516   2.139  0.2931  0.1014  0.2939
  523SOL    HW1 2090   0.878   1.592   2.078 -0.6180  0.4401 -0.2682
  523SOL    HW2 2091   0.919   1.441   2.082 -2.3782 -1.3834 -0.0324
  523SOL     MW 2092   0.900   1.516   2.123 -0.1796 -0.0498  0.1767
  524SOL     OW 2093   0.602   2.368   2.943  0.5192  0.5040 -0.2383
  524SOL    HW1 2094   0.608   2.449   2.890 -2.2115  1.8318 -0.4374
  524SOL    HW2 2095   0.675   2.313   2.935 -0.5587  1.6878  1.3376
  524SOL     MW 2096   0.613   2.371   2.935  0.0167  0.8354 -0.0566
  525SOL     OW 2097   0.462   2.193   2.117  0.7920  0.0342  0.1345
  525SOL    HW1 2098   0.437   2.108   2.160 -3.5270 -2.2270  0.8170
  525SOL    HW2 2099   0.524   2.168   2.043 -1.0479  1.3736  1.4161
  525SOL     MW 2100   0.467   2.178   2.113 -0.0206 -0.0874  0.3936
  526SOL     OW 2101   0.694   2.154   1.974  0.1150 -0.1691  0.8713
  526SOL    HW1 2102   0.704   2.203   1.886 -1.0950 -0.1882 -2.8561
  526SOL    HW2 2103   0.771   2.189   2.029 -1.3554 -2.2662 -0.8496
  526SOL     MW 2104   0.705   2.165   1.970 -0.2386 -0.4483  0.1525
  527SOL     OW 2105   1.292   1.913   2.054  0.2847  0.0368  0.1900
  527SOL    HW1 2106   1.263   1.856   2.129  0.8750 -1.6891  0.2176
  527SOL    HW2 2107   1.330   1.852   1.996  0.5758 -1.2807 -0.7511
  527SOL     MW 2108   1.293   1.897   2.056  0.4010 -0.3648  0.0695
  528SOL     OW 2109   0.648   2.922   2.936  0.3060  0.7209 -0.0824
  528SOL    HW1 2110   0.640   3.017   2.947  0.5171  0.6110  0.0831
  528SOL    HW2 2111   0.637   2.906   2.837 -2.0571 -0.3196 -1.2546
  528SOL     MW 2112   0.646   2.932   2.924  0.0220  0.5691 -0.2153
  529SOL     OW 2113   0.964   2.286   1.902 -0.4994  1.2306 -0.3116
  529SOL    HW1 2114   1.014   2.304   1.983 -0.9586  0.9672 -2.4669
  529SOL    HW2 2115   1.015   2.335   1.831 -3.0286 -0.5194 -2.7096
  529SOL     MW 2116   0.978   2.295   1.903 -0.8937  0.9649 -0.9124
  530SOL     OW 2117   1.141   2.459   3.030 -0.1261 -0.4325 -0.0855
  530SOL    HW1 2118   1.100   2.476   3.112  2.0882  1.5913 -2.7816
  530SOL    HW2 2119   1.159   2.362   3.016 -2.5681 -1.1800  0.3857
  530SOL     MW 2120   1.138   2.448   3.039 -0.1562 -0.2641 -0.3791
  531SOL     OW 2121   0.918   1.902   2.652  0.7778  0.2976 -0.2879
  531SOL    HW1 2122   0.950   1.944   2.735  1.6512 -0.1507 -0.1331
  531SOL    HW2 2123   0.873   1.830   2.696 -0.2666  1.0927  4.0710
  531SOL     MW 2124   0.917   1.898   2.669  0.7552  0.3434  0.3077
  532SOL     OW 2125   1.697   0.286   2.819  0.1095 -0.3459 -0.0024
  532SOL    HW1 2126   1.678   0.198   2.849 -1.2347  2.5713 -1.9826
  532SOL    HW2 2127   1.779   0.315   2.871 -0.6603 -0.1345  3.4996
  532SOL     MW 2128   1.705   0.278   2.830 -0.1694  0.0669  0.1984
  533SOL     OW 2129   1.780   2.646   2.980  0.7062  0.3488  0.2029
  533SOL    HW1 2130   1.751   2.560   3.021  5.2360 -0.9748  2.1698
  533SOL    HW2 2131   1.722   2.657   2.903 -2.8007 -1.6665  0.7221
  533SOL     MW 2132   1.769   2.636   2.975  0.8411 -0.0917  0.5309
  534SOL     OW 2133   1.743   2.419   2.479  0.6398 -0.7265  0.1960
  534SOL    HW1 2134   1.665   2.366   2.481 -1.2834  1.2918 -0.5331
  534SOL    HW2 2135   1.796   2.418   2.569 -2.8158 -0.5114  0.9287
  534SOL     MW 2136   1.740   2.411   2.491 -0.0699 -0.4318  0.1965
  535SOL     OW 2137   1.824   2.339   1.903 -0.1916  0.0955  0.4537
  535SOL    HW1 2138   1.778   2.366   1.821  2.6055 -0.7766  0.1246
  535SOL    HW2 2139   1.920   2.356   1.896  1.9476 -0.2440  2.1324
  535SOL     MW 2140   1.831   2.345   1.892  0.4597 -0.0643  0.6317
  536SOL     OW 2141   0.458   1.790   1.998  0.1986  0.4312  0.3863
  536SOL    HW1 2142   0.425   1.767   1.911  1.1827  2.4844  1.0814
  536SOL    HW2 2143   0.547   1.825   1.988 -0.2897  0.7988  2.9798
  536SOL     MW 2144   0.465   1.792   1.985  0.2640  0.7506  0.8202
  537SOL     OW 2145   1.088   0.192   2.898  0.3497 -0.1973  0.1494
  537SOL    HW1 2146   1.024   0.186   2.967  0.3577 -1.8928  0.4289
  537SOL    HW2 2147   1.096   0.282   2.883  0.8304 -3.5799 -1.2305
  537SOL     MW 2148   1.080   0.203   2.905  0.4142 -0.8673  0.0042
  538SOL     OW 2149   1.315   0.011   2.978  0.0273  0.1385  0.0580
  538SOL    HW1 2150   1.273   0.078   2.928  0.9771  1.4412 -1.5040
  538SOL    HW2 2151   1.400  -0.003   2.937 -0.3376 -0.4249  1.0611
  538SOL     MW 2152   1.321   0.018   2.966  0.1045  0.2360 -0.0157
  539SOL     OW 2153   0.781   2.732   2.499 -0.0306  0.1414 -0.0680
  539SOL    HW1 2154   0.836   2.792   2.548  0.4875  0.1567 -1.5013
  539SOL    HW2 2155   0.831   2.656   2.502  0.4595  2.0335  1.4953
  539SOL     MW 2156   0.795   2.730   2.506  0.1025  0.3931 -0.0509
  540SOL     OW 2157   0.338   2.253   2.884  0.1030 -0.1497  0.5182
  540SOL    HW1 2158   0.428   2.276   2.913  0.4603 -2.4483  2.8936
  540SOL    HW2 2159   0.305   2.210   2.963  0.1842  0.8049 -0.4390
  540SOL     MW 2160   0.346   2.251   2.898  0.1608 -0.3270  0.7053
  541SOL     OW 2161   0.148   2.894   2.185 -0.1415  0.3903 -0.0313
  541SOL    HW1 2162   0.134   2.809   2.139  0.9310  0.4508  0.3932
  541SOL    HW2 2163   0.189   2.864   2.271  0.5682  1.0155  0.4586
  541SOL     MW 2164   0.151   2.879   2.190  0.0937  0.4808  0.0894
  542SOL     OW 2165   0.968   2.217   2.641  0.4492  0.5438 -0.8036
  542SOL    HW1 2166   0.924   2.158   2.706  0.3419 -3.7281  1.1463
  542SOL    HW2 2167   1.017   2.283   2.690  2.1035  0.9964 -0.6586
  542SOL     MW 2168   0.969   2.218   2.656  0.6533  0.0399 -0.5272
  543SOL     OW 2169   1.434   2.510   2.673 -0.1083 -0.2181  0.0567
  543SOL    HW1 2170   1.449   2.444   2.609  0.2561 -0.6334 -1.1751
  543SOL    HW2 2171   1.516   2.561   2.673  0.4387  1.8165  2.0003
  543SOL     MW 2172   1.447   2.508   2.665  0.0119 -0.0045  0.1506
  544SOL     OW 2173   0.570   0.220   2.729 -0.0554  0.0423 -0.0467
  544SOL    HW1 2174   0.484   0.164   2.737  0.2510 -0.3813 -0.5289
  544SOL    HW2 2175   0.624   0.189   2.656 -0.4759  1.2943 -0.2552
  544SOL     MW 2176   0.566   0.209   2.721 -0.0705  0.1516 -0.1378
  545SOL     OW 2177   1.503   2.164   2.253 -0.0658  0.2211  0.3106
  545SOL    HW1 2178   1.484   2.166   2.159 -0.2080 -0.1516 -0.4233
  545SOL    HW2 2179   1.597   2.128   2.249  1.0836 -0.7006 -2.8353
  545SOL     MW 2180   1.513   2.160   2.240  0.0671  0.0503 -0.2013
  546SOL     OW 2181   2.971   2.007   0.111 -0.0717  0.3243  0.1653
  546SOL    HW1 2182   2.974   2.084   0.059  1.5624  0.6913 -0.5998
  546SOL    HW2 2183   3.063   1.981   0.119  0.1711  4.7784  1.2266
  546SOL     MW 2184   2.983   2.014   0.105  0.1760  0.9604  0.2044
  547SOL     OW 2185   0.190   3.010   0.165  0.0341  0.1152  0.8522
  547SOL    HW1 2186   0.235   3.064   0.097  0.9566 -2.7791  1.7157
  547SOL    HW2 2187   0.219   2.920   0.143  0.0758 -1.8012  0.6883
  547SOL     MW 2188   0.200   3.005   0.153  0.1613 -0.5195  0.9445
  548SOL     OW 2189   0.316   2.530   0.276 -0.4619  0.1348  0.2923
  548SOL    HW1 2190   0.301   2.600   0.211  1.7255 -2.2885 -0.0813
  548SOL    HW2 2191   0.252   2.470   0.250  1.4355  2.2404 -0.6872
  548SOL     MW 2192   0.306   2.532   0.264  0.0770  0.0929  0.1138
  549SOL     OW 2193   0.709   1.890   2.084  0.1546 -0.1970 -0.2767
  549SOL    HW1 2194   0.715   1.975   2.046 -0.0662 -1.6537  2.7498
  549SOL    HW2 2195   0.734   1.911   2.170 -1.4515 -1.2264  0.1802
  549SOL     MW 2196   0.713   1.904   2.090 -0.0865 -0.5250  0.1829
  550SOL     OW 2197   1.842   1.768   2.537 -0.3378 -0.0342 -0.0139
  550SOL    HW1 2198   1.847   1.750   2.440  0.9456 -1.1593  0.8086
  550SOL    HW2 2199   1.865   1.860   2.557 -1.2323 -2.5623 -2.6756
  550SOL     MW 2200   1.846   1.778   2.527 -0.2865 -0.5162 -0.2566
  551SOL     OW 2201   0.871   2.342   0.195 -0.1233  0.1815 -0.2861
  551SOL    HW1 2202   0.963   2.356   0.213 -2.7856 -1.8570  0.2916
  551SOL    HW2 2203   0.876   2.249   0.166 -0.3750 -0.4646  0.9417
  551SOL     MW 2204   0.884   2.332   0.194 -0.5078 -0.1727 -0.0479
  552SOL     OW 2205   1.757   1.767   2.268 -0.9207 -0.4714 -0.4559
  552SOL    HW1 2206   1.662   1.740   2.280 -0.4635 -0.7577 -0.5203
  552SOL    HW2 2207   1.784   1.730   2.170  0.0613  0.8289 -4.2659
  552SOL     MW 2208   1.748   1.759   2.256 -0.7308 -0.3377 -0.9671
  553SOL     OW 2209   1.251   2.328   1.512 -0.3048 -0.2735 -0.3957
  553SOL    HW1 2210   1.257   2.231   1.506  3.0467  0.0453 -0.5812
  553SOL    HW2 2211   1.338   2.360   1.482  1.2576 -1.2067 -1.1407
  553SOL     MW 2212   1.263   2.320   1.507  0.3436 -0.3545 -0.5185
  554SOL     OW 2213   0.597   2.856   2.665 -0.2278  0.2078  0.3567
  554SOL    HW1 2214   0.549   2.924   2.608  1.4119  0.0289 -0.7499
  554SOL    HW2 2215   0.649   2.803   2.601 -0.4943 -0.2251  0.4942
  554SOL     MW 2216   0.598   2.858   2.649 -0.0466  0.1271  0.2288
  555SOL     OW 2217   0.587   2.457   2.589  0.3574  0.4777 -0.2737
  555SOL    HW1 2218   0.565   2.366   2.610 -2.2273 -0.3490  3.3666
  555SOL    HW2 2219   0.662   2.454   2.533  2.5987  3.9035 -1.7446
  555SOL     MW 2220   0.594   2.444   2.585  0.3121  0.8206  0.0125
  556SOL     OW 2221   0.944   1.812   0.169 -0.5152 -0.3620  0.1009
  556SOL    HW1 2222   0.974   1.804   0.078 -0.7037  1.9278 -1.0523
  556SOL    HW2 2223   1.036   1.821   0.206  1.6016 -2.3220 -1.6164
  556SOL     MW 2224   0.960   1.812   0.162 -0.2608 -0.3185 -0.2778
  557SOL     OW 2225   0.907   2.684   0.507  0.2887 -0.1447  0.4621
  557SOL    HW1 2226   0.945   2.636   0.431 -0.4276 -1.3382 -0.6418
  557SOL    HW2 2227   0.867   2.760   0.469 -0.3127  1.9625 -3.4340
  557SOL     MW 2228   0.907   2.687   0.492  0.1148 -0.0241 -0.1976
  558SOL     OW 2229   0.259   2.202   0.058 -0.1522  0.0631 -0.0271
  558SOL    HW1 2230   0.206   2.124   0.048  2.6371  0.0769 -1.2042
  558SOL    HW2 2231   0.212   2.273   0.100 -3.4010 -0.3695 -2.3402
  558SOL     MW 2232   0.246   2.201   0.062 -0.2128  0.0078 -0.4876
  559SOL     OW 2233   1.145   2.298   2.106 -0.5049  0.1645 -0.0918
  559SOL    HW1 2234   1.173   2.379   2.141  2.4594 -2.1495 -0.0350
  559SOL    HW2 2235   1.163   2.236   2.176  2.1069 -0.7651  2.2709
  559SOL     MW 2236   1.151   2.301   2.120  0.2308 -0.2635  0.2274
  560SOL     OW 2237   1.943   2.807   0.050 -0.4385  0.2644  0.5909
  560SOL    HW1 2238   1.979   2.858  -0.017 -2.4981 -1.5143 -1.9811
  560SOL    HW2 2239   1.881   2.750   0.004  0.3336 -1.7003  0.4002
  560SOL     MW 2240   1.940   2.806   0.035 -0.6083 -0.2295  0.2264
  561SOL     OW 2241   0.450   2.096   0.244  0.2930  0.9388  0.2302
  561SOL    HW1 2242   0.381   2.129   0.185 -0.7459 -0.0387  0.3184
  561SOL    HW2 2243   0.494   2.179   0.269 -0.6117 -4.1283 -4.5984
  561SOL     MW 2244   0.447   2.111   0.240  0.0366  0.1413 -0.3952
  562SOL     OW 2245   0.841   2.212   2.202 -0.7002 -0.1322  0.6856
  562SOL    HW1 2246   0.850   2.304   2.218  0.5536 -2.0819  1.0789
  562SOL    HW2 2247   0.925   2.177   2.227  0.3300 -1.4151  0.2319
  562SOL     MW 2248   0.853   2.219   2.207 -0.3988 -0.5587  0.6777
  563SOL     OW 2249   1.175   0.312   0.598 -0.5365  0.5369  0.2546
  563SOL    HW1 2250   1.120   0.288   0.523 -0.9451 -0.4827  0.3439
  563SOL    HW2 2251   1.212   0.224   0.612 -1.3795  0.6702  1.6857
  563SOL     MW 2252   1.172   0.297   0.590 -0.7016  0.4200  0.4552
  564SOL     OW 2253   1.094   2.540   2.347  0.0273 -0.1686 -0.5538
  564SOL    HW1 2254   1.119   2.582   2.259  1.2645  0.1768 -0.0652
  564SOL    HW2 2255   1.151   2.591   2.411 -0.7114 -0.6833  0.2338
  564SOL     MW 2256   1.105   2.552   2.344  0.0931 -0.1909 -0.3854
  565SOL     OW 2257   2.884   2.655   2.583 -0.1164 -0.4593  0.3556
  565SOL    HW1 2258   2.939   2.728   2.540  0.0544  0.0342 -3.0056
  565SOL    HW2 2259   2.808   2.643   2.526  2.8201  3.0737  0.8167
  565SOL     MW 2260   2.881   2.663   2.570  0.2936  0.0719 -0.0270
  566SOL     OW 2261   2.191   1.883   2.401 -0.7998 -0.1224  0.3181
  566SOL    HW1 2262   2.220   1.855   2.315 -2.3910 -3.6200  0.9328
  566SOL    HW2 2263   2.254   1.959   2.420  1.6851 -1.2042 -1.9369
  566SOL     MW 2264   2.203   1.890   2.392 -0.6819 -0.7266  0.1017
  567SOL     OW 2265   1.126   2.935   3.086  0.4590  0.6754 -0.8348
  567SOL    HW1 2266   1.185   3.007   3.073  0.0674 -1.8425  0.5967
  567SOL    HW2 2267   1.144   2.898   2.998  0.7805  0.2360 -1.8314
  567SOL     MW 2268   1.136   2.940   3.073  0.4497  0.2852 -0.7774
  568SOL     OW 2269   1.617   2.016   2.923 -0.6320  0.3460  0.3278
  568SOL    HW1 2270   1.660   2.086   2.973 -0.0080 -0.5088 -0.6053
  568SOL    HW2 2271   1.674   1.984   2.848  0.3305 -2.4492 -1.8112
  568SOL     MW 2272   1.630   2.021   2.919 -0.4227 -0.1356 -0.0775
  569SOL     OW 2273   0.224   2.213   2.431 -0.0127  0.2998  0.1365
  569SOL    HW1 2274   0.163   2.263   2.367 -0.8893  1.1392  0.3426
  569SOL    HW2 2275   0.216   2.260   2.517  0.2176 -0.6076 -0.3123
  569SOL     MW 2276   0.215   2.226   2.434 -0.0980  0.2908  0.1045
  570SOL     OW 2277   1.475   0.450   0.490  0.0061 -0.5024 -0.0984
  570SOL    HW1 2278   1.396   0.413   0.530  0.8919  2.0522  0.8004
  570SOL    HW2 2279   1.543   0.453   0.565  3.1708 -1.9723 -1.6015
  570SOL     MW 2280   1.474   0.446   0.505  0.5405 -0.3593 -0.1781
  571SOL     OW 2281   1.491   2.428   1.999 -0.1336 -0.0120 -0.0583
  571SOL    HW1 2282   1.561   2.417   2.059 -0.1271  1.0068 -0.1660
  571SOL    HW2 2283   1.472   2.341   1.962  1.1910  0.9516  0.7409
  571SOL     MW 2284   1.497   2.415   2.002  0.0420  0.2496  0.0330
  572SOL     OW 2285   0.914   2.667   0.071  0.5883 -0.2445 -0.1160
  572SOL    HW1 2286   0.928   2.709  -0.015 -2.2623  0.8186 -1.8556
  572SOL    HW2 2287   0.836   2.613   0.056  0.5955 -1.5167 -0.7807
  572SOL     MW 2288   0.906   2.665   0.058  0.2131 -0.2721 -0.4332
  573SOL     OW 2289   1.145   2.366   0.250  0.2322  0.2406  0.3859
  573SOL    HW1 2290   1.236   2.377   0.206 -1.3815  0.2937  1.0976
  573SOL    HW2 2291   1.130   2.456   0.293 -1.7238  2.0012  1.0395
  573SOL     MW 2292   1.155   2.379   0.250 -0.2388  0.4799  0.5660
  574SOL     OW 2293   1.060   2.610   0.298 -0.4097 -0.2354 -0.0234
  574SOL    HW1 2294   1.146   2.665   0.292  0.7866  0.7504 -2.9251
  574SOL    HW2 2295   1.007   2.642   0.224 -1.1775 -1.5580  0.3008
  574SOL     MW 2296   1.065   2.621   0.287 -0.3532 -0.2799 -0.3635
  575SOL     OW 2297   3.075   2.292   1.795  0.0091  0.3798  0.0796
  575SOL    HW1 2298   3.065   2.217   1.740  1.3986 -0.4127 -0.8145
  575SOL    HW2 2299   3.151   2.346   1.767 -0.8005 -0.0540 -0.2881
  575SOL     MW 2300   3.084   2.290   1.784  0.0856  0.2180 -0.0869
  576SOL     OW 2301   2.811   1.842   2.015 -0.2157 -0.4079 -0.1944
  576SOL    HW1 2302   2.851   1.920   1.969  2.1961  0.0711 -0.8519
  576SOL    HW2 2303   2.725   1.817   1.976 -0.8502 -2.8165  0.7549
  576SOL     MW 2304   2.805   1.849   2.004  0.0188 -0.6625 -0.1559
  577SOL     OW 2305   2.100   0.313   0.076  0.4624 -0.0049  0.0356
  577SOL    HW1 2306   2.024   0.326   0.019  1.5721 -0.2471  0.3161
  577SOL    HW2 2307   2.074   0.243   0.136  3.3180 -2.3351  3.4931
  577SOL     MW 2308   2.087   0.306   0.076  0.9856 -0.3443  0.5288
  578SOL     OW 2309   1.975   2.014   2.473 -0.5329  0.1308 -0.4182
  578SOL    HW1 2310   1.931   2.064   2.400 -0.7842 -0.8303  0.2812
  578SOL    HW2 2311   2.039   1.954   2.434 -0.4205  1.0326  0.4473
  578SOL     MW 2312   1.978   2.012   2.458 -0.5513  0.1230 -0.2117
  579SOL     OW 2313   0.885   2.464   2.492 -0.5620  0.3640  0.1254
  579SOL    HW1 2314   0.909   2.394   2.551  0.4349  1.1606  0.0633
  579SOL    HW2 2315   0.970   2.504   2.461  1.0712 -1.3554  0.4426
  579SOL     MW 2316   0.899   2.460   2.496 -0.2150  0.2422  0.1591
  580SOL     OW 2317   0.866   2.980   0.033 -0.0632  0.4139 -0.4555
  580SOL    HW1 2318   0.960   2.949   0.048  1.5253 -0.2339 -2.7002
  580SOL    HW2 2319   0.824   2.942  -0.048 -1.2208 -0.4154 -0.8854
  580SOL     MW 2320   0.873   2.971   0.024 -0.0064  0.2190 -0.8084
  581SOL     OW 2321   1.112   2.431   1.749  0.3512  0.3726  0.5337
  581SOL    HW1 2322   1.182   2.472   1.804  2.6292 -2.1322 -0.3906
  581SOL    HW2 2323   1.160   2.392   1.674 -0.2431  2.8883  0.3262
  581SOL     MW 2324   1.128   2.431   1.746  0.5733  0.3740  0.3843
  582SOL     OW 2325   3.088   2.830   2.511  0.5119  0.9009  0.1700
  582SOL    HW1 2326   3.052   2.915   2.551  0.5946  0.8896  0.9053
  582SOL    HW2 2327   3.178   2.851   2.522 -0.3618 -0.2618  0.7420
  582SOL     MW 2328   3.095   2.844   2.518  0.4075  0.7460  0.3425
  583SOL     OW 2329   1.942   2.424   2.646  0.4355 -0.6463  0.5205
  583SOL    HW1 2330   2.030   2.451   2.623 -0.8396  1.6471 -0.4727
  583SOL    HW2 2331   1.965   2.328   2.664 -0.6020  0.2473 -0.8494
  583SOL     MW 2332   1.956   2.415   2.645  0.1304 -0.2258  0.2087
  584SOL     OW 2333   0.208   1.895   2.042  0.1808  0.3303  0.0187
  584SOL    HW1 2334   0.301   1.874   2.022  2.8267 -1.5723  2.0288
  584SOL    HW2 2335   0.208   1.936   2.125  0.4069 -3.5279  2.8371
  584SOL     MW 2336   0.220   1.897   2.051  0.5597 -0.4298  0.6558
  585SOL     OW 2337   1.465   2.673   0.068 -0.1827  0.0144  0.6866
  585SOL    HW1 2338   1.417   2.646  -0.008 -1.4635 -2.4170 -1.5038
  585SOL    HW2 2339   1.396   2.693   0.133 -0.8348 -0.1860 -2.9245
  585SOL     MW 2340   1.450   2.672   0.066 -0.4377 -0.3328 -0.0789
  586SOL     OW 2341   1.376   2.831   2.422  0.1053 -0.0829  0.7352
  586SOL    HW1 2342   1.431   2.796   2.349  0.8382 -0.1089 -0.0090
  586SOL    HW2 2343   1.396   2.917   2.440  0.6620 -1.5689  2.9328
  586SOL     MW 2344   1.386   2.837   2.414  0.2754 -0.2824  0.9270
  587SOL     OW 2345   1.284   1.568   2.135  0.1207  0.3764  0.1815
  587SOL    HW1 2346   1.294   1.490   2.197 -0.8675 -1.5320 -0.4046
  587SOL    HW2 2347   1.247   1.536   2.048 -0.2104  2.9098  1.5702
  587SOL     MW 2348   1.280   1.553   2.131 -0.0534  0.4588  0.2874
  588SOL     OW 2349   1.410   2.165   2.748  0.0885 -0.2130  0.5010
  588SOL    HW1 2350   1.480   2.145   2.808  1.2084 -2.3908 -0.4266
  588SOL    HW2 2351   1.337   2.193   2.801 -2.9121  0.4820 -2.0372
  588SOL     MW 2352   1.409   2.166   2.763 -0.1596 -0.4086  0.0437
  589SOL     OW 2353   1.343   2.103   0.069 -0.8675 -0.4393  0.1666
  589SOL    HW1 2354   1.375   2.190   0.093 -0.3964 -1.2992 -0.5138
  589SOL    HW2 2355   1.293   2.060   0.140  0.9987 -1.6331 -0.0310
  589SOL     MW 2356   1.341   2.109   0.082 -0.5591 -0.7102  0.0508
  590SOL     OW 2357   0.420   2.565   2.278  0.0251  0.7185 -0.2291
  590SOL    HW1 2358   0.391   2.542   2.184 -0.3330 -1.8699  0.2565
  590SOL    HW2 2359   0.490   2.630   2.268 -0.0672  0.7651 -1.1805
  590SOL     MW 2360   0.425   2.571   2.264 -0.0343  0.3831 -0.2906
  591SOL     OW 2361   2.282   0.709   3.102 -0.2064  0.6106 -0.8431
  591SOL    HW1 2362   2.227   0.731   3.032 -1.7525  0.8653 -1.0950
  591SOL    HW2 2363   2.369   0.719   3.070 -1.7770  0.6718  2.8651
  591SOL     MW 2364   2.286   0.713   3.089 -0.6176  0.6523 -0.3871
  592SOL     OW 2365   1.855   2.979   0.800 -0.4849 -0.7386  0.8485
  592SOL    HW1 2366   1.864   3.037   0.726 -1.0865 -1.9531  0.3959
  592SOL    HW2 2367   1.921   2.910   0.781 -2.8232  0.9556 -0.6820
  592SOL     MW 2368   1.865   2.977   0.787 -0.8728 -0.6753  0.5869
  593SOL     OW 2369   1.913   0.757   0.854 -0.1913 -0.3862  0.1076
  593SOL    HW1 2370   1.836   0.770   0.802 -0.1665 -1.4067 -1.7443
  593SOL    HW2 2371   1.922   0.662   0.844 -0.9142 -0.6534 -0.5454
  593SOL     MW 2372   1.904   0.746   0.846 -0.2834 -0.5561 -0.2229
  594SOL     OW 2373   2.764   1.151   1.400 -0.0158  0.1679 -0.2451
  594SOL    HW1 2374   2.855   1.186   1.408 -0.7912  0.9848 -0.2298
  594SOL    HW2 2375   2.769   1.114   1.313 -1.5874  2.6295 -1.1646
  594SOL     MW 2376   2.777   1.151   1.390 -0.3255  0.6005 -0.3644
  595SOL     OW 2377   0.493   0.930   0.738  0.3444 -0.0606  0.2472
  595SOL    HW1 2378   0.518   0.987   0.663 -1.5982  0.7249  1.7737
  595SOL    HW2 2379   0.508   0.986   0.815  0.2531 -0.2091  1.7495
  595SOL     MW 2380   0.498   0.944   0.738  0.0760  0.0235  0.6468
  596SOL     OW 2381   2.475   1.357   0.509  0.7567 -0.5089 -0.4254
  596SOL    HW1 2382   2.495   1.447   0.482  1.0461 -2.8342  2.5134
  596SOL    HW2 2383   2.529   1.348   0.586 -0.1916 -0.3462 -1.6877
  596SOL     MW 2384   2.485   1.368   0.516  0.6698 -0.7943 -0.2042
  597SOL     OW 2385   2.182   0.680   1.618 -0.1016  0.2905 -0.5144
  597SOL    HW1 2386   2.209   0.641   1.702 -0.3022 -0.1358 -2.4086
  597SOL    HW2 2387   2.107   0.627   1.581 -0.7567 -1.3997  0.0873
  597SOL     MW 2388   2.176   0.668   1.624 -0.2145  0.0113 -0.6850
  598SOL     OW 2389   2.607   1.001   2.904 -0.2856 -0.7491 -0.1612
  598SOL    HW1 2390   2.636   0.981   2.816 -3.9185  2.3151  2.1658
  598SOL    HW2 2391   2.674   1.066   2.927  0.2955  2.7571  0.6871
  598SOL     MW 2392   2.619   1.007   2.895 -0.6883  0.1178  0.2577
  599SOL     OW 2393   2.918   0.390   2.079 -0.3095  0.6139  0.2197
  599SOL    HW1 2394   2.898   0.412   2.170 -2.1871  0.6250 -1.5266
  599SOL    HW2 2395   2.958   0.471   2.032  0.0563  1.5987 -0.3152
  599SOL     MW 2396   2.921   0.403   2.085 -0.5090  0.7453 -0.0813
  600SOL     OW 2397   1.902   1.766   0.883  0.1555  0.1042 -0.1477
  600SOL    HW1 2398   1.939   1.785   0.972  1.1338 -1.8401  1.1230
  600SOL    HW2 2399   1.806   1.788   0.888  2.0362 -0.0699 -2.0957
  600SOL     MW 2400   1.894   1.771   0.895  0.5327 -0.1753 -0.2370
  601SOL     OW 2401   2.515   0.801   0.826 -0.0611  0.2472  0.2402
  601SOL    HW1 2402   2.528   0.797   0.925 -0.4085 -0.3244  1.8513
  601SOL    HW2 2403   2.452   0.722   0.810 -2.0443 -0.1769  2.6328
  601SOL     MW 2404   2.508   0.790   0.837 -0.3686  0.1159  0.7685
  602SOL     OW 2405   2.311   1.956   0.838  0.2397  0.8106  0.0460
  602SOL    HW1 2406   2.285   1.870   0.877  0.9250 -0.9760  0.3107
  602SOL    HW2 2407   2.227   1.995   0.809 -3.0372  0.1916  0.1452
  602SOL     MW 2408   2.296   1.950   0.839 -0.1022  0.4932  0.0940
  603SOL     OW 2409   3.097   1.381   1.788 -0.6421 -0.2292  0.1915
  603SOL    HW1 2410   3.114   1.424   1.875  1.8439  0.6023 -0.6542
  603SOL    HW2 2411   3.041   1.312   1.814  0.8980 -0.1914  1.6102
  603SOL     MW 2412   3.092   1.378   1.803 -0.1109 -0.1145  0.2671
  604SOL     OW 2413   2.100   1.558   0.459  0.0124 -0.3798  0.1989
  604SOL    HW1 2414   2.134   1.477   0.494  0.9356  2.0776  0.7046
  604SOL    HW2 2415   2.031   1.596   0.517  3.0791 -0.6470 -3.1338
  604SOL     MW 2416   2.095   1.552   0.471  0.5388 -0.0908 -0.1741
  605SOL     OW 2417   2.651   1.531   0.848  0.1601 -0.1405 -0.2121
  605SOL    HW1 2418   2.594   1.606   0.825 -1.4845 -1.4711 -1.1071
  605SOL    HW2 2419   2.601   1.452   0.821 -1.4306  0.5141  1.1235
  605SOL     MW 2420   2.637   1.531   0.841 -0.2667 -0.2297 -0.1540
  606SOL     OW 2421   2.579   1.836   1.886 -0.1018  0.8122  0.7503
  606SOL    HW1 2422   2.489   1.822   1.912  0.5923  0.2017  1.2326
  606SOL    HW2 2423   2.596   1.741   1.868 -0.5144  0.1046  1.7223
  606SOL     MW 2424   2.570   1.822   1.887 -0.0646  0.6383  0.9422
  607SOL     OW 2425   2.370   1.035   3.039 -0.4375  0.2423  0.8901
  607SOL    HW1 2426   2.458   1.013   3.004 -1.6498  0.2083 -2.4314
  607SOL    HW2 2427   2.380   1.028   3.140 -1.6626  3.2960  0.1918
  607SOL     MW 2428   2.383   1.031   3.048 -0.7591  0.6407  0.3597
  608SOL     OW 2429   1.915   0.304   0.606 -0.3613 -0.3798  0.4767
  608SOL    HW1 2430   1.937   0.337   0.517  3.9995 -1.5265  0.6885
  608SOL    HW2 2431   1.856   0.228   0.588 -0.5536  2.9725 -0.6549
  608SOL     MW 2432   1.910   0.298   0.592  0.1887 -0.0888  0.3554
  609SOL     OW 2433   2.099   1.972   3.045 -0.2430  0.5179 -0.2121
  609SOL    HW1 2434   2.024   1.912   3.029 -1.3142  1.3473  0.9283
  609SOL    HW2 2435   2.152   1.940   3.121 -2.5023  0.1515  1.2974
  609SOL     MW 2436   2.096   1.960   3.053 -0.6824  0.5790  0.1375
  610SOL     OW 2437   1.790   1.030   1.237  0.1314 -0.3026  0.3249
  610SOL    HW1 2438   1.792   0.959   1.173  1.1408  3.8009 -1.4432
  610SOL    HW2 2439   1.695   1.036   1.267 -1.0505 -0.6472 -0.5941
  610SOL     MW 2440   1.778   1.021   1.233  0.1086  0.1934 -0.0297
  611SOL     OW 2441   2.490   1.731   0.703  0.3953  0.9527 -0.3930
  611SOL    HW1 2442   2.428   1.799   0.683 -0.3870 -1.6237  2.1312
  611SOL    HW2 2443   2.555   1.723   0.637 -1.4917 -2.2335  2.2274
  611SOL     MW 2444   2.490   1.739   0.692  0.0431  0.1924  0.2858
  612SOL     OW 2445   2.807   2.841   0.405  0.0569  0.1779 -0.0023
  612SOL    HW1 2446   2.861   2.858   0.486  1.0210 -0.7034 -0.4539
  612SOL    HW2 2447   2.875   2.817   0.342  0.7356  0.9835 -1.2493
  612SOL     MW 2448   2.823   2.840   0.408  0.2737  0.1680 -0.2264
  613SOL     OW 2449   1.482   0.984   0.962  0.0851  0.1560 -0.6012
  613SOL    HW1 2450   1.540   1.058   0.963  0.2084 -1.5311 -0.1998
  613SOL    HW2 2451   1.460   0.971   1.060  0.3507 -0.4131  0.3161
  613SOL     MW 2452   1.487   0.992   0.975  0.1364 -0.1417 -0.4272
  614SOL     OW 2453   1.970   0.544   1.509 -0.2516 -0.1474 -0.5727
  614SOL    HW1 2454   1.973   0.457   1.556  1.1168 -0.1796  1.5934
  614SOL    HW2 2455   1.991   0.512   1.421 -0.1413 -0.6899 -0.8916
  614SOL     MW 2456   1.973   0.528   1.504 -0.0565 -0.2232 -0.3290
  615SOL     OW 2457   2.333   0.748   0.286  0.9722  0.3186 -0.0235
  615SOL    HW1 2458   2.406   0.707   0.331 -0.4510 -0.9292  2.0292
  615SOL    HW2 2459   2.327   0.700   0.201  2.7143 -0.1737  0.2191
  615SOL     MW 2460   2.342   0.736   0.281  1.0143  0.0890  0.2793
  616SOL     OW 2461   2.533   0.390   1.583 -0.0111  0.5602  0.0653
  616SOL    HW1 2462   2.493   0.319   1.534 -0.3959  2.5099  1.2826
  616SOL    HW2 2463   2.549   0.465   1.527 -0.5992  1.1858  1.9809
  616SOL     MW 2464   2.530   0.390   1.569 -0.1395  0.9000  0.4787
  617SOL     OW 2465   2.931   0.567   1.731  0.3087 -0.2109  0.0625
  617SOL    HW1 2466   2.834   0.572   1.752 -0.3796  0.3288  0.2823
  617SOL    HW2 2467   2.939   0.499   1.668  0.7177  0.7058 -0.2038
  617SOL     MW 2468   2.920   0.558   1.725  0.2718 -0.0187  0.0564
  618SOL     OW 2469   2.669   0.321   1.977  0.4728 -0.0861 -0.3234
  618SOL    HW1 2470   2.644   0.400   1.927 -0.2987  2.2171  1.4842
  618SOL    HW2 2471   2.757   0.345   2.016  0.1636 -1.8810 -1.0583
  618SOL     MW 2472   2.677   0.334   1.976  0.3302 -0.0190 -0.1819
  619SOL     OW 2473   2.665   0.688   0.142  0.1997 -0.4232 -0.0225
  619SOL    HW1 2474   2.707   0.758   0.186 -1.0335 -2.0474 -0.8112
  619SOL    HW2 2475   2.617   0.633   0.205 -1.2476 -1.5900  0.1193
  619SOL     MW 2476   2.664   0.690   0.156 -0.1540 -0.7914 -0.1078
  620SOL     OW 2477   2.332   1.038   0.985  0.1818 -0.3870 -0.7236
  620SOL    HW1 2478   2.403   1.070   0.929  0.2591  0.1208  1.4935
  620SOL    HW2 2479   2.282   0.966   0.940 -0.1444 -0.2426 -1.8681
  620SOL     MW 2480   2.335   1.033   0.972  0.1489 -0.3009 -0.5821
  621SOL     OW 2481   1.459   2.152   1.976  0.0301 -0.2209 -1.1010
  621SOL    HW1 2482   1.389   2.097   1.998  0.4286  2.4725 -0.5670
  621SOL    HW2 2483   1.539   2.103   1.978  1.7480  0.4866 -0.3779
  621SOL     MW 2484   1.460   2.138   1.979  0.3093  0.2278 -0.9351
  622SOL     OW 2485   2.598   0.161   0.277 -0.1043  0.1924 -0.2548
  622SOL    HW1 2486   2.683   0.202   0.254 -0.2133  1.8308  1.8790
  622SOL    HW2 2487   2.602   0.071   0.314 -1.5626  0.3876  0.3126
  622SOL     MW 2488   2.610   0.155   0.279 -0.3111  0.4343  0.1016
  623SOL     OW 2489   2.344   2.784   0.873 -0.2009  0.6004 -0.2941
  623SOL    HW1 2490   2.410   2.853   0.879  1.5058  1.1488 -2.0075
  623SOL    HW2 2491   2.280   2.793   0.945  1.8523  0.5000 -0.7924
  623SOL     MW 2492   2.344   2.794   0.883  0.2952  0.6595 -0.5859
  624SOL     OW 2493   2.204   1.680   3.007 -0.0214  0.0333  0.1711
  624SOL    HW1 2494   2.161   1.591   3.014 -1.9301 -0.1665 -0.8319
  624SOL    HW2 2495   2.139   1.750   2.985  0.8703 -1.2597  0.8299
  624SOL     MW 2496   2.190   1.677   3.005 -0.1556 -0.1637  0.1257
  625SOL     OW 2497   2.192   2.029   1.127  0.1272  0.2987  0.2057
  625SOL    HW1 2498   2.276   1.989   1.098  0.9549  0.6879  1.7360
  625SOL    HW2 2499   2.188   2.099   1.064 -3.2470 -0.9252  0.1371
  625SOL     MW 2500   2.202   2.033   1.115 -0.2088  0.1885  0.3986
  626SOL     OW 2501   0.213   1.566   2.344  0.3519  0.4985  0.2697
  626SOL    HW1 2502   0.189   1.473   2.322  1.7172  0.8996  4.0054
  626SOL    HW2 2503   0.140   1.595   2.406 -1.5202  1.5796 -0.8780
  626SOL     MW 2504   0.201   1.558   2.350  0.2850  0.6941  0.6112
  627SOL     OW 2505   2.457   0.798   2.637 -0.2578 -0.0368  0.0619
  627SOL    HW1 2506   2.423   0.885   2.618  1.3598  0.3391 -1.6215
  627SOL    HW2 2507   2.441   0.754   2.548 -2.8037 -2.9872 -0.4323
  627SOL     MW 2508   2.450   0.803   2.622 -0.3803 -0.3765 -0.2254
  628SOL     OW 2509   2.238   1.348   1.384  0.5166  0.2200 -0.2946
  628SOL    HW1 2510   2.197   1.302   1.309 -1.6342  0.2769 -0.8022
  628SOL    HW2 2511   2.333   1.346   1.374 -2.2123  0.7989 -1.6980
  628SOL     MW 2512   2.245   1.342   1.373 -0.1272  0.3039 -0.5467
  629SOL     OW 2513   1.942   0.546   1.237 -0.4669  0.0850  0.1439
  629SOL    HW1 2514   1.984   0.630   1.215 -1.8561  0.3882 -2.7464
  629SOL    HW2 2515   1.854   0.564   1.261 -0.9775 -2.2101  1.4717
  629SOL     MW 2516   1.936   0.559   1.237 -0.7176 -0.1778 -0.0623
  630SOL     OW 2517   2.435   1.819   3.079 -0.1488 -0.0358 -0.0765
  630SOL    HW1 2518   2.462   1.890   3.020  0.3019 -2.5391  1.8130
  630SOL    HW2 2519   2.345   1.811   3.061 -0.3470  2.1310  2.2196
  630SOL     MW 2520   2.427   1.828   3.069 -0.1155 -0.0802  0.4757
  631SOL     OW 2521   1.956   1.826   1.574 -0.3619  0.1228  0.1638
  631SOL    HW1 2522   1.989   1.746   1.622  1.0444  0.4174  1.3364
  631SOL    HW2 2523   1.933   1.793   1.488  0.9837  0.8611  1.5447
  631SOL     MW 2524   1.957   1.811   1.569  0.0012  0.2591  0.5007
  632SOL     OW 2525   0.103   2.035   1.477  0.5491  0.0375 -0.2496
  632SOL    HW1 2526   0.058   2.054   1.560 -0.1166  0.6035  1.6668
  632SOL    HW2 2527   0.148   1.949   1.491 -2.8356  2.1865  0.2319
  632SOL     MW 2528   0.103   2.026   1.490  0.0147  0.3957  0.0668
  633SOL     OW 2529   2.555   0.610   0.393  0.5378 -0.5493 -0.2878
  633SOL    HW1 2530   2.646   0.608   0.409  0.4662  1.7402 -2.2728
  633SOL    HW2 2531   2.523   0.548   0.462 -1.3036 -0.8649  1.7075
  633SOL     MW 2532   2.563   0.602   0.404  0.2854 -0.2889 -0.2864
  634SOL     OW 2533   2.664   3.034   0.635  0.2110  0.1365 -0.7505
  634SOL    HW1 2534   2.700   3.128   0.630  2.5263  2.1242 -0.3528
  634SOL    HW2 2535   2.643   3.011   0.544 -1.8977  0.4917  0.3119
  634SOL     MW 2536   2.666   3.044   0.622  0.2383  0.4456 -0.5579
  635SOL     OW 2537   2.603   0.067   1.867  0.1318 -0.1606 -0.0105
  635SOL    HW1 2538   2.655   0.042   1.793 -1.3007  1.4616  0.9354
  635SOL    HW2 2539   2.639   0.156   1.904  4.1449  0.7884  1.5853
  635SOL     MW 2540   2.615   0.075   1.862  0.4723  0.1786  0.3249
  636SOL     OW 2541   2.947   1.714   1.092  0.5391 -0.6180  0.2137
  636SOL    HW1 2542   2.875   1.765   1.121  0.7522 -2.0841  2.4810
  636SOL    HW2 2543   3.024   1.765   1.116  0.6380  1.7671 -0.9147
  636SOL     MW 2544   2.947   1.727   1.099  0.5803 -0.4967  0.3640
  637SOL     OW 2545   2.907   1.492   0.629  0.0766  0.1337  0.2991
  637SOL    HW1 2546   2.957   1.573   0.626 -0.6082 -0.5347 -0.5915
  637SOL    HW2 2547   2.856   1.503   0.709 -1.3309  1.8899  0.5973
  637SOL     MW 2548   2.907   1.504   0.640 -0.1995  0.2772  0.2209
  638SOL     OW 2549   2.780   0.514   0.535  0.5361  0.0040  0.3191
  638SOL    HW1 2550   2.861   0.535   0.492  0.4639 -3.4934 -1.0287
  638SOL    HW2 2551   2.783   0.565   0.612  1.5874 -1.8075 -0.8778
  638SOL     MW 2552   2.791   0.524   0.540  0.6652 -0.6964 -0.0166
  639SOL     OW 2553   1.770   0.057   0.568 -0.1359  0.3374 -0.1337
  639SOL    HW1 2554   1.680   0.101   0.561 -1.7831 -0.1230  1.0510
  639SOL    HW2 2555   1.751  -0.021   0.513  0.8007  0.1138 -1.0451
  639SOL     MW 2556   1.755   0.053   0.560 -0.2296  0.2471 -0.0976
  640SOL     OW 2557   0.374   1.363   0.070  0.0548 -0.3479  0.3033
  640SOL    HW1 2558   0.383   1.361  -0.026 -1.4334  0.1645  0.5586
  640SOL    HW2 2559   0.319   1.279   0.076 -0.1351 -0.7760  2.3422
  640SOL     MW 2560   0.368   1.351   0.058 -0.1666 -0.3368  0.6060
  641SOL     OW 2561   2.245   0.429   0.367 -0.0803 -0.0585 -0.0480
  641SOL    HW1 2562   2.291   0.479   0.303  1.5437  1.2993  1.5502
  641SOL    HW2 2563   2.263   0.338   0.342 -0.1641  1.7247 -0.6883
  641SOL     MW 2564   2.253   0.424   0.356  0.1229  0.3559  0.0784
  642SOL     OW 2565   0.029   0.001   0.603  0.4077  0.2595  0.0057
  642SOL    HW1 2566  -0.009   0.069   0.547  1.5573 -0.9799 -1.0477
  642SOL    HW2 2567  -0.040  -0.061   0.616 -1.7374  2.6771  0.1690
  642SOL     MW 2568   0.015   0.002   0.597  0.2764  0.4149 -0.1117
  643SOL     OW 2569   2.099   0.314   1.705  0.3775  0.1076 -0.1038
  643SOL    HW1 2570   2.064   0.274   1.781  0.4509 -2.9470 -2.3951
  643SOL    HW2 2571   2.089   0.255   1.632 -1.4929 -0.4172  0.3769
  643SOL     MW 2572   2.093   0.301   1.705  0.1404 -0.3646 -0.3427
  644SOL     OW 2573   2.740   1.964   1.062  0.4864  0.2282 -0.2528
  644SOL    HW1 2574   2.721   1.921   1.150  0.4746 -0.5227  0.2291
  644SOL    HW2 2575   2.668   2.028   1.052 -1.8295  1.0047 -0.3492
  644SOL     MW 2576   2.728   1.967   1.072  0.1793  0.2316 -0.2019
  645SOL     OW 2577   2.835   0.864   0.685  0.2971  0.1821 -0.3134
  645SOL    HW1 2578   2.928   0.860   0.693 -0.6653 -0.9923  1.0832
  645SOL    HW2 2579   2.804   0.780   0.717 -0.0505 -0.0179  1.0212
  645SOL     MW 2580   2.843   0.853   0.690  0.1242  0.0008  0.0469
  646SOL     OW 2581   0.177   2.288   0.770 -0.7215  0.3954 -0.1176
  646SOL    HW1 2582   0.222   2.203   0.790  2.7166 -3.8582  0.0165
  646SOL    HW2 2583   0.095   2.280   0.718  1.5495  0.5249 -0.9395
  646SOL     MW 2584   0.172   2.276   0.766  0.0318 -0.1488 -0.2084
  647SOL     OW 2585   2.709   0.507   2.977 -0.1697  0.0758  0.2624
  647SOL    HW1 2586   2.674   0.445   3.045 -2.3897 -0.0853 -0.8442
  647SOL    HW2 2587   2.664   0.594   2.993  0.0911 -2.2364 -0.0091
  647SOL     MW 2588   2.699   0.510   2.988 -0.4282 -0.2505  0.0805
  648SOL     OW 2589   2.134   0.724   1.099 -0.3058  0.0659 -0.2764
  648SOL    HW1 2590   2.157   0.786   1.030 -0.0665  1.9440 -0.7986
  648SOL    HW2 2591   2.160   0.772   1.179  0.9441 -0.2388  2.7621
  648SOL     MW 2592   2.141   0.739   1.101 -0.1093  0.2735  0.0556
  649SOL     OW 2593   2.320   2.748   1.293 -0.8897 -0.0471  0.0026
  649SOL    HW1 2594   2.400   2.804   1.312  0.7477 -2.0932  1.1029
  649SOL    HW2 2595   2.349   2.657   1.265  0.2493 -1.1511  2.6548
  649SOL     MW 2596   2.335   2.743   1.292 -0.5233 -0.4627  0.4977
  650SOL     OW 2597   2.810   0.167   0.668 -0.2984  0.1639  0.1756
  650SOL    HW1 2598   2.812   0.253   0.710 -2.0368 -0.7682 -0.8290
  650SOL    HW2 2599   2.887   0.163   0.613 -1.0268  0.1043 -0.7167
  650SOL     MW 2600   2.821   0.178   0.666 -0.6239  0.0330 -0.0747
  651SOL     OW 2601   2.991   0.417   0.752 -0.3358 -0.4358 -0.1455
  651SOL    HW1 2602   3.077   0.441   0.729  0.5733  1.5423 -0.0342
  651SOL    HW2 2603   2.965   0.501   0.793 -0.7089 -0.7783  0.7493
  651SOL     MW 2604   2.999   0.431   0.754 -0.2651 -0.2200 -0.0128
  652SOL     OW 2605   2.406   1.499   3.021  0.0873  0.5123 -0.0032
  652SOL    HW1 2606   2.475   1.528   2.963  0.8748  0.7798 -2.1052
  652SOL    HW2 2607   2.359   1.577   3.032  0.2154  0.2967 -1.6737
  652SOL     MW 2608   2.409   1.513   3.015  0.2081  0.5192 -0.5009
  653SOL     OW 2609   1.925   0.451   0.358 -0.5875 -0.1379  0.0497
  653SOL    HW1 2610   1.884   0.398   0.295 -1.8872  1.1470  0.7398
  653SOL    HW2 2611   2.008   0.467   0.315  1.6087  0.1962 -1.9944
  653SOL     MW 2612   1.931   0.446   0.344 -0.4692  0.0757 -0.1290
  654SOL     OW 2613   2.452   1.068   0.742 -0.2799 -0.1086  0.7967
  654SOL    HW1 2614   2.386   1.045   0.676  2.7438 -1.2432 -2.2954
  654SOL    HW2 2615   2.470   0.975   0.773 -0.5496 -0.2385 -0.0216
  654SOL     MW 2616   2.446   1.053   0.738  0.0834 -0.2754  0.2807
  655SOL     OW 2617   2.957   0.883   0.396 -0.3820 -0.2919  0.0879
  655SOL    HW1 2618   2.889   0.907   0.461  0.4301  0.2528  1.0883
  655SOL    HW2 2619   2.960   0.785   0.394  1.9495  0.0366  0.4789
  655SOL     MW 2620   2.948   0.873   0.405  0.0327 -0.1767  0.2715
  656SOL     OW 2621   1.936   2.735   1.261 -0.4024  0.2077  0.8898
  656SOL    HW1 2622   1.914   2.826   1.286 -1.3589  2.5018 -1.0047
  656SOL    HW2 2623   1.975   2.692   1.334 -0.4484  2.0357 -0.2126
  656SOL     MW 2624   1.939   2.741   1.274 -0.5347  0.7516  0.4944
  657SOL     OW 2625   0.162   1.619   1.300  0.0185  0.5395 -0.1035
  657SOL    HW1 2626   0.090   1.669   1.261  1.7049  1.6626  1.0043
  657SOL    HW2 2627   0.151   1.527   1.272  0.2084  0.2028  0.8961
  657SOL     MW 2628   0.151   1.613   1.292  0.2661  0.6433  0.1746
  658SOL     OW 2629   2.691   1.306   0.199 -0.1747 -0.3610  0.4157
  658SOL    HW1 2630   2.644   1.243   0.256  2.5129 -0.5233  1.3264
  658SOL    HW2 2631   2.726   1.367   0.264 -1.8335 -0.1041 -0.5306
  658SOL     MW 2632   2.689   1.306   0.215 -0.0390 -0.3485  0.4110
  659SOL     OW 2633   2.288   1.503   1.054 -0.1052 -0.6501  0.3232
  659SOL    HW1 2634   2.381   1.508   1.050 -2.4693  0.3859  2.3589
  659SOL    HW2 2635   2.274   1.535   1.143 -5.0113  2.5645 -0.1896
  659SOL     MW 2636   2.299   1.508   1.066 -1.0644 -0.0893  0.5241
  660SOL     OW 2637   2.039   1.588   1.693  0.2913 -0.0736  0.2187
  660SOL    HW1 2638   2.043   1.601   1.787 -0.9431 -0.2991 -2.7038
  660SOL    HW2 2639   1.988   1.506   1.678 -1.4448  1.8329  1.7970
  660SOL     MW 2640   2.033   1.579   1.703 -0.1006  0.1482  0.0414
  661SOL     OW 2641   2.369   1.010   0.194  0.1856 -0.3564  0.2284
  661SOL    HW1 2642   2.442   1.043   0.256  0.1056  0.2902  0.4869
  661SOL    HW2 2643   2.354   0.920   0.228  0.9550 -0.4317 -2.5785
  661SOL     MW 2644   2.376   1.003   0.206  0.2766 -0.2810 -0.1078
  662SOL     OW 2645   2.577   2.974   0.888  0.9841  0.2251  0.4867
  662SOL    HW1 2646   2.511   3.037   0.914  1.4485 -2.8591 -1.6207
  662SOL    HW2 2647   2.602   2.998   0.798 -0.5067 -0.5240 -0.5703
  662SOL     MW 2648   2.572   2.985   0.880  0.8486 -0.2806  0.0692
  663SOL     OW 2649   2.803   1.498   0.362 -0.9763  0.2112  0.3797
  663SOL    HW1 2650   2.735   1.558   0.377  0.9443  3.1456 -1.2875
  663SOL    HW2 2651   2.842   1.476   0.449 -1.3434 -0.8365  2.4572
  663SOL     MW 2652   2.799   1.503   0.376 -0.7713  0.4601  0.4338
  664SOL     OW 2653   2.491   1.495   1.612  0.6340  0.1764  0.2210
  664SOL    HW1 2654   2.457   1.580   1.576  2.4863 -1.0881 -0.4400
  664SOL    HW2 2655   2.413   1.440   1.630  0.3532  0.0057  1.5905
  664SOL     MW 2656   2.476   1.499   1.609  0.8413 -0.0130  0.3145
  665SOL     OW 2657   2.887   0.851   2.021 -0.3900  0.5683 -0.3264
  665SOL    HW1 2658   2.852   0.888   1.938  0.3741  1.7541  1.7296
  665SOL    HW2 2659   2.943   0.772   2.021  1.5111 -0.2908  0.5341
  665SOL     MW 2660   2.890   0.846   2.010 -0.0384  0.6114  0.0584
  666SOL     OW 2661   2.773   3.014   1.665  0.7147  0.2047  0.6508
  666SOL    HW1 2662   2.786   3.031   1.569  1.1932 -3.1208 -1.0066
  666SOL    HW2 2663   2.711   2.941   1.684  0.1777 -2.9361  0.3588
  666SOL     MW 2664   2.767   3.007   1.655  0.7070 -0.6485  0.3936
  667SOL     OW 2665   1.994   2.645   1.696 -0.3197 -0.3455  0.5617
  667SOL    HW1 2666   2.010   2.583   1.768  1.9339 -1.4706  0.7096
  667SOL    HW2 2667   2.073   2.700   1.703  1.0726 -0.5348  2.9769
  667SOL     MW 2668   2.006   2.644   1.707  0.1614 -0.5189  0.8999
  668SOL     OW 2669   2.730   0.645   0.799 -0.1804 -0.4967 -0.4796
  668SOL    HW1 2670   2.786   0.660   0.877  1.3448 -0.2253  1.2476
  668SOL    HW2 2671   2.652   0.697   0.820  1.3410 -0.8111 -3.2910
  668SOL     MW 2672   2.728   0.654   0.812  0.2215 -0.5024 -0.6226
  669SOL     OW 2673   0.233   0.939   0.664  0.4999 -0.3160 -0.0959
  669SOL    HW1 2674   0.192   0.997   0.733  0.3716  3.4932  4.1085
  669SOL    HW2 2675   0.327   0.935   0.691  1.8856  0.1521  1.9933
  669SOL     MW 2676   0.240   0.946   0.677  0.6658  0.2483  0.7344
  670SOL     OW 2677   2.865   0.281   0.219 -0.3233 -0.7265  0.3675
  670SOL    HW1 2678   2.883   0.208   0.152 -3.5617  1.0001 -0.8406
  670SOL    HW2 2679   2.905   0.361   0.189 -1.8663 -0.5459  0.5234
  670SOL     MW 2680   2.873   0.282   0.206 -0.9542 -0.4749  0.2286
  671SOL     OW 2681   2.091   2.957   1.520 -0.2367 -0.3896 -0.6696
  671SOL    HW1 2682   2.050   2.997   1.442  3.4328 -1.5489  0.5041
  671SOL    HW2 2683   2.063   3.010   1.594 -1.8906 -2.0868  0.7151
  671SOL     MW 2684   2.082   2.970   1.520  0.0293 -0.7665 -0.3321
  672SOL     OW 2685   1.876   1.706   1.337  0.5103 -0.2073  0.3693
  672SOL    HW1 2686   1.790   1.748   1.345 -1.3005 -0.8447  3.8237
  672SOL    HW2 2687   1.919   1.761   1.265 -0.6284  1.3442  0.5466
  672SOL     MW 2688   1.870   1.719   1.329  0.1211 -0.0867  0.8485
  673SOL     OW 2689   2.762   1.095   0.566 -0.1192  0.2603  0.6560
  673SOL    HW1 2690   2.758   1.020   0.627  2.2786 -3.1537 -0.9001
  673SOL    HW2 2691   2.846   1.129   0.588 -1.1078 -2.6507  0.8259
  673SOL     MW 2692   2.773   1.090   0.577  0.0667 -0.5742  0.4731
  674SOL     OW 2693   2.519   0.084   1.216 -0.0098  0.2452 -0.2599
  674SOL    HW1 2694   2.472   0.071   1.129 -0.0987 -0.0870  0.0711
  674SOL    HW2 2695   2.519  -0.003   1.253 -2.6392  0.6704  0.6299
  674SOL     MW 2696   2.513   0.071   1.209 -0.3685  0.2575 -0.0988
  675SOL     OW 2697   3.026   0.872   1.071  0.0832 -0.5609 -0.3606
  675SOL    HW1 2698   3.107   0.858   1.120 -1.0093 -0.2603 -1.3777
  675SOL    HW2 2699   3.066   0.934   1.010 -1.8814  1.1201 -0.1256
  675SOL     MW 2700   3.042   0.878   1.070 -0.3201 -0.2994 -0.4638
  676SOL     OW 2701   2.868   1.480   1.653  0.1058 -0.1530  0.0934
  676SOL    HW1 2702   2.824   1.392   1.630 -0.6939  0.9549 -0.5063
  676SOL    HW2 2703   2.952   1.456   1.690  0.2098  1.2241  0.7269
  676SOL     MW 2704   2.873   1.466   1.655  0.0140  0.1749  0.0979
  677SOL     OW 2705   2.405   0.667   1.978  0.0266 -0.2278 -0.0514
  677SOL    HW1 2706   2.390   0.590   1.916  0.1916 -4.5914  1.1003
  677SOL    HW2 2707   2.328   0.707   2.007  0.2850 -1.1164  0.8717
  677SOL     MW 2708   2.393   0.662   1.973  0.0825 -0.9208  0.2223
  678SOL     OW 2709   2.543   1.643   0.406 -0.0445 -0.0355 -0.4977
  678SOL    HW1 2710   2.462   1.703   0.424 -0.1366  3.6956 -0.4516
  678SOL    HW2 2711   2.547   1.636   0.306 -1.2494 -0.0403 -3.3843
  678SOL     MW 2712   2.533   1.650   0.395 -0.2156  0.4561 -0.8725
  679SOL     OW 2713   2.289   0.510   1.183 -0.5378 -1.0990 -0.4488
  679SOL    HW1 2714   2.227   0.442   1.168  2.0753 -0.1149 -2.7423
  679SOL    HW2 2715   2.253   0.579   1.129 -0.7467 -1.4574  0.3733
  679SOL     MW 2716   2.276   0.510   1.174 -0.2206 -1.0164 -0.6430
  680SOL     OW 2717   2.350   0.187   1.450  0.0481 -1.0524  0.5359
  680SOL    HW1 2718   2.262   0.205   1.400 -4.3379  0.7006 -0.5592
  680SOL    HW2 2719   2.408   0.167   1.379  1.0245 -1.6691  0.2704
  680SOL     MW 2720   2.346   0.187   1.434 -0.4018 -0.9025  0.3564
  681SOL     OW 2721   0.338   0.583   1.545  0.0666 -0.1395 -0.1692
  681SOL    HW1 2722   0.305   0.495   1.578 -0.4364  1.0379  2.1888
  681SOL    HW2 2723   0.433   0.582   1.558 -0.2511  1.0581 -1.6590
  681SOL     MW 2724   0.346   0.571   1.551 -0.0417  0.1739 -0.0546
  682SOL     OW 2725   0.112   2.921   1.470 -0.6277 -0.4783  0.6429
  682SOL    HW1 2726   0.118   3.008   1.429  0.6533  0.6646 -5.1816
  682SOL    HW2 2727   0.033   2.911   1.525 -0.7064 -0.5370 -2.5333
  682SOL     MW 2728   0.102   2.931   1.472 -0.4691 -0.3353 -0.5446
  683SOL     OW 2729   2.049   0.876   3.028  0.2194  0.6390  0.3458
  683SOL    HW1 2730   1.981   0.847   2.966  1.4157 -0.1157  0.9898
  683SOL    HW2 2731   2.030   0.968   3.040 -0.8683  1.4669  0.3820
  683SOL     MW 2732   2.037   0.885   3.021  0.2337  0.6486  0.4355
  684SOL     OW 2733   2.193   1.732   0.937  0.3213 -0.5401 -0.1672
  684SOL    HW1 2734   2.125   1.695   0.881 -0.6873 -0.4191 -1.6192
  684SOL    HW2 2735   2.241   1.650   0.958 -2.6524  1.4094  3.2512
  684SOL     MW 2736   2.191   1.717   0.932 -0.2042 -0.2669  0.0922
  685SOL     OW 2737   2.674   1.744   1.232 -0.1246 -0.2364  0.2029
  685SOL    HW1 2738   2.719   1.692   1.303  2.8463 -2.0127 -1.7816
  685SOL    HW2 2739   2.644   1.667   1.179 -0.5400 -1.3488 -0.9680
  685SOL     MW 2740   2.676   1.727   1.234  0.2126 -0.6176 -0.2134
  686SOL     OW 2741   2.910   0.731   1.520 -0.0397  0.2358  0.5578
  686SOL    HW1 2742   2.945   0.685   1.599 -2.4833 -0.4965 -1.7707
  686SOL    HW2 2743   2.972   0.711   1.448  3.5205 -0.8039  0.0564
  686SOL     MW 2744   2.923   0.722   1.521  0.1076  0.0020  0.1844
  687SOL     OW 2745   2.069   0.311   1.143 -0.0864 -0.2211 -0.3237
  687SOL    HW1 2746   2.092   0.237   1.090 -0.7413  0.9928  1.2020
  687SOL    HW2 2747   1.984   0.338   1.107 -1.7847 -1.5657 -0.3696
  687SOL     MW 2748   2.061   0.305   1.131 -0.3969 -0.2383 -0.1284
  688SOL     OW 2749   2.367   0.640   1.425  0.2988  0.5951  0.0117
  688SOL    HW1 2750   2.317   0.583   1.364  1.4313 -1.0904 -0.2604
  688SOL    HW2 2751   2.310   0.640   1.507  0.2407 -1.2840 -1.3925
  688SOL     MW 2752   2.353   0.633   1.428  0.4405  0.1248 -0.2095
  689SOL     OW 2753   2.542   0.711   2.994  0.2060  0.1304 -0.0643
  689SOL    HW1 2754   2.563   0.785   2.935 -2.3193  0.2162  0.3882
  689SOL    HW2 2755   2.596   0.720   3.072  0.3280 -0.2317 -1.0954
  689SOL     MW 2756   2.552   0.722   2.997 -0.1111  0.0940 -0.1407
  690SOL     OW 2757   2.088   0.936   1.919 -0.5785  0.3831  0.8518
  690SOL    HW1 2758   2.012   0.882   1.940  0.4027 -0.9211  0.1903
  690SOL    HW2 2759   2.095   0.935   1.825 -0.2419 -1.5971  0.9633
  690SOL     MW 2760   2.079   0.929   1.910 -0.4046 -0.0502  0.7793
  691SOL     OW 2761   2.468   0.259   0.795 -0.5155 -0.1614  0.0880
  691SOL    HW1 2762   2.530   0.327   0.821 -0.4524 -0.9100  2.5408
  691SOL    HW2 2763   2.377   0.292   0.824  0.3725 -0.7147 -2.3104
  691SOL     MW 2764   2.464   0.272   0.802 -0.3900 -0.3332  0.0951
  692SOL     OW 2765   2.829   1.637   1.438 -0.0567  0.6240  0.7895
  692SOL    HW1 2766   2.829   1.597   1.525  0.1150  0.3907 -3.6158
  692SOL    HW2 2767   2.846   1.732   1.460 -1.6950 -0.6206  0.7997
  692SOL     MW 2768   2.831   1.644   1.452 -0.2502  0.4290  0.2096
  693SOL     OW 2769   2.339   0.466   0.106 -0.1915  0.4814 -0.7369
  693SOL    HW1 2770   2.256   0.429   0.130  0.8670  0.4494 -0.7723
  693SOL    HW2 2771   2.316   0.528   0.042 -0.9435 -3.0729  2.5921
  693SOL     MW 2772   2.325   0.470   0.101 -0.1510  0.0083 -0.3024
  694SOL     OW 2773   1.912   1.222   1.110  0.3334 -0.4502  0.1173
  694SOL    HW1 2774   2.005   1.202   1.135 -1.6199 -2.6807  0.3779
  694SOL    HW2 2775   1.858   1.155   1.155  1.2720 -0.2365 -2.3455
  694SOL     MW 2776   1.917   1.211   1.119  0.1996 -0.7163 -0.1733
  695SOL     OW 2777   3.023   1.460   1.321  0.4089  0.0371 -0.1287
  695SOL    HW1 2778   3.013   1.461   1.224 -0.8923  1.1568 -2.3521
  695SOL    HW2 2779   2.944   1.509   1.359  1.6933 -1.9194 -0.4281
  695SOL     MW 2780   3.011   1.467   1.313  0.4067 -0.0733 -0.4615
  696SOL     OW 2781   2.109   1.383   0.885  0.2455 -0.0177 -0.0941
  696SOL    HW1 2782   2.151   1.430   0.961 -0.0976 -1.9769 -2.4888
  696SOL    HW2 2783   2.061   1.315   0.931  0.4453  0.4813 -0.6490
  696SOL     MW 2784   2.108   1.380   0.901  0.2266 -0.2103 -0.4833
  697SOL     OW 2785   2.918   1.094   2.151  0.0665  0.2610  0.4968
  697SOL    HW1 2786   2.866   1.171   2.156  1.0316 -2.5685  0.6372
  697SOL    HW2 2787   2.865   1.023   2.104  0.4250 -1.2391 -1.9535
  697SOL     MW 2788   2.904   1.095   2.145  0.2411 -0.3102  0.1920
  698SOL     OW 2789   2.558   0.334   0.037  0.0148 -0.2517  0.2227
  698SOL    HW1 2790   2.484   0.387   0.077 -0.5668 -0.1104  2.8657
  698SOL    HW2 2791   2.572   0.271   0.100 -0.5041  0.2157 -1.3086
  698SOL     MW 2792   2.550   0.332   0.050 -0.1304 -0.1714  0.3694
  699SOL     OW 2793   1.832   1.667   2.022 -0.9355 -0.2538 -0.5923
  699SOL    HW1 2794   1.814   1.567   2.025  1.8536 -2.2509  1.8312
  699SOL    HW2 2795   1.927   1.677   2.002  1.9624 -1.5300 -1.7858
  699SOL     MW 2796   1.842   1.655   2.020 -0.1851 -0.6857 -0.4300
  700SOL     OW 2797   2.717   0.924   1.540 -0.3577 -0.3439 -0.3212
  700SOL    HW1 2798   2.752   0.991   1.483 -1.6463 -0.2959  2.8505
  700SOL    HW2 2799   2.777   0.845   1.533  3.9566  4.9000 -2.4688
  700SOL     MW 2800   2.729   0.922   1.531  0.0415  0.3543 -0.1861
  701SOL     OW 2801   1.601   1.265   2.528 -0.1935 -0.1734  0.0571
  701SOL    HW1 2802   1.695   1.284   2.531  0.3218 -3.0848 -2.2147
  701SOL    HW2 2803   1.548   1.327   2.575 -0.3031 -0.1113  1.9563
  701SOL     MW 2804   1.607   1.276   2.534 -0.1400 -0.5494  0.0080
  702SOL     OW 2805   2.202   0.390   0.869  0.1040 -0.1798  0.1161
  702SOL    HW1 2806   2.164   0.338   0.795  0.0582  0.5190  0.8501
  702SOL    HW2 2807   2.253   0.453   0.817 -1.9250 -0.0460 -1.9620
  702SOL     MW 2808   2.204   0.392   0.852 -0.1698 -0.0699 -0.0612
  703SOL     OW 2809   2.745   1.278   1.036  0.1908 -0.3084 -0.2721
  703SOL    HW1 2810   2.724   1.272   0.942  2.4150 -0.2296  2.0711
  703SOL    HW2 2811   2.752   1.189   1.076  0.8958  0.5109 -2.2193
  703SOL     MW 2812   2.743   1.265   1.029  0.5773 -0.1899 -0.2198
  704SOL     OW 2813   3.100   1.320   0.256  0.5783  0.2145 -0.2259
  704SOL    HW1 2814   3.057   1.257   0.203  1.6030 -0.9850 -0.3366
  704SOL    HW2 2815   3.099   1.262   0.341  0.8959 -1.6407  0.3453
  704SOL     MW 2816   3.094   1.304   0.260  0.7554 -0.1886 -0.1651
  705SOL     OW 2817   2.229   1.615   1.303  0.2297 -0.5529  0.2155
  705SOL    HW1 2818   2.143   1.672   1.318  1.1369  0.5942  1.5308
  705SOL    HW2 2819   2.212   1.533   1.342 -0.6829 -1.5500 -1.0404
  705SOL     MW 2820   2.216   1.611   1.310  0.2290 -0.5331  0.2233
  706SOL     OW 2821   2.953   1.234   0.694 -0.3526 -0.0291  0.1264
  706SOL    HW1 2822   3.012   1.203   0.630 -1.7881  0.4960  0.7959
  706SOL    HW2 2823   2.939   1.327   0.676 -0.2492 -0.7390  0.8577
  706SOL     MW 2824   2.959   1.242   0.683 -0.5284 -0.0535  0.3112
  707SOL     OW 2825   2.389   0.056   0.963 -0.0468  0.1009  0.3918
  707SOL    HW1 2826   2.420   0.120   0.890  0.4957  1.3593 -2.3055
  707SOL    HW2 2827   2.296   0.068   0.979  0.6521  2.2059  1.3807
  707SOL     MW 2828   2.381   0.066   0.955  0.1170  0.5447  0.1664
  708SOL     OW 2829   2.576   1.563   0.144  0.1151 -0.2618  0.1208
  708SOL    HW1 2830   2.612   1.477   0.133  1.0054  0.8328 -1.6563
  708SOL    HW2 2831   2.500   1.546   0.084 -0.8903 -1.7185  1.3106
  708SOL     MW 2832   2.571   1.549   0.135  0.0999 -0.3096  0.0433
  709SOL     OW 2833   1.727   1.716   0.144 -0.0646 -0.2540 -0.3280
  709SOL    HW1 2834   1.648   1.744   0.090 -1.6059  2.7854 -1.4686
  709SOL    HW2 2835   1.677   1.670   0.208 -2.0091 -1.9820 -1.6180
  709SOL     MW 2836   1.710   1.714   0.145 -0.5246 -0.0810 -0.6487
  710SOL     OW 2837   2.162   1.170   1.169  0.0096 -0.0994  0.2797
  710SOL    HW1 2838   2.228   1.134   1.107 -2.5200  0.7513 -0.1600
  710SOL    HW2 2839   2.154   1.096   1.228 -0.3363 -0.2980  1.1054
  710SOL     MW 2840   2.170   1.156   1.169 -0.3698 -0.0134  0.3306
  711SOL     OW 2841   2.336   0.132   1.753  0.1867  0.0759 -0.2169
  711SOL    HW1 2842   2.425   0.106   1.792  0.0712  0.4079 -0.4954
  711SOL    HW2 2843   2.350   0.166   1.662 -0.8956  0.6506 -2.2307
  711SOL     MW 2844   2.349   0.133   1.746  0.0286  0.1955 -0.5193
  712SOL     OW 2845   1.876   0.608   3.085  0.3998 -0.7983  0.2561
  712SOL    HW1 2846   1.859   0.673   3.017  1.2800 -1.2145 -2.5947
  712SOL    HW2 2847   1.928   0.655   3.143  0.2123 -1.5697  0.3783
  712SOL     MW 2848   1.881   0.623   3.083  0.4912 -0.9550 -0.1039
  713SOL     OW 2849   2.561   0.797   1.094 -0.2415  0.0197 -0.1937
  713SOL    HW1 2850   2.575   0.704   1.126 -0.9386  1.1932 -2.0965
  713SOL    HW2 2851   2.509   0.832   1.171  2.2521 -0.7800  1.9729
  713SOL     MW 2852   2.556   0.790   1.108 -0.0045  0.0690 -0.1589
  714SOL     OW 2853   2.162   0.217   1.969  0.0675 -0.3602  0.0755
  714SOL    HW1 2854   2.217   0.188   2.050 -1.6827  1.3317  0.2134
  714SOL    HW2 2855   2.217   0.218   1.894 -2.2701 -0.6153  0.3445
  714SOL     MW 2856   2.177   0.214   1.970 -0.4718 -0.1707  0.1292
  715SOL     OW 2857   1.727   1.902   1.687  0.5650 -0.0171 -0.8817
  715SOL    HW1 2858   1.815   1.895   1.656 -1.0797  1.2071  0.5328
  715SOL    HW2 2859   1.707   1.813   1.723 -2.2493 -1.0749  2.3973
  715SOL     MW 2860   1.736   1.889   1.688 -0.0233  0.0048 -0.2624
  716SOL     OW 2861   2.376   0.569   0.759 -0.0677  0.1851  0.1480
  716SOL    HW1 2862   2.439   0.513   0.717 -0.8296 -0.1378  0.9345
  716SOL    HW2 2863   2.330   0.612   0.686  0.6119  1.8334 -0.6268
  716SOL     MW 2864   2.378   0.567   0.744 -0.0786  0.3600  0.1495
  717SOL     OW 2865   2.863   1.427   2.902  0.4024 -0.5862 -0.1467
  717SOL    HW1 2866   2.959   1.442   2.924 -0.2510 -0.5248  1.1664
  717SOL    HW2 2867   2.821   1.497   2.951 -0.7670  0.5150  0.7289
  717SOL     MW 2868   2.870   1.438   2.911  0.1619 -0.4328  0.1421
  718SOL     OW 2869   2.521   1.375   1.351  0.2816  0.0329 -0.3784
  718SOL    HW1 2870   2.532   1.432   1.433 -0.7216  0.5946 -2.4900
  718SOL    HW2 2871   2.590   1.309   1.367  1.8262  1.0537 -0.8091
  718SOL     MW 2872   2.531   1.374   1.364  0.3531  0.2417 -0.7138
  719SOL     OW 2873   2.216   1.335   0.611  0.2466 -0.4718  0.8623
  719SOL    HW1 2874   2.305   1.364   0.599 -0.1693 -0.9644  0.7663
  719SOL    HW2 2875   2.186   1.351   0.700  1.4723  1.5627 -0.2233
  719SOL     MW 2876   2.224   1.341   0.621  0.3535 -0.2684  0.7064
  720SOL     OW 2877   2.925   1.166   0.119  0.5449 -0.1851 -0.2689
  720SOL    HW1 2878   2.873   1.087   0.144  1.2016  0.7269  1.2268
  720SOL    HW2 2879   2.857   1.244   0.125 -1.9046  0.9297  1.4986
  720SOL     MW 2880   2.909   1.166   0.123  0.3083  0.0823  0.1616
  721SOL     OW 2881   2.507   0.892   1.349 -0.4822  0.4055 -0.2207
  721SOL    HW1 2882   2.473   0.812   1.384  1.3320  2.4664  2.7707
  721SOL    HW2 2883   2.588   0.889   1.405 -0.0797  0.2816  1.4865
  721SOL     MW 2884   2.513   0.881   1.361 -0.1897  0.6611  0.3992
  722SOL     OW 2885   2.565   1.135   0.373 -0.4955  0.0628 -0.2299
  722SOL    HW1 2886   2.530   1.214   0.417  2.9036 -1.3597  0.4642
  722SOL    HW2 2887   2.634   1.106   0.433  1.7570 -3.6565  1.2044
  722SOL     MW 2888   2.569   1.142   0.387  0.2502 -0.6156  0.0509
  723SOL     OW 2889   2.226   1.408   1.652 -0.6283  0.2256  0.2634
  723SOL    HW1 2890   2.190   1.369   1.575 -0.9806  0.8104  2.6144
  723SOL    HW2 2891   2.160   1.473   1.682 -1.3239 -1.0978  2.8776
  723SOL     MW 2892   2.213   1.412   1.646 -0.7666  0.1281  0.9185
  724SOL     OW 2893   2.527   0.413   0.583  0.1408  0.0157  0.6578
  724SOL    HW1 2894   2.508   0.344   0.653 -0.6685 -0.4460 -0.3578
  724SOL    HW2 2895   2.621   0.404   0.556  0.0791 -1.1997  0.7084
  724SOL     MW 2896   2.537   0.403   0.589  0.0259 -0.2056  0.5305
  725SOL     OW 2897   2.563   0.541   1.137 -0.5353 -0.3866 -0.5514
  725SOL    HW1 2898   2.591   0.537   1.228  0.1447  2.1892  2.9008
  725SOL    HW2 2899   2.473   0.505   1.134  0.4639 -0.7666  3.0224
  725SOL     MW 2900   2.555   0.536   1.149 -0.3138 -0.0969  0.3756
  726SOL     OW 2901   2.576   2.440   0.564 -0.3326  0.1658  0.2748
  726SOL    HW1 2902   2.533   2.507   0.511 -0.6823  2.8600 -0.0041
  726SOL    HW2 2903   2.509   2.408   0.617 -1.8112 -0.4380 -0.3528
  726SOL     MW 2904   2.562   2.445   0.564 -0.5738  0.4416  0.1552
  727SOL     OW 2905   2.942   0.253   1.572  0.4077  0.1897 -0.2842
  727SOL    HW1 2906   2.954   0.301   1.490 -0.2924 -2.4586  0.5324
  727SOL    HW2 2907   2.875   0.190   1.548 -1.5267  0.8630  1.3973
  727SOL     MW 2908   2.935   0.251   1.558  0.0601 -0.0709  0.0454
  728SOL     OW 2909   2.816   1.158   2.968  0.2041 -0.0159 -0.6219
  728SOL    HW1 2910   2.844   1.244   2.934  2.6546  1.0598 -0.9357
  728SOL    HW2 2911   2.842   1.155   3.063 -0.9845 -0.4960 -0.0212
  728SOL     MW 2912   2.823   1.169   2.976  0.3706  0.0627 -0.5840
  729SOL     OW 2913   2.557   1.529   1.118  0.0531  0.3014 -0.1639
  729SOL    HW1 2914   2.561   1.471   1.193  3.8883  0.4644 -1.3544
  729SOL    HW2 2915   2.610   1.500   1.046 -4.2579 -0.3901  1.4040
  729SOL     MW 2916   2.565   1.517   1.119 -0.0097  0.2317 -0.1141
  730SOL     OW 2917   2.125   1.123   0.269  0.3877  0.1306 -0.6720
  730SOL    HW1 2918   2.216   1.098   0.261 -0.2556 -0.7889  2.0345
  730SOL    HW2 2919   2.124   1.218   0.253  0.1355  0.8447 -2.7461
  730SOL     MW 2920   2.137   1.132   0.265  0.2695  0.1035 -0.5886
  731SOL     OW 2921   2.826   1.859   2.877  0.4651 -0.0441  0.2356
  731SOL    HW1 2922   2.773   1.904   2.801  2.3771 -0.2868  2.1017
  731SOL    HW2 2923   2.893   1.927   2.883  0.8158 -0.1017 -0.1394
  731SOL     MW 2924   2.828   1.874   2.868  0.7636 -0.0837  0.4323
  732SOL     OW 2925   2.241   0.909   1.328  0.3284  0.2412  0.4004
  732SOL    HW1 2926   2.195   0.885   1.408 -3.3496  1.9488 -0.2877
  732SOL    HW2 2927   2.330   0.930   1.350 -2.2481  2.1129 -1.5888
  732SOL     MW 2928   2.247   0.909   1.341 -0.4968  0.7135  0.0471
  733SOL     OW 2929   2.377   2.816   3.016 -0.4963 -0.2321 -0.4077
  733SOL    HW1 2930   2.300   2.877   3.020  1.0257  1.7633 -0.3314
  733SOL    HW2 2931   2.345   2.727   3.002 -1.5894 -1.0181 -1.6315
  733SOL     MW 2932   2.362   2.812   3.014 -0.4397 -0.0726 -0.5591
  734SOL     OW 2933   1.506   0.351   2.469  0.0171  0.0461  0.2081
  734SOL    HW1 2934   1.478   0.317   2.560 -0.7652 -0.5068  2.2939
  734SOL    HW2 2935   1.536   0.270   2.415  0.0140 -0.4892  0.1399
  734SOL     MW 2936   1.506   0.336   2.474 -0.0865 -0.0975  0.4743
  735SOL     OW 2937   2.983   0.936   2.564  0.2931  0.4526 -0.2945
  735SOL    HW1 2938   2.955   0.846   2.589 -1.7540  1.0018 -1.1593
  735SOL    HW2 2939   3.014   0.966   2.650 -3.1568 -2.3651  0.2812
  735SOL     MW 2940   2.984   0.928   2.578 -0.4321  0.1533 -0.3327
  736SOL     OW 2941   0.082   0.607   2.550 -0.2648 -0.0023  0.0351
  736SOL    HW1 2942   0.153   0.655   2.508 -0.0229  0.9790 -1.4617
  736SOL    HW2 2943   0.065   0.531   2.489  1.9142  0.4786  0.4262
  736SOL     MW 2944   0.089   0.604   2.537  0.0546  0.1906 -0.1108
  737SOL     OW 2945   2.918   0.679   2.612  0.6089  0.2611 -0.3472
  737SOL    HW1 2946   2.855   0.668   2.536  0.7316  1.1734 -0.3680
  737SOL    HW2 2947   3.004   0.652   2.576  0.5020  0.5091  0.5274
  737SOL     MW 2948   2.921   0.674   2.597  0.6110  0.4142 -0.2346
  738SOL     OW 2949   0.186   0.525   1.951  0.4565 -0.3908 -0.4413
  738SOL    HW1 2950   0.272   0.572   1.968 -0.0719  3.5390  3.0399
  738SOL    HW2 2951   0.203   0.474   1.873 -2.9350  0.1263 -0.9906
  738SOL     MW 2952   0.200   0.525   1.943 -0.0607  0.1960 -0.0545
  739SOL     OW 2953   2.495   0.998   2.137 -0.4913  0.3164 -0.5585
  739SOL    HW1 2954   2.428   0.935   2.116  1.3259 -0.5870 -0.7618
  739SOL    HW2 2955   2.520   1.041   2.056 -3.2586  0.2547 -0.2534
  739SOL     MW 2956   2.489   0.995   2.124 -0.6167  0.1890 -0.5451
  740SOL     OW 2957   0.143   1.766   2.957  0.4395 -0.3815 -0.2546
  740SOL    HW1 2958   0.080   1.693   2.967 -3.1615  0.5342  0.3722
  740SOL    HW2 2959   0.234   1.739   2.980  1.4217 -0.4075 -0.6616
  740SOL     MW 2960   0.147   1.753   2.962  0.0940 -0.2641 -0.2256
  741SOL     OW 2961   2.246   1.271   2.696  0.2979  0.4691  1.2975
  741SOL    HW1 2962   2.192   1.346   2.655  2.6897  0.3268 -1.7494
  741SOL    HW2 2963   2.234   1.274   2.791  1.3373 -0.7514  1.1777
  741SOL     MW 2964   2.237   1.281   2.703  0.7506  0.2893  0.8797
  742SOL     OW 2965   1.594   1.343   2.242 -0.4864 -0.3697 -0.5751
  742SOL    HW1 2966   1.573   1.253   2.216  0.4131 -0.6051  0.7218
  742SOL    HW2 2967   1.578   1.343   2.338 -2.4328 -0.4702  1.2477
  742SOL     MW 2968   1.589   1.331   2.252 -0.6245 -0.4140 -0.1635
  743SOL     OW 2969   2.521   1.226   2.746  0.0861  0.2081  0.4105
  743SOL    HW1 2970   2.432   1.238   2.747 -0.7780 -0.7188 -1.1414
  743SOL    HW2 2971   2.543   1.154   2.811  1.0635 -3.8938  2.4695
  743SOL     MW 2972   2.512   1.218   2.755  0.1010 -0.4554  0.4774
  744SOL     OW 2973   2.753   0.995   1.801 -0.5585 -0.2290 -0.5421
  744SOL    HW1 2974   2.687   1.055   1.836  0.2270  0.0200 -0.1666
  744SOL    HW2 2975   2.719   0.955   1.716 -0.9972 -1.7984 -0.8179
  744SOL     MW 2976   2.740   0.997   1.794 -0.5127 -0.4032 -0.5289
  745SOL     OW 2977   1.761   0.413   2.474 -0.3126 -0.1065  0.7468
  745SOL    HW1 2978   1.775   0.425   2.379  0.3649 -0.5217  0.1423
  745SOL    HW2 2979   1.668   0.392   2.475  0.0561 -1.0234  1.8634
  745SOL     MW 2980   1.751   0.412   2.462 -0.1746 -0.2822  0.8144
  746SOL     OW 2981   1.494   1.454   1.685 -0.3569  0.1956  0.8269
  746SOL    HW1 2982   1.549   1.530   1.699  1.5485 -1.1692  0.7359
  746SOL    HW2 2983   1.495   1.408   1.773  1.4100 -0.8337 -1.5557
  746SOL     MW 2984   1.501   1.458   1.699  0.1276 -0.1203  0.5005
  747SOL     OW 2985   2.569   1.162   1.918  0.0499  0.7524  0.3471
  747SOL    HW1 2986   2.488   1.157   1.861  4.1816 -1.7317 -1.4696
  747SOL    HW2 2987   2.575   1.250   1.953 -2.4510 -0.0934  0.5322
  747SOL     MW 2988   2.559   1.173   1.915  0.2651  0.3131  0.1318
  748SOL     OW 2989   0.075   3.063   1.869 -0.0308  0.3862 -0.8482
  748SOL    HW1 2990   0.153   3.030   1.830 -0.0825  0.7625 -0.0120
  748SOL    HW2 2991   0.106   3.128   1.933  0.9518  2.9749 -0.5357
  748SOL     MW 2992   0.090   3.067   1.873  0.0920  0.7774 -0.6966
  749SOL     OW 2993   2.430   0.559   2.780 -0.8017 -0.3094 -0.5153
  749SOL    HW1 2994   2.456   0.637   2.727  1.0628  0.1310 -1.6540
  749SOL    HW2 2995   2.466   0.574   2.869 -0.6460  0.7481  4.4398
  749SOL     MW 2996   2.438   0.571   2.785 -0.5352 -0.1117 -0.0118
  750SOL     OW 2997   2.058   3.067   1.935 -0.7878  0.5910  0.3071
  750SOL    HW1 2998   2.098   3.151   1.923 -2.3242 -2.3377 -2.6209
  750SOL    HW2 2999   2.139   3.006   1.953  1.5601 -2.4038 -0.1989
  750SOL     MW 3000   2.074   3.070   1.936 -0.6807 -0.1905 -0.1460
  751SOL     OW 3001   0.035   0.389   2.422  0.1524  0.4772 -0.0513
  751SOL    HW1 3002  -0.055   0.386   2.407 -0.0803  1.0185  2.7618
  751SOL    HW2 3003   0.080   0.370   2.340  1.6065 -1.3018  2.3715
  751SOL     MW 3004   0.029   0.386   2.410  0.3136  0.3139  0.6395
  752SOL     OW 3005   2.142   0.895   2.746  0.2320  0.1828 -0.2700
  752SOL    HW1 3006   2.204   0.933   2.683 -0.1976  1.8053 -0.2319
  752SOL    HW2 3007   2.168   0.920   2.832 -1.0263 -2.0643 -0.1107
  752SOL     MW 3008   2.154   0.903   2.749  0.0093  0.1004 -0.2439
  753SOL     OW 3009   2.855   0.407   2.350 -0.1095 -0.4681  0.0093
  753SOL    HW1 3010   2.796   0.332   2.362 -1.0607 -0.2297 -1.9980
  753SOL    HW2 3011   2.804   0.486   2.365 -1.0342 -3.2997 -1.0061
  753SOL     MW 3012   2.840   0.408   2.354 -0.3570 -0.8102 -0.3896
  754SOL     OW 3013   2.227   3.018   2.596 -0.8024  0.4820 -0.1838
  754SOL    HW1 3014   2.262   3.013   2.504 -0.3507  0.0128 -0.3409
  754SOL    HW2 3015   2.295   2.976   2.651 -1.3716 -1.6082  0.2891
  754SOL     MW 3016   2.241   3.012   2.591 -0.8179  0.1443 -0.1421
  755SOL     OW 3017   2.795   1.576   2.490  0.0054 -0.0667  0.0526
  755SOL    HW1 3018   2.757   1.491   2.510 -0.9979  1.0510  0.6664
  755SOL    HW2 3019   2.816   1.601   2.578 -0.2657  0.8379 -0.8505
  755SOL     MW 3020   2.793   1.568   2.504 -0.1628  0.2001  0.0144
  756SOL     OW 3021   2.237   1.255   2.975 -0.3582 -0.2965 -0.4940
  756SOL    HW1 3022   2.300   1.325   2.982 -1.4457 -1.6446  0.9742
  756SOL    HW2 3023   2.272   1.169   3.002 -0.4663  1.2248  0.1000
  756SOL     MW 3024   2.250   1.253   2.980 -0.5160 -0.2736 -0.2219
  757SOL     OW 3025   2.172   0.956   1.638 -0.6146  0.4646 -0.3172
  757SOL    HW1 3026   2.176   0.860   1.644  0.8740  0.7370  1.4566
  757SOL    HW2 3027   2.092   0.986   1.601 -0.9531  0.2632  1.4776
  757SOL     MW 3028   2.162   0.947   1.634 -0.4629  0.4740  0.1536
  758SOL     OW 3029   2.259   1.740   2.655 -0.5330 -0.4630  0.4121
  758SOL    HW1 3030   2.251   1.766   2.565  1.3366 -1.8755  2.7724
  758SOL    HW2 3031   2.355   1.739   2.663  1.3549  1.7010  0.6851
  758SOL     MW 3032   2.271   1.743   2.644 -0.0373 -0.3638  0.7596
  759SOL     OW 3033   1.546   1.402   2.790 -0.0675 -0.2999 -0.2096
  759SOL    HW1 3034   1.543   1.487   2.757  1.4074 -2.5880 -0.2107
  759SOL    HW2 3035   1.631   1.361   2.764 -1.3490 -1.2340 -1.9246
  759SOL     MW 3036   1.557   1.408   2.782 -0.0420 -0.7250 -0.4360
  760SOL     OW 3037   2.686   1.992   2.672 -0.2909 -0.0366 -0.1856
  760SOL    HW1 3038   2.642   1.912   2.662 -1.4362  0.3747  4.3306
  760SOL    HW2 3039   2.762   1.985   2.608 -1.7942  1.9135 -0.3439
  760SOL     MW 3040   2.690   1.981   2.662 -0.6404  0.2749  0.3894
  761SOL     OW 3041   2.136   0.409   2.469 -0.5380 -0.4752  0.4819
  761SOL    HW1 3042   2.064   0.348   2.435 -2.3070 -2.9313 -3.3139
  761SOL    HW2 3043   2.124   0.418   2.564  2.1161 -0.5621 -1.6476
  761SOL     MW 3044   2.125   0.402   2.477 -0.4212 -0.8107 -0.2999
  762SOL     OW 3045   0.027   0.162   2.079 -0.2307  0.1145 -0.2908
  762SOL    HW1 3046   0.023   0.111   2.161  3.2078 -1.1405 -1.3574
  762SOL    HW2 3047  -0.038   0.233   2.078 -1.2489  0.1807 -1.3874
  762SOL     MW 3048   0.018   0.164   2.090  0.0886 -0.0423 -0.5762
  763SOL     OW 3049   2.425   1.158   2.361 -0.3390  0.6563 -0.3357
  763SOL    HW1 3050   2.447   1.108   2.278 -0.8541  0.3408  0.7271
  763SOL    HW2 3051   2.505   1.211   2.381  0.4212  1.9383 -1.0237
  763SOL     MW 3052   2.438   1.159   2.353 -0.3067  0.7838 -0.2863
  764SOL     OW 3053   0.306   0.165   2.809 -0.0614  0.1369 -0.3825
  764SOL    HW1 3054   0.237   0.219   2.764  0.4130  1.7958  3.2798
  764SOL    HW2 3055   0.326   0.235   2.871  0.6867 -0.2464 -2.6358
  764SOL     MW 3056   0.299   0.181   2.811  0.0999  0.3052 -0.1966
  765SOL     OW 3057   2.730   0.150   2.313 -0.7114  0.1873  0.1461
  765SOL    HW1 3058   2.669   0.119   2.249  2.3478  0.5584 -0.8654
  765SOL    HW2 3059   2.790   0.074   2.333 -2.4070 -1.0983 -0.1014
  765SOL     MW 3060   2.730   0.136   2.307 -0.5315  0.0666 -0.0200
  766SOL     OW 3061   1.857   3.013   2.110  0.5366  0.1850 -0.0004
  766SOL    HW1 3062   1.923   3.018   2.039 -1.7723  0.6308 -0.9311
  766SOL    HW2 3063   1.792   2.962   2.061  1.7603  0.0713 -2.0030
  766SOL     MW 3064   1.857   3.007   2.094  0.3934  0.2288 -0.3874
  767SOL     OW 3065   2.672   0.608   1.864 -0.2362 -0.0015 -0.1966
  767SOL    HW1 3066   2.716   0.649   1.936  0.1375 -1.2810 -1.7586
  767SOL    HW2 3067   2.584   0.637   1.875 -0.9277  0.4632 -1.9203
  767SOL     MW 3068   2.666   0.618   1.875 -0.2781 -0.1090 -0.6301
  768SOL     OW 3069   0.020   1.525   2.922  0.5317  0.5050 -0.3656
  768SOL    HW1 3070   0.075   1.501   2.999 -1.0423 -1.3549  1.0179
  768SOL    HW2 3071   0.061   1.478   2.848  0.6343  0.9112 -2.7865
  768SOL     MW 3072   0.033   1.515   2.922  0.3375  0.3132 -0.5025
  769SOL     OW 3073   2.365   0.630   2.428 -0.1694  0.3614 -0.3541
  769SOL    HW1 3074   2.314   0.565   2.467 -0.5087  2.6793 -0.7785
  769SOL    HW2 3075   2.407   0.592   2.349  1.2337  1.2843 -1.9294
  769SOL     MW 3076   2.364   0.617   2.423 -0.0291  0.7890 -0.6179
  770SOL     OW 3077   0.045   1.621   2.569 -0.0923  0.2182  0.4316
  770SOL    HW1 3078  -0.039   1.644   2.617 -0.6001 -0.1568 -0.6123
  770SOL    HW2 3079   0.062   1.535   2.603 -0.3140  1.5096 -2.8142
  770SOL     MW 3080   0.036   1.613   2.580 -0.1885  0.3391 -0.1344
  771SOL     OW 3081   3.029   0.623   1.983  0.7691  0.0086  0.3644
  771SOL    HW1 3082   3.008   0.589   1.891  3.1570 -0.3759 -1.5929
  771SOL    HW2 3083   3.121   0.611   1.998 -3.0619  1.5824 -1.4131
  771SOL     MW 3084   3.038   0.617   1.972  0.5787  0.1655 -0.1284
  772SOL     OW 3085   0.023   0.008   2.337 -0.7787 -0.1477  0.3068
  772SOL    HW1 3086  -0.071  -0.009   2.353  0.2124  1.0149  0.6396
  772SOL    HW2 3087   0.070  -0.072   2.319 -0.1607  0.3670 -1.0588
  772SOL     MW 3088   0.017  -0.005   2.337 -0.5664  0.0736  0.1705
  773SOL     OW 3089   2.408   2.901   2.761  0.1667  0.0941  0.0555
  773SOL    HW1 3090   2.426   2.814   2.729  0.6034 -2.9643  0.1841
  773SOL    HW2 3091   2.398   2.880   2.853  2.2338  0.3267 -0.6129
  773SOL     MW 3092   2.409   2.887   2.769  0.4970 -0.2787 -0.0157
  774SOL     OW 3093   2.302   1.177   1.789 -0.1478  0.1495 -0.2667
  774SOL    HW1 3094   2.269   1.256   1.740  2.2527  1.4917  0.0677
  774SOL    HW2 3095   2.261   1.110   1.740  2.5686 -1.8773 -0.1205
  774SOL     MW 3096   2.292   1.178   1.776  0.5274  0.0592 -0.2033
  775SOL     OW 3097   2.333   2.965   2.346 -0.0212 -0.0210  0.3012
  775SOL    HW1 3098   2.340   3.042   2.293 -4.4764  0.1233  3.1675
  775SOL    HW2 3099   2.378   2.888   2.310 -0.9343  0.2367 -1.5614
  775SOL     MW 3100   2.340   2.965   2.334 -0.7295  0.0320  0.4336
  776SOL     OW 3101   0.120   1.507   0.090  0.4091 -0.3599  0.0443
  776SOL    HW1 3102   0.213   1.481   0.077  0.5678  3.1302  0.5634
  776SOL    HW2 3103   0.083   1.433   0.135 -1.0717 -1.6445 -0.2840
  776SOL     MW 3104   0.127   1.494   0.094  0.2347 -0.0689  0.0695
  777SOL     OW 3105   3.012   1.106   1.719  0.0126  0.0182  0.2416
  777SOL    HW1 3106   2.999   1.156   1.638  0.3660  3.6459 -0.1633
  777SOL    HW2 3107   2.927   1.089   1.752  1.3361 -0.4429 -1.2837
  777SOL     MW 3108   2.999   1.110   1.713  0.2338  0.4360 -0.0131
  778SOL     OW 3109   2.832   0.452   2.728  0.4602 -0.9234  1.0584
  778SOL    HW1 3110   2.783   0.468   2.813  1.3771  0.0007  0.4790
  778SOL    HW2 3111   2.854   0.544   2.697  1.7147  0.9566 -0.4776
  778SOL     MW 3112   2.828   0.467   2.736  0.7467 -0.5535  0.7793
  779SOL     OW 3113   2.226   0.547   2.188 -0.9195 -0.1993 -0.3440
  779SOL    HW1 3114   2.230   0.640   2.200 -1.6489  0.3134 -0.2852
  779SOL    HW2 3115   2.196   0.510   2.275 -2.4082  1.8819  2.8302
  779SOL     MW 3116   2.223   0.555   2.201 -1.2121  0.1429  0.0825
  780SOL     OW 3117   0.135   0.299   2.661 -0.4598 -0.5430 -0.2165
  780SOL    HW1 3118   0.090   0.336   2.736 -0.1564  2.3540 -3.8574
  780SOL    HW2 3119   0.072   0.301   2.594 -1.2277 -0.0404  2.2546
  780SOL     MW 3120   0.121   0.304   2.662 -0.5211 -0.0944 -0.3708
  781SOL     OW 3121   3.041   1.301   2.466 -0.3583  0.2266  0.0309
  781SOL    HW1 3122   3.042   1.374   2.403  2.0961  0.8578 -0.2804
  781SOL    HW2 3123   3.062   1.222   2.418 -0.3144 -1.4989  0.6792
  781SOL     MW 3124   3.044   1.300   2.451 -0.0287  0.0822  0.0753
  782SOL     OW 3125   0.653   1.590   0.013 -0.3705  0.3156 -0.3147
  782SOL    HW1 3126   0.576   1.605  -0.050  1.5011  1.4811  0.5557
  782SOL    HW2 3127   0.648   1.673   0.066  0.3263  1.8603  2.9260
  782SOL     MW 3128   0.642   1.603   0.012 -0.0316  0.6732  0.2277
  783SOL     OW 3129   2.720   0.625   2.444  0.3017 -0.3780 -0.4049
  783SOL    HW1 3130   2.662   0.660   2.377  0.1830 -0.2474 -0.6510
  783SOL    HW2 3131   2.680   0.551   2.499  1.4624 -0.0226  2.7111
  783SOL     MW 3132   2.707   0.620   2.442  0.4392 -0.3139 -0.0263
  784SOL     OW 3133   0.115   0.804   2.846  0.0069  0.1031 -0.4658
  784SOL    HW1 3134   0.039   0.869   2.834 -1.4598  2.6296 -0.3066
  784SOL    HW2 3135   0.176   0.831   2.776 -0.0920 -0.8887 -1.0431
  784SOL     MW 3136   0.113   0.816   2.835 -0.1997  0.3056 -0.5209
  785SOL     OW 3137   0.423   0.486   2.174  0.0238  0.1387  0.3343
  785SOL    HW1 3138   0.425   0.539   2.087 -3.8825 -2.6031 -1.2899
  785SOL    HW2 3139   0.341   0.431   2.168  1.7400  0.7826 -0.4088
  785SOL     MW 3140   0.412   0.486   2.162 -0.2652 -0.1381  0.0220
  786SOL     OW 3141   1.930   0.350   2.953 -0.0032 -0.0462  0.2439
  786SOL    HW1 3142   1.924   0.434   2.994  0.6476 -1.8570 -3.6360
  786SOL    HW2 3143   1.973   0.361   2.866 -2.0469  0.4737 -2.7913
  786SOL     MW 3144   1.935   0.363   2.947 -0.1869 -0.2166 -0.6684
  787SOL     OW 3145   2.475   0.123   2.946 -0.1417  0.8380 -0.2204
  787SOL    HW1 3146   2.543   0.061   2.921 -1.6946  2.5814 -1.1328
  787SOL    HW2 3147   2.523   0.192   2.997  1.9215 -0.4147 -2.9729
  787SOL     MW 3148   2.490   0.124   2.949 -0.0744  0.9027 -0.7039
  788SOL     OW 3149   2.869   3.027   2.375  0.4634 -0.0522 -0.8362
  788SOL    HW1 3150   2.804   2.996   2.437 -2.1460 -0.8688 -0.1712
  788SOL    HW2 3151   2.894   2.949   2.327 -1.0774 -1.7548 -0.5593
  788SOL     MW 3152   2.864   3.013   2.377 -0.0842 -0.3846 -0.7119
  789SOL     OW 3153   0.078   0.207   3.018 -0.1476  0.0051 -0.1037
  789SOL    HW1 3154   0.021   0.164   3.079  0.1521 -0.7693 -1.5122
  789SOL    HW2 3155   0.023   0.268   2.966 -2.4057 -1.7868  0.5722
  789SOL     MW 3156   0.063   0.210   3.020 -0.4060 -0.3335 -0.2004
  790SOL     OW 3157   3.105   1.048   2.348 -0.5131 -0.1329  0.5971
  790SOL    HW1 3158   3.060   1.008   2.423 -1.2589 -0.1113  2.7327
  790SOL    HW2 3159   3.037   1.055   2.278 -1.0224  0.7634 -2.4655
  790SOL     MW 3160   3.090   1.044   2.349 -0.6787 -0.0118  0.4748
  791SOL     OW 3161   2.612   0.407   2.594 -0.5558 -0.0802  0.1652
  791SOL    HW1 3162   2.537   0.427   2.652 -1.5728 -2.1064 -1.7961
  791SOL    HW2 3163   2.692   0.407   2.647  3.3523 -0.8367  1.1347
  791SOL     MW 3164   2.613   0.410   2.609 -0.1744 -0.4473  0.0343
  792SOL     OW 3165   2.343   0.241   2.422  0.1427  1.0607 -0.0464
  792SOL    HW1 3166   2.266   0.299   2.445 -0.4579  0.7825  1.3499
  792SOL    HW2 3167   2.337   0.202   2.508 -1.7299 -0.3481 -0.0028
  792SOL     MW 3168   2.332   0.244   2.437 -0.1836  0.8381  0.1436
  793SOL     OW 3169   1.965   1.203   1.949 -0.0731 -0.5560 -0.6809
  793SOL    HW1 3170   1.919   1.186   1.863 -1.4190  1.4117 -2.2669
  793SOL    HW2 3171   2.032   1.135   1.961 -1.5707  1.0349  1.8090
  793SOL     MW 3172   1.968   1.192   1.939 -0.4482 -0.0865 -0.5616
  794SOL     OW 3173   1.408   2.367   0.118 -0.1934 -0.2866  0.0401
  794SOL    HW1 3174   1.428   2.445   0.057  0.0427  2.5038 -1.9871
  794SOL    HW2 3175   1.487   2.364   0.177  0.4576  0.4027 -0.0067
  794SOL     MW 3176   1.421   2.377   0.117 -0.0764  0.1725 -0.2336
  795SOL     OW 3177   2.322   1.038   2.570  0.1892 -0.5357  0.8321
  795SOL    HW1 3178   2.294   1.124   2.613  0.9457  1.5602 -1.5271
  795SOL    HW2 3179   2.371   1.079   2.499 -0.6329  1.2300  2.8676
  795SOL     MW 3180   2.325   1.055   2.567  0.1805 -0.0262  0.7894
  796SOL     OW 3181   0.236   0.547   2.788  0.4984  0.0042  0.3040
  796SOL    HW1 3182   0.201   0.622   2.843  1.2486 -0.2230  0.5095
  796SOL    HW2 3183   0.176   0.552   2.708 -1.0025 -1.1228 -1.2961
  796SOL     MW 3184   0.223   0.558   2.785  0.3994 -0.1744  0.1200
  797SOL     OW 3185   2.631   0.108   2.593  0.5265 -0.6541  0.0536
  797SOL    HW1 3186   2.624   0.206   2.616  0.0447 -0.0421  3.2752
  797SOL    HW2 3187   2.668   0.124   2.503 -0.1644  0.3315 -2.8741
  797SOL     MW 3188   2.635   0.123   2.584  0.3718 -0.4433  0.0924
  798SOL     OW 3189   2.301   0.109   2.175  0.1048 -0.0634 -0.0105
  798SOL    HW1 3190   2.294   0.158   2.256  3.1477 -0.9508  1.1573
  798SOL    HW2 3191   2.399   0.098   2.166  0.8673  0.7994  3.0311
  798SOL     MW 3192   2.313   0.114   2.184  0.6068 -0.0666  0.5449
  799SOL     OW 3193   2.551   2.923   0.103  0.0854  0.2343 -0.2898
  799SOL    HW1 3194   2.472   2.904   0.050  0.1645 -1.4403 -0.4681
  799SOL    HW2 3195   2.536   2.964   0.192 -0.7989 -0.3961  0.0367
  799SOL     MW 3196   2.538   2.926   0.108 -0.0209 -0.0698 -0.2703
  800SOL     OW 3197   1.953   3.088   1.700  0.2352 -0.3463  0.4817
  800SOL    HW1 3198   1.899   3.011   1.679  0.1202 -0.3834  1.3718
  800SOL    HW2 3199   2.000   3.068   1.781 -0.2988  1.7863 -2.2303
  800SOL     MW 3200   1.952   3.075   1.708  0.1496 -0.0698  0.2413
  801SOL     OW 3201   2.816   1.270   2.600  0.0136  0.3316  0.2477
  801SOL    HW1 3202   2.787   1.181   2.610 -2.5566  0.0349 -2.4337
  801SOL    HW2 3203   2.905   1.275   2.566  0.6819  0.3675 -0.6314
  801SOL     MW 3204   2.824   1.259   2.597 -0.2374  0.2972 -0.2220
  802SOL     OW 3205   2.625   1.478   2.783  0.4864 -0.6735 -0.3438
  802SOL    HW1 3206   2.584   1.395   2.744 -1.4175  0.9069 -0.0570
  802SOL    HW2 3207   2.710   1.453   2.816 -2.4395  0.7003  1.8837
  802SOL     MW 3208   2.631   1.464   2.783 -0.1508 -0.2837 -0.0121
  803SOL     OW 3209   2.294   1.404   2.009  0.7288  0.2325  0.0200
  803SOL    HW1 3210   2.236   1.370   2.079 -0.0111 -2.7970 -3.7174
  803SOL    HW2 3211   2.283   1.331   1.947  0.4364 -0.2675  0.9587
  803SOL     MW 3212   2.285   1.390   2.010  0.5926 -0.2332 -0.3492
  804SOL     OW 3213   2.252   0.074   0.057  0.1032 -0.7263 -0.0326
  804SOL    HW1 3214   2.209   0.160   0.030  2.5231 -1.6576 -0.9982
  804SOL    HW2 3215   2.331   0.060   0.004 -1.6280  1.4450 -2.2515
  804SOL     MW 3216   2.257   0.084   0.046  0.1940 -0.5627 -0.4528
  805SOL     OW 3217   2.728   1.015   2.569  0.0311  0.1147 -0.2415
  805SOL    HW1 3218   2.692   0.967   2.496 -2.6519  2.9549 -0.7310
  805SOL    HW2 3219   2.824   0.985   2.575  0.1112  0.3108 -1.9559
  805SOL     MW 3220   2.736   1.005   2.560 -0.3123  0.5153 -0.5323
  806SOL     OW 3221   2.561   0.628   2.203 -0.0631 -0.4993 -0.2614
  806SOL    HW1 3222   2.567   0.530   2.196  1.4330 -0.1288 -1.1073
  806SOL    HW2 3223   2.512   0.644   2.123  0.6096  1.3548 -0.3975
  806SOL     MW 3224   2.556   0.617   2.191  0.2230 -0.2058 -0.3910
  807SOL     OW 3225   0.067   1.167   2.038  0.0067  0.2246 -0.4012
  807SOL    HW1 3226   0.121   1.093   2.010 -0.0147 -0.1089 -3.7174
  807SOL    HW2 3227  -0.015   1.132   2.059 -1.7334 -0.9761 -1.3171
  807SOL     MW 3228   0.063   1.152   2.037 -0.2257  0.0222 -0.9596
  808SOL     OW 3229   2.644   3.055   2.816 -0.4488  0.3859  0.0564
  808SOL    HW1 3230   2.587   2.978   2.791  0.1493  0.4210 -1.4334
  808SOL    HW2 3231   2.646   3.102   2.736  0.9756  0.2096  0.5302
  808SOL     MW 3232   2.637   3.051   2.802 -0.1820  0.3673 -0.0776
  809SOL     OW 3233   2.598   1.373   2.481 -0.1354 -0.2336 -0.4357
  809SOL    HW1 3234   2.658   1.324   2.538 -0.1120  0.8315  3.9265
  809SOL    HW2 3235   2.659   1.377   2.408  0.7306 -0.3429 -0.8181
  809SOL     MW 3236   2.614   1.367   2.479 -0.0181 -0.1075  0.0894
  810SOL     OW 3237   2.228   1.316   2.259 -0.1419 -0.4770 -0.7509
  810SOL    HW1 3238   2.288   1.245   2.283  0.6885 -1.6385 -1.1883
  810SOL    HW2 3239   2.165   1.314   2.334  0.0557 -1.1221  0.9912
  810SOL     MW 3240   2.228   1.306   2.272 -0.0062 -0.7153 -0.5787
  811SOL     OW 3241   1.545   0.140   2.291 -0.0634 -0.0575 -0.5029
  811SOL    HW1 3242   1.613   0.072   2.315  0.9485 -1.2237  0.6905
  811SOL    HW2 3243   1.550   0.140   2.195  1.7523  0.0798  0.8247
  811SOL     MW 3244   1.554   0.131   2.281  0.3096 -0.1932 -0.1703
  812SOL     OW 3245   1.440   2.794   1.980 -0.0871  0.4670 -0.4441
  812SOL    HW1 3246   1.529   2.807   1.946 -0.2537  0.5723  2.6347
  812SOL    HW2 3247   1.461   2.773   2.070  0.4237 -0.8361 -0.1756
  812SOL     MW 3248   1.454   2.793   1.988 -0.0417  0.3089 -0.0025
  813SOL     OW 3249   1.915   0.704   2.245 -0.9633 -0.2051 -0.1698
  813SOL    HW1 3250   1.886   0.624   2.275  2.0706 -0.5238 -2.3630
  813SOL    HW2 3251   1.902   0.768   2.319  0.0034  2.7550  0.0548
  813SOL     MW 3252   1.910   0.702   2.259 -0.4354  0.1434 -0.4296
  814SOL     OW 3253   2.686   1.238   1.643 -0.0926 -0.3439 -0.1101
  814SOL    HW1 3254   2.614   1.183   1.670 -1.7177 -3.5942  2.3173
  814SOL    HW2 3255   2.707   1.214   1.553  1.6585 -0.8430 -1.7326
  814SOL     MW 3256   2.679   1.228   1.635 -0.0760 -0.8386 -0.0039
  815SOL     OW 3257   2.538   1.749   2.427 -0.4208 -0.0979 -0.7119
  815SOL    HW1 3258   2.481   1.690   2.395  0.8871  3.8018  0.2476
  815SOL    HW2 3259   2.619   1.697   2.438  1.9163  0.5780  0.2912
  815SOL     MW 3260   2.541   1.735   2.424  0.0601  0.5058 -0.4530
  816SOL     OW 3261   0.761   0.701   2.748  0.6831 -0.9322  0.1009
  816SOL    HW1 3262   0.801   0.628   2.795 -2.5734 -2.2502 -0.3747
  816SOL    HW2 3263   0.663   0.704   2.745 -2.3657 -0.4061 -2.6918
  816SOL     MW 3264   0.754   0.692   2.754 -0.1489 -1.0367 -0.3303
  817SOL     OW 3265   3.023   1.221   1.457  0.7128  0.3619  0.2675
  817SOL    HW1 3266   3.112   1.223   1.486  1.0039 -3.0464  0.1449
  817SOL    HW2 3267   3.013   1.307   1.410 -0.5504  2.9262 -0.7061
  817SOL     MW 3268   3.034   1.233   1.455  0.5845  0.2506  0.1229
  818SOL     OW 3269   1.875   1.050   2.702 -0.3070 -0.9796 -0.0471
  818SOL    HW1 3270   1.857   0.984   2.629  1.0060 -2.1772  2.1255
  818SOL    HW2 3271   1.954   1.020   2.745  0.7941  1.3874 -1.1255
  818SOL     MW 3272   1.883   1.037   2.698  0.0115 -0.8253  0.0972
  819SOL     OW 3273   1.947   0.208   2.448 -0.4361 -0.4033 -0.9151
  819SOL    HW1 3274   1.892   0.285   2.472  2.4099  0.8212 -3.3898
  819SOL    HW2 3275   2.003   0.196   2.527 -0.9079 -0.8432  2.1296
  819SOL     MW 3276   1.948   0.216   2.462 -0.1228 -0.2998 -0.8399
  820SOL     OW 3277   2.533   1.749   2.690 -0.3541  0.4117 -0.2811
  820SOL    HW1 3278   2.561   1.657   2.706  0.1986 -2.3440  1.0259
  820SOL    HW2 3279   2.539   1.760   2.595  1.6001  2.3193  1.9432
  820SOL     MW 3280   2.537   1.739   2.680 -0.0233  0.2998  0.1848
  821SOL     OW 3281   2.578   1.415   2.052 -0.5834 -0.3692  0.0019
  821SOL    HW1 3282   2.604   1.459   1.973  0.6990  3.9232  2.8294
  821SOL    HW2 3283   2.477   1.423   2.051 -1.7587 -1.0781  3.4140
  821SOL     MW 3284   2.568   1.422   2.042 -0.5693  0.1036  0.8251
  822SOL     OW 3285   2.740   2.652   1.400 -0.2814 -0.3357 -0.1753
  822SOL    HW1 3286   2.782   2.659   1.485 -0.4752  1.5609 -2.6846
  822SOL    HW2 3287   2.670   2.720   1.398  0.4928 -1.4943 -0.1897
  822SOL     MW 3288   2.736   2.662   1.411 -0.2048 -0.2383 -0.5082
  823SOL     OW 3289   2.333   0.464   1.783 -0.5515 -0.4382 -0.1461
  823SOL    HW1 3290   2.407   0.450   1.726 -0.3332  2.7836  3.3477
  823SOL    HW2 3291   2.267   0.398   1.751 -3.1416  2.9867  0.6317
  823SOL     MW 3292   2.334   0.454   1.771 -0.8644  0.4388  0.4175
  824SOL     OW 3293   2.136   1.465   2.554 -0.4419  0.1471 -0.5720
  824SOL    HW1 3294   2.206   1.525   2.530  0.0713 -0.1024  1.0365
  824SOL    HW2 3295   2.074   1.517   2.608 -0.1319 -0.7866 -2.8331
  824SOL     MW 3296   2.137   1.480   2.558 -0.3333 -0.0090 -0.6581
  825SOL     OW 3297   1.853   2.530   0.308 -0.1116  0.3513 -0.2991
  825SOL    HW1 3298   1.856   2.477   0.394  2.2352  0.1660  0.6260
  825SOL    HW2 3299   1.927   2.504   0.251 -1.6484  0.3818 -1.4563
  825SOL     MW 3300   1.863   2.520   0.312 -0.0047  0.3309 -0.3297
  826SOL     OW 3301   1.868   2.378   0.524  0.3428 -0.5880  0.1865
  826SOL    HW1 3302   1.854   2.290   0.565  1.9529 -2.5585  0.8498
  826SOL    HW2 3303   1.847   2.436   0.600 -2.1501 -3.1507 -0.1787
  826SOL     MW 3304   1.863   2.374   0.539  0.2263 -1.1861  0.2259
  827SOL     OW 3305   1.948   2.200   0.925 -0.2953  0.3096  0.3239
  827SOL    HW1 3306   1.877   2.263   0.905  0.9690 -1.2375  1.8020
  827SOL    HW2 3307   1.910   2.130   0.972  2.1175 -0.6660 -0.8860
  827SOL     MW 3308   1.934   2.199   0.928  0.1899 -0.0233  0.3593
  828SOL     OW 3309   0.063   2.592   0.600  0.5935  0.9724 -0.6574
  828SOL    HW1 3310   0.156   2.572   0.596 -0.7995  0.2485  0.3450
  828SOL    HW2 3311   0.020   2.629   0.518 -3.8953 -0.7104  0.5232
  828SOL     MW 3312   0.070   2.594   0.589 -0.1826  0.6549 -0.3693
  829SOL     OW 3313   2.951   2.961   1.140 -0.7404 -0.0342 -0.0381
  829SOL    HW1 3314   2.863   2.939   1.104  1.1566 -1.3476 -1.3529
  829SOL    HW2 3315   3.013   2.888   1.119  2.0324 -0.0888  0.2319
  829SOL     MW 3316   2.947   2.948   1.133 -0.1243 -0.2147 -0.1759
  830SOL     OW 3317   2.503   2.881   2.021 -0.3429  0.2428 -0.2889
  830SOL    HW1 3318   2.412   2.885   1.984 -1.0534  1.9630 -0.8021
  830SOL    HW2 3319   2.552   2.840   1.952  0.9183 -1.1157  1.3780
  830SOL     MW 3320   2.498   2.876   2.007 -0.2702  0.2905 -0.1367
  831SOL     OW 3321   2.395   2.493   1.250 -0.0389 -0.5100 -0.0655
  831SOL    HW1 3322   2.370   2.441   1.334  0.0602 -0.7336  1.5705
  831SOL    HW2 3323   2.475   2.443   1.218 -0.9145  0.5293  1.8086
  831SOL     MW 3324   2.403   2.479   1.257 -0.1413 -0.4024  0.3976
  832SOL     OW 3325   2.375   2.187   1.922  0.4518 -0.3827 -0.0916
  832SOL    HW1 3326   2.398   2.273   1.967  2.0854  0.9422 -0.7488
  832SOL    HW2 3327   2.458   2.150   1.885  0.1712  0.9436  0.3708
  832SOL     MW 3328   2.389   2.194   1.923  0.6303 -0.0329 -0.1173
  833SOL     OW 3329   1.761   2.410   0.872  0.1722 -0.4316 -0.6024
  833SOL    HW1 3330   1.674   2.370   0.886  3.1614 -0.7915 -0.2895
  833SOL    HW2 3331   1.777   2.476   0.930 -2.2683  0.3347  1.0548
  833SOL     MW 3332   1.752   2.413   0.881  0.2446 -0.3780 -0.3424
  834SOL     OW 3333   2.136   2.491   0.590  0.3377  0.2033  0.0954
  834SOL    HW1 3334   2.042   2.494   0.564  0.0931 -1.5315 -2.1151
  834SOL    HW2 3335   2.181   2.445   0.523 -2.0121 -2.5910 -2.4981
  834SOL     MW 3336   2.129   2.485   0.577 -0.0046 -0.3943 -0.5384
  835SOL     OW 3337   1.777   2.605   0.663  0.6060  0.2380  0.0038
  835SOL    HW1 3338   1.736   2.553   0.738  1.4838 -0.3430  0.0000
  835SOL    HW2 3339   1.844   2.655   0.702  0.1153 -0.6172  2.6444
  835SOL     MW 3340   1.780   2.605   0.678  0.6571  0.0485  0.3517
  836SOL     OW 3341   1.893   2.197   1.612  0.1432  0.3286  0.2320
  836SOL    HW1 3342   1.985   2.212   1.630  0.7610 -2.7698 -0.5095
  836SOL    HW2 3343   1.841   2.266   1.652 -1.1974 -1.3655  0.3699
  836SOL     MW 3344   1.899   2.208   1.619  0.0479 -0.3037  0.1524
  837SOL     OW 3345   2.109   0.151   0.721  0.6491  0.2898 -0.0749
  837SOL    HW1 3346   2.025   0.194   0.692  1.6102  3.4080  0.4351
  837SOL    HW2 3347   2.134   0.092   0.644  2.1140 -1.8938 -0.1240
  837SOL     MW 3348   2.101   0.149   0.707  0.9692  0.4131 -0.0141
  838SOL     OW 3349   2.944   2.098   0.938  0.4382  0.3621 -0.1280
  838SOL    HW1 3350   2.883   2.051   0.996 -1.2709  0.9883  0.1617
  838SOL    HW2 3351   3.010   2.036   0.911  1.2020  2.2233  1.3883
  838SOL     MW 3352   2.945   2.084   0.942  0.3135  0.6903  0.1103
  839SOL     OW 3353   1.503   2.347   0.953  0.1141  0.7280 -0.1759
  839SOL    HW1 3354   1.476   2.428   0.996 -1.1295 -1.5124  0.4002
  839SOL    HW2 3355   1.504   2.268   1.007  2.1845 -0.5936 -1.0260
  839SOL     MW 3356   1.499   2.348   0.965  0.2232  0.2580 -0.2120
  840SOL     OW 3357   2.354   2.098   2.418 -0.4314 -0.4283 -0.2097
  840SOL    HW1 3358   2.299   2.148   2.368  3.1024 -0.5270  3.1900
  840SOL    HW2 3359   2.386   2.162   2.484 -0.2495  1.4587 -2.4132
  840SOL     MW 3360   2.351   2.113   2.420  0.0589 -0.1923 -0.0518
  841SOL     OW 3361   2.079   2.493   0.135  0.1152  0.0183  0.1682
  841SOL    HW1 3362   2.134   2.527   0.060 -0.5801 -1.0996 -0.9469
  841SOL    HW2 3363   2.058   2.398   0.113  0.9768 -1.6384  0.8583
  841SOL     MW 3364   2.083   2.485   0.122  0.1372 -0.3478  0.1121
  842SOL     OW 3365   2.579   2.017   1.553  0.5344 -1.2830  0.3704
  842SOL    HW1 3366   2.547   1.930   1.552 -2.0041  1.0789  0.9355
  842SOL    HW2 3367   2.542   2.057   1.476  0.7081  2.0949 -1.0524
  842SOL     MW 3368   2.570   2.011   1.542  0.2224 -0.5257  0.2572
  843SOL     OW 3369   2.637   2.770   1.792 -0.6722  0.0495  0.5055
  843SOL    HW1 3370   2.701   2.719   1.734  2.1752 -4.1750 -1.1350
  843SOL    HW2 3371   2.559   2.712   1.777  1.5629  0.1986  0.4520
  843SOL     MW 3372   2.636   2.756   1.782 -0.0016 -0.4882  0.2820
  844SOL     OW 3373   2.592   2.321   1.179 -0.0765 -0.5932 -0.0500
  844SOL    HW1 3374   2.618   2.336   1.088 -1.3906  1.7768  2.5387
  844SOL    HW2 3375   2.668   2.344   1.247  1.1144  2.0718 -1.1669
  844SOL     MW 3376   2.606   2.326   1.176 -0.0928  0.0711  0.1442
  845SOL     OW 3377   2.850   2.489   0.280  0.0203 -0.2879 -0.1762
  845SOL    HW1 3378   2.792   2.414   0.293  0.5373 -0.1789 -3.4654
  845SOL    HW2 3379   2.856   2.521   0.373 -2.0703  1.8397 -1.2836
  845SOL     MW 3380   2.843   2.483   0.294 -0.1873  0.0072 -0.7563
  846SOL     OW 3381   1.509   2.910   0.767  0.2896 -0.2235  0.1582
  846SOL    HW1 3382   1.593   2.936   0.802  2.0503  2.5467 -0.3036
  846SOL    HW2 3383   1.448   2.967   0.816 -1.1310  1.8035  1.0861
  846SOL     MW 3384   1.512   2.921   0.778  0.3345  0.4095  0.2197
  847SOL     OW 3385   2.590   1.934   0.162 -0.8256 -0.3564 -0.1560
  847SOL    HW1 3386   2.670   1.872   0.175  2.3337  0.1887 -1.4622
  847SOL    HW2 3387   2.523   1.884   0.106  0.4519  2.3245 -1.7535
  847SOL     MW 3388   2.591   1.919   0.157 -0.2402  0.0692 -0.5391
  848SOL     OW 3389   2.468   2.115   1.314  0.8316  0.3815  0.5388
  848SOL    HW1 3390   2.537   2.162   1.262  1.9802 -0.7902 -0.1556
  848SOL    HW2 3391   2.454   2.026   1.279  0.5302 -2.0292  2.3296
  848SOL     MW 3392   2.475   2.109   1.302  0.9434 -0.0911  0.6835
  849SOL     OW 3393   1.998   2.748   0.749 -0.0161 -0.4253  0.1797
  849SOL    HW1 3394   2.018   2.702   0.831 -1.6970  1.6268 -2.1159
  849SOL    HW2 3395   2.065   2.728   0.685 -0.0978 -0.9401 -3.5810
  849SOL     MW 3396   2.009   2.739   0.752 -0.2486 -0.2225 -0.6193
  850SOL     OW 3397   2.197   1.963   1.694 -0.4774 -0.3445 -1.1737
  850SOL    HW1 3398   2.140   1.921   1.633 -0.8969  1.1453  0.0933
  850SOL    HW2 3399   2.171   2.057   1.703 -0.5893  1.2224  1.0745
  850SOL     MW 3400   2.186   1.970   1.687 -0.5475  0.0588 -0.7099
  851SOL     OW 3401   2.247   2.418   0.341 -0.0171 -0.2340 -0.3285
  851SOL    HW1 3402   2.199   2.470   0.270 -0.9258  0.1451  0.9763
  851SOL    HW2 3403   2.320   2.484   0.357  0.2756  1.9499  2.5058
  851SOL     MW 3404   2.250   2.434   0.334 -0.0984  0.1041  0.2176
  852SOL     OW 3405   2.346   2.168   0.230  0.1918 -0.0619  0.3733
  852SOL    HW1 3406   2.315   2.252   0.269  0.2403  1.8791 -2.1878
  852SOL    HW2 3407   2.433   2.182   0.198  4.8870 -0.4697  0.6845
  852SOL     MW 3408   2.354   2.181   0.231  0.8177  0.1404  0.0764
  853SOL     OW 3409   2.479   2.443   2.000  0.3815 -0.2261  0.6420
  853SOL    HW1 3410   2.490   2.479   1.914  3.5075 -2.8104  0.0895
  853SOL    HW2 3411   2.566   2.430   2.035  0.8690 -0.1891  1.7372
  853SOL     MW 3412   2.492   2.446   1.993  0.8583 -0.5622  0.7136
  854SOL     OW 3413   2.805   2.275   0.776 -0.2181 -0.0049  0.1658
  854SOL    HW1 3414   2.726   2.218   0.761 -0.4027 -0.7643 -0.5757
  854SOL    HW2 3415   2.868   2.226   0.834  0.2613 -1.6594 -1.8093
  854SOL     MW 3416   2.803   2.261   0.781 -0.1792 -0.3234 -0.1926
  855SOL     OW 3417   2.695   2.263   0.360  0.1335 -0.0193 -0.0359
  855SOL    HW1 3418   2.656   2.287   0.446 -0.4410  0.2729 -1.0170
  855SOL    HW2 3419   2.756   2.196   0.383  3.7015  1.0707 -0.5910
  855SOL     MW 3420   2.698   2.258   0.374  0.5285  0.1631 -0.2386
  856SOL     OW 3421   2.211   1.912   0.195  0.1985 -0.1303 -0.1149
  856SOL    HW1 3422   2.117   1.920   0.225 -0.2374  0.3061  1.8109
  856SOL    HW2 3423   2.237   2.002   0.218  0.0289  0.6518  0.4364
  856SOL     MW 3424   2.202   1.925   0.202  0.1186  0.0305  0.2119
  857SOL     OW 3425   2.580   1.978   0.451 -0.0797 -0.4511 -0.1748
  857SOL    HW1 3426   2.595   2.065   0.404 -2.1817 -0.7498 -0.3461
  857SOL    HW2 3427   2.520   1.943   0.391 -0.9665 -0.4011 -2.4139
  857SOL     MW 3428   2.574   1.985   0.437 -0.4740 -0.4839 -0.4928
  858SOL     OW 3429   2.835   2.656   1.644 -0.7883  0.0982 -0.0190
  858SOL    HW1 3430   2.922   2.697   1.638  0.0506  0.2558  1.2966
  858SOL    HW2 3431   2.839   2.595   1.718  1.8452 -1.3834  0.8226
  858SOL     MW 3432   2.847   2.653   1.653 -0.3302 -0.0765  0.2656
  859SOL     OW 3433   2.109   2.540   0.883  0.4427 -0.2674  0.2413
  859SOL    HW1 3434   2.105   2.515   0.793 -1.9272  0.9406  0.9772
  859SOL    HW2 3435   2.193   2.586   0.894  2.1717  1.4695  0.7679
  859SOL     MW 3436   2.120   2.543   0.872  0.3581  0.1212  0.4078
  860SOL     OW 3437   2.624   2.591   0.135 -0.4333  0.0329  0.2465
  860SOL    HW1 3438   2.695   2.560   0.188 -0.3727  0.3429 -1.9084
  860SOL    HW2 3439   2.665   2.664   0.089 -0.4153  0.9053  1.6393
  860SOL     MW 3440   2.639   2.597   0.136 -0.4229  0.1889  0.1460
  861SOL     OW 3441   1.540   2.124   1.139  0.1759  0.0242 -0.3723
  861SOL    HW1 3442   1.564   2.201   1.205  2.9081 -1.3294  1.9262
  861SOL    HW2 3443   1.497   2.066   1.195 -0.8729  0.8374 -4.0754
  861SOL     MW 3444   1.537   2.126   1.155  0.3980 -0.0471 -0.5576
  862SOL     OW 3445   2.422   1.775   1.560  0.0478 -0.4691  0.1172
  862SOL    HW1 3446   2.378   1.813   1.638 -3.9202  0.0501 -1.1747
  862SOL    HW2 3447   2.388   1.816   1.480 -0.1776  2.0383 -1.4886
  862SOL     MW 3448   2.412   1.785   1.560 -0.5055 -0.0698 -0.2651
  863SOL     OW 3449   0.029   1.909   1.132 -0.8326 -0.0125 -0.8050
  863SOL    HW1 3450   0.119   1.907   1.148 -1.3920  2.0845  0.4435
  863SOL    HW2 3451  -0.008   1.965   1.205 -2.5067 -0.4512  1.2999
  863SOL     MW 3452   0.036   1.916   1.144 -1.1273  0.2063 -0.3625
  864SOL     OW 3453   0.031   1.907   0.857 -0.0604  0.6347  0.0339
  864SOL    HW1 3454   0.021   1.893   0.954 -0.7882 -2.0456 -0.5757
  864SOL    HW2 3455  -0.033   1.861   0.811  1.2824  1.5467  1.9282
  864SOL     MW 3456   0.021   1.899   0.863  0.0208  0.4014  0.2034
  865SOL     OW 3457   2.616   2.158   0.015  0.0009 -0.3162 -0.5494
  865SOL    HW1 3458   2.628   2.078   0.072 -0.4303  0.3434  1.0928
  865SOL    HW2 3459   2.592   2.129  -0.073  1.3652 -0.0328 -0.8887
  865SOL     MW 3460   2.614   2.144   0.011  0.1240 -0.1918 -0.3775
  866SOL     OW 3461   2.680   2.311   1.604  0.4873  0.1086 -0.3494
  866SOL    HW1 3462   2.640   2.227   1.620  2.1321  0.2401  0.8441
  866SOL    HW2 3463   2.744   2.302   1.531 -1.2338  0.4074 -0.1883
  866SOL     MW 3464   2.683   2.299   1.597  0.4772  0.1654 -0.1707
  867SOL     OW 3465   0.008   2.662   1.793 -0.1653  0.0347 -0.0785
  867SOL    HW1 3466  -0.006   2.673   1.889 -0.8976 -0.5084 -1.7670
  867SOL    HW2 3467  -0.021   2.740   1.753 -1.4305 -0.7190 -1.4868
  867SOL     MW 3468   0.002   2.674   1.801 -0.4289 -0.1364 -0.4871
  868SOL     OW 3469   2.826   2.582   0.534 -0.0287  0.0443  0.0525
  868SOL    HW1 3470   2.749   2.527   0.553  1.5398 -0.6604  0.4276
  868SOL    HW2 3471   2.801   2.663   0.493  3.3509  1.0181 -1.5200
  868SOL     MW 3472   2.813   2.585   0.531  0.6242  0.0798 -0.1055
  869SOL     OW 3473   1.998   2.385   1.118  0.2402 -0.0819  0.6142
  869SOL    HW1 3474   2.038   2.446   1.054  0.4902  0.6228  1.1341
  869SOL    HW2 3475   1.970   2.306   1.063 -3.6640 -1.4380 -1.9875
  869SOL     MW 3476   1.999   2.383   1.102 -0.2419 -0.1679  0.3395
  870SOL     OW 3477   2.153   0.038   0.466  0.0427  0.4228  0.6556
  870SOL    HW1 3478   2.218   0.114   0.443  0.1771  1.1638  1.4562
  870SOL    HW2 3479   2.203  -0.044   0.438 -1.0382  0.1568  0.6864
  870SOL     MW 3480   2.168   0.037   0.459 -0.0822  0.4854  0.7653
  871SOL     OW 3481   2.472   2.133   0.955 -0.2413 -0.3679 -0.6069
  871SOL    HW1 3482   2.404   2.074   0.922  0.7160 -0.6360  0.3867
  871SOL    HW2 3483   2.423   2.185   1.022 -1.1096 -1.5081  0.4403
  871SOL     MW 3484   2.457   2.132   0.959 -0.2295 -0.5537 -0.3376
  872SOL     OW 3485   2.041   2.559   1.436 -0.1509 -0.1987  0.0229
  872SOL    HW1 3486   2.024   2.584   1.529 -0.2126 -0.5136  0.5963
  872SOL    HW2 3487   1.969   2.496   1.420 -2.2485  0.3065  1.3139
  872SOL     MW 3488   2.030   2.554   1.446 -0.4358 -0.1736  0.2689
  873SOL     OW 3489   2.907   2.062   1.931  0.1432  0.2305 -0.0775
  873SOL    HW1 3490   2.939   2.135   1.991 -1.8325  1.9776  1.2247
  873SOL    HW2 3491   2.979   2.068   1.865  0.6266 -0.1404 -1.7201
  873SOL     MW 3492   2.921   2.073   1.931 -0.0537  0.4121 -0.1224
  874SOL     OW 3493   2.393   1.503   2.368  0.2589 -0.0047 -0.1203
  874SOL    HW1 3494   2.346   1.426   2.335  2.1107  1.0964  0.5826
  874SOL    HW2 3495   2.461   1.459   2.420  1.1446 -1.2082  2.8696
  874SOL     MW 3496   2.395   1.487   2.370  0.6201 -0.0182  0.3670
  875SOL     OW 3497   2.278   2.304   1.070 -0.1963  1.0050  0.2674
  875SOL    HW1 3498   2.318   2.351   0.995  2.3721  1.8536  3.4672
  875SOL    HW2 3499   2.310   2.364   1.141 -1.6109  0.6593 -0.3544
  875SOL     MW 3500   2.288   2.318   1.069 -0.0441  1.0713  0.6076
  876SOL     OW 3501   3.046   2.306   1.237  0.0854  0.2891  0.0102
  876SOL    HW1 3502   3.083   2.334   1.146  1.4615  2.0996 -0.2669
  876SOL    HW2 3503   3.108   2.346   1.301  3.0185 -2.4251  2.1715
  876SOL     MW 3504   3.059   2.315   1.233  0.6539  0.1699  0.2588
  877SOL     OW 3505   3.087   2.729   0.378  0.1060 -0.9024 -0.4454
  877SOL    HW1 3506   3.157   2.794   0.378  0.1465  1.1732 -0.6042
  877SOL    HW2 3507   3.097   2.689   0.292 -0.5931 -1.3788 -0.8813
  877SOL     MW 3508   3.098   2.732   0.367  0.0191 -0.6914 -0.5239
  878SOL     OW 3509   2.412   1.839   1.261 -0.0594  0.8049  0.3602
  878SOL    HW1 3510   2.361   1.761   1.274  0.5006 -0.1595 -1.9075
  878SOL    HW2 3511   2.502   1.808   1.249  1.5850 -1.4074  2.1714
  878SOL     MW 3512   2.417   1.824   1.261  0.2314  0.3857  0.2999
  879SOL     OW 3513   2.675   2.430   0.950 -0.1631 -0.4966  0.4882
  879SOL    HW1 3514   2.749   2.479   0.982  0.5618  0.2384 -0.6453
  879SOL    HW2 3515   2.723   2.369   0.885  0.0335 -0.3489 -0.8783
  879SOL     MW 3516   2.691   2.428   0.945 -0.0415 -0.3801  0.1583
  880SOL     OW 3517   2.523   2.162   0.678 -0.1659  0.1602  0.1384
  880SOL    HW1 3518   2.494   2.136   0.760 -3.1744 -1.7096  0.4676
  880SOL    HW2 3519   2.515   2.086   0.617  1.3085 -1.9368  1.1085
  880SOL     MW 3520   2.518   2.149   0.680 -0.3683 -0.3632  0.3098
  881SOL     OW 3521   2.957   2.657   0.771  0.2993 -0.1956  0.0534
  881SOL    HW1 3522   2.885   2.617   0.724 -1.7273 -0.1184  0.5754
  881SOL    HW2 3523   3.040   2.638   0.724  0.8137  2.0061 -2.0260
  881SOL     MW 3524   2.958   2.649   0.759  0.0998  0.1051 -0.1521
  882SOL     OW 3525   2.252   2.871   1.956 -0.0693  0.3340  0.3409
  882SOL    HW1 3526   2.263   2.843   1.864  3.0276  0.0079  0.3380
  882SOL    HW2 3527   2.196   2.799   1.994  0.5561 -0.7614 -1.0983
  882SOL     MW 3528   2.246   2.858   1.949  0.4218  0.1465  0.1507
  883SOL     OW 3529   2.310   2.315   1.445 -0.3879 -0.2231  0.2311
  883SOL    HW1 3530   2.376   2.247   1.417  1.9304 -2.6036  0.6448
  883SOL    HW2 3531   2.225   2.287   1.401 -0.5164 -1.1334  1.8282
  883SOL     MW 3532   2.307   2.302   1.435 -0.0989 -0.6573  0.4964
  884SOL     OW 3533   1.993   1.850   1.141 -0.7014 -0.0697  0.3583
  884SOL    HW1 3534   1.925   1.916   1.133  0.3677  2.3813  1.0774
  884SOL    HW2 3535   2.066   1.897   1.106  0.5183 -0.6709  3.4726
  884SOL     MW 3536   1.994   1.865   1.135 -0.3994  0.1743  0.8641
  885SOL     OW 3537   2.822   2.436   1.800 -0.0151  0.1002 -0.5254
  885SOL    HW1 3538   2.906   2.382   1.797 -0.2265 -1.5578  0.4615
  885SOL    HW2 3539   2.761   2.389   1.733 -0.1118 -1.8701 -0.4215
  885SOL     MW 3540   2.825   2.423   1.790 -0.0558 -0.3785 -0.3815
  886SOL     OW 3541   2.797   2.375   1.354 -0.2935  0.4408  0.2146
  886SOL    HW1 3542   2.878   2.359   1.306  0.9330 -0.0894  2.6092
  886SOL    HW2 3543   2.794   2.472   1.373  0.5995  0.4773  4.0205
  886SOL     MW 3544   2.807   2.385   1.350 -0.0139  0.3757  1.0327
  887SOL     OW 3545   2.294   2.605   1.535 -0.2754  0.0524 -0.3839
  887SOL    HW1 3546   2.307   2.676   1.462  1.9564  0.4623  0.7605
  887SOL    HW2 3547   2.241   2.540   1.485  0.6019 -2.3156 -0.7424
  887SOL     MW 3548   2.288   2.606   1.518  0.1348 -0.2059 -0.2802
  888SOL     OW 3549   1.844   2.096   1.371 -0.2173  0.9559 -0.8922
  888SOL    HW1 3550   1.932   2.118   1.352 -0.8949  1.2229  1.2965
  888SOL    HW2 3551   1.845   2.122   1.462 -2.2631  0.6480  0.0994
  888SOL     MW 3552   1.856   2.102   1.380 -0.5767  0.9505 -0.4726
  889SOL     OW 3553   2.324   1.971   2.102  0.3379 -0.3849 -0.2059
  889SOL    HW1 3554   2.401   1.975   2.160  1.1403 -1.1498 -1.5166
  889SOL    HW2 3555   2.337   2.052   2.052  0.8613  0.0214 -1.1226
  889SOL     MW 3556   2.336   1.982   2.103  0.5128 -0.4322 -0.4998
  890SOL     OW 3557   0.097   2.388   0.193  0.2609  0.1870 -0.5524
  890SOL    HW1 3558   0.034   2.457   0.187 -0.6321  1.9479  0.6703
  890SOL    HW2 3559   0.070   2.327   0.261  3.4832  1.7176  1.0443
  890SOL     MW 3560   0.085   2.389   0.201  0.5682  0.6213 -0.1804
  891SOL     OW 3561   2.985   2.058   1.307  0.2550 -0.4132  0.7582
  891SOL    HW1 3562   3.060   2.054   1.373 -0.7179 -0.9239  0.6889
  891SOL    HW2 3563   3.000   2.134   1.248  0.8321 -0.7738  1.5101
  891SOL     MW 3564   2.997   2.067   1.308  0.2028 -0.5281  0.8482
  892SOL     OW 3565   2.435   2.361   2.849  0.0970 -0.0663 -0.1209
  892SOL    HW1 3566   2.441   2.282   2.898  0.0941  0.1221 -0.6708
  892SOL    HW2 3567   2.519   2.402   2.871 -0.9780 -1.4193  1.1105
  892SOL     MW 3568   2.447   2.356   2.858 -0.0452 -0.2200 -0.0309
  893SOL     OW 3569   1.596   2.355   1.280  0.4789 -1.0452  0.4086
  893SOL    HW1 3570   1.535   2.419   1.325 -0.0048  1.0255  0.6677
  893SOL    HW2 3571   1.681   2.359   1.321 -0.0540 -0.4892 -1.2420
  893SOL     MW 3572   1.599   2.364   1.292  0.3448 -0.6987  0.2250
  894SOL     OW 3573   2.814   1.803   0.440  0.0663 -0.8565  0.0234
  894SOL    HW1 3574   2.729   1.856   0.462 -3.6661  2.6362  2.1063
  894SOL    HW2 3575   2.806   1.791   0.349 -0.2963  1.1635  2.0731
  894SOL     MW 3576   2.802   1.809   0.431 -0.4740 -0.1291  0.5687
  895SOL     OW 3577   2.094   2.218   1.311  1.0894 -0.5976 -0.0822
  895SOL    HW1 3578   2.069   2.281   1.246  2.8110 -0.2363  1.9243
  895SOL    HW2 3579   2.133   2.144   1.260 -2.1088  1.8652 -1.3090
  895SOL     MW 3580   2.096   2.216   1.296  0.8946 -0.2250  0.0207
  896SOL     OW 3581   2.139   2.821   1.086 -0.0704 -0.2133 -0.1993
  896SOL    HW1 3582   2.214   2.825   1.145  1.0500 -1.9275  0.9696
  896SOL    HW2 3583   2.071   2.784   1.147  1.8933  0.8247 -0.9993
  896SOL     MW 3584   2.140   2.816   1.102  0.3365 -0.3026 -0.1506
  897SOL     OW 3585   3.008   2.923   0.099  0.4678 -0.0806  0.1087
  897SOL    HW1 3586   3.076   2.899   0.039  0.7561 -1.4251  3.1886
  897SOL    HW2 3587   2.952   2.851   0.089 -1.8758 -0.8048  1.6393
  897SOL     MW 3588   3.010   2.910   0.090  0.1966 -0.3536  0.7170
  898SOL     OW 3589   2.080   0.253   1.404 -0.3617  0.4039 -0.2719
  898SOL    HW1 3590   2.036   0.165   1.402 -1.1667 -0.5983 -2.3945
  898SOL    HW2 3591   2.063   0.289   1.318 -0.4209  0.4754 -0.7442
  898SOL     MW 3592   2.072   0.246   1.392 -0.4757  0.2811 -0.6143
  899SOL     OW 3593   2.910   2.891   0.643  0.1421 -0.0064 -0.3645
  899SOL    HW1 3594   2.924   2.809   0.696 -0.9804 -0.0560 -2.1486
  899SOL    HW2 3595   2.826   2.928   0.677  0.9542 -0.3772  0.7981
  899SOL     MW 3596   2.901   2.885   0.654  0.1011 -0.0619 -0.4465
  900SOL     OW 3597   0.088   2.396   1.015 -0.2316  0.0441 -0.6330
  900SOL    HW1 3598   0.078   2.491   1.010 -0.3834  2.5129 -1.9441
  900SOL    HW2 3599   0.097   2.365   0.925 -0.2771  0.0713 -1.3355
  900SOL     MW 3600   0.088   2.404   1.003 -0.2577  0.3734 -0.8987
  901SOL     OW 3601   1.808   2.859   1.686  0.4927  0.1024  0.3431
  901SOL    HW1 3602   1.870   2.794   1.662  0.2474  0.7536 -1.3472
  901SOL    HW2 3603   1.742   2.860   1.613  1.7136  0.2425 -2.2105
  901SOL     MW 3604   1.807   2.851   1.673  0.6214  0.2068 -0.2169
  902SOL     OW 3605   2.650   2.110   1.860 -0.0389  0.5287  0.2261
  902SOL    HW1 3606   2.645   2.016   1.842  3.2479 -0.5835 -2.4289
  902SOL    HW2 3607   2.744   2.127   1.879 -0.7973  1.3389 -2.6691
  902SOL     MW 3608   2.662   2.100   1.860  0.2947  0.4889 -0.5062
  903SOL     OW 3609   1.613   2.775   0.528 -0.2928  0.2046  0.1218
  903SOL    HW1 3610   1.666   2.713   0.585 -0.1783 -0.6385 -0.7469
  903SOL    HW2 3611   1.566   2.837   0.586 -1.7906  2.0896 -0.0230
  903SOL     MW 3612   1.614   2.775   0.543 -0.4753  0.3421 -0.0119
  904SOL     OW 3613   2.506   2.517   1.720  0.2256 -0.4544 -0.1477
  904SOL    HW1 3614   2.437   2.541   1.658  2.2852 -1.3526 -0.7793
  904SOL    HW2 3615   2.563   2.466   1.670 -0.0298  1.1196  1.8844
  904SOL     MW 3616   2.504   2.514   1.706  0.4637 -0.3652  0.0371
  905SOL     OW 3617   2.306   2.534   2.199 -0.3604  0.2775 -0.2906
  905SOL    HW1 3618   2.367   2.493   2.131  2.7287 -0.5950  0.8684
  905SOL    HW2 3619   2.263   2.453   2.249  1.0880  0.9828  0.9560
  905SOL     MW 3620   2.309   2.518   2.197  0.2383  0.2555  0.0268
  906SOL     OW 3621   2.404   2.507   0.904 -0.1248 -0.2581  0.5773
  906SOL    HW1 3622   2.499   2.490   0.903  0.8759  1.9675  1.4336
  906SOL    HW2 3623   2.410   2.603   0.901  0.8394  1.3891  0.7977
  906SOL     MW 3624   2.418   2.518   0.903  0.1345  0.2529  0.7194
  907SOL     OW 3625   2.547   2.896   1.315  0.0911 -0.5579  0.6541
  907SOL    HW1 3626   2.621   2.949   1.349 -2.3674  1.3466 -0.4774
  907SOL    HW2 3627   2.577   2.869   1.220  1.7582  0.9893  0.8338
  907SOL     MW 3628   2.561   2.899   1.307 -0.0133 -0.1025  0.5285
  908SOL     OW 3629   2.766   2.368   0.005  0.3470  0.1357  0.1785
  908SOL    HW1 3630   2.714   2.277   0.008 -1.5611 -2.1211  3.0523
  908SOL    HW2 3631   2.712   2.436   0.050  0.6763  1.8054  1.6595
  908SOL     MW 3632   2.752   2.365   0.011  0.1387  0.0582  0.7530
  909SOL     OW 3633   1.600   0.176   1.158  0.6063 -0.0027  0.6294
  909SOL    HW1 3634   1.579   0.238   1.091 -1.2524  1.2229  1.2475
  909SOL    HW2 3635   1.597   0.224   1.235 -2.1806 -1.9703 -0.3186
  909SOL     MW 3636   1.597   0.190   1.159 -0.0066 -0.1006  0.5859
  910SOL     OW 3637   2.316   1.784   0.442  0.2671  0.5010 -0.0349
  910SOL    HW1 3638   2.249   1.718   0.461 -0.6744 -0.3543  1.3640
  910SOL    HW2 3639   2.275   1.835   0.370  0.1127  1.8627  0.4918
  910SOL     MW 3640   2.302   1.782   0.435  0.1225  0.5678  0.2192
  911SOL     OW 3641   2.212   2.250   1.708  0.2249 -0.3109 -0.2639
  911SOL    HW1 3642   2.286   2.224   1.769 -0.3560  0.9704 -0.0847
  911SOL    HW2 3643   2.253   2.276   1.619 -0.5072 -1.0144 -0.3768
  911SOL     MW 3644   2.227   2.250   1.704  0.0517 -0.2347 -0.2551
  912SOL     OW 3645   2.841   1.932   1.509  0.0723 -0.5107 -0.7418
  912SOL    HW1 3646   2.883   1.982   1.432  1.3160  0.4722 -3.0550
  912SOL    HW2 3647   2.746   1.948   1.514 -1.1488 -1.5277  1.2760
  912SOL     MW 3648   2.834   1.941   1.499  0.0753 -0.5152 -0.7807
  913SOL     OW 3649   2.576   2.991   0.365  0.4220  0.2247 -0.2654
  913SOL    HW1 3650   2.650   2.929   0.354  1.1022  0.1796 -1.3205
  913SOL    HW2 3651   2.489   2.946   0.372 -0.9729  0.3412 -1.5179
  913SOL     MW 3652   2.574   2.977   0.365  0.3277  0.2341 -0.5699
  914SOL     OW 3653   2.758   1.636   3.037 -0.2295  1.0391  0.1000
  914SOL    HW1 3654   2.745   1.721   3.003 -0.0877  1.7073 -0.8860
  914SOL    HW2 3655   2.676   1.622   3.093  0.5074 -0.7395  1.0636
  914SOL     MW 3656   2.745   1.645   3.040 -0.1136  0.8926  0.0971
  915SOL     OW 3657   1.809   0.257   0.181 -0.2317 -0.2327  0.5670
  915SOL    HW1 3658   1.884   0.203   0.196  0.0568  1.2755 -1.0351
  915SOL    HW2 3659   1.733   0.215   0.221  1.5039 -2.3601  1.3542
  915SOL     MW 3660   1.809   0.244   0.189  0.0354 -0.3144  0.4595
  916SOL     OW 3661   1.712   2.069   1.935 -0.3296 -0.4754  0.0028
  916SOL    HW1 3662   1.756   2.157   1.930 -0.4421 -0.7274 -1.3666
  916SOL    HW2 3663   1.761   2.005   1.880  2.7640  0.7341  0.0513
  916SOL     MW 3664   1.724   2.072   1.927  0.0638 -0.3491 -0.1715
  917SOL     OW 3665   2.424   2.323   2.578 -0.1578  0.1902 -0.4241
  917SOL    HW1 3666   2.421   2.337   2.676  0.9680  0.1608 -0.4206
  917SOL    HW2 3667   2.516   2.319   2.554 -0.2177 -0.7098 -0.7130
  917SOL     MW 3668   2.435   2.325   2.588 -0.0171  0.0675 -0.4617
  918SOL     OW 3669   2.007   1.639   2.706 -0.1976 -0.0348 -0.2067
  918SOL    HW1 3670   1.950   1.671   2.632 -1.1880 -0.0205  1.9831
  918SOL    HW2 3671   2.099   1.674   2.701  2.4466 -0.7473  0.6462
  918SOL     MW 3672   2.012   1.648   2.696  0.0206 -0.1269  0.1947
  919SOL     OW 3673   0.055   2.352   2.252  0.0963 -0.0753 -0.4121
  919SOL    HW1 3674  -0.035   2.316   2.221 -1.7638 -0.5578 -2.3024
  919SOL    HW2 3675   0.125   2.326   2.187 -0.6664 -1.1993 -1.8711
  919SOL     MW 3676   0.052   2.344   2.240 -0.2498 -0.2873 -0.8540
  920SOL     OW 3677   2.761   2.782   3.103  0.3294 -0.0829  0.5177
  920SOL    HW1 3678   2.694   2.844   3.144  1.3718  0.8226  2.6627
  920SOL    HW2 3679   2.751   2.786   3.000 -1.4126 -2.8831 -1.2353
  920SOL     MW 3680   2.751   2.791   3.095  0.2371 -0.3329  0.5695
  921SOL     OW 3681   2.418   2.638   2.695 -0.5449  0.1283 -0.4880
  921SOL    HW1 3682   2.458   2.626   2.612 -1.8549  0.6308  0.8964
  921SOL    HW2 3683   2.419   2.552   2.744 -1.5424  2.1983  3.5377
  921SOL     MW 3684   2.424   2.625   2.690 -0.8494  0.4678  0.2258
  922SOL     OW 3685   2.005   2.775   0.302  0.0387  0.0728 -0.6794
  922SOL    HW1 3686   1.991   2.793   0.208  1.0460  0.0117  0.1792
  922SOL    HW2 3687   1.960   2.697   0.316 -2.4694 -0.1696 -2.0508
  922SOL     MW 3688   1.997   2.767   0.292 -0.1593  0.0328 -0.7471
  923SOL     OW 3689   2.210   2.794   1.715 -0.2657 -0.1066 -0.4008
  923SOL    HW1 3690   2.263   2.725   1.668  0.1056 -0.2924 -0.0923
  923SOL    HW2 3691   2.181   2.837   1.635  0.1348 -0.6282 -1.3821
  923SOL     MW 3692   2.213   2.790   1.698 -0.1639 -0.1999 -0.4896
  924SOL     OW 3693   1.193   2.689   2.558  0.0007 -0.3282 -0.2235
  924SOL    HW1 3694   1.269   2.746   2.526  2.8717 -0.8598  1.0650
  924SOL    HW2 3695   1.244   2.620   2.610  0.8654  1.2705  2.7100
  924SOL     MW 3696   1.210   2.688   2.560  0.4936 -0.1874  0.3335
  925SOL     OW 3697   2.957   0.226   2.593 -0.1079  0.2158  0.1902
  925SOL    HW1 3698   2.975   0.270   2.507 -2.0442 -0.7285  1.4762
  925SOL    HW2 3699   2.883   0.280   2.630 -1.9663 -0.0656  1.0791
  925SOL     MW 3700   2.950   0.239   2.587 -0.6086  0.0541  0.4772
  926SOL     OW 3701   2.740   2.404   2.084  0.1542  0.0498  0.4925
  926SOL    HW1 3702   2.785   2.472   2.138 -2.0570  1.1144  2.8225
  926SOL    HW2 3703   2.770   2.408   1.993 -0.7981 -1.3309  0.0872
  926SOL     MW 3704   2.750   2.413   2.079 -0.2632  0.0081  0.7464
  927SOL     OW 3705   2.325   0.190   0.301 -0.1074 -0.1422  0.3610
  927SOL    HW1 3706   2.422   0.196   0.309  2.3022 -2.4098 -0.9530
  927SOL    HW2 3707   2.313   0.156   0.208 -1.5020 -0.0597 -2.6788
  927SOL     MW 3708   2.337   0.186   0.290  0.0266 -0.4305 -0.2135
  928SOL     OW 3709   2.075   2.440   1.861 -0.0926  0.4042  0.2493
  928SOL    HW1 3710   2.132   2.391   1.801  0.1112 -0.1727 -0.3825
  928SOL    HW2 3711   2.130   2.496   1.914 -1.1647 -0.5818 -0.2736
  928SOL     MW 3712   2.090   2.441   1.860 -0.2072  0.1980  0.0969
  929SOL     OW 3713   2.664   2.362   2.427  0.0495  0.1808 -0.3000
  929SOL    HW1 3714   2.704   2.382   2.346 -3.1680  1.8308  0.5860
  929SOL    HW2 3715   2.731   2.337   2.493 -1.0002 -0.1637 -2.9141
  929SOL     MW 3716   2.678   2.361   2.425 -0.5135  0.3530 -0.5280
  930SOL     OW 3717   2.008   2.855   2.678 -0.0259 -0.2726 -0.1924
  930SOL    HW1 3718   2.052   2.779   2.727 -0.6945  0.1080  3.3995
  930SOL    HW2 3719   2.068   2.922   2.670 -0.9378 -0.0875  0.4276
  930SOL     MW 3720   2.021   2.853   2.683 -0.2345 -0.1980  0.3633
  931SOL     OW 3721   2.963   2.793   2.266  0.3474 -0.9351 -0.0502
  931SOL    HW1 3722   3.019   2.798   2.348 -0.5727 -0.5357  2.5125
  931SOL    HW2 3723   3.022   2.812   2.199 -1.2050  1.2802  0.1135
  931SOL     MW 3724   2.978   2.796   2.268  0.0212 -0.5901  0.3095
  932SOL     OW 3725   2.912   1.972   2.499  0.0591  0.3617 -0.3004
  932SOL    HW1 3726   3.001   2.008   2.501 -1.9484  0.6506 -2.0061
  932SOL    HW2 3727   2.892   1.960   2.403  2.1077 -0.9719 -0.6797
  932SOL     MW 3728   2.921   1.975   2.487  0.0645  0.2239 -0.5755
  933SOL     OW 3729   2.079   2.887   2.245  0.1997 -0.1324  0.2591
  933SOL    HW1 3730   2.157   2.933   2.274 -1.1681  1.5629  2.2875
  933SOL    HW2 3731   2.018   2.949   2.202 -1.0320 -0.7131 -1.4158
  933SOL     MW 3732   2.081   2.901   2.243 -0.1433  0.0146  0.3057
  934SOL     OW 3733   1.997   2.724   2.436  0.0623 -0.1827  0.3448
  934SOL    HW1 3734   2.006   2.775   2.518 -2.1648  0.8751  0.6459
  934SOL    HW2 3735   2.020   2.787   2.366  2.2636 -1.0619 -1.6922
  934SOL     MW 3736   2.001   2.739   2.437  0.0589 -0.1591  0.1158
  935SOL     OW 3737   2.631   1.576   1.827  0.3238  0.5286  0.1088
  935SOL    HW1 3738   2.723   1.572   1.794 -0.1958  1.3963 -0.6104
  935SOL    HW2 3739   2.581   1.541   1.748 -0.7845 -3.1902 -2.4837
  935SOL     MW 3740   2.636   1.571   1.812  0.1091  0.1525 -0.3281
  936SOL     OW 3741   3.025   2.260   3.070  0.3225  0.5341 -0.1327
  936SOL    HW1 3742   3.063   2.327   3.125  0.8184  1.4539  0.4133
  936SOL    HW2 3743   2.936   2.298   3.071  0.3669 -1.6809  0.1461
  936SOL     MW 3744   3.018   2.274   3.077  0.3938  0.3632 -0.0238
  937SOL     OW 3745   2.010   2.165   2.699 -0.5926  0.1285  0.3104
  937SOL    HW1 3746   2.079   2.111   2.741  1.9979 -1.2843  3.3730
  937SOL    HW2 3747   1.998   2.126   2.610  4.1330 -1.7546 -1.1923
  937SOL     MW 3748   2.018   2.153   2.693  0.3727 -0.3064  0.5162
  938SOL     OW 3749   2.309   1.805   1.895  0.6435  0.2690  0.7935
  938SOL    HW1 3750   2.265   1.874   1.836 -1.8861 -0.9724 -1.4124
  938SOL    HW2 3751   2.324   1.861   1.971  3.3355  0.7460 -0.0700
  938SOL     MW 3752   2.305   1.821   1.897  0.6649  0.1681  0.3885
  939SOL     OW 3753   2.831   1.988   2.242 -0.6546 -0.2724 -0.3694
  939SOL    HW1 3754   2.843   1.931   2.164  2.2344 -0.1258 -1.6028
  939SOL    HW2 3755   2.739   1.974   2.253  0.1260 -0.1160  2.0166
  939SOL     MW 3756   2.821   1.979   2.233 -0.1704 -0.2324 -0.2173
  940SOL     OW 3757   2.321   0.163   2.693  0.5313  0.1003  0.4783
  940SOL    HW1 3758   2.289   0.075   2.664 -1.1098 -1.9782  0.4446
  940SOL    HW2 3759   2.383   0.146   2.761 -2.4272 -0.3637 -1.2333
  940SOL     MW 3760   2.325   0.149   2.698 -0.0755 -0.2351  0.2480
  941SOL     OW 3761   0.206   2.272   2.038 -0.3729 -0.0704  0.1796
  941SOL    HW1 3762   0.299   2.248   2.075 -3.0445 -0.2161  0.3903
  941SOL    HW2 3763   0.170   2.194   2.005 -4.1403 -0.9111 -2.6058
  941SOL     MW 3764   0.214   2.258   2.038 -1.2225 -0.2006 -0.1601
  942SOL     OW 3765   2.931   2.236   2.152  0.0910  0.0216 -0.5195
  942SOL    HW1 3766   2.848   2.292   2.133 -0.6790  1.1095 -0.3180
  942SOL    HW2 3767   2.899   2.153   2.197 -0.6573  0.7643 -2.7645
  942SOL     MW 3768   2.916   2.232   2.155 -0.1093  0.2632 -0.7891
  943SOL     OW 3769   0.367   2.012   2.328 -0.1005  0.4125  0.1915
  943SOL    HW1 3770   0.312   2.081   2.361 -3.0659 -1.5434  0.6405
  943SOL    HW2 3771   0.453   2.014   2.370 -1.6527 -1.6774 -0.3997
  943SOL     MW 3772   0.371   2.021   2.338 -0.6966 -0.1213  0.1728
  944SOL     OW 3773   2.103   2.664   2.075 -0.0775  0.4075 -0.3517
  944SOL    HW1 3774   2.170   2.605   2.115  1.4565  1.9077 -0.7717
  944SOL    HW2 3775   2.077   2.724   2.146 -1.7255  0.2180 -0.3888
  944SOL     MW 3776   2.108   2.664   2.089 -0.0925  0.5804 -0.4120
  945SOL     OW 3777   2.753   2.713   2.840 -0.3902  0.0561 -0.3285
  945SOL    HW1 3778   2.724   2.618   2.841  0.6052 -1.8499 -1.3657
  945SOL    HW2 3779   2.789   2.717   2.750 -1.5143  1.2980 -0.3464
  945SOL     MW 3780   2.754   2.701   2.829 -0.4072 -0.0315 -0.4677
  946SOL     OW 3781   2.470   2.748   2.254  0.3536 -0.2022 -0.3864
  946SOL    HW1 3782   2.487   2.795   2.173  0.0735  2.6206  1.3788
  946SOL    HW2 3783   2.422   2.667   2.235  2.4474  0.9266  2.5468
  946SOL     MW 3784   2.466   2.743   2.241  0.5929  0.3192  0.2336
  947SOL     OW 3785   2.029   0.102   0.239 -0.4143  0.3701 -0.0213
  947SOL    HW1 3786   2.027   0.023   0.194 -1.4691 -1.5400 -0.8408
  947SOL    HW2 3787   2.060   0.074   0.333 -0.3280  0.7882 -1.8300
  947SOL     MW 3788   2.033   0.088   0.246 -0.5421  0.1732 -0.3680
  948SOL     OW 3789   1.794   3.032   2.674 -0.0417 -0.6044  0.3134
  948SOL    HW1 3790   1.832   2.941   2.661 -1.7169  1.1259 -0.6115
  948SOL    HW2 3791   1.761   3.052   2.580 -0.4368 -0.0111 -1.5179
  948SOL     MW 3792   1.794   3.022   2.660 -0.3149 -0.2978 -0.0503
  949SOL     OW 3793   2.545   1.974   2.264 -0.1236  0.0586 -0.1612
  949SOL    HW1 3794   2.556   1.896   2.315 -0.5557 -2.3816 -0.0530
  949SOL    HW2 3795   2.488   2.033   2.316  0.4585 -0.4200 -1.1597
  949SOL     MW 3796   2.539   1.972   2.277 -0.1038 -0.3265 -0.2786
  950SOL     OW 3797   2.225   2.536   3.006 -0.3240 -0.0522 -0.7489
  950SOL    HW1 3798   2.261   2.462   2.959 -1.0998  1.0068  0.7353
  950SOL    HW2 3799   2.153   2.570   2.941  0.7503  1.2024  0.1948
  950SOL     MW 3800   2.220   2.531   2.991 -0.2846  0.2531 -0.4285
  951SOL     OW 3801   2.948   2.121   2.833 -0.1166  0.2764 -0.2506
  951SOL    HW1 3802   2.984   2.163   2.916 -3.2995 -0.7540  0.2226
  951SOL    HW2 3803   3.014   2.127   2.762  0.5794  0.7169  0.6741
  951SOL     MW 3804   2.962   2.127   2.835 -0.4447  0.1986 -0.0662
  952SOL     OW 3805   3.090   1.751   2.171 -0.0244 -0.5156  0.4437
  952SOL    HW1 3806   3.015   1.757   2.114  2.0976 -0.3153 -0.3306
  952SOL    HW2 3807   3.156   1.785   2.115 -1.8483 -1.2599 -1.2395
  952SOL     MW 3808   3.088   1.757   2.156  0.0149 -0.5874  0.1195
  953SOL     OW 3809   1.931   1.799   2.929 -0.3759  0.0384  0.3853
  953SOL    HW1 3810   1.844   1.765   2.971 -0.3755  1.3934 -0.8115
  953SOL    HW2 3811   1.944   1.731   2.869  0.1574  0.1762 -0.8260
  953SOL     MW 3812   1.921   1.786   2.926 -0.3055  0.2354  0.0676
  954SOL     OW 3813   2.499   2.055   2.876 -0.0294 -0.2119 -0.3631
  954SOL    HW1 3814   2.411   2.038   2.836  0.5907  2.0179  1.1552
  954SOL    HW2 3815   2.571   2.019   2.817  0.3409 -1.1134  1.3821
  954SOL     MW 3816   2.497   2.048   2.863  0.1012 -0.0366  0.0675
  955SOL     OW 3817   1.596   1.629   2.547  0.1318 -0.1098 -0.1707
  955SOL    HW1 3818   1.552   1.652   2.459  1.5378  1.2362  3.8118
  955SOL    HW2 3819   1.665   1.691   2.554 -1.9470 -1.1433  1.1010
  955SOL     MW 3820   1.600   1.641   2.536  0.0430 -0.0686  0.5225
  956SOL     OW 3821   2.695   2.441   2.846  0.5850 -0.1665  0.0848
  956SOL    HW1 3822   2.731   2.408   2.933  1.1047 -1.7674  1.0625
  956SOL    HW2 3823   2.706   2.372   2.783  0.1455 -3.0705 -0.4168
  956SOL     MW 3824   2.701   2.427   2.849  0.5956 -0.7609  0.1476
  957SOL     OW 3825   2.257   2.890   0.387  0.3510 -0.0605  0.2758
  957SOL    HW1 3826   2.178   2.848   0.352  1.5921 -2.3532 -0.0756
  957SOL    HW2 3827   2.265   2.838   0.464  0.2172  0.5074 -0.4591
  957SOL     MW 3828   2.248   2.878   0.392  0.4971 -0.2881  0.1324
  958SOL     OW 3829   2.030   2.609   2.833  0.4613 -1.0554  0.3369
  958SOL    HW1 3830   2.000   2.540   2.777  2.5304 -0.4009 -3.2123
  958SOL    HW2 3831   1.962   2.636   2.897  1.2606 -1.9221  3.0167
  958SOL     MW 3832   2.017   2.604   2.834  0.8397 -1.0834  0.2222
  959SOL     OW 3833   2.442   2.630   0.364 -0.2751  0.1085  0.3886
  959SOL    HW1 3834   2.494   2.634   0.280  3.6845  0.9324 -2.3460
  959SOL    HW2 3835   2.396   2.712   0.366  0.9345  3.1030  1.7100
  959SOL     MW 3836   2.443   2.641   0.353  0.4069  0.6123  0.2021
  960SOL     OW 3837   1.950   2.324   2.249  0.5063 -0.4114  0.1073
  960SOL    HW1 3838   1.902   2.255   2.210 -0.3496  0.3486 -0.7060
  960SOL    HW2 3839   1.902   2.361   2.325  3.0401  1.2803  0.5034
  960SOL     MW 3840   1.937   2.320   2.254  0.7277 -0.0879  0.0523
  961SOL     OW 3841   2.211   2.306   2.328  0.3905 -0.1078 -0.8541
  961SOL    HW1 3842   2.120   2.313   2.307  0.1497  0.5540  0.5883
  961SOL    HW2 3843   2.212   2.343   2.420 -0.8840  1.1206 -2.4959
  961SOL     MW 3844   2.199   2.312   2.338  0.1906  0.1416 -0.8804
  962SOL     OW 3845   2.223   2.013   2.795  0.3557  0.2057 -0.0557
  962SOL    HW1 3846   2.166   1.996   2.872 -0.8146  2.6787 -1.8826
  962SOL    HW2 3847   2.233   1.928   2.753 -2.3978  1.1165 -0.8499
  962SOL     MW 3848   2.217   2.000   2.800 -0.1620  0.6522 -0.4015
  963SOL     OW 3849   1.852   2.600   2.000 -0.1345  0.4382  0.1567
  963SOL    HW1 3850   1.942   2.582   2.041  1.7055 -0.1824  2.1915
  963SOL    HW2 3851   1.836   2.521   1.940  3.2590 -2.8265 -1.4658
  963SOL     MW 3852   1.862   2.588   1.997  0.5560 -0.0744  0.2111
  964SOL     OW 3853   1.817   1.978   2.754 -0.4639 -0.3323 -0.1965
  964SOL    HW1 3854   1.884   2.057   2.736  0.0998  2.7838 -0.2096
  964SOL    HW2 3855   1.865   1.907   2.793  0.7941  0.1215  1.1749
  964SOL     MW 3856   1.832   1.979   2.757 -0.2235  0.1387 -0.0173
  965SOL     OW 3857   2.247   2.730   0.623 -0.0395  0.4901 -0.3969
  965SOL    HW1 3858   2.220   2.633   0.624  2.1907  0.8470  1.1369
  965SOL    HW2 3859   2.289   2.752   0.709 -0.1619 -0.3450 -0.6318
  965SOL     MW 3860   2.249   2.720   0.634  0.2386  0.4270 -0.2255
  966SOL     OW 3861   2.612   2.634   2.464 -0.1229 -0.2708  0.5127
  966SOL    HW1 3862   2.574   2.687   2.397  0.3738 -1.5038 -0.1740
  966SOL    HW2 3863   2.617   2.533   2.431  1.2653 -2.3970 -0.6637
  966SOL     MW 3864   2.608   2.628   2.451  0.1258 -0.7140  0.2669
  967SOL     OW 3865   2.918   3.010   2.896 -0.1594 -0.1401 -0.0808
  967SOL    HW1 3866   2.922   2.935   2.952 -0.7961  0.9820  1.6667
  967SOL    HW2 3867   2.826   3.011   2.871 -0.8365  0.5760 -1.4285
  967SOL     MW 3868   2.907   3.000   2.900 -0.3327  0.1024 -0.0281
  968SOL     OW 3869   2.991   2.602   2.958 -0.0424 -0.0104 -0.2565
  968SOL    HW1 3870   2.909   2.646   2.923  0.1174 -0.7997 -0.6875
  968SOL    HW2 3871   3.021   2.532   2.896  1.4523 -1.2278 -2.9532
  968SOL     MW 3872   2.984   2.599   2.945  0.1759 -0.2752 -0.6692
  969SOL     OW 3873   1.528   2.114   1.696  0.0833  0.3198  0.3458
  969SOL    HW1 3874   1.605   2.064   1.704 -2.1759  0.9521 -0.7283
  969SOL    HW2 3875   1.489   2.112   1.784  2.2493 -4.0210 -1.3355
  969SOL     MW 3876   1.533   2.107   1.709  0.0710 -0.1695 -0.0177
  970SOL     OW 3877   1.647   1.669   1.804  0.2387  0.2574 -0.5366
  970SOL    HW1 3878   1.708   1.659   1.879  1.5716  1.3712  2.7336
  970SOL    HW2 3879   1.567   1.720   1.836  0.4149 -3.5878  2.1576
  970SOL     MW 3880   1.644   1.674   1.818  0.4378 -0.1030  0.2504
  971SOL     OW 3881   1.788   0.003   2.384  0.1642 -0.3246  0.1077
  971SOL    HW1 3882   1.813  -0.028   2.294 -1.0997  4.6306  1.1187
  971SOL    HW2 3883   1.843   0.086   2.420  2.7318 -1.0480  1.2363
  971SOL     MW 3884   1.798   0.010   2.377  0.3362  0.2337  0.3900
  972SOL     OW 3885   0.274   2.831   2.448  0.0179  0.2554 -0.0483
  972SOL    HW1 3886   0.324   2.757   2.482 -1.9101  0.6875 -0.8298
  972SOL    HW2 3887   0.306   2.915   2.488 -0.1763 -1.9569 -0.4108
  972SOL     MW 3888   0.285   2.832   2.458 -0.2621  0.0205 -0.1993
  973SOL     OW 3889   2.551   0.032   2.130 -0.8339  0.1033  0.5766
  973SOL    HW1 3890   2.549  -0.062   2.136  0.4578  0.2752  0.9791
  973SOL    HW2 3891   2.561   0.048   2.037  1.4805  0.6537 -0.8720
  973SOL     MW 3892   2.552   0.021   2.119 -0.3581  0.1986  0.4386
  974SOL     OW 3893   2.060   0.259   2.713 -0.1749 -0.2256 -0.7493
  974SOL    HW1 3894   2.155   0.245   2.720  2.9664  0.5832  0.1860
  974SOL    HW2 3895   2.021   0.180   2.761  0.5058  0.1632  0.3114
  974SOL     MW 3896   2.067   0.247   2.721  0.3293 -0.0676 -0.4859
  975SOL     OW 3897   2.188   2.517   2.538 -0.2280 -0.0436  0.1072
  975SOL    HW1 3898   2.279   2.542   2.545  2.9483 -0.8419 -0.4170
  975SOL    HW2 3899   2.141   2.588   2.493  1.1582  0.9884  0.5257
  975SOL     MW 3900   2.194   2.530   2.533  0.3740 -0.0128  0.0932
  976SOL     OW 3901   0.270   0.375   1.715  0.0743 -0.6821  0.0460
  976SOL    HW1 3902   0.341   0.310   1.744  1.9017 -2.2166  0.9755
  976SOL    HW2 3903   0.211   0.321   1.664 -1.5558 -0.6841 -0.4185
  976SOL     MW 3904   0.272   0.359   1.712  0.1004 -0.8848  0.1074
  977SOL     OW 3905   1.732   2.709   2.474  0.3972 -0.3864 -0.2228
  977SOL    HW1 3906   1.713   2.619   2.452  0.1098 -0.3627  0.5573
  977SOL    HW2 3907   1.826   2.708   2.460  2.0904  0.3930 -1.3546
  977SOL     MW 3908   1.742   2.697   2.469  0.5826 -0.2804 -0.2692
   3.10000   3.10000   3.10000
