977 TIP4P/2005f water molecules t=   0.34000 step= 340
 3908
    1SOL     OW    1   0.293   0.767   0.050 -0.0958  0.0267  0.0912
    1SOL    HW1    2   0.257   0.821  -0.024  0.4955  3.4180 -0.4312
    1SOL    HW2    3   0.287   0.673   0.026 -3.2020  1.2901 -0.4182
    1SOL     MW    4   0.287   0.762   0.037 -0.4276  0.6408 -0.0449
    2SOL     OW    5   0.309   3.054   1.161 -0.9113  0.4592  0.5359
    2SOL    HW1    6   0.348   3.111   1.093 -1.7575 -1.9280  1.6009
    2SOL    HW2    7   0.218   3.083   1.167 -0.4113  0.8231 -1.0838
    2SOL     MW    8   0.302   3.065   1.153 -0.9570  0.1923  0.4627
    3SOL     OW    9   2.666   0.396   0.910  0.3868 -0.5213 -0.2075
    3SOL    HW1   10   2.673   0.463   0.843  1.5807  1.0685 -1.4489
    3SOL    HW2   11   2.635   0.436   0.986  0.7217 -1.7637 -2.0281
    3SOL     MW   12   2.663   0.410   0.911  0.5885 -0.4754 -0.6115
    4SOL     OW   13   3.063   1.800   0.585 -0.0575 -0.6102 -0.7895
    4SOL    HW1   14   2.984   1.839   0.546 -1.5347 -1.4242 -5.2173
    4SOL    HW2   15   3.088   1.729   0.529  0.8081  0.6015 -1.1612
    4SOL     MW   16   3.056   1.796   0.573 -0.1382 -0.5577 -1.4227
    5SOL     OW   17   1.696   1.425   0.547  0.1119  0.2768  0.6393
    5SOL    HW1   18   1.746   1.377   0.607 -0.4942 -1.2700  0.8975
    5SOL    HW2   19   1.608   1.430   0.576  0.5861 -0.5207 -0.3841
    5SOL     MW   20   1.691   1.420   0.559  0.0945 -0.0325  0.5383
    6SOL     OW   21   0.857   1.391   0.621  0.4259 -0.3817  0.3011
    6SOL    HW1   22   0.776   1.404   0.666 -0.4672  0.2235  0.2453
    6SOL    HW2   23   0.899   1.313   0.663  1.6284  2.4504  0.5290
    6SOL     MW   24   0.852   1.383   0.632  0.4667  0.0718  0.3238
    7SOL     OW   25   1.991   1.049   0.036 -0.0445  0.1483  0.1776
    7SOL    HW1   26   1.989   1.140   0.003 -0.1493 -2.1340 -2.5025
    7SOL    HW2   27   2.032   1.065   0.120  1.8556 -0.1250  1.3305
    7SOL     MW   28   1.996   1.063   0.043  0.1923 -0.1889 -0.0239
    8SOL     OW   29   1.002   1.330   1.022 -0.1911  0.3384 -0.2512
    8SOL    HW1   30   1.057   1.257   1.054 -0.4890 -1.3858  0.0983
    8SOL    HW2   31   0.919   1.289   1.022 -3.2746  0.0776 -1.0063
    8SOL     MW   32   0.998   1.315   1.026 -0.6373  0.0765 -0.3047
    9SOL     OW   33   1.043   0.466   1.345 -0.1098 -0.3857  0.4095
    9SOL    HW1   34   0.973   0.414   1.300 -1.2694 -0.4557  0.8933
    9SOL    HW2   35   1.065   0.420   1.431  3.0904 -1.0917  1.5210
    9SOL     MW   36   1.037   0.453   1.351  0.1594 -0.4881  0.6200
   10SOL     OW   37   0.314   0.798   0.460  0.0326 -0.5823 -0.2492
   10SOL    HW1   38   0.392   0.833   0.401 -1.7706 -1.6392 -0.8503
   10SOL    HW2   39   0.314   0.846   0.544 -1.1859 -2.1432 -0.5733
   10SOL     MW   40   0.325   0.809   0.463 -0.3661 -0.9277 -0.3713
   11SOL     OW   41   0.859   1.083   1.613 -0.8243  0.0300 -0.2525
   11SOL    HW1   42   0.827   1.083   1.702 -1.1997 -1.8025 -1.0172
   11SOL    HW2   43   0.820   1.001   1.566  0.5223 -1.1572  2.0687
   11SOL     MW   44   0.850   1.072   1.619 -0.6961 -0.3684 -0.0471
   12SOL     OW   45   0.012   1.152   0.829 -0.0346 -0.6419  0.0492
   12SOL    HW1   46   0.037   1.221   0.892  0.3321  3.5271  0.2157
   12SOL    HW2   47   0.024   1.202   0.747  0.8436 -0.1349 -0.7625
   12SOL     MW   48   0.017   1.168   0.827  0.1297 -0.0249 -0.0360
   13SOL     OW   49   1.900   1.424   1.367 -0.7063 -0.2071 -0.3743
   13SOL    HW1   50   1.931   1.388   1.284  0.4616 -0.1789 -0.9499
   13SOL    HW2   51   1.872   1.511   1.345  1.6240 -3.0207  1.1293
   13SOL     MW   52   1.900   1.431   1.353 -0.2447 -0.5746 -0.2519
   14SOL     OW   53   0.616   0.326   1.809 -0.1679 -0.2883  0.2633
   14SOL    HW1   54   0.575   0.259   1.757 -1.0590  1.6195  0.3097
   14SOL    HW2   55   0.703   0.304   1.830 -0.6369 -0.2829  0.1493
   14SOL     MW   56   0.622   0.314   1.805 -0.3474 -0.0359  0.2544
   15SOL     OW   57   2.008   0.546   0.948  0.3879 -0.1227  0.3896
   15SOL    HW1   58   2.009   0.531   1.046 -1.0986  0.2344  0.4045
   15SOL    HW2   59   2.081   0.497   0.907  0.5540 -1.7311  1.1940
   15SOL     MW   60   2.018   0.538   0.956  0.2137 -0.2878  0.4977
   16SOL     OW   61   0.211   1.763   0.334  0.0788 -0.5241  0.2067
   16SOL    HW1   62   0.302   1.738   0.329 -1.3858  1.0595 -3.5788
   16SOL    HW2   63   0.208   1.855   0.373 -1.0947  0.0550 -0.5378
   16SOL     MW   64   0.223   1.772   0.338 -0.2692 -0.2388 -0.3910
   17SOL     OW   65   1.061   0.813   1.482 -0.7254 -0.1875  0.6888
   17SOL    HW1   66   1.095   0.807   1.575  1.2658 -0.0269 -0.8405
   17SOL    HW2   67   0.989   0.745   1.474  0.4470  1.1828 -0.3823
   17SOL     MW   68   1.056   0.803   1.493 -0.3080  0.0145  0.3457
   18SOL     OW   69   0.048   1.544   0.418  0.6079  0.2551  0.2723
   18SOL    HW1   70   0.098   1.615   0.385 -0.5301 -2.1365  2.2188
   18SOL    HW2   71   0.036   1.494   0.340  0.3890  0.3121 -1.0804
   18SOL     MW   72   0.053   1.547   0.404  0.4289 -0.0529  0.3506
   19SOL     OW   73   0.107   1.331   1.038 -0.1554  0.7496  0.2399
   19SOL    HW1   74   0.150   1.363   0.964 -2.4930 -1.4879 -0.4061
   19SOL    HW2   75   0.015   1.362   1.032  0.6285  2.1792 -0.2483
   19SOL     MW   76   0.100   1.340   1.027 -0.3604  0.6430  0.0903
   20SOL     OW   77   0.464   2.130   1.302  0.0175 -0.4680 -0.1521
   20SOL    HW1   78   0.399   2.070   1.254  0.4197  1.7605 -1.5849
   20SOL    HW2   79   0.403   2.177   1.364 -2.3754 -3.1941  0.8267
   20SOL     MW   80   0.447   2.128   1.304 -0.2451 -0.5337 -0.2120
   21SOL     OW   81   0.551   0.888   0.338  0.1669  0.0575  0.5869
   21SOL    HW1   82   0.604   0.845   0.402 -0.6134 -1.5771 -1.2891
   21SOL    HW2   83   0.574   0.840   0.257 -2.1603 -0.3178 -1.6093
   21SOL     MW   84   0.561   0.876   0.336 -0.2431 -0.2077  0.0496
   22SOL     OW   85   1.527   0.563   1.129  0.5558  0.7450 -0.4117
   22SOL    HW1   86   1.577   0.553   1.045 -2.0525 -0.4031  0.3406
   22SOL    HW2   87   1.459   0.627   1.120 -2.6650  0.0073  1.4318
   22SOL     MW   88   1.525   0.570   1.117 -0.2133  0.4962 -0.0692
   23SOL     OW   89   3.051   0.734   0.737  0.1890  0.1194 -0.2190
   23SOL    HW1   90   3.096   0.646   0.729  3.7167  1.7064  0.2523
   23SOL    HW2   91   3.122   0.800   0.732 -1.6559 -2.1492 -1.0578
   23SOL     MW   92   3.066   0.731   0.735  0.4110  0.0295 -0.2675
   24SOL     OW   93   2.024   2.191   0.032 -0.1968 -0.1378  0.0032
   24SOL    HW1   94   2.004   2.160   0.125 -1.3257  1.0554  1.2144
   24SOL    HW2   95   2.091   2.134   0.004  0.4513  0.9895 -0.1412
   24SOL     MW   96   2.030   2.179   0.041 -0.2602  0.1683  0.1440
   25SOL     OW   97   0.278   1.409   0.532  0.2405 -0.3959 -0.3632
   25SOL    HW1   98   0.196   1.447   0.485 -3.4143 -0.4304 -1.0842
   25SOL    HW2   99   0.347   1.421   0.472 -0.8818 -0.9299 -0.8135
   25SOL     MW  100   0.276   1.416   0.518 -0.3898 -0.4709 -0.5177
   26SOL     OW  101   2.059   0.932   0.424 -0.1105 -0.1372  0.5757
   26SOL    HW1  102   1.967   0.964   0.425 -3.0698 -1.5202  1.2348
   26SOL    HW2  103   2.110   1.006   0.381 -1.0690  0.4764 -1.7119
   26SOL     MW  104   2.054   0.946   0.418 -0.6274 -0.2387  0.3609
   27SOL     OW  105   1.986   1.400   0.249  0.2368 -0.6532  0.4810
   27SOL    HW1  106   1.907   1.352   0.279 -2.0004 -0.8189 -2.1877
   27SOL    HW2  107   2.024   1.452   0.319  0.2856  0.6246  0.8217
   27SOL     MW  108   1.981   1.401   0.262 -0.0519 -0.5065  0.1739
   28SOL     OW  109   0.401   0.993   1.905  0.1854  0.4798  0.4064
   28SOL    HW1  110   0.339   0.922   1.902 -1.7574  0.8293 -1.4341
   28SOL    HW2  111   0.458   0.967   1.981 -0.8506  6.0500  1.6085
   28SOL     MW  112   0.401   0.980   1.915 -0.2076  1.2608  0.3221
   29SOL     OW  113   0.242   1.432   0.820 -0.3083 -0.4928  0.1877
   29SOL    HW1  114   0.232   1.524   0.858  2.0634 -0.7351  1.7584
   29SOL    HW2  115   0.273   1.451   0.734  3.1723 -0.2830 -0.5176
   29SOL     MW  116   0.245   1.447   0.814  0.4638 -0.4971  0.3019
   30SOL     OW  117   0.895   1.039   1.145 -0.0096  0.1482  0.3789
   30SOL    HW1  118   0.807   1.067   1.181  0.5314  0.0238 -0.4951
   30SOL    HW2  119   0.954   1.060   1.220 -0.8778 -0.2972  0.0204
   30SOL     MW  120   0.891   1.046   1.160 -0.0528  0.0730  0.2163
   31SOL     OW  121   0.461   0.275   0.249 -0.1964 -0.2355 -0.0450
   31SOL    HW1  122   0.458   0.183   0.288 -2.3009  1.5588 -0.1051
   31SOL    HW2  123   0.417   0.263   0.163 -1.8423 -0.5209 -3.2926
   31SOL     MW  124   0.455   0.261   0.243 -0.6913 -0.0364 -0.4814
   32SOL     OW  125   2.710   1.061   1.099  0.2145  0.3450 -0.3121
   32SOL    HW1  126   2.664   0.974   1.091 -0.2340 -0.5879 -3.4700
   32SOL    HW2  127   2.808   1.045   1.102 -0.4118 -2.3201 -0.3584
   32SOL     MW  128   2.717   1.047   1.098  0.0727 -0.1297 -0.7349
   33SOL     OW  129   1.738   1.273   0.324 -0.0211  0.4576  0.3210
   33SOL    HW1  130   1.753   1.186   0.359  0.4904  1.5373 -0.5973
   33SOL    HW2  131   1.688   1.308   0.397 -0.3293  1.7184 -0.3430
   33SOL     MW  132   1.733   1.266   0.338  0.0057  0.7664  0.1122
   34SOL     OW  133   1.230   1.842   1.123 -0.3229 -0.3380 -1.0536
   34SOL    HW1  134   1.148   1.893   1.137  0.9591 -4.2429  0.6542
   34SOL    HW2  135   1.295   1.876   1.194  1.7560  1.5391  1.5828
   34SOL     MW  136   1.228   1.853   1.134  0.1205 -0.6055 -0.4804
   35SOL     OW  137   0.346   0.092   1.850 -0.4665  0.2521 -0.8141
   35SOL    HW1  138   0.384   0.072   1.939 -1.4893  2.4611 -0.1906
   35SOL    HW2  139   0.383   0.023   1.787 -2.1326  0.4512  1.2634
   35SOL     MW  140   0.356   0.080   1.853 -0.8213  0.5698 -0.4577
   36SOL     OW  141   1.888   1.968   0.571 -0.5972  0.0319 -0.1888
   36SOL    HW1  142   1.911   1.977   0.478 -1.1097  2.2732 -0.6632
   36SOL    HW2  143   1.899   1.874   0.590  0.3411 -0.2580  0.5939
   36SOL     MW  144   1.893   1.957   0.561 -0.5410  0.2893 -0.1481
   37SOL     OW  145   1.733   2.057   0.969 -0.1603  0.0401 -0.1854
   37SOL    HW1  146   1.697   1.977   0.939  1.1379  0.7049 -0.8522
   37SOL    HW2  147   1.663   2.084   1.045 -1.0248  3.4149  2.2081
   37SOL     MW  148   1.719   2.050   0.975 -0.1031  0.5731  0.0424
   38SOL     OW  149   2.852   0.953   0.193 -0.2093 -0.0476 -0.1255
   38SOL    HW1  150   2.890   0.946   0.276 -0.7534 -1.1999 -0.3978
   38SOL    HW2  151   2.902   0.885   0.142  0.0124  0.6243 -0.6129
   38SOL     MW  152   2.864   0.943   0.197 -0.2518 -0.1110 -0.2257
   39SOL     OW  153   1.469   0.680   0.826 -0.0031 -0.2373 -0.8758
   39SOL    HW1  154   1.435   0.591   0.849 -0.5140 -0.5591 -2.8348
   39SOL    HW2  155   1.421   0.736   0.885  0.7234  0.2119  0.3627
   39SOL     MW  156   1.458   0.676   0.837  0.0254 -0.2205 -0.9708
   40SOL     OW  157   1.279   1.871   0.260 -0.1698 -0.4184  0.0609
   40SOL    HW1  158   1.304   1.800   0.319 -0.7326  1.5760  0.6117
   40SOL    HW2  159   1.244   1.937   0.320 -0.7326 -1.1178  0.1695
   40SOL     MW  160   1.278   1.871   0.275 -0.3183 -0.2475  0.1479
   41SOL     OW  161   0.595   0.551   1.585  0.0187 -0.1355 -0.0105
   41SOL    HW1  162   0.686   0.570   1.568  1.1938  0.1806  1.9237
   41SOL    HW2  163   0.597   0.477   1.647 -0.6763 -0.0043  1.9298
   41SOL     MW  164   0.607   0.544   1.591  0.0821 -0.0765  0.5007
   42SOL     OW  165   1.315   3.085   1.950 -0.2619 -0.2682  0.2709
   42SOL    HW1  166   1.224   3.093   1.972 -1.2034 -3.1252  2.5766
   42SOL    HW2  167   1.335   2.991   1.970 -2.0029  0.7937  0.1381
   42SOL     MW  168   1.306   3.074   1.956 -0.6158 -0.5050  0.5576
   43SOL     OW  169   1.588   0.222   1.635  0.7065 -0.0390  0.9719
   43SOL    HW1  170   1.633   0.166   1.573  0.1072  0.5430 -2.5770
   43SOL    HW2  171   1.519   0.158   1.669 -2.8382 -2.4688  0.4984
   43SOL     MW  172   1.585   0.206   1.631  0.1597 -0.2828  0.4412
   44SOL     OW  173   1.316   0.751   1.103  0.0878  0.0784 -0.3550
   44SOL    HW1  174   1.307   0.842   1.078 -0.7282  0.0224 -1.3105
   44SOL    HW2  175   1.297   0.749   1.198 -0.9318  1.5409  0.3999
   44SOL     MW  176   1.312   0.763   1.112 -0.1544  0.2640 -0.3814
   45SOL     OW  177   1.135   0.688   0.755  0.5381 -0.4896  0.2185
   45SOL    HW1  178   1.095   0.659   0.836  0.1149  3.6431 -1.0682
   45SOL    HW2  179   1.084   0.659   0.671  0.8027 -0.3635 -4.2436
   45SOL     MW  180   1.123   0.681   0.755  0.5172  0.0723 -0.5400
   46SOL     OW  181   0.578   1.155   0.555 -0.3359 -0.1105 -0.7332
   46SOL    HW1  182   0.575   1.190   0.464  1.2081 -1.2063  0.7602
   46SOL    HW2  183   0.650   1.088   0.551 -0.0716 -2.7048 -0.1833
   46SOL     MW  184   0.587   1.151   0.543 -0.0973 -0.5974 -0.4636
   47SOL     OW  185   0.153   1.927   1.851  0.1600 -0.0131 -0.5281
   47SOL    HW1  186   0.192   1.854   1.804 -1.3759  1.5021  2.2885
   47SOL    HW2  187   0.148   1.902   1.944 -0.6063  0.6423 -1.2436
   47SOL     MW  188   0.157   1.914   1.857 -0.1437  0.2733 -0.2509
   48SOL     OW  189   1.054   0.650   1.025  0.1202 -0.3292 -0.5107
   48SOL    HW1  190   0.970   0.654   1.066  0.6052  0.9206  2.1028
   48SOL    HW2  191   1.117   0.722   1.053  3.7043  1.0084 -0.1932
   48SOL     MW  192   1.052   0.660   1.034  0.6571  0.0122 -0.1240
   49SOL     OW  193   1.883   0.741   1.598 -0.5054  0.2335  0.2119
   49SOL    HW1  194   1.826   0.709   1.662  0.2739  2.0111 -3.8678
   49SOL    HW2  195   1.943   0.665   1.573  0.1477  0.3100  3.9325
   49SOL     MW  196   1.884   0.727   1.603 -0.3164  0.4782  0.1645
   50SOL     OW  197   1.267   0.993   0.518 -0.4107  0.3027  0.0145
   50SOL    HW1  198   1.250   1.044   0.605 -2.0008  1.9166 -2.6019
   50SOL    HW2  199   1.270   0.907   0.549 -1.8165  1.3840  0.2531
   50SOL     MW  200   1.265   0.988   0.533 -0.8060  0.6583 -0.2992
   51SOL     OW  201   0.361   2.847   0.971  0.1895 -0.0717  0.3249
   51SOL    HW1  202   0.452   2.824   0.978  0.7369  1.5295 -2.6380
   51SOL    HW2  203   0.342   2.899   1.054  0.2998 -0.3301  0.3705
   51SOL     MW  204   0.371   2.851   0.983  0.2763  0.1055 -0.0600
   52SOL     OW  205   0.824   1.788   0.387  0.3008 -0.8430  0.1736
   52SOL    HW1  206   0.785   1.855   0.440 -0.7319 -1.6188  0.4572
   52SOL    HW2  207   0.810   1.808   0.298  1.3727  0.0058  0.9673
   52SOL     MW  208   0.817   1.800   0.382  0.3060 -0.8334  0.3158
   53SOL     OW  209   0.459   2.063   0.572  0.0983  0.1241 -0.3163
   53SOL    HW1  210   0.367   2.051   0.525  2.6104  0.7280 -0.5502
   53SOL    HW2  211   0.486   2.151   0.585  1.6452  0.5340 -0.8207
   53SOL     MW  212   0.451   2.073   0.567  0.6339  0.2579 -0.4138
   54SOL     OW  213   2.199   0.809   0.922 -0.2362  0.2712 -0.1537
   54SOL    HW1  214   2.192   0.726   0.873 -0.0774 -1.0659  1.7733
   54SOL    HW2  215   2.105   0.837   0.920 -0.8121 -0.6062  0.0451
   54SOL     MW  216   2.186   0.802   0.915 -0.2913 -0.0210  0.1268
   55SOL     OW  217   0.540   1.490   1.553 -0.2170 -0.0368  0.1521
   55SOL    HW1  218   0.492   1.544   1.485  2.8789  0.5188 -1.7866
   55SOL    HW2  219   0.606   1.439   1.505  0.6614 -0.3402  0.9445
   55SOL     MW  220   0.542   1.491   1.538  0.3074 -0.0035  0.0008
   56SOL     OW  221   0.585   0.774   0.103  0.5924 -0.3378 -0.2380
   56SOL    HW1  222   0.606   0.858   0.061  1.6371 -1.6815  0.8716
   56SOL    HW2  223   0.491   0.773   0.099  2.9835 -2.4883 -1.3380
   56SOL     MW  224   0.575   0.785   0.097  1.0457 -0.7988 -0.2367
   57SOL     OW  225   1.258   1.226   1.172  0.1092  0.5281  0.6384
   57SOL    HW1  226   1.352   1.242   1.179  0.6072 -0.4454 -0.2713
   57SOL    HW2  227   1.229   1.192   1.261 -0.1581 -0.2733 -0.4448
   57SOL     MW  228   1.267   1.224   1.185  0.1396  0.2939  0.3755
   58SOL     OW  229   0.688   1.113   1.306 -0.4481  0.1886  0.2670
   58SOL    HW1  230   0.635   1.179   1.267  2.0319 -1.3219  0.1500
   58SOL    HW2  231   0.652   1.105   1.391 -0.2651 -0.7934  0.1500
   58SOL     MW  232   0.676   1.120   1.312 -0.0967 -0.1403  0.2362
   59SOL     OW  233   1.547   1.636   0.302  0.7933  0.0605  0.2827
   59SOL    HW1  234   1.612   1.587   0.345 -1.7816  0.9952  1.4680
   59SOL    HW2  235   1.480   1.656   0.375  0.9439 -3.1236  0.7458
   59SOL     MW  236   1.547   1.632   0.317  0.4734 -0.2363  0.5002
   60SOL     OW  237   3.076   0.152   1.649  0.1195 -0.4013  0.6362
   60SOL    HW1  238   2.988   0.176   1.618 -0.9324 -0.1980  1.1900
   60SOL    HW2  239   3.060   0.069   1.687 -2.0028 -0.2693  1.4478
   60SOL     MW  240   3.062   0.144   1.650 -0.2993 -0.3571  0.8163
   61SOL     OW  241   1.983   1.497   0.004 -0.3802 -0.1562 -0.3027
   61SOL    HW1  242   1.973   1.474   0.097 -1.7429  0.3052 -1.4116
   61SOL    HW2  243   2.027   1.424  -0.047 -1.1785 -2.3187 -2.2052
   61SOL     MW  244   1.987   1.484   0.010 -0.6653 -0.3807 -0.7000
   62SOL     OW  245   0.587   1.620   0.574  0.3006 -0.3983 -0.0632
   62SOL    HW1  246   0.669   1.613   0.512  3.6879 -2.1554 -0.7819
   62SOL    HW2  247   0.600   1.543   0.629 -0.6913  2.2089 -2.4593
   62SOL     MW  248   0.599   1.609   0.573  0.6167 -0.2862 -0.4741
   63SOL     OW  249   1.709   0.734   0.657 -0.2834  0.0713  0.0195
   63SOL    HW1  250   1.680   0.755   0.570 -1.6225  0.7749 -0.3717
   63SOL    HW2  251   1.637   0.758   0.715  1.1460  3.3827  1.5798
   63SOL     MW  252   1.696   0.740   0.653 -0.2715  0.6010  0.1737
   64SOL     OW  253   0.245   1.677   0.934 -0.2279 -0.0061 -0.9380
   64SOL    HW1  254   0.320   1.717   0.877  1.6441 -0.2068 -1.4455
   64SOL    HW2  255   0.168   1.729   0.914  1.3529 -1.3728  0.9584
   64SOL     MW  256   0.245   1.689   0.924  0.2277 -0.2129 -0.7548
   65SOL     OW  257   1.539   2.286   0.325 -0.2060 -0.0341 -0.1054
   65SOL    HW1  258   1.625   2.254   0.285  0.2683  0.4550 -3.4713
   65SOL    HW2  259   1.561   2.334   0.407 -0.1261 -0.1317  5.2126
   65SOL     MW  260   1.553   2.288   0.330 -0.1329  0.0175  0.1522
   66SOL     OW  261   0.306   0.529   0.525  0.0937 -0.4285  0.5391
   66SOL    HW1  262   0.372   0.498   0.462  2.9811  0.1268 -0.0774
   66SOL    HW2  263   0.319   0.625   0.518 -0.8242 -0.9403 -2.2580
   66SOL     MW  264   0.316   0.538   0.515  0.3536 -0.4227  0.0887
   67SOL     OW  265   1.538   0.129   2.030 -0.3249 -0.6091 -0.0553
   67SOL    HW1  266   1.553   0.199   1.966 -0.0027  0.6927  0.1378
   67SOL    HW2  267   1.458   0.091   2.003  2.7505  2.0556 -0.2974
   67SOL     MW  268   1.530   0.133   2.018  0.1233 -0.0857 -0.0617
   68SOL     OW  269   0.626   0.075   2.939 -0.3159 -0.2690 -0.2486
   68SOL    HW1  270   0.607   0.108   2.851  0.5162 -0.7144 -0.6021
   68SOL    HW2  271   0.647   0.147   2.991  0.2141  0.1194 -0.5854
   68SOL     MW  272   0.626   0.089   2.934 -0.1362 -0.2765 -0.3397
   69SOL     OW  273   1.022   0.203   1.951 -0.3305 -0.1273  0.3847
   69SOL    HW1  274   1.113   0.235   1.961 -0.7241  0.9049 -0.5913
   69SOL    HW2  275   1.015   0.108   1.968 -3.5223  0.6251 -2.2072
   69SOL     MW  276   1.033   0.194   1.954 -0.8036  0.1081 -0.0861
   70SOL     OW  277   0.581   1.832   1.129 -0.2053  0.8740  0.2443
   70SOL    HW1  278   0.611   1.748   1.159 -2.4704 -1.3756 -1.1212
   70SOL    HW2  279   0.641   1.859   1.064 -2.5104  0.5329  2.8597
   70SOL     MW  280   0.593   1.825   1.125 -0.8083  0.5322  0.4092
   71SOL     OW  281   1.745   0.684   1.241 -0.2351 -0.2570  0.2599
   71SOL    HW1  282   1.734   0.692   1.334  1.4455 -1.5785  1.3336
   71SOL    HW2  283   1.675   0.624   1.207 -3.5730 -0.6960 -1.4804
   71SOL     MW  284   1.734   0.677   1.249 -0.4538 -0.4893  0.1720
   72SOL     OW  285   0.836   1.793   0.968  0.3431 -0.4540  0.0723
   72SOL    HW1  286   0.835   1.851   0.889 -1.4607 -0.1990 -0.3679
   72SOL    HW2  287   0.823   1.701   0.947 -0.2817  1.1185  1.7769
   72SOL     MW  288   0.834   1.788   0.955  0.0227 -0.2129  0.2392
   73SOL     OW  289   1.240   0.658   1.353 -0.1123 -0.0361  0.2943
   73SOL    HW1  290   1.188   0.576   1.357 -1.4439  0.1529  1.7468
   73SOL    HW2  291   1.184   0.717   1.404  0.2691  0.9905 -2.5380
   73SOL     MW  292   1.226   0.655   1.360 -0.2377  0.1243  0.1122
   74SOL     OW  293   2.793   0.150   0.998  0.4739  0.4665 -0.3487
   74SOL    HW1  294   2.749   0.080   0.956  0.5948  2.5586 -0.6274
   74SOL    HW2  295   2.780   0.228   0.943  2.9959  2.5502 -0.6217
   74SOL     MW  296   2.785   0.151   0.985  0.8226  1.0175 -0.4215
   75SOL     OW  297   1.597   1.322   0.083 -0.6471  0.2050  0.4692
   75SOL    HW1  298   1.638   1.305   0.169 -0.8910 -0.8344 -1.0862
   75SOL    HW2  299   1.613   1.238   0.039  1.6944  1.5123  0.3331
   75SOL     MW  300   1.604   1.309   0.088 -0.3703  0.2404  0.2460
   76SOL     OW  301   2.943   0.658   0.467  0.6607 -0.1070 -0.0282
   76SOL    HW1  302   2.954   0.666   0.565 -0.5472  1.0394  0.8778
   76SOL    HW2  303   3.017   0.596   0.449 -0.0156 -1.0266 -0.1054
   76SOL     MW  304   2.954   0.651   0.477  0.4121 -0.0771  0.0812
   77SOL     OW  305   0.896   0.436   0.499 -1.1718  0.2667 -0.4481
   77SOL    HW1  306   0.855   0.512   0.463 -0.5284 -0.8546 -1.8224
   77SOL    HW2  307   0.826   0.364   0.498  0.6092  0.7588  0.8542
   77SOL     MW  308   0.882   0.436   0.494 -0.8519  0.1837 -0.4576
   78SOL     OW  309   0.771   0.758   1.198 -0.2817  0.1446 -0.0054
   78SOL    HW1  310   0.705   0.749   1.125  0.4505  0.6103 -1.6686
   78SOL    HW2  311   0.825   0.834   1.172 -0.9269  1.3415  0.1381
   78SOL     MW  312   0.770   0.767   1.185 -0.2703  0.3640 -0.2059
   79SOL     OW  313   1.916   1.697   0.602  1.2553  0.1278  0.0624
   79SOL    HW1  314   1.830   1.651   0.586 -2.5335  0.2370  0.0003
   79SOL    HW2  315   1.937   1.686   0.696  0.4084  1.8151  1.6121
   79SOL     MW  316   1.907   1.689   0.612  0.6436  0.3648  0.2586
   80SOL     OW  317   0.142   1.009   0.311  0.6866  0.4420  0.3216
   80SOL    HW1  318   0.044   1.006   0.329 -1.8838  1.5110  1.1552
   80SOL    HW2  319   0.176   0.928   0.354 -0.3188  1.2044  0.4847
   80SOL     MW  320   0.134   0.998   0.319  0.2148  0.6837  0.4531
   81SOL     OW  321   1.895   1.892   0.218 -0.4065 -0.2599  0.0065
   81SOL    HW1  322   1.831   1.835   0.168 -1.9809 -0.6360  2.6523
   81SOL    HW2  323   1.844   1.979   0.220 -3.5676 -0.7934 -0.7519
   81SOL     MW  324   1.880   1.896   0.212 -1.0313 -0.3800  0.2555
   82SOL     OW  325   0.806   1.002   0.559  0.0502  0.8232 -0.0943
   82SOL    HW1  326   0.872   1.019   0.489 -1.0076  2.3528  1.6671
   82SOL    HW2  327   0.790   0.901   0.551 -1.9521 -0.8260 -0.3269
   82SOL     MW  328   0.812   0.991   0.549 -0.3536  0.8074  0.1074
   83SOL     OW  329   0.133   0.616   1.372  0.3819 -0.4491 -0.6770
   83SOL    HW1  330   0.153   0.708   1.351  0.8111  3.9327  1.9234
   83SOL    HW2  331   0.180   0.592   1.452  1.1953  1.3977  1.8979
   83SOL     MW  332   0.142   0.625   1.380  0.5458  0.3727  0.0058
   84SOL     OW  333   0.079   0.270   1.002  0.4978  0.0938 -0.6167
   84SOL    HW1  334  -0.002   0.293   0.952 -0.9799  1.5206  0.8919
   84SOL    HW2  335   0.068   0.178   1.038 -1.5988  1.7808  3.3254
   84SOL     MW  336   0.067   0.261   1.000  0.0262  0.5046  0.1025
   85SOL     OW  337   0.414   0.441   0.751 -0.4821 -0.1623 -0.1955
   85SOL    HW1  338   0.384   0.489   0.681  4.8461  1.1182 -0.3240
   85SOL    HW2  339   0.354   0.373   0.772 -0.8720  3.3986 -1.2396
   85SOL     MW  340   0.402   0.438   0.745  0.1694  0.4765 -0.3502
   86SOL     OW  341   1.196   0.435   1.120  0.1562 -0.0773 -0.4260
   86SOL    HW1  342   1.167   0.506   1.058  0.5120 -0.8712  0.7565
   86SOL    HW2  343   1.144   0.441   1.203  1.9167  1.4457  2.0333
   86SOL     MW  344   1.186   0.445   1.123  0.4355  0.0189  0.0545
   87SOL     OW  345   1.218   1.495   1.241  0.0752  0.5549 -0.6487
   87SOL    HW1  346   1.231   1.540   1.155 -0.6772 -0.6401 -1.4466
   87SOL    HW2  347   1.224   1.405   1.217  1.0430  0.6016  1.5221
   87SOL     MW  348   1.221   1.489   1.227  0.1036  0.4034 -0.4676
   88SOL     OW  349   1.317   1.022   1.004 -0.0265 -0.7206  0.3952
   88SOL    HW1  350   1.411   1.038   1.018  0.3474  1.2763 -0.3759
   88SOL    HW2  351   1.280   1.084   1.071 -0.7736  1.1674 -1.4222
   88SOL     MW  352   1.325   1.032   1.014 -0.0758 -0.2080  0.0537
   89SOL     OW  353   1.746   0.653   0.340 -0.0199  0.1401  0.1932
   89SOL    HW1  354   1.801   0.596   0.396  0.7471  0.1027  3.3380
   89SOL    HW2  355   1.815   0.683   0.276  0.8990 -0.1917  0.3881
   89SOL     MW  356   1.762   0.650   0.339  0.2025  0.0914  0.6338
   90SOL     OW  357   0.709   1.204   2.777 -0.3172  0.8442  0.5841
   90SOL    HW1  358   0.784   1.148   2.764 -3.0923 -1.3100 -1.6305
   90SOL    HW2  359   0.710   1.236   2.871 -1.5081  0.0609  2.0195
   90SOL     MW  360   0.719   1.201   2.787 -0.8405  0.4566  0.4813
   91SOL     OW  361   2.103   0.661   0.537  0.0698 -0.1536  0.5798
   91SOL    HW1  362   2.116   0.758   0.508 -2.6574  1.2407 -0.4791
   91SOL    HW2  363   2.059   0.624   0.464  2.1548  0.1619  0.5297
   91SOL     MW  364   2.099   0.669   0.524 -0.0149  0.0720  0.4335
   92SOL     OW  365   1.570   0.841   0.433 -0.1157  0.6314 -0.1445
   92SOL    HW1  366   1.479   0.812   0.446 -2.4429  1.9675 -2.0574
   92SOL    HW2  367   1.617   0.767   0.391 -2.8457  2.0065 -0.2476
   92SOL     MW  368   1.564   0.828   0.429 -0.7830  0.9891 -0.4105
   93SOL     OW  369   1.069   0.277   0.334 -0.4760  0.8511 -0.5550
   93SOL    HW1  370   1.005   0.343   0.368  1.9421  0.9324  2.8973
   93SOL    HW2  371   1.083   0.299   0.244  0.2497 -1.1221 -1.1359
   93SOL     MW  372   1.063   0.289   0.326 -0.0612  0.6015 -0.1761
   94SOL     OW  373   1.917   1.310   1.660 -0.4222  0.0596 -0.1781
   94SOL    HW1  374   1.920   1.308   1.569  0.7598  1.4394 -0.2710
   94SOL    HW2  375   1.874   1.229   1.684 -0.2981 -3.4002  0.6576
   94SOL     MW  376   1.912   1.299   1.651 -0.2499 -0.2149 -0.0801
   95SOL     OW  377   0.812   1.526   0.967 -0.7779 -0.1854 -0.1751
   95SOL    HW1  378   0.883   1.477   1.002  0.9002  0.7051 -0.5076
   95SOL    HW2  379   0.742   1.547   1.035 -2.1100  1.2912  0.8253
   95SOL     MW  380   0.812   1.523   0.981 -0.7322  0.1269 -0.0870
   96SOL     OW  381   1.243   1.810   1.594  0.1817  0.0477  0.0956
   96SOL    HW1  382   1.164   1.762   1.605 -1.6041 -2.4878  1.3535
   96SOL    HW2  383   1.301   1.767   1.534  0.5262 -0.4071  0.7288
   96SOL     MW  384   1.240   1.798   1.588 -0.0085 -0.3469  0.3451
   97SOL     OW  385   1.228   1.404   0.818 -0.5789  0.5931 -0.2630
   97SOL    HW1  386   1.232   1.460   0.891 -1.5738  1.1076  0.7861
   97SOL    HW2  387   1.165   1.450   0.763  0.7305 -0.0987  0.7518
   97SOL     MW  388   1.220   1.418   0.820 -0.5374  0.5697  0.0093
   98SOL     OW  389   1.517   1.309   1.138 -0.0841  0.1411 -0.8873
   98SOL    HW1  390   1.564   1.379   1.186 -0.6591 -0.6852  1.2333
   98SOL    HW2  391   1.528   1.332   1.045  0.3575  0.4637 -0.3962
   98SOL     MW  392   1.525   1.322   1.132 -0.1017  0.0746 -0.5427
   99SOL     OW  393   1.525   0.321   1.292 -0.2179 -0.2549  0.1250
   99SOL    HW1  394   1.537   0.394   1.237 -0.4120  2.0979  0.3131
   99SOL    HW2  395   1.476   0.351   1.373 -1.4122 -0.9771  0.0712
   99SOL     MW  396   1.520   0.334   1.295 -0.4011 -0.0398  0.1427
  100SOL     OW  397   1.041   1.081   1.403 -0.3490  0.1183  0.8531
  100SOL    HW1  398   0.975   1.102   1.470  0.0711  0.8144 -0.0699
  100SOL    HW2  399   1.068   0.991   1.428 -1.5939  0.2367  2.2237
  100SOL     MW  400   1.036   1.072   1.415 -0.4578  0.2257  0.9122
  101SOL     OW  401   0.625   1.149   0.283  0.1732 -0.2357 -0.7535
  101SOL    HW1  402   0.593   1.055   0.286  0.0913 -1.1345 -0.0399
  101SOL    HW2  403   0.580   1.190   0.213 -1.2490  0.9267 -0.4750
  101SOL     MW  404   0.615   1.142   0.274 -0.0252 -0.2009 -0.6226
  102SOL     OW  405   2.955   0.593   0.996  0.0916  0.0647  0.0491
  102SOL    HW1  406   3.007   0.664   0.972 -2.9534 -2.4658  2.3746
  102SOL    HW2  407   2.982   0.560   1.080  0.0803 -0.5850 -1.8199
  102SOL     MW  408   2.965   0.598   1.004 -0.3116 -0.3549  0.1093
  103SOL     OW  409   1.624   0.375   1.864  0.2508  0.3600 -0.1641
  103SOL    HW1  410   1.626   0.330   1.773 -0.2125  0.2481 -0.4791
  103SOL    HW2  411   1.707   0.358   1.904 -3.6731 -2.4211 -0.3556
  103SOL     MW  412   1.635   0.367   1.858 -0.3280 -0.0217 -0.2309
  104SOL     OW  413   0.158   1.860   1.398  0.9432  0.2040 -0.0156
  104SOL    HW1  414   0.247   1.836   1.393  0.2928  2.2124  0.9647
  104SOL    HW2  415   0.097   1.788   1.368 -2.3930 -0.9760 -1.3015
  104SOL     MW  416   0.162   1.847   1.393  0.4172  0.3133 -0.0559
  105SOL     OW  417   0.178   1.160   0.560 -0.0017  0.5812 -0.2427
  105SOL    HW1  418   0.168   1.109   0.481 -1.2008 -0.9236  3.1163
  105SOL    HW2  419   0.240   1.237   0.539  2.2235 -0.2080  2.2186
  105SOL     MW  420   0.185   1.164   0.547  0.1336  0.2785  0.5252
  106SOL     OW  421   0.856   0.327   0.934  0.2057  0.0360  0.1626
  106SOL    HW1  422   0.820   0.403   0.893  0.6775 -1.2541  0.4641
  106SOL    HW2  423   0.945   0.316   0.900 -0.8303 -2.2808 -0.2859
  106SOL     MW  424   0.863   0.336   0.924  0.1313 -0.4399  0.1432
  107SOL     OW  425   0.815   2.189   3.025  0.2825 -0.0498 -0.4094
  107SOL    HW1  426   0.771   2.129   2.961  1.4352 -2.3137  0.6560
  107SOL    HW2  427   0.839   2.132   3.099 -0.1220 -0.2485 -0.8593
  107SOL     MW  428   0.813   2.173   3.026  0.3812 -0.3747 -0.3282
  108SOL     OW  429   1.383   1.603   1.425 -0.3215  0.1097  0.0426
  108SOL    HW1  430   1.309   1.580   1.370  0.6475  1.7977 -4.0609
  108SOL    HW2  431   1.366   1.553   1.503 -4.9108  5.8818 -2.5472
  108SOL     MW  432   1.371   1.593   1.428 -0.7991  1.0940 -0.8405
  109SOL     OW  433   1.941   0.761   0.208 -0.2366  0.2782 -0.5976
  109SOL    HW1  434   1.999   0.754   0.137  1.8097 -1.6457 -0.5630
  109SOL    HW2  435   1.985   0.826   0.269  2.0306 -0.1299 -0.2098
  109SOL     MW  436   1.954   0.769   0.206  0.3325 -0.0295 -0.5419
  110SOL     OW  437   0.419   1.807   0.702  0.1172  0.0719  0.2628
  110SOL    HW1  438   0.482   1.739   0.678  0.5646  0.2959  0.2410
  110SOL    HW2  439   0.439   1.890   0.651 -0.0207  4.0667  2.0857
  110SOL     MW  440   0.430   1.809   0.692  0.1580  0.6285  0.5004
  111SOL     OW  441   0.732   0.852   1.511 -0.0685 -0.3568  0.1612
  111SOL    HW1  442   0.719   0.806   1.426  0.0778  0.1441 -1.3404
  111SOL    HW2  443   0.645   0.839   1.549  0.6755  0.7555 -0.0007
  111SOL     MW  444   0.719   0.844   1.505  0.0489 -0.1439 -0.0583
  112SOL     OW  445   1.318   1.079   1.703  0.3503 -0.5240  0.9113
  112SOL    HW1  446   1.283   1.165   1.666 -1.9890 -1.4923  0.4862
  112SOL    HW2  447   1.254   1.011   1.700  2.9836  0.8231  1.6040
  112SOL     MW  448   1.305   1.082   1.698  0.3891 -0.4740  0.9466
  113SOL     OW  449   1.375   0.065   1.707 -0.3354 -1.0387  0.1469
  113SOL    HW1  450   1.364   0.022   1.796 -0.4702 -2.4906 -0.5432
  113SOL    HW2  451   1.373  -0.011   1.649 -0.6170 -0.7147  2.8315
  113SOL     MW  452   1.373   0.050   1.711 -0.3904 -1.1875  0.4100
  114SOL     OW  453   0.470   2.813   1.832  0.7460  0.3383  0.1989
  114SOL    HW1  454   0.467   2.871   1.911 -0.5683 -0.2339  1.9665
  114SOL    HW2  455   0.423   2.858   1.762  0.1265  1.6523 -0.6388
  114SOL     MW  456   0.463   2.827   1.833  0.4909  0.4362  0.3216
  115SOL     OW  457   0.460   0.824   1.117  0.0481 -0.2616  0.4565
  115SOL    HW1  458   0.488   0.735   1.114 -1.1508  1.4708  1.6267
  115SOL    HW2  459   0.422   0.838   1.207 -2.8897  2.4785 -0.1045
  115SOL     MW  460   0.459   0.814   1.128 -0.4977  0.3285  0.5369
  116SOL     OW  461   0.761   1.018   0.910 -0.4879  0.6251  0.0300
  116SOL    HW1  462   0.805   1.080   0.855  0.5083 -3.2839 -0.5387
  116SOL    HW2  463   0.824   1.022   0.978  1.6987 -0.9592 -0.4958
  116SOL     MW  464   0.775   1.027   0.912 -0.0679 -0.0997 -0.1144
  117SOL     OW  465   1.222   1.119   0.749  0.1337 -0.4640 -0.5258
  117SOL    HW1  466   1.276   1.085   0.822 -2.4964 -0.3959 -2.8481
  117SOL    HW2  467   1.228   1.217   0.759  0.4249  0.0627 -0.4605
  117SOL     MW  468   1.230   1.127   0.760 -0.1749 -0.3855 -0.8236
  118SOL     OW  469   3.055   2.997   1.692 -0.4843  0.4849 -0.4088
  118SOL    HW1  470   3.081   3.029   1.779  0.5095 -0.3979  1.9495
  118SOL    HW2  471   2.959   3.000   1.687  1.7244  4.1721  0.5437
  118SOL     MW  472   3.046   3.001   1.703 -0.0618  0.8549  0.0280
  119SOL     OW  473   0.543   1.325   1.206 -0.7096 -0.0700 -0.1185
  119SOL    HW1  474   0.523   1.344   1.113  1.9804  2.4118  0.7606
  119SOL    HW2  475   0.463   1.271   1.231 -2.1547 -3.6441  0.2234
  119SOL     MW  476   0.530   1.320   1.197 -0.5454 -0.2141  0.0426
  120SOL     OW  477   0.213   0.687   0.926 -0.3019  0.0737 -0.1113
  120SOL    HW1  478   0.217   0.628   1.004  1.3109  1.6967  0.0594
  120SOL    HW2  479   0.188   0.771   0.958 -0.4425  1.3284  0.1968
  120SOL     MW  480   0.210   0.690   0.941 -0.1077  0.4534 -0.0481
  121SOL     OW  481   1.821   1.038   1.709  0.2742  0.4024  0.0367
  121SOL    HW1  482   1.724   1.033   1.701 -1.6987 -1.4416  0.5248
  121SOL    HW2  483   1.843   0.953   1.666 -0.1734  0.3838 -0.2885
  121SOL     MW  484   1.811   1.026   1.702 -0.0452  0.1567  0.0582
  122SOL     OW  485   0.094   0.514   0.758  0.1702 -0.1146  0.3885
  122SOL    HW1  486   0.153   0.455   0.710 -0.8770 -0.3200  0.1582
  122SOL    HW2  487   0.151   0.569   0.809  1.3746  0.0908 -0.7483
  122SOL     MW  488   0.109   0.513   0.758  0.1910 -0.1146  0.2082
  123SOL     OW  489   1.783   1.022   0.471  0.0189 -0.0596 -0.2893
  123SOL    HW1  490   1.690   1.004   0.498 -0.4982  0.6165  0.1335
  123SOL    HW2  491   1.835   1.033   0.556  1.5470  0.5980 -0.2611
  123SOL     MW  492   1.778   1.021   0.486  0.1523  0.1164 -0.2298
  124SOL     OW  493   0.659   0.514   0.851  0.2575 -0.2004  0.5317
  124SOL    HW1  494   0.574   0.476   0.808  0.3006  0.4839  0.0254
  124SOL    HW2  495   0.653   0.610   0.845 -1.6413 -2.3090  1.1510
  124SOL     MW  496   0.647   0.522   0.845  0.0126 -0.3883  0.5466
  125SOL     OW  497   0.690   1.714   1.667  0.0710  0.4405 -0.1510
  125SOL    HW1  498   0.605   1.656   1.651 -1.3696 -0.5425  2.3835
  125SOL    HW2  499   0.672   1.807   1.688  1.5498  1.0528 -0.2344
  125SOL     MW  500   0.676   1.719   1.668  0.0760  0.3916  0.1724
  126SOL     OW  501   2.117   1.611   1.969 -0.7507 -0.0156  0.2776
  126SOL    HW1  502   2.183   1.682   1.943  0.6827 -1.1490 -1.0434
  126SOL    HW2  503   2.168   1.534   1.987 -0.2366 -1.4591 -1.8671
  126SOL     MW  504   2.132   1.610   1.968 -0.4937 -0.3556 -0.1796
  127SOL     OW  505   0.622   0.735   1.884  0.3274  0.2770 -0.4906
  127SOL    HW1  506   0.690   0.691   1.923 -1.9365  2.6335  0.6201
  127SOL    HW2  507   0.650   0.831   1.896 -1.6791  1.3557  0.2956
  127SOL     MW  508   0.634   0.742   1.891 -0.2360  0.7302 -0.2403
  128SOL     OW  509   1.811   0.747   2.888  0.6156 -0.3004  0.3536
  128SOL    HW1  510   1.795   0.715   2.800  1.2468  1.5326  0.3734
  128SOL    HW2  511   1.786   0.841   2.874 -1.0769 -1.4793 -0.3954
  128SOL     MW  512   1.806   0.755   2.874  0.4756 -0.2141  0.2574
  129SOL     OW  513   1.490   0.980   0.215 -0.0249  0.5104 -0.2338
  129SOL    HW1  514   1.432   0.921   0.174 -0.8217  1.8363  3.9125
  129SOL    HW2  515   1.514   0.938   0.300 -2.1169  1.1954 -0.0915
  129SOL     MW  516   1.485   0.967   0.221 -0.4060  0.7757  0.3320
  130SOL     OW  517   0.753   1.476   0.374 -0.1876 -0.1411  0.2920
  130SOL    HW1  518   0.787   1.423   0.453  0.8283 -2.5771  1.4896
  130SOL    HW2  519   0.832   1.519   0.338  0.9278 -0.6129 -0.4879
  130SOL     MW  520   0.768   1.474   0.380  0.0936 -0.5247  0.3471
  131SOL     OW  521   3.058   0.778   0.079  0.3066  0.1730  0.6221
  131SOL    HW1  522   3.058   0.850   0.003 -1.8694  2.3890 -2.2100
  131SOL    HW2  523   3.147   0.761   0.092  0.4638  1.7013 -2.8209
  131SOL     MW  524   3.070   0.785   0.071  0.0402  0.6670 -0.2058
  132SOL     OW  525   2.765   0.155   1.269  0.2260  0.3042 -0.1299
  132SOL    HW1  526   2.786   0.146   1.176  0.0760 -0.2149  0.9863
  132SOL    HW2  527   2.667   0.152   1.268  0.4425 -0.7764 -0.8628
  132SOL     MW  528   2.755   0.154   1.257  0.2348  0.0932 -0.0793
  133SOL     OW  529   1.127   0.181   1.696  0.1114 -0.2207 -0.0708
  133SOL    HW1  530   1.218   0.158   1.717 -0.2933 -1.6639  1.7668
  133SOL    HW2  531   1.080   0.191   1.777 -0.5690  0.7534 -1.4109
  133SOL     MW  532   1.133   0.180   1.710 -0.0317 -0.2826 -0.0051
  134SOL     OW  533   1.356   2.506   1.399  0.0200  0.2699 -0.1600
  134SOL    HW1  534   1.302   2.590   1.383 -0.6505 -0.9089  2.4004
  134SOL    HW2  535   1.423   2.519   1.474  0.6611 -0.3112  1.3061
  134SOL     MW  536   1.357   2.519   1.407  0.0161  0.0377  0.3713
  135SOL     OW  537   3.030   0.974   2.971  0.0100  0.3689 -0.1356
  135SOL    HW1  538   3.082   1.050   2.953  0.3201 -0.1196  1.6382
  135SOL    HW2  539   2.934   1.011   2.992 -1.6426  0.1441 -3.6045
  135SOL     MW  540   3.025   0.989   2.971 -0.1671  0.2748 -0.3593
  136SOL     OW  541   0.292   2.009   0.855  0.1511  0.0957  0.3951
  136SOL    HW1  542   0.244   1.925   0.852  1.4184 -0.6756 -0.8602
  136SOL    HW2  543   0.378   2.001   0.826 -2.5960 -1.7439 -0.5136
  136SOL     MW  544   0.297   1.997   0.851 -0.0441 -0.2488  0.1095
  137SOL     OW  545   0.732   2.012   0.544  0.8541 -0.2206 -0.7525
  137SOL    HW1  546   0.769   2.009   0.631  2.4517 -1.1954  0.6745
  137SOL    HW2  547   0.636   2.006   0.560 -0.6458  0.7517  2.5918
  137SOL     MW  548   0.724   2.011   0.557  0.8670 -0.2210 -0.1230
  138SOL     OW  549   0.538   0.566   1.083  0.0563 -0.2689  0.1103
  138SOL    HW1  550   0.455   0.532   1.059  0.2045  3.2904  0.9593
  138SOL    HW2  551   0.606   0.535   1.014  0.9074  2.2316 -2.1962
  138SOL     MW  552   0.536   0.558   1.071  0.1881  0.5306 -0.0820
  139SOL     OW  553   2.727   0.482   1.405 -0.1018 -0.2692 -0.4081
  139SOL    HW1  554   2.783   0.404   1.377 -0.7768 -2.5738  3.6199
  139SOL    HW2  555   2.786   0.542   1.455 -0.8686  1.8613  0.3551
  139SOL     MW  556   2.742   0.479   1.408 -0.2921 -0.2922  0.2240
  140SOL     OW  557   0.863   0.353   2.100 -0.2779  0.6666 -0.4845
  140SOL    HW1  558   0.906   0.290   2.041  0.1672  1.9810 -1.1757
  140SOL    HW2  559   0.919   0.370   2.172  1.9881  1.4288 -0.7826
  140SOL     MW  560   0.876   0.347   2.101  0.0798  0.9406 -0.6150
  141SOL     OW  561   1.009   0.615   1.734 -0.0122 -0.3661 -0.4692
  141SOL    HW1  562   1.078   0.551   1.698  1.4137  0.2845 -0.9678
  141SOL    HW2  563   1.062   0.690   1.756  1.9219  0.2499  0.9919
  141SOL     MW  564   1.025   0.617   1.732  0.4311 -0.1990 -0.3422
  142SOL     OW  565   0.944   1.182   0.755  0.4786  0.3856 -0.2597
  142SOL    HW1  566   0.908   1.108   0.697  0.7132 -3.4494  0.6027
  142SOL    HW2  567   1.039   1.158   0.776 -2.1632  0.5488 -1.2003
  142SOL     MW  568   0.952   1.169   0.750  0.1610 -0.0988 -0.2700
  143SOL     OW  569   1.863   0.897   1.109 -0.6545 -0.6054 -0.4728
  143SOL    HW1  570   1.865   0.877   1.017  0.3604 -0.5243  0.3412
  143SOL    HW2  571   1.822   0.822   1.149  0.3311 -1.6282 -0.7708
  143SOL     MW  572   1.858   0.884   1.102 -0.3905 -0.7296 -0.4047
  144SOL     OW  573   0.158   1.164   1.538  1.0546 -0.2163  0.0104
  144SOL    HW1  574   0.253   1.164   1.518  1.7170  1.4821  2.7564
  144SOL    HW2  575   0.155   1.189   1.632 -1.5325 -0.2247 -1.4264
  144SOL     MW  576   0.170   1.167   1.548  0.8006  0.0067  0.1831
  145SOL     OW  577   0.260   0.474   1.082 -0.6301 -1.1023 -0.0692
  145SOL    HW1  578   0.298   0.453   1.166  0.0517  1.0294 -0.1500
  145SOL    HW2  579   0.231   0.394   1.030 -1.2081  2.7290 -0.2126
  145SOL     MW  580   0.261   0.460   1.086 -0.6164 -0.3155 -0.0988
  146SOL     OW  581   0.896   1.889   1.376 -0.2647  0.3480  0.5921
  146SOL    HW1  582   0.901   1.903   1.276 -1.5708 -2.6333 -1.5623
  146SOL    HW2  583   0.801   1.911   1.397 -2.1306  1.5347  1.0516
  146SOL     MW  584   0.884   1.894   1.366 -0.6832  0.1112  0.3685
  147SOL     OW  585   0.387   0.434   2.888  0.0531 -0.3669  0.6648
  147SOL    HW1  586   0.329   0.431   2.963  1.5529 -2.7336 -2.5483
  147SOL    HW2  587   0.350   0.489   2.819 -0.1518 -0.0579  0.0284
  147SOL     MW  588   0.375   0.441   2.889  0.2239 -0.6384  0.1569
  148SOL     OW  589   0.024   0.929   1.328 -0.2429 -0.4220  0.4076
  148SOL    HW1  590   0.118   0.940   1.341  2.4102  0.7905  0.9485
  148SOL    HW2  591  -0.022   0.951   1.415 -1.4810  0.1638  1.0679
  148SOL     MW  592   0.031   0.934   1.341 -0.0562 -0.1847  0.5661
  149SOL     OW  593   1.416   1.161   1.437 -0.2244  0.7944  0.5376
  149SOL    HW1  594   1.397   1.128   1.530  0.1959 -2.6564  0.9680
  149SOL    HW2  595   1.480   1.233   1.450  1.2638  0.9512  0.2544
  149SOL     MW  596   1.422   1.166   1.451  0.0274  0.3598  0.5570
  150SOL     OW  597   1.819   1.297   0.783  0.1770 -0.7407  0.1745
  150SOL    HW1  598   1.848   1.208   0.782 -0.8487 -0.1483 -0.7584
  150SOL    HW2  599   1.885   1.339   0.835 -0.0821 -2.7542  4.6773
  150SOL     MW  600   1.831   1.291   0.790  0.0075 -0.9282  0.6455
  151SOL     OW  601   1.635   1.817   0.858  0.5021  0.5595  0.0900
  151SOL    HW1  602   1.581   1.826   0.780  0.7324  2.9391  2.2616
  151SOL    HW2  603   1.576   1.762   0.912  2.7799  1.2405  0.0645
  151SOL     MW  604   1.620   1.811   0.855  0.8330  0.9633  0.3732
  152SOL     OW  605   0.793   1.354   1.531  0.1043 -0.4445 -0.0632
  152SOL    HW1  606   0.820   1.261   1.563  0.7955 -0.6041 -3.0550
  152SOL    HW2  607   0.877   1.384   1.500 -1.9349 -0.7877 -0.8161
  152SOL     MW  608   0.808   1.346   1.531 -0.0736 -0.5108 -0.5573
  153SOL     OW  609   2.669   1.230   0.719 -0.2986 -0.3328  0.1833
  153SOL    HW1  610   2.757   1.200   0.686  0.7156  1.4337  0.1245
  153SOL    HW2  611   2.607   1.146   0.713  1.3237 -1.4105  0.5176
  153SOL     MW  612   2.672   1.215   0.714  0.0493 -0.2419  0.2196
  154SOL     OW  613   0.331   1.766   1.687  0.1201 -0.0442  0.1221
  154SOL    HW1  614   0.354   1.741   1.591  0.4415 -2.2994 -0.1948
  154SOL    HW2  615   0.343   1.688   1.742 -1.9578 -2.2982 -2.5626
  154SOL     MW  616   0.335   1.752   1.681 -0.1116 -0.6392 -0.2740
  155SOL     OW  617   1.106   0.687   0.308 -0.2502 -0.5590 -0.7258
  155SOL    HW1  618   1.121   0.645   0.393 -1.2868 -0.0182  0.9597
  155SOL    HW2  619   1.077   0.776   0.334 -0.6597 -0.4202  1.5543
  155SOL     MW  620   1.104   0.693   0.323 -0.4410 -0.4694 -0.2026
  156SOL     OW  621   1.483   3.029   1.034  0.1306 -0.0043  0.0027
  156SOL    HW1  622   1.542   3.097   1.061 -4.7556 -0.0582  0.6227
  156SOL    HW2  623   1.487   2.958   1.098 -0.2084  0.1975 -1.1642
  156SOL     MW  624   1.491   3.029   1.046 -0.5588  0.0152 -0.0694
  157SOL     OW  625   1.359   1.224   0.143  0.0832 -0.3392  0.3514
  157SOL    HW1  626   1.378   1.130   0.173  2.0163 -1.6881  1.5480
  157SOL    HW2  627   1.450   1.251   0.121 -1.5508 -1.4827  0.8444
  157SOL     MW  628   1.373   1.215   0.144  0.1227 -0.6680  0.5743
  158SOL     OW  629   0.414   1.672   2.267  0.7157 -0.0171 -0.2294
  158SOL    HW1  630   0.413   1.736   2.198  0.4699  1.7250  2.4251
  158SOL    HW2  631   0.321   1.647   2.271  0.0390 -3.2794 -2.9681
  158SOL     MW  632   0.401   1.678   2.258  0.5940 -0.2177 -0.2405
  159SOL     OW  633   1.320   1.660   0.453  0.0264 -0.0430 -0.1345
  159SOL    HW1  634   1.311   1.583   0.400 -0.0910  0.9828  3.0917
  159SOL    HW2  635   1.225   1.677   0.482 -1.2664  3.2657 -0.3946
  159SOL     MW  636   1.306   1.652   0.450 -0.1596  0.5289  0.2568
  160SOL     OW  637   0.458   1.079   1.551  0.2310  0.1579  0.0290
  160SOL    HW1  638   0.467   0.990   1.581  1.1628  1.3497  0.1679
  160SOL    HW2  639   0.507   1.123   1.620 -0.8627  2.3771  0.3348
  160SOL     MW  640   0.466   1.073   1.564  0.2096  0.6080  0.0877
  161SOL     OW  641   0.569   2.107   2.706 -0.5145  0.1079 -0.6326
  161SOL    HW1  642   0.485   2.126   2.747 -0.0559 -0.2536 -0.6721
  161SOL    HW2  643   0.561   2.099   2.616  1.2592 -2.7836  1.9810
  161SOL     MW  644   0.557   2.109   2.699 -0.2200 -0.3213 -0.2929
  162SOL     OW  645   0.999   1.678   1.789 -0.3246 -0.3776 -0.1212
  162SOL    HW1  646   0.970   1.771   1.795  0.9568 -2.9493 -2.8335
  162SOL    HW2  647   0.931   1.626   1.822  0.6725  1.0683 -0.0460
  162SOL     MW  648   0.986   1.684   1.794 -0.0240 -0.5261 -0.4691
  163SOL     OW  649   2.115   0.184   0.962 -0.0475  0.6447 -0.0627
  163SOL    HW1  650   2.104   0.187   0.871  2.9781 -1.9752  3.0357
  163SOL    HW2  651   2.055   0.116   0.995 -0.5351  0.8394  0.0980
  163SOL     MW  652   2.106   0.175   0.954  0.2873  0.3247  0.3673
  164SOL     OW  653   0.243   0.226   0.789  0.2245  0.4505 -0.9568
  164SOL    HW1  654   0.165   0.225   0.849 -2.8045  0.6345  0.1175
  164SOL    HW2  655   0.263   0.135   0.770  0.2241  1.8109 -0.1046
  164SOL     MW  656   0.235   0.214   0.794 -0.1752  0.6542 -0.7026
  165SOL     OW  657   1.368   1.237   0.418  0.0508  0.1560  0.4703
  165SOL    HW1  658   1.328   1.152   0.427  0.5751  1.4043  1.7715
  165SOL    HW2  659   1.381   1.256   0.325  0.0302  0.1792 -0.8758
  165SOL     MW  660   1.365   1.228   0.407  0.1172  0.3238  0.4644
  166SOL     OW  661   0.482   1.068   0.958 -0.2987 -0.3591 -0.5765
  166SOL    HW1  662   0.461   0.995   1.020  1.8748 -3.1584  0.9084
  166SOL    HW2  663   0.576   1.061   0.942  0.1577 -3.6806  0.3852
  166SOL     MW  664   0.492   1.058   0.964  0.0483 -1.1667 -0.2537
  167SOL     OW  665   0.888   1.139   0.259 -0.2127  0.1335  0.1741
  167SOL    HW1  666   0.796   1.149   0.269 -2.2717 -2.3666  1.0744
  167SOL    HW2  667   0.923   1.199   0.187  0.5993 -0.4249 -2.0647
  167SOL     MW  668   0.881   1.148   0.251 -0.3772 -0.2701 -0.0025
  168SOL     OW  669   1.704   1.738   2.876 -0.3783 -0.0884 -0.4031
  168SOL    HW1  670   1.629   1.796   2.894  0.0776  1.0192  2.6765
  168SOL    HW2  671   1.699   1.673   2.956  0.0711  0.4462  0.1924
  168SOL     MW  672   1.693   1.737   2.889 -0.2589  0.1283  0.0818
  169SOL     OW  673   0.330   0.949   1.337  0.3550  0.0644  0.2727
  169SOL    HW1  674   0.377   0.985   1.414  0.8841 -3.8478  0.6393
  169SOL    HW2  675   0.293   1.031   1.298 -0.0110  1.3798  0.1080
  169SOL     MW  676   0.331   0.965   1.342  0.3765 -0.2783  0.2993
  170SOL     OW  677   1.049   1.462   1.478  0.7049 -0.0533 -0.3853
  170SOL    HW1  678   0.980   1.534   1.469 -1.4311  3.0491 -1.1821
  170SOL    HW2  679   1.098   1.468   1.400  1.5689 -1.5893  2.4103
  170SOL     MW  680   1.047   1.472   1.466  0.5371  0.1534 -0.1216
  171SOL     OW  681   0.616   1.391   0.713 -0.3661  0.4218  0.1681
  171SOL    HW1  682   0.583   1.382   0.806  1.5070 -1.3209  0.0842
  171SOL    HW2  683   0.591   1.309   0.680  0.5367  0.8596  0.3554
  171SOL     MW  684   0.608   1.379   0.721  0.0002  0.2497  0.1818
  172SOL     OW  685   0.863   0.320   1.207  0.2047 -0.0066 -0.3361
  172SOL    HW1  686   0.859   0.329   1.106 -0.1368 -0.1659 -1.0420
  172SOL    HW2  687   0.783   0.368   1.244  2.5952 -0.7032  1.9901
  172SOL     MW  688   0.852   0.327   1.198  0.4751 -0.1195 -0.1223
  173SOL     OW  689   0.479   1.725   0.355  0.0573  0.5160  0.5706
  173SOL    HW1  690   0.493   1.637   0.312 -1.7678 -0.4039 -0.0759
  173SOL    HW2  691   0.511   1.715   0.445 -1.4684  1.7183  1.6985
  173SOL     MW  692   0.485   1.712   0.361 -0.3848  0.5533  0.6341
  174SOL     OW  693   2.019   0.938   1.492 -0.9082  0.1991 -0.2410
  174SOL    HW1  694   1.981   0.852   1.511 -1.2393 -3.4949 -2.5242
  174SOL    HW2  695   1.958   0.978   1.434  1.2670 -3.3800 -1.5293
  174SOL     MW  696   2.006   0.932   1.487 -0.6649 -0.7605 -0.7122
  175SOL     OW  697   0.478   1.438   0.318  0.5266  0.2171 -0.1321
  175SOL    HW1  698   0.464   1.421   0.227  0.7635  1.3425 -1.8436
  175SOL    HW2  699   0.567   1.415   0.333  2.9042  2.0996 -2.0607
  175SOL     MW  700   0.488   1.433   0.308  0.8716  0.6140 -0.6124
  176SOL     OW  701   0.301   1.212   1.232 -0.1968  1.2703 -0.8002
  176SOL    HW1  702   0.241   1.200   1.154 -1.7756  0.1408 -0.0303
  176SOL    HW2  703   0.292   1.305   1.243 -1.8998 -3.1089 -1.4208
  176SOL     MW  704   0.292   1.223   1.223 -0.6298  0.5435 -0.7805
  177SOL     OW  705   0.623   0.450   1.309  0.2226 -0.8202  0.3430
  177SOL    HW1  706   0.582   0.486   1.221  0.7335 -0.2939 -1.4367
  177SOL    HW2  707   0.613   0.513   1.381 -1.6206  0.2159  2.5111
  177SOL     MW  708   0.616   0.463   1.307  0.0468 -0.6141  0.3942
  178SOL     OW  709   3.094   0.413   2.949 -0.1994 -0.3923 -0.3852
  178SOL    HW1  710   3.024   0.436   3.020 -0.2376 -0.1198  0.3819
  178SOL    HW2  711   3.060   0.455   2.872  1.1354 -0.5976  2.6514
  178SOL     MW  712   3.080   0.421   2.948 -0.0283 -0.3835  0.1167
  179SOL     OW  713   1.640   1.310   1.489  0.4716 -0.3151 -0.1743
  179SOL    HW1  714   1.640   1.369   1.565  1.6456  1.7287  2.0858
  179SOL    HW2  715   1.734   1.306   1.466  0.0677  0.9535 -1.7721
  179SOL     MW  716   1.653   1.317   1.496  0.5732  0.1219 -0.0869
  180SOL     OW  717   3.022   0.266   0.472 -0.6801 -1.2037 -0.2366
  180SOL    HW1  718   2.981   0.270   0.381 -1.9414  0.1418 -2.1829
  180SOL    HW2  719   3.073   0.344   0.473 -1.2321  0.3636  0.4087
  180SOL     MW  720   3.023   0.277   0.460 -0.9193 -0.8194 -0.4083
  181SOL     OW  721   1.110   1.448   3.065 -0.1257  0.3941 -0.0177
  181SOL    HW1  722   1.144   1.498   3.138 -0.7944  1.0718  0.1340
  181SOL    HW2  723   1.187   1.440   3.006 -1.6912  0.6724 -0.5382
  181SOL     MW  724   1.125   1.453   3.067 -0.4205  0.5202 -0.0664
  182SOL     OW  725   0.470   0.818   1.623 -0.4576  0.2780  0.1118
  182SOL    HW1  726   0.379   0.811   1.649 -1.0138 -0.4407  0.7102
  182SOL    HW2  727   0.520   0.776   1.693 -1.1047  0.3281 -0.4097
  182SOL     MW  728   0.465   0.811   1.635 -0.6163  0.1898  0.1219
  183SOL     OW  729   1.642   1.527   1.297 -0.0663 -0.3462 -0.3616
  183SOL    HW1  730   1.569   1.564   1.349 -2.4942 -0.3336  1.3570
  183SOL    HW2  731   1.666   1.450   1.344  0.1874  1.1580  0.5429
  183SOL     MW  732   1.636   1.522   1.310 -0.3532 -0.1461 -0.0155
  184SOL     OW  733   0.861   0.615   1.990  0.2094 -0.1429  0.5061
  184SOL    HW1  734   0.927   0.607   1.916  0.8688  1.5661  0.8370
  184SOL    HW2  735   0.858   0.539   2.040  0.7861  1.2673 -3.0998
  184SOL     MW  736   0.869   0.604   1.987  0.3725  0.2687  0.0740
  185SOL     OW  737   1.114   0.945   1.957 -0.5420 -0.1968  0.6759
  185SOL    HW1  738   1.128   0.872   2.019  1.8179 -2.2801  2.1948
  185SOL    HW2  739   1.154   1.025   2.003 -0.8434 -1.2451  0.8866
  185SOL     MW  740   1.121   0.946   1.972 -0.2704 -0.6100  0.9041
  186SOL     OW  741   0.393   1.672   1.415  0.1920  0.2656  0.2254
  186SOL    HW1  742   0.462   1.707   1.364 -0.4989 -1.8427 -0.5326
  186SOL    HW2  743   0.334   1.630   1.354  0.8805 -0.2252 -0.7947
  186SOL     MW  744   0.394   1.671   1.400  0.1917 -0.0774 -0.0092
  187SOL     OW  745   1.515   0.683   1.463 -0.0545  0.1755 -0.5999
  187SOL    HW1  746   1.484   0.704   1.552 -0.1269 -0.5821 -0.0401
  187SOL    HW2  747   1.432   0.669   1.413 -1.0977  0.6699  0.5965
  187SOL     MW  748   1.500   0.684   1.468 -0.2017  0.1408 -0.3682
  188SOL     OW  749   1.904   1.038   0.718  0.1070  0.3110 -0.2540
  188SOL    HW1  750   1.911   0.951   0.756 -0.4340  2.3318 -0.5140
  188SOL    HW2  751   1.993   1.066   0.698 -2.0373  0.1078  0.3106
  188SOL     MW  752   1.917   1.030   0.720 -0.2473  0.5508 -0.2138
  189SOL     OW  753   0.660   0.784   0.802 -0.1803  0.1981  0.0953
  189SOL    HW1  754   0.572   0.807   0.779 -0.3079 -0.6475 -2.8049
  189SOL    HW2  755   0.680   0.875   0.828  3.2571  2.8170 -0.2702
  189SOL     MW  756   0.651   0.799   0.802  0.2564  0.4321 -0.3356
  190SOL     OW  757   1.871   0.316   1.965  0.1827 -1.1675  0.0276
  190SOL    HW1  758   1.905   0.251   1.901 -1.1136 -0.5193  1.2851
  190SOL    HW2  759   1.930   0.396   1.955 -0.9233  0.8238  0.8731
  190SOL     MW  760   1.883   0.318   1.955 -0.1343 -0.8193  0.3051
  191SOL     OW  761   1.633   0.941   1.383  0.5827  0.2666 -1.2712
  191SOL    HW1  762   1.550   0.990   1.395  0.8247 -0.7399 -1.6572
  191SOL    HW2  763   1.606   0.855   1.416  1.8416 -0.0931 -1.2435
  191SOL     MW  764   1.619   0.936   1.389  0.7807  0.0863 -1.3185
  192SOL     OW  765   0.757   1.974   2.840 -0.2827  0.2302 -0.7961
  192SOL    HW1  766   0.707   2.036   2.783  1.1642  2.7567  1.8176
  192SOL    HW2  767   0.690   1.908   2.856 -0.9040  1.3440 -2.6493
  192SOL     MW  768   0.742   1.974   2.835 -0.1738  0.7105 -0.6957
  193SOL     OW  769   1.054   1.588   0.749 -0.1510 -0.1691  0.2985
  193SOL    HW1  770   1.053   1.650   0.820  1.3654  1.6812  2.3925
  193SOL    HW2  771   0.973   1.537   0.742 -1.6152 -0.2309  0.2708
  193SOL     MW  772   1.043   1.590   0.758 -0.1441  0.0669  0.5711
  194SOL     OW  773   0.478   1.360   0.938  0.3082  0.5262  0.1757
  194SOL    HW1  774   0.470   1.263   0.929 -1.5650 -1.8747 -0.6138
  194SOL    HW2  775   0.394   1.391   0.906 -0.4003 -0.2844 -3.1718
  194SOL     MW  776   0.466   1.351   0.932 -0.0324  0.1025 -0.3701
  195SOL     OW  777   1.273   1.149   2.991 -0.2010 -0.5611 -0.0728
  195SOL    HW1  778   1.296   1.180   3.078 -1.2814  1.1446  1.0695
  195SOL    HW2  779   1.203   1.079   3.006  0.7926 -2.6777  2.2535
  195SOL     MW  780   1.267   1.144   3.005 -0.2125 -0.6153  0.3849
  196SOL     OW  781   2.180   1.097   0.642  0.5073  0.8511  0.9250
  196SOL    HW1  782   2.207   1.044   0.568 -0.3468  0.5334 -0.0043
  196SOL    HW2  783   2.188   1.190   0.628 -1.8562  0.1709 -0.6743
  196SOL     MW  784   2.184   1.102   0.630  0.0828  0.7194  0.5914
  197SOL     OW  785   0.575   1.255   2.007  0.3311 -0.0857 -0.5119
  197SOL    HW1  786   0.598   1.162   1.988  2.1471 -0.5515 -0.9101
  197SOL    HW2  787   0.553   1.287   1.924  0.3174 -1.1471  3.0540
  197SOL     MW  788   0.575   1.247   1.993  0.5689 -0.2872 -0.0940
  198SOL     OW  789   2.950   1.401   1.038  0.6570 -0.1059  0.0454
  198SOL    HW1  790   2.951   1.493   1.006  0.7271  0.0868 -1.0405
  198SOL    HW2  791   2.857   1.373   1.038 -3.3279 -1.9335 -1.5259
  198SOL     MW  792   2.938   1.410   1.034  0.1405 -0.3217 -0.3052
  199SOL     OW  793   0.515   1.282   1.741 -0.0755  0.0773 -0.1870
  199SOL    HW1  794   0.418   1.285   1.758  1.7761 -2.1675  2.0524
  199SOL    HW2  795   0.531   1.358   1.681  2.7761  1.6402 -1.9782
  199SOL     MW  796   0.504   1.293   1.735  0.5450 -0.0127 -0.1279
  200SOL     OW  797   1.902   3.093   1.365 -0.7670  0.0600  0.7670
  200SOL    HW1  798   1.918   3.094   1.267  1.2013  2.2475 -1.1183
  200SOL    HW2  799   1.807   3.101   1.375 -1.0370 -0.4698 -1.0063
  200SOL     MW  800   1.891   3.094   1.354 -0.5429  0.2787  0.2843
  201SOL     OW  801   1.092   0.303   0.823 -0.5898 -0.0091  0.1654
  201SOL    HW1  802   1.087   0.209   0.787 -0.3724  2.1455  2.4752
  201SOL    HW2  803   1.124   0.359   0.746 -1.2383  1.9826 -0.3871
  201SOL     MW  804   1.096   0.298   0.808 -0.6467  0.5380  0.3973
  202SOL     OW  805   1.553   1.622   1.042 -0.2671  0.6321  0.2326
  202SOL    HW1  806   1.556   1.541   0.990  0.1257  1.9515 -0.3458
  202SOL    HW2  807   1.597   1.600   1.123 -1.9443 -1.0017 -0.5721
  202SOL     MW  808   1.560   1.609   1.046 -0.4366  0.5906  0.0501
  203SOL     OW  809   3.090   0.445   1.206  1.1918 -0.0200 -0.5395
  203SOL    HW1  810   3.151   0.393   1.159 -1.7417 -0.8508  0.1589
  203SOL    HW2  811   3.142   0.509   1.251 -2.9677 -2.1861  1.8124
  203SOL     MW  812   3.105   0.447   1.206  0.2559 -0.4154 -0.1370
  204SOL     OW  813   1.070   1.758   0.517 -0.4160  0.1509 -0.2961
  204SOL    HW1  814   1.039   1.705   0.596 -1.6974  2.5643 -1.2150
  204SOL    HW2  815   0.987   1.777   0.468  0.0339 -0.5774 -0.9722
  204SOL     MW  816   1.055   1.754   0.521 -0.5257  0.3732 -0.5066
  205SOL     OW  817   1.387   0.084   1.329 -0.3211  0.5653 -0.3603
  205SOL    HW1  818   1.328   0.088   1.254  0.4608  1.6176  0.5995
  205SOL    HW2  819   1.429   0.167   1.339 -1.0780  0.3456  1.1905
  205SOL     MW  820   1.385   0.095   1.320 -0.3178  0.6751 -0.0291
  206SOL     OW  821   0.486   3.070   1.378 -0.5969 -0.3999  0.1345
  206SOL    HW1  822   0.433   3.046   1.300  0.6660 -0.6391  1.4713
  206SOL    HW2  823   0.561   3.015   1.381 -1.9199  3.6585  0.9855
  206SOL     MW  824   0.489   3.060   1.368 -0.6048  0.1040  0.4232
  207SOL     OW  825   0.961   1.554   0.252 -0.6083  0.5226  0.2452
  207SOL    HW1  826   0.985   1.647   0.232 -1.1610  1.7478  0.2674
  207SOL    HW2  827   1.043   1.500   0.274  1.4060 -1.8316  0.6280
  207SOL     MW  828   0.975   1.559   0.252 -0.4154  0.3737  0.2986
  208SOL     OW  829   0.663   1.564   1.201  0.6339 -0.0397 -0.3105
  208SOL    HW1  830   0.718   1.580   1.274 -1.1533 -1.1201 -0.0855
  208SOL    HW2  831   0.621   1.477   1.206  1.5834 -2.3067 -1.2669
  208SOL     MW  832   0.665   1.555   1.211  0.5234 -0.4813 -0.4070
  209SOL     OW  833   1.476   0.538   2.813  0.2873  0.3698  0.1676
  209SOL    HW1  834   1.507   0.603   2.876  0.4071 -0.9376  0.3518
  209SOL    HW2  835   1.547   0.467   2.823  0.8068  1.9661 -2.2096
  209SOL     MW  836   1.489   0.537   2.823  0.3716  0.4079 -0.1217
  210SOL     OW  837   1.580   1.396   0.871  0.2105  0.4383 -0.0013
  210SOL    HW1  838   1.663   1.360   0.839  1.0528  2.2251 -1.2355
  210SOL    HW2  839   1.529   1.391   0.793  0.6754  0.0019  1.7143
  210SOL     MW  840   1.584   1.390   0.856  0.3829  0.6165  0.0622
  211SOL     OW  841   1.711   0.482   0.935  0.1046  0.1161  0.0919
  211SOL    HW1  842   1.698   0.474   0.841  0.2211  0.1674  1.5844
  211SOL    HW2  843   1.805   0.503   0.962 -1.4960 -0.9159 -1.0484
  211SOL     MW  844   1.722   0.484   0.926 -0.0912 -0.0133  0.1384
  212SOL     OW  845   0.239   1.103   0.076  0.3274  0.6459  0.3588
  212SOL    HW1  846   0.212   1.041   0.142 -0.2466  0.2138 -0.4527
  212SOL    HW2  847   0.323   1.073   0.042  0.2447 -2.2952  0.5275
  212SOL     MW  848   0.246   1.091   0.080  0.2407  0.2009  0.2740
  213SOL     OW  849   0.450   1.673   3.095 -0.7336 -0.2124  0.0048
  213SOL    HW1  850   0.490   1.738   3.150  1.8923 -1.4154 -1.0730
  213SOL    HW2  851   0.466   1.710   3.009  1.7623  2.5252 -1.9788
  213SOL     MW  852   0.457   1.687   3.091 -0.0578 -0.0100 -0.3991
  214SOL     OW  853   0.653   0.253   2.289 -0.0590 -0.4886 -0.2473
  214SOL    HW1  854   0.582   0.306   2.260 -0.2736  0.6415 -0.9404
  214SOL    HW2  855   0.728   0.254   2.229  3.3718  1.6265 -1.4077
  214SOL     MW  856   0.653   0.260   2.277  0.3653 -0.0604 -0.4918
  215SOL     OW  857   0.480   0.751   2.619 -0.2493 -0.0821 -0.5632
  215SOL    HW1  858   0.490   0.768   2.526  0.7102 -2.1244  1.3506
  215SOL    HW2  859   0.404   0.695   2.626 -0.6321  1.3739  1.1717
  215SOL     MW  860   0.471   0.745   2.608 -0.1732 -0.1595 -0.0818
  216SOL     OW  861   3.080   3.072   2.734 -0.0561 -0.3910 -0.0889
  216SOL    HW1  862   3.011   3.028   2.792 -3.4183 -3.8197  0.1170
  216SOL    HW2  863   3.025   3.150   2.712  0.3273  2.3833  1.2258
  216SOL     MW  864   3.064   3.077   2.739 -0.4491 -0.4774  0.1117
  217SOL     OW  865   0.967   1.198   3.094 -0.4796  0.5920  0.0036
  217SOL    HW1  866   1.024   1.119   3.094 -0.1218  0.2010  2.3007
  217SOL    HW2  867   1.025   1.280   3.065  5.1712  0.8674  2.1203
  217SOL     MW  868   0.982   1.198   3.090  0.3132  0.5767  0.5859
  218SOL     OW  869   0.905   1.335   2.492 -0.2064 -0.9815  0.0119
  218SOL    HW1  870   0.941   1.275   2.556 -1.3466 -4.4130  2.8069
  218SOL    HW2  871   0.989   1.379   2.465  2.7198 -1.1606 -2.2428
  218SOL     MW  872   0.921   1.333   2.497  0.0292 -1.4579  0.0832
  219SOL     OW  873   1.031   0.441   2.488  0.1015  0.3487  0.5440
  219SOL    HW1  874   1.112   0.481   2.463  0.7774 -0.7755  0.6807
  219SOL    HW2  875   0.978   0.524   2.487  1.6224  1.5027  0.6763
  219SOL     MW  876   1.034   0.457   2.484  0.3913  0.3526  0.5794
  220SOL     OW  877   1.756   0.506   2.221  0.0605 -0.2816  0.3858
  220SOL    HW1  878   1.683   0.547   2.179 -0.2396 -2.8658  0.6794
  220SOL    HW2  879   1.769   0.434   2.155  0.3148 -0.0551 -3.4985
  220SOL     MW  880   1.748   0.502   2.207  0.0545 -0.5926 -0.0880
  221SOL     OW  881   0.407   1.384   2.900 -0.1025 -0.1889  0.0175
  221SOL    HW1  882   0.418   1.296   2.862 -0.4717 -3.6550  1.9460
  221SOL    HW2  883   0.396   1.435   2.824  0.3945  1.5264 -2.0628
  221SOL     MW  884   0.407   1.379   2.885 -0.0857 -0.4199 -0.0025
  222SOL     OW  885   0.306   0.964   2.634  0.1909  0.1274  0.2157
  222SOL    HW1  886   0.267   0.953   2.545 -1.7166 -0.5989 -2.7498
  222SOL    HW2  887   0.369   0.894   2.632 -1.7635  2.4182 -1.7582
  222SOL     MW  888   0.309   0.953   2.622 -0.3186  0.3338 -0.4360
  223SOL     OW  889  -0.003   2.005   2.605  0.2453  0.4807 -0.5813
  223SOL    HW1  890   0.084   1.964   2.645  0.7591  0.1082 -1.3003
  223SOL    HW2  891   0.010   2.029   2.510 -1.6099 -0.0334  3.0095
  223SOL     MW  892   0.010   2.003   2.598  0.0683  0.3637 -0.2024
  224SOL     OW  893   1.479   0.829   2.612 -0.5959 -0.0922  0.1948
  224SOL    HW1  894   1.445   0.830   2.697 -0.1556 -1.6013 -0.7987
  224SOL    HW2  895   1.498   0.917   2.586  1.6086 -0.3534  0.6554
  224SOL     MW  896   1.477   0.841   2.620 -0.2470 -0.3257  0.1245
  225SOL     OW  897   2.920   1.488   2.242  0.5305 -0.1350  0.4998
  225SOL    HW1  898   2.974   1.553   2.193 -0.3203  2.9053  0.3500
  225SOL    HW2  899   2.869   1.537   2.311  0.1419 -2.1053 -0.4769
  225SOL     MW  900   2.921   1.503   2.245  0.3670  0.0062  0.3512
  226SOL     OW  901   0.383   1.480   2.627 -0.0113 -0.8113 -0.0040
  226SOL    HW1  902   0.473   1.465   2.605 -1.4245  1.8534  1.2464
  226SOL    HW2  903   0.380   1.570   2.598  1.9004 -1.5902  2.1060
  226SOL     MW  904   0.394   1.490   2.620  0.0544 -0.5625  0.4393
  227SOL     OW  905   0.435   1.112   2.850  0.8151 -0.4620 -0.3834
  227SOL    HW1  906   0.517   1.118   2.806 -2.2244 -0.7118 -1.9126
  227SOL    HW2  907   0.372   1.072   2.787 -1.3920 -3.7304 -1.5145
  227SOL     MW  908   0.438   1.107   2.836  0.1228 -0.9262 -0.7344
  228SOL     OW  909   0.688   0.991   1.976 -0.1131  0.2175  0.1149
  228SOL    HW1  910   0.767   1.041   1.959 -2.7769 -1.8478  0.2262
  228SOL    HW2  911   0.698   0.957   2.069  1.5242 -0.8407  1.4914
  228SOL     MW  912   0.700   0.993   1.986 -0.2485 -0.1946  0.3112
  229SOL     OW  913   0.214   0.465   3.091 -0.7370  0.0581 -0.1109
  229SOL    HW1  914   0.129   0.479   3.048  0.6170  0.2843  0.5116
  229SOL    HW2  915   0.190   0.415   3.173  0.1798  2.0175 -1.3417
  229SOL     MW  916   0.200   0.460   3.096 -0.4374  0.3465 -0.1912
  230SOL     OW  917   1.777   1.352   2.087  0.0691  0.4207 -0.7193
  230SOL    HW1  918   1.739   1.353   2.175  0.7028 -0.2364  0.6340
  230SOL    HW2  919   1.809   1.262   2.091  0.3165  2.5529  0.7965
  230SOL     MW  920   1.776   1.340   2.099  0.1854  0.6153 -0.3408
  231SOL     OW  921   2.764   1.275   2.140 -0.6315  0.5414 -0.4637
  231SOL    HW1  922   2.833   1.338   2.139 -2.3007  2.2629  0.0265
  231SOL    HW2  923   2.703   1.321   2.084  1.4924 -0.5796 -0.7350
  231SOL     MW  924   2.765   1.289   2.132 -0.5715  0.6206 -0.4348
  232SOL     OW  925   2.282   0.901   2.106 -0.1944 -0.5824  0.2176
  232SOL    HW1  926   2.218   0.935   2.044 -0.6838  0.2883  1.6852
  232SOL    HW2  927   2.226   0.896   2.191 -1.0630  1.9426 -1.2517
  232SOL     MW  928   2.266   0.905   2.109 -0.3735 -0.1344  0.2174
  233SOL     OW  929   2.050   0.515   1.945  0.2680  0.0788 -0.2869
  233SOL    HW1  930   2.095   0.551   1.865 -1.9247  0.9142  1.5268
  233SOL    HW2  931   2.122   0.505   2.008 -2.8595  3.0946  2.8797
  233SOL     MW  932   2.065   0.519   1.943 -0.4340  0.5870  0.3702
  234SOL     OW  933   0.281   0.989   2.335  0.1666 -0.2548 -0.4732
  234SOL    HW1  934   0.193   1.031   2.334 -0.8768  0.7030  0.0261
  234SOL    HW2  935   0.346   1.057   2.365  1.9243  0.8324 -2.0540
  234SOL     MW  936   0.278   1.004   2.339  0.2609  0.0150 -0.6159
  235SOL     OW  937   1.030   3.051   2.798  0.5244  0.0091  0.1218
  235SOL    HW1  938   1.024   2.973   2.853  0.7067  1.9461 -0.2652
  235SOL    HW2  939   0.997   3.124   2.852 -0.2287 -0.0352 -0.8229
  235SOL     MW  940   1.025   3.050   2.812  0.4491  0.2588 -0.0539
  236SOL     OW  941   2.930   0.511   0.032  0.0060 -0.0420 -0.2171
  236SOL    HW1  942   2.844   0.532  -0.015 -1.2912 -0.1444 -1.4517
  236SOL    HW2  943   2.972   0.602   0.054  3.0316 -0.7953  0.7650
  236SOL     MW  944   2.924   0.526   0.029  0.2340 -0.1549 -0.2504
  237SOL     OW  945   1.747   0.875   2.176 -0.0313  0.1647  0.0433
  237SOL    HW1  946   1.769   0.961   2.125  2.1654  0.4446 -0.5758
  237SOL    HW2  947   1.782   0.895   2.266 -1.7766 -3.0075  0.9831
  237SOL     MW  948   1.754   0.889   2.181  0.0283 -0.2169  0.0856
  238SOL     OW  949   1.100   1.737   2.970 -0.1095 -0.1764 -0.2044
  238SOL    HW1  950   1.072   1.647   2.951 -0.0517  1.3872 -2.2551
  238SOL    HW2  951   1.200   1.741   2.974 -0.7293  0.1666 -2.3237
  238SOL     MW  952   1.110   1.726   2.968 -0.1836  0.0752 -0.7546
  239SOL     OW  953   1.159   1.400   2.319 -0.5426  0.2347 -0.1646
  239SOL    HW1  954   1.192   1.421   2.409 -2.1680  3.0098  1.1045
  239SOL    HW2  955   1.159   1.308   2.297  2.6821 -1.5442 -0.6855
  239SOL     MW  956   1.164   1.390   2.328 -0.3316  0.3662 -0.0659
  240SOL     OW  957   0.629   0.886   2.280  0.4461  0.2446 -0.0389
  240SOL    HW1  958   0.638   0.952   2.348 -2.8432  0.0265 -2.3988
  240SOL    HW2  959   0.717   0.848   2.265  4.4956  0.5364 -0.4009
  240SOL     MW  960   0.642   0.890   2.287  0.5464  0.2543 -0.3980
  241SOL     OW  961   0.629   0.345   2.997 -0.2695 -0.4302 -0.0751
  241SOL    HW1  962   0.661   0.381   3.082 -2.7219 -1.6911  1.2268
  241SOL    HW2  963   0.543   0.388   2.987  1.3088  1.4418  2.8727
  241SOL     MW  964   0.622   0.355   3.007 -0.3848 -0.3495  0.4856
  242SOL     OW  965   1.495   1.737   2.327  0.6793  0.5026 -0.4010
  242SOL    HW1  966   1.470   1.817   2.377 -0.7624  1.4423  0.2095
  242SOL    HW2  967   1.432   1.730   2.255  0.1503  2.8399  0.1988
  242SOL     MW  968   1.484   1.747   2.324  0.4193  0.9350 -0.2413
  243SOL     OW  969   0.938   0.215   2.345 -0.2841 -0.2177 -0.4634
  243SOL    HW1  970   1.030   0.210   2.335 -1.1490  1.4486  3.7194
  243SOL    HW2  971   0.928   0.299   2.384  1.3696 -2.6936 -3.4464
  243SOL     MW  972   0.948   0.225   2.349 -0.1800 -0.3245 -0.3051
  244SOL     OW  973   0.198   0.709   2.302  0.0508  0.4574  0.5063
  244SOL    HW1  974   0.223   0.797   2.313 -0.1537 -2.9389 -0.1510
  244SOL    HW2  975   0.277   0.662   2.326  0.9272 -1.3851 -0.4552
  244SOL     MW  976   0.211   0.714   2.306  0.1394 -0.2338  0.2927
  245SOL     OW  977   1.232   0.180   2.326 -0.3385  0.8479  0.3817
  245SOL    HW1  978   1.237   0.082   2.320  0.9315 -1.4680  3.9183
  245SOL    HW2  979   1.231   0.199   2.420 -0.5257  4.0191 -0.2334
  245SOL     MW  980   1.232   0.170   2.338 -0.1956  0.9608  0.7672
  246SOL     OW  981   1.217   1.153   2.101  1.3830  0.3004 -0.4657
  246SOL    HW1  982   1.168   1.116   2.178 -0.3603 -0.9632 -0.2575
  246SOL    HW2  983   1.307   1.177   2.136 -0.9451  0.7675 -0.8729
  246SOL     MW  984   1.223   1.151   2.116  0.8458  0.1953 -0.4920
  247SOL     OW  985   0.694   0.519   0.101  0.2242  0.2335 -0.1274
  247SOL    HW1  986   0.657   0.605   0.090  1.8244  1.2276 -0.8631
  247SOL    HW2  987   0.788   0.538   0.117 -0.0260 -0.0506  0.1183
  247SOL     MW  988   0.702   0.533   0.101  0.4023  0.3271 -0.1920
  248SOL     OW  989   0.427   1.197   2.444  0.0195  0.2254  0.7849
  248SOL    HW1  990   0.420   1.242   2.360  2.4955  0.1469  1.6970
  248SOL    HW2  991   0.392   1.253   2.509 -1.2054 -5.0880  1.0858
  248SOL     MW  992   0.421   1.211   2.442  0.1846 -0.4860  0.9449
  249SOL     OW  993   0.187   1.843   2.721  0.2380  0.6191 -0.0926
  249SOL    HW1  994   0.142   1.767   2.679  2.5152 -0.0152 -0.9770
  249SOL    HW2  995   0.216   1.800   2.801  1.2700 -0.2758 -0.8412
  249SOL     MW  996   0.185   1.827   2.726  0.6746  0.4173 -0.3080
  250SOL     OW  997   2.166   0.900   2.354  0.1414 -0.2171 -0.2902
  250SOL    HW1  998   2.213   0.807   2.370 -1.6319 -2.5824 -1.7280
  250SOL    HW2  999   2.212   0.965   2.415 -0.4032 -1.1556 -0.2695
  250SOL     MW 1000   2.178   0.896   2.364 -0.1644 -0.6530 -0.4772
  251SOL     OW 1001   0.185   0.824   1.992  0.0011 -0.3193  0.3578
  251SOL    HW1 1002   0.164   0.777   2.070  0.1889  1.5427 -1.3533
  251SOL    HW2 1003   0.165   0.769   1.915 -1.5556  1.0584 -3.0424
  251SOL     MW 1004   0.179   0.811   1.992 -0.1795  0.1082 -0.3166
  252SOL     OW 1005   1.714   1.014   2.822 -0.2834  0.2176  0.2463
  252SOL    HW1 1006   1.715   1.093   2.868  0.4789  0.3639  0.3131
  252SOL    HW2 1007   1.769   1.033   2.747 -1.1555 -1.0065  0.3065
  252SOL     MW 1008   1.721   1.027   2.818 -0.2979  0.0754  0.2631
  253SOL     OW 1009   1.150   1.735   2.544  0.0607 -0.1432 -0.0561
  253SOL    HW1 1010   1.129   1.770   2.455  1.7831  1.9850 -1.2801
  253SOL    HW2 1011   1.080   1.781   2.598  2.7567  0.3026 -2.4675
  253SOL     MW 1012   1.138   1.746   2.540  0.6437  0.1964 -0.5358
  254SOL     OW 1013   1.037   1.035   2.289  0.2552  0.7563 -0.8846
  254SOL    HW1 1014   0.998   0.949   2.270  0.3336 -0.1462 -0.0121
  254SOL    HW2 1015   0.959   1.089   2.291  2.2536  0.0132  2.0918
  254SOL     MW 1016   1.022   1.031   2.287  0.5292  0.5392 -0.3768
  255SOL     OW 1017   0.799   2.415   2.214  0.3215  0.2571 -0.1376
  255SOL    HW1 1018   0.704   2.416   2.214 -1.7441  1.5748 -0.7903
  255SOL    HW2 1019   0.815   2.411   2.310  1.6769  0.6267  0.7899
  255SOL     MW 1020   0.789   2.415   2.226  0.2278  0.4797 -0.1014
  256SOL     OW 1021   1.153   2.822   2.909 -0.2173  0.0208  0.2532
  256SOL    HW1 1022   1.189   2.735   2.924 -0.6219  2.1974  2.0402
  256SOL    HW2 1023   1.243   2.868   2.885  2.4995 -1.1130  3.1701
  256SOL     MW 1024   1.169   2.817   2.908  0.0878  0.1584  0.8738
  257SOL     OW 1025   0.121   1.855   0.087  0.0567  0.2977  0.7696
  257SOL    HW1 1026   0.154   1.820   0.172 -2.4601  0.8941 -2.5632
  257SOL    HW2 1027   0.163   1.799   0.021  0.0825  0.9561  2.8103
  257SOL     MW 1028   0.131   1.843   0.089 -0.2720  0.4633  0.5991
  258SOL     OW 1029   0.677   1.075   2.447  0.3988  0.7055 -0.0562
  258SOL    HW1 1030   0.710   1.133   2.379  4.6092  0.6907 -0.5767
  258SOL    HW2 1031   0.582   1.101   2.470 -2.4313 -0.5915  0.2938
  258SOL     MW 1032   0.669   1.086   2.441  0.5809  0.5324 -0.0787
  259SOL     OW 1033   0.700   0.488   2.418  0.2065  0.2489 -0.6660
  259SOL    HW1 1034   0.608   0.511   2.402 -0.9496  2.1787  1.9157
  259SOL    HW2 1035   0.706   0.394   2.385  1.6830  0.0839  0.6105
  259SOL     MW 1036   0.689   0.479   2.412  0.2488  0.4817 -0.1569
  260SOL     OW 1037   0.581   0.113   1.601 -0.1233  0.0018  0.2612
  260SOL    HW1 1038   0.556   0.073   1.516 -0.0806 -1.6963 -0.1797
  260SOL    HW2 1039   0.674   0.138   1.592 -0.2714 -1.4656 -1.0981
  260SOL     MW 1040   0.589   0.111   1.589 -0.1372 -0.4159  0.0237
  261SOL     OW 1041   1.137   0.680   2.120 -0.1396  0.7602 -0.2005
  261SOL    HW1 1042   1.152   0.646   2.209  1.2574  2.1463 -0.7300
  261SOL    HW2 1043   1.183   0.621   2.065  0.1120  1.9473 -1.7531
  261SOL     MW 1044   1.145   0.668   2.124  0.0779  1.0997 -0.4752
  262SOL     OW 1045   1.137   0.350   0.074  0.2268 -0.1819 -0.2791
  262SOL    HW1 1046   1.227   0.350   0.052 -0.0659 -1.6752  1.5686
  262SOL    HW2 1047   1.093   0.275   0.028  0.1212 -1.8224  1.9112
  262SOL     MW 1048   1.143   0.340   0.065  0.1742 -0.5954  0.2537
  263SOL     OW 1049   0.467   3.027   2.557 -0.3505 -0.0850  0.1279
  263SOL    HW1 1050   0.397   3.092   2.543 -0.7317  1.8156 -0.4546
  263SOL    HW2 1051   0.511   3.039   2.473 -1.0838  0.0837  0.7880
  263SOL     MW 1052   0.463   3.037   2.544 -0.4976  0.1880  0.1381
  264SOL     OW 1053   1.540   1.377   1.936 -0.2159 -0.3333 -0.2120
  264SOL    HW1 1054   1.475   1.341   1.998  0.2587  0.6199 -0.2228
  264SOL    HW2 1055   1.626   1.388   1.982  0.1333 -1.3852  0.8278
  264SOL     MW 1056   1.543   1.373   1.951 -0.1072 -0.3463 -0.0763
  265SOL     OW 1057   0.691   2.701   2.240  0.0065 -0.9582  0.7432
  265SOL    HW1 1058   0.763   2.649   2.205 -0.8254 -5.3050 -3.4016
  265SOL    HW2 1059   0.698   2.696   2.335  1.2009 -1.5170 -2.2647
  265SOL     MW 1060   0.702   2.694   2.248  0.0543 -1.6055 -0.2005
  266SOL     OW 1061   0.888   0.808   2.223 -0.2102 -0.0800 -0.6234
  266SOL    HW1 1062   0.905   0.768   2.137 -3.6866 -1.2843  1.0925
  266SOL    HW2 1063   0.899   0.737   2.292 -0.9778 -0.9932 -0.9172
  266SOL     MW 1064   0.892   0.794   2.221 -0.7701 -0.3594 -0.4357
  267SOL     OW 1065   1.386   1.789   2.697 -0.1113 -0.1402 -0.3872
  267SOL    HW1 1066   1.463   1.740   2.683  1.3366 -0.7557  0.7210
  267SOL    HW2 1067   1.321   1.769   2.630 -0.7452 -1.6506 -2.8423
  267SOL     MW 1068   1.388   1.780   2.686 -0.0039 -0.4207 -0.5649
  268SOL     OW 1069   0.205   0.752   1.724  0.4266 -0.3437  0.0493
  268SOL    HW1 1070   0.143   0.799   1.668  0.3576  2.7024  1.9924
  268SOL    HW2 1071   0.219   0.670   1.683  0.5569  2.8327  3.9997
  268SOL     MW 1072   0.198   0.747   1.711  0.4347  0.4773  0.8269
  269SOL     OW 1073   1.421   1.972   2.452 -0.5954 -0.4811  0.2747
  269SOL    HW1 1074   1.462   2.005   2.530 -0.8629  4.4394  2.6955
  269SOL    HW2 1075   1.339   1.965   2.488 -2.3421  2.8948 -2.6667
  269SOL     MW 1076   1.415   1.975   2.467 -0.8611  0.6135  0.2060
  270SOL     OW 1077   1.149   0.425   1.590 -0.1791 -0.1783 -0.6296
  270SOL    HW1 1078   1.129   0.339   1.636 -0.7730 -2.8237  0.4738
  270SOL    HW2 1079   1.241   0.430   1.579 -1.3245 -2.0510  0.1018
  270SOL     MW 1080   1.158   0.414   1.595 -0.4086 -0.7744 -0.3875
  271SOL     OW 1081   0.832   3.063   2.391 -0.3125 -0.6608  0.1035
  271SOL    HW1 1082   0.883   3.027   2.464 -1.1735  1.0329 -0.0640
  271SOL    HW2 1083   0.855   3.155   2.374  1.2830 -0.0177 -0.1429
  271SOL     MW 1084   0.842   3.070   2.399 -0.2156 -0.3525  0.0489
  272SOL     OW 1085   1.388   2.932   2.847  0.2508 -0.6952  0.1754
  272SOL    HW1 1086   1.354   3.010   2.802  0.7774  1.5287 -1.0431
  272SOL    HW2 1087   1.421   2.958   2.931  0.6747 -1.7687 -0.7543
  272SOL     MW 1088   1.388   2.946   2.852  0.3762 -0.5434 -0.1080
  273SOL     OW 1089   1.431   0.947   2.880  0.0723  0.2220 -0.3252
  273SOL    HW1 1090   1.510   0.991   2.863 -0.6607 -0.9556  0.0535
  273SOL    HW2 1091   1.376   1.018   2.915 -1.1056 -1.1564  1.5267
  273SOL     MW 1092   1.434   0.962   2.882 -0.1798 -0.1153 -0.0309
  274SOL     OW 1093   1.331   0.755   0.179  0.4442  0.1331  0.4797
  274SOL    HW1 1094   1.357   0.666   0.198 -1.6653 -2.3762 -0.2972
  274SOL    HW2 1095   1.243   0.759   0.221 -2.3042  0.0741  0.3543
  274SOL     MW 1096   1.322   0.743   0.187 -0.1967 -0.2058  0.3606
  275SOL     OW 1097   1.702   0.709   1.822  0.5409 -0.2606  0.4641
  275SOL    HW1 1098   1.771   0.757   1.872 -0.4205 -0.5368  1.0714
  275SOL    HW2 1099   1.687   0.625   1.869  2.5231  0.0214 -0.6136
  275SOL     MW 1100   1.709   0.704   1.835  0.6756 -0.2599  0.4021
  276SOL     OW 1101   0.228   1.199   1.800 -0.0559  0.3301 -0.3500
  276SOL    HW1 1102   0.281   1.124   1.810  0.1214  1.7823 -1.7863
  276SOL    HW2 1103   0.161   1.192   1.870  0.4880  1.0656 -0.6455
  276SOL     MW 1104   0.226   1.188   1.811  0.0393  0.6188 -0.5785
  277SOL     OW 1105   1.934   1.360   2.629  0.1114 -0.3030 -0.1465
  277SOL    HW1 1106   1.980   1.438   2.624 -3.3254 -0.5826 -0.4056
  277SOL    HW2 1107   1.985   1.293   2.675 -1.6241 -0.1973 -2.9364
  277SOL     MW 1108   1.947   1.361   2.634 -0.5711 -0.3259 -0.5488
  278SOL     OW 1109   1.448   0.699   1.730 -0.3511  0.9552 -0.1721
  278SOL    HW1 1110   1.415   0.622   1.781 -0.0699  1.3257  0.4785
  278SOL    HW2 1111   1.543   0.714   1.753 -0.7546 -0.1572  2.2247
  278SOL     MW 1112   1.456   0.691   1.740 -0.3672  0.8573  0.2300
  279SOL     OW 1113   0.569   3.069   2.238 -0.3611  0.3742 -0.4565
  279SOL    HW1 1114   0.636   3.003   2.219  2.5348  4.1241 -0.1785
  279SOL    HW2 1115   0.624   3.149   2.247  0.0680 -0.2065  3.1715
  279SOL     MW 1116   0.585   3.071   2.236  0.0776  0.7923  0.0589
  280SOL     OW 1117   1.505   1.152   2.212 -0.1046  0.3869 -0.2559
  280SOL    HW1 1118   1.510   1.079   2.149 -2.5719 -0.0134  1.0108
  280SOL    HW2 1119   1.464   1.116   2.287 -0.9470 -1.1965  0.7283
  280SOL     MW 1120   1.500   1.138   2.213 -0.5413  0.1251  0.0411
  281SOL     OW 1121   1.276   1.382   2.829  0.1472 -0.4501 -0.9150
  281SOL    HW1 1122   1.372   1.402   2.830 -0.2241 -1.0340  0.6123
  281SOL    HW2 1123   1.274   1.297   2.870  1.1586 -1.4229  0.1157
  281SOL     MW 1124   1.288   1.374   2.835  0.2317 -0.6555 -0.5775
  282SOL     OW 1125   1.138   1.317   1.694  0.1331 -0.1010 -0.0705
  282SOL    HW1 1126   1.102   1.375   1.623 -1.0323  0.5554  0.0126
  282SOL    HW2 1127   1.071   1.248   1.693  0.2157  0.5660 -2.1841
  282SOL     MW 1128   1.125   1.316   1.684 -0.0098  0.0736 -0.3384
  283SOL     OW 1129   0.708   1.260   3.060 -0.4082  0.2691 -0.5523
  283SOL    HW1 1130   0.790   1.230   3.096 -2.7927 -2.2281 -0.1120
  283SOL    HW2 1131   0.691   1.343   3.096 -1.8183 -1.5828 -3.0926
  283SOL     MW 1132   0.717   1.267   3.070 -0.9089 -0.3047 -0.8294
  284SOL     OW 1133   0.455   0.627   2.342 -0.2357  0.0581  0.3412
  284SOL    HW1 1134   0.506   0.705   2.317  0.6174 -1.7738  0.1253
  284SOL    HW2 1135   0.459   0.545   2.290  0.7671  1.8501  1.3837
  284SOL     MW 1136   0.463   0.627   2.332  0.0092  0.0528  0.4502
  285SOL     OW 1137   0.860   0.980   2.867 -0.1070  0.3673  0.5279
  285SOL    HW1 1138   0.901   1.011   2.789  3.8380  2.2578 -0.9368
  285SOL    HW2 1139   0.806   0.898   2.861 -0.3897 -2.0825  1.1690
  285SOL     MW 1140   0.858   0.973   2.856  0.3762  0.2935  0.4192
  286SOL     OW 1141   1.171   1.447   2.583  0.1194 -0.1373  0.5943
  286SOL    HW1 1142   1.217   1.425   2.663 -1.3616  0.9796 -1.4830
  286SOL    HW2 1143   1.172   1.544   2.586 -0.5509  1.0748 -1.9852
  286SOL     MW 1144   1.177   1.457   2.594 -0.1645  0.1700 -0.0201
  287SOL     OW 1145   1.040   0.940   0.361 -0.1780 -0.1333 -0.5700
  287SOL    HW1 1146   1.121   0.975   0.405 -0.5965 -0.6174 -2.1143
  287SOL    HW2 1147   1.008   1.020   0.314 -0.8446 -1.4114  1.4707
  287SOL     MW 1148   1.047   0.955   0.360 -0.3212 -0.3658 -0.5045
  288SOL     OW 1149   1.512   0.648   2.124  0.7219  0.3972 -0.2666
  288SOL    HW1 1150   1.499   0.637   2.225  2.6582  0.6026 -2.6708
  288SOL    HW2 1151   1.526   0.741   2.107 -1.3897  0.3435 -1.6902
  288SOL     MW 1152   1.512   0.659   2.135  0.6988  0.4172 -0.7717
  289SOL     OW 1153   0.929   1.078   2.620  0.8932 -0.7102  0.4156
  289SOL    HW1 1154   0.986   1.005   2.603 -1.1803  1.0965  0.0890
  289SOL    HW2 1155   0.853   1.057   2.565 -2.7087 -1.1897  0.9569
  289SOL     MW 1156   0.927   1.066   2.610  0.1444 -0.5351  0.4439
  290SOL     OW 1157   0.850   0.569   1.517 -0.0103 -0.4249 -0.4616
  290SOL    HW1 1158   0.913   0.534   1.456  2.0805  0.5508 -2.2194
  290SOL    HW2 1159   0.907   0.587   1.592  0.9795 -1.1606 -0.7128
  290SOL     MW 1160   0.866   0.567   1.519  0.3961 -0.3932 -0.7266
  291SOL     OW 1161   0.166   0.340   0.221  0.1490 -0.4610 -0.2479
  291SOL    HW1 1162   0.250   0.313   0.258  0.6400 -2.6416  1.1602
  291SOL    HW2 1163   0.121   0.266   0.179 -4.3159  1.0182  0.3413
  291SOL     MW 1164   0.171   0.327   0.221 -0.3753 -0.5535  0.0156
  292SOL     OW 1165   0.971   0.557   0.105  0.4026  0.1382  0.2887
  292SOL    HW1 1166   0.994   0.621   0.171 -0.5561 -1.0829  0.5031
  292SOL    HW2 1167   1.039   0.490   0.107 -1.6404  0.4435  0.9474
  292SOL     MW 1168   0.983   0.556   0.114  0.0066  0.0174  0.4039
  293SOL     OW 1169   0.244   0.063   2.497  0.0031  0.2668  0.0129
  293SOL    HW1 1170   0.169   0.009   2.473  0.6434 -0.6902  0.7059
  293SOL    HW2 1171   0.204   0.127   2.554  1.3858  1.9576  1.7687
  293SOL     MW 1172   0.229   0.065   2.502  0.2700  0.3636  0.3360
  294SOL     OW 1173   1.455   0.629   2.383  0.4603  0.1850 -0.2731
  294SOL    HW1 1174   1.445   0.688   2.464  1.1270  0.9733  2.9738
  294SOL    HW2 1175   1.468   0.535   2.416  0.9280  0.4976 -3.1205
  294SOL     MW 1176   1.455   0.624   2.398  0.6100  0.3303 -0.2204
  295SOL     OW 1177   0.867   0.670   2.503  0.2544  0.2995  0.3521
  295SOL    HW1 1178   0.808   0.601   2.468 -0.9590 -0.5675  0.2695
  295SOL    HW2 1179   0.836   0.698   2.594 -3.1516 -0.6966 -0.7664
  295SOL     MW 1180   0.855   0.665   2.510 -0.3551  0.0537  0.1937
  296SOL     OW 1181   1.326   0.311   2.077 -0.1301 -0.4740 -0.2265
  296SOL    HW1 1182   1.411   0.263   2.077  5.2779 -0.3233  2.4025
  296SOL    HW2 1183   1.290   0.279   2.162 -0.3923  0.1795  2.2907
  296SOL     MW 1184   1.332   0.300   2.088  0.5489 -0.3679  0.4525
  297SOL     OW 1185   1.439   0.433   1.515 -0.2316  0.3058 -0.0104
  297SOL    HW1 1186   1.496   0.509   1.511 -1.0824 -1.4457  2.5668
  297SOL    HW2 1187   1.486   0.370   1.570  1.8720  1.5945  1.1435
  297SOL     MW 1188   1.452   0.435   1.522 -0.0663  0.2447  0.4819
  298SOL     OW 1189   1.511   0.914   2.058 -0.4057 -0.0252 -0.5166
  298SOL    HW1 1190   1.535   0.937   1.967  0.0963 -1.5856  0.3965
  298SOL    HW2 1191   1.599   0.896   2.105 -1.3799 -3.8640 -0.2877
  298SOL     MW 1192   1.526   0.914   2.052 -0.4680 -0.7376 -0.3659
  299SOL     OW 1193   0.519   1.065   3.104 -0.2562  0.8804 -0.1025
  299SOL    HW1 1194   0.600   1.120   3.084  3.4233  2.2140 -0.6590
  299SOL    HW2 1195   0.477   1.057   3.014 -1.7797 -0.0854  2.6339
  299SOL     MW 1196   0.524   1.072   3.090  0.0283  0.9289  0.1851
  300SOL     OW 1197   1.254   1.148   2.515  0.5692  0.1507  0.0405
  300SOL    HW1 1198   1.197   1.069   2.496  3.0705  1.4980  0.4410
  300SOL    HW2 1199   1.198   1.190   2.577 -1.0855 -1.0136  0.1771
  300SOL     MW 1200   1.239   1.143   2.521  0.6809  0.1749  0.1114
  301SOL     OW 1201   1.355   0.735   0.583  0.1879  0.4804  0.2807
  301SOL    HW1 1202   1.391   0.726   0.672  0.4536  1.4304 -0.2437
  301SOL    HW2 1203   1.275   0.676   0.581 -1.7884  0.3808  0.3695
  301SOL     MW 1204   1.349   0.726   0.595 -0.0378  0.5926  0.2232
  302SOL     OW 1205   0.125   1.464   1.977 -0.1416  0.2015  0.4581
  302SOL    HW1 1206   0.163   1.428   2.056  2.7600  1.3970 -2.0109
  302SOL    HW2 1207   0.065   1.527   2.010 -0.5388 -2.2126  0.3285
  302SOL     MW 1208   0.122   1.467   1.992  0.1888  0.0407  0.1152
  303SOL     OW 1209   0.396   1.755   2.561 -0.2714  0.4086  0.0367
  303SOL    HW1 1210   0.399   1.778   2.469 -1.3441 -1.7933  0.2355
  303SOL    HW2 1211   0.331   1.808   2.605  1.3077 -0.6032 -2.8083
  303SOL     MW 1212   0.388   1.765   2.555 -0.2046 -0.0154 -0.3125
  304SOL     OW 1213   0.582   2.090   2.419  0.9233 -0.0639 -0.2969
  304SOL    HW1 1214   0.589   2.162   2.358  0.9185  1.8705  2.5359
  304SOL    HW2 1215   0.634   2.021   2.387  1.6964  1.8383  3.5788
  304SOL     MW 1216   0.590   2.090   2.407  1.0247  0.4423  0.5882
  305SOL     OW 1217   1.129   0.555   0.535  0.1138 -0.0368  0.7804
  305SOL    HW1 1218   1.047   0.494   0.541 -2.2257 -1.7390 -2.6310
  305SOL    HW2 1219   1.204   0.495   0.542  2.1717  0.3929  1.2101
  305SOL     MW 1220   1.128   0.539   0.537  0.0767 -0.2047  0.3870
  306SOL     OW 1221   1.226   1.445   0.314  0.2971  0.5650  0.1124
  306SOL    HW1 1222   1.259   1.366   0.354  1.7143  0.9862  0.9574
  306SOL    HW2 1223   1.267   1.464   0.222 -4.0412 -2.0922  0.7100
  306SOL     MW 1224   1.236   1.437   0.307 -0.0883  0.2700  0.3027
  307SOL     OW 1225   1.313   0.554   1.944 -0.1222 -0.5178 -0.2122
  307SOL    HW1 1226   1.306   0.476   2.001  1.8750  1.2922 -1.7388
  307SOL    HW2 1227   1.379   0.597   2.002 -1.0832 -1.6823  0.8635
  307SOL     MW 1228   1.321   0.549   1.959  0.0145 -0.4327 -0.2717
  308SOL     OW 1229   2.122   0.639   2.675  0.0399  0.4443 -0.4948
  308SOL    HW1 1230   2.130   0.550   2.699 -3.0460  1.8079  0.1606
  308SOL    HW2 1231   2.183   0.695   2.717  0.6021  1.8504  1.3195
  308SOL     MW 1232   2.131   0.635   2.684 -0.2931  0.8097 -0.1689
  309SOL     OW 1233   0.588   0.516   0.436  0.5971 -0.1337  0.0670
  309SOL    HW1 1234   0.594   0.430   0.475  1.3700  1.2926 -0.6029
  309SOL    HW2 1235   0.591   0.508   0.340  0.7855 -0.6141  0.4713
  309SOL     MW 1236   0.589   0.503   0.428  0.7239 -0.0089  0.0320
  310SOL     OW 1237   0.456   0.497   1.924  0.3557 -0.4255  0.2300
  310SOL    HW1 1238   0.500   0.431   1.863 -1.1546  0.1589 -0.3836
  310SOL    HW2 1239   0.486   0.582   1.897 -0.0507 -1.5071  1.7286
  310SOL     MW 1240   0.466   0.499   1.912  0.1028 -0.4911  0.3468
  311SOL     OW 1241   1.923   0.773   1.991  0.1905  0.2651 -0.2027
  311SOL    HW1 1242   1.891   0.798   2.082 -0.0485  1.0681  1.5856
  311SOL    HW2 1243   1.963   0.690   2.004  0.4595  1.7876 -1.5145
  311SOL     MW 1244   1.924   0.765   2.005  0.1944  0.5719 -0.1398
  312SOL     OW 1245   1.763   2.522   0.010  0.6004 -0.1111  0.3325
  312SOL    HW1 1246   1.810   2.569   0.075  0.4725  0.2913  0.7884
  312SOL    HW2 1247   1.668   2.539   0.006  2.6491  0.1155 -0.9533
  312SOL     MW 1248   1.757   2.530   0.018  0.8538 -0.0281  0.2230
  313SOL     OW 1249   0.100   1.230   2.945 -0.0001 -0.2986 -0.4503
  313SOL    HW1 1250   0.171   1.208   3.002 -0.3678 -1.1945 -2.2338
  313SOL    HW2 1251   0.130   1.238   2.855 -0.5684  0.9889 -0.6937
  313SOL     MW 1252   0.113   1.228   2.940 -0.1236 -0.2469 -0.7177
  314SOL     OW 1253   2.138   3.030   2.968 -0.2646 -0.5094  0.3823
  314SOL    HW1 1254   2.081   3.090   2.908 -0.1709 -2.1129 -0.8937
  314SOL    HW2 1255   2.180   3.091   3.023  0.8365 -1.8542  0.9207
  314SOL     MW 1256   2.136   3.046   2.967 -0.1070 -0.8984  0.2850
  315SOL     OW 1257   1.556   1.955   3.032 -0.3945 -0.3888  0.8295
  315SOL    HW1 1258   1.490   2.008   3.076  0.8954 -0.6179 -3.9401
  315SOL    HW2 1259   1.583   2.003   2.947  1.2604 -1.9835 -1.7877
  315SOL     MW 1260   1.551   1.969   3.026 -0.0060 -0.6294 -0.1451
  316SOL     OW 1261   1.250   0.654   2.725  0.3056 -0.3414  0.8080
  316SOL    HW1 1262   1.339   0.622   2.716  1.9258 -0.0325 -0.5457
  316SOL    HW2 1263   1.211   0.598   2.793 -0.3876 -3.2268  3.1484
  316SOL     MW 1264   1.257   0.642   2.733  0.4279 -0.6813  0.9382
  317SOL     OW 1265   0.657   1.427   2.610  0.4342  0.0673  1.0804
  317SOL    HW1 1266   0.688   1.371   2.676  1.2558 -1.2409  0.1323
  317SOL    HW2 1267   0.728   1.428   2.556 -0.8608 -0.0642  1.0126
  317SOL     MW 1268   0.671   1.420   2.612  0.3717 -0.1226  0.9464
  318SOL     OW 1269   1.316   0.340   2.905  0.3502  0.2725 -0.3486
  318SOL    HW1 1270   1.221   0.377   2.905 -2.4584 -1.3642 -1.9828
  318SOL    HW2 1271   1.371   0.413   2.880  2.8666  0.3739  0.9428
  318SOL     MW 1272   1.310   0.354   2.901  0.3116  0.0699 -0.3938
  319SOL     OW 1273   0.824   0.424   2.783 -0.3846  0.5965  0.6450
  319SOL    HW1 1274   0.806   0.355   2.718 -0.6085 -1.2744 -0.3744
  319SOL    HW2 1275   0.763   0.410   2.858  0.2704 -1.4983  1.0482
  319SOL     MW 1276   0.813   0.413   2.784 -0.3278  0.0733  0.5637
  320SOL     OW 1277   1.020   1.340   2.028  0.5423  0.3303  0.6894
  320SOL    HW1 1278   1.087   1.274   2.066  3.2918 -0.0175  1.3208
  320SOL    HW2 1279   1.072   1.400   1.968 -2.2151 -1.1655 -0.8476
  320SOL     MW 1280   1.036   1.339   2.025  0.5412  0.0871  0.5699
  321SOL     OW 1281   1.098   0.957   3.022 -0.4858 -0.0979  0.1296
  321SOL    HW1 1282   1.021   0.944   2.964 -0.7975 -0.4918 -1.6031
  321SOL    HW2 1283   1.154   0.880   3.002  0.2224  2.1154 -3.1406
  321SOL     MW 1284   1.095   0.945   3.012 -0.4335  0.1422 -0.5305
  322SOL     OW 1285   1.189   0.820   1.729  0.2755  0.2260 -0.2296
  322SOL    HW1 1286   1.276   0.781   1.729  2.5391  1.8551  0.9679
  322SOL    HW2 1287   1.188   0.857   1.819  0.3946 -1.5014  0.2904
  322SOL     MW 1288   1.200   0.820   1.741  0.5899  0.2130 -0.0030
  323SOL     OW 1289   1.168   1.487   1.891 -0.4411  0.3239 -0.0246
  323SOL    HW1 1290   1.163   1.428   1.821 -0.1256  1.6775  2.7455
  323SOL    HW2 1291   1.106   1.556   1.860 -2.8311 -0.2939 -0.1075
  323SOL     MW 1292   1.159   1.488   1.878 -0.7148  0.4210  0.3300
  324SOL     OW 1293   1.522   1.092   2.495 -0.3704 -0.0986 -0.0176
  324SOL    HW1 1294   1.437   1.130   2.515  2.3179 -0.1190 -1.2347
  324SOL    HW2 1295   1.576   1.154   2.548 -1.4945 -5.0174  0.6697
  324SOL     MW 1296   1.518   1.105   2.505 -0.1640 -0.7503 -0.0875
  325SOL     OW 1297   1.090   0.497   2.882  0.6563  0.3850 -0.2354
  325SOL    HW1 1298   1.055   0.524   2.968  2.0118 -1.0321 -1.0860
  325SOL    HW2 1299   1.019   0.462   2.828 -0.8844 -1.9878  2.0427
  325SOL     MW 1300   1.076   0.496   2.886  0.6318 -0.1150 -0.0470
  326SOL     OW 1301   0.426   1.332   2.218  0.4439 -0.3024  0.0836
  326SOL    HW1 1302   0.472   1.302   2.139  0.0458 -0.2529  0.0621
  326SOL    HW2 1303   0.447   1.422   2.235 -0.3915 -1.2333  1.0352
  326SOL     MW 1304   0.435   1.340   2.210  0.2812 -0.4187  0.2063
  327SOL     OW 1305   1.891   0.879   2.422  0.0124  1.1785 -0.0260
  327SOL    HW1 1306   1.859   0.827   2.493  1.2371  1.8734  0.3245
  327SOL    HW2 1307   1.988   0.873   2.419  1.6453  0.2956 -1.4977
  327SOL     MW 1308   1.900   0.871   2.431  0.3894  1.1537 -0.1739
  328SOL     OW 1309   0.133   1.306   2.211 -0.0393 -0.7890  0.1492
  328SOL    HW1 1310   0.095   1.243   2.149  2.3608 -1.7230  0.9086
  328SOL    HW2 1311   0.226   1.293   2.205 -0.7978  0.9343  1.4221
  328SOL     MW 1312   0.140   1.296   2.202  0.1773 -0.6849  0.4173
  329SOL     OW 1313   0.138   0.179   1.375  0.2008  0.1501  0.3775
  329SOL    HW1 1314   0.072   0.203   1.431  3.1708 -0.7196 -1.4610
  329SOL    HW2 1315   0.203   0.246   1.375  0.1189 -2.9853 -0.1890
  329SOL     MW 1316   0.138   0.191   1.383  0.5819 -0.3784  0.0602
  330SOL     OW 1317   0.394   2.976   2.051 -0.3411 -0.3732 -0.0988
  330SOL    HW1 1318   0.451   2.998   2.125 -0.3530  0.2219 -2.3385
  330SOL    HW2 1319   0.316   2.942   2.093  1.5270  2.8679 -2.4803
  330SOL     MW 1320   0.391   2.975   2.066 -0.0962  0.1329 -0.7085
  331SOL     OW 1321   0.823   1.210   2.278  0.0062  0.7105 -0.0078
  331SOL    HW1 1322   0.832   1.273   2.212  1.1472 -1.7181  2.3116
  331SOL    HW2 1323   0.856   1.255   2.362 -2.4261  0.7334  2.1149
  331SOL     MW 1324   0.828   1.224   2.281 -0.1642  0.3931  0.5783
  332SOL     OW 1325   1.356   1.777   2.971 -0.5100  0.2093  0.6277
  332SOL    HW1 1326   1.353   1.782   2.873  1.5373 -0.4323  1.1285
  332SOL    HW2 1327   1.422   1.840   2.995  0.6505  0.4940 -0.5434
  332SOL     MW 1328   1.364   1.786   2.961 -0.0868  0.1622  0.5392
  333SOL     OW 1329   1.709   1.489   3.002 -0.0484 -0.5691 -0.2838
  333SOL    HW1 1330   1.801   1.506   3.018  1.0345  1.8683  1.4090
  333SOL    HW2 1331   1.671   1.447   3.080  1.6808 -3.4303 -1.2309
  333SOL     MW 1332   1.716   1.486   3.015  0.3226 -0.6250 -0.1854
  334SOL     OW 1333   1.246   3.087   2.634  0.4973 -0.4479  0.0329
  334SOL    HW1 1334   1.174   3.079   2.696  2.6602  3.1346 -2.1701
  334SOL    HW2 1335   1.279   3.181   2.643  1.6568  0.0625  1.1789
  334SOL     MW 1336   1.241   3.098   2.643  0.9356  0.0921 -0.1065
  335SOL     OW 1337   1.262   0.735   2.988 -0.0146  0.0544  0.2931
  335SOL    HW1 1338   1.288   0.725   3.082  1.0707 -0.2771  2.3733
  335SOL    HW2 1339   1.316   0.792   2.940  0.3057 -0.4672  1.9603
  335SOL     MW 1340   1.273   0.741   2.994  0.1708 -0.0581  0.7875
  336SOL     OW 1341   0.907   1.142   1.886  0.1723 -0.2800  0.5377
  336SOL    HW1 1342   0.928   1.202   1.953  1.5073 -0.9999 -0.2712
  336SOL    HW2 1343   0.965   1.069   1.914  1.8772 -1.7826 -0.8481
  336SOL     MW 1344   0.918   1.140   1.899  0.5734 -0.5733  0.2481
  337SOL     OW 1345   0.527   1.773   2.838 -0.0329 -0.3158 -0.2637
  337SOL    HW1 1346   0.503   1.798   2.751  2.7567  2.4541  2.2461
  337SOL    HW2 1347   0.615   1.731   2.823 -0.9593 -1.4272  1.1021
  337SOL     MW 1348   0.536   1.771   2.824  0.2129 -0.0970  0.2476
  338SOL     OW 1349   1.103   0.823   2.541  0.5734  0.1056  0.1107
  338SOL    HW1 1350   1.018   0.783   2.521  1.0738  1.4810  0.5284
  338SOL    HW2 1351   1.144   0.776   2.611  2.0601  3.7515  3.4042
  338SOL     MW 1352   1.097   0.812   2.548  0.8355  0.7681  0.6004
  339SOL     OW 1353   1.569   1.074   1.838  0.5056 -0.6707 -0.0284
  339SOL    HW1 1354   1.480   1.079   1.797  1.9298  1.4885  0.2668
  339SOL    HW2 1355   1.589   1.161   1.861  2.4483 -0.2712  2.1655
  339SOL     MW 1356   1.560   1.086   1.836  0.9498 -0.3331  0.3000
  340SOL     OW 1357   1.341   1.596   0.108  0.2206 -0.2315  0.5151
  340SOL    HW1 1358   1.333   1.644   0.026  1.0087 -1.0554 -2.9935
  340SOL    HW2 1359   1.427   1.620   0.139 -0.0127 -2.2560  1.2199
  340SOL     MW 1360   1.352   1.605   0.101  0.2938 -0.6073  0.1452
  341SOL     OW 1361   0.153   1.310   2.687 -0.4625 -0.3755  0.5016
  341SOL    HW1 1362   0.222   1.369   2.661  0.9959  0.5611  2.0597
  341SOL    HW2 1363   0.094   1.319   2.608 -1.9807 -0.1761 -1.2706
  341SOL     MW 1364   0.154   1.319   2.674 -0.4704 -0.2256  0.4734
  342SOL     OW 1365   1.414   0.329   0.062  0.2661  0.3667  0.1748
  342SOL    HW1 1366   1.437   0.407   0.120  1.0408 -1.5834  1.5277
  342SOL    HW2 1367   1.407   0.366  -0.031 -0.6847  3.4600 -0.4977
  342SOL     MW 1368   1.416   0.344   0.057  0.2429  0.5176  0.2645
  343SOL     OW 1369   0.205   0.284   2.313 -0.1416 -0.3180 -0.2050
  343SOL    HW1 1370   0.224   0.197   2.354  1.8161  2.0529  2.1741
  343SOL    HW2 1371   0.176   0.259   2.221 -0.0028 -1.2388 -0.3144
  343SOL     MW 1372   0.203   0.269   2.306  0.1350 -0.1267  0.0945
  344SOL     OW 1373   1.705   2.100   0.189  0.0249 -0.4576  0.1581
  344SOL    HW1 1374   1.710   2.132   0.101  0.4632 -1.4714 -0.0202
  344SOL    HW2 1375   1.640   2.030   0.192 -3.4551 -2.4938  2.3082
  344SOL     MW 1376   1.697   2.095   0.178 -0.3764 -0.8600  0.4182
  345SOL     OW 1377   0.670   1.612   2.347 -0.1199  0.0231 -0.1278
  345SOL    HW1 1378   0.582   1.638   2.311 -0.0732 -0.1921  0.7185
  345SOL    HW2 1379   0.718   1.566   2.275 -0.4881 -3.2374  1.3195
  345SOL     MW 1380   0.664   1.610   2.333 -0.1623 -0.4355  0.1748
  346SOL     OW 1381   1.673   1.077   0.022 -0.0753  0.1829  0.1441
  346SOL    HW1 1382   1.764   1.060   0.023  0.2005 -0.1356 -2.8932
  346SOL    HW2 1383   1.632   1.020   0.087 -1.3209 -0.5272 -4.2954
  346SOL     MW 1384   1.679   1.067   0.031 -0.2033  0.0472 -0.8424
  347SOL     OW 1385   1.194   0.623   2.368 -0.0064  0.6557 -0.4260
  347SOL    HW1 1386   1.296   0.619   2.359 -1.5389  1.6434  0.8686
  347SOL    HW2 1387   1.183   0.703   2.423 -2.1397  2.4639  0.2339
  347SOL     MW 1388   1.206   0.633   2.374 -0.4900  1.0246 -0.1681
  348SOL     OW 1389   1.341   2.620   1.897 -0.3878 -0.3272 -0.1419
  348SOL    HW1 1390   1.381   2.546   1.937 -2.4990  0.1539  2.6307
  348SOL    HW2 1391   1.395   2.689   1.925 -1.3747 -2.6807 -0.1584
  348SOL     MW 1392   1.353   2.619   1.906 -0.7966 -0.5743  0.2217
  349SOL     OW 1393   1.381   0.216   2.659 -0.1859 -0.2309  0.0680
  349SOL    HW1 1394   1.341   0.248   2.743 -0.1664  2.4231  0.2811
  349SOL    HW2 1395   1.453   0.152   2.684  2.2955  0.5921 -1.8444
  349SOL     MW 1396   1.385   0.212   2.673  0.1441  0.2279 -0.1562
  350SOL     OW 1397   1.833   0.696   2.622 -0.0764 -0.7779  0.2741
  350SOL    HW1 1398   1.792   0.631   2.561 -0.9062  0.6805 -1.4699
  350SOL    HW2 1399   1.915   0.660   2.654 -0.2298 -1.6722  0.6828
  350SOL     MW 1400   1.839   0.682   2.618 -0.2061 -0.7035  0.0979
  351SOL     OW 1401   0.026   0.942   1.606  0.4878  0.0578  0.2702
  351SOL    HW1 1402  -0.031   0.997   1.658  0.8315  0.5487  0.7564
  351SOL    HW2 1403   0.090   1.007   1.580  1.0119  0.8223  0.4095
  351SOL     MW 1404   0.027   0.958   1.609  0.6023  0.2235  0.3528
  352SOL     OW 1405   0.738   1.629   2.771 -1.0323  0.4346  0.0974
  352SOL    HW1 1406   0.778   1.590   2.855  1.7957 -2.9403  2.1817
  352SOL    HW2 1407   0.717   1.558   2.705  0.8670  0.5405 -1.1955
  352SOL     MW 1408   0.741   1.614   2.774 -0.4086  0.0033  0.2018
  353SOL     OW 1409   2.999   2.415   2.753 -0.2575  0.2459 -0.7894
  353SOL    HW1 1410   3.091   2.386   2.735  1.3173  0.7420 -1.3095
  353SOL    HW2 1411   2.974   2.478   2.685 -0.9172 -1.1819 -1.9154
  353SOL     MW 1412   3.008   2.419   2.742 -0.1368  0.1230 -1.0066
  354SOL     OW 1413   0.409   2.383   0.860  0.1894 -0.1942 -0.0088
  354SOL    HW1 1414   0.419   2.380   0.953 -1.2255  1.9526 -2.2673
  354SOL    HW2 1415   0.328   2.333   0.842  0.5057  0.0480 -0.3812
  354SOL     MW 1416   0.400   2.376   0.870  0.0445  0.1210 -0.3559
  355SOL     OW 1417   0.073   2.208   0.375  0.0274 -0.6376  0.0561
  355SOL    HW1 1418  -0.020   2.184   0.360 -2.4080 -0.7325  0.7524
  355SOL    HW2 1419   0.071   2.260   0.451 -1.0323 -0.1306 -2.3673
  355SOL     MW 1420   0.061   2.212   0.383 -0.4337 -0.5833 -0.1718
  356SOL     OW 1421   0.826   2.954   1.024  0.7392  0.1950 -0.0509
  356SOL    HW1 1422   0.878   2.936   0.941  1.1442 -0.3233 -2.2441
  356SOL    HW2 1423   0.745   2.899   1.016  2.1807  1.0246  0.2000
  356SOL     MW 1424   0.822   2.945   1.012  0.9828  0.2361 -0.3071
  357SOL     OW 1425   1.780   2.914   0.359 -0.1987 -0.7093  0.0963
  357SOL    HW1 1426   1.732   2.859   0.416  0.5249  1.8251 -1.3887
  357SOL    HW2 1427   1.858   2.864   0.341  1.2768 -0.8020 -0.2617
  357SOL     MW 1428   1.784   2.900   0.364  0.0914 -0.3871 -0.1468
  358SOL     OW 1429   0.391   0.158   1.016  0.2491 -0.2584  0.0357
  358SOL    HW1 1430   0.478   0.152   0.985  0.8641  2.3891 -2.2793
  358SOL    HW2 1431   0.343   0.200   0.948 -0.6348 -1.0249  2.4172
  358SOL     MW 1432   0.396   0.163   1.003  0.2136 -0.0103  0.0445
  359SOL     OW 1433   0.978   2.811   1.833 -0.3902  0.6345 -0.0078
  359SOL    HW1 1434   0.933   2.725   1.858 -0.5021  0.7567 -3.5973
  359SOL    HW2 1435   0.974   2.816   1.738 -0.6334  1.4979  0.2897
  359SOL     MW 1436   0.972   2.800   1.824 -0.4371  0.7646 -0.4421
  360SOL     OW 1437   0.621   2.792   0.959 -0.5977 -0.5817  1.0159
  360SOL    HW1 1438   0.633   2.756   0.871 -1.3393  1.5793 -0.4587
  360SOL    HW2 1439   0.613   2.708   1.010  1.3003  1.5248  1.8148
  360SOL     MW 1440   0.622   2.776   0.954 -0.4452 -0.0186  0.9268
  361SOL     OW 1441   0.167   2.746   1.371  0.6114 -0.2600  0.3564
  361SOL    HW1 1442   0.144   2.829   1.404  0.8304 -1.3199  0.1849
  361SOL    HW2 1443   0.262   2.741   1.367 -1.9775 -4.1534 -2.0654
  361SOL     MW 1444   0.176   2.756   1.375  0.2987 -0.9135  0.0142
  362SOL     OW 1445   1.500   2.438   0.594 -0.0170  0.3543  0.1660
  362SOL    HW1 1446   1.489   2.353   0.633  2.8730  1.0553 -0.4086
  362SOL    HW2 1447   1.506   2.498   0.668  1.1798 -2.0613 -1.3791
  362SOL     MW 1448   1.499   2.435   0.609  0.5222  0.1281 -0.1137
  363SOL     OW 1449   0.230   3.041   0.751  0.2806 -0.1000 -0.2398
  363SOL    HW1 1450   0.211   3.001   0.838 -0.6704  0.1292  2.0297
  363SOL    HW2 1451   0.145   3.056   0.706 -0.5943  1.8851  0.7304
  363SOL     MW 1452   0.216   3.038   0.756  0.0397  0.1922  0.1877
  364SOL     OW 1453   0.706   0.176   0.158 -0.8223 -0.1787  0.3588
  364SOL    HW1 1454   0.663   0.091   0.180 -3.6893 -1.6883 -0.1210
  364SOL    HW2 1455   0.639   0.236   0.188 -0.6132  3.4841  1.9877
  364SOL     MW 1456   0.692   0.173   0.165 -1.1730  0.1054  0.5104
  365SOL     OW 1457   0.970   1.962   1.131 -0.8410  0.1764 -0.4825
  365SOL    HW1 1458   0.949   2.048   1.099  0.1061  0.8463 -3.6401
  365SOL    HW2 1459   0.920   1.904   1.080  0.7468  0.7047  1.1274
  365SOL     MW 1460   0.960   1.966   1.120 -0.5066  0.3345 -0.6867
  366SOL     OW 1461   2.866   2.672   0.997  0.1156 -0.2110 -0.7579
  366SOL    HW1 1462   2.948   2.678   1.055 -2.1764  1.0692 -1.4579
  366SOL    HW2 1463   2.901   2.682   0.911  0.4629 -0.0524 -1.5409
  366SOL     MW 1464   2.882   2.674   0.993 -0.1409 -0.0212 -0.9536
  367SOL     OW 1465   1.279   2.872   0.870 -0.1913 -1.0391 -0.4073
  367SOL    HW1 1466   1.189   2.914   0.881 -2.3321  1.1133  2.3062
  367SOL    HW2 1467   1.261   2.813   0.789 -2.3671  1.3808 -0.2390
  367SOL     MW 1468   1.265   2.870   0.861 -0.7608 -0.4358 -0.0271
  368SOL     OW 1469   1.673   0.450   0.651 -0.1713  0.1489 -0.0098
  368SOL    HW1 1470   1.757   0.408   0.643 -0.4713  0.1527  2.6775
  368SOL    HW2 1471   1.693   0.545   0.658 -1.9363  3.1164  2.8224
  368SOL     MW 1472   1.687   0.457   0.651 -0.4438  0.5409  0.7184
  369SOL     OW 1473   0.137   2.492   1.735  0.2206 -0.3506 -0.1714
  369SOL    HW1 1474   0.227   2.462   1.754 -1.3267 -1.9841 -1.6035
  369SOL    HW2 1475   0.128   2.579   1.764 -0.5545 -3.8554 -0.6482
  369SOL     MW 1476   0.148   2.499   1.741 -0.0858 -1.0285 -0.4233
  370SOL     OW 1477   0.661   0.106   0.960  0.0595  0.1055  0.3475
  370SOL    HW1 1478   0.724   0.179   0.961  0.1815  0.1055  1.1048
  370SOL    HW2 1479   0.714   0.036   1.002 -0.1547 -1.0507  1.2187
  370SOL     MW 1480   0.677   0.106   0.966  0.0474 -0.0470  0.5624
  371SOL     OW 1481   1.318   2.979   1.510 -0.3028  0.2110  0.0877
  371SOL    HW1 1482   1.260   2.922   1.463  0.5308 -0.3758 -3.8356
  371SOL    HW2 1483   1.348   3.048   1.444 -0.2259  0.0748 -0.1569
  371SOL     MW 1484   1.314   2.980   1.495 -0.1827  0.1156 -0.4622
  372SOL     OW 1485   0.830   2.261   0.515 -0.0805  0.7745 -0.7753
  372SOL    HW1 1486   0.778   2.175   0.506  0.1815 -1.6058 -0.5784
  372SOL    HW2 1487   0.830   2.282   0.417 -1.0590  0.9465 -0.3053
  372SOL     MW 1488   0.823   2.252   0.501 -0.1750  0.4832 -0.6873
  373SOL     OW 1489   2.857   3.034   1.424  0.7437 -0.5064  0.5747
  373SOL    HW1 1490   2.922   2.993   1.364 -1.4737  0.6039 -1.2057
  373SOL    HW2 1491   2.817   3.111   1.380 -1.4872  0.3371  1.2825
  373SOL     MW 1492   2.860   3.039   1.410  0.1568 -0.2486  0.4332
  374SOL     OW 1493   1.492   0.512   0.243 -0.1638  0.2279  0.2414
  374SOL    HW1 1494   1.576   0.537   0.271  1.8442 -2.6158  2.6338
  374SOL    HW2 1495   1.469   0.472   0.328  1.8409  1.5062  0.3748
  374SOL     MW 1496   1.500   0.510   0.258  0.3657  0.0214  0.5747
  375SOL     OW 1497   1.156   2.101   2.265 -0.0201 -0.1019  0.1873
  375SOL    HW1 1498   1.151   2.120   2.364 -0.9277  0.1374  1.0011
  375SOL    HW2 1499   1.113   2.013   2.259 -0.6422  0.3723 -0.4936
  375SOL     MW 1500   1.150   2.092   2.277 -0.2219 -0.0078  0.2049
  376SOL     OW 1501   0.648   2.546   0.132 -0.0704 -0.0970 -0.3608
  376SOL    HW1 1502   0.611   2.486   0.194 -2.2639  0.4952  1.0289
  376SOL    HW2 1503   0.637   2.506   0.043 -4.4837  1.7278 -0.9016
  376SOL     MW 1504   0.642   2.533   0.128 -0.9421  0.2219 -0.2488
  377SOL     OW 1505   1.221   2.032   0.903  0.7446 -0.2045 -0.3107
  377SOL    HW1 1506   1.164   1.996   0.831 -0.6668  1.9165  0.2164
  377SOL    HW2 1507   1.224   1.958   0.968 -0.1195 -2.1465 -0.3951
  377SOL     MW 1508   1.214   2.017   0.902  0.4443 -0.1809 -0.2523
  378SOL     OW 1509   0.980   2.810   1.533  0.4718 -0.1775  0.3930
  378SOL    HW1 1510   0.904   2.746   1.557 -0.1320 -1.5836  0.9070
  378SOL    HW2 1511   0.954   2.857   1.453  1.4718  3.2000  1.9355
  378SOL     MW 1512   0.966   2.808   1.526  0.5241  0.0826  0.6643
  379SOL     OW 1513   1.071   1.845   2.287  0.5408 -0.0732 -0.2500
  379SOL    HW1 1514   0.977   1.832   2.292 -0.5676  0.3453  0.4017
  379SOL    HW2 1515   1.094   1.771   2.225 -1.3563 -1.9466 -2.4952
  379SOL     MW 1516   1.062   1.833   2.280  0.1442 -0.2652 -0.4603
  380SOL     OW 1517   0.893   0.211   1.529 -0.2381 -0.3214 -0.7042
  380SOL    HW1 1518   0.908   0.166   1.442 -2.1124 -0.2602 -0.2697
  380SOL    HW2 1519   0.966   0.169   1.583  0.6461 -1.7053  1.8017
  380SOL     MW 1520   0.904   0.199   1.525 -0.3687 -0.4959 -0.3162
  381SOL     OW 1521   0.819   2.012   0.799 -0.3441  0.1018  0.1888
  381SOL    HW1 1522   0.912   1.997   0.766 -1.8708 -0.9738 -0.1732
  381SOL    HW2 1523   0.827   2.078   0.873 -0.5657  0.3510 -1.6493
  381SOL     MW 1524   0.833   2.019   0.805 -0.5748 -0.0073 -0.1015
  382SOL     OW 1525   0.728   0.012   0.708  0.7975 -0.0615  0.0065
  382SOL    HW1 1526   0.723   0.048   0.798  0.3665 -0.6834  1.0642
  382SOL    HW2 1527   0.674  -0.066   0.703  0.1385 -1.6594  0.2655
  382SOL     MW 1528   0.720   0.006   0.719  0.6537 -0.3544  0.1802
  383SOL     OW 1529   0.482   0.037   0.378 -0.1885  0.5745  0.2109
  383SOL    HW1 1530   0.555  -0.026   0.349  1.9619  0.2169 -1.2446
  383SOL    HW2 1531   0.405  -0.016   0.379  0.1116  2.8149 -0.1389
  383SOL     MW 1532   0.481   0.021   0.374  0.1349  0.8229 -0.0273
  384SOL     OW 1533   0.588   2.885   0.578  0.0411  0.0077  0.3263
  384SOL    HW1 1534   0.604   2.810   0.632 -0.1158  2.2601 -1.8220
  384SOL    HW2 1535   0.494   2.888   0.578 -1.1951 -0.7910  0.6234
  384SOL     MW 1536   0.578   2.876   0.585 -0.1427  0.1995  0.0821
  385SOL     OW 1537   1.320   2.080   1.558  0.1106 -0.2140  0.1995
  385SOL    HW1 1538   1.385   2.104   1.631 -1.3671  2.5445  3.2106
  385SOL    HW2 1539   1.271   1.994   1.581 -0.3369 -0.7782 -0.1881
  385SOL     MW 1540   1.322   2.072   1.570 -0.1434  0.0755  0.5457
  386SOL     OW 1541   1.374   0.422   0.910 -0.3298 -0.4185 -0.5691
  386SOL    HW1 1542   1.300   0.362   0.891 -0.2268 -0.0861  1.1309
  386SOL    HW2 1543   1.350   0.467   0.994  1.6074 -1.8740  1.7781
  386SOL     MW 1544   1.361   0.420   0.919 -0.0606 -0.5666 -0.0351
  387SOL     OW 1545   0.847   2.181   1.506 -0.3586  0.3684 -0.7873
  387SOL    HW1 1546   0.904   2.236   1.462  0.2302 -1.4531  0.1126
  387SOL    HW2 1547   0.888   2.091   1.488 -2.5763 -0.4207  1.1039
  387SOL     MW 1548   0.860   2.177   1.498 -0.5735  0.0240 -0.4190
  388SOL     OW 1549   1.511   2.799   1.214 -0.4298 -0.0506 -0.0538
  388SOL    HW1 1550   1.431   2.758   1.181 -1.2285  1.0030  1.9390
  388SOL    HW2 1551   1.584   2.771   1.162 -1.9902  0.2564 -0.5502
  388SOL     MW 1552   1.510   2.790   1.203 -0.7411  0.1289  0.1437
  389SOL     OW 1553   0.373   0.194   3.087  0.1943 -0.0711  0.1590
  389SOL    HW1 1554   0.425   0.157   3.018  0.7604  1.2184  0.0076
  389SOL    HW2 1555   0.288   0.158   3.077 -1.0127 -3.1604 -1.3796
  389SOL     MW 1556   0.368   0.184   3.076  0.1097 -0.3085 -0.0640
  390SOL     OW 1557   1.348   0.059   0.601  0.0300 -0.2821  0.6349
  390SOL    HW1 1558   1.438   0.079   0.583 -0.9052  1.5791 -2.2122
  390SOL    HW2 1559   1.340   0.048   0.698 -0.4502 -0.3207  0.9443
  390SOL     MW 1560   1.359   0.060   0.612 -0.1568 -0.0416  0.3001
  391SOL     OW 1561   0.300   2.283   1.453  0.1365 -0.3906  0.4124
  391SOL    HW1 1562   0.240   2.217   1.494 -0.4327 -2.3103  0.5182
  391SOL    HW2 1563   0.229   2.347   1.438  0.5735 -0.7231  0.5831
  391SOL     MW 1564   0.282   2.283   1.456  0.1191 -0.6878  0.4489
  392SOL     OW 1565   1.988   2.170   0.329  0.1875  0.2993  0.2684
  392SOL    HW1 1566   1.931   2.244   0.341 -1.0009  2.8821 -0.4221
  392SOL    HW2 1567   2.057   2.176   0.397  0.7863  2.7625 -0.5136
  392SOL     MW 1568   1.990   2.180   0.339  0.1097  0.9651  0.0742
  393SOL     OW 1569   0.256   3.001   2.864  0.1522  0.1245 -0.9135
  393SOL    HW1 1570   0.316   3.068   2.861 -0.7230 -0.0393 -0.7580
  393SOL    HW2 1571   0.174   3.037   2.832 -1.8922 -0.4117 -0.3415
  393SOL     MW 1572   0.253   3.015   2.860 -0.2330  0.0322 -0.8175
  394SOL     OW 1573   0.831   1.632   1.409 -0.2343  0.1238  0.1708
  394SOL    HW1 1574   0.799   1.638   1.504  3.3176  1.8882  0.5958
  394SOL    HW2 1575   0.861   1.728   1.386  1.4294 -0.9938  0.9125
  394SOL     MW 1576   0.831   1.646   1.418  0.4538  0.2091  0.3247
  395SOL     OW 1577   0.930   2.874   2.587  0.0043 -0.3778  0.2821
  395SOL    HW1 1578   0.958   2.932   2.653 -0.7736 -0.4544  0.2752
  395SOL    HW2 1579   1.022   2.844   2.560 -0.0313  2.0689  2.5240
  395SOL     MW 1580   0.946   2.877   2.592 -0.1030 -0.0651  0.5769
  396SOL     OW 1581   0.767   1.864   2.378  0.1551 -0.0982  0.1188
  396SOL    HW1 1582   0.788   1.862   2.469 -2.6646 -2.0285  0.6423
  396SOL    HW2 1583   0.738   1.771   2.363 -1.2299 -1.0249 -1.2057
  396SOL     MW 1584   0.766   1.852   2.388 -0.3996 -0.4751  0.0131
  397SOL     OW 1585   1.011   2.333   1.341 -0.2558 -0.4415  0.0966
  397SOL    HW1 1586   0.998   2.404   1.282 -0.7929  1.6153  0.1373
  397SOL    HW2 1587   1.087   2.349   1.397  0.1194  2.2650  0.9450
  397SOL     MW 1588   1.019   2.345   1.341 -0.2772  0.1869  0.2139
  398SOL     OW 1589   0.663   2.665   0.724  0.2811  0.8167 -0.1682
  398SOL    HW1 1590   0.619   2.586   0.744  2.6365 -2.6744  1.2494
  398SOL    HW2 1591   0.731   2.630   0.676  1.5868 -0.2718  2.0733
  398SOL     MW 1592   0.666   2.650   0.720  0.7642  0.2125  0.3146
  399SOL     OW 1593   0.278   2.027   0.366 -0.1731 -0.4472  0.3197
  399SOL    HW1 1594   0.197   2.079   0.363 -1.2212 -0.9907  0.6837
  399SOL    HW2 1595   0.346   2.055   0.295 -0.4697 -0.5290 -0.6997
  399SOL     MW 1596   0.276   2.037   0.356 -0.3505 -0.5297  0.2332
  400SOL     OW 1597   0.615   1.846   0.153 -0.2082 -0.1728 -0.4285
  400SOL    HW1 1598   0.582   1.936   0.158  0.9118  0.2599  0.4482
  400SOL    HW2 1599   0.579   1.800   0.229  0.4790  1.9052  0.5372
  400SOL     MW 1600   0.606   1.852   0.164  0.0302  0.1584 -0.1854
  401SOL     OW 1601   0.987   2.065   0.115 -0.4628  0.4542  1.2105
  401SOL    HW1 1602   1.000   1.963   0.127 -1.0249 -0.2541  1.7128
  401SOL    HW2 1603   1.056   2.095   0.171 -1.5073  2.2642  2.4082
  401SOL     MW 1604   0.997   2.056   0.124 -0.6748  0.5995  1.4348
  402SOL     OW 1605   0.736   2.881   1.735  0.0817  0.5651 -0.5418
  402SOL    HW1 1606   0.652   2.855   1.767 -0.9881 -0.1108 -0.2184
  402SOL    HW2 1607   0.804   2.823   1.772 -0.9287 -1.0170  1.0472
  402SOL     MW 1608   0.734   2.870   1.744 -0.1927  0.2672 -0.2895
  403SOL     OW 1609   0.059   0.499   0.426  0.1267  0.0479  0.3754
  403SOL    HW1 1610   0.129   0.514   0.496 -1.6992  0.8493  1.3829
  403SOL    HW2 1611   0.109   0.448   0.352  0.6411  0.3637  1.7643
  403SOL     MW 1612   0.075   0.494   0.426 -0.0464  0.1953  0.6916
  404SOL     OW 1613   0.988   2.899   0.796  0.4450 -0.0589  0.0335
  404SOL    HW1 1614   1.042   2.840   0.748  1.0791  0.6934 -2.0578
  404SOL    HW2 1615   1.010   2.985   0.754 -1.3767 -2.1805 -0.0033
  404SOL     MW 1616   0.998   2.903   0.784  0.2883 -0.2396 -0.2473
  405SOL     OW 1617   0.479   2.474   1.545 -0.0967 -0.2697  0.2842
  405SOL    HW1 1618   0.467   2.556   1.483  1.4945  1.7098 -1.7606
  405SOL    HW2 1619   0.434   2.409   1.498  1.2026  3.6527  0.6928
  405SOL     MW 1620   0.472   2.476   1.531  0.2847  0.5090  0.0683
  406SOL     OW 1621   0.417   2.372   1.146 -0.3265 -0.8027 -0.1060
  406SOL    HW1 1622   0.317   2.378   1.156 -0.9694  0.4681  3.1284
  406SOL    HW2 1623   0.438   2.280   1.178  2.4850  1.2115 -2.6060
  406SOL     MW 1624   0.406   2.361   1.152 -0.0404 -0.3693 -0.0091
  407SOL     OW 1625   0.028   2.696   1.113  0.2176  0.5922 -0.3079
  407SOL    HW1 1626   0.080   2.728   1.190 -1.4050 -0.2235 -1.1631
  407SOL    HW2 1627   0.103   2.663   1.048  0.5735 -4.1008 -0.5435
  407SOL     MW 1628   0.045   2.696   1.114  0.0504 -0.1346 -0.4518
  408SOL     OW 1629   2.132   2.129   0.584  0.2695 -0.3102  0.3082
  408SOL    HW1 1630   2.142   2.190   0.665  0.1594  0.5951  3.0836
  408SOL    HW2 1631   2.043   2.078   0.596 -0.3156 -2.7817  0.6385
  408SOL     MW 1632   2.122   2.130   0.596  0.1778 -0.5169  0.7180
  409SOL     OW 1633   1.321   0.093   0.888 -0.3112 -0.8905  0.1702
  409SOL    HW1 1634   1.396   0.158   0.887 -0.0341  0.7563 -0.2448
  409SOL    HW2 1635   1.349   0.015   0.933 -0.1151 -0.9678 -0.7142
  409SOL     MW 1636   1.334   0.092   0.893 -0.2487 -0.6834 -0.0012
  410SOL     OW 1637   1.090   2.506   1.064 -0.3979  0.7673  0.4009
  410SOL    HW1 1638   1.010   2.500   1.005 -1.3394 -0.1105 -0.0318
  410SOL    HW2 1639   1.136   2.422   1.033  1.0555  1.2716 -1.8895
  410SOL     MW 1640   1.085   2.494   1.052 -0.3304  0.7180  0.0417
  411SOL     OW 1641   1.973   0.110   2.847 -0.2056  0.1517 -0.8403
  411SOL    HW1 1642   1.916   0.058   2.788  2.0794 -1.4462  0.2092
  411SOL    HW2 1643   1.922   0.118   2.933 -2.2730 -2.5264  2.5847
  411SOL     MW 1644   1.959   0.104   2.850 -0.1769 -0.4125 -0.2499
  412SOL     OW 1645   1.087   2.206   0.566  0.5578 -0.2192 -0.0075
  412SOL    HW1 1646   1.119   2.292   0.594  2.2111  0.5714  0.9357
  412SOL    HW2 1647   0.994   2.219   0.571  0.9697  1.1995  2.0929
  412SOL     MW 1648   1.079   2.219   0.570  0.8303  0.0723  0.3941
  413SOL     OW 1649   0.557   2.801   0.161 -0.2045  0.0271 -0.0135
  413SOL    HW1 1650   0.619   2.723   0.160  1.8104 -0.6897 -1.3936
  413SOL    HW2 1651   0.566   2.826   0.071  0.9569 -2.1674 -0.7263
  413SOL     MW 1652   0.566   2.794   0.149  0.2146 -0.3570 -0.2896
  414SOL     OW 1653   1.982   3.064   1.082 -0.2989  0.2021 -0.0791
  414SOL    HW1 1654   1.909   3.041   1.021 -0.1143 -0.1904  0.2063
  414SOL    HW2 1655   2.034   2.981   1.087 -1.4376 -0.1733  0.4304
  414SOL     MW 1656   1.980   3.050   1.075 -0.4248  0.1008  0.0258
  415SOL     OW 1657   1.713   2.666   1.055  0.4495  0.0793 -0.2553
  415SOL    HW1 1658   1.679   2.611   1.133 -3.1210 -2.6496 -0.9998
  415SOL    HW2 1659   1.787   2.709   1.090 -0.7703 -1.6524 -0.7056
  415SOL     MW 1660   1.718   2.664   1.070 -0.1826 -0.5092 -0.4129
  416SOL     OW 1661   0.625   1.922   1.384  0.3023 -0.2721 -0.1845
  416SOL    HW1 1662   0.587   2.010   1.366 -0.9603 -0.4822 -1.3270
  416SOL    HW2 1663   0.616   1.880   1.293  0.5762 -2.8630  0.6105
  416SOL     MW 1664   0.619   1.928   1.369  0.1719 -0.6416 -0.2303
  417SOL     OW 1665   1.023   3.026   1.985 -0.0361  0.7574  0.3061
  417SOL    HW1 1666   0.959   2.999   2.055  0.6374  0.6457  1.9565
  417SOL    HW2 1667   1.007   2.947   1.932  2.0515  1.6064 -0.0097
  417SOL     MW 1668   1.012   3.012   1.987  0.3282  0.8547  0.4822
  418SOL     OW 1669   0.706   2.999   0.219  0.1658 -0.2220  0.2302
  418SOL    HW1 1670   0.767   2.989   0.150 -2.9156 -2.1694 -1.6703
  418SOL    HW2 1671   0.642   2.928   0.201 -0.0145  2.0797  0.4060
  418SOL     MW 1672   0.705   2.988   0.207 -0.2646 -0.1752  0.0026
  419SOL     OW 1673   0.451   2.699   1.373 -0.1858 -0.0623  0.0234
  419SOL    HW1 1674   0.504   2.765   1.412 -1.0213  0.1463 -2.9678
  419SOL    HW2 1675   0.493   2.667   1.292 -2.2019  0.7334 -1.7902
  419SOL     MW 1676   0.464   2.704   1.368 -0.5620  0.0702 -0.6106
  420SOL     OW 1677   0.854   2.178   1.006 -0.7811 -0.0024 -0.1673
  420SOL    HW1 1678   0.810   2.210   1.084 -1.4684 -1.1599  0.1358
  420SOL    HW2 1679   0.862   2.259   0.955 -0.4811 -0.4070 -0.8612
  420SOL     MW 1680   0.850   2.193   1.010 -0.8322 -0.2085 -0.2189
  421SOL     OW 1681   2.954   0.084   0.016  0.0508 -0.0809  0.2403
  421SOL    HW1 1682   2.922   0.046  -0.061  0.1209  1.2765  1.6554
  421SOL    HW2 1683   2.950   0.011   0.080  1.8348  1.8783 -0.7651
  421SOL     MW 1684   2.949   0.069   0.015  0.2955  0.3567  0.2944
  422SOL     OW 1685   0.896   2.448   0.885  0.3228 -0.4605  0.3042
  422SOL    HW1 1686   0.815   2.496   0.901  0.8610  1.3609  0.9540
  422SOL    HW2 1687   0.919   2.456   0.796  1.2281  1.1947  1.8018
  422SOL     MW 1688   0.888   2.456   0.875  0.5133 -0.0018  0.5875
  423SOL     OW 1689   1.583   0.174   0.493 -0.3094  0.2073  0.0079
  423SOL    HW1 1690   1.572   0.148   0.402 -1.4691  1.0096  0.1517
  423SOL    HW2 1691   1.589   0.269   0.502 -0.6572  0.5988  1.4860
  423SOL     MW 1692   1.583   0.183   0.482 -0.5083  0.3648  0.2219
  424SOL     OW 1693   0.728   2.220   1.250 -0.3130  0.2597  0.1708
  424SOL    HW1 1694   0.642   2.191   1.269 -0.9580  1.2154 -0.1254
  424SOL    HW2 1695   0.777   2.213   1.335  2.2228  0.0229 -1.5147
  424SOL     MW 1696   0.723   2.215   1.264 -0.0636  0.3546 -0.0906
  425SOL     OW 1697   1.752   2.863   2.004  0.0136 -0.2979 -0.6827
  425SOL    HW1 1698   1.748   2.857   1.909  1.7592  0.6983  1.2322
  425SOL    HW2 1699   1.781   2.775   2.028  1.6314 -0.0643  0.8551
  425SOL     MW 1700   1.756   2.850   1.995  0.4573 -0.1356 -0.2272
  426SOL     OW 1701   0.761   1.626   1.913  0.2487  0.3315  0.4872
  426SOL    HW1 1702   0.726   1.652   1.829  0.5192  0.3057 -2.1339
  426SOL    HW2 1703   0.747   1.698   1.970  0.6551  1.4472 -0.4849
  426SOL     MW 1704   0.754   1.639   1.909  0.3380  0.4753  0.0131
  427SOL     OW 1705   0.401   1.570   1.863 -0.0386  0.3628  0.0863
  427SOL    HW1 1706   0.463   1.618   1.919 -3.7109 -1.4116 -0.4780
  427SOL    HW2 1707   0.353   1.512   1.919  1.0632  2.7602  1.2083
  427SOL     MW 1708   0.403   1.568   1.878 -0.3778  0.4450  0.1599
  428SOL     OW 1709   0.573   2.591   1.153 -0.1529 -0.0923 -0.0791
  428SOL    HW1 1710   0.657   2.573   1.203  1.3917 -3.6783  0.1313
  428SOL    HW2 1711   0.523   2.514   1.178  1.6026 -3.6742 -1.9098
  428SOL     MW 1712   0.578   2.579   1.163  0.2825 -1.0380 -0.2929
  429SOL     OW 1713   1.333   2.652   1.046 -0.4921 -0.5170 -0.3856
  429SOL    HW1 1714   1.264   2.595   1.079  1.9267 -1.6671 -2.0369
  429SOL    HW2 1715   1.296   2.735   1.019  1.1492 -1.2966 -2.4121
  429SOL     MW 1716   1.319   2.655   1.047  0.0436 -0.7716 -0.8708
  430SOL     OW 1717   1.186   2.718   0.683 -0.3912 -0.2091 -0.5036
  430SOL    HW1 1718   1.219   2.634   0.715 -1.8502  1.3640 -0.3120
  430SOL    HW2 1719   1.133   2.712   0.602 -0.0046  1.9202  0.0150
  430SOL     MW 1720   1.183   2.706   0.676 -0.5327  0.2794 -0.4099
  431SOL     OW 1721   0.302   1.952   1.153  0.1082  0.1532 -0.0041
  431SOL    HW1 1722   0.389   1.921   1.112 -0.2454  1.8054 -1.1477
  431SOL    HW2 1723   0.236   1.936   1.088 -0.1250  0.7449  0.8465
  431SOL     MW 1724   0.305   1.946   1.139  0.0307  0.4493 -0.0428
  432SOL     OW 1725   0.055   0.044   1.149  0.2796 -0.0346 -0.0363
  432SOL    HW1 1726   0.079   0.102   1.223 -2.2486 -0.2448 -2.1845
  432SOL    HW2 1727  -0.019  -0.008   1.172 -0.5918  0.3947 -1.6836
  432SOL     MW 1728   0.049   0.045   1.162 -0.1689 -0.0057 -0.5371
  433SOL     OW 1729   0.675   2.863   1.465 -0.3157  0.1582  0.4359
  433SOL    HW1 1730   0.714   2.895   1.549 -2.0067 -0.3222 -0.5185
  433SOL    HW2 1731   0.741   2.880   1.399  0.7175 -1.0069 -1.1437
  433SOL     MW 1732   0.689   2.870   1.467 -0.4025 -0.0589  0.1016
  434SOL     OW 1733   1.553   2.818   1.475  0.0964  0.1727  0.8974
  434SOL    HW1 1734   1.468   2.859   1.477  1.0635 -0.1085  0.7983
  434SOL    HW2 1735   1.567   2.801   1.378  1.1508 -3.5975 -0.3840
  434SOL     MW 1736   1.544   2.821   1.463  0.3631 -0.3618  0.7153
  435SOL     OW 1737   2.864   1.793   0.248 -0.0288 -0.4099 -0.5079
  435SOL    HW1 1738   2.917   1.858   0.195 -2.2129  1.7345 -0.9357
  435SOL    HW2 1739   2.824   1.725   0.184  0.5776  0.2939  1.8404
  435SOL     MW 1740   2.866   1.793   0.233 -0.2370 -0.0341 -0.2545
  436SOL     OW 1741   1.405   2.756   0.314 -0.5420 -0.3367  0.1198
  436SOL    HW1 1742   1.435   2.744   0.402 -0.1028  0.5087 -1.7177
  436SOL    HW2 1743   1.343   2.834   0.318 -0.0524 -0.6275 -2.5593
  436SOL     MW 1744   1.401   2.765   0.326 -0.4195 -0.2636 -0.4761
  437SOL     OW 1745   0.881   2.934   1.303 -0.0122  0.0934  0.6181
  437SOL    HW1 1746   0.936   3.014   1.316  2.1732 -0.0904  0.1433
  437SOL    HW2 1747   0.866   2.935   1.208  2.8597 -2.1141  1.6734
  437SOL     MW 1748   0.886   2.945   1.292  0.6551 -0.2221  0.6947
  438SOL     OW 1749   0.850   2.577   1.995  0.1042  0.1767  0.1878
  438SOL    HW1 1750   0.860   2.506   2.056 -0.7103  4.2512 -0.6733
  438SOL    HW2 1751   0.776   2.548   1.941  1.0630  2.5516 -1.7102
  438SOL     MW 1752   0.842   2.564   1.996  0.1232  1.0276 -0.1763
  439SOL     OW 1753   1.164   2.167   0.311  0.2000  0.2911 -0.0695
  439SOL    HW1 1754   1.119   2.178   0.403  0.2212 -0.2823 -0.8919
  439SOL    HW2 1755   1.156   2.257   0.280 -2.2465 -0.8725  1.9396
  439SOL     MW 1756   1.157   2.180   0.319 -0.1200  0.0619  0.0871
  440SOL     OW 1757   1.649   2.982   3.011 -0.5360 -0.6287  0.0196
  440SOL    HW1 1758   1.635   2.962   3.104 -0.6139  1.0365 -0.3151
  440SOL    HW2 1759   1.689   2.905   2.975 -0.6015 -0.9955  0.4874
  440SOL     MW 1760   1.652   2.969   3.019 -0.5550 -0.4574  0.0372
  441SOL     OW 1761   0.311   2.567   0.537  0.0276 -0.2959 -0.1244
  441SOL    HW1 1762   0.292   2.539   0.441  0.8671 -0.8915  0.9091
  441SOL    HW2 1763   0.329   2.666   0.542 -1.9743  1.6036 -1.5779
  441SOL     MW 1764   0.311   2.577   0.525 -0.1258 -0.1238 -0.1798
  442SOL     OW 1765   0.026   2.346   0.643 -0.7461 -0.3505 -0.1815
  442SOL    HW1 1766   0.003   2.437   0.627 -0.7655 -2.7872 -2.1945
  442SOL    HW2 1767  -0.053   2.295   0.651  0.7100  0.4872 -1.2808
  442SOL     MW 1768   0.013   2.351   0.642 -0.5566 -0.5615 -0.5921
  443SOL     OW 1769   1.331   1.692   1.824 -0.2264  0.0130 -0.3689
  443SOL    HW1 1770   1.288   1.738   1.749 -2.1894  3.1647 -2.5297
  443SOL    HW2 1771   1.280   1.613   1.849  2.6810 -0.0729  2.0863
  443SOL     MW 1772   1.319   1.687   1.817 -0.1018  0.4175 -0.3300
  444SOL     OW 1773   0.826   2.569   1.593 -0.1739 -0.1095  0.4423
  444SOL    HW1 1774   0.892   2.529   1.643 -1.2603  1.3500 -0.7712
  444SOL    HW2 1775   0.744   2.533   1.616  2.1994 -0.2397 -2.2250
  444SOL     MW 1776   0.824   2.559   1.602 -0.0041  0.0659 -0.0698
  445SOL     OW 1777   0.977   0.092   1.289 -0.1263 -0.0588 -0.2047
  445SOL    HW1 1778   0.927   0.168   1.257  1.7470 -2.5426 -0.9831
  445SOL    HW2 1779   1.071   0.113   1.270  2.2976  2.0979  2.1168
  445SOL     MW 1780   0.983   0.105   1.282  0.4407 -0.1019 -0.0011
  446SOL     OW 1781   2.785   2.942   1.018 -0.0295 -0.3485 -0.1823
  446SOL    HW1 1782   2.706   2.949   0.962 -1.8853 -0.3305 -0.0778
  446SOL    HW2 1783   2.796   2.842   1.015 -1.1844 -0.1136  0.4381
  446SOL     MW 1784   2.776   2.929   1.011 -0.4267 -0.3151 -0.0866
  447SOL     OW 1785   3.017   2.050   1.747  0.3281 -0.0045  0.8713
  447SOL    HW1 1786   3.085   1.993   1.785 -2.2334  0.2420  1.5491
  447SOL    HW2 1787   2.986   1.990   1.678  0.8579 -0.4148  1.7832
  447SOL     MW 1788   3.022   2.035   1.743  0.0600 -0.0261  1.0811
  448SOL     OW 1789   1.691   2.325   1.660  0.4213  0.1219  0.0619
  448SOL    HW1 1790   1.630   2.249   1.686  1.3071 -0.9053 -1.2720
  448SOL    HW2 1791   1.637   2.397   1.633 -0.3568  1.0894 -3.1916
  448SOL     MW 1792   1.676   2.325   1.660  0.4355  0.1140 -0.5434
  449SOL     OW 1793   0.840   2.913   0.430 -0.3867  0.1483  0.5136
  449SOL    HW1 1794   0.801   2.935   0.344  0.1780  1.5290 -0.0519
  449SOL    HW2 1795   0.766   2.881   0.481 -0.8731  2.8360 -1.7498
  449SOL     MW 1796   0.825   2.912   0.425 -0.3763  0.6851  0.1404
  450SOL     OW 1797   1.223   2.413   0.689 -0.1725 -0.2989  0.8410
  450SOL    HW1 1798   1.255   2.378   0.768 -1.8251  2.3786 -0.0939
  450SOL    HW2 1799   1.301   2.452   0.646  1.7259 -2.8944  2.1774
  450SOL     MW 1800   1.238   2.413   0.694 -0.1400 -0.2881  0.8940
  451SOL     OW 1801   0.607   1.962   1.680 -0.3769  0.6005 -0.0249
  451SOL    HW1 1802   0.687   2.021   1.689  0.5798  3.1888  0.4762
  451SOL    HW2 1803   0.581   1.955   1.588  1.1368 -1.7592  0.6411
  451SOL     MW 1804   0.614   1.969   1.669 -0.0509  0.6306  0.1291
  452SOL     OW 1805   0.292   2.726   0.133 -0.0477  0.0040  0.8015
  452SOL    HW1 1806   0.384   2.760   0.136  2.5485  1.1670  0.6963
  452SOL    HW2 1807   0.284   2.699   0.041 -0.8768  0.7822  2.6908
  452SOL     MW 1808   0.303   2.727   0.121  0.1855  0.2601  1.0369
  453SOL     OW 1809   0.374   2.978   1.643  0.2523  0.2342  0.3754
  453SOL    HW1 1810   0.420   3.026   1.580 -0.1429  0.3030  0.7298
  453SOL    HW2 1811   0.303   2.957   1.584  1.8894 -2.1600  2.0188
  453SOL     MW 1812   0.371   2.982   1.627  0.4162 -0.0726  0.6390
  454SOL     OW 1813   1.076   2.797   1.129  0.3886  0.1012 -0.5799
  454SOL    HW1 1814   1.067   2.709   1.084  1.5298 -2.5019 -1.7379
  454SOL    HW2 1815   0.989   2.828   1.121  1.7870  0.9674 -2.6012
  454SOL     MW 1816   1.064   2.789   1.122  0.7237 -0.1280 -0.9993
  455SOL     OW 1817   1.595   2.940   0.171 -0.5221  0.2552  0.2674
  455SOL    HW1 1818   1.662   2.946   0.234  1.7698 -0.5618 -0.5689
  455SOL    HW2 1819   1.538   2.876   0.214 -0.7214 -1.5896 -0.6403
  455SOL     MW 1820   1.596   2.932   0.185 -0.2460 -0.0960  0.0373
  456SOL     OW 1821   2.960   0.315   1.403  0.2801  0.8198 -0.4100
  456SOL    HW1 1822   2.903   0.260   1.352  3.3830 -2.7586 -0.5349
  456SOL    HW2 1823   3.020   0.366   1.335 -2.5506 -0.9336 -0.0906
  456SOL     MW 1824   2.960   0.314   1.388  0.3160  0.1163 -0.3844
  457SOL     OW 1825   0.859   1.552   2.998 -0.7254 -0.1748 -0.0753
  457SOL    HW1 1826   0.800   1.550   3.071  0.5567  1.1941  2.0273
  457SOL    HW2 1827   0.932   1.501   3.029 -3.4876  0.1812 -1.3561
  457SOL     MW 1828   0.861   1.545   3.011 -0.9206  0.0527  0.0332
  458SOL     OW 1829   1.441   1.408   0.631 -0.1800 -0.4665 -0.1028
  458SOL    HW1 1830   1.363   1.436   0.673 -0.7656  1.1517 -1.6088
  458SOL    HW2 1831   1.404   1.346   0.562 -1.1645  1.6518 -2.3725
  458SOL     MW 1832   1.426   1.404   0.627 -0.3871  0.0265 -0.6010
  459SOL     OW 1833   1.550   0.122   0.217  0.0719  0.1563 -0.2142
  459SOL    HW1 1834   1.541   0.038   0.175 -2.4615 -0.7837  1.3248
  459SOL    HW2 1835   1.502   0.196   0.172 -1.1242  0.9015 -0.2157
  459SOL     MW 1836   1.543   0.121   0.206 -0.4202  0.1306 -0.0114
  460SOL     OW 1837   1.693   2.167   0.574 -0.1175  0.0767 -0.1948
  460SOL    HW1 1838   1.618   2.155   0.622  0.2488 -3.0662  3.1717
  460SOL    HW2 1839   1.742   2.082   0.578 -1.6678  1.0979  0.6638
  460SOL     MW 1840   1.690   2.154   0.581 -0.2737 -0.2032  0.3627
  461SOL     OW 1841   0.501   2.350   0.607  0.5355  0.6317 -0.1901
  461SOL    HW1 1842   0.438   2.408   0.577  4.5986  1.9765 -0.1682
  461SOL    HW2 1843   0.496   2.352   0.700  1.1042  1.0756 -0.5575
  461SOL     MW 1844   0.492   2.358   0.615  1.1466  0.8677 -0.2357
  462SOL     OW 1845   0.359   0.317   1.294 -0.7345  0.2646 -0.3463
  462SOL    HW1 1846   0.389   0.241   1.239  0.0027  1.6683 -0.0367
  462SOL    HW2 1847   0.422   0.324   1.360 -1.4450  3.0228 -1.9516
  462SOL     MW 1848   0.371   0.308   1.295 -0.7310  0.8137 -0.5172
  463SOL     OW 1849   1.012   0.050   0.701 -0.5145 -0.1132 -0.3563
  463SOL    HW1 1850   1.013   0.040   0.604  1.6110  1.0677 -0.1707
  463SOL    HW2 1851   0.919   0.035   0.724  1.3913  0.1277  1.3824
  463SOL     MW 1852   1.000   0.047   0.691  0.0174  0.0744 -0.1024
  464SOL     OW 1853   0.793   2.937   2.152 -0.7140 -0.1993 -0.6754
  464SOL    HW1 1854   0.751   2.858   2.189  0.1454 -0.3560 -2.7769
  464SOL    HW2 1855   0.842   2.971   2.235  2.6787 -0.0054  1.8852
  464SOL     MW 1856   0.794   2.931   2.168 -0.1530 -0.1944 -0.6148
  465SOL     OW 1857   0.748   0.207   0.477  0.3394 -0.0240  0.5376
  465SOL    HW1 1858   0.715   0.145   0.540  1.3830 -1.9864 -0.6075
  465SOL    HW2 1859   0.745   0.177   0.387 -0.9340  1.8369 -1.6103
  465SOL     MW 1860   0.743   0.195   0.473  0.3091 -0.0374  0.1031
  466SOL     OW 1861   1.051   1.968   0.700  0.0829 -0.6925 -0.0285
  466SOL    HW1 1862   1.066   1.903   0.630 -0.8910  0.7803 -1.6601
  466SOL    HW2 1863   1.079   2.051   0.655 -1.4438  1.7906 -0.3465
  466SOL     MW 1864   1.057   1.970   0.685 -0.2471 -0.1706 -0.2857
  467SOL     OW 1865   1.262   2.320   0.946 -0.2937 -0.8100 -0.9946
  467SOL    HW1 1866   1.351   2.324   0.979 -2.2351 -0.4275  0.1168
  467SOL    HW2 1867   1.233   2.226   0.941  0.6962  1.0625  1.0493
  467SOL     MW 1868   1.270   2.308   0.949 -0.4192 -0.5124 -0.5783
  468SOL     OW 1869   0.319   2.625   1.964  0.1766 -0.1039  0.0503
  468SOL    HW1 1870   0.309   2.532   1.940 -0.2344 -0.3990 -2.0202
  468SOL    HW2 1871   0.380   2.676   1.909  0.6343 -0.8592  2.5388
  468SOL     MW 1872   0.326   2.619   1.954  0.1828 -0.2425  0.1055
  469SOL     OW 1873   0.407   2.078   1.826  0.0756 -0.0197 -0.0954
  469SOL    HW1 1874   0.318   2.048   1.804 -1.0280 -0.4907  0.6768
  469SOL    HW2 1875   0.467   2.021   1.766 -1.6258 -0.6326  0.2582
  469SOL     MW 1876   0.403   2.066   1.815 -0.2945 -0.1627  0.0531
  470SOL     OW 1877   3.062   2.502   0.164 -0.3795  0.0631 -0.5535
  470SOL    HW1 1878   2.981   2.486   0.215  0.1538 -3.6304 -1.5813
  470SOL    HW2 1879   3.032   2.550   0.087  0.4856  0.5530  0.8420
  470SOL     MW 1880   3.048   2.506   0.161 -0.1950 -0.3596 -0.5050
  471SOL     OW 1881   1.172   2.700   1.364  0.3366 -0.0906 -0.2688
  471SOL    HW1 1882   1.103   2.729   1.426 -1.1426 -1.5013  0.3905
  471SOL    HW2 1883   1.134   2.735   1.283 -2.3650  0.6711  0.4236
  471SOL     MW 1884   1.158   2.709   1.362 -0.2150 -0.1762 -0.0905
  472SOL     OW 1885   2.923   2.124   0.336 -0.2219  0.3756 -0.4765
  472SOL    HW1 1886   2.946   2.090   0.246  0.1126 -0.8528  1.3377
  472SOL    HW2 1887   2.896   2.053   0.388 -0.2039 -1.9541  0.1418
  472SOL     MW 1888   2.923   2.110   0.331 -0.1754 -0.0939 -0.1555
  473SOL     OW 1889   0.799   2.548   1.283 -0.1899  0.3173 -0.3268
  473SOL    HW1 1890   0.818   2.458   1.279  1.0986  0.7592 -0.6230
  473SOL    HW2 1891   0.802   2.564   1.378  0.8610 -0.1784 -0.0758
  473SOL     MW 1892   0.802   2.538   1.295  0.1187  0.3102 -0.3328
  474SOL     OW 1893   0.840   2.210   1.778 -0.2169 -0.0541  0.7273
  474SOL    HW1 1894   0.929   2.215   1.801 -0.3625  0.2404  0.9828
  474SOL    HW2 1895   0.851   2.215   1.677  1.4004  2.2993 -1.1748
  474SOL     MW 1896   0.853   2.211   1.768 -0.0228  0.2952  0.5101
  475SOL     OW 1897   1.626   3.081   1.423  0.1111 -0.1653 -0.4062
  475SOL    HW1 1898   1.545   3.091   1.370  1.2998  1.5878 -0.5497
  475SOL    HW2 1899   1.637   2.984   1.430 -2.1891 -0.1028  2.9882
  475SOL     MW 1900   1.617   3.070   1.417 -0.0356  0.0743  0.0227
  476SOL     OW 1901   1.424   2.587   0.801 -0.4309  0.2407  0.7026
  476SOL    HW1 1902   1.392   2.598   0.890 -1.3711  0.0596 -0.8097
  476SOL    HW2 1903   1.483   2.666   0.799  2.9366  0.7303 -0.9153
  476SOL     MW 1904   1.428   2.599   0.812 -0.1107  0.2814  0.2896
  477SOL     OW 1905   0.874   2.497   0.604  0.2467 -0.1167  0.5579
  477SOL    HW1 1906   0.930   2.561   0.557 -0.9459 -3.3820  0.8514
  477SOL    HW2 1907   0.858   2.405   0.556  2.6319 -0.0718 -0.3759
  477SOL     MW 1908   0.879   2.494   0.592  0.4041 -0.5416  0.4734
  478SOL     OW 1909   0.239   2.588   0.957  0.2722  0.2826 -0.8361
  478SOL    HW1 1910   0.273   2.672   0.927  0.8504  1.5183  2.0216
  478SOL    HW2 1911   0.297   2.529   0.908 -0.0277 -3.0081  0.7779
  478SOL     MW 1912   0.251   2.592   0.946  0.3089  0.0115 -0.2461
  479SOL     OW 1913   1.409   1.953   1.306 -0.2163  0.2458  0.0742
  479SOL    HW1 1914   1.360   1.989   1.379 -1.0373 -0.9884 -1.3072
  479SOL    HW2 1915   1.479   1.894   1.339  0.6145  0.1843  1.4143
  479SOL     MW 1916   1.411   1.950   1.320 -0.2150  0.0748  0.0687
  480SOL     OW 1917   1.798   2.368   1.285  0.2428 -0.7284  0.1194
  480SOL    HW1 1918   1.811   2.276   1.315  1.4034  1.2839  0.6317
  480SOL    HW2 1919   1.840   2.368   1.195  1.4268 -0.3117 -2.2500
  480SOL     MW 1920   1.805   2.356   1.277  0.5522 -0.4079 -0.1256
  481SOL     OW 1921   1.205   0.151   1.153  0.8795 -0.3388  0.2428
  481SOL    HW1 1922   1.207   0.111   1.070  1.2748  0.4125 -0.5041
  481SOL    HW2 1923   1.220   0.246   1.130 -0.3051  0.0655 -1.1328
  481SOL     MW 1924   1.208   0.158   1.139  0.7754 -0.1863 -0.0372
  482SOL     OW 1925   1.016   0.016   0.437  0.2192  0.1321  0.0760
  482SOL    HW1 1926   0.931  -0.025   0.427  1.7508  0.4938  0.2227
  482SOL    HW2 1927   1.012   0.102   0.393  1.6046  1.8418  3.2889
  482SOL     MW 1928   1.004   0.022   0.430  0.6041  0.4054  0.5193
  483SOL     OW 1929   0.312   2.846   0.565  0.6556 -0.0481  1.0746
  483SOL    HW1 1930   0.284   2.904   0.486 -3.0906  1.2411 -1.4580
  483SOL    HW2 1931   0.281   2.901   0.636  2.2908 -2.1192  0.2181
  483SOL     MW 1932   0.304   2.861   0.564  0.3771 -0.1512  0.6274
  484SOL     OW 1933   1.648   1.868   1.411  0.1753 -0.0148 -0.4686
  484SOL    HW1 1934   1.696   1.940   1.383 -1.3480 -1.8124  0.9802
  484SOL    HW2 1935   1.655   1.883   1.506  0.6761  0.9592  1.4868
  484SOL     MW 1936   1.655   1.879   1.420  0.0404 -0.1235 -0.0195
  485SOL     OW 1937   0.536   2.336   0.295  0.4995 -0.8546  0.4807
  485SOL    HW1 1938   0.558   2.303   0.384 -0.2783  0.5521  1.2105
  485SOL    HW2 1939   0.448   2.391   0.293  1.1106  3.7636 -3.8467
  485SOL     MW 1940   0.527   2.339   0.306  0.4775 -0.0597  0.0060
  486SOL     OW 1941   0.083   2.483   1.474  0.2230 -0.2198  0.2039
  486SOL    HW1 1942   0.121   2.569   1.452 -1.1271  2.4705 -2.5922
  486SOL    HW2 1943   0.078   2.495   1.568  1.3124  0.1745 -2.9178
  486SOL     MW 1944   0.087   2.496   1.483  0.1886  0.1872 -0.5769
  487SOL     OW 1945   1.283   1.607   1.011 -0.3885 -0.3529 -0.1144
  487SOL    HW1 1946   1.271   1.695   1.059  0.2989  0.4166 -0.7217
  487SOL    HW2 1947   1.377   1.600   1.026  0.2875 -0.8081 -0.5463
  487SOL     MW 1948   1.294   1.618   1.019 -0.2086 -0.3114 -0.2515
  488SOL     OW 1949   1.491   1.814   0.622  0.2990  0.1703  0.0391
  488SOL    HW1 1950   1.482   1.893   0.566  1.0773  2.5654  1.2827
  488SOL    HW2 1951   1.442   1.742   0.583 -0.0524 -1.2417  0.5748
  488SOL     MW 1952   1.483   1.815   0.610  0.3553  0.3000  0.2738
  489SOL     OW 1953   0.687   0.744   0.522 -0.0689  0.1192 -0.2432
  489SOL    HW1 1954   0.650   0.657   0.499  0.0763  1.1664 -1.5780
  489SOL    HW2 1955   0.691   0.738   0.617  0.7954 -0.8386  0.0406
  489SOL     MW 1956   0.683   0.732   0.531  0.0643  0.1310 -0.3819
  490SOL     OW 1957   1.400   2.080   0.440  0.5052  0.3812 -0.6678
  490SOL    HW1 1958   1.469   2.133   0.400  0.6534 -0.1985  0.7075
  490SOL    HW2 1959   1.318   2.113   0.398  1.0892  2.1598 -1.8188
  490SOL     MW 1960   1.398   2.091   0.429  0.6018  0.5394 -0.6382
  491SOL     OW 1961   1.266   2.985   0.369 -0.6654  0.0483  0.2501
  491SOL    HW1 1962   1.306   3.037   0.435 -1.1522  1.0545 -2.1237
  491SOL    HW2 1963   1.170   3.013   0.361  0.0216 -0.7339 -0.1637
  491SOL     MW 1964   1.258   2.996   0.376 -0.6390  0.0779 -0.1177
  492SOL     OW 1965   1.447   2.142   0.708 -0.0853  0.0248  0.0130
  492SOL    HW1 1966   1.390   2.123   0.634 -0.4412  1.1318 -1.5764
  492SOL    HW2 1967   1.401   2.137   0.789 -0.6480 -2.3052  0.6439
  492SOL     MW 1968   1.433   2.139   0.709 -0.2065 -0.1366 -0.1134
  493SOL     OW 1969   0.222   2.995   0.352 -0.6385 -0.4092 -0.2401
  493SOL    HW1 1970   0.144   3.048   0.369 -0.6358 -2.2685  0.4068
  493SOL    HW2 1971   0.234   2.989   0.256  0.4509  1.9818 -0.8860
  493SOL     MW 1972   0.213   3.001   0.342 -0.4944 -0.3391 -0.2400
  494SOL     OW 1973   0.377   2.384   1.796 -0.3962  0.2556 -0.0722
  494SOL    HW1 1974   0.374   2.296   1.765  1.1904  1.3071 -2.3587
  494SOL    HW2 1975   0.418   2.430   1.714  0.6964  2.2615 -0.6927
  494SOL     MW 1976   0.382   2.378   1.781 -0.0427  0.6590 -0.4557
  495SOL     OW 1977   2.899   1.635   2.708 -0.1710 -0.1481  0.5956
  495SOL    HW1 1978   2.867   1.710   2.761  0.9515  1.2380  3.0056
  495SOL    HW2 1979   2.919   1.565   2.774 -0.8344  0.4381  1.6839
  495SOL     MW 1980   2.897   1.635   2.724 -0.1104  0.1122  1.0572
  496SOL     OW 1981   2.764   2.271   2.718 -0.3263  0.0520  0.4408
  496SOL    HW1 1982   2.781   2.181   2.738 -1.6132 -0.2051 -0.8519
  496SOL    HW2 1983   2.855   2.317   2.726  0.0410  1.9981 -1.7993
  496SOL     MW 1984   2.778   2.265   2.722 -0.4476  0.2748 -0.0253
  497SOL     OW 1985   1.492   2.332   2.551 -0.0223  0.2079 -0.4230
  497SOL    HW1 1986   1.507   2.285   2.461  0.0407 -1.4651  0.8817
  497SOL    HW2 1987   1.469   2.258   2.611 -0.0846 -0.6842 -0.5835
  497SOL     MW 1988   1.491   2.316   2.547 -0.0222 -0.1305 -0.2720
  498SOL     OW 1989   1.445   2.772   2.298  0.2181  0.0291 -0.2074
  498SOL    HW1 1990   1.431   2.680   2.279 -0.5752  0.8294 -0.8014
  498SOL    HW2 1991   1.528   2.773   2.354  1.7257  1.3936 -0.8032
  498SOL     MW 1992   1.454   2.760   2.303  0.3124  0.3147 -0.3644
  499SOL     OW 1993   0.951   0.100   0.077  0.4124  0.5930  0.1590
  499SOL    HW1 1994   0.863   0.138   0.112 -2.4063  1.8495 -0.2410
  499SOL    HW2 1995   0.938   0.006   0.049 -0.9912  0.2208 -0.3343
  499SOL     MW 1996   0.938   0.093   0.078 -0.1447  0.7097  0.0412
  500SOL     OW 1997   1.032   2.526   2.725  0.3382 -0.0548  0.4373
  500SOL    HW1 1998   1.084   2.496   2.801 -0.9432 -1.4703 -0.4997
  500SOL    HW2 1999   0.980   2.599   2.762 -0.7574  1.2934  1.6161
  500SOL     MW 2000   1.032   2.532   2.740  0.0246 -0.0637  0.4692
  501SOL     OW 2001   1.749   2.264   3.064 -0.7102 -0.4446  0.8245
  501SOL    HW1 2002   1.745   2.359   3.080  0.2978  0.1205  0.1492
  501SOL    HW2 2003   1.844   2.246   3.053 -0.6027 -2.0345 -0.4492
  501SOL     MW 2004   1.761   2.275   3.065 -0.5630 -0.5798  0.5674
  502SOL     OW 2005   0.261   2.713   2.964 -0.1328 -0.5245  0.3055
  502SOL    HW1 2006   0.198   2.662   2.917 -0.1820  0.0045  2.6699
  502SOL    HW2 2007   0.267   2.799   2.920 -0.2727  0.1560 -1.8446
  502SOL     MW 2008   0.254   2.717   2.952 -0.1578 -0.3650  0.3337
  503SOL     OW 2009   1.144   2.568   2.097  0.4926  0.3365  0.6533
  503SOL    HW1 2010   1.194   2.578   2.015 -1.3468 -0.1841 -1.6213
  503SOL    HW2 2011   1.060   2.610   2.063  1.5952  1.2098 -0.3584
  503SOL     MW 2012   1.139   2.575   2.082  0.3954  0.3830  0.2197
  504SOL     OW 2013   0.073   2.654   2.162 -0.2639  0.2782  0.0856
  504SOL    HW1 2014   0.157   2.620   2.120  0.0468  1.0144 -0.2047
  504SOL    HW2 2015   0.033   2.580   2.202 -3.2743 -0.0985  0.0202
  504SOL     MW 2016   0.079   2.640   2.161 -0.6201  0.3256  0.0387
  505SOL     OW 2017   1.604   2.788   2.749  0.1732 -0.3869 -0.5133
  505SOL    HW1 2018   1.647   2.801   2.666 -2.3448  2.3092 -0.9229
  505SOL    HW2 2019   1.530   2.855   2.758  0.9218  1.9940  1.3316
  505SOL     MW 2020   1.600   2.798   2.739 -0.0603  0.2830 -0.3239
  506SOL     OW 2021   1.601   0.070   2.752  0.0297 -0.4970  0.1195
  506SOL    HW1 2022   1.582   0.014   2.824 -0.8536 -1.2718  3.1877
  506SOL    HW2 2023   1.669   0.024   2.701 -3.9892 -1.1588 -0.0194
  506SOL     MW 2024   1.607   0.057   2.755 -0.6171 -0.6866  0.5060
  507SOL     OW 2025   0.870   2.724   2.808 -0.1722  0.2215  0.0993
  507SOL    HW1 2026   0.913   2.757   2.727  1.3327  0.7150  0.5088
  507SOL    HW2 2027   0.785   2.683   2.786 -0.5408 -0.0363 -1.5634
  507SOL     MW 2028   0.864   2.723   2.794 -0.0222  0.2526 -0.0661
  508SOL     OW 2029   1.153   2.111   2.582  0.0729 -0.1413  0.6518
  508SOL    HW1 2030   1.234   2.135   2.620 -0.9742 -0.5032 -1.2045
  508SOL    HW2 2031   1.096   2.096   2.655  0.7149 -0.7535  1.3759
  508SOL     MW 2032   1.156   2.112   2.597  0.0195 -0.2698  0.5025
  509SOL     OW 2033   0.640   2.569   2.790  0.2178 -0.2171  0.2287
  509SOL    HW1 2034   0.615   2.511   2.720  0.1791  0.3062  1.1898
  509SOL    HW2 2035   0.572   2.635   2.789 -4.0433 -2.1815 -2.7789
  509SOL     MW 2036   0.628   2.570   2.781 -0.3496 -0.4072 -0.0414
  510SOL     OW 2037   1.506   2.562   1.619  0.2626 -0.1583  0.1938
  510SOL    HW1 2038   1.511   2.654   1.582  0.3369 -0.0823  0.9399
  510SOL    HW2 2039   1.460   2.564   1.701  1.9541  0.4613 -0.7871
  510SOL     MW 2040   1.501   2.574   1.625  0.4956 -0.0665  0.1628
  511SOL     OW 2041   0.351   2.518   2.547  0.2373 -0.0603  0.6889
  511SOL    HW1 2042   0.428   2.464   2.567 -0.2922  0.1466 -1.9238
  511SOL    HW2 2043   0.354   2.520   2.452 -1.9793  0.8295 -0.9453
  511SOL     MW 2044   0.361   2.511   2.537 -0.1250  0.0844  0.1285
  512SOL     OW 2045   1.025   1.967   2.838 -0.0336  0.0255  0.4414
  512SOL    HW1 2046   0.928   1.962   2.848 -0.5900  1.0578 -1.1164
  512SOL    HW2 2047   1.046   1.882   2.891  0.6963 -0.5074  1.5844
  512SOL     MW 2048   1.015   1.955   2.847 -0.0107  0.0914  0.3866
  513SOL     OW 2049   1.518   2.506   2.208  0.1839  0.5643 -0.7054
  513SOL    HW1 2050   1.604   2.531   2.176 -0.1061 -0.3842  0.2107
  513SOL    HW2 2051   1.520   2.443   2.278  4.7676  0.7476  2.2352
  513SOL     MW 2052   1.530   2.501   2.213  0.7504  0.4633 -0.1965
  514SOL     OW 2053   0.186   2.340   2.678 -0.8814  0.1380 -0.2499
  514SOL    HW1 2054   0.248   2.402   2.635  0.7098 -0.5839  1.0991
  514SOL    HW2 2055   0.249   2.307   2.748 -1.2328  0.9237  0.1189
  514SOL     MW 2056   0.202   2.344   2.681 -0.7178  0.1465 -0.0233
  515SOL     OW 2057   1.083   1.970   1.827  0.3463 -0.4528 -0.3215
  515SOL    HW1 2058   1.106   2.056   1.806  0.3441  1.3659  2.3775
  515SOL    HW2 2059   1.158   1.940   1.885 -2.3172  2.2318  0.0929
  515SOL     MW 2060   1.096   1.977   1.832 -0.0054  0.1414  0.0893
  516SOL     OW 2061   1.294   2.598   2.947 -0.1933  0.3714 -0.0145
  516SOL    HW1 2062   1.317   2.598   2.852  1.5220 -0.2105 -0.7568
  516SOL    HW2 2063   1.248   2.516   2.969 -0.6488 -1.7588 -0.4914
  516SOL     MW 2064   1.291   2.587   2.938 -0.0271  0.0136 -0.1754
  517SOL     OW 2065   0.546   2.348   2.274  0.5932  0.4412  0.6447
  517SOL    HW1 2066   0.492   2.424   2.252  0.5022  1.9358  0.2964
  517SOL    HW2 2067   0.504   2.285   2.215  0.2766 -1.2497 -0.1362
  517SOL     MW 2068   0.533   2.350   2.263  0.5394  0.4153  0.4957
  518SOL     OW 2069   1.809   0.111   3.065  0.1778 -0.5046  0.6789
  518SOL    HW1 2070   1.830   0.139   3.153 -0.5684 -1.2882 -1.6719
  518SOL    HW2 2071   1.777   0.023   3.072  0.0907  0.3158  0.3492
  518SOL     MW 2072   1.807   0.103   3.078  0.0678 -0.4997  0.3252
  519SOL     OW 2073   0.653   2.421   1.894  0.2946  0.4836 -1.0310
  519SOL    HW1 2074   0.690   2.332   1.911  0.3089 -1.1208 -0.5630
  519SOL    HW2 2075   0.561   2.404   1.871  0.7140  1.7026  3.2064
  519SOL     MW 2076   0.646   2.407   1.893  0.3518  0.4328 -0.4102
  520SOL     OW 2077   1.228   2.130   2.937  0.2943 -0.1216  0.0211
  520SOL    HW1 2078   1.148   2.081   2.919 -1.9087 -0.6361 -1.3942
  520SOL    HW2 2079   1.269   2.100   3.021  0.6132  0.4663 -0.6863
  520SOL     MW 2080   1.223   2.119   2.946  0.0457 -0.1119 -0.2590
  521SOL     OW 2081   1.767   2.028   2.252  0.0753 -0.0107  0.4551
  521SOL    HW1 2082   1.775   2.046   2.156  1.4554  0.9825 -0.4638
  521SOL    HW2 2083   1.762   1.933   2.268 -0.6706 -2.8138 -0.9743
  521SOL     MW 2084   1.767   2.018   2.241  0.1590 -0.2495  0.1452
  522SOL     OW 2085   2.867   2.544   2.230  0.7104 -0.4688 -0.1152
  522SOL    HW1 2086   2.880   2.513   2.317  0.1492 -0.9799  2.3689
  522SOL    HW2 2087   2.890   2.639   2.218 -3.2965  2.6469 -2.4257
  522SOL     MW 2088   2.871   2.552   2.240  0.1076 -0.1251 -0.0923
  523SOL     OW 2089   0.821   1.492   2.149 -0.2579 -0.0115  0.0024
  523SOL    HW1 2090   0.786   1.533   2.071  3.3688  1.0957  0.8375
  523SOL    HW2 2091   0.907   1.463   2.119 -0.0163  1.1062  0.9721
  523SOL     MW 2092   0.828   1.494   2.135  0.2525  0.2820  0.2405
  524SOL     OW 2093   0.628   2.404   2.999  0.3896  0.1417 -0.2626
  524SOL    HW1 2094   0.653   2.458   2.921  2.9008  1.6337 -2.4416
  524SOL    HW2 2095   0.697   2.348   3.016 -2.4462  0.2685 -1.8923
  524SOL     MW 2096   0.640   2.404   2.991  0.3467  0.3553 -0.7651
  525SOL     OW 2097   0.383   2.184   2.116  0.4468 -0.0941  0.2387
  525SOL    HW1 2098   0.350   2.120   2.174  0.4409  0.9520 -2.0052
  525SOL    HW2 2099   0.416   2.140   2.041  0.9869  4.1280  1.1713
  525SOL     MW 2100   0.383   2.170   2.113  0.5173  0.6010  0.0657
  526SOL     OW 2101   0.714   2.122   2.000  0.0268  0.3160 -0.1632
  526SOL    HW1 2102   0.769   2.145   1.912 -2.1447 -0.0053  1.7535
  526SOL    HW2 2103   0.780   2.133   2.073 -2.5779 -0.1703  3.8195
  526SOL     MW 2104   0.730   2.126   1.998 -0.6034  0.2094  0.6152
  527SOL     OW 2105   1.288   1.905   2.006 -0.4187  0.1122 -0.0383
  527SOL    HW1 2106   1.275   1.875   2.095 -1.1647 -3.0331  0.4421
  527SOL    HW2 2107   1.308   1.825   1.957  1.9121  1.0268 -0.7197
  527SOL     MW 2108   1.289   1.891   2.011 -0.2096 -0.1821 -0.0648
  528SOL     OW 2109   0.621   2.893   3.007  0.2731  0.4321 -0.8666
  528SOL    HW1 2110   0.638   2.988   3.006  0.9470 -2.8722 -2.4628
  528SOL    HW2 2111   0.591   2.875   2.915 -1.8210  1.9672 -0.0556
  528SOL     MW 2112   0.619   2.903   2.995  0.0857  0.1987 -0.9702
  529SOL     OW 2113   1.124   2.245   1.774 -0.0908 -0.7444 -0.0409
  529SOL    HW1 2114   1.179   2.272   1.847 -0.4377 -1.2791 -0.5755
  529SOL    HW2 2115   1.168   2.280   1.698  1.5123 -3.9243  1.0090
  529SOL     MW 2116   1.137   2.253   1.773  0.0749 -1.2345  0.0271
  530SOL     OW 2117   1.144   2.377   2.975  0.1435  0.1578 -0.4553
  530SOL    HW1 2118   1.089   2.386   3.050  2.2887  2.9105 -0.3946
  530SOL    HW2 2119   1.168   2.287   2.961  0.4105 -0.7297  0.4936
  530SOL     MW 2120   1.140   2.366   2.983  0.4617  0.4039 -0.3221
  531SOL     OW 2121   0.900   1.819   2.637  0.4601 -0.0712  0.0505
  531SOL    HW1 2122   0.945   1.868   2.707 -3.6452  3.1792  2.0082
  531SOL    HW2 2123   0.846   1.756   2.683 -1.2990  3.1044  0.0873
  531SOL     MW 2124   0.899   1.817   2.653 -0.3136  0.7766  0.3137
  532SOL     OW 2125   1.679   0.325   2.870 -0.4530 -0.0023 -0.0234
  532SOL    HW1 2126   1.658   0.246   2.829 -1.7118  3.7925  0.6271
  532SOL    HW2 2127   1.727   0.301   2.950 -0.2696  0.7295  0.7445
  532SOL     MW 2128   1.682   0.311   2.875 -0.5949  0.5949  0.1637
  533SOL     OW 2129   1.770   2.742   2.958  0.4648 -0.6142  0.0581
  533SOL    HW1 2130   1.755   2.661   3.003  1.8720  2.1809  2.7720
  533SOL    HW2 2131   1.704   2.742   2.885 -3.1459 -0.3864  2.2313
  533SOL     MW 2132   1.760   2.731   2.955  0.1741 -0.2154  0.7029
  534SOL     OW 2133   1.752   2.485   2.515 -0.2245 -0.2748  0.0147
  534SOL    HW1 2134   1.682   2.425   2.544  2.3812 -0.2597  0.0559
  534SOL    HW2 2135   1.835   2.472   2.573  1.9077  1.1066  1.1061
  534SOL     MW 2136   1.753   2.475   2.527  0.4006 -0.0905  0.1641
  535SOL     OW 2137   1.801   2.346   1.909  0.5517  0.0896 -0.0961
  535SOL    HW1 2138   1.729   2.345   1.839 -0.0747 -0.6951 -0.4905
  535SOL    HW2 2139   1.881   2.388   1.872  2.2091 -1.8568 -0.4211
  535SOL     MW 2140   1.802   2.351   1.895  0.6877 -0.2708 -0.1910
  536SOL     OW 2141   0.433   1.841   2.030 -0.0046 -0.3922  0.0368
  536SOL    HW1 2142   0.422   1.865   1.936  2.2990 -1.8541 -0.8092
  536SOL    HW2 2143   0.522   1.860   2.065  0.7716  1.8492 -2.2378
  536SOL     MW 2144   0.443   1.847   2.022  0.4017 -0.2894 -0.3750
  537SOL     OW 2145   0.980   0.187   2.937  0.7595 -0.2564 -0.2220
  537SOL    HW1 2146   0.953   0.151   3.024 -2.6069 -0.0309  0.5481
  537SOL    HW2 2147   0.906   0.235   2.906 -0.2557  0.5601 -1.5871
  537SOL     MW 2148   0.966   0.189   2.945  0.1814 -0.1189 -0.3005
  538SOL     OW 2149   1.309   0.051   3.052  0.0333 -0.4102 -0.1221
  538SOL    HW1 2150   1.240   0.098   3.001  0.6351 -0.3068  0.6983
  538SOL    HW2 2151   1.375   0.115   3.070 -1.9365 -1.9933 -2.6259
  538SOL     MW 2152   1.309   0.065   3.048 -0.1472 -0.6054 -0.3442
  539SOL     OW 2153   0.724   2.693   2.531 -0.5400  0.1980  0.1250
  539SOL    HW1 2154   0.790   2.753   2.564 -0.6813 -0.9166  1.7154
  539SOL    HW2 2155   0.762   2.607   2.528  1.7291 -0.0714  3.1451
  539SOL     MW 2156   0.738   2.690   2.535 -0.2592  0.0154  0.7333
  540SOL     OW 2157   0.363   2.226   2.850 -0.1374  0.3402 -0.3256
  540SOL    HW1 2158   0.434   2.284   2.884 -1.1366 -1.3152  0.3397
  540SOL    HW2 2159   0.326   2.184   2.930 -0.0259  0.1252 -0.3397
  540SOL     MW 2160   0.367   2.228   2.865 -0.2545  0.0934 -0.2397
  541SOL     OW 2161   0.187   2.880   2.268 -0.1087 -0.1422  0.2173
  541SOL    HW1 2162   0.154   2.795   2.235  1.0160 -0.1729  1.5241
  541SOL    HW2 2163   0.236   2.847   2.343  0.6894 -1.1250  0.1857
  541SOL     MW 2164   0.189   2.864   2.274  0.1450 -0.2759  0.3856
  542SOL     OW 2165   0.886   2.280   2.758  0.1110 -0.1984 -0.6317
  542SOL    HW1 2166   0.862   2.266   2.844  1.8335 -3.2449 -0.9718
  542SOL    HW2 2167   0.951   2.355   2.769 -0.7999  1.3990  0.1598
  542SOL     MW 2168   0.891   2.288   2.770  0.2181 -0.3896 -0.5721
  543SOL     OW 2169   1.391   2.621   2.668  0.1328 -0.8504  0.0753
  543SOL    HW1 2170   1.441   2.549   2.629  0.0740 -0.4051  1.1035
  543SOL    HW2 2171   1.464   2.682   2.699  1.7455  0.0705 -0.8631
  543SOL     MW 2172   1.407   2.620   2.667  0.3378 -0.6702  0.0872
  544SOL     OW 2173   0.705   0.100   2.591 -0.0035  0.7055  0.9105
  544SOL    HW1 2174   0.619   0.079   2.606 -1.0639  0.7355  0.2948
  544SOL    HW2 2175   0.736   0.033   2.536  0.9506  1.3348 -1.5733
  544SOL     MW 2176   0.698   0.089   2.586 -0.0175  0.7925  0.5016
  545SOL     OW 2177   1.554   2.173   2.334 -0.5802 -0.7011  0.0232
  545SOL    HW1 2178   1.499   2.107   2.371  1.5014  3.5518  1.1332
  545SOL    HW2 2179   1.638   2.136   2.303  1.1411 -0.3732 -2.8168
  545SOL     MW 2180   1.558   2.159   2.335 -0.0785 -0.0967 -0.2051
  546SOL     OW 2181   2.984   2.008   0.094  0.4521 -0.5132 -0.2305
  546SOL    HW1 2182   2.970   2.092   0.047 -0.3545  0.3723  0.5143
  546SOL    HW2 2183   3.079   1.973   0.066  2.1202 -0.2287 -2.5910
  546SOL     MW 2184   2.995   2.014   0.084  0.5657 -0.3588 -0.4436
  547SOL     OW 2185   0.127   2.927   0.060  0.1392  0.3411  0.0692
  547SOL    HW1 2186   0.154   2.968  -0.024 -0.4986 -0.4124 -0.4007
  547SOL    HW2 2187   0.186   2.848   0.075  1.4396 -0.1466  4.9861
  547SOL     MW 2188   0.139   2.922   0.051  0.2266  0.1773  0.6559
  548SOL     OW 2189   0.331   2.490   0.271 -0.0321  0.6186 -0.1737
  548SOL    HW1 2190   0.350   2.564   0.213 -1.3980  1.2185 -1.8500
  548SOL    HW2 2191   0.251   2.445   0.234 -2.8232 -1.1340  0.4279
  548SOL     MW 2192   0.323   2.494   0.259 -0.5806  0.4665 -0.3155
  549SOL     OW 2193   0.696   1.849   2.125 -0.1057  0.3037  0.4546
  549SOL    HW1 2194   0.706   1.930   2.067  0.8774  4.3016 -1.3120
  549SOL    HW2 2195   0.726   1.890   2.208  0.6035  0.5581  0.2769
  549SOL     MW 2196   0.701   1.865   2.128  0.1176  0.8648  0.1981
  550SOL     OW 2197   1.834   1.745   2.547 -0.4543 -0.1470  0.6329
  550SOL    HW1 2198   1.812   1.757   2.459  1.7876  0.0602 -0.3771
  550SOL    HW2 2199   1.816   1.831   2.579 -0.7290 -1.6303 -0.1459
  550SOL     MW 2200   1.829   1.758   2.539 -0.1948 -0.3153  0.3969
  551SOL     OW 2201   0.862   2.312   0.258  0.5170 -0.0406  0.4160
  551SOL    HW1 2202   0.932   2.360   0.217 -0.3450 -0.1264 -0.8330
  551SOL    HW2 2203   0.866   2.224   0.221 -0.7365  0.9191 -1.2382
  551SOL     MW 2204   0.872   2.307   0.248  0.2379  0.0747  0.0329
  552SOL     OW 2205   1.749   1.769   2.281  0.2197  0.4762  0.0843
  552SOL    HW1 2206   1.664   1.732   2.282  1.4543 -0.7420 -1.5505
  552SOL    HW2 2207   1.784   1.712   2.209  0.8461  1.2808  1.9196
  552SOL     MW 2208   1.742   1.757   2.272  0.4653  0.4217  0.1108
  553SOL     OW 2209   1.219   2.334   1.525 -0.3517  0.0970  0.3739
  553SOL    HW1 2210   1.261   2.247   1.524  2.1380  0.5660  1.6931
  553SOL    HW2 2211   1.282   2.392   1.475  0.4762 -0.2025 -1.2733
  553SOL     MW 2212   1.233   2.330   1.518  0.0860  0.1194  0.3306
  554SOL     OW 2213   0.549   2.821   2.711  0.6547  0.2555 -0.2015
  554SOL    HW1 2214   0.509   2.901   2.666  0.0313 -1.0661 -3.4076
  554SOL    HW2 2215   0.589   2.771   2.648 -2.4958  0.3086  0.5228
  554SOL     MW 2216   0.549   2.825   2.697  0.1567  0.0882 -0.5290
  555SOL     OW 2217   0.585   2.382   2.614  0.4653  0.1396 -0.1949
  555SOL    HW1 2218   0.574   2.297   2.652  1.1351 -2.0671  0.4521
  555SOL    HW2 2219   0.633   2.369   2.535 -0.2764  1.1979  2.3098
  555SOL     MW 2220   0.590   2.369   2.609  0.4558 -0.0120  0.2209
  556SOL     OW 2221   1.048   1.798   0.135  0.0308 -0.5278  0.2524
  556SOL    HW1 2222   1.043   1.807   0.036 -2.0020 -1.5627 -0.4491
  556SOL    HW2 2223   1.139   1.800   0.152 -1.0176 -0.9382 -0.7023
  556SOL     MW 2224   1.059   1.800   0.124 -0.3757 -0.7185  0.0339
  557SOL     OW 2225   1.013   2.689   0.478 -0.6561 -0.1241  0.4995
  557SOL    HW1 2226   1.065   2.681   0.397 -0.5220 -1.0379  2.1287
  557SOL    HW2 2227   0.943   2.757   0.445 -0.5108  0.2460 -0.8741
  557SOL     MW 2228   1.010   2.697   0.463 -0.6192 -0.1958  0.5332
  558SOL     OW 2229   0.291   2.109   3.083 -0.0665  0.5463 -0.3479
  558SOL    HW1 2230   0.248   2.028   3.084  2.3758  1.0859  2.4432
  558SOL    HW2 2231   0.226   2.159   3.126 -1.1980 -2.6185 -0.8009
  558SOL     MW 2232   0.277   2.105   3.089  0.1064  0.1999 -0.0394
  559SOL     OW 2233   1.184   2.297   2.061 -0.0457  0.1601  0.1237
  559SOL    HW1 2234   1.163   2.387   2.095 -3.1081  1.6044  0.0753
  559SOL    HW2 2235   1.214   2.235   2.133 -1.4841  1.5504  0.3451
  559SOL     MW 2236   1.185   2.301   2.075 -0.6395  0.5341  0.1465
  560SOL     OW 2237   1.957   2.897   0.024  0.4434 -0.8782 -0.6078
  560SOL    HW1 2238   2.029   2.937  -0.030  1.8339 -2.0806  1.5614
  560SOL    HW2 2239   1.898   2.843  -0.034  0.2632 -1.5225 -1.5808
  560SOL     MW 2240   1.959   2.895   0.009  0.6031 -1.1218 -0.4500
  561SOL     OW 2241   0.468   2.091   0.188  0.5563  0.1387  1.2516
  561SOL    HW1 2242   0.410   2.097   0.107 -2.3743 -0.7426 -4.9432
  561SOL    HW2 2243   0.508   2.176   0.210 -1.4970  0.0471 -1.2526
  561SOL     MW 2244   0.466   2.103   0.180 -0.1013  0.0104  0.1038
  562SOL     OW 2245   0.887   2.161   2.208  0.4517  0.2314 -0.6047
  562SOL    HW1 2246   0.882   2.255   2.204 -0.9674 -0.1598 -0.3443
  562SOL    HW2 2247   0.981   2.151   2.222  0.8320  0.4115 -0.5187
  562SOL     MW 2248   0.899   2.172   2.210  0.3147  0.2036 -0.5590
  563SOL     OW 2249   1.222   0.283   0.576  0.0591  0.1210  0.5001
  563SOL    HW1 2250   1.162   0.272   0.499  0.7219 -1.6292 -1.0398
  563SOL    HW2 2251   1.259   0.191   0.593 -0.3484 -1.0342  0.1106
  563SOL     MW 2252   1.219   0.269   0.568  0.0928 -0.2624  0.2455
  564SOL     OW 2253   1.016   2.605   2.359  0.0821 -0.3818  0.4955
  564SOL    HW1 2254   1.081   2.575   2.294 -0.8462 -0.0221  0.1861
  564SOL    HW2 2255   1.076   2.643   2.422 -2.9164 -0.0847 -0.3178
  564SOL     MW 2256   1.032   2.606   2.359 -0.4360 -0.2951  0.3474
  565SOL     OW 2257   2.920   2.639   2.611  0.0381 -0.3591 -0.4663
  565SOL    HW1 2258   2.985   2.697   2.571  3.4456  1.0989 -3.4045
  565SOL    HW2 2259   2.849   2.644   2.538  0.8930 -1.5181 -0.4718
  565SOL     MW 2260   2.919   2.647   2.596  0.6005 -0.3197 -0.8547
  566SOL     OW 2261   2.252   1.940   2.362 -0.0135 -0.0799 -0.2158
  566SOL    HW1 2262   2.287   1.933   2.274  0.7923  1.1900 -1.0593
  566SOL    HW2 2263   2.301   2.016   2.404  0.8874 -0.2249  0.0791
  566SOL     MW 2264   2.263   1.949   2.356  0.2117  0.0685 -0.2882
  567SOL     OW 2265   1.189   2.922   0.046  0.2171 -0.3797 -0.8875
  567SOL    HW1 2266   1.225   3.016   0.052  2.5693  0.2380 -1.1865
  567SOL    HW2 2267   1.173   2.904  -0.050 -0.8037  1.1043 -0.9754
  567SOL     MW 2268   1.192   2.932   0.034  0.3927 -0.1024 -0.9386
  568SOL     OW 2269   1.655   2.131   2.838 -0.3471 -0.0499  0.0093
  568SOL    HW1 2270   1.693   2.195   2.906  0.2994  0.7149  0.3956
  568SOL    HW2 2271   1.721   2.076   2.794 -0.9791  1.8627  2.4792
  568SOL     MW 2272   1.669   2.132   2.841 -0.3452  0.3034  0.3861
  569SOL     OW 2273   0.094   2.175   2.431  0.0793 -0.3243  0.0021
  569SOL    HW1 2274   0.065   2.252   2.381  1.6377 -2.5767 -0.0624
  569SOL    HW2 2275   0.092   2.208   2.522  0.9649  1.5178 -0.9664
  569SOL     MW 2276   0.090   2.190   2.436  0.4018 -0.3785 -0.1342
  570SOL     OW 2277   1.436   0.421   0.489 -0.5139  0.2239  0.3250
  570SOL    HW1 2278   1.375   0.349   0.516 -2.3116 -0.7933 -3.1303
  570SOL    HW2 2279   1.494   0.445   0.560 -1.7668 -2.9901 -4.0220
  570SOL     MW 2280   1.435   0.415   0.502 -0.9164 -0.3344 -0.7044
  571SOL     OW 2281   1.474   2.400   1.966  0.0243  0.0742 -0.8839
  571SOL    HW1 2282   1.484   2.428   2.060  2.2356  0.5839 -2.3836
  571SOL    HW2 2283   1.453   2.307   1.972 -2.2340  0.3526  0.9095
  571SOL     MW 2284   1.473   2.392   1.979  0.0181  0.1782 -0.8451
  572SOL     OW 2285   0.920   2.593   3.081  0.2351  0.3921  0.2243
  572SOL    HW1 2286   0.886   2.629   2.999  0.3324  0.4978  0.0877
  572SOL    HW2 2287   0.848   2.557   3.137  0.3950  0.2662 -1.5485
  572SOL     MW 2288   0.906   2.593   3.077  0.2690  0.3895 -0.0276
  573SOL     OW 2289   1.109   2.414   0.196  0.1000 -0.2106  0.2571
  573SOL    HW1 2290   1.196   2.412   0.148 -0.6550 -0.2933  0.0893
  573SOL    HW2 2291   1.109   2.512   0.215  0.4828  4.4343 -0.4321
  573SOL     MW 2292   1.121   2.427   0.192  0.0509  0.3913  0.1440
  574SOL     OW 2293   1.158   2.684   0.239  0.2076 -0.2484  0.5624
  574SOL    HW1 2294   1.251   2.707   0.261 -1.6444 -0.9030 -1.2164
  574SOL    HW2 2295   1.135   2.750   0.177 -0.5155  1.2386 -0.5810
  574SOL     MW 2296   1.168   2.696   0.233 -0.1321 -0.1385  0.1768
  575SOL     OW 2297   3.053   2.322   1.885  0.1308  0.1313  0.4493
  575SOL    HW1 2298   3.036   2.245   1.831 -1.1634  1.0696 -3.7817
  575SOL    HW2 2299   3.112   2.383   1.833  0.6398 -0.0936 -0.5651
  575SOL     MW 2300   3.059   2.320   1.871  0.0272  0.2254 -0.2428
  576SOL     OW 2301   2.827   1.820   2.040 -0.4729  0.4862  0.0829
  576SOL    HW1 2302   2.838   1.901   1.991  0.3126 -1.6064 -0.0377
  576SOL    HW2 2303   2.736   1.792   2.023 -0.6617  1.3076 -1.1906
  576SOL     MW 2304   2.816   1.827   2.031 -0.3941  0.3184 -0.1011
  577SOL     OW 2305   2.080   0.235   0.080  0.4098  0.4317  0.1138
  577SOL    HW1 2306   2.010   0.278   0.039  0.6648  1.9642  0.1426
  577SOL    HW2 2307   2.033   0.158   0.122 -1.3454 -2.3063  2.0247
  577SOL     MW 2308   2.065   0.230   0.080  0.2119  0.2726  0.3697
  578SOL     OW 2309   2.030   2.102   2.375  0.4585 -0.4889  0.8129
  578SOL    HW1 2310   1.968   2.060   2.309 -1.1670  0.7867  1.0704
  578SOL    HW2 2311   2.106   2.038   2.371  0.9724 -0.0889  2.5527
  578SOL     MW 2312   2.032   2.088   2.365  0.3118 -0.2678  1.0764
  579SOL     OW 2313   0.848   2.428   2.518 -0.1539 -0.2152 -0.6475
  579SOL    HW1 2314   0.866   2.365   2.587 -0.0891  1.7924  0.0201
  579SOL    HW2 2315   0.929   2.471   2.483  1.2014 -2.3527  0.1608
  579SOL     MW 2316   0.861   2.426   2.523  0.0335 -0.2324 -0.4528
  580SOL     OW 2317   0.924   2.919   0.026 -0.4243  0.0699 -0.0553
  580SOL    HW1 2318   1.024   2.910   0.028  1.4308 -1.6512  0.8117
  580SOL    HW2 2319   0.882   2.859  -0.043 -2.1057  1.3341  1.9052
  580SOL     MW 2320   0.932   2.910   0.017 -0.4014  0.0096  0.3177
  581SOL     OW 2321   1.102   2.532   1.740  0.1872 -0.1559 -0.3608
  581SOL    HW1 2322   1.188   2.560   1.707 -0.3763 -0.4241 -2.1523
  581SOL    HW2 2323   1.111   2.440   1.774 -1.7537 -1.6734 -1.8116
  581SOL     MW 2324   1.115   2.524   1.740 -0.1432 -0.3915 -0.7886
  582SOL     OW 2325   0.008   2.843   2.569  0.0306 -0.1492 -0.5380
  582SOL    HW1 2326   0.030   2.923   2.620  0.8979 -2.2268 -0.5053
  582SOL    HW2 2327   0.093   2.799   2.540  0.7468 -1.2023 -3.3392
  582SOL     MW 2328   0.022   2.848   2.572  0.2396 -0.5623 -0.9033
  583SOL     OW 2329   1.982   2.457   2.648 -0.1560 -0.1628 -0.0323
  583SOL    HW1 2330   2.049   2.507   2.603  1.4508  0.4233 -1.8714
  583SOL    HW2 2331   1.990   2.361   2.627  1.5949 -1.9038 -4.5364
  583SOL     MW 2332   1.992   2.451   2.639  0.2870 -0.3152 -0.8693
  584SOL     OW 2333   0.186   1.850   2.104  0.4667 -0.0266  0.0745
  584SOL    HW1 2334   0.281   1.847   2.073  1.5587  0.9372 -0.7045
  584SOL    HW2 2335   0.195   1.866   2.202  1.2620  0.8095  0.6704
  584SOL     MW 2336   0.200   1.852   2.113  0.7157  0.2109  0.0503
  585SOL     OW 2337   1.495   2.556   0.027  0.0925 -0.3156  0.4420
  585SOL    HW1 2338   1.451   2.576  -0.057 -2.3162 -0.2935 -0.6800
  585SOL    HW2 2339   1.456   2.623   0.089 -0.4222  3.4924  1.2079
  585SOL     MW 2340   1.484   2.568   0.024 -0.2932  0.1897  0.3950
  586SOL     OW 2341   1.242   3.011   2.378 -0.4008 -0.1629 -0.2674
  586SOL    HW1 2342   1.322   2.959   2.350  0.0968 -1.4534  1.4913
  586SOL    HW2 2343   1.261   3.043   2.474 -0.2872  0.8224  1.7402
  586SOL     MW 2344   1.255   3.009   2.387 -0.3202 -0.2032  0.2295
  587SOL     OW 2345   1.223   1.621   2.149  0.5570  0.1419 -0.6761
  587SOL    HW1 2346   1.197   1.552   2.213 -0.0243 -1.2932 -1.6974
  587SOL    HW2 2347   1.223   1.578   2.070  0.1530  0.7718  0.2504
  587SOL     MW 2348   1.219   1.606   2.147  0.4270  0.0356 -0.6886
  588SOL     OW 2349   1.414   2.121   2.730  0.1525 -0.5082  0.3971
  588SOL    HW1 2350   1.500   2.139   2.763  2.9036 -1.8881 -1.1037
  588SOL    HW2 2351   1.346   2.123   2.800  0.1798 -0.6468 -0.7288
  588SOL     MW 2352   1.416   2.124   2.744  0.5191 -0.7085  0.0506
  589SOL     OW 2353   1.355   2.063   0.071 -0.0201  0.2916 -0.0256
  589SOL    HW1 2354   1.365   2.147   0.119  3.6300  0.0002  1.0598
  589SOL    HW2 2355   1.309   2.002   0.129  1.6116 -0.8187 -1.0536
  589SOL     MW 2356   1.350   2.066   0.085  0.6768  0.1067 -0.0180
  590SOL     OW 2357   0.429   2.613   2.242 -0.3154  0.1287 -0.0343
  590SOL    HW1 2358   0.386   2.624   2.157 -2.5860  1.2826  1.3861
  590SOL    HW2 2359   0.516   2.652   2.234 -0.1297 -0.8137 -0.7762
  590SOL     MW 2360   0.435   2.620   2.230 -0.5905  0.1566  0.0552
  591SOL     OW 2361   2.291   0.712   3.063  0.3894  0.0232  0.3918
  591SOL    HW1 2362   2.219   0.741   3.008 -1.0754  1.3805  0.7481
  591SOL    HW2 2363   2.370   0.750   3.031  1.8161 -1.1877  1.5734
  591SOL     MW 2364   2.292   0.721   3.052  0.3843  0.0425  0.5947
  592SOL     OW 2365   1.847   2.992   0.847 -0.0447  0.6384  0.0557
  592SOL    HW1 2366   1.813   3.040   0.771  1.3807  0.1114  0.3648
  592SOL    HW2 2367   1.919   2.927   0.826  0.5178 -1.4645 -3.0200
  592SOL     MW 2368   1.852   2.989   0.834  0.2176  0.2914 -0.3093
  593SOL     OW 2369   1.915   0.796   0.851 -0.1903 -0.6596  0.6879
  593SOL    HW1 2370   1.848   0.803   0.782 -1.4001 -0.1119 -1.8362
  593SOL    HW2 2371   1.928   0.704   0.869 -0.1738  0.0859  1.1448
  593SOL     MW 2372   1.908   0.785   0.845 -0.3477 -0.4890  0.4151
  594SOL     OW 2373   2.725   1.124   1.360 -0.4615 -0.1264  0.0454
  594SOL    HW1 2374   2.819   1.148   1.377  1.3841  0.2261  3.6579
  594SOL    HW2 2375   2.737   1.102   1.268  0.7016 -0.7696  0.2310
  594SOL     MW 2376   2.739   1.124   1.350 -0.0645 -0.1647  0.5466
  595SOL     OW 2377   0.458   0.936   0.724  0.0969  0.0121 -0.1726
  595SOL    HW1 2378   0.449   1.000   0.656  1.4416 -2.3942  0.9416
  595SOL    HW2 2379   0.459   0.985   0.804  1.2831  1.0895 -0.7627
  595SOL     MW 2380   0.457   0.951   0.726  0.4308 -0.1632 -0.1034
  596SOL     OW 2381   2.442   1.354   0.584 -0.5090  0.5062  0.3316
  596SOL    HW1 2382   2.490   1.421   0.536 -2.0739  4.6224  2.5627
  596SOL    HW2 2383   2.505   1.301   0.631 -0.3883 -0.8034 -1.0606
  596SOL     MW 2384   2.456   1.356   0.584 -0.6995  0.8765  0.4423
  597SOL     OW 2385   2.193   0.664   1.732 -0.1378 -0.5213 -0.0551
  597SOL    HW1 2386   2.256   0.604   1.776  0.0538  1.4345  0.1854
  597SOL    HW2 2387   2.173   0.626   1.647  0.1192  2.6029  0.6368
  597SOL     MW 2388   2.199   0.651   1.727 -0.0786  0.1489  0.0679
  598SOL     OW 2389   2.594   1.015   2.866 -0.0766  0.3647 -0.6004
  598SOL    HW1 2390   2.661   0.982   2.798 -2.4986 -0.6168  1.4564
  598SOL    HW2 2391   2.650   1.070   2.931  3.0953 -1.1861  1.4486
  598SOL     MW 2392   2.610   1.018   2.866  0.0223  0.0306 -0.0586
  599SOL     OW 2393   2.926   0.358   2.015  0.2876 -0.3764  0.2582
  599SOL    HW1 2394   2.886   0.351   2.103  0.3153 -0.4292 -2.0470
  599SOL    HW2 2395   2.933   0.451   2.001 -1.1319 -1.2382 -0.3733
  599SOL     MW 2396   2.922   0.369   2.025  0.1040 -0.4971 -0.1293
  600SOL     OW 2397   1.893   1.722   0.889 -0.2593  0.4024  0.0129
  600SOL    HW1 2398   1.888   1.706   0.984 -0.8562 -1.5785  0.9949
  600SOL    HW2 2399   1.806   1.754   0.866  2.7917  0.3786  2.2997
  600SOL     MW 2400   1.881   1.724   0.898  0.0645  0.1379  0.4441
  601SOL     OW 2401   2.546   0.803   0.868 -0.5545  0.3855 -0.1749
  601SOL    HW1 2402   2.552   0.811   0.968 -0.5926 -1.3235  0.0825
  601SOL    HW2 2403   2.460   0.778   0.852  2.9034 -0.9759 -0.3256
  601SOL     MW 2404   2.536   0.801   0.879 -0.1033 -0.0196 -0.1608
  602SOL     OW 2405   2.311   1.925   0.692  0.1846 -0.4950  0.1422
  602SOL    HW1 2406   2.254   1.864   0.741  0.1866  1.1203  2.2289
  602SOL    HW2 2407   2.259   2.003   0.667 -1.8148  0.5074  1.1063
  602SOL     MW 2408   2.297   1.927   0.695 -0.0789 -0.1496  0.5447
  603SOL     OW 2409   2.979   1.403   1.793  0.2231 -0.0368 -0.2539
  603SOL    HW1 2410   3.064   1.431   1.833 -0.9427  0.1307 -0.9190
  603SOL    HW2 2411   2.974   1.312   1.807 -0.6243  1.2054 -0.5421
  603SOL     MW 2412   2.989   1.394   1.800 -0.0425  0.1492 -0.3797
  604SOL     OW 2413   2.116   1.582   0.448  0.2082  0.8581 -0.2212
  604SOL    HW1 2414   2.139   1.506   0.501 -1.2253  0.5021 -2.2405
  604SOL    HW2 2415   2.035   1.619   0.485  1.3444  0.1403  1.9050
  604SOL     MW 2416   2.108   1.576   0.460  0.1689  0.7164 -0.2071
  605SOL     OW 2417   2.660   1.570   0.864  0.2862  0.0469 -0.1772
  605SOL    HW1 2418   2.590   1.605   0.812  4.6973 -0.7548 -0.4479
  605SOL    HW2 2419   2.618   1.537   0.946  0.1867 -1.2390 -0.6484
  605SOL     MW 2420   2.645   1.571   0.868  0.8551 -0.2285 -0.2751
  606SOL     OW 2421   2.554   1.766   1.994  0.7678 -0.0640 -0.4884
  606SOL    HW1 2422   2.459   1.755   1.973 -0.3149  2.8242  0.2812
  606SOL    HW2 2423   2.576   1.678   1.959 -0.1707  0.6615 -2.3678
  606SOL     MW 2424   2.544   1.753   1.986  0.5011  0.4128 -0.6349
  607SOL     OW 2425   2.358   1.002   3.002  0.1357  0.0526  0.0568
  607SOL    HW1 2426   2.421   0.989   2.931 -2.7100 -3.7895 -0.3755
  607SOL    HW2 2427   2.406   1.030   3.086  1.4442 -0.4818  1.0749
  607SOL     MW 2428   2.372   1.004   3.004 -0.0671 -0.5248  0.1341
  608SOL     OW 2429   1.896   0.291   0.564 -0.2985  0.2954 -0.2568
  608SOL    HW1 2430   1.910   0.323   0.473 -1.0512  2.7751 -1.2257
  608SOL    HW2 2431   1.877   0.194   0.540 -3.5609 -2.2979 -1.5688
  608SOL     MW 2432   1.895   0.283   0.549 -0.8282  0.2804 -0.5577
  609SOL     OW 2433   2.164   1.946   3.049  0.0101  0.3264  0.1429
  609SOL    HW1 2434   2.084   1.903   3.012  0.1383 -0.1781  0.5113
  609SOL    HW2 2435   2.171   1.918   3.143 -1.1942 -0.7617 -1.1747
  609SOL     MW 2436   2.154   1.937   3.057 -0.1318  0.1163  0.0176
  610SOL     OW 2437   1.852   1.061   1.315  0.1005 -0.0788 -0.4826
  610SOL    HW1 2438   1.857   1.004   1.234 -0.7653  1.7548 -0.9172
  610SOL    HW2 2439   1.763   1.036   1.349 -0.7012 -3.2673  0.9958
  610SOL     MW 2440   1.841   1.050   1.309 -0.1195 -0.2576 -0.3449
  611SOL     OW 2441   2.451   1.653   0.713 -0.0393 -0.1029 -0.3840
  611SOL    HW1 2442   2.416   1.736   0.685  0.1228  0.1444  4.2313
  611SOL    HW2 2443   2.483   1.605   0.629 -1.6813 -0.2647 -1.1367
  611SOL     MW 2444   2.451   1.658   0.698 -0.2346 -0.0917  0.1256
  612SOL     OW 2445   2.783   2.843   0.464  0.1703  0.1100  0.3416
  612SOL    HW1 2446   2.822   2.894   0.536 -0.4118 -0.3106 -1.1268
  612SOL    HW2 2447   2.859   2.818   0.408  1.7074  2.0793  1.9299
  612SOL     MW 2448   2.798   2.846   0.466  0.2963  0.3143  0.3575
  613SOL     OW 2449   1.562   1.058   1.110 -0.7512  0.1287 -0.6269
  613SOL    HW1 2450   1.568   1.155   1.126 -0.5044 -2.2103  0.6156
  613SOL    HW2 2451   1.643   1.020   1.145 -0.5094  0.2240  0.4216
  613SOL     MW 2452   1.573   1.066   1.117 -0.6867 -0.1673 -0.3246
  614SOL     OW 2453   2.044   0.563   1.499  0.1024  0.6707  0.0009
  614SOL    HW1 2454   2.057   0.488   1.554  1.1972  0.8216  1.8406
  614SOL    HW2 2455   2.028   0.538   1.406  0.9063 -2.7705 -0.5580
  614SOL     MW 2456   2.044   0.550   1.494  0.3529  0.2366  0.1699
  615SOL     OW 2457   2.274   0.847   0.215 -0.4354 -0.5979  0.3947
  615SOL    HW1 2458   2.323   0.787   0.267  0.0013  0.9329  1.8172
  615SOL    HW2 2459   2.292   0.819   0.127 -1.2325 -0.0661  2.1195
  615SOL     MW 2460   2.283   0.835   0.210 -0.4830 -0.3258  0.8099
  616SOL     OW 2461   2.537   0.428   1.614 -0.5186  0.0971  0.1233
  616SOL    HW1 2462   2.468   0.370   1.581 -1.5605  1.5556  0.2479
  616SOL    HW2 2463   2.587   0.442   1.531  0.4101 -1.3418  0.4647
  616SOL     MW 2464   2.535   0.422   1.599 -0.5336  0.0997  0.1848
  617SOL     OW 2465   2.866   0.575   1.717 -0.4595  0.2079  0.0912
  617SOL    HW1 2466   2.813   0.640   1.758  3.0181  1.1490 -1.0963
  617SOL    HW2 2467   2.830   0.487   1.733 -0.4038  1.0258  0.9214
  617SOL     MW 2468   2.854   0.572   1.725  0.0067  0.4400  0.0440
  618SOL     OW 2469   2.661   0.358   1.897  0.4967 -0.1969 -0.0832
  618SOL    HW1 2470   2.649   0.442   1.941  0.5366 -1.7975  1.2388
  618SOL    HW2 2471   2.749   0.338   1.925 -0.0969  0.7833 -1.4032
  618SOL     MW 2472   2.671   0.367   1.906  0.4236 -0.2787 -0.0829
  619SOL     OW 2473   2.581   0.803   0.161 -0.0874 -0.8300  0.1706
  619SOL    HW1 2474   2.667   0.849   0.185  1.3595 -1.4806  0.6019
  619SOL    HW2 2475   2.542   0.772   0.248 -1.3410 -0.6664  2.3341
  619SOL     MW 2476   2.587   0.805   0.176 -0.0619 -0.8942  0.5130
  620SOL     OW 2477   2.292   1.093   0.944  0.0895 -0.1647  0.0485
  620SOL    HW1 2478   2.310   1.128   0.857  0.7275  2.5853  0.8215
  620SOL    HW2 2479   2.270   0.996   0.941  3.1094 -0.9119 -1.8591
  620SOL     MW 2480   2.291   1.084   0.932  0.5721  0.0996 -0.1012
  621SOL     OW 2481   1.479   2.121   2.005  0.3931 -0.1655  0.1436
  621SOL    HW1 2482   1.418   2.052   1.994  1.3980  1.2943 -0.7904
  621SOL    HW2 2483   1.549   2.078   2.045 -0.2550 -0.1886  0.7433
  621SOL     MW 2484   1.480   2.107   2.009  0.4402  0.0241  0.0995
  622SOL     OW 2485   2.619   0.139   0.213  0.3963 -0.6238  0.4214
  622SOL    HW1 2486   2.718   0.142   0.210  0.7106  0.9326  3.2183
  622SOL    HW2 2487   2.596   0.049   0.173 -0.9431  1.1282  0.6455
  622SOL     MW 2488   2.629   0.128   0.207  0.2611 -0.1873  0.8200
  623SOL     OW 2489   2.351   2.755   0.868 -0.0284 -0.7392  0.6898
  623SOL    HW1 2490   2.411   2.827   0.864 -0.6653 -0.4644  0.2983
  623SOL    HW2 2491   2.290   2.778   0.937 -2.0843 -0.4472 -1.4582
  623SOL     MW 2492   2.351   2.768   0.877 -0.3837 -0.6644  0.3547
  624SOL     OW 2493   2.253   1.656   3.045  0.3788 -0.0175  0.0437
  624SOL    HW1 2494   2.180   1.622   3.088 -0.4775  0.7795 -0.7522
  624SOL    HW2 2495   2.228   1.746   3.030  0.4103 -0.3935  1.5657
  624SOL     MW 2496   2.240   1.664   3.049  0.2700  0.0381  0.1395
  625SOL     OW 2497   2.129   1.940   1.055 -0.5828  0.6575  0.0880
  625SOL    HW1 2498   2.172   1.898   1.126 -0.0168  2.1261 -1.0989
  625SOL    HW2 2499   2.157   1.893   0.977  0.8080 -0.8400  1.0954
  625SOL     MW 2500   2.139   1.928   1.054 -0.3246  0.6536  0.0643
  626SOL     OW 2501   0.164   1.552   2.353  0.5366  0.4823 -0.9546
  626SOL    HW1 2502   0.163   1.456   2.349  0.8639  3.0902  4.0915
  626SOL    HW2 2503   0.127   1.574   2.437 -0.8253  0.8965 -1.2542
  626SOL     MW 2504   0.159   1.542   2.363  0.4001  0.8810 -0.3283
  627SOL     OW 2505   2.462   0.819   2.582  0.5063  0.4164  0.2676
  627SOL    HW1 2506   2.406   0.896   2.553  0.3324  0.4951  0.6329
  627SOL    HW2 2507   2.420   0.749   2.530  1.4778 -3.0609  4.8404
  627SOL     MW 2508   2.449   0.820   2.571  0.6116 -0.0320  0.9191
  628SOL     OW 2509   2.265   1.364   1.354 -0.7832  0.3190  0.0234
  628SOL    HW1 2510   2.247   1.316   1.278  0.5386  2.8265  1.0409
  628SOL    HW2 2511   2.361   1.363   1.364  0.6146 -1.4718 -0.0946
  628SOL     MW 2512   2.275   1.358   1.345 -0.4244  0.4136  0.1421
  629SOL     OW 2513   2.006   0.544   1.224  0.3404  0.1948  0.2750
  629SOL    HW1 2514   2.057   0.631   1.224 -0.8600  1.5372  0.5552
  629SOL    HW2 2515   1.914   0.569   1.236  0.6333 -0.1595 -1.4462
  629SOL     MW 2516   2.000   0.559   1.225  0.2207  0.3252  0.0848
  630SOL     OW 2517   2.520   1.809   3.041 -0.5684 -0.1681 -0.8552
  630SOL    HW1 2518   2.470   1.869   2.994 -0.2814  1.5075 -0.9504
  630SOL    HW2 2519   2.462   1.742   3.062  0.1530  0.8754 -0.3198
  630SOL     MW 2520   2.506   1.808   3.038 -0.4354  0.1907 -0.7971
  631SOL     OW 2521   1.972   1.800   1.576  0.2983  0.2207 -0.4653
  631SOL    HW1 2522   2.011   1.711   1.595 -3.0853 -1.2731  1.6977
  631SOL    HW2 2523   1.939   1.780   1.485 -0.6893  1.6397 -2.2838
  631SOL     MW 2524   1.973   1.786   1.566 -0.2784  0.2109 -0.4199
  632SOL     OW 2525   0.138   2.089   1.548 -0.2798 -0.0365 -0.9534
  632SOL    HW1 2526   0.082   2.073   1.626 -1.0035 -0.7607  2.7479
  632SOL    HW2 2527   0.166   2.004   1.503  2.0309  2.7596 -0.3399
  632SOL     MW 2528   0.134   2.076   1.552 -0.0704  0.2369 -0.3841
  633SOL     OW 2529   2.422   0.677   0.353 -0.1449 -0.4124 -0.1250
  633SOL    HW1 2530   2.474   0.670   0.431 -1.9392 -0.2856  2.4555
  633SOL    HW2 2531   2.357   0.608   0.374  1.1043 -0.9365  0.3337
  633SOL     MW 2532   2.421   0.667   0.366 -0.2169 -0.4648  0.2760
  634SOL     OW 2533   2.651   3.089   0.655  0.1909  0.2109  0.6206
  634SOL    HW1 2534   2.682   3.178   0.658  1.7567 -0.5448  0.2550
  634SOL    HW2 2535   2.615   3.070   0.565 -1.4561  1.6665 -1.8342
  634SOL     MW 2536   2.650   3.098   0.643  0.1802  0.3032  0.2485
  635SOL     OW 2537   2.585   0.096   1.800 -0.0613 -0.9539  0.1720
  635SOL    HW1 2538   2.663   0.059   1.755  2.6604  1.8649  1.0915
  635SOL    HW2 2539   2.604   0.187   1.821  0.8356 -1.6222 -0.1051
  635SOL     MW 2540   2.598   0.103   1.797  0.4161 -0.6702  0.2568
  636SOL     OW 2541   2.942   1.666   0.963 -0.7681  0.4028  0.0736
  636SOL    HW1 2542   2.864   1.698   0.917 -1.8386  0.1216 -1.6384
  636SOL    HW2 2543   2.955   1.708   1.050  1.0588  3.9460 -0.4723
  636SOL     MW 2544   2.934   1.676   0.968 -0.6683  0.8332 -0.2243
  637SOL     OW 2545   2.880   1.490   0.680 -0.2634  0.2475 -0.2158
  637SOL    HW1 2546   2.954   1.542   0.711 -1.5122 -1.7621 -1.0074
  637SOL    HW2 2547   2.813   1.498   0.751 -1.3193  1.7238 -0.3581
  637SOL     MW 2548   2.881   1.498   0.693 -0.5675  0.1772 -0.3390
  638SOL     OW 2549   2.656   0.643   0.508  0.4098 -0.3363  0.1994
  638SOL    HW1 2550   2.734   0.651   0.459  0.9416 -1.7756  2.5378
  638SOL    HW2 2551   2.677   0.587   0.581 -0.9302  1.6452  0.7805
  638SOL     MW 2552   2.669   0.636   0.511  0.3032 -0.2648  0.5846
  639SOL     OW 2553   1.840   0.024   0.539 -0.0490  0.6277 -0.6941
  639SOL    HW1 2554   1.754   0.063   0.542  1.7347 -0.9574 -1.0648
  639SOL    HW2 2555   1.820  -0.045   0.475  0.3037 -1.0486  0.8814
  639SOL     MW 2556   1.826   0.020   0.531  0.2329  0.1974 -0.5352
  640SOL     OW 2557   0.349   1.359   0.068 -0.6931 -0.3365 -0.2667
  640SOL    HW1 2558   0.367   1.380  -0.028 -1.2300 -0.6111 -2.2604
  640SOL    HW2 2559   0.310   1.273   0.066  2.4361  0.7054 -1.0477
  640SOL     MW 2560   0.346   1.351   0.055 -0.3511 -0.2352 -0.6328
  641SOL     OW 2561   2.260   0.454   0.381  0.5251  0.2547 -0.0104
  641SOL    HW1 2562   2.283   0.427   0.292 -0.0363 -0.0927  0.4019
  641SOL    HW2 2563   2.320   0.406   0.433  0.1890 -1.2486 -0.5210
  641SOL     MW 2564   2.271   0.444   0.376  0.4067  0.0105 -0.0234
  642SOL     OW 2565   0.014   3.084   0.562  0.5022 -0.1922  0.1344
  642SOL    HW1 2566  -0.021   3.172   0.537  3.6870  0.1526 -2.6841
  642SOL    HW2 2567  -0.066   3.041   0.599 -1.5055  1.5339  2.1803
  642SOL     MW 2568  -0.001   3.090   0.563  0.6575  0.0810  0.0325
  643SOL     OW 2569   2.021   0.346   1.679  0.0582 -0.0575  0.7374
  643SOL    HW1 2570   2.089   0.305   1.732  0.4773 -1.0835 -0.9754
  643SOL    HW2 2571   2.009   0.295   1.597 -0.2756 -0.5716  1.9368
  643SOL     MW 2572   2.028   0.334   1.675  0.0694 -0.2607  0.6696
  644SOL     OW 2573   2.714   1.873   1.026 -0.3091  0.6086  0.5032
  644SOL    HW1 2574   2.660   1.850   1.106 -1.4801 -0.2286  1.7613
  644SOL    HW2 2575   2.653   1.908   0.963  2.8156 -0.7854  0.1200
  644SOL     MW 2576   2.699   1.874   1.028 -0.0513  0.3142  0.6186
  645SOL     OW 2577   2.823   0.892   0.649  0.2767  0.0358  0.1580
  645SOL    HW1 2578   2.889   0.848   0.698 -1.0364 -1.6493  0.3978
  645SOL    HW2 2579   2.740   0.853   0.664  1.2552 -0.2457 -0.2076
  645SOL     MW 2580   2.821   0.881   0.657  0.2325 -0.2237  0.1414
  646SOL     OW 2581   0.182   2.251   0.854  0.2358  0.2245  0.5922
  646SOL    HW1 2582   0.192   2.154   0.848 -4.0476 -0.9895  0.3831
  646SOL    HW2 2583   0.119   2.270   0.777  1.4676 -1.0757  0.1871
  646SOL     MW 2584   0.175   2.241   0.843 -0.1668 -0.1072  0.5112
  647SOL     OW 2585   2.708   0.538   2.975 -0.4692 -0.3517 -0.0780
  647SOL    HW1 2586   2.638   0.476   3.003 -4.1300  0.4057  0.5469
  647SOL    HW2 2587   2.669   0.620   2.987  0.6570 -2.1599  0.2514
  647SOL     MW 2588   2.694   0.541   2.980 -0.8036 -0.4903  0.0479
  648SOL     OW 2589   2.191   0.724   1.163 -0.5566  0.0152 -0.1610
  648SOL    HW1 2590   2.211   0.760   1.079 -1.3163 -1.8816  0.8604
  648SOL    HW2 2591   2.226   0.783   1.230  0.1178 -1.3188  0.5683
  648SOL     MW 2592   2.198   0.737   1.161 -0.5679 -0.4111  0.0700
  649SOL     OW 2593   2.394   2.729   1.259  0.4078 -0.0767  0.1764
  649SOL    HW1 2594   2.470   2.788   1.247 -1.7578  0.8913  0.9252
  649SOL    HW2 2595   2.394   2.669   1.185 -1.7440  1.6965  0.6249
  649SOL     MW 2596   2.404   2.729   1.248 -0.1618  0.2850  0.3344
  650SOL     OW 2597   2.811   0.238   0.653  0.1206 -0.1480  0.4622
  650SOL    HW1 2598   2.828   0.299   0.725  0.3156  1.2315  0.7863
  650SOL    HW2 2599   2.891   0.249   0.597  0.3676 -0.4446  1.2813
  650SOL     MW 2600   2.824   0.248   0.655  0.1789 -0.0051  0.6131
  651SOL     OW 2601   2.999   0.361   0.841  0.1087  0.3956 -0.0607
  651SOL    HW1 2602   3.073   0.417   0.799 -2.1589  2.2808  0.6027
  651SOL    HW2 2603   2.974   0.427   0.908 -1.2869 -1.2401 -0.7611
  651SOL     MW 2604   3.006   0.377   0.844 -0.3746  0.4285 -0.0656
  652SOL     OW 2605   2.388   1.401   2.969  0.3211  0.2183 -0.1398
  652SOL    HW1 2606   2.466   1.425   2.918 -1.0965 -1.0167  2.2822
  652SOL    HW2 2607   2.356   1.490   2.997  1.3427  0.0224 -0.9694
  652SOL     MW 2608   2.394   1.416   2.966  0.2688  0.0295  0.0703
  653SOL     OW 2609   1.956   0.425   0.347 -0.0300  0.1380 -0.6455
  653SOL    HW1 2610   1.939   0.360   0.280 -3.8280 -1.0628  1.4524
  653SOL    HW2 2611   2.047   0.423   0.368 -1.4945 -0.8013  1.1308
  653SOL     MW 2612   1.966   0.416   0.341 -0.7243 -0.1443 -0.1344
  654SOL     OW 2613   2.469   1.042   0.720 -0.0711 -0.0461  0.6680
  654SOL    HW1 2614   2.383   1.019   0.687 -0.5785  1.3975  0.0828
  654SOL    HW2 2615   2.498   0.968   0.772  2.0059  0.8268 -0.0880
  654SOL     MW 2616   2.461   1.029   0.722  0.1360  0.2595  0.4911
  655SOL     OW 2617   3.010   0.923   0.419 -0.0863 -0.0850 -0.1332
  655SOL    HW1 2618   2.955   0.955   0.492 -3.5455 -0.6686 -2.2354
  655SOL    HW2 2619   2.982   0.827   0.414 -1.4100 -1.6304  0.4795
  655SOL     MW 2620   2.999   0.915   0.428 -0.7174 -0.3659 -0.3298
  656SOL     OW 2621   1.951   2.737   1.225  0.0820 -0.7692 -0.3578
  656SOL    HW1 2622   1.934   2.805   1.284  3.8235 -2.7459  2.7560
  656SOL    HW2 2623   1.981   2.670   1.281 -1.5249  0.4152 -1.7506
  656SOL     MW 2624   1.953   2.737   1.240  0.3636 -0.8737 -0.1308
  657SOL     OW 2625   0.237   1.526   1.236 -0.2899  0.1543 -0.1785
  657SOL    HW1 2626   0.153   1.480   1.259 -0.9415 -0.7677 -1.2318
  657SOL    HW2 2627   0.245   1.527   1.141 -0.9978  0.0254  0.4665
  657SOL     MW 2628   0.227   1.520   1.227 -0.4693  0.0157 -0.2323
  658SOL     OW 2629   2.705   1.397   0.251  0.4227  0.0319  0.0968
  658SOL    HW1 2630   2.649   1.329   0.282 -0.0308  0.2572  0.4596
  658SOL    HW2 2631   2.746   1.450   0.319  1.3008  1.5071 -0.3030
  658SOL     MW 2632   2.703   1.395   0.264  0.4787  0.2563  0.0919
  659SOL     OW 2633   2.278   1.549   1.043  0.5960 -0.2690  0.4060
  659SOL    HW1 2634   2.359   1.518   1.077 -5.4298 -1.1791  0.5688
  659SOL    HW2 2635   2.236   1.565   1.128  1.1083  1.2231  2.0881
  659SOL     MW 2636   2.283   1.547   1.059 -0.1315 -0.1922  0.6494
  660SOL     OW 2637   2.060   1.560   1.680  0.3917  0.2993 -0.0285
  660SOL    HW1 2638   2.051   1.588   1.777  2.0723  0.2521 -0.5319
  660SOL    HW2 2639   2.008   1.482   1.680  1.0825  2.0337 -0.9827
  660SOL     MW 2640   2.052   1.554   1.693  0.7046  0.5219 -0.2208
  661SOL     OW 2641   2.385   1.100   0.178  0.6603  0.7136 -0.2833
  661SOL    HW1 2642   2.427   1.139   0.254  0.5449  2.7867  0.9262
  661SOL    HW2 2643   2.348   1.011   0.200  2.1902  0.3662  0.9093
  661SOL     MW 2644   2.386   1.093   0.191  0.8469  0.9413  0.0337
  662SOL     OW 2645   2.518   2.975   0.868  0.0026 -0.0775  0.0772
  662SOL    HW1 2646   2.463   3.041   0.913  2.0664 -1.6676  1.3465
  662SOL    HW2 2647   2.550   3.019   0.790  0.0878  0.6452 -0.1952
  662SOL     MW 2648   2.515   2.989   0.864  0.2861 -0.1919  0.2087
  663SOL     OW 2649   2.803   1.569   0.427 -0.1347 -0.5288 -0.1786
  663SOL    HW1 2650   2.871   1.630   0.393 -1.5565  0.1311  0.8095
  663SOL    HW2 2651   2.831   1.535   0.508  0.0346  2.0512 -1.1362
  663SOL     MW 2652   2.815   1.573   0.433 -0.3000 -0.1014 -0.1746
  664SOL     OW 2653   2.494   1.596   1.542 -0.2417  0.2800 -0.2294
  664SOL    HW1 2654   2.480   1.687   1.569  1.6450 -1.3486 -0.3511
  664SOL    HW2 2655   2.427   1.552   1.590  0.0140 -0.3625 -0.3237
  664SOL     MW 2656   2.484   1.602   1.552  0.0410 -0.0196 -0.2579
  665SOL     OW 2657   2.875   0.800   2.049  0.1989  0.0128  0.1337
  665SOL    HW1 2658   2.881   0.875   1.996  0.9596 -0.5425  1.8432
  665SOL    HW2 2659   2.942   0.742   2.015  1.5020 -0.8851  0.4227
  665SOL     MW 2660   2.885   0.802   2.038  0.4712 -0.1789  0.3974
  666SOL     OW 2661   2.793   3.028   1.683 -0.1806  0.2479 -0.0693
  666SOL    HW1 2662   2.824   3.049   1.592  0.4656 -1.1934  0.1990
  666SOL    HW2 2663   2.775   2.932   1.686 -0.2719 -2.3959  0.5799
  666SOL     MW 2664   2.794   3.018   1.671 -0.1074 -0.2911  0.0518
  667SOL     OW 2665   1.966   2.719   1.612  0.2314 -0.2191  0.1060
  667SOL    HW1 2666   1.949   2.661   1.687  0.9623  0.4771 -0.0478
  667SOL    HW2 2667   2.057   2.753   1.630 -1.9573  0.5985  0.2702
  667SOL     MW 2668   1.976   2.715   1.624  0.0390 -0.0194  0.1074
  668SOL     OW 2669   2.738   0.622   0.775  0.1967 -0.2003 -0.4859
  668SOL    HW1 2670   2.817   0.619   0.830 -1.9887  0.3988 -0.4919
  668SOL    HW2 2671   2.668   0.670   0.825  1.2226 -1.9216 -2.8676
  668SOL     MW 2672   2.739   0.628   0.789  0.0438 -0.3483 -0.8009
  669SOL     OW 2673   0.175   0.900   0.726  0.1988  0.6329 -0.4277
  669SOL    HW1 2674   0.148   0.991   0.719  0.5892  0.8071  0.4954
  669SOL    HW2 2675   0.276   0.906   0.748  0.3261  0.9595  0.1327
  669SOL     MW 2676   0.185   0.913   0.728  0.2671  0.6990 -0.2320
  670SOL     OW 2677   2.941   0.287   0.198  0.1522 -0.0756 -0.4434
  670SOL    HW1 2678   2.939   0.225   0.120 -1.1429  0.2604 -2.6567
  670SOL    HW2 2679   2.938   0.378   0.156  1.3618  1.3494  0.2466
  670SOL     MW 2680   2.940   0.291   0.182  0.1409  0.1568 -0.6443
  671SOL     OW 2681   2.164   3.087   1.605 -0.3570 -0.2836 -0.0352
  671SOL    HW1 2682   2.156   3.165   1.549  2.3635 -0.5571  3.9135
  671SOL    HW2 2683   2.074   3.095   1.650  0.0094  0.1601 -1.3233
  671SOL     MW 2684   2.151   3.098   1.604  0.0503 -0.2612  0.3158
  672SOL     OW 2685   1.865   1.702   1.340  0.1013  0.2971 -0.2636
  672SOL    HW1 2686   1.779   1.732   1.366 -3.4119  1.0807  2.6567
  672SOL    HW2 2687   1.877   1.767   1.273 -0.6206 -1.5188  1.1426
  672SOL     MW 2688   1.855   1.715   1.335 -0.4575  0.1609  0.3072
  673SOL     OW 2689   2.779   1.108   0.493 -0.8646  0.1146  0.3704
  673SOL    HW1 2690   2.788   1.019   0.535  1.3257  1.0996  1.3045
  673SOL    HW2 2691   2.864   1.165   0.507  1.4740  1.3132 -2.0394
  673SOL     MW 2692   2.791   1.104   0.500 -0.2670  0.4027  0.1757
  674SOL     OW 2693   2.486   0.080   1.279 -0.3696  0.2375 -0.6092
  674SOL    HW1 2694   2.430   0.068   1.201  0.6545  1.0158  2.4450
  674SOL    HW2 2695   2.529  -0.006   1.305  0.1119  0.8106 -0.0786
  674SOL     MW 2696   2.485   0.067   1.272 -0.1709  0.4158 -0.1362
  675SOL     OW 2697   2.989   1.042   1.119  0.3733 -0.4111 -0.0090
  675SOL    HW1 2698   3.044   0.998   1.186  0.5324  2.7634 -1.2655
  675SOL    HW2 2699   3.017   1.008   1.033  2.6943 -0.3531  0.8956
  675SOL     MW 2700   3.000   1.032   1.117  0.7005  0.0154 -0.0554
  676SOL     OW 2701   2.791   1.494   1.614  0.5011  0.3880 -0.4562
  676SOL    HW1 2702   2.769   1.407   1.608 -0.8619  2.7236 -0.9782
  676SOL    HW2 2703   2.856   1.493   1.688 -2.5352 -0.7915 -0.2730
  676SOL     MW 2704   2.797   1.483   1.623 -0.0794  0.5405 -0.5009
  677SOL     OW 2705   2.426   0.811   1.887 -0.1841 -0.0887 -0.1331
  677SOL    HW1 2706   2.365   0.748   1.857 -1.0585 -2.0980  1.8942
  677SOL    HW2 2707   2.388   0.847   1.963 -1.2161 -1.7966  1.8856
  677SOL     MW 2708   2.413   0.807   1.893 -0.4357 -0.5792  0.4007
  678SOL     OW 2709   2.546   1.594   0.459  0.5623 -0.1239  0.2965
  678SOL    HW1 2710   2.499   1.650   0.401  1.1786  0.3323 -2.5128
  678SOL    HW2 2711   2.634   1.628   0.457  0.7521  3.1435  0.9586
  678SOL     MW 2712   2.551   1.606   0.451  0.6687  0.3674  0.0132
  679SOL     OW 2713   2.361   0.487   1.094 -0.1660  0.2050 -0.1652
  679SOL    HW1 2714   2.301   0.442   1.156 -0.2823 -0.7253  1.4753
  679SOL    HW2 2715   2.313   0.568   1.087 -0.5896  0.4893 -1.3880
  679SOL     MW 2716   2.346   0.492   1.102 -0.2372  0.1198 -0.1101
  680SOL     OW 2717   2.385   0.265   1.450 -0.2988  0.0314  0.2046
  680SOL    HW1 2718   2.358   0.211   1.531  0.1954 -4.0225  0.4072
  680SOL    HW2 2719   2.429   0.197   1.396 -3.3203 -2.8359  3.0036
  680SOL     MW 2720   2.387   0.249   1.453 -0.6323 -0.8818  0.6006
  681SOL     OW 2721   0.291   0.541   1.580  0.1865  0.0494  0.5097
  681SOL    HW1 2722   0.283   0.466   1.636 -0.3624 -0.8754 -0.5284
  681SOL    HW2 2723   0.381   0.562   1.584 -2.4116  0.6323 -1.6178
  681SOL     MW 2724   0.302   0.534   1.588 -0.2287  0.0043  0.0920
  682SOL     OW 2725   0.152   2.993   1.501 -0.5118 -0.0590  0.1999
  682SOL    HW1 2726   0.178   3.075   1.453  2.8075 -0.2803 -3.4542
  682SOL    HW2 2727   0.078   3.013   1.566 -0.6699 -1.5089  1.1458
  682SOL     MW 2728   0.145   3.006   1.503 -0.0947 -0.2795 -0.1574
  683SOL     OW 2729   2.047   0.818   3.000  0.5854 -0.4009  0.1440
  683SOL    HW1 2730   1.959   0.792   2.978  0.0279  0.1125  2.2989
  683SOL    HW2 2731   2.039   0.905   3.035  0.9882  0.4610  1.5273
  683SOL     MW 2732   2.035   0.826   3.002  0.5650 -0.2195  0.6109
  684SOL     OW 2733   2.162   1.763   0.849  0.1903  0.3461  0.2941
  684SOL    HW1 2734   2.065   1.749   0.855  1.9674 -0.5434 -3.0923
  684SOL    HW2 2735   2.203   1.679   0.885 -0.9101 -1.0949 -2.1475
  684SOL     MW 2736   2.155   1.750   0.854  0.2796  0.0386 -0.4748
  685SOL     OW 2737   2.567   1.732   1.218 -0.0551  0.0150  0.3005
  685SOL    HW1 2738   2.615   1.726   1.298 -1.5837  1.8561 -0.5649
  685SOL    HW2 2739   2.575   1.646   1.181  0.2471  0.9683 -1.4793
  685SOL     MW 2740   2.575   1.720   1.224 -0.2169  0.3837 -0.0485
  686SOL     OW 2741   2.897   0.708   1.493 -0.2583  0.4422 -0.0860
  686SOL    HW1 2742   2.887   0.648   1.569 -2.7306 -0.4330  1.3086
  686SOL    HW2 2743   2.990   0.743   1.488  0.4448 -2.1671 -0.8237
  686SOL     MW 2744   2.908   0.705   1.503 -0.4918 -0.0175  0.0007
  687SOL     OW 2745   2.170   0.321   1.206 -0.4185 -0.3126  0.1997
  687SOL    HW1 2746   2.178   0.294   1.113  3.5324 -0.9054 -1.0947
  687SOL    HW2 2747   2.115   0.402   1.203  1.5082  0.0916 -1.7623
  687SOL     MW 2748   2.164   0.328   1.194  0.3570 -0.3375 -0.2300
  688SOL     OW 2749   2.363   0.555   1.441  0.7406 -0.2809  0.7100
  688SOL    HW1 2750   2.416   0.537   1.519  1.7989 -0.4996  0.8153
  688SOL    HW2 2751   2.369   0.469   1.404  2.6763  1.9211  0.3570
  688SOL     MW 2752   2.371   0.541   1.447  1.1356 -0.0193  0.6773
  689SOL     OW 2753   2.588   0.779   2.990 -0.0968 -0.4584 -0.3216
  689SOL    HW1 2754   2.592   0.860   2.935  2.3094  0.9295  2.0917
  689SOL    HW2 2755   2.593   0.806   3.088  0.0904  1.2014  0.3164
  689SOL     MW 2756   2.589   0.793   2.996  0.2454 -0.0563  0.0810
  690SOL     OW 2757   2.077   0.982   1.967  0.7428 -0.9861 -0.1433
  690SOL    HW1 2758   2.032   0.894   1.974  1.4198 -0.3648  0.7005
  690SOL    HW2 2759   2.104   0.988   1.871 -0.3832 -1.0559 -3.0753
  690SOL     MW 2760   2.075   0.971   1.955  0.6836 -0.9133 -0.4188
  691SOL     OW 2761   2.464   0.244   0.826 -0.1771 -0.3208  0.1626
  691SOL    HW1 2762   2.545   0.287   0.859 -0.3891 -0.1681 -1.1576
  691SOL    HW2 2763   2.390   0.316   0.832 -1.6476  1.9209 -1.4227
  691SOL     MW 2764   2.465   0.259   0.831 -0.3991 -0.0049 -0.2208
  692SOL     OW 2765   2.794   1.702   1.389  0.5989  0.2118  0.5670
  692SOL    HW1 2766   2.765   1.647   1.461 -0.3273  3.8808  0.2371
  692SOL    HW2 2767   2.845   1.775   1.420 -1.7970 -3.3765 -0.8594
  692SOL     MW 2768   2.797   1.705   1.402  0.1606  0.2224  0.3352
  693SOL     OW 2769   2.267   0.444   0.096  0.2009  0.4080 -0.2111
  693SOL    HW1 2770   2.196   0.402   0.058  4.0050  3.3493  2.4670
  693SOL    HW2 2771   2.281   0.527   0.048  0.1188  0.8196 -2.8427
  693SOL     MW 2772   2.260   0.450   0.084  0.6920  0.8504 -0.2050
  694SOL     OW 2773   1.971   1.266   1.148 -0.2513 -0.4896 -0.4676
  694SOL    HW1 2774   2.064   1.256   1.167 -0.3584  0.0184 -1.1416
  694SOL    HW2 2775   1.929   1.187   1.183 -2.1602 -1.4767 -1.6215
  694SOL     MW 2776   1.977   1.254   1.155 -0.5173 -0.5528 -0.7088
  695SOL     OW 2777   2.951   1.459   1.302 -0.0831 -0.5794 -0.3600
  695SOL    HW1 2778   2.936   1.452   1.204 -1.0206  2.6943 -2.9092
  695SOL    HW2 2779   2.889   1.528   1.327  0.8266  1.0822  2.0112
  695SOL     MW 2780   2.940   1.467   1.292 -0.0868  0.0718 -0.3835
  696SOL     OW 2781   2.063   1.396   0.910  0.7831 -0.0138 -0.3398
  696SOL    HW1 2782   2.129   1.443   0.959 -1.1051  1.2012  1.0621
  696SOL    HW2 2783   2.040   1.331   0.977 -2.9211 -3.8480 -1.1904
  696SOL     MW 2784   2.069   1.394   0.926  0.0452 -0.3594 -0.2670
  697SOL     OW 2785   2.863   0.982   2.273  0.2884  0.7324 -0.4523
  697SOL    HW1 2786   2.828   1.063   2.223  0.7489  1.6649  1.1877
  697SOL    HW2 2787   2.841   0.903   2.221 -0.4194  1.1835 -1.1724
  697SOL     MW 2788   2.855   0.982   2.259  0.2558  0.9149 -0.3309
  698SOL     OW 2789   2.534   0.339   0.032 -0.2723  0.3282 -0.0089
  698SOL    HW1 2790   2.462   0.378   0.076  0.9532  2.2592 -0.2489
  698SOL    HW2 2791   2.558   0.268   0.091  1.0252 -2.7390  0.3912
  698SOL     MW 2792   2.528   0.335   0.046  0.0606  0.1783  0.0122
  699SOL     OW 2793   1.847   1.620   2.070  0.7007  0.0117  0.0324
  699SOL    HW1 2794   1.826   1.525   2.066  0.2792  2.2746 -1.4741
  699SOL    HW2 2795   1.936   1.631   2.033  0.3829 -0.3047 -0.3047
  699SOL     MW 2796   1.856   1.609   2.065  0.6032  0.2685 -0.2108
  700SOL     OW 2797   2.726   0.913   1.545 -0.3760 -0.3286  0.5468
  700SOL    HW1 2798   2.710   0.987   1.487  4.6750  0.5498  0.8359
  700SOL    HW2 2799   2.785   0.856   1.502 -2.7936  0.9723  0.8530
  700SOL     MW 2800   2.732   0.916   1.531 -0.0286 -0.0411  0.6254
  701SOL     OW 2801   1.674   1.288   2.626  0.0671  0.2029  0.3208
  701SOL    HW1 2802   1.767   1.313   2.638 -0.4671  1.3891  1.1222
  701SOL    HW2 2803   1.623   1.331   2.698  1.6556 -1.3950 -0.8729
  701SOL     MW 2804   1.679   1.297   2.637  0.2062  0.1485  0.2690
  702SOL     OW 2805   2.261   0.447   0.809 -0.1539 -0.2166 -0.1501
  702SOL    HW1 2806   2.208   0.375   0.763 -0.1176 -1.4244  1.4277
  702SOL    HW2 2807   2.283   0.519   0.745 -0.5420  0.4793 -0.8272
  702SOL     MW 2808   2.257   0.447   0.794 -0.2003 -0.2841 -0.0312
  703SOL     OW 2809   2.650   1.284   0.967  0.3641 -0.0643 -0.0065
  703SOL    HW1 2810   2.670   1.268   0.875  1.4038 -0.2326  1.8826
  703SOL    HW2 2811   2.653   1.193   1.006 -2.0562 -4.0161 -2.7663
  703SOL     MW 2812   2.653   1.270   0.960  0.1819 -0.6079 -0.1214
  704SOL     OW 2813   0.023   1.309   0.252 -0.3130  0.1538  0.1884
  704SOL    HW1 2814  -0.061   1.294   0.208  0.7747  4.7576 -0.4727
  704SOL    HW2 2815   0.072   1.229   0.257  2.6754  0.8433  0.1324
  704SOL     MW 2816   0.019   1.296   0.247  0.2248  0.8522  0.0938
  705SOL     OW 2817   2.148   1.580   1.284  0.0669 -0.0607 -0.5425
  705SOL    HW1 2818   2.073   1.594   1.335 -0.5857  2.4008 -1.7485
  705SOL    HW2 2819   2.205   1.502   1.322 -0.1321 -0.5903 -3.2198
  705SOL     MW 2820   2.146   1.572   1.296 -0.0455  0.1942 -1.0549
  706SOL     OW 2821   3.001   1.241   0.593  0.5265  0.0284  0.2618
  706SOL    HW1 2822   3.090   1.241   0.563 -1.0770  0.5183  0.5859
  706SOL    HW2 2823   2.969   1.328   0.608 -1.0623 -1.8151 -0.2647
  706SOL     MW 2824   3.009   1.253   0.591  0.1053 -0.1502  0.2351
  707SOL     OW 2825   2.387   0.062   1.015  0.0596 -0.2953 -0.6097
  707SOL    HW1 2826   2.407   0.132   0.954  0.4781 -0.8854 -1.6004
  707SOL    HW2 2827   2.292   0.060   1.002  0.7406  1.8374  0.6558
  707SOL     MW 2828   2.377   0.071   1.005  0.2047 -0.0918 -0.5735
  708SOL     OW 2829   2.535   1.540   0.081  0.3684  1.0300  0.4021
  708SOL    HW1 2830   2.562   1.516   0.167 -3.2628  2.5942 -1.0341
  708SOL    HW2 2831   2.507   1.455   0.041  0.1033 -0.2584 -0.2593
  708SOL     MW 2832   2.535   1.525   0.087 -0.1457  1.0664  0.1254
  709SOL     OW 2833   1.690   1.781   0.094 -0.2605  0.9210 -0.5757
  709SOL    HW1 2834   1.637   1.838   0.046  0.7914 -1.1199  2.0712
  709SOL    HW2 2835   1.653   1.749   0.176 -0.5144  0.9241  0.5121
  709SOL     MW 2836   1.678   1.785   0.098 -0.1552  0.6521 -0.0829
  710SOL     OW 2837   2.229   1.171   1.181 -0.3939 -0.6754 -0.8652
  710SOL    HW1 2838   2.271   1.147   1.095 -1.9402 -0.6996  0.8351
  710SOL    HW2 2839   2.260   1.096   1.242  0.1552 -2.7355  0.2924
  710SOL     MW 2840   2.239   1.158   1.178 -0.5254 -0.9504 -0.4881
  711SOL     OW 2841   2.356   0.167   1.688 -0.3973  0.2558 -0.9888
  711SOL    HW1 2842   2.442   0.131   1.720 -2.1331 -1.0275  0.8050
  711SOL    HW2 2843   2.313   0.075   1.684  1.6611 -3.8484 -1.4618
  711SOL     MW 2844   2.361   0.150   1.692 -0.3547 -0.4550 -0.8145
  712SOL     OW 2845   1.624   0.586   3.041  0.4348  0.4000 -0.0427
  712SOL    HW1 2846   1.677   0.659   3.010 -1.2573 -0.6445  0.0710
  712SOL    HW2 2847   1.541   0.617   3.085  0.5718 -0.0344 -1.2182
  712SOL     MW 2848   1.620   0.600   3.042  0.2296  0.2049 -0.1828
  713SOL     OW 2849   2.586   0.806   1.149  0.0163  0.8071 -0.1506
  713SOL    HW1 2850   2.606   0.710   1.141  0.5523  0.0315  0.1102
  713SOL    HW2 2851   2.547   0.816   1.242 -1.6555  0.4722  0.1563
  713SOL     MW 2852   2.584   0.795   1.160 -0.1335  0.6606 -0.0757
  714SOL     OW 2853   2.257   0.149   1.977 -0.4572 -0.3259 -0.0464
  714SOL    HW1 2854   2.314   0.108   2.048  1.6531 -1.4016 -1.3135
  714SOL    HW2 2855   2.298   0.145   1.892 -1.6956 -0.7537 -0.4834
  714SOL     MW 2856   2.270   0.143   1.975 -0.3422 -0.5243 -0.2713
  715SOL     OW 2857   1.766   1.908   1.714 -0.1736 -0.2216  0.0851
  715SOL    HW1 2858   1.851   1.878   1.671  3.1956 -1.1236  0.7459
  715SOL    HW2 2859   1.737   1.837   1.777 -1.5474  1.7862  3.6167
  715SOL     MW 2860   1.774   1.894   1.717  0.0897 -0.0757  0.6383
  716SOL     OW 2861   2.350   0.647   0.669  0.7479 -0.4745  0.7798
  716SOL    HW1 2862   2.405   0.584   0.621  1.6834 -2.5644  0.7030
  716SOL    HW2 2863   2.278   0.661   0.604  1.0657 -0.7389  1.4026
  716SOL     MW 2864   2.347   0.641   0.654  0.9133 -0.7852  0.8518
  717SOL     OW 2865   2.824   1.452   2.949  0.2357  0.1680 -0.0061
  717SOL    HW1 2866   2.920   1.456   2.969 -0.2693 -1.6671  1.7821
  717SOL    HW2 2867   2.785   1.512   3.020  1.0432  1.2594  0.8963
  717SOL     MW 2868   2.832   1.461   2.961  0.2756  0.0699  0.3489
  718SOL     OW 2869   2.528   1.333   1.404  0.2891 -0.1373  0.1285
  718SOL    HW1 2870   2.567   1.405   1.454 -2.1257 -3.3030  0.9172
  718SOL    HW2 2871   2.589   1.258   1.408  0.9081 -0.2429 -1.3740
  718SOL     MW 2872   2.541   1.332   1.411  0.0522 -0.5689  0.0343
  719SOL     OW 2873   2.161   1.369   0.645 -0.2985 -0.6483  0.3580
  719SOL    HW1 2874   2.255   1.399   0.652 -0.1641  5.6946 -1.0476
  719SOL    HW2 2875   2.123   1.398   0.729  1.0270  2.2577  0.2757
  719SOL     MW 2876   2.169   1.376   0.657 -0.1059  0.5720  0.1617
  720SOL     OW 2877   2.890   1.220   0.135  0.2747 -0.0383 -0.0232
  720SOL    HW1 2878   2.871   1.129   0.164 -2.4383 -1.2793 -1.1650
  720SOL    HW2 2879   2.831   1.265   0.198 -0.9765  1.2786  3.1955
  720SOL     MW 2880   2.880   1.214   0.147 -0.2483 -0.0283  0.2508
  721SOL     OW 2881   2.498   0.803   1.418  0.3680  0.2215  0.0159
  721SOL    HW1 2882   2.492   0.711   1.395  1.0141  2.7220  2.2474
  721SOL    HW2 2883   2.579   0.810   1.468 -0.3356 -4.9810 -1.9544
  721SOL     MW 2884   2.508   0.792   1.421  0.3604 -0.1350  0.0504
  722SOL     OW 2885   2.542   1.202   0.375  0.0840 -0.7313 -0.1680
  722SOL    HW1 2886   2.512   1.256   0.443  0.9488 -1.3503 -1.5317
  722SOL    HW2 2887   2.630   1.182   0.411  0.8514  1.0573 -1.9297
  722SOL     MW 2888   2.550   1.206   0.389  0.2993 -0.5770 -0.5804
  723SOL     OW 2889   2.300   1.409   1.637 -0.2986 -0.6729  0.2916
  723SOL    HW1 2890   2.294   1.387   1.543 -1.1153 -0.2200 -0.7529
  723SOL    HW2 2891   2.217   1.453   1.653  1.9636  0.4234 -1.2604
  723SOL     MW 2892   2.288   1.412   1.626 -0.1079 -0.4685 -0.0510
  724SOL     OW 2893   2.455   0.382   0.552 -0.5172 -0.3209  0.1301
  724SOL    HW1 2894   2.452   0.340   0.635 -0.9871  0.4358 -0.6097
  724SOL    HW2 2895   2.534   0.344   0.512  0.4957  0.0938  0.4330
  724SOL     MW 2896   2.465   0.371   0.557 -0.4455 -0.1664  0.0725
  725SOL     OW 2897   2.620   0.535   1.141 -1.1125 -0.1465 -0.0074
  725SOL    HW1 2898   2.654   0.519   1.223 -1.2622 -1.1224  0.6071
  725SOL    HW2 2899   2.530   0.495   1.149 -2.4545  0.8590 -1.7430
  725SOL     MW 2900   2.612   0.528   1.153 -1.3093 -0.1426 -0.1553
  726SOL     OW 2901   2.577   2.419   0.523 -0.0603 -0.4070  0.5100
  726SOL    HW1 2902   2.523   2.454   0.449 -1.6783  2.3461  0.7216
  726SOL    HW2 2903   2.528   2.435   0.605 -2.8679  3.3148  0.6363
  726SOL     MW 2904   2.564   2.426   0.524 -0.6442  0.4473  0.5546
  727SOL     OW 2905   2.782   0.278   1.637  0.0957 -0.0596 -0.2480
  727SOL    HW1 2906   2.812   0.328   1.562 -1.4723 -0.8391  2.0278
  727SOL    HW2 2907   2.698   0.320   1.661 -1.2763 -1.1845  2.6063
  727SOL     MW 2908   2.775   0.290   1.630 -0.2922 -0.3108  0.4289
  728SOL     OW 2909   2.792   1.159   2.987 -0.2468  0.4715 -0.4341
  728SOL    HW1 2910   2.812   1.218   2.917 -1.7617  0.9221 -1.5657
  728SOL    HW2 2911   2.817   1.209   3.065 -0.0471  2.6906 -1.6327
  728SOL     MW 2912   2.798   1.173   2.988 -0.4203  0.8237 -0.7415
  729SOL     OW 2913   2.538   1.448   1.140  0.2882 -0.3998  0.5145
  729SOL    HW1 2914   2.546   1.419   1.227 -1.8134  1.3330 -1.1308
  729SOL    HW2 2915   2.552   1.381   1.074 -0.4876  0.2064 -0.6930
  729SOL     MW 2916   2.541   1.435   1.142 -0.0915 -0.0912  0.1381
  730SOL     OW 2917   2.136   1.171   0.251  0.1099 -0.1363  0.6879
  730SOL    HW1 2918   2.225   1.180   0.219  3.1558 -0.0829 -1.0344
  730SOL    HW2 2919   2.091   1.257   0.241 -0.0062 -0.0808  2.3199
  730SOL     MW 2920   2.142   1.184   0.246  0.4965 -0.1220  0.6760
  731SOL     OW 2921   2.830   1.829   2.917  0.3008  0.5746 -0.1340
  731SOL    HW1 2922   2.749   1.858   2.963  0.4952  2.6029  1.4558
  731SOL    HW2 2923   2.866   1.911   2.884 -1.7538 -0.4816  1.4563
  731SOL     MW 2924   2.824   1.843   2.918  0.0554  0.7028  0.2855
  732SOL     OW 2925   2.260   0.935   1.330  0.3726  0.0619 -1.1202
  732SOL    HW1 2926   2.177   0.928   1.380  1.8409 -1.3503  3.3359
  732SOL    HW2 2927   2.322   0.890   1.387  3.9838 -2.3361  0.5429
  732SOL     MW 2928   2.257   0.928   1.344  1.0428 -0.4408 -0.3128
  733SOL     OW 2929   2.331   2.847   3.038 -0.7277 -0.9252  0.0928
  733SOL    HW1 2930   2.260   2.910   3.023 -0.5353  0.4463  0.2710
  733SOL    HW2 2931   2.291   2.761   3.053  0.3336  0.9255  3.2322
  733SOL     MW 2932   2.316   2.844   3.038 -0.5623 -0.5000  0.5305
  734SOL     OW 2933   1.497   0.374   2.442  0.3326  0.0658 -0.1877
  734SOL    HW1 2934   1.427   0.352   2.497  1.8480  3.6262 -2.6323
  734SOL    HW2 2935   1.515   0.295   2.390 -2.2408 -0.0246 -0.8430
  734SOL     MW 2936   1.490   0.360   2.443  0.1930  0.5236 -0.5967
  735SOL     OW 2937   3.097   0.894   2.668  0.1650  0.5025 -0.2054
  735SOL    HW1 2938   3.044   0.817   2.645 -0.4438  2.3293 -0.2124
  735SOL    HW2 2939   3.048   0.938   2.737  1.1912  1.0401 -0.8030
  735SOL     MW 2940   3.083   0.890   2.674  0.2201  0.8145 -0.2851
  736SOL     OW 2941   0.047   0.596   2.498  0.4626 -0.1126 -0.2602
  736SOL    HW1 2942   0.089   0.649   2.426 -0.8313  1.1674 -0.6748
  736SOL    HW2 2943   0.014   0.511   2.459  0.7558 -2.1255 -0.6039
  736SOL     MW 2944   0.048   0.592   2.483  0.3305 -0.2093 -0.3602
  737SOL     OW 2945   2.899   0.704   2.546  0.4547  0.4144  0.8808
  737SOL    HW1 2946   2.829   0.667   2.488  1.2844 -1.3899  1.1906
  737SOL    HW2 2947   2.977   0.668   2.504  0.9020  3.4306  0.3576
  737SOL     MW 2948   2.900   0.694   2.533  0.6232  0.5743  0.8527
  738SOL     OW 2949   0.175   0.452   1.986  0.2922  0.4753  0.3095
  738SOL    HW1 2950   0.257   0.470   1.945 -1.6737 -0.0620 -1.8896
  738SOL    HW2 2951   0.141   0.402   1.918 -1.4778  0.2991  0.4798
  738SOL     MW 2952   0.181   0.448   1.972 -0.2007  0.3811  0.0418
  739SOL     OW 2953   2.539   0.986   2.141 -0.1963  0.0965  0.3555
  739SOL    HW1 2954   2.443   0.974   2.139 -2.3649  2.2118  2.8815
  739SOL    HW2 2955   2.571   1.011   2.056  1.3319 -0.7754  2.4643
  739SOL     MW 2956   2.530   0.988   2.129 -0.2808  0.2606  0.9670
  740SOL     OW 2957   0.188   1.685   2.973 -0.3561  0.2730  0.4711
  740SOL    HW1 2958   0.126   1.613   2.959 -1.0443  0.4688  0.0575
  740SOL    HW2 2959   0.251   1.633   3.021 -0.7803 -0.0269 -1.2358
  740SOL     MW 2960   0.188   1.669   2.978 -0.5029  0.2592  0.1914
  741SOL     OW 2961   2.210   1.207   2.741  0.4402 -0.0505 -0.0227
  741SOL    HW1 2962   2.229   1.299   2.707  2.8942  1.5351  0.7486
  741SOL    HW2 2963   2.169   1.203   2.827  0.5928 -3.5921 -1.6563
  741SOL     MW 2964   2.207   1.218   2.748  0.7841 -0.3086 -0.1365
  742SOL     OW 2965   1.678   1.355   2.344 -0.0273  0.0597 -0.7108
  742SOL    HW1 2966   1.622   1.280   2.327 -0.8759 -0.9322 -0.4698
  742SOL    HW2 2967   1.691   1.349   2.443 -0.5584 -0.1313  2.8527
  742SOL     MW 2968   1.672   1.344   2.355 -0.2094 -0.0963 -0.2088
  743SOL     OW 2969   2.505   1.218   2.709 -0.7491 -0.4958 -0.2541
  743SOL    HW1 2970   2.405   1.215   2.719 -4.4735  3.2201  0.1549
  743SOL    HW2 2971   2.529   1.133   2.744 -1.2059 -0.4800 -1.7698
  743SOL     MW 2972   2.495   1.207   2.715 -1.3008 -0.0034 -0.4001
  744SOL     OW 2973   2.759   0.915   1.811 -0.2758 -0.4509  0.5714
  744SOL    HW1 2974   2.705   0.987   1.838  0.0484  0.6752 -2.1034
  744SOL    HW2 2975   2.736   0.899   1.718  2.4004 -1.5692 -0.4650
  744SOL     MW 2976   2.749   0.923   1.802  0.1200 -0.4499  0.0818
  745SOL     OW 2977   1.756   0.467   2.483  0.2271  0.2106  0.2875
  745SOL    HW1 2978   1.787   0.478   2.391 -2.9181 -0.8572 -0.5672
  745SOL    HW2 2979   1.658   0.451   2.482  0.0001  2.0952  0.9174
  745SOL     MW 2980   1.747   0.466   2.471 -0.2178  0.3184  0.2578
  746SOL     OW 2981   1.569   1.493   1.682 -0.5900 -0.6368 -0.3740
  746SOL    HW1 2982   1.584   1.580   1.714 -0.3084 -0.4697 -0.4585
  746SOL    HW2 2983   1.555   1.450   1.769  1.3249 -0.3286 -1.1859
  746SOL     MW 2984   1.569   1.499   1.697 -0.3002 -0.5741 -0.4923
  747SOL     OW 2985   2.588   1.113   1.885 -0.3140 -0.2911  0.9453
  747SOL    HW1 2986   2.498   1.109   1.871  1.2979  0.9112  3.4586
  747SOL    HW2 2987   2.593   1.208   1.914  0.2162  0.6360 -0.7472
  747SOL     MW 2988   2.577   1.125   1.887 -0.0314 -0.0102  1.0536
  748SOL     OW 2989   0.109  -0.004   1.933 -0.0571  0.1821  0.0938
  748SOL    HW1 2990   0.186   0.024   1.884  1.2248  0.3594 -0.7087
  748SOL    HW2 2991   0.091   0.056   2.006  0.2083  1.2050 -1.5521
  748SOL     MW 2992   0.117   0.007   1.936  0.1470  0.3404 -0.2292
  749SOL     OW 2993   2.390   0.641   2.787 -0.6319 -0.3810  0.1707
  749SOL    HW1 2994   2.417   0.720   2.731 -0.0157  2.9021  0.4369
  749SOL    HW2 2995   2.450   0.645   2.858  3.1385 -1.1841  1.0531
  749SOL     MW 2996   2.401   0.652   2.789 -0.0531 -0.0538  0.3222
  750SOL     OW 2997   2.123   3.016   1.945  0.1178 -0.5366 -0.4730
  750SOL    HW1 2998   2.174   3.101   1.963  2.0507  0.6969  1.0224
  750SOL    HW2 2999   2.194   2.944   1.961 -2.6039 -0.7054  1.6717
  750SOL     MW 3000   2.139   3.017   1.949  0.0137 -0.3961  0.0072
  751SOL     OW 3001   3.060   0.346   2.432  0.5094 -0.0228 -0.4755
  751SOL    HW1 3002   2.983   0.352   2.374 -1.8065 -1.0843 -1.1478
  751SOL    HW2 3003   3.135   0.326   2.378 -1.2121  1.2637 -0.5298
  751SOL     MW 3004   3.060   0.344   2.417 -0.0233  0.0069 -0.5713
  752SOL     OW 3005   2.128   0.929   2.757 -0.2565  0.1350 -0.1975
  752SOL    HW1 3006   2.191   0.993   2.786 -0.1335 -2.0902 -0.3307
  752SOL    HW2 3007   2.101   0.890   2.842  0.5203  0.6700  1.2269
  752SOL     MW 3008   2.133   0.932   2.772 -0.1378 -0.0880 -0.0271
  753SOL     OW 3009   2.836   0.368   2.269 -0.2633  0.5975  0.3801
  753SOL    HW1 3010   2.786   0.293   2.296 -0.7919  0.0801  1.9232
  753SOL    HW2 3011   2.806   0.444   2.318  0.0434 -0.3548 -1.1955
  753SOL     MW 3012   2.826   0.368   2.279 -0.2926  0.4036  0.3758
  754SOL     OW 3013   2.297   2.957   2.626  0.1727 -0.1052  0.1586
  754SOL    HW1 3014   2.310   2.964   2.528  1.5469  0.6886  0.8856
  754SOL    HW2 3015   2.369   2.915   2.674 -0.6037 -0.6473  0.7798
  754SOL     MW 3016   2.308   2.953   2.619  0.2516 -0.0720  0.3364
  755SOL     OW 3017   2.786   1.596   2.454  0.2261 -0.0600 -0.0762
  755SOL    HW1 3018   2.749   1.509   2.440  2.8666  0.6239  0.0539
  755SOL    HW2 3019   2.815   1.598   2.545  1.0494 -1.6586  1.1629
  755SOL     MW 3020   2.785   1.585   2.464  0.6831 -0.1807  0.1045
  756SOL     OW 3021   2.163   1.271   3.017 -0.3567  0.1506 -0.3741
  756SOL    HW1 3022   2.250   1.313   2.981  0.0702 -0.1827  0.3979
  756SOL    HW2 3023   2.205   1.185   3.044  3.5922  1.1432 -0.9109
  756SOL     MW 3024   2.180   1.265   3.016  0.2207  0.2376 -0.3431
  757SOL     OW 3025   2.179   0.939   1.709  0.0164  0.5217 -0.3645
  757SOL    HW1 3026   2.162   0.845   1.732  1.3225  0.2586 -0.6338
  757SOL    HW2 3027   2.116   0.962   1.638 -2.6728  1.5663 -1.4410
  757SOL     MW 3028   2.168   0.930   1.702 -0.1661  0.6248 -0.5421
  758SOL     OW 3029   2.247   1.867   2.615  0.1487 -0.6734  0.5380
  758SOL    HW1 3030   2.253   1.881   2.524 -0.6312 -0.9640  0.8689
  758SOL    HW2 3031   2.317   1.806   2.642 -0.4635 -0.1132  1.1927
  758SOL     MW 3032   2.257   1.861   2.606 -0.0350 -0.6378  0.6681
  759SOL     OW 3033   1.535   1.450   2.785  0.2692  0.6569 -0.2320
  759SOL    HW1 3034   1.545   1.522   2.716  2.2040  0.5169  0.1124
  759SOL    HW2 3035   1.603   1.481   2.850  2.7779  1.3587  1.8035
  759SOL     MW 3036   1.545   1.464   2.785  0.8554  0.7310  0.0820
  760SOL     OW 3037   2.596   1.983   2.731  0.2932  0.0625 -0.1992
  760SOL    HW1 3038   2.558   1.900   2.705  0.0062  0.5618 -0.6819
  760SOL    HW2 3039   2.677   1.987   2.683  2.5863 -1.2919  0.0424
  760SOL     MW 3040   2.602   1.973   2.721  0.5579 -0.0504 -0.2310
  761SOL     OW 3041   2.193   0.460   2.468  0.4643 -0.8465  0.1248
  761SOL    HW1 3042   2.123   0.399   2.438 -0.4691 -0.2324  1.3547
  761SOL    HW2 3043   2.156   0.522   2.530 -1.6438 -1.3213  1.2461
  761SOL     MW 3044   2.179   0.460   2.472  0.0630 -0.8281  0.4350
  762SOL     OW 3045   0.021   0.177   2.113 -0.0062 -0.1606 -0.6475
  762SOL    HW1 3046  -0.027   0.133   2.181 -0.8557 -1.0592 -1.0743
  762SOL    HW2 3047  -0.044   0.238   2.076  1.3112  0.5572 -1.6212
  762SOL     MW 3048   0.006   0.179   2.117  0.0555 -0.1845 -0.8323
  763SOL     OW 3049   2.459   1.172   2.314 -0.2640 -0.2444 -0.2326
  763SOL    HW1 3050   2.514   1.099   2.274  0.5149 -3.9612 -0.3280
  763SOL    HW2 3051   2.521   1.218   2.366 -1.4482 -2.0036  0.7369
  763SOL     MW 3052   2.474   1.168   2.315 -0.3175 -0.9669 -0.1173
  764SOL     OW 3053   0.388   0.142   2.791  0.1497  0.7873  0.3831
  764SOL    HW1 3054   0.312   0.171   2.743 -1.4174 -0.7811 -1.0669
  764SOL    HW2 3055   0.403   0.220   2.842  2.4684  1.8828 -3.5959
  764SOL     MW 3056   0.380   0.156   2.791  0.2489  0.7249 -0.3332
  765SOL     OW 3057   2.686   0.118   2.291 -0.0057 -0.2348  0.1910
  765SOL    HW1 3058   2.666   0.076   2.207 -1.7521  2.2463 -1.0404
  765SOL    HW2 3059   2.722   0.039   2.338  1.9274 -0.5608 -0.5045
  765SOL     MW 3060   2.688   0.102   2.286  0.0189  0.0495 -0.0632
  766SOL     OW 3061   1.922   3.062   2.127 -0.3406 -0.2382 -0.7930
  766SOL    HW1 3062   1.990   3.072   2.058  0.9414 -0.3902 -0.8872
  766SOL    HW2 3063   1.849   3.026   2.075 -3.6997 -0.5244 -0.8799
  766SOL     MW 3064   1.921   3.059   2.111 -0.6146 -0.2960 -0.8169
  767SOL     OW 3065   2.640   0.641   1.948 -0.4091  0.2391  0.0091
  767SOL    HW1 3066   2.699   0.717   1.959 -0.3705  2.3227  0.5723
  767SOL    HW2 3067   2.557   0.690   1.923  0.0978 -0.3725  0.5974
  767SOL     MW 3068   2.637   0.658   1.946 -0.3371  0.4333  0.1611
  768SOL     OW 3069  -0.002   1.485   2.989 -0.1086 -0.3978 -0.0386
  768SOL    HW1 3070   0.013   1.518   3.080  0.1722 -0.6900 -2.9615
  768SOL    HW2 3071   0.037   1.394   2.989  3.4844 -1.1641  1.2609
  768SOL     MW 3072   0.005   1.477   3.001  0.4025 -0.5374 -0.2528
  769SOL     OW 3073   2.328   0.675   2.370 -0.0909  0.3429  0.2551
  769SOL    HW1 3074   2.285   0.599   2.411  2.6407 -0.3773  3.8157
  769SOL    HW2 3075   2.397   0.661   2.303  0.3241  0.7585 -2.1133
  769SOL     MW 3076   2.332   0.663   2.366  0.3243  0.3027  0.4124
  770SOL     OW 3077   0.049   1.598   2.607  0.3875  0.1431  0.1844
  770SOL    HW1 3078  -0.033   1.647   2.622  1.7724 -0.2327 -0.5165
  770SOL    HW2 3079   0.062   1.535   2.677 -0.8128  1.9472 -0.1121
  770SOL     MW 3080   0.040   1.596   2.618  0.4118  0.3315  0.0528
  771SOL     OW 3081   3.041   0.607   1.951 -0.5847 -0.2375 -0.4440
  771SOL    HW1 3082   3.002   0.602   1.858 -2.9836  1.8758 -1.4612
  771SOL    HW2 3083   3.122   0.561   1.953 -3.7495  1.2309  1.5800
  771SOL     MW 3084   3.046   0.600   1.939 -1.3188  0.2350 -0.3112
  772SOL     OW 3085   0.029   3.088   2.338 -0.1529 -0.5076 -0.3775
  772SOL    HW1 3086  -0.056   3.059   2.364  0.2128 -3.0496  1.9774
  772SOL    HW2 3087   0.081   3.009   2.322 -2.5394 -0.1840  2.2099
  772SOL     MW 3088   0.025   3.074   2.340 -0.4196 -0.8003  0.2746
  773SOL     OW 3089   2.493   2.852   2.805  0.1704 -1.1473  0.1625
  773SOL    HW1 3090   2.493   2.765   2.765  0.2690 -0.7213 -3.1729
  773SOL    HW2 3091   2.428   2.857   2.882 -0.1260 -2.3126  3.9217
  773SOL     MW 3092   2.484   2.841   2.810  0.1443 -1.2449  0.2184
  774SOL     OW 3093   2.341   1.148   1.757 -0.4995  0.4062  0.2749
  774SOL    HW1 3094   2.313   1.213   1.692 -2.4618 -0.0681 -0.4059
  774SOL    HW2 3095   2.283   1.064   1.740 -0.7064  1.3862 -1.9269
  774SOL     MW 3096   2.330   1.145   1.746 -0.7857  0.4729 -0.1054
  775SOL     OW 3097   2.290   2.935   2.321 -0.6025  0.6113 -0.1842
  775SOL    HW1 3098   2.329   3.011   2.273 -1.3268  2.1430  3.1144
  775SOL    HW2 3099   2.361   2.870   2.323 -0.6268  1.5836 -0.8950
  775SOL     MW 3100   2.305   2.936   2.315 -0.7013  0.9417  0.1572
  776SOL     OW 3101   0.125   1.519   0.130  0.3157  0.4734 -0.0658
  776SOL    HW1 3102   0.207   1.470   0.119 -0.6580 -1.4872  1.6066
  776SOL    HW2 3103   0.066   1.450   0.170 -0.3242  0.2466  2.0329
  776SOL     MW 3104   0.128   1.504   0.133  0.1028  0.1848  0.4318
  777SOL     OW 3105   2.972   1.106   1.750  0.7706 -0.3118 -0.1777
  777SOL    HW1 3106   2.934   1.151   1.673 -1.9382  0.5516 -2.6758
  777SOL    HW2 3107   2.909   1.038   1.783 -1.3614  1.9973  0.9415
  777SOL     MW 3108   2.959   1.103   1.744  0.1319  0.1068 -0.3596
  778SOL     OW 3109   2.868   0.455   2.761 -0.3687 -0.2620  0.4073
  778SOL    HW1 3110   2.812   0.503   2.825 -1.6588 -1.8809  0.3595
  778SOL    HW2 3111   2.837   0.484   2.676  0.3444 -0.7068 -0.2246
  778SOL     MW 3112   2.857   0.465   2.758 -0.4448 -0.5343  0.3176
  779SOL     OW 3113   2.268   0.452   2.114  0.1768  1.0063 -0.0843
  779SOL    HW1 3114   2.253   0.507   2.195  0.5746  1.4722 -0.6951
  779SOL    HW2 3115   2.233   0.363   2.116 -1.2761 -0.6354  0.1348
  779SOL     MW 3116   2.261   0.448   2.125  0.0376  0.8512 -0.1360
  780SOL     OW 3117   0.156   0.238   2.699 -0.2874  0.1345  0.0008
  780SOL    HW1 3118   0.072   0.212   2.730  2.5378  0.5846 -3.2839
  780SOL    HW2 3119   0.154   0.329   2.683  2.5457 -2.8911 -1.8410
  780SOL     MW 3120   0.145   0.247   2.701  0.4591 -0.2053 -0.6756
  781SOL     OW 3121   3.054   1.327   2.494 -0.3136 -0.0936  0.1382
  781SOL    HW1 3122   3.055   1.414   2.451 -0.9307 -0.7784  0.5329
  781SOL    HW2 3123   3.072   1.266   2.418  1.2882  0.7196 -2.0749
  781SOL     MW 3124   3.057   1.330   2.478 -0.1836 -0.0767 -0.1017
  782SOL     OW 3125   0.653   1.491   0.098 -0.4520  0.1561 -0.1301
  782SOL    HW1 3126   0.586   1.553   0.074 -1.1275 -3.7976  0.4847
  782SOL    HW2 3127   0.666   1.522   0.185 -2.2944  1.6442 -0.5160
  782SOL     MW 3128   0.646   1.504   0.107 -0.7842 -0.1692 -0.0999
  783SOL     OW 3129   2.710   0.569   2.403 -1.1223  0.8092 -0.1123
  783SOL    HW1 3130   2.664   0.595   2.323 -1.3934  0.0152 -1.6307
  783SOL    HW2 3131   2.644   0.525   2.465  1.4548 -0.7131  1.8351
  783SOL     MW 3132   2.695   0.567   2.401 -0.8181  0.5036 -0.0557
  784SOL     OW 3133   0.189   0.857   2.868 -0.1071 -0.0412  0.3448
  784SOL    HW1 3134   0.093   0.875   2.860  1.4680  1.5025  0.7957
  784SOL    HW2 3135   0.228   0.916   2.808 -0.2646 -0.3091 -1.6256
  784SOL     MW 3136   0.181   0.867   2.859  0.0799  0.1272  0.1444
  785SOL     OW 3137   0.452   0.421   2.181  0.7250  0.3242 -0.0806
  785SOL    HW1 3138   0.479   0.425   2.088 -0.8087 -1.2422  1.0823
  785SOL    HW2 3139   0.358   0.397   2.176 -0.8428  2.7948 -0.1319
  785SOL     MW 3140   0.443   0.418   2.168  0.3158  0.4435  0.0661
  786SOL     OW 3141   1.900   0.426   3.069  0.2093 -0.1332 -0.9078
  786SOL    HW1 3142   1.819   0.481   3.084 -2.5004  1.0100 -0.2575
  786SOL    HW2 3143   1.900   0.407   2.973  1.0851  0.3325 -2.1627
  786SOL     MW 3144   1.889   0.431   3.058 -0.0326  0.0791 -0.9876
  787SOL     OW 3145   2.462   0.152   2.921 -0.0832 -0.5848 -0.3317
  787SOL    HW1 3146   2.525   0.089   2.896  2.0979 -2.3913 -0.5570
  787SOL    HW2 3147   2.500   0.215   2.982  0.1729  0.3074  0.7613
  787SOL     MW 3148   2.476   0.152   2.925  0.2384 -0.7054 -0.2172
  788SOL     OW 3149   2.836   3.012   2.416 -0.4417  0.7337 -0.1502
  788SOL    HW1 3150   2.840   2.998   2.508  0.3752  0.6513 -0.8224
  788SOL    HW2 3151   2.864   2.930   2.373  0.4391 -0.4423  0.8203
  788SOL     MW 3152   2.840   2.999   2.422 -0.2177  0.5677 -0.1108
  789SOL     OW 3153   0.092   0.194   3.067 -0.5059  0.7178 -0.4332
  789SOL    HW1 3154  -0.003   0.182   3.073 -2.2751 -0.0227 -0.8044
  789SOL    HW2 3155   0.090   0.275   3.020  1.4539 -0.3279 -1.8955
  789SOL     MW 3156   0.080   0.203   3.061 -0.4808  0.4821 -0.6751
  790SOL     OW 3157   0.012   1.052   2.401 -0.1360  0.3302 -0.4522
  790SOL    HW1 3158   0.013   1.009   2.489 -2.7766  1.0570  2.8021
  790SOL    HW2 3159  -0.079   1.027   2.363 -1.9921 -0.2514 -0.9750
  790SOL     MW 3160  -0.000   1.043   2.408 -0.7293  0.3494 -0.0918
  791SOL     OW 3161   2.529   0.485   2.600  0.1793  0.0300 -0.5405
  791SOL    HW1 3162   2.475   0.517   2.670  1.3778 -1.6965  1.7346
  791SOL    HW2 3163   2.566   0.404   2.627 -0.9871 -0.1236  2.7343
  791SOL     MW 3164   2.527   0.478   2.613  0.1835 -0.2181  0.1917
  792SOL     OW 3165   2.354   0.239   2.436 -0.5387  0.4894 -0.1769
  792SOL    HW1 3166   2.297   0.312   2.439 -1.7393 -1.0591 -1.3496
  792SOL    HW2 3167   2.348   0.197   2.522  0.3744  1.0743  0.7789
  792SOL     MW 3168   2.345   0.243   2.448 -0.5766  0.3622 -0.2055
  793SOL     OW 3169   1.818   1.091   2.013  0.4482  0.0476 -0.2934
  793SOL    HW1 3170   1.799   1.081   1.925 -0.7564  0.2301  1.5991
  793SOL    HW2 3171   1.913   1.079   2.007  3.0632  0.5941 -0.3502
  793SOL     MW 3172   1.828   1.088   2.001  0.6343  0.1438 -0.0512
  794SOL     OW 3173   1.367   2.328   0.131 -0.2425  0.3672  0.3469
  794SOL    HW1 3174   1.402   2.363   0.057 -2.6478  1.7384 -0.5381
  794SOL    HW2 3175   1.431   2.326   0.208  0.8136 -2.2984  1.2163
  794SOL     MW 3176   1.380   2.332   0.131 -0.4205  0.1964  0.3449
  795SOL     OW 3177   2.308   1.047   2.534  0.3832 -0.1398  0.0958
  795SOL    HW1 3178   2.271   1.099   2.606 -1.3327  0.5123 -2.8187
  795SOL    HW2 3179   2.381   1.090   2.489  2.2760  0.0349 -0.7873
  795SOL     MW 3180   2.313   1.059   2.538  0.4066 -0.0307 -0.4053
  796SOL     OW 3181   0.235   0.617   2.675  0.4358  0.2720  0.2994
  796SOL    HW1 3182   0.217   0.691   2.734 -1.5184 -0.3354 -0.1853
  796SOL    HW2 3183   0.170   0.623   2.604 -0.5574 -1.5273  0.4689
  796SOL     MW 3184   0.224   0.627   2.673  0.0469 -0.0456  0.2578
  797SOL     OW 3185   2.605   0.164   2.582 -0.4147 -0.1939 -0.2779
  797SOL    HW1 3186   2.538   0.184   2.518 -5.3850  0.9298 -1.9974
  797SOL    HW2 3187   2.692   0.169   2.542  0.5665 -0.5780  1.5902
  797SOL     MW 3188   2.608   0.167   2.568 -0.9410 -0.0963 -0.2583
  798SOL     OW 3189   2.385   0.054   2.206 -0.1469  0.3631 -0.1141
  798SOL    HW1 3190   2.372   0.118   2.280  0.5283  0.8421 -2.3931
  798SOL    HW2 3191   2.470   0.057   2.161 -1.1538  1.9217 -2.5252
  798SOL     MW 3192   2.394   0.063   2.209 -0.1906  0.6320 -0.7329
  799SOL     OW 3193   2.563   2.987   0.132  0.3340  0.2595  0.4166
  799SOL    HW1 3194   2.478   2.965   0.088 -1.0684 -0.7150 -0.7988
  799SOL    HW2 3195   2.546   2.947   0.217 -1.6975 -1.1387  0.6129
  799SOL     MW 3196   2.550   2.978   0.137 -0.1190 -0.0536  0.2822
  800SOL     OW 3197   1.945   3.074   1.772  0.2306  0.2513 -0.1936
  800SOL    HW1 3198   1.880   3.017   1.734  0.3432  1.5811  0.7528
  800SOL    HW2 3199   2.006   3.027   1.835 -0.5323  0.3743 -3.4976
  800SOL     MW 3200   1.944   3.060   1.775  0.1448  0.4430 -0.5046
  801SOL     OW 3201   2.816   1.227   2.608 -0.7127  0.1048 -0.3530
  801SOL    HW1 3202   2.799   1.131   2.607 -0.3748  1.1628 -2.0588
  801SOL    HW2 3203   2.897   1.236   2.557 -0.2279 -1.8882 -1.7140
  801SOL     MW 3204   2.824   1.216   2.601 -0.6042 -0.0186 -0.7577
  802SOL     OW 3205   2.593   1.471   2.776  0.2512  0.1379  0.2444
  802SOL    HW1 3206   2.591   1.383   2.751 -0.7291  2.0819  1.5793
  802SOL    HW2 3207   2.684   1.469   2.814 -1.3403 -0.4438 -1.1825
  802SOL     MW 3208   2.605   1.460   2.777 -0.0881  0.3176  0.2323
  803SOL     OW 3209   2.277   1.375   2.035  0.1499 -0.0603  0.6121
  803SOL    HW1 3210   2.263   1.372   2.130 -0.1506 -0.2534  0.2976
  803SOL    HW2 3211   2.234   1.298   2.001  1.5571 -0.2137  2.0029
  803SOL     MW 3212   2.270   1.365   2.043  0.2959 -0.1060  0.7541
  804SOL     OW 3213   2.297   0.059   0.044 -0.0792 -0.4525  0.4409
  804SOL    HW1 3214   2.232   0.126   0.065  0.9002  0.1671 -1.1486
  804SOL    HW2 3215   2.346   0.087  -0.038  1.0461 -0.7360  1.2084
  804SOL     MW 3216   2.295   0.071   0.036  0.1985 -0.4082  0.3325
  805SOL     OW 3217   2.740   0.911   2.637 -0.0915  0.8426 -0.2740
  805SOL    HW1 3218   2.652   0.894   2.604  2.6729 -0.8847  0.7382
  805SOL    HW2 3219   2.790   0.833   2.612  3.2988  0.3294  2.5736
  805SOL     MW 3220   2.735   0.898   2.629  0.7206  0.5470  0.2353
  806SOL     OW 3221   2.560   0.684   2.183 -0.5954 -0.1871 -0.4528
  806SOL    HW1 3222   2.592   0.670   2.092  1.4005  1.3038  0.3844
  806SOL    HW2 3223   2.607   0.766   2.201 -0.1452 -0.0532 -0.1659
  806SOL     MW 3224   2.570   0.693   2.173 -0.2726  0.0273 -0.3045
  807SOL     OW 3225   0.090   1.068   2.055 -0.0037 -0.4750 -0.6890
  807SOL    HW1 3226   0.150   0.996   2.052 -1.3421  1.0848  4.5488
  807SOL    HW2 3227   0.008   1.020   2.054  4.0403 -0.7527  3.0809
  807SOL     MW 3228   0.087   1.052   2.055  0.3533 -0.3059  0.4994
  808SOL     OW 3229   2.661   3.080   2.810 -0.1522 -0.2206 -0.3130
  808SOL    HW1 3230   2.638   3.004   2.760 -2.1622  1.4704  0.7500
  808SOL    HW2 3231   2.666   3.141   2.733 -2.6548 -0.7276 -0.6448
  808SOL     MW 3232   2.659   3.078   2.793 -0.7476 -0.0644 -0.2165
  809SOL     OW 3233   2.681   1.347   2.397 -0.8957 -0.4671  0.4946
  809SOL    HW1 3234   2.723   1.297   2.473  1.8986  0.2854 -0.2387
  809SOL    HW2 3235   2.727   1.315   2.313 -0.7988 -1.7537  2.1682
  809SOL     MW 3236   2.692   1.336   2.396 -0.5143 -0.5376  0.6187
  810SOL     OW 3237   2.242   1.330   2.298  0.2048 -0.1739 -0.0837
  810SOL    HW1 3238   2.321   1.277   2.298 -1.4406  0.7002 -1.0602
  810SOL    HW2 3239   2.184   1.286   2.357  2.3114 -1.9852 -0.4989
  810SOL     MW 3240   2.245   1.317   2.306  0.2657 -0.2975 -0.2673
  811SOL     OW 3241   1.568   0.151   2.312 -0.3993 -0.1892  0.1279
  811SOL    HW1 3242   1.659   0.144   2.345 -0.1683 -0.8029  0.8977
  811SOL    HW2 3243   1.577   0.136   2.221 -1.8531 -0.0575 -0.1383
  811SOL     MW 3244   1.581   0.148   2.304 -0.5607 -0.2528  0.1943
  812SOL     OW 3245   1.478   2.822   2.034  0.3953 -0.4558 -0.3555
  812SOL    HW1 3246   1.571   2.846   2.020 -0.4464  2.9184  0.2648
  812SOL    HW2 3247   1.471   2.814   2.131  0.2091  1.1733  0.5710
  812SOL     MW 3248   1.489   2.824   2.045  0.2596  0.2044 -0.1514
  813SOL     OW 3249   2.010   0.608   2.244 -0.3329 -0.0018 -0.1212
  813SOL    HW1 3250   1.928   0.568   2.229 -2.6799 -1.0764 -0.3649
  813SOL    HW2 3251   1.988   0.696   2.283 -2.7058 -0.3632 -1.7194
  813SOL     MW 3252   1.996   0.615   2.247 -0.9556 -0.1913 -0.3642
  814SOL     OW 3253   2.711   1.213   1.654  0.6238  0.2348 -0.3234
  814SOL    HW1 3254   2.661   1.168   1.724  2.9805  2.3337 -0.4897
  814SOL    HW2 3255   2.679   1.165   1.579 -0.0967 -2.5151  0.3474
  814SOL     MW 3256   2.700   1.201   1.653  0.8397  0.1489 -0.2568
  815SOL     OW 3257   2.552   1.766   2.401  0.5890  0.6266 -0.3535
  815SOL    HW1 3258   2.504   1.694   2.366  0.8247 -1.2628 -2.3090
  815SOL    HW2 3259   2.643   1.741   2.408  1.3603  0.4366  0.3977
  815SOL     MW 3260   2.558   1.753   2.397  0.7218  0.3522 -0.5124
  816SOL     OW 3261   0.749   0.700   2.765 -0.2137 -0.3286 -0.8825
  816SOL    HW1 3262   0.748   0.609   2.765 -0.5862  2.8570  0.1354
  816SOL    HW2 3263   0.660   0.734   2.725  2.6645  0.6844  1.4229
  816SOL     MW 3264   0.737   0.693   2.759  0.1169  0.2254 -0.4440
  817SOL     OW 3265   2.992   1.239   1.466  0.0127 -0.0516  0.1078
  817SOL    HW1 3266   3.084   1.232   1.471 -1.1552 -2.1304  0.6721
  817SOL    HW2 3267   2.968   1.318   1.405  0.9060  2.2524  0.9856
  817SOL     MW 3268   3.001   1.248   1.458 -0.0236 -0.0219  0.2981
  818SOL     OW 3269   1.931   1.037   2.632  0.7090 -0.4368  0.0320
  818SOL    HW1 3270   1.902   0.997   2.544 -1.0325  1.2895 -3.8546
  818SOL    HW2 3271   2.002   0.977   2.660  1.2401  2.0170  0.5484
  818SOL     MW 3272   1.937   1.024   2.624  0.5493  0.1147 -0.4127
  819SOL     OW 3273   1.976   0.310   2.496  0.2407 -0.4910  0.4189
  819SOL    HW1 3274   1.897   0.372   2.496 -1.0995 -0.3891 -2.3375
  819SOL    HW2 3275   2.026   0.322   2.579  1.8804 -1.1827  0.3562
  819SOL     MW 3276   1.972   0.320   2.507  0.2802 -0.5688  0.0470
  820SOL     OW 3277   2.450   1.682   2.649  0.1187  0.6423  0.6722
  820SOL    HW1 3278   2.500   1.610   2.694 -2.5134 -0.7126  1.6133
  820SOL    HW2 3279   2.484   1.689   2.559 -1.6711 -0.2122  0.3232
  820SOL     MW 3280   2.461   1.673   2.643 -0.4647  0.3508  0.7503
  821SOL     OW 3281   2.559   1.359   1.985 -0.3050 -0.1991  0.0089
  821SOL    HW1 3282   2.576   1.432   1.925 -1.7050 -3.4115  1.5079
  821SOL    HW2 3283   2.465   1.363   2.010 -2.7260  1.0975 -2.6329
  821SOL     MW 3284   2.548   1.369   1.980 -0.8092 -0.4518 -0.1419
  822SOL     OW 3285   2.878   2.717   1.465 -0.6932 -0.8239 -0.0179
  822SOL    HW1 3286   2.900   2.672   1.547  1.6986 -2.1823  1.7140
  822SOL    HW2 3287   2.934   2.797   1.470 -0.2573 -0.6028 -1.9962
  822SOL     MW 3288   2.888   2.722   1.476 -0.3201 -0.9740 -0.0504
  823SOL     OW 3289   2.378   0.522   1.835  0.3258 -0.3214 -0.3454
  823SOL    HW1 3290   2.447   0.480   1.773  0.7458 -5.0909 -0.9326
  823SOL    HW2 3291   2.400   0.481   1.919  4.2764  0.0642  1.5779
  823SOL     MW 3292   2.390   0.511   1.838  0.9024 -0.8998 -0.1691
  824SOL     OW 3293   2.264   1.452   2.658 -0.5262 -0.1725 -0.3161
  824SOL    HW1 3294   2.337   1.508   2.633  0.7894 -2.0145 -0.0995
  824SOL    HW2 3295   2.195   1.516   2.672  0.8764 -1.0234 -2.8501
  824SOL     MW 3296   2.265   1.468   2.656 -0.1675 -0.5278 -0.6219
  825SOL     OW 3297   1.897   2.554   0.256  0.2169  0.3314 -0.1512
  825SOL    HW1 3298   1.874   2.498   0.337 -1.5326 -2.0763  0.6596
  825SOL    HW2 3299   1.953   2.499   0.203 -2.2975  0.9984  0.0347
  825SOL     MW 3300   1.901   2.540   0.260 -0.3457  0.1018 -0.0197
  826SOL     OW 3301   1.791   2.380   0.454  0.1132 -0.3596  0.6978
  826SOL    HW1 3302   1.755   2.302   0.501  0.2655 -1.7612  1.7215
  826SOL    HW2 3303   1.755   2.451   0.503  0.7812  3.1779 -2.4471
  826SOL     MW 3304   1.782   2.379   0.467  0.2214 -0.0777  0.4179
  827SOL     OW 3305   1.882   2.186   0.798  0.0101 -0.0520  0.0401
  827SOL    HW1 3306   1.824   2.186   0.722  0.3607 -2.6197  0.3158
  827SOL    HW2 3307   1.835   2.130   0.857 -3.0437 -0.9971 -1.3345
  827SOL     MW 3308   1.868   2.178   0.796 -0.3466 -0.5155 -0.1049
  828SOL     OW 3309   0.030   2.613   0.576 -0.3963  0.3020  0.0875
  828SOL    HW1 3310   0.122   2.582   0.564 -1.9226 -0.8992  0.0973
  828SOL    HW2 3311   0.012   2.647   0.490 -2.2991 -1.3707  0.5022
  828SOL     MW 3312   0.040   2.613   0.563 -0.8488 -0.0772  0.1435
  829SOL     OW 3313   3.000   2.927   1.204  0.1008  0.0651  0.4423
  829SOL    HW1 3314   2.939   2.949   1.135  2.7589 -0.7469 -0.8343
  829SOL    HW2 3315   3.036   2.840   1.176 -1.5629  0.5576 -0.8371
  829SOL     MW 3316   2.997   2.918   1.191  0.2320  0.0229  0.1051
  830SOL     OW 3317   2.583   2.818   2.028 -0.1651  0.3306 -0.1545
  830SOL    HW1 3318   2.498   2.784   1.990  3.0085  1.3875 -0.2968
  830SOL    HW2 3319   2.634   2.836   1.948  0.1389  0.8957  1.0726
  830SOL     MW 3320   2.578   2.816   2.013  0.2937  0.5446 -0.0114
  831SOL     OW 3321   2.340   2.456   1.164 -0.1964  0.4556 -0.2235
  831SOL    HW1 3322   2.297   2.414   1.242  0.5645  0.5597 -0.5136
  831SOL    HW2 3323   2.435   2.435   1.168 -0.7667 -0.5491 -0.8592
  831SOL     MW 3324   2.347   2.448   1.175 -0.1712  0.3368 -0.3456
  832SOL     OW 3325   2.358   2.188   1.865 -0.0381  0.0364  0.1848
  832SOL    HW1 3326   2.399   2.272   1.882 -0.2867  1.1183 -0.5408
  832SOL    HW2 3327   2.430   2.120   1.860  0.8975 -0.4196 -0.0385
  832SOL     MW 3328   2.373   2.190   1.867  0.0525  0.1190  0.0596
  833SOL     OW 3329   1.732   2.459   0.868  0.1461 -0.1266  0.6366
  833SOL    HW1 3330   1.665   2.397   0.897 -1.7797  0.1632 -1.9014
  833SOL    HW2 3331   1.728   2.534   0.925 -0.1924 -2.4974 -4.4543
  833SOL     MW 3332   1.722   2.461   0.879 -0.1527 -0.4012 -0.3699
  834SOL     OW 3333   2.058   2.440   0.587 -0.4382  0.1707 -0.1739
  834SOL    HW1 3334   1.970   2.420   0.567  1.3941  0.9832 -0.9239
  834SOL    HW2 3335   2.104   2.395   0.517 -0.0661 -2.5328  0.8218
  834SOL     MW 3336   2.053   2.431   0.575 -0.1473 -0.0788 -0.1415
  835SOL     OW 3337   1.764   2.581   0.621  0.2486  0.8430 -0.5563
  835SOL    HW1 3338   1.762   2.547   0.713 -1.6944  1.6963  3.4758
  835SOL    HW2 3339   1.822   2.661   0.639  2.8553  1.3263 -0.3537
  835SOL     MW 3340   1.772   2.587   0.635  0.3362  1.0193  0.0024
  836SOL     OW 3341   1.907   2.176   1.583  0.4996  0.2918  0.4376
  836SOL    HW1 3342   1.984   2.231   1.601  1.0954  2.7143  0.8296
  836SOL    HW2 3343   1.831   2.229   1.619 -1.7528 -0.1772 -2.7892
  836SOL     MW 3344   1.907   2.190   1.590  0.2810  0.5495  0.0635
  837SOL     OW 3345   2.136   0.237   0.680  0.5893  0.1182  0.1655
  837SOL    HW1 3346   2.052   0.260   0.632  0.0784 -3.4399 -0.4253
  837SOL    HW2 3347   2.175   0.167   0.625 -0.7355 -0.1608 -1.3805
  837SOL     MW 3348   2.130   0.231   0.666  0.3471 -0.3881 -0.1164
  838SOL     OW 3349   2.922   2.037   0.936  0.2751  0.1320  0.0146
  838SOL    HW1 3350   2.865   1.983   0.993 -1.7051  0.5271 -0.8503
  838SOL    HW2 3351   2.985   1.972   0.910  1.5169 -0.3006 -0.3310
  838SOL     MW 3352   2.923   2.021   0.940  0.1777  0.1270 -0.1451
  839SOL     OW 3353   1.515   2.318   1.049 -0.3052 -0.6902 -0.3053
  839SOL    HW1 3354   1.549   2.389   1.108 -1.1048 -0.5128 -1.4734
  839SOL    HW2 3355   1.534   2.236   1.098 -1.0109  2.4951 -0.7701
  839SOL     MW 3356   1.522   2.317   1.063 -0.5038 -0.2465 -0.5207
  840SOL     OW 3357   2.358   2.160   2.472 -0.0713  0.0686  0.1937
  840SOL    HW1 3358   2.326   2.241   2.439 -2.0168 -0.6807  1.7573
  840SOL    HW2 3359   2.363   2.190   2.560  0.0099  0.4747 -3.0859
  840SOL     MW 3360   2.354   2.174   2.480 -0.3172  0.0233 -0.0327
  841SOL     OW 3361   2.113   2.459   0.129  1.2046 -0.1874  0.2128
  841SOL    HW1 3362   2.136   2.507   0.049  0.7995  1.4449 -0.2623
  841SOL    HW2 3363   2.100   2.365   0.104 -0.5173 -2.8578  0.1514
  841SOL     MW 3364   2.115   2.453   0.115  0.9240 -0.3244  0.1420
  842SOL     OW 3365   2.658   2.089   1.530 -0.5072  0.1001 -0.0997
  842SOL    HW1 3366   2.599   2.031   1.579 -2.5707  1.5980  0.2685
  842SOL    HW2 3367   2.601   2.114   1.453 -1.2434 -1.4470  0.8949
  842SOL     MW 3368   2.643   2.085   1.527 -0.8766  0.0936  0.0801
  843SOL     OW 3369   2.688   2.790   1.765  0.5635  0.7455 -0.1738
  843SOL    HW1 3370   2.764   2.722   1.755  2.3536  2.2141 -2.7636
  843SOL    HW2 3371   2.605   2.752   1.722  2.8271 -0.3677 -0.9116
  843SOL     MW 3372   2.687   2.776   1.758  1.0983  0.7924 -0.6128
  844SOL     OW 3373   2.611   2.369   1.164 -0.2936 -0.5437  0.0977
  844SOL    HW1 3374   2.652   2.407   1.082  0.3346 -0.2951  1.3082
  844SOL    HW2 3375   2.667   2.402   1.240  1.1721  1.4386 -1.1040
  844SOL     MW 3376   2.624   2.378   1.163 -0.0174 -0.2494  0.0989
  845SOL     OW 3377   2.827   2.495   0.304  0.2316  0.4217  0.2237
  845SOL    HW1 3378   2.785   2.413   0.286  1.6510  0.0201 -1.4038
  845SOL    HW2 3379   2.821   2.516   0.398  0.2780  0.1686 -2.8724
  845SOL     MW 3380   2.821   2.487   0.314  0.4250  0.3353 -0.3995
  846SOL     OW 3381   1.558   2.844   0.811 -0.8378  0.1989  0.4592
  846SOL    HW1 3382   1.629   2.879   0.865 -0.3728 -1.2866  0.4899
  846SOL    HW2 3383   1.478   2.875   0.848 -2.4417 -0.2516  0.9799
  846SOL     MW 3384   1.557   2.853   0.823 -0.9880 -0.0565  0.5319
  847SOL     OW 3385   2.611   1.901   0.193  0.3687 -0.0182  0.4552
  847SOL    HW1 3386   2.699   1.877   0.195 -0.5255  0.2444  0.2382
  847SOL    HW2 3387   2.569   1.862   0.121  2.7229  0.8918 -2.3705
  847SOL     MW 3388   2.617   1.893   0.183  0.5614  0.1365  0.0537
  848SOL     OW 3389   2.501   2.132   1.295 -0.5444  0.2229  0.4560
  848SOL    HW1 3390   2.543   2.197   1.231  2.5984  0.1439 -2.0705
  848SOL    HW2 3391   2.457   2.065   1.243  1.0282  3.1943 -1.3842
  848SOL     MW 3392   2.501   2.132   1.280  0.0777  0.6045 -0.1202
  849SOL     OW 3393   1.990   2.742   0.806 -0.0582  0.1891 -0.0092
  849SOL    HW1 3394   2.000   2.651   0.836 -1.9102  1.5502  2.7599
  849SOL    HW2 3395   2.054   2.752   0.740  0.7374  1.3717 -1.1251
  849SOL     MW 3396   2.000   2.731   0.801 -0.1976  0.5247  0.2089
  850SOL     OW 3397   2.190   1.970   1.681 -0.0704  0.2334 -0.0663
  850SOL    HW1 3398   2.106   1.927   1.658 -2.4259 -1.0583  1.9316
  850SOL    HW2 3399   2.165   2.060   1.713  0.6299  0.9892  0.6726
  850SOL     MW 3400   2.176   1.976   1.682 -0.2888  0.1627  0.2948
  851SOL     OW 3401   2.213   2.364   0.359  0.1518  0.2970  0.1302
  851SOL    HW1 3402   2.204   2.414   0.281 -3.0601  1.3850 -2.1532
  851SOL    HW2 3403   2.305   2.386   0.380  1.8508 -0.3051  0.2194
  851SOL     MW 3404   2.224   2.373   0.351 -0.0478  0.3611 -0.1593
  852SOL     OW 3405   2.276   2.143   0.168 -0.1779  0.3035 -0.5366
  852SOL    HW1 3406   2.257   2.211   0.231 -1.8646 -0.0649 -1.7080
  852SOL    HW2 3407   2.363   2.163   0.126  1.1630 -1.0921  0.8217
  852SOL     MW 3408   2.285   2.155   0.171 -0.2235  0.0707 -0.5120
  853SOL     OW 3409   2.449   2.448   1.974  0.4237 -0.0518  0.1271
  853SOL    HW1 3410   2.463   2.494   1.893 -0.9836 -1.4292  1.0465
  853SOL    HW2 3411   2.535   2.435   2.025 -1.1346  1.6452 -0.3196
  853SOL     MW 3412   2.462   2.453   1.970  0.0324 -0.0097  0.1895
  854SOL     OW 3413   2.888   2.233   0.741  0.2019  0.3650  0.0763
  854SOL    HW1 3414   2.803   2.200   0.709 -0.2853  2.8253  1.4952
  854SOL    HW2 3415   2.911   2.161   0.804  0.0927 -1.1189 -0.9836
  854SOL     MW 3416   2.880   2.219   0.745  0.1232  0.4938  0.1236
  855SOL     OW 3417   2.694   2.262   0.308 -0.0426 -0.9760  0.2452
  855SOL    HW1 3418   2.645   2.270   0.384 -1.4246 -0.9151 -0.7535
  855SOL    HW2 3419   2.760   2.191   0.322  0.0383 -0.6844  1.0110
  855SOL     MW 3420   2.697   2.254   0.320 -0.2143 -0.9295  0.2145
  856SOL     OW 3421   2.163   1.883   0.204  0.1373  0.2968  0.7577
  856SOL    HW1 3422   2.069   1.885   0.226  0.2092  1.7282  2.1832
  856SOL    HW2 3423   2.195   1.974   0.206  1.2651  2.0827  1.6492
  856SOL     MW 3424   2.155   1.895   0.207  0.2956  0.7213  1.0634
  857SOL     OW 3425   2.540   1.908   0.468 -0.0724 -0.0099 -0.1387
  857SOL    HW1 3426   2.580   1.893   0.387 -0.8368  0.8847  3.4373
  857SOL    HW2 3427   2.444   1.890   0.458 -3.7705  0.7955  1.8772
  857SOL     MW 3428   2.532   1.903   0.456 -0.6612  0.2144  0.5991
  858SOL     OW 3429   2.918   2.624   1.728 -0.3389 -0.0583 -0.3714
  858SOL    HW1 3430   2.988   2.664   1.785 -0.4738  1.8403 -1.7060
  858SOL    HW2 3431   2.874   2.554   1.775  2.1444  1.6832 -2.1395
  858SOL     MW 3432   2.922   2.620   1.742 -0.0290  0.4220 -0.7808
  859SOL     OW 3433   2.081   2.475   0.856  0.2838  0.7157 -0.8127
  859SOL    HW1 3434   2.061   2.453   0.765  0.0285  0.5760 -2.9095
  859SOL    HW2 3435   2.125   2.395   0.889 -0.8972 -2.1955 -0.0976
  859SOL     MW 3436   2.084   2.461   0.849  0.0943  0.3132 -0.9950
  860SOL     OW 3437   2.654   2.625   0.139  0.2787 -0.5710 -0.2920
  860SOL    HW1 3438   2.709   2.586   0.212 -1.5258 -0.6495 -1.3749
  860SOL    HW2 3439   2.703   2.701   0.110 -0.5175 -1.7625  3.7522
  860SOL     MW 3440   2.668   2.630   0.144 -0.0644 -0.7386  0.0987
  861SOL     OW 3441   1.589   2.094   1.190  0.3380  0.3456  0.3858
  861SOL    HW1 3442   1.659   2.076   1.251  0.3313  1.7296  2.3434
  861SOL    HW2 3443   1.507   2.046   1.227 -0.1744 -1.9842 -0.1007
  861SOL     MW 3444   1.588   2.086   1.203  0.2695  0.2208  0.5799
  862SOL     OW 3445   2.390   1.845   1.532  0.2664  0.3812 -0.2281
  862SOL    HW1 3446   2.354   1.910   1.589  1.9262 -1.8764  1.4224
  862SOL    HW2 3447   2.359   1.847   1.439  0.6467 -0.7020  0.2071
  862SOL     MW 3448   2.381   1.854   1.528  0.5356 -0.0596  0.0471
  863SOL     OW 3449   3.055   1.794   1.194 -0.1471 -0.1908  0.5757
  863SOL    HW1 3450   3.140   1.800   1.154  0.2396 -0.1015 -1.2623
  863SOL    HW2 3451   3.015   1.874   1.211  2.1117 -1.1262  1.4529
  863SOL     MW 3452   3.061   1.805   1.191  0.2020 -0.3025  0.4489
  864SOL     OW 3453   0.023   1.827   0.850  0.3635  0.1907 -0.6111
  864SOL    HW1 3454  -0.038   1.761   0.885  2.4191 -2.0710 -0.8330
  864SOL    HW2 3455  -0.001   1.832   0.750 -0.4916  1.9703 -1.7064
  864SOL     MW 3456   0.012   1.819   0.841  0.5219  0.1271 -0.7849
  865SOL     OW 3457   2.538   2.177   0.056  0.2300  0.0536  0.3714
  865SOL    HW1 3458   2.564   2.110   0.126 -3.9924  0.8622 -1.2182
  865SOL    HW2 3459   2.524   2.133  -0.028  0.3929 -2.0384  0.4292
  865SOL     MW 3460   2.539   2.162   0.054 -0.3056 -0.1157  0.1693
  866SOL     OW 3461   2.665   2.357   1.603 -0.5099 -0.4574  0.1555
  866SOL    HW1 3462   2.643   2.266   1.579 -1.4814 -1.3443  3.8037
  866SOL    HW2 3463   2.706   2.404   1.532 -1.5720  0.2545  1.5569
  866SOL     MW 3464   2.668   2.351   1.590 -0.7782 -0.4805  0.8217
  867SOL     OW 3465   0.045   2.744   1.831 -0.7029  0.4089 -0.1566
  867SOL    HW1 3466   0.079   2.771   1.916 -0.2951 -0.7236 -2.3482
  867SOL    HW2 3467   0.056   2.818   1.779 -0.5896 -0.9978 -0.7373
  867SOL     MW 3468   0.051   2.757   1.835 -0.6341  0.0739 -0.5224
  868SOL     OW 3469   2.798   2.575   0.557  0.3425  0.8597  0.2633
  868SOL    HW1 3470   2.722   2.514   0.562  1.0387 -1.1708 -0.5085
  868SOL    HW2 3471   2.764   2.663   0.536 -0.7407  1.2514  1.6314
  868SOL     MW 3472   2.784   2.578   0.555  0.2915  0.6435  0.3420
  869SOL     OW 3473   1.943   2.337   1.054 -0.2083  0.0819 -0.3433
  869SOL    HW1 3474   1.957   2.425   1.014  2.3637 -0.3545  0.6725
  869SOL    HW2 3475   1.918   2.280   0.972  0.8868  0.0896  1.2450
  869SOL     MW 3476   1.942   2.341   1.038  0.2756  0.0253  0.0003
  870SOL     OW 3477   2.228   0.022   0.519 -0.2982 -0.0659 -0.0421
  870SOL    HW1 3478   2.287   0.059   0.457 -1.6798 -1.0613  1.7168
  870SOL    HW2 3479   2.263  -0.066   0.528 -1.5843 -0.0019  1.8557
  870SOL     MW 3480   2.240   0.015   0.512 -0.6501 -0.1888  0.4404
  871SOL     OW 3481   2.476   1.985   0.907  0.1447 -0.8234  0.6364
  871SOL    HW1 3482   2.418   1.946   0.843 -0.4476  2.6116 -0.1254
  871SOL    HW2 3483   2.433   2.061   0.945  0.7168  1.2671 -0.3491
  871SOL     MW 3484   2.462   1.990   0.904  0.1420 -0.0944  0.4058
  872SOL     OW 3485   2.003   2.509   1.374  0.1265  0.1442  0.5652
  872SOL    HW1 3486   1.980   2.534   1.462 -1.0302 -2.7100 -3.2517
  872SOL    HW2 3487   1.933   2.456   1.337  1.5422 -0.8795 -0.4442
  872SOL     MW 3488   1.991   2.505   1.381  0.1607 -0.3675 -0.0716
  873SOL     OW 3489   2.829   2.070   1.938 -0.1558 -0.4331  0.2190
  873SOL    HW1 3490   2.881   2.117   1.998  0.3951 -1.3608 -1.9045
  873SOL    HW2 3491   2.887   2.054   1.859  1.4793 -3.5634  1.6245
  873SOL     MW 3492   2.844   2.074   1.936  0.1326 -0.9685  0.1243
  874SOL     OW 3493   2.429   1.521   2.383 -0.2009 -0.2483  0.2153
  874SOL    HW1 3494   2.353   1.463   2.354 -0.4541 -3.6030 -0.9690
  874SOL    HW2 3495   2.502   1.458   2.391  0.3874 -2.8344 -0.1890
  874SOL     MW 3496   2.428   1.505   2.380 -0.1567 -1.0321  0.0057
  875SOL     OW 3497   2.323   2.284   0.945 -0.0965 -0.0020  0.5167
  875SOL    HW1 3498   2.376   2.341   0.886  1.9854 -0.3587  2.2211
  875SOL    HW2 3499   2.323   2.324   1.029  1.2796 -0.8214  2.0234
  875SOL     MW 3500   2.330   2.296   0.948  0.3598 -0.1572  0.9403
  876SOL     OW 3501   3.033   2.323   1.305  0.3653 -0.2636 -0.8148
  876SOL    HW1 3502   3.108   2.334   1.242  0.1639 -0.4251  2.2978
  876SOL    HW2 3503   3.081   2.377   1.370  0.3517  0.8263 -2.4097
  876SOL     MW 3504   3.049   2.332   1.305  0.3369 -0.1411 -0.6146
  877SOL     OW 3505   3.009   2.731   0.341  0.3001 -0.5914  0.5867
  877SOL    HW1 3506   3.052   2.806   0.304 -1.3789 -0.3698 -0.5611
  877SOL    HW2 3507   3.044   2.655   0.298  0.0809  0.6757  0.6219
  877SOL     MW 3508   3.019   2.731   0.331  0.0497 -0.3950  0.4399
  878SOL     OW 3509   2.299   1.828   1.263 -0.0296 -0.0837 -0.8660
  878SOL    HW1 3510   2.254   1.740   1.270  0.5059  1.2343  0.7515
  878SOL    HW2 3511   2.389   1.803   1.244 -1.7669  0.1669 -2.0731
  878SOL     MW 3512   2.305   1.813   1.261 -0.1882  0.1233 -0.8119
  879SOL     OW 3513   2.750   2.431   0.894 -0.2407  0.1072  0.2138
  879SOL    HW1 3514   2.799   2.508   0.931 -2.3987 -2.0382  0.6643
  879SOL    HW2 3515   2.810   2.366   0.866  0.0726 -1.4112  1.3277
  879SOL     MW 3516   2.764   2.433   0.895 -0.4841 -0.3762  0.4202
  880SOL     OW 3517   2.619   2.119   0.673 -0.1008  1.4477  0.1277
  880SOL    HW1 3518   2.585   2.096   0.762  1.4800  1.3212  0.3373
  880SOL    HW2 3519   2.560   2.064   0.619 -1.8378 -1.0765  0.2627
  880SOL     MW 3520   2.606   2.109   0.677 -0.1214  1.0980  0.1732
  881SOL     OW 3521   2.939   2.688   0.749  0.3110 -0.1606 -0.2899
  881SOL    HW1 3522   2.887   2.640   0.683  1.0960 -1.5143 -2.2957
  881SOL    HW2 3523   3.033   2.679   0.728  2.1037  1.1070  1.1600
  881SOL     MW 3524   2.944   2.681   0.738  0.6511 -0.1720 -0.3633
  882SOL     OW 3525   2.313   2.830   1.929 -0.4092  0.8328  0.8053
  882SOL    HW1 3526   2.287   2.825   1.837  1.2744  0.5622  0.0341
  882SOL    HW2 3527   2.265   2.755   1.965  0.5144  1.3299  1.3014
  882SOL     MW 3528   2.303   2.819   1.922 -0.0652  0.8627  0.7690
  883SOL     OW 3529   2.269   2.273   1.385  0.0838  0.2355  0.6219
  883SOL    HW1 3530   2.355   2.228   1.359  1.7036 -0.5157 -1.7387
  883SOL    HW2 3531   2.207   2.238   1.316 -2.3002 -0.1235 -0.1402
  883SOL     MW 3532   2.272   2.263   1.372 -0.0170  0.0891  0.2099
  884SOL     OW 3533   1.872   1.880   1.131  0.1625 -0.0250  0.1897
  884SOL    HW1 3534   1.818   1.939   1.077 -1.6508 -3.1061 -3.6928
  884SOL    HW2 3535   1.961   1.893   1.106 -1.7176  0.6914 -2.2109
  884SOL     MW 3536   1.877   1.890   1.120 -0.3248 -0.3370 -0.6393
  885SOL     OW 3537   2.799   2.413   1.850  0.4573 -0.1930  0.3172
  885SOL    HW1 3538   2.892   2.382   1.855  3.4496 -0.1390 -1.3330
  885SOL    HW2 3539   2.767   2.375   1.767 -4.9336 -0.9581 -0.1803
  885SOL     MW 3540   2.807   2.404   1.840  0.1408 -0.2868  0.0338
  886SOL     OW 3541   2.793   2.453   1.344 -0.4868  0.1911 -0.3860
  886SOL    HW1 3542   2.870   2.401   1.318 -1.5995 -1.3794  0.2221
  886SOL    HW2 3543   2.817   2.544   1.353  0.4668 -1.9589 -0.9563
  886SOL     MW 3544   2.806   2.458   1.342 -0.5078 -0.2998 -0.3810
  887SOL     OW 3545   2.299   2.613   1.493 -0.0355  0.3590 -0.0785
  887SOL    HW1 3546   2.345   2.625   1.407 -1.2488 -1.6653 -0.2372
  887SOL    HW2 3547   2.229   2.552   1.470 -0.3113  1.2393 -0.2462
  887SOL     MW 3548   2.296   2.607   1.478 -0.2320  0.2081 -0.1216
  888SOL     OW 3549   1.816   2.093   1.342  0.5309  0.3695  0.0415
  888SOL    HW1 3550   1.884   2.065   1.278  0.5446 -0.6150 -0.6796
  888SOL    HW2 3551   1.856   2.109   1.431 -1.2769  0.7271  2.2558
  888SOL     MW 3552   1.830   2.091   1.345  0.2942  0.2868  0.2385
  889SOL     OW 3553   2.361   2.011   2.093 -0.0170 -0.4042 -0.7039
  889SOL    HW1 3554   2.423   2.026   2.165 -2.2264  2.0333 -0.2009
  889SOL    HW2 3555   2.349   2.096   2.047 -1.4341  2.3673  0.7486
  889SOL     MW 3556   2.368   2.024   2.097 -0.4955  0.2831 -0.4459
  890SOL     OW 3557   0.098   2.283   0.111 -0.4460 -0.0517  0.5896
  890SOL    HW1 3558   0.049   2.364   0.118  0.2960  0.0818  1.3506
  890SOL    HW2 3559   0.081   2.244   0.199 -1.2816  1.6731 -0.3478
  890SOL     MW 3560   0.089   2.289   0.123 -0.4584  0.1935  0.5663
  891SOL     OW 3561   3.041   2.056   1.283 -0.2941 -0.0425 -0.5894
  891SOL    HW1 3562   3.122   2.023   1.317  0.6526 -1.9523  2.5368
  891SOL    HW2 3563   3.033   2.149   1.300  1.2883  1.0778 -3.2780
  891SOL     MW 3564   3.050   2.064   1.289  0.0396 -0.1466 -0.5316
  892SOL     OW 3565   2.358   2.417   2.972 -0.6278  0.0730 -0.3914
  892SOL    HW1 3566   2.392   2.363   3.038  1.7567  2.7107  0.8511
  892SOL    HW2 3567   2.443   2.444   2.928  0.6124  1.0147 -2.0766
  892SOL     MW 3568   2.374   2.414   2.975 -0.1495  0.5452 -0.4498
  893SOL     OW 3569   1.588   2.510   1.226  0.1658 -0.3655  0.3860
  893SOL    HW1 3570   1.509   2.524   1.291 -1.7518  0.4242  2.2132
  893SOL    HW2 3571   1.652   2.462   1.286  0.6988  1.2317  0.7278
  893SOL     MW 3572   1.586   2.506   1.243 -0.0169 -0.0506  0.6722
  894SOL     OW 3573   2.835   1.916   0.489  0.0372  0.2047 -0.5898
  894SOL    HW1 3574   2.736   1.923   0.504  2.5190 -2.1361  1.5835
  894SOL    HW2 3575   2.845   1.874   0.397  0.1558  1.5687 -0.1114
  894SOL     MW 3576   2.823   1.912   0.479  0.3803  0.0758 -0.2399
  895SOL     OW 3577   2.090   2.158   1.212  0.4484 -0.0439  1.2153
  895SOL    HW1 3578   2.058   2.225   1.152  0.5264  1.0876  0.4681
  895SOL    HW2 3579   2.098   2.085   1.149 -0.5583 -0.5581  1.6213
  895SOL     MW 3580   2.087   2.157   1.196  0.3259  0.0375  1.1703
  896SOL     OW 3581   2.191   2.821   1.093 -0.2306 -0.1386  0.4179
  896SOL    HW1 3582   2.253   2.810   1.165 -0.7191  0.2364 -1.1430
  896SOL    HW2 3583   2.103   2.798   1.130 -2.2216  0.4879  3.1741
  896SOL     MW 3584   2.187   2.817   1.107 -0.5577 -0.0065  0.5756
  897SOL     OW 3585   2.980   2.973   0.194  0.1547 -0.0649  0.1030
  897SOL    HW1 3586   3.055   2.940   0.141 -1.1152 -0.2892 -2.6345
  897SOL    HW2 3587   2.907   2.922   0.184  1.6515  0.5340  0.8824
  897SOL     MW 3588   2.980   2.962   0.186  0.1847 -0.0155 -0.1553
  898SOL     OW 3589   2.092   0.205   1.460  0.2046  0.1465 -0.0013
  898SOL    HW1 3590   2.025   0.135   1.443  1.0594  0.1477 -0.9350
  898SOL    HW2 3591   2.132   0.227   1.376 -0.1615  0.1144 -0.4244
  898SOL     MW 3592   2.088   0.199   1.447  0.2691  0.1424 -0.1803
  899SOL     OW 3593   2.881   2.949   0.698 -0.4873 -0.3041 -0.1676
  899SOL    HW1 3594   2.884   2.853   0.714  1.3447 -0.0173  0.9412
  899SOL    HW2 3595   2.792   2.989   0.717 -1.3328 -1.1441  1.6835
  899SOL     MW 3596   2.869   2.941   0.703 -0.3572 -0.3771  0.2229
  900SOL     OW 3597   0.130   2.354   1.107  0.2477 -0.1646 -0.1324
  900SOL    HW1 3598   0.111   2.445   1.082 -3.2365 -1.6018 -0.8643
  900SOL    HW2 3599   0.137   2.317   1.018 -1.3930 -0.8437 -0.4970
  900SOL     MW 3600   0.128   2.361   1.092 -0.4285 -0.4438 -0.2771
  901SOL     OW 3601   1.763   2.867   1.715  0.6542  0.9497 -0.0973
  901SOL    HW1 3602   1.839   2.821   1.675 -0.3237  0.3736  1.0093
  901SOL    HW2 3603   1.708   2.867   1.637 -1.5978  2.8671 -2.3500
  901SOL     MW 3604   1.766   2.861   1.699  0.2280  1.1267 -0.2485
  902SOL     OW 3605   2.578   2.011   1.844  0.0623  0.5737  0.2449
  902SOL    HW1 3606   2.579   1.937   1.906  1.5321  0.3195  1.5913
  902SOL    HW2 3607   2.657   2.050   1.883 -1.5557 -2.5770  0.4040
  902SOL     MW 3608   2.588   2.006   1.858  0.0427  0.1244  0.4436
  903SOL     OW 3609   1.605   2.787   0.545 -0.5021 -0.3644 -0.1638
  903SOL    HW1 3610   1.643   2.700   0.549 -2.4608  0.1548  0.9638
  903SOL    HW2 3611   1.586   2.822   0.638  0.3991 -2.6666  0.8341
  903SOL     MW 3612   1.607   2.780   0.558 -0.6416 -0.5996  0.1167
  904SOL     OW 3613   2.487   2.574   1.709 -0.2380 -0.2030  0.6176
  904SOL    HW1 3614   2.412   2.588   1.654 -0.8808 -0.6002  0.4691
  904SOL    HW2 3615   2.535   2.493   1.682 -0.0192  1.9888  1.5806
  904SOL     MW 3616   2.483   2.565   1.698 -0.2939  0.0338  0.7251
  905SOL     OW 3617   2.324   2.573   2.188 -0.5786 -0.4653 -0.1212
  905SOL    HW1 3618   2.380   2.522   2.130  0.8479  2.0736 -0.4580
  905SOL    HW2 3619   2.285   2.505   2.255 -1.1625 -0.0481  1.6222
  905SOL     MW 3620   2.326   2.557   2.189 -0.4675 -0.0753  0.0644
  906SOL     OW 3621   2.492   2.463   0.761 -0.8683  0.0676 -0.8021
  906SOL    HW1 3622   2.574   2.438   0.809 -1.2350 -2.1202  0.1046
  906SOL    HW2 3623   2.474   2.553   0.795  1.7123  0.6173  0.4768
  906SOL     MW 3624   2.500   2.471   0.772 -0.5762 -0.1486 -0.5137
  907SOL     OW 3625   2.634   2.916   1.247  0.0428  0.5822  0.1401
  907SOL    HW1 3626   2.688   2.884   1.316  1.0938  0.5434 -0.8863
  907SOL    HW2 3627   2.687   2.924   1.167  1.6186  1.0475 -1.0315
  907SOL     MW 3628   2.648   2.913   1.245  0.3894  0.6385 -0.1499
  908SOL     OW 3629   2.717   2.389   0.018  0.4904 -0.1622  0.1335
  908SOL    HW1 3630   2.651   2.315   0.042 -2.2114 -4.1448 -2.2934
  908SOL    HW2 3631   2.681   2.467   0.060 -0.8988  3.0742  0.9272
  908SOL     MW 3632   2.704   2.390   0.027 -0.0494 -0.2607 -0.0820
  909SOL     OW 3633   1.602   0.192   1.037 -0.3330 -0.6683  0.1588
  909SOL    HW1 3634   1.678   0.228   0.995  0.0293 -1.8142  2.0377
  909SOL    HW2 3635   1.598   0.244   1.117  0.8798 -0.3572  2.1118
  909SOL     MW 3636   1.612   0.203   1.042 -0.1252 -0.7785  0.6644
  910SOL     OW 3637   2.302   1.777   0.419  0.2597  0.3041  0.0378
  910SOL    HW1 3638   2.234   1.712   0.451  0.3011 -1.3103  0.7898
  910SOL    HW2 3639   2.262   1.813   0.342  1.7665 -1.0325  0.9639
  910SOL     MW 3640   2.288   1.773   0.413  0.4640 -0.0853  0.2592
  911SOL     OW 3641   2.162   2.303   1.664  0.2881 -0.2627  0.0407
  911SOL    HW1 3642   2.238   2.287   1.722  3.7652 -1.0489  0.4889
  911SOL    HW2 3643   2.204   2.313   1.575  1.3735  1.2806  0.0537
  911SOL     MW 3644   2.178   2.302   1.660  0.8901 -0.1628  0.1015
  912SOL     OW 3645   2.902   1.939   1.511 -0.1708  0.3593  0.0398
  912SOL    HW1 3646   2.950   1.990   1.446 -1.8908  1.9840  1.7479
  912SOL    HW2 3647   2.824   1.988   1.511  0.0754  2.5209 -0.3342
  912SOL     MW 3648   2.898   1.952   1.502 -0.3653  0.8589  0.2158
  913SOL     OW 3649   2.539   2.942   0.421 -0.3392  0.0722 -0.0257
  913SOL    HW1 3650   2.622   2.889   0.419  1.8583  0.9473  2.4882
  913SOL    HW2 3651   2.467   2.875   0.424 -1.2635 -0.6050 -1.4422
  913SOL     MW 3652   2.541   2.926   0.421 -0.1712  0.0983  0.1191
  914SOL     OW 3653   2.779   1.654   0.023 -0.2043  0.1200  0.4463
  914SOL    HW1 3654   2.812   1.714  -0.049 -4.1144  0.2658  0.6000
  914SOL    HW2 3655   2.690   1.638   0.006  3.0789  0.2069 -0.6342
  914SOL     MW 3656   2.772   1.659   0.011 -0.2870  0.1507  0.3240
  915SOL     OW 3657   1.843   0.179   0.235 -0.2584  0.5112  0.0823
  915SOL    HW1 3658   1.897   0.118   0.283 -1.3112 -1.2498  0.5879
  915SOL    HW2 3659   1.751   0.152   0.256 -1.1282 -1.1393  3.4724
  915SOL     MW 3660   1.838   0.167   0.244 -0.5121  0.0611  0.5963
  916SOL     OW 3661   1.807   2.085   1.981 -0.3277  0.0618 -0.3652
  916SOL    HW1 3662   1.828   2.179   1.976 -1.7802 -0.8270  0.0610
  916SOL    HW2 3663   1.839   2.051   1.900 -0.8213  0.1062 -1.0262
  916SOL     MW 3664   1.814   2.093   1.969 -0.5845 -0.0496 -0.3962
  917SOL     OW 3665   2.331   2.344   2.689  0.7014 -0.1925  0.2328
  917SOL    HW1 3666   2.326   2.339   2.783  0.6888 -2.6093  0.3727
  917SOL    HW2 3667   2.272   2.414   2.668  1.2915  0.4651  2.8670
  917SOL     MW 3668   2.323   2.353   2.698  0.7776 -0.4246  0.5988
  918SOL     OW 3669   2.073   1.662   2.667 -0.4682  0.2945  0.0803
  918SOL    HW1 3670   1.982   1.684   2.644 -1.0565 -0.5580  1.8049
  918SOL    HW2 3671   2.134   1.734   2.639 -0.6223 -2.8528 -0.7037
  918SOL     MW 3672   2.069   1.674   2.661 -0.5661 -0.2333  0.2044
  919SOL     OW 3673   3.101   2.377   2.261 -0.1642 -0.2889  0.0655
  919SOL    HW1 3674   3.016   2.329   2.227  0.7432  0.7226  1.9321
  919SOL    HW2 3675   3.159   2.362   2.189  1.9701  0.6911  0.6962
  919SOL     MW 3676   3.097   2.369   2.247  0.2371 -0.0261  0.3950
  920SOL     OW 3677   2.762   2.833   0.029 -0.2428  0.2030 -0.1580
  920SOL    HW1 3678   2.688   2.882   0.071  1.8723  1.4050 -0.0180
  920SOL    HW2 3679   2.712   2.788  -0.041  0.4654 -0.7682  1.0020
  920SOL     MW 3680   2.745   2.833   0.026  0.1297  0.2334  0.0136
  921SOL     OW 3681   2.499   2.622   2.665 -0.2124  0.2847 -0.4497
  921SOL    HW1 3682   2.565   2.641   2.599 -0.8629  0.4622  0.2886
  921SOL    HW2 3683   2.528   2.544   2.705  0.5034 -1.8574  2.2637
  921SOL     MW 3684   2.512   2.614   2.661 -0.2038  0.0255  0.0057
  922SOL     OW 3685   2.042   2.808   0.266 -0.1026 -0.1453  0.7661
  922SOL    HW1 3686   2.012   2.808   0.171  0.9612 -0.2993  1.0893
  922SOL    HW2 3687   2.018   2.715   0.292  0.4779  1.8392 -1.4430
  922SOL     MW 3688   2.035   2.796   0.257  0.1144  0.0962  0.5173
  923SOL     OW 3689   2.214   2.828   1.657  0.2141 -0.3523  0.2054
  923SOL    HW1 3690   2.242   2.775   1.579  2.2102  1.5917  0.4175
  923SOL    HW2 3691   2.191   2.919   1.631 -0.6536 -1.5704  1.9158
  923SOL     MW 3692   2.215   2.833   1.643  0.3630 -0.2565  0.4590
  924SOL     OW 3693   1.170   2.781   2.517  0.1549 -0.1608  0.8506
  924SOL    HW1 3694   1.198   2.867   2.477 -1.1712 -0.1041 -0.2348
  924SOL    HW2 3695   1.242   2.730   2.564  2.0351 -0.8170 -1.1173
  924SOL     MW 3696   1.184   2.786   2.518  0.2280 -0.2399  0.4477
  925SOL     OW 3697   2.947   0.196   2.658 -0.3071  0.1835 -0.8532
  925SOL    HW1 3698   2.982   0.222   2.575 -0.4550 -0.0103  2.5110
  925SOL    HW2 3699   2.893   0.276   2.684 -1.1849 -1.0829 -0.4545
  925SOL     MW 3700   2.944   0.210   2.650 -0.4424 -0.0092 -0.3567
  926SOL     OW 3701   2.688   2.399   2.098  0.6812 -0.1096 -0.1603
  926SOL    HW1 3702   2.754   2.460   2.133  0.1757  0.0503 -2.5759
  926SOL    HW2 3703   2.722   2.401   2.006  0.3812  0.9459  0.4608
  926SOL     MW 3704   2.701   2.408   2.090  0.5749  0.0507 -0.3971
  927SOL     OW 3705   2.360   0.142   0.309  0.0888 -0.2277 -0.1822
  927SOL    HW1 3706   2.452   0.157   0.308 -0.2007  2.4507  1.9931
  927SOL    HW2 3707   2.339   0.109   0.218  1.9475 -0.7464 -3.0882
  927SOL     MW 3708   2.369   0.140   0.297  0.2958  0.0572 -0.2786
  928SOL     OW 3709   1.999   2.496   1.775 -0.2811  0.0137  0.2730
  928SOL    HW1 3710   2.079   2.450   1.740 -1.9694 -1.0110 -1.3414
  928SOL    HW2 3711   2.020   2.553   1.852  1.0304  0.1840  1.6500
  928SOL     MW 3712   2.013   2.497   1.781 -0.3308 -0.0990  0.2417
  929SOL     OW 3713   2.762   2.365   2.468 -0.3075  0.1494  0.3056
  929SOL    HW1 3714   2.786   2.302   2.404  2.1434  2.0972 -3.8349
  929SOL    HW2 3715   2.740   2.318   2.547  0.6160  0.0795  1.2267
  929SOL     MW 3716   2.762   2.351   2.470  0.1377  0.3971 -0.1191
  930SOL     OW 3717   2.029   2.908   2.673  0.0903 -0.1147  0.2410
  930SOL    HW1 3718   2.036   2.836   2.736 -0.1917 -1.4514 -0.8748
  930SOL    HW2 3719   2.123   2.933   2.658 -1.9937  1.5465  1.4404
  930SOL     MW 3720   2.042   2.902   2.679 -0.2219 -0.0719  0.2521
  931SOL     OW 3721   2.940   2.807   2.233  0.4296 -0.5089  0.2323
  931SOL    HW1 3722   3.030   2.809   2.255 -0.8135 -1.3132  0.7732
  931SOL    HW2 3723   2.948   2.823   2.138  1.2791 -0.7486 -1.9317
  931SOL     MW 3724   2.953   2.810   2.224  0.3777 -0.6466  0.0182
  932SOL     OW 3725   2.825   1.929   2.564 -0.5074  0.0776 -0.0561
  932SOL    HW1 3726   2.919   1.945   2.561 -0.1326 -1.9814  0.3084
  932SOL    HW2 3727   2.810   1.926   2.469  0.3906  1.6571 -3.7218
  932SOL     MW 3728   2.835   1.931   2.551 -0.3395  0.0143 -0.4917
  933SOL     OW 3729   2.029   2.812   2.213  0.3168 -0.2754 -0.1053
  933SOL    HW1 3730   2.100   2.869   2.246 -2.8370  2.6674 -0.7482
  933SOL    HW2 3731   1.956   2.875   2.219 -0.3363 -0.6049  1.6661
  933SOL     MW 3732   2.029   2.828   2.218 -0.1855  0.0694  0.0436
  934SOL     OW 3733   2.040   2.718   2.488  0.0353  0.9909  0.0064
  934SOL    HW1 3734   2.033   2.796   2.545 -0.0414  0.0043  3.5790
  934SOL    HW2 3735   2.033   2.738   2.391  0.7937  0.0050  1.0760
  934SOL     MW 3736   2.038   2.731   2.483  0.1253  0.7306  0.6189
  935SOL     OW 3737   2.605   1.556   1.810  0.0903 -0.6524  0.6446
  935SOL    HW1 3738   2.688   1.541   1.768 -3.4853 -0.4913 -0.5252
  935SOL    HW2 3739   2.564   1.571   1.731  3.1403 -0.3075  2.7070
  935SOL     MW 3740   2.610   1.556   1.794  0.0209 -0.5856  0.7624
  936SOL     OW 3741   2.951   2.247   3.059 -0.1340 -0.2248  0.1084
  936SOL    HW1 3742   3.032   2.298   3.083 -0.2511  1.5316  2.2856
  936SOL    HW2 3743   2.878   2.306   3.070  1.7327 -0.0477  2.1589
  936SOL     MW 3744   2.952   2.262   3.064  0.0969  0.0303  0.6662
  937SOL     OW 3745   1.977   2.189   2.618  0.2812 -0.1758 -0.1520
  937SOL    HW1 3746   2.056   2.170   2.669  0.9324 -3.3719 -1.0829
  937SOL    HW2 3747   1.998   2.162   2.525  0.5409  0.7399 -0.9455
  937SOL     MW 3748   1.990   2.183   2.612  0.4014 -0.4766 -0.3795
  938SOL     OW 3749   2.297   1.820   1.901  0.4554 -0.3135  0.2097
  938SOL    HW1 3750   2.264   1.871   1.826 -1.3959 -0.8608 -0.8606
  938SOL    HW2 3751   2.306   1.882   1.969  0.7612 -4.7151 -1.0336
  938SOL     MW 3752   2.294   1.835   1.900  0.2515 -0.9664 -0.0956
  939SOL     OW 3753   2.809   1.942   2.298  0.0215  0.4729  0.4393
  939SOL    HW1 3754   2.811   1.887   2.221  1.9350  0.4697 -1.4883
  939SOL    HW2 3755   2.716   1.974   2.288 -1.3637 -1.4169 -1.4828
  939SOL     MW 3756   2.797   1.939   2.287  0.0912  0.2231 -0.0687
  940SOL     OW 3757   2.305   0.129   2.705  0.9732 -0.3875  0.0218
  940SOL    HW1 3758   2.301   0.036   2.695  0.4343 -0.4910  0.1159
  940SOL    HW2 3759   2.370   0.153   2.771 -3.2658  3.2433 -0.4337
  940SOL     MW 3760   2.313   0.120   2.712  0.3428  0.0779 -0.0259
  941SOL     OW 3761   0.147   2.333   2.056  0.3936 -0.4794 -0.9236
  941SOL    HW1 3762   0.217   2.274   2.042 -2.3435  2.2831  0.8438
  941SOL    HW2 3763   0.082   2.332   1.983  0.4320 -2.6369  2.3090
  941SOL     MW 3764   0.148   2.325   2.044  0.0376 -0.3995 -0.2639
  942SOL     OW 3765   2.873   2.217   2.173 -0.2582 -0.5336  0.4336
  942SOL    HW1 3766   2.795   2.282   2.169 -0.9018  1.4905  0.2468
  942SOL    HW2 3767   2.842   2.144   2.225  0.5887  0.2917 -2.1920
  942SOL     MW 3768   2.858   2.216   2.180 -0.2314 -0.1576  0.0625
  943SOL     OW 3769   0.309   2.029   2.332  1.0652  0.6029 -0.0731
  943SOL    HW1 3770   0.230   2.079   2.370 -0.8095 -0.7892  1.7696
  943SOL    HW2 3771   0.379   2.026   2.399  0.4355 -1.4523  2.2197
  943SOL     MW 3772   0.308   2.035   2.346  0.7348  0.1481  0.4726
  944SOL     OW 3773   2.120   2.631   2.002  0.4466 -0.3657  0.4377
  944SOL    HW1 3774   2.185   2.595   2.066 -0.0221 -2.7100 -0.7248
  944SOL    HW2 3775   2.074   2.702   2.045 -1.5073 -0.8590 -0.7647
  944SOL     MW 3776   2.123   2.636   2.016  0.1270 -0.7401  0.1257
  945SOL     OW 3777   2.766   2.677   2.880  0.1929 -0.1889 -0.2596
  945SOL    HW1 3778   2.717   2.597   2.880  4.3793 -0.6076 -0.2811
  945SOL    HW2 3779   2.804   2.686   2.794 -0.3856  1.1868  0.8889
  945SOL     MW 3780   2.765   2.668   2.868  0.6689 -0.0627 -0.1109
  946SOL     OW 3781   2.511   2.759   2.298 -0.1426 -0.1378 -0.2250
  946SOL    HW1 3782   2.550   2.758   2.209  0.4540  1.4315  0.5775
  946SOL    HW2 3783   2.434   2.710   2.282 -1.6269 -0.2096 -0.8481
  946SOL     MW 3784   2.506   2.752   2.284 -0.2597  0.0598 -0.2013
  947SOL     OW 3785   2.035   3.083   0.303 -0.4529 -0.8524 -1.0767
  947SOL    HW1 3786   2.026   3.000   0.249  2.0735  0.7496 -1.9908
  947SOL    HW2 3787   2.099   3.066   0.375  3.5950 -2.4135  2.9983
  947SOL     MW 3788   2.042   3.070   0.305  0.4145 -0.8470 -0.6596
  948SOL     OW 3789   1.812   3.071   2.629 -0.0369 -0.3795  0.4031
  948SOL    HW1 3790   1.882   3.004   2.644  0.7138  0.3176  3.1828
  948SOL    HW2 3791   1.812   3.087   2.537 -0.3241  1.9387  0.6254
  948SOL     MW 3792   1.821   3.064   2.619  0.0243  0.0183  0.7992
  949SOL     OW 3793   2.553   2.028   2.296  1.0462  0.3787 -0.0457
  949SOL    HW1 3794   2.537   1.944   2.344 -0.7278 -0.0868  0.7524
  949SOL    HW2 3795   2.512   2.091   2.360 -0.3866 -1.5160  0.5394
  949SOL     MW 3796   2.545   2.025   2.311  0.6231  0.0673  0.1368
  950SOL     OW 3797   2.192   2.624   3.034  0.4870 -0.0011 -0.5629
  950SOL    HW1 3798   2.263   2.562   3.005  1.2546 -1.7649 -1.4235
  950SOL    HW2 3799   2.133   2.651   2.961 -0.6530  1.5864  3.4580
  950SOL     MW 3800   2.193   2.620   3.021  0.4379 -0.0243 -0.1460
  951SOL     OW 3801   2.952   2.063   2.815  0.7156  0.0714 -0.1349
  951SOL    HW1 3802   2.955   2.150   2.849  0.6778  0.1033  1.1522
  951SOL    HW2 3803   3.012   2.060   2.734 -0.4545 -1.7587  2.1231
  951SOL     MW 3804   2.960   2.074   2.809  0.5562 -0.1659  0.3328
  952SOL     OW 3805   3.033   1.669   2.054 -0.3460  0.8896 -0.6434
  952SOL    HW1 3806   2.947   1.717   2.044 -1.7561  1.7330  0.8031
  952SOL    HW2 3807   3.100   1.730   2.071 -1.2174 -1.5329  0.6071
  952SOL     MW 3808   3.030   1.683   2.055 -0.6471  0.6813 -0.2876
  953SOL     OW 3809   1.964   1.826   2.878  0.5702 -0.2545  0.3941
  953SOL    HW1 3810   1.883   1.782   2.893  3.5636 -0.3792  3.0455
  953SOL    HW2 3811   1.994   1.771   2.811  3.0587  2.5773  1.2031
  953SOL     MW 3812   1.957   1.813   2.871  1.2935  0.1026  0.8506
  954SOL     OW 3813   2.441   2.101   2.901  0.1935  0.5628 -0.1078
  954SOL    HW1 3814   2.349   2.084   2.864 -0.5021 -2.1634 -3.2031
  954SOL    HW2 3815   2.505   2.066   2.831 -3.1954 -1.5717 -0.2327
  954SOL     MW 3816   2.438   2.094   2.887 -0.3454 -0.0785 -0.5326
  955SOL     OW 3817   1.602   1.616   2.584  0.3798 -0.5001 -0.2210
  955SOL    HW1 3818   1.556   1.620   2.496 -2.1812  0.9106 -3.1223
  955SOL    HW2 3819   1.685   1.673   2.588  0.7050 -0.7903 -0.6340
  955SOL     MW 3820   1.607   1.624   2.573  0.0848 -0.3523 -0.6583
  956SOL     OW 3821   2.616   2.449   2.864 -0.0338  0.9198 -0.6952
  956SOL    HW1 3822   2.642   2.438   2.958  0.2693 -2.1363  0.9616
  956SOL    HW2 3823   2.674   2.377   2.825 -0.4181 -0.7686 -2.9272
  956SOL     MW 3824   2.627   2.438   2.871 -0.0445  0.2938 -0.7711
  957SOL     OW 3825   2.295   2.791   0.399 -0.1779  0.0302 -0.1818
  957SOL    HW1 3826   2.219   2.808   0.332 -1.1849 -3.7479  0.1727
  957SOL    HW2 3827   2.250   2.752   0.481  0.0768  1.5869  0.0459
  957SOL     MW 3828   2.279   2.788   0.401 -0.2772 -0.2629 -0.1050
  958SOL     OW 3829   2.003   2.677   2.822  0.1882 -0.1740 -0.3484
  958SOL    HW1 3830   1.975   2.600   2.765 -1.1288  1.6706 -0.4003
  958SOL    HW2 3831   1.936   2.691   2.886  2.6922 -0.2745 -4.5283
  958SOL     MW 3832   1.990   2.669   2.823  0.3448  0.0561 -0.9067
  959SOL     OW 3833   2.427   2.566   0.321 -0.2590  0.1069 -0.4549
  959SOL    HW1 3834   2.482   2.587   0.247  0.9302 -2.2294 -0.5034
  959SOL    HW2 3835   2.395   2.652   0.362 -2.6437  1.7865  0.5064
  959SOL     MW 3836   2.430   2.580   0.317 -0.4167  0.0202 -0.3345
  960SOL     OW 3837   1.929   2.389   2.304 -0.0560 -0.2930  0.0443
  960SOL    HW1 3838   1.925   2.297   2.301 -1.0308 -0.4792  0.8410
  960SOL    HW2 3839   1.867   2.409   2.377 -3.0556 -1.9834 -0.4652
  960SOL     MW 3840   1.920   2.380   2.313 -0.5803 -0.5406  0.0822
  961SOL     OW 3841   2.216   2.378   2.354 -0.7290 -0.5968  0.0149
  961SOL    HW1 3842   2.128   2.393   2.322 -0.7902 -4.7657 -0.5411
  961SOL    HW2 3843   2.236   2.433   2.435  4.0997 -2.2764 -1.8868
  961SOL     MW 3844   2.207   2.388   2.360 -0.0999 -1.3684 -0.3093
  962SOL     OW 3845   2.199   2.074   2.794  0.5458  0.5867 -0.3887
  962SOL    HW1 3846   2.184   2.027   2.876 -1.1999  2.3663  0.6199
  962SOL    HW2 3847   2.220   2.016   2.722 -1.2628 -3.2260 -0.8443
  962SOL     MW 3848   2.200   2.060   2.796  0.0769  0.3185 -0.3157
  963SOL     OW 3849   1.772   2.588   2.105  0.1353 -0.0814 -0.5916
  963SOL    HW1 3850   1.836   2.541   2.147  0.6543  0.5395 -1.6981
  963SOL    HW2 3851   1.744   2.532   2.038  1.4673  3.5593 -0.7400
  963SOL     MW 3852   1.777   2.574   2.102  0.3795  0.4809 -0.7572
  964SOL     OW 3853   1.826   1.983   2.702  0.4014  0.3314  0.2657
  964SOL    HW1 3854   1.895   2.053   2.670  3.7092  3.2670 -0.4910
  964SOL    HW2 3855   1.857   1.932   2.783 -1.3681 -2.2358 -0.0199
  964SOL     MW 3856   1.839   1.985   2.708  0.6043  0.3800  0.1282
  965SOL     OW 3857   2.199   2.677   0.629  0.1279 -0.3316 -0.4446
  965SOL    HW1 3858   2.152   2.595   0.636  0.2385  1.5598 -1.6982
  965SOL    HW2 3859   2.237   2.700   0.714 -1.3090 -2.3311  2.0645
  965SOL     MW 3860   2.198   2.669   0.641 -0.0471 -0.3459 -0.2789
  966SOL     OW 3861   2.686   2.654   2.465 -0.5051  0.1453  0.1562
  966SOL    HW1 3862   2.632   2.697   2.395 -0.6502 -0.1008 -0.8012
  966SOL    HW2 3863   2.675   2.562   2.442 -0.7921  1.0845 -0.4898
  966SOL     MW 3864   2.677   2.648   2.453 -0.5621  0.2367 -0.0554
  967SOL     OW 3865   2.883   2.991   2.924  0.5149 -0.1230  0.0452
  967SOL    HW1 3866   2.846   2.921   2.972  0.3315 -1.6521 -1.6593
  967SOL    HW2 3867   2.800   3.030   2.879 -0.4354  1.3891  0.3653
  967SOL     MW 3868   2.867   2.987   2.924  0.3653 -0.1253 -0.1375
  968SOL     OW 3869   3.003   2.567   2.986 -0.1826  0.6914  0.0696
  968SOL    HW1 3870   2.919   2.594   2.947 -3.6789  0.2750 -2.7546
  968SOL    HW2 3871   3.018   2.512   2.911 -1.3997 -1.4057  2.3387
  968SOL     MW 3872   2.994   2.563   2.971 -0.8045  0.3598 -0.0037
  969SOL     OW 3873   1.536   2.113   1.723 -0.5378 -0.3882 -0.1997
  969SOL    HW1 3874   1.606   2.048   1.735 -0.8737  2.1883 -1.3874
  969SOL    HW2 3875   1.517   2.140   1.819 -0.1423 -1.7842  3.3872
  969SOL     MW 3876   1.543   2.108   1.737 -0.5299 -0.2324  0.1169
  970SOL     OW 3877   1.641   1.713   1.867 -0.1677  0.3201  0.1502
  970SOL    HW1 3878   1.711   1.694   1.928 -0.9587  0.9396  1.1093
  970SOL    HW2 3879   1.566   1.671   1.914 -2.7518  0.0752 -1.2123
  970SOL     MW 3880   1.640   1.705   1.881 -0.6130  0.3695  0.0970
  971SOL     OW 3881   1.836   0.126   2.362 -0.1316  0.2742 -0.3479
  971SOL    HW1 3882   1.877   0.112   2.281 -3.7737 -2.2230 -1.4217
  971SOL    HW2 3883   1.889   0.198   2.412  1.6538  1.4726  3.5129
  971SOL     MW 3884   1.849   0.134   2.358 -0.3765  0.1028  0.0198
  972SOL     OW 3885   0.281   2.775   2.521 -0.1788 -0.2233 -0.2473
  972SOL    HW1 3886   0.324   2.686   2.535 -0.3200 -0.1266 -0.0054
  972SOL    HW2 3887   0.350   2.845   2.526 -1.0982  1.2040 -3.2166
  972SOL     MW 3888   0.295   2.772   2.523 -0.3187 -0.0222 -0.6072
  973SOL     OW 3889   2.591   0.007   2.054  0.2524 -0.4747  0.0447
  973SOL    HW1 3890   2.566  -0.082   2.057  1.2345  0.7829 -0.9661
  973SOL    HW2 3891   2.580   0.036   1.963  1.2566 -0.2277  0.9323
  973SOL     MW 3892   2.586  -0.001   2.043  0.5144 -0.2762  0.0284
  974SOL     OW 3893   2.119   0.352   2.744  0.1076 -0.6451  0.3066
  974SOL    HW1 3894   2.200   0.298   2.733  0.7591  0.0733  3.0204
  974SOL    HW2 3895   2.064   0.293   2.789  1.6194 -0.7755 -0.9473
  974SOL     MW 3896   2.122   0.337   2.748  0.3930 -0.5675  0.4992
  975SOL     OW 3897   2.250   2.566   2.554 -0.0128 -0.0930  0.5850
  975SOL    HW1 3898   2.338   2.588   2.578 -0.6117  2.0046  1.4932
  975SOL    HW2 3899   2.198   2.642   2.523  0.0508 -1.6848 -2.1564
  975SOL     MW 3900   2.255   2.579   2.553 -0.0834 -0.0263  0.3431
  976SOL     OW 3901   0.217   0.293   1.694  0.0077  1.1919 -0.2566
  976SOL    HW1 3902   0.264   0.236   1.761 -0.2412 -2.7716  2.3410
  976SOL    HW2 3903   0.133   0.243   1.668  1.7148 -0.5045 -0.4874
  976SOL     MW 3904   0.212   0.279   1.699  0.2001  0.4452  0.0557
  977SOL     OW 3905   1.704   2.748   2.486  0.1403 -0.1380  0.3691
  977SOL    HW1 3906   1.718   2.649   2.482  0.3917 -0.3067  1.1032
  977SOL    HW2 3907   1.762   2.773   2.414  1.1065  0.3354  1.4880
  977SOL     MW 3908   1.713   2.738   2.476  0.3009 -0.0978  0.6136
   3.10000   3.10000   3.10000
