977 TIP4P/2005f water molecules t=   0.10000 step= 100
 3908
    1SOL     OW    1   0.192   0.767   0.015  0.3211 -0.5500  0.6222
    1SOL    HW1    2   0.169   0.788  -0.079 -1.5950  0.8103  0.8125
    1SOL    HW2    3   0.227   0.674   0.013  2.5427 -0.2768  1.8846
    1SOL     MW    4   0.194   0.757   0.002  0.3614 -0.3345  0.8139
    2SOL     OW    5   0.335   3.045   1.123  0.1388 -0.2942  0.6934
    2SOL    HW1    6   0.391   3.106   1.077 -0.9606  0.2286 -0.0828
    2SOL    HW2    7   0.244   3.087   1.135 -0.1153  1.8284 -0.7324
    2SOL     MW    8   0.330   3.058   1.118 -0.0398  0.0548  0.4029
    3SOL     OW    9   2.755   0.380   0.869 -0.0278  0.1921  0.1238
    3SOL    HW1   10   2.750   0.468   0.823  0.3306 -0.4744 -3.6340
    3SOL    HW2   11   2.732   0.402   0.967 -1.0439 -0.0478 -0.4187
    3SOL     MW   12   2.751   0.394   0.876 -0.1146  0.0725 -0.4436
    4SOL     OW   13   3.097   1.696   0.697  0.2530  0.8359 -0.9003
    4SOL    HW1   14   3.020   1.728   0.647  0.7089 -0.7479  0.8113
    4SOL    HW2   15   3.155   1.657   0.631 -0.6998  0.9501 -0.6524
    4SOL     MW   16   3.095   1.695   0.682  0.1875  0.6420 -0.6418
    5SOL     OW   17   1.669   1.442   0.515  0.0686 -0.0249 -0.7152
    5SOL    HW1   18   1.740   1.421   0.579 -0.8402 -0.1971  1.8762
    5SOL    HW2   19   1.599   1.405   0.562 -0.0282  2.3027  0.1274
    5SOL     MW   20   1.669   1.434   0.530 -0.0641  0.2595 -0.2621
    6SOL     OW   21   0.845   1.339   0.573  0.1000  0.2447  0.0589
    6SOL    HW1   22   0.759   1.323   0.604  0.6198  0.9767 -0.8122
    6SOL    HW2   23   0.905   1.265   0.606  0.3282 -1.4384  0.4421
    6SOL     MW   24   0.842   1.327   0.581  0.1987  0.1192 -0.0055
    7SOL     OW   25   1.965   1.053   3.053 -0.4915  0.0510  0.6197
    7SOL    HW1   26   2.017   1.104   2.994 -0.6770 -2.4377 -1.2494
    7SOL    HW2   27   1.974   1.084   3.140  0.8316 -0.5062  1.8144
    7SOL     MW   28   1.973   1.064   3.057 -0.3414 -0.3509  0.5307
    8SOL     OW   29   1.018   1.312   1.068 -0.4459  0.0532  0.1928
    8SOL    HW1   30   1.108   1.280   1.079  2.5153 -3.5060  0.2370
    8SOL    HW2   31   0.964   1.233   1.061 -0.9597 -1.9401 -0.3235
    8SOL     MW   32   1.023   1.297   1.068 -0.1230 -0.6794  0.1305
    9SOL     OW   33   0.996   0.499   1.434 -0.0486  0.1674 -0.4475
    9SOL    HW1   34   0.945   0.417   1.437 -0.9988  2.5456  0.8097
    9SOL    HW2   35   1.056   0.484   1.504  0.5849  1.5641 -0.9003
    9SOL     MW   36   0.997   0.486   1.444 -0.0904  0.6654 -0.3414
   10SOL     OW   37   0.307   0.865   0.428 -0.1436  0.3876  0.3974
   10SOL    HW1   38   0.409   0.871   0.417  0.6041  0.9021  1.9826
   10SOL    HW2   39   0.289   0.903   0.514  1.2889 -1.3335  0.2940
   10SOL     MW   40   0.318   0.871   0.438  0.1441  0.2284  0.5929
   11SOL     OW   41   0.924   1.087   1.553 -0.1394  0.0021 -0.4798
   11SOL    HW1   42   0.936   1.109   1.647  1.4134  0.1542 -0.7329
   11SOL    HW2   43   0.834   1.040   1.557 -0.5341  0.7080 -0.8854
   11SOL     MW   44   0.914   1.084   1.566  0.0134  0.1153 -0.5667
   12SOL     OW   45   3.057   1.062   0.865  0.4129  0.6172 -0.5093
   12SOL    HW1   46   3.102   1.127   0.918  1.1734  1.7940 -1.4577
   12SOL    HW2   47   3.050   1.102   0.772 -0.2644  1.4909 -4.1150
   12SOL     MW   48   3.062   1.076   0.859  0.4239  0.8877 -1.1102
   13SOL     OW   49   1.917   1.404   1.442 -0.3940  0.6435 -0.1107
   13SOL    HW1   50   1.953   1.359   1.367  1.7238 -0.2390 -0.5013
   13SOL    HW2   51   1.911   1.491   1.408 -0.9077  0.4351  1.7281
   13SOL     MW   52   1.921   1.410   1.427 -0.1824  0.4996  0.0804
   14SOL     OW   53   0.603   0.387   1.762 -0.3199 -0.1123 -0.0030
   14SOL    HW1   54   0.594   0.299   1.719  0.2436 -1.0936 -1.8766
   14SOL    HW2   55   0.676   0.383   1.825 -0.7808 -1.3241 -1.2623
   14SOL     MW   56   0.611   0.375   1.765 -0.3063 -0.4016 -0.4164
   15SOL     OW   57   2.010   0.562   0.925 -0.0376 -0.0145 -0.5899
   15SOL    HW1   58   2.039   0.545   1.015  0.0255  1.5286 -0.0307
   15SOL    HW2   59   2.086   0.541   0.871 -0.4787 -3.6953  0.8133
   15SOL     MW   60   2.024   0.557   0.929 -0.0875 -0.2966 -0.3310
   16SOL     OW   61   0.149   1.773   0.262  0.5063  0.3899 -0.0430
   16SOL    HW1   62   0.231   1.721   0.267  1.2087 -2.3085  0.7493
   16SOL    HW2   63   0.168   1.850   0.307  1.1434 -0.3877 -1.2980
   16SOL     MW   64   0.162   1.776   0.269  0.6831 -0.0687 -0.1041
   17SOL     OW   65   1.165   0.775   1.464 -0.2873  0.0361  0.3176
   17SOL    HW1   66   1.185   0.819   1.551  0.8712  1.9882  0.4401
   17SOL    HW2   67   1.069   0.787   1.457 -0.5079 -1.9642  1.2799
   17SOL     MW   68   1.155   0.783   1.475 -0.1636  0.0298  0.4607
   18SOL     OW   69   3.096   1.561   0.377 -0.0818 -0.0041 -0.0638
   18SOL    HW1   70   3.140   1.620   0.313  0.2126 -0.7143 -0.9803
   18SOL    HW2   71   3.097   1.480   0.333  0.2533  2.1618 -0.9267
   18SOL     MW   72   3.102   1.558   0.363  0.0012  0.1880 -0.2986
   19SOL     OW   73   0.064   1.237   1.028  0.3099 -0.1654  0.1548
   19SOL    HW1   74   0.137   1.291   0.987 -1.5493  1.6462 -0.9926
   19SOL    HW2   75  -0.010   1.300   1.031  2.0957 -1.1347 -1.0472
   19SOL     MW   76   0.064   1.252   1.023  0.3002 -0.0543 -0.1552
   20SOL     OW   77   0.492   2.195   1.302  0.1411  0.5877  0.4464
   20SOL    HW1   78   0.439   2.150   1.232  0.1687  3.0460  0.1320
   20SOL    HW2   79   0.419   2.226   1.361  0.3663 -0.0418  1.2329
   20SOL     MW   80   0.475   2.193   1.300  0.1745  0.8290  0.5087
   21SOL     OW   81   0.564   0.897   0.360 -0.0300  0.5330 -0.3457
   21SOL    HW1   82   0.606   0.816   0.391 -0.6140 -2.7138  0.7199
   21SOL    HW2   83   0.529   0.868   0.271 -1.3558 -0.6233 -2.1321
   21SOL     MW   84   0.565   0.882   0.353 -0.2820 -0.0479 -0.4408
   22SOL     OW   85   1.591   0.616   1.159 -0.4538 -0.2535 -0.2415
   22SOL    HW1   86   1.634   0.569   1.082 -2.8605 -0.6820 -0.1134
   22SOL    HW2   87   1.512   0.665   1.122 -0.7350 -0.5689  0.3914
   22SOL     MW   88   1.586   0.616   1.144 -0.8084 -0.3516 -0.1411
   23SOL     OW   89   3.067   0.713   0.694 -0.2485  0.4304  0.8650
   23SOL    HW1   90   3.107   0.628   0.690 -0.8195  1.0675 -3.0883
   23SOL    HW2   91   3.129   0.774   0.735 -2.4711 -2.9115 -0.1446
   23SOL     MW   92   3.080   0.710   0.699 -0.6171  0.0736  0.2102
   24SOL     OW   93   2.085   2.232   3.094  0.1493  0.1084  0.7436
   24SOL    HW1   94   2.066   2.198   3.181  2.0649 -0.1349  0.5865
   24SOL    HW2   95   2.127   2.153   3.050  1.6113  0.4504 -1.1148
   24SOL     MW   96   2.088   2.217   3.100  0.5950  0.1214  0.4777
   25SOL     OW   97   0.179   1.468   0.585  0.0358 -0.2978  0.3140
   25SOL    HW1   98   0.113   1.475   0.518  1.9629  0.3444  0.4977
   25SOL    HW2   99   0.259   1.470   0.541 -1.1321 -4.0289  0.7929
   25SOL     MW  100   0.180   1.469   0.570  0.1360 -0.7053  0.4014
   26SOL     OW  101   2.004   1.022   0.404  0.6287 -0.1205  0.3946
   26SOL    HW1  102   1.907   1.034   0.413  1.8118 -1.5157  0.6743
   26SOL    HW2  103   2.024   1.064   0.314  1.9635  1.1653 -0.5730
   26SOL     MW  104   1.994   1.029   0.393  0.9609 -0.1349  0.3038
   27SOL     OW  105   2.002   1.448   0.232 -0.3270  0.7822  0.2847
   27SOL    HW1  106   1.930   1.390   0.256 -0.4348 -0.6091  0.5342
   27SOL    HW2  107   2.025   1.487   0.320  0.6177  1.2670  0.3805
   27SOL     MW  108   1.995   1.445   0.247 -0.2166  0.6626  0.3303
   28SOL     OW  109   0.326   0.961   1.925  0.8792 -0.2215 -0.0205
   28SOL    HW1  110   0.249   0.910   1.952 -3.1160 -1.4373  0.5611
   28SOL    HW2  111   0.365   0.903   1.862 -0.2248 -0.2418  1.0142
   28SOL     MW  112   0.321   0.946   1.920  0.2064 -0.3846  0.1927
   29SOL     OW  113   0.238   1.423   0.905 -0.8227 -0.1891 -0.3347
   29SOL    HW1  114   0.265   1.515   0.937  1.7148 -2.4717  2.1289
   29SOL    HW2  115   0.225   1.438   0.815 -1.3610  0.9206  2.2575
   29SOL     MW  116   0.240   1.437   0.898 -0.5590 -0.3439  0.3323
   30SOL     OW  117   0.909   1.011   1.146  0.1431 -0.3242  0.0081
   30SOL    HW1  118   0.830   1.052   1.179  2.1903  1.4553  1.2565
   30SOL    HW2  119   0.975   1.056   1.199 -1.2821  0.1041 -0.0742
   30SOL     MW  120   0.908   1.022   1.157  0.2252 -0.0329  0.1620
   31SOL     OW  121   0.495   0.247   0.182 -0.1242 -0.2031  1.2322
   31SOL    HW1  122   0.490   0.175   0.249 -1.9237  0.8000 -0.0750
   31SOL    HW2  123   0.473   0.184   0.107 -1.0255  0.4603 -0.6962
   31SOL     MW  124   0.492   0.229   0.181 -0.4805  0.0168  0.8053
   32SOL     OW  125   2.687   1.031   1.133 -0.4734 -0.0783 -0.7963
   32SOL    HW1  126   2.649   0.949   1.162 -0.7772  1.9084 -1.6766
   32SOL    HW2  127   2.785   1.020   1.130  1.1220  2.1699  1.4412
   32SOL     MW  128   2.695   1.019   1.137 -0.3030  0.4805 -0.6172
   33SOL     OW  129   1.789   1.281   0.338 -0.1083  0.1559  0.4088
   33SOL    HW1  130   1.784   1.204   0.400  0.6343 -0.9161  1.8678
   33SOL    HW2  131   1.751   1.350   0.392  1.3053 -1.7978 -0.6656
   33SOL     MW  132   1.783   1.280   0.353  0.1762 -0.2433  0.4596
   34SOL     OW  133   1.277   1.847   1.117  0.1131 -0.2544  0.3605
   34SOL    HW1  134   1.191   1.881   1.138 -0.3739  3.4516 -0.3470
   34SOL    HW2  135   1.333   1.888   1.182 -1.2393 -1.3421  2.4732
   34SOL     MW  136   1.273   1.857   1.128 -0.1296  0.0911  0.5459
   35SOL     OW  137   0.362   0.065   1.878  0.0180 -0.8098  0.0343
   35SOL    HW1  138   0.394   0.022   1.964  2.5064  0.6686  1.9039
   35SOL    HW2  139   0.375   0.001   1.807 -1.5185  0.7573  0.9150
   35SOL     MW  140   0.368   0.051   1.880  0.1436 -0.4080  0.3972
   36SOL     OW  141   1.840   1.909   0.491  0.6197 -0.0350  0.6154
   36SOL    HW1  142   1.851   1.899   0.391 -0.6658 -1.7409  1.6244
   36SOL    HW2  143   1.870   1.823   0.516  0.8224  1.8371 -1.8981
   36SOL     MW  144   1.846   1.896   0.481  0.4768 -0.0131  0.4169
   37SOL     OW  145   1.818   1.988   0.953 -0.2539  0.0648  0.4178
   37SOL    HW1  146   1.767   1.935   0.898 -1.2681  1.9744 -3.2740
   37SOL    HW2  147   1.743   2.031   1.007 -0.9248 -1.8994 -0.7598
   37SOL     MW  148   1.801   1.987   0.953 -0.4763  0.0576 -0.2246
   38SOL     OW  149   2.831   0.918   0.234  0.4681 -0.3499 -0.7498
   38SOL    HW1  150   2.882   0.930   0.310 -1.2892  0.2314 -0.0064
   38SOL    HW2  151   2.894   0.869   0.175  0.8676  0.7318 -0.6402
   38SOL     MW  152   2.846   0.913   0.236  0.2889 -0.1304 -0.6373
   39SOL     OW  153   1.455   0.668   0.795  0.0524  0.5519  0.5147
   39SOL    HW1  154   1.442   0.581   0.830  0.2562 -1.5630  1.6210
   39SOL    HW2  155   1.418   0.713   0.869  1.7771 -1.3050  3.2906
   39SOL     MW  156   1.448   0.662   0.809  0.3068  0.0279  1.0269
   40SOL     OW  157   1.296   1.899   0.237  0.1247 -0.2101  0.1268
   40SOL    HW1  158   1.282   1.822   0.295 -0.9110  1.0434 -1.4706
   40SOL    HW2  159   1.318   1.965   0.302 -0.0662 -0.6609  1.0022
   40SOL     MW  160   1.297   1.898   0.254 -0.0371 -0.1042  0.0315
   41SOL     OW  161   0.608   0.540   1.546  0.4217 -0.3147 -0.1079
   41SOL    HW1  162   0.683   0.601   1.579  1.2251  0.5774 -0.4504
   41SOL    HW2  163   0.611   0.476   1.612 -0.1955  2.0307 -2.0812
   41SOL     MW  164   0.618   0.540   1.559  0.4462  0.1124 -0.4134
   42SOL     OW  165   1.400   3.059   1.973  0.0447  0.3023 -0.5701
   42SOL    HW1  166   1.319   3.081   2.008 -1.0391  0.9392 -0.9000
   42SOL    HW2  167   1.423   2.978   2.019 -1.5455  1.4492 -2.3179
   42SOL     MW  168   1.393   3.051   1.983 -0.3081  0.5377 -0.8442
   43SOL     OW  169   1.579   0.162   1.577  0.5209  0.3595 -0.1172
   43SOL    HW1  170   1.612   0.116   1.503 -0.9734 -0.7954 -0.2698
   43SOL    HW2  171   1.506   0.104   1.612 -2.3087 -0.6820 -0.8228
   43SOL     MW  172   1.574   0.148   1.572 -0.0496  0.0697 -0.2304
   44SOL     OW  173   1.325   0.735   1.079 -0.1763  0.1122 -0.5132
   44SOL    HW1  174   1.322   0.830   1.066 -1.8387  0.3804 -0.1037
   44SOL    HW2  175   1.307   0.715   1.171 -0.3990 -0.9522 -0.3311
   44SOL     MW  176   1.323   0.745   1.089 -0.4251  0.0072 -0.4351
   45SOL     OW  177   1.020   0.812   0.794  0.2269 -0.5140 -0.1836
   45SOL    HW1  178   1.018   0.754   0.873  0.3905 -0.2057 -0.7993
   45SOL    HW2  179   0.955   0.789   0.735  4.6123 -0.6986  2.7915
   45SOL     MW  180   1.012   0.801   0.797  0.8271 -0.4976  0.1277
   46SOL     OW  181   0.614   1.133   0.604 -0.6090 -0.0127  0.0481
   46SOL    HW1  182   0.616   1.142   0.507  0.8929 -0.0916  1.1984
   46SOL    HW2  183   0.699   1.098   0.622 -0.4428  0.8271 -0.4178
   46SOL     MW  184   0.625   1.129   0.593 -0.3889  0.0877  0.1384
   47SOL     OW  185   0.095   1.859   1.816  0.0839  0.8835  0.5786
   47SOL    HW1  186   0.178   1.820   1.793 -0.4933  0.5204 -0.6040
   47SOL    HW2  187   0.100   1.847   1.909  0.2088 -0.2490 -1.7119
   47SOL     MW  188   0.107   1.852   1.826  0.0242  0.6862  0.1203
   48SOL     OW  189   1.048   0.631   1.040  0.3439  0.3684  0.3955
   48SOL    HW1  190   0.993   0.677   1.108 -0.2839 -0.8147  0.5469
   48SOL    HW2  191   1.141   0.656   1.070 -0.5325  0.7427 -2.2275
   48SOL     MW  192   1.053   0.641   1.053  0.1454  0.2617  0.0694
   49SOL     OW  193   1.861   0.752   1.590 -0.3225  0.0044  0.0449
   49SOL    HW1  194   1.776   0.721   1.624 -2.7664 -0.8415 -0.5469
   49SOL    HW2  195   1.907   0.672   1.576 -0.8180  2.5696 -1.6598
   49SOL     MW  196   1.856   0.737   1.593 -0.7103  0.2312 -0.2581
   50SOL     OW  197   1.276   1.011   0.586  0.2286 -0.0615  0.2376
   50SOL    HW1  198   1.245   1.064   0.654  1.2592 -1.2299 -3.3943
   50SOL    HW2  199   1.290   0.926   0.631  1.3922 -2.5555  1.9730
   50SOL     MW  200   1.274   1.007   0.601  0.5181 -0.5447 -0.0126
   51SOL     OW  201   0.294   2.886   0.893  0.2349 -0.3392  0.6432
   51SOL    HW1  202   0.375   2.828   0.905 -1.3203  0.6804  0.6184
   51SOL    HW2  203   0.302   2.953   0.964  0.4259  0.3637  0.9831
   51SOL     MW  204   0.306   2.887   0.904  0.0549 -0.1119  0.6848
   52SOL     OW  205   0.823   1.898   0.450 -0.1955  0.2977 -0.4736
   52SOL    HW1  206   0.780   1.975   0.487  0.3411  0.1912 -2.6309
   52SOL    HW2  207   0.763   1.851   0.390 -0.6758 -0.2509 -0.9927
   52SOL     MW  208   0.810   1.902   0.447 -0.1881  0.2113 -0.8267
   53SOL     OW  209   0.369   2.025   0.606 -0.7878 -0.0784 -0.5635
   53SOL    HW1  210   0.345   2.013   0.517 -0.0742 -0.2295  0.9961
   53SOL    HW2  211   0.352   2.127   0.619 -2.0015 -2.1501 -0.9271
   53SOL     MW  212   0.364   2.037   0.596 -0.8538 -0.3717 -0.4057
   54SOL     OW  213   2.183   0.856   0.832  0.4938  0.0495 -0.3523
   54SOL    HW1  214   2.198   0.811   0.748  0.5967 -1.5287 -0.7437
   54SOL    HW2  215   2.089   0.862   0.844  0.1507  1.4597 -0.9985
   54SOL     MW  216   2.173   0.851   0.823  0.4621  0.0274 -0.4892
   55SOL     OW  217   0.517   1.434   1.546 -0.3654 -0.2894 -0.0706
   55SOL    HW1  218   0.491   1.462   1.457 -1.2983  0.2659  0.7817
   55SOL    HW2  219   0.609   1.398   1.529  1.7106 -0.4314 -1.0523
   55SOL     MW  220   0.526   1.433   1.532 -0.2146 -0.2349 -0.0877
   56SOL     OW  221   0.473   0.814   0.117 -0.2783  0.0692 -0.0960
   56SOL    HW1  222   0.492   0.859   0.039  0.8259  3.0502  0.6967
   56SOL    HW2  223   0.382   0.787   0.108  0.3804 -1.3922 -1.0484
   56SOL     MW  224   0.464   0.816   0.106 -0.0457  0.2697 -0.1171
   57SOL     OW  225   1.257   1.218   1.159 -0.2217 -0.0175 -0.1872
   57SOL    HW1  226   1.352   1.232   1.171 -0.5134 -1.0020 -2.5644
   57SOL    HW2  227   1.224   1.148   1.223  1.3145  0.9398 -0.4796
   57SOL     MW  228   1.265   1.210   1.169 -0.0575 -0.0211 -0.5394
   58SOL     OW  229   0.671   1.076   1.267  0.4623  0.3063 -0.5224
   58SOL    HW1  230   0.613   1.158   1.270  1.1307  0.1603  1.5163
   58SOL    HW2  231   0.663   1.034   1.354  1.8446 -1.3871 -0.8886
   58SOL     MW  232   0.662   1.081   1.279  0.7328  0.0636 -0.3017
   59SOL     OW  233   1.569   1.584   0.293 -0.1783 -0.2150 -0.3575
   59SOL    HW1  234   1.578   1.529   0.365 -2.5490 -1.2311 -0.2524
   59SOL    HW2  235   1.507   1.644   0.329 -1.0213  1.4892 -3.0081
   59SOL     MW  236   1.562   1.584   0.307 -0.6023 -0.1242 -0.6933
   60SOL     OW  237   0.025   0.156   1.715 -0.4144  0.2345 -0.1510
   60SOL    HW1  238  -0.067   0.182   1.703 -1.0416  0.9643 -0.1239
   60SOL    HW2  239   0.024   0.059   1.727 -1.2735 -1.7903  0.7527
   60SOL     MW  240   0.012   0.146   1.715 -0.6105  0.0637 -0.0282
   61SOL     OW  241   2.011   1.474   3.066  0.0934  0.0467 -0.1145
   61SOL    HW1  242   2.033   1.494   3.158 -0.3887  0.0320 -3.1695
   61SOL    HW2  243   2.032   1.381   3.061  1.8766 -2.7381  3.6563
   61SOL     MW  244   2.017   1.465   3.077  0.2651 -0.3227 -0.0200
   62SOL     OW  245   0.590   1.626   0.576  0.0267  0.6205  0.1360
   62SOL    HW1  246   0.664   1.611   0.512 -0.2916  0.3717  1.2245
   62SOL    HW2  247   0.571   1.542   0.626  2.5566 -2.1361  0.6723
   62SOL     MW  248   0.597   1.613   0.574  0.3185  0.2239  0.3504
   63SOL     OW  249   1.719   0.773   0.735 -0.0046 -0.1002 -0.1658
   63SOL    HW1  250   1.721   0.745   0.645  1.6381 -1.9959  0.7919
   63SOL    HW2  251   1.642   0.752   0.782  1.3588 -0.9364 -1.4605
   63SOL     MW  252   1.709   0.767   0.729  0.3920 -0.4606 -0.2103
   64SOL     OW  253   0.288   1.696   0.956  0.2888  0.3405  0.3397
   64SOL    HW1  254   0.339   1.709   0.870  1.2186 -1.8443 -1.7721
   64SOL    HW2  255   0.245   1.780   0.980  3.3573  3.4773 -0.3927
   64SOL     MW  256   0.289   1.709   0.948  0.8163  0.4661 -0.0356
   65SOL     OW  257   1.536   2.216   0.325 -0.3523 -0.1305 -0.1831
   65SOL    HW1  258   1.626   2.189   0.294  2.5147  0.3726 -1.5336
   65SOL    HW2  259   1.547   2.278   0.391 -0.4561 -3.8508 -1.8550
   65SOL     MW  260   1.549   2.221   0.330  0.0123 -0.5550 -0.5818
   66SOL     OW  261   0.282   0.600   0.534  0.0442 -0.4569 -0.5970
   66SOL    HW1  262   0.341   0.556   0.477 -2.1948  1.5628 -0.7747
   66SOL    HW2  263   0.298   0.694   0.528  2.4926 -2.8632 -1.7600
   66SOL     MW  264   0.292   0.607   0.526  0.0718 -0.5079 -0.7739
   67SOL     OW  265   1.556   0.216   2.003  0.3737  0.0545 -0.1489
   67SOL    HW1  266   1.567   0.270   1.925  1.5635 -0.0362 -2.9586
   67SOL    HW2  267   1.528   0.133   1.969 -2.3095  0.5782 -1.0954
   67SOL     MW  268   1.554   0.212   1.988  0.1767  0.1116 -0.6445
   68SOL     OW  269   0.723   0.064   2.958 -0.8421  0.8960  0.0514
   68SOL    HW1  270   0.721   0.086   2.861  3.6629  2.1244 -1.6050
   68SOL    HW2  271   0.729   0.150   3.000  3.3782  2.0904  1.1627
   68SOL     MW  272   0.724   0.078   2.951  0.3091  1.2157 -0.0205
   69SOL     OW  273   1.020   0.152   1.954 -0.1614 -0.3968  0.2923
   69SOL    HW1  274   1.089   0.197   2.004 -1.3995  0.0641 -2.1322
   69SOL    HW2  275   1.021   0.054   1.972 -2.2164 -0.9334  0.1162
   69SOL     MW  276   1.030   0.145   1.963 -0.5959 -0.4068 -0.0508
   70SOL     OW  277   0.591   1.805   1.161 -0.4610 -0.3362  0.1394
   70SOL    HW1  278   0.586   1.717   1.202  0.9900  0.6043  1.1366
   70SOL    HW2  279   0.673   1.804   1.099 -0.3859 -0.8643 -0.1889
   70SOL     MW  280   0.601   1.793   1.158 -0.2596 -0.2818  0.2276
   71SOL     OW  281   1.800   0.687   1.320 -0.1411  0.5489  0.1296
   71SOL    HW1  282   1.777   0.682   1.413 -1.8250 -1.6252  0.6791
   71SOL    HW2  283   1.721   0.672   1.273  0.6973  1.2450 -0.9674
   71SOL     MW  284   1.786   0.684   1.326 -0.2526  0.3539  0.0573
   72SOL     OW  285   0.831   1.830   1.039  0.3474  0.3237  0.3652
   72SOL    HW1  286   0.812   1.881   0.961  0.0221  1.4995 -1.0203
   72SOL    HW2  287   0.837   1.738   1.011  1.0215  2.2545  2.1284
   72SOL     MW  288   0.829   1.825   1.025  0.3935  0.7336  0.4150
   73SOL     OW  289   1.334   0.639   1.326 -0.1703  0.5667  0.2798
   73SOL    HW1  290   1.310   0.549   1.304 -0.3849  1.4722 -0.9886
   73SOL    HW2  291   1.265   0.674   1.387  0.7470  0.6356  0.5328
   73SOL     MW  292   1.322   0.632   1.331 -0.0776  0.6953  0.1458
   74SOL     OW  293   2.788   0.104   1.018 -0.2319  0.1420 -0.1723
   74SOL    HW1  294   2.714   0.065   0.966 -0.7714 -1.1045 -0.3071
   74SOL    HW2  295   2.839   0.158   0.960 -0.0738  0.9248 -1.5106
   74SOL     MW  296   2.785   0.106   1.004 -0.2822  0.0808 -0.3667
   75SOL     OW  297   1.658   1.271   0.100 -0.1342 -0.2392 -0.1200
   75SOL    HW1  298   1.710   1.276   0.188  0.8501 -0.9585  0.0054
   75SOL    HW2  299   1.659   1.170   0.074  1.2458 -0.7232 -0.4544
   75SOL     MW  300   1.665   1.258   0.108  0.1778 -0.3980 -0.1476
   76SOL     OW  301   2.937   0.631   0.463  0.2971  0.1242 -0.0489
   76SOL    HW1  302   2.966   0.655   0.557  0.1804 -1.6670  0.3783
   76SOL    HW2  303   3.016   0.617   0.405  1.3222 -1.2752  1.3224
   76SOL     MW  304   2.951   0.632   0.468  0.4170 -0.2967  0.1884
   77SOL     OW  305   0.916   0.462   0.527 -0.3967 -0.7000  0.1048
   77SOL    HW1  306   0.863   0.538   0.509 -0.3014 -2.2226  0.0169
   77SOL    HW2  307   0.841   0.401   0.525 -1.3443  0.0379  0.2542
   77SOL     MW  308   0.899   0.464   0.525 -0.5091 -0.8035  0.1129
   78SOL     OW  309   0.876   0.746   1.212 -0.6415  0.3889  0.2623
   78SOL    HW1  310   0.783   0.755   1.214 -2.4325  0.2517 -1.7664
   78SOL    HW2  311   0.910   0.835   1.191  0.6104 -0.0309  2.3487
   78SOL     MW  312   0.868   0.759   1.210 -0.7126  0.3154  0.2700
   79SOL     OW  313   1.841   1.659   0.604 -0.4082  0.2749 -0.0694
   79SOL    HW1  314   1.778   1.616   0.546 -0.6341  1.6899  0.9872
   79SOL    HW2  315   1.816   1.656   0.699 -1.3763  0.4720  0.5822
   79SOL     MW  316   1.830   1.653   0.609 -0.5657  0.4876  0.1560
   80SOL     OW  317   0.154   1.053   0.267 -0.0322 -0.4661 -0.2153
   80SOL    HW1  318   0.072   1.018   0.298 -2.4078 -0.7816 -1.1786
   80SOL    HW2  319   0.217   0.991   0.309 -1.0265 -5.3562 -0.2147
   80SOL     MW  320   0.151   1.040   0.277 -0.4768 -1.1529 -0.3423
   81SOL     OW  321   1.917   1.909   0.219  0.1378 -0.2779  0.1651
   81SOL    HW1  322   1.864   1.835   0.183 -2.1689  1.1257  1.5506
   81SOL    HW2  323   1.888   1.997   0.185  2.8382  3.7472 -1.4819
   81SOL     MW  324   1.906   1.911   0.210  0.1897  0.4383  0.1306
   82SOL     OW  325   0.865   0.900   0.550  0.0946  0.9105  0.1596
   82SOL    HW1  326   0.948   0.903   0.499  0.6125  0.8486 -0.7594
   82SOL    HW2  327   0.828   0.820   0.506 -0.8340  0.2774  1.1141
   82SOL     MW  328   0.871   0.890   0.538  0.0404  0.8188  0.1643
   83SOL     OW  329   0.078   0.607   1.380  0.3266  0.9793  0.5926
   83SOL    HW1  330   0.111   0.680   1.335  0.8365  0.1551  3.5503
   83SOL    HW2  331   0.152   0.549   1.378  0.8731 -0.0013 -1.4678
   83SOL     MW  332   0.092   0.609   1.374  0.4660  0.7412  0.7110
   84SOL     OW  333   0.042   0.294   1.070 -0.0741  0.4075  0.2980
   84SOL    HW1  334  -0.007   0.289   0.985  1.8339  1.5700 -0.6171
   84SOL    HW2  335   0.042   0.202   1.101 -1.2970 -0.6115  1.4787
   84SOL     MW  336   0.036   0.281   1.063  0.0163  0.4265  0.3331
   85SOL     OW  337   0.460   0.404   0.720 -0.5905  0.4500 -0.3067
   85SOL    HW1  338   0.396   0.450   0.671  1.6477 -2.2965  1.0838
   85SOL    HW2  339   0.410   0.349   0.782  0.5337 -1.2593  4.1477
   85SOL     MW  340   0.445   0.403   0.722 -0.1468 -0.1379  0.4645
   86SOL     OW  341   1.142   0.424   1.201  0.1650 -0.7031 -0.1908
   86SOL    HW1  342   1.080   0.467   1.132 -2.8456  0.6830  0.8842
   86SOL    HW2  343   1.082   0.422   1.277  1.1241 -0.3948  0.4607
   86SOL     MW  344   1.126   0.429   1.202 -0.1057 -0.4796  0.0370
   87SOL     OW  345   1.268   1.409   1.365  0.2245 -0.2867  0.0868
   87SOL    HW1  346   1.264   1.476   1.295 -3.6147 -0.5241  1.4277
   87SOL    HW2  347   1.264   1.329   1.315  1.5772  2.2965 -1.4320
   87SOL     MW  348   1.267   1.408   1.349 -0.1036  0.0228  0.0633
   88SOL     OW  349   1.367   1.022   1.014  0.3057  0.0520  0.0522
   88SOL    HW1  350   1.455   1.024   1.047  2.2858 -2.1426 -1.3286
   88SOL    HW2  351   1.326   1.095   1.053  1.0830 -2.7890 -0.8384
   88SOL     MW  352   1.373   1.032   1.024  0.6695 -0.6124 -0.2475
   89SOL     OW  353   1.818   0.560   0.291 -0.4020  0.0541 -0.1883
   89SOL    HW1  354   1.883   0.509   0.341  0.7683  0.8378 -1.0207
   89SOL    HW2  355   1.875   0.606   0.224 -0.5086  2.3228  1.2561
   89SOL     MW  356   1.834   0.559   0.289 -0.2616  0.4568 -0.1075
   90SOL     OW  357   0.758   1.239   2.835 -0.3038 -0.0134 -0.1775
   90SOL    HW1  358   0.803   1.182   2.894 -0.9861  0.6468  0.0323
   90SOL    HW2  359   0.742   1.326   2.882 -1.9112  1.1232  1.8839
   90SOL     MW  360   0.762   1.243   2.849 -0.6059  0.2237  0.1222
   91SOL     OW  361   1.960   0.745   0.468 -0.1277 -0.5595 -0.3401
   91SOL    HW1  362   1.982   0.840   0.447  0.7771 -1.5349  0.1280
   91SOL    HW2  363   1.932   0.713   0.378  0.4360  1.3772 -0.1830
   91SOL     MW  364   1.959   0.753   0.453  0.0661 -0.4326 -0.2576
   92SOL     OW  365   1.661   0.747   0.467  0.0564 -0.1008  0.2674
   92SOL    HW1  366   1.566   0.736   0.482 -1.1900 -1.5672 -1.7041
   92SOL    HW2  367   1.698   0.658   0.442  0.1925 -1.4925 -1.4093
   92SOL     MW  368   1.653   0.734   0.465 -0.0901 -0.4779 -0.2140
   93SOL     OW  369   1.005   0.205   0.392  0.6279 -0.2884 -0.1754
   93SOL    HW1  370   0.994   0.284   0.447 -1.4825 -0.0963  1.1505
   93SOL    HW2  371   0.948   0.207   0.318  0.1706 -0.6296  0.2842
   93SOL     MW  372   0.996   0.216   0.390  0.2891 -0.3080  0.0602
   94SOL     OW  373   1.970   1.279   1.698  0.3348 -0.2303  0.0228
   94SOL    HW1  374   1.935   1.297   1.614 -0.1705 -1.8745  0.5540
   94SOL    HW2  375   1.903   1.219   1.724 -3.0424  0.2997  0.1189
   94SOL     MW  376   1.957   1.274   1.690 -0.1775 -0.3773  0.1056
   95SOL     OW  377   0.917   1.569   1.009  0.1534 -0.5013 -0.1918
   95SOL    HW1  378   0.933   1.479   1.027  0.8257  1.3151  0.7034
   95SOL    HW2  379   0.952   1.616   1.090 -1.6465  0.4679  1.2640
   95SOL     MW  380   0.924   1.563   1.022  0.0047 -0.1338  0.1184
   96SOL     OW  381   1.242   1.785   1.698 -0.7720 -0.0475 -0.2869
   96SOL    HW1  382   1.150   1.743   1.696  1.1345 -3.5519 -0.7632
   96SOL    HW2  383   1.293   1.732   1.633 -0.2336  2.2409 -0.3868
   96SOL     MW  384   1.236   1.772   1.689 -0.4494 -0.2079 -0.3629
   97SOL     OW  385   1.240   1.446   0.852  1.1441 -0.0748 -0.4711
   97SOL    HW1  386   1.249   1.473   0.941  0.0877  0.2794  0.0417
   97SOL    HW2  387   1.161   1.499   0.816 -0.5331  0.5141 -0.8887
   97SOL     MW  388   1.231   1.457   0.859  0.7834  0.0496 -0.4586
   98SOL     OW  389   1.537   1.283   1.156 -0.1199 -0.1981 -0.2924
   98SOL    HW1  390   1.546   1.374   1.187 -0.4393 -0.6551  0.0968
   98SOL    HW2  391   1.580   1.278   1.070  0.4292 -0.0937 -0.2642
   98SOL     MW  392   1.544   1.294   1.149 -0.0896 -0.2446 -0.2373
   99SOL     OW  393   1.467   0.381   1.214  0.7361 -0.4857  0.6945
   99SOL    HW1  394   1.497   0.474   1.197  2.2734  2.3119  0.9371
   99SOL    HW2  395   1.465   0.384   1.308 -0.6695 -1.6105 -1.6503
   99SOL     MW  396   1.471   0.393   1.224  0.7535 -0.2650  0.4172
  100SOL     OW  397   1.122   1.065   1.335  0.5318  0.3609 -0.1472
  100SOL    HW1  398   1.053   1.074   1.408  1.0663  1.3738 -0.8210
  100SOL    HW2  399   1.205   1.046   1.382  2.9709 -2.5037 -0.7845
  100SOL     MW  400   1.124   1.063   1.351  0.9241  0.1166 -0.3202
  101SOL     OW  401   0.648   1.167   0.326 -0.2783  0.0378  0.0001
  101SOL    HW1  402   0.608   1.073   0.336 -1.2303  1.5712  0.4802
  101SOL    HW2  403   0.651   1.183   0.232 -2.3721 -1.8674  0.3550
  101SOL     MW  404   0.643   1.157   0.315 -0.6802 -0.0112  0.1103
  102SOL     OW  405   2.927   0.619   0.911  0.3302 -0.7890 -0.0135
  102SOL    HW1  406   3.010   0.644   0.864 -2.2545 -0.9246 -1.2765
  102SOL    HW2  407   2.954   0.584   0.994  1.1956  1.6831  0.1118
  102SOL     MW  408   2.941   0.618   0.916  0.1033 -0.4807 -0.1636
  103SOL     OW  409   1.643   0.346   1.772 -1.0917 -0.1807  0.4060
  103SOL    HW1  410   1.638   0.282   1.704 -0.6774  2.9100 -3.0875
  103SOL    HW2  411   1.740   0.333   1.804  0.3084  1.2335  1.9448
  103SOL     MW  412   1.655   0.336   1.768 -0.8523  0.4137  0.1481
  104SOL     OW  413   0.093   1.830   1.507 -0.1764 -0.0554  0.3316
  104SOL    HW1  414   0.169   1.785   1.481 -0.1424  3.0514  0.4553
  104SOL    HW2  415   0.076   1.806   1.605 -1.2502  0.2811  1.9584
  104SOL     MW  416   0.100   1.821   1.517 -0.3136  0.3989  0.5625
  105SOL     OW  417   0.151   1.167   0.546  0.4040 -0.1219  0.0177
  105SOL    HW1  418   0.209   1.134   0.477  1.1225 -1.3569 -1.2754
  105SOL    HW2  419   0.159   1.260   0.541 -0.2364 -1.8082  1.4250
  105SOL     MW  420   0.159   1.175   0.536  0.4143 -0.5073  0.0328
  106SOL     OW  421   0.848   0.341   0.938  0.1225  0.6941  0.1938
  106SOL    HW1  422   0.778   0.408   0.908 -1.4938  0.3219 -0.1693
  106SOL    HW2  423   0.912   0.338   0.874 -0.2831 -0.3513  2.8959
  106SOL     MW  424   0.847   0.350   0.926 -0.1443  0.5071  0.5024
  107SOL     OW  425   0.785   2.207   3.069 -0.2975  0.1098 -0.4143
  107SOL    HW1  426   0.736   2.161   3.004  1.9729  1.1505  1.4571
  107SOL    HW2  427   0.860   2.151   3.093  0.9118  0.7128  0.4162
  107SOL     MW  428   0.789   2.193   3.064  0.1616  0.3267 -0.0578
  108SOL     OW  429   1.402   1.594   1.552  0.4022  0.2523 -0.3828
  108SOL    HW1  430   1.344   1.524   1.518 -2.8991 -2.2949 -1.6204
  108SOL    HW2  431   1.463   1.551   1.608  1.6924 -2.0159 -2.4303
  108SOL     MW  432   1.403   1.579   1.555  0.1368 -0.3830 -0.8162
  109SOL     OW  433   1.960   0.761   0.168 -0.3990 -0.3188 -0.4753
  109SOL    HW1  434   1.927   0.801   0.088  0.7894  2.3128  3.2021
  109SOL    HW2  435   2.047   0.799   0.178 -0.1778  0.2703  0.1630
  109SOL     MW  436   1.967   0.772   0.159 -0.2130  0.1061  0.0941
  110SOL     OW  437   0.432   1.774   0.744 -0.4776 -0.4139  0.1352
  110SOL    HW1  438   0.491   1.724   0.679  0.5102  0.4359  1.0243
  110SOL    HW2  439   0.384   1.842   0.693  0.0787  1.3197 -2.1875
  110SOL     MW  440   0.434   1.776   0.729 -0.2739 -0.0730 -0.0540
  111SOL     OW  441   0.686   0.928   1.500 -0.1405  0.1711  0.5918
  111SOL    HW1  442   0.728   0.836   1.507  0.8010 -0.8950  0.8519
  111SOL    HW2  443   0.625   0.930   1.572 -1.0634  2.9951  0.7555
  111SOL     MW  444   0.684   0.916   1.510 -0.1380  0.4031  0.6477
  112SOL     OW  445   1.296   1.144   1.600 -0.2091 -0.2563  0.2104
  112SOL    HW1  446   1.230   1.200   1.656 -0.2904  0.1213  1.2642
  112SOL    HW2  447   1.275   1.053   1.619  1.8793  0.3364 -3.2498
  112SOL     MW  448   1.284   1.139   1.610  0.0557 -0.1283 -0.1071
  113SOL     OW  449   1.363   0.050   1.711 -0.2899  0.3447  0.4136
  113SOL    HW1  450   1.377   0.017   1.799  1.3350 -1.1710 -0.5433
  113SOL    HW2  451   1.337  -0.017   1.653  0.2629 -3.3879 -0.8177
  113SOL     MW  452   1.361   0.037   1.715 -0.0026 -0.3478  0.1249
  114SOL     OW  453   0.455   2.816   1.841  0.3913 -0.5084  0.3317
  114SOL    HW1  454   0.458   2.877   1.919 -1.6932  0.9272  1.4454
  114SOL    HW2  455   0.432   2.880   1.772 -1.9881  1.8464  1.3955
  114SOL     MW  456   0.453   2.832   1.842 -0.1977 -0.0083  0.6190
  115SOL     OW  457   0.379   0.850   1.054  0.3112  0.0714 -0.0847
  115SOL    HW1  458   0.431   0.770   1.072  0.1123 -1.1436  0.7367
  115SOL    HW2  459   0.374   0.900   1.140 -0.9418 -0.1757 -1.6852
  115SOL     MW  460   0.385   0.846   1.068  0.1196 -0.1215 -0.1875
  116SOL     OW  461   0.764   0.963   0.911  0.0559  0.4889 -0.2545
  116SOL    HW1  462   0.832   0.956   0.845 -0.3912 -0.1050  1.6626
  116SOL    HW2  463   0.826   0.953   0.987 -0.5603 -2.3646  1.9546
  116SOL     MW  464   0.781   0.961   0.912 -0.0844  0.0340  0.2899
  117SOL     OW  465   1.208   1.179   0.806 -0.3154 -0.7051  0.4297
  117SOL    HW1  466   1.276   1.138   0.865  1.4158  1.6474  1.3505
  117SOL    HW2  467   1.225   1.270   0.824 -0.8323  0.0113 -0.0678
  117SOL     MW  468   1.219   1.186   0.816 -0.1552 -0.3002  0.4855
  118SOL     OW  469   3.097   2.967   1.731 -0.5135 -0.1738 -0.3546
  118SOL    HW1  470   3.137   2.981   1.815  2.1556  1.9173 -1.3218
  118SOL    HW2  471   3.008   2.942   1.741  1.7815  0.4630  1.3740
  118SOL     MW  472   3.091   2.965   1.743  0.1415  0.1861 -0.2542
  119SOL     OW  473   0.490   1.305   1.239  0.5456  0.5713 -0.0606
  119SOL    HW1  474   0.494   1.340   1.148  2.5258 -0.3604 -0.1326
  119SOL    HW2  475   0.391   1.280   1.248 -0.6443 -0.5403 -0.3989
  119SOL     MW  476   0.477   1.306   1.228  0.6499  0.3017 -0.1147
  120SOL     OW  477   0.177   0.596   0.955  0.1202  0.1207  0.0275
  120SOL    HW1  478   0.195   0.554   1.034  0.7357 -0.2629 -2.3691
  120SOL    HW2  479   0.198   0.686   0.963 -1.8443  0.2932 -0.7573
  120SOL     MW  480   0.182   0.603   0.966 -0.0578  0.0928 -0.3923
  121SOL     OW  481   1.806   1.049   1.758 -0.2350  0.0363 -0.5310
  121SOL    HW1  482   1.748   1.025   1.679  0.0656 -0.0601 -2.2318
  121SOL    HW2  483   1.823   0.959   1.794  2.1361  2.5191  0.6326
  121SOL     MW  484   1.800   1.034   1.752  0.1175  0.3512 -0.6019
  122SOL     OW  485   0.096   0.478   0.717 -0.2391 -0.0086 -0.0797
  122SOL    HW1  486   0.152   0.502   0.640 -0.4391  1.3747  1.8936
  122SOL    HW2  487   0.148   0.508   0.796 -1.6995 -1.4874  0.9755
  122SOL     MW  488   0.110   0.485   0.717 -0.4582 -0.0212  0.3199
  123SOL     OW  489   1.729   1.033   0.481  0.2369 -0.0725  0.3762
  123SOL    HW1  490   1.694   0.949   0.457  1.0927  0.2818 -1.8104
  123SOL    HW2  491   1.785   1.031   0.559 -1.1495 -0.0552 -0.9346
  123SOL     MW  492   1.732   1.022   0.488  0.1669 -0.0235 -0.0853
  124SOL     OW  493   0.656   0.533   0.866  0.5940 -0.2890 -0.3033
  124SOL    HW1  494   0.600   0.472   0.819 -0.9086  0.8261 -0.2037
  124SOL    HW2  495   0.630   0.615   0.824  0.5674 -0.8266  1.4693
  124SOL     MW  496   0.645   0.535   0.854  0.3922 -0.2128 -0.0563
  125SOL     OW  497   0.623   1.656   1.675  0.2001  0.7835 -0.3684
  125SOL    HW1  498   0.572   1.602   1.622  0.0114 -0.3484 -0.4423
  125SOL    HW2  499   0.582   1.745   1.679 -0.6076  0.5133 -0.1480
  125SOL     MW  500   0.611   1.660   1.669  0.0686  0.5985 -0.3490
  126SOL     OW  501   2.126   1.615   2.018 -0.1993 -0.2285 -0.6433
  126SOL    HW1  502   2.179   1.692   2.010  0.7852 -2.1370 -3.3373
  126SOL    HW2  503   2.198   1.550   2.031  0.9531  0.8576  1.8369
  126SOL     MW  504   2.143   1.616   2.019  0.0826 -0.3370 -0.6715
  127SOL     OW  505   0.613   0.698   1.877 -0.4766  0.3626  0.0611
  127SOL    HW1  506   0.658   0.615   1.908  0.9961  0.1972  1.7433
  127SOL    HW2  507   0.654   0.774   1.923  0.3745  0.8834  0.9429
  127SOL     MW  508   0.624   0.697   1.887 -0.1700  0.4095  0.3994
  128SOL     OW  509   1.710   0.743   2.846 -0.1577  0.3473  0.8418
  128SOL    HW1  510   1.733   0.697   2.763 -1.3270  1.4221  2.6319
  128SOL    HW2  511   1.698   0.832   2.806  0.2112  0.8509  0.7883
  128SOL     MW  512   1.711   0.749   2.830 -0.2633  0.5555  1.0709
  129SOL     OW  513   1.566   0.873   0.212 -0.8755  0.8331  0.4012
  129SOL    HW1  514   1.479   0.850   0.187 -1.5205 -2.8826 -3.6971
  129SOL    HW2  515   1.605   0.790   0.239  0.5051  1.5424 -0.8963
  129SOL     MW  516   1.560   0.859   0.212 -0.7784  0.4364 -0.3107
  130SOL     OW  517   0.766   1.529   0.336  0.3829 -0.1983  0.1774
  130SOL    HW1  518   0.789   1.455   0.388 -0.2752  3.0321 -0.5885
  130SOL    HW2  519   0.854   1.575   0.323 -0.2071 -1.9288 -2.1646
  130SOL     MW  520   0.781   1.525   0.341  0.2182 -0.0004 -0.2327
  131SOL     OW  521   3.030   0.804   0.080  0.4214  0.2232 -0.1971
  131SOL    HW1  522   3.014   0.874   0.006 -0.6478 -0.0360 -1.2246
  131SOL    HW2  523   3.126   0.795   0.079  0.1746  2.1600  0.6423
  131SOL     MW  524   3.041   0.812   0.070  0.2478  0.4445 -0.2219
  132SOL     OW  525   2.690   0.098   1.282  0.0311 -0.0899 -0.0337
  132SOL    HW1  526   2.729   0.089   1.192  0.7798 -0.4063  0.7295
  132SOL    HW2  527   2.593   0.100   1.275  0.9977 -0.4403 -0.3882
  132SOL     MW  528   2.683   0.097   1.269  0.2574 -0.1779  0.0202
  133SOL     OW  529   1.108   0.222   1.699  0.7267 -0.0797 -0.2012
  133SOL    HW1  530   1.195   0.188   1.703  0.8402 -0.7636  3.1596
  133SOL    HW2  531   1.078   0.204   1.786  1.8466 -1.2307 -0.2566
  133SOL     MW  532   1.116   0.215   1.711  0.8894 -0.3218  0.2349
  134SOL     OW  533   1.383   2.504   1.439 -0.1003  0.2858 -1.1687
  134SOL    HW1  534   1.323   2.571   1.424  0.5331 -0.5147  1.1261
  134SOL    HW2  535   1.441   2.550   1.504 -1.7823 -0.8263  1.3390
  134SOL     MW  536   1.383   2.519   1.445 -0.2386  0.0335 -0.5350
  135SOL     OW  537   3.022   1.016   2.969  0.3533 -0.0627 -0.2137
  135SOL    HW1  538   3.101   1.067   2.971  0.8733  0.3343  1.1168
  135SOL    HW2  539   2.967   1.086   2.998  2.7729 -2.4203  0.0029
  135SOL     MW  540   3.025   1.032   2.973  0.7411 -0.3214 -0.0096
  136SOL     OW  541   0.239   2.076   0.870  0.1031 -0.2404 -0.5159
  136SOL    HW1  542   0.165   2.018   0.899 -0.7486  0.5896 -2.4787
  136SOL    HW2  543   0.268   2.041   0.789 -1.0761  0.1473  3.5259
  136SOL     MW  544   0.233   2.064   0.863 -0.1648 -0.0798 -0.2416
  137SOL     OW  545   0.668   2.079   0.603  0.1109 -0.1976 -0.2228
  137SOL    HW1  546   0.730   2.055   0.672 -0.1888 -1.9793  0.0046
  137SOL    HW2  547   0.589   2.042   0.648  1.3474  0.8198  1.7276
  137SOL     MW  548   0.666   2.071   0.618  0.2345 -0.2984  0.0645
  138SOL     OW  549   0.510   0.608   1.091  0.8443  0.1318 -0.8106
  138SOL    HW1  550   0.425   0.571   1.082  2.5631  0.8389  0.3021
  138SOL    HW2  551   0.553   0.596   1.006  0.2473 -0.0217  1.2479
  138SOL     MW  552   0.504   0.601   1.079  0.9923  0.2049 -0.3922
  139SOL     OW  553   2.710   0.553   1.404  0.1734  0.0652  0.3726
  139SOL    HW1  554   2.731   0.465   1.446 -1.0263 -0.3275  1.5173
  139SOL    HW2  555   2.796   0.600   1.411  3.7803 -0.0545 -0.5641
  139SOL     MW  556   2.724   0.548   1.411  0.4910 -0.0024  0.4001
  140SOL     OW  557   0.871   0.304   2.184 -0.7203  0.2892  0.0980
  140SOL    HW1  558   0.884   0.230   2.113 -0.2399 -1.5329 -3.4676
  140SOL    HW2  559   0.926   0.278   2.253  2.8303  0.8802 -0.6714
  140SOL     MW  560   0.880   0.291   2.184 -0.1884  0.1268 -0.4739
  141SOL     OW  561   1.028   0.672   1.769 -0.5876 -0.0496  0.0505
  141SOL    HW1  562   1.091   0.621   1.717  0.9640 -0.1310 -0.0532
  141SOL    HW2  563   1.082   0.751   1.768 -0.3628 -1.5828  1.2536
  141SOL     MW  564   1.043   0.676   1.762 -0.3532 -0.2626  0.1956
  142SOL     OW  565   0.965   1.125   0.690  0.2669 -0.7343 -0.4259
  142SOL    HW1  566   0.973   1.032   0.677  0.0092  2.5872  0.7140
  142SOL    HW2  567   1.041   1.135   0.750  0.6478 -1.6653  0.5289
  142SOL     MW  568   0.976   1.114   0.696  0.2832 -0.4189 -0.1495
  143SOL     OW  569   1.904   0.889   1.185  0.0477  0.7189 -0.1403
  143SOL    HW1  570   1.893   0.873   1.088  1.9567  0.1125 -0.6239
  143SOL    HW2  571   1.882   0.808   1.237 -3.5086 -1.0654 -0.4941
  143SOL     MW  572   1.900   0.876   1.179 -0.1696  0.4034 -0.2508
  144SOL     OW  573   0.169   1.235   1.526  0.2989 -0.5783 -0.0574
  144SOL    HW1  574   0.264   1.217   1.513  1.2003  0.4797 -0.3411
  144SOL    HW2  575   0.150   1.224   1.622  2.6491  1.4433  2.1689
  144SOL     MW  576   0.179   1.232   1.537  0.7279 -0.1719  0.1989
  145SOL     OW  577   0.275   0.415   1.159 -0.5391  0.2312  0.1093
  145SOL    HW1  578   0.312   0.349   1.219 -2.2897 -1.2046  2.0900
  145SOL    HW2  579   0.203   0.369   1.118  1.6585  1.4090 -1.8954
  145SOL     MW  580   0.271   0.400   1.161 -0.4802  0.1971  0.1061
  146SOL     OW  581   0.863   1.938   1.379 -0.2379  0.2232  0.5355
  146SOL    HW1  582   0.926   1.948   1.302  2.7784 -2.1827 -1.4590
  146SOL    HW2  583   0.774   1.962   1.353 -1.2300 -0.1836 -2.2418
  146SOL     MW  584   0.860   1.943   1.365  0.0292 -0.1479 -0.0941
  147SOL     OW  585   0.429   0.435   2.854 -0.8009 -0.3979 -0.0143
  147SOL    HW1  586   0.375   0.459   2.930 -1.2266  4.4392 -0.1227
  147SOL    HW2  587   0.392   0.489   2.783 -1.6123  3.4142  0.5581
  147SOL     MW  588   0.417   0.445   2.855 -0.9641  0.7433  0.0469
  148SOL     OW  589   0.057   0.883   1.287 -0.4630 -0.0879 -0.2784
  148SOL    HW1  590   0.151   0.867   1.284 -1.4381  0.4643  3.6301
  148SOL    HW2  591   0.044   0.924   1.372 -3.1075 -1.4571 -1.2255
  148SOL     MW  592   0.068   0.886   1.298 -0.9406 -0.1957  0.1123
  149SOL     OW  593   1.431   1.098   1.366 -0.2354  0.0562 -0.1244
  149SOL    HW1  594   1.403   1.134   1.456  1.1276  0.1917 -0.6698
  149SOL    HW2  595   1.496   1.166   1.341  0.4013 -1.1161 -1.1389
  149SOL     MW  596   1.436   1.112   1.374  0.0285 -0.0806 -0.3302
  150SOL     OW  597   1.859   1.359   0.714 -0.3576  0.3243  0.1994
  150SOL    HW1  598   1.892   1.273   0.689  1.5108 -1.0737  0.0085
  150SOL    HW2  599   1.907   1.381   0.793 -1.1879 -1.8378  0.1356
  150SOL     MW  600   1.870   1.351   0.721 -0.2206 -0.1454  0.1658
  151SOL     OW  601   1.620   1.795   0.818  0.2643 -0.1684 -0.3868
  151SOL    HW1  602   1.556   1.815   0.749  1.8575 -0.5456  1.3658
  151SOL    HW2  603   1.563   1.746   0.876  1.2667 -0.6068  1.6940
  151SOL     MW  604   1.604   1.791   0.817  0.6068 -0.2760  0.1190
  152SOL     OW  605   0.768   1.329   1.480  0.1984 -0.0423  0.5125
  152SOL    HW1  606   0.784   1.243   1.448  2.5632 -0.3200  1.6264
  152SOL    HW2  607   0.862   1.359   1.505 -0.5898  2.7593  0.3806
  152SOL     MW  608   0.783   1.321   1.479  0.4064  0.2907  0.6420
  153SOL     OW  609   2.642   1.225   0.717  0.6442 -0.4706 -0.0063
  153SOL    HW1  610   2.708   1.212   0.642  2.3847  0.1938 -2.8607
  153SOL    HW2  611   2.625   1.136   0.729 -1.2936  0.7021 -0.2849
  153SOL     MW  612   2.649   1.211   0.709  0.6182 -0.2282 -0.4196
  154SOL     OW  613   0.307   1.741   1.716 -0.0132  0.1203 -0.4363
  154SOL    HW1  614   0.348   1.735   1.627  0.4727 -0.2427 -4.3598
  154SOL    HW2  615   0.344   1.671   1.778  0.7311 -0.8245  0.0761
  154SOL     MW  616   0.317   1.731   1.713  0.1492 -0.0523 -0.8864
  155SOL     OW  617   1.093   0.716   0.255  0.3029 -0.4353 -0.3162
  155SOL    HW1  618   1.132   0.657   0.317  0.4113  0.3126 -0.5027
  155SOL    HW2  619   1.103   0.807   0.289 -0.6631 -0.0234 -0.6477
  155SOL     MW  620   1.099   0.720   0.268  0.1897 -0.2823 -0.3845
  156SOL     OW  621   1.593   3.027   0.985 -0.3801 -0.1590 -0.3860
  156SOL    HW1  622   1.668   3.089   0.970 -0.4782  0.4956  2.4288
  156SOL    HW2  623   1.625   2.970   1.053 -0.3848  0.0303 -2.3205
  156SOL     MW  624   1.607   3.028   0.992 -0.3937 -0.0476 -0.2699
  157SOL     OW  625   1.400   1.199   0.081  0.3909 -0.3966 -0.4629
  157SOL    HW1  626   1.376   1.167   0.171  2.8291  0.0330 -0.0370
  157SOL    HW2  627   1.491   1.234   0.096 -0.1467 -0.5770  1.6620
  157SOL     MW  628   1.409   1.200   0.095  0.6417 -0.3637 -0.1264
  158SOL     OW  629   0.388   1.634   2.262 -0.3054  0.8641  0.6666
  158SOL    HW1  630   0.340   1.675   2.190  2.7050 -1.3403 -1.4508
  158SOL    HW2  631   0.325   1.609   2.334  0.1080  1.4801  1.3923
  158SOL     MW  632   0.374   1.636   2.262  0.1464  0.6545  0.4830
  159SOL     OW  633   1.250   1.674   0.402  0.1366 -0.9608 -0.1030
  159SOL    HW1  634   1.232   1.589   0.360  0.3554  0.7385  2.2422
  159SOL    HW2  635   1.170   1.682   0.460 -1.8645  1.2163  1.2020
  159SOL     MW  636   1.237   1.664   0.404 -0.0985 -0.4493  0.3786
  160SOL     OW  637   0.421   1.065   1.572 -0.1059 -0.1128  0.7198
  160SOL    HW1  638   0.438   0.984   1.624  2.1567 -1.0558 -1.4097
  160SOL    HW2  639   0.426   1.139   1.634  0.1975  0.4492 -1.0115
  160SOL     MW  640   0.424   1.064   1.587  0.2326 -0.1631  0.2104
  161SOL     OW  641   0.562   2.146   2.653  0.8076  0.3452  0.4137
  161SOL    HW1  642   0.492   2.144   2.725  0.0971 -0.4223 -0.6191
  161SOL    HW2  643   0.531   2.102   2.574  1.8514 -1.1709 -3.2464
  161SOL     MW  644   0.548   2.140   2.652  0.8516  0.0439 -0.2055
  162SOL     OW  645   1.023   1.717   1.837 -0.4094 -0.5901 -0.0471
  162SOL    HW1  646   1.031   1.810   1.844  3.0784  1.6294  0.7699
  162SOL    HW2  647   0.938   1.689   1.860  0.5772  0.5377  3.6646
  162SOL     MW  648   1.013   1.726   1.841  0.1810 -0.1484  0.5504
  163SOL     OW  649   2.158   0.154   1.000  0.2629 -0.3888  0.4096
  163SOL    HW1  650   2.162   0.193   0.909  0.6093  0.3855 -0.9112
  163SOL    HW2  651   2.096   0.088   0.997 -1.3279  0.8943  0.0646
  163SOL     MW  652   2.150   0.150   0.988  0.0987 -0.1174  0.1898
  164SOL     OW  653   0.301   0.210   0.847 -0.1208 -0.6043  0.1587
  164SOL    HW1  654   0.204   0.190   0.850 -0.0930 -2.7500 -0.7704
  164SOL    HW2  655   0.326   0.153   0.777  0.7915  0.3805 -1.3252
  164SOL     MW  656   0.292   0.200   0.838  0.0032 -0.7574 -0.1597
  165SOL     OW  657   1.390   1.193   0.386 -0.1028 -0.1106  0.3811
  165SOL    HW1  658   1.352   1.128   0.441 -1.2244 -0.2044 -2.3846
  165SOL    HW2  659   1.477   1.154   0.369 -2.1779 -0.0598 -0.1630
  165SOL     MW  660   1.397   1.179   0.391 -0.5246 -0.1163 -0.0556
  166SOL     OW  661   0.535   1.103   0.978 -0.1669  0.0286  0.0485
  166SOL    HW1  662   0.507   1.037   1.041  2.2954 -0.9982  0.4837
  166SOL    HW2  663   0.623   1.064   0.948  3.6357  0.8076  0.8119
  166SOL     MW  664   0.543   1.089   0.982  0.6597 -0.0041  0.2066
  167SOL     OW  665   0.956   1.168   0.356 -0.1998  0.0842 -0.1603
  167SOL    HW1  666   0.859   1.198   0.372 -2.5033  0.2082 -0.1249
  167SOL    HW2  667   0.966   1.160   0.255  2.7425  3.8431 -1.5469
  167SOL     MW  668   0.945   1.171   0.344 -0.1155  0.5965 -0.3386
  168SOL     OW  669   1.689   1.753   2.914  0.0361  0.6264 -0.3290
  168SOL    HW1  670   1.650   1.831   2.957 -0.0172 -1.0159 -0.7139
  168SOL    HW2  671   1.737   1.712   2.988  2.6116  1.0284  1.0965
  168SOL     MW  672   1.690   1.758   2.929  0.3689  0.4627 -0.1917
  169SOL     OW  673   0.330   0.978   1.287  0.0453 -0.4172  0.4637
  169SOL    HW1  674   0.377   0.992   1.369  2.1705 -0.4837  2.8758
  169SOL    HW2  675   0.273   1.059   1.281 -0.7095  1.4043 -2.6897
  169SOL     MW  676   0.329   0.990   1.297  0.2261 -0.1857  0.3659
  170SOL     OW  677   1.020   1.444   1.520 -0.3054 -0.0573 -0.6227
  170SOL    HW1  678   0.960   1.517   1.506  0.4848 -1.1378 -1.3136
  170SOL    HW2  679   1.078   1.430   1.448  1.5037 -1.6501 -0.5238
  170SOL     MW  680   1.019   1.451   1.508  0.0376 -0.4100 -0.7008
  171SOL     OW  681   0.564   1.387   0.681  0.0892  0.2286  0.0030
  171SOL    HW1  682   0.578   1.391   0.775  0.0295 -1.5896 -1.4700
  171SOL    HW2  683   0.548   1.290   0.659 -0.3669 -1.5634  1.5654
  171SOL     MW  684   0.564   1.375   0.691  0.0211 -0.2477  0.0148
  172SOL     OW  685   0.843   0.307   1.197  0.3299  0.3559  0.0546
  172SOL    HW1  686   0.838   0.333   1.106  0.6930 -0.5587 -0.5895
  172SOL    HW2  687   0.767   0.340   1.242 -0.6046 -0.9927 -1.3226
  172SOL     MW  688   0.832   0.315   1.191  0.2545  0.0573 -0.2121
  173SOL     OW  689   0.409   1.649   0.353 -0.1405  0.6694 -0.1219
  173SOL    HW1  690   0.414   1.563   0.320  0.4550  0.0193 -0.9680
  173SOL    HW2  691   0.467   1.655   0.429  1.7799 -1.1729 -0.2712
  173SOL     MW  692   0.417   1.639   0.359  0.1914  0.3406 -0.2532
  174SOL     OW  693   2.024   0.955   1.514 -0.0400  0.4857  0.6423
  174SOL    HW1  694   1.955   0.890   1.547 -0.0562 -1.1933 -0.7076
  174SOL    HW2  695   1.968   1.009   1.465 -0.4450 -0.0477 -0.5448
  174SOL     MW  696   2.007   0.953   1.512 -0.0956  0.1938  0.3076
  175SOL     OW  697   0.366   1.358   0.383 -0.0409 -0.2647 -0.1120
  175SOL    HW1  698   0.358   1.367   0.288  2.8732  2.1358  1.1896
  175SOL    HW2  699   0.458   1.323   0.389  0.3146 -0.6652 -1.8066
  175SOL     MW  700   0.377   1.355   0.371  0.3905 -0.0008 -0.1639
  176SOL     OW  701   0.214   1.232   1.254 -0.4634 -0.2209 -0.0832
  176SOL    HW1  702   0.149   1.234   1.184  0.8647 -2.6591  0.1085
  176SOL    HW2  703   0.177   1.283   1.327 -0.1813  3.3296  3.6584
  176SOL     MW  704   0.200   1.239   1.254 -0.2510 -0.0741  0.4357
  177SOL     OW  705   0.621   0.434   1.316 -0.7399  0.3303  0.4366
  177SOL    HW1  706   0.587   0.495   1.252  0.8105 -0.8147  2.4282
  177SOL    HW2  707   0.645   0.477   1.400 -0.9833 -0.1885  1.2098
  177SOL     MW  708   0.620   0.448   1.318 -0.5674  0.1108  0.8014
  178SOL     OW  709   3.104   0.415   3.027  0.6038 -0.5637 -0.2119
  178SOL    HW1  710   3.056   0.459   3.103  0.6851 -3.1461 -0.6884
  178SOL    HW2  711   3.049   0.439   2.957 -0.5354 -1.1536  0.7408
  178SOL     MW  712   3.091   0.424   3.028  0.4642 -0.9822 -0.1491
  179SOL     OW  713   1.638   1.322   1.474  0.4672  0.0232 -0.6091
  179SOL    HW1  714   1.626   1.378   1.557 -0.0430  1.8539 -0.7355
  179SOL    HW2  715   1.722   1.349   1.439 -0.8976 -1.8002 -0.3080
  179SOL     MW  716   1.648   1.333   1.481  0.2198  0.0242 -0.5861
  180SOL     OW  717   2.991   0.299   0.487  0.0395 -0.1635 -0.0586
  180SOL    HW1  718   2.938   0.309   0.403  0.4074 -0.3941  2.2266
  180SOL    HW2  719   2.999   0.390   0.522  0.3670  2.6368 -0.1021
  180SOL     MW  720   2.985   0.313   0.480  0.1313  0.1755  0.2372
  181SOL     OW  721   1.146   1.370   3.037  0.2898  0.3048 -0.2017
  181SOL    HW1  722   1.225   1.412   3.065  1.9681 -0.0496  1.4314
  181SOL    HW2  723   1.164   1.334   2.953 -0.5123  0.1135  0.3052
  181SOL     MW  724   1.159   1.370   3.030  0.4054  0.2328  0.0806
  182SOL     OW  725   0.463   0.825   1.698  0.2032 -0.7786 -0.6187
  182SOL    HW1  726   0.399   0.772   1.658  0.8922 -0.4725  1.3937
  182SOL    HW2  727   0.515   0.769   1.749 -1.2725 -2.6774 -0.7220
  182SOL     MW  728   0.461   0.811   1.699  0.0994 -0.9887 -0.3668
  183SOL     OW  729   1.581   1.525   1.289  0.2048  0.4378  0.3492
  183SOL    HW1  730   1.489   1.545   1.317 -2.2740 -0.3655  0.4200
  183SOL    HW2  731   1.607   1.445   1.344 -0.7137 -1.5476 -1.0733
  183SOL     MW  732   1.572   1.517   1.300 -0.2435  0.0698  0.1709
  184SOL     OW  733   0.795   0.492   1.963 -0.7941  0.4813  0.0418
  184SOL    HW1  734   0.879   0.540   1.947  1.7728  2.1779  2.1163
  184SOL    HW2  735   0.797   0.475   2.057  2.5237 -1.0064  3.7912
  184SOL     MW  736   0.806   0.496   1.973 -0.0176  0.5089  0.8102
  185SOL     OW  737   1.131   0.912   1.962  0.2823  0.0004 -0.0261
  185SOL    HW1  738   1.099   0.837   2.011  0.3806  1.1562  0.1879
  185SOL    HW2  739   1.175   0.977   2.025 -1.9573  1.2356 -1.5557
  185SOL     MW  740   1.132   0.910   1.976 -0.0002  0.3159 -0.1997
  186SOL     OW  741   0.356   1.761   1.454 -0.2264 -0.6528  0.3221
  186SOL    HW1  742   0.433   1.805   1.424 -0.6806 -0.5483 -2.9732
  186SOL    HW2  743   0.325   1.719   1.376  0.5501 -0.8401 -1.6205
  186SOL     MW  744   0.362   1.762   1.440 -0.1839 -0.6637 -0.3690
  187SOL     OW  745   1.522   0.708   1.501  0.2814 -0.7087  0.0079
  187SOL    HW1  746   1.477   0.716   1.587  0.1015 -1.0527 -0.3876
  187SOL    HW2  747   1.455   0.680   1.441  1.5236  0.7507  0.0905
  187SOL     MW  748   1.508   0.705   1.504  0.4216 -0.5615 -0.0333
  188SOL     OW  749   1.917   1.081   0.698 -0.2407 -0.0364 -0.1957
  188SOL    HW1  750   1.923   1.045   0.783  0.8983  0.5258 -0.2923
  188SOL    HW2  751   2.002   1.073   0.656  2.4134  2.1775  1.9840
  188SOL     MW  752   1.929   1.075   0.703  0.2598  0.3299  0.0791
  189SOL     OW  753   0.628   0.774   0.762 -0.4286 -0.2176 -0.0947
  189SOL    HW1  754   0.553   0.831   0.781 -1.2481  1.4735  2.6988
  189SOL    HW2  755   0.711   0.798   0.808  0.9786 -1.2869  2.0075
  189SOL     MW  756   0.629   0.785   0.771 -0.3511 -0.1356  0.5512
  190SOL     OW  757   1.874   0.362   1.966 -0.4510  0.6006  0.3438
  190SOL    HW1  758   1.938   0.302   2.010  1.1393 -0.8936  0.7015
  190SOL    HW2  759   1.930   0.436   1.934 -1.3893 -0.0833 -0.2136
  190SOL     MW  760   1.890   0.364   1.967 -0.3650  0.3133  0.3174
  191SOL     OW  761   1.627   0.970   1.512  0.3656 -0.4709  0.4637
  191SOL    HW1  762   1.544   1.011   1.481  3.3949 -1.5872  0.8186
  191SOL    HW2  763   1.609   0.878   1.494 -0.0250  1.2332  0.7210
  191SOL     MW  764   1.613   0.963   1.505  0.7137 -0.3933  0.5445
  192SOL     OW  765   0.681   2.035   2.878  0.1089 -0.2557  0.2900
  192SOL    HW1  766   0.645   2.068   2.792 -0.3254  1.1709 -0.3238
  192SOL    HW2  767   0.677   1.937   2.876  0.0261 -1.6246  0.8746
  192SOL     MW  768   0.676   2.026   2.866  0.0407 -0.2481  0.2862
  193SOL     OW  769   0.986   1.538   0.727 -0.3359  0.0183 -0.6114
  193SOL    HW1  770   0.937   1.542   0.805 -0.5479 -1.8182 -1.3802
  193SOL    HW2  771   0.943   1.468   0.676  0.8018  3.0313 -1.2426
  193SOL     MW  772   0.974   1.530   0.731 -0.2137  0.1735 -0.7961
  194SOL     OW  773   0.504   1.359   0.965  0.1893  0.5142  0.2515
  194SOL    HW1  774   0.519   1.268   0.966 -0.7311  0.8965  1.1525
  194SOL    HW2  775   0.410   1.365   0.957 -0.1181  0.5167  1.9293
  194SOL     MW  776   0.494   1.348   0.964  0.0273  0.5650  0.5917
  195SOL     OW  777   1.314   1.142   2.925  0.4884 -0.0417  0.5042
  195SOL    HW1  778   1.373   1.164   2.999 -0.7191 -0.6059  1.4666
  195SOL    HW2  779   1.242   1.085   2.962  0.5748 -1.5261  0.9816
  195SOL     MW  780   1.312   1.137   2.939  0.3405 -0.3120  0.6942
  196SOL     OW  781   2.212   1.055   0.601  0.0613 -0.7769  0.1155
  196SOL    HW1  782   2.166   1.032   0.516  2.1799 -1.9147  0.6765
  196SOL    HW2  783   2.222   1.153   0.599  1.1683 -1.3185 -1.8745
  196SOL     MW  784   2.207   1.065   0.590  0.4869 -0.9985 -0.0730
  197SOL     OW  785   0.542   1.195   1.962  0.5815  0.5685  0.7356
  197SOL    HW1  786   0.530   1.105   1.974 -0.9787  4.0745  0.2800
  197SOL    HW2  787   0.508   1.217   1.878 -3.5470  0.0907  0.8021
  197SOL     MW  788   0.536   1.186   1.953 -0.1691  0.9680  0.6842
  198SOL     OW  789   2.918   1.391   1.079  0.9804 -0.9041 -0.1037
  198SOL    HW1  790   2.923   1.484   1.045 -0.6462  0.8112  0.8478
  198SOL    HW2  791   2.839   1.359   1.041 -1.2454  2.5052 -2.3421
  198SOL     MW  792   2.909   1.399   1.069  0.4721 -0.2279 -0.2735
  199SOL     OW  793   0.425   1.286   1.738  0.3284 -0.1017  0.0771
  199SOL    HW1  794   0.325   1.277   1.759 -1.4887 -1.2801 -1.0943
  199SOL    HW2  795   0.439   1.341   1.650 -1.6423  1.7708 -0.3056
  199SOL     MW  796   0.413   1.292   1.729 -0.1714 -0.0101 -0.1279
  200SOL     OW  797   1.944   3.013   1.281  0.2057  0.5030  0.8568
  200SOL    HW1  798   1.955   3.044   1.191 -0.4050  2.2528  0.4300
  200SOL    HW2  799   1.857   3.045   1.304 -1.9648 -0.9759 -2.5649
  200SOL     MW  800   1.934   3.022   1.272 -0.1613  0.5388  0.3490
  201SOL     OW  801   1.059   0.304   0.760  0.3503  0.3554  0.0679
  201SOL    HW1  802   1.089   0.213   0.745  2.0928 -2.6260 -0.1094
  201SOL    HW2  803   1.077   0.354   0.678  1.0125 -0.8317  0.8343
  201SOL     MW  804   1.065   0.298   0.747  0.6676 -0.1946  0.1456
  202SOL     OW  805   1.580   1.583   1.015  0.7028 -0.5407 -0.0967
  202SOL    HW1  806   1.616   1.504   0.975 -0.4836  0.0927  0.5970
  202SOL    HW2  807   1.590   1.562   1.108  2.6511 -0.1681 -0.8409
  202SOL     MW  808   1.586   1.570   1.022  0.8033 -0.4080 -0.1034
  203SOL     OW  809   2.999   0.479   1.213  0.2389  0.1628 -0.1792
  203SOL    HW1  810   3.029   0.391   1.170 -2.4834 -1.3289  1.8758
  203SOL    HW2  811   3.072   0.515   1.262  4.1073  2.0758  1.3608
  203SOL     MW  812   3.013   0.472   1.214  0.3901  0.2184  0.2951
  204SOL     OW  813   1.052   1.772   0.581  0.0655 -0.2174  0.4265
  204SOL    HW1  814   1.011   1.702   0.638  1.1143 -0.7184  0.0088
  204SOL    HW2  815   0.980   1.813   0.531  0.6975 -1.1888  0.5117
  204SOL     MW  816   1.037   1.768   0.582  0.2873 -0.4117  0.3826
  205SOL     OW  817   1.433   0.058   1.222 -0.6285 -0.5620  0.4462
  205SOL    HW1  818   1.406   0.031   1.137 -2.2850  0.0147  1.0544
  205SOL    HW2  819   1.414   0.153   1.234 -2.0295  0.7138 -2.1132
  205SOL     MW  820   1.427   0.067   1.212 -1.0319 -0.3176  0.1887
  206SOL     OW  821   0.493   3.102   1.361  0.3353  0.3120 -0.4810
  206SOL    HW1  822   0.444   3.054   1.297 -1.3927  1.3415  0.3386
  206SOL    HW2  823   0.561   3.036   1.399 -0.4563  0.1039  1.3309
  206SOL     MW  824   0.496   3.087   1.358  0.0029  0.4204 -0.1338
  207SOL     OW  825   0.997   1.604   0.233 -0.1359  0.5036 -0.2506
  207SOL    HW1  826   1.025   1.693   0.211 -2.4222 -2.6084  0.0130
  207SOL    HW2  827   1.077   1.546   0.243  0.4211 -3.2240 -0.5744
  207SOL     MW  828   1.011   1.608   0.232 -0.3641 -0.3988 -0.2585
  208SOL     OW  829   0.609   1.570   1.291  0.1946 -0.5293 -0.4964
  208SOL    HW1  830   0.692   1.596   1.333  1.7042  1.9198 -0.2567
  208SOL    HW2  831   0.611   1.480   1.286  0.4753  0.4306 -0.1780
  208SOL     MW  832   0.620   1.562   1.296  0.4308 -0.0795 -0.4228
  209SOL     OW  833   1.509   0.547   2.798  0.0460 -0.4115  0.0919
  209SOL    HW1  834   1.560   0.617   2.836 -1.6796 -0.6784  0.2404
  209SOL    HW2  835   1.576   0.483   2.783 -1.8729  0.3695 -0.1662
  209SOL     MW  836   1.524   0.548   2.801 -0.4349 -0.3437  0.0774
  210SOL     OW  837   1.632   1.326   0.899  0.2395 -0.4388  0.7977
  210SOL    HW1  838   1.702   1.339   0.837 -0.7929  1.4024  2.0107
  210SOL    HW2  839   1.552   1.309   0.849 -0.5573  0.5775 -0.4967
  210SOL     MW  840   1.631   1.325   0.884 -0.0019 -0.0618  0.7869
  211SOL     OW  841   1.714   0.493   0.942 -0.2995  0.0292 -0.7041
  211SOL    HW1  842   1.694   0.509   0.847  1.3656 -1.0988  2.6764
  211SOL    HW2  843   1.811   0.503   0.947 -0.4584  0.8711  1.1533
  211SOL     MW  844   1.724   0.497   0.930 -0.1007 -0.0085 -0.0130
  212SOL     OW  845   0.315   1.115   0.030 -0.4756 -0.8229 -0.6116
  212SOL    HW1  846   0.274   1.076   0.113  1.6585  1.5370 -0.3395
  212SOL    HW2  847   0.403   1.070   0.020 -0.4517  0.7946  0.6310
  212SOL     MW  848   0.321   1.104   0.040 -0.1908 -0.2981 -0.4117
  213SOL     OW  849   0.512   1.702   3.076 -0.1010 -0.3587  0.0733
  213SOL    HW1  850   0.527   1.762   3.157 -0.8016  0.6926 -0.1443
  213SOL    HW2  851   0.577   1.728   3.006  0.5688  0.5701 -0.7962
  213SOL     MW  852   0.522   1.713   3.078 -0.1051 -0.0974 -0.0701
  214SOL     OW  853   0.609   0.232   2.277 -0.2228  0.0600 -0.0819
  214SOL    HW1  854   0.549   0.294   2.225 -1.4192  0.8814 -0.2849
  214SOL    HW2  855   0.701   0.248   2.246  2.2043 -0.4706 -1.1416
  214SOL     MW  856   0.613   0.242   2.266 -0.0604  0.0983 -0.2485
  215SOL     OW  857   0.505   0.679   2.608  0.1959 -0.5117 -0.3577
  215SOL    HW1  858   0.511   0.658   2.516 -0.4324 -0.5487  0.3277
  215SOL    HW2  859   0.412   0.654   2.634  1.8866 -1.2090 -0.3397
  215SOL     MW  860   0.493   0.673   2.600  0.3361 -0.6086 -0.2649
  216SOL     OW  861   3.074   0.003   2.829  0.0125  0.3791 -0.3002
  216SOL    HW1  862   2.983  -0.015   2.855  2.0297 -2.7903 -4.0009
  216SOL    HW2  863   3.082   0.091   2.805 -0.8654 -3.6998 -1.5456
  216SOL     MW  864   3.063   0.012   2.829  0.1628 -0.5772 -0.9528
  217SOL     OW  865   0.972   1.157   0.068 -0.4945 -0.0394 -0.1288
  217SOL    HW1  866   1.022   1.104   0.005  1.7772 -3.0192  0.2942
  217SOL    HW2  867   1.039   1.230   0.080  4.2430  1.1232 -0.0872
  217SOL     MW  868   0.988   1.160   0.062  0.4303 -0.2792 -0.0675
  218SOL     OW  869   0.927   1.320   2.474  0.0766 -0.0403 -0.4163
  218SOL    HW1  870   0.932   1.242   2.532 -0.7370  0.8920 -0.5920
  218SOL    HW2  871   0.999   1.385   2.504  0.3718  2.9910  1.2744
  218SOL     MW  872   0.937   1.318   2.486  0.0082  0.4827 -0.2164
  219SOL     OW  873   1.035   0.387   2.571  0.1365  0.8819  0.2948
  219SOL    HW1  874   1.061   0.479   2.563 -1.7521  0.1668 -3.1659
  219SOL    HW2  875   0.955   0.393   2.617  0.7238 -1.6170 -0.8983
  219SOL     MW  876   1.028   0.400   2.576 -0.0352  0.4578 -0.3192
  220SOL     OW  877   1.746   0.553   2.173 -0.6495 -0.0408 -0.2047
  220SOL    HW1  878   1.662   0.588   2.166  0.6962 -0.4402  0.2338
  220SOL    HW2  879   1.761   0.531   2.079  2.6301 -2.3595 -1.1957
  220SOL     MW  880   1.737   0.555   2.160 -0.0393 -0.3994 -0.2776
  221SOL     OW  881   0.388   1.439   2.931  0.0492  0.6191  0.3081
  221SOL    HW1  882   0.397   1.343   2.932  0.7519 -1.8251  2.5907
  221SOL    HW2  883   0.404   1.468   2.840 -0.6433  2.9590 -0.8333
  221SOL     MW  884   0.391   1.430   2.919  0.0505  0.6054  0.4587
  222SOL     OW  885   0.411   0.939   2.672  0.0339  0.4158  0.0467
  222SOL    HW1  886   0.344   0.951   2.597  1.7493 -0.6348 -0.9766
  222SOL    HW2  887   0.466   0.868   2.638 -0.9989  3.9042 -1.8465
  222SOL     MW  888   0.409   0.931   2.658  0.1240  0.7374 -0.3381
  223SOL     OW  889   3.050   2.014   2.669  0.5678  0.3115 -0.4638
  223SOL    HW1  890   3.128   1.964   2.688  0.8111 -1.5378  3.0168
  223SOL    HW2  891   3.065   2.085   2.607  2.9041 -1.3222  0.4797
  223SOL     MW  892   3.062   2.016   2.663  0.9081 -0.1480  0.1199
  224SOL     OW  893   1.546   0.786   2.590  0.2085 -0.0784  0.4446
  224SOL    HW1  894   1.488   0.792   2.673 -3.3809 -0.5842 -0.7590
  224SOL    HW2  895   1.536   0.871   2.556 -0.2905 -0.9492 -0.9342
  224SOL     MW  896   1.537   0.798   2.596 -0.3309 -0.2600  0.1039
  225SOL     OW  897   2.984   1.479   2.279  0.3722 -0.9174  0.1089
  225SOL    HW1  898   2.998   1.530   2.199 -1.5782 -0.5037 -0.9688
  225SOL    HW2  899   2.926   1.538   2.321 -0.7337 -3.0636 -0.4751
  225SOL     MW  900   2.979   1.493   2.274 -0.0310 -1.1460 -0.1104
  226SOL     OW  901   0.435   1.524   2.674  0.2830 -0.3855  0.0634
  226SOL    HW1  902   0.508   1.504   2.621  0.8034 -2.2758 -1.9360
  226SOL    HW2  903   0.399   1.607   2.646 -0.5168  0.6940 -1.4559
  226SOL     MW  904   0.440   1.532   2.663  0.2461 -0.4925 -0.4009
  227SOL     OW  905   0.439   1.162   2.821 -0.6464 -0.3608  0.2971
  227SOL    HW1  906   0.477   1.230   2.765 -0.4282 -2.7888 -1.3910
  227SOL    HW2  907   0.451   1.078   2.772 -1.5188  3.6475  1.6599
  227SOL     MW  908   0.446   1.160   2.807 -0.7327 -0.1523  0.2542
  228SOL     OW  909   0.674   0.922   1.987  0.0613  0.0483  0.0765
  228SOL    HW1  910   0.765   0.960   1.983  0.7820 -0.1396 -1.2547
  228SOL    HW2  911   0.645   0.920   2.082  0.7421  1.1948  2.2860
  228SOL     MW  912   0.682   0.927   1.999  0.2462  0.1748  0.1924
  229SOL     OW  913   0.272   0.480   3.059 -0.0124  0.3113 -0.2715
  229SOL    HW1  914   0.178   0.444   3.033 -3.3642  0.2326 -1.2860
  229SOL    HW2  915   0.287   0.454   3.153  1.4204 -2.3127 -0.0053
  229SOL     MW  916   0.262   0.472   3.068 -0.2656 -0.0453 -0.3702
  230SOL     OW  917   1.712   1.382   2.108  0.9187 -0.1037  0.2145
  230SOL    HW1  918   1.689   1.372   2.198 -0.1191 -1.1982  1.0205
  230SOL    HW2  919   1.768   1.303   2.089  0.6015  2.2449 -0.4318
  230SOL     MW  920   1.717   1.370   2.117  0.7399  0.0618  0.2356
  231SOL     OW  921   2.821   1.256   2.211 -0.0210 -0.6473  0.7186
  231SOL    HW1  922   2.895   1.314   2.227 -3.0510 -5.3899  1.4320
  231SOL    HW2  923   2.767   1.279   2.134 -0.5286 -3.6050 -0.7207
  231SOL     MW  924   2.824   1.266   2.203 -0.4878 -1.6633  0.6228
  232SOL     OW  925   2.300   1.023   2.102  0.2242 -0.3692 -0.0610
  232SOL    HW1  926   2.237   1.040   2.040 -1.4862 -0.9609 -0.7512
  232SOL    HW2  927   2.255   0.972   2.170  1.7448  2.5440  0.1530
  232SOL     MW  928   2.286   1.019   2.103  0.1991 -0.0629 -0.1238
  233SOL     OW  929   2.024   0.587   1.890  0.3795 -0.4978  0.1742
  233SOL    HW1  930   2.084   0.611   1.819 -2.0006  3.2330  1.4321
  233SOL    HW2  931   2.081   0.578   1.970  0.1069 -2.4511  1.4028
  233SOL     MW  932   2.039   0.589   1.891  0.0295 -0.2633  0.5023
  234SOL     OW  933   0.217   0.980   2.477  0.2467  0.0008 -0.1217
  234SOL    HW1  934   0.119   0.989   2.485 -0.8770  1.2112 -0.0243
  234SOL    HW2  935   0.242   1.077   2.448 -1.4135  0.8200 -3.2283
  234SOL     MW  936   0.208   0.994   2.474 -0.1206  0.2686 -0.5187
  235SOL     OW  937   0.997   3.043   2.798  0.4675 -0.1823  0.3998
  235SOL    HW1  938   1.023   2.983   2.868  1.8686 -0.3155 -0.3639
  235SOL    HW2  939   0.960   3.114   2.854 -1.5940 -1.7004  0.4177
  235SOL     MW  940   0.996   3.044   2.815  0.3803 -0.4002  0.3014
  236SOL     OW  941   2.930   0.546   0.105 -0.4250 -0.2368 -0.2602
  236SOL    HW1  942   2.868   0.562   0.031  0.7327 -2.4087 -1.5334
  236SOL    HW2  943   2.977   0.623   0.105  0.1264 -1.4012  1.9156
  236SOL     MW  944   2.928   0.558   0.095 -0.1995 -0.6770 -0.1411
  237SOL     OW  945   1.759   0.888   2.175  0.0761  0.0148  0.0223
  237SOL    HW1  946   1.783   0.978   2.146  0.5272 -2.3982 -2.0688
  237SOL    HW2  947   1.786   0.885   2.268 -0.2562 -2.6443  1.8540
  237SOL     MW  948   1.766   0.899   2.183  0.0918 -0.6544 -0.0119
  238SOL     OW  949   1.053   1.768   2.962  0.6796  0.2848  0.1327
  238SOL    HW1  950   1.006   1.684   2.967  1.4637 -0.7036 -0.0070
  238SOL    HW2  951   1.143   1.744   2.948  2.0818 -0.9332 -0.9433
  238SOL     MW  952   1.059   1.754   2.961  0.9680 -0.0063 -0.0277
  239SOL     OW  953   1.258   1.421   2.336 -0.3708 -0.4206 -0.6738
  239SOL    HW1  954   1.240   1.445   2.427  1.1676 -0.7469  2.8295
  239SOL    HW2  955   1.344   1.449   2.311 -1.4741  0.2524  0.5725
  239SOL     MW  956   1.267   1.428   2.345 -0.3134 -0.3749 -0.0472
  240SOL     OW  957   0.609   0.819   2.236  0.4167 -0.4842  0.2547
  240SOL    HW1  958   0.591   0.882   2.306  0.7551 -1.9096  1.5892
  240SOL    HW2  959   0.708   0.821   2.235  1.5546 -1.5987  1.4774
  240SOL     MW  960   0.619   0.828   2.246  0.6115 -0.8193  0.5921
  241SOL     OW  961   0.672   0.340   3.019  0.6733  0.2545 -0.0965
  241SOL    HW1  962   0.664   0.406   3.087 -0.9121 -1.1083 -1.5867
  241SOL    HW2  963   0.594   0.371   2.971 -2.5738 -0.3899  1.3896
  241SOL     MW  964   0.660   0.353   3.022  0.0357 -0.0103 -0.0970
  242SOL     OW  965   1.424   1.685   2.314  0.2713  0.0853  0.8232
  242SOL    HW1  966   1.424   1.771   2.346 -0.7743 -2.2176  0.3239
  242SOL    HW2  967   1.356   1.679   2.245 -1.0166  1.6752  0.0109
  242SOL     MW  968   1.415   1.696   2.309 -0.0366 -0.0088  0.6501
  243SOL     OW  969   1.068   0.204   2.355  0.1237 -0.2910 -0.8867
  243SOL    HW1  970   1.163   0.200   2.352  0.7696  2.8051  1.5185
  243SOL    HW2  971   1.050   0.276   2.415 -1.3105 -1.4077 -0.0454
  243SOL     MW  972   1.078   0.213   2.363  0.0197 -0.0299 -0.4583
  244SOL     OW  973   0.230   0.762   2.321 -0.0883 -0.0289 -0.4174
  244SOL    HW1  974   0.248   0.833   2.383 -0.8393 -0.6096  2.9340
  244SOL    HW2  975   0.307   0.705   2.328 -3.0148  1.6661  0.8895
  244SOL     MW  976   0.242   0.764   2.330 -0.5735  0.1182  0.1972
  245SOL     OW  977   1.331   0.148   2.310 -0.1145  0.1911 -0.2662
  245SOL    HW1  978   1.330   0.055   2.289  0.7171 -1.2771  1.7164
  245SOL    HW2  979   1.421   0.158   2.343  0.3345  2.0007 -0.5833
  245SOL     MW  980   1.343   0.137   2.311  0.0544  0.2361 -0.0465
  246SOL     OW  981   1.170   1.135   2.165 -0.2705 -0.3210 -0.3815
  246SOL    HW1  982   1.108   1.103   2.230  1.9570  0.7393 -3.1586
  246SOL    HW2  983   1.256   1.151   2.214  0.2292 -0.4746 -1.3853
  246SOL     MW  984   1.173   1.133   2.180  0.0894 -0.2014 -0.8803
  247SOL     OW  985   0.644   0.563   0.117  0.3718 -0.7472 -0.0300
  247SOL    HW1  986   0.616   0.654   0.116  0.4108  0.9766  2.1896
  247SOL    HW2  987   0.742   0.562   0.125  0.8285 -0.3621 -3.5856
  247SOL     MW  988   0.653   0.575   0.118  0.4372 -0.4690 -0.2063
  248SOL     OW  989   0.344   1.199   2.419  0.6636 -0.1394 -0.3346
  248SOL    HW1  990   0.338   1.267   2.352  1.3466 -1.0039 -3.1219
  248SOL    HW2  991   0.341   1.243   2.501 -1.5201 -0.0806  0.3051
  248SOL     MW  992   0.343   1.214   2.421  0.4656 -0.2457 -0.6180
  249SOL     OW  993   0.151   1.823   2.720  0.4491 -0.3055  0.1920
  249SOL    HW1  994   0.100   1.750   2.684 -0.4315 -1.3236  0.8330
  249SOL    HW2  995   0.190   1.800   2.807  1.2479 -2.1163 -0.5737
  249SOL     MW  996   0.149   1.810   2.727  0.4383 -0.6787  0.1756
  250SOL     OW  997   2.161   0.896   2.312 -0.6275  0.6520  0.2526
  250SOL    HW1  998   2.187   0.809   2.340 -0.1959 -0.4071 -0.1566
  250SOL    HW2  999   2.185   0.960   2.383 -2.7917  0.8974  2.3473
  250SOL     MW 1000   2.168   0.893   2.325 -0.8561  0.5446  0.4750
  251SOL     OW 1001   0.095   0.821   2.059  0.7146 -0.1570 -0.2461
  251SOL    HW1 1002   0.120   0.813   2.150 -3.6718 -0.2289 -1.4000
  251SOL    HW2 1003   0.085   0.735   2.026  2.2480  1.2037 -3.5911
  251SOL     MW 1004   0.097   0.809   2.067  0.3382  0.0130 -0.8397
  252SOL     OW 1005   1.696   1.005   2.785 -0.0301  0.4351  0.0783
  252SOL    HW1 1006   1.674   1.055   2.863  0.3540  0.8536  0.9048
  252SOL    HW2 1007   1.788   1.017   2.776  0.4996 -1.7746 -1.1990
  252SOL     MW 1008   1.705   1.013   2.794  0.0905  0.1987  0.0188
  253SOL     OW 1009   1.144   1.758   2.575  0.4248  0.1941  0.1703
  253SOL    HW1 1010   1.164   1.759   2.481  1.1639 -1.9075 -0.0744
  253SOL    HW2 1011   1.046   1.781   2.578 -1.9423 -0.1900 -0.1559
  253SOL     MW 1012   1.134   1.761   2.563  0.2100 -0.1339  0.0950
  254SOL     OW 1013   0.958   1.065   2.318  0.2103 -0.0777 -0.4573
  254SOL    HW1 1014   0.922   0.981   2.290  1.2716  1.4512 -3.9169
  254SOL    HW2 1015   0.879   1.119   2.302  1.8508 -2.8319  1.3924
  254SOL     MW 1016   0.943   1.061   2.312  0.5668 -0.2393 -0.6697
  255SOL     OW 1017   0.729   2.334   2.282  0.3516  0.6967 -0.5165
  255SOL    HW1 1018   0.640   2.317   2.294  0.5684  1.1535 -0.6051
  255SOL    HW2 1019   0.766   2.364   2.366 -0.0291  2.9738 -1.0169
  255SOL     MW 1020   0.722   2.336   2.294  0.3300  1.0574 -0.5942
  256SOL     OW 1021   1.198   2.864   2.965 -0.1542 -0.1362 -0.6261
  256SOL    HW1 1022   1.238   2.783   2.928  1.5697  2.1844 -2.7861
  256SOL    HW2 1023   1.259   2.925   2.923 -0.4579 -0.5479  1.6034
  256SOL     MW 1024   1.211   2.861   2.954  0.0332  0.1157 -0.6169
  257SOL     OW 1025   0.124   1.859   0.009 -0.3224  0.5322 -0.4255
  257SOL    HW1 1026   0.142   1.818   0.093 -0.2856 -0.1132  0.8360
  257SOL    HW2 1027   0.165   1.795  -0.047  0.3035 -0.6764  0.8558
  257SOL     MW 1028   0.132   1.845   0.013 -0.2349  0.2876 -0.0900
  258SOL     OW 1029   0.573   1.041   2.404  0.3656  0.2275  0.1565
  258SOL    HW1 1030   0.614   1.107   2.348  0.1481  0.9669 -1.3357
  258SOL    HW2 1031   0.486   1.080   2.424  2.9585  0.0552  1.2931
  258SOL     MW 1032   0.567   1.055   2.399  0.6790  0.3023  0.1096
  259SOL     OW 1033   0.604   0.362   2.519 -0.3240  0.3830 -0.9167
  259SOL    HW1 1034   0.548   0.426   2.489  0.7428 -3.1432  1.3489
  259SOL    HW2 1035   0.607   0.294   2.447 -0.2115 -0.9036 -2.0818
  259SOL     MW 1036   0.597   0.362   2.505 -0.1684 -0.2520 -0.7715
  260SOL     OW 1037   0.589   0.152   1.585  0.1754 -0.1531  0.0957
  260SOL    HW1 1038   0.534   0.171   1.512  1.1666  1.4782 -0.9102
  260SOL    HW2 1039   0.679   0.173   1.569 -2.7355  1.8081 -0.3104
  260SOL     MW 1040   0.594   0.157   1.573 -0.0779  0.3209 -0.0906
  261SOL     OW 1041   1.055   0.684   2.079  0.6834  0.4230 -0.0375
  261SOL    HW1 1042   1.119   0.659   2.147  1.1778 -0.2313  1.7232
  261SOL    HW2 1043   1.098   0.660   2.000 -1.6695 -0.1613  0.2177
  261SOL     MW 1044   1.069   0.678   2.078  0.4382  0.2596  0.2285
  262SOL     OW 1045   1.141   0.396   0.134 -0.0598 -0.3742 -0.3239
  262SOL    HW1 1046   1.165   0.308   0.161 -0.6830  0.5845 -1.4577
  262SOL    HW2 1047   1.195   0.412   0.058 -0.0085 -1.2558  2.0506
  262SOL     MW 1048   1.152   0.386   0.127 -0.1353 -0.3641 -0.1602
  263SOL     OW 1049   0.428   2.992   2.486  0.6431 -0.5777  0.9248
  263SOL    HW1 1050   0.363   3.060   2.499  0.0827  0.2694 -0.4545
  263SOL    HW2 1051   0.474   3.019   2.410 -4.7495  0.1101  0.9495
  263SOL     MW 1052   0.425   3.005   2.478 -0.1423 -0.3752  0.7460
  264SOL     OW 1053   1.480   1.327   1.973  0.3342 -0.0001 -0.1446
  264SOL    HW1 1054   1.449   1.282   2.053  0.5744  0.6775  1.4379
  264SOL    HW2 1055   1.562   1.357   2.020 -0.5294 -0.9139  0.9145
  264SOL     MW 1056   1.487   1.325   1.990  0.2519 -0.0313  0.2039
  265SOL     OW 1057   0.746   2.740   2.207 -0.1259 -0.4457 -0.0024
  265SOL    HW1 1058   0.783   2.663   2.175 -2.5039  1.4074  0.3577
  265SOL    HW2 1059   0.693   2.727   2.288 -1.2985  0.1365  1.1732
  265SOL     MW 1060   0.744   2.728   2.214 -0.5943 -0.1244  0.2002
  266SOL     OW 1061   0.879   0.805   2.279 -0.2134  0.4137 -0.2170
  266SOL    HW1 1062   0.937   0.754   2.229  0.9627 -2.7752  1.7491
  266SOL    HW2 1063   0.877   0.758   2.362  0.1790  0.6169  0.2217
  266SOL     MW 1064   0.887   0.792   2.283 -0.0064  0.0198  0.1003
  267SOL     OW 1065   1.386   1.816   2.674 -0.0858 -0.0218 -0.4413
  267SOL    HW1 1066   1.455   1.748   2.640 -0.5601 -0.0902 -1.4732
  267SOL    HW2 1067   1.303   1.792   2.642  3.4955 -1.4821  1.7601
  267SOL     MW 1068   1.384   1.804   2.665  0.3241 -0.2235 -0.2870
  268SOL     OW 1069   0.202   0.762   1.658  0.3708 -0.5575 -0.3213
  268SOL    HW1 1070   0.133   0.826   1.615 -1.8177  1.3319 -0.0998
  268SOL    HW2 1071   0.211   0.683   1.608  1.8810  1.9998  2.0285
  268SOL     MW 1072   0.194   0.760   1.646  0.2813  0.0292  0.0180
  269SOL     OW 1073   1.397   1.950   2.442  0.4304 -0.0671 -0.1150
  269SOL    HW1 1074   1.422   1.899   2.522  2.9559  1.6954 -2.4184
  269SOL    HW2 1075   1.316   1.996   2.457  0.8323 -0.4685  0.8600
  269SOL     MW 1076   1.390   1.949   2.455  0.8167  0.1125 -0.2903
  270SOL     OW 1077   1.190   0.478   1.637 -0.3499 -0.2403 -0.3781
  270SOL    HW1 1078   1.163   0.388   1.659 -2.2349 -1.0088 -0.5358
  270SOL    HW2 1079   1.280   0.464   1.589  0.0715 -1.4973 -0.0374
  270SOL     MW 1080   1.198   0.464   1.634 -0.5430 -0.5076 -0.3540
  271SOL     OW 1081   0.898   0.009   2.463 -0.2178 -0.2032 -0.2620
  271SOL    HW1 1082   0.952  -0.043   2.526 -3.6058  0.1881  1.9580
  271SOL    HW2 1083   0.963   0.069   2.420 -1.1608 -0.0020  0.8228
  271SOL     MW 1084   0.914   0.010   2.466 -0.7892 -0.1250  0.1740
  272SOL     OW 1085   1.364   3.000   2.774 -0.0413 -0.2434 -0.4867
  272SOL    HW1 1086   1.307   3.038   2.707  2.8518 -1.2311  0.8722
  272SOL    HW2 1087   1.354   3.072   2.849  0.5657  0.9669  3.5708
  272SOL     MW 1088   1.356   3.015   2.775  0.4205 -0.2140  0.2279
  273SOL     OW 1089   1.428   0.932   2.801 -0.4718  0.0098  0.4665
  273SOL    HW1 1090   1.522   0.954   2.794  0.0986 -1.0923  2.6946
  273SOL    HW2 1091   1.386   1.012   2.842  3.3438  0.9512  0.0357
  273SOL     MW 1092   1.435   0.946   2.805  0.1069 -0.0114  0.7036
  274SOL     OW 1093   1.352   0.713   0.125 -0.6668 -0.2893  0.1088
  274SOL    HW1 1094   1.375   0.641   0.182 -1.7406 -0.9736  0.9862
  274SOL    HW2 1095   1.263   0.726   0.155  2.7060 -0.6523 -1.0513
  274SOL     MW 1096   1.344   0.706   0.137 -0.3635 -0.4275  0.0715
  275SOL     OW 1097   1.677   0.654   1.754 -0.1498  0.4138 -0.0436
  275SOL    HW1 1098   1.708   0.688   1.843  1.6514 -0.9007  0.0390
  275SOL    HW2 1099   1.674   0.553   1.759  1.8418 -1.5685 -3.2009
  275SOL     MW 1100   1.680   0.645   1.766  0.3506 -0.0212 -0.4493
  276SOL     OW 1101   0.191   1.179   1.820  0.1615  0.0013 -0.1013
  276SOL    HW1 1102   0.255   1.102   1.834  2.2700 -0.2488 -0.5754
  276SOL    HW2 1103   0.120   1.158   1.877  0.7997  0.5115 -0.7856
  276SOL     MW 1104   0.190   1.166   1.830  0.5239  0.0356 -0.2541
  277SOL     OW 1105   1.905   1.377   2.732  0.1806  0.0283 -0.0605
  277SOL    HW1 1106   1.961   1.453   2.706  0.0513  4.1154  1.2716
  277SOL    HW2 1107   1.953   1.292   2.733  2.9481 -2.6364  0.3125
  277SOL     MW 1108   1.919   1.376   2.729  0.5287  0.2159  0.1645
  278SOL     OW 1109   1.431   0.736   1.757  0.2531 -0.2252  0.0620
  278SOL    HW1 1110   1.392   0.661   1.810 -1.5647 -0.8600  1.1164
  278SOL    HW2 1111   1.528   0.723   1.769  1.4385  4.3066 -0.0720
  278SOL     MW 1112   1.439   0.724   1.765  0.1697  0.2890  0.1834
  279SOL     OW 1113   0.577   3.058   2.263  0.1826  1.0995  0.0534
  279SOL    HW1 1114   0.673   3.049   2.247  0.5566 -1.5647  2.9955
  279SOL    HW2 1115   0.559   3.154   2.263  3.0578  0.4419 -3.4182
  279SOL     MW 1116   0.587   3.069   2.261  0.6113  0.6612 -0.0165
  280SOL     OW 1117   1.423   1.162   2.244  0.1762 -0.2018  0.0722
  280SOL    HW1 1118   1.452   1.082   2.192 -1.2960  2.5233  0.1303
  280SOL    HW2 1119   1.431   1.141   2.340  0.0377 -1.1163 -1.0518
  280SOL     MW 1120   1.428   1.149   2.249 -0.0363  0.0371 -0.0685
  281SOL     OW 1121   1.328   1.388   2.785 -0.1412  0.8190  0.6610
  281SOL    HW1 1122   1.422   1.406   2.797  1.4054 -0.9957  0.6376
  281SOL    HW2 1123   1.330   1.298   2.823  0.0883  0.6395  1.6385
  281SOL     MW 1124   1.340   1.378   2.792  0.0931  0.5559  0.7869
  282SOL     OW 1125   1.137   1.310   1.742 -0.4530 -0.7878  0.1547
  282SOL    HW1 1126   1.091   1.354   1.665 -2.8330  0.6345  3.5433
  282SOL    HW2 1127   1.063   1.264   1.783 -0.4626  0.3859 -0.8925
  282SOL     MW 1128   1.121   1.310   1.738 -0.7683 -0.4453  0.4637
  283SOL     OW 1129   0.698   1.191   0.058 -0.3206  0.0467 -1.1852
  283SOL    HW1 1130   0.796   1.180   0.066  0.6892 -1.8992 -1.9748
  283SOL    HW2 1131   0.700   1.284   0.046  1.0077  0.8797 -0.2145
  283SOL     MW 1132   0.712   1.202   0.058 -0.0121 -0.1001 -1.1613
  284SOL     OW 1133   0.461   0.607   2.356  0.5660  0.2201 -0.3170
  284SOL    HW1 1134   0.532   0.658   2.306  0.3325 -1.1956 -1.0352
  284SOL    HW2 1135   0.445   0.528   2.304 -0.4398  0.8535 -0.2252
  284SOL     MW 1136   0.469   0.603   2.343  0.4025  0.1169 -0.3996
  285SOL     OW 1137   0.872   0.902   2.774  0.9041 -0.1394  0.0719
  285SOL    HW1 1138   0.833   0.964   2.711 -1.6800  0.3265 -0.2317
  285SOL    HW2 1139   0.801   0.834   2.790  2.7427  0.7227 -2.1889
  285SOL     MW 1140   0.857   0.901   2.768  0.8058  0.0358 -0.2664
  286SOL     OW 1141   1.149   1.459   2.591  0.3432  0.0833  0.3088
  286SOL    HW1 1142   1.211   1.448   2.665  1.9551 -0.2050  2.1895
  286SOL    HW2 1143   1.137   1.554   2.599 -0.8698 -1.3089 -1.7309
  286SOL     MW 1144   1.156   1.470   2.602  0.3958 -0.1385  0.2878
  287SOL     OW 1145   1.106   0.944   0.399 -0.1111 -0.0485  0.7336
  287SOL    HW1 1146   1.167   0.976   0.467  0.3280 -1.1302 -1.4020
  287SOL    HW2 1147   1.053   1.025   0.378 -0.9974  0.9060  0.2970
  287SOL     MW 1148   1.107   0.959   0.405 -0.1701 -0.0653  0.3942
  288SOL     OW 1149   1.483   0.692   2.163  0.4341  0.8157  0.2435
  288SOL    HW1 1150   1.455   0.670   2.256  0.1249 -0.8442  2.5321
  288SOL    HW2 1151   1.458   0.784   2.153  1.2897  0.2326 -1.5238
  288SOL     MW 1152   1.476   0.701   2.174  0.5062  0.5198  0.3123
  289SOL     OW 1153   0.793   1.022   2.542  0.4007  1.3080  1.1105
  289SOL    HW1 1154   0.866   1.030   2.482  1.6543 -0.8624 -0.1482
  289SOL    HW2 1155   0.702   1.024   2.508 -1.9115 -0.9512 -1.7390
  289SOL     MW 1156   0.790   1.023   2.529  0.2610  0.7236  0.5685
  290SOL     OW 1157   0.840   0.705   1.552 -0.1790 -0.2659 -0.3320
  290SOL    HW1 1158   0.882   0.635   1.497  2.0503 -0.9808  0.3974
  290SOL    HW2 1159   0.899   0.696   1.630  2.2580 -0.2563 -0.2190
  290SOL     MW 1160   0.853   0.695   1.555  0.4366 -0.3590 -0.2208
  291SOL     OW 1161   0.252   0.377   0.203 -0.1207  0.0434 -0.2173
  291SOL    HW1 1162   0.343   0.348   0.213 -2.3333  0.4940  0.2556
  291SOL    HW2 1163   0.207   0.302   0.163 -0.9311  0.8724  0.3407
  291SOL     MW 1164   0.258   0.363   0.199 -0.5195  0.2123 -0.0813
  292SOL     OW 1165   0.931   0.563   0.100  0.3079  0.5552  0.0284
  292SOL    HW1 1166   0.984   0.621   0.153 -1.3505  0.0786  0.9109
  292SOL    HW2 1167   0.984   0.483   0.110  0.2524  0.5134  1.5493
  292SOL     MW 1168   0.945   0.560   0.108  0.0818  0.4868  0.3455
  293SOL     OW 1169   0.247   0.096   2.465 -0.0664  0.1133  0.6953
  293SOL    HW1 1170   0.165   0.054   2.437  0.2462 -1.6147  2.0414
  293SOL    HW2 1171   0.223   0.162   2.534  0.5765  0.6325  2.9273
  293SOL     MW 1172   0.233   0.099   2.470  0.0597 -0.0462  1.1674
  294SOL     OW 1173   1.432   0.615   2.414 -0.3482  0.6931 -0.0250
  294SOL    HW1 1174   1.477   0.686   2.463 -2.2294 -0.0164  3.0668
  294SOL    HW2 1175   1.452   0.538   2.468  1.9382  2.9862  0.8843
  294SOL     MW 1176   1.441   0.614   2.428 -0.2948  0.9021  0.5029
  295SOL     OW 1177   0.776   0.587   2.490 -0.5682  0.2262  0.5911
  295SOL    HW1 1178   0.723   0.503   2.493  0.7079 -2.8493 -0.9643
  295SOL    HW2 1179   0.773   0.622   2.582  0.5843  5.9999  3.9478
  295SOL     MW 1180   0.768   0.580   2.503 -0.2478  0.5822  0.8288
  296SOL     OW 1181   1.256   0.281   2.064  0.0280  0.3874  0.0670
  296SOL    HW1 1182   1.344   0.248   2.066  0.4035 -1.3972  3.4809
  296SOL    HW2 1183   1.229   0.284   2.161  1.4996 -2.0541  2.2891
  296SOL     MW 1184   1.264   0.277   2.077  0.2717 -0.1702  0.8107
  297SOL     OW 1185   1.450   0.436   1.525  0.3306 -0.1597 -0.4038
  297SOL    HW1 1186   1.504   0.514   1.525  0.8851 -0.7730  2.4960
  297SOL    HW2 1187   1.487   0.365   1.569 -0.5810 -0.6345 -1.9467
  297SOL     MW 1188   1.462   0.437   1.531  0.2835 -0.3033 -0.2248
  298SOL     OW 1189   1.495   0.950   2.092 -0.3411 -0.5386 -0.3961
  298SOL    HW1 1190   1.489   0.965   1.999 -1.2512  0.9615  0.5631
  298SOL    HW2 1191   1.587   0.929   2.119 -0.0733 -1.1275 -0.5651
  298SOL     MW 1192   1.507   0.949   2.083 -0.4258 -0.4184 -0.2919
  299SOL     OW 1193   0.520   0.999   3.015 -0.7505  0.3163  0.0302
  299SOL    HW1 1194   0.610   1.045   3.028  0.0442 -0.9819 -0.1502
  299SOL    HW2 1195   0.480   1.037   2.940 -1.6270 -2.1667  2.9491
  299SOL     MW 1196   0.527   1.010   3.007 -0.7613 -0.1826  0.3915
  300SOL     OW 1197   1.177   1.060   2.552 -0.0140  0.6906  0.0478
  300SOL    HW1 1198   1.149   1.129   2.501  0.5458  2.0345 -0.5915
  300SOL    HW2 1199   1.126   0.982   2.537  2.0669  0.0702 -3.3857
  300SOL     MW 1200   1.166   1.059   2.543  0.3344  0.7861 -0.4896
  301SOL     OW 1201   1.395   0.733   0.542  0.2759  0.3176 -0.1226
  301SOL    HW1 1202   1.425   0.714   0.633 -2.0760 -0.0289  2.4255
  301SOL    HW2 1203   1.321   0.676   0.523  3.1473  0.8877 -0.0878
  301SOL     MW 1204   1.390   0.723   0.551  0.3445  0.3471  0.2182
  302SOL     OW 1205   0.141   1.505   1.958 -0.0850  0.2031 -0.3808
  302SOL    HW1 1206   0.125   1.458   2.040 -1.1492  0.1903 -1.6717
  302SOL    HW2 1207   0.090   1.586   1.970  0.3499 -0.8244 -0.2853
  302SOL     MW 1208   0.132   1.509   1.971 -0.1680  0.0658 -0.5385
  303SOL     OW 1209   0.419   1.821   2.659 -0.5920  0.1172 -0.3514
  303SOL    HW1 1210   0.426   1.879   2.584  0.4641 -0.7738 -0.2037
  303SOL    HW2 1211   0.325   1.823   2.666 -0.3395 -0.7671  0.0014
  303SOL     MW 1212   0.408   1.829   2.650 -0.4193 -0.1170 -0.2853
  304SOL     OW 1213   0.527   1.976   2.422 -0.0410  0.6980  0.0928
  304SOL    HW1 1214   0.517   2.054   2.372 -0.1505  1.9501  1.4678
  304SOL    HW2 1215   0.606   1.928   2.402  0.4894 -1.4349  3.4226
  304SOL     MW 1216   0.536   1.980   2.413  0.0145  0.5818  0.7136
  305SOL     OW 1217   1.184   0.558   0.447  0.0320  0.4786 -0.1372
  305SOL    HW1 1218   1.095   0.540   0.470 -3.0378  0.5298  2.2740
  305SOL    HW2 1219   1.218   0.469   0.438  0.7143  3.1242 -1.8580
  305SOL     MW 1220   1.177   0.544   0.449 -0.2830  0.8344 -0.0461
  306SOL     OW 1221   1.216   1.423   0.278 -0.0761 -0.2181  0.3811
  306SOL    HW1 1222   1.260   1.356   0.333  0.6334  1.5152 -0.3824
  306SOL    HW2 1223   1.267   1.422   0.191  1.1795 -1.2864  0.5938
  306SOL     MW 1224   1.228   1.414   0.274  0.1832 -0.1304  0.3084
  307SOL     OW 1225   1.316   0.560   1.966 -0.0662  0.7509  0.0622
  307SOL    HW1 1226   1.284   0.470   1.970  0.5681  0.7533  0.9147
  307SOL    HW2 1227   1.366   0.574   2.045 -0.6388 -0.9125  3.6983
  307SOL     MW 1228   1.319   0.550   1.977 -0.0581  0.5318  0.6545
  308SOL     OW 1229   2.136   0.557   2.755 -0.0312 -0.0040 -0.3828
  308SOL    HW1 1230   2.078   0.468   2.746 -0.1565 -1.1272 -1.0301
  308SOL    HW2 1231   2.226   0.541   2.729 -1.6054 -0.6651  0.3254
  308SOL     MW 1232   2.140   0.543   2.751 -0.2554 -0.2394 -0.3747
  309SOL     OW 1233   0.508   0.508   0.375 -0.6018  0.0514  0.1928
  309SOL    HW1 1234   0.549   0.424   0.398 -2.2529 -0.1126 -0.6292
  309SOL    HW2 1235   0.533   0.521   0.284  1.1948 -0.8988  2.6846
  309SOL     MW 1236   0.517   0.499   0.366 -0.5826 -0.0956  0.4131
  310SOL     OW 1237   0.411   0.516   1.906 -0.1085 -0.1732  0.3325
  310SOL    HW1 1238   0.478   0.467   1.851  2.4982  0.1152 -1.4099
  310SOL    HW2 1239   0.453   0.604   1.904  3.1405  0.9739 -0.3880
  310SOL     MW 1240   0.425   0.521   1.899  0.6641  0.0162  0.0076
  311SOL     OW 1241   1.829   0.768   1.952  0.3680 -0.3057  0.0584
  311SOL    HW1 1242   1.810   0.781   2.046  1.8110  0.9667 -1.1023
  311SOL    HW2 1243   1.894   0.702   1.944 -2.5962  3.2617  0.3846
  311SOL     MW 1244   1.835   0.761   1.963  0.1673  0.3329 -0.0517
  312SOL     OW 1245   1.738   2.631   3.078 -0.3073 -0.2330 -0.5903
  312SOL    HW1 1246   1.803   2.648   3.148 -2.2709 -2.3158  2.2573
  312SOL    HW2 1247   1.663   2.601   3.122 -1.1047 -1.2196 -1.2133
  312SOL     MW 1248   1.736   2.629   3.093 -0.6716 -0.6380 -0.2968
  313SOL     OW 1249   0.137   1.193   2.921 -0.1704  0.1988  0.4246
  313SOL    HW1 1250   0.201   1.170   2.989 -0.4458  4.1718 -0.6224
  313SOL    HW2 1251   0.177   1.189   2.829  1.0365  1.0923  1.7279
  313SOL     MW 1252   0.151   1.190   2.918 -0.0475  0.8409  0.4584
  314SOL     OW 1253   2.147   3.046   2.988  0.0504 -0.1918 -0.2803
  314SOL    HW1 1254   2.085   3.107   2.943  1.9180  0.5165  1.4607
  314SOL    HW2 1255   2.176   3.101   3.060  1.6352 -0.0036  3.1513
  314SOL     MW 1256   2.143   3.061   2.991  0.5060 -0.0735  0.4022
  315SOL     OW 1257   1.569   1.992   3.014  0.1735 -0.1167 -0.0380
  315SOL    HW1 1258   1.479   2.009   3.056  0.4769 -0.4810 -0.1890
  315SOL    HW2 1259   1.574   2.029   2.927  0.0981  0.1048  3.1622
  315SOL     MW 1260   1.558   1.999   3.008  0.2036 -0.1356  0.3644
  316SOL     OW 1261   1.215   0.630   2.696  0.1841  0.2298 -0.3572
  316SOL    HW1 1262   1.307   0.611   2.686 -0.3815  0.0568  0.6173
  316SOL    HW2 1263   1.217   0.663   2.790  1.9161  2.1736  0.4393
  316SOL     MW 1264   1.227   0.631   2.707  0.3380  0.4635 -0.1235
  317SOL     OW 1265   0.671   1.354   2.590 -0.4417  0.3260 -0.1391
  317SOL    HW1 1266   0.711   1.292   2.644 -1.3754  0.7169  0.6809
  317SOL    HW2 1267   0.731   1.354   2.511  0.2622  0.5664  1.1911
  317SOL     MW 1268   0.684   1.346   2.587 -0.4720  0.4093  0.1446
  318SOL     OW 1269   1.283   0.425   2.943 -0.3270 -0.7043 -0.1137
  318SOL    HW1 1270   1.200   0.461   2.910 -1.2304  0.0758 -2.3145
  318SOL    HW2 1271   1.353   0.486   2.907 -1.6812 -0.2926 -0.0480
  318SOL     MW 1272   1.281   0.438   2.934 -0.6248 -0.5471 -0.3954
  319SOL     OW 1273   0.762   0.412   2.739 -0.2572 -0.4560 -0.1720
  319SOL    HW1 1274   0.691   0.397   2.679 -0.4612  0.3264 -0.6945
  319SOL    HW2 1275   0.754   0.331   2.789  0.9464 -0.2237  0.9460
  319SOL     MW 1276   0.751   0.400   2.738 -0.1253 -0.3221 -0.0935
  320SOL     OW 1277   1.002   1.312   2.025  0.5165 -0.0509 -0.4905
  320SOL    HW1 1278   1.069   1.266   2.072 -0.1320 -0.3027 -0.2167
  320SOL    HW2 1279   1.049   1.370   1.966 -0.9880  0.1405 -0.4548
  320SOL     MW 1280   1.017   1.314   2.023  0.2324 -0.0589 -0.4497
  321SOL     OW 1281   1.094   0.987   2.975  0.1948 -0.0348 -0.1410
  321SOL    HW1 1282   1.013   0.977   2.914  3.6835  0.7922  0.1607
  321SOL    HW2 1283   1.145   0.900   2.968  0.0744 -3.5816 -1.4164
  321SOL     MW 1284   1.090   0.974   2.966  0.6392 -0.3937 -0.2694
  322SOL     OW 1285   1.231   0.898   1.707  0.0409 -0.6216  0.0492
  322SOL    HW1 1286   1.317   0.849   1.720 -0.0327 -1.7499  0.9862
  322SOL    HW2 1287   1.195   0.909   1.795  0.6363  0.9488  0.9308
  322SOL     MW 1288   1.237   0.893   1.721  0.1098 -0.5632  0.2892
  323SOL     OW 1289   1.190   1.519   1.917  0.1378  0.0794 -0.3021
  323SOL    HW1 1290   1.203   1.438   1.861  0.1591  0.5886  2.5585
  323SOL    HW2 1291   1.121   1.576   1.885  0.1395 -2.5212 -1.9789
  323SOL     MW 1292   1.183   1.516   1.905  0.1408 -0.1965 -0.1459
  324SOL     OW 1293   1.488   1.083   2.513  0.0891  0.5401 -1.2918
  324SOL    HW1 1294   1.428   1.069   2.578  4.0375 -0.5408 -0.7479
  324SOL    HW2 1295   1.559   1.123   2.565 -2.0564 -0.1403 -0.7862
  324SOL     MW 1296   1.490   1.087   2.529  0.3269  0.3077 -1.1534
  325SOL     OW 1297   0.989   0.445   2.914  0.1897  0.3002  0.1280
  325SOL    HW1 1298   0.962   0.487   3.004 -0.4112 -0.0075 -1.7236
  325SOL    HW2 1299   0.910   0.447   2.855 -0.6592  0.2127  1.5631
  325SOL     MW 1300   0.975   0.451   2.918 -0.0016  0.2481  0.0731
  326SOL     OW 1301   0.393   1.334   2.172 -0.5873 -0.1287  0.0285
  326SOL    HW1 1302   0.456   1.307   2.104 -1.6162  3.1752  0.1427
  326SOL    HW2 1303   0.398   1.432   2.170  0.6187  0.9973 -1.0820
  326SOL     MW 1304   0.402   1.344   2.163 -0.5640  0.4558 -0.1030
  327SOL     OW 1305   1.904   0.856   2.414  0.4087 -0.1772 -0.1737
  327SOL    HW1 1306   1.893   0.795   2.486  0.2227  1.1203  0.7225
  327SOL    HW2 1307   1.996   0.871   2.395 -2.5702 -0.9298 -2.0743
  327SOL     MW 1308   1.914   0.850   2.421 -0.0089 -0.1053 -0.3062
  328SOL     OW 1309   0.139   1.253   2.184  0.2137  0.2021  0.1449
  328SOL    HW1 1310   0.076   1.214   2.125  0.2584  3.6474  0.4667
  328SOL    HW2 1311   0.228   1.258   2.152 -1.2045  0.8183  2.5937
  328SOL     MW 1312   0.142   1.249   2.172  0.0325  0.7379  0.5105
  329SOL     OW 1313   0.120   0.164   1.412  0.2371  0.1394 -0.1276
  329SOL    HW1 1314   0.086   0.213   1.488  0.3880  1.0518 -3.1042
  329SOL    HW2 1315   0.212   0.181   1.418 -0.2036  1.4122  0.7817
  329SOL     MW 1316   0.127   0.173   1.423  0.1989  0.4277 -0.4004
  330SOL     OW 1317   0.414   2.959   2.074 -0.4040 -0.4231  0.1779
  330SOL    HW1 1318   0.474   2.991   2.147 -0.0043  1.9705 -1.8908
  330SOL    HW2 1319   0.333   2.946   2.119  0.6164  1.7529  1.1654
  330SOL     MW 1320   0.411   2.961   2.090 -0.2166  0.1798  0.0352
  331SOL     OW 1321   0.730   1.175   2.223 -0.2460  0.0689 -0.2419
  331SOL    HW1 1322   0.701   1.172   2.133 -1.4003  0.3076  2.1551
  331SOL    HW2 1323   0.775   1.262   2.222  0.2559  0.6655  4.5297
  331SOL     MW 1324   0.732   1.186   2.211 -0.3321  0.1791  0.7039
  332SOL     OW 1325   1.352   1.754   2.946 -0.0860 -0.4618 -0.2865
  332SOL    HW1 1326   1.360   1.762   2.845  2.3173  0.6108 -1.8589
  332SOL    HW2 1327   1.440   1.786   2.961 -1.0519  1.9878 -1.0248
  332SOL     MW 1328   1.365   1.759   2.934  0.1037  0.0029 -0.5913
  333SOL     OW 1329   1.736   1.507   3.033  0.0412  0.3931 -0.1246
  333SOL    HW1 1330   1.832   1.483   3.037  1.2848  2.8725  0.3314
  333SOL    HW2 1331   1.681   1.444   3.081 -2.0331  0.3210 -0.1064
  333SOL     MW 1332   1.742   1.495   3.040 -0.0684  0.7107 -0.0620
  334SOL     OW 1333   1.166   3.095   2.591 -0.3064 -0.5690 -0.1516
  334SOL    HW1 1334   1.100   3.093   2.666 -0.0895 -1.0842  2.0836
  334SOL    HW2 1335   1.204   3.183   2.601 -1.2631 -0.3110 -2.1528
  334SOL     MW 1336   1.163   3.106   2.602 -0.4040 -0.6029 -0.1207
  335SOL     OW 1337   1.259   0.774   2.940  0.0727 -0.5065  0.4535
  335SOL    HW1 1338   1.296   0.736   3.017 -0.7766 -0.5248 -1.1669
  335SOL    HW2 1339   1.329   0.833   2.902  1.1812  1.6544 -1.4965
  335SOL     MW 1340   1.273   0.777   2.945  0.1069 -0.2238 -0.0176
  336SOL     OW 1341   0.946   1.103   1.855 -0.1703 -0.9183 -0.3232
  336SOL    HW1 1342   0.938   1.168   1.926 -0.5536 -0.4120  2.4598
  336SOL    HW2 1343   0.996   1.034   1.892  0.6858  0.9463  2.6487
  336SOL     MW 1344   0.951   1.102   1.870 -0.1079 -0.6055  0.4361
  337SOL     OW 1345   0.646   1.767   2.835 -0.6062  0.3638 -0.2000
  337SOL    HW1 1346   0.563   1.787   2.788 -1.4207 -2.5536 -1.9020
  337SOL    HW2 1347   0.698   1.720   2.777  2.7450  2.2066 -0.5749
  337SOL     MW 1348   0.642   1.763   2.821 -0.2715  0.2220 -0.4740
  338SOL     OW 1349   1.037   0.806   2.581 -0.1451 -0.2655 -0.4871
  338SOL    HW1 1350   0.970   0.825   2.655 -2.5438 -0.8708 -1.4788
  338SOL    HW2 1351   1.113   0.779   2.629  1.5208 -1.5578 -0.7381
  338SOL     MW 1352   1.038   0.805   2.597 -0.2417 -0.5158 -0.6510
  339SOL     OW 1353   1.409   1.100   1.858  0.2469 -0.0840 -0.4311
  339SOL    HW1 1354   1.361   1.133   1.783 -0.0873 -0.0923 -1.8673
  339SOL    HW2 1355   1.432   1.183   1.896  1.0932  2.8582 -2.4963
  339SOL     MW 1356   1.406   1.115   1.853  0.3145  0.3031 -0.8931
  340SOL     OW 1357   1.373   1.530   0.081 -0.2831  0.6222  0.3870
  340SOL    HW1 1358   1.373   1.603   0.019 -0.1765  2.4051 -1.9372
  340SOL    HW2 1359   1.439   1.552   0.145 -0.5415 -0.6967 -0.6962
  340SOL     MW 1360   1.382   1.543   0.081 -0.3031  0.6834 -0.0626
  341SOL     OW 1361   0.215   1.264   2.643 -0.8950 -0.4661  0.2907
  341SOL    HW1 1362   0.223   1.360   2.650 -1.6329  1.6848  0.6234
  341SOL    HW2 1363   0.148   1.251   2.578 -0.6817  2.0174  0.1018
  341SOL     MW 1364   0.207   1.275   2.635 -0.9642  0.1454  0.3097
  342SOL     OW 1365   1.401   0.261   0.078 -0.1640  0.3571  0.3085
  342SOL    HW1 1366   1.437   0.333   0.123  1.6370  0.4644 -3.6074
  342SOL    HW2 1367   1.417   0.295  -0.007  0.5681 -1.7039 -0.8752
  342SOL     MW 1368   1.408   0.275   0.073  0.1702  0.0993 -0.3644
  343SOL     OW 1369   0.228   0.311   2.259 -0.8190  0.0330  0.5408
  343SOL    HW1 1370   0.258   0.244   2.314 -0.6652  0.2607 -0.6958
  343SOL    HW2 1371   0.154   0.277   2.204 -0.1447  0.1469 -1.9260
  343SOL     MW 1372   0.222   0.298   2.259 -0.7097  0.0780  0.0522
  344SOL     OW 1373   1.686   2.180   0.089 -0.2258  0.0265  0.1282
  344SOL    HW1 1374   1.722   2.241   0.026  0.8476 -0.4666  4.4756
  344SOL    HW2 1375   1.643   2.110   0.035 -1.5304 -2.2378  0.6568
  344SOL     MW 1376   1.685   2.179   0.074 -0.2563 -0.3373  0.7715
  345SOL     OW 1377   0.661   1.573   2.363  0.5584  0.5613 -0.0050
  345SOL    HW1 1378   0.571   1.605   2.336 -1.1664 -0.5641  3.2835
  345SOL    HW2 1379   0.705   1.536   2.280 -0.3175 -0.0594 -0.6105
  345SOL     MW 1380   0.655   1.572   2.349  0.2153  0.3309  0.3490
  346SOL     OW 1381   1.679   1.025   0.006  0.2718  0.3775  0.3058
  346SOL    HW1 1382   1.772   1.050   0.009 -0.3106 -0.2636  0.0297
  346SOL    HW2 1383   1.663   0.963   0.075 -0.3701 -0.4330 -2.0153
  346SOL     MW 1384   1.689   1.020   0.016  0.1102  0.1860 -0.0369
  347SOL     OW 1385   1.174   0.659   2.347  0.3559 -0.0423  0.0532
  347SOL    HW1 1386   1.262   0.629   2.384  1.9480 -2.3537  0.2957
  347SOL    HW2 1387   1.117   0.692   2.423  1.6391  0.7337  0.0099
  347SOL     MW 1388   1.178   0.660   2.362  0.7353 -0.2449  0.0795
  348SOL     OW 1389   1.304   2.671   1.886  0.0685 -0.0198  0.1890
  348SOL    HW1 1390   1.349   2.592   1.908  0.5487  0.6372 -1.8881
  348SOL    HW2 1391   1.361   2.735   1.925  0.0446  2.1420 -2.2394
  348SOL     MW 1392   1.318   2.669   1.894  0.1287  0.3521 -0.4054
  349SOL     OW 1393   1.324   0.223   2.685  0.3052 -0.4829  0.1085
  349SOL    HW1 1394   1.294   0.281   2.754 -0.8467 -1.9137 -0.1347
  349SOL    HW2 1395   1.409   0.190   2.717  1.6754 -0.1361  0.3663
  349SOL     MW 1396   1.331   0.226   2.698  0.3340 -0.6259  0.1104
  350SOL     OW 1397   1.904   0.675   2.642 -0.0601 -0.9232  0.1631
  350SOL    HW1 1398   1.896   0.618   2.564 -2.5178  0.8474 -0.9088
  350SOL    HW2 1399   1.994   0.649   2.674  0.3075 -2.2914  0.9207
  350SOL     MW 1400   1.915   0.664   2.636 -0.3358 -0.8701  0.1216
  351SOL     OW 1401   0.066   0.982   1.560 -0.4729 -0.4647  0.2959
  351SOL    HW1 1402  -0.014   1.020   1.601  1.0193  1.6103 -0.4526
  351SOL    HW2 1403   0.125   1.058   1.552 -3.0128 -1.3183  0.0148
  351SOL     MW 1404   0.063   0.997   1.564 -0.6111 -0.3035  0.1601
  352SOL     OW 1405   0.823   1.579   2.720 -0.2552 -0.5251  0.0495
  352SOL    HW1 1406   0.856   1.556   2.807 -0.4756 -0.1443 -2.7152
  352SOL    HW2 1407   0.786   1.498   2.683  0.1777 -2.2380 -1.0624
  352SOL     MW 1408   0.822   1.565   2.727 -0.2271 -0.7009 -0.4620
  353SOL     OW 1409   3.076   2.437   2.784  0.6956  0.0141 -0.5589
  353SOL    HW1 1410   3.166   2.434   2.765 -1.0463 -3.2648  1.0788
  353SOL    HW2 1411   3.041   2.523   2.763  2.7994 -1.7019 -1.0165
  353SOL     MW 1412   3.083   2.448   2.779  0.7433 -0.6449 -0.4032
  354SOL     OW 1413   0.338   2.470   0.889  0.4207 -0.2123  0.1332
  354SOL    HW1 1414   0.401   2.446   0.965  0.0487  1.7731  1.8436
  354SOL    HW2 1415   0.256   2.419   0.897  0.9448 -2.5070 -0.3707
  354SOL     MW 1416   0.335   2.460   0.900  0.4408 -0.2531  0.2924
  355SOL     OW 1417   0.074   2.268   0.380  0.2725  0.1754  0.1697
  355SOL    HW1 1418   0.006   2.202   0.379 -0.2508 -1.9324 -1.7234
  355SOL    HW2 1419   0.059   2.311   0.465  2.1706 -0.6718  1.6887
  355SOL     MW 1420   0.063   2.265   0.391  0.4539 -0.2144  0.1204
  356SOL     OW 1421   0.716   2.932   0.974 -0.3073  0.1971 -0.1400
  356SOL    HW1 1422   0.795   2.892   0.940 -2.7501  0.0469  1.1313
  356SOL    HW2 1423   0.644   2.864   0.961 -0.5759 -0.7250  0.6257
  356SOL     MW 1424   0.717   2.918   0.968 -0.6650  0.0557  0.1288
  357SOL     OW 1425   1.780   2.993   0.373  0.4364 -0.3254 -0.1148
  357SOL    HW1 1426   1.746   2.913   0.414 -0.1393 -2.3908 -0.6736
  357SOL    HW2 1427   1.873   2.962   0.354  1.3544 -0.7096 -2.0093
  357SOL     MW 1428   1.787   2.978   0.376  0.4816 -0.6486 -0.4385
  358SOL     OW 1429   0.516   0.140   1.028  0.0386  0.1826  0.1430
  358SOL    HW1 1430   0.584   0.103   0.967  1.8005 -1.5451 -1.3916
  358SOL    HW2 1431   0.448   0.180   0.975  0.0539  1.1897  1.2847
  358SOL     MW 1432   0.516   0.140   1.013  0.2731  0.0876  0.0911
  359SOL     OW 1433   0.911   2.718   1.915 -0.1494  0.0458 -0.1523
  359SOL    HW1 1434   0.884   2.651   1.983  0.5691  2.5706 -1.8463
  359SOL    HW2 1435   0.968   2.669   1.851  0.1411 -3.4599  2.9694
  359SOL     MW 1436   0.915   2.703   1.915 -0.0163 -0.0836  0.0361
  360SOL     OW 1437   0.507   2.729   0.926  0.1310 -0.3648 -0.3860
  360SOL    HW1 1438   0.508   2.677   0.846  2.2215  0.7265  1.3158
  360SOL    HW2 1439   0.542   2.665   0.988 -1.1624  1.3563 -1.4665
  360SOL     MW 1440   0.512   2.713   0.923  0.2361  0.0063 -0.3040
  361SOL     OW 1441   0.177   2.745   1.379 -0.0150  0.2455  0.0676
  361SOL    HW1 1442   0.190   2.825   1.412  1.1421 -1.0689  0.3171
  361SOL    HW2 1443   0.263   2.707   1.377 -0.6753 -0.3133  0.6236
  361SOL     MW 1444   0.190   2.751   1.383  0.0505 -0.0017  0.1739
  362SOL     OW 1445   1.464   2.407   0.628  0.7622 -0.1919  0.0161
  362SOL    HW1 1446   1.472   2.318   0.664  1.6897  0.0643 -1.8428
  362SOL    HW2 1447   1.481   2.469   0.695  0.4877  0.7385 -1.1315
  362SOL     MW 1448   1.467   2.403   0.642  0.8484 -0.0353 -0.3805
  363SOL     OW 1449   0.289   3.079   0.689 -0.1668 -0.1857 -0.6376
  363SOL    HW1 1450   0.267   3.011   0.753  1.0735 -2.9857  3.7026
  363SOL    HW2 1451   0.210   3.088   0.642 -0.1838 -0.8480  0.2533
  363SOL     MW 1452   0.275   3.071   0.691 -0.0054 -0.6425  0.0526
  364SOL     OW 1453   0.749   0.150   0.245 -0.2841  0.2557  0.2021
  364SOL    HW1 1454   0.711   0.061   0.235 -0.0750  1.4310 -1.6743
  364SOL    HW2 1455   0.684   0.209   0.205 -2.7819 -0.6034 -1.3067
  364SOL     MW 1456   0.735   0.146   0.238 -0.5860  0.2974 -0.2445
  365SOL     OW 1457   1.034   1.994   1.133 -0.4593 -0.6897 -0.1739
  365SOL    HW1 1458   1.030   2.081   1.091  1.3252  3.0848 -0.0674
  365SOL    HW2 1459   0.963   1.958   1.084 -0.6732 -0.8252 -1.3421
  365SOL     MW 1460   1.024   2.001   1.121 -0.2520 -0.2096 -0.3140
  366SOL     OW 1461   2.867   2.627   0.988  0.1957  0.3894  0.3275
  366SOL    HW1 1462   2.925   2.653   1.053 -0.3107 -1.4880 -0.9667
  366SOL    HW2 1463   2.896   2.674   0.906  2.9846  0.8475 -0.3568
  366SOL     MW 1464   2.879   2.636   0.986  0.4969  0.2021  0.0664
  367SOL     OW 1465   1.258   2.951   0.847  0.5562  0.1846  0.3966
  367SOL    HW1 1466   1.187   2.990   0.902  0.5682 -2.0327  1.2735
  367SOL    HW2 1467   1.213   2.884   0.803  3.7792  1.4956  2.6159
  367SOL     MW 1468   1.243   2.948   0.849  0.9831  0.0650  0.8051
  368SOL     OW 1469   1.704   0.459   0.655 -0.4909 -0.5707 -0.1242
  368SOL    HW1 1470   1.749   0.383   0.692  2.2895  0.5546  1.0846
  368SOL    HW2 1471   1.785   0.508   0.618  0.4638  1.1285  0.2272
  368SOL     MW 1472   1.720   0.455   0.655  0.0019 -0.1981  0.0817
  369SOL     OW 1473   0.153   2.454   1.748  0.5531  0.3091  0.2536
  369SOL    HW1 1474   0.240   2.416   1.770  1.1740 -0.5760 -0.3869
  369SOL    HW2 1475   0.140   2.545   1.787  2.2506 -1.4775 -1.3548
  369SOL     MW 1476   0.162   2.461   1.756  0.8590 -0.0434 -0.0432
  370SOL     OW 1477   0.719   0.090   0.862 -0.5380  0.0477  0.3934
  370SOL    HW1 1478   0.770   0.158   0.905  0.8599 -0.5938  0.0390
  370SOL    HW2 1479   0.731   0.005   0.913 -0.3550  1.2251 -1.2060
  370SOL     MW 1480   0.727   0.088   0.874 -0.3294  0.1184  0.1356
  371SOL     OW 1481   1.385   2.988   1.462 -0.0033  0.2902  0.7996
  371SOL    HW1 1482   1.312   2.923   1.451 -4.5408 -0.4768 -2.3663
  371SOL    HW2 1483   1.378   3.054   1.396  0.0359 -1.1636  0.4820
  371SOL     MW 1484   1.375   2.988   1.452 -0.5968 -0.0028  0.3400
  372SOL     OW 1485   0.775   2.301   0.470  0.1717  0.2479  0.0663
  372SOL    HW1 1486   0.718   2.229   0.491  1.0134 -2.5091 -0.2477
  372SOL    HW2 1487   0.812   2.301   0.382 -1.7841  0.7487  0.1366
  372SOL     MW 1488   0.772   2.291   0.461  0.0247 -0.0498  0.0341
  373SOL     OW 1489   2.803   2.990   1.389 -0.8902  0.5672 -0.4081
  373SOL    HW1 1490   2.866   2.989   1.313  0.2326 -0.9826 -2.7898
  373SOL    HW2 1491   2.747   3.063   1.361 -1.0530 -1.0051 -0.5657
  373SOL     MW 1492   2.804   2.999   1.376 -0.7635  0.1552 -0.7431
  374SOL     OW 1493   1.491   0.496   0.232 -0.8168  0.8075  0.2828
  374SOL    HW1 1494   1.584   0.499   0.196  2.6175  2.0862  0.1036
  374SOL    HW2 1495   1.501   0.440   0.310 -2.6918 -3.1160  0.7724
  374SOL     MW 1496   1.505   0.489   0.237 -0.6111  0.4585  0.3237
  375SOL     OW 1497   1.120   2.116   2.252  0.1663  0.2389  0.1285
  375SOL    HW1 1498   1.139   2.157   2.336 -0.0322  1.2837 -0.4434
  375SOL    HW2 1499   1.093   2.024   2.258 -0.3992 -2.4657  1.1052
  375SOL     MW 1500   1.119   2.110   2.264  0.0655  0.0200  0.1819
  376SOL     OW 1501   0.665   2.558   0.151  0.3599  0.3897  0.3211
  376SOL    HW1 1502   0.711   2.490   0.196  0.9044  0.2541  2.5903
  376SOL    HW2 1503   0.597   2.507   0.102  0.3944 -2.4021 -0.3286
  376SOL     MW 1504   0.662   2.542   0.150  0.4363  0.0035  0.5347
  377SOL     OW 1505   1.303   2.079   0.898  0.3444  0.8227  0.0762
  377SOL    HW1 1506   1.225   2.046   0.850  1.2826  0.6127  1.6970
  377SOL    HW2 1507   1.327   2.006   0.946  0.7841 -0.4671 -0.4278
  377SOL     MW 1508   1.296   2.065   0.898  0.5262  0.6248  0.2236
  378SOL     OW 1509   0.995   2.844   1.497 -0.2462 -0.6493  0.0908
  378SOL    HW1 1510   0.934   2.771   1.515 -0.5415  0.1726  0.7754
  378SOL    HW2 1511   0.970   2.879   1.409  0.8788  1.1933 -0.5022
  378SOL     MW 1512   0.983   2.839   1.488 -0.1367 -0.2977  0.1029
  379SOL     OW 1513   1.046   1.828   2.269 -0.5300 -0.0433  0.3514
  379SOL    HW1 1514   0.953   1.814   2.280  1.4449 -1.6104  0.7945
  379SOL    HW2 1515   1.073   1.744   2.227  0.7754  3.2151 -1.7276
  379SOL     MW 1516   1.037   1.815   2.265 -0.0972  0.1799  0.1356
  380SOL     OW 1517   0.920   0.232   1.486 -0.3928  0.2534  0.7194
  380SOL    HW1 1518   0.937   0.177   1.414  1.9402 -1.6588  0.7517
  380SOL    HW2 1519   0.980   0.207   1.557  1.1273  1.5723  1.3429
  380SOL     MW 1520   0.930   0.221   1.486  0.1155  0.1751  0.8060
  381SOL     OW 1521   0.836   2.001   0.807 -0.1818  0.1753 -0.2607
  381SOL    HW1 1522   0.926   1.988   0.768 -2.3372  0.0202  0.2055
  381SOL    HW2 1523   0.857   2.087   0.855  0.1996  1.2085  1.6499
  381SOL     MW 1524   0.851   2.011   0.808 -0.4159  0.2911  0.0529
  382SOL     OW 1525   0.659   0.031   0.607  0.5193 -0.4439 -0.5168
  382SOL    HW1 1526   0.678   0.035   0.698 -3.5002  0.7401  0.2599
  382SOL    HW2 1527   0.613  -0.052   0.592 -0.2859 -0.2397 -0.6187
  382SOL     MW 1528   0.656   0.021   0.617 -0.1173 -0.2608 -0.4278
  383SOL     OW 1529   0.519   0.042   0.353 -0.2134 -0.2695 -0.4871
  383SOL    HW1 1530   0.554   0.090   0.431  1.3114  2.3436 -0.9854
  383SOL    HW2 1531   0.466  -0.034   0.387  0.6954  2.8413 -1.5115
  383SOL     MW 1532   0.517   0.039   0.368  0.1077  0.4857 -0.6880
  384SOL     OW 1533   0.629   2.843   0.565  0.0290  0.4534  0.5406
  384SOL    HW1 1534   0.609   2.758   0.610 -0.7292 -0.7620 -0.7906
  384SOL    HW2 1535   0.539   2.860   0.521  0.2938  0.3680  0.6722
  384SOL     MW 1536   0.614   2.834   0.565 -0.0361  0.2818  0.3823
  385SOL     OW 1537   1.339   2.041   1.548 -0.2546 -0.3479 -0.2926
  385SOL    HW1 1538   1.411   2.077   1.605 -0.5807 -0.1663 -2.1336
  385SOL    HW2 1539   1.272   2.000   1.606  0.5314  0.2516 -3.4511
  385SOL     MW 1540   1.340   2.040   1.563 -0.1939 -0.2448 -0.9523
  386SOL     OW 1541   1.274   0.430   0.942  0.3065  0.4634 -0.2976
  386SOL    HW1 1542   1.192   0.393   0.910  3.0441  0.6050  2.1467
  386SOL    HW2 1543   1.249   0.458   1.030  1.3630 -1.1814  0.7687
  386SOL     MW 1544   1.260   0.429   0.950  0.8071  0.2651  0.1656
  387SOL     OW 1545   0.854   2.218   1.450 -0.0104 -0.4456 -0.6707
  387SOL    HW1 1546   0.928   2.258   1.395  1.6373 -0.9997 -0.1453
  387SOL    HW2 1547   0.876   2.128   1.457  0.6770 -0.6125  1.1376
  387SOL     MW 1548   0.867   2.212   1.444  0.2977 -0.5407 -0.3628
  388SOL     OW 1549   1.573   2.856   1.229  0.4166  0.3926  0.0923
  388SOL    HW1 1550   1.486   2.846   1.181 -0.3909  1.2080 -1.3528
  388SOL    HW2 1551   1.634   2.793   1.177  0.6613 -1.0539  0.5685
  388SOL     MW 1552   1.570   2.846   1.216  0.3423  0.3093 -0.0355
  389SOL     OW 1553   0.454   0.070   3.071 -0.4892  0.5259  0.3397
  389SOL    HW1 1554   0.549   0.063   3.039  0.4059 -0.8560  0.4255
  389SOL    HW2 1555   0.441  -0.014   3.108 -2.6043 -1.0359 -1.0071
  389SOL     MW 1556   0.465   0.058   3.072 -0.6501  0.1375  0.1733
  390SOL     OW 1557   1.360   0.105   0.651 -0.0622 -0.4019  0.1067
  390SOL    HW1 1558   1.451   0.086   0.629  1.8730  1.9967  0.5819
  390SOL    HW2 1559   1.353   0.108   0.746  0.9872 -1.8912  0.4264
  390SOL     MW 1560   1.371   0.103   0.661  0.3316 -0.2820  0.2116
  391SOL     OW 1561   0.289   2.287   1.445 -0.5926 -0.0374 -0.5079
  391SOL    HW1 1562   0.244   2.221   1.496  3.4275  0.6408  0.6667
  391SOL    HW2 1563   0.226   2.365   1.441  4.3265 -1.2782 -0.7956
  391SOL     MW 1564   0.275   2.289   1.451  0.5868 -0.1116 -0.3909
  392SOL     OW 1565   2.026   2.173   0.269 -0.7407 -0.0036  0.1638
  392SOL    HW1 1566   1.952   2.212   0.310  0.9885 -3.3662  1.4192
  392SOL    HW2 1567   2.077   2.147   0.342 -1.8336 -0.3290  2.4012
  392SOL     MW 1568   2.023   2.174   0.284 -0.6567 -0.4902  0.6246
  393SOL     OW 1569   0.207   3.003   2.936  0.5842 -0.0575 -0.0004
  393SOL    HW1 1570   0.269   3.060   2.897 -0.3359 -1.9181  0.6596
  393SOL    HW2 1571   0.122   3.039   2.910  2.4935  0.4925  4.2878
  393SOL     MW 1572   0.204   3.015   2.928  0.7147 -0.2304  0.6525
  394SOL     OW 1573   0.822   1.676   1.481 -0.3450  0.1905 -0.5278
  394SOL    HW1 1574   0.739   1.684   1.540 -2.6471 -1.2360  0.5917
  394SOL    HW2 1575   0.836   1.762   1.455 -0.1588 -3.2562  1.7308
  394SOL     MW 1576   0.813   1.688   1.485 -0.6242 -0.4525 -0.0821
  395SOL     OW 1577   0.915   2.842   2.618  0.0887  0.0478 -0.5186
  395SOL    HW1 1578   0.945   2.899   2.695 -3.6116  1.1462  3.1243
  395SOL    HW2 1579   1.005   2.802   2.586  2.5507 -0.7841  1.2395
  395SOL     MW 1580   0.931   2.844   2.624 -0.0747  0.0830  0.1940
  396SOL     OW 1581   0.746   1.829   2.379 -0.3788  0.1334 -0.6225
  396SOL    HW1 1582   0.799   1.831   2.462 -1.2561  1.2419  3.4441
  396SOL    HW2 1583   0.720   1.737   2.382  0.0760  1.2882  0.2600
  396SOL     MW 1584   0.750   1.817   2.391 -0.4345  0.4320  0.0304
  397SOL     OW 1585   1.043   2.344   1.276 -0.0602 -0.2643  0.2546
  397SOL    HW1 1586   1.071   2.400   1.207  0.1804  2.8623  1.9725
  397SOL    HW2 1587   1.120   2.335   1.339  1.5218  1.5450  0.2921
  397SOL     MW 1588   1.057   2.350   1.275  0.1803  0.3869  0.4862
  398SOL     OW 1589   0.575   2.607   0.687 -0.2094 -0.0713 -0.0407
  398SOL    HW1 1590   0.507   2.576   0.634  2.5551  1.6448 -1.7948
  398SOL    HW2 1591   0.660   2.580   0.638  1.2813 -0.2447 -1.0204
  398SOL     MW 1592   0.577   2.599   0.674  0.3520  0.1323 -0.4014
  399SOL     OW 1593   0.245   2.031   0.352  0.3237  0.5443  0.2772
  399SOL    HW1 1594   0.193   2.107   0.345 -2.0818 -1.4184 -0.0276
  399SOL    HW2 1595   0.315   2.046   0.285  3.6483 -0.7336 -3.7579
  399SOL     MW 1596   0.247   2.043   0.342  0.4450  0.1167 -0.2954
  400SOL     OW 1597   0.575   1.822   0.203  0.4673  0.5017 -0.0532
  400SOL    HW1 1598   0.558   1.918   0.190  0.6313 -0.3438  0.2545
  400SOL    HW2 1599   0.507   1.785   0.260  1.3907 -2.4848 -1.1077
  400SOL     MW 1600   0.564   1.830   0.209  0.6108 -0.0039 -0.1517
  401SOL     OW 1601   1.012   2.110   0.092  0.1667 -0.2068 -0.5129
  401SOL    HW1 1602   1.000   2.016   0.086 -3.2705  2.2001  0.0001
  401SOL    HW2 1603   1.024   2.120   0.182  0.7001 -1.8398 -1.5767
  401SOL     MW 1604   1.012   2.099   0.103 -0.2164 -0.1047 -0.5856
  402SOL     OW 1605   0.676   2.691   1.731 -0.0667  0.9152 -0.0035
  402SOL    HW1 1606   0.597   2.714   1.776  0.6717 -0.1694 -2.5894
  402SOL    HW2 1607   0.746   2.714   1.791 -2.6383 -2.6323 -0.0893
  402SOL     MW 1608   0.675   2.697   1.745 -0.3086  0.3041 -0.3560
  403SOL     OW 1609   0.077   0.572   0.347  0.1265  0.1776  0.3862
  403SOL    HW1 1610   0.149   0.615   0.392  1.8955 -0.0875 -2.1945
  403SOL    HW2 1611   0.116   0.492   0.308 -2.0681  1.5990  3.4519
  403SOL     MW 1612   0.091   0.567   0.348  0.0703  0.3302  0.4502
  404SOL     OW 1613   0.977   2.909   0.880  0.0961  0.1379  0.1062
  404SOL    HW1 1614   0.977   2.828   0.835  1.2515  2.1131 -0.0643
  404SOL    HW2 1615   0.972   2.977   0.813 -0.6372 -1.1823 -0.1810
  404SOL     MW 1616   0.977   2.907   0.865  0.1518  0.2243  0.0458
  405SOL     OW 1617   0.446   2.459   1.585  0.1422 -0.1344 -0.1109
  405SOL    HW1 1618   0.464   2.532   1.524 -0.6801 -1.9234  3.4697
  405SOL    HW2 1619   0.401   2.399   1.531 -1.6596  2.6702 -1.8815
  405SOL     MW 1620   0.443   2.461   1.570 -0.2040 -0.0004  0.1279
  406SOL     OW 1621   0.408   2.410   1.156 -0.1207 -0.4259  0.3569
  406SOL    HW1 1622   0.314   2.409   1.173  1.2703  0.8352 -0.0729
  406SOL    HW2 1623   0.448   2.342   1.205 -0.7807  2.9427  0.1510
  406SOL     MW 1624   0.401   2.401   1.165 -0.0243  0.1850  0.2730
  407SOL     OW 1625   3.069   2.729   1.170  0.5487 -0.5556  0.0827
  407SOL    HW1 1626   3.131   2.729   1.247 -0.0336 -1.0521  0.6678
  407SOL    HW2 1627   3.132   2.714   1.102 -0.8498 -0.3647  0.1023
  407SOL     MW 1628   3.086   2.727   1.171  0.2873 -0.5959  0.1625
  408SOL     OW 1629   2.087   2.052   0.537 -0.6332  0.7232  1.1070
  408SOL    HW1 1630   2.051   2.109   0.607 -0.4698  3.6629  0.5257
  408SOL    HW2 1631   2.010   2.001   0.498 -0.7957 -0.8393 -2.2689
  408SOL     MW 1632   2.072   2.053   0.541 -0.6331  0.9049  0.5849
  409SOL     OW 1633   1.427   0.165   0.914  0.0525 -0.2448 -0.7791
  409SOL    HW1 1634   1.444   0.256   0.941 -1.1480  1.6076 -0.6138
  409SOL    HW2 1635   1.478   0.099   0.966  0.1840  0.6003  0.4093
  409SOL     MW 1636   1.436   0.169   0.925 -0.0886  0.1111 -0.6005
  410SOL     OW 1637   1.071   2.513   1.043 -0.1944 -0.3605 -0.0135
  410SOL    HW1 1638   0.981   2.493   1.013  2.1482  0.5778 -1.0306
  410SOL    HW2 1639   1.139   2.460   0.994  2.8158  0.7256 -1.9187
  410SOL     MW 1640   1.068   2.503   1.033  0.5118 -0.0934 -0.3991
  411SOL     OW 1641   1.943   0.087   2.872  0.3292  0.1384 -0.1389
  411SOL    HW1 1642   1.884   0.065   2.798 -2.1783  0.6989  2.4721
  411SOL    HW2 1643   1.882   0.137   2.923  1.0086  0.2488 -3.3258
  411SOL     MW 1644   1.927   0.091   2.869  0.0880  0.2269 -0.2149
  412SOL     OW 1645   1.020   2.229   0.579  0.5870 -0.1070 -0.3306
  412SOL    HW1 1646   1.063   2.321   0.572 -2.3038 -0.9886  0.2677
  412SOL    HW2 1647   0.931   2.245   0.535  0.3694 -1.4372 -1.2096
  412SOL     MW 1648   1.014   2.243   0.572  0.1769 -0.3988 -0.3676
  413SOL     OW 1649   0.544   2.783   0.091  0.3682 -0.1753  0.7207
  413SOL    HW1 1650   0.593   2.696   0.107  2.7089 -1.9215  3.3205
  413SOL    HW2 1651   0.591   2.814   0.009  1.3061 -1.0618  1.7098
  413SOL     MW 1652   0.556   2.775   0.082  0.8008 -0.5227  1.1942
  414SOL     OW 1653   2.005   3.018   1.007 -0.1222  0.0547 -0.1050
  414SOL    HW1 1654   1.960   2.977   0.937 -1.1018  1.2103  3.0559
  414SOL    HW2 1655   2.059   2.942   1.033 -1.6557  0.0784 -0.1883
  414SOL     MW 1656   2.006   3.002   1.001 -0.4538  0.2103  0.3011
  415SOL     OW 1657   1.728   2.667   1.111  0.1293  0.4151 -0.2340
  415SOL    HW1 1658   1.692   2.603   1.180  0.8732 -2.0415  1.3828
  415SOL    HW2 1659   1.821   2.695   1.142 -0.0518  0.8163  0.0028
  415SOL     MW 1660   1.736   2.662   1.124  0.2036  0.1439  0.0105
  416SOL     OW 1661   0.568   1.937   1.389 -0.0432  0.1873 -0.5992
  416SOL    HW1 1662   0.529   2.027   1.378 -0.0562 -1.1933  1.6191
  416SOL    HW2 1663   0.577   1.897   1.299  2.4349  1.4774 -0.7147
  416SOL     MW 1664   0.564   1.944   1.375  0.2821  0.1753 -0.3217
  417SOL     OW 1665   1.066   2.989   2.015  0.4771  0.3806 -0.7135
  417SOL    HW1 1666   0.991   2.994   2.080  1.4822 -0.0884 -0.7805
  417SOL    HW2 1667   1.034   2.917   1.959  0.8772 -0.5950 -1.0501
  417SOL     MW 1668   1.052   2.980   2.016  0.6625  0.1900 -0.7668
  418SOL     OW 1669   0.714   2.960   0.174 -0.2685 -0.1699 -0.2555
  418SOL    HW1 1670   0.784   2.943   0.101  3.8053 -2.4574  2.4657
  418SOL    HW2 1671   0.643   2.897   0.153  0.3791 -2.6790  1.6231
  418SOL     MW 1672   0.714   2.950   0.161  0.3545 -0.8028  0.3514
  419SOL     OW 1673   0.462   2.682   1.405 -0.0873 -0.2714 -0.4256
  419SOL    HW1 1674   0.526   2.744   1.434 -0.4657  0.0578  4.3483
  419SOL    HW2 1675   0.495   2.650   1.322  2.6975 -1.5413  2.4270
  419SOL     MW 1676   0.475   2.686   1.398  0.2302 -0.3955  0.5807
  420SOL     OW 1677   0.915   2.218   0.975  0.0007 -0.1640  0.7679
  420SOL    HW1 1678   0.857   2.215   1.055 -0.1628  4.5289  1.6690
  420SOL    HW2 1679   0.889   2.303   0.935 -3.1887  0.8985  2.7279
  420SOL     MW 1680   0.904   2.229   0.981 -0.4417  0.5953  1.1454
  421SOL     OW 1681   2.938   0.098   0.088 -0.0433 -0.1216 -0.2480
  421SOL    HW1 1682   2.897   0.063   0.011  2.4897 -1.1356 -3.3935
  421SOL    HW2 1683   2.970   0.024   0.137  1.2852  2.0815 -2.8294
  421SOL     MW 1684   2.937   0.084   0.084  0.4662  0.0353 -1.0036
  422SOL     OW 1685   0.835   2.506   0.900  0.4169 -0.0142 -0.3878
  422SOL    HW1 1686   0.757   2.550   0.926  0.8777  0.6377 -0.6448
  422SOL    HW2 1687   0.836   2.514   0.796 -1.4119 -2.5348 -1.2147
  422SOL     MW 1688   0.825   2.513   0.890  0.2364 -0.2608 -0.5308
  423SOL     OW 1689   1.622   0.091   0.529 -0.0783  0.0905  0.2502
  423SOL    HW1 1690   1.632   0.050   0.444  0.3412 -0.2429 -0.5909
  423SOL    HW2 1691   1.610   0.184   0.512 -1.4816 -1.4273 -0.1908
  423SOL     MW 1692   1.622   0.098   0.516 -0.2081 -0.1537  0.0811
  424SOL     OW 1693   0.742   2.177   1.190  0.2379  0.1791  0.5256
  424SOL    HW1 1694   0.644   2.191   1.207  1.5365 -0.3503  0.0402
  424SOL    HW2 1695   0.783   2.217   1.265 -1.0825 -0.0593 -2.5980
  424SOL     MW 1696   0.734   2.184   1.202  0.2350  0.0778  0.0494
  425SOL     OW 1697   1.748   2.797   2.062 -0.3838 -0.1044  0.0690
  425SOL    HW1 1698   1.745   2.782   1.967 -0.5267 -0.0857  0.3654
  425SOL    HW2 1699   1.748   2.709   2.108  0.7210 -0.3730  0.9646
  425SOL     MW 1700   1.747   2.783   2.055 -0.2569 -0.1374  0.2263
  426SOL     OW 1701   0.767   1.646   1.917  0.1933 -0.4441 -0.1766
  426SOL    HW1 1702   0.696   1.625   1.850  0.9622 -1.1843 -0.2085
  426SOL    HW2 1703   0.727   1.701   1.988 -0.6832 -0.5720  0.1854
  426SOL     MW 1704   0.753   1.650   1.917  0.1791 -0.5586 -0.1331
  427SOL     OW 1705   0.396   1.550   1.864  0.2424 -0.5358 -0.9481
  427SOL    HW1 1706   0.429   1.469   1.838  1.8037  3.7970  0.2511
  427SOL    HW2 1707   0.318   1.524   1.912  1.0100 -1.9889  0.7626
  427SOL     MW 1708   0.390   1.536   1.867  0.5497 -0.1559 -0.5642
  428SOL     OW 1709   0.596   2.595   1.171  0.1106  0.5093 -0.0357
  428SOL    HW1 1710   0.674   2.580   1.230 -0.5616 -0.5384  0.4841
  428SOL    HW2 1711   0.544   2.512   1.179  0.2452  1.3008 -1.0543
  428SOL     MW 1712   0.599   2.582   1.180  0.0397  0.4755 -0.1015
  429SOL     OW 1713   1.379   2.796   1.050 -0.5916 -1.2360 -0.3299
  429SOL    HW1 1714   1.291   2.774   1.098 -2.0463  2.6976  0.9875
  429SOL    HW2 1715   1.354   2.849   0.976  0.4874  1.0466 -0.3484
  429SOL     MW 1716   1.364   2.800   1.047 -0.6412 -0.4158 -0.1585
  430SOL     OW 1717   1.128   2.719   0.692  0.2720  0.1900 -0.1762
  430SOL    HW1 1718   1.198   2.657   0.701  0.4859 -1.4824 -0.4413
  430SOL    HW2 1719   1.098   2.703   0.605  0.6970 -0.3957 -1.3598
  430SOL     MW 1720   1.134   2.709   0.682  0.3563 -0.1079 -0.3674
  431SOL     OW 1721   0.396   2.028   1.122  0.1845 -0.7642  0.5622
  431SOL    HW1 1722   0.449   1.947   1.142 -1.6484  1.1736  1.5541
  431SOL    HW2 1723   0.356   2.026   1.036  0.6988  0.7388  3.6075
  431SOL     MW 1724   0.398   2.017   1.114  0.0105 -0.3102  1.0949
  432SOL     OW 1725   0.097   0.035   1.166  0.5288 -0.5053 -0.8581
  432SOL    HW1 1726   0.106   0.083   1.255  1.0479  0.7781  2.6492
  432SOL    HW2 1727   0.009  -0.015   1.168  0.0879 -0.4258  0.4928
  432SOL     MW 1728   0.086   0.035   1.178  0.5391 -0.3255 -0.2171
  433SOL     OW 1729   0.670   2.896   1.451  0.1591 -0.5176 -0.2102
  433SOL    HW1 1730   0.728   2.917   1.526 -0.0544  0.8322  3.6101
  433SOL    HW2 1731   0.717   2.907   1.367 -1.7665 -0.8461  0.3953
  433SOL     MW 1732   0.684   2.900   1.450 -0.1232 -0.3829  0.3738
  434SOL     OW 1733   1.617   2.859   1.521 -0.1996 -0.4135 -0.3024
  434SOL    HW1 1734   1.531   2.900   1.516 -1.0390 -0.8203  3.7414
  434SOL    HW2 1735   1.616   2.823   1.433 -1.8508 -0.6449  2.5222
  434SOL     MW 1736   1.606   2.859   1.509 -0.5282 -0.4977  0.6038
  435SOL     OW 1737   2.835   1.799   0.264  0.2609 -0.0214 -0.7974
  435SOL    HW1 1738   2.907   1.850   0.222  2.5183  0.5355  0.9119
  435SOL    HW2 1739   2.825   1.725   0.208  0.8597  1.4741  0.0855
  435SOL     MW 1740   2.843   1.796   0.251  0.6377  0.2494 -0.4554
  436SOL     OW 1741   1.474   2.803   0.319  0.1148 -0.1911  0.1558
  436SOL    HW1 1742   1.534   2.772   0.392 -0.0422  1.9523  0.2005
  436SOL    HW2 1743   1.426   2.880   0.360  0.6835  1.7166 -1.6779
  436SOL     MW 1744   1.475   2.809   0.334  0.1691  0.3434 -0.0802
  437SOL     OW 1745   0.846   2.928   1.237 -0.4813  0.5388  0.2093
  437SOL    HW1 1746   0.883   3.018   1.232  0.0992  0.6557  1.6981
  437SOL    HW2 1747   0.794   2.932   1.156 -1.2520 -1.6142 -2.9605
  437SOL     MW 1748   0.844   2.940   1.226 -0.5064  0.2702 -0.0125
  438SOL     OW 1749   0.810   2.505   2.076 -0.2476  0.0532 -0.1900
  438SOL    HW1 1750   0.808   2.449   2.151 -1.8234  1.8560 -2.2744
  438SOL    HW2 1751   0.741   2.466   2.021  0.2253  1.6467  0.1489
  438SOL     MW 1752   0.801   2.492   2.078 -0.3931  0.5013 -0.4203
  439SOL     OW 1753   1.136   2.189   0.331  0.1712 -0.1433 -0.1093
  439SOL    HW1 1754   1.085   2.190   0.419  1.2761  0.9585 -0.4133
  439SOL    HW2 1755   1.129   2.277   0.288 -0.0321  0.6852 -1.8194
  439SOL     MW 1756   1.128   2.201   0.337  0.2902  0.1114 -0.3751
  440SOL     OW 1757   1.619   3.040   2.991 -0.0799 -0.3194  0.3806
  440SOL    HW1 1758   1.612   3.003   3.079 -1.5704  0.1975 -2.2746
  440SOL    HW2 1759   1.656   2.969   2.939 -2.9770 -0.7418  0.2534
  440SOL     MW 1760   1.623   3.026   2.996 -0.6588 -0.3069  0.0134
  441SOL     OW 1761   0.344   2.638   0.518 -0.5808 -0.4988  0.6638
  441SOL    HW1 1762   0.330   2.603   0.428 -1.2510  3.7245  1.5692
  441SOL    HW2 1763   0.364   2.731   0.507  0.4243  0.7772 -0.4853
  441SOL     MW 1764   0.345   2.645   0.505 -0.5366  0.2268  0.6317
  442SOL     OW 1765   0.005   2.366   0.613 -0.0743 -0.1879  0.2620
  442SOL    HW1 1766   0.021   2.466   0.612  0.3847  2.5200  2.9844
  442SOL    HW2 1767  -0.090   2.348   0.622 -0.2867  0.2532  0.6067
  442SOL     MW 1768  -0.006   2.377   0.614 -0.0418  0.2276  0.6667
  443SOL     OW 1769   1.420   1.707   1.922 -0.4999  0.6988 -0.4053
  443SOL    HW1 1770   1.377   1.729   1.842  2.2966  1.3081  3.1515
  443SOL    HW2 1771   1.392   1.614   1.940  1.6578 -2.5228  1.0742
  443SOL     MW 1772   1.410   1.698   1.914  0.1538  0.3541  0.2592
  444SOL     OW 1773   0.876   2.603   1.567 -0.6857  0.0730  0.1981
  444SOL    HW1 1774   0.953   2.589   1.620  1.2601 -0.9579  1.4419
  444SOL    HW2 1775   0.805   2.624   1.628  2.5389 -2.1110 -2.3061
  444SOL     MW 1776   0.877   2.604   1.582 -0.0036 -0.3512  0.0318
  445SOL     OW 1777   0.961   0.060   1.254  0.4784  0.5303  0.5456
  445SOL    HW1 1778   0.896   0.130   1.225 -0.8772  1.4146 -2.5786
  445SOL    HW2 1779   1.029   0.084   1.190  2.0404  0.5463 -1.8422
  445SOL     MW 1780   0.961   0.073   1.242  0.5057  0.6491 -0.1816
  446SOL     OW 1781   2.720   2.854   1.051 -0.1272  0.3472 -0.5148
  446SOL    HW1 1782   2.668   2.889   0.977 -0.4402 -1.7928  0.5400
  446SOL    HW2 1783   2.770   2.776   1.014  0.3799  2.3040 -0.6236
  446SOL     MW 1784   2.720   2.848   1.036 -0.1016  0.3230 -0.3900
  447SOL     OW 1785   3.023   2.038   1.681 -0.0888  0.3575  0.3564
  447SOL    HW1 1786   3.079   1.965   1.720  2.1547  0.9958 -0.7554
  447SOL    HW2 1787   2.972   1.991   1.612  0.5659  0.3349 -2.5061
  447SOL     MW 1788   3.024   2.022   1.677  0.2936  0.4387 -0.1680
  448SOL     OW 1789   1.683   2.393   1.682 -0.0261  0.3345 -0.1770
  448SOL    HW1 1790   1.633   2.313   1.671  2.0726  0.1388  0.9258
  448SOL    HW2 1791   1.617   2.467   1.679 -1.9205 -0.9416  1.1657
  448SOL     MW 1792   1.668   2.393   1.680  0.0008  0.1403  0.1456
  449SOL     OW 1793   0.845   2.888   0.391 -0.1590  0.0643  0.2495
  449SOL    HW1 1794   0.800   2.923   0.308  0.4111  2.7717  2.3359
  449SOL    HW2 1795   0.781   2.873   0.458 -0.0654 -1.0354 -1.2760
  449SOL     MW 1796   0.831   2.891   0.389 -0.0715  0.2764  0.3235
  450SOL     OW 1797   1.191   2.434   0.631 -0.1236 -0.2051 -0.2688
  450SOL    HW1 1798   1.180   2.388   0.714 -0.3916 -0.4208  2.2178
  450SOL    HW2 1799   1.283   2.424   0.603  0.6197  1.5372 -0.3143
  450SOL     MW 1800   1.202   2.427   0.639 -0.0609 -0.0037  0.0533
  451SOL     OW 1801   0.632   1.944   1.650 -0.0233  0.5602  0.6066
  451SOL    HW1 1802   0.716   1.983   1.646 -0.5958 -0.1820 -1.5496
  451SOL    HW2 1803   0.594   1.958   1.560  1.0823  1.7172 -0.8608
  451SOL     MW 1804   0.638   1.951   1.638  0.0470  0.6149  0.1285
  452SOL     OW 1805   0.311   2.655   0.012 -0.2232  0.4025 -0.5015
  452SOL    HW1 1806   0.394   2.699   0.041 -0.3896  2.5774  1.4825
  452SOL    HW2 1807   0.312   2.678  -0.081 -0.1351  3.3108 -0.4403
  452SOL     MW 1808   0.322   2.664   0.004 -0.2335  1.0732 -0.2316
  453SOL     OW 1809   0.417   3.001   1.650  0.3906  0.1153 -0.8905
  453SOL    HW1 1810   0.473   3.074   1.613 -0.7801 -1.4812  0.2676
  453SOL    HW2 1811   0.343   2.986   1.590  0.1925 -1.9990 -0.0591
  453SOL     MW 1812   0.415   3.009   1.637  0.2100 -0.3743 -0.6280
  454SOL     OW 1813   1.138   2.753   1.166 -0.5311 -0.1900  0.4380
  454SOL    HW1 1814   1.121   2.667   1.121  1.9724 -1.8578  1.2361
  454SOL    HW2 1815   1.062   2.806   1.148 -2.6445 -0.5538 -0.7362
  454SOL     MW 1816   1.126   2.749   1.157 -0.4796 -0.4581  0.3884
  455SOL     OW 1817   1.634   2.944   0.138  0.5551 -0.0256  0.3736
  455SOL    HW1 1818   1.697   2.956   0.209 -1.5107 -1.3047  1.2205
  455SOL    HW2 1819   1.566   2.899   0.185 -1.1488  1.0841 -1.2507
  455SOL     MW 1820   1.633   2.939   0.153  0.0578 -0.0480  0.2710
  456SOL     OW 1821   2.861   0.307   1.388  0.6051 -0.2135 -0.0312
  456SOL    HW1 1822   2.808   0.247   1.337 -2.3060  0.2624 -0.6533
  456SOL    HW2 1823   2.916   0.360   1.326 -0.6768  2.4343  1.9717
  456SOL     MW 1824   2.861   0.306   1.373  0.0519  0.1987  0.1510
  457SOL     OW 1825   0.939   1.527   2.967  0.3573  0.2190  0.1923
  457SOL    HW1 1826   0.880   1.532   3.046 -0.3101  0.0978  1.0612
  457SOL    HW2 1827   1.008   1.470   2.994 -1.2882  2.0150  2.8893
  457SOL     MW 1828   0.940   1.520   2.981  0.0521  0.4399  0.6628
  458SOL     OW 1829   1.441   1.348   0.641  0.3820  0.7382 -0.3605
  458SOL    HW1 1830   1.368   1.396   0.687  1.5135 -0.3211 -2.6469
  458SOL    HW2 1831   1.404   1.314   0.557  0.0858  1.5626 -0.6041
  458SOL     MW 1832   1.426   1.350   0.636  0.4922  0.7072 -0.6943
  459SOL     OW 1833   1.618   0.104   0.207  0.0943 -0.1259  0.4090
  459SOL    HW1 1834   1.598   0.013   0.187  1.9798  3.0285 -3.4728
  459SOL    HW2 1835   1.538   0.158   0.193 -0.2548 -0.0758 -0.1240
  459SOL     MW 1836   1.605   0.100   0.202  0.2970  0.2969 -0.1735
  460SOL     OW 1837   1.740   2.164   0.618 -0.8051 -0.2083 -0.6199
  460SOL    HW1 1838   1.651   2.160   0.649  2.4195  2.7906 -0.0353
  460SOL    HW2 1839   1.783   2.079   0.590  1.5920  1.5517  0.7873
  460SOL     MW 1840   1.734   2.152   0.619 -0.0634  0.4195 -0.3571
  461SOL     OW 1841   0.367   2.320   0.652  0.3951 -0.0129  0.2001
  461SOL    HW1 1842   0.278   2.355   0.632 -3.0276  0.9103  0.3752
  461SOL    HW2 1843   0.394   2.351   0.739 -0.2545  0.6043  1.2250
  461SOL     MW 1844   0.359   2.329   0.661 -0.1422  0.1903  0.3584
  462SOL     OW 1845   0.404   0.249   1.362 -0.1777  0.1317 -0.1260
  462SOL    HW1 1846   0.441   0.159   1.349  0.4269  2.4178 -2.1750
  462SOL    HW2 1847   0.484   0.310   1.338  0.0084  0.2826 -0.4580
  462SOL     MW 1848   0.420   0.245   1.357 -0.0734  0.4533 -0.4402
  463SOL     OW 1849   0.950   3.086   0.673 -0.7622  0.1413  0.0512
  463SOL    HW1 1850   0.993   3.054   0.591 -0.5442  1.9032  0.3773
  463SOL    HW2 1851   0.860   3.086   0.643  0.9985  2.0451  1.3845
  463SOL     MW 1852   0.944   3.082   0.658 -0.5011  0.6250  0.2701
  464SOL     OW 1853   0.871   2.987   2.204 -0.1753  0.1793 -0.9488
  464SOL    HW1 1854   0.840   2.898   2.207  0.2521 -2.4330  0.7474
  464SOL    HW2 1855   0.877   3.005   2.296 -0.5236 -0.9291 -1.8067
  464SOL     MW 1856   0.867   2.977   2.216 -0.1649 -0.3116 -0.8382
  465SOL     OW 1857   0.698   0.282   0.483  0.0485 -0.6633  0.0823
  465SOL    HW1 1858   0.670   0.223   0.558 -2.8938  1.0270  0.7737
  465SOL    HW2 1859   0.732   0.222   0.413 -2.1593 -1.0087 -0.2700
  465SOL     MW 1860   0.699   0.266   0.483 -0.6310 -0.4858  0.1270
  466SOL     OW 1861   1.100   2.001   0.736  0.2234 -0.2619 -0.5727
  466SOL    HW1 1862   1.103   1.926   0.677 -0.4898  1.3205  1.1268
  466SOL    HW2 1863   1.093   2.075   0.676  0.4368 -2.3435 -1.7037
  466SOL     MW 1864   1.100   2.001   0.720  0.1575 -0.3278 -0.4977
  467SOL     OW 1865   1.256   2.360   0.913  0.0412  0.5504  0.0210
  467SOL    HW1 1866   1.344   2.393   0.934 -1.7058 -1.2866  6.0332
  467SOL    HW2 1867   1.252   2.277   0.961  1.8230 -2.4993  1.3982
  467SOL     MW 1868   1.267   2.354   0.922  0.0458 -0.0944  0.9960
  468SOL     OW 1869   0.326   2.619   2.003 -0.2966  0.3732 -0.1776
  468SOL    HW1 1870   0.331   2.531   1.966  1.9433  1.9068 -1.7932
  468SOL    HW2 1871   0.393   2.668   1.951  0.5572 -1.3665 -1.4761
  468SOL     MW 1872   0.336   2.614   1.992  0.1116  0.3460 -0.5621
  469SOL     OW 1873   0.424   2.071   1.762  0.4032 -0.1978  0.2808
  469SOL    HW1 1874   0.344   2.064   1.708 -0.0412  1.1386  0.2018
  469SOL    HW2 1875   0.493   2.028   1.705 -1.6686  0.3161 -2.2151
  469SOL     MW 1876   0.422   2.064   1.748  0.0712  0.0463 -0.0590
  470SOL     OW 1877   3.086   2.611   0.209 -0.3593  0.3338 -0.0956
  470SOL    HW1 1878   3.006   2.563   0.227  0.0694 -1.3595  0.2870
  470SOL    HW2 1879   3.081   2.631   0.118 -0.9007 -0.5263 -0.1786
  470SOL     MW 1880   3.074   2.607   0.199 -0.3742 -0.0031 -0.0561
  471SOL     OW 1881   1.230   2.742   1.437  0.2464 -0.2253 -0.1796
  471SOL    HW1 1882   1.151   2.768   1.485  1.2741  0.7995  1.4963
  471SOL    HW2 1883   1.191   2.732   1.354 -1.7450  0.3543 -0.6650
  471SOL     MW 1884   1.215   2.744   1.433  0.1193 -0.0136 -0.0225
  472SOL     OW 1885   2.951   2.099   0.404  0.0569  0.2534 -0.2889
  472SOL    HW1 1886   2.977   2.074   0.317 -0.1180  0.1469  3.7012
  472SOL    HW2 1887   2.935   2.028   0.468 -0.4854  0.3577  0.3339
  472SOL     MW 1888   2.953   2.086   0.401 -0.0377  0.2531  0.3198
  473SOL     OW 1889   0.798   2.519   1.312 -0.3825  0.2278  0.4757
  473SOL    HW1 1890   0.871   2.461   1.281 -0.2825 -1.0765  0.6827
  473SOL    HW2 1891   0.827   2.561   1.395 -0.1020  1.5724  1.1395
  473SOL     MW 1892   0.812   2.517   1.319 -0.3323  0.2331  0.5906
  474SOL     OW 1893   0.834   2.122   1.725 -0.5566  0.4821 -0.2827
  474SOL    HW1 1894   0.913   2.097   1.764  1.2434 -0.5050  1.7398
  474SOL    HW2 1895   0.851   2.183   1.653 -1.8339  1.6893  1.9703
  474SOL     MW 1896   0.846   2.127   1.720 -0.4876  0.5112  0.2814
  475SOL     OW 1897   1.678   3.101   1.357 -0.0667 -0.2444  0.8528
  475SOL    HW1 1898   1.600   3.112   1.296 -1.2031 -1.1016  1.5844
  475SOL    HW2 1899   1.670   3.010   1.390  1.5437 -0.9378  1.6951
  475SOL     MW 1900   1.666   3.090   1.353 -0.0041 -0.4490  1.0604
  476SOL     OW 1901   1.462   2.611   0.818 -0.1086 -0.2381 -0.6591
  476SOL    HW1 1902   1.409   2.644   0.897  0.0818 -0.8880  0.6166
  476SOL    HW2 1903   1.506   2.690   0.778  0.7608  1.2732  1.5812
  476SOL     MW 1904   1.461   2.626   0.823  0.0312 -0.1245 -0.1952
  477SOL     OW 1905   0.821   2.514   0.608 -0.0954 -0.3901  0.2273
  477SOL    HW1 1906   0.881   2.548   0.549 -0.6302 -3.3221 -2.2423
  477SOL    HW2 1907   0.791   2.432   0.558  1.2476  0.0641 -1.0783
  477SOL     MW 1908   0.825   2.508   0.594  0.0112 -0.7170 -0.2708
  478SOL     OW 1909   0.169   2.668   0.991  0.4008 -0.6885  0.4654
  478SOL    HW1 1910   0.214   2.743   0.960  0.1535 -0.1915  0.9986
  478SOL    HW2 1911   0.217   2.594   0.959  0.9121  0.7364 -0.7077
  478SOL     MW 1912   0.181   2.668   0.983  0.4357 -0.4349  0.3810
  479SOL     OW 1913   1.458   1.926   1.315 -0.4946 -0.3416  0.2984
  479SOL    HW1 1914   1.416   1.973   1.387  0.5731 -0.0974 -1.2910
  479SOL    HW2 1915   1.536   1.885   1.358 -2.2282 -1.1282 -0.9321
  479SOL     MW 1916   1.463   1.927   1.330 -0.5824 -0.4132 -0.0736
  480SOL     OW 1917   1.837   2.426   1.354 -0.5102 -0.3100 -0.3776
  480SOL    HW1 1918   1.860   2.347   1.405  0.4850  3.1365  1.0918
  480SOL    HW2 1919   1.849   2.401   1.264 -2.8438  0.6001 -0.0862
  480SOL     MW 1920   1.842   2.413   1.349 -0.6868  0.2648 -0.1453
  481SOL     OW 1921   1.155   0.153   1.084 -0.4302 -0.1695  0.0951
  481SOL    HW1 1922   1.216   0.160   1.010  1.7400  1.6566 -0.2718
  481SOL    HW2 1923   1.164   0.240   1.130 -0.3289 -0.9070  0.5070
  481SOL     MW 1924   1.164   0.166   1.080 -0.1305 -0.0258  0.1010
  482SOL     OW 1925   1.065   3.046   0.435  0.2354  0.1058 -0.4313
  482SOL    HW1 1926   0.988   2.995   0.411 -0.0502  1.2573 -0.2543
  482SOL    HW2 1927   1.047   3.137   0.408  3.1217  0.2014  1.9383
  482SOL     MW 1928   1.052   3.051   0.428  0.5785  0.2704 -0.0953
  483SOL     OW 1929   0.382   2.916   0.490 -0.3704 -0.4346  0.2779
  483SOL    HW1 1930   0.307   2.953   0.434  3.6019  0.0166  1.0686
  483SOL    HW2 1931   0.361   2.955   0.576 -3.0404  2.4653 -1.8580
  483SOL     MW 1932   0.370   2.926   0.494 -0.1986  0.0075  0.1004
  484SOL     OW 1933   1.681   1.831   1.449 -0.4293  0.5522  0.1882
  484SOL    HW1 1934   1.734   1.908   1.419  2.2997  0.0553 -0.1852
  484SOL    HW2 1935   1.679   1.836   1.545  0.0394 -1.8366 -1.1695
  484SOL     MW 1936   1.687   1.842   1.458 -0.0074  0.1714 -0.0402
  485SOL     OW 1937   0.450   2.310   0.318  1.0955 -0.5127 -0.3918
  485SOL    HW1 1938   0.427   2.290   0.407 -0.3393  0.7540 -0.5619
  485SOL    HW2 1939   0.400   2.381   0.285  1.0364 -1.1196  2.7226
  485SOL     MW 1940   0.440   2.317   0.325  0.8984 -0.4257 -0.0033
  486SOL     OW 1941   0.105   2.489   1.474 -0.0100  0.8045 -0.0959
  486SOL    HW1 1942   0.089   2.582   1.457 -0.0941  0.9822  1.5832
  486SOL    HW2 1943   0.127   2.491   1.571 -0.9045 -0.6811  3.8847
  486SOL     MW 1944   0.106   2.502   1.485 -0.1391  0.6319  0.6508
  487SOL     OW 1945   1.314   1.560   1.120  0.4655  0.3381  0.2118
  487SOL    HW1 1946   1.290   1.652   1.129 -0.4237  0.7016 -0.1076
  487SOL    HW2 1947   1.400   1.567   1.068  0.1516  2.6730 -2.0558
  487SOL     MW 1948   1.322   1.573   1.115  0.3068  0.6941 -0.1295
  488SOL     OW 1949   1.423   1.794   0.583 -0.2451  0.5016 -0.3289
  488SOL    HW1 1950   1.401   1.880   0.546  0.3511  2.0096  1.9568
  488SOL    HW2 1951   1.367   1.733   0.539  0.4486 -1.8782 -0.5110
  488SOL     MW 1952   1.413   1.798   0.573 -0.0749  0.3866 -0.0513
  489SOL     OW 1953   0.702   0.669   0.486 -0.0508  0.2861  0.7944
  489SOL    HW1 1954   0.637   0.600   0.459 -1.0778  0.6658 -0.3462
  489SOL    HW2 1955   0.689   0.685   0.579  1.8096 -0.5337 -0.1729
  489SOL     MW 1956   0.691   0.662   0.495  0.0592  0.2280  0.5163
  490SOL     OW 1957   1.352   2.084   0.462 -0.6696 -0.2798  1.1252
  490SOL    HW1 1958   1.422   2.131   0.414 -2.4935  2.8188  1.1002
  490SOL    HW2 1959   1.270   2.126   0.425 -0.2452  0.0847  3.7461
  490SOL     MW 1960   1.350   2.096   0.451 -0.8543  0.1771  1.4677
  491SOL     OW 1961   1.324   2.997   0.407 -0.2505 -0.0689 -0.0977
  491SOL    HW1 1962   1.359   3.060   0.466 -0.4009 -0.8136  0.6886
  491SOL    HW2 1963   1.234   3.035   0.421 -0.1120  1.5503  1.0519
  491SOL     MW 1964   1.317   3.010   0.417 -0.2521  0.0465  0.1577
  492SOL     OW 1965   1.479   2.148   0.701  0.4318 -0.4902 -0.0509
  492SOL    HW1 1966   1.440   2.127   0.618  0.4012 -0.1851  0.5607
  492SOL    HW2 1967   1.421   2.122   0.767  1.5545  2.4564 -1.4860
  492SOL     MW 1968   1.466   2.142   0.699  0.5759 -0.0611 -0.1595
  493SOL     OW 1969   0.203   3.043   0.329 -0.3099  0.5319 -0.0328
  493SOL    HW1 1970   0.125   3.080   0.357 -0.8492 -0.5835  0.8876
  493SOL    HW2 1971   0.195   3.003   0.243  1.6853  0.2320 -0.2891
  493SOL     MW 1972   0.192   3.042   0.321 -0.1178  0.3452  0.0548
  494SOL     OW 1973   0.381   2.341   1.819 -0.5532 -0.2866 -0.3025
  494SOL    HW1 1974   0.410   2.246   1.814  0.5434 -0.6713 -1.5318
  494SOL    HW2 1975   0.404   2.378   1.735  2.7085  0.3091  0.0475
  494SOL     MW 1976   0.388   2.333   1.807  0.0219 -0.2587 -0.4185
  495SOL     OW 1977   2.795   1.620   2.663 -0.3884 -0.5888 -0.1318
  495SOL    HW1 1978   2.803   1.692   2.726 -1.4420 -1.2513  0.1516
  495SOL    HW2 1979   2.797   1.541   2.711  1.1432 -0.4167 -1.1058
  495SOL     MW 1980   2.796   1.619   2.677 -0.3253 -0.6535 -0.2229
  496SOL     OW 1981   2.825   2.289   2.741  0.2616 -0.2302 -0.6752
  496SOL    HW1 1982   2.845   2.204   2.773  0.3256  2.0282 -2.9761
  496SOL    HW2 1983   2.910   2.330   2.757 -0.3999 -1.8087  0.8513
  496SOL     MW 1984   2.839   2.283   2.748  0.1828 -0.1405 -0.7773
  497SOL     OW 1985   1.481   2.408   2.561  0.4566 -0.3723 -0.3113
  497SOL    HW1 1986   1.480   2.344   2.484  0.0231  0.0826  0.1805
  497SOL    HW2 1987   1.438   2.365   2.634 -2.7170 -0.9948 -1.3930
  497SOL     MW 1988   1.475   2.394   2.560 -0.0193 -0.3944 -0.3891
  498SOL     OW 1989   1.474   2.742   2.316 -0.4130  0.2530  0.2082
  498SOL    HW1 1990   1.471   2.647   2.305  2.1898 -0.3852 -0.6177
  498SOL    HW2 1991   1.522   2.753   2.396 -1.9621  1.0057  1.6427
  498SOL     MW 1992   1.480   2.731   2.325 -0.2740  0.2681  0.2885
  499SOL     OW 1993   0.971   0.070   0.109  0.2378  0.0877 -0.2515
  499SOL    HW1 1994   0.885   0.099   0.138  1.8214 -2.3679 -0.2957
  499SOL    HW2 1995   0.960  -0.018   0.071  1.7027 -0.7281  1.4677
  499SOL     MW 1996   0.958   0.062   0.108  0.6400 -0.3439 -0.0305
  500SOL     OW 1997   1.034   2.537   2.724 -0.0701  0.0542 -0.5502
  500SOL    HW1 1998   1.091   2.501   2.796 -1.5082 -1.1124 -1.2516
  500SOL    HW2 1999   0.986   2.613   2.756 -0.2043 -1.8558  2.2247
  500SOL     MW 2000   1.035   2.542   2.738 -0.2776 -0.3517 -0.2766
  501SOL     OW 2001   1.809   2.295   2.930  0.2247 -0.1140 -0.2508
  501SOL    HW1 2002   1.802   2.387   2.908  2.0711 -0.3907  2.1350
  501SOL    HW2 2003   1.896   2.289   2.971 -0.4459 -1.0280 -0.2751
  501SOL     MW 2004   1.820   2.307   2.932  0.3798 -0.2711  0.0608
  502SOL     OW 2005   0.317   2.751   2.864 -0.1232  0.4162  0.1741
  502SOL    HW1 2006   0.390   2.779   2.805  0.0596 -0.0404  3.0746
  502SOL    HW2 2007   0.258   2.827   2.872 -0.5042 -0.5239 -0.5055
  502SOL     MW 2008   0.319   2.765   2.857 -0.1493  0.2319  0.4671
  503SOL     OW 2009   1.112   2.487   2.073  0.4250  0.3146  0.0651
  503SOL    HW1 2010   1.152   2.576   2.055 -0.5634  1.3256 -1.0992
  503SOL    HW2 2011   1.021   2.510   2.045 -2.3296  3.1883  3.7320
  503SOL     MW 2012   1.105   2.502   2.067 -0.0689  0.8271  0.3953
  504SOL     OW 2013   0.057   2.639   2.202 -0.2906  0.3610  0.3001
  504SOL    HW1 2014   0.089   2.566   2.148 -2.6048  0.5514 -1.2134
  504SOL    HW2 2015   0.011   2.599   2.284  1.8665 -1.1244  1.1396
  504SOL     MW 2016   0.055   2.624   2.206 -0.3114  0.1901  0.2112
  505SOL     OW 2017   1.578   2.827   2.739 -0.4212 -0.6137 -0.5362
  505SOL    HW1 2018   1.614   2.844   2.647 -0.7915 -0.6462 -0.0450
  505SOL    HW2 2019   1.497   2.884   2.750  1.0141  1.3369  1.3215
  505SOL     MW 2020   1.572   2.837   2.728 -0.2807 -0.3607 -0.2263
  506SOL     OW 2021   1.583   0.141   2.753  0.6613 -0.1957 -0.5262
  506SOL    HW1 2022   1.581   0.089   2.834  0.9272 -1.2960  2.1515
  506SOL    HW2 2023   1.623   0.088   2.690 -0.1809  2.4075  0.9775
  506SOL     MW 2024   1.588   0.128   2.756  0.5852  0.0026  0.0255
  507SOL     OW 2025   0.814   2.680   2.838  0.3811 -0.2289  0.0359
  507SOL    HW1 2026   0.818   2.721   2.752  0.5913 -0.8305  0.7922
  507SOL    HW2 2027   0.741   2.619   2.838  0.1407 -0.2249 -0.0759
  507SOL     MW 2028   0.805   2.677   2.827  0.3771 -0.3078  0.1210
  508SOL     OW 2029   1.207   2.148   2.533 -0.0074 -0.3513 -0.6271
  508SOL    HW1 2030   1.279   2.187   2.580  2.6664  1.9759 -0.6504
  508SOL    HW2 2031   1.135   2.153   2.590  1.9711 -0.4786  0.9089
  508SOL     MW 2032   1.207   2.154   2.546  0.6064 -0.0611 -0.4275
  509SOL     OW 2033   0.571   2.550   2.860  0.4857  0.0507 -0.1950
  509SOL    HW1 2034   0.569   2.491   2.776 -0.4652 -0.2035 -0.9387
  509SOL    HW2 2035   0.513   2.622   2.838  1.7249 -2.4374 -0.5031
  509SOL     MW 2036   0.563   2.552   2.846  0.5237 -0.3112 -0.3338
  510SOL     OW 2037   1.527   2.636   1.643  0.3366 -0.2261 -0.2562
  510SOL    HW1 2038   1.557   2.709   1.591 -0.6525 -0.0971  0.6552
  510SOL    HW2 2039   1.464   2.666   1.707  0.5883 -0.9213 -0.6582
  510SOL     MW 2040   1.523   2.649   1.645  0.2393 -0.3008 -0.1890
  511SOL     OW 2041   0.404   2.560   2.515 -0.3812 -0.5520 -0.0668
  511SOL    HW1 2042   0.482   2.515   2.558  2.9855 -0.0511  1.3156
  511SOL    HW2 2043   0.437   2.565   2.423  0.9895 -0.4653 -0.7248
  511SOL     MW 2044   0.419   2.555   2.509  0.2439 -0.4745  0.0287
  512SOL     OW 2045   0.947   1.966   2.815  0.7790 -0.4133  0.0810
  512SOL    HW1 2046   0.863   2.002   2.844 -2.6256 -1.8229  0.5270
  512SOL    HW2 2047   0.966   1.894   2.880  0.3726  0.4307  1.7523
  512SOL     MW 2048   0.939   1.962   2.828  0.2762 -0.4879  0.3604
  513SOL     OW 2049   1.509   2.416   2.259  0.3218  0.4322  0.5623
  513SOL    HW1 2050   1.598   2.451   2.232  0.9171  1.5644  2.0184
  513SOL    HW2 2051   1.524   2.333   2.302 -3.1159 -0.5392  1.0409
  513SOL     MW 2052   1.523   2.410   2.261 -0.0533  0.4534  0.8175
  514SOL     OW 2053   0.221   2.379   2.684  0.1940  0.0490  0.4611
  514SOL    HW1 2054   0.278   2.451   2.651 -2.3318  2.2948  1.6750
  514SOL    HW2 2055   0.274   2.343   2.757  0.1003 -1.2199 -1.8246
  514SOL     MW 2056   0.236   2.384   2.690 -0.1516  0.1779  0.3197
  515SOL     OW 2057   1.069   2.009   1.891  0.0197 -0.1784 -0.3525
  515SOL    HW1 2058   1.106   2.094   1.851  1.7315  0.9372 -0.8475
  515SOL    HW2 2059   1.144   1.977   1.933 -1.6180  0.9323  0.4782
  515SOL     MW 2060   1.084   2.016   1.891  0.0295  0.1153 -0.3082
  516SOL     OW 2061   1.341   2.626   2.905 -0.8243 -0.1150 -0.3864
  516SOL    HW1 2062   1.356   2.628   2.811 -0.1727 -0.6122 -0.4549
  516SOL    HW2 2063   1.292   2.549   2.923  1.8523  1.7789 -2.4087
  516SOL     MW 2064   1.337   2.616   2.895 -0.3852  0.0693 -0.6623
  517SOL     OW 2065   0.453   2.270   2.326  0.5473  0.2176 -0.1684
  517SOL    HW1 2066   0.437   2.366   2.330  0.5204 -1.2174 -0.5261
  517SOL    HW2 2067   0.427   2.242   2.235  0.5019 -1.4781 -0.2579
  517SOL     MW 2068   0.448   2.279   2.315  0.5377 -0.1955 -0.2274
  518SOL     OW 2069   1.725   0.198   3.046 -0.3156 -0.1283  0.4022
  518SOL    HW1 2070   1.751   0.229   3.133  0.2564  0.7800  0.0588
  518SOL    HW2 2071   1.700   0.110   3.040 -1.9222  0.9131 -0.6513
  518SOL     MW 2072   1.725   0.190   3.057 -0.4521  0.1289  0.2179
  519SOL     OW 2073   0.602   2.358   1.979  0.5760  0.4401  0.4502
  519SOL    HW1 2074   0.613   2.267   1.995 -3.4433  0.0520 -0.6479
  519SOL    HW2 2075   0.525   2.357   1.917  1.9311 -1.1326 -0.0462
  519SOL     MW 2076   0.593   2.346   1.973  0.2245  0.1814  0.2399
  520SOL     OW 2077   1.165   2.127   2.889  0.3481 -0.2500 -0.2876
  520SOL    HW1 2078   1.091   2.065   2.892  1.5546  0.9769  2.1011
  520SOL    HW2 2079   1.223   2.086   2.951  0.4713  2.6139  0.2244
  520SOL     MW 2080   1.163   2.113   2.898  0.5235  0.2897  0.0951
  521SOL     OW 2081   1.692   2.062   2.210  0.9192 -0.2388 -0.3119
  521SOL    HW1 2082   1.740   2.067   2.124 -2.5808  0.0663 -0.5503
  521SOL    HW2 2083   1.695   1.961   2.238 -2.7361 -1.7614  0.8163
  521SOL     MW 2084   1.699   2.049   2.202 -0.0249 -0.3994 -0.1945
  522SOL     OW 2085   2.839   2.562   2.159 -0.1599 -0.1251 -0.2314
  522SOL    HW1 2086   2.901   2.505   2.199 -2.9346 -1.9327  0.2628
  522SOL    HW2 2087   2.877   2.645   2.150 -2.0012  2.6736  3.8643
  522SOL     MW 2088   2.852   2.566   2.163 -0.7690  0.0056  0.3742
  523SOL     OW 2089   0.820   1.474   2.148 -0.0723 -0.6141  0.3856
  523SOL    HW1 2090   0.805   1.536   2.074  1.7342  0.8996 -1.4060
  523SOL    HW2 2091   0.895   1.422   2.122 -0.7905  1.1852  2.9877
  523SOL     MW 2092   0.828   1.475   2.135  0.0713 -0.1769  0.4926
  524SOL     OW 2093   0.568   2.364   3.047  0.0302 -0.6990  0.1335
  524SOL    HW1 2094   0.577   2.448   2.990 -2.5823 -0.8644  1.4382
  524SOL    HW2 2095   0.655   2.322   3.060 -3.6846  2.7862 -1.1067
  524SOL     MW 2096   0.581   2.370   3.041 -0.8046 -0.2610  0.1420
  525SOL     OW 2097   0.303   2.170   2.096 -0.2120 -0.0691 -0.0563
  525SOL    HW1 2098   0.273   2.125   2.181  1.2260  0.3437 -1.4275
  525SOL    HW2 2099   0.364   2.108   2.054  0.3985  0.1832  1.3517
  525SOL     MW 2100   0.307   2.156   2.102  0.0582  0.0187 -0.0514
  526SOL     OW 2101   0.678   2.075   1.959  0.7718 -0.2781  0.3733
  526SOL    HW1 2102   0.720   2.083   1.877  3.7681 -1.3459 -1.8213
  526SOL    HW2 2103   0.744   2.104   2.018 -2.9403  1.3379 -1.5356
  526SOL     MW 2104   0.692   2.080   1.956  0.6773 -0.2058 -0.1681
  527SOL     OW 2105   1.281   1.923   2.070  0.0535 -0.2316 -0.0463
  527SOL    HW1 2106   1.222   1.873   2.119  2.1002 -0.2542 -0.5686
  527SOL    HW2 2107   1.334   1.854   2.037  1.4134  0.0813 -1.2950
  527SOL     MW 2108   1.280   1.907   2.072  0.5030 -0.1933 -0.2800
  528SOL     OW 2109   0.608   2.920   2.954 -0.9234 -0.5015  0.2261
  528SOL    HW1 2110   0.650   3.004   2.950  1.6241 -2.8025 -0.4322
  528SOL    HW2 2111   0.592   2.910   2.864 -0.7597  1.2340  1.9245
  528SOL     MW 2112   0.611   2.930   2.941 -0.5657 -0.5761  0.3633
  529SOL     OW 2113   1.109   2.296   1.797  0.2044 -0.3882  0.3338
  529SOL    HW1 2114   1.167   2.288   1.875  0.1758 -0.8456  0.8456
  529SOL    HW2 2115   1.152   2.320   1.714 -1.9702  2.0969 -0.5159
  529SOL     MW 2116   1.122   2.298   1.796 -0.0863 -0.1206  0.2892
  530SOL     OW 2117   1.146   2.418   2.944  0.8597  0.2857  0.1141
  530SOL    HW1 2118   1.078   2.429   3.007 -0.8132 -0.4654 -1.1501
  530SOL    HW2 2119   1.174   2.323   2.942  2.3837  0.7875  0.6394
  530SOL     MW 2120   1.141   2.407   2.952  0.8401  0.2528  0.0166
  531SOL     OW 2121   0.887   1.820   2.604 -0.0557 -0.1317  0.2618
  531SOL    HW1 2122   0.904   1.877   2.683  1.5642  0.9789  3.2046
  531SOL    HW2 2123   0.882   1.733   2.648  0.1378 -2.3264  0.0783
  531SOL     MW 2124   0.889   1.816   2.620  0.1835 -0.2747  0.6258
  532SOL     OW 2125   1.735   0.365   2.805  0.5293  0.1356  0.2863
  532SOL    HW1 2126   1.675   0.301   2.765 -1.1473  0.0071 -1.5479
  532SOL    HW2 2127   1.746   0.329   2.893  0.4339 -2.2187  1.8410
  532SOL     MW 2128   1.729   0.351   2.811  0.2955 -0.1920  0.2494
  533SOL     OW 2129   1.787   2.843   2.906 -0.1989 -0.3472  0.0168
  533SOL    HW1 2130   1.745   2.767   2.955 -0.2369 -0.7330  0.3492
  533SOL    HW2 2131   1.729   2.844   2.828  0.7969 -0.4408  0.7431
  533SOL     MW 2132   1.774   2.833   2.902 -0.0725 -0.4105  0.1564
  534SOL     OW 2133   1.773   2.538   2.514 -0.5149 -0.3941  0.0987
  534SOL    HW1 2134   1.695   2.485   2.537  2.8518  0.8255 -1.4528
  534SOL    HW2 2135   1.820   2.525   2.593 -0.8237  2.8965 -3.7664
  534SOL     MW 2136   1.769   2.529   2.527 -0.1114  0.2010 -0.6160
  535SOL     OW 2137   1.808   2.388   1.927 -0.0805  0.1116  0.2043
  535SOL    HW1 2138   1.777   2.417   1.844  0.2691 -0.1813  1.4201
  535SOL    HW2 2139   1.905   2.389   1.910  1.2726 -0.9890 -0.5578
  535SOL     MW 2140   1.817   2.392   1.914  0.1441 -0.0723  0.2642
  536SOL     OW 2141   0.396   1.914   1.975  0.0515 -0.8360  0.1996
  536SOL    HW1 2142   0.412   1.960   1.886  2.1614  1.0287  0.5191
  536SOL    HW2 2143   0.481   1.876   1.999 -0.0098  1.0328 -0.8385
  536SOL     MW 2144   0.409   1.915   1.966  0.3218 -0.3434  0.1048
  537SOL     OW 2145   1.013   0.175   2.958  0.2608  0.6829 -0.2133
  537SOL    HW1 2146   0.978   0.154   3.042  0.9986  1.0485 -0.6261
  537SOL    HW2 2147   1.007   0.268   2.941 -1.6887 -2.2525 -0.2752
  537SOL     MW 2148   1.008   0.184   2.967  0.1009  0.3438 -0.2759
  538SOL     OW 2149   1.292   0.074   2.964 -0.8030  0.0966  0.3667
  538SOL    HW1 2150   1.210   0.121   2.944 -2.0529  1.1718 -0.1438
  538SOL    HW2 2151   1.317   0.097   3.046 -2.2597 -1.2420  1.2760
  538SOL     MW 2152   1.284   0.083   2.972 -1.1601  0.0618  0.4193
  539SOL     OW 2153   0.669   2.749   2.477 -0.0549 -0.0145  0.4987
  539SOL    HW1 2154   0.747   2.807   2.488 -1.0651 -0.1752 -1.6545
  539SOL    HW2 2155   0.699   2.658   2.499  1.5651 -0.0161 -0.5136
  539SOL     MW 2156   0.683   2.745   2.481  0.0256 -0.0359  0.0811
  540SOL     OW 2157   0.386   2.243   2.875  0.2443 -0.1571  0.3888
  540SOL    HW1 2158   0.438   2.295   2.943  1.8468  0.0145  0.9285
  540SOL    HW2 2159   0.334   2.189   2.933  2.0043 -0.6349 -0.5414
  540SOL     MW 2160   0.386   2.243   2.892  0.6879 -0.1975  0.3373
  541SOL     OW 2161   0.175   2.891   2.248  0.3992  0.3201 -0.1637
  541SOL    HW1 2162   0.122   2.817   2.217  0.1384  0.0456 -0.0652
  541SOL    HW2 2163   0.203   2.858   2.335  0.4472  2.0185  3.2973
  541SOL     MW 2164   0.172   2.877   2.255  0.3712  0.5079  0.3059
  542SOL     OW 2165   0.843   2.347   2.765  0.0290  0.5114 -0.4813
  542SOL    HW1 2166   0.837   2.286   2.837  1.4244 -4.4657  0.5956
  542SOL    HW2 2167   0.926   2.391   2.779 -2.2732 -1.0303  0.2031
  542SOL     MW 2168   0.854   2.345   2.777 -0.0907 -0.3487 -0.2489
  543SOL     OW 2169   1.359   2.684   2.640  0.1335  0.2556  0.6932
  543SOL    HW1 2170   1.392   2.602   2.608  1.3321  0.8173  0.0474
  543SOL    HW2 2171   1.435   2.735   2.661 -0.6817 -1.3897  4.1549
  543SOL     MW 2172   1.373   2.680   2.639  0.1841  0.1126  1.0647
  544SOL     OW 2173   0.691   0.113   2.710  0.4040  0.3629 -0.5032
  544SOL    HW1 2174   0.594   0.097   2.707 -1.9350 -0.5403 -0.1847
  544SOL    HW2 2175   0.731   0.059   2.648  1.2745  0.5442  1.9674
  544SOL     MW 2176   0.683   0.104   2.701  0.2102  0.2676 -0.1352
  545SOL     OW 2177   1.535   2.182   2.402 -0.2661  0.3865  0.2015
  545SOL    HW1 2178   1.482   2.106   2.434  1.1312 -3.1727  1.0809
  545SOL    HW2 2179   1.583   2.143   2.334  0.7428 -1.5541  0.7568
  545SOL     MW 2180   1.534   2.167   2.397  0.0514 -0.3391  0.3908
  546SOL     OW 2181   2.996   1.986   0.145  0.1132 -0.2241  0.1075
  546SOL    HW1 2182   2.930   2.037   0.090 -0.8542  1.6654 -1.1432
  546SOL    HW2 2183   3.052   1.938   0.086  1.1112 -1.5577 -1.4765
  546SOL     MW 2184   2.995   1.987   0.130  0.1172 -0.1507 -0.2665
  547SOL     OW 2185   0.165   2.882   0.092  0.1804  0.2624  0.3092
  547SOL    HW1 2186   0.171   2.926   0.006 -1.4367  1.3614  1.0537
  547SOL    HW2 2187   0.233   2.813   0.076  0.8736 -1.1755 -0.4020
  547SOL     MW 2188   0.175   2.879   0.078  0.0585  0.2177  0.3136
  548SOL     OW 2189   0.271   2.555   0.266 -0.3418 -0.2776  0.6834
  548SOL    HW1 2190   0.297   2.591   0.182 -0.3504  0.6712 -2.4341
  548SOL    HW2 2191   0.178   2.545   0.257  1.8064 -1.8593 -0.5944
  548SOL     MW 2192   0.262   2.558   0.254 -0.0595 -0.3611  0.1035
  549SOL     OW 2193   0.710   1.836   2.084  0.0111  0.4137 -0.3853
  549SOL    HW1 2194   0.700   1.920   2.040 -1.6554 -4.4951 -2.7347
  549SOL    HW2 2195   0.717   1.838   2.178  4.2968 -1.5738 -0.9176
  549SOL     MW 2196   0.710   1.848   2.090  0.3566 -0.4962 -0.7655
  550SOL     OW 2197   1.777   1.794   2.488  0.2377 -0.4905  0.1257
  550SOL    HW1 2198   1.742   1.823   2.400 -1.2607 -0.3847 -2.5746
  550SOL    HW2 2199   1.795   1.877   2.545  1.6122  0.5948  2.0386
  550SOL     MW 2200   1.775   1.809   2.484  0.2214 -0.3333  0.0218
  551SOL     OW 2201   0.861   2.353   0.207 -0.2430 -0.1381  0.1136
  551SOL    HW1 2202   0.947   2.392   0.211  0.6919 -0.6140  2.4003
  551SOL    HW2 2203   0.862   2.300   0.128 -2.2616 -0.6470 -2.3686
  551SOL     MW 2204   0.873   2.351   0.197 -0.3860 -0.2681  0.0878
  552SOL     OW 2205   1.678   1.798   2.227  0.0863 -0.7049  0.5348
  552SOL    HW1 2206   1.595   1.751   2.251 -0.2775 -1.8622  2.7950
  552SOL    HW2 2207   1.714   1.752   2.149 -1.0338 -5.7762 -0.3857
  552SOL     MW 2208   1.672   1.786   2.220 -0.1095 -1.5267  0.7115
  553SOL     OW 2209   1.226   2.307   1.534 -0.9603 -0.1806  0.1891
  553SOL    HW1 2210   1.270   2.225   1.509 -1.3738  0.7434 -1.2155
  553SOL    HW2 2211   1.288   2.378   1.505 -1.2234 -2.1068 -1.6502
  553SOL     MW 2212   1.240   2.306   1.527 -1.0496 -0.3129 -0.2389
  554SOL     OW 2213   0.557   2.855   2.689 -0.1827 -0.5878 -0.1375
  554SOL    HW1 2214   0.515   2.927   2.637  1.4200 -0.5673  0.4148
  554SOL    HW2 2215   0.600   2.808   2.612  1.6341  1.3291 -1.9071
  554SOL     MW 2216   0.557   2.859   2.672  0.2685 -0.3322 -0.2981
  555SOL     OW 2217   0.582   2.421   2.629 -0.3319 -0.7839 -0.4828
  555SOL    HW1 2218   0.593   2.330   2.657 -2.9508  0.3219 -0.9306
  555SOL    HW2 2219   0.677   2.428   2.610 -1.4571 -1.6229 -1.9265
  555SOL     MW 2220   0.596   2.410   2.630 -0.8259 -0.7487 -0.7324
  556SOL     OW 2221   1.052   1.840   0.129  0.1203 -0.0541  0.2438
  556SOL    HW1 2222   1.050   1.797   0.044  1.0872  0.1095 -0.6716
  556SOL    HW2 2223   1.145   1.861   0.146 -0.9985 -1.3217 -0.6549
  556SOL     MW 2224   1.064   1.837   0.120  0.1003 -0.1998  0.0044
  557SOL     OW 2225   1.016   2.642   0.428  0.6701  0.5055 -0.1265
  557SOL    HW1 2226   1.089   2.644   0.372  0.0424  3.0750  2.0724
  557SOL    HW2 2227   0.954   2.709   0.397 -1.7852 -0.4263 -2.3456
  557SOL     MW 2228   1.017   2.651   0.417  0.2634  0.7215 -0.1291
  558SOL     OW 2229   0.259   2.110   3.063 -0.3045 -0.8455 -0.2003
  558SOL    HW1 2230   0.223   2.025   3.081  1.0442 -0.5799  0.4482
  558SOL    HW2 2231   0.200   2.170   3.106 -0.6731  1.7105  2.5453
  558SOL     MW 2232   0.247   2.107   3.071 -0.1752 -0.4732  0.2475
  559SOL     OW 2233   1.249   2.235   2.030  0.2631  0.0135 -0.0768
  559SOL    HW1 2234   1.186   2.308   2.046 -1.0085  0.1747  1.4877
  559SOL    HW2 2235   1.216   2.172   2.092  1.4312 -0.3981  0.1151
  559SOL     MW 2236   1.237   2.236   2.040  0.2494 -0.0195  0.1549
  560SOL     OW 2237   1.934   2.963   0.033  0.1590  0.4444 -0.1353
  560SOL    HW1 2238   2.009   2.977  -0.019  0.4402  1.1095 -2.4051
  560SOL    HW2 2239   1.858   2.951  -0.026  0.7794  0.3439  0.5369
  560SOL     MW 2240   1.934   2.963   0.018  0.2780  0.5189 -0.3461
  561SOL     OW 2241   0.455   2.069   0.179  0.8553  0.3903 -0.1526
  561SOL    HW1 2242   0.393   2.088   0.112 -4.3165  0.9323 -0.2145
  561SOL    HW2 2243   0.477   2.156   0.219  1.1901 -3.1243  0.3897
  561SOL     MW 2244   0.450   2.083   0.175  0.2171 -0.0019 -0.0892
  562SOL     OW 2245   0.844   2.120   2.154 -0.2307  0.1943  0.8775
  562SOL    HW1 2246   0.814   2.191   2.212  2.4638  3.1291  0.0451
  562SOL    HW2 2247   0.939   2.148   2.140  0.7579  0.6610 -0.8242
  562SOL     MW 2248   0.852   2.133   2.160  0.2553  0.6431  0.5432
  563SOL     OW 2249   1.282   0.291   0.482 -0.1613 -0.5163  0.1441
  563SOL    HW1 2250   1.200   0.259   0.435  1.1090  1.8027  0.3340
  563SOL    HW2 2251   1.300   0.219   0.547  3.3988 -0.0676 -2.5545
  563SOL     MW 2252   1.274   0.277   0.485  0.4761 -0.1512 -0.1869
  564SOL     OW 2253   1.012   2.550   2.318 -0.5336  0.0467 -0.5648
  564SOL    HW1 2254   1.061   2.521   2.238  2.9480  3.2257 -0.1152
  564SOL    HW2 2255   1.072   2.611   2.361  0.6660 -1.1772 -2.7228
  564SOL     MW 2256   1.026   2.555   2.313  0.0840  0.3046 -0.7902
  565SOL     OW 2257   2.925   2.683   2.701  0.1670  0.3824  0.4109
  565SOL    HW1 2258   2.977   2.759   2.681 -0.9891  0.4679  1.3596
  565SOL    HW2 2259   2.864   2.657   2.628 -2.5599  0.4484 -0.2310
  565SOL     MW 2260   2.924   2.689   2.689 -0.3453  0.4024  0.4513
  566SOL     OW 2261   2.159   2.062   2.358  0.3494 -1.0626  0.5364
  566SOL    HW1 2262   2.171   2.044   2.265  0.0141 -0.5182  0.8908
  566SOL    HW2 2263   2.239   2.110   2.378 -1.3355  2.5044 -0.5374
  566SOL     MW 2264   2.171   2.066   2.348  0.0829 -0.5202  0.4415
  567SOL     OW 2265   1.145   2.878   0.125  0.4256 -0.1415 -0.2212
  567SOL    HW1 2266   1.138   2.972   0.147  0.4005  0.3147 -0.7412
  567SOL    HW2 2267   1.165   2.880   0.031  1.5900  0.6255 -2.0513
  567SOL     MW 2268   1.147   2.891   0.115  0.5759  0.0199 -0.5313
  568SOL     OW 2269   1.641   2.139   2.792  0.2177 -0.2971  0.2901
  568SOL    HW1 2270   1.702   2.184   2.852 -1.8048 -0.7385 -0.4401
  568SOL    HW2 2271   1.699   2.090   2.731  0.2132 -1.4437  0.4873
  568SOL     MW 2272   1.657   2.139   2.792 -0.0497 -0.5066  0.2197
  569SOL     OW 2273   0.026   2.233   2.500 -0.0561 -0.2119 -0.1624
  569SOL    HW1 2274  -0.011   2.288   2.435  0.2097  0.5308 -2.3139
  569SOL    HW2 2275   0.065   2.286   2.564  1.2636 -0.3980  0.2136
  569SOL     MW 2276   0.026   2.247   2.500  0.1531 -0.1385 -0.3967
  570SOL     OW 2277   1.559   0.359   0.457 -0.1146  0.2925 -0.0550
  570SOL    HW1 2278   1.465   0.349   0.478 -0.1361  1.0835  0.8217
  570SOL    HW2 2279   1.602   0.403   0.529  0.4735  2.4618  0.5797
  570SOL     MW 2280   1.552   0.364   0.469 -0.0399  0.6831  0.1444
  571SOL     OW 2281   1.443   2.446   1.984  0.0766  0.0819  0.9225
  571SOL    HW1 2282   1.447   2.445   2.078 -1.7322  2.1519 -2.6135
  571SOL    HW2 2283   1.422   2.357   1.952 -0.1666  0.6605 -0.3999
  571SOL     MW 2284   1.441   2.434   1.992 -0.1941  0.4313  0.2815
  572SOL     OW 2285   0.908   2.528   3.053 -0.0296 -0.3207  0.3177
  572SOL    HW1 2286   0.881   2.545   2.961  0.8618 -0.1742  1.8269
  572SOL    HW2 2287   0.833   2.536   3.111 -1.5810  1.3613 -1.8252
  572SOL     MW 2288   0.895   2.531   3.049 -0.1167 -0.0795  0.2341
  573SOL     OW 2289   1.144   2.414   0.202 -0.2278 -0.2007 -0.3194
  573SOL    HW1 2290   1.220   2.364   0.163 -1.6426  3.2493 -0.6784
  573SOL    HW2 2291   1.183   2.499   0.225 -2.0981  0.9593  1.3495
  573SOL     MW 2292   1.159   2.419   0.200 -0.6613  0.4075 -0.1465
  574SOL     OW 2293   1.258   2.662   0.267  0.2641  0.2998 -0.5382
  574SOL    HW1 2294   1.340   2.706   0.294 -0.3114  4.0799 -2.7005
  574SOL    HW2 2295   1.210   2.727   0.217 -1.3053 -2.4751 -0.6930
  574SOL     MW 2296   1.263   2.677   0.264 -0.0189  0.4324 -0.8439
  575SOL     OW 2297   3.052   2.262   1.815 -0.5428  0.1780 -0.0293
  575SOL    HW1 2298   3.039   2.184   1.760 -1.2588 -3.0020  0.6621
  575SOL    HW2 2299   3.119   2.318   1.768 -0.5010 -1.8793 -3.3990
  575SOL     MW 2300   3.059   2.259   1.802 -0.6317 -0.5130 -0.3827
  576SOL     OW 2301   2.809   1.826   2.065  0.9301 -0.6906 -0.0529
  576SOL    HW1 2302   2.823   1.900   2.004  1.6742 -0.5800  3.0415
  576SOL    HW2 2303   2.717   1.802   2.050  0.9173 -0.7704  3.8398
  576SOL     MW 2304   2.798   1.832   2.055  1.0266 -0.6865  0.8690
  577SOL     OW 2305   2.064   0.332   0.078  0.4732 -0.1373 -0.0581
  577SOL    HW1 2306   2.010   0.397   0.042 -0.1482 -0.8902 -1.2637
  577SOL    HW2 2307   1.998   0.260   0.105 -0.3627 -2.8924 -1.3779
  577SOL     MW 2308   2.048   0.331   0.077  0.2809 -0.6001 -0.3913
  578SOL     OW 2309   1.920   2.200   2.349 -0.3594  0.0228 -0.0673
  578SOL    HW1 2310   1.842   2.155   2.303 -0.8176 -0.6657 -1.8672
  578SOL    HW2 2311   1.992   2.135   2.333  0.7797 -2.5998  0.1158
  578SOL     MW 2312   1.919   2.186   2.340 -0.2696 -0.4141 -0.2807
  579SOL     OW 2313   0.813   2.489   2.500  0.0305 -0.2271  0.1527
  579SOL    HW1 2314   0.857   2.470   2.584  1.6127 -0.8401  2.7814
  579SOL    HW2 2315   0.884   2.524   2.443  1.6941  1.4893 -0.1758
  579SOL     MW 2316   0.828   2.491   2.504  0.4588 -0.0815  0.4562
  580SOL     OW 2317   0.863   2.859   3.063  0.0504  0.0390  0.2854
  580SOL    HW1 2318   0.908   2.785   3.092 -1.5278 -0.4804 -1.2719
  580SOL    HW2 2319   0.816   2.837   2.983  0.2744  0.6698  3.0960
  580SOL     MW 2320   0.862   2.847   3.057 -0.1283  0.0537  0.4507
  581SOL     OW 2321   1.073   2.589   1.767  0.6298  0.9227 -0.2348
  581SOL    HW1 2322   1.161   2.625   1.787  0.0900  1.0325 -1.3953
  581SOL    HW2 2323   1.067   2.497   1.814  1.8485 -2.4553 -1.0940
  581SOL     MW 2324   1.084   2.582   1.776  0.7194  0.4915 -0.5012
  582SOL     OW 2325   3.091   2.877   2.631 -0.2007 -0.1466 -0.3004
  582SOL    HW1 2326   3.082   2.956   2.685 -1.1715  0.5434 -0.8354
  582SOL    HW2 2327   3.185   2.845   2.634 -2.9776 -2.3663  2.1287
  582SOL     MW 2328   3.102   2.883   2.639 -0.6952 -0.3484 -0.0505
  583SOL     OW 2329   1.942   2.525   2.718  0.4677  0.1677  0.0009
  583SOL    HW1 2330   1.990   2.562   2.634 -1.7734  1.0432 -2.0103
  583SOL    HW2 2331   1.951   2.431   2.703 -0.8377  0.6234 -1.0783
  583SOL     MW 2332   1.950   2.517   2.705 -0.0002  0.3433 -0.4068
  584SOL     OW 2333   0.161   1.836   2.108  0.1293  0.3116 -0.1388
  584SOL    HW1 2334   0.247   1.859   2.065 -1.0625  1.0638 -1.1522
  584SOL    HW2 2335   0.164   1.894   2.185  3.4577  0.2175  0.7283
  584SOL     MW 2336   0.173   1.846   2.112  0.4112  0.3984 -0.1581
  585SOL     OW 2337   1.433   2.559   0.041 -0.2864  0.1303  0.1155
  585SOL    HW1 2338   1.399   2.586  -0.047  0.5504 -0.4327  2.8066
  585SOL    HW2 2339   1.377   2.601   0.105  4.1215  2.4022 -4.0778
  585SOL     MW 2340   1.421   2.568   0.038  0.4056  0.3558 -0.0827
  586SOL     OW 2341   1.275   2.969   2.341  0.2291 -0.1149  0.7816
  586SOL    HW1 2342   1.354   2.923   2.363  2.6776  0.2634 -1.7108
  586SOL    HW2 2343   1.236   3.015   2.414 -0.5961 -0.9946 -0.4644
  586SOL     MW 2344   1.280   2.969   2.354  0.4432 -0.1811  0.2883
  587SOL     OW 2345   1.203   1.620   2.162 -0.3179  0.0549  0.3116
  587SOL    HW1 2346   1.223   1.549   2.225 -0.2437 -0.0969 -2.4158
  587SOL    HW2 2347   1.199   1.573   2.070  1.5830 -0.9839 -0.9725
  587SOL     MW 2348   1.205   1.604   2.158 -0.0573 -0.1022 -0.2177
  588SOL     OW 2349   1.372   2.226   2.755 -0.0414  0.4752 -0.1627
  588SOL    HW1 2350   1.453   2.178   2.764 -2.4116 -0.1985 -2.3193
  588SOL    HW2 2351   1.301   2.160   2.799 -1.8712  0.7416  1.1837
  588SOL     MW 2352   1.374   2.211   2.762 -0.5956  0.4214 -0.2696
  589SOL     OW 2353   1.324   2.066  -0.001  0.2026 -0.0478  0.0831
  589SOL    HW1 2354   1.346   2.155   0.029 -0.0879  0.9163 -1.0562
  589SOL    HW2 2355   1.305   2.010   0.070  0.5174 -0.4634  0.0894
  589SOL     MW 2356   1.324   2.070   0.012  0.2058  0.0246 -0.0664
  590SOL     OW 2357   0.476   2.545   2.253  0.4034 -0.2015  0.0706
  590SOL    HW1 2358   0.405   2.572   2.191  1.5554  0.8214 -0.5520
  590SOL    HW2 2359   0.558   2.555   2.206  2.0024  1.0458  2.1083
  590SOL     MW 2360   0.477   2.550   2.238  0.7663  0.0980  0.2573
  591SOL     OW 2361   2.208   0.691   3.018 -0.2143  0.4561  0.7283
  591SOL    HW1 2362   2.120   0.731   2.988  0.1560 -0.7907 -0.7714
  591SOL    HW2 2363   2.229   0.628   2.949 -1.5774 -2.0036  1.4438
  591SOL     MW 2364   2.199   0.688   3.005 -0.3453 -0.0330  0.6249
  592SOL     OW 2365   1.814   2.896   0.823 -0.5897  0.2000  0.5996
  592SOL    HW1 2366   1.810   2.955   0.743 -1.1774  0.0231 -0.5235
  592SOL    HW2 2367   1.870   2.821   0.799  2.4234 -0.2166  0.0550
  592SOL     MW 2368   1.821   2.894   0.809 -0.2697  0.1217  0.3796
  593SOL     OW 2369   1.919   0.838   0.921 -0.2001 -0.4747  0.1554
  593SOL    HW1 2370   1.879   0.833   0.837  0.8590 -0.3511 -0.1971
  593SOL    HW2 2371   1.955   0.747   0.921  1.6639 -0.6987  0.1871
  593SOL     MW 2372   1.918   0.825   0.910  0.1856 -0.4879  0.1131
  594SOL     OW 2373   2.768   1.126   1.399 -0.4066  0.1857  0.3722
  594SOL    HW1 2374   2.853   1.169   1.396  0.0820  3.9157  1.3406
  594SOL    HW2 2375   2.746   1.100   1.310  2.0659 -0.5703 -0.8822
  594SOL     MW 2376   2.776   1.128   1.387 -0.0159  0.5781  0.3345
  595SOL     OW 2377   0.423   0.990   0.748  0.1915 -0.3674  0.6128
  595SOL    HW1 2378   0.487   1.055   0.693  2.9137  3.8471 -0.8607
  595SOL    HW2 2379   0.433   1.032   0.835  0.0479 -1.3993 -0.2949
  595SOL     MW 2380   0.433   1.004   0.752  0.5317  0.0526  0.2986
  596SOL     OW 2381   2.410   1.331   0.611 -0.2608 -0.2328 -0.4192
  596SOL    HW1 2382   2.450   1.413   0.579  2.7260 -0.0549 -0.9136
  596SOL    HW2 2383   2.484   1.292   0.663  0.7157  1.1154 -0.9235
  596SOL     MW 2384   2.425   1.336   0.614  0.2621 -0.0315 -0.5509
  597SOL     OW 2385   2.269   0.686   1.730 -0.5383 -0.1096  0.2601
  597SOL    HW1 2386   2.314   0.616   1.768  1.5649  0.2026  1.0913
  597SOL    HW2 2387   2.275   0.675   1.636 -3.0600  1.1291  1.0688
  597SOL     MW 2388   2.276   0.675   1.723 -0.5935  0.0950  0.4765
  598SOL     OW 2389   2.628   1.002   2.836  0.2805  0.2475  0.8032
  598SOL    HW1 2390   2.683   0.954   2.772 -1.1111  0.3639  1.5965
  598SOL    HW2 2391   2.688   1.066   2.869  0.9635  1.2188  0.6103
  598SOL     MW 2392   2.643   1.004   2.832  0.1870  0.3910  0.8824
  599SOL     OW 2393   2.902   0.357   2.065 -0.2320 -0.4184 -0.5048
  599SOL    HW1 2394   2.878   0.361   2.159  5.2947 -0.3695  0.8632
  599SOL    HW2 2395   2.958   0.434   2.045  1.3308 -2.6543 -1.8455
  599SOL     MW 2396   2.906   0.368   2.075  0.7034 -0.7070 -0.5012
  600SOL     OW 2397   1.851   1.635   0.873 -0.0610  0.4774  0.6637
  600SOL    HW1 2398   1.876   1.641   0.960  0.1295  0.8217 -1.6711
  600SOL    HW2 2399   1.756   1.662   0.871 -2.2547  1.5218  1.3277
  600SOL     MW 2400   1.842   1.639   0.884 -0.3253  0.6607  0.4432
  601SOL     OW 2401   2.462   0.744   0.894  0.2912  0.3531  0.0248
  601SOL    HW1 2402   2.500   0.789   0.972 -0.7814  0.2548 -1.6836
  601SOL    HW2 2403   2.373   0.761   0.887  1.2676 -3.0840  1.6489
  601SOL     MW 2404   2.455   0.752   0.904  0.2785 -0.1133  0.0136
  602SOL     OW 2405   2.266   1.930   0.701  0.1678  0.0316 -0.4453
  602SOL    HW1 2406   2.208   1.863   0.739  0.3554  1.7448  0.8907
  602SOL    HW2 2407   2.210   1.980   0.636 -1.2665 -0.0288 -0.1195
  602SOL     MW 2408   2.251   1.928   0.698  0.0033  0.2496 -0.2260
  603SOL     OW 2409   2.998   1.346   1.844 -0.1594  0.4265  0.0619
  603SOL    HW1 2410   3.083   1.389   1.861 -0.3128  1.3145  0.0952
  603SOL    HW2 2411   3.005   1.271   1.791 -0.8843  0.4455  0.4203
  603SOL     MW 2412   3.010   1.342   1.839 -0.2753  0.5461  0.1136
  604SOL     OW 2413   2.049   1.497   0.499 -0.3592 -0.0272 -0.1767
  604SOL    HW1 2414   2.069   1.423   0.555 -0.1485  0.2567 -1.7092
  604SOL    HW2 2415   1.999   1.552   0.550  1.0916  0.2769  0.5684
  604SOL     MW 2416   2.045   1.494   0.513 -0.1399  0.0504 -0.2806
  605SOL     OW 2417   2.654   1.541   0.795 -0.2170  0.1017 -0.1133
  605SOL    HW1 2418   2.606   1.609   0.747  1.0531 -1.3583 -0.3423
  605SOL    HW2 2419   2.603   1.505   0.872 -1.0779  0.1568 -0.2369
  605SOL     MW 2420   2.641   1.545   0.799 -0.1630 -0.0837 -0.1598
  606SOL     OW 2421   2.532   1.814   1.896  0.0541 -0.2247  0.1980
  606SOL    HW1 2422   2.446   1.804   1.944 -0.8263  2.0003  0.4211
  606SOL    HW2 2423   2.569   1.733   1.854  3.7857  0.8309 -0.3740
  606SOL     MW 2424   2.526   1.802   1.897  0.4303  0.2081  0.1520
  607SOL     OW 2425   2.364   1.029   2.970 -0.5724 -0.2035 -0.2598
  607SOL    HW1 2426   2.453   1.015   2.978 -2.3916 -1.1454 -1.5562
  607SOL    HW2 2427   2.334   1.013   3.055 -0.2734 -1.8203 -1.3577
  607SOL     MW 2428   2.372   1.025   2.982 -0.7729 -0.5411 -0.5757
  608SOL     OW 2429   1.914   0.241   0.649 -0.6590 -0.1197 -0.4860
  608SOL    HW1 2430   1.921   0.270   0.557  1.0597  1.8989 -1.8104
  608SOL    HW2 2431   1.890   0.144   0.651  0.7851 -1.3694  3.0949
  608SOL     MW 2432   1.911   0.232   0.637 -0.2417 -0.0183 -0.1883
  609SOL     OW 2433   2.121   1.941   3.008 -0.4155 -0.6928 -0.0587
  609SOL    HW1 2434   2.049   1.894   2.970 -1.6350  0.0031  2.5580
  609SOL    HW2 2435   2.145   1.902   3.092  3.4909  0.4354  0.6651
  609SOL     MW 2436   2.115   1.929   3.014 -0.0610 -0.4521  0.3821
  610SOL     OW 2437   1.844   1.091   1.357 -0.4190 -0.2779 -0.3669
  610SOL    HW1 2438   1.860   1.012   1.303  0.4802  1.7507  0.5300
  610SOL    HW2 2439   1.755   1.082   1.404 -1.1388 -0.5999 -1.3075
  610SOL     MW 2440   1.834   1.079   1.356 -0.3953 -0.0527 -0.3727
  611SOL     OW 2441   2.507   1.771   0.720 -0.1298 -0.6060 -0.1820
  611SOL    HW1 2442   2.444   1.849   0.715 -1.0540 -0.4742 -0.3503
  611SOL    HW2 2443   2.511   1.718   0.642  0.3030 -0.4813  1.8929
  611SOL     MW 2444   2.499   1.774   0.709 -0.1947 -0.5721  0.0696
  612SOL     OW 2445   2.782   2.773   0.418  0.1961 -0.0663  0.5453
  612SOL    HW1 2446   2.819   2.840   0.487  0.0312 -2.4779  2.4817
  612SOL    HW2 2447   2.864   2.746   0.378  0.0770 -2.0213  1.2726
  612SOL     MW 2448   2.798   2.778   0.422  0.1586 -0.6425  0.8967
  613SOL     OW 2449   1.622   1.012   1.101 -0.6767  0.3670  0.0295
  613SOL    HW1 2450   1.622   1.076   1.166  1.5858 -0.0762  0.8952
  613SOL    HW2 2451   1.673   0.939   1.138  0.3744 -0.8885 -1.4442
  613SOL     MW 2452   1.629   1.011   1.114 -0.2395  0.1429 -0.0507
  614SOL     OW 2453   1.986   0.524   1.534 -0.8371  0.4011  0.4536
  614SOL    HW1 2454   2.027   0.450   1.586  0.7456  1.3675 -0.8072
  614SOL    HW2 2455   2.048   0.545   1.461  1.4068  0.9312  1.3681
  614SOL     MW 2456   2.000   0.517   1.531 -0.3322  0.5986  0.4079
  615SOL     OW 2457   2.236   0.800   0.168  0.0821  0.4449 -0.5844
  615SOL    HW1 2458   2.315   0.764   0.218  1.1828  0.8533  0.9596
  615SOL    HW2 2459   2.228   0.752   0.084  1.0262 -0.2207  1.2662
  615SOL     MW 2460   2.246   0.789   0.163  0.3519  0.4109 -0.1365
  616SOL     OW 2461   2.628   0.359   1.635 -0.2181  0.3255 -0.1985
  616SOL    HW1 2462   2.566   0.299   1.591 -2.1897 -0.3214  1.3022
  616SOL    HW2 2463   2.602   0.446   1.605 -0.3428 -0.3343  0.6572
  616SOL     MW 2464   2.616   0.363   1.625 -0.4947  0.1531  0.1124
  617SOL     OW 2465   2.924   0.564   1.765 -0.0690 -0.6065  0.1910
  617SOL    HW1 2466   2.826   0.586   1.776 -0.6710  2.8349  2.6911
  617SOL    HW2 2467   2.933   0.475   1.731  0.4083  1.1777 -1.7323
  617SOL     MW 2468   2.913   0.555   1.762 -0.0855  0.0829  0.2671
  618SOL     OW 2469   2.675   0.363   1.934  0.0884 -0.0881  0.1799
  618SOL    HW1 2470   2.655   0.457   1.914 -2.0678 -0.1755 -0.3956
  618SOL    HW2 2471   2.762   0.367   1.972 -1.5534 -0.1112  1.4082
  618SOL     MW 2472   2.684   0.376   1.937 -0.4127 -0.1027  0.2660
  619SOL     OW 2473   2.585   0.842   0.145  0.3838  1.0749 -0.2863
  619SOL    HW1 2474   2.670   0.871   0.180 -0.6246 -0.0763 -0.6770
  619SOL    HW2 2475   2.553   0.778   0.211 -0.0547 -0.9868 -0.7661
  619SOL     MW 2476   2.592   0.838   0.158  0.1929  0.6510 -0.4011
  620SOL     OW 2477   2.295   1.140   0.931  0.0217 -0.3980 -0.1093
  620SOL    HW1 2478   2.380   1.100   0.908 -0.9214  1.6338 -2.2707
  620SOL    HW2 2479   2.235   1.077   0.885  1.1439 -0.1430 -1.0628
  620SOL     MW 2480   2.298   1.127   0.922  0.0454 -0.0963 -0.5203
  621SOL     OW 2481   1.523   2.143   1.998 -0.0622 -0.3391  0.3570
  621SOL    HW1 2482   1.444   2.149   2.050  0.2977  0.9062  2.2586
  621SOL    HW2 2483   1.589   2.100   2.048 -0.1257 -0.8787 -3.2201
  621SOL     MW 2484   1.521   2.138   2.011 -0.0231 -0.2460  0.1359
  622SOL     OW 2485   2.628   0.221   0.117  0.1187 -0.3618  0.6034
  622SOL    HW1 2486   2.714   0.265   0.137  0.5593  0.6857  0.1916
  622SOL    HW2 2487   2.638   0.131   0.095 -2.5585 -0.7569  2.2110
  622SOL     MW 2488   2.640   0.215   0.116 -0.1764 -0.2757  0.7612
  623SOL     OW 2489   2.400   2.765   0.815 -0.5390  0.0600 -0.0443
  623SOL    HW1 2490   2.459   2.843   0.827  1.0853 -0.5999  1.2952
  623SOL    HW2 2491   2.342   2.781   0.887 -0.2810 -1.2490 -2.1225
  623SOL     MW 2492   2.400   2.778   0.826 -0.2907 -0.1998 -0.1418
  624SOL     OW 2493   2.200   1.628   2.918 -0.0162 -0.1424  0.7106
  624SOL    HW1 2494   2.133   1.571   2.960 -0.4349  1.0805 -0.3962
  624SOL    HW2 2495   2.197   1.714   2.954 -0.8489 -0.0480  0.8439
  624SOL     MW 2496   2.190   1.632   2.928 -0.1813  0.0314  0.5822
  625SOL     OW 2497   2.192   1.928   1.082 -0.2438 -0.5573 -0.5254
  625SOL    HW1 2498   2.259   1.892   1.138  0.3646  0.1262 -0.4871
  625SOL    HW2 2499   2.238   1.949   0.998  0.5193  2.1788  0.9411
  625SOL     MW 2500   2.207   1.926   1.079 -0.0629 -0.1061 -0.3268
  626SOL     OW 2501   0.124   1.584   2.404  0.4846 -0.1180 -0.2776
  626SOL    HW1 2502   0.050   1.584   2.347  0.3032 -0.1050 -0.2434
  626SOL    HW2 2503   0.079   1.571   2.487  1.9267  1.9309 -2.4239
  626SOL     MW 2504   0.108   1.582   2.407  0.6509  0.1541 -0.5563
  627SOL     OW 2505   2.456   0.837   2.586 -0.0612 -0.1499 -0.0008
  627SOL    HW1 2506   2.406   0.922   2.569  0.0300  0.9212 -0.1386
  627SOL    HW2 2507   2.440   0.794   2.501  1.3985  1.7746 -0.8650
  627SOL     MW 2508   2.447   0.843   2.573  0.1434  0.2453 -0.1330
  628SOL     OW 2509   2.337   1.364   1.368  0.2441 -0.1128  0.5776
  628SOL    HW1 2510   2.294   1.289   1.316  0.8226  0.1839  0.4738
  628SOL    HW2 2511   2.416   1.388   1.320 -1.3959 -2.5655  0.0039
  628SOL     MW 2512   2.342   1.358   1.355  0.1040 -0.3973  0.4882
  629SOL     OW 2513   2.047   0.561   1.213 -0.1832  0.3307 -0.2018
  629SOL    HW1 2514   2.103   0.631   1.181 -1.4195 -1.1605  1.1605
  629SOL    HW2 2515   1.965   0.603   1.236 -0.4765  1.1953 -1.3812
  629SOL     MW 2516   2.043   0.576   1.212 -0.3850  0.2480 -0.1777
  630SOL     OW 2517   2.480   1.814   3.086  0.0117 -0.3394 -0.1463
  630SOL    HW1 2518   2.433   1.856   3.014 -0.0655 -0.5736 -1.5091
  630SOL    HW2 2519   2.448   1.723   3.114 -1.2942  0.5939  2.1598
  630SOL     MW 2520   2.470   1.808   3.080 -0.1708 -0.2472 -0.0218
  631SOL     OW 2521   1.975   1.757   1.616 -0.0900  0.7170 -0.3601
  631SOL    HW1 2522   1.983   1.670   1.669  2.4568 -2.6662 -0.9589
  631SOL    HW2 2523   1.961   1.729   1.529 -0.3781 -1.0773 -0.7103
  631SOL     MW 2524   1.974   1.742   1.611  0.2080  0.0339 -0.4853
  632SOL     OW 2525   0.185   2.074   1.585  0.6959  0.0657 -0.5844
  632SOL    HW1 2526   0.097   2.108   1.613  3.6459  1.3184  1.1102
  632SOL    HW2 2527   0.166   1.983   1.553 -1.5370  3.2062 -1.6236
  632SOL     MW 2528   0.171   2.067   1.585  0.7905  0.6453 -0.4980
  633SOL     OW 2529   2.419   0.704   0.354  0.1778  0.7752  0.1393
  633SOL    HW1 2530   2.502   0.709   0.408  1.0142 -1.0289  1.0460
  633SOL    HW2 2531   2.378   0.611   0.367 -1.7644 -1.2231 -0.0372
  633SOL     MW 2532   2.425   0.692   0.363  0.0319  0.2735  0.2356
  634SOL     OW 2533   2.641   3.084   0.602 -0.0017 -0.5154 -0.4130
  634SOL    HW1 2534   2.674   3.174   0.609  0.7407 -1.0721  0.6581
  634SOL    HW2 2535   2.629   3.062   0.508  0.6859  2.4157  0.9547
  634SOL     MW 2536   2.644   3.093   0.590  0.1870 -0.2021 -0.0912
  635SOL     OW 2537   2.619   0.111   1.839 -0.3401  0.1754  0.1434
  635SOL    HW1 2538   2.696   0.086   1.787 -1.3752 -0.2866 -1.4620
  635SOL    HW2 2539   2.638   0.206   1.858 -1.9832  2.8794  1.7730
  635SOL     MW 2540   2.632   0.120   1.834 -0.6935  0.4712  0.1466
  636SOL     OW 2541   2.918   1.664   1.033  0.1535 -0.0912  0.0752
  636SOL    HW1 2542   2.841   1.705   0.989 -0.0187 -1.5908  1.6726
  636SOL    HW2 2543   2.939   1.718   1.113 -1.7814 -2.7535  0.9240
  636SOL     MW 2544   2.910   1.677   1.038 -0.1245 -0.6403  0.3979
  637SOL     OW 2545   2.919   1.489   0.702  0.0678  0.2134 -0.0862
  637SOL    HW1 2546   2.974   1.557   0.732 -0.7903 -2.1964  1.3736
  637SOL    HW2 2547   2.835   1.506   0.744 -1.4097 -0.9976 -0.7342
  637SOL     MW 2548   2.915   1.500   0.711 -0.2404 -0.2643  0.0209
  638SOL     OW 2549   2.673   0.673   0.495 -0.4988 -0.1117  0.5121
  638SOL    HW1 2550   2.763   0.665   0.461  0.5518  0.8233  0.0595
  638SOL    HW2 2551   2.678   0.635   0.583  2.3720  0.3647  0.8577
  638SOL     MW 2552   2.685   0.667   0.502  0.0186  0.0745  0.4980
  639SOL     OW 2553   1.885   3.078   0.634 -0.6265 -0.2289 -0.5079
  639SOL    HW1 2554   1.813   3.074   0.570 -4.1204  0.6681 -0.2297
  639SOL    HW2 2555   1.961   3.071   0.580  1.6288 -3.1277 -0.9919
  639SOL     MW 2556   1.885   3.077   0.619 -0.7899 -0.4930 -0.5350
  640SOL     OW 2557   0.391   1.369   0.108  0.0375  0.0661 -0.5102
  640SOL    HW1 2558   0.396   1.410   0.019  1.5620 -1.5396 -1.1203
  640SOL    HW2 2559   0.367   1.273   0.096 -2.8832 -0.3345  1.0577
  640SOL     MW 2560   0.388   1.362   0.095 -0.1467 -0.1986 -0.3838
  641SOL     OW 2561   2.317   0.449   0.375 -0.0434 -0.5736  0.0169
  641SOL    HW1 2562   2.362   0.447   0.290  2.2686 -1.0838 -0.5038
  641SOL    HW2 2563   2.373   0.392   0.437  0.9217 -2.2017  0.5492
  641SOL     MW 2564   2.330   0.442   0.372  0.3890 -0.8558  0.0184
  642SOL     OW 2565   3.085   0.020   0.483 -0.0240 -0.3904  0.1133
  642SOL    HW1 2566   3.071   0.114   0.494  0.7569 -1.1425  1.1194
  642SOL    HW2 2567   3.008  -0.020   0.518 -0.1416  1.3685 -0.2001
  642SOL     MW 2568   3.073   0.027   0.489  0.0635 -0.2576  0.2047
  643SOL     OW 2569   2.060   0.286   1.629 -0.6155  0.2205 -0.4186
  643SOL    HW1 2570   2.143   0.254   1.659  0.1252  0.5623 -0.9676
  643SOL    HW2 2571   2.057   0.252   1.543 -0.1033  0.2113  1.0849
  643SOL     MW 2572   2.070   0.277   1.621 -0.4502  0.2644 -0.2927
  644SOL     OW 2573   2.718   1.848   0.916 -0.3099  0.4299  0.1875
  644SOL    HW1 2574   2.664   1.848   1.000 -1.5080  0.4972  1.5810
  644SOL    HW2 2575   2.664   1.817   0.845  0.8550 -1.6168  0.2209
  644SOL     MW 2576   2.704   1.844   0.918 -0.3143  0.1687  0.3758
  645SOL     OW 2577   2.753   0.919   0.626 -0.2408  0.0078  0.1895
  645SOL    HW1 2578   2.800   0.894   0.703  0.9133  1.1247  1.4017
  645SOL    HW2 2579   2.719   0.839   0.584  0.3232  1.4344 -0.2560
  645SOL     MW 2580   2.754   0.905   0.630 -0.0141  0.3434  0.2907
  646SOL     OW 2581   0.109   2.318   0.884  0.6029 -0.1098 -0.0424
  646SOL    HW1 2582   0.158   2.231   0.893  2.9252 -2.8868 -4.7460
  646SOL    HW2 2583   0.055   2.331   0.801  1.5193 -0.6930  1.1964
  646SOL     MW 2584   0.109   2.309   0.874  1.0302 -0.5532 -0.4995
  647SOL     OW 2585   2.749   0.580   3.007 -0.1061 -0.7669 -0.2089
  647SOL    HW1 2586   2.666   0.540   3.014 -3.5423  2.0354  4.0607
  647SOL    HW2 2587   2.730   0.673   2.978  0.8619  1.8100 -0.7464
  647SOL     MW 2588   2.736   0.587   3.004 -0.4318 -0.0572  0.2835
  648SOL     OW 2589   2.224   0.734   1.103 -0.2169 -0.1927  0.0670
  648SOL    HW1 2590   2.216   0.759   1.015  0.3856  1.4865  0.1907
  648SOL    HW2 2591   2.228   0.816   1.157 -1.1324  0.9399 -1.1401
  648SOL     MW 2592   2.223   0.748   1.099 -0.2582  0.1783 -0.0759
  649SOL     OW 2593   2.361   2.682   1.196  0.1706 -0.1576  0.0562
  649SOL    HW1 2594   2.434   2.737   1.224  0.1297  1.8037  0.5403
  649SOL    HW2 2595   2.395   2.591   1.196 -0.6695 -1.5046 -1.0139
  649SOL     MW 2596   2.375   2.677   1.200  0.0543 -0.0766 -0.0211
  650SOL     OW 2597   2.751   0.240   0.636  0.8387  0.6007 -0.2685
  650SOL    HW1 2598   2.756   0.289   0.720 -0.1177  0.6070 -1.9512
  650SOL    HW2 2599   2.831   0.253   0.588 -0.2086  0.3585  1.1313
  650SOL     MW 2600   2.762   0.248   0.641  0.5743  0.5696 -0.3058
  651SOL     OW 2601   3.036   0.297   0.830 -0.8568  0.0831  0.1124
  651SOL    HW1 2602   3.101   0.358   0.790 -1.1898  2.3315 -1.1994
  651SOL    HW2 2603   2.950   0.341   0.826  0.5046 -0.4716 -0.2782
  651SOL     MW 2604   3.033   0.311   0.824 -0.7211  0.3066 -0.1122
  652SOL     OW 2605   2.396   1.429   2.989 -0.1724 -0.3898  0.1193
  652SOL    HW1 2606   2.476   1.432   2.939  1.0399  1.6035  2.1031
  652SOL    HW2 2607   2.346   1.503   2.952  0.1443  0.5187 -1.8007
  652SOL     MW 2608   2.400   1.439   2.978  0.0293 -0.0069  0.1277
  653SOL     OW 2609   1.973   0.372   0.416 -0.2851 -0.0206 -0.4442
  653SOL    HW1 2610   1.960   0.309   0.341  1.9396 -1.7049  1.1605
  653SOL    HW2 2611   2.064   0.376   0.442  1.0458 -0.3430  1.3670
  653SOL     MW 2612   1.983   0.364   0.409  0.1840 -0.2854  0.0065
  654SOL     OW 2613   2.460   0.985   0.726 -0.0616  0.3844 -0.5670
  654SOL    HW1 2614   2.377   0.988   0.679  0.6372  0.7134 -0.9974
  654SOL    HW2 2615   2.480   0.893   0.741  2.0804  1.8794 -0.2892
  654SOL     MW 2616   2.452   0.974   0.721  0.3132  0.6251 -0.5871
  655SOL     OW 2617   3.079   0.918   0.441 -0.0039 -0.5548 -0.0576
  655SOL    HW1 2618   3.114   0.964   0.516  0.1710  2.8759 -0.2258
  655SOL    HW2 2619   3.070   0.830   0.471  1.7380  1.1811 -0.0074
  655SOL     MW 2620   3.082   0.912   0.455  0.2490  0.1269 -0.0732
  656SOL     OW 2621   1.976   2.726   1.220  0.0391 -0.0867 -0.5476
  656SOL    HW1 2622   1.971   2.820   1.223  1.4661 -0.3310  3.6575
  656SOL    HW2 2623   1.989   2.695   1.309 -2.2075  1.7827  0.7032
  656SOL     MW 2624   1.977   2.734   1.232 -0.0690  0.1277  0.1722
  657SOL     OW 2625   0.197   1.604   1.270 -0.3488 -0.6766 -0.1245
  657SOL    HW1 2626   0.108   1.568   1.285  1.3805 -1.7574 -1.0087
  657SOL    HW2 2627   0.207   1.608   1.174 -1.0188 -0.0843 -2.3799
  657SOL     MW 2628   0.186   1.600   1.259 -0.2090 -0.7410 -0.5387
  658SOL     OW 2629   2.684   1.358   0.251  0.4290 -0.4046 -0.5619
  658SOL    HW1 2630   2.605   1.328   0.295 -1.2391  2.4208 -0.7471
  658SOL    HW2 2631   2.742   1.395   0.323 -0.4008  0.6450 -1.7119
  658SOL     MW 2632   2.681   1.359   0.266  0.0994  0.1066 -0.7381
  659SOL     OW 2633   2.205   1.572   1.001 -0.2797  0.0311 -0.0661
  659SOL    HW1 2634   2.286   1.524   1.004  1.2506 -0.7101  0.9703
  659SOL    HW2 2635   2.198   1.612   1.092 -0.0362  1.1294  3.3018
  659SOL     MW 2636   2.215   1.571   1.013 -0.0457  0.0782  0.5150
  660SOL     OW 2637   2.026   1.549   1.784 -0.1236 -0.7232  0.1625
  660SOL    HW1 2638   2.065   1.556   1.873 -0.7873 -0.3955  1.6672
  660SOL    HW2 2639   1.999   1.466   1.789  2.5136  2.5853  1.4803
  660SOL     MW 2640   2.028   1.539   1.797  0.1367 -0.2434  0.5349
  661SOL     OW 2641   2.332   1.061   0.129  0.3454 -0.2529  0.0873
  661SOL    HW1 2642   2.402   1.101   0.180  3.9670  0.4691 -0.3711
  661SOL    HW2 2643   2.317   0.977   0.169 -1.9530 -0.2184 -0.1143
  661SOL     MW 2644   2.339   1.056   0.141  0.5200 -0.1531  0.0002
  662SOL     OW 2645   2.557   2.986   0.862 -0.4327  0.1913  0.4040
  662SOL    HW1 2646   2.499   3.036   0.919 -3.4288  1.4933 -1.0556
  662SOL    HW2 2647   2.551   3.030   0.776 -0.6502 -2.3413 -0.4588
  662SOL     MW 2648   2.549   2.999   0.858 -0.8567  0.0289  0.0976
  663SOL     OW 2649   2.811   1.533   0.425 -0.0050  0.3999  0.6866
  663SOL    HW1 2650   2.893   1.561   0.391  2.3889  0.2022 -0.8167
  663SOL    HW2 2651   2.827   1.530   0.518  0.9816  1.0336  2.3331
  663SOL     MW 2652   2.824   1.536   0.433  0.4410  0.4574  0.7055
  664SOL     OW 2653   2.456   1.590   1.634 -0.0481  0.1005 -0.2912
  664SOL    HW1 2654   2.455   1.688   1.621 -1.3256  1.0080 -0.6059
  664SOL    HW2 2655   2.371   1.553   1.630 -0.1082  4.1133  0.4463
  664SOL     MW 2656   2.445   1.598   1.632 -0.2246  0.7497 -0.2355
  665SOL     OW 2657   2.862   0.819   2.027 -0.1025 -0.3054 -0.1597
  665SOL    HW1 2658   2.822   0.869   1.953 -1.7986  1.7387  1.7525
  665SOL    HW2 2659   2.940   0.783   1.985 -1.3358  1.5148 -0.4380
  665SOL     MW 2660   2.867   0.821   2.012 -0.4890  0.2045  0.0559
  666SOL     OW 2661   2.803   3.021   1.688  0.4583 -0.5991  0.3643
  666SOL    HW1 2662   2.805   3.058   1.596 -0.8185  0.6363 -0.8863
  666SOL    HW2 2663   2.746   2.941   1.690  0.0754 -0.9602 -1.0202
  666SOL     MW 2664   2.796   3.015   1.676  0.2393 -0.4837  0.0166
  667SOL     OW 2665   1.926   2.670   1.713  0.0363 -0.0652 -1.2763
  667SOL    HW1 2666   1.960   2.588   1.748 -1.5236  1.4991 -2.0592
  667SOL    HW2 2667   2.003   2.728   1.710 -1.5822 -0.2028 -0.5299
  667SOL     MW 2668   1.941   2.667   1.717 -0.3831  0.1231 -1.2811
  668SOL     OW 2669   2.697   0.631   0.776  0.1952  0.4927  0.7286
  668SOL    HW1 2670   2.765   0.640   0.840 -0.5393  2.2006 -2.0512
  668SOL    HW2 2671   2.616   0.655   0.820  2.2193  1.4001 -1.7763
  668SOL     MW 2672   2.695   0.635   0.790  0.3654  0.8378  0.0314
  669SOL     OW 2673   0.147   0.927   0.729 -0.1855  1.1338 -0.0132
  669SOL    HW1 2674   0.099   0.988   0.789  0.3954  3.3342  1.3551
  669SOL    HW2 2675   0.236   0.951   0.731 -0.4941 -2.8335 -2.5302
  669SOL     MW 2676   0.152   0.938   0.737 -0.1495  0.9007 -0.1648
  670SOL     OW 2677   2.876   0.310   0.248 -0.3272 -0.5820  0.2555
  670SOL    HW1 2678   2.898   0.228   0.196 -1.8979  2.3607 -4.1804
  670SOL    HW2 2679   2.901   0.387   0.198 -4.6319  0.8835  2.6889
  670SOL     MW 2680   2.882   0.309   0.235 -1.1024 -0.0004 -0.0087
  671SOL     OW 2681   2.159   3.079   1.594 -0.3772 -0.2866  0.6310
  671SOL    HW1 2682   2.109   3.157   1.562 -0.4882 -2.8098 -0.0298
  671SOL    HW2 2683   2.085   3.033   1.639 -1.6963  2.6345 -5.0402
  671SOL     MW 2684   2.143   3.083   1.596 -0.5659 -0.2341 -0.2044
  672SOL     OW 2685   1.911   1.685   1.354 -0.2155  0.3316  0.1484
  672SOL    HW1 2686   1.823   1.718   1.377  0.4186  2.6939 -1.0159
  672SOL    HW2 2687   1.931   1.729   1.268  2.4078  0.1216 -2.8074
  672SOL     MW 2688   1.902   1.695   1.345  0.2143  0.6155 -0.3952
  673SOL     OW 2689   2.778   1.152   0.481 -0.5284 -0.2221  0.1400
  673SOL    HW1 2690   2.779   1.065   0.523  2.0984 -2.6491  0.1264
  673SOL    HW2 2691   2.865   1.178   0.511  1.6818 -3.4064  0.9867
  673SOL     MW 2692   2.790   1.144   0.490  0.1098 -0.9624  0.2499
  674SOL     OW 2693   2.407   0.051   1.289 -0.3036 -0.5039 -0.1656
  674SOL    HW1 2694   2.405   0.057   1.193 -0.9070 -0.3657  0.2485
  674SOL    HW2 2695   2.400  -0.042   1.315 -0.9708 -1.8877  2.3303
  674SOL     MW 2696   2.406   0.039   1.280 -0.4713 -0.6682  0.2183
  675SOL     OW 2697   2.949   0.973   1.095  0.1285  0.6506  0.2916
  675SOL    HW1 2698   3.024   0.976   1.149 -0.9030  1.5900 -0.4067
  675SOL    HW2 2699   2.986   0.985   1.009  3.4208  0.3754 -2.2621
  675SOL     MW 2700   2.964   0.975   1.091  0.4268  0.7383 -0.1375
  676SOL     OW 2701   2.860   1.530   1.668 -0.3906 -0.4618 -0.3049
  676SOL    HW1 2702   2.811   1.457   1.634 -0.1473  1.8866 -3.1689
  676SOL    HW2 2703   2.915   1.488   1.730  1.1518  0.5868  0.7921
  676SOL     MW 2704   2.861   1.515   1.672 -0.1550 -0.0136 -0.5380
  677SOL     OW 2705   2.478   0.842   1.828 -0.2448  0.3384 -0.1877
  677SOL    HW1 2706   2.418   0.791   1.777  4.3364  0.0904 -0.7095
  677SOL    HW2 2707   2.419   0.919   1.845 -1.6129  0.0370  3.3111
  677SOL     MW 2708   2.462   0.845   1.824  0.1791  0.2659  0.2051
  678SOL     OW 2709   2.521   1.571   0.529 -0.1775  0.4032 -0.7374
  678SOL    HW1 2710   2.449   1.617   0.484 -1.5103  0.1616  3.1821
  678SOL    HW2 2711   2.599   1.592   0.475  1.3577  0.7139  1.6068
  678SOL     MW 2712   2.522   1.579   0.516 -0.1508  0.4123  0.0890
  679SOL     OW 2713   2.388   0.532   1.205  0.5536 -0.3439 -0.5809
  679SOL    HW1 2714   2.331   0.454   1.198 -1.4526  0.0096 -1.6514
  679SOL    HW2 2715   2.348   0.604   1.158  3.2042  0.3731 -0.4362
  679SOL     MW 2716   2.375   0.531   1.198  0.6386 -0.2026 -0.7030
  680SOL     OW 2717   2.431   0.231   1.506  0.1315  0.4631 -0.4593
  680SOL    HW1 2718   2.379   0.213   1.583 -0.2098  1.5252 -3.4789
  680SOL    HW2 2719   2.402   0.164   1.440  1.2825  2.1118  1.3834
  680SOL     MW 2720   2.420   0.220   1.507  0.2383  0.8207 -0.6146
  681SOL     OW 2721   0.288   0.501   1.534 -0.7690 -0.2125  0.4846
  681SOL    HW1 2722   0.280   0.423   1.598  0.2325 -0.9098 -0.2480
  681SOL    HW2 2723   0.381   0.512   1.530  0.4642  0.2780 -0.5570
  681SOL     MW 2724   0.299   0.492   1.542 -0.4742 -0.2398  0.2505
  682SOL     OW 2725   0.164   2.988   1.495 -1.2444  0.1339 -0.5429
  682SOL    HW1 2726   0.108   3.067   1.460  0.4007  2.6411  1.2811
  682SOL    HW2 2727   0.109   2.965   1.569  0.0037 -0.4909 -1.3420
  682SOL     MW 2728   0.149   2.996   1.500 -0.8627  0.3823 -0.4076
  683SOL     OW 2729   1.942   0.789   2.994  0.3977  0.1308 -0.3782
  683SOL    HW1 2730   1.876   0.760   2.922  0.7649 -1.0877  0.0627
  683SOL    HW2 2731   1.954   0.887   2.990 -1.5898  2.5392 -0.3714
  683SOL     MW 2732   1.935   0.798   2.984  0.1839  0.2878 -0.3191
  684SOL     OW 2733   2.108   1.726   0.813 -0.1266 -0.0540 -0.2862
  684SOL    HW1 2734   2.014   1.704   0.818  0.7637  1.1019 -1.3177
  684SOL    HW2 2735   2.157   1.674   0.879  0.7486  0.4384  0.5858
  684SOL     MW 2736   2.102   1.716   0.822  0.1063  0.1634 -0.3072
  685SOL     OW 2737   2.643   1.735   1.186 -0.2333 -0.5190  0.1083
  685SOL    HW1 2738   2.722   1.756   1.241  1.0240  0.6749  0.3983
  685SOL    HW2 2739   2.625   1.643   1.212  1.2722 -1.3938  0.1208
  685SOL     MW 2740   2.651   1.726   1.197  0.1313 -0.4769  0.1482
  686SOL     OW 2741   2.949   0.701   1.509  0.8909  0.3269 -0.0460
  686SOL    HW1 2742   2.963   0.669   1.601  2.6101  2.1431 -1.3194
  686SOL    HW2 2743   3.032   0.670   1.472 -1.9367 -2.0975 -1.8371
  686SOL     MW 2744   2.962   0.693   1.516  0.7447  0.2466 -0.4503
  687SOL     OW 2745   2.191   0.328   1.231 -0.4513  0.0337  0.1217
  687SOL    HW1 2746   2.180   0.267   1.158 -0.2170 -1.9260 -0.8670
  687SOL    HW2 2747   2.136   0.404   1.214  0.4615 -1.0818  0.8483
  687SOL     MW 2748   2.182   0.330   1.219 -0.3000 -0.3720  0.0871
  688SOL     OW 2749   2.360   0.521   1.491  0.0773 -0.0476 -0.2287
  688SOL    HW1 2750   2.358   0.425   1.503  0.9995  1.3391  3.2144
  688SOL    HW2 2751   2.370   0.535   1.396 -1.2086 -2.2993  0.6842
  688SOL     MW 2752   2.361   0.510   1.480  0.0293 -0.1617  0.3460
  689SOL     OW 2753   2.570   0.788   2.965  0.0281 -0.1954  0.1537
  689SOL    HW1 2754   2.596   0.880   2.941 -0.7401 -1.7036 -0.0088
  689SOL    HW2 2755   2.563   0.788   3.059 -2.0063 -1.6724 -0.9218
  689SOL     MW 2756   2.572   0.800   2.974 -0.3416 -0.5893 -0.0096
  690SOL     OW 2757   2.059   1.026   1.948  0.0126  0.1482  0.2947
  690SOL    HW1 2758   2.031   0.938   1.949 -1.0843  1.9856  0.5222
  690SOL    HW2 2759   2.096   1.030   1.861  0.2353 -2.4586  2.0707
  690SOL     MW 2760   2.060   1.015   1.937 -0.1028  0.0467  0.5591
  691SOL     OW 2761   2.451   0.369   0.860 -0.5152 -0.2670 -0.1593
  691SOL    HW1 2762   2.533   0.418   0.854  2.6452 -0.3294 -1.5590
  691SOL    HW2 2763   2.386   0.430   0.831 -1.5286 -1.4494  2.2045
  691SOL     MW 2764   2.453   0.383   0.855 -0.2319 -0.4312 -0.0321
  692SOL     OW 2765   2.827   1.659   1.404 -0.1962  0.3410 -0.1847
  692SOL    HW1 2766   2.849   1.620   1.486  1.9365 -2.5222  1.5925
  692SOL    HW2 2767   2.852   1.749   1.420 -1.0602 -3.4519  0.1144
  692SOL     MW 2768   2.833   1.666   1.417 -0.0288 -0.5372  0.0892
  693SOL     OW 2769   2.320   0.460   0.089  0.0662 -0.6858 -0.1070
  693SOL    HW1 2770   2.243   0.412   0.098  1.8012  1.0646 -1.1482
  693SOL    HW2 2771   2.305   0.552   0.064  0.5711  0.3502 -0.1931
  693SOL     MW 2772   2.308   0.466   0.087  0.3617 -0.3182 -0.2558
  694SOL     OW 2773   1.968   1.265   1.208  0.0663  0.3896  0.2691
  694SOL    HW1 2774   2.055   1.230   1.219  0.2624 -0.0699 -2.2038
  694SOL    HW2 2775   1.913   1.201   1.257 -0.7438 -1.6697 -1.9135
  694SOL     MW 2776   1.972   1.252   1.216 -0.0147  0.0572 -0.3451
  695SOL     OW 2777   3.044   1.525   1.352  0.0431  0.8906  0.2768
  695SOL    HW1 2778   3.005   1.495   1.269  0.0988 -0.9801 -1.1998
  695SOL    HW2 2779   2.965   1.556   1.394 -2.2233 -0.8650 -0.9183
  695SOL     MW 2780   3.028   1.525   1.346 -0.2485  0.4121 -0.0757
  696SOL     OW 2781   2.018   1.361   0.946 -0.0159  0.0404  0.3510
  696SOL    HW1 2782   2.070   1.439   0.974  0.8421  1.6227 -2.5813
  696SOL    HW2 2783   1.982   1.327   1.027 -2.2394  0.3508 -1.4331
  696SOL     MW 2784   2.020   1.367   0.960 -0.1961  0.2901 -0.2713
  697SOL     OW 2785   2.868   0.996   2.259 -0.0975 -0.6485 -0.0310
  697SOL    HW1 2786   2.848   1.086   2.245  0.7061  0.1017 -1.9250
  697SOL    HW2 2787   2.838   0.946   2.180  1.4193 -0.9553 -3.0210
  697SOL     MW 2788   2.861   1.001   2.247  0.2086 -0.5900 -0.6754
  698SOL     OW 2789   2.534   0.408   3.037  0.3968  0.0649  0.6417
  698SOL    HW1 2790   2.458   0.421   3.095  1.4405  2.8442 -1.0065
  698SOL    HW2 2791   2.593   0.350   3.082  1.6841  0.5770  2.3606
  698SOL     MW 2792   2.532   0.402   3.051  0.7043  0.4992  0.6510
  699SOL     OW 2793   1.833   1.626   2.040  0.1238 -0.4838  0.3463
  699SOL    HW1 2794   1.810   1.539   2.075  0.2216  0.9636  0.4438
  699SOL    HW2 2795   1.927   1.646   2.050  0.3222  0.5036  0.5067
  699SOL     MW 2796   1.842   1.617   2.046  0.1629 -0.1625  0.3804
  700SOL     OW 2797   2.707   0.882   1.549  0.5178  0.1371  0.2326
  700SOL    HW1 2798   2.743   0.968   1.515  0.9664  1.5100 -0.9615
  700SOL    HW2 2799   2.768   0.813   1.531 -0.8748 -0.7545  1.7527
  700SOL     MW 2800   2.720   0.884   1.542  0.3932  0.2006  0.2756
  701SOL     OW 2801   1.675   1.295   2.594  0.1037 -0.3275  0.9164
  701SOL    HW1 2802   1.759   1.338   2.615 -1.0539 -0.1007  0.7380
  701SOL    HW2 2803   1.628   1.325   2.676 -1.1714  1.6482  1.1030
  701SOL     MW 2804   1.680   1.304   2.608 -0.2173 -0.0369  0.9175
  702SOL     OW 2805   2.222   0.499   0.757 -0.3590 -0.6065 -0.7305
  702SOL    HW1 2806   2.198   0.414   0.732  1.6562  2.3263 -1.4668
  702SOL    HW2 2807   2.224   0.562   0.684  0.8462  2.8616  0.0283
  702SOL     MW 2808   2.219   0.496   0.744  0.0659  0.2380 -0.7275
  703SOL     OW 2809   2.689   1.282   1.002 -0.5085 -0.1220  0.2416
  703SOL    HW1 2810   2.694   1.283   0.902  2.5340 -3.3488 -1.2822
  703SOL    HW2 2811   2.689   1.188   1.018  0.1808 -0.0860 -2.0179
  703SOL     MW 2812   2.690   1.270   0.991 -0.0161 -0.5430 -0.2575
  704SOL     OW 2813   0.009   1.304   0.229  0.0844  0.1319  0.6938
  704SOL    HW1 2814  -0.078   1.280   0.201  0.1156  0.5476  0.1592
  704SOL    HW2 2815   0.046   1.218   0.242  2.5127 -3.1330 -1.1451
  704SOL     MW 2816   0.003   1.290   0.227  0.4089 -0.2440  0.3806
  705SOL     OW 2817   2.233   1.625   1.324 -0.0224 -0.1975  0.2183
  705SOL    HW1 2818   2.144   1.633   1.353 -1.5167 -0.1593  0.5798
  705SOL    HW2 2819   2.270   1.546   1.349 -1.1789  2.5220 -0.0333
  705SOL     MW 2820   2.226   1.616   1.331 -0.3721  0.1663  0.2328
  706SOL     OW 2821   2.987   1.239   0.637  0.5542 -0.1804  0.1830
  706SOL    HW1 2822   3.067   1.249   0.591 -1.4429 -0.1018 -1.1482
  706SOL    HW2 2823   2.953   1.320   0.685 -2.2655  2.7350  1.2497
  706SOL     MW 2824   2.993   1.251   0.637 -0.0813  0.2146  0.1481
  707SOL     OW 2825   2.459   0.111   1.014  0.1735  0.1402  0.3007
  707SOL    HW1 2826   2.510   0.185   0.976  1.5495  1.7760 -0.0243
  707SOL    HW2 2827   2.374   0.119   0.975  1.2641  0.9044  0.6312
  707SOL     MW 2828   2.455   0.122   1.004  0.4990  0.4569  0.3014
  708SOL     OW 2829   2.546   1.533   0.104  0.7487  0.2228 -0.7036
  708SOL    HW1 2830   2.600   1.478   0.166  0.5216 -0.7691 -0.2320
  708SOL    HW2 2831   2.473   1.481   0.064 -1.5277 -4.2305 -2.4850
  708SOL     MW 2832   2.544   1.519   0.107  0.4184 -0.4956 -0.8764
  709SOL     OW 2833   1.773   1.686   0.135  0.1159  0.4808  0.0877
  709SOL    HW1 2834   1.796   1.614   0.077  0.1733 -4.0255  1.2256
  709SOL    HW2 2835   1.690   1.653   0.175  0.2803 -0.3961 -2.3864
  709SOL     MW 2836   1.765   1.672   0.133  0.1452 -0.2294 -0.0886
  710SOL     OW 2837   2.231   1.185   1.206  0.5549  0.4571 -0.0659
  710SOL    HW1 2838   2.258   1.167   1.119 -1.5317 -0.4902  2.0481
  710SOL    HW2 2839   2.201   1.099   1.231 -2.9754 -0.8590  1.6977
  710SOL     MW 2840   2.231   1.171   1.198 -0.1862  0.1585  0.4457
  711SOL     OW 2841   2.323   0.139   1.754  0.7061  0.3369  0.0765
  711SOL    HW1 2842   2.406   0.102   1.774 -1.8248 -0.4601 -1.2789
  711SOL    HW2 2843   2.275   0.069   1.726  0.8537  2.2056 -1.2821
  711SOL     MW 2844   2.328   0.125   1.753  0.3916  0.4783 -0.2816
  712SOL     OW 2845   1.601   0.645   3.075  0.0244 -0.3936 -0.2757
  712SOL    HW1 2846   1.635   0.699   3.003 -2.6603  1.2891 -1.0065
  712SOL    HW2 2847   1.529   0.691   3.116 -0.8699  2.0498 -0.7603
  712SOL     MW 2848   1.596   0.658   3.071 -0.4478  0.1508 -0.4361
  713SOL     OW 2849   2.588   0.775   1.152  0.2451  0.3367  0.2160
  713SOL    HW1 2850   2.654   0.696   1.150 -1.1188 -2.8994  1.6802
  713SOL    HW2 2851   2.524   0.756   1.222  2.2040  1.2810 -0.8795
  713SOL     MW 2852   2.588   0.762   1.161  0.3236  0.0343  0.2647
  714SOL     OW 2853   2.248   0.146   2.018  0.2451  0.1990 -0.1424
  714SOL    HW1 2854   2.327   0.149   2.071  1.2570  1.8220 -1.6520
  714SOL    HW2 2855   2.283   0.166   1.926 -0.4821  2.2052  0.3543
  714SOL     MW 2856   2.263   0.149   2.013  0.2827  0.6778 -0.2760
  715SOL     OW 2857   1.753   1.937   1.718  0.1652  0.6420  0.3122
  715SOL    HW1 2858   1.840   1.900   1.686  1.1260 -0.8291  0.7324
  715SOL    HW2 2859   1.726   1.877   1.789  0.5628 -1.7181  1.9759
  715SOL     MW 2860   1.761   1.924   1.723  0.3444  0.1365  0.5871
  716SOL     OW 2861   2.211   0.716   0.587  1.1717 -0.3862  0.9048
  716SOL    HW1 2862   2.261   0.711   0.509 -0.5973  1.3067  0.4601
  716SOL    HW2 2863   2.122   0.737   0.547 -0.6078 -2.1085  0.5799
  716SOL     MW 2864   2.206   0.718   0.571  0.7035 -0.3901  0.8033
  717SOL     OW 2865   2.889   1.429   2.966 -0.4531  0.1738 -0.7003
  717SOL    HW1 2866   2.979   1.444   2.951 -0.2117 -2.2396  0.1353
  717SOL    HW2 2867   2.868   1.487   3.042 -2.2590  0.1573  1.9455
  717SOL     MW 2868   2.898   1.439   2.974 -0.6595 -0.1468 -0.2409
  718SOL     OW 2869   2.564   1.489   1.284 -0.0344 -0.1729  0.4546
  718SOL    HW1 2870   2.572   1.525   1.373  1.0251  0.2230 -2.9515
  718SOL    HW2 2871   2.647   1.436   1.271  0.0730  0.4812  1.8974
  718SOL     MW 2872   2.576   1.487   1.294  0.1196 -0.0343  0.1956
  719SOL     OW 2873   2.148   1.332   0.682 -0.2095 -0.0676 -0.1578
  719SOL    HW1 2874   2.228   1.383   0.692 -0.4069 -1.2534  3.8749
  719SOL    HW2 2875   2.131   1.304   0.771 -2.3291  1.6236  1.0775
  719SOL     MW 2876   2.157   1.335   0.695 -0.5152 -0.0009  0.5373
  720SOL     OW 2877   2.856   1.176   0.153 -0.2642  0.1876 -0.5394
  720SOL    HW1 2878   2.825   1.083   0.166  0.4810  3.4438  3.2443
  720SOL    HW2 2879   2.793   1.224   0.207 -2.0888  1.3866 -0.7013
  720SOL     MW 2880   2.844   1.170   0.162 -0.4067  0.7754 -0.0616
  721SOL     OW 2881   2.464   0.782   1.407  0.2765 -0.3378 -0.4968
  721SOL    HW1 2882   2.445   0.691   1.429 -0.2108  0.8980 -0.3987
  721SOL    HW2 2883   2.553   0.778   1.441 -1.7906  1.7142 -1.5244
  721SOL     MW 2884   2.474   0.769   1.415 -0.0605  0.0960 -0.6194
  722SOL     OW 2885   2.500   1.164   0.352  0.2647  0.2474  0.0746
  722SOL    HW1 2886   2.454   1.207   0.427  0.1438  2.0027  1.1689
  722SOL    HW2 2887   2.593   1.150   0.375  2.7182  0.3629  0.0961
  722SOL     MW 2888   2.506   1.168   0.365  0.5724  0.4943  0.2218
  723SOL     OW 2889   2.249   1.385   1.635  0.0957  0.1173 -0.3596
  723SOL    HW1 2890   2.265   1.342   1.550  0.4041 -0.1632 -1.2966
  723SOL    HW2 2891   2.155   1.390   1.646 -0.3013  3.2347 -1.6451
  723SOL     MW 2892   2.239   1.380   1.625  0.0840  0.4916 -0.6529
  724SOL     OW 2893   2.498   0.363   0.578 -0.0708  0.2704 -0.2598
  724SOL    HW1 2894   2.452   0.343   0.656 -0.6295 -1.7874 -2.5570
  724SOL    HW2 2895   2.581   0.319   0.586 -0.6842 -0.7810 -4.8029
  724SOL     MW 2896   2.503   0.354   0.590 -0.2254 -0.1398 -1.1623
  725SOL     OW 2897   2.649   0.502   1.132  0.3448  0.3271 -0.1259
  725SOL    HW1 2898   2.675   0.528   1.225  2.0983  0.1218  0.8875
  725SOL    HW2 2899   2.554   0.496   1.132 -0.7748  0.9633  0.0505
  725SOL     MW 2900   2.640   0.505   1.144  0.4285  0.3840  0.0311
  726SOL     OW 2901   2.567   2.398   0.556  0.0072 -0.0678  0.5972
  726SOL    HW1 2902   2.555   2.451   0.479  0.3057 -2.6360  1.4973
  726SOL    HW2 2903   2.529   2.449   0.626 -1.3520  1.8440 -4.2770
  726SOL     MW 2904   2.561   2.412   0.555 -0.1327 -0.1544  0.0728
  727SOL     OW 2905   2.890   0.286   1.658  0.0944 -0.1629  0.2377
  727SOL    HW1 2906   2.877   0.320   1.566 -0.5567  0.2001 -2.0914
  727SOL    HW2 2907   2.803   0.285   1.698  2.1755  1.1313 -0.1353
  727SOL     MW 2908   2.877   0.291   1.652  0.2830  0.0558 -0.1188
  728SOL     OW 2909   2.782   1.154   3.003  0.4243 -0.2683  0.2960
  728SOL    HW1 2910   2.792   1.240   2.971  2.9260 -1.2493 -0.4007
  728SOL    HW2 2911   2.803   1.165   3.092  0.0663 -0.5816 -2.0614
  728SOL     MW 2912   2.786   1.167   3.010  0.7071 -0.4391 -0.1070
  729SOL     OW 2913   2.467   1.458   0.997  0.0956  0.0518  0.4574
  729SOL    HW1 2914   2.485   1.483   1.087  0.7548  0.6141  3.6783
  729SOL    HW2 2915   2.522   1.383   0.993 -1.1967  0.8625 -0.9401
  729SOL     MW 2916   2.477   1.452   1.008  0.0121  0.2330  0.6980
  730SOL     OW 2917   2.071   1.184   0.176  0.0290  0.2509  0.2391
  730SOL    HW1 2918   2.161   1.156   0.153  0.3369  0.5592 -1.8586
  730SOL    HW2 2919   2.080   1.274   0.205 -2.9158  0.6910  2.0201
  730SOL     MW 2920   2.084   1.192   0.177 -0.3189  0.3497  0.1973
  731SOL     OW 2921   2.793   1.802   2.877  0.1299  0.1822  0.2194
  731SOL    HW1 2922   2.714   1.840   2.841 -0.0779  0.5394 -0.7232
  731SOL    HW2 2923   2.842   1.884   2.872  1.8646  0.7165 -0.1232
  731SOL     MW 2924   2.789   1.818   2.872  0.3314  0.2998  0.0498
  732SOL     OW 2925   2.226   0.932   1.287 -0.1338 -0.2490 -0.1531
  732SOL    HW1 2926   2.161   0.923   1.353  0.7678 -0.2727 -0.2344
  732SOL    HW2 2927   2.321   0.920   1.329  1.2753  5.3321  3.4973
  732SOL     MW 2928   2.230   0.929   1.301  0.1710  0.4842  0.3178
  733SOL     OW 2929   2.378   2.845   3.024 -0.0503 -0.1224 -0.8207
  733SOL    HW1 2930   2.299   2.903   3.021 -1.0224  2.5113 -0.2080
  733SOL    HW2 2931   2.344   2.756   3.013 -0.0498 -1.3441  0.7011
  733SOL     MW 2932   2.363   2.841   3.022 -0.1785  0.0639 -0.5390
  734SOL     OW 2933   1.510   0.385   2.534 -0.1153  0.0323 -0.0152
  734SOL    HW1 2934   1.427   0.344   2.574 -0.6454 -3.5304  2.1137
  734SOL    HW2 2935   1.530   0.334   2.456  2.5109  2.3128  2.8963
  734SOL     MW 2936   1.502   0.373   2.529  0.1612 -0.1368  0.6498
  735SOL     OW 2937   2.981   0.882   2.746 -0.2875 -0.3953 -0.4615
  735SOL    HW1 2938   2.888   0.852   2.741 -1.4305  1.9578  1.0469
  735SOL    HW2 2939   2.983   0.927   2.830 -2.8565  1.0722 -3.1900
  735SOL     MW 2940   2.969   0.884   2.756 -0.7773  0.1088 -0.6225
  736SOL     OW 2941   0.039   0.646   2.478  0.0392  0.1366 -0.3206
  736SOL    HW1 2942   0.110   0.681   2.420 -0.2631 -1.4991 -1.3364
  736SOL    HW2 2943   0.028   0.556   2.442  2.1102 -0.5394  0.0049
  736SOL     MW 2944   0.047   0.639   2.465  0.2725 -0.1684 -0.4116
  737SOL     OW 2945   2.879   0.623   2.556  0.3234 -0.0124 -0.0077
  737SOL    HW1 2946   2.830   0.585   2.482  1.1579  0.4782  1.5976
  737SOL    HW2 2947   2.969   0.637   2.516  0.7472 -2.1044 -0.1229
  737SOL     MW 2948   2.885   0.620   2.541  0.4894 -0.2237  0.1889
  738SOL     OW 2949   0.165   0.401   1.904  0.2962  0.7044  0.1748
  738SOL    HW1 2950   0.238   0.449   1.882  1.3893 -2.1716 -0.9237
  738SOL    HW2 2951   0.177   0.329   1.843 -0.1730  0.9853  0.8017
  738SOL     MW 2952   0.176   0.398   1.893  0.3785  0.3620  0.1126
  739SOL     OW 2953   2.559   1.027   2.201 -0.0410  0.0069  0.3469
  739SOL    HW1 2954   2.469   1.028   2.170 -1.0767  3.0741  1.2829
  739SOL    HW2 2955   2.612   1.063   2.129  1.3787 -0.4396 -0.5617
  739SOL     MW 2956   2.554   1.032   2.187  0.0097  0.3526  0.3505
  740SOL     OW 2957   0.274   1.704   2.935 -0.6256  0.0334  0.4607
  740SOL    HW1 2958   0.271   1.613   2.912  0.1521  0.9067 -1.5933
  740SOL    HW2 2959   0.363   1.707   2.980 -0.3606 -1.1135  0.2135
  740SOL     MW 2960   0.286   1.693   2.938 -0.4880 -0.0027  0.1571
  741SOL     OW 2961   2.219   1.268   2.660  0.1258  0.2620  0.8028
  741SOL    HW1 2962   2.222   1.356   2.625  0.3543 -0.8312  0.6783
  741SOL    HW2 2963   2.234   1.289   2.754 -0.5988  2.6170  2.8533
  741SOL     MW 2964   2.221   1.283   2.668  0.0603  0.4285  1.0569
  742SOL     OW 2965   1.576   1.370   2.337  0.3943  0.1306 -0.4260
  742SOL    HW1 2966   1.516   1.303   2.308  3.6467  0.4028  0.7862
  742SOL    HW2 2967   1.608   1.325   2.421  0.2911 -0.5185 -0.1786
  742SOL     MW 2968   1.572   1.355   2.344  0.8098  0.0809 -0.2334
  743SOL     OW 2969   2.491   1.211   2.696 -0.3982 -0.3483  0.2004
  743SOL    HW1 2970   2.398   1.210   2.673  1.7103  0.4359  0.5271
  743SOL    HW2 2971   2.502   1.144   2.757 -0.4425  0.2620 -1.0194
  743SOL     MW 2972   2.480   1.202   2.701 -0.1259 -0.1643  0.0825
  744SOL     OW 2973   2.773   0.967   1.805 -0.3350 -0.3282 -0.0426
  744SOL    HW1 2974   2.695   1.026   1.824 -0.9320  0.7806  1.7288
  744SOL    HW2 2975   2.746   0.929   1.717  1.2079 -0.5733 -0.2886
  744SOL     MW 2976   2.759   0.969   1.796 -0.2102 -0.2143  0.1587
  745SOL     OW 2977   1.778   0.482   2.465 -0.7215  0.0922 -0.2007
  745SOL    HW1 2978   1.728   0.489   2.378  0.7706  0.8346  2.6357
  745SOL    HW2 2979   1.700   0.472   2.522 -3.3530  1.3999 -2.2518
  745SOL     MW 2980   1.761   0.481   2.461 -0.8719  0.3627 -0.0971
  746SOL     OW 2981   1.588   1.435   1.725 -0.3267 -0.2183 -0.2618
  746SOL    HW1 2982   1.638   1.509   1.755 -0.3081  1.9132  0.1452
  746SOL    HW2 2983   1.565   1.389   1.801  1.4066  2.7628  1.3025
  746SOL     MW 2984   1.591   1.439   1.739 -0.0956  0.4562 -0.0017
  747SOL     OW 2985   2.614   1.135   1.922  0.3814 -0.6797 -0.5026
  747SOL    HW1 2986   2.534   1.130   1.865 -1.0902  0.8992 -1.0749
  747SOL    HW2 2987   2.622   1.234   1.941 -1.2455  0.4407 -2.0775
  747SOL     MW 2988   2.605   1.147   1.917 -0.0274 -0.3236 -0.7859
  748SOL     OW 2989   0.126   3.029   1.968 -0.2152  1.4798  0.2304
  748SOL    HW1 2990   0.211   3.070   1.945  4.0303 -1.3906  0.2337
  748SOL    HW2 2991   0.069   3.092   2.004 -1.2292 -0.1353  0.3967
  748SOL     MW 2992   0.130   3.042   1.970  0.2112  0.8879  0.2528
  749SOL     OW 2993   2.411   0.640   2.791  0.5094  0.5802 -0.6783
  749SOL    HW1 2994   2.412   0.708   2.726  0.3928 -2.6621  2.1952
  749SOL    HW2 2995   2.471   0.677   2.864 -1.6603 -0.5683 -0.7242
  749SOL     MW 2996   2.419   0.654   2.792  0.2078  0.0009 -0.3052
  750SOL     OW 2997   2.086   3.049   2.003  0.7185 -0.9647 -0.4101
  750SOL    HW1 2998   2.141   3.134   2.018  1.0173 -0.3572 -2.1654
  750SOL    HW2 2999   2.143   2.984   1.965 -0.8974  0.6673 -0.3796
  750SOL     MW 3000   2.101   3.051   2.000  0.5447 -0.6692 -0.6376
  751SOL     OW 3001   0.021   0.370   2.441 -0.0412 -0.0755  0.0781
  751SOL    HW1 3002  -0.055   0.335   2.388  0.4322 -0.1614 -3.1917
  751SOL    HW2 3003   0.098   0.338   2.396 -3.5689 -1.1258 -0.6917
  751SOL     MW 3004   0.021   0.361   2.428 -0.4442 -0.2254 -0.4549
  752SOL     OW 3005   2.153   0.961   2.794 -0.3217 -0.1417  0.3640
  752SOL    HW1 3006   2.245   0.962   2.818  1.2449  0.5028  1.5966
  752SOL    HW2 3007   2.122   0.893   2.852 -0.3023  0.1560  1.8193
  752SOL     MW 3008   2.161   0.952   2.805 -0.1124 -0.0174  0.7186
  753SOL     OW 3009   2.858   0.299   2.331  0.0959  0.3510 -0.1431
  753SOL    HW1 3010   2.824   0.205   2.336 -0.4626 -0.2832  0.6442
  753SOL    HW2 3011   2.783   0.352   2.342  1.9781 -1.3703 -1.0933
  753SOL     MW 3012   2.844   0.294   2.333  0.2705  0.0402 -0.1646
  754SOL     OW 3013   2.250   3.012   2.613  0.4657  0.0512 -0.1599
  754SOL    HW1 3014   2.294   2.990   2.529 -0.6867  0.6290  0.1577
  754SOL    HW2 3015   2.309   2.988   2.686  1.6560 -0.3943 -1.8189
  754SOL     MW 3016   2.264   3.006   2.611  0.4707  0.0686 -0.3369
  755SOL     OW 3017   2.762   1.608   2.385 -0.2197  0.5052  0.2199
  755SOL    HW1 3018   2.715   1.524   2.400 -0.4871 -1.4432 -0.6323
  755SOL    HW2 3019   2.787   1.634   2.474 -2.3298 -2.5052 -1.0017
  755SOL     MW 3020   2.759   1.601   2.398 -0.5334 -0.1491 -0.0537
  756SOL     OW 3021   2.198   1.244   2.967 -0.4400 -0.0521 -0.1678
  756SOL    HW1 3022   2.257   1.311   2.996 -1.9407 -0.0950  0.3763
  756SOL    HW2 3023   2.256   1.163   2.967 -1.2033 -0.0345 -0.6690
  756SOL     MW 3024   2.214   1.242   2.971 -0.7387 -0.0554 -0.1622
  757SOL     OW 3025   2.183   0.963   1.721  0.0068 -0.0515  0.5192
  757SOL    HW1 3026   2.207   0.870   1.729 -0.3690 -0.7714  0.8683
  757SOL    HW2 3027   2.131   0.956   1.636 -0.2628 -2.3010  1.3264
  757SOL     MW 3028   2.179   0.949   1.711 -0.0783 -0.4433  0.6718
  758SOL     OW 3029   2.183   1.839   2.529  0.2030 -0.2266  0.7405
  758SOL    HW1 3030   2.163   1.919   2.472  2.7141 -0.7031 -0.2287
  758SOL    HW2 3031   2.269   1.818   2.489  1.1901 -0.3308 -0.0188
  758SOL     MW 3032   2.192   1.846   2.516  0.6646 -0.3032  0.5125
  759SOL     OW 3033   1.587   1.461   2.810 -0.2008 -0.0976 -0.2338
  759SOL    HW1 3034   1.597   1.540   2.743  0.2819  1.1536 -1.8790
  759SOL    HW2 3035   1.643   1.494   2.881 -0.0140 -0.1641  1.7666
  759SOL     MW 3036   1.595   1.476   2.810 -0.1125  0.0587 -0.1869
  760SOL     OW 3037   2.576   1.931   2.718  0.0355  0.0804 -0.2520
  760SOL    HW1 3038   2.525   1.852   2.707  0.3962 -1.0009  2.6466
  760SOL    HW2 3039   2.653   1.922   2.665 -1.3725 -0.7110  0.9293
  760SOL     MW 3040   2.579   1.919   2.709 -0.1027 -0.1667  0.2863
  761SOL     OW 3041   2.309   0.437   2.394 -0.3234  0.2774  0.5302
  761SOL    HW1 3042   2.229   0.395   2.427  0.1829  2.1088  0.3705
  761SOL    HW2 3043   2.359   0.465   2.473 -2.4367 -3.0295  0.8832
  761SOL     MW 3044   2.305   0.435   2.409 -0.5354  0.0827  0.5557
  762SOL     OW 3045   0.021   0.188   2.129  0.2800 -0.0656 -0.3219
  762SOL    HW1 3046  -0.004   0.125   2.200 -0.6866  0.3931 -0.3474
  762SOL    HW2 3047  -0.060   0.234   2.106  0.6493  1.1298 -0.7090
  762SOL     MW 3048   0.007   0.186   2.135  0.2012  0.1526 -0.3764
  763SOL     OW 3049   2.451   1.215   2.388  0.0527  0.3486 -0.4833
  763SOL    HW1 3050   2.518   1.161   2.345  1.7240  0.6925  1.0591
  763SOL    HW2 3051   2.498   1.251   2.455 -1.3603  0.5445 -2.1619
  763SOL     MW 3052   2.466   1.213   2.391  0.0868  0.4198 -0.5013
  764SOL     OW 3053   0.388   0.037   2.794 -0.4208  0.3178  0.4688
  764SOL    HW1 3054   0.339   0.106   2.760  2.8942 -1.3791 -1.1245
  764SOL    HW2 3055   0.416   0.070   2.882 -0.6769  0.9608  0.7017
  764SOL     MW 3056   0.385   0.050   2.801 -0.0172  0.1787  0.2893
  765SOL     OW 3057   2.773   0.013   2.336 -0.1164 -0.3470 -0.4466
  765SOL    HW1 3058   2.745   0.007   2.248  0.5529 -2.6760  1.3132
  765SOL    HW2 3059   2.782  -0.077   2.365  1.0246  1.0799  0.8183
  765SOL     MW 3060   2.771   0.000   2.328  0.1225 -0.4660 -0.0476
  766SOL     OW 3061   1.923   2.987   2.191 -0.1838 -0.0571 -0.5564
  766SOL    HW1 3062   1.986   3.004   2.124 -1.5129 -1.7448 -2.6509
  766SOL    HW2 3063   1.865   2.911   2.163  2.4631 -1.5678 -2.5153
  766SOL     MW 3064   1.924   2.979   2.178 -0.0100 -0.4791 -1.0912
  767SOL     OW 3065   2.650   0.629   1.889  0.1828  0.2655 -0.2421
  767SOL    HW1 3066   2.694   0.651   1.969  1.9290  1.0327  0.1909
  767SOL    HW2 3067   2.607   0.712   1.870 -0.0440 -0.7736 -0.8357
  767SOL     MW 3068   2.650   0.643   1.897  0.3833  0.2296 -0.2633
  768SOL     OW 3069   0.071   1.469   2.895 -0.2768  0.0573  0.4145
  768SOL    HW1 3070   0.117   1.476   2.978  5.2547 -0.0122  0.6821
  768SOL    HW2 3071   0.077   1.374   2.881  0.7078  2.1229 -2.1275
  768SOL     MW 3072   0.078   1.457   2.904  0.5829  0.3207  0.1144
  769SOL     OW 3073   2.394   0.700   2.338 -0.0829 -0.0278 -0.3367
  769SOL    HW1 3074   2.343   0.616   2.325  0.1949  1.6886  1.1539
  769SOL    HW2 3075   2.454   0.708   2.258  1.6691 -0.1428 -2.5010
  769SOL     MW 3076   2.395   0.690   2.326  0.1849  0.1835 -0.4256
  770SOL     OW 3077   3.092   1.584   2.674  0.2665 -0.5844  0.2548
  770SOL    HW1 3078   3.000   1.590   2.662  0.7590 -1.1044  0.4457
  770SOL    HW2 3079   3.118   1.532   2.754 -0.8012  0.6370  0.6510
  770SOL     MW 3080   3.083   1.578   2.683  0.1906 -0.4919  0.3323
  771SOL     OW 3081   3.071   0.579   1.988  0.2434  0.6079  0.0016
  771SOL    HW1 3082   3.016   0.571   1.907  0.8767  2.9311  0.8142
  771SOL    HW2 3083   3.154   0.524   1.977 -3.2201  0.7018  0.8796
  771SOL     MW 3084   3.075   0.570   1.976 -0.1301  0.9268  0.2246
  772SOL     OW 3085   3.087   0.014   2.344  0.0619  0.4303 -0.1392
  772SOL    HW1 3086   3.008  -0.030   2.371  1.0024 -3.0058  0.8753
  772SOL    HW2 3087   3.149  -0.054   2.305  0.9080  1.5558  1.3916
  772SOL     MW 3088   3.085  -0.001   2.342  0.2976  0.1254  0.1966
  773SOL     OW 3089   2.475   2.917   2.758 -0.3078  0.4463 -0.1697
  773SOL    HW1 3090   2.513   2.843   2.709  1.8989  0.1187 -0.2952
  773SOL    HW2 3091   2.457   2.870   2.842 -1.6031 -1.5083 -0.7029
  773SOL     MW 3092   2.478   2.901   2.763 -0.1876  0.1452 -0.2566
  774SOL     OW 3093   2.381   1.163   1.755 -0.0319 -0.5066 -0.4638
  774SOL    HW1 3094   2.345   1.237   1.704 -4.9812  0.6986  0.2358
  774SOL    HW2 3095   2.310   1.104   1.739  2.7847  0.1763  0.5332
  774SOL     MW 3096   2.367   1.165   1.746 -0.3132 -0.2574 -0.2399
  775SOL     OW 3097   2.325   2.887   2.384 -0.1429 -0.2600 -0.0887
  775SOL    HW1 3098   2.371   2.958   2.335  0.5444 -0.1591  0.0556
  775SOL    HW2 3099   2.392   2.821   2.386  1.7211 -0.9232  1.3144
  775SOL     MW 3100   2.340   2.888   2.378  0.1937 -0.3342  0.1154
  776SOL     OW 3101   0.138   1.506   0.079 -0.0067 -0.2748  0.3999
  776SOL    HW1 3102   0.227   1.478   0.096  0.7019  1.9290  0.8320
  776SOL    HW2 3103   0.085   1.427   0.102  1.1560 -0.2949  1.9710
  776SOL     MW 3104   0.143   1.492   0.084  0.2402  0.0133  0.6642
  777SOL     OW 3105   2.963   1.116   1.703 -0.3344 -0.2990  0.4720
  777SOL    HW1 3106   2.922   1.176   1.644 -4.0410  3.9831 -0.8001
  777SOL    HW2 3107   2.897   1.074   1.755  1.3396 -3.6068 -0.9348
  777SOL     MW 3108   2.949   1.118   1.702 -0.6026 -0.1704  0.1186
  778SOL     OW 3109   2.928   0.502   2.831 -0.1810  0.0865 -0.4453
  778SOL    HW1 3110   2.852   0.523   2.890 -2.6727 -1.2100 -2.4147
  778SOL    HW2 3111   2.923   0.564   2.758  1.0614  0.7965 -1.2635
  778SOL     MW 3112   2.917   0.513   2.829 -0.3458  0.0091 -0.8131
  779SOL     OW 3113   2.221   0.531   2.107 -0.1027 -0.5557  0.0541
  779SOL    HW1 3114   2.159   0.572   2.174  1.2645 -0.2076  1.0457
  779SOL    HW2 3115   2.270   0.472   2.158 -0.1572 -0.5275  2.7008
  779SOL     MW 3116   2.219   0.529   2.123  0.0705 -0.5060  0.5341
  780SOL     OW 3117   0.216   0.260   2.714  0.0487 -0.0622 -0.3743
  780SOL    HW1 3118   0.121   0.246   2.715 -3.5313 -0.1379 -0.6513
  780SOL    HW2 3119   0.231   0.354   2.737 -0.7933  2.6778  1.2755
  780SOL     MW 3120   0.206   0.271   2.717 -0.5348  0.2893 -0.1932
  781SOL     OW 3121   0.012   1.212   2.416  0.2202  0.2065  0.1309
  781SOL    HW1 3122   0.069   1.229   2.335  1.3040  1.2536 -0.1726
  781SOL    HW2 3123  -0.018   1.124   2.404 -1.0219  2.4446 -2.0275
  781SOL     MW 3124   0.015   1.202   2.404  0.1993  0.6399 -0.1939
  782SOL     OW 3125   0.731   1.494   0.047 -0.1525 -0.0480 -0.0042
  782SOL    HW1 3126   0.648   1.549   0.048 -2.2768  2.4536 -0.8403
  782SOL    HW2 3127   0.767   1.522   0.133 -0.4874  1.6874 -0.7606
  782SOL     MW 3128   0.725   1.505   0.058 -0.4770  0.5111 -0.2143
  783SOL     OW 3129   2.699   0.516   2.362 -0.4358 -0.3807  0.3141
  783SOL    HW1 3130   2.691   0.598   2.316 -0.3919 -1.9266  1.6436
  783SOL    HW2 3131   2.628   0.518   2.424  0.1648 -1.0638 -1.4460
  783SOL     MW 3132   2.688   0.527   2.364 -0.3508 -0.6748  0.2573
  784SOL     OW 3133   0.152   0.800   2.820  0.7507 -0.0426 -0.3599
  784SOL    HW1 3134   0.070   0.830   2.789  0.4327 -1.3270 -1.1457
  784SOL    HW2 3135   0.210   0.851   2.761 -0.0466  2.4743  0.4901
  784SOL     MW 3136   0.149   0.811   2.808  0.6035  0.1200 -0.3515
  785SOL     OW 3137   0.444   0.434   2.163 -0.2624 -0.4098 -0.1822
  785SOL    HW1 3138   0.432   0.464   2.070 -3.0411  0.0166  1.6652
  785SOL    HW2 3139   0.354   0.400   2.188 -0.6711  0.5283  0.9346
  785SOL     MW 3140   0.430   0.433   2.154 -0.6829 -0.2297  0.2089
  786SOL     OW 3141   1.873   0.503   3.038 -0.0355 -0.4265  0.2035
  786SOL    HW1 3142   1.923   0.588   3.029  0.5988 -1.4062  4.9353
  786SOL    HW2 3143   1.781   0.536   3.025 -0.8147  0.4387 -1.4002
  786SOL     MW 3144   1.868   0.518   3.035 -0.0547 -0.4416  0.6162
  787SOL     OW 3145   2.390   0.195   2.914 -0.0238 -0.1731  0.1876
  787SOL    HW1 3146   2.468   0.136   2.906  2.1162 -2.4145  0.9007
  787SOL    HW2 3147   2.427   0.284   2.927  0.6932  1.6294 -0.6881
  787SOL     MW 3148   2.405   0.199   2.915  0.3531 -0.2310  0.1662
  788SOL     OW 3149   2.917   2.894   2.389 -0.3213  0.3486  0.1093
  788SOL    HW1 3150   2.989   2.872   2.452  1.4360 -0.6592  0.6843
  788SOL    HW2 3151   2.936   2.859   2.299 -1.1498 -0.4696  2.1516
  788SOL     MW 3152   2.929   2.886   2.385 -0.1988  0.1077  0.4546
  789SOL     OW 3153   0.106   0.202   0.057 -0.1745  0.4313 -0.6247
  789SOL    HW1 3154   0.026   0.144   0.070 -0.4097 -1.2821 -0.1146
  789SOL    HW2 3155   0.080   0.278   0.005  2.7727  0.2857 -0.0889
  789SOL     MW 3156   0.092   0.205   0.052  0.1833  0.1860 -0.4867
  790SOL     OW 3157   3.038   0.954   2.473 -0.1851  0.3600  0.1622
  790SOL    HW1 3158   3.020   0.921   2.558  0.1041  0.8574 -4.2341
  790SOL    HW2 3159   2.962   0.945   2.408  0.1820  1.6757 -0.0428
  790SOL     MW 3160   3.025   0.949   2.475 -0.0985  0.5992 -0.4448
  791SOL     OW 3161   2.526   0.502   2.580  0.5879 -0.2372 -0.2432
  791SOL    HW1 3162   2.500   0.560   2.656  1.2507 -1.7332  1.0703
  791SOL    HW2 3163   2.544   0.419   2.620 -0.2246  2.2085  1.3386
  791SOL     MW 3164   2.525   0.499   2.595  0.5682 -0.1119  0.1388
  792SOL     OW 3165   2.482   0.222   2.448 -0.2598 -0.2809  0.0796
  792SOL    HW1 3166   2.433   0.287   2.393 -2.1263  1.0861  2.2133
  792SOL    HW2 3167   2.429   0.195   2.523  1.1129 -2.0270  1.6172
  792SOL     MW 3168   2.469   0.227   2.451 -0.3250 -0.3309  0.5640
  793SOL     OW 3169   1.826   1.129   2.048 -0.8773 -0.3643 -0.2995
  793SOL    HW1 3170   1.788   1.127   1.964  0.6095 -0.0063  0.9762
  793SOL    HW2 3171   1.918   1.102   2.029 -1.9575 -0.4652  0.5034
  793SOL     MW 3172   1.833   1.125   2.035 -0.8236 -0.3304 -0.0252
  794SOL     OW 3173   1.368   2.305   0.114  0.2593  0.5494 -0.1744
  794SOL    HW1 3174   1.395   2.389   0.065 -1.5618 -2.3555 -1.1752
  794SOL    HW2 3175   1.428   2.294   0.183 -0.8570 -0.3340  2.6373
  794SOL     MW 3176   1.380   2.315   0.117 -0.1283  0.0496  0.0645
  795SOL     OW 3177   2.281   1.037   2.513 -0.2324  0.4283  0.0254
  795SOL    HW1 3178   2.237   1.105   2.564  1.3325 -0.8518  2.3396
  795SOL    HW2 3179   2.343   1.088   2.455  4.3841  3.7670 -0.7018
  795SOL     MW 3180   2.283   1.053   2.512  0.5832  0.6999  0.2348
  796SOL     OW 3181   0.249   0.597   2.680 -0.0047  0.0422  0.1963
  796SOL    HW1 3182   0.222   0.657   2.749 -0.9698  2.5040 -0.9015
  796SOL    HW2 3183   0.169   0.584   2.630 -1.2460  0.3042 -0.3729
  796SOL     MW 3184   0.235   0.603   2.683 -0.2958  0.4016 -0.0237
  797SOL     OW 3185   2.756   0.216   2.653 -0.2727  0.1228 -0.6817
  797SOL    HW1 3186   2.719   0.191   2.570 -0.5160 -0.3083  2.9915
  797SOL    HW2 3187   2.850   0.215   2.652 -1.6762 -2.5849  1.6945
  797SOL     MW 3188   2.763   0.213   2.642 -0.4900 -0.2914  0.1164
  798SOL     OW 3189   2.411   0.003   2.278  0.1241 -0.0943  0.2089
  798SOL    HW1 3190   2.434   0.086   2.331  0.7912 -0.9730 -0.3893
  798SOL    HW2 3191   2.490  -0.020   2.232  0.3291  1.6800 -0.3393
  798SOL     MW 3192   2.424   0.011   2.279  0.2392  0.0238  0.0576
  799SOL     OW 3193   2.574   3.031   0.079 -0.0670  0.6914  0.0267
  799SOL    HW1 3194   2.502   2.979   0.046 -2.6133 -0.0020  1.4690
  799SOL    HW2 3195   2.551   3.039   0.178 -1.3236  0.7962  0.8441
  799SOL     MW 3196   2.562   3.025   0.088 -0.5687  0.6137  0.3248
  800SOL     OW 3197   1.950   2.994   1.736  0.3066 -0.0219 -0.2201
  800SOL    HW1 3198   1.864   2.953   1.757  0.3899 -0.4721  1.6534
  800SOL    HW2 3199   1.989   3.034   1.813 -0.6810  0.0105  2.1298
  800SOL     MW 3200   1.944   2.994   1.749  0.1873 -0.0771  0.3371
  801SOL     OW 3201   2.894   1.252   2.595  0.0777 -0.5546  0.4263
  801SOL    HW1 3202   2.896   1.158   2.605  2.3295 -2.5243  0.9210
  801SOL    HW2 3203   2.957   1.262   2.523 -0.9608  0.7226 -0.7573
  801SOL     MW 3204   2.903   1.241   2.586  0.2378 -0.6460  0.3354
  802SOL     OW 3205   2.638   1.416   2.818 -0.0643  0.3949 -0.2182
  802SOL    HW1 3206   2.615   1.324   2.781 -0.3361  2.0827  1.7452
  802SOL    HW2 3207   2.726   1.409   2.861  4.2127 -3.2515 -1.2448
  802SOL     MW 3208   2.646   1.403   2.819  0.4642  0.1365 -0.0946
  803SOL     OW 3209   2.336   1.416   1.993 -0.4131  0.2175  0.2947
  803SOL    HW1 3210   2.305   1.372   2.069 -0.4167  0.0802 -2.4081
  803SOL    HW2 3211   2.328   1.354   1.921 -0.9588  2.2987 -1.3834
  803SOL     MW 3212   2.331   1.402   1.994 -0.4856  0.4740 -0.2833
  804SOL     OW 3213   2.252   0.124   0.045  0.5492  0.2992 -0.0955
  804SOL    HW1 3214   2.193   0.194   0.056 -1.7990 -1.3703 -2.7118
  804SOL    HW2 3215   2.301   0.152  -0.031 -1.5926  1.7384  2.2571
  804SOL     MW 3216   2.250   0.137   0.037 -0.0432  0.2688 -0.1302
  805SOL     OW 3217   2.712   0.814   2.650 -0.1844  0.3443 -0.1470
  805SOL    HW1 3218   2.617   0.813   2.625 -0.4654 -1.4683 -0.8518
  805SOL    HW2 3219   2.737   0.731   2.616 -0.3899  1.1937 -3.7055
  805SOL     MW 3220   2.702   0.803   2.642 -0.2486  0.2172 -0.7095
  806SOL     OW 3221   2.669   0.738   2.193  0.6959 -0.2681  0.0537
  806SOL    HW1 3222   2.740   0.748   2.130  1.0140 -1.3575 -0.8197
  806SOL    HW2 3223   2.650   0.831   2.207 -1.0623 -1.3980  0.1135
  806SOL     MW 3224   2.676   0.752   2.187  0.5059 -0.5609 -0.0536
  807SOL     OW 3225   3.073   1.078   2.027  0.9862  0.8383  0.6374
  807SOL    HW1 3226   3.105   0.990   2.054 -0.8261 -0.1053  1.0038
  807SOL    HW2 3227   2.976   1.068   2.055 -0.9866 -2.5485 -1.1148
  807SOL     MW 3228   3.065   1.065   2.034  0.4868  0.2669  0.4546
  808SOL     OW 3229   2.616   0.062   2.824  0.3722 -0.1684 -0.2502
  808SOL    HW1 3230   2.566   0.005   2.764 -2.3908 -1.0443  2.5322
  808SOL    HW2 3231   2.661   0.120   2.771 -1.3165 -2.2575  1.9632
  808SOL     MW 3232   2.616   0.062   2.809 -0.2152 -0.5596  0.4090
  809SOL     OW 3233   2.687   1.358   2.433 -0.4135 -0.2466 -0.3269
  809SOL    HW1 3234   2.727   1.321   2.515 -0.5124  1.2646 -1.2639
  809SOL    HW2 3235   2.729   1.320   2.356  0.4018  0.5664  0.6920
  809SOL     MW 3236   2.697   1.348   2.434 -0.3190  0.0600 -0.3161
  810SOL     OW 3237   2.242   1.298   2.227  0.1131 -0.1410  0.8499
  810SOL    HW1 3238   2.305   1.274   2.294  1.3345  1.2490 -0.1532
  810SOL    HW2 3239   2.182   1.224   2.222 -1.8075  0.2590 -0.1136
  810SOL     MW 3240   2.242   1.285   2.235  0.0209  0.0952  0.5904
  811SOL     OW 3241   1.629   0.195   2.266  0.0186 -0.6197  0.3986
  811SOL    HW1 3242   1.728   0.190   2.286  2.1256  1.7580 -0.9776
  811SOL    HW2 3243   1.616   0.204   2.165  0.2237 -0.9414 -1.9870
  811SOL     MW 3244   1.640   0.195   2.255  0.3237 -0.3485 -0.0977
  812SOL     OW 3245   1.481   2.800   2.051  0.5371  0.2225 -0.2600
  812SOL    HW1 3246   1.575   2.787   2.051  0.0005  1.5230  0.4729
  812SOL    HW2 3247   1.463   2.797   2.147 -1.0695 -2.5178  0.2191
  812SOL     MW 3248   1.491   2.798   2.064  0.2544  0.0325 -0.1001
  813SOL     OW 3249   2.003   0.632   2.250  0.8588  0.1793  0.0647
  813SOL    HW1 3250   1.937   0.563   2.217 -0.6039 -2.5295 -0.7092
  813SOL    HW2 3251   1.948   0.690   2.303  1.6038 -3.1233 -0.2665
  813SOL     MW 3252   1.987   0.631   2.253  0.7641 -0.6139 -0.0811
  814SOL     OW 3253   2.705   1.290   1.640  0.1255 -0.1660 -0.1851
  814SOL    HW1 3254   2.687   1.277   1.731 -1.1112  2.2462  1.1059
  814SOL    HW2 3255   2.702   1.206   1.596 -3.4946  0.2881 -1.1888
  814SOL     MW 3256   2.702   1.277   1.647 -0.5153  0.2122 -0.1472
  815SOL     OW 3257   2.541   1.762   2.381 -0.0658  0.0056  0.6456
  815SOL    HW1 3258   2.496   1.684   2.333 -1.1354 -1.4454 -2.5664
  815SOL    HW2 3259   2.634   1.737   2.366  0.2823 -1.0212  0.9805
  815SOL     MW 3260   2.547   1.749   2.373 -0.1610 -0.3214  0.2660
  816SOL     OW 3261   0.712   0.688   2.790  0.1809 -0.3367  0.6222
  816SOL    HW1 3262   0.711   0.598   2.815  2.3137  3.7966  0.9836
  816SOL    HW2 3263   0.633   0.705   2.740  4.9788  0.7722  0.9625
  816SOL     MW 3264   0.702   0.679   2.786  1.0954  0.3550  0.7148
  817SOL     OW 3265   2.996   1.268   1.445 -0.0409 -0.0996  0.0021
  817SOL    HW1 3266   3.088   1.235   1.448 -0.0441 -3.5908 -0.1080
  817SOL    HW2 3267   3.008   1.349   1.402 -1.2426 -0.7676 -1.9053
  817SOL     MW 3268   3.010   1.275   1.440 -0.1999 -0.6484 -0.2641
  818SOL     OW 3269   1.937   1.046   2.641  0.6016 -0.3893  0.2849
  818SOL    HW1 3270   1.922   0.996   2.553 -0.7356  2.4116 -1.8106
  818SOL    HW2 3271   2.024   1.038   2.681 -0.4962 -0.3969 -2.4090
  818SOL     MW 3272   1.946   1.039   2.635  0.2803 -0.0208 -0.3470
  819SOL     OW 3273   2.036   0.334   2.430 -0.6983  0.6091  0.4951
  819SOL    HW1 3274   1.974   0.402   2.408 -2.1244 -1.1934 -0.1167
  819SOL    HW2 3275   2.027   0.322   2.521 -1.4411 -1.0123 -1.1975
  819SOL     MW 3276   2.027   0.341   2.439 -0.9844  0.1574  0.1911
  820SOL     OW 3277   2.484   1.680   2.640  0.1834  0.4979  0.8797
  820SOL    HW1 3278   2.551   1.619   2.674 -0.9388 -0.4864  2.2913
  820SOL    HW2 3279   2.510   1.700   2.551 -0.3748 -1.8120  0.6696
  820SOL     MW 3280   2.497   1.674   2.633 -0.0383  0.0633  1.0382
  821SOL     OW 3281   2.620   1.383   2.030  0.0101 -0.0244 -0.9435
  821SOL    HW1 3282   2.644   1.451   1.967 -2.3169  2.4699  0.1027
  821SOL    HW2 3283   2.520   1.399   2.038 -1.5349  0.0792  0.0576
  821SOL     MW 3284   2.610   1.394   2.023 -0.5008  0.3184 -0.6734
  822SOL     OW 3285   2.948   2.713   1.511 -0.0855 -0.2049  0.1940
  822SOL    HW1 3286   2.951   2.702   1.610 -1.7001  0.3606 -2.6710
  822SOL    HW2 3287   2.914   2.800   1.494 -0.6491  0.8252 -0.8024
  822SOL     MW 3288   2.944   2.723   1.522 -0.3729  0.0056 -0.3155
  823SOL     OW 3289   2.379   0.463   1.874 -0.1557  0.0271 -0.2762
  823SOL    HW1 3290   2.462   0.407   1.886  0.4513 -1.3661 -2.4481
  823SOL    HW2 3291   2.334   0.479   1.956 -1.1016 -0.1855  0.8644
  823SOL     MW 3292   2.384   0.458   1.886 -0.2004 -0.1847 -0.4123
  824SOL     OW 3293   2.266   1.523   2.521  0.3560 -0.4833  0.5896
  824SOL    HW1 3294   2.335   1.572   2.567  0.0465 -2.1465  1.4603
  824SOL    HW2 3295   2.188   1.573   2.517  1.2876 -3.1931  2.6963
  824SOL     MW 3296   2.265   1.536   2.527  0.4381 -1.0603  0.9825
  825SOL     OW 3297   1.904   2.627   0.229 -0.0065 -0.4810 -0.0625
  825SOL    HW1 3298   1.837   2.577   0.263 -1.6309  4.0792  1.6040
  825SOL    HW2 3299   1.966   2.569   0.191 -1.5592  2.8451 -1.3263
  825SOL     MW 3300   1.903   2.613   0.228 -0.4257  0.5595 -0.0093
  826SOL     OW 3301   1.844   2.325   0.419 -0.5329 -0.7016  1.1083
  826SOL    HW1 3302   1.812   2.281   0.497 -1.5345  1.4149  0.2645
  826SOL    HW2 3303   1.890   2.393   0.463  2.7413 -0.2207  1.7565
  826SOL     MW 3304   1.846   2.329   0.435 -0.2330 -0.3589  1.0825
  827SOL     OW 3305   1.975   2.183   0.743  0.0992 -0.2047 -0.7162
  827SOL    HW1 3306   1.878   2.192   0.726 -1.7562  2.0898  1.3417
  827SOL    HW2 3307   1.975   2.136   0.831  0.5533  2.1435 -0.4840
  827SOL     MW 3308   1.962   2.178   0.752 -0.0857  0.4079 -0.4140
  828SOL     OW 3309   0.043   2.630   0.611 -0.1319 -0.5288 -0.1406
  828SOL    HW1 3310   0.137   2.639   0.617 -0.4200 -0.3525  1.3800
  828SOL    HW2 3311   0.011   2.694   0.543  0.1034 -2.0198 -1.9737
  828SOL     MW 3312   0.051   2.640   0.603 -0.1389 -0.7023 -0.1818
  829SOL     OW 3313   2.975   2.979   1.184  0.6019  0.1614 -0.2657
  829SOL    HW1 3314   2.911   2.994   1.122  3.0154 -1.1206 -0.3097
  829SOL    HW2 3315   3.010   2.890   1.177 -1.1537 -3.9744  0.6873
  829SOL     MW 3316   2.972   2.969   1.175  0.6887 -0.5534 -0.1458
  830SOL     OW 3317   2.536   2.835   2.002 -0.0277 -0.0826  0.3357
  830SOL    HW1 3318   2.446   2.823   1.973 -0.8721  2.3296  2.0940
  830SOL    HW2 3319   2.596   2.802   1.931 -0.9726 -0.3377 -2.4169
  830SOL     MW 3320   2.532   2.829   1.989 -0.2638  0.2020  0.2045
  831SOL     OW 3321   2.418   2.409   1.226 -0.1809 -0.1949  0.3514
  831SOL    HW1 3322   2.373   2.362   1.294 -2.0554 -0.6393  0.2504
  831SOL    HW2 3323   2.511   2.389   1.233 -1.2526  2.7601 -0.1475
  831SOL     MW 3324   2.424   2.400   1.236 -0.5696  0.1364  0.2722
  832SOL     OW 3325   2.298   2.183   1.831  0.4379 -0.1270 -0.3541
  832SOL    HW1 3326   2.348   2.270   1.854 -1.0843  1.0473  1.2263
  832SOL    HW2 3327   2.375   2.129   1.804 -0.1241 -1.5531 -3.0602
  832SOL     MW 3328   2.315   2.187   1.830  0.1629 -0.1602 -0.5027
  833SOL     OW 3329   1.720   2.510   0.890  0.0119 -0.2036  0.3895
  833SOL    HW1 3330   1.630   2.523   0.873  1.2590  4.3436  0.2494
  833SOL    HW2 3331   1.737   2.569   0.966  0.2255 -2.6405 -3.3460
  833SOL     MW 3332   1.711   2.520   0.898  0.2046  0.0748 -0.1219
  834SOL     OW 3333   2.125   2.444   0.555 -0.3600 -0.0303  0.3205
  834SOL    HW1 3334   2.127   2.372   0.617 -0.3719  1.4982 -0.0947
  834SOL    HW2 3335   2.167   2.412   0.473 -1.7675 -0.5678 -2.4628
  834SOL     MW 3336   2.131   2.430   0.553 -0.5473  0.1005 -0.1015
  835SOL     OW 3337   1.826   2.578   0.625 -0.3893  0.1611 -0.4392
  835SOL    HW1 3338   1.779   2.554   0.698  0.0865  1.9817 -2.2052
  835SOL    HW2 3339   1.900   2.627   0.669 -2.2878  1.6592 -1.1076
  835SOL     MW 3340   1.830   2.581   0.640 -0.5770  0.5989 -0.7604
  836SOL     OW 3341   1.897   2.242   1.556 -0.3813  0.2951  0.3733
  836SOL    HW1 3342   1.984   2.217   1.583  0.5804 -0.3314  1.3669
  836SOL    HW2 3343   1.866   2.305   1.619  0.4125 -1.4418 -0.2426
  836SOL     MW 3344   1.904   2.247   1.568 -0.1496 -0.0167  0.4232
  837SOL     OW 3345   2.166   0.235   0.730  0.3392 -0.1971 -0.0594
  837SOL    HW1 3346   2.073   0.238   0.701 -1.0580  0.3798 -2.8979
  837SOL    HW2 3347   2.224   0.180   0.671  0.6805 -0.3931  1.0998
  837SOL     MW 3348   2.162   0.228   0.718  0.1999 -0.1469 -0.2810
  838SOL     OW 3349   2.938   2.077   0.945 -0.2958 -0.0221  0.2098
  838SOL    HW1 3350   2.883   2.000   0.933  1.5688  1.7738 -0.7273
  838SOL    HW2 3351   3.027   2.043   0.930 -2.1624 -1.9649  0.6880
  838SOL     MW 3352   2.942   2.062   0.941 -0.2961 -0.0415  0.1492
  839SOL     OW 3353   1.518   2.358   1.048 -0.0787  0.3762 -0.2447
  839SOL    HW1 3354   1.532   2.405   1.129  2.9780  1.4375 -1.7513
  839SOL    HW2 3355   1.536   2.262   1.060 -0.3618  1.2251  0.9074
  839SOL     MW 3356   1.522   2.351   1.060  0.2872  0.6282 -0.2915
  840SOL     OW 3357   2.390   2.248   2.419 -0.0478  0.1766 -0.5105
  840SOL    HW1 3358   2.349   2.314   2.371 -1.2697 -1.2393  2.5106
  840SOL    HW2 3359   2.350   2.265   2.507 -2.4029  1.4503  1.3292
  840SOL     MW 3360   2.379   2.259   2.425 -0.5197  0.1578  0.1308
  841SOL     OW 3361   2.080   2.490   0.094 -0.3879 -0.6925 -0.4741
  841SOL    HW1 3362   2.143   2.542   0.040 -1.1336  0.1805  0.6213
  841SOL    HW2 3363   2.088   2.406   0.045 -0.9189  0.6018 -0.7776
  841SOL     MW 3364   2.089   2.486   0.080 -0.5564 -0.4066 -0.3696
  842SOL     OW 3365   2.664   2.089   1.548 -0.4232 -0.5369 -0.2774
  842SOL    HW1 3366   2.627   2.076   1.638 -1.2900  0.2303 -1.3807
  842SOL    HW2 3367   2.590   2.066   1.497  2.1073  0.0986 -0.9744
  842SOL     MW 3368   2.649   2.084   1.553 -0.2037 -0.3518 -0.5149
  843SOL     OW 3369   2.667   2.761   1.770  0.4273 -0.0206  0.0103
  843SOL    HW1 3370   2.754   2.728   1.771 -0.1775  0.1002 -0.7577
  843SOL    HW2 3371   2.625   2.723   1.687 -0.7851  2.4952  2.2199
  843SOL     MW 3372   2.673   2.751   1.759  0.1875  0.3272  0.2005
  844SOL     OW 3373   2.711   2.329   1.232 -0.2130  0.0921 -0.3310
  844SOL    HW1 3374   2.712   2.330   1.135  4.1971  2.2906 -1.5980
  844SOL    HW2 3375   2.730   2.424   1.267 -0.2939  2.3783  1.3709
  844SOL     MW 3376   2.714   2.342   1.224  0.3582  0.6838 -0.2736
  845SOL     OW 3377   2.862   2.470   0.347 -0.1726  0.0342  0.0718
  845SOL    HW1 3378   2.819   2.379   0.350 -0.0249 -0.5199 -0.8115
  845SOL    HW2 3379   2.858   2.507   0.434 -2.4144  1.3936 -1.5211
  845SOL     MW 3380   2.855   2.463   0.359 -0.4489  0.1405 -0.2549
  846SOL     OW 3381   1.526   2.881   0.752  0.3338  0.1828 -0.3471
  846SOL    HW1 3382   1.550   2.921   0.839  0.8076 -1.4547  2.2119
  846SOL    HW2 3383   1.432   2.889   0.757  2.1169  0.3250 -0.6448
  846SOL     MW 3384   1.516   2.887   0.764  0.6316 -0.0145 -0.0488
  847SOL     OW 3385   2.625   1.995   0.183 -0.1472  0.3066  0.4463
  847SOL    HW1 3386   2.689   1.949   0.239  1.4967  0.1490  0.4473
  847SOL    HW2 3387   2.606   1.937   0.115 -0.7259  0.1057 -1.4054
  847SOL     MW 3388   2.631   1.981   0.182 -0.0066  0.2593  0.2021
  848SOL     OW 3389   2.524   2.097   1.289  0.3393  0.6527  0.3818
  848SOL    HW1 3390   2.605   2.147   1.269  0.3627  2.7076 -0.8049
  848SOL    HW2 3391   2.540   2.006   1.255  0.3469  1.6269  1.2263
  848SOL     MW 3392   2.537   2.091   1.282  0.3434  1.0524  0.3366
  849SOL     OW 3393   2.028   2.676   0.775 -0.2046 -0.0917  0.4009
  849SOL    HW1 3394   2.050   2.591   0.812 -2.8969  3.6213  0.5333
  849SOL    HW2 3395   2.105   2.697   0.719 -1.4716 -0.0061 -0.1258
  849SOL     MW 3396   2.041   2.668   0.773 -0.7270  0.4095  0.3489
  850SOL     OW 3397   2.210   1.911   1.716 -0.2271  0.2317 -0.0718
  850SOL    HW1 3398   2.136   1.855   1.689 -1.0672  1.6195  0.5154
  850SOL    HW2 3399   2.186   1.994   1.676 -2.2516 -0.1952 -2.0991
  850SOL     MW 3400   2.197   1.915   1.707 -0.6051  0.3585 -0.2618
  851SOL     OW 3401   2.278   2.384   0.319 -0.5145 -0.1217  0.1078
  851SOL    HW1 3402   2.227   2.399   0.242  0.1958 -0.2990 -1.1147
  851SOL    HW2 3403   2.337   2.464   0.322 -1.5762 -0.6833  3.7717
  851SOL     MW 3404   2.279   2.396   0.309 -0.5609 -0.2192  0.4299
  852SOL     OW 3405   2.353   2.101   0.288  0.1165 -0.0354  0.1826
  852SOL    HW1 3406   2.343   2.199   0.302  0.9877 -0.8407 -0.1610
  852SOL    HW2 3407   2.422   2.095   0.222  0.1489 -0.9307  0.2235
  852SOL     MW 3408   2.361   2.113   0.281  0.2357 -0.2598  0.1427
  853SOL     OW 3409   2.434   2.429   1.880  0.4995 -0.2890  0.7409
  853SOL    HW1 3410   2.461   2.462   1.792 -2.6801  0.7729 -1.4483
  853SOL    HW2 3411   2.512   2.420   1.932 -1.6348 -0.1962  0.4431
  853SOL     MW 3412   2.448   2.432   1.875 -0.2016 -0.1367  0.4127
  854SOL     OW 3413   2.828   2.242   0.741  0.4526 -0.2281 -0.2120
  854SOL    HW1 3414   2.784   2.186   0.676  0.3345 -0.5615 -0.7860
  854SOL    HW2 3415   2.863   2.179   0.809  4.3044 -0.9556 -2.1733
  854SOL     MW 3416   2.827   2.226   0.741  0.9453 -0.3681 -0.5465
  855SOL     OW 3417   2.718   2.248   0.361 -0.1550  0.2429 -0.1977
  855SOL    HW1 3418   2.660   2.259   0.436  0.0826 -1.4942 -4.0500
  855SOL    HW2 3419   2.784   2.181   0.387  0.8505  0.1439  0.1674
  855SOL     MW 3420   2.719   2.241   0.374  0.0090  0.0007 -0.6578
  856SOL     OW 3421   2.198   1.879   0.188  0.3124  0.1901 -0.5691
  856SOL    HW1 3422   2.100   1.892   0.203  1.3306  2.3111  0.5379
  856SOL    HW2 3423   2.234   1.964   0.213  1.4181  0.6025  0.6544
  856SOL     MW 3424   2.190   1.892   0.193  0.5926  0.5244 -0.2616
  857SOL     OW 3425   2.464   1.897   0.440  0.2342 -0.0774  0.1596
  857SOL    HW1 3426   2.432   1.982   0.400  0.3001  2.2713 -2.3301
  857SOL    HW2 3427   2.395   1.835   0.420 -0.1108  2.0872  1.3885
  857SOL     MW 3428   2.451   1.900   0.432  0.1973  0.5181 -0.0067
  858SOL     OW 3429   2.932   2.681   1.782 -0.2115 -0.1597 -0.4462
  858SOL    HW1 3430   3.023   2.695   1.823 -0.2185 -2.5864 -0.6426
  858SOL    HW2 3431   2.911   2.595   1.813 -0.1101  0.1369  0.9198
  858SOL     MW 3432   2.941   2.672   1.791 -0.1990 -0.4408 -0.2919
  859SOL     OW 3433   2.069   2.414   0.888  0.4833  0.0912  0.2062
  859SOL    HW1 3434   2.029   2.338   0.846  1.9573 -1.8691  1.8224
  859SOL    HW2 3435   2.158   2.392   0.911 -2.6617  0.1243  0.1518
  859SOL     MW 3436   2.075   2.401   0.885  0.2628 -0.1631  0.4123
  860SOL     OW 3437   2.671   2.578   0.170  0.2072  0.3803  0.3060
  860SOL    HW1 3438   2.736   2.539   0.221 -0.4126  0.7174  0.2214
  860SOL    HW2 3439   2.712   2.663   0.141 -1.8656  0.7103  0.1072
  860SOL     MW 3440   2.685   2.584   0.173 -0.1481  0.4683  0.2686
  861SOL     OW 3441   1.635   2.087   1.181  0.0130 -0.4191 -0.3449
  861SOL    HW1 3442   1.691   2.075   1.262 -1.3236  0.0475  1.2729
  861SOL    HW2 3443   1.557   2.033   1.208  0.0266  0.1504  1.5360
  861SOL     MW 3444   1.632   2.078   1.195 -0.1615 -0.2824  0.1167
  862SOL     OW 3445   2.446   1.852   1.567 -0.1761 -0.2203  0.5682
  862SOL    HW1 3446   2.364   1.884   1.612  1.2697  0.3825  0.5003
  862SOL    HW2 3447   2.425   1.834   1.473  1.0190  0.9413 -1.3354
  862SOL     MW 3448   2.432   1.854   1.560  0.1724  0.0125  0.3081
  863SOL     OW 3449   3.006   1.811   1.242  0.0156 -0.4535 -0.2330
  863SOL    HW1 3450   3.056   1.775   1.315  0.8852 -3.8004 -1.7989
  863SOL    HW2 3451   3.023   1.901   1.257  0.4608 -2.9709  0.9915
  863SOL     MW 3452   3.015   1.818   1.254  0.1891 -1.2272 -0.2781
  864SOL     OW 3453   0.060   1.874   0.922  0.5223  0.2390 -0.2148
  864SOL    HW1 3454  -0.011   1.831   0.970 -0.2206 -1.8585  1.7505
  864SOL    HW2 3455   0.067   1.810   0.855  2.5419  0.0428  0.9962
  864SOL     MW 3456   0.052   1.860   0.919  0.6908 -0.0636  0.2043
  865SOL     OW 3457   2.471   2.176   0.045  0.0151  0.1993 -0.1758
  865SOL    HW1 3458   2.541   2.132   0.089  1.4856  0.7253  0.4334
  865SOL    HW2 3459   2.454   2.132  -0.036 -1.0276  1.4479  2.7382
  865SOL     MW 3460   2.478   2.165   0.040  0.0715  0.4335  0.2890
  866SOL     OW 3461   2.725   2.355   1.550  0.3310 -0.1257  0.7370
  866SOL    HW1 3462   2.686   2.266   1.552  1.9056 -0.4578  1.2174
  866SOL    HW2 3463   2.751   2.368   1.462  0.7064 -0.6501  3.1205
  866SOL     MW 3464   2.724   2.345   1.538  0.5882 -0.2387  1.1148
  867SOL     OW 3465   0.100   2.706   1.853 -0.3126  0.4042 -0.0783
  867SOL    HW1 3466   0.153   2.716   1.930  0.9566  0.8177 -0.5269
  867SOL    HW2 3467   0.120   2.787   1.814  2.9134 -1.6215  0.9924
  867SOL     MW 3468   0.110   2.718   1.858  0.2805  0.1915  0.0038
  868SOL     OW 3469   2.771   2.567   0.593  0.5447 -0.1201 -0.4622
  868SOL    HW1 3470   2.715   2.491   0.587 -0.0297  1.0144 -1.9567
  868SOL    HW2 3471   2.733   2.632   0.539  0.4548 -1.3868  0.5264
  868SOL     MW 3472   2.758   2.565   0.585  0.4571 -0.1375 -0.5289
  869SOL     OW 3473   1.897   2.318   1.100  0.0424  0.3954  0.0950
  869SOL    HW1 3474   1.949   2.384   1.061 -0.8192  0.8920  2.8848
  869SOL    HW2 3475   1.818   2.297   1.043  0.2028  0.3751 -0.6143
  869SOL     MW 3476   1.894   2.324   1.087 -0.0501  0.4582  0.3695
  870SOL     OW 3477   2.324   0.118   0.535 -0.0255 -0.1995  0.1035
  870SOL    HW1 3478   2.347   0.147   0.446 -0.5099  2.0156 -0.5218
  870SOL    HW2 3479   2.389   0.062   0.571 -0.9467 -1.1835  1.1333
  870SOL     MW 3480   2.336   0.115   0.528 -0.2109 -0.0371  0.1568
  871SOL     OW 3481   2.457   2.156   0.791  0.2119 -0.3568  0.3609
  871SOL    HW1 3482   2.394   2.087   0.756 -1.1021 -2.2692 -3.0030
  871SOL    HW2 3483   2.410   2.216   0.846  0.7387 -1.0249  1.4255
  871SOL     MW 3484   2.442   2.155   0.794  0.1080 -0.6973  0.0575
  872SOL     OW 3485   2.035   2.594   1.457  0.0154  0.4242 -0.0686
  872SOL    HW1 3486   2.005   2.667   1.513 -1.7580  1.0613 -1.7155
  872SOL    HW2 3487   1.963   2.532   1.436  0.7224 -1.6156 -1.9002
  872SOL     MW 3488   2.022   2.595   1.462 -0.1253  0.2391 -0.5275
  873SOL     OW 3489   2.833   2.038   1.894  0.4352  0.5241 -0.2044
  873SOL    HW1 3490   2.875   2.105   1.961 -3.5437  0.4536  1.6476
  873SOL    HW2 3491   2.886   2.047   1.814  0.1308  2.3586  0.5775
  873SOL     MW 3492   2.846   2.048   1.893 -0.1299  0.7568  0.1431
  874SOL     OW 3493   2.443   1.538   2.270  0.0686 -0.5946  0.2526
  874SOL    HW1 3494   2.366   1.504   2.307  0.5702 -1.2820 -1.9094
  874SOL    HW2 3495   2.503   1.476   2.301  1.7584  0.8433 -0.5023
  874SOL     MW 3496   2.441   1.526   2.279  0.3577 -0.4956 -0.1323
  875SOL     OW 3497   2.340   2.392   0.943 -0.1093 -0.0060 -0.5564
  875SOL    HW1 3498   2.417   2.427   0.886  1.0877  0.9069 -0.8705
  875SOL    HW2 3499   2.365   2.397   1.036  1.1818 -0.1413  0.4679
  875SOL     MW 3500   2.354   2.397   0.948  0.2190  0.0966 -0.4627
  876SOL     OW 3501   3.055   2.314   1.319  0.1531 -0.2464  0.0762
  876SOL    HW1 3502   3.100   2.356   1.241  0.1305  1.8476 -2.5347
  876SOL    HW2 3503   3.102   2.356   1.394 -0.2881  0.6915  0.5628
  876SOL     MW 3504   3.067   2.325   1.318  0.0919  0.1536 -0.2041
  877SOL     OW 3505   3.085   2.786   0.402 -0.0689 -0.1075 -0.8609
  877SOL    HW1 3506   3.039   2.861   0.364 -2.3214 -0.5577 -2.5356
  877SOL    HW2 3507   3.130   2.740   0.330 -0.5101  0.1694 -1.1435
  877SOL     MW 3508   3.085   2.790   0.388 -0.4243 -0.1304 -1.1191
  878SOL     OW 3509   2.404   1.825   1.255 -0.5254  0.2195  0.5037
  878SOL    HW1 3510   2.331   1.758   1.276 -0.1010 -5.0027  0.0929
  878SOL    HW2 3511   2.484   1.782   1.229 -1.6896 -0.0907  2.3029
  878SOL     MW 3512   2.405   1.810   1.254 -0.6230 -0.5104  0.6869
  879SOL     OW 3513   2.693   2.401   0.962  0.2436 -0.2474  0.0706
  879SOL    HW1 3514   2.753   2.477   0.976 -0.0044 -2.0964  0.0956
  879SOL    HW2 3515   2.736   2.340   0.901 -2.3192  0.5321 -2.1096
  879SOL     MW 3516   2.707   2.403   0.956 -0.1273 -0.3885 -0.2137
  880SOL     OW 3517   2.687   2.010   0.624 -0.9192 -0.2693  0.5135
  880SOL    HW1 3518   2.647   2.037   0.705  0.2595  0.0551 -0.7812
  880SOL    HW2 3519   2.616   1.958   0.579 -1.3318 -2.6700  2.4964
  880SOL     MW 3520   2.673   2.007   0.629 -0.8181 -0.5432  0.6043
  881SOL     OW 3521   2.926   2.736   0.744  0.0363 -0.7474 -0.3793
  881SOL    HW1 3522   2.852   2.675   0.708 -2.3673 -1.5822 -1.8190
  881SOL    HW2 3523   3.006   2.696   0.702  0.0403  0.6503  0.1489
  881SOL     MW 3524   2.927   2.722   0.734 -0.2803 -0.6731 -0.4996
  882SOL     OW 3525   2.280   2.831   1.874  0.0251 -0.1635 -0.4398
  882SOL    HW1 3526   2.252   2.802   1.788  0.7598 -2.8440  0.1040
  882SOL    HW2 3527   2.232   2.773   1.930 -0.6398  0.5944  0.0957
  882SOL     MW 3528   2.270   2.819   1.870  0.0343 -0.4172 -0.2974
  883SOL     OW 3529   2.272   2.210   1.372  0.7870  0.4390 -0.0360
  883SOL    HW1 3530   2.344   2.155   1.335 -1.5328 -1.2134  0.6935
  883SOL    HW2 3531   2.198   2.194   1.318 -1.2100 -2.1946  0.6475
  883SOL     MW 3532   2.272   2.201   1.360  0.2175 -0.1265  0.1504
  884SOL     OW 3533   1.965   1.792   1.094 -0.8493  0.4777 -0.2285
  884SOL    HW1 3534   1.898   1.839   1.045  2.3802 -1.2781  0.3542
  884SOL    HW2 3535   2.050   1.836   1.075 -1.4852  2.0414 -0.4622
  884SOL     MW 3536   1.968   1.804   1.085 -0.5071  0.4523 -0.1825
  885SOL     OW 3537   2.847   2.404   1.793 -0.0394 -0.3936  0.5413
  885SOL    HW1 3538   2.927   2.350   1.802 -3.6028 -0.0439  0.1096
  885SOL    HW2 3539   2.823   2.391   1.702  0.7758  1.2212  2.5686
  885SOL     MW 3540   2.854   2.395   1.782 -0.4020 -0.1344  0.7518
  886SOL     OW 3541   2.849   2.548   1.339  0.1563  0.3345 -0.0534
  886SOL    HW1 3542   2.915   2.480   1.328 -1.4532 -1.2745  1.3365
  886SOL    HW2 3543   2.890   2.606   1.403 -2.1989  0.2291 -0.3398
  886SOL     MW 3544   2.863   2.547   1.346 -0.3668  0.1083  0.0922
  887SOL     OW 3545   2.304   2.620   1.452 -0.8564  0.0423 -0.3033
  887SOL    HW1 3546   2.318   2.652   1.364  0.3535  0.0572  1.6707
  887SOL    HW2 3547   2.213   2.589   1.443 -0.5429 -1.3302  0.9453
  887SOL     MW 3548   2.294   2.620   1.440 -0.6554 -0.1368  0.1219
  888SOL     OW 3549   1.834   2.043   1.358  0.0735  0.1956 -1.0208
  888SOL    HW1 3550   1.909   2.061   1.301 -0.0958 -1.1699  1.8673
  888SOL    HW2 3551   1.861   2.092   1.440  0.4791  0.4535  0.5815
  888SOL     MW 3552   1.847   2.052   1.361  0.1046  0.0494 -0.4284
  889SOL     OW 3553   2.278   2.083   2.099  0.2243  0.0187 -0.0565
  889SOL    HW1 3554   2.365   2.086   2.143  0.6226  0.0554 -1.1906
  889SOL    HW2 3555   2.282   2.111   2.007  0.6836 -1.6129 -0.3804
  889SOL     MW 3556   2.290   2.087   2.093  0.3374 -0.1917 -0.2489
  890SOL     OW 3557   0.100   2.310   0.075 -0.1064  0.1341 -0.2531
  890SOL    HW1 3558   0.088   2.395   0.029 -1.1331  0.7586  1.5638
  890SOL    HW2 3559   0.090   2.330   0.166  1.1094 -0.0646  0.0340
  890SOL     MW 3560   0.097   2.324   0.081 -0.0814  0.1903  0.0245
  891SOL     OW 3561   3.042   2.048   1.353 -0.4763  0.6170  0.0553
  891SOL    HW1 3562   3.136   2.025   1.362 -0.1515  0.8417 -1.5099
  891SOL    HW2 3563   3.049   2.150   1.339 -0.0037 -0.4501 -0.8816
  891SOL     MW 3564   3.055   2.059   1.353 -0.3711  0.5059 -0.2748
  892SOL     OW 3565   2.343   2.364   2.932  0.0779  0.1216  0.3968
  892SOL    HW1 3566   2.337   2.309   3.008 -1.3161 -2.1830 -0.6561
  892SOL    HW2 3567   2.430   2.354   2.896  0.4516  1.7048  1.7189
  892SOL     MW 3568   2.353   2.355   2.937 -0.0567  0.0264  0.4323
  893SOL     OW 3569   1.601   2.503   1.262  0.7298  0.0174 -0.5885
  893SOL    HW1 3570   1.533   2.516   1.328 -2.7640  1.7074  1.6249
  893SOL    HW2 3571   1.679   2.465   1.310  2.0449 -2.0836  1.2748
  893SOL     MW 3572   1.603   2.500   1.277  0.4424 -0.0368 -0.0506
  894SOL     OW 3573   2.898   1.837   0.548  0.3705  0.1946 -0.4869
  894SOL    HW1 3574   2.813   1.880   0.577 -4.5112  3.6682  0.1507
  894SOL    HW2 3575   2.876   1.825   0.455  2.4141  1.6998  2.7622
  894SOL     MW 3576   2.884   1.841   0.539 -0.0040  0.8515  0.0259
  895SOL     OW 3577   2.060   2.127   1.222 -0.9130 -0.1480 -0.2487
  895SOL    HW1 3578   2.015   2.195   1.170 -1.9274 -1.8564  1.1804
  895SOL    HW2 3579   2.106   2.064   1.164  1.0044  0.0093  0.8969
  895SOL     MW 3580   2.060   2.128   1.207 -0.7939 -0.3526  0.0910
  896SOL     OW 3581   2.199   2.802   1.013  0.0244 -0.0429  0.1819
  896SOL    HW1 3582   2.239   2.760   1.090  2.2748  2.5423 -0.3352
  896SOL    HW2 3583   2.145   2.742   0.971 -0.7964 -0.9430  0.1500
  896SOL     MW 3584   2.197   2.789   1.018  0.2130  0.1794  0.1094
  897SOL     OW 3585   2.990   2.949   0.191  0.0601  0.3355 -0.3283
  897SOL    HW1 3586   3.072   2.925   0.149  0.6674  2.0289  1.4462
  897SOL    HW2 3587   2.921   2.894   0.141 -2.4563  0.0998 -0.0221
  897SOL     MW 3588   2.992   2.939   0.179 -0.1918  0.5278 -0.0538
  898SOL     OW 3589   2.091   0.144   1.399 -0.1290  0.3816 -0.0398
  898SOL    HW1 3590   2.062   0.066   1.354  1.5658 -0.5501 -0.0133
  898SOL    HW2 3591   2.124   0.207   1.331  0.0199  2.2353 -1.1364
  898SOL     MW 3592   2.091   0.142   1.384  0.1142  0.5033 -0.1810
  899SOL     OW 3593   2.866   2.951   0.584  0.4044 -0.0828  0.2549
  899SOL    HW1 3594   2.892   2.892   0.659  3.3457  1.4717 -0.4763
  899SOL    HW2 3595   2.787   2.999   0.611  0.0553 -0.1184 -0.2026
  899SOL     MW 3596   2.859   2.949   0.598  0.7464  0.1176  0.0980
  900SOL     OW 3597   0.120   2.417   1.140 -0.0492 -0.8586  0.1799
  900SOL    HW1 3598   0.103   2.511   1.142  1.4410 -0.2740  0.4069
  900SOL    HW2 3599   0.100   2.382   1.051 -0.3510 -2.2197  1.4649
  900SOL     MW 3600   0.115   2.425   1.129  0.1076 -0.9610  0.3794
  901SOL     OW 3601   1.734   2.829   1.786  0.1054  0.1164  0.4057
  901SOL    HW1 3602   1.798   2.758   1.752 -1.5888 -2.3303  0.0205
  901SOL    HW2 3603   1.683   2.838   1.701 -1.8358  0.6977 -1.9383
  901SOL     MW 3604   1.736   2.821   1.770 -0.3742 -0.1297  0.0456
  902SOL     OW 3605   2.575   2.090   1.817  0.0408 -0.2846  0.1956
  902SOL    HW1 3606   2.569   1.999   1.861 -0.5213 -1.8309 -1.2039
  902SOL    HW2 3607   2.667   2.102   1.850  0.0424  0.3977 -0.8309
  902SOL     MW 3608   2.587   2.080   1.827 -0.0332 -0.3986 -0.1245
  903SOL     OW 3609   1.666   2.784   0.523 -0.1262 -0.2871  0.3991
  903SOL    HW1 3610   1.738   2.727   0.550 -2.8091  3.4735 -1.3255
  903SOL    HW2 3611   1.626   2.820   0.603 -1.4339 -0.0848  0.0013
  903SOL     MW 3612   1.670   2.782   0.537 -0.6527  0.2358  0.1191
  904SOL     OW 3613   2.514   2.538   1.635 -0.2337 -0.2672  0.2443
  904SOL    HW1 3614   2.453   2.572   1.569  0.6534 -0.8691 -3.7084
  904SOL    HW2 3615   2.561   2.471   1.584  0.4017 -0.0005 -1.6408
  904SOL     MW 3616   2.512   2.534   1.620 -0.0328 -0.3115 -0.5259
  905SOL     OW 3617   2.386   2.563   2.118 -0.5274  0.4009  0.0382
  905SOL    HW1 3618   2.406   2.524   2.033 -0.8782 -1.3215  1.1246
  905SOL    HW2 3619   2.355   2.501   2.189  0.8351  0.4767  1.2415
  905SOL     MW 3620   2.384   2.550   2.116 -0.3939  0.1836  0.3403
  906SOL     OW 3621   2.523   2.512   0.784  0.1167 -0.0888  0.0848
  906SOL    HW1 3622   2.602   2.484   0.830 -1.3419 -0.0469  0.1903
  906SOL    HW2 3623   2.502   2.603   0.818 -1.3961  0.8896  4.2984
  906SOL     MW 3624   2.531   2.521   0.794 -0.2753  0.0458  0.6546
  907SOL     OW 3625   2.561   2.881   1.269  0.2014 -0.3956  0.3068
  907SOL    HW1 3626   2.637   2.887   1.329  0.3158 -1.0759  2.0790
  907SOL    HW2 3627   2.601   2.876   1.185 -0.6675 -1.0317  1.2532
  907SOL     MW 3628   2.576   2.881   1.266  0.1019 -0.5693  0.6655
  908SOL     OW 3629   2.672   2.356   0.008  0.2884  0.0601  0.1944
  908SOL    HW1 3630   2.606   2.289   0.027 -1.2170 -2.3519  1.3065
  908SOL    HW2 3631   2.656   2.425   0.076 -3.0804  1.6596  3.7473
  908SOL     MW 3632   2.661   2.356   0.020 -0.3547 -0.0471  0.8099
  909SOL     OW 3633   1.730   0.187   1.034 -0.4145  0.5872 -0.1103
  909SOL    HW1 3634   1.717   0.276   0.995 -1.7978  2.0199  0.0329
  909SOL    HW2 3635   1.761   0.198   1.123 -0.0876  1.5064  0.1159
  909SOL     MW 3636   1.732   0.200   1.041 -0.5539  0.8975 -0.0616
  910SOL     OW 3637   2.284   1.692   0.412 -0.1289  0.1852 -0.1867
  910SOL    HW1 3638   2.225   1.628   0.458 -1.6635 -0.9614  0.9413
  910SOL    HW2 3639   2.232   1.735   0.343 -1.3124  1.6624  0.6181
  910SOL     MW 3640   2.269   1.689   0.409 -0.4875  0.2288  0.0683
  911SOL     OW 3641   2.152   2.172   1.608  0.0727  0.4690 -0.3438
  911SOL    HW1 3642   2.202   2.193   1.687  1.7246  2.3365 -1.9033
  911SOL    HW2 3643   2.202   2.192   1.531 -0.2292  1.8411  0.9181
  911SOL     MW 3644   2.165   2.177   1.608  0.2508  0.8964 -0.3831
  912SOL     OW 3645   2.867   1.914   1.497  0.5084 -0.2757 -0.4185
  912SOL    HW1 3646   2.916   1.970   1.433 -0.6850  0.2623 -1.0182
  912SOL    HW2 3647   2.785   1.969   1.515 -0.1780 -0.0363 -2.9831
  912SOL     MW 3648   2.863   1.929   1.491  0.2604 -0.1732 -0.8360
  913SOL     OW 3649   2.548   2.940   0.353 -0.0028 -0.1074  0.6326
  913SOL    HW1 3650   2.606   2.867   0.371 -0.1258  1.7687 -0.1444
  913SOL    HW2 3651   2.457   2.909   0.359  0.3860  0.8378 -0.7958
  913SOL     MW 3652   2.544   2.926   0.356  0.0323  0.2648  0.3416
  914SOL     OW 3653   2.787   1.629   0.033 -0.4068 -0.1309  0.2295
  914SOL    HW1 3654   2.786   1.691  -0.037  0.7608 -2.2718  2.0328
  914SOL    HW2 3655   2.693   1.603   0.046 -3.7145 -2.2043 -0.9445
  914SOL     MW 3656   2.774   1.634   0.026 -0.6892 -0.6869  0.3125
  915SOL     OW 3657   1.877   0.173   0.215 -0.7164 -0.0925 -0.0125
  915SOL    HW1 3658   1.933   0.116   0.265 -1.4474 -0.2640 -1.0559
  915SOL    HW2 3659   1.787   0.135   0.221 -0.0603 -1.0899 -0.1310
  915SOL     MW 3660   1.873   0.160   0.222 -0.7263 -0.2467 -0.1658
  916SOL     OW 3661   1.842   2.110   1.957 -0.5561  0.5047 -0.1792
  916SOL    HW1 3662   1.831   2.208   1.947 -0.2232  3.1877 -3.6226
  916SOL    HW2 3663   1.812   2.070   1.876  0.6591  0.8960 -0.7220
  916SOL     MW 3664   1.837   2.118   1.945 -0.3518  0.9103 -0.7052
  917SOL     OW 3665   2.237   2.335   2.671  0.5896 -0.0289  0.4615
  917SOL    HW1 3666   2.251   2.345   2.769  3.5160 -0.5055  1.2985
  917SOL    HW2 3667   2.247   2.429   2.643 -0.5074  0.0650 -1.1455
  917SOL     MW 3668   2.240   2.349   2.680  0.8310 -0.0794  0.3599
  918SOL     OW 3669   1.983   1.656   2.606  0.6139 -0.0886  0.2053
  918SOL    HW1 3670   1.916   1.690   2.542 -1.0327  0.4159 -0.5164
  918SOL    HW2 3671   2.055   1.715   2.586 -0.0217 -1.6226  1.0145
  918SOL     MW 3672   1.984   1.668   2.595  0.3128 -0.2245  0.2169
  919SOL     OW 3673   3.016   2.380   2.278  0.2523  0.3072 -0.2138
  919SOL    HW1 3674   2.968   2.312   2.227  3.1591  3.7707  0.9809
  919SOL    HW2 3675   3.091   2.376   2.208 -0.5204 -0.3851  1.3528
  919SOL     MW 3676   3.020   2.371   2.262  0.5338  0.6728  0.1506
  920SOL     OW 3677   2.768   2.821   0.045 -0.0130  0.2491 -0.6515
  920SOL    HW1 3678   2.681   2.860   0.049 -0.8961 -1.0017 -0.3967
  920SOL    HW2 3679   2.768   2.766  -0.036  0.8317 -0.8733 -0.6744
  920SOL     MW 3680   2.757   2.819   0.035 -0.0181 -0.0640 -0.6209
  921SOL     OW 3681   2.555   2.670   2.686 -0.3346 -0.0711  0.1112
  921SOL    HW1 3682   2.611   2.646   2.613  0.4634  5.0256 -1.9550
  921SOL    HW2 3683   2.570   2.603   2.746 -1.4449  0.2057  0.3924
  921SOL     MW 3684   2.564   2.658   2.685 -0.3758  0.6379 -0.1243
  922SOL     OW 3685   2.017   2.861   0.300 -0.8175  0.1926  0.2909
  922SOL    HW1 3686   2.017   2.887   0.211 -3.8561 -1.0603  1.0919
  922SOL    HW2 3687   1.995   2.770   0.293  2.9322 -1.2981  1.4229
  922SOL     MW 3688   2.014   2.852   0.287 -0.7237 -0.1694  0.5460
  923SOL     OW 3689   2.171   2.805   1.604  0.0117  0.6299 -0.4894
  923SOL    HW1 3690   2.231   2.756   1.545  1.7433  3.4846  2.2698
  923SOL    HW2 3691   2.173   2.898   1.573 -0.4183  0.9328 -2.0728
  923SOL     MW 3692   2.179   2.811   1.592  0.1835  1.0465 -0.3343
  924SOL     OW 3693   1.154   2.744   2.462  0.4680  0.0509 -0.1873
  924SOL    HW1 3694   1.186   2.817   2.409  1.9483 -1.5071  0.3770
  924SOL    HW2 3695   1.228   2.715   2.516 -0.4522 -0.9055 -0.2804
  924SOL     MW 3696   1.168   2.750   2.462  0.5419 -0.2809 -0.1252
  925SOL     OW 3697   3.041   0.273   2.680 -0.4262  0.1436  0.4686
  925SOL    HW1 3698   3.070   0.294   2.594 -3.5344 -1.4852  1.4066
  925SOL    HW2 3699   2.992   0.344   2.722 -0.7398 -0.1362  1.2828
  925SOL     MW 3700   3.039   0.285   2.674 -0.8777 -0.1082  0.6998
  926SOL     OW 3701   2.682   2.399   2.011 -0.2088  0.0259  0.3788
  926SOL    HW1 3702   2.729   2.465   2.067 -0.5087  2.6301  1.2524
  926SOL    HW2 3703   2.717   2.398   1.919  0.3203  1.4792  2.3400
  926SOL     MW 3704   2.693   2.407   2.007 -0.1785  0.5613  0.7528
  927SOL     OW 3705   2.390   0.158   0.278  0.3027 -0.1549  0.1027
  927SOL    HW1 3706   2.478   0.185   0.249 -0.0463  0.4334 -0.8345
  927SOL    HW2 3707   2.330   0.158   0.197  3.0967 -0.5064  2.0924
  927SOL     MW 3708   2.394   0.161   0.263  0.6253 -0.1236  0.2415
  928SOL     OW 3709   2.058   2.445   1.844 -1.0526 -0.1291 -0.4883
  928SOL    HW1 3710   2.115   2.374   1.848  1.5318  2.9057  1.5745
  928SOL    HW2 3711   2.084   2.512   1.912  0.0179  1.1207  0.8304
  928SOL     MW 3712   2.069   2.445   1.854 -0.5704  0.4362 -0.0421
  929SOL     OW 3713   2.723   2.313   2.486  0.3422  0.0862  0.0028
  929SOL    HW1 3714   2.631   2.290   2.474  1.0942  0.9713 -1.5271
  929SOL    HW2 3715   2.757   2.293   2.572 -1.2730 -2.6654 -3.1814
  929SOL     MW 3716   2.716   2.307   2.496  0.2283 -0.1601 -0.6192
  930SOL     OW 3717   2.014   2.883   2.696 -0.2502 -0.3203 -0.2561
  930SOL    HW1 3718   2.035   2.859   2.787 -2.7126 -0.7035 -1.3123
  930SOL    HW2 3719   2.098   2.931   2.667  2.2160 -0.2443 -1.5340
  930SOL     MW 3720   2.028   2.886   2.704 -0.2497 -0.3608 -0.5641
  931SOL     OW 3721   2.950   2.819   2.132 -0.4603  0.1480  0.7804
  931SOL    HW1 3722   3.036   2.778   2.116  2.9011  2.3787 -0.0151
  931SOL    HW2 3723   2.914   2.847   2.051  0.4103  1.0799  1.1803
  931SOL     MW 3724   2.957   2.818   2.119  0.0981  0.5653  0.7282
  932SOL     OW 3725   2.811   1.923   2.551 -0.2424 -0.4979  0.2025
  932SOL    HW1 3726   2.900   1.935   2.586  0.9100  2.4006 -1.6006
  932SOL    HW2 3727   2.821   1.968   2.464 -0.8152 -1.5162 -1.3881
  932SOL     MW 3728   2.824   1.931   2.544 -0.1659 -0.2498 -0.2453
  933SOL     OW 3729   2.104   2.801   2.269 -0.2106  0.3539 -0.0285
  933SOL    HW1 3730   2.189   2.846   2.290 -1.8027  0.1642 -0.1900
  933SOL    HW2 3731   2.033   2.862   2.263 -0.2647 -1.1359 -0.1668
  933SOL     MW 3732   2.106   2.815   2.271 -0.4278  0.1323 -0.0680
  934SOL     OW 3733   2.078   2.678   2.519 -0.2914 -0.8406 -0.4730
  934SOL    HW1 3734   2.043   2.746   2.582 -2.3385 -3.0815  0.5407
  934SOL    HW2 3735   2.085   2.730   2.433 -1.0117  0.7992 -3.2300
  934SOL     MW 3736   2.074   2.694   2.516 -0.6565 -0.9199 -0.7030
  935SOL     OW 3737   2.654   1.584   1.820 -0.4823  0.2406  0.1372
  935SOL    HW1 3738   2.741   1.577   1.777  0.8753  1.5992 -1.5488
  935SOL    HW2 3739   2.580   1.577   1.750 -1.0502 -1.6380 -3.4994
  935SOL     MW 3740   2.655   1.582   1.805 -0.3781  0.1720 -0.5651
  936SOL     OW 3741   2.888   2.196   0.012  0.6790  0.2334 -0.1439
  936SOL    HW1 3742   2.958   2.253  -0.014 -0.7607 -0.8028 -2.0160
  936SOL    HW2 3743   2.817   2.262   0.014  1.2128 -0.1269 -3.2252
  936SOL     MW 3744   2.888   2.212   0.009  0.5595  0.0491 -0.7974
  937SOL     OW 3745   1.975   2.256   2.626 -0.2020 -0.2493  0.0027
  937SOL    HW1 3746   2.068   2.258   2.646  2.2645  1.0544 -0.8042
  937SOL    HW2 3747   1.972   2.250   2.528  1.2364  1.5042  0.4351
  937SOL     MW 3748   1.987   2.255   2.615  0.3132  0.1541 -0.0467
  938SOL     OW 3749   2.266   1.839   1.980 -0.3314  0.3308 -0.2938
  938SOL    HW1 3750   2.259   1.859   1.889  0.3817 -1.0788  2.2681
  938SOL    HW2 3751   2.236   1.913   2.038 -0.8102 -1.3378  1.2518
  938SOL     MW 3752   2.262   1.851   1.976 -0.3005 -0.0753  0.2482
  939SOL     OW 3753   2.773   2.044   2.260  0.6048 -0.2697 -0.5393
  939SOL    HW1 3754   2.794   1.968   2.209  0.6250  1.0928  1.0646
  939SOL    HW2 3755   2.674   2.049   2.261 -2.6708  1.4050 -0.7310
  939SOL     MW 3756   2.763   2.034   2.253  0.1753  0.1310 -0.3530
  940SOL     OW 3757   2.302   0.169   2.656 -0.4788 -0.0980 -0.1555
  940SOL    HW1 3758   2.279   0.075   2.645  0.1663  3.4293  1.8899
  940SOL    HW2 3759   2.332   0.180   2.751  0.4678  0.8575  0.8962
  940SOL     MW 3760   2.303   0.158   2.667 -0.2688  0.4935  0.2531
  941SOL     OW 3761   0.077   2.347   2.067  0.1478 -0.1283 -0.7761
  941SOL    HW1 3762   0.149   2.293   2.083 -3.7615  2.2097 -2.3732
  941SOL    HW2 3763   0.047   2.314   1.981 -0.1966 -0.2815  0.8742
  941SOL     MW 3764   0.083   2.336   2.058 -0.4135  0.1600 -0.7691
  942SOL     OW 3765   2.882   2.214   2.089 -0.0582 -0.3356 -0.0639
  942SOL    HW1 3766   2.808   2.267   2.072 -0.1290  0.8531  0.8346
  942SOL    HW2 3767   2.847   2.149   2.153  0.2640 -0.3627 -0.0176
  942SOL     MW 3768   2.868   2.213   2.095 -0.0250 -0.1824  0.0608
  943SOL     OW 3769   0.208   2.022   2.329  0.2479 -0.1097 -0.1577
  943SOL    HW1 3770   0.166   2.081   2.388  0.2463  0.3222  0.7820
  943SOL    HW2 3771   0.265   1.962   2.380  0.7690 -1.2477 -1.2641
  943SOL     MW 3772   0.210   2.022   2.343  0.3164 -0.2029 -0.1797
  944SOL     OW 3773   2.150   2.654   2.032 -0.0700  0.0903  0.6363
  944SOL    HW1 3774   2.234   2.613   2.067  0.3553  1.5083 -1.0171
  944SOL    HW2 3775   2.112   2.693   2.110 -0.5932  0.4195 -1.5260
  944SOL     MW 3776   2.156   2.654   2.047 -0.0829  0.3208  0.1328
  945SOL     OW 3777   2.775   2.632   2.935 -0.2019  0.0196 -0.5274
  945SOL    HW1 3778   2.720   2.553   2.941  0.4198  1.1293 -1.1270
  945SOL    HW2 3779   2.818   2.635   2.850 -2.1013 -1.6072  2.0796
  945SOL     MW 3780   2.774   2.622   2.925 -0.3705 -0.0486 -0.2625
  946SOL     OW 3781   2.547   2.703   2.288 -0.3600 -0.2661  0.2010
  946SOL    HW1 3782   2.575   2.764   2.214 -0.3446 -1.6358 -2.3393
  946SOL    HW2 3783   2.501   2.636   2.232  0.1292  1.7255  1.7079
  946SOL     MW 3784   2.544   2.702   2.271 -0.2934 -0.1841  0.0646
  947SOL     OW 3785   2.067   0.029   0.422 -0.1184  0.6976 -0.1794
  947SOL    HW1 3786   2.087  -0.059   0.392  0.2056  2.9232  0.4876
  947SOL    HW2 3787   2.150   0.060   0.445 -3.5044 -2.6882 -0.1847
  947SOL     MW 3788   2.081   0.022   0.421 -0.5224  0.5445 -0.0921
  948SOL     OW 3789   1.823   3.096   2.648 -0.2009  0.4900  0.1737
  948SOL    HW1 3790   1.885   3.031   2.670  0.0289 -0.7878  1.5649
  948SOL    HW2 3791   1.854   3.114   2.562  0.5471 -1.5657 -0.0917
  948SOL     MW 3792   1.835   3.089   2.640 -0.0719  0.0502  0.3222
  949SOL     OW 3793   2.495   2.042   2.272  0.6324  0.6942  0.0586
  949SOL    HW1 3794   2.498   1.960   2.315 -1.0825  1.3282  1.9195
  949SOL    HW2 3795   2.489   2.106   2.343 -1.8870 -0.1621  0.2460
  949SOL     MW 3796   2.494   2.040   2.287  0.0737  0.6649  0.3288
  950SOL     OW 3797   2.260   2.599   3.028 -0.3942  0.1819  0.5058
  950SOL    HW1 3798   2.285   2.515   2.986 -2.0423  0.6435 -0.5798
  950SOL    HW2 3799   2.175   2.619   2.975 -1.2475 -1.2775  1.9307
  950SOL     MW 3800   2.252   2.591   3.015 -0.7242  0.0502  0.5506
  951SOL     OW 3801   2.873   2.061   2.881 -0.6854 -0.1081  0.6613
  951SOL    HW1 3802   2.886   2.109   2.961  0.4087 -1.8658 -2.1940
  951SOL    HW2 3803   2.961   2.055   2.838 -0.2913 -1.6071 -0.6625
  951SOL     MW 3804   2.886   2.067   2.886 -0.4891 -0.5378  0.1099
  952SOL     OW 3805   3.043   1.671   2.060 -0.4622 -0.1504 -0.3294
  952SOL    HW1 3806   2.955   1.712   2.058 -0.8842  0.3131 -0.8969
  952SOL    HW2 3807   3.108   1.735   2.099  0.9221 -1.9304  0.1423
  952SOL     MW 3808   3.040   1.685   2.065 -0.3352 -0.3241 -0.3420
  953SOL     OW 3809   1.927   1.842   2.815 -0.0364  0.3314  0.5328
  953SOL    HW1 3810   1.841   1.813   2.845  0.9709 -0.8920  0.4695
  953SOL    HW2 3811   1.951   1.777   2.754 -1.2542 -1.0926  3.4153
  953SOL     MW 3812   1.919   1.829   2.811 -0.0642 -0.0179  0.9047
  954SOL     OW 3813   2.418   2.028   2.903  0.0105 -0.4004  0.1502
  954SOL    HW1 3814   2.336   2.046   2.849  2.8535 -0.4530 -0.6013
  954SOL    HW2 3815   2.480   2.001   2.828  0.6005  0.7978  0.0057
  954SOL     MW 3816   2.415   2.027   2.886  0.4634 -0.2493  0.0320
  955SOL     OW 3817   1.579   1.616   2.576  0.0862  0.3582  0.5843
  955SOL    HW1 3818   1.555   1.564   2.501 -2.0346  2.1507  0.7925
  955SOL    HW2 3819   1.658   1.659   2.544 -1.9907 -1.6982 -0.0101
  955SOL     MW 3820   1.586   1.615   2.562 -0.4676  0.3234  0.5334
  956SOL     OW 3821   2.603   2.395   2.845 -0.6033 -0.3167 -0.3222
  956SOL    HW1 3822   2.615   2.389   2.945 -0.9516  0.1295  3.8660
  956SOL    HW2 3823   2.680   2.343   2.810  0.3584 -0.8093  0.2155
  956SOL     MW 3824   2.615   2.387   2.854 -0.5224 -0.3228  0.3014
  957SOL     OW 3825   2.307   2.831   0.378 -0.4982  0.2780  0.2986
  957SOL    HW1 3826   2.207   2.831   0.370 -1.6300  0.4442  0.4698
  957SOL    HW2 3827   2.308   2.798   0.471 -0.7017  1.4615  0.1464
  957SOL     MW 3828   2.294   2.827   0.390 -0.6744  0.4561  0.3011
  958SOL     OW 3829   2.038   2.693   2.915  0.2789 -0.4420 -0.5432
  958SOL    HW1 3830   2.028   2.632   2.841  0.3834  0.5308 -1.2991
  958SOL    HW2 3831   1.946   2.718   2.925 -0.8543  0.3380  1.3988
  958SOL     MW 3832   2.025   2.688   2.906  0.1432 -0.2107 -0.3867
  959SOL     OW 3833   2.464   2.581   0.355 -0.3221  0.2847  0.0572
  959SOL    HW1 3834   2.526   2.596   0.284  0.7815  0.0246  0.1573
  959SOL    HW2 3835   2.408   2.665   0.359 -3.0731  0.1145  1.3117
  959SOL     MW 3836   2.464   2.594   0.346 -0.5394  0.2279  0.2359
  960SOL     OW 3837   1.965   2.465   2.294 -0.1660  0.1582 -0.5237
  960SOL    HW1 3838   1.931   2.376   2.307 -1.1796  2.2757 -3.9551
  960SOL    HW2 3839   1.944   2.509   2.376  0.8798 -1.2133 -1.6039
  960SOL     MW 3840   1.957   2.459   2.307 -0.1617  0.2566 -1.1190
  961SOL     OW 3841   2.247   2.461   2.323  0.3514 -0.1403 -0.2980
  961SOL    HW1 3842   2.152   2.456   2.314 -1.6581 -0.2542  1.5939
  961SOL    HW2 3843   2.277   2.520   2.395 -0.9505 -0.8208  0.9310
  961SOL     MW 3844   2.239   2.468   2.331 -0.0855 -0.2451  0.1138
  962SOL     OW 3845   2.200   2.036   2.756  0.5155  0.5180  0.3666
  962SOL    HW1 3846   2.158   2.011   2.839 -1.6508  1.9736  1.8395
  962SOL    HW2 3847   2.180   1.967   2.698 -0.9526  3.0597 -1.3877
  962SOL     MW 3848   2.192   2.023   2.760  0.0359  1.0454  0.3295
  963SOL     OW 3849   1.730   2.510   2.166 -0.1259 -0.1112 -0.2653
  963SOL    HW1 3850   1.815   2.485   2.210  4.7166  1.2138  2.4185
  963SOL    HW2 3851   1.734   2.485   2.070  0.1465 -0.3059 -3.3680
  963SOL     MW 3852   1.742   2.504   2.159  0.5489  0.0379 -0.3206
  964SOL     OW 3853   1.832   2.019   2.628 -0.2174 -0.6834 -0.4697
  964SOL    HW1 3854   1.890   2.099   2.625 -4.4154  2.0358 -2.7046
  964SOL    HW2 3855   1.875   1.965   2.696 -2.5767  2.8571 -1.8389
  964SOL     MW 3856   1.846   2.023   2.636 -1.0826  0.1425 -0.9452
  965SOL     OW 3857   2.252   2.700   0.608  0.1630 -0.3133  0.3696
  965SOL    HW1 3858   2.208   2.615   0.591 -0.7348 -1.7357 -0.7299
  965SOL    HW2 3859   2.295   2.705   0.695 -4.2273  0.0133  0.0626
  965SOL     MW 3860   2.252   2.689   0.617 -0.5347 -0.4579  0.1840
  966SOL     OW 3861   2.726   2.593   2.492 -0.2047  0.2612  1.0392
  966SOL    HW1 3862   2.696   2.621   2.404  3.6174 -1.3242  0.0827
  966SOL    HW2 3863   2.730   2.501   2.481 -1.3357  0.0195  1.6092
  966SOL     MW 3864   2.723   2.584   2.479  0.1504  0.0201  0.9882
  967SOL     OW 3865   2.817   3.067   2.966  0.0749 -0.0734 -0.7793
  967SOL    HW1 3866   2.784   2.995   3.017  3.2669 -0.6679  1.3898
  967SOL    HW2 3867   2.744   3.086   2.905 -0.9395 -4.7423  1.1986
  967SOL     MW 3868   2.803   3.060   2.965  0.3622 -0.7679 -0.2322
  968SOL     OW 3869   3.029   2.487   3.043  0.0461  0.5442 -0.1657
  968SOL    HW1 3870   2.963   2.546   3.023  2.7725  1.0799 -1.0422
  968SOL    HW2 3871   3.064   2.461   2.951 -1.2697 -0.3061  0.2289
  968SOL     MW 3872   3.025   2.491   3.028  0.2322  0.5027 -0.2293
  969SOL     OW 3873   1.535   2.131   1.708 -0.0412  0.1671  0.0251
  969SOL    HW1 3874   1.608   2.066   1.711  1.5951 -2.6793  1.1747
  969SOL    HW2 3875   1.516   2.137   1.801  3.2396 -1.1109  1.5128
  969SOL     MW 3876   1.542   2.123   1.721  0.6075 -0.3770  0.3731
  970SOL     OW 3877   1.682   1.679   1.822  0.6020  0.2973 -0.0968
  970SOL    HW1 3878   1.741   1.661   1.894  0.0268  0.2227  0.5266
  970SOL    HW2 3879   1.593   1.673   1.856  2.6777 -0.5117  1.3462
  970SOL     MW 3880   1.678   1.676   1.836  0.8000  0.1807  0.1758
  971SOL     OW 3881   1.884   0.082   2.366 -0.3342  0.1868  0.2600
  971SOL    HW1 3882   1.887   0.018   2.287 -1.6806 -2.6502 -1.5964
  971SOL    HW2 3883   1.948   0.146   2.350  0.8169 -0.3216  0.9953
  971SOL     MW 3884   1.893   0.082   2.353 -0.3599 -0.2546  0.1121
  972SOL     OW 3885   0.233   2.786   2.543 -0.0734 -0.5363 -0.0556
  972SOL    HW1 3886   0.277   2.702   2.509 -1.2944  1.0263 -1.0137
  972SOL    HW2 3887   0.293   2.858   2.553  2.2914 -1.5681  0.6516
  972SOL     MW 3888   0.247   2.784   2.540  0.0775 -0.4663 -0.0887
  973SOL     OW 3889   2.629   3.068   2.085 -0.6727  0.4635 -0.8646
  973SOL    HW1 3890   2.601   2.989   2.041  0.6861 -0.3734  0.1251
  973SOL    HW2 3891   2.648   3.120   2.002  0.3587  3.9766  0.1200
  973SOL     MW 3892   2.628   3.065   2.068 -0.3573  0.8166 -0.6041
  974SOL     OW 3893   2.027   0.314   2.696  0.5231 -0.0270  0.4889
  974SOL    HW1 3894   2.070   0.235   2.728  1.5914  0.9044 -0.4262
  974SOL    HW2 3895   1.942   0.309   2.731  2.1329  0.7615  0.4379
  974SOL     MW 3896   2.022   0.303   2.705  0.8764  0.1999  0.3614
  975SOL     OW 3897   2.313   2.588   2.571 -0.3019  0.2915  0.0854
  975SOL    HW1 3898   2.376   2.632   2.633  0.8837 -0.1824 -2.1775
  975SOL    HW2 3899   2.233   2.642   2.549  0.7828  1.4277  0.9106
  975SOL     MW 3900   2.311   2.601   2.576 -0.0024  0.3789 -0.1043
  976SOL     OW 3901   0.280   0.257   1.691 -0.3093  0.2263 -0.0319
  976SOL    HW1 3902   0.340   0.195   1.733  2.1946 -1.5305 -0.8552
  976SOL    HW2 3903   0.192   0.214   1.687 -0.7957 -0.7296 -1.9705
  976SOL     MW 3904   0.276   0.243   1.696 -0.0431 -0.1316 -0.3963
  977SOL     OW 3905   1.706   2.797   2.480 -0.4499 -0.6198  0.4939
  977SOL    HW1 3906   1.735   2.708   2.495 -1.9865  1.6927  2.9176
  977SOL    HW2 3907   1.787   2.832   2.448 -0.3181  0.3947 -0.4751
  977SOL     MW 3908   1.721   2.790   2.478 -0.6353 -0.1808  0.6858
   3.10000   3.10000   3.10000
