977 TIP4P/2005f water molecules t=   1.63000 step= 1630
 3908
    1SOL     OW    1   0.396   0.801   0.109 -0.0966 -0.0836  0.1591
    1SOL    HW1    2   0.368   0.777   0.021 -2.2357 -4.6432 -0.6851
    1SOL    HW2    3   0.411   0.727   0.166  0.6458  0.4499 -0.1126
    1SOL     MW    4   0.395   0.788   0.105 -0.2809 -0.6148  0.0119
    2SOL     OW    5   0.324   3.004   1.071 -0.0469 -0.2470  0.4960
    2SOL    HW1    6   0.359   3.095   1.056 -1.6023 -0.2019  0.0973
    2SOL    HW2    7   0.234   3.023   1.102  0.4047  2.0020  0.7181
    2SOL     MW    8   0.316   3.019   1.073 -0.1926  0.0557  0.4727
    3SOL     OW    9   2.632   0.356   0.973  0.5159  0.3610  0.5726
    3SOL    HW1   10   2.694   0.418   0.951  0.2803 -2.3995  2.0628
    3SOL    HW2   11   2.629   0.382   1.068  0.3545  3.3990 -1.4448
    3SOL     MW   12   2.640   0.368   0.983  0.4635  0.3976  0.5030
    4SOL     OW   13   2.999   1.686   0.530 -0.2416 -0.1547  0.4072
    4SOL    HW1   14   2.930   1.749   0.512 -0.0576  1.3628 -0.6015
    4SOL    HW2   15   3.051   1.680   0.446 -0.7863 -0.7095 -0.7183
    4SOL     MW   16   2.996   1.693   0.517 -0.2892 -0.0277  0.1257
    5SOL     OW   17   1.621   1.413   0.641 -0.5852  0.2195 -0.3450
    5SOL    HW1   18   1.661   1.413   0.723 -1.3760 -0.4101 -0.0350
    5SOL    HW2   19   1.538   1.451   0.663  1.6785 -0.2286  2.4291
    5SOL     MW   20   1.615   1.418   0.655 -0.3909  0.0773  0.0619
    6SOL     OW   21   0.800   1.430   0.593 -0.0124 -0.0834  0.5682
    6SOL    HW1   22   0.702   1.422   0.593  0.9276 -1.1469 -0.6618
    6SOL    HW2   23   0.826   1.359   0.649 -0.8026  3.0788  3.9164
    6SOL     MW   24   0.791   1.420   0.601  0.0074  0.1935  0.8476
    7SOL     OW   25   1.921   1.059   0.026 -0.1086  0.2075 -0.3249
    7SOL    HW1   26   1.997   1.110   0.010  1.9681  0.1215  0.5473
    7SOL    HW2   27   1.931   1.038   0.126  0.8035  4.1409  1.2044
    7SOL     MW   28   1.932   1.063   0.037  0.2857  0.7151 -0.0081
    8SOL     OW   29   0.791   1.470   1.102  0.0762 -0.1528 -0.6345
    8SOL    HW1   30   0.877   1.505   1.114  0.2575 -0.2317  0.5008
    8SOL    HW2   31   0.784   1.378   1.125  1.2398 -0.0077  1.6941
    8SOL     MW   32   0.801   1.463   1.106  0.2537 -0.1440 -0.1774
    9SOL     OW   33   0.956   0.459   1.355 -0.3737 -0.2980 -0.0035
    9SOL    HW1   34   0.874   0.404   1.325 -1.5732 -0.8934  2.0880
    9SOL    HW2   35   0.998   0.395   1.410 -1.0087  1.3611 -1.5148
    9SOL     MW   36   0.951   0.443   1.359 -0.6157 -0.1577  0.0730
   10SOL     OW   37   0.292   0.871   0.473  0.4448 -0.2312 -0.1523
   10SOL    HW1   38   0.391   0.879   0.466  0.7306  1.6648  1.4541
   10SOL    HW2   39   0.257   0.896   0.559 -0.8976  1.2894 -0.1474
   10SOL     MW   40   0.301   0.875   0.484  0.3054  0.2196  0.0603
   11SOL     OW   41   0.767   1.118   1.484  0.6231 -0.8160 -0.1877
   11SOL    HW1   42   0.839   1.144   1.543 -0.1420  2.2798 -0.2961
   11SOL    HW2   43   0.789   1.027   1.454 -2.7491 -0.9243 -4.0174
   11SOL     MW   44   0.779   1.109   1.488  0.0772 -0.4218 -0.7073
   12SOL     OW   45   3.086   1.080   0.868  0.8310 -0.6090 -0.2494
   12SOL    HW1   46   3.126   1.157   0.910 -2.4653  1.1227  0.4086
   12SOL    HW2   47   3.039   1.119   0.791 -0.8308 -3.7062  2.3354
   12SOL     MW   48   3.085   1.096   0.863  0.1769 -0.7891  0.1785
   13SOL     OW   49   1.814   1.415   1.282  0.4791 -0.2816  0.4207
   13SOL    HW1   50   1.839   1.339   1.236 -0.0940  0.1107 -0.3764
   13SOL    HW2   51   1.859   1.486   1.235 -3.2828 -0.1460  1.3687
   13SOL     MW   52   1.823   1.414   1.270 -0.0928 -0.2120  0.4406
   14SOL     OW   53   0.529   0.350   1.770  0.4091 -0.2333 -0.7169
   14SOL    HW1   54   0.481   0.271   1.767  2.0575 -0.2771 -3.0819
   14SOL    HW2   55   0.588   0.347   1.699  0.5795 -2.8243  0.5501
   14SOL     MW   56   0.531   0.339   1.760  0.6491 -0.5809 -0.8618
   15SOL     OW   57   2.014   0.417   1.011  0.3268  0.0018 -0.0419
   15SOL    HW1   58   1.987   0.506   1.023  0.3219 -0.9402 -0.8982
   15SOL    HW2   59   2.046   0.432   0.918  0.4400 -0.2452 -1.6989
   15SOL     MW   60   2.015   0.431   1.001  0.3411 -0.1551 -0.3735
   16SOL     OW   61   0.310   1.826   0.291 -0.2005 -0.0001  0.1077
   16SOL    HW1   62   0.405   1.804   0.312  1.1268  1.5344  3.1867
   16SOL    HW2   63   0.304   1.917   0.317  0.4300 -0.0933 -3.0658
   16SOL     MW   64   0.322   1.835   0.297  0.0578  0.1901  0.0953
   17SOL     OW   65   1.111   0.874   1.433 -0.1493 -0.2302 -0.3086
   17SOL    HW1   66   1.136   0.856   1.527  0.7383 -0.8902  1.1701
   17SOL    HW2   67   1.019   0.865   1.425  1.3246  0.9690  0.8387
   17SOL     MW   68   1.102   0.871   1.445  0.1623 -0.1591  0.0379
   18SOL     OW   69   0.075   1.655   0.345 -0.5635  0.1012 -0.1698
   18SOL    HW1   70   0.161   1.697   0.332  0.3841  2.6872 -1.5721
   18SOL    HW2   71   0.043   1.624   0.261 -1.1040 -0.1134 -4.6442
   18SOL     MW   72   0.082   1.657   0.332 -0.5098  0.4141 -0.9452
   19SOL     OW   73   0.079   1.327   0.978  0.4596  0.2329  0.2112
   19SOL    HW1   74   0.117   1.336   0.890  1.4443 -3.7601  3.2033
   19SOL    HW2   75  -0.010   1.359   0.978 -1.4787 -1.1764  2.4188
   19SOL     MW   76   0.072   1.332   0.967  0.3338 -0.4798  0.8973
   20SOL     OW   77   0.446   2.120   1.272 -0.0985  0.3309 -0.1968
   20SOL    HW1   78   0.394   2.063   1.207  0.6297 -0.7084 -0.0353
   20SOL    HW2   79   0.407   2.118   1.363  0.4364 -0.6442 -0.4971
   20SOL     MW   80   0.434   2.112   1.276  0.0682  0.0651 -0.2151
   21SOL     OW   81   0.565   0.858   0.423 -0.3844  0.3038 -0.6185
   21SOL    HW1   82   0.634   0.878   0.497 -0.5546 -3.4891  1.2557
   21SOL    HW2   83   0.604   0.848   0.337 -0.0928  0.5296  2.2443
   21SOL     MW   84   0.580   0.859   0.421 -0.3684 -0.1668  0.0065
   22SOL     OW   85   1.528   0.711   1.026 -0.0387 -0.2022  0.5238
   22SOL    HW1   86   1.520   0.702   0.933  2.9264 -2.1503 -0.2905
   22SOL    HW2   87   1.446   0.750   1.050 -1.7168  1.0331 -1.4973
   22SOL     MW   88   1.516   0.715   1.017  0.1311 -0.2963  0.1497
   23SOL     OW   89   3.084   0.809   0.731 -0.2470  0.5142  0.2511
   23SOL    HW1   90   3.132   0.736   0.778 -2.2051 -0.5425 -1.2035
   23SOL    HW2   91   3.139   0.888   0.731 -1.0001  1.5550  0.0313
   23SOL     MW   92   3.097   0.810   0.737 -0.6047  0.5121  0.0302
   24SOL     OW   93   2.080   2.213   0.051 -0.2017  0.2615  0.4276
   24SOL    HW1   94   2.036   2.208   0.137  2.9573 -2.3531  1.4470
   24SOL    HW2   95   2.125   2.129   0.038 -3.3080 -0.0441 -0.0271
   24SOL     MW   96   2.080   2.201   0.061 -0.1947 -0.1238  0.5021
   25SOL     OW   97   0.177   1.405   0.431 -0.0902  0.5803  0.0586
   25SOL    HW1   98   0.136   1.488   0.407  1.1486 -2.9601 -0.4373
   25SOL    HW2   99   0.234   1.370   0.361  2.5618  0.3007 -0.2121
   25SOL     MW  100   0.179   1.412   0.419  0.4232  0.0763 -0.0426
   26SOL     OW  101   1.973   1.024   0.284 -0.4240  0.2148 -0.4193
   26SOL    HW1  102   1.939   1.048   0.373  2.5363 -1.7478  1.1278
   26SOL    HW2  103   2.046   1.090   0.281  1.7593 -2.2844 -0.0064
   26SOL     MW  104   1.978   1.036   0.295  0.2546 -0.3739 -0.1607
   27SOL     OW  105   1.863   1.377   0.158 -0.5192  0.3120  0.7069
   27SOL    HW1  106   1.827   1.464   0.188  0.9254  2.2762 -0.7743
   27SOL    HW2  107   1.930   1.368   0.228  1.2845  1.4113  1.4719
   27SOL     MW  108   1.867   1.387   0.171 -0.0906  0.7162  0.6124
   28SOL     OW  109   0.422   0.940   1.994 -0.0344  0.3031 -0.2843
   28SOL    HW1  110   0.482   0.903   2.055 -1.0474  0.7257 -1.0801
   28SOL    HW2  111   0.343   0.903   2.025 -2.5993  0.2635  1.1064
   28SOL     MW  112   0.419   0.930   2.006 -0.5065  0.3536 -0.2058
   29SOL     OW  113   0.222   1.389   0.729 -0.4490  0.3532  0.2652
   29SOL    HW1  114   0.210   1.487   0.747  0.6072 -0.3594 -2.3720
   29SOL    HW2  115   0.214   1.368   0.635  1.9740 -0.4451  0.0753
   29SOL     MW  116   0.220   1.399   0.719  0.0100  0.1539 -0.1078
   30SOL     OW  117   0.752   1.207   1.220 -0.7825  0.2318 -0.9314
   30SOL    HW1  118   0.665   1.243   1.238  0.2606 -0.4460  2.0245
   30SOL    HW2  119   0.779   1.179   1.308  0.0734 -0.4795  1.5971
   30SOL     MW  120   0.744   1.208   1.234 -0.5319  0.0485 -0.2078
   31SOL     OW  121   0.496   0.300   0.191  0.5093 -0.5010  0.1306
   31SOL    HW1  122   0.499   0.223   0.249  0.1680 -1.0811  1.1599
   31SOL    HW2  123   0.510   0.273   0.098 -1.4188 -0.2655  2.3931
   31SOL     MW  124   0.498   0.286   0.186  0.2099 -0.5465  0.5649
   32SOL     OW  125   2.727   0.963   1.094 -0.0753 -0.5560 -0.1848
   32SOL    HW1  126   2.660   0.889   1.104 -0.3642  1.6592  0.2589
   32SOL    HW2  127   2.814   0.925   1.115 -3.3154 -1.1211  1.0640
   32SOL     MW  128   2.730   0.948   1.098 -0.5409 -0.3383  0.0385
   33SOL     OW  129   1.653   1.246   0.381 -0.4995 -0.2853  0.0946
   33SOL    HW1  130   1.748   1.238   0.390  1.7872  0.0902  0.2281
   33SOL    HW2  131   1.615   1.263   0.467  0.7197  0.3949 -1.3920
   33SOL     MW  132   1.660   1.247   0.393 -0.0369 -0.1460 -0.0839
   34SOL     OW  133   1.154   1.953   1.136 -0.2302  0.3822 -0.4200
   34SOL    HW1  134   1.078   1.984   1.193  0.2634  0.6207 -0.6421
   34SOL    HW2  135   1.235   1.967   1.196 -0.1423  0.3990 -0.5636
   34SOL     MW  136   1.155   1.959   1.151 -0.1535  0.4159 -0.4683
   35SOL     OW  137   0.317   0.146   1.804 -0.0319  0.0543 -0.3174
   35SOL    HW1  138   0.361   0.103   1.882 -0.6341  0.2278  1.2032
   35SOL    HW2  139   0.328   0.094   1.727 -2.6465  1.4507 -1.0398
   35SOL     MW  140   0.324   0.133   1.804 -0.4563  0.2615 -0.2121
   36SOL     OW  141   1.925   1.987   0.594  0.2383  0.2038  0.2850
   36SOL    HW1  142   1.883   1.959   0.512 -2.3077 -0.2627 -0.5075
   36SOL    HW2  143   1.983   1.920   0.624 -1.8041  2.5979  2.1282
   36SOL     MW  144   1.927   1.974   0.587 -0.3671  0.4581  0.4236
   37SOL     OW  145   1.809   2.057   0.994  0.4236  0.3923  0.2260
   37SOL    HW1  146   1.771   1.989   0.937 -0.5161  3.0674 -1.7896
   37SOL    HW2  147   1.735   2.077   1.048 -1.4699 -0.7838 -0.9662
   37SOL     MW  148   1.794   2.051   0.993  0.0498  0.5901 -0.1972
   38SOL     OW  149   2.845   0.958   0.123 -0.7219 -0.0990 -0.7203
   38SOL    HW1  150   2.879   0.935   0.212 -0.1298  0.6768 -1.5180
   38SOL    HW2  151   2.921   0.964   0.066  0.5968  1.6993 -2.3802
   38SOL     MW  152   2.859   0.956   0.127 -0.4698  0.2406 -1.0445
   39SOL     OW  153   1.491   0.652   0.757 -0.5332  0.4555  0.6172
   39SOL    HW1  154   1.453   0.570   0.784  1.8378 -0.1150 -1.6274
   39SOL    HW2  155   1.421   0.710   0.739  1.4330  1.6227 -0.0196
   39SOL     MW  156   1.477   0.649   0.758  0.0391  0.5342  0.2370
   40SOL     OW  157   1.269   1.860   0.252  0.2450  0.3798 -0.0425
   40SOL    HW1  158   1.322   1.787   0.289 -0.1250 -1.5197  1.4133
   40SOL    HW2  159   1.255   1.914   0.331  2.0103  0.3653  1.0319
   40SOL     MW  160   1.274   1.858   0.267  0.4291  0.1273  0.2914
   41SOL     OW  161   0.523   0.576   1.552  0.3347 -0.3422 -0.6741
   41SOL    HW1  162   0.606   0.611   1.534 -0.6290  0.6523 -4.0981
   41SOL    HW2  163   0.459   0.620   1.493 -0.5618  0.6501 -4.1584
   41SOL     MW  164   0.526   0.586   1.542  0.0893 -0.0801 -1.5856
   42SOL     OW  165   1.241   2.986   1.972 -0.2485  0.0033  0.5470
   42SOL    HW1  166   1.178   3.027   2.035  2.5998  1.8005  0.1890
   42SOL    HW2  167   1.270   2.901   2.000  1.3937  1.7018  0.3803
   42SOL     MW  168   1.236   2.980   1.984  0.3440  0.4645  0.4778
   43SOL     OW  169   1.453   0.098   1.732 -0.1618 -0.4803  0.6080
   43SOL    HW1  170   1.516   0.051   1.672 -1.1676 -0.6576 -0.7470
   43SOL    HW2  171   1.373   0.088   1.680 -0.2653 -1.4839 -1.7328
   43SOL     MW  172   1.451   0.090   1.717 -0.3081 -0.6361  0.1204
   44SOL     OW  173   1.269   0.798   1.041  0.2311  0.0381 -0.3290
   44SOL    HW1  174   1.252   0.892   1.037  0.4247 -1.2492 -2.3964
   44SOL    HW2  175   1.225   0.760   1.120 -1.4913  0.9226 -0.4783
   44SOL     MW  176   1.261   0.805   1.051  0.0294 -0.0151 -0.6215
   45SOL     OW  177   1.289   0.837   0.747  0.1865  0.1563 -0.2543
   45SOL    HW1  178   1.254   0.826   0.836  1.1652 -0.0456 -0.2585
   45SOL    HW2  179   1.237   0.808   0.677  1.5594  0.5156  0.7333
   45SOL     MW  180   1.277   0.832   0.750  0.4968  0.1770 -0.1246
   46SOL     OW  181   0.453   1.110   0.662 -0.4883  0.6074  0.0356
   46SOL    HW1  182   0.504   1.122   0.583 -0.5844  2.8975 -0.9918
   46SOL    HW2  183   0.446   1.198   0.700 -1.0865 -1.9772 -0.6391
   46SOL     MW  184   0.458   1.124   0.657 -0.5799  0.5686 -0.1890
   47SOL     OW  185   0.093   2.062   1.881 -0.4049 -0.0416  0.3304
   47SOL    HW1  186   0.118   1.983   1.827 -0.9509 -1.2730  1.3468
   47SOL    HW2  187   0.097   2.035   1.968 -0.1507  2.0161 -2.1843
   47SOL     MW  188   0.097   2.048   1.886 -0.4434  0.0674  0.1327
   48SOL     OW  189   1.202   0.509   1.020  0.2794 -0.3010  0.0764
   48SOL    HW1  190   1.181   0.468   0.937 -0.9008  1.1358  2.6392
   48SOL    HW2  191   1.200   0.604   1.008  1.1104 -0.6907 -3.7047
   48SOL     MW  192   1.199   0.516   1.008  0.2333 -0.1629 -0.0844
   49SOL     OW  193   1.674   0.680   1.551  0.4451  0.1365  0.0962
   49SOL    HW1  194   1.714   0.625   1.622 -0.1350  0.8423  1.5812
   49SOL    HW2  195   1.704   0.634   1.471  0.2228 -1.5100 -0.0656
   49SOL     MW  196   1.683   0.667   1.550  0.3393  0.0124  0.2708
   50SOL     OW  197   1.292   1.259   0.603  0.4757  0.2182  0.8603
   50SOL    HW1  198   1.223   1.261   0.666  6.2652  2.8081 -1.6044
   50SOL    HW2  199   1.360   1.196   0.640  1.1422 -0.8221  0.0107
   50SOL     MW  200   1.292   1.251   0.616  1.3275  0.4227  0.4230
   51SOL     OW  201   0.311   2.889   0.826  0.0474 -0.6183 -0.0442
   51SOL    HW1  202   0.400   2.862   0.834 -1.0416  1.6754  0.7641
   51SOL    HW2  203   0.293   2.939   0.902  1.5546 -4.3077 -1.9055
   51SOL     MW  204   0.320   2.892   0.837  0.1025 -0.8024 -0.1832
   52SOL     OW  205   0.804   1.801   0.468 -0.4241  0.1686 -0.1524
   52SOL    HW1  206   0.772   1.887   0.508  0.7537  1.8895  1.1623
   52SOL    HW2  207   0.830   1.822   0.377  1.5381  0.1879 -0.1353
   52SOL     MW  208   0.803   1.815   0.462 -0.0098  0.3982  0.0233
   53SOL     OW  209   0.487   2.151   0.530  0.3291  0.5753  0.9741
   53SOL    HW1  210   0.424   2.154   0.460  0.9129  0.8244 -0.2889
   53SOL    HW2  211   0.462   2.228   0.577  1.2279 -0.2522  0.0140
   53SOL     MW  212   0.475   2.161   0.527  0.5247  0.4990  0.6808
   54SOL     OW  213   2.028   0.974   0.724  0.2843  0.7204 -0.1174
   54SOL    HW1  214   2.103   0.984   0.669 -0.0615 -1.7479  1.7479
   54SOL    HW2  215   2.011   0.877   0.719 -0.6575  1.2167  0.0137
   54SOL     MW  216   2.036   0.963   0.716  0.1144  0.4602  0.1460
   55SOL     OW  217   0.446   1.521   1.682  0.0101  0.2641  0.0018
   55SOL    HW1  218   0.396   1.550   1.608 -0.3437 -1.1533  1.5983
   55SOL    HW2  219   0.531   1.489   1.643  0.1522 -2.0021 -0.3714
   55SOL     MW  220   0.451   1.521   1.667 -0.0178 -0.2219  0.1632
   56SOL     OW  221   0.667   0.909   0.148  0.3110  0.2523  0.1799
   56SOL    HW1  222   0.679   1.001   0.179  2.1888  1.2523 -2.9585
   56SOL    HW2  223   0.582   0.892   0.108 -0.9524 -0.5648  0.2430
   56SOL     MW  224   0.657   0.919   0.147  0.3921  0.2765 -0.2258
   57SOL     OW  225   1.112   1.278   1.142  0.0366 -0.1630  0.4033
   57SOL    HW1  226   1.201   1.309   1.166  0.8835 -0.3942  0.6823
   57SOL    HW2  227   1.079   1.249   1.226  1.7564 -0.4280  0.7468
   57SOL     MW  228   1.119   1.278   1.156  0.3753 -0.2285  0.4854
   58SOL     OW  229   0.422   1.275   1.292  0.0655  0.6326 -0.0781
   58SOL    HW1  230   0.410   1.366   1.272 -0.1797  1.4343  0.7964
   58SOL    HW2  231   0.456   1.282   1.382  1.0629  1.0462 -3.7774
   58SOL     MW  232   0.425   1.288   1.301  0.1647  0.7930 -0.4508
   59SOL     OW  233   1.419   1.694   0.391  0.1663  0.0191 -0.5478
   59SOL    HW1  234   1.494   1.727   0.442 -0.2449 -2.7565  0.8500
   59SOL    HW2  235   1.358   1.649   0.445  0.4860 -1.0394  0.8381
   59SOL     MW  236   1.421   1.692   0.405  0.1542 -0.4867 -0.1805
   60SOL     OW  237   3.080   0.169   1.650  0.0943 -0.3755 -0.1874
   60SOL    HW1  238   3.014   0.232   1.688  2.2047  1.1467  0.1199
   60SOL    HW2  239   3.137   0.136   1.722  5.1254  1.3130  1.3892
   60SOL     MW  240   3.079   0.173   1.665  1.0365  0.0481  0.0612
   61SOL     OW  241   1.948   1.374   2.987  0.3846 -0.2595 -0.5493
   61SOL    HW1  242   1.918   1.374   3.077  1.0170  1.1974 -1.6212
   61SOL    HW2  243   2.009   1.302   2.984 -0.8042 -1.0105 -0.0395
   61SOL     MW  244   1.952   1.364   2.998  0.3112 -0.1664 -0.6234
   62SOL     OW  245   0.593   1.714   0.633 -0.1514  0.2999  1.0396
   62SOL    HW1  246   0.665   1.737   0.574 -0.0189  0.3937 -0.4086
   62SOL    HW2  247   0.558   1.632   0.599 -0.5841 -0.0576  1.3661
   62SOL     MW  248   0.598   1.706   0.621 -0.1910  0.2651  0.8916
   63SOL     OW  249   1.748   0.713   0.640  0.6160  0.5460 -0.1483
   63SOL    HW1  250   1.714   0.791   0.597 -0.2258 -0.9456 -1.4613
   63SOL    HW2  251   1.666   0.682   0.691  1.8781 -2.9959  0.0369
   63SOL     MW  252   1.733   0.719   0.641  0.6715 -0.1181 -0.2971
   64SOL     OW  253   0.255   1.679   0.736  0.4905  0.5389 -0.3245
   64SOL    HW1  254   0.326   1.735   0.708  3.1170 -0.8124 -1.3207
   64SOL    HW2  255   0.175   1.734   0.721 -4.2257  0.7274  0.4732
   64SOL     MW  256   0.254   1.693   0.730  0.2148  0.3855 -0.3507
   65SOL     OW  257   1.472   2.316   0.383  0.2815 -0.1724  0.5635
   65SOL    HW1  258   1.566   2.323   0.385 -1.1196 -0.3467 -0.0648
   65SOL    HW2  259   1.429   2.350   0.466 -2.7463  0.7511  0.3307
   65SOL     MW  260   1.479   2.321   0.394 -0.3029 -0.0736  0.4499
   66SOL     OW  261   0.368   0.582   0.477  0.6749 -0.1185  0.0849
   66SOL    HW1  262   0.437   0.569   0.408  2.0650 -2.0013 -2.2128
   66SOL    HW2  263   0.359   0.679   0.471 -0.6315 -1.2104 -1.1237
   66SOL     MW  264   0.376   0.593   0.467  0.6859 -0.5110 -0.3778
   67SOL     OW  265   1.455   0.036   1.984 -0.7126  0.1052 -0.7301
   67SOL    HW1  266   1.451   0.073   1.893 -2.6587  0.2647  0.7723
   67SOL    HW2  267   1.390  -0.035   1.979 -0.0017 -3.9011 -1.6332
   67SOL     MW  268   1.445   0.032   1.971 -0.8756 -0.4023 -0.6511
   68SOL     OW  269   0.768   0.043   2.949 -0.2101  0.7236 -0.3382
   68SOL    HW1  270   0.778   0.080   2.859 -0.1861  1.0678  0.0513
   68SOL    HW2  271   0.853   0.034   2.992 -3.1752  2.1030  0.0017
   68SOL     MW  272   0.781   0.047   2.943 -0.5981  0.9510 -0.2420
   69SOL     OW  273   1.041   0.214   1.928  0.5778 -0.4235 -0.4684
   69SOL    HW1  274   1.117   0.256   1.964 -0.2468 -0.2749  1.5425
   69SOL    HW2  275   1.020   0.144   1.997 -1.0009 -2.0608 -1.2675
   69SOL     MW  276   1.048   0.210   1.942  0.2607 -0.6199 -0.3085
   70SOL     OW  277   0.503   1.750   1.076 -0.1268  0.0325  0.1369
   70SOL    HW1  278   0.592   1.784   1.051  1.6408 -1.7310  1.2799
   70SOL    HW2  279   0.493   1.687   1.005 -0.9338 -1.6565  0.0479
   70SOL     MW  280   0.513   1.746   1.063 -0.0001 -0.4230  0.2760
   71SOL     OW  281   1.528   0.554   1.259  0.3561  0.5160 -0.1580
   71SOL    HW1  282   1.496   0.628   1.320 -1.5679  0.0317  1.9732
   71SOL    HW2  283   1.541   0.604   1.179 -0.8535  0.0814  0.6277
   71SOL     MW  284   1.525   0.571   1.256 -0.0573  0.3948  0.2269
   72SOL     OW  285   0.778   1.821   1.009  0.9261  0.0819  0.1768
   72SOL    HW1  286   0.791   1.893   0.943  0.5030  0.0153 -2.6599
   72SOL    HW2  287   0.802   1.737   0.969 -0.3540  0.8639  1.4501
   72SOL     MW  288   0.783   1.820   0.995  0.7014  0.1763 -0.0295
   73SOL     OW  289   1.149   0.674   1.280 -0.6713 -0.0249 -0.4108
   73SOL    HW1  290   1.090   0.593   1.310 -2.4797  0.8465 -0.2042
   73SOL    HW2  291   1.136   0.752   1.338  0.9567 -0.2778  0.6853
   73SOL     MW  292   1.140   0.674   1.292 -0.6951  0.0567 -0.2389
   74SOL     OW  293   2.812   0.100   0.981 -0.5737 -0.1206 -0.4435
   74SOL    HW1  294   2.897   0.104   0.936 -1.4894 -5.1688 -0.3154
   74SOL    HW2  295   2.775   0.190   0.967  1.1855  1.4247  0.0617
   74SOL     MW  296   2.818   0.113   0.973 -0.4624 -0.5828 -0.3600
   75SOL     OW  297   1.556   1.340   0.153 -0.6065 -0.0310 -0.4764
   75SOL    HW1  298   1.609   1.288   0.091  0.7361  1.3677  0.5214
   75SOL    HW2  299   1.601   1.318   0.241  2.2378 -0.4747  1.6894
   75SOL     MW  300   1.569   1.330   0.157 -0.0541  0.0950 -0.0590
   76SOL     OW  301   2.996   0.654   0.485  0.6677  0.5189  0.2177
   76SOL    HW1  302   3.031   0.705   0.562  1.8631 -1.8292  3.0645
   76SOL    HW2  303   3.083   0.616   0.458 -1.0100  0.4980  0.9986
   76SOL     MW  304   3.012   0.655   0.492  0.6041  0.2063  0.6963
   77SOL     OW  305   0.854   0.622   0.431 -0.6493  0.1364  0.1956
   77SOL    HW1  306   0.839   0.664   0.346  2.4854  0.7803 -0.5434
   77SOL    HW2  307   0.809   0.535   0.430  0.7833 -2.2149  1.0059
   77SOL     MW  308   0.846   0.616   0.420 -0.0467 -0.0889  0.2050
   78SOL     OW  309   0.758   0.878   1.111  0.0611  0.8404 -0.2056
   78SOL    HW1  310   0.763   0.953   1.055 -1.6162 -3.2088 -2.2933
   78SOL    HW2  311   0.665   0.871   1.148 -1.3253 -0.4738  1.6746
   78SOL     MW  312   0.746   0.887   1.109 -0.3431  0.1328 -0.2329
   79SOL     OW  313   1.873   1.528   0.571 -0.1719 -0.5401 -0.2245
   79SOL    HW1  314   1.786   1.498   0.595 -1.5870 -2.2137  1.9980
   79SOL    HW2  315   1.909   1.547   0.654  0.6832  0.7847  0.4299
   79SOL     MW  316   1.866   1.527   0.585 -0.2458 -0.5861  0.1551
   80SOL     OW  317   0.101   1.009   0.318  0.2559  0.2312 -0.1795
   80SOL    HW1  318   0.063   0.927   0.281  1.1834  2.7865 -0.4466
   80SOL    HW2  319   0.179   0.969   0.358  0.5690  0.6915 -1.2142
   80SOL     MW  320   0.106   0.993   0.318  0.4196  0.6291 -0.3513
   81SOL     OW  321   1.789   1.874   0.339 -0.3288  0.0915  0.2555
   81SOL    HW1  322   1.789   1.789   0.303 -0.3219  0.6861  0.9522
   81SOL    HW2  323   1.738   1.926   0.267 -2.2461 -1.4215  1.2579
   81SOL     MW  324   1.783   1.870   0.325 -0.5808 -0.0297  0.4797
   82SOL     OW  325   0.930   1.049   0.514  0.7583 -0.2385  0.4709
   82SOL    HW1  326   0.894   1.098   0.440  0.6335  0.3285  1.4966
   82SOL    HW2  327   0.862   0.986   0.529  1.6384  0.3043 -1.3631
   82SOL     MW  328   0.916   1.047   0.506  0.8579 -0.0921  0.3642
   83SOL     OW  329   0.025   0.779   1.553  0.3901 -0.4212  0.1205
   83SOL    HW1  330   0.003   0.824   1.467 -0.6532 -2.1590  2.8590
   83SOL    HW2  331   0.108   0.738   1.544 -0.3802  0.4958  1.8192
   83SOL     MW  332   0.033   0.779   1.540  0.1508 -0.5295  0.7059
   84SOL     OW  333   0.045   0.190   0.919 -0.1096 -0.2239  0.2564
   84SOL    HW1  334   0.018   0.280   0.936  1.1294  0.1078 -0.6103
   84SOL    HW2  335   0.059   0.136   0.999  0.6696  0.0954  1.4581
   84SOL     MW  336   0.043   0.195   0.932  0.1567 -0.1380  0.3006
   85SOL     OW  337   0.377   0.476   0.743 -0.9253  0.3631  0.2966
   85SOL    HW1  338   0.369   0.508   0.651  2.4819 -2.0147 -0.7529
   85SOL    HW2  339   0.350   0.385   0.738 -0.4857  2.1535 -0.5042
   85SOL     MW  340   0.372   0.468   0.730 -0.4177  0.2856  0.0525
   86SOL     OW  341   1.234   0.273   1.180  0.0319  0.0457 -0.0698
   86SOL    HW1  342   1.201   0.364   1.167 -1.1901 -1.0986  0.9300
   86SOL    HW2  343   1.323   0.275   1.148  0.1945  0.7792 -1.0559
   86SOL     MW  344   1.242   0.285   1.174 -0.1078 -0.0085 -0.0680
   87SOL     OW  345   1.049   1.536   1.202 -0.2979  0.3908 -0.2510
   87SOL    HW1  346   1.107   1.593   1.156  1.9728 -1.7856 -0.3628
   87SOL    HW2  347   1.088   1.450   1.190  1.9025 -0.7896 -1.3048
   87SOL     MW  348   1.062   1.532   1.194  0.2920 -0.0521 -0.4048
   88SOL     OW  349   1.239   1.071   1.014 -0.5634  0.3720 -0.4190
   88SOL    HW1  350   1.331   1.104   1.027  1.1234 -0.9282  2.9481
   88SOL    HW2  351   1.183   1.129   1.067 -1.2283  0.2923  1.8897
   88SOL     MW  352   1.244   1.083   1.023 -0.4286  0.1900  0.3299
   89SOL     OW  353   1.763   0.702   0.258  0.4829 -0.3407 -0.4482
   89SOL    HW1  354   1.697   0.643   0.295  2.1521  0.2165  0.8289
   89SOL    HW2  355   1.850   0.698   0.297  0.3677  2.6189  0.3992
   89SOL     MW  356   1.766   0.694   0.268  0.6879  0.1233 -0.1679
   90SOL     OW  357   0.824   1.228   2.896 -0.4659  0.6746 -0.0440
   90SOL    HW1  358   0.896   1.170   2.894 -1.4066 -0.9083  0.7556
   90SOL    HW2  359   0.816   1.280   2.975  0.6287 -0.8108 -0.1159
   90SOL     MW  360   0.832   1.227   2.906 -0.4456  0.2698  0.0520
   91SOL     OW  361   2.186   0.620   0.459  0.2633 -0.4649  0.0701
   91SOL    HW1  362   2.257   0.645   0.404  0.7683  1.8558 -0.2291
   91SOL    HW2  363   2.182   0.526   0.455  1.0527  1.2064  1.1966
   91SOL     MW  364   2.195   0.611   0.451  0.4341  0.0618  0.1793
   92SOL     OW  365   1.636   0.960   0.550 -0.2371  0.0089 -0.0942
   92SOL    HW1  366   1.576   0.990   0.617  0.3179 -1.3637  0.7287
   92SOL    HW2  367   1.576   0.960   0.476 -0.8566  1.8076 -1.6569
   92SOL     MW  368   1.620   0.964   0.549 -0.2456  0.0651 -0.1918
   93SOL     OW  369   1.055   0.272   0.347 -0.4594  0.5816  0.0440
   93SOL    HW1  370   0.962   0.300   0.345 -0.5460 -1.8412 -1.6504
   93SOL    HW2  371   1.089   0.323   0.268  1.0533  1.8746 -1.1772
   93SOL     MW  372   1.047   0.282   0.336 -0.2712  0.4325 -0.3407
   94SOL     OW  373   1.863   1.390   1.588 -0.1822 -0.1371 -0.1947
   94SOL    HW1  374   1.831   1.389   1.495  1.2004  1.2830  0.3725
   94SOL    HW2  375   1.851   1.296   1.614 -0.5985 -1.2224  0.7411
   94SOL     MW  376   1.857   1.378   1.580 -0.0547 -0.0929  0.0036
   95SOL     OW  377   0.589   1.555   0.907 -0.0610 -0.1798 -0.1883
   95SOL    HW1  378   0.636   1.538   0.991 -2.6995  0.7969 -3.3837
   95SOL    HW2  379   0.572   1.468   0.872 -0.7059  0.8911  1.8512
   95SOL     MW  380   0.593   1.541   0.914 -0.4942  0.0903 -0.3408
   96SOL     OW  381   1.323   1.847   1.649  0.4631 -0.1433  0.0514
   96SOL    HW1  382   1.230   1.838   1.648 -0.5204  2.8437  2.0336
   96SOL    HW2  383   1.352   1.757   1.623  0.7205 -0.3708 -0.7560
   96SOL     MW  384   1.315   1.834   1.646  0.3673  0.2208  0.2064
   97SOL     OW  385   1.076   1.522   0.875  0.2132  0.5462 -0.9624
   97SOL    HW1  386   1.118   1.593   0.929  0.6755  1.4228  0.2905
   97SOL    HW2  387   0.996   1.562   0.838 -0.2771 -1.6214 -0.1079
   97SOL     MW  388   1.071   1.537   0.877  0.2095  0.3759 -0.6844
   98SOL     OW  389   1.333   1.394   1.181 -0.1330  0.3365 -0.2144
   98SOL    HW1  390   1.414   1.412   1.234  1.0225 -0.0951  2.8666
   98SOL    HW2  391   1.358   1.422   1.090  2.1255  1.8312 -0.4474
   98SOL     MW  392   1.347   1.400   1.176  0.3174  0.4768  0.1613
   99SOL     OW  393   1.490   0.291   1.308 -0.1155  0.4206  0.5019
   99SOL    HW1  394   1.493   0.389   1.273 -1.7759 -0.2028  2.2588
   99SOL    HW2  395   1.440   0.295   1.384  2.4970 -2.7751  1.5511
   99SOL     MW  396   1.484   0.304   1.313  0.0101 -0.0833  0.8721
  100SOL     OW  397   1.074   1.157   1.373  0.0092 -0.1504  0.2780
  100SOL    HW1  398   1.137   1.177   1.441  0.5969  2.7813 -1.7814
  100SOL    HW2  399   1.080   1.061   1.364  0.9063 -1.6942 -0.2103
  100SOL     MW  400   1.083   1.147   1.381  0.2051  0.0327 -0.0582
  101SOL     OW  401   0.548   1.210   0.417  0.3991 -0.0637 -0.1076
  101SOL    HW1  402   0.482   1.188   0.342 -1.4155  0.7341 -0.6647
  101SOL    HW2  403   0.642   1.187   0.392  0.0713  0.4174  2.5967
  101SOL     MW  404   0.552   1.204   0.404  0.1165  0.1050  0.1757
  102SOL     OW  405   2.916   0.644   1.097  0.3559 -0.1529 -0.9543
  102SOL    HW1  406   2.960   0.726   1.081  0.6580  0.4320  0.7868
  102SOL    HW2  407   2.915   0.626   1.193 -0.5781 -2.8870  1.9677
  102SOL     MW  408   2.921   0.652   1.108  0.2725 -0.4364 -0.3390
  103SOL     OW  409   1.864   0.249   1.816 -0.3296  0.1440 -0.3651
  103SOL    HW1  410   1.852   0.155   1.796  2.1629  2.1311 -0.1811
  103SOL    HW2  411   1.855   0.245   1.915  0.3909 -0.6131 -0.0450
  103SOL     MW  412   1.861   0.236   1.826  0.0943  0.3063 -0.2986
  104SOL     OW  413   0.087   1.508   1.657 -0.7861  0.3069 -0.1016
  104SOL    HW1  414   0.150   1.448   1.716 -0.4729 -1.3967  1.1649
  104SOL    HW2  415  -0.004   1.475   1.659  2.5256  1.3347 -0.5110
  104SOL     MW  416   0.083   1.496   1.665 -0.3079  0.2178  0.0115
  105SOL     OW  417   3.076   1.238   0.402  0.3288  0.0199  0.2108
  105SOL    HW1  418   3.125   1.158   0.400 -1.3709 -0.9544  0.2262
  105SOL    HW2  419   3.143   1.305   0.406  0.9146 -3.2463 -1.7302
  105SOL     MW  420   3.091   1.236   0.403  0.1818 -0.5396 -0.0432
  106SOL     OW  421   0.796   0.357   0.836 -0.1048 -0.6710 -0.4446
  106SOL    HW1  422   0.709   0.379   0.871 -1.2922 -3.3129  0.3386
  106SOL    HW2  423   0.858   0.419   0.872  1.1437 -0.0006  2.1736
  106SOL     MW  424   0.793   0.368   0.846 -0.0967 -0.9311  0.0042
  107SOL     OW  425   0.798   2.175   2.890  0.4105  0.3533 -0.2345
  107SOL    HW1  426   0.704   2.178   2.872  2.7800  1.6822  1.1347
  107SOL    HW2  427   0.803   2.160   2.988  0.8467  2.7610  0.9155
  107SOL     MW  428   0.786   2.173   2.900  0.7807  0.8463  0.0979
  108SOL     OW  429   1.373   1.577   1.645  0.1927  0.5549  0.0705
  108SOL    HW1  430   1.306   1.535   1.580 -1.3188  2.9368 -0.1430
  108SOL    HW2  431   1.446   1.517   1.645  3.4334 -0.5705  1.5091
  108SOL     MW  432   1.374   1.564   1.637  0.4209  0.7207  0.2322
  109SOL     OW  433   2.047   0.765   0.271 -0.6026  0.0665  0.9466
  109SOL    HW1  434   2.023   0.863   0.265 -1.3875  2.3556  1.4333
  109SOL    HW2  435   2.073   0.744   0.362  0.4638 -1.7397  1.3682
  109SOL     MW  436   2.047   0.775   0.282 -0.5654  0.1302  1.0665
  110SOL     OW  437   0.427   1.938   0.733  0.2662 -1.2649  0.2762
  110SOL    HW1  438   0.477   1.869   0.694  0.6286 -0.3588 -3.0072
  110SOL    HW2  439   0.436   2.016   0.676  1.2861  2.9937  0.4786
  110SOL     MW  440   0.435   1.939   0.720  0.4486 -0.5834 -0.1304
  111SOL     OW  441   0.848   0.892   1.362 -0.0376  0.2078  0.5211
  111SOL    HW1  442   0.822   0.877   1.269  2.4929  1.1464 -1.1255
  111SOL    HW2  443   0.820   0.805   1.400 -2.5590 -2.2572  1.0235
  111SOL     MW  444   0.841   0.878   1.355 -0.0364  0.0064  0.3702
  112SOL     OW  445   1.390   1.085   1.580  0.7270  0.7115 -0.5430
  112SOL    HW1  446   1.311   1.142   1.590  0.1638  0.0817  1.6368
  112SOL    HW2  447   1.359   1.005   1.619  2.5064 -0.1735 -2.6319
  112SOL     MW  448   1.376   1.082   1.586  0.8875  0.5117 -0.5310
  113SOL     OW  449   1.218   3.026   1.684 -0.7260  0.0204  0.0572
  113SOL    HW1  450   1.201   2.983   1.768  1.5654 -1.4070  0.5629
  113SOL    HW2  451   1.214   2.959   1.619  1.0692  0.1397  0.4539
  113SOL     MW  452   1.215   3.012   1.687 -0.1868 -0.1522  0.1763
  114SOL     OW  453   0.259   2.885   1.841 -0.0819 -0.6108 -1.2902
  114SOL    HW1  454   0.347   2.918   1.859  4.1431 -1.1480 -0.5213
  114SOL    HW2  455   0.197   2.958   1.864 -0.1301 -0.6544 -0.9558
  114SOL     MW  456   0.262   2.899   1.847  0.4692 -0.6874 -1.1447
  115SOL     OW  457   0.505   0.826   1.177  0.8568  0.2518 -0.1115
  115SOL    HW1  458   0.497   0.733   1.199  0.5381  1.5052  0.4180
  115SOL    HW2  459   0.467   0.875   1.255 -0.7666  0.8605  4.3293
  115SOL     MW  460   0.499   0.820   1.190  0.6005  0.4975  0.5443
  116SOL     OW  461   0.752   1.117   0.969 -0.5323  0.0751  0.3589
  116SOL    HW1  462   0.794   1.132   0.878 -1.5815  1.5565 -2.5370
  116SOL    HW2  463   0.817   1.161   1.024 -4.7952 -0.2579  1.5092
  116SOL     MW  464   0.766   1.125   0.964 -1.2332  0.2266  0.1286
  117SOL     OW  465   1.124   1.252   0.825 -0.3575  0.1777 -0.1551
  117SOL    HW1  466   1.170   1.192   0.878 -0.6937  0.9105 -2.5754
  117SOL    HW2  467   1.107   1.345   0.857  0.2721  1.2012 -0.4685
  117SOL     MW  468   1.128   1.256   0.836 -0.3188  0.4095 -0.5158
  118SOL     OW  469   3.027   2.955   1.756 -0.4136 -0.5238  0.8735
  118SOL    HW1  470   3.061   3.033   1.806 -2.2100  1.1570 -1.5846
  118SOL    HW2  471   2.932   2.979   1.744 -2.7150  3.0289 -0.7031
  118SOL     MW  472   3.019   2.968   1.761 -0.9542  0.1667  0.3411
  119SOL     OW  473   0.379   1.548   1.252 -0.5091 -0.3577 -0.1346
  119SOL    HW1  474   0.434   1.613   1.203  0.7545 -0.5072  1.6624
  119SOL    HW2  475   0.294   1.545   1.211 -1.0584 -2.4031  2.4614
  119SOL     MW  476   0.375   1.556   1.240 -0.4149 -0.6473  0.4450
  120SOL     OW  477   0.253   0.793   0.987 -0.0593  0.0572 -0.1052
  120SOL    HW1  478   0.322   0.826   1.046  1.2592  0.5477 -2.1915
  120SOL    HW2  479   0.273   0.821   0.900 -1.5493 -0.6937  0.2873
  120SOL     MW  480   0.265   0.801   0.983 -0.0819  0.0228 -0.3287
  121SOL     OW  481   1.786   1.121   1.620 -0.5393  0.2292 -0.0367
  121SOL    HW1  482   1.703   1.152   1.596 -0.1564  0.4816  0.5948
  121SOL    HW2  483   1.796   1.038   1.568  2.9736  3.0452 -1.0555
  121SOL     MW  484   1.777   1.114   1.610 -0.0253  0.6341 -0.0878
  122SOL     OW  485   0.127   0.618   0.849 -0.1779  0.8187  0.1486
  122SOL    HW1  486   0.192   0.604   0.786 -0.9436 -2.1296 -1.3616
  122SOL    HW2  487   0.167   0.672   0.918  1.7409  1.1446  1.3224
  122SOL     MW  488   0.141   0.623   0.850 -0.0257  0.4727  0.1042
  123SOL     OW  489   1.878   1.107   0.542 -0.0222 -0.2954  0.2842
  123SOL    HW1  490   1.801   1.047   0.548  2.2781 -2.2454 -0.4592
  123SOL    HW2  491   1.912   1.105   0.631  1.8145  0.8455  1.0611
  123SOL     MW  492   1.872   1.098   0.554  0.5237 -0.4021  0.2886
  124SOL     OW  493   0.547   0.468   0.962  0.6150 -0.9823  0.3904
  124SOL    HW1  494   0.481   0.458   0.891  1.4658  1.4677  0.0341
  124SOL    HW2  495   0.579   0.558   0.954  1.9740 -0.9412  0.3253
  124SOL     MW  496   0.543   0.479   0.952  0.9066 -0.6536  0.3348
  125SOL     OW  497   0.684   1.731   1.808 -0.1960  0.1975  0.0040
  125SOL    HW1  498   0.664   1.699   1.720 -0.1964  1.7128 -0.1977
  125SOL    HW2  499   0.633   1.816   1.800 -0.2262  0.0532 -2.6197
  125SOL     MW  500   0.675   1.738   1.795 -0.2001  0.3784 -0.3688
  126SOL     OW  501   2.164   1.516   1.926 -0.3612 -0.1172 -0.4621
  126SOL    HW1  502   2.228   1.578   1.896 -0.3100 -2.8503  0.1667
  126SOL    HW2  503   2.219   1.434   1.941 -2.8408 -2.3409 -1.0881
  126SOL     MW  504   2.180   1.513   1.924 -0.6816 -0.7712 -0.4618
  127SOL     OW  505   0.538   0.795   1.791  0.0000 -0.6865  0.5868
  127SOL    HW1  506   0.633   0.781   1.791  3.3118  1.4709 -0.3951
  127SOL    HW2  507   0.517   0.860   1.860  1.6205 -0.6648  0.0787
  127SOL     MW  508   0.548   0.802   1.800  0.6508 -0.3990  0.3902
  128SOL     OW  509   1.748   0.720   2.885  0.0626  0.4377  0.6429
  128SOL    HW1  510   1.794   0.707   2.799  1.6775 -1.7724 -4.2730
  128SOL    HW2  511   1.714   0.809   2.884 -0.3350  1.0699  0.7029
  128SOL     MW  512   1.750   0.730   2.874  0.2232  0.2295  0.0022
  129SOL     OW  513   1.580   0.922   0.191  0.0761 -0.3142 -0.2573
  129SOL    HW1  514   1.514   0.859   0.160  1.4291 -1.1131  1.7152
  129SOL    HW2  515   1.660   0.869   0.190 -1.7660  0.9118  0.6934
  129SOL     MW  516   1.582   0.906   0.187  0.0116 -0.2578  0.1284
  130SOL     OW  517   0.827   1.435   0.329 -0.3343 -0.3446 -0.1299
  130SOL    HW1  518   0.823   1.468   0.425  0.9251  0.7672 -0.6360
  130SOL    HW2  519   0.917   1.461   0.303  2.6491 -0.6550 -2.3916
  130SOL     MW  520   0.838   1.443   0.338  0.2255 -0.2388 -0.4951
  131SOL     OW  521   0.034   0.777   0.062  0.5663  0.2086  0.4472
  131SOL    HW1  522   0.019   0.783  -0.033  0.4503 -0.2276 -1.4805
  131SOL    HW2  523   0.124   0.810   0.069 -0.9268 -0.9867 -1.2457
  131SOL     MW  524   0.044   0.782   0.050  0.3540 -0.0067 -0.0305
  132SOL     OW  525   2.737   0.100   1.259 -0.0781 -0.2877  0.0353
  132SOL    HW1  526   2.773   0.122   1.174  1.8137  0.7351 -3.0078
  132SOL    HW2  527   2.649   0.051   1.246 -1.6547 -2.8150 -0.8841
  132SOL     MW  528   2.730   0.096   1.246 -0.0365 -0.4862 -0.4875
  133SOL     OW  529   1.056   0.135   1.661  0.4416 -0.0442  0.8576
  133SOL    HW1  530   1.111   0.051   1.667  0.5112 -2.1394  2.0098
  133SOL    HW2  531   1.039   0.158   1.753  0.3223  1.1040  0.4339
  133SOL     MW  532   1.061   0.127   1.674  0.4351 -0.1691  0.9537
  134SOL     OW  533   1.412   2.429   1.492 -0.1392  0.1697  0.0285
  134SOL    HW1  534   1.377   2.479   1.418  2.3480  0.6022  1.1077
  134SOL    HW2  535   1.446   2.484   1.565 -0.4254 -1.7222 -1.3866
  134SOL     MW  536   1.412   2.443   1.492  0.1512 -0.0228 -0.0158
  135SOL     OW  537   2.990   0.994   2.983  0.2284 -0.1460 -0.0192
  135SOL    HW1  538   3.073   1.046   2.980  0.6733 -0.2682  0.7751
  135SOL    HW2  539   2.931   1.066   2.948  2.7682  3.3642  1.3573
  135SOL     MW  540   2.993   1.011   2.978  0.6222  0.3010  0.2672
  136SOL     OW  541   0.191   1.972   0.868 -0.6229 -0.6205 -0.0658
  136SOL    HW1  542   0.126   1.923   0.815  2.2668  2.5506 -1.4381
  136SOL    HW2  543   0.276   1.963   0.822 -1.9493  0.2423  0.8866
  136SOL     MW  544   0.193   1.964   0.855 -0.4166 -0.0883 -0.1212
  137SOL     OW  545   0.726   2.042   0.557  0.7398  0.7416  0.0860
  137SOL    HW1  546   0.756   2.066   0.648 -1.5155 -0.6728  1.9920
  137SOL    HW2  547   0.629   2.064   0.552  2.2475 -0.2247  1.0525
  137SOL     MW  548   0.717   2.048   0.569  0.6412  0.4275  0.4650
  138SOL     OW  549   0.465   0.550   1.232  0.4619  0.4380 -0.0847
  138SOL    HW1  550   0.365   0.547   1.237 -2.1127 -1.1196 -0.9093
  138SOL    HW2  551   0.487   0.518   1.145  0.5249 -0.0086 -0.9169
  138SOL     MW  552   0.455   0.546   1.221  0.1305  0.1736 -0.3033
  139SOL     OW  553   2.844   0.560   1.349  0.4035 -0.4093  0.4168
  139SOL    HW1  554   2.890   0.478   1.327  0.0008  0.1148  1.8816
  139SOL    HW2  555   2.874   0.584   1.438 -1.7055  0.0013 -0.3838
  139SOL     MW  556   2.854   0.552   1.358  0.0721 -0.2860  0.5044
  140SOL     OW  557   0.882   0.450   1.965 -0.3659 -0.2443  0.3427
  140SOL    HW1  558   0.926   0.369   1.943 -0.4884 -1.3178 -0.5332
  140SOL    HW2  559   0.894   0.467   2.057 -1.7728 -1.8211 -0.0879
  140SOL     MW  560   0.890   0.442   1.974 -0.5677 -0.5940  0.1703
  141SOL     OW  561   1.019   0.621   1.623  0.2718 -0.9180 -0.1742
  141SOL    HW1  562   1.038   0.529   1.601 -0.9184 -0.6010 -0.9332
  141SOL    HW2  563   1.091   0.641   1.680  2.4490  0.3093  0.6988
  141SOL     MW  564   1.031   0.612   1.628  0.4020 -0.7142 -0.1592
  142SOL     OW  565   0.869   1.215   0.735 -0.0631 -0.0164  0.0992
  142SOL    HW1  566   0.889   1.159   0.658  2.3447  1.6105 -0.1129
  142SOL    HW2  567   0.957   1.207   0.771  1.3743  0.4233  1.0957
  142SOL     MW  568   0.884   1.206   0.730  0.4442  0.2563  0.2027
  143SOL     OW  569   1.833   0.668   1.046 -0.5343  0.5214 -0.7174
  143SOL    HW1  570   1.874   0.671   0.961  3.0483  0.5691  3.2564
  143SOL    HW2  571   1.747   0.704   1.023 -0.2459  1.4879  1.5826
  143SOL     MW  572   1.827   0.673   1.032 -0.0236  0.6552  0.1103
  144SOL     OW  573   0.259   1.320   1.744 -0.1653 -0.1687 -0.4046
  144SOL    HW1  574   0.338   1.367   1.710 -0.2366 -0.7656 -0.4209
  144SOL    HW2  575   0.284   1.276   1.831 -2.3563 -2.3648 -2.1655
  144SOL     MW  576   0.272   1.320   1.751 -0.4638 -0.5372 -0.6391
  145SOL     OW  577   0.154   0.450   1.246  0.0082 -0.1211 -0.1501
  145SOL    HW1  578   0.192   0.359   1.249 -0.2521  1.6063  2.5748
  145SOL    HW2  579   0.087   0.446   1.175 -0.0011  0.8043 -1.7931
  145SOL     MW  580   0.150   0.438   1.237 -0.0274  0.2289 -0.0073
  146SOL     OW  581   0.819   1.915   1.434 -0.3477  0.5309  0.0831
  146SOL    HW1  582   0.835   1.949   1.343 -0.8127 -0.6999  0.9288
  146SOL    HW2  583   0.751   1.850   1.430 -1.2324  0.2468  0.5862
  146SOL     MW  584   0.812   1.911   1.422 -0.5258  0.3311  0.2611
  147SOL     OW  585   0.440   0.475   2.919  0.3143  0.3936 -0.0851
  147SOL    HW1  586   0.372   0.506   2.981  1.5473 -0.6016  1.8959
  147SOL    HW2  587   0.444   0.540   2.851 -3.5715  1.5308  1.0943
  147SOL     MW  588   0.432   0.488   2.918 -0.0357  0.4123  0.3319
  148SOL     OW  589   0.074   0.907   1.317 -0.1064 -0.3086 -0.2376
  148SOL    HW1  590   0.166   0.926   1.309  2.4969  1.4116  1.2194
  148SOL    HW2  591   0.038   0.994   1.328  0.9657 -1.9537  2.5500
  148SOL     MW  592   0.082   0.921   1.317  0.3785 -0.2987  0.3225
  149SOL     OW  593   1.582   1.156   1.416  0.1843  0.0107 -0.4766
  149SOL    HW1  594   1.512   1.123   1.477 -2.4698 -2.6367  1.6535
  149SOL    HW2  595   1.561   1.243   1.383 -0.4714  0.0712  0.1022
  149SOL     MW  596   1.570   1.163   1.420 -0.2524 -0.3306 -0.1192
  150SOL     OW  597   1.729   1.424   0.895 -0.5200  1.0493  0.1562
  150SOL    HW1  598   1.795   1.354   0.884  1.1502  2.5797  0.4050
  150SOL    HW2  599   1.778   1.506   0.890  1.8950 -1.1597 -1.2759
  150SOL     MW  600   1.744   1.426   0.893  0.0190  0.9598  0.0001
  151SOL     OW  601   1.675   1.903   0.822 -0.4390 -0.1907 -0.1448
  151SOL    HW1  602   1.644   1.890   0.730  0.3025  1.2668  1.6734
  151SOL    HW2  603   1.602   1.877   0.874  0.0718 -0.1755 -0.5695
  151SOL     MW  604   1.662   1.898   0.817 -0.2738  0.0036  0.0391
  152SOL     OW  605   0.671   1.394   1.567 -0.6727  0.0314 -0.0060
  152SOL    HW1  606   0.760   1.418   1.527 -1.9281 -3.6421 -1.1445
  152SOL    HW2  607   0.653   1.309   1.532 -0.9609  1.7392 -4.1388
  152SOL     MW  608   0.681   1.386   1.557 -0.8763 -0.2279 -0.7015
  153SOL     OW  609   2.572   1.213   0.712  0.5917  0.5529 -0.5378
  153SOL    HW1  610   2.654   1.177   0.680 -1.4465 -0.2321  1.2698
  153SOL    HW2  611   2.525   1.130   0.744  1.1589 -1.7134  2.1634
  153SOL     MW  612   2.576   1.197   0.712  0.3976  0.1503  0.0571
  154SOL     OW  613   0.112   1.774   1.778  0.6482 -0.1445  0.5459
  154SOL    HW1  614   0.067   1.688   1.754 -1.7105 -1.3788 -1.3431
  154SOL    HW2  615   0.192   1.749   1.821 -0.9617  1.7261 -1.3691
  154SOL     MW  616   0.117   1.759   1.780  0.1246 -0.0606  0.0440
  155SOL     OW  617   1.222   0.737   0.281  0.0982 -0.0084 -0.5279
  155SOL    HW1  618   1.186   0.701   0.372 -0.9581  0.6534 -0.5573
  155SOL    HW2  619   1.202   0.832   0.299 -0.3460  0.5167 -0.0353
  155SOL     MW  620   1.214   0.745   0.295 -0.0998  0.1482 -0.4668
  156SOL     OW  621   1.538   3.089   1.083  0.2084  0.2918  0.0354
  156SOL    HW1  622   1.593   3.146   1.130  0.4155  0.7209 -1.7144
  156SOL    HW2  623   1.592   3.012   1.070  1.8163  1.1522  0.6996
  156SOL     MW  624   1.553   3.086   1.088  0.4479  0.4619 -0.1078
  157SOL     OW  625   1.337   1.171   0.140 -0.5958  0.2624  1.0646
  157SOL    HW1  626   1.397   1.118   0.186 -0.3120  1.2273 -1.8427
  157SOL    HW2  627   1.373   1.258   0.155 -1.4418 -1.4723  0.9276
  157SOL     MW  628   1.350   1.175   0.148 -0.6700  0.1609  0.6630
  158SOL     OW  629   0.430   1.661   2.256 -0.3191 -0.3247 -0.2705
  158SOL    HW1  630   0.495   1.701   2.199  0.7282  0.0160 -0.6658
  158SOL    HW2  631   0.370   1.732   2.270 -0.3725 -1.3616 -1.0771
  158SOL     MW  632   0.431   1.676   2.251 -0.1879 -0.4166 -0.4291
  159SOL     OW  633   1.183   1.632   0.521 -0.0866 -0.0186  0.6984
  159SOL    HW1  634   1.134   1.606   0.440 -0.9076 -3.0039  0.7417
  159SOL    HW2  635   1.126   1.696   0.571  0.3719  2.8000  0.9869
  159SOL     MW  636   1.169   1.637   0.517 -0.1344 -0.0406  0.7421
  160SOL     OW  637   0.515   1.182   1.557  0.2090  0.0959  0.2083
  160SOL    HW1  638   0.462   1.112   1.607 -0.2401 -0.3386 -2.0269
  160SOL    HW2  639   0.598   1.136   1.535 -1.2316 -0.1755 -1.4941
  160SOL     MW  640   0.519   1.167   1.561 -0.0403  0.0028 -0.3112
  161SOL     OW  641   0.417   2.242   2.648  0.3709 -0.6170 -0.0297
  161SOL    HW1  642   0.366   2.318   2.616 -1.9220  3.3204  0.1460
  161SOL    HW2  643   0.440   2.175   2.575 -3.3401 -1.0213 -0.7239
  161SOL     MW  644   0.413   2.243   2.634 -0.4213 -0.1509 -0.0981
  162SOL     OW  645   1.072   1.816   1.776 -0.3629  0.2011  0.4789
  162SOL    HW1  646   1.054   1.908   1.786 -0.4156 -1.4825  1.0627
  162SOL    HW2  647   1.020   1.777   1.844  0.3132  2.1370  0.6423
  162SOL     MW  648   1.062   1.823   1.786 -0.2806  0.2344  0.5775
  163SOL     OW  649   2.118   3.094   0.849 -0.3375  0.2609 -0.2277
  163SOL    HW1  650   2.108   3.161   0.783 -0.9161 -1.1739 -0.0404
  163SOL    HW2  651   2.067   3.012   0.810  1.2416 -1.6992 -3.4947
  163SOL     MW  652   2.110   3.092   0.835 -0.2055 -0.1870 -0.6340
  164SOL     OW  653   0.302   0.215   0.803 -0.3179 -0.1474  0.0484
  164SOL    HW1  654   0.208   0.216   0.821  0.3718  0.2507  0.7072
  164SOL    HW2  655   0.320   0.136   0.752 -1.2766  2.9370 -2.2504
  164SOL     MW  656   0.292   0.204   0.799 -0.3534  0.3121 -0.1680
  165SOL     OW  657   1.217   1.291   0.348  0.2156  0.0875  0.3715
  165SOL    HW1  658   1.243   1.267   0.443  0.9880 -1.3336 -0.4587
  165SOL    HW2  659   1.260   1.226   0.287  0.5535  2.2232  0.7555
  165SOL     MW  660   1.226   1.279   0.353  0.3621  0.1818  0.3126
  166SOL     OW  661   0.477   1.134   1.034  0.1388  1.0579 -0.1204
  166SOL    HW1  662   0.459   1.179   1.121 -1.1175  0.5458  2.6050
  166SOL    HW2  663   0.573   1.133   1.011 -0.5248  3.3239  0.2895
  166SOL     MW  664   0.488   1.140   1.042 -0.1145  1.2893  0.2932
  167SOL     OW  665   0.807   1.168   0.298  0.1620  0.4911  0.1506
  167SOL    HW1  666   0.804   1.267   0.288 -1.4192  1.2326  0.3191
  167SOL    HW2  667   0.884   1.146   0.236  0.5070  1.1799 -3.3675
  167SOL     MW  668   0.817   1.178   0.288 -0.0011  0.6798 -0.2913
  168SOL     OW  669   1.724   1.618   3.046  0.0155  0.0922 -0.1180
  168SOL    HW1  670   1.673   1.688   3.002 -2.4676 -0.1754 -0.1982
  168SOL    HW2  671   1.676   1.541   3.018  0.3238  0.3627 -0.6904
  168SOL     MW  672   1.711   1.617   3.036 -0.2715  0.0926 -0.2041
  169SOL     OW  673   0.329   1.020   1.344 -0.1933 -0.3561 -0.7530
  169SOL    HW1  674   0.336   0.998   1.438 -1.4693 -0.2444 -2.7662
  169SOL    HW2  675   0.318   1.116   1.335  0.1628  1.3250  1.7069
  169SOL     MW  676   0.329   1.030   1.355 -0.3147 -0.1196 -0.6941
  170SOL     OW  677   1.150   1.506   1.469 -0.5021  0.2250 -0.4308
  170SOL    HW1  678   1.087   1.572   1.502 -2.4448 -2.4034  2.9772
  170SOL    HW2  679   1.142   1.507   1.372 -2.1418  1.5687 -0.1957
  170SOL     MW  680   1.141   1.514   1.460 -0.9748  0.0555  0.0498
  171SOL     OW  681   0.513   1.464   0.531 -0.4502 -0.3252  0.8745
  171SOL    HW1  682   0.421   1.502   0.527  3.0786  1.8106 -0.5795
  171SOL    HW2  683   0.512   1.365   0.501 -1.8730 -3.9420 -0.2120
  171SOL     MW  684   0.501   1.456   0.526 -0.1723 -0.5206  0.5393
  172SOL     OW  685   0.758   0.299   1.275  0.6501  0.3057 -0.2679
  172SOL    HW1  686   0.735   0.263   1.186 -0.3916  1.0907  0.8348
  172SOL    HW2  687   0.800   0.220   1.314  2.1109 -2.3692  0.1858
  172SOL     MW  688   0.760   0.284   1.268  0.7054  0.0563 -0.0626
  173SOL     OW  689   0.557   1.733   0.316 -0.0950 -0.7471  0.0033
  173SOL    HW1  690   0.550   1.645   0.291  3.2293  3.1416  1.7138
  173SOL    HW2  691   0.622   1.743   0.388  1.6891  0.1642 -0.3938
  173SOL     MW  692   0.564   1.723   0.322  0.5790 -0.1138  0.1766
  174SOL     OW  693   1.876   0.860   1.494  0.9071  0.3121 -0.1156
  174SOL    HW1  694   1.834   0.781   1.534 -0.4028  1.5663  1.9596
  174SOL    HW2  695   1.854   0.847   1.398 -2.5591 -0.6946  0.5765
  174SOL     MW  696   1.867   0.848   1.487  0.2769  0.3448  0.2495
  175SOL     OW  697   0.570   1.485   0.154 -0.0346 -0.1998  0.1780
  175SOL    HW1  698   0.552   1.394   0.133  1.2757  0.2739 -1.1705
  175SOL    HW2  699   0.669   1.491   0.160 -1.7528  0.4600  1.3245
  175SOL     MW  700   0.581   1.474   0.152 -0.0884 -0.0503  0.1513
  176SOL     OW  701   0.113   1.491   1.193 -0.3681  0.1231  0.2400
  176SOL    HW1  702   0.130   1.436   1.110 -0.7726 -0.6183 -4.0503
  176SOL    HW2  703   0.039   1.445   1.233 -0.1779  0.4848 -0.3512
  176SOL     MW  704   0.106   1.477   1.187 -0.3964  0.0730 -0.4041
  177SOL     OW  705   0.515   0.330   1.420 -1.0097  0.2118 -0.0420
  177SOL    HW1  706   0.604   0.318   1.387 -0.4515 -0.3471 -1.4839
  177SOL    HW2  707   0.505   0.422   1.444 -1.1899 -1.3377 -1.4548
  177SOL     MW  708   0.526   0.340   1.419 -0.9598 -0.0664 -0.4186
  178SOL     OW  709   3.073   0.490   3.012 -0.6478  0.4787  0.7786
  178SOL    HW1  710   3.030   0.542   3.076  0.9240 -1.6249 -1.7505
  178SOL    HW2  711   3.039   0.519   2.928  2.0666 -0.0825 -3.9411
  178SOL     MW  712   3.063   0.500   3.009 -0.0823  0.1271 -0.1778
  179SOL     OW  713   1.542   1.468   1.331 -0.5321  0.0383  0.1885
  179SOL    HW1  714   1.530   1.477   1.423 -1.3251 -0.4865 -2.5894
  179SOL    HW2  715   1.638   1.458   1.311 -1.8209  0.7846 -0.3158
  179SOL     MW  716   1.553   1.468   1.341 -0.8068  0.0675 -0.2446
  180SOL     OW  717   3.099   0.284   0.440  0.5856 -0.3784 -0.1577
  180SOL    HW1  718   3.063   0.286   0.355 -0.7285  1.0006 -0.5022
  180SOL    HW2  719   3.153   0.365   0.440  0.4075  2.3689 -1.4675
  180SOL     MW  720   3.101   0.295   0.429  0.3887  0.1660 -0.3759
  181SOL     OW  721   1.096   1.289   3.088 -0.3339  0.4147 -0.0409
  181SOL    HW1  722   1.141   1.371   3.115 -3.2737 -0.4787 -1.2843
  181SOL    HW2  723   1.161   1.215   3.073 -1.3773 -2.8799  1.6499
  181SOL     MW  724   1.111   1.290   3.090 -0.8594 -0.1378  0.0181
  182SOL     OW  725   0.373   0.966   1.637 -0.0810 -0.1490 -0.2622
  182SOL    HW1  726   0.305   0.959   1.709  3.0713 -1.1380 -0.5457
  182SOL    HW2  727   0.429   0.899   1.677 -2.3707 -2.0409 -1.6368
  182SOL     MW  728   0.371   0.956   1.652  0.0328 -0.5291 -0.4810
  183SOL     OW  729   1.576   1.752   1.291  0.1459  0.4505  0.1220
  183SOL    HW1  730   1.677   1.752   1.300 -0.9642 -0.4634 -0.3157
  183SOL    HW2  731   1.548   1.660   1.300  0.9259  2.3245  2.6085
  183SOL     MW  732   1.586   1.740   1.293  0.1023  0.5772  0.3923
  184SOL     OW  733   0.804   0.720   1.778  0.0875 -0.2505 -0.2158
  184SOL    HW1  734   0.893   0.718   1.744  1.4324  2.0166  0.7732
  184SOL    HW2  735   0.793   0.632   1.812  1.4839 -2.8455 -0.1585
  184SOL     MW  736   0.814   0.708   1.778  0.4492 -0.2938 -0.0778
  185SOL     OW  737   1.117   0.962   1.857  0.6704 -0.1459 -0.2674
  185SOL    HW1  738   1.096   0.878   1.899  1.0467  1.7280  2.0773
  185SOL    HW2  739   1.147   1.010   1.939  1.0175 -2.2832  1.8778
  185SOL     MW  740   1.118   0.957   1.873  0.7659 -0.1806  0.3250
  186SOL     OW  741   0.284   1.614   1.483 -0.1537  0.0636  0.1566
  186SOL    HW1  742   0.317   1.558   1.416 -3.1492  0.1696  0.1661
  186SOL    HW2  743   0.204   1.575   1.521  0.3967 -2.6748  2.4583
  186SOL     MW  744   0.278   1.602   1.479 -0.4763 -0.2837  0.4616
  187SOL     OW  745   1.425   0.759   1.387 -0.3850 -0.2735 -0.1698
  187SOL    HW1  746   1.455   0.741   1.476 -0.0319  0.2830 -0.1696
  187SOL    HW2  747   1.337   0.724   1.367 -2.5578  2.1576  0.1798
  187SOL     MW  748   1.418   0.752   1.396 -0.6251  0.1207 -0.1237
  188SOL     OW  749   1.899   1.198   0.855  0.1103 -0.1033  0.3598
  188SOL    HW1  750   1.913   1.195   0.952  0.5410  1.9146  3.2085
  188SOL    HW2  751   1.937   1.110   0.834 -1.1463 -3.0078  2.5767
  188SOL     MW  752   1.906   1.186   0.865  0.0013 -0.2203  1.0281
  189SOL     OW  753   0.682   0.722   0.866  0.2137 -0.3979 -0.1683
  189SOL    HW1  754   0.596   0.762   0.849  2.5970  0.1702  1.9213
  189SOL    HW2  755   0.715   0.758   0.950 -1.7133  1.4663 -0.8281
  189SOL     MW  756   0.675   0.732   0.875  0.2739 -0.0770  0.0204
  190SOL     OW  757   1.870   0.299   2.091 -0.2514  0.2710 -0.7351
  190SOL    HW1  758   1.859   0.290   2.192  0.6169  1.6449  2.9471
  190SOL    HW2  759   1.949   0.364   2.089  2.2371 -0.0932  0.0294
  190SOL     MW  760   1.879   0.306   2.104  0.1915  0.4042 -0.1484
  191SOL     OW  761   1.547   0.973   1.232  0.4047 -0.2702 -0.5348
  191SOL    HW1  762   1.568   1.033   1.302  0.7398 -0.5756  0.6987
  191SOL    HW2  763   1.507   0.899   1.280  0.4847 -0.3668  0.9351
  191SOL     MW  764   1.544   0.971   1.248  0.4595 -0.3232 -0.1781
  192SOL     OW  765   0.540   2.190   2.891 -0.6456  0.0698  0.5561
  192SOL    HW1  766   0.478   2.227   2.832 -1.4103  2.1373  1.1940
  192SOL    HW2  767   0.525   2.102   2.861  0.0278  1.0680 -0.0840
  192SOL     MW  768   0.530   2.183   2.880 -0.6576  0.4743  0.5558
  193SOL     OW  769   0.828   1.644   0.809 -0.7216  0.1768 -0.2470
  193SOL    HW1  770   0.726   1.652   0.823 -3.2278 -0.8697  3.1404
  193SOL    HW2  771   0.832   1.575   0.738  0.4360  2.6741  1.8148
  193SOL     MW  772   0.815   1.636   0.801 -0.8996  0.3682  0.4719
  194SOL     OW  773   0.469   1.327   0.817 -0.4160 -0.0303  0.7369
  194SOL    HW1  774   0.464   1.263   0.893  2.2645  0.1942 -0.7570
  194SOL    HW2  775   0.384   1.369   0.811 -0.5330 -1.1121 -0.3528
  194SOL     MW  776   0.457   1.324   0.826 -0.0778 -0.1434  0.3960
  195SOL     OW  777   1.278   1.089   2.988 -0.7698 -0.1665  0.3677
  195SOL    HW1  778   1.312   1.103   3.074 -0.1551 -1.7990 -0.9302
  195SOL    HW2  779   1.206   1.029   2.999 -0.2068 -1.2828 -0.9042
  195SOL     MW  780   1.273   1.083   3.001 -0.6144 -0.5291  0.0287
  196SOL     OW  781   2.265   1.025   0.586 -0.1760 -0.3301 -0.5343
  196SOL    HW1  782   2.278   0.990   0.495 -2.4351  2.0108  0.6740
  196SOL    HW2  783   2.241   1.119   0.576 -2.0451 -0.5290  0.6683
  196SOL     MW  784   2.264   1.033   0.573 -0.7207 -0.0475 -0.2162
  197SOL     OW  785   0.632   1.358   2.195 -0.7394  0.0476 -0.4908
  197SOL    HW1  786   0.636   1.282   2.140  0.8976  0.3282 -0.8551
  197SOL    HW2  787   0.685   1.422   2.144 -0.7086 -1.6563  0.4475
  197SOL     MW  788   0.639   1.356   2.181 -0.5193 -0.1402 -0.4151
  198SOL     OW  789   2.937   1.433   0.975 -0.0104 -0.0196  0.0174
  198SOL    HW1  790   2.951   1.522   0.949 -1.5130  0.4186  0.7373
  198SOL    HW2  791   2.848   1.404   0.959  0.7312  1.4942 -1.7906
  198SOL     MW  792   2.927   1.441   0.970 -0.1108  0.2379 -0.1261
  199SOL     OW  793   0.681   1.305   1.820 -0.7524 -0.5175  0.1190
  199SOL    HW1  794   0.585   1.291   1.829 -2.4359 -0.6669  0.6977
  199SOL    HW2  795   0.688   1.348   1.730  0.4719  0.1970 -0.8524
  199SOL     MW  796   0.669   1.309   1.809 -0.8130 -0.4429  0.0672
  200SOL     OW  797   1.839   2.922   1.323 -0.3202  0.2897 -0.4867
  200SOL    HW1  798   1.897   2.965   1.256  0.6095  1.1507 -3.2226
  200SOL    HW2  799   1.768   2.997   1.344 -0.9457  2.6143 -1.5303
  200SOL     MW  800   1.837   2.938   1.317 -0.2800  0.7100 -0.9854
  201SOL     OW  801   1.176   0.330   0.808  0.3800 -0.0962  0.1239
  201SOL    HW1  802   1.135   0.241   0.820  2.4104 -0.2044  1.4442
  201SOL    HW2  803   1.268   0.314   0.833 -0.5349 -2.7617 -0.2017
  201SOL     MW  804   1.183   0.316   0.813  0.5272 -0.4622  0.2552
  202SOL     OW  805   1.504   1.747   0.981  0.0574 -0.8230  0.0798
  202SOL    HW1  806   1.498   1.653   0.959 -1.2330  1.8340  0.5664
  202SOL    HW2  807   1.542   1.750   1.064  1.2959 -3.0776 -3.7171
  202SOL     MW  808   1.508   1.735   0.989  0.0506 -0.7699 -0.3570
  203SOL     OW  809   3.010   0.351   1.308  0.0834 -0.1646 -0.1394
  203SOL    HW1  810   3.032   0.261   1.316  1.8720 -2.1032 -3.4193
  203SOL    HW2  811   3.100   0.384   1.321  1.7537  1.7922 -1.7208
  203SOL     MW  812   3.025   0.344   1.311  0.5398 -0.1622 -0.7808
  204SOL     OW  813   1.021   1.789   0.650 -0.0040  0.5244  0.4231
  204SOL    HW1  814   0.964   1.751   0.717 -0.1261 -1.3606  1.6202
  204SOL    HW2  815   0.960   1.815   0.582 -0.0394 -2.2728  0.9519
  204SOL     MW  816   1.005   1.788   0.650 -0.0248 -0.0933  0.6508
  205SOL     OW  817   1.390   3.037   1.317  0.2924 -0.1864  0.0137
  205SOL    HW1  818   1.402   3.059   1.224  0.0037 -2.8601 -1.7625
  205SOL    HW2  819   1.319   3.093   1.350 -0.5018 -1.3477 -1.6244
  205SOL     MW  820   1.382   3.047   1.309  0.1495 -0.6924 -0.4368
  206SOL     OW  821   0.397   2.964   1.348 -0.2174 -0.6553  0.0931
  206SOL    HW1  822   0.378   2.923   1.263 -0.8645 -0.5230 -0.1571
  206SOL    HW2  823   0.487   2.993   1.347  0.6594 -0.6129 -0.8095
  206SOL     MW  824   0.406   2.962   1.336 -0.1871 -0.6323 -0.0590
  207SOL     OW  825   0.867   1.779   0.202  0.1450 -0.1969 -0.0517
  207SOL    HW1  826   0.932   1.828   0.151 -2.6976  1.0965 -2.0500
  207SOL    HW2  827   0.907   1.701   0.241 -0.5038 -0.1617 -2.7746
  207SOL     MW  828   0.881   1.775   0.200 -0.3156 -0.0216 -0.6746
  208SOL     OW  829   0.779   1.567   1.384  0.0351 -0.3860 -0.5961
  208SOL    HW1  830   0.867   1.602   1.357  1.0699 -0.1729 -3.0049
  208SOL    HW2  831   0.760   1.531   1.303 -0.8020  2.8205  0.6391
  208SOL     MW  832   0.788   1.567   1.369  0.0612  0.0652 -0.7509
  209SOL     OW  833   1.544   0.517   2.847  0.5095 -0.3633 -0.1046
  209SOL    HW1  834   1.603   0.571   2.897  0.9729 -0.2212 -0.3999
  209SOL    HW2  835   1.590   0.431   2.827  0.9613 -0.9171  0.3338
  209SOL     MW  836   1.557   0.513   2.851  0.6303 -0.4176 -0.0858
  210SOL     OW  837   1.465   1.466   0.951 -0.1051 -0.2723  0.0466
  210SOL    HW1  838   1.550   1.428   0.925  2.4948 -0.3895  1.3687
  210SOL    HW2  839   1.410   1.471   0.870 -2.2781  0.9264  1.2665
  210SOL     MW  840   1.469   1.462   0.937 -0.0488 -0.1296  0.3820
  211SOL     OW  841   1.727   0.361   0.948 -0.0778  0.4204 -0.5320
  211SOL    HW1  842   1.726   0.374   0.850 -2.9627  2.2582 -0.5937
  211SOL    HW2  843   1.815   0.359   0.986 -2.2686  1.5135 -1.9048
  211SOL     MW  844   1.738   0.362   0.940 -0.7475  0.8071 -0.7213
  212SOL     OW  845   0.331   1.147   0.236  0.4738  0.3540 -0.4293
  212SOL    HW1  846   0.248   1.098   0.253  1.4314  1.1393  0.9254
  212SOL    HW2  847   0.382   1.086   0.180  1.5366  0.7903 -3.5657
  212SOL     MW  848   0.327   1.132   0.231  0.7404  0.5152 -0.6644
  213SOL     OW  849   0.369   1.870   3.024  0.0294  0.0506 -0.1219
  213SOL    HW1  850   0.410   1.896   3.106 -1.7073 -0.5536 -2.2470
  213SOL    HW2  851   0.427   1.905   2.949  0.4652 -0.0054 -2.4264
  213SOL     MW  852   0.382   1.878   3.025 -0.1423 -0.0365 -0.7064
  214SOL     OW  853   0.589   0.298   2.120 -0.0595  0.0296  0.1525
  214SOL    HW1  854   0.521   0.365   2.131 -4.8887  2.7244  0.6023
  214SOL    HW2  855   0.647   0.313   2.043  1.8722 -0.5924 -1.2376
  214SOL     MW  856   0.588   0.309   2.111 -0.4418  0.3031  0.0284
  215SOL     OW  857   0.501   0.547   2.535  0.0690  0.0033  0.3194
  215SOL    HW1  858   0.450   0.595   2.475  0.0163  0.2752  0.8927
  215SOL    HW2  859   0.431   0.495   2.575  0.2144 -3.4511 -2.3932
  215SOL     MW  860   0.485   0.547   2.532  0.0813 -0.4166  0.0372
  216SOL     OW  861   2.920   3.085   2.718 -0.1759 -0.2357  0.0096
  216SOL    HW1  862   2.884   3.081   2.810 -0.4982  2.3962  1.3101
  216SOL    HW2  863   2.939   3.186   2.699  0.8157  1.5753  0.4289
  216SOL     MW  864   2.917   3.098   2.728 -0.0876  0.3505  0.2365
  217SOL     OW  865   1.011   1.075   0.158 -0.4139 -0.0257  0.2850
  217SOL    HW1  866   1.008   1.009   0.089 -0.9347  2.4840  1.2389
  217SOL    HW2  867   1.053   1.149   0.105  1.7589  0.7168  0.4931
  217SOL     MW  868   1.016   1.076   0.142 -0.1959  0.4034  0.4383
  218SOL     OW  869   0.854   1.374   2.643 -0.5612  0.6936  0.0297
  218SOL    HW1  870   0.862   1.327   2.730 -0.2900 -3.1965 -1.3489
  218SOL    HW2  871   0.943   1.412   2.625 -0.3060 -1.2948 -1.2998
  218SOL     MW  872   0.867   1.373   2.652 -0.4918 -0.0820 -0.3276
  219SOL     OW  873   1.044   0.406   2.617  0.1537  0.1923 -0.1633
  219SOL    HW1  874   1.101   0.463   2.666 -1.5134 -1.2353  0.8121
  219SOL    HW2  875   0.959   0.455   2.618  1.2579  0.5270  0.2171
  219SOL     MW  876   1.040   0.420   2.624  0.0795  0.0481  0.0156
  220SOL     OW  877   1.737   0.526   2.175  0.3806  0.4973 -0.2266
  220SOL    HW1  878   1.644   0.537   2.145 -0.8250  0.1793  3.3117
  220SOL    HW2  879   1.761   0.450   2.120 -1.2653  0.6561 -0.5037
  220SOL     MW  880   1.728   0.517   2.164  0.0044  0.4763  0.2037
  221SOL     OW  881   0.363   1.336   2.930  0.6470  0.2234 -0.2991
  221SOL    HW1  882   0.409   1.255   2.932  0.7433  1.9310  1.9536
  221SOL    HW2  883   0.396   1.379   2.856 -0.4409  2.4044  1.8715
  221SOL     MW  884   0.373   1.331   2.920  0.5161  0.7365  0.2845
  222SOL     OW  885   0.505   0.958   2.692 -0.2132 -0.5323  0.6188
  222SOL    HW1  886   0.425   0.965   2.643  0.9774 -0.6819 -0.6536
  222SOL    HW2  887   0.520   0.869   2.720  0.4249  2.7771  1.2004
  222SOL     MW  888   0.496   0.947   2.689  0.0281 -0.1154  0.5277
  223SOL     OW  889   0.011   2.043   2.521 -0.6599 -0.5757 -0.3518
  223SOL    HW1  890   0.054   2.019   2.605  1.5635 -0.2041 -0.8544
  223SOL    HW2  891   0.015   2.141   2.534  1.0641  0.6418  0.9604
  223SOL     MW  892   0.017   2.053   2.534 -0.1391 -0.3661 -0.2450
  224SOL     OW  893   1.447   0.711   2.456 -0.0682 -0.1369 -0.2277
  224SOL    HW1  894   1.500   0.679   2.529  3.2191 -1.6712  0.5294
  224SOL    HW2  895   1.449   0.802   2.485 -0.3650 -0.9595 -0.5767
  224SOL     MW  896   1.454   0.719   2.470  0.3263 -0.4479 -0.1739
  225SOL     OW  897   2.917   1.462   2.314 -0.1150  0.5307 -0.0546
  225SOL    HW1  898   2.960   1.537   2.277  0.3822 -1.4222  0.5724
  225SOL    HW2  899   2.841   1.494   2.366  0.6801 -2.2269  0.5867
  225SOL     MW  900   2.913   1.476   2.316  0.0555 -0.0908  0.1127
  226SOL     OW  901   0.427   1.486   2.713  0.0185  0.1488  0.0106
  226SOL    HW1  902   0.519   1.504   2.690 -1.9657  1.4360 -3.0726
  226SOL    HW2  903   0.385   1.570   2.695 -0.0451  2.7862 -2.4173
  226SOL     MW  904   0.433   1.500   2.707 -0.2517  0.6666 -0.7165
  227SOL     OW  905   0.546   1.146   2.921  0.1046 -0.2126 -0.5467
  227SOL    HW1  906   0.619   1.179   2.874 -2.6183 -1.6515  1.4063
  227SOL    HW2  907   0.505   1.071   2.874 -0.7618 -0.0864 -0.0941
  227SOL     MW  908   0.550   1.141   2.909 -0.3689 -0.3858 -0.2293
  228SOL     OW  909   0.743   1.136   2.043 -0.2276  0.2900 -0.2216
  228SOL    HW1  910   0.732   1.190   1.966 -1.5405  0.0652  2.7561
  228SOL    HW2  911   0.820   1.172   2.086 -0.5665  1.1349 -0.7670
  228SOL     MW  912   0.752   1.148   2.038 -0.4455  0.3718  0.0993
  229SOL     OW  913   0.256   0.553   3.084 -0.1554 -0.4332  0.1957
  229SOL    HW1  914   0.163   0.550   3.046  1.5469 -0.7400 -0.7206
  229SOL    HW2  915   0.240   0.479   3.151 -1.2917 -1.2812  0.7692
  229SOL     MW  916   0.242   0.543   3.088 -0.0807 -0.5855  0.1504
  230SOL     OW  917   1.792   1.362   2.019 -0.1310 -0.5552  0.4398
  230SOL    HW1  918   1.742   1.324   2.088  0.7920 -0.3595 -2.0648
  230SOL    HW2  919   1.873   1.316   2.007 -2.6691  0.1273 -1.4428
  230SOL     MW  920   1.796   1.351   2.026 -0.3441 -0.4393 -0.1390
  231SOL     OW  921   2.707   1.227   2.268  0.0533 -0.4066 -0.0606
  231SOL    HW1  922   2.765   1.290   2.318 -0.6432  3.0091 -3.3684
  231SOL    HW2  923   2.664   1.280   2.204 -2.8971  1.2200  1.6179
  231SOL     MW  924   2.709   1.243   2.266 -0.4279  0.2586 -0.2756
  232SOL     OW  925   2.293   0.842   1.935 -0.2632  0.9589 -0.3573
  232SOL    HW1  926   2.196   0.846   1.907 -0.2909 -1.1313  0.9990
  232SOL    HW2  927   2.293   0.828   2.027 -0.2247  0.1998 -1.2686
  232SOL     MW  928   2.280   0.841   1.944 -0.2618  0.5829 -0.2986
  233SOL     OW  929   2.100   0.421   2.083 -0.1218  0.0329  0.1128
  233SOL    HW1  930   2.151   0.350   2.042  0.0984 -1.7426 -0.1206
  233SOL    HW2  931   2.147   0.450   2.157  2.0754 -0.2938  1.8183
  233SOL     MW  932   2.113   0.416   2.087  0.1972 -0.2445  0.3070
  234SOL     OW  933   0.222   1.038   2.655 -0.2093  0.3642  0.2304
  234SOL    HW1  934   0.165   1.018   2.580  0.6763  2.3147 -3.3593
  234SOL    HW2  935   0.249   1.132   2.629  0.3802  0.2752 -0.6559
  234SOL     MW  936   0.218   1.048   2.642 -0.0147  0.6098 -0.3602
  235SOL     OW  937   1.128   3.015   2.821  0.5362 -0.0475  0.0159
  235SOL    HW1  938   1.167   3.016   2.908  2.9461  1.7218 -1.9451
  235SOL    HW2  939   1.119   3.114   2.816  4.2183 -0.9854 -2.4450
  235SOL     MW  940   1.132   3.028   2.832  1.3400  0.0622 -0.5675
  236SOL     OW  941   2.956   0.620   0.221 -0.1726  0.2269 -0.1016
  236SOL    HW1  942   2.944   0.636   0.314 -0.6239 -0.0202 -0.1768
  236SOL    HW2  943   3.031   0.664   0.186  0.7003 -1.0220  1.9436
  236SOL     MW  944   2.964   0.628   0.229 -0.1170  0.0295  0.1583
  237SOL     OW  945   1.924   1.084   2.157 -0.4921  0.8601  0.8842
  237SOL    HW1  946   1.829   1.106   2.154 -2.0988  0.2274 -1.1577
  237SOL    HW2  947   1.933   1.028   2.079  0.2035 -0.2181 -2.8306
  237SOL     MW  948   1.913   1.080   2.146 -0.6123  0.6344  0.1247
  238SOL     OW  949   1.081   1.735   2.942 -0.2848 -0.0786 -0.2591
  238SOL    HW1  950   1.018   1.668   2.921 -2.7535  0.1125 -2.0771
  238SOL    HW2  951   1.165   1.687   2.934 -1.3806 -1.9182  1.8112
  238SOL     MW  952   1.084   1.720   2.938 -0.7551 -0.2961 -0.2258
  239SOL     OW  953   1.180   1.290   2.316  0.1697  0.0926  0.7900
  239SOL    HW1  954   1.099   1.260   2.279 -0.2202  0.8990  0.9499
  239SOL    HW2  955   1.164   1.249   2.404  0.0324 -1.7152 -2.6246
  239SOL     MW  956   1.168   1.281   2.323  0.1001 -0.0395  0.3605
  240SOL     OW  957   0.583   0.877   2.229 -0.0991 -0.7174  0.7109
  240SOL    HW1  958   0.611   0.921   2.320  0.5507  2.3030  3.8070
  240SOL    HW2  959   0.670   0.874   2.185 -1.8631  2.2308 -0.6798
  240SOL     MW  960   0.598   0.882   2.236 -0.2461  0.0701  0.9359
  241SOL     OW  961   0.667   0.445   3.065  0.3030  0.0377  0.0136
  241SOL    HW1  962   0.681   0.521   3.118 -0.9113 -2.4743  0.1579
  241SOL    HW2  963   0.577   0.462   3.030  0.2146  0.6960 -0.7009
  241SOL     MW  964   0.657   0.457   3.067  0.1311 -0.2068 -0.0617
  242SOL     OW  965   1.514   1.671   2.317  0.0925 -0.4472 -0.2401
  242SOL    HW1  966   1.462   1.751   2.311 -1.3573  3.0716  0.8785
  242SOL    HW2  967   1.470   1.612   2.251 -0.6766  0.5817  0.3781
  242SOL     MW  968   1.501   1.674   2.308 -0.2003  0.1528 -0.0109
  243SOL     OW  969   1.037   0.323   2.356  0.0038 -0.2641  0.2167
  243SOL    HW1  970   1.108   0.257   2.356 -1.8732 -0.4794  0.6347
  243SOL    HW2  971   1.021   0.353   2.444 -2.3642  1.3413  0.8581
  243SOL     MW  972   1.044   0.318   2.368 -0.5563 -0.0807  0.3565
  244SOL     OW  973   0.126   0.741   2.380  0.3895 -0.1304 -0.0787
  244SOL    HW1  974   0.103   0.834   2.362 -0.1440  1.8537 -2.7353
  244SOL    HW2  975   0.215   0.741   2.349  1.1015 -0.5672 -1.5741
  244SOL     MW  976   0.135   0.754   2.373  0.4130  0.0737 -0.6265
  245SOL     OW  977   1.285   0.173   2.405 -0.6668  0.0654  0.5730
  245SOL    HW1  978   1.360   0.161   2.339  0.9915 -3.1509 -1.2058
  245SOL    HW2  979   1.302   0.110   2.486 -0.6162  2.5909  2.5430
  245SOL     MW  980   1.297   0.163   2.407 -0.4413 -0.0257  0.5982
  246SOL     OW  981   1.237   1.101   2.093  0.0311  0.2131  0.0760
  246SOL    HW1  982   1.174   1.128   2.158 -2.4570 -0.3339  0.8966
  246SOL    HW2  983   1.325   1.081   2.139  1.8319  1.5058  0.7254
  246SOL     MW  984   1.240   1.102   2.108 -0.0596  0.3115  0.2700
  247SOL     OW  985   0.764   0.651   0.131 -0.3469  0.0769  0.2714
  247SOL    HW1  986   0.741   0.743   0.110  2.6494  1.7594 -0.9714
  247SOL    HW2  987   0.862   0.639   0.113 -2.3030 -2.8625 -0.3744
  247SOL     MW  988   0.774   0.661   0.126 -0.2097 -0.0890  0.0222
  248SOL     OW  989   0.296   1.289   2.537 -0.3209  0.5023  0.1650
  248SOL    HW1  990   0.294   1.318   2.440 -1.2327 -1.1660 -0.6683
  248SOL    HW2  991   0.325   1.368   2.585  1.2378 -3.1921  0.1005
  248SOL     MW  992   0.299   1.303   2.530 -0.2356 -0.2053  0.0465
  249SOL     OW  993   2.972   1.936   2.786 -0.3120  0.0760 -0.3434
  249SOL    HW1  994   2.931   1.852   2.770 -1.4636 -0.0894 -0.7485
  249SOL    HW2  995   3.051   1.911   2.833 -1.3882  0.6655 -0.1975
  249SOL     MW  996   2.977   1.921   2.790 -0.6060  0.1320 -0.3776
  250SOL     OW  997   2.211   0.813   2.195  0.6156  0.5293  0.0404
  250SOL    HW1  998   2.178   0.725   2.227 -0.5664 -6.5858  0.5425
  250SOL    HW2  999   2.147   0.879   2.212 -0.5963  0.9662 -3.5872
  250SOL     MW 1000   2.198   0.810   2.201  0.2997 -0.3518 -0.3720
  251SOL     OW 1001   0.127   0.877   2.052  0.0577  0.2822  0.3506
  251SOL    HW1 1002   0.077   0.797   2.077 -1.3799 -2.7107  1.2580
  251SOL    HW2 1003   0.129   0.876   1.955 -0.3770 -1.3089  2.2711
  251SOL     MW 1004   0.121   0.866   2.042 -0.1893 -0.3226  0.7237
  252SOL     OW 1005   1.680   0.968   2.847  0.0865 -0.0957  0.2386
  252SOL    HW1 1006   1.675   1.014   2.933  2.3619 -2.5451  2.9832
  252SOL    HW2 1007   1.757   1.015   2.801  2.2113 -1.3292 -1.3930
  252SOL     MW 1008   1.690   0.980   2.852  0.6671 -0.5816  0.3854
  253SOL     OW 1009   1.180   1.723   2.460  0.0222  0.2514  0.3356
  253SOL    HW1 1010   1.143   1.674   2.386 -2.7301 -0.4407  1.5430
  253SOL    HW2 1011   1.096   1.740   2.506  1.4338  1.8550 -4.0833
  253SOL     MW 1012   1.164   1.719   2.456 -0.1547  0.3717 -0.0881
  254SOL     OW 1013   0.957   1.126   2.222  0.0825  0.3003 -0.1155
  254SOL    HW1 1014   0.918   1.037   2.240 -1.5815  0.3687  3.2717
  254SOL    HW2 1015   0.913   1.171   2.298 -1.9170 -0.2204  0.5839
  254SOL     MW 1016   0.946   1.120   2.235 -0.4009  0.2406  0.4237
  255SOL     OW 1017   0.839   2.561   2.117  0.3839  0.1229 -0.0701
  255SOL    HW1 1018   0.755   2.516   2.112  1.2636  2.0645  0.2732
  255SOL    HW2 1019   0.917   2.518   2.141 -2.2185  3.2685 -1.1432
  255SOL     MW 1020   0.838   2.550   2.119  0.1566  0.7941 -0.1664
  256SOL     OW 1021   1.231   2.763   2.996  0.7379 -0.0851 -0.0384
  256SOL    HW1 1022   1.252   2.677   3.036  0.8118 -0.6420  0.3815
  256SOL    HW2 1023   1.305   2.773   2.932  1.3305 -0.7151 -2.6711
  256SOL     MW 1024   1.243   2.753   2.993  0.8259 -0.2417 -0.3304
  257SOL     OW 1025   0.023   1.879   0.113  0.0689 -0.1203  0.3590
  257SOL    HW1 1026   0.101   1.871   0.170 -0.6376  2.9939 -1.4061
  257SOL    HW2 1027   0.038   1.873   0.018 -1.4228 -0.1300 -1.3323
  257SOL     MW 1028   0.035   1.877   0.108 -0.2211  0.2893 -0.0971
  258SOL     OW 1029   0.652   1.004   2.466  0.7315  0.0321  0.3369
  258SOL    HW1 1030   0.710   1.077   2.468 -3.2327 -0.6698  1.0078
  258SOL    HW2 1031   0.602   0.993   2.545 -0.6176  0.2346 -0.0894
  258SOL     MW 1032   0.653   1.012   2.477  0.0305 -0.0338  0.3691
  259SOL     OW 1033   0.839   0.495   2.258  0.3184 -0.3269 -0.5067
  259SOL    HW1 1034   0.760   0.446   2.253  0.6338 -2.5366 -0.8354
  259SOL    HW2 1035   0.904   0.438   2.299 -1.7308 -1.1357  1.2809
  259SOL     MW 1036   0.837   0.481   2.263  0.0896 -0.7252 -0.3142
  260SOL     OW 1037   0.653   0.135   1.579  0.0435  0.5350  0.2782
  260SOL    HW1 1038   0.606   0.184   1.518  0.7369 -1.0162  1.0599
  260SOL    HW2 1039   0.730   0.107   1.534  0.0578  0.8715  0.4624
  260SOL     MW 1040   0.657   0.138   1.565  0.1369  0.3747  0.4056
  261SOL     OW 1041   1.040   0.705   1.994  0.4787  0.4340 -0.1605
  261SOL    HW1 1042   1.081   0.698   2.078  0.0706  0.6386 -1.2671
  261SOL    HW2 1043   0.983   0.632   1.991 -0.2776  0.6045 -1.1753
  261SOL     MW 1044   1.038   0.694   2.005  0.3251  0.4835 -0.4404
  262SOL     OW 1045   1.144   0.394   0.101 -0.4820  0.0155 -0.0103
  262SOL    HW1 1046   1.242   0.385   0.114  1.4953  1.9320  0.9413
  262SOL    HW2 1047   1.124   0.327   0.031  1.9199 -1.8402 -0.3786
  262SOL     MW 1048   1.154   0.384   0.094  0.0958  0.0235  0.0667
  263SOL     OW 1049   0.377   0.021   2.532  0.1306  0.1069  0.6611
  263SOL    HW1 1050   0.288   0.055   2.537  3.4182 -0.2765  2.5262
  263SOL    HW2 1051   0.434   0.066   2.468 -0.4406 -0.8560  1.3193
  263SOL     MW 1052   0.373   0.031   2.524  0.4890 -0.0707  0.9940
  264SOL     OW 1053   1.527   1.454   1.931 -0.1409  0.7121 -0.2847
  264SOL    HW1 1054   1.466   1.384   1.910  0.5557 -0.7685  1.0879
  264SOL    HW2 1055   1.610   1.411   1.934 -2.5310  2.6234 -1.3302
  264SOL     MW 1056   1.530   1.439   1.929 -0.3643  0.7689 -0.2415
  265SOL     OW 1057   0.728   2.828   2.276 -0.1525  0.3858  0.2228
  265SOL    HW1 1058   0.785   2.749   2.259 -0.9468  0.2373 -2.5237
  265SOL    HW2 1059   0.690   2.820   2.364  0.2458  1.7551  1.2046
  265SOL     MW 1060   0.730   2.816   2.285 -0.2048  0.5469 -0.0100
  266SOL     OW 1061   0.841   0.885   2.154 -0.5875 -0.2449  0.5791
  266SOL    HW1 1062   0.818   0.963   2.100 -2.3094 -0.8909 -1.1021
  266SOL    HW2 1063   0.879   0.831   2.095 -1.1417 -0.2990 -0.2480
  266SOL     MW 1064   0.843   0.888   2.139 -0.8878 -0.3373  0.2481
  267SOL     OW 1065   1.369   1.675   2.665 -0.0258 -0.0593  0.2387
  267SOL    HW1 1066   1.445   1.633   2.635  1.2787  2.0321 -1.1453
  267SOL    HW2 1067   1.316   1.685   2.586 -0.4470 -1.1905  2.1880
  267SOL     MW 1068   1.372   1.671   2.651  0.0908  0.0674  0.3133
  268SOL     OW 1069   0.145   0.894   1.771 -0.7612  0.1224 -0.3542
  268SOL    HW1 1070   0.138   0.983   1.728 -0.7970  3.0306  1.4755
  268SOL    HW2 1071   0.113   0.847   1.693 -0.4646 -2.9218  0.7592
  268SOL     MW 1072   0.140   0.900   1.755 -0.7268  0.1044  0.0341
  269SOL     OW 1073   1.301   1.892   2.297  0.3771  0.3065 -0.0968
  269SOL    HW1 1074   1.337   1.967   2.343 -1.6230  1.3566 -2.3589
  269SOL    HW2 1075   1.248   1.843   2.366 -1.3566  0.3840 -0.5667
  269SOL     MW 1076   1.299   1.895   2.312 -0.1155  0.4553 -0.4573
  270SOL     OW 1077   1.115   0.361   1.552 -0.4361  0.3863 -0.5861
  270SOL    HW1 1078   1.078   0.283   1.593 -0.2718 -0.5500  0.5337
  270SOL    HW2 1079   1.208   0.361   1.581 -1.5754  0.1231 -0.8074
  270SOL     MW 1080   1.123   0.350   1.561 -0.5648  0.2281 -0.4676
  271SOL     OW 1081   0.899   0.134   2.489  0.3518  0.1559 -0.2178
  271SOL    HW1 1082   0.960   0.073   2.525  0.5794  1.9428  0.4720
  271SOL    HW2 1083   0.950   0.190   2.429 -1.2191 -2.5393  0.4967
  271SOL     MW 1084   0.914   0.133   2.486  0.1746  0.0361 -0.0325
  272SOL     OW 1085   1.471   2.784   2.816  0.4892  0.0745 -0.1118
  272SOL    HW1 1086   1.428   2.788   2.732  0.5851 -0.2664  1.2727
  272SOL    HW2 1087   1.516   2.867   2.830  0.4241 -2.4331  0.7268
  272SOL     MW 1088   1.471   2.796   2.807  0.4933 -0.3013  0.1815
  273SOL     OW 1089   1.422   0.816   2.774  0.3796  0.2635  0.3094
  273SOL    HW1 1090   1.503   0.767   2.769  2.3470  0.1935  1.0650
  273SOL    HW2 1091   1.446   0.909   2.768 -0.6626 -1.7343  4.4059
  273SOL     MW 1092   1.436   0.822   2.773  0.5017 -0.0093  0.9496
  274SOL     OW 1093   1.450   0.661   0.142 -0.3104 -0.7163 -0.3185
  274SOL    HW1 1094   1.493   0.593   0.195  0.7682  0.8794  1.0233
  274SOL    HW2 1095   1.365   0.682   0.187 -1.0629 -0.5287 -3.3342
  274SOL     MW 1096   1.444   0.655   0.155 -0.2673 -0.4811 -0.5394
  275SOL     OW 1097   1.808   0.543   1.742  0.2374 -0.0919 -0.2494
  275SOL    HW1 1098   1.865   0.569   1.819  0.9703 -0.9791  1.9625
  275SOL    HW2 1099   1.811   0.448   1.752  0.0514 -1.7876 -0.0102
  275SOL     MW 1100   1.816   0.534   1.754  0.3096 -0.4327  0.0740
  276SOL     OW 1101   0.433   1.200   1.922 -0.3069  0.1215  0.3319
  276SOL    HW1 1102   0.452   1.109   1.960 -0.9933 -1.0104  3.0746
  276SOL    HW2 1103   0.372   1.234   1.995 -1.7541 -1.5050  1.5671
  276SOL     MW 1104   0.428   1.192   1.936 -0.5884 -0.2424  0.8567
  277SOL     OW 1105   1.970   1.111   2.440 -0.1414  0.9173 -0.0116
  277SOL    HW1 1106   2.000   1.202   2.441  0.0736  1.3178 -1.9776
  277SOL    HW2 1107   1.946   1.088   2.351 -2.9510  0.9808  1.5709
  277SOL     MW 1108   1.971   1.120   2.428 -0.4837  0.9785 -0.0622
  278SOL     OW 1109   1.416   0.626   1.703 -0.9440  0.0897 -0.5348
  278SOL    HW1 1110   1.409   0.562   1.783 -1.1168 -1.5304  3.5687
  278SOL    HW2 1111   1.503   0.640   1.671 -1.9167 -1.4640 -0.2077
  278SOL     MW 1112   1.427   0.620   1.709 -1.0952 -0.3291  0.0498
  279SOL     OW 1113   0.514   0.092   2.283 -0.1076  0.6873 -0.5954
  279SOL    HW1 1114   0.608   0.063   2.276  0.9125 -2.0847 -1.2180
  279SOL    HW2 1115   0.528   0.175   2.235 -2.3077  0.4107 -2.7096
  279SOL     MW 1116   0.528   0.099   2.276 -0.2633  0.2851 -0.9565
  280SOL     OW 1117   1.467   1.075   2.217 -0.2544 -0.3043  0.1968
  280SOL    HW1 1118   1.494   1.000   2.168 -1.5979  0.0992  2.2493
  280SOL    HW2 1119   1.449   1.049   2.310 -1.4930 -0.6853 -0.2527
  280SOL     MW 1120   1.468   1.062   2.223 -0.5950 -0.3013  0.4083
  281SOL     OW 1121   1.325   1.154   2.730  0.0769  0.1431  0.2221
  281SOL    HW1 1122   1.411   1.199   2.735  0.0769 -3.5029  1.8753
  281SOL    HW2 1123   1.300   1.134   2.820 -0.6282  2.6174  1.5423
  281SOL     MW 1124   1.333   1.157   2.743 -0.0161 -0.0115  0.6144
  282SOL     OW 1125   1.187   1.264   1.592 -0.1249 -0.3802 -0.0185
  282SOL    HW1 1126   1.149   1.336   1.548  1.4595 -1.0758  0.8253
  282SOL    HW2 1127   1.103   1.216   1.629 -2.7872  0.0334  3.7895
  282SOL     MW 1128   1.171   1.267   1.591 -0.2671 -0.4174  0.5953
  283SOL     OW 1129   0.815   1.398   0.003 -0.3252 -0.3183 -0.4926
  283SOL    HW1 1130   0.910   1.382   0.001  0.3716 -1.5660 -1.3189
  283SOL    HW2 1131   0.808   1.483  -0.041 -2.9096  0.2006  2.7554
  283SOL     MW 1132   0.827   1.407  -0.003 -0.5742 -0.4145 -0.1731
  284SOL     OW 1133   0.386   0.698   2.316 -0.2978  0.2759 -0.0977
  284SOL    HW1 1134   0.471   0.755   2.298  0.0564 -0.0084 -3.3341
  284SOL    HW2 1135   0.390   0.639   2.234  0.2008 -1.5595 -1.7615
  284SOL     MW 1136   0.398   0.697   2.303 -0.1853 -0.0038 -0.7442
  285SOL     OW 1137   0.885   0.826   2.878  0.0460 -0.5106 -0.2221
  285SOL    HW1 1138   0.894   0.858   2.789 -2.4620 -0.5355 -1.2518
  285SOL    HW2 1139   0.823   0.757   2.879 -0.4331  3.1902 -0.0089
  285SOL     MW 1140   0.878   0.821   2.866 -0.3481 -0.0256 -0.3299
  286SOL     OW 1141   1.110   1.461   2.631 -0.1865  0.1023  0.9363
  286SOL    HW1 1142   1.175   1.400   2.611  0.8875  0.6346  0.2807
  286SOL    HW2 1143   1.143   1.546   2.597 -3.8632 -0.3310  0.7077
  286SOL     MW 1144   1.123   1.464   2.624 -0.5299  0.1154  0.8197
  287SOL     OW 1145   1.178   0.982   0.367 -0.7223 -0.7780 -0.3043
  287SOL    HW1 1146   1.123   0.988   0.442  2.4886 -1.7125  0.3271
  287SOL    HW2 1147   1.120   1.016   0.291  0.8198  1.1898 -1.8401
  287SOL     MW 1148   1.163   0.987   0.367 -0.0952 -0.6416 -0.4237
  288SOL     OW 1149   1.469   0.618   2.140  0.1923 -0.0060  0.3455
  288SOL    HW1 1150   1.420   0.563   2.214  1.2879 -0.8473  2.9092
  288SOL    HW2 1151   1.475   0.709   2.151  0.8886 -2.1800 -1.9035
  288SOL     MW 1152   1.463   0.622   2.151  0.4287 -0.4039  0.3871
  289SOL     OW 1153   0.910   0.952   2.602 -0.6359  0.1126  0.0974
  289SOL    HW1 1154   0.955   0.893   2.547 -1.5903 -1.5368  1.2785
  289SOL    HW2 1155   0.820   0.954   2.568  1.6870  0.3803  1.0508
  289SOL     MW 1156   0.904   0.944   2.590 -0.4553 -0.0697  0.3790
  290SOL     OW 1157   0.771   0.654   1.469 -0.8211 -0.1733  0.4649
  290SOL    HW1 1158   0.801   0.581   1.416  0.0286  0.5578 -0.2850
  290SOL    HW2 1159   0.835   0.656   1.542 -0.8446  0.7840  1.0128
  290SOL     MW 1160   0.784   0.645   1.472 -0.7121  0.0495  0.4383
  291SOL     OW 1161   0.241   0.332   0.138  0.1493  0.0002 -0.2002
  291SOL    HW1 1162   0.333   0.309   0.169  0.3237  0.6553 -0.8760
  291SOL    HW2 1163   0.214   0.249   0.101 -0.3764  0.5637 -0.9751
  291SOL     MW 1164   0.250   0.318   0.137  0.1030  0.1610 -0.3916
  292SOL     OW 1165   1.026   0.624   0.108  0.1434  0.0768  0.0380
  292SOL    HW1 1166   1.089   0.665   0.165 -1.5282 -0.2761  1.4487
  292SOL    HW2 1167   1.065   0.531   0.097 -1.0892 -0.0135  3.2431
  292SOL     MW 1168   1.039   0.617   0.114 -0.2398  0.0184  0.6470
  293SOL     OW 1169   0.099   0.085   2.565  0.0978 -0.6731  0.1632
  293SOL    HW1 1170   0.073   0.043   2.482  0.4808 -1.7086  2.4020
  293SOL    HW2 1171   0.015   0.110   2.607 -0.8526  0.1523  1.6680
  293SOL     MW 1172   0.084   0.082   2.559  0.0230 -0.7009  0.6572
  294SOL     OW 1173   1.345   0.468   2.342  0.5844 -0.6748 -0.1147
  294SOL    HW1 1174   1.360   0.529   2.413 -0.1583  2.4196 -0.0923
  294SOL    HW2 1175   1.299   0.397   2.383 -2.0752  2.8353  0.2363
  294SOL     MW 1176   1.340   0.467   2.357  0.1355  0.1966 -0.0654
  295SOL     OW 1177   0.843   0.613   2.545 -0.2424 -0.1785  0.2683
  295SOL    HW1 1178   0.814   0.584   2.456 -0.5426 -2.4482 -1.2769
  295SOL    HW2 1179   0.765   0.625   2.607 -1.1375  2.1041 -2.4564
  295SOL     MW 1180   0.829   0.610   2.542 -0.4001 -0.1768 -0.2950
  296SOL     OW 1181   1.288   0.280   2.058  0.6608  0.3964 -0.1424
  296SOL    HW1 1182   1.362   0.219   2.062  2.3537  2.2286  1.6611
  296SOL    HW2 1183   1.285   0.318   2.149  0.7681  2.0239  0.7017
  296SOL     MW 1184   1.298   0.277   2.071  0.8983  0.8528  0.2069
  297SOL     OW 1185   1.362   0.376   1.608 -0.4166 -0.1365  0.0848
  297SOL    HW1 1186   1.387   0.465   1.625  0.6406  0.0002 -1.7939
  297SOL    HW2 1187   1.425   0.319   1.653 -0.5406 -0.9395  0.5778
  297SOL     MW 1188   1.374   0.380   1.616 -0.2935 -0.2244 -0.0980
  298SOL     OW 1189   1.587   0.871   2.084  0.0453 -0.2066 -0.6433
  298SOL    HW1 1190   1.624   0.915   2.004 -0.0506  0.3130 -1.4035
  298SOL    HW2 1191   1.667   0.848   2.135 -1.7752 -0.4747 -1.8080
  298SOL     MW 1192   1.602   0.874   2.080 -0.2075 -0.1734 -0.8973
  299SOL     OW 1193   0.588   1.187   0.098  0.2220  0.1151  0.7529
  299SOL    HW1 1194   0.577   1.164   0.004  2.3121  1.1887 -1.1333
  299SOL    HW2 1195   0.674   1.227   0.086 -0.8275  0.8934 -0.6198
  299SOL     MW 1196   0.598   1.189   0.084  0.3593  0.3594  0.3229
  300SOL     OW 1197   1.094   1.158   2.549  0.1336 -0.3642 -0.2436
  300SOL    HW1 1198   1.029   1.089   2.558 -0.7513  1.0872  1.3603
  300SOL    HW2 1199   1.160   1.145   2.624  0.3654  0.2359  1.1556
  300SOL     MW 1200   1.094   1.147   2.560  0.0475 -0.0935  0.1526
  301SOL     OW 1201   1.465   1.069   0.747  0.4527  0.1164 -0.2596
  301SOL    HW1 1202   1.491   1.105   0.832 -0.0693  1.3863 -0.9532
  301SOL    HW2 1203   1.400   0.994   0.761 -2.6365  0.2015 -0.9573
  301SOL     MW 1204   1.460   1.064   0.760 -0.0238  0.2952 -0.4432
  302SOL     OW 1205   0.169   1.592   2.032 -0.1446  0.4001 -0.0516
  302SOL    HW1 1206   0.162   1.495   2.031 -0.0841  2.1073  2.3925
  302SOL    HW2 1207   0.086   1.615   2.077 -1.0267 -0.5677 -0.1380
  302SOL     MW 1208   0.157   1.582   2.038 -0.2530  0.4976  0.2595
  303SOL     OW 1209   0.324   1.777   2.659 -0.0517  0.0567  0.7389
  303SOL    HW1 1210   0.274   1.763   2.581 -0.9003  0.9673 -0.8884
  303SOL    HW2 1211   0.257   1.800   2.725 -1.7340 -0.8013 -2.2924
  303SOL     MW 1212   0.308   1.778   2.658 -0.3857  0.0636  0.1242
  304SOL     OW 1213   0.501   2.052   2.473  0.2439  0.2301  1.0800
  304SOL    HW1 1214   0.572   2.087   2.412  3.0090 -0.4138 -0.9684
  304SOL    HW2 1215   0.515   1.957   2.469 -0.1679  0.3190 -0.9814
  304SOL     MW 1216   0.512   2.044   2.465  0.5544  0.1569  0.5377
  305SOL     OW 1217   1.136   0.664   0.541  0.1277 -0.5328  0.2377
  305SOL    HW1 1218   1.047   0.658   0.517  0.3394  3.0927  2.3059
  305SOL    HW2 1219   1.166   0.571   0.544  2.1628 -1.8857 -1.3079
  305SOL     MW 1220   1.128   0.651   0.538  0.4241 -0.2330  0.3067
  306SOL     OW 1221   1.095   1.522   0.285  0.1987  0.0822  0.6711
  306SOL    HW1 1222   1.115   1.432   0.312 -2.3086  1.2182  0.6231
  306SOL    HW2 1223   1.160   1.547   0.217 -0.5345  1.5074  0.0612
  306SOL     MW 1224   1.106   1.513   0.280 -0.2288  0.4201  0.5843
  307SOL     OW 1225   1.410   0.478   1.915  0.4035  0.2006  0.2588
  307SOL    HW1 1226   1.361   0.408   1.961  1.3695  0.7689  1.9465
  307SOL    HW2 1227   1.420   0.544   1.986  3.1756  0.5738  0.6139
  307SOL     MW 1228   1.405   0.478   1.930  0.8967  0.3248  0.5283
  308SOL     OW 1229   2.204   0.507   2.697  0.2154  0.2469  0.6507
  308SOL    HW1 1230   2.300   0.504   2.710 -0.8327  0.5486 -1.8962
  308SOL    HW2 1231   2.182   0.599   2.718 -2.8329 -2.1381 -1.5339
  308SOL     MW 1232   2.214   0.518   2.701 -0.3251 -0.0279  0.0265
  309SOL     OW 1233   0.508   0.567   0.242  0.1075 -0.1757  0.0166
  309SOL    HW1 1234   0.597   0.602   0.236 -1.4303  1.9511  1.6253
  309SOL    HW2 1235   0.508   0.472   0.231  0.8932  1.9431 -0.9877
  309SOL     MW 1236   0.519   0.559   0.240  0.0083  0.3844  0.0963
  310SOL     OW 1237   0.423   0.581   1.886 -0.5574 -0.3617  0.1618
  310SOL    HW1 1238   0.457   0.502   1.834  0.8173 -0.5756  0.3299
  310SOL    HW2 1239   0.470   0.659   1.840  1.7965  0.5363 -1.1751
  310SOL     MW 1240   0.434   0.581   1.873 -0.0655 -0.2715  0.0076
  311SOL     OW 1241   1.970   0.624   1.957 -0.1100  0.4870 -0.1072
  311SOL    HW1 1242   1.911   0.655   2.029  0.9473 -0.6166 -1.3450
  311SOL    HW2 1243   2.023   0.553   2.004  1.8377  0.4034  2.2421
  311SOL     MW 1244   1.969   0.618   1.973  0.2865  0.3303  0.0394
  312SOL     OW 1245   1.734   2.439   0.105 -0.1724  0.0682  0.3490
  312SOL    HW1 1246   1.728   2.393   0.190 -0.4938 -2.5069 -0.4011
  312SOL    HW2 1247   1.655   2.498   0.108 -0.1730  0.2156 -0.5782
  312SOL     MW 1248   1.723   2.441   0.117 -0.2149 -0.2521  0.1277
  313SOL     OW 1249   0.139   1.121   3.032  0.0769  0.2950 -0.0813
  313SOL    HW1 1250   0.088   1.155   3.112 -1.5302 -0.5488 -0.1529
  313SOL    HW2 1251   0.160   1.201   2.985 -0.7147 -2.4030  0.6293
  313SOL     MW 1252   0.135   1.136   3.037 -0.2396 -0.1723  0.0030
  314SOL     OW 1253   2.158   2.950   0.023 -0.2854  0.1725 -0.1295
  314SOL    HW1 1254   2.121   2.958  -0.066  0.9671  3.4914  3.4669
  314SOL    HW2 1255   2.230   3.025   0.024  1.3508  0.8368 -2.5102
  314SOL     MW 1256   2.162   2.961   0.011  0.0957  0.6980  0.0309
  315SOL     OW 1257   1.538   1.839   2.963 -0.2176  0.3425  0.2111
  315SOL    HW1 1258   1.526   1.882   3.050  1.8665 -1.6772 -0.5381
  315SOL    HW2 1259   1.578   1.921   2.925  1.0489  0.4911 -0.6480
  315SOL     MW 1260   1.542   1.856   2.969  0.2245  0.0956 -0.0011
  316SOL     OW 1261   1.200   0.644   2.707  0.2647  0.0227  0.3078
  316SOL    HW1 1262   1.284   0.696   2.722 -1.2021  0.5624  0.9268
  316SOL    HW2 1263   1.154   0.629   2.798 -0.4999 -1.0264 -0.3952
  316SOL     MW 1264   1.205   0.649   2.721 -0.0297 -0.0445  0.2967
  317SOL     OW 1265   0.680   1.575   2.637  0.7834 -0.4256 -0.0967
  317SOL    HW1 1266   0.757   1.518   2.657  3.2998 -4.7436  1.1766
  317SOL    HW2 1267   0.681   1.585   2.537 -1.2874  2.3727  1.0511
  317SOL     MW 1268   0.691   1.569   2.626  0.8422 -0.6261  0.2227
  318SOL     OW 1269   1.341   0.377   2.952  0.4622 -0.0835 -0.4396
  318SOL    HW1 1270   1.263   0.423   2.964  0.9184 -2.6198  1.7950
  318SOL    HW2 1271   1.390   0.446   2.898  0.4232  1.3488 -1.6501
  318SOL     MW 1272   1.337   0.392   2.947  0.5172 -0.2291 -0.3045
  319SOL     OW 1273   0.786   0.429   2.824 -0.0901  0.1170  0.8653
  319SOL    HW1 1274   0.782   0.347   2.779 -1.5134  1.5018 -2.9517
  319SOL    HW2 1275   0.757   0.410   2.913 -0.5627 -0.5044 -4.0246
  319SOL     MW 1276   0.782   0.416   2.830 -0.3402  0.2177 -0.2835
  320SOL     OW 1277   1.058   1.355   1.962 -0.2603 -0.2858 -0.1534
  320SOL    HW1 1278   1.108   1.305   2.028  2.3018 -1.1253  0.1515
  320SOL    HW2 1279   1.114   1.434   1.946  0.9704 -1.5825  2.9073
  320SOL     MW 1280   1.072   1.359   1.969  0.2401 -0.5676  0.2906
  321SOL     OW 1281   1.082   0.907   3.050 -0.3066 -0.5797  0.0320
  321SOL    HW1 1282   1.011   0.894   2.984 -1.2599  2.3042  0.2970
  321SOL    HW2 1283   1.136   0.823   3.045  1.5147  1.7459 -0.3121
  321SOL     MW 1284   1.080   0.894   3.041 -0.1921  0.1076  0.0215
  322SOL     OW 1285   1.253   0.843   1.662  0.1400 -0.3749  0.1679
  322SOL    HW1 1286   1.321   0.792   1.699 -1.7575  0.4516  2.1900
  322SOL    HW2 1287   1.216   0.888   1.737 -0.3680  0.0931 -0.9090
  322SOL     MW 1288   1.257   0.842   1.676 -0.1774 -0.2041  0.2926
  323SOL     OW 1289   1.237   1.554   1.903 -0.1281 -0.5940  0.5285
  323SOL    HW1 1290   1.281   1.557   1.818 -0.3894 -1.6312 -0.2167
  323SOL    HW2 1291   1.219   1.646   1.920 -0.7693 -0.8740 -2.4826
  323SOL     MW 1292   1.241   1.567   1.894 -0.2472 -0.7678  0.0329
  324SOL     OW 1293   1.456   1.010   2.481 -0.1007 -0.0085  0.3887
  324SOL    HW1 1294   1.377   1.058   2.531 -0.7702  1.9712  2.2133
  324SOL    HW2 1295   1.540   1.062   2.488 -0.0269  0.6532  3.4394
  324SOL     MW 1296   1.457   1.023   2.489 -0.1793  0.3400  1.0320
  325SOL     OW 1297   1.044   0.537   2.903 -0.2673  0.0715 -0.5091
  325SOL    HW1 1298   1.028   0.578   2.991  0.5410  0.3254  2.0209
  325SOL    HW2 1299   0.965   0.488   2.885 -1.4960 -0.7075  1.5188
  325SOL     MW 1300   1.032   0.536   2.912 -0.3228  0.0022  0.0922
  326SOL     OW 1301   0.351   1.403   2.288  0.4284 -0.1309  0.0331
  326SOL    HW1 1302   0.443   1.371   2.271  2.5506  2.8596 -2.3854
  326SOL    HW2 1303   0.358   1.496   2.287  1.2653  2.1643  1.4484
  326SOL     MW 1304   0.364   1.411   2.285  0.8188  0.5665 -0.0993
  327SOL     OW 1305   1.965   0.811   2.417  0.3466 -0.3513 -0.3261
  327SOL    HW1 1306   1.929   0.757   2.493  2.8360  0.7684  2.9096
  327SOL    HW2 1307   1.966   0.901   2.444  0.9718  0.4374  0.7842
  327SOL     MW 1308   1.960   0.816   2.431  0.7575 -0.0995  0.2473
  328SOL     OW 1309   0.215   1.298   2.056  0.6754 -0.0959  0.6500
  328SOL    HW1 1310   0.130   1.258   2.067 -0.9243 -1.8063 -1.5213
  328SOL    HW2 1311   0.254   1.331   2.136  2.1155  0.1746  1.6636
  328SOL     MW 1312   0.209   1.297   2.068  0.6543 -0.2859  0.4973
  329SOL     OW 1313   0.032   0.113   1.389  0.2833  0.1794 -0.6428
  329SOL    HW1 1314  -0.003   0.127   1.477  0.4430 -1.1272  1.5836
  329SOL    HW2 1315   0.129   0.133   1.395 -2.2720 -0.3030  0.1026
  329SOL     MW 1316   0.040   0.118   1.401 -0.0328 -0.0566 -0.2507
  330SOL     OW 1317   0.389   0.004   2.041 -0.0863  0.4481 -0.0876
  330SOL    HW1 1318   0.459   0.015   2.107 -0.8895 -1.4172  0.5764
  330SOL    HW2 1319   0.321  -0.052   2.084  0.6843 -1.0521 -0.9198
  330SOL     MW 1320   0.390  -0.002   2.055 -0.0906  0.0041 -0.1097
  331SOL     OW 1321   0.782   1.244   2.402  0.2598  0.1176 -0.8765
  331SOL    HW1 1322   0.727   1.291   2.338  1.9336  0.2331  2.1629
  331SOL    HW2 1323   0.796   1.297   2.483 -2.1505  0.4811 -0.7905
  331SOL     MW 1324   0.776   1.257   2.405  0.1626  0.1808 -0.4642
  332SOL     OW 1325   1.350   1.631   2.938  0.6970  0.2037  0.0129
  332SOL    HW1 1326   1.338   1.636   2.842  1.8208  0.3234 -2.1284
  332SOL    HW2 1327   1.400   1.714   2.957 -0.1293  0.1993  1.0471
  332SOL     MW 1328   1.355   1.642   2.928  0.7362  0.2189 -0.1331
  333SOL     OW 1329   1.674   1.324   2.943 -0.5549 -0.1635 -0.3068
  333SOL    HW1 1330   1.769   1.352   2.948  2.3189 -2.2585 -0.8961
  333SOL    HW2 1331   1.664   1.241   2.986 -0.4122  3.1549  0.2029
  333SOL     MW 1332   1.685   1.317   2.949 -0.1569 -0.0021 -0.3173
  334SOL     OW 1333   1.309   0.017   2.602  0.2890  0.4926 -0.2842
  334SOL    HW1 1334   1.227  -0.012   2.649 -0.4742 -0.8886  0.1178
  334SOL    HW2 1335   1.367   0.067   2.664  0.9809 -3.0596 -1.6634
  334SOL     MW 1336   1.306   0.020   2.616  0.2796 -0.1583 -0.4131
  335SOL     OW 1337   1.305   0.698   3.016  0.3377  0.4667 -0.6187
  335SOL    HW1 1338   1.368   0.692   3.082  0.1579 -2.3553  0.5540
  335SOL    HW2 1339   1.329   0.744   2.936 -2.1638  0.0903  2.6526
  335SOL     MW 1340   1.317   0.703   3.014 -0.0161  0.0447 -0.0324
  336SOL     OW 1341   0.961   1.164   1.717 -0.3269  0.4824  0.1559
  336SOL    HW1 1342   0.928   1.230   1.785 -1.7843 -0.8461 -2.5566
  336SOL    HW2 1343   1.001   1.087   1.760  0.5744 -1.0804  0.8763
  336SOL     MW 1344   0.962   1.162   1.732 -0.4003  0.1009 -0.1069
  337SOL     OW 1345   0.547   1.925   2.819 -0.6847  0.3482 -0.6526
  337SOL    HW1 1346   0.496   1.899   2.741 -1.2112  0.5285 -1.2409
  337SOL    HW2 1347   0.633   1.874   2.810  1.1635  0.6890 -1.7840
  337SOL     MW 1348   0.552   1.915   2.808 -0.5103  0.4170 -0.8795
  338SOL     OW 1349   1.063   0.752   2.476  0.2732  0.7532 -1.1146
  338SOL    HW1 1350   0.989   0.689   2.502 -0.4992  0.4548 -0.2295
  338SOL    HW2 1351   1.127   0.727   2.550  1.4142  0.9297 -1.9191
  338SOL     MW 1352   1.062   0.740   2.489  0.3219  0.7371 -1.1039
  339SOL     OW 1353   1.434   1.206   1.867 -0.2031  0.4906  0.6030
  339SOL    HW1 1354   1.404   1.205   1.775 -1.7836 -0.3870  1.3075
  339SOL    HW2 1355   1.359   1.179   1.917  0.7029  0.4247  0.0243
  339SOL     MW 1356   1.420   1.203   1.861 -0.2921  0.3661  0.6196
  340SOL     OW 1357   1.260   1.511   0.069  0.6436  0.0367  0.1904
  340SOL    HW1 1358   1.265   1.569  -0.009 -0.3873 -0.7989 -2.6633
  340SOL    HW2 1359   1.354   1.476   0.067 -0.7367 -1.6637 -1.6264
  340SOL     MW 1360   1.273   1.514   0.058  0.3255 -0.2979 -0.4259
  341SOL     OW 1361   0.120   1.379   2.815  0.4956 -0.0918 -0.5985
  341SOL    HW1 1362   0.207   1.375   2.861 -1.3523 -0.2887  1.1870
  341SOL    HW2 1363   0.131   1.322   2.741 -0.5627  3.4361  0.3935
  341SOL     MW 1364   0.132   1.371   2.811  0.1121  0.3477 -0.2320
  342SOL     OW 1365   1.434   0.304   0.098  0.3574  0.4591 -0.6916
  342SOL    HW1 1366   1.497   0.340   0.160  1.3181 -0.0619  2.1357
  342SOL    HW2 1367   1.442   0.345   0.011 -1.2032 -1.1293 -1.1779
  342SOL     MW 1368   1.443   0.314   0.095  0.2783  0.1808 -0.3827
  343SOL     OW 1369   0.224   0.272   2.165 -0.3100 -0.1181 -0.4716
  343SOL    HW1 1370   0.257   0.183   2.183  0.2022  1.5403 -0.4331
  343SOL    HW2 1371   0.136   0.255   2.141  1.6874  0.8240 -2.0893
  343SOL     MW 1372   0.217   0.258   2.164  0.0211  0.2250 -0.6799
  344SOL     OW 1373   1.689   1.981   0.118 -0.0480 -0.3313  0.2398
  344SOL    HW1 1374   1.734   2.067   0.100  1.2166  2.3556  0.0188
  344SOL    HW2 1375   1.600   1.988   0.105  0.6748 -3.4897 -2.1504
  344SOL     MW 1376   1.683   1.993   0.114  0.2142 -0.3935 -0.1047
  345SOL     OW 1377   0.688   1.601   2.358  0.1112  0.6291  0.1685
  345SOL    HW1 1378   0.593   1.582   2.351  0.5118 -1.1286  2.0505
  345SOL    HW2 1379   0.726   1.561   2.280 -0.4818  0.7533  2.0200
  345SOL     MW 1380   0.681   1.593   2.347  0.0858  0.4135  0.6611
  346SOL     OW 1381   1.653   1.124  -0.000 -0.4395 -0.2745  0.7233
  346SOL    HW1 1382   1.743   1.098   0.020 -1.5281  3.8185 -0.9480
  346SOL    HW2 1383   1.602   1.064   0.047 -1.4157  0.1513  2.5860
  346SOL     MW 1384   1.658   1.113   0.009 -0.7119  0.3218  0.7485
  347SOL     OW 1385   1.147   0.658   2.232  0.1062 -0.7367  0.0536
  347SOL    HW1 1386   1.214   0.596   2.243  0.1328  1.9618 -0.1300
  347SOL    HW2 1387   1.114   0.686   2.319 -0.0108 -0.5890  0.9753
  347SOL     MW 1388   1.151   0.653   2.245  0.0943 -0.3611  0.1510
  348SOL     OW 1389   1.337   2.547   1.908  0.0898  0.0827  0.2756
  348SOL    HW1 1390   1.349   2.479   1.975 -0.0803  1.6886 -0.5275
  348SOL    HW2 1391   1.359   2.633   1.956 -3.2602  0.4197 -0.9901
  348SOL     MW 1392   1.341   2.550   1.923 -0.3746  0.3391  0.0026
  349SOL     OW 1393   1.462   0.161   2.783  0.4265  0.0580  0.3125
  349SOL    HW1 1394   1.397   0.185   2.853  1.8761 -1.5222  0.9013
  349SOL    HW2 1395   1.537   0.104   2.814  1.9499 -1.6948  0.7627
  349SOL     MW 1396   1.463   0.157   2.796  0.8187 -0.3817  0.4496
  350SOL     OW 1397   1.847   0.666   2.631 -0.3155  0.0461  0.0327
  350SOL    HW1 1398   1.785   0.621   2.566 -1.0953  0.5346 -0.3094
  350SOL    HW2 1399   1.908   0.608   2.669 -1.6496  0.0999 -0.3127
  350SOL     MW 1400   1.847   0.652   2.628 -0.5944  0.1177 -0.0580
  351SOL     OW 1401   0.104   1.125   1.628  0.0342  0.4928 -0.1942
  351SOL    HW1 1402   0.012   1.132   1.659 -0.1088 -1.3427  0.3523
  351SOL    HW2 1403   0.149   1.197   1.666  0.0611 -2.1387  1.1516
  351SOL     MW 1404   0.098   1.135   1.637  0.0189 -0.0966  0.0555
  352SOL     OW 1405   0.777   1.792   2.800 -0.8262  0.3967 -0.1644
  352SOL    HW1 1406   0.771   1.761   2.895  1.4276  0.1250  0.4588
  352SOL    HW2 1407   0.730   1.729   2.743 -1.3671 -2.5516 -0.4017
  352SOL     MW 1408   0.770   1.780   2.805 -0.6002 -0.0281 -0.1135
  353SOL     OW 1409   0.013   2.565   2.680  0.1253  0.2247 -0.7931
  353SOL    HW1 1410   0.095   2.517   2.664 -0.3027  0.0163  2.9045
  353SOL    HW2 1411   0.013   2.640   2.620  0.5922  1.2588  0.4770
  353SOL     MW 1412   0.024   2.569   2.670  0.1305  0.3336 -0.1376
  354SOL     OW 1413   0.352   2.445   0.892  0.7217 -0.3376 -0.1255
  354SOL    HW1 1414   0.405   2.423   0.967 -0.9352 -0.0792 -0.9728
  354SOL    HW2 1415   0.279   2.387   0.885 -3.0804 -2.0481  1.9644
  354SOL     MW 1416   0.350   2.434   0.901  0.0015 -0.5292  0.0384
  355SOL     OW 1417   0.006   2.175   0.388  0.9471  0.0072  0.4782
  355SOL    HW1 1418  -0.075   2.126   0.388 -1.2052 -1.1094  1.0998
  355SOL    HW2 1419   0.004   2.209   0.481  0.6559  1.9111  0.6260
  355SOL     MW 1420  -0.005   2.173   0.400  0.6247  0.1110  0.5797
  356SOL     OW 1421   0.778   2.909   1.059 -0.4773  0.8702  0.4621
  356SOL    HW1 1422   0.820   2.936   0.979  2.1750  1.4705 -0.4849
  356SOL    HW2 1423   0.687   2.894   1.031  0.8675 -1.0141 -0.7406
  356SOL     MW 1424   0.772   2.910   1.045  0.0501  0.7008  0.1785
  357SOL     OW 1425   1.841   2.820   0.483  0.1359  0.2490  0.0397
  357SOL    HW1 1426   1.789   2.747   0.516  0.2451 -0.9400 -1.8392
  357SOL    HW2 1427   1.932   2.779   0.478 -0.1479 -1.2280 -0.1877
  357SOL     MW 1428   1.846   2.805   0.487  0.1129 -0.1027 -0.2382
  358SOL     OW 1429   0.414   0.170   1.046  0.0578 -0.2522  0.4825
  358SOL    HW1 1430   0.505   0.162   1.016  2.0379  3.3874 -1.4651
  358SOL    HW2 1431   0.366   0.193   0.965 -0.5139  0.8309  1.1939
  358SOL     MW 1432   0.419   0.172   1.032  0.2437  0.3709  0.3194
  359SOL     OW 1433   0.901   2.989   1.846  0.4783  0.5186  0.2731
  359SOL    HW1 1434   0.898   2.899   1.879 -3.4980 -1.9571  1.7243
  359SOL    HW2 1435   0.923   2.985   1.758 -1.3656 -2.2071  0.9020
  359SOL     MW 1436   0.904   2.976   1.839 -0.2897 -0.1677  0.5475
  360SOL     OW 1437   0.552   2.789   0.887 -0.3879  0.1613  0.2244
  360SOL    HW1 1438   0.585   2.757   0.800  2.1875  0.3273  2.6554
  360SOL    HW2 1439   0.544   2.713   0.946 -0.8781  0.8747  2.1080
  360SOL     MW 1440   0.555   2.775   0.883 -0.1128  0.2774  0.7936
  361SOL     OW 1441   0.247   2.674   1.379  0.1334  0.9151 -0.1338
  361SOL    HW1 1442   0.219   2.755   1.423  2.0540  0.0835 -1.3391
  361SOL    HW2 1443   0.336   2.693   1.368  0.0114  1.2022 -0.2911
  361SOL     MW 1444   0.255   2.687   1.384  0.3707  0.8432 -0.3136
  362SOL     OW 1445   1.376   2.413   0.605 -0.2006  0.2761 -0.2403
  362SOL    HW1 1446   1.437   2.375   0.664 -1.8770  0.4742  0.4046
  362SOL    HW2 1447   1.410   2.505   0.595 -0.4845  0.1768  0.7013
  362SOL     MW 1448   1.389   2.420   0.612 -0.4593  0.2891 -0.0309
  363SOL     OW 1449   0.348   3.091   0.659  0.1261 -0.0410  0.3710
  363SOL    HW1 1450   0.343   3.014   0.723  4.2241  0.4499  3.1295
  363SOL    HW2 1451   0.254   3.101   0.634 -0.1983  2.8487 -0.1994
  363SOL     MW 1452   0.335   3.082   0.664  0.6240  0.4051  0.6597
  364SOL     OW 1453   0.796   0.242   0.137 -0.0873 -0.5140  0.0714
  364SOL    HW1 1454   0.724   0.185   0.113  2.9019  0.0135  0.5071
  364SOL    HW2 1455   0.777   0.330   0.103  0.9741 -1.2784 -1.1834
  364SOL     MW 1456   0.784   0.246   0.129  0.4472 -0.5453 -0.0366
  365SOL     OW 1457   0.896   2.010   1.198 -0.3086 -0.8800  0.2162
  365SOL    HW1 1458   0.875   2.102   1.169 -0.5166  0.2684  1.4902
  365SOL    HW2 1459   0.884   1.950   1.124 -2.3552  3.4578  2.8195
  365SOL     MW 1460   0.892   2.014   1.184 -0.6061 -0.1562  0.7277
  366SOL     OW 1461   2.941   2.640   0.965 -0.2968  0.0056 -0.1381
  366SOL    HW1 1462   2.992   2.623   1.045 -1.5141 -0.2724  2.4174
  366SOL    HW2 1463   2.994   2.662   0.885 -0.7008 -2.9200 -0.9053
  366SOL     MW 1464   2.955   2.641   0.965 -0.5107 -0.4171  0.0978
  367SOL     OW 1465   1.185   2.953   0.956  0.0019  0.3731  0.8959
  367SOL    HW1 1466   1.244   2.991   0.888 -0.7587 -0.2343 -3.4356
  367SOL    HW2 1467   1.109   2.929   0.905 -1.6088 -1.5342 -1.5069
  367SOL     MW 1468   1.183   2.955   0.941 -0.3110  0.0413  0.0074
  368SOL     OW 1469   1.745   0.419   0.667 -0.2624  0.1857 -0.5865
  368SOL    HW1 1470   1.803   0.359   0.625 -0.9015 -1.9992 -2.0018
  368SOL    HW2 1471   1.772   0.508   0.644 -1.4394  0.2596 -0.5275
  368SOL     MW 1472   1.756   0.423   0.658 -0.5020 -0.0929 -0.7654
  369SOL     OW 1473   0.144   2.379   1.774 -0.2133 -0.2243 -0.0801
  369SOL    HW1 1474   0.240   2.359   1.784  2.7623 -0.9973  2.0005
  369SOL    HW2 1475   0.148   2.479   1.784 -0.8654 -1.1635 -0.2464
  369SOL     MW 1476   0.157   2.390   1.776  0.0933 -0.4502  0.1724
  370SOL     OW 1477   0.734   0.137   1.021 -0.0246  0.4362  0.6679
  370SOL    HW1 1478   0.761   0.199   0.955  0.0072 -0.8070 -1.3361
  370SOL    HW2 1479   0.809   0.081   1.040  1.4074 -3.2553  2.5533
  370SOL     MW 1480   0.748   0.138   1.015  0.1685 -0.2149  0.6523
  371SOL     OW 1481   1.221   2.844   1.487 -1.1022  0.7340 -0.3518
  371SOL    HW1 1482   1.205   2.750   1.477  0.0464  0.2907  3.4707
  371SOL    HW2 1483   1.154   2.892   1.435 -0.7045  0.9061 -3.5700
  371SOL     MW 1484   1.210   2.838   1.479 -0.8982  0.6982 -0.2721
  372SOL     OW 1485   0.786   2.324   0.508  0.3089 -0.1695 -0.1805
  372SOL    HW1 1486   0.736   2.243   0.522  0.5365 -0.3455 -2.3682
  372SOL    HW2 1487   0.817   2.313   0.418 -2.9821 -0.1635 -0.7663
  372SOL     MW 1488   0.784   2.312   0.498 -0.0953 -0.1919 -0.5464
  373SOL     OW 1489   2.842   3.001   1.427  0.1587 -0.1917 -0.0388
  373SOL    HW1 1490   2.921   2.983   1.382 -0.3407 -1.6984  0.9510
  373SOL    HW2 1491   2.815   3.083   1.391 -1.3036 -0.2418  1.8911
  373SOL     MW 1492   2.849   3.009   1.417 -0.1001 -0.3971  0.3465
  374SOL     OW 1493   1.592   0.465   0.288 -0.3489  0.0656 -0.3122
  374SOL    HW1 1494   1.682   0.441   0.298  0.9285 -1.3200  1.2690
  374SOL    HW2 1495   1.552   0.439   0.372 -0.4831 -1.7631  0.7606
  374SOL     MW 1496   1.598   0.459   0.301 -0.1981 -0.3585  0.0380
  375SOL     OW 1497   0.986   2.153   2.295  0.9274 -0.6972 -0.3643
  375SOL    HW1 1498   1.047   2.120   2.363  0.3112 -0.4730 -3.5539
  375SOL    HW2 1499   0.971   2.085   2.233  1.6035  1.4058  1.3344
  375SOL     MW 1500   0.992   2.140   2.296  0.9353 -0.3902 -0.5610
  376SOL     OW 1501   0.760   2.506   0.068  0.0945 -0.4705  0.6799
  376SOL    HW1 1502   0.738   2.432   0.119  4.0711  2.3632  1.6419
  376SOL    HW2 1503   0.780   2.470  -0.018  0.3460 -1.6550  1.7070
  376SOL     MW 1504   0.760   2.492   0.064  0.6524 -0.2529  0.9423
  377SOL     OW 1505   1.309   2.048   0.918  0.3846 -0.3571  0.3130
  377SOL    HW1 1506   1.232   2.044   0.865  0.2757  1.9239  2.4631
  377SOL    HW2 1507   1.291   1.985   0.988 -1.0885 -0.8500  1.2968
  377SOL     MW 1508   1.296   2.039   0.920  0.1759 -0.1212  0.7265
  378SOL     OW 1509   0.914   2.860   1.536 -0.2146  0.0524 -0.3102
  378SOL    HW1 1510   0.945   2.774   1.582 -1.3728  0.1345 -1.3026
  378SOL    HW2 1511   0.918   2.832   1.442 -0.2581 -3.4426  2.6009
  378SOL     MW 1512   0.918   2.845   1.530 -0.3732 -0.3979 -0.0571
  379SOL     OW 1513   1.125   1.627   2.221 -0.1467 -0.3880  0.2776
  379SOL    HW1 1514   1.047   1.652   2.170 -1.5649 -0.7565  0.0296
  379SOL    HW2 1515   1.184   1.581   2.162 -1.6851  2.7153 -0.9290
  379SOL     MW 1516   1.122   1.624   2.207 -0.5368 -0.0272  0.0857
  380SOL     OW 1517   0.874   0.095   1.424 -0.3805  0.3461 -0.1751
  380SOL    HW1 1518   0.918   0.017   1.381 -0.9508  1.5761 -0.5072
  380SOL    HW2 1519   0.924   0.109   1.505  0.9562  1.8320  1.1099
  380SOL     MW 1520   0.887   0.086   1.429 -0.2794  0.7044 -0.0493
  381SOL     OW 1521   0.832   2.049   0.828 -0.2398 -0.0347 -0.1931
  381SOL    HW1 1522   0.928   2.048   0.818  1.0376  0.6559 -0.4725
  381SOL    HW2 1523   0.807   2.112   0.902  2.3670 -1.4046 -0.5666
  381SOL     MW 1524   0.841   2.057   0.836  0.2727 -0.1243 -0.2793
  382SOL     OW 1525   0.825   0.147   0.627  0.2699  0.0086 -0.4315
  382SOL    HW1 1526   0.812   0.219   0.692  2.0743  0.9172  0.5852
  382SOL    HW2 1527   0.751   0.084   0.639 -2.2695  0.0442 -0.2870
  382SOL     MW 1528   0.814   0.148   0.637  0.1729  0.1332 -0.2783
  383SOL     OW 1529   0.600   0.067   0.318  0.2656  0.2540  0.1311
  383SOL    HW1 1530   0.661   0.013   0.265  1.0969 -2.1966  0.9191
  383SOL    HW2 1531   0.527   0.013   0.353 -0.6836  0.4423 -0.3103
  383SOL     MW 1532   0.598   0.053   0.316  0.2500 -0.0445  0.1768
  384SOL     OW 1533   0.745   2.965   0.667 -0.2552  0.1735 -0.0563
  384SOL    HW1 1534   0.811   2.934   0.738  1.2244 -1.0856 -0.8361
  384SOL    HW2 1535   0.669   2.908   0.667  0.3108  2.0977 -1.1451
  384SOL     MW 1536   0.743   2.954   0.676  0.0147  0.2612 -0.3029
  385SOL     OW 1537   1.393   2.091   1.543 -0.5892 -0.3912 -0.0950
  385SOL    HW1 1538   1.450   2.149   1.596  0.0880 -3.4956 -0.1199
  385SOL    HW2 1539   1.383   2.009   1.591  1.6566  0.3795 -3.0406
  385SOL     MW 1540   1.399   2.088   1.556 -0.2036 -0.6991 -0.4869
  386SOL     OW 1541   1.426   0.387   0.898  0.4431  0.3606  0.3212
  386SOL    HW1 1542   1.435   0.456   0.962 -1.0778  0.9178 -0.9899
  386SOL    HW2 1543   1.511   0.343   0.907  2.3091  2.8322  0.1142
  386SOL     MW 1544   1.438   0.390   0.908  0.4886  0.7602  0.1209
  387SOL     OW 1545   0.810   2.154   1.559  0.1341  1.1547  0.2225
  387SOL    HW1 1546   0.866   2.208   1.506 -0.7335 -2.4701 -0.1353
  387SOL    HW2 1547   0.833   2.064   1.532  0.8009  0.3388 -0.7478
  387SOL     MW 1548   0.821   2.149   1.549  0.1076  0.5688  0.0473
  388SOL     OW 1549   1.469   2.776   1.332  0.2122  0.0246  0.7154
  388SOL    HW1 1550   1.411   2.858   1.318 -3.4186 -1.2013  0.5524
  388SOL    HW2 1551   1.427   2.699   1.283  0.4685  1.6825 -2.5403
  388SOL     MW 1552   1.456   2.777   1.323 -0.2331  0.0816  0.2643
  389SOL     OW 1553   0.526   0.146   3.068 -0.1366  0.1758  0.2981
  389SOL    HW1 1554   0.599   0.108   3.021 -0.3455  0.5613 -2.6194
  389SOL    HW2 1555   0.495   0.207   3.007 -1.6413 -1.6659  3.4283
  389SOL     MW 1556   0.532   0.149   3.053 -0.3627 -0.0163  0.3261
  390SOL     OW 1557   1.373   0.037   0.749  0.1924 -0.0027 -0.0996
  390SOL    HW1 1558   1.389   0.042   0.660  0.4077 -1.6497  2.0665
  390SOL    HW2 1559   1.450   0.080   0.780  0.0499  2.4496  0.1933
  390SOL     MW 1560   1.385   0.043   0.742  0.2020  0.1035  0.2249
  391SOL     OW 1561   0.355   2.194   1.524  0.0811 -0.2620  0.1127
  391SOL    HW1 1562   0.323   2.117   1.563 -1.4205  2.9349 -0.5643
  391SOL    HW2 1563   0.279   2.253   1.513 -0.2751  0.6475 -0.4991
  391SOL     MW 1564   0.341   2.192   1.528 -0.1640  0.2798 -0.0573
  392SOL     OW 1565   2.012   2.230   0.305 -0.8606  0.1103 -0.0244
  392SOL    HW1 1566   2.085   2.290   0.322 -2.4723  0.8831  0.8039
  392SOL    HW2 1567   1.934   2.282   0.333 -1.7440 -0.7400  0.8974
  392SOL     MW 1568   2.011   2.245   0.311 -1.1898  0.1000  0.2065
  393SOL     OW 1569   0.253   2.969   2.878 -0.1964 -0.1600  0.2018
  393SOL    HW1 1570   0.329   2.931   2.830 -0.6156  0.1266  2.5152
  393SOL    HW2 1571   0.243   3.067   2.851  3.1217  1.6383 -0.4803
  393SOL     MW 1572   0.262   2.977   2.868  0.1861  0.1151  0.4171
  394SOL     OW 1573   1.027   1.767   1.516  0.6349  0.0667 -0.4673
  394SOL    HW1 1574   1.040   1.784   1.607  2.9014  2.6735 -0.4675
  394SOL    HW2 1575   0.958   1.826   1.479  0.2808 -2.0055 -0.9916
  394SOL     MW 1576   1.020   1.777   1.523  0.8872  0.1372 -0.5365
  395SOL     OW 1577   0.928   2.965   2.623 -0.2982 -0.5290  0.7919
  395SOL    HW1 1578   0.951   3.008   2.704  1.0872  1.9009  3.0953
  395SOL    HW2 1579   0.996   2.895   2.606 -0.4536 -0.1150  0.2865
  395SOL     MW 1580   0.940   2.961   2.631 -0.1359 -0.1538  1.0292
  396SOL     OW 1581   0.729   1.900   2.425  0.3413  0.5415 -0.6241
  396SOL    HW1 1582   0.812   1.909   2.468  0.3732 -2.9756  3.1988
  396SOL    HW2 1583   0.740   1.818   2.381 -1.7384  0.0284 -0.1412
  396SOL     MW 1584   0.741   1.891   2.425  0.0711  0.0098 -0.0560
  397SOL     OW 1585   0.964   2.301   1.376 -0.1036  0.0738 -0.2537
  397SOL    HW1 1586   1.015   2.334   1.303 -1.9927 -1.2364 -0.1453
  397SOL    HW2 1587   1.034   2.295   1.441  0.2367 -4.0651  3.5850
  397SOL     MW 1588   0.980   2.304   1.375 -0.3079 -0.6451  0.2671
  398SOL     OW 1589   0.608   2.727   0.628  0.3668 -0.0886  0.2148
  398SOL    HW1 1590   0.570   2.708   0.538 -1.8466 -2.2344 -0.1202
  398SOL    HW2 1591   0.684   2.666   0.640  0.8733 -0.2428 -3.1603
  398SOL     MW 1592   0.613   2.717   0.618  0.1416 -0.3920 -0.2747
  399SOL     OW 1593   0.279   2.100   0.320  0.4892 -0.1795 -0.1113
  399SOL    HW1 1594   0.189   2.136   0.326 -1.9884 -0.0155 -2.3936
  399SOL    HW2 1595   0.317   2.119   0.235  1.2585  0.6092  2.7858
  399SOL     MW 1596   0.272   2.107   0.310  0.2638 -0.0538 -0.0302
  400SOL     OW 1597   0.598   1.890   0.116  0.4833  0.2388 -0.4512
  400SOL    HW1 1598   0.556   1.968   0.141  2.0555 -1.2901 -1.5692
  400SOL    HW2 1599   0.587   1.820   0.181 -0.7202 -0.8746 -0.3000
  400SOL     MW 1600   0.591   1.891   0.128  0.5319 -0.1098 -0.5787
  401SOL     OW 1601   0.796   2.073   0.031  0.0436 -0.0597  0.2082
  401SOL    HW1 1602   0.878   2.020   0.047  0.8458  0.5358  0.1982
  401SOL    HW2 1603   0.726   2.010   0.040  1.0958 -2.4367 -0.7613
  401SOL     MW 1604   0.798   2.058   0.034  0.2883 -0.2947  0.0790
  402SOL     OW 1605   0.539   3.013   1.717  0.0467  0.0092  0.3382
  402SOL    HW1 1606   0.596   2.985   1.785  1.4060 -1.5864 -2.4493
  402SOL    HW2 1607   0.579   3.091   1.676  0.9134  0.4829  5.2212
  402SOL     MW 1608   0.552   3.019   1.721  0.3404 -0.1388  0.6146
  403SOL     OW 1609   0.125   0.521   0.399 -0.3370 -0.0429  0.3815
  403SOL    HW1 1610   0.212   0.543   0.445  1.4487  0.3255  1.1733
  403SOL    HW2 1611   0.154   0.478   0.315  1.9396 -2.3096 -2.5822
  403SOL     MW 1612   0.140   0.518   0.394  0.1990 -0.2933  0.0950
  404SOL     OW 1613   0.960   2.915   0.833 -0.2034 -0.1284  0.7415
  404SOL    HW1 1614   0.999   2.845   0.782 -1.2902 -0.6859 -0.5622
  404SOL    HW2 1615   0.985   2.994   0.785  3.0229  0.9302 -0.7995
  404SOL     MW 1616   0.969   2.916   0.820  0.0789 -0.0623  0.3662
  405SOL     OW 1617   0.462   2.471   1.502  0.9123 -0.1828 -0.4455
  405SOL    HW1 1618   0.469   2.516   1.418  2.2726  1.3267  0.2700
  405SOL    HW2 1619   0.514   2.397   1.486 -1.3700 -2.5722  0.7967
  405SOL     MW 1620   0.469   2.467   1.489  0.7906 -0.2989 -0.1872
  406SOL     OW 1621   0.399   2.368   1.161  0.3511 -0.5188 -0.1148
  406SOL    HW1 1622   0.308   2.384   1.166  1.4363 -0.3540 -1.6954
  406SOL    HW2 1623   0.407   2.277   1.198 -0.4249  0.5199 -0.0549
  406SOL     MW 1624   0.388   2.358   1.167  0.3919 -0.3600 -0.3155
  407SOL     OW 1625   0.044   2.655   1.155  0.0876 -0.1302 -0.4299
  407SOL    HW1 1626   0.104   2.632   1.224 -2.3545  2.2585  0.4826
  407SOL    HW2 1627   0.109   2.655   1.081 -0.1350  2.3732 -0.7605
  407SOL     MW 1628   0.060   2.652   1.154 -0.2640  0.5153 -0.3531
  408SOL     OW 1629   2.117   2.129   0.751  0.1511 -0.0399  0.0610
  408SOL    HW1 1630   2.048   2.164   0.816 -0.0739  0.9854 -2.0295
  408SOL    HW2 1631   2.053   2.093   0.684 -5.2778 -0.2508  2.6494
  408SOL     MW 1632   2.099   2.129   0.750 -0.5949  0.0676  0.1267
  409SOL     OW 1633   1.589   0.141   0.874  0.6901  0.1469 -0.5554
  409SOL    HW1 1634   1.654   0.200   0.906 -1.0594 -0.9544  0.2368
  409SOL    HW2 1635   1.567   0.078   0.945 -0.2741  3.1645  1.9060
  409SOL     MW 1636   1.595   0.140   0.888  0.3320  0.3997 -0.1261
  410SOL     OW 1637   1.074   2.413   1.162  0.4391 -0.4759 -0.2785
  410SOL    HW1 1638   0.994   2.432   1.110  2.1100  1.5410 -0.1761
  410SOL    HW2 1639   1.141   2.373   1.104 -0.4374 -0.8911 -0.0233
  410SOL     MW 1640   1.072   2.410   1.147  0.5439 -0.2646 -0.2313
  411SOL     OW 1641   2.018   2.971   2.904  0.1686 -0.7649  1.1115
  411SOL    HW1 1642   2.015   2.940   2.816 -1.3539 -1.1394  0.7105
  411SOL    HW2 1643   1.976   3.059   2.908  0.6824 -0.5809  0.5717
  411SOL     MW 1644   2.012   2.979   2.893  0.0355 -0.7900  0.9874
  412SOL     OW 1645   1.040   2.236   0.606 -0.1702 -0.7386 -0.1503
  412SOL    HW1 1646   1.069   2.317   0.645 -2.1279 -1.2430  0.4315
  412SOL    HW2 1647   0.954   2.263   0.573 -0.8532  1.1939  3.1626
  412SOL     MW 1648   1.032   2.250   0.607 -0.5186 -0.5502  0.3636
  413SOL     OW 1649   0.584   2.749   0.104 -0.1805 -0.4234  0.5161
  413SOL    HW1 1650   0.667   2.695   0.116  3.4776 -1.1639 -0.0294
  413SOL    HW2 1651   0.598   2.791   0.014 -1.8751 -2.3711  1.0464
  413SOL     MW 1652   0.597   2.747   0.094  0.0785 -0.7781  0.5141
  414SOL     OW 1653   1.992   3.047   1.116 -0.1862 -0.0115 -0.7080
  414SOL    HW1 1654   2.062   3.109   1.138  0.2834  1.6659  1.9487
  414SOL    HW2 1655   1.971   3.051   1.026  0.7513 -0.2505  0.2165
  414SOL     MW 1656   1.999   3.055   1.107 -0.0005  0.1783 -0.2355
  415SOL     OW 1657   1.630   2.839   1.124  0.1021  0.1611  0.1798
  415SOL    HW1 1658   1.571   2.817   1.198  0.4109 -1.5031 -0.9157
  415SOL    HW2 1659   1.720   2.831   1.158  0.9543 -0.7846 -0.3070
  415SOL     MW 1660   1.634   2.835   1.138  0.2553 -0.1832 -0.0290
  416SOL     OW 1661   0.601   1.730   1.506 -0.0890 -0.9453  0.2375
  416SOL    HW1 1662   0.505   1.711   1.486  1.4498 -0.4536 -1.1347
  416SOL    HW2 1663   0.644   1.662   1.455 -1.8155  0.5163  0.4626
  416SOL     MW 1664   0.594   1.718   1.496 -0.1138 -0.6876  0.0862
  417SOL     OW 1665   0.992   3.089   2.074  0.3194  0.9538 -0.4356
  417SOL    HW1 1666   0.924   3.096   2.139  0.7083 -0.3482 -1.9083
  417SOL    HW2 1667   0.950   3.053   1.992  0.1860  0.0686 -2.0693
  417SOL     MW 1668   0.978   3.085   2.072  0.3531  0.6652 -0.8454
  418SOL     OW 1669   0.762   2.986   0.157  0.0838 -0.2296 -0.4239
  418SOL    HW1 1670   0.835   2.952   0.104 -0.0216 -1.3417 -0.7505
  418SOL    HW2 1671   0.682   2.947   0.122  0.0940 -1.2079 -2.2856
  418SOL     MW 1672   0.761   2.977   0.146  0.0713 -0.5054 -0.7126
  419SOL     OW 1673   0.553   2.683   1.340 -0.0209 -0.0480  0.0085
  419SOL    HW1 1674   0.567   2.769   1.385  1.6598  0.3632  1.8159
  419SOL    HW2 1675   0.625   2.631   1.378  2.9836 -0.5920 -1.0477
  419SOL     MW 1676   0.565   2.688   1.351  0.5973 -0.0655  0.1076
  420SOL     OW 1677   0.775   2.240   1.031  0.4146  0.6304  0.1174
  420SOL    HW1 1678   0.697   2.235   1.090 -1.1147  0.2449 -1.8574
  420SOL    HW2 1679   0.777   2.332   0.997  0.2778 -1.5037 -0.1680
  420SOL     MW 1680   0.765   2.251   1.035  0.1948  0.2979 -0.1808
  421SOL     OW 1681   2.918   0.151   0.018 -0.3922 -0.2594  0.2723
  421SOL    HW1 1682   2.846   0.087   0.009  0.4421 -2.6003 -2.0378
  421SOL    HW2 1683   2.986   0.094   0.060  1.0209  1.3094  0.5314
  421SOL     MW 1684   2.917   0.135   0.023 -0.0957 -0.3613  0.0017
  422SOL     OW 1685   0.842   2.529   0.982  0.1928 -0.3902 -0.0163
  422SOL    HW1 1686   0.769   2.583   1.017  1.0837  1.9379  1.7574
  422SOL    HW2 1687   0.874   2.570   0.901  2.1805 -0.4316 -1.2638
  422SOL     MW 1688   0.836   2.542   0.976  0.5726 -0.0885  0.0532
  423SOL     OW 1689   1.456   0.067   0.485  0.3082  0.2627 -0.3556
  423SOL    HW1 1690   1.500   0.052   0.397 -0.0049 -0.3156  3.1989
  423SOL    HW2 1691   1.498   0.151   0.498 -1.9106 -1.9121 -1.0185
  423SOL     MW 1692   1.467   0.076   0.475 -0.0259 -0.1006  0.0259
  424SOL     OW 1693   0.636   2.282   1.369 -0.1344 -0.4554  0.2226
  424SOL    HW1 1694   0.568   2.215   1.342  0.4641  0.8655 -1.1237
  424SOL    HW2 1695   0.698   2.237   1.428 -3.0124 -0.5230  1.6833
  424SOL     MW 1696   0.635   2.267   1.373 -0.4351 -0.2901  0.2377
  425SOL     OW 1697   1.670   2.795   2.057  0.0457  0.2619  0.1114
  425SOL    HW1 1698   1.704   2.807   1.965  1.7934 -0.2628 -2.0090
  425SOL    HW2 1699   1.702   2.706   2.085 -1.0508  0.0561 -1.6872
  425SOL     MW 1700   1.679   2.785   2.048  0.1316  0.1655 -0.4057
  426SOL     OW 1701   0.901   1.728   1.987 -0.3700 -0.2554 -0.3229
  426SOL    HW1 1702   0.819   1.731   1.927 -1.7153 -2.4635 -1.0899
  426SOL    HW2 1703   0.878   1.795   2.051  2.0532  0.1647 -3.5492
  426SOL     MW 1704   0.887   1.737   1.988 -0.2278 -0.4913 -0.8498
  427SOL     OW 1705   0.358   1.695   1.879  0.6589  0.2411 -0.2843
  427SOL    HW1 1706   0.398   1.632   1.817 -0.0626  2.8061  0.3947
  427SOL    HW2 1707   0.290   1.650   1.932 -1.4924 -3.0048  3.6533
  427SOL     MW 1708   0.354   1.680   1.878  0.2799  0.1512  0.3248
  428SOL     OW 1709   0.577   2.586   1.092 -0.0111  0.0456  0.0957
  428SOL    HW1 1710   0.538   2.502   1.119  1.0042  2.1449 -1.8877
  428SOL    HW2 1711   0.562   2.637   1.177 -0.5006 -3.1106 -1.2203
  428SOL     MW 1712   0.570   2.582   1.107  0.0583 -0.0938 -0.3396
  429SOL     OW 1713   1.189   2.731   1.106  0.2201 -0.6119  0.0811
  429SOL    HW1 1714   1.095   2.734   1.138 -1.3547 -1.0168 -1.8228
  429SOL    HW2 1715   1.205   2.815   1.061 -0.5799  0.4007 -0.3982
  429SOL     MW 1716   1.179   2.742   1.104 -0.0933 -0.5317 -0.2333
  430SOL     OW 1717   1.158   2.769   0.711  0.1504  0.5986  1.0343
  430SOL    HW1 1718   1.165   2.680   0.754 -2.0238 -1.3305  0.3397
  430SOL    HW2 1719   1.142   2.750   0.610 -1.2558 -1.0380  0.7887
  430SOL     MW 1720   1.157   2.755   0.703 -0.3220  0.1281  0.9103
  431SOL     OW 1721   0.293   1.928   1.116  0.1843  0.2740 -0.3341
  431SOL    HW1 1722   0.368   1.863   1.114  3.7822 -1.5248  3.5984
  431SOL    HW2 1723   0.252   1.932   1.026 -0.3689 -0.6770 -1.6755
  431SOL     MW 1724   0.297   1.920   1.104  0.5860 -0.0888  0.0078
  432SOL     OW 1725   0.080   0.008   1.139 -0.2116 -0.6731  0.0568
  432SOL    HW1 1726   0.073   0.056   1.223 -2.6485  0.0322  0.5410
  432SOL    HW2 1727   0.024  -0.068   1.149 -1.0956  3.6109  0.7569
  432SOL     MW 1728   0.072   0.005   1.152 -0.6497 -0.0148  0.2130
  433SOL     OW 1729   0.659   2.925   1.465 -0.4410 -0.1582 -0.1143
  433SOL    HW1 1730   0.601   2.921   1.539  1.5550  0.8863  0.0261
  433SOL    HW2 1731   0.751   2.923   1.511 -2.1595 -1.2148 -1.1761
  433SOL     MW 1732   0.663   2.924   1.481 -0.4044 -0.1598 -0.2358
  434SOL     OW 1733   1.499   2.831   1.609  0.3749 -0.4976  1.0221
  434SOL    HW1 1734   1.407   2.833   1.627  1.6962  0.4316  1.4637
  434SOL    HW2 1735   1.502   2.811   1.512  0.5092 -1.3073  0.1561
  434SOL     MW 1736   1.487   2.829   1.598  0.5670 -0.4819  0.9661
  435SOL     OW 1737   2.755   1.775   0.212  0.0127 -0.2060  0.2570
  435SOL    HW1 1738   2.814   1.822   0.162 -1.9952 -0.7804 -2.5395
  435SOL    HW2 1739   2.669   1.794   0.180 -1.4964 -0.4605  2.9307
  435SOL     MW 1740   2.752   1.784   0.201 -0.4514 -0.3154  0.2408
  436SOL     OW 1741   1.361   2.696   0.331  0.1079  0.0354  0.2337
  436SOL    HW1 1742   1.429   2.699   0.398 -0.2720  2.7376 -0.6373
  436SOL    HW2 1743   1.307   2.770   0.356  0.4272 -0.2741  0.6816
  436SOL     MW 1744   1.363   2.706   0.343  0.0999  0.3511  0.1778
  437SOL     OW 1745   1.062   2.983   1.295 -0.4303  0.1867 -0.0416
  437SOL    HW1 1746   1.052   3.046   1.225 -0.1022 -0.1244  1.2564
  437SOL    HW2 1747   1.016   2.910   1.259  2.6652 -0.5471  0.5443
  437SOL     MW 1748   1.055   2.982   1.281  0.0214  0.0488  0.2070
  438SOL     OW 1749   0.905   2.722   1.910 -0.1165 -0.8344 -0.1079
  438SOL    HW1 1750   0.899   2.649   1.973  1.6360  0.0587 -0.2697
  438SOL    HW2 1751   0.853   2.688   1.840  1.6940  2.5415 -0.4574
  438SOL     MW 1752   0.897   2.708   1.909  0.3536 -0.2711 -0.1754
  439SOL     OW 1753   1.216   2.080   0.415  0.8415 -0.1175  0.0356
  439SOL    HW1 1754   1.190   2.131   0.491 -1.1413 -1.0874  1.0914
  439SOL    HW2 1755   1.207   2.147   0.339 -1.6492 -0.5280 -0.2758
  439SOL     MW 1756   1.211   2.096   0.415  0.2513 -0.2996  0.1338
  440SOL     OW 1757   1.781   2.970   3.043 -0.0919 -0.3936 -0.7206
  440SOL    HW1 1758   1.794   2.951   3.135  0.4570  2.0939 -0.1235
  440SOL    HW2 1759   1.863   2.948   3.000  2.5828 -1.0181 -0.9331
  440SOL     MW 1760   1.794   2.965   3.049  0.3334 -0.1478 -0.6699
  441SOL     OW 1761   0.384   2.660   0.423  1.0094 -0.3638 -0.3580
  441SOL    HW1 1762   0.353   2.595   0.365  2.6099  2.8348  0.9563
  441SOL    HW2 1763   0.357   2.749   0.394 -0.3546 -0.7694 -0.0248
  441SOL     MW 1764   0.376   2.663   0.412  1.0406  0.0047 -0.1406
  442SOL     OW 1765   0.017   2.308   0.623  0.6567  0.4923  0.3993
  442SOL    HW1 1766   0.004   2.386   0.573 -0.7909  2.7592 -0.6952
  442SOL    HW2 1767  -0.069   2.288   0.662 -0.3691 -1.2896  0.1166
  442SOL     MW 1768   0.004   2.316   0.621  0.3303  0.5563  0.2176
  443SOL     OW 1769   1.491   1.792   1.898 -0.1044  0.0744 -0.4514
  443SOL    HW1 1770   1.441   1.814   1.821 -0.4178 -1.0388  2.1893
  443SOL    HW2 1771   1.475   1.700   1.926 -0.1173 -1.2771 -0.9401
  443SOL     MW 1772   1.482   1.782   1.891 -0.1474 -0.2508 -0.1675
  444SOL     OW 1773   0.992   2.610   1.643 -0.1625  0.1380  0.0995
  444SOL    HW1 1774   1.052   2.550   1.689  0.9379 -1.0177 -0.7777
  444SOL    HW2 1775   0.905   2.603   1.681 -1.5375  0.6690 -0.5825
  444SOL     MW 1776   0.989   2.601   1.654 -0.1987  0.0556 -0.1062
  445SOL     OW 1777   1.252   0.144   1.409  0.2249  0.4204 -0.2267
  445SOL    HW1 1778   1.188   0.157   1.478  0.0720 -0.0454 -1.3750
  445SOL    HW2 1779   1.235   0.203   1.333  0.3205  2.4168 -0.3077
  445SOL     MW 1780   1.242   0.153   1.408  0.2173  0.6223 -0.3889
  446SOL     OW 1781   2.787   2.837   1.048 -0.0635  0.1300  0.2415
  446SOL    HW1 1782   2.737   2.879   0.983 -1.0828 -2.3733  0.0736
  446SOL    HW2 1783   2.839   2.770   1.011 -1.6246  0.9700  0.2604
  446SOL     MW 1784   2.787   2.834   1.035 -0.4040 -0.0894  0.2219
  447SOL     OW 1785   0.016   1.944   1.557  0.2558 -0.1302 -0.4877
  447SOL    HW1 1786   0.006   1.885   1.633 -0.0686 -3.7721 -1.1237
  447SOL    HW2 1787  -0.057   1.922   1.489 -1.1604 -1.1582 -3.6795
  447SOL     MW 1788   0.005   1.933   1.558  0.0261 -0.7463 -0.9927
  448SOL     OW 1789   1.776   2.404   1.670 -0.5420 -0.1477  0.0412
  448SOL    HW1 1790   1.717   2.328   1.681  2.2235 -0.2472  0.3038
  448SOL    HW2 1791   1.720   2.477   1.667  1.3969 -1.6327  1.0907
  448SOL     MW 1792   1.761   2.404   1.671  0.0787 -0.3568  0.2143
  449SOL     OW 1793   0.880   2.928   0.390 -0.1723  0.0155  0.3764
  449SOL    HW1 1794   0.826   2.953   0.311  0.1887 -1.2013  0.2897
  449SOL    HW2 1795   0.830   2.949   0.470  2.0117  0.3664 -0.8020
  449SOL     MW 1796   0.866   2.934   0.390  0.1635 -0.0987  0.2095
  450SOL     OW 1797   1.187   2.486   0.777 -0.1013  0.1281 -0.3270
  450SOL    HW1 1798   1.216   2.437   0.855  2.0347  0.8021  3.1290
  450SOL    HW2 1799   1.245   2.459   0.704 -1.9840  1.4245 -1.9341
  450SOL     MW 1800   1.198   2.476   0.777 -0.0679  0.3881 -0.0831
  451SOL     OW 1801   0.523   1.949   1.699  0.1441 -0.4008  0.1584
  451SOL    HW1 1802   0.578   1.937   1.618 -1.9194 -3.3855 -0.6068
  451SOL    HW2 1803   0.439   1.915   1.662 -2.4532  0.2631  0.3670
  451SOL     MW 1804   0.519   1.943   1.684 -0.4709 -0.7070  0.0850
  452SOL     OW 1805   0.352   2.607   0.030 -0.1859 -0.3013 -0.4428
  452SOL    HW1 1806   0.436   2.641   0.059  0.3469  1.1334 -0.8128
  452SOL    HW2 1807   0.302   2.686   0.038 -1.2092  1.9698  1.5598
  452SOL     MW 1808   0.356   2.622   0.035 -0.2506  0.1876 -0.2274
  453SOL     OW 1809   0.299   3.079   1.575 -0.0950 -0.3715 -0.5973
  453SOL    HW1 1810   0.359   3.019   1.621 -0.4099 -2.5836 -0.2300
  453SOL    HW2 1811   0.322   3.068   1.480  2.0610 -0.2168 -1.9034
  453SOL     MW 1812   0.310   3.069   1.569  0.1479 -0.6429 -0.7211
  454SOL     OW 1813   0.913   2.767   1.237  0.4215  0.1257  0.0700
  454SOL    HW1 1814   0.855   2.688   1.261 -1.8292 -1.3000  1.1977
  454SOL    HW2 1815   0.849   2.808   1.175 -0.7953 -0.8700  0.5822
  454SOL     MW 1816   0.897   2.762   1.232 -0.0360 -0.1938  0.2864
  455SOL     OW 1817   1.722   2.883   0.228  0.4659  0.3722 -0.5843
  455SOL    HW1 1818   1.781   2.849   0.300 -0.0956 -0.5800 -2.6544
  455SOL    HW2 1819   1.689   2.802   0.184  0.0943 -0.1899  1.4989
  455SOL     MW 1820   1.726   2.868   0.232  0.3428  0.1724 -0.5826
  456SOL     OW 1821   2.751   0.281   1.467  0.0771 -0.0305 -0.2563
  456SOL    HW1 1822   2.743   0.198   1.415  0.8870 -1.5252 -2.6456
  456SOL    HW2 1823   2.837   0.320   1.436 -1.2459  1.3082  0.3486
  456SOL     MW 1824   2.762   0.275   1.456  0.0094 -0.0511 -0.4917
  457SOL     OW 1825   0.792   1.690   3.059  0.3365  0.7963 -0.0299
  457SOL    HW1 1826   0.696   1.680   3.061 -0.6907 -0.9036  0.4696
  457SOL    HW2 1827   0.808   1.741   3.136 -2.2193 -2.3608  1.5212
  457SOL     MW 1828   0.781   1.695   3.070 -0.1363  0.1555  0.2406
  458SOL     OW 1829   1.371   1.482   0.702 -0.3929 -0.3940 -0.0784
  458SOL    HW1 1830   1.306   1.548   0.679  1.0413 -3.5191  0.7943
  458SOL    HW2 1831   1.340   1.399   0.659 -0.8502 -3.0634 -3.7534
  458SOL     MW 1832   1.358   1.480   0.693 -0.2640 -1.1585 -0.4481
  459SOL     OW 1833   1.575   0.008   0.251  0.3399 -0.6860  0.2238
  459SOL    HW1 1834   1.616  -0.078   0.237  0.6122 -0.4591  0.4538
  459SOL    HW2 1835   1.512   0.016   0.173  0.5719 -0.6457  0.8320
  459SOL     MW 1836   1.572  -0.002   0.239  0.4065 -0.6508  0.3344
  460SOL     OW 1837   1.792   2.231   0.642 -0.0197  0.1276 -0.1086
  460SOL    HW1 1838   1.705   2.227   0.678  2.1799  0.0108  0.1243
  460SOL    HW2 1839   1.822   2.138   0.652  0.9001 -0.5587 -0.4343
  460SOL     MW 1840   1.785   2.218   0.648  0.3919  0.0216 -0.1209
  461SOL     OW 1841   0.448   2.437   0.624 -0.2345 -0.0991 -0.4892
  461SOL    HW1 1842   0.424   2.517   0.585 -0.6212 -1.7148 -1.9138
  461SOL    HW2 1843   0.400   2.438   0.707 -1.7993 -0.4358  0.7338
  461SOL     MW 1844   0.439   2.448   0.630 -0.4919 -0.3567 -0.5158
  462SOL     OW 1845   0.292   0.217   1.315 -0.1734  0.7198 -0.2535
  462SOL    HW1 1846   0.328   0.184   1.233  4.7831 -1.3124  1.9755
  462SOL    HW2 1847   0.359   0.261   1.366 -0.4796  0.1842  1.2488
  462SOL     MW 1848   0.306   0.218   1.311  0.4402  0.3810  0.2388
  463SOL     OW 1849   1.059   0.062   0.737  0.2866  0.3011  0.2515
  463SOL    HW1 1850   1.130   0.027   0.688 -2.2013 -0.4374  0.8022
  463SOL    HW2 1851   0.998   0.100   0.670  0.6598  3.3614  2.6897
  463SOL     MW 1852   1.061   0.062   0.721  0.0076  0.6074  0.6458
  464SOL     OW 1853   0.783   3.103   2.274 -0.1545 -0.0564  0.6176
  464SOL    HW1 1854   0.770   3.011   2.284 -1.2790  2.0755 -1.7269
  464SOL    HW2 1855   0.821   3.136   2.356 -0.8422 -3.1622 -1.1502
  464SOL     MW 1856   0.786   3.096   2.286 -0.3936 -0.1849  0.0751
  465SOL     OW 1857   0.780   0.316   0.412  0.0996  0.4604 -0.0274
  465SOL    HW1 1858   0.787   0.232   0.469 -3.1285 -1.1322 -1.1529
  465SOL    HW2 1859   0.750   0.288   0.326 -0.8146 -1.4434  3.5661
  465SOL     MW 1860   0.777   0.301   0.408 -0.4469 -0.0009  0.2982
  466SOL     OW 1861   1.086   2.025   0.772  0.1591  0.0310  0.3759
  466SOL    HW1 1862   1.065   1.947   0.728 -0.1977  0.6282  0.0658
  466SOL    HW2 1863   1.061   2.100   0.707 -0.2269  1.6063  1.2532
  466SOL     MW 1864   1.080   2.025   0.758  0.0611  0.3176  0.4507
  467SOL     OW 1865   1.266   2.319   0.995  0.0387  0.0290 -0.1508
  467SOL    HW1 1866   1.351   2.359   1.009  0.6932  0.2477 -0.4477
  467SOL    HW2 1867   1.291   2.225   0.999 -1.9113 -1.8629 -0.9219
  467SOL     MW 1868   1.280   2.312   0.997 -0.1323 -0.1917 -0.2917
  468SOL     OW 1869   0.498   2.663   1.895  0.4228  0.1093 -0.2676
  468SOL    HW1 1870   0.482   2.568   1.882  2.1549 -1.2333 -0.5167
  468SOL    HW2 1871   0.425   2.703   1.863  3.3744 -0.8583  0.9094
  468SOL     MW 1872   0.486   2.656   1.889  1.0407 -0.1955 -0.1452
  469SOL     OW 1873   0.391   2.121   1.864  0.0014 -0.2970 -0.3994
  469SOL    HW1 1874   0.299   2.100   1.829  0.7528 -2.8832 -1.7385
  469SOL    HW2 1875   0.449   2.080   1.799 -1.0453 -2.0202 -0.6152
  469SOL     MW 1876   0.387   2.113   1.851 -0.0376 -0.8656 -0.6045
  470SOL     OW 1877   3.057   2.610   0.118 -0.1380  0.2811 -0.2858
  470SOL    HW1 1878   2.966   2.605   0.156 -1.8008  1.0860 -1.0198
  470SOL    HW2 1879   3.039   2.614   0.020 -0.2707  1.8407 -2.8675
  470SOL     MW 1880   3.043   2.610   0.110 -0.3749  0.5931 -0.7233
  471SOL     OW 1881   1.175   2.575   1.418  0.1063  0.9918 -0.7622
  471SOL    HW1 1882   1.095   2.574   1.464 -0.1570  1.8728  0.5250
  471SOL    HW2 1883   1.151   2.545   1.332  0.5782 -1.9595  2.0578
  471SOL     MW 1884   1.162   2.571   1.413  0.1338  0.7187 -0.2203
  472SOL     OW 1885   2.833   2.103   0.356  0.3854  0.0903 -0.1168
  472SOL    HW1 1886   2.836   2.071   0.266 -3.0846  3.2750 -0.2703
  472SOL    HW2 1887   2.788   2.036   0.400  1.7585  0.1592  0.7723
  472SOL     MW 1888   2.827   2.090   0.350  0.1087  0.5196 -0.0197
  473SOL     OW 1889   0.812   2.554   1.397  0.1481  0.2353  0.1667
  473SOL    HW1 1890   0.845   2.462   1.401 -1.0922 -0.1488  1.5316
  473SOL    HW2 1891   0.826   2.585   1.484  0.2100 -0.1123  2.0140
  473SOL     MW 1892   0.819   2.546   1.409 -0.0074  0.1387  0.5906
  474SOL     OW 1893   0.680   2.307   1.764 -0.7062  0.3050  0.9189
  474SOL    HW1 1894   0.751   2.302   1.833  0.4694  0.8501  1.9540
  474SOL    HW2 1895   0.714   2.242   1.699 -1.6643  4.1397 -0.2507
  474SOL     MW 1896   0.694   2.298   1.764 -0.6775  0.8829  0.9012
  475SOL     OW 1897   1.612   3.091   1.510  0.0831 -0.3354  0.4917
  475SOL    HW1 1898   1.550   3.098   1.437  0.8445  1.8007 -0.6350
  475SOL    HW2 1899   1.598   3.003   1.549  0.2630 -0.7266  2.3625
  475SOL     MW 1900   1.602   3.080   1.506  0.2073 -0.1052  0.5899
  476SOL     OW 1901   1.418   2.589   1.099 -0.3422  0.5683  0.6184
  476SOL    HW1 1902   1.330   2.634   1.085  1.1006 -0.2992 -1.0822
  476SOL    HW2 1903   1.471   2.658   1.069 -0.3163 -0.9939 -1.4461
  476SOL     MW 1904   1.413   2.604   1.093 -0.1484  0.2477  0.1216
  477SOL     OW 1905   0.844   2.567   0.651  0.2511 -0.1356 -0.3214
  477SOL    HW1 1906   0.906   2.616   0.596 -0.1683  0.4681  1.3158
  477SOL    HW2 1907   0.827   2.489   0.610 -0.0153  2.4181 -1.3078
  477SOL     MW 1908   0.850   2.563   0.638  0.1606  0.2810 -0.2355
  478SOL     OW 1909   0.191   2.647   0.935 -0.1610  0.3878  0.8285
  478SOL    HW1 1910   0.230   2.713   0.878  1.9797  0.3298  0.6663
  478SOL    HW2 1911   0.252   2.570   0.918  2.3949  0.8550  0.8272
  478SOL     MW 1912   0.204   2.646   0.926  0.4587  0.4418  0.8069
  479SOL     OW 1913   1.426   1.985   1.287 -0.2903  0.0952  0.0638
  479SOL    HW1 1914   1.418   2.021   1.373  1.2975  0.6138 -0.8296
  479SOL    HW2 1915   1.475   1.900   1.295 -0.8900  0.9023 -0.2903
  479SOL     MW 1916   1.431   1.979   1.300 -0.1599  0.2701 -0.1008
  480SOL     OW 1917   2.015   2.443   1.309 -0.0118  0.5255  0.3888
  480SOL    HW1 1918   1.980   2.354   1.325 -1.3539 -1.9878 -0.9551
  480SOL    HW2 1919   2.024   2.453   1.213 -0.1878 -0.0657 -0.6977
  480SOL     MW 1920   2.011   2.432   1.298 -0.2121  0.1159  0.0681
  481SOL     OW 1921   1.033   0.054   1.053 -0.1023  0.5760 -0.2137
  481SOL    HW1 1922   1.099   0.005   1.001  2.7029  1.4568  0.3177
  481SOL    HW2 1923   1.072   0.131   1.093 -0.1352 -1.3245 -0.3406
  481SOL     MW 1924   1.047   0.058   1.052  0.2635  0.4415 -0.1603
  482SOL     OW 1925   1.098   3.075   0.285  0.3257  0.1799  0.1685
  482SOL    HW1 1926   1.038   3.019   0.341 -2.3215  0.1621  0.9337
  482SOL    HW2 1927   1.089   3.165   0.315  1.8244 -1.4300 -1.3133
  482SOL     MW 1928   1.089   3.079   0.296  0.1742 -0.0349  0.0740
  483SOL     OW 1929   0.419   2.969   0.420 -0.3266  0.5128  0.5945
  483SOL    HW1 1930   0.330   2.985   0.379 -3.2135 -0.7443 -1.3207
  483SOL    HW2 1931   0.399   2.995   0.511  0.8981  1.7487  2.1059
  483SOL     MW 1932   0.404   2.975   0.427 -0.5459  0.5100  0.5412
  484SOL     OW 1933   1.871   1.936   1.502 -0.1884  0.1077  0.1610
  484SOL    HW1 1934   1.944   2.000   1.520  1.3207  0.1911 -0.3030
  484SOL    HW2 1935   1.831   1.937   1.586  1.4088  1.8181 -0.0958
  484SOL     MW 1936   1.875   1.945   1.515  0.2215  0.3444  0.0659
  485SOL     OW 1937   0.572   2.337   0.249 -0.1845  1.4623 -0.5009
  485SOL    HW1 1938   0.587   2.319   0.341  1.9927 -1.3462  0.8107
  485SOL    HW2 1939   0.484   2.379   0.244 -0.4707 -2.7897  1.1156
  485SOL     MW 1940   0.562   2.340   0.260  0.0650  0.5308 -0.1145
  486SOL     OW 1941   0.172   2.400   1.485  0.0621  0.3580 -0.0134
  486SOL    HW1 1942   0.213   2.476   1.445 -0.1653 -2.3353 -1.6500
  486SOL    HW2 1943   0.145   2.436   1.572 -2.2940  2.6519  1.3726
  486SOL     MW 1944   0.174   2.415   1.492 -0.2788  0.3053 -0.0465
  487SOL     OW 1945   1.217   1.702   1.051 -0.3407  0.3375  0.1245
  487SOL    HW1 1946   1.176   1.789   1.067  3.2691  4.6391 -1.8653
  487SOL    HW2 1947   1.304   1.719   1.014 -0.6702 -0.0456 -1.9410
  487SOL     MW 1948   1.223   1.716   1.048  0.0921  0.8545 -0.4105
  488SOL     OW 1949   1.610   1.831   0.575  0.1133  0.2384  0.0403
  488SOL    HW1 1950   1.677   1.842   0.510  0.3688 -0.6785 -0.7855
  488SOL    HW2 1951   1.546   1.898   0.539  0.5206 -0.8452  0.2995
  488SOL     MW 1952   1.611   1.841   0.561  0.2007 -0.0255 -0.0345
  489SOL     OW 1953   0.764   0.838   0.627  0.2839  0.3962  0.2232
  489SOL    HW1 1954   0.785   0.759   0.575  2.1796  1.6330 -0.3354
  489SOL    HW2 1955   0.754   0.802   0.714  0.2857 -0.4960 -2.4312
  489SOL     MW 1956   0.766   0.823   0.632  0.5343  0.4417 -0.2007
  490SOL     OW 1957   1.484   2.047   0.489  0.1687 -0.2884  0.5303
  490SOL    HW1 1958   1.500   2.134   0.456 -1.1221  2.3913  0.7977
  490SOL    HW2 1959   1.387   2.035   0.463  0.8328 -0.3044  3.9716
  490SOL     MW 1960   1.474   2.057   0.481  0.0860  0.0630  1.0196
  491SOL     OW 1961   1.306   2.944   0.438 -0.1960  0.8390 -0.1756
  491SOL    HW1 1962   1.352   3.023   0.460  1.4979  1.4490  3.2231
  491SOL    HW2 1963   1.229   2.976   0.386  0.0473 -0.5840  0.3452
  491SOL     MW 1964   1.302   2.959   0.434  0.0596  0.7317  0.3415
  492SOL     OW 1965   1.487   2.187   0.738  0.3353 -0.0910 -0.2805
  492SOL    HW1 1966   1.483   2.134   0.662 -0.6697  0.1322 -1.8255
  492SOL    HW2 1967   1.433   2.149   0.811  2.9207 -1.6886  1.6319
  492SOL     MW 1968   1.480   2.175   0.738  0.5439 -0.2723 -0.2320
  493SOL     OW 1969   0.168   3.030   0.342 -0.1120 -1.0171 -0.6059
  493SOL    HW1 1970   0.106   3.082   0.399 -0.3384  0.6925  0.0283
  493SOL    HW2 1971   0.168   3.069   0.257  0.2240  1.9990  2.2298
  493SOL     MW 1972   0.160   3.042   0.338 -0.0975 -0.3936 -0.1481
  494SOL     OW 1973   0.428   2.406   1.774  0.1610  0.2994 -0.1428
  494SOL    HW1 1974   0.485   2.328   1.779  1.7702  0.6485 -0.3017
  494SOL    HW2 1975   0.449   2.436   1.685  0.7523  0.8219 -0.6730
  494SOL     MW 1976   0.438   2.399   1.763  0.4513  0.4144 -0.2337
  495SOL     OW 1977   2.876   1.687   2.591 -0.3573  0.4143  0.2733
  495SOL    HW1 1978   2.872   1.781   2.581  2.0069  1.8539 -0.8896
  495SOL    HW2 1979   2.829   1.664   2.672  0.2025  1.9563 -0.7903
  495SOL     MW 1980   2.870   1.696   2.601  0.0285  0.8077 -0.0204
  496SOL     OW 1981   2.923   2.376   2.711  0.4907 -0.6024 -0.0474
  496SOL    HW1 1982   2.982   2.306   2.753 -0.4953 -0.1550 -1.2333
  496SOL    HW2 1983   2.985   2.447   2.693  0.4729 -1.7388 -1.8852
  496SOL     MW 1984   2.939   2.376   2.714  0.3582 -0.6933 -0.4464
  497SOL     OW 1985   1.624   2.193   2.624 -0.3587  0.2583 -0.3290
  497SOL    HW1 1986   1.555   2.133   2.591 -1.3072  1.9785  1.0803
  497SOL    HW2 1987   1.641   2.161   2.712 -0.5317 -1.1778 -0.1556
  497SOL     MW 1988   1.617   2.181   2.631 -0.5067  0.2958 -0.1202
  498SOL     OW 1989   1.446   2.709   2.344  0.2516 -0.4494  0.1008
  498SOL    HW1 1990   1.439   2.616   2.353 -1.0394  0.5811 -0.1343
  498SOL    HW2 1991   1.544   2.725   2.356 -0.7240 -2.9639  3.0217
  498SOL     MW 1992   1.458   2.699   2.346 -0.0474 -0.6452  0.4552
  499SOL     OW 1993   1.006   0.136   3.078  0.1690  0.2770 -0.5704
  499SOL    HW1 1994   0.937   0.165   3.141 -3.6677 -1.5849  3.4687
  499SOL    HW2 1995   1.067   0.076   3.120  2.0507 -1.9308  1.3431
  499SOL     MW 1996   1.004   0.132   3.092 -0.0889 -0.2599  0.2150
  500SOL     OW 1997   1.117   2.512   2.755  0.4949 -0.6326 -0.0084
  500SOL    HW1 1998   1.203   2.511   2.794 -0.6766  1.6683  0.4672
  500SOL    HW2 1999   1.054   2.505   2.826 -0.1219  0.4401 -1.2167
  500SOL     MW 2000   1.120   2.511   2.769  0.2589 -0.1875 -0.1050
  501SOL     OW 2001   1.808   2.217   3.087  0.6736  0.2796  0.3388
  501SOL    HW1 2002   1.786   2.310   3.111  1.2237 -2.0603  0.1573
  501SOL    HW2 2003   1.904   2.210   3.078 -1.2206 -1.8269  0.5773
  501SOL     MW 2004   1.817   2.229   3.089  0.4963 -0.3071  0.3463
  502SOL     OW 2005   0.151   2.828   3.085  0.2910  0.5918 -0.2332
  502SOL    HW1 2006   0.104   2.762   3.028  2.8367  2.0697 -0.3677
  502SOL    HW2 2007   0.194   2.881   3.016 -2.6281 -0.9636  1.4781
  502SOL     MW 2008   0.150   2.826   3.068  0.2417  0.5816 -0.0252
  503SOL     OW 2009   1.024   2.821   2.182 -0.4594  0.6509 -0.2116
  503SOL    HW1 2010   0.997   2.781   2.102  1.2770 -2.2005 -1.4272
  503SOL    HW2 2011   1.036   2.904   2.136  0.7100  1.0785  0.6211
  503SOL     MW 2012   1.022   2.827   2.165 -0.0760  0.3311 -0.2621
  504SOL     OW 2013   0.058   2.692   2.107 -0.4972 -0.0611  0.0470
  504SOL    HW1 2014   0.096   2.613   2.070 -0.8062  0.7048  2.5810
  504SOL    HW2 2015   0.044   2.663   2.202  1.9137 -1.2203 -0.1259
  504SOL     MW 2016   0.061   2.678   2.115 -0.2199 -0.1130  0.3585
  505SOL     OW 2017   1.689   2.691   2.685 -0.2288 -0.1662  0.2813
  505SOL    HW1 2018   1.689   2.731   2.601 -0.0677  1.8463 -0.0366
  505SOL    HW2 2019   1.607   2.720   2.732 -0.6886  2.0801 -1.3738
  505SOL     MW 2020   1.678   2.700   2.680 -0.2682  0.3957  0.0210
  506SOL     OW 2021   1.618   3.032   2.840 -0.3216 -0.4613 -0.0709
  506SOL    HW1 2022   1.666   3.030   2.925  0.4113 -0.3188 -0.0872
  506SOL    HW2 2023   1.680   3.036   2.764 -0.8921 -0.0824  0.9996
  506SOL     MW 2024   1.633   3.032   2.841 -0.3001 -0.3925  0.0682
  507SOL     OW 2025   0.876   2.729   2.855 -0.2778 -0.2837 -0.1572
  507SOL    HW1 2026   0.948   2.785   2.810  1.2689  2.9434 -0.1383
  507SOL    HW2 2027   0.803   2.781   2.841 -0.6673 -1.3179 -1.1981
  507SOL     MW 2028   0.876   2.743   2.848 -0.1251  0.0056 -0.2920
  508SOL     OW 2029   1.135   2.084   2.522  0.0910 -0.1849 -0.1079
  508SOL    HW1 2030   1.221   2.060   2.562  1.2658 -2.4162 -0.3528
  508SOL    HW2 2031   1.100   2.144   2.593 -2.2153 -1.4011 -0.2036
  508SOL     MW 2032   1.142   2.089   2.537 -0.0583 -0.6398 -0.1528
  509SOL     OW 2033   0.601   2.549   2.891  0.3934  0.4434  0.8040
  509SOL    HW1 2034   0.624   2.550   2.802  1.6079 -1.3209  0.1813
  509SOL    HW2 2035   0.507   2.529   2.900 -2.2029  0.3652  3.4001
  509SOL     MW 2036   0.592   2.546   2.880  0.2111  0.2003  1.0644
  510SOL     OW 2037   1.509   2.569   1.704 -0.2398  0.6231 -0.3737
  510SOL    HW1 2038   1.493   2.657   1.685  2.9103 -0.0759 -0.8218
  510SOL    HW2 2039   1.440   2.548   1.767  1.3480  3.0905 -1.1776
  510SOL     MW 2040   1.498   2.578   1.710  0.3853  0.8564 -0.5389
  511SOL     OW 2041   0.421   2.622   2.438 -0.1257 -0.5301 -0.5916
  511SOL    HW1 2042   0.503   2.586   2.476 -2.9868 -0.0276  2.6348
  511SOL    HW2 2043   0.422   2.594   2.352 -2.6087 -0.6032  0.2206
  511SOL     MW 2044   0.432   2.613   2.431 -0.8308 -0.4735 -0.0587
  512SOL     OW 2045   1.038   2.001   2.854 -0.5537 -0.5138 -0.4197
  512SOL    HW1 2046   0.943   2.018   2.856 -0.1710 -0.0280 -0.4316
  512SOL    HW2 2047   1.055   1.910   2.881 -2.4223 -0.8606 -0.8056
  512SOL     MW 2048   1.028   1.991   2.858 -0.7497 -0.4954 -0.4722
  513SOL     OW 2049   1.488   2.424   2.384 -0.4126 -0.2463  0.5216
  513SOL    HW1 2050   1.581   2.442   2.412 -1.4705 -0.1952 -2.1224
  513SOL    HW2 2051   1.489   2.329   2.398  1.8620  0.0245  3.3306
  513SOL     MW 2052   1.501   2.414   2.390 -0.2521 -0.2038  0.5434
  514SOL     OW 2053   0.279   2.469   2.613  0.0758 -0.1876  0.8045
  514SOL    HW1 2054   0.319   2.541   2.566  0.6023 -3.3086  2.8864
  514SOL    HW2 2055   0.289   2.475   2.707  0.4782  1.4352 -0.1949
  514SOL     MW 2056   0.286   2.479   2.619  0.1984 -0.3852  0.9473
  515SOL     OW 2057   1.043   2.067   1.872 -0.1888 -0.2141  1.2921
  515SOL    HW1 2058   0.993   2.150   1.869  0.8214 -1.2889 -0.3088
  515SOL    HW2 2059   1.127   2.083   1.920  3.3424  0.5715  0.8745
  515SOL     MW 2060   1.048   2.080   1.878  0.4103 -0.2522  1.0257
  516SOL     OW 2061   1.481   2.498   3.024 -0.2696  0.1843  0.5018
  516SOL    HW1 2062   1.541   2.468   2.944 -2.5588 -2.3409 -2.5084
  516SOL    HW2 2063   1.393   2.458   3.013 -0.2795  0.1332  0.2937
  516SOL     MW 2064   1.477   2.489   3.012 -0.5730 -0.1556  0.0772
  517SOL     OW 2065   0.587   2.407   2.132 -0.5750 -0.4214  0.2111
  517SOL    HW1 2066   0.570   2.500   2.146  0.2764  0.8514 -1.2954
  517SOL    HW2 2067   0.507   2.360   2.121 -1.5211 -0.2375 -3.0691
  517SOL     MW 2068   0.574   2.413   2.132 -0.5875 -0.2292 -0.4204
  518SOL     OW 2069   1.911   0.142   2.937 -0.3105 -0.4110 -0.3460
  518SOL    HW1 2070   1.855   0.195   2.877 -0.5454  1.0538  0.0016
  518SOL    HW2 2071   1.864   0.141   3.020 -0.8916  2.3663 -1.4827
  518SOL     MW 2072   1.897   0.149   2.940 -0.4182  0.1487 -0.4501
  519SOL     OW 2073   0.744   2.588   1.729 -0.0904  0.0981  0.6775
  519SOL    HW1 2074   0.726   2.496   1.748 -0.1785 -3.2707  0.8819
  519SOL    HW2 2075   0.655   2.629   1.738 -2.2548  2.2214 -0.8162
  519SOL     MW 2076   0.730   2.581   1.733 -0.3876 -0.0662  0.5074
  520SOL     OW 2077   1.266   2.130   2.946  0.2210 -0.5084  0.3553
  520SOL    HW1 2078   1.177   2.092   2.944  2.4471 -2.7980 -1.4660
  520SOL    HW2 2079   1.309   2.074   3.015  0.2583  0.6103  0.5101
  520SOL     MW 2080   1.260   2.117   2.955  0.5196 -0.6629  0.1355
  521SOL     OW 2081   1.724   2.070   2.263  0.2165  0.3911 -1.0802
  521SOL    HW1 2082   1.755   2.123   2.191  3.8662 -1.7715 -0.5072
  521SOL    HW2 2083   1.725   1.976   2.242 -0.9353  0.2314 -1.4619
  521SOL     MW 2084   1.728   2.064   2.251  0.5461  0.0847 -1.0550
  522SOL     OW 2085   2.833   2.568   2.179 -0.0742  0.1113  0.3960
  522SOL    HW1 2086   2.915   2.534   2.221 -2.8778 -2.3177 -1.3376
  522SOL    HW2 2087   2.769   2.586   2.248  0.7451  0.0581  0.6061
  522SOL     MW 2088   2.836   2.566   2.194 -0.3360 -0.2162  0.1950
  523SOL     OW 2089   0.845   1.508   2.133  0.1483  0.2146 -0.4131
  523SOL    HW1 2090   0.844   1.576   2.064  0.2598 -1.8239 -0.8673
  523SOL    HW2 2091   0.894   1.438   2.098  1.6844 -0.8063  1.4851
  523SOL     MW 2092   0.851   1.508   2.119  0.3657 -0.1891 -0.2226
  524SOL     OW 2093   0.891   2.447   2.927 -0.0169  0.5609  0.4017
  524SOL    HW1 2094   0.855   2.527   2.894 -0.2156 -0.8616  0.0792
  524SOL    HW2 2095   0.838   2.375   2.898  2.1620 -0.7406  0.4921
  524SOL     MW 2096   0.879   2.448   2.919  0.2444  0.2015  0.3711
  525SOL     OW 2097   0.353   2.275   2.089 -0.1361  0.6747 -0.4952
  525SOL    HW1 2098   0.346   2.210   2.160  0.8692 -0.7983  0.5644
  525SOL    HW2 2099   0.361   2.217   2.009 -0.2012 -0.8401  1.2754
  525SOL     MW 2100   0.354   2.259   2.088 -0.0121  0.2805 -0.1218
  526SOL     OW 2101   0.706   2.102   1.981 -0.4740 -0.1652 -0.0836
  526SOL    HW1 2102   0.667   2.135   1.901 -1.9900  0.6635 -0.1904
  526SOL    HW2 2103   0.657   2.152   2.045  0.8466  3.8285  1.2856
  526SOL     MW 2104   0.694   2.113   1.979 -0.4998  0.4711  0.0830
  527SOL     OW 2105   1.340   1.969   2.032  0.3595  0.3233  0.4938
  527SOL    HW1 2106   1.314   1.938   2.120 -1.0363  0.6188  1.7149
  527SOL    HW2 2107   1.375   1.887   2.000  0.5824 -0.9139 -1.4338
  527SOL     MW 2108   1.341   1.954   2.039  0.2048  0.1990  0.4006
  528SOL     OW 2109   0.634   2.884   2.946  0.2946  0.3946 -0.5388
  528SOL    HW1 2110   0.672   2.970   2.938  0.0769  0.3696 -1.3240
  528SOL    HW2 2111   0.556   2.883   2.892  1.2983  0.1385  2.1824
  528SOL     MW 2112   0.629   2.895   2.938  0.3983  0.3576 -0.2834
  529SOL     OW 2113   0.917   2.308   1.903  0.3006 -0.5415  0.2840
  529SOL    HW1 2114   0.961   2.305   1.986  2.6100 -2.3808 -1.4375
  529SOL    HW2 2115   0.996   2.328   1.848 -2.2755 -0.2200  0.4151
  529SOL     MW 2116   0.933   2.310   1.907  0.2654 -0.7417  0.0742
  530SOL     OW 2117   1.224   2.406   3.006  0.1786  0.6086 -0.4609
  530SOL    HW1 2118   1.145   2.424   3.067 -2.3520  1.1286  0.4574
  530SOL    HW2 2119   1.248   2.311   2.995 -0.2351  0.3583 -2.1041
  530SOL     MW 2120   1.217   2.396   3.012 -0.2099  0.6442 -0.5566
  531SOL     OW 2121   0.958   1.857   2.570 -0.0922  0.1253 -0.4595
  531SOL    HW1 2122   1.010   1.934   2.558 -0.1764 -2.2946 -0.2943
  531SOL    HW2 2123   0.919   1.864   2.660 -1.8781 -0.5548  5.1663
  531SOL     MW 2124   0.959   1.868   2.580 -0.3390 -0.2837  0.3046
  532SOL     OW 2125   1.745   0.307   2.789 -0.5096 -0.6080 -0.9120
  532SOL    HW1 2126   1.756   0.295   2.696 -0.7817 -1.4786  0.5726
  532SOL    HW2 2127   1.820   0.350   2.820 -1.7360 -1.2546 -1.3063
  532SOL     MW 2128   1.756   0.311   2.781 -0.7073 -0.8082 -0.7681
  533SOL     OW 2129   1.820   2.683   3.040 -0.0493  0.0159  0.5425
  533SOL    HW1 2130   1.771   2.601   3.034  2.2753  1.3808  0.7308
  533SOL    HW2 2131   1.754   2.747   3.004 -0.1451 -0.7959 -0.2086
  533SOL     MW 2132   1.805   2.681   3.035  0.2448  0.0889  0.4683
  534SOL     OW 2133   1.750   2.413   2.487 -0.2634 -0.3591 -0.2424
  534SOL    HW1 2134   1.709   2.334   2.532 -3.4676  0.0425  0.6577
  534SOL    HW2 2135   1.795   2.457   2.560 -0.0619  0.1969  2.5923
  534SOL     MW 2136   1.750   2.408   2.502 -0.6596 -0.2327  0.2504
  535SOL     OW 2137   1.895   2.393   1.901 -0.4305  0.0042  0.0204
  535SOL    HW1 2138   1.857   2.395   1.805 -0.6836  1.1232 -2.3134
  535SOL    HW2 2139   1.988   2.400   1.877 -0.6436  2.0602 -0.0355
  535SOL     MW 2140   1.902   2.394   1.885 -0.4920  0.4231 -0.2949
  536SOL     OW 2141   0.586   1.815   2.053 -0.1475  0.1292  0.2096
  536SOL    HW1 2142   0.520   1.766   2.000 -1.2864  0.1462  1.2739
  536SOL    HW2 2143   0.603   1.900   2.010  0.7489  2.6632 -1.3704
  536SOL     MW 2144   0.580   1.820   2.041 -0.1795  0.4658  0.1416
  537SOL     OW 2145   1.087   0.177   2.770 -0.0748  0.5822 -0.1230
  537SOL    HW1 2146   1.095   0.216   2.853  0.3671  1.6737 -1.7025
  537SOL    HW2 2147   1.051   0.251   2.721 -0.0856  1.5517 -0.6438
  537SOL     MW 2148   1.083   0.192   2.775 -0.0179  0.8542 -0.4001
  538SOL     OW 2149   1.468   0.055   0.003  0.1374  0.1758  0.7998
  538SOL    HW1 2150   1.470   0.144   0.039 -1.0644  1.4375  0.9533
  538SOL    HW2 2151   1.375   0.038  -0.022  1.4899  0.0216  2.0855
  538SOL     MW 2152   1.456   0.065   0.005  0.1573  0.3219  0.9897
  539SOL     OW 2153   0.706   2.806   2.582 -0.1758 -0.3096 -0.4201
  539SOL    HW1 2154   0.783   2.864   2.600 -0.1586  1.3728  0.7284
  539SOL    HW2 2155   0.706   2.714   2.619  0.6198  0.7967  3.4726
  539SOL     MW 2156   0.717   2.801   2.589 -0.0686  0.0583  0.2450
  540SOL     OW 2157   0.279   2.474   2.893 -0.9993 -0.8522 -0.0167
  540SOL    HW1 2158   0.321   2.510   2.970 -1.9087 -0.7175 -0.1364
  540SOL    HW2 2159   0.253   2.387   2.929 -0.4379  1.3458 -0.7280
  540SOL     MW 2160   0.281   2.467   2.908 -1.0452 -0.5444 -0.1263
  541SOL     OW 2161   0.201   2.922   2.146  0.2633  0.5687 -0.5479
  541SOL    HW1 2162   0.154   2.838   2.120  2.5194 -1.0896 -3.1551
  541SOL    HW2 2163   0.263   2.905   2.216  0.9281  2.4658  1.8165
  541SOL     MW 2164   0.203   2.909   2.152  0.6487  0.6002 -0.5799
  542SOL     OW 2165   0.998   2.258   2.677 -0.3529 -0.1887  0.0391
  542SOL    HW1 2166   0.935   2.222   2.740 -1.7582  0.4927 -0.8722
  542SOL    HW2 2167   1.059   2.318   2.730  2.1300 -0.9890  0.7961
  542SOL     MW 2168   0.998   2.261   2.693 -0.2107 -0.2044  0.0188
  543SOL     OW 2169   1.647   2.443   2.846 -0.4352  0.4885 -0.7096
  543SOL    HW1 2170   1.657   2.359   2.794  0.8021 -0.0942  1.9525
  543SOL    HW2 2171   1.664   2.510   2.773  2.7137  0.8475 -1.1600
  543SOL     MW 2172   1.650   2.441   2.829  0.1435  0.4590 -0.4178
  544SOL     OW 2173   0.781   0.163   2.721 -0.3840  0.6655 -0.3020
  544SOL    HW1 2174   0.684   0.187   2.717 -1.3149  0.0558 -1.1064
  544SOL    HW2 2175   0.816   0.143   2.630  1.4223 -0.2153 -0.0427
  544SOL     MW 2176   0.773   0.163   2.708 -0.2685  0.4689 -0.3740
  545SOL     OW 2177   1.457   2.123   2.313  0.2380 -0.3229  0.0128
  545SOL    HW1 2178   1.421   2.142   2.225  1.0835 -1.1422 -1.7505
  545SOL    HW2 2179   1.559   2.113   2.298  1.2527 -1.4531 -0.7118
  545SOL     MW 2180   1.465   2.124   2.300  0.4834 -0.5801 -0.3154
  546SOL     OW 2181   2.891   1.996   0.103 -0.0209 -0.1805 -0.4524
  546SOL    HW1 2182   2.911   2.080   0.063 -0.1754 -1.4283  0.6131
  546SOL    HW2 2183   2.983   1.958   0.121 -2.7728  0.0997  1.4686
  546SOL     MW 2184   2.905   2.002   0.100 -0.4044 -0.3081 -0.0584
  547SOL     OW 2185   0.219   0.050   0.105 -0.0201 -0.2577 -0.0630
  547SOL    HW1 2186   0.308   0.027   0.078  2.8123 -0.2361 -2.1877
  547SOL    HW2 2187   0.166   0.045   0.029  0.6426  1.2912  0.9733
  547SOL     MW 2188   0.224   0.046   0.091  0.4411 -0.0505 -0.2066
  548SOL     OW 2189   0.306   2.424   0.229  0.0083 -0.0621 -0.3956
  548SOL    HW1 2190   0.313   2.483   0.152 -0.2937 -0.3735  1.8610
  548SOL    HW2 2191   0.215   2.376   0.213 -1.3527 -3.5343 -1.1628
  548SOL     MW 2192   0.295   2.425   0.217 -0.2111 -0.5613 -0.1991
  549SOL     OW 2193   0.863   1.951   2.147  0.4523 -0.0684 -0.2197
  549SOL    HW1 2194   0.818   2.005   2.077  2.2473  2.2421 -1.1105
  549SOL    HW2 2195   0.796   1.928   2.219 -1.4260 -0.9048  1.7962
  549SOL     MW 2196   0.848   1.955   2.147  0.4413  0.1261 -0.0713
  550SOL     OW 2197   1.881   1.762   2.539  0.3893  0.3667 -0.2331
  550SOL    HW1 2198   1.831   1.782   2.454 -0.3598  0.0664 -0.7944
  550SOL    HW2 2199   1.842   1.811   2.616 -0.2431 -1.4426  0.9004
  550SOL     MW 2200   1.869   1.771   2.538  0.2070  0.0883 -0.1576
  551SOL     OW 2201   0.860   2.218   0.262 -0.3136 -0.4101  0.0957
  551SOL    HW1 2202   0.955   2.206   0.269  1.7875 -0.1759  0.0659
  551SOL    HW2 2203   0.847   2.169   0.185  2.6617  3.9606  2.5594
  551SOL     MW 2204   0.871   2.210   0.253  0.3562  0.1974  0.4168
  552SOL     OW 2205   1.759   1.778   2.267  0.1784  0.2736  0.8133
  552SOL    HW1 2206   1.686   1.716   2.271 -1.2739 -1.7593 -3.2782
  552SOL    HW2 2207   1.836   1.733   2.213 -0.0036 -3.0939 -0.8570
  552SOL     MW 2208   1.759   1.764   2.260 -0.0372 -0.4389  0.0531
  553SOL     OW 2209   1.185   2.288   1.535  0.0561  0.9377 -0.2081
  553SOL    HW1 2210   1.242   2.204   1.542  1.1338 -1.2747  2.5166
  553SOL    HW2 2211   1.259   2.350   1.510  1.8778  0.4700  0.0218
  553SOL     MW 2212   1.202   2.285   1.533  0.4386  0.5841  0.1817
  554SOL     OW 2213   0.466   2.912   2.689 -0.0252 -0.0854  0.0861
  554SOL    HW1 2214   0.454   3.004   2.653 -1.5468  0.6287 -0.5600
  554SOL    HW2 2215   0.547   2.881   2.650 -0.4369  2.9049 -1.0688
  554SOL     MW 2216   0.475   2.920   2.679 -0.2802  0.4033 -0.1515
  555SOL     OW 2217   0.607   2.451   2.571  0.4060 -0.0497 -0.4062
  555SOL    HW1 2218   0.588   2.369   2.616 -0.1090  1.1017  0.9526
  555SOL    HW2 2219   0.695   2.448   2.530 -0.6246  3.1195  1.0988
  555SOL     MW 2220   0.616   2.440   2.571  0.2021  0.5204 -0.0284
  556SOL     OW 2221   1.039   1.924   0.068 -0.3773  0.0117 -0.2868
  556SOL    HW1 2222   1.052   1.884  -0.014 -1.2427  0.4035  1.3333
  556SOL    HW2 2223   1.125   1.926   0.112 -1.3296 -0.3550 -1.2469
  556SOL     MW 2224   1.052   1.919   0.063 -0.6172  0.0150 -0.1997
  557SOL     OW 2225   1.033   2.716   0.461 -0.0737 -0.2160  0.2077
  557SOL    HW1 2226   1.053   2.649   0.387 -1.6388  0.5408 -1.2590
  557SOL    HW2 2227   0.958   2.770   0.429  0.4925 -2.2423 -1.4096
  557SOL     MW 2228   1.026   2.714   0.447 -0.2055 -0.3835 -0.1992
  558SOL     OW 2229   0.177   2.247   3.021 -0.2967  0.3236 -0.1622
  558SOL    HW1 2230   0.106   2.232   2.963  0.0359 -2.0840  1.0369
  558SOL    HW2 2231   0.136   2.310   3.084  0.4255  1.3806  0.5536
  558SOL     MW 2232   0.162   2.253   3.021 -0.1575  0.1454  0.0905
  559SOL     OW 2233   1.029   2.372   2.129 -0.3040 -0.6181 -0.8498
  559SOL    HW1 2234   1.125   2.385   2.145  0.9120 -0.3348  0.2526
  559SOL    HW2 2235   1.010   2.298   2.187  0.0750  0.1953  0.9232
  559SOL     MW 2236   1.039   2.364   2.139 -0.0936 -0.4734 -0.4704
  560SOL     OW 2237   2.025   2.723   0.142  0.9416 -0.5825 -0.1223
  560SOL    HW1 2238   2.074   2.785   0.088  0.5570 -2.9424 -0.9786
  560SOL    HW2 2239   1.949   2.699   0.092  0.8040 -1.6450 -0.4877
  560SOL     MW 2240   2.021   2.728   0.128  0.8727 -1.0341 -0.2835
  561SOL     OW 2241   0.464   2.128   0.108  0.5287 -0.2028 -0.0969
  561SOL    HW1 2242   0.435   2.167   0.027  1.5484 -0.4147  1.6742
  561SOL    HW2 2243   0.524   2.192   0.157  0.3311 -0.1653  1.9162
  561SOL     MW 2244   0.468   2.142   0.104  0.6372 -0.2258  0.4024
  562SOL     OW 2245   0.678   2.188   2.304  0.0270  0.3979  0.5175
  562SOL    HW1 2246   0.653   2.266   2.266 -1.5459 -0.2616 -2.3174
  562SOL    HW2 2247   0.776   2.186   2.328  1.8930  0.0120  1.5088
  562SOL     MW 2248   0.688   2.198   2.302  0.0657  0.2600  0.2743
  563SOL     OW 2249   1.224   0.408   0.553 -0.0100 -0.3966  0.5599
  563SOL    HW1 2250   1.165   0.348   0.500 -1.2991  1.9313  0.0535
  563SOL    HW2 2251   1.227   0.374   0.652  2.0208  2.4815 -0.3385
  563SOL     MW 2252   1.216   0.396   0.559  0.0879  0.2902  0.3746
  564SOL     OW 2253   1.046   2.616   2.372 -0.1193  0.6277  0.0482
  564SOL    HW1 2254   1.050   2.692   2.311  2.0421 -1.8929  1.8497
  564SOL    HW2 2255   1.051   2.657   2.463  1.6420  0.3585  2.0128
  564SOL     MW 2256   1.048   2.632   2.376  0.3983  0.2596  0.5451
  565SOL     OW 2257   2.769   2.835   2.559 -0.0317  0.0705 -0.2433
  565SOL    HW1 2258   2.753   2.917   2.513  0.8971  1.0209  0.5128
  565SOL    HW2 2259   2.746   2.761   2.509  0.7385  0.1461 -0.4662
  565SOL     MW 2260   2.764   2.836   2.547  0.1924  0.2059 -0.1729
  566SOL     OW 2261   2.188   1.945   2.315 -0.0232  0.2534  0.5277
  566SOL    HW1 2262   2.190   1.920   2.222 -0.7578 -0.5252 -1.3580
  566SOL    HW2 2263   2.255   2.016   2.322  1.3862  1.5456  0.1547
  566SOL     MW 2264   2.197   1.951   2.304  0.0659  0.3212  0.2297
  567SOL     OW 2265   1.214   3.028   0.001  0.1449  0.2794  0.1185
  567SOL    HW1 2266   1.183   3.019   0.095 -1.4585 -1.3308  1.0676
  567SOL    HW2 2267   1.245   2.940  -0.019 -0.4783 -1.4703  1.8348
  567SOL     MW 2268   1.214   3.015   0.011 -0.1488 -0.1639  0.4702
  568SOL     OW 2269   1.666   2.089   2.875  0.0655 -0.6585  0.1734
  568SOL    HW1 2270   1.711   2.117   2.957  3.3869 -2.9766  0.4941
  568SOL    HW2 2271   1.733   2.027   2.842 -0.2272  0.1192  2.4884
  568SOL     MW 2272   1.681   2.084   2.882  0.4651 -0.8618  0.5212
  569SOL     OW 2273   0.105   2.293   2.468  0.0048  0.1737  0.1670
  569SOL    HW1 2274   0.102   2.324   2.375  1.4454 -1.4196 -1.1753
  569SOL    HW2 2275   0.160   2.349   2.526 -0.4561  0.7463 -0.0881
  569SOL     MW 2276   0.112   2.304   2.464  0.1341  0.0390 -0.0438
  570SOL     OW 2277   1.509   0.324   0.528  0.5656 -0.2127 -0.1009
  570SOL    HW1 2278   1.418   0.339   0.547 -0.4325 -0.5058 -1.2720
  570SOL    HW2 2279   1.567   0.348   0.599  0.7917 -1.3971 -1.3123
  570SOL     MW 2280   1.504   0.329   0.540  0.4638 -0.4076 -0.4153
  571SOL     OW 2281   1.346   2.363   2.129  0.1422 -0.0235 -0.1266
  571SOL    HW1 2282   1.389   2.381   2.209 -1.4476  0.6984  1.1934
  571SOL    HW2 2283   1.395   2.303   2.077  2.1026  1.4716  0.8971
  571SOL     MW 2284   1.358   2.358   2.132  0.1911  0.2690  0.1826
  572SOL     OW 2285   1.031   2.567   0.077  0.2607  0.2516 -0.2535
  572SOL    HW1 2286   1.015   2.657   0.044  1.0457  4.6512 -1.1306
  572SOL    HW2 2287   0.937   2.529   0.080  0.0995 -0.3862  0.8623
  572SOL     MW 2288   1.016   2.574   0.073  0.3430  0.7479 -0.2220
  573SOL     OW 2289   1.164   2.268   0.228 -0.4049 -0.6904 -0.3726
  573SOL    HW1 2290   1.246   2.281   0.174  1.1798 -2.6617 -0.8701
  573SOL    HW2 2291   1.143   2.358   0.250  2.8100 -0.0493 -0.9641
  573SOL     MW 2292   1.172   2.281   0.224  0.2284 -0.8659 -0.5163
  574SOL     OW 2293   1.137   2.532   0.308 -0.6500  0.2113  0.4656
  574SOL    HW1 2294   1.218   2.573   0.325 -0.7277  0.9524  0.8310
  574SOL    HW2 2295   1.131   2.555   0.214 -1.1662 -3.2013  2.2019
  574SOL     MW 2296   1.147   2.541   0.298 -0.7284 -0.1412  0.7429
  575SOL     OW 2297   3.058   2.205   1.656  0.4576  0.0754 -0.2911
  575SOL    HW1 2298   3.095   2.119   1.627 -3.5739 -1.5437  1.1928
  575SOL    HW2 2299   3.128   2.246   1.710 -1.1801 -0.4353 -1.1753
  575SOL     MW 2300   3.072   2.199   1.659 -0.2904 -0.2056 -0.2120
  576SOL     OW 2301   2.835   1.863   1.997  0.6581  0.7181 -0.5259
  576SOL    HW1 2302   2.850   1.942   1.934  0.2464  2.0793  0.2278
  576SOL    HW2 2303   2.752   1.831   1.960 -2.2802 -0.9295  0.3079
  576SOL     MW 2304   2.826   1.869   1.984  0.2161  0.6803 -0.3164
  577SOL     OW 2305   2.125   0.234   0.020 -0.0152 -0.1449 -0.2805
  577SOL    HW1 2306   2.059   0.222  -0.052  3.2016  1.0991  0.5057
  577SOL    HW2 2307   2.103   0.176   0.093  1.9811 -0.6597  1.7860
  577SOL     MW 2308   2.114   0.224   0.020  0.6726 -0.0487  0.0959
  578SOL     OW 2309   1.982   2.112   2.407 -0.5278 -0.1998 -0.4845
  578SOL    HW1 2310   1.896   2.081   2.378 -1.7550  1.2007  1.3851
  578SOL    HW2 2311   2.041   2.040   2.379  1.0936  2.2377  0.0941
  578SOL     MW 2312   1.979   2.099   2.399 -0.4758  0.3066 -0.1615
  579SOL     OW 2313   0.867   2.433   2.500 -1.2897  0.1752 -0.0955
  579SOL    HW1 2314   0.909   2.366   2.565  0.5613  1.7283  0.4928
  579SOL    HW2 2315   0.934   2.478   2.444  1.5457  0.4746  0.3229
  579SOL     MW 2316   0.882   2.430   2.501 -0.6714  0.4196  0.0373
  580SOL     OW 2317   0.958   2.825   3.100 -0.0081 -0.4022  0.1476
  580SOL    HW1 2318   1.050   2.848   3.084 -0.5201  0.0140  1.9574
  580SOL    HW2 2319   0.917   2.793   3.019 -0.5023 -0.3141  1.0577
  580SOL     MW 2320   0.965   2.824   3.088 -0.1408 -0.3357  0.5064
  581SOL     OW 2321   1.143   2.417   1.781 -0.2705 -0.1945  0.8737
  581SOL    HW1 2322   1.214   2.464   1.821 -1.0337 -1.9459 -2.2794
  581SOL    HW2 2323   1.183   2.360   1.707 -0.1325 -2.3063 -1.1720
  581SOL     MW 2324   1.157   2.416   1.776 -0.3530 -0.7042  0.1878
  582SOL     OW 2325   0.009   2.869   2.717 -0.3152  0.2909 -0.4089
  582SOL    HW1 2326  -0.072   2.924   2.694 -1.5433 -0.7293  0.7262
  582SOL    HW2 2327   0.079   2.931   2.730 -0.6266 -0.0923 -0.5906
  582SOL     MW 2328   0.008   2.885   2.715 -0.5183  0.1057 -0.2831
  583SOL     OW 2329   1.983   2.429   2.677 -0.4569 -0.0587 -0.7671
  583SOL    HW1 2330   2.066   2.451   2.633  2.9127 -2.0277 -1.4641
  583SOL    HW2 2331   1.981   2.335   2.670  0.8455  1.1275  0.0573
  583SOL     MW 2332   1.994   2.419   2.670  0.1595 -0.1620 -0.7503
  584SOL     OW 2333   0.122   1.906   2.205  0.6157  0.2684  0.3545
  584SOL    HW1 2334   0.123   1.843   2.282  0.1391  2.1408  0.0768
  584SOL    HW2 2335   0.175   1.980   2.239  0.1958 -1.8186  0.0246
  584SOL     MW 2336   0.129   1.907   2.220  0.4974  0.2401  0.2743
  585SOL     OW 2337   1.549   2.657   0.135  0.0012  0.6193  0.0639
  585SOL    HW1 2338   1.514   2.622   0.051  0.0267  2.0536  2.4897
  585SOL    HW2 2339   1.476   2.657   0.195 -0.8329 -0.4198  0.2311
  585SOL     MW 2340   1.535   2.652   0.132 -0.1055  0.6714  0.4060
  586SOL     OW 2341   1.334   2.813   2.589  0.0217  0.3283  0.2556
  586SOL    HW1 2342   1.357   2.779   2.495  1.4525 -0.9169 -2.1689
  586SOL    HW2 2343   1.305   2.903   2.575 -1.0836  2.5473 -1.3079
  586SOL     MW 2344   1.334   2.820   2.575  0.0647  0.4568 -0.2706
  587SOL     OW 2345   1.357   1.495   2.162  0.0060 -0.5099 -0.3400
  587SOL    HW1 2346   1.312   1.421   2.210  2.5109  0.0370  0.2514
  587SOL    HW2 2347   1.358   1.471   2.067 -0.9614  0.7226 -0.9123
  587SOL     MW 2348   1.351   1.482   2.156  0.2089 -0.2752 -0.3375
  588SOL     OW 2349   1.381   1.982   2.632 -0.3453  0.0722  0.2786
  588SOL    HW1 2350   1.354   1.894   2.659  1.4800  1.7775 -1.3333
  588SOL    HW2 2351   1.379   2.037   2.711  1.2135  0.0408  0.7757
  588SOL     MW 2352   1.377   1.977   2.646  0.1012  0.2930  0.1315
  589SOL     OW 2353   1.429   2.001   0.073 -0.3073  0.5030  0.2543
  589SOL    HW1 2354   1.428   2.093   0.100  1.0954 -0.7454  0.2615
  589SOL    HW2 2355   1.370   1.954   0.131 -1.0866  3.6565 -1.3050
  589SOL     MW 2356   1.421   2.007   0.084 -0.2251  0.7543  0.0495
  590SOL     OW 2357   0.518   2.665   2.164  0.2462 -0.2902  0.6612
  590SOL    HW1 2358   0.480   2.669   2.074  0.9894  1.7735  0.8219
  590SOL    HW2 2359   0.570   2.743   2.175  2.4029 -0.1549 -1.8634
  590SOL     MW 2360   0.520   2.676   2.153  0.6288 -0.0001  0.3493
  591SOL     OW 2361   2.242   0.676   0.106 -0.4071  0.5783  0.1424
  591SOL    HW1 2362   2.168   0.690   0.158  2.4606  0.4233  0.2507
  591SOL    HW2 2363   2.236   0.747   0.041  1.7613  2.3208 -1.2064
  591SOL     MW 2364   2.232   0.687   0.104  0.2574  0.7878 -0.0213
  592SOL     OW 2365   1.691   2.976   0.817 -0.1659  0.1376  0.4451
  592SOL    HW1 2366   1.699   3.059   0.765  0.4938  0.8579 -0.7122
  592SOL    HW2 2367   1.763   2.920   0.782  0.6798 -0.6254  0.0479
  592SOL     MW 2368   1.701   2.980   0.805  0.0327  0.1320  0.2400
  593SOL     OW 2369   1.987   0.710   0.776 -0.6772 -0.2762  0.2332
  593SOL    HW1 2370   1.917   0.704   0.707  1.6109 -0.8694 -1.1789
  593SOL    HW2 2371   2.046   0.639   0.754 -0.8827  0.0941 -1.2674
  593SOL     MW 2372   1.985   0.700   0.764 -0.4024 -0.3056 -0.1511
  594SOL     OW 2373   2.709   1.036   1.395 -0.1817 -0.6388  0.2645
  594SOL    HW1 2374   2.779   1.087   1.358  0.2746 -0.5580 -2.2383
  594SOL    HW2 2375   2.636   1.063   1.339  3.3961  1.3755 -0.3419
  594SOL     MW 2376   2.709   1.046   1.383  0.3505 -0.3624 -0.1457
  595SOL     OW 2377   0.490   0.910   0.856  0.2191 -0.1923 -0.1973
  595SOL    HW1 2378   0.494   0.963   0.778 -1.5891 -1.5069  1.2998
  595SOL    HW2 2379   0.483   0.976   0.932 -2.2415 -0.0203 -1.5699
  595SOL     MW 2380   0.489   0.926   0.856 -0.3441 -0.3431 -0.1809
  596SOL     OW 2381   2.460   1.345   0.520 -0.0054 -0.0318 -0.5173
  596SOL    HW1 2382   2.512   1.404   0.468 -1.0705  0.6215 -0.1435
  596SOL    HW2 2383   2.507   1.303   0.594  0.3884 -0.7041 -0.6946
  596SOL     MW 2384   2.473   1.347   0.523 -0.0940 -0.0343 -0.4914
  597SOL     OW 2385   2.207   0.630   1.558 -0.4225  0.0163 -0.2557
  597SOL    HW1 2386   2.218   0.578   1.640 -1.2380 -2.1201 -4.0679
  597SOL    HW2 2387   2.137   0.579   1.499 -0.5625 -1.1113 -0.1584
  597SOL     MW 2388   2.199   0.616   1.561 -0.5485 -0.4144 -0.7459
  598SOL     OW 2389   2.597   1.062   2.867 -0.2398  0.1740  0.2221
  598SOL    HW1 2390   2.568   0.981   2.828  2.7988 -0.5099  1.5636
  598SOL    HW2 2391   2.696   1.065   2.850  0.1307 -1.8790 -0.6117
  598SOL     MW 2392   2.606   1.051   2.860  0.2100 -0.1871  0.2891
  599SOL     OW 2393   3.065   0.408   2.241  0.5503 -0.6019  0.7214
  599SOL    HW1 2394   3.070   0.436   2.327 -0.6919  1.7076  1.5312
  599SOL    HW2 2395   3.079   0.491   2.193  1.7501 -1.6149  1.6437
  599SOL     MW 2396   3.068   0.422   2.246  0.5447 -0.4308  0.9500
  600SOL     OW 2397   1.848   1.669   0.840 -0.1724  0.5895 -0.1923
  600SOL    HW1 2398   1.903   1.706   0.909  0.2920 -0.2026 -2.6916
  600SOL    HW2 2399   1.793   1.740   0.807  1.9575 -0.1859 -3.2076
  600SOL     MW 2400   1.848   1.683   0.845  0.1699  0.3826 -0.9199
  601SOL     OW 2401   2.548   0.718   0.814  0.1657  0.0746  0.0145
  601SOL    HW1 2402   2.526   0.717   0.908  1.3144 -2.9451 -0.7811
  601SOL    HW2 2403   2.473   0.660   0.776 -0.8643  1.9158 -1.2445
  601SOL     MW 2404   2.535   0.710   0.822  0.1814 -0.0809 -0.2566
  602SOL     OW 2405   2.291   1.895   0.745 -0.0327 -0.0932  0.1293
  602SOL    HW1 2406   2.244   1.825   0.683 -1.1278 -1.1154  0.8721
  602SOL    HW2 2407   2.235   1.974   0.719 -0.4023 -0.6982  0.1662
  602SOL     MW 2408   2.277   1.896   0.733 -0.2260 -0.3079  0.2322
  603SOL     OW 2409   2.963   1.379   1.984 -0.3064  0.3104 -0.0738
  603SOL    HW1 2410   2.942   1.409   2.074  2.0349  0.5839  0.3247
  603SOL    HW2 2411   2.967   1.277   1.978  1.8550 -1.7795 -3.1790
  603SOL     MW 2412   2.961   1.369   1.995  0.2876  0.0707 -0.4310
  604SOL     OW 2413   2.025   1.392   0.399 -0.4028  0.3980 -0.9625
  604SOL    HW1 2414   2.062   1.324   0.458  0.4267  0.1980  0.6797
  604SOL    HW2 2415   1.962   1.437   0.457 -0.2667 -0.3797  0.9349
  604SOL     MW 2416   2.022   1.389   0.415 -0.2754  0.2690 -0.4955
  605SOL     OW 2417   2.419   1.464   0.849 -0.3535 -0.1068 -0.1719
  605SOL    HW1 2418   2.471   1.530   0.798  0.5940 -0.3749  0.5800
  605SOL    HW2 2419   2.444   1.380   0.806  0.2128 -1.5894  0.8360
  605SOL     MW 2420   2.429   1.462   0.836 -0.1538 -0.3378  0.0603
  606SOL     OW 2421   2.616   1.796   1.849  0.5162 -0.0526 -0.6864
  606SOL    HW1 2422   2.527   1.754   1.841 -0.0249  0.4170 -2.6771
  606SOL    HW2 2423   2.665   1.732   1.806  0.2579 -3.7862 -0.5248
  606SOL     MW 2424   2.611   1.782   1.842  0.4107 -0.4833 -0.9278
  607SOL     OW 2425   2.391   1.008   3.065 -0.5001 -0.1477 -0.2901
  607SOL    HW1 2426   2.468   1.054   3.026  0.1620 -0.2885  2.0385
  607SOL    HW2 2427   2.404   1.030   3.155  0.4452  0.3588  0.2549
  607SOL     MW 2428   2.403   1.017   3.071 -0.2880 -0.0995  0.0890
  608SOL     OW 2429   1.864   0.204   0.531 -0.1058  0.2656 -0.2330
  608SOL    HW1 2430   1.852   0.240   0.447  0.2092 -1.3176 -0.2942
  608SOL    HW2 2431   1.819   0.111   0.539 -2.2870  0.0145 -0.6406
  608SOL     MW 2432   1.856   0.197   0.521 -0.3520  0.0235 -0.2949
  609SOL     OW 2433   2.131   1.891   3.085  0.1131  0.1870 -0.1387
  609SOL    HW1 2434   2.087   1.814   3.043  0.1003 -2.0908  1.4780
  609SOL    HW2 2435   2.099   1.883   3.173  0.4767 -1.4869  0.1874
  609SOL     MW 2436   2.121   1.880   3.091  0.1594 -0.3344  0.1176
  610SOL     OW 2437   1.825   0.913   1.218  0.4817  0.0136 -0.5875
  610SOL    HW1 2438   1.829   0.826   1.179 -1.5484  2.0745 -1.0784
  610SOL    HW2 2439   1.730   0.938   1.221  0.0779  2.2203  3.0639
  610SOL     MW 2440   1.813   0.905   1.214  0.1606  0.5767 -0.1705
  611SOL     OW 2441   2.497   1.642   0.622 -0.0841  0.1844 -0.3309
  611SOL    HW1 2442   2.569   1.610   0.568  1.0145  0.5928  1.4787
  611SOL    HW2 2443   2.418   1.657   0.568 -2.6242  2.2828 -2.0010
  611SOL     MW 2444   2.496   1.639   0.607 -0.2743  0.5152 -0.3125
  612SOL     OW 2445   2.941   2.975   0.321 -0.0570 -0.1037  0.3242
  612SOL    HW1 2446   2.929   2.986   0.412 -0.9926  0.4839  1.1922
  612SOL    HW2 2447   2.978   2.893   0.314 -1.3245  3.0538  2.1607
  612SOL     MW 2448   2.944   2.965   0.332 -0.3477  0.3905  0.6810
  613SOL     OW 2449   1.506   1.156   1.012 -0.6436 -0.1124  0.1068
  613SOL    HW1 2450   1.502   1.247   1.044  0.4469  0.7304  1.1365
  613SOL    HW2 2451   1.517   1.111   1.092  0.3628  0.8685 -1.2022
  613SOL     MW 2452   1.507   1.162   1.027 -0.3669  0.1282  0.0700
  614SOL     OW 2453   2.016   0.477   1.402  0.2998 -0.1530  0.4752
  614SOL    HW1 2454   2.007   0.433   1.490  0.8243 -2.6570  1.5170
  614SOL    HW2 2455   1.930   0.499   1.362  0.8662  0.6014  2.1012
  614SOL     MW 2456   2.003   0.474   1.408  0.4437 -0.3838  0.8272
  615SOL     OW 2457   2.405   0.709   0.316 -0.2682 -0.2809 -0.1072
  615SOL    HW1 2458   2.473   0.643   0.328 -1.0706  0.5321  1.1294
  615SOL    HW2 2459   2.355   0.678   0.233  0.9802 -3.8641 -3.5975
  615SOL     MW 2460   2.407   0.696   0.307 -0.2094 -0.6464 -0.4045
  616SOL     OW 2461   2.542   0.401   1.616  0.4197 -0.0471  0.1993
  616SOL    HW1 2462   2.590   0.346   1.554  1.9023  0.9575 -0.9624
  616SOL    HW2 2463   2.513   0.470   1.554  0.3857 -2.6988  0.1594
  616SOL     MW 2464   2.544   0.403   1.599  0.6108 -0.2644  0.0407
  617SOL     OW 2465   2.896   0.545   1.859  0.1716 -0.1444 -0.1120
  617SOL    HW1 2466   2.817   0.550   1.911 -1.5378 -1.4947 -1.3117
  617SOL    HW2 2467   2.887   0.467   1.809  0.1766  0.1302  2.8712
  617SOL     MW 2468   2.885   0.536   1.859 -0.0532 -0.2863  0.1233
  618SOL     OW 2469   2.765   0.254   1.997  0.0879 -0.1789  0.2178
  618SOL    HW1 2470   2.714   0.282   2.075  0.9903 -1.2029 -1.3945
  618SOL    HW2 2471   2.852   0.234   2.031  1.4123 -2.1737  2.6483
  618SOL     MW 2472   2.770   0.255   2.012  0.3817 -0.5772  0.3258
  619SOL     OW 2473   2.698   0.731   0.091  0.8050 -0.1200  0.5326
  619SOL    HW1 2474   2.747   0.812   0.094 -0.5076 -0.9620  1.4327
  619SOL    HW2 2475   2.743   0.676   0.149  1.1103 -0.0352  1.0217
  619SOL     MW 2476   2.711   0.735   0.099  0.6721 -0.2199  0.7159
  620SOL     OW 2477   2.217   1.056   0.916 -0.1820 -0.1016  0.3050
  620SOL    HW1 2478   2.278   1.021   0.852  2.6555  0.4574  0.6009
  620SOL    HW2 2479   2.133   1.021   0.884  0.2633  0.3410 -0.3476
  620SOL     MW 2480   2.214   1.047   0.903  0.2511  0.0306  0.2579
  621SOL     OW 2481   1.479   2.195   1.964  0.1785 -0.3099  0.3360
  621SOL    HW1 2482   1.427   2.116   1.987 -0.6667 -0.8769 -0.7282
  621SOL    HW2 2483   1.572   2.173   1.986  1.7920  0.6712  2.3748
  621SOL     MW 2484   1.484   2.182   1.970  0.2799 -0.2552  0.4646
  622SOL     OW 2485   2.651   0.238   0.263 -0.1596  0.5335 -0.3561
  622SOL    HW1 2486   2.741   0.284   0.260  1.3450  1.2859  0.1673
  622SOL    HW2 2487   2.665   0.145   0.276  0.3963  1.6377 -3.3408
  622SOL     MW 2488   2.665   0.232   0.264  0.1123  0.7784 -0.6808
  623SOL     OW 2489   2.398   2.751   0.871  0.2190 -0.0946 -0.7046
  623SOL    HW1 2490   2.459   2.822   0.887  2.3999  1.6747 -0.3098
  623SOL    HW2 2491   2.343   2.748   0.956 -0.7508 -0.3276 -0.0461
  623SOL     MW 2492   2.399   2.760   0.884  0.3788  0.1081 -0.5657
  624SOL     OW 2493   2.145   1.546   3.061 -0.2631 -0.4341  0.4408
  624SOL    HW1 2494   2.079   1.472   3.048  2.4132 -0.8749 -1.6156
  624SOL    HW2 2495   2.105   1.618   3.002 -2.2884  0.3577 -0.1095
  624SOL     MW 2496   2.131   1.546   3.052 -0.1772 -0.3878  0.0969
  625SOL     OW 2497   2.209   1.878   1.013 -0.2484 -0.2237 -0.5624
  625SOL    HW1 2498   2.259   1.826   1.075 -3.1216 -1.0610  0.1252
  625SOL    HW2 2499   2.242   1.862   0.925 -1.0749 -0.4869 -1.5091
  625SOL     MW 2500   2.220   1.869   1.010 -0.7366 -0.3689 -0.5966
  626SOL     OW 2501   0.148   1.819   2.459  0.4542  0.2225 -0.1674
  626SOL    HW1 2502   0.089   1.752   2.482 -0.0603  2.4089  1.6790
  626SOL    HW2 2503   0.101   1.897   2.473  2.0640  0.0148  1.6082
  626SOL     MW 2504   0.134   1.820   2.464  0.5987  0.4835  0.3105
  627SOL     OW 2505   2.543   0.850   2.554  0.5538  0.1042  0.2052
  627SOL    HW1 2506   2.462   0.892   2.573  2.6780  2.8338  2.1766
  627SOL    HW2 2507   2.523   0.796   2.475 -3.2451  1.1315 -0.0254
  627SOL     MW 2508   2.530   0.849   2.546  0.3329  0.5999  0.4349
  628SOL     OW 2509   2.313   1.361   1.308  0.4401  0.0462 -0.3071
  628SOL    HW1 2510   2.253   1.294   1.278  1.0861  2.9563  1.5582
  628SOL    HW2 2511   2.398   1.334   1.273 -0.2371 -1.8819  0.1675
  628SOL     MW 2512   2.317   1.348   1.299  0.4360  0.1758  0.0016
  629SOL     OW 2513   1.790   0.587   1.315  0.2712  0.3897 -0.0983
  629SOL    HW1 2514   1.818   0.615   1.225  1.4635  0.3462 -0.9094
  629SOL    HW2 2515   1.701   0.549   1.301  1.4347  0.5294 -0.2046
  629SOL     MW 2516   1.782   0.586   1.301  0.5820  0.4024 -0.2194
  630SOL     OW 2517   2.433   1.889   3.045 -0.1356  0.2532  0.0047
  630SOL    HW1 2518   2.452   1.982   3.017  0.0411 -1.7446 -0.9766
  630SOL    HW2 2519   2.339   1.883   3.066  1.7829 -1.8419  0.3851
  630SOL     MW 2520   2.423   1.901   3.044  0.1408 -0.2868 -0.0746
  631SOL     OW 2521   2.112   1.777   1.505 -0.2642  0.3121  0.0129
  631SOL    HW1 2522   2.087   1.713   1.572  3.1449 -1.0127  3.0478
  631SOL    HW2 2523   2.031   1.826   1.488 -1.4966  2.1034  1.0318
  631SOL     MW 2524   2.098   1.775   1.512  0.0230  0.3736  0.5478
  632SOL     OW 2525   0.306   1.886   1.551 -0.1570 -0.2914 -0.0245
  632SOL    HW1 2526   0.215   1.913   1.553  4.3004 -1.7574 -0.1786
  632SOL    HW2 2527   0.289   1.796   1.527 -0.4565  1.8460  3.3103
  632SOL     MW 2528   0.292   1.877   1.548  0.3916 -0.2028  0.3951
  633SOL     OW 2529   2.609   0.539   0.406 -0.3851 -0.2203 -0.1012
  633SOL    HW1 2530   2.659   0.546   0.490  0.3922  0.3040  0.4153
  633SOL    HW2 2531   2.613   0.454   0.373 -2.1991  1.1098  0.1793
  633SOL     MW 2532   2.617   0.529   0.413 -0.5219  0.0243  0.0040
  634SOL     OW 2533   2.617   0.002   0.642 -0.0698  0.0458 -0.4582
  634SOL    HW1 2534   2.647   0.094   0.621 -0.8177  0.8911  1.4483
  634SOL    HW2 2535   2.576  -0.026   0.562 -1.1921  0.9293 -0.0904
  634SOL     MW 2536   2.616   0.011   0.629 -0.3165  0.2739 -0.1581
  635SOL     OW 2537   2.628   0.054   1.875 -0.1706  0.0589 -0.4330
  635SOL    HW1 2538   2.678   0.004   1.803 -2.2716  2.4747  0.0811
  635SOL    HW2 2539   2.685   0.119   1.915 -1.1073 -0.9609  0.2874
  635SOL     MW 2540   2.642   0.056   1.871 -0.5714  0.2431 -0.2701
  636SOL     OW 2541   2.716   1.707   0.787 -0.2785  0.3303 -0.4415
  636SOL    HW1 2542   2.641   1.731   0.730  1.3954  1.7052 -1.2866
  636SOL    HW2 2543   2.702   1.771   0.857 -0.5466  1.4037  0.4828
  636SOL     MW 2544   2.704   1.719   0.789 -0.0930  0.6533 -0.4311
  637SOL     OW 2545   2.860   1.513   0.662  0.1904 -0.2401  0.3032
  637SOL    HW1 2546   2.925   1.570   0.613 -0.6618  0.7754  0.0936
  637SOL    HW2 2547   2.810   1.575   0.719 -2.5722  1.0810  0.1857
  637SOL     MW 2548   2.862   1.528   0.663 -0.2865  0.0682  0.2600
  638SOL     OW 2549   2.788   0.523   0.615  0.0674  0.4522 -0.1654
  638SOL    HW1 2550   2.875   0.543   0.577 -1.9596 -0.0049  0.7676
  638SOL    HW2 2551   2.813   0.530   0.706  0.9423 -0.1192 -0.6511
  638SOL     MW 2552   2.803   0.526   0.622 -0.0846  0.3165 -0.1064
  639SOL     OW 2553   1.697   3.080   0.543  0.1753  0.3895 -0.2095
  639SOL    HW1 2554   1.605   3.065   0.519 -0.3995  0.5658 -1.5214
  639SOL    HW2 2555   1.747   3.003   0.510  0.6364 -3.4821 -2.3359
  639SOL     MW 2556   1.692   3.068   0.536  0.1603 -0.0980 -0.6631
  640SOL     OW 2557   0.299   1.369   0.115 -0.2907 -0.0874  0.1682
  640SOL    HW1 2558   0.348   1.381   0.028  0.9776  3.5546 -0.9059
  640SOL    HW2 2559   0.309   1.277   0.141  1.2274  2.3760 -0.2836
  640SOL     MW 2560   0.307   1.359   0.107  0.0770  0.7181 -0.0331
  641SOL     OW 2561   2.184   0.330   0.406  1.3741 -0.2052 -0.0791
  641SOL    HW1 2562   2.223   0.271   0.337 -0.6523 -1.3624  0.4299
  641SOL    HW2 2563   2.209   0.287   0.483  0.6258 -1.5132 -0.9920
  641SOL     MW 2564   2.193   0.317   0.407  1.0080 -0.5304 -0.1324
  642SOL     OW 2565   0.043   0.057   0.562  0.0519  0.1981 -0.1350
  642SOL    HW1 2566   0.019   0.150   0.522  1.1481 -2.3845 -2.0675
  642SOL    HW2 2567  -0.047   0.027   0.579 -1.0982  0.5669 -0.6267
  642SOL     MW 2568   0.028   0.066   0.559  0.0448 -0.0940 -0.4548
  643SOL     OW 2569   2.075   0.316   1.645  0.2110  0.5740 -0.6377
  643SOL    HW1 2570   2.007   0.280   1.704 -0.5249  1.0971  0.6771
  643SOL    HW2 2571   2.101   0.247   1.584  1.3281 -1.6489  0.5489
  643SOL     MW 2572   2.069   0.302   1.645  0.2613  0.3497 -0.3076
  644SOL     OW 2573   2.669   1.903   0.991 -0.6028 -0.4004 -0.5260
  644SOL    HW1 2574   2.671   1.836   1.064 -1.9974 -0.7753  0.2497
  644SOL    HW2 2575   2.579   1.912   0.971  0.5099  1.1451  1.8592
  644SOL     MW 2576   2.658   1.895   0.998 -0.6400 -0.2460 -0.1090
  645SOL     OW 2577   2.765   0.877   0.715  0.1903  0.4786  0.0343
  645SOL    HW1 2578   2.834   0.860   0.777 -2.1247 -0.9690  2.3806
  645SOL    HW2 2579   2.687   0.831   0.753  2.4090  2.7415  0.1759
  645SOL     MW 2580   2.763   0.869   0.728  0.1776  0.5861  0.3625
  646SOL     OW 2581   0.179   2.243   0.849 -0.1531  0.0155  0.3510
  646SOL    HW1 2582   0.166   2.144   0.868 -0.1126 -0.7173 -1.1402
  646SOL    HW2 2583   0.127   2.259   0.770  0.1275  1.1312  0.9139
  646SOL     MW 2584   0.171   2.232   0.841 -0.1107  0.0661  0.2285
  647SOL     OW 2585   2.746   0.507   3.021  0.6943  0.3170 -0.3386
  647SOL    HW1 2586   2.688   0.430   3.032 -0.4074 -1.7536  0.7250
  647SOL    HW2 2587   2.720   0.585   3.077 -2.2224  2.1079 -0.6345
  647SOL     MW 2588   2.735   0.507   3.030  0.1641  0.2801 -0.2373
  648SOL     OW 2589   2.256   0.666   1.123 -0.2937 -0.4476  0.5203
  648SOL    HW1 2590   2.248   0.580   1.160 -1.3925  1.8702 -1.8695
  648SOL    HW2 2591   2.195   0.727   1.160 -1.0888 -0.6200 -2.1336
  648SOL     MW 2592   2.247   0.663   1.133 -0.5436 -0.1645 -0.1452
  649SOL     OW 2593   2.440   2.711   1.255 -0.5211 -0.0106  0.3362
  649SOL    HW1 2594   2.520   2.770   1.261 -0.5826 -1.1227 -2.4709
  649SOL    HW2 2595   2.467   2.643   1.197 -0.8718  1.2280  1.2983
  649SOL     MW 2596   2.454   2.710   1.249 -0.5755  0.0061  0.0927
  650SOL     OW 2597   2.780   0.226   0.588 -0.0893 -0.1454 -1.0598
  650SOL    HW1 2598   2.801   0.319   0.575 -0.7280 -0.4943 -0.7453
  650SOL    HW2 2599   2.860   0.179   0.569  1.4437  2.2967  3.1631
  650SOL     MW 2600   2.793   0.232   0.584  0.0287  0.1308 -0.4611
  651SOL     OW 2601   3.095   0.452   1.017  0.6070 -0.3524  0.6060
  651SOL    HW1 2602   3.151   0.505   0.952  0.8872 -1.2127 -0.1355
  651SOL    HW2 2603   3.024   0.506   1.049 -1.0846 -0.4243  2.1912
  651SOL     MW 2604   3.093   0.466   1.012  0.4208 -0.4754  0.7173
  652SOL     OW 2605   2.401   1.415   3.005  0.2545 -0.0982  0.2510
  652SOL    HW1 2606   2.451   1.450   2.928 -0.2037 -0.8395 -0.4497
  652SOL    HW2 2607   2.329   1.478   3.019 -0.5928 -1.2534 -0.7474
  652SOL     MW 2608   2.398   1.428   2.997  0.0823 -0.3484  0.0268
  653SOL     OW 2609   1.849   0.335   0.273 -0.5189 -0.3698  0.1698
  653SOL    HW1 2610   1.838   0.274   0.196  1.0637 -0.0169 -0.5737
  653SOL    HW2 2611   1.940   0.366   0.269  0.1369 -1.6483  0.3056
  653SOL     MW 2612   1.860   0.331   0.263 -0.2235 -0.4920  0.0897
  654SOL     OW 2613   2.435   0.972   0.779 -0.7797  0.4229  0.2727
  654SOL    HW1 2614   2.378   0.988   0.701 -0.6464 -1.2340  0.4178
  654SOL    HW2 2615   2.465   0.882   0.779 -1.1826 -2.9002  0.5831
  654SOL     MW 2616   2.431   0.962   0.768 -0.8152 -0.2341  0.3328
  655SOL     OW 2617   2.910   0.927   0.388 -0.3547 -0.3731 -0.8731
  655SOL    HW1 2618   2.858   0.995   0.435  0.0901  1.4328 -1.1208
  655SOL    HW2 2619   2.893   0.844   0.436 -2.2532 -0.1202 -1.4866
  655SOL     MW 2620   2.901   0.925   0.401 -0.5465 -0.1015 -0.9867
  656SOL     OW 2621   1.830   2.658   1.406  0.1143 -0.2611  0.1861
  656SOL    HW1 2622   1.834   2.751   1.385 -1.1354 -0.3735 -0.7536
  656SOL    HW2 2623   1.895   2.615   1.352 -0.6227 -1.3215 -1.6671
  656SOL     MW 2624   1.839   2.664   1.396 -0.1478 -0.4159 -0.1824
  657SOL     OW 2625   0.061   1.815   1.205 -0.3181  0.2152 -0.6752
  657SOL    HW1 2626   0.143   1.865   1.200  0.8943  0.2917  1.2251
  657SOL    HW2 2627   0.084   1.727   1.240  1.8039 -2.0320 -4.2333
  657SOL     MW 2628   0.075   1.810   1.209  0.1218 -0.0712 -0.8939
  658SOL     OW 2629   2.728   1.349   0.242 -0.4643 -0.2351 -0.1873
  658SOL    HW1 2630   2.698   1.258   0.281 -0.7852 -1.7970  0.9768
  658SOL    HW2 2631   2.747   1.410   0.310 -1.2187 -2.5608  0.0669
  658SOL     MW 2632   2.727   1.345   0.256 -0.6062 -0.7480 -0.0002
  659SOL     OW 2633   2.168   1.472   1.022 -0.4295 -0.3435 -0.0060
  659SOL    HW1 2634   2.255   1.442   1.019 -2.3347  1.5343 -2.0050
  659SOL    HW2 2635   2.145   1.486   1.118 -0.3037 -1.4977  1.4025
  659SOL     MW 2636   2.176   1.470   1.034 -0.6643 -0.2480 -0.0839
  660SOL     OW 2637   2.091   1.526   1.662  0.3655  1.1507 -0.2328
  660SOL    HW1 2638   2.104   1.497   1.754  2.1469  0.3040  1.1742
  660SOL    HW2 2639   2.010   1.488   1.629  0.6577  1.1062 -0.9735
  660SOL     MW 2640   2.082   1.517   1.669  0.6391  1.0331 -0.1449
  661SOL     OW 2641   2.418   0.979   0.256  0.4009  0.1867  0.3679
  661SOL    HW1 2642   2.494   1.009   0.312 -0.9493  0.8708 -0.3233
  661SOL    HW2 2643   2.423   0.876   0.265 -1.1116 -1.0510  1.0195
  661SOL     MW 2644   2.429   0.970   0.265  0.0232  0.1137  0.3627
  662SOL     OW 2645   2.571   2.965   0.875 -0.3557 -0.4807 -0.0445
  662SOL    HW1 2646   2.520   3.039   0.916 -0.9491 -1.3298 -1.1179
  662SOL    HW2 2647   2.608   3.002   0.789  0.7055  1.2496  0.0801
  662SOL     MW 2648   2.569   2.979   0.869 -0.2940 -0.3644 -0.1697
  663SOL     OW 2649   2.701   1.551   0.445  0.1723  1.1715 -0.3047
  663SOL    HW1 2650   2.716   1.636   0.412 -0.7273 -0.7201  1.6563
  663SOL    HW2 2651   2.774   1.533   0.509 -3.0559  1.6784 -0.2075
  663SOL     MW 2652   2.713   1.560   0.449 -0.3723  0.9888 -0.0331
  664SOL     OW 2653   2.528   1.480   1.517 -0.6411 -0.2459 -0.6298
  664SOL    HW1 2654   2.532   1.571   1.495  3.3615 -0.9041  0.7784
  664SOL    HW2 2655   2.437   1.444   1.542 -0.4404 -0.8425 -0.3020
  664SOL     MW 2656   2.516   1.487   1.518 -0.0865 -0.4114 -0.4008
  665SOL     OW 2657   2.856   0.825   2.114  0.0257  0.1332  0.3567
  665SOL    HW1 2658   2.845   0.885   2.037  1.5106  1.9497  0.9632
  665SOL    HW2 2659   2.937   0.779   2.094 -0.6262  1.1395 -2.0120
  665SOL     MW 2660   2.866   0.827   2.101  0.1356  0.5056  0.1242
  666SOL     OW 2661   2.763   3.021   1.685  0.3827 -0.0840  0.5418
  666SOL    HW1 2662   2.791   3.028   1.594  1.3533  0.0953  1.4492
  666SOL    HW2 2663   2.725   2.932   1.698 -3.0940  0.3738 -0.1834
  666SOL     MW 2664   2.762   3.010   1.675  0.0520  0.0000  0.5658
  667SOL     OW 2665   1.976   2.725   1.728  0.1750  0.2946  0.4491
  667SOL    HW1 2666   2.020   2.665   1.789 -1.2195  0.3910  1.6080
  667SOL    HW2 2667   2.041   2.793   1.715  0.3831 -1.9447 -2.0062
  667SOL     MW 2668   1.990   2.726   1.735  0.0185  0.0119  0.2780
  668SOL     OW 2669   2.783   0.563   0.896  0.0159 -0.1103  0.2640
  668SOL    HW1 2670   2.839   0.606   0.974  1.4500  0.6009  0.6142
  668SOL    HW2 2671   2.722   0.627   0.870  0.7580 -2.8980  0.4999
  668SOL     MW 2672   2.782   0.577   0.903  0.3031 -0.3843  0.3413
  669SOL     OW 2673   0.215   0.998   0.726  0.1425  0.5257  0.1075
  669SOL    HW1 2674   0.153   1.040   0.785 -0.9507 -1.0893 -2.9039
  669SOL    HW2 2675   0.304   1.041   0.715  0.2411 -2.7227 -1.2575
  669SOL     MW 2676   0.219   1.009   0.733  0.0112 -0.1160 -0.4699
  670SOL     OW 2677   2.906   0.340   0.230 -0.4659 -0.1684  0.7134
  670SOL    HW1 2678   2.917   0.292   0.144  1.1577 -1.3988  0.1325
  670SOL    HW2 2679   2.898   0.432   0.216 -0.8546 -1.0978  2.0207
  670SOL     MW 2680   2.907   0.346   0.217 -0.3029 -0.4533  0.8092
  671SOL     OW 2681   1.998   3.019   1.529 -0.3150  0.4594  0.1245
  671SOL    HW1 2682   1.931   2.982   1.472  1.3825 -1.3305 -1.6548
  671SOL    HW2 2683   1.956   3.051   1.612  1.7252  1.1800  0.1830
  671SOL     MW 2684   1.984   3.019   1.532  0.1782  0.3183 -0.1025
  672SOL     OW 2685   1.835   1.735   1.305  0.7462  0.4811  0.2662
  672SOL    HW1 2686   1.834   1.799   1.383  1.6777 -2.6375 -0.3816
  672SOL    HW2 2687   1.868   1.784   1.224 -0.7038  0.1792  0.7385
  672SOL     MW 2688   1.839   1.750   1.305  0.6778  0.0298  0.2431
  673SOL     OW 2689   2.785   1.088   0.568  0.2449 -0.7974  0.9579
  673SOL    HW1 2690   2.784   1.003   0.619 -1.8531  0.6971 -3.2072
  673SOL    HW2 2691   2.862   1.137   0.599  2.5462 -0.8672 -0.7662
  673SOL     MW 2692   2.795   1.083   0.578  0.2717 -0.6094  0.1809
  674SOL     OW 2693   2.506   3.090   1.238 -0.0316 -0.2628  0.7168
  674SOL    HW1 2694   2.463   3.102   1.158  0.7034  0.2305  0.8513
  674SOL    HW2 2695   2.561   3.008   1.238  1.2445 -0.7704  1.6769
  674SOL     MW 2696   2.508   3.081   1.227  0.2337 -0.2647  0.8613
  675SOL     OW 2697   3.013   0.901   1.091  0.5709 -0.3402  0.8736
  675SOL    HW1 2698   3.068   0.916   1.172  1.7539  4.0905 -0.5790
  675SOL    HW2 2699   3.054   0.959   1.027  2.5254  2.1364  1.1093
  675SOL     MW 2700   3.026   0.910   1.093  0.9849  0.5711  0.7130
  676SOL     OW 2701   2.905   1.466   1.704 -0.3354 -0.1905 -0.1882
  676SOL    HW1 2702   2.876   1.383   1.669 -0.9475  2.3582 -0.4750
  676SOL    HW2 2703   2.946   1.454   1.799  1.7510  2.3505  2.0533
  676SOL     MW 2704   2.907   1.454   1.712 -0.1409  0.4811  0.0697
  677SOL     OW 2705   2.419   0.567   1.986  0.6953 -0.0552 -0.4438
  677SOL    HW1 2706   2.376   0.531   1.903 -0.8476  1.1310 -3.2527
  677SOL    HW2 2707   2.422   0.662   1.966 -1.6279 -1.3417 -0.2246
  677SOL     MW 2708   2.414   0.575   1.973  0.1852 -0.0684 -0.7855
  678SOL     OW 2709   2.381   1.636   0.305  0.0301 -0.5141  0.7968
  678SOL    HW1 2710   2.292   1.644   0.339  1.0173  2.9773 -0.2665
  678SOL    HW2 2711   2.377   1.543   0.274 -0.7395  1.3811 -3.1122
  678SOL     MW 2712   2.369   1.625   0.306  0.0588  0.1966  0.1407
  679SOL     OW 2713   2.263   0.421   1.262  0.4098  0.2016 -0.0165
  679SOL    HW1 2714   2.236   0.352   1.202 -2.1019  0.7535  2.0479
  679SOL    HW2 2715   2.185   0.448   1.310  4.1045 -1.2561  1.4739
  679SOL     MW 2716   2.249   0.416   1.261  0.5659  0.0821  0.4525
  680SOL     OW 2717   2.416   0.103   1.497  0.9921 -0.1155  0.3440
  680SOL    HW1 2718   2.332   0.145   1.468 -4.1870 -0.2718  3.1660
  680SOL    HW2 2719   2.462   0.064   1.422 -2.2164  2.3243 -0.1914
  680SOL     MW 2720   2.411   0.103   1.484 -0.1146  0.1858  0.6457
  681SOL     OW 2721   0.258   0.598   1.489  0.0888  0.2902 -0.1509
  681SOL    HW1 2722   0.287   0.550   1.570 -2.3019  2.0320 -0.4509
  681SOL    HW2 2723   0.209   0.535   1.432  0.0810  0.5242 -4.0236
  681SOL     MW 2724   0.255   0.584   1.492 -0.2277  0.5509 -0.7015
  682SOL     OW 2725   0.077   2.882   1.539  0.3901 -1.3294  0.3066
  682SOL    HW1 2726   0.150   2.938   1.544 -1.3882  2.1520 -1.3003
  682SOL    HW2 2727   0.014   2.914   1.602 -0.2681 -1.1923 -2.6334
  682SOL     MW 2728   0.078   2.894   1.548  0.0686 -0.8520 -0.2933
  683SOL     OW 2729   2.074   0.816   2.999  0.3233 -0.5633  0.1068
  683SOL    HW1 2730   2.018   0.763   3.054  0.7734  1.0534 -1.2273
  683SOL    HW2 2731   2.036   0.904   3.015 -0.3707 -2.7163  0.8146
  683SOL     MW 2732   2.061   0.821   3.009  0.2911 -0.6340  0.0242
  684SOL     OW 2733   2.104   1.740   0.639 -0.5406 -0.1753 -0.7960
  684SOL    HW1 2734   2.103   1.699   0.548 -2.5852 -0.8370  1.4848
  684SOL    HW2 2735   2.082   1.663   0.694 -0.9890 -0.0700  1.5520
  684SOL     MW 2736   2.101   1.725   0.634 -0.8695 -0.2487 -0.1853
  685SOL     OW 2737   2.682   1.690   1.170 -0.0120  0.2502  0.1136
  685SOL    HW1 2738   2.713   1.651   1.249  2.7062  0.9068  1.4397
  685SOL    HW2 2739   2.606   1.629   1.158 -0.7833  1.1190  1.1363
  685SOL     MW 2740   2.676   1.677   1.179  0.2449  0.4514  0.4235
  686SOL     OW 2741   2.900   0.635   1.596 -0.4322  0.2131  0.3731
  686SOL    HW1 2742   2.895   0.604   1.682  3.1138  1.5500 -1.7549
  686SOL    HW2 2743   2.978   0.690   1.596 -0.6317  0.1748  0.2167
  686SOL     MW 2744   2.910   0.638   1.608  0.0093  0.3844  0.0717
  687SOL     OW 2745   2.141   0.185   1.115 -0.8882  0.4057  0.1234
  687SOL    HW1 2746   2.189   0.134   1.046  1.1102 -0.5010  0.5442
  687SOL    HW2 2747   2.095   0.256   1.066  2.4122  0.0465 -0.3269
  687SOL     MW 2748   2.141   0.188   1.099 -0.1891  0.2387  0.1195
  688SOL     OW 2749   2.422   0.594   1.398  0.2939 -0.3312 -0.2182
  688SOL    HW1 2750   2.388   0.520   1.343  1.9365  0.4680 -1.8728
  688SOL    HW2 2751   2.343   0.623   1.456  0.5123 -0.1115  1.0269
  688SOL     MW 2752   2.407   0.588   1.398  0.5394 -0.1968 -0.2722
  689SOL     OW 2753   2.508   0.771   2.984  0.0555 -0.5015  0.0735
  689SOL    HW1 2754   2.451   0.839   3.017 -2.1660 -1.5496  0.4195
  689SOL    HW2 2755   2.569   0.760   3.056 -0.9552 -0.2616 -1.5220
  689SOL     MW 2756   2.509   0.779   2.998 -0.3709 -0.6081 -0.0914
  690SOL     OW 2757   2.042   0.862   1.841 -0.3531  0.1495 -0.2570
  690SOL    HW1 2758   2.012   0.776   1.860 -2.3658  0.8975 -2.1925
  690SOL    HW2 2759   2.094   0.855   1.758 -0.8227 -1.2785  0.8175
  690SOL     MW 2760   2.045   0.850   1.832 -0.6806  0.0598 -0.3706
  691SOL     OW 2761   2.398   0.293   0.872  0.1145 -0.0830  0.1309
  691SOL    HW1 2762   2.486   0.316   0.906  3.3949  1.1378 -2.4418
  691SOL    HW2 2763   2.354   0.374   0.898 -0.4303  1.8014  1.5726
  691SOL     MW 2764   2.403   0.307   0.880  0.4755  0.3267 -0.0183
  692SOL     OW 2765   2.881   1.596   1.438 -0.4558 -0.1541 -0.0660
  692SOL    HW1 2766   2.874   1.565   1.529  2.2161  1.1473  2.5014
  692SOL    HW2 2767   2.895   1.692   1.443 -0.3698 -0.9797 -0.4047
  692SOL     MW 2768   2.882   1.604   1.451 -0.0919 -0.0913  0.2280
  693SOL     OW 2769   2.350   0.419   0.054  0.2318 -0.8518 -0.3769
  693SOL    HW1 2770   2.277   0.375   0.004 -0.9128 -0.0827 -2.9166
  693SOL    HW2 2771   2.327   0.517   0.054  0.7164 -1.6710  1.7135
  693SOL     MW 2772   2.337   0.426   0.048  0.1448 -0.8584 -0.4362
  694SOL     OW 2773   1.874   1.206   1.146  0.4175 -0.2004  0.6967
  694SOL    HW1 2774   1.971   1.203   1.174  4.1558  0.5486  2.0900
  694SOL    HW2 2775   1.844   1.123   1.180 -0.2285  2.7153 -0.7456
  694SOL     MW 2776   1.883   1.195   1.154  0.8255  0.2831  0.6902
  695SOL     OW 2777   2.970   1.402   1.268  0.0038  0.2405  0.2316
  695SOL    HW1 2778   2.959   1.422   1.173  1.2757  3.0776 -4.0065
  695SOL    HW2 2779   2.960   1.485   1.320  2.0601 -2.0032  0.6568
  695SOL     MW 2780   2.967   1.416   1.263  0.4429  0.3188 -0.2715
  696SOL     OW 2781   2.065   1.447   0.773 -0.5935 -0.0507  0.7172
  696SOL    HW1 2782   2.109   1.457   0.856  0.3817 -1.7295 -0.4175
  696SOL    HW2 2783   1.999   1.377   0.786 -3.4815  0.2922 -2.0393
  696SOL     MW 2784   2.062   1.439   0.786 -0.8459 -0.2269  0.2038
  697SOL     OW 2785   2.924   1.072   2.239  0.3566  0.0951 -0.4693
  697SOL    HW1 2786   2.835   1.117   2.236 -4.8954 -0.6069 -0.7235
  697SOL    HW2 2787   2.902   0.981   2.224  2.1984  0.3323 -0.8300
  697SOL     MW 2788   2.909   1.066   2.237 -0.0934  0.0338 -0.5504
  698SOL     OW 2789   2.570   0.303   3.042  0.1603  0.5347 -0.3775
  698SOL    HW1 2790   2.501   0.355   3.087  0.5046  0.2945  2.2394
  698SOL    HW2 2791   2.610   0.249   3.109  1.3628 -1.5537  0.7552
  698SOL     MW 2792   2.566   0.303   3.057  0.3644  0.2274  0.1172
  699SOL     OW 2793   1.889   1.624   2.084  0.2223  0.0370  0.0423
  699SOL    HW1 2794   1.833   1.544   2.094 -1.3089  1.5363 -0.2306
  699SOL    HW2 2795   1.974   1.586   2.072  0.2009  2.4546  0.6725
  699SOL     MW 2796   1.893   1.608   2.084  0.0175  0.5538  0.0895
  700SOL     OW 2797   2.685   0.824   1.569 -0.0946 -0.0015  0.2501
  700SOL    HW1 2798   2.736   0.866   1.503 -0.1988  0.7404  0.7977
  700SOL    HW2 2799   2.741   0.752   1.594 -0.8943  1.6851 -0.0135
  700SOL     MW 2800   2.699   0.820   1.564 -0.2139  0.3189  0.2876
  701SOL     OW 2801   1.685   1.137   2.499  0.3617 -0.2470 -0.2588
  701SOL    HW1 2802   1.780   1.137   2.519 -0.0324 -2.4841  0.4521
  701SOL    HW2 2803   1.648   1.200   2.559  3.6541  0.7610 -2.9170
  701SOL     MW 2804   1.692   1.145   2.510  0.7441 -0.4092 -0.5157
  702SOL     OW 2805   2.141   0.434   0.771 -0.8481  0.5948 -0.7345
  702SOL    HW1 2806   2.129   0.351   0.726  1.9736 -0.4105  1.0482
  702SOL    HW2 2807   2.224   0.471   0.730  0.6540 -1.4577 -0.0140
  702SOL     MW 2808   2.150   0.428   0.760 -0.2776  0.1913 -0.4042
  703SOL     OW 2809   2.726   1.225   0.954 -0.3164  0.3185 -0.2094
  703SOL    HW1 2810   2.669   1.212   0.879  1.8213 -0.0277  0.2377
  703SOL    HW2 2811   2.755   1.145   0.998  1.9758  0.8842  0.8223
  703SOL     MW 2812   2.722   1.212   0.950  0.2681  0.3475 -0.0142
  704SOL     OW 2813   3.070   1.225   0.135  0.3621 -0.0369  0.5394
  704SOL    HW1 2814   2.974   1.218   0.111 -0.6700  3.0639 -0.5730
  704SOL    HW2 2815   3.060   1.210   0.228  2.2280  2.0042 -0.9172
  704SOL     MW 2816   3.056   1.222   0.144  0.4721  0.6415  0.2005
  705SOL     OW 2817   2.072   1.567   1.307 -0.4313 -0.5591 -0.2044
  705SOL    HW1 2818   2.009   1.631   1.325  0.4403 -3.0949 -0.1019
  705SOL    HW2 2819   2.087   1.521   1.389 -0.3159  1.7452  2.2392
  705SOL     MW 2820   2.066   1.569   1.320 -0.3011 -0.5896  0.1315
  706SOL     OW 2821   2.991   1.242   0.651  0.3632 -0.5497 -0.3979
  706SOL    HW1 2822   3.028   1.243   0.556  1.8377  1.0962 -0.9328
  706SOL    HW2 2823   2.949   1.327   0.660  0.5546 -0.7329 -2.4685
  706SOL     MW 2824   2.991   1.253   0.640  0.5830 -0.3567 -0.7417
  707SOL     OW 2825   2.384   0.036   0.967  0.5354 -0.0802 -0.3330
  707SOL    HW1 2826   2.406   0.125   0.936  0.9452  2.6657  1.0139
  707SOL    HW2 2827   2.302   0.010   0.919 -2.1393 -0.5847 -1.6940
  707SOL     MW 2828   2.376   0.045   0.956  0.2365  0.2155 -0.3349
  708SOL     OW 2829   2.425   1.384   0.177 -0.3395 -0.0603  0.1790
  708SOL    HW1 2830   2.515   1.359   0.199 -1.4837 -2.4599 -0.0468
  708SOL    HW2 2831   2.444   1.390   0.081 -0.0100 -0.3297  0.4256
  708SOL     MW 2832   2.440   1.381   0.168 -0.4470 -0.4125  0.1817
  709SOL     OW 2833   1.745   1.604   0.229  0.4396  0.3822  0.2785
  709SOL    HW1 2834   1.733   1.614   0.133  3.3972  1.0580 -0.2167
  709SOL    HW2 2835   1.679   1.551   0.264  1.7056 -2.3687  0.5364
  709SOL     MW 2836   1.734   1.598   0.221  0.9969  0.1084  0.2472
  710SOL     OW 2837   2.154   1.159   1.179  0.0081 -0.7541  0.0791
  710SOL    HW1 2838   2.162   1.120   1.093  2.1077  1.3635  2.8425
  710SOL    HW2 2839   2.187   1.090   1.238 -0.2390  0.1429 -0.9182
  710SOL     MW 2840   2.159   1.145   1.175  0.2525 -0.3564  0.3121
  711SOL     OW 2841   2.408   0.174   1.768  0.5854 -0.2229  0.1631
  711SOL    HW1 2842   2.484   0.118   1.801 -0.7852 -2.2604 -0.3866
  711SOL    HW2 2843   2.412   0.163   1.669 -0.7502 -1.7576 -1.3937
  711SOL     MW 2844   2.419   0.165   1.759  0.2284 -0.6942 -0.1148
  712SOL     OW 2845   1.906   0.610   0.021 -0.1513 -0.1406 -0.1350
  712SOL    HW1 2846   1.860   0.628  -0.061  0.0595  2.4006  1.9076
  712SOL    HW2 2847   1.836   0.596   0.078  0.6103  0.8152 -1.5177
  712SOL     MW 2848   1.891   0.611   0.018 -0.0230  0.3208 -0.0479
  713SOL     OW 2849   2.521   0.694   1.089  0.0969 -0.1090  0.0588
  713SOL    HW1 2850   2.540   0.688   1.178  0.8208  0.9635 -2.4326
  713SOL    HW2 2851   2.421   0.681   1.094 -1.9273  1.1976  0.5565
  713SOL     MW 2852   2.510   0.692   1.101 -0.0747  0.2049 -0.2043
  714SOL     OW 2853   2.224   0.204   1.984  0.1388 -0.3752 -0.6781
  714SOL    HW1 2854   2.258   0.160   2.059  0.1793  0.6059  0.2075
  714SOL    HW2 2855   2.293   0.203   1.916 -1.0043 -0.7012 -1.9588
  714SOL     MW 2856   2.238   0.198   1.985 -0.0067 -0.2887 -0.7302
  715SOL     OW 2857   1.808   2.046   1.772  0.3440 -0.3701 -0.3472
  715SOL    HW1 2858   1.897   2.070   1.751  0.0301  2.6833  0.8076
  715SOL    HW2 2859   1.796   1.955   1.817 -0.7554 -2.3610 -0.1276
  715SOL     MW 2860   1.818   2.037   1.775  0.1576 -0.2299 -0.1659
  716SOL     OW 2861   2.343   0.548   0.666  0.4687  0.6168 -0.0246
  716SOL    HW1 2862   2.398   0.488   0.613  1.0497  0.5145 -0.6316
  716SOL    HW2 2863   2.302   0.612   0.601  0.7019 -2.0682  1.4274
  716SOL     MW 2864   2.345   0.549   0.651  0.5761  0.2490  0.0869
  717SOL     OW 2865   2.828   1.570   2.860  0.3084  0.2410 -0.3956
  717SOL    HW1 2866   2.917   1.564   2.883 -3.0992  0.5647 -1.7807
  717SOL    HW2 2867   2.801   1.635   2.917  1.1931 -0.3960 -1.9269
  717SOL     MW 2868   2.836   1.578   2.871 -0.0244  0.1997 -0.7804
  718SOL     OW 2869   2.655   1.347   1.315 -0.2699  0.0629  0.0381
  718SOL    HW1 2870   2.612   1.372   1.395 -0.0815 -1.9202  0.1573
  718SOL    HW2 2871   2.749   1.361   1.336  1.8348  0.1890 -2.0896
  718SOL     MW 2872   2.662   1.352   1.328  0.0327 -0.1821 -0.2269
  719SOL     OW 2873   2.188   1.279   0.587  0.6705  0.2699  0.1173
  719SOL    HW1 2874   2.258   1.324   0.553 -2.1421  1.6403  0.1923
  719SOL    HW2 2875   2.161   1.350   0.646 -0.8517  0.6906  0.9650
  719SOL     MW 2876   2.194   1.294   0.590  0.0986  0.5062  0.2391
  720SOL     OW 2877   2.808   1.215   0.021  0.3055 -0.0136 -0.1527
  720SOL    HW1 2878   2.801   1.127   0.064  0.5386  0.1325 -0.0103
  720SOL    HW2 2879   2.781   1.275   0.093 -0.2809  1.5666 -0.9680
  720SOL     MW 2880   2.804   1.211   0.036  0.2589  0.2142 -0.2415
  721SOL     OW 2881   2.468   0.855   1.351  0.2838  0.4163  0.1876
  721SOL    HW1 2882   2.471   0.761   1.355  0.1398  0.0638 -1.9667
  721SOL    HW2 2883   2.529   0.888   1.409 -4.5442  0.5226  0.9475
  721SOL     MW 2884   2.477   0.847   1.359 -0.3722  0.3838  0.0036
  722SOL     OW 2885   2.612   1.138   0.365  0.1035  0.2066  0.2572
  722SOL    HW1 2886   2.552   1.189   0.422 -0.2752 -0.3127 -3.1240
  722SOL    HW2 2887   2.665   1.085   0.428  0.4612  1.5745 -2.7687
  722SOL     MW 2888   2.611   1.138   0.380  0.1007  0.3186 -0.5881
  723SOL     OW 2889   2.287   1.371   1.573  0.1125 -0.1161 -0.4369
  723SOL    HW1 2890   2.269   1.365   1.475  0.5799  1.9599 -1.0112
  723SOL    HW2 2891   2.221   1.431   1.613  0.8392  5.2062  0.4872
  723SOL     MW 2892   2.276   1.378   1.566  0.2701  0.8600 -0.3907
  724SOL     OW 2893   2.492   0.300   0.607  0.0669 -0.0894 -0.1034
  724SOL    HW1 2894   2.450   0.302   0.694 -0.7522  2.4350 -0.8832
  724SOL    HW2 2895   2.587   0.309   0.628  0.7149 -0.8041  0.5619
  724SOL     MW 2896   2.499   0.301   0.621  0.0443  0.1494 -0.1185
  725SOL     OW 2897   2.632   0.408   1.235  0.0387 -0.0976 -0.2665
  725SOL    HW1 2898   2.687   0.478   1.280  0.0307 -1.4742  1.4807
  725SOL    HW2 2899   2.638   0.338   1.299 -0.3196 -1.5686 -0.0069
  725SOL     MW 2900   2.640   0.408   1.250 -0.0097 -0.4733 -0.0017
  726SOL     OW 2901   2.516   2.489   0.479 -0.1459 -0.4405 -0.5047
  726SOL    HW1 2902   2.518   2.568   0.425 -0.3660 -1.3786 -1.8376
  726SOL    HW2 2903   2.512   2.520   0.568  1.3716  1.8323 -0.5509
  726SOL     MW 2904   2.516   2.503   0.484  0.0252 -0.2644 -0.6867
  727SOL     OW 2905   2.869   0.301   1.736 -0.0000  0.1520 -0.5901
  727SOL    HW1 2906   2.809   0.302   1.662  0.0676 -1.4991  1.7979
  727SOL    HW2 2907   2.815   0.266   1.810 -1.3729 -2.4351  0.8697
  727SOL     MW 2908   2.854   0.297   1.736 -0.1722 -0.4072 -0.0824
  728SOL     OW 2909   2.841   1.189   2.856  0.3151 -0.0205  0.2196
  728SOL    HW1 2910   2.822   1.246   2.783 -2.9720  0.5941 -0.6387
  728SOL    HW2 2911   2.821   1.239   2.936 -0.2409 -1.9997 -1.3011
  728SOL     MW 2912   2.836   1.203   2.857 -0.1920 -0.2006 -0.0943
  729SOL     OW 2913   2.498   1.494   1.091 -0.2970 -0.2195 -0.1381
  729SOL    HW1 2914   2.568   1.432   1.104  2.3529  0.9611 -0.2798
  729SOL    HW2 2915   2.473   1.487   0.995 -0.1643  1.0735 -0.2293
  729SOL     MW 2916   2.504   1.485   1.080  0.0702  0.1069 -0.1688
  730SOL     OW 2917   2.199   1.184   0.197  0.4325  0.2866 -0.8545
  730SOL    HW1 2918   2.268   1.114   0.193 -1.5983  0.7628 -2.0883
  730SOL    HW2 2919   2.247   1.264   0.199 -0.6721 -0.8348 -1.7858
  730SOL     MW 2920   2.215   1.186   0.197  0.0188  0.2015 -1.1402
  731SOL     OW 2921   2.742   2.096   2.868 -0.0892 -0.4362  0.0299
  731SOL    HW1 2922   2.680   2.062   2.798  0.8486 -0.3447  0.1826
  731SOL    HW2 2923   2.825   2.056   2.839 -1.2881  0.5597 -4.1281
  731SOL     MW 2924   2.744   2.086   2.855 -0.1237 -0.2927 -0.4985
  732SOL     OW 2925   2.222   0.991   1.362  0.5223  0.1691 -0.3249
  732SOL    HW1 2926   2.185   0.982   1.450  1.1463 -1.0716  2.2631
  732SOL    HW2 2927   2.311   0.952   1.354 -0.3949  4.3477 -2.1210
  732SOL     MW 2928   2.229   0.985   1.372  0.4836  0.5567 -0.2204
  733SOL     OW 2929   2.373   2.832   3.027 -0.4554  0.1347  0.0771
  733SOL    HW1 2930   2.289   2.864   3.067  0.3713 -0.2498 -1.1598
  733SOL    HW2 2931   2.358   2.734   3.025 -0.0991  0.8282 -1.0244
  733SOL     MW 2932   2.360   2.823   3.032 -0.2993  0.1755 -0.2314
  734SOL     OW 2933   1.595   0.254   2.544  0.3267  0.0002  0.1676
  734SOL    HW1 2934   1.542   0.253   2.624  0.1092 -0.4314  1.4948
  734SOL    HW2 2935   1.564   0.186   2.487  1.0934  1.4786 -0.3294
  734SOL     MW 2936   1.584   0.245   2.547  0.3992  0.1383  0.2771
  735SOL     OW 2937   3.004   0.945   2.683 -0.1406 -0.3002 -0.5478
  735SOL    HW1 2938   2.984   0.847   2.677 -0.5846 -0.0969  0.1160
  735SOL    HW2 2939   3.004   0.963   2.778 -1.3636 -1.0830  1.2045
  735SOL     MW 2940   3.001   0.934   2.695 -0.3606 -0.3767 -0.2290
  736SOL     OW 2941   0.131   0.581   2.603  0.1982 -0.7737 -0.2765
  736SOL    HW1 2942   0.127   0.644   2.529  2.2803 -1.2179 -0.8946
  736SOL    HW2 2943   0.135   0.492   2.560  0.4149 -0.6128 -0.0683
  736SOL     MW 2944   0.131   0.577   2.587  0.5015 -0.8110 -0.3306
  737SOL     OW 2945   2.975   0.686   2.615  0.2047  0.5205  0.5228
  737SOL    HW1 2946   2.935   0.651   2.530  0.1717 -0.3647 -2.0219
  737SOL    HW2 2947   3.063   0.656   2.619 -1.5069  0.6482 -0.4008
  737SOL     MW 2948   2.981   0.678   2.604 -0.0255  0.4205  0.0652
  738SOL     OW 2949   0.156   0.519   1.883 -0.2994 -0.7829 -0.1845
  738SOL    HW1 2950   0.249   0.554   1.864  0.3024  0.2383 -0.4735
  738SOL    HW2 2951   0.119   0.485   1.800 -0.8844  2.1187 -0.8430
  738SOL     MW 2952   0.163   0.519   1.870 -0.2972 -0.2653 -0.3095
  739SOL     OW 2953   2.480   1.011   2.070  0.1709  0.1379 -0.0610
  739SOL    HW1 2954   2.426   1.000   1.988  0.8072 -1.5220  0.4455
  739SOL    HW2 2955   2.563   0.973   2.043 -0.4527 -0.4822  3.4541
  739SOL     MW 2956   2.484   1.004   2.055  0.1726 -0.1629  0.4696
  740SOL     OW 2957   0.095   1.861   2.925  0.2883 -0.4548 -0.0002
  740SOL    HW1 2958   0.088   1.767   2.928 -0.7067  0.4769 -0.4299
  740SOL    HW2 2959   0.175   1.884   2.976 -0.7942 -0.5986 -0.2965
  740SOL     MW 2960   0.104   1.852   2.932  0.0142 -0.3509 -0.0960
  741SOL     OW 2961   2.255   1.174   2.735 -0.2086 -0.0942  0.2908
  741SOL    HW1 2962   2.210   1.230   2.678  1.5507  1.1429 -0.5911
  741SOL    HW2 2963   2.229   1.183   2.829 -1.7119  1.8132  2.6858
  741SOL     MW 2964   2.246   1.182   2.740 -0.1748  0.3207  0.4904
  742SOL     OW 2965   1.693   1.215   2.240  0.1112 -0.5262  0.4113
  742SOL    HW1 2966   1.599   1.194   2.234  0.3625 -1.4082  0.3286
  742SOL    HW2 2967   1.705   1.211   2.337  2.1642  0.1241 -0.0143
  742SOL     MW 2968   1.682   1.212   2.252  0.4152 -0.5568  0.3443
  743SOL     OW 2969   2.517   1.247   2.683 -1.1293 -0.6488 -0.0383
  743SOL    HW1 2970   2.428   1.219   2.693  0.0322 -0.3206  3.4981
  743SOL    HW2 2971   2.559   1.186   2.742  1.0270  3.8975 -0.9545
  743SOL     MW 2972   2.511   1.235   2.692 -0.6916 -0.0057  0.3074
  744SOL     OW 2973   2.757   0.923   1.862 -0.8497 -0.6984 -0.0954
  744SOL    HW1 2974   2.692   0.989   1.840 -1.2308 -1.6198 -0.0592
  744SOL    HW2 2975   2.745   0.872   1.782 -0.3026  0.1791 -0.3538
  744SOL     MW 2976   2.746   0.925   1.848 -0.8278 -0.7042 -0.1247
  745SOL     OW 2977   1.689   0.505   2.451 -0.2599 -0.0944 -0.2764
  745SOL    HW1 2978   1.682   0.531   2.356  1.2348 -1.5620 -1.6522
  745SOL    HW2 2979   1.631   0.429   2.467  2.6246 -0.1545  2.5722
  745SOL     MW 2980   1.680   0.499   2.441  0.3179 -0.2960 -0.0821
  746SOL     OW 2981   1.598   1.426   1.641  0.7952 -0.4118  0.4321
  746SOL    HW1 2982   1.689   1.436   1.628 -1.3919  0.7260 -2.5869
  746SOL    HW2 2983   1.585   1.420   1.734  0.1767  1.1557 -1.2729
  746SOL     MW 2984   1.608   1.426   1.652  0.4251 -0.0548 -0.1912
  747SOL     OW 2985   2.600   1.158   1.821 -0.2226 -0.3381  0.1418
  747SOL    HW1 2986   2.512   1.125   1.786 -0.1056 -1.5928 -1.5322
  747SOL    HW2 2987   2.578   1.232   1.881 -0.1571  0.3570  0.0467
  747SOL     MW 2988   2.586   1.164   1.824 -0.1985 -0.4119 -0.0916
  748SOL     OW 2989   0.082   0.067   1.860 -0.3177  0.7787  0.1985
  748SOL    HW1 2990   0.180   0.088   1.839 -1.8819 -0.5401  1.1030
  748SOL    HW2 2991   0.064   0.116   1.947 -1.6939  1.1282  1.5813
  748SOL     MW 2992   0.093   0.076   1.869 -0.7057  0.6508  0.5003
  749SOL     OW 2993   2.471   0.601   2.730  0.1432 -0.3028  0.1011
  749SOL    HW1 2994   2.493   0.675   2.670  1.8737 -1.4401 -1.4761
  749SOL    HW2 2995   2.461   0.656   2.811  3.5251  3.3543  0.4813
  749SOL     MW 2996   2.473   0.618   2.733  0.8178  0.0296 -0.0568
  750SOL     OW 2997   2.058   3.059   1.984  0.3566 -0.3828 -0.0002
  750SOL    HW1 2998   2.097   3.141   2.009  1.8177 -2.0441  2.9093
  750SOL    HW2 2999   2.140   3.006   1.985  0.0320 -1.1912  0.0292
  750SOL     MW 3000   2.074   3.063   1.987  0.5065 -0.7087  0.3876
  751SOL     OW 3001   0.133   0.340   2.474  0.4669  0.2134  0.2146
  751SOL    HW1 3002   0.119   0.252   2.507  0.1693  0.1814  0.3401
  751SOL    HW2 3003   0.178   0.334   2.386  0.2601 -0.8350 -0.9509
  751SOL     MW 3004   0.137   0.327   2.467  0.4004  0.0709  0.0774
  752SOL     OW 3005   2.096   0.751   2.731  0.5737  0.3414  0.3364
  752SOL    HW1 3006   2.170   0.804   2.696  2.3630 -0.6084 -1.3138
  752SOL    HW2 3007   2.087   0.767   2.828  0.2232 -0.3433  2.2831
  752SOL     MW 3008   2.105   0.760   2.739  0.7635  0.1258  0.3755
  753SOL     OW 3009   2.899   0.213   2.395  0.0222 -0.0199 -0.3710
  753SOL    HW1 3010   2.836   0.149   2.368  2.1292 -0.3988  0.7874
  753SOL    HW2 3011   2.885   0.294   2.343  0.2189  2.1813  0.7131
  753SOL     MW 3012   2.889   0.215   2.385  0.3262  0.2205 -0.0751
  754SOL     OW 3013   2.219   2.979   2.585  0.0150  0.3208  0.6823
  754SOL    HW1 3014   2.253   2.966   2.496 -0.1393  1.7219 -0.7779
  754SOL    HW2 3015   2.286   2.927   2.644 -2.2855 -1.3663  0.6651
  754SOL     MW 3016   2.232   2.971   2.581 -0.3089  0.2831  0.4874
  755SOL     OW 3017   2.698   1.514   2.437 -0.2957  0.0922  0.0759
  755SOL    HW1 3018   2.718   1.439   2.492  1.9377 -0.6329 -2.9906
  755SOL    HW2 3019   2.730   1.595   2.486 -0.9952  0.3366 -1.8296
  755SOL     MW 3020   2.705   1.515   2.450 -0.0933  0.0288 -0.5801
  756SOL     OW 3021   2.181   1.219   3.000  0.8167  0.1466 -0.4021
  756SOL    HW1 3022   2.239   1.299   3.003 -0.9239 -1.4410  1.2580
  756SOL    HW2 3023   2.248   1.144   3.012  1.7616  1.4374 -3.0335
  756SOL     MW 3024   2.198   1.220   3.002  0.7117  0.1074 -0.5303
  757SOL     OW 3025   2.155   0.887   1.606  0.2388 -0.2007 -0.1638
  757SOL    HW1 3026   2.192   0.800   1.588 -1.2700  1.5748 -0.3803
  757SOL    HW2 3027   2.058   0.882   1.578  0.4166  1.2656 -1.3914
  757SOL     MW 3028   2.147   0.875   1.600  0.0632  0.2270 -0.3544
  758SOL     OW 3029   2.224   1.852   2.636  0.2426 -0.1881 -0.0995
  758SOL    HW1 3030   2.207   1.883   2.542 -2.0298  0.4317  2.9889
  758SOL    HW2 3031   2.312   1.818   2.644  0.2987 -2.4613  0.4175
  758SOL     MW 3032   2.233   1.852   2.625 -0.0498 -0.4062  0.3762
  759SOL     OW 3033   1.549   1.290   2.691 -0.4846 -1.0716 -0.0279
  759SOL    HW1 3034   1.546   1.379   2.648 -2.0285  1.9427  1.2925
  759SOL    HW2 3035   1.576   1.303   2.784  1.3744 -2.7159 -0.4324
  759SOL     MW 3036   1.552   1.303   2.698 -0.4430 -0.8909  0.0930
  760SOL     OW 3037   2.536   1.990   2.715 -0.1635  0.1280  0.3126
  760SOL    HW1 3038   2.524   1.910   2.660  0.7925  1.0086 -2.4815
  760SOL    HW2 3039   2.532   2.069   2.656 -0.9048 -4.5614 -0.5417
  760SOL     MW 3040   2.534   1.990   2.700 -0.1352 -0.3746 -0.1688
  761SOL     OW 3041   2.140   0.349   2.487  0.3898  0.4142  0.7574
  761SOL    HW1 3042   2.075   0.283   2.519  1.9654  1.4922  0.0750
  761SOL    HW2 3043   2.172   0.402   2.563  0.8444 -1.3789  0.2766
  761SOL     MW 3044   2.136   0.347   2.501  0.6576  0.3199  0.6039
  762SOL     OW 3045   3.089   0.166   2.109 -0.4530  0.2941  0.1653
  762SOL    HW1 3046   3.114   0.082   2.155 -2.0739 -2.4597 -2.8641
  762SOL    HW2 3047   3.075   0.245   2.159  0.5116 -0.2007 -2.8518
  762SOL     MW 3048   3.090   0.165   2.121 -0.5396 -0.1345 -0.6325
  763SOL     OW 3049   2.334   1.034   2.347 -0.2153  0.1157 -0.1152
  763SOL    HW1 3050   2.367   0.999   2.263 -2.8913 -1.9917 -1.2137
  763SOL    HW2 3051   2.390   1.113   2.365  3.6046  2.1306 -1.1828
  763SOL     MW 3052   2.346   1.040   2.338 -0.0644  0.1035 -0.4010
  764SOL     OW 3053   0.515   0.237   2.799 -0.1366 -0.1745 -0.0287
  764SOL    HW1 3054   0.423   0.200   2.790 -3.2108  0.3072  1.0668
  764SOL    HW2 3055   0.488   0.318   2.841 -0.4239 -0.0779  0.6773
  764SOL     MW 3056   0.499   0.243   2.804 -0.5801 -0.0982  0.2090
  765SOL     OW 3057   2.740   3.082   2.349 -0.5225 -0.4024 -0.4196
  765SOL    HW1 3058   2.666   3.064   2.286  0.2229 -0.0602  2.0378
  765SOL    HW2 3059   2.811   3.029   2.305 -0.7899 -0.0129 -0.3814
  765SOL     MW 3060   2.739   3.072   2.335 -0.4595 -0.3059 -0.0903
  766SOL     OW 3061   1.849   2.970   2.167  0.0600 -0.3604  0.0339
  766SOL    HW1 3062   1.903   3.011   2.096  0.4730  0.5327 -2.2354
  766SOL    HW2 3063   1.783   2.918   2.114 -1.1567  1.4202  0.5486
  766SOL     MW 3064   1.847   2.968   2.150 -0.0460 -0.0076 -0.1976
  767SOL     OW 3065   2.687   0.595   2.088  0.2082  0.5744  0.2589
  767SOL    HW1 3066   2.729   0.680   2.103 -1.7811  1.4603 -0.2666
  767SOL    HW2 3067   2.599   0.613   2.044 -0.1205  0.7860  0.1731
  767SOL     MW 3068   2.681   0.609   2.084 -0.0976  0.7192  0.1783
  768SOL     OW 3069   0.000   1.588   2.917  0.3953 -0.2110  0.0809
  768SOL    HW1 3070  -0.017   1.561   3.011  0.7455  0.4796 -0.0742
  768SOL    HW2 3071   0.049   1.516   2.891 -5.1907  1.6768  1.3913
  768SOL     MW 3072   0.004   1.575   2.926 -0.2955  0.1292  0.2333
  769SOL     OW 3073   2.445   0.693   2.341  0.0541 -0.1932 -0.0511
  769SOL    HW1 3074   2.416   0.604   2.311  1.4570 -2.1209  1.9459
  769SOL    HW2 3075   2.381   0.743   2.292 -0.6792 -2.1905 -0.3630
  769SOL     MW 3076   2.433   0.688   2.331  0.1424 -0.7111  0.1712
  770SOL     OW 3077   0.038   1.601   2.608 -0.6097  0.5983 -0.0668
  770SOL    HW1 3078  -0.054   1.626   2.599  2.9731 -1.0842 -0.5959
  770SOL    HW2 3079   0.028   1.525   2.662  3.6029  0.5090 -4.5801
  770SOL     MW 3080   0.024   1.594   2.614  0.4188  0.3645 -0.7321
  771SOL     OW 3081   3.072   0.644   2.047 -0.5879 -0.3023  0.3988
  771SOL    HW1 3082   3.005   0.601   1.993 -2.5213 -0.1704  0.4897
  771SOL    HW2 3083   3.159   0.622   2.002  2.7263  0.4182 -0.0662
  771SOL     MW 3084   3.074   0.635   2.034 -0.4057 -0.1898  0.3495
  772SOL     OW 3085   0.066   3.090   2.318  0.3729  0.1893  0.2308
  772SOL    HW1 3086  -0.015   3.048   2.299 -0.8974  0.9963 -1.7342
  772SOL    HW2 3087   0.124   3.041   2.263  0.0082 -1.1490  0.3516
  772SOL     MW 3088   0.063   3.078   2.308  0.1572  0.1192 -0.0125
  773SOL     OW 3089   2.388   2.866   2.757  0.1098 -0.0101 -0.0823
  773SOL    HW1 3090   2.414   2.784   2.707 -1.1032 -1.1889 -1.4747
  773SOL    HW2 3091   2.378   2.847   2.849 -1.9013  1.5462 -0.2843
  773SOL     MW 3092   2.390   2.853   2.762 -0.3156  0.0397 -0.2927
  774SOL     OW 3093   2.340   1.101   1.737  0.6326  0.5377  0.3661
  774SOL    HW1 3094   2.335   1.151   1.655  1.0399  1.4512 -0.6328
  774SOL    HW2 3095   2.293   1.014   1.732 -0.0574 -2.0705 -1.7203
  774SOL     MW 3096   2.333   1.096   1.726  0.5953  0.3141 -0.0409
  775SOL     OW 3097   2.310   2.894   2.336  0.1875 -0.5975 -0.3038
  775SOL    HW1 3098   2.313   2.973   2.282  0.5580 -0.3509  1.0267
  775SOL    HW2 3099   2.377   2.832   2.309  0.9776 -1.6844 -0.8975
  775SOL     MW 3100   2.319   2.896   2.326  0.3406 -0.7084 -0.2066
  776SOL     OW 3101   0.053   1.489   0.103 -0.3795  0.3145  0.0844
  776SOL    HW1 3102   0.142   1.461   0.120 -3.2480 -1.6620  1.3784
  776SOL    HW2 3103   0.002   1.402   0.101 -0.0429 -0.4794  1.8199
  776SOL     MW 3104   0.058   1.474   0.105 -0.7135 -0.0510  0.4841
  777SOL     OW 3105   2.962   1.087   1.750  0.4514 -0.5865 -0.1748
  777SOL    HW1 3106   2.892   1.131   1.704  1.8043  0.5175 -2.0001
  777SOL    HW2 3107   2.931   1.007   1.791  0.1548 -0.7261  1.3666
  777SOL     MW 3108   2.949   1.083   1.749  0.5908 -0.4592 -0.2123
  778SOL     OW 3109   2.889   0.501   2.785 -0.2160 -0.3249 -0.3964
  778SOL    HW1 3110   2.828   0.526   2.861  0.7570 -0.0584 -0.7675
  778SOL    HW2 3111   2.898   0.575   2.724  1.3037 -1.4583 -0.1675
  778SOL     MW 3112   2.882   0.514   2.787  0.1129 -0.4393 -0.4152
  779SOL     OW 3113   2.160   0.578   2.338 -0.5444 -0.1240 -0.0668
  779SOL    HW1 3114   2.114   0.646   2.382  2.0704 -2.6975 -0.9223
  779SOL    HW2 3115   2.149   0.501   2.393 -0.0262 -0.8105 -4.0867
  779SOL     MW 3116   2.153   0.576   2.351 -0.1311 -0.5541 -0.7101
  780SOL     OW 3117   0.259   0.135   2.793 -0.4848  0.1348  0.2823
  780SOL    HW1 3118   0.204   0.184   2.857  0.0756  0.4291  0.2647
  780SOL    HW2 3119   0.203   0.124   2.715  1.0241 -1.2433 -1.7539
  780SOL     MW 3120   0.244   0.140   2.791 -0.2118 -0.0082  0.0114
  781SOL     OW 3121   3.062   1.293   2.517 -0.0899  0.0712  0.1087
  781SOL    HW1 3122   3.060   1.356   2.444 -0.1022  0.0695  0.8836
  781SOL    HW2 3123   3.100   1.209   2.489 -0.4300  1.8747 -1.1964
  781SOL     MW 3124   3.067   1.290   2.504 -0.1364  0.3089  0.0387
  782SOL     OW 3125   0.524   1.632   3.021  0.0890  0.2124  0.3158
  782SOL    HW1 3126   0.454   1.699   3.042 -0.0788  3.3295  2.1930
  782SOL    HW2 3127   0.520   1.571   3.100  0.1522 -3.2186  3.2091
  782SOL     MW 3128   0.514   1.633   3.034  0.0752  0.1710  0.9452
  783SOL     OW 3129   2.797   0.537   2.467 -0.1066  0.5217  0.1347
  783SOL    HW1 3130   2.772   0.495   2.383  0.1359 -0.0259  1.5768
  783SOL    HW2 3131   2.752   0.476   2.529  1.0464 -0.5878 -2.1656
  783SOL     MW 3132   2.788   0.524   2.464  0.0775  0.3031  0.0215
  784SOL     OW 3133   0.267   0.910   2.884  0.3191 -0.4236  0.5026
  784SOL    HW1 3134   0.247   0.983   2.946  2.4526 -3.2139 -1.0721
  784SOL    HW2 3135   0.253   0.963   2.800  2.0180  0.4379 -0.6598
  784SOL     MW 3136   0.263   0.927   2.881  0.8248 -0.6781  0.1414
  785SOL     OW 3137   0.395   0.487   2.136 -0.5104 -0.4736  0.1306
  785SOL    HW1 3138   0.415   0.533   2.051 -3.5009  2.5273 -0.0894
  785SOL    HW2 3139   0.321   0.426   2.132 -1.3022 -1.6721 -0.8299
  785SOL     MW 3140   0.388   0.485   2.124 -1.0094 -0.2358 -0.0251
  786SOL     OW 3141   1.978   0.450   2.853  0.2840  0.3476  0.3901
  786SOL    HW1 3142   2.012   0.507   2.925  3.3770 -0.2786  1.0303
  786SOL    HW2 3143   2.059   0.447   2.805  1.7989  1.8076 -2.1589
  786SOL     MW 3144   1.993   0.457   2.856  0.8920  0.4576  0.1383
  787SOL     OW 3145   2.406   0.147   2.885 -0.4523  0.5212  0.0102
  787SOL    HW1 3146   2.466   0.069   2.851 -0.2083 -1.7924 -0.3914
  787SOL    HW2 3147   2.468   0.216   2.923 -0.2825 -1.6902 -0.6461
  787SOL     MW 3148   2.422   0.146   2.886 -0.3977 -0.0758 -0.1294
  788SOL     OW 3149   2.946   2.924   2.264 -0.0673  0.5063 -0.4053
  788SOL    HW1 3150   2.927   2.873   2.191  3.0022 -0.5947  2.0310
  788SOL    HW2 3151   2.996   2.865   2.322  0.8898  1.1338  0.9842
  788SOL     MW 3152   2.950   2.910   2.262  0.4640  0.4438  0.0995
  789SOL     OW 3153   0.061   0.232   2.987  0.0031 -0.1207  0.0220
  789SOL    HW1 3154  -0.015   0.187   3.019  1.8866  0.3244  0.0719
  789SOL    HW2 3155   0.036   0.328   3.000 -0.0864  2.7043 -3.2490
  789SOL     MW 3156   0.047   0.239   2.993  0.2398  0.3108 -0.4030
  790SOL     OW 3157   0.027   1.025   2.460 -0.2739  0.2939  0.5088
  790SOL    HW1 3158  -0.018   1.003   2.539 -0.1855 -3.1238 -1.5912
  790SOL    HW2 3159  -0.039   1.046   2.397 -1.0090 -1.1834  1.6900
  790SOL     MW 3160   0.013   1.025   2.462 -0.3592 -0.3519  0.3876
  791SOL     OW 3161   2.663   0.373   2.661 -0.8161  0.0901 -0.1000
  791SOL    HW1 3162   2.600   0.436   2.685 -0.4924 -2.6661 -1.0976
  791SOL    HW2 3163   2.731   0.379   2.726 -1.4585 -1.3741 -1.2680
  791SOL     MW 3164   2.663   0.382   2.673 -0.8581 -0.4667 -0.3857
  792SOL     OW 3165   2.395   0.241   2.396 -1.1054  0.2349  0.0796
  792SOL    HW1 3166   2.302   0.251   2.433 -0.4796  0.1905 -1.0904
  792SOL    HW2 3167   2.454   0.179   2.452  0.2485  0.7203  3.2920
  792SOL     MW 3168   2.390   0.234   2.408 -0.8442  0.2931  0.3491
  793SOL     OW 3169   1.769   1.006   1.887  0.2722 -0.0369 -0.6018
  793SOL    HW1 3170   1.719   1.051   1.817  0.8278 -2.6032  2.0138
  793SOL    HW2 3171   1.835   0.961   1.837 -0.9856 -2.2365  1.3714
  793SOL     MW 3172   1.771   1.006   1.872  0.1795 -0.6657  0.0037
  794SOL     OW 3173   1.428   2.282   0.118  0.1388  0.0034  0.0360
  794SOL    HW1 3174   1.492   2.336   0.076  0.1947  1.0450  1.6275
  794SOL    HW2 3175   1.444   2.303   0.209  1.0403 -0.3123 -0.4993
  794SOL     MW 3176   1.438   2.292   0.125  0.2651  0.0992  0.1754
  795SOL     OW 3177   2.272   0.930   2.611  0.9036 -0.3221  0.1467
  795SOL    HW1 3178   2.256   1.016   2.650 -1.8289 -0.8751  0.0785
  795SOL    HW2 3179   2.256   0.943   2.516  0.1251 -1.2413 -2.1490
  795SOL     MW 3180   2.268   0.943   2.604  0.4404 -0.5164 -0.1652
  796SOL     OW 3181   0.349   0.685   2.746 -0.5561  0.2258  0.4646
  796SOL    HW1 3182   0.321   0.759   2.801  0.5618  1.3550 -0.7420
  796SOL    HW2 3183   0.267   0.666   2.695  2.2863 -1.8428 -0.2297
  796SOL     MW 3184   0.334   0.692   2.747 -0.0336  0.1019  0.2138
  797SOL     OW 3185   2.585   0.124   2.554  0.2994  0.0583 -0.1006
  797SOL    HW1 3186   2.624   0.216   2.563  2.5788  3.5576  0.6751
  797SOL    HW2 3187   2.645   0.070   2.503  1.0101 -1.6162  2.0670
  797SOL     MW 3188   2.598   0.129   2.549  0.6939  0.2990  0.2877
  798SOL     OW 3189   2.340   0.036   2.208  0.0392  0.7440  0.0112
  798SOL    HW1 3190   2.368   0.109   2.269 -0.2152 -1.5353  2.2182
  798SOL    HW2 3191   2.417   0.009   2.158  0.3849 -1.6690 -2.9928
  798SOL     MW 3192   2.353   0.042   2.210  0.0512  0.1249 -0.0940
  799SOL     OW 3193   2.485   2.915   0.195 -0.0484  0.3748  0.0585
  799SOL    HW1 3194   2.456   2.834   0.148  1.8692 -0.8882  0.4855
  799SOL    HW2 3195   2.462   2.990   0.140  0.3711  1.7473 -1.3611
  799SOL     MW 3196   2.478   2.914   0.181  0.2600  0.3892 -0.0724
  800SOL     OW 3197   1.894   3.090   1.769  0.3297  0.4802 -0.3206
  800SOL    HW1 3198   1.842   3.011   1.772  0.3522  0.0937 -0.9210
  800SOL    HW2 3199   1.958   3.076   1.841  0.1661 -1.1366  0.8726
  800SOL     MW 3200   1.895   3.077   1.779  0.3111  0.2159 -0.2424
  801SOL     OW 3201   2.803   1.302   2.593  0.1063 -0.4538 -1.0561
  801SOL    HW1 3202   2.780   1.207   2.573 -0.0891  0.3983  0.7737
  801SOL    HW2 3203   2.895   1.303   2.562  2.1018 -0.1577  1.4537
  801SOL     MW 3204   2.812   1.290   2.586  0.3438 -0.3023 -0.4835
  802SOL     OW 3205   2.555   1.488   2.794 -0.1367  0.4564 -0.7404
  802SOL    HW1 3206   2.553   1.402   2.750  0.7173  1.0991 -1.1658
  802SOL    HW2 3207   2.654   1.502   2.795  3.4341  2.5810  2.7430
  802SOL     MW 3208   2.568   1.478   2.789  0.4471  0.8215 -0.3369
  803SOL     OW 3209   2.307   1.299   1.965 -0.3149  0.4628  0.5114
  803SOL    HW1 3210   2.275   1.255   2.043 -1.6042 -0.3400 -0.8153
  803SOL    HW2 3211   2.292   1.234   1.896 -1.7874 -0.0984 -2.0869
  803SOL     MW 3212   2.301   1.284   1.966 -0.6793  0.2829 -0.0065
  804SOL     OW 3213   2.335   0.069   0.034  0.2712 -0.4032  0.0063
  804SOL    HW1 3214   2.261   0.136   0.027  2.1708  0.2805  0.7342
  804SOL    HW2 3215   2.383   0.090  -0.048  1.1285  0.4818 -0.3794
  804SOL     MW 3216   2.332   0.080   0.023  0.6350 -0.1962  0.0515
  805SOL     OW 3217   2.746   1.042   2.541  0.5212  0.1671 -0.0709
  805SOL    HW1 3218   2.683   0.965   2.542  0.5298 -0.1266  1.7921
  805SOL    HW2 3219   2.832   1.003   2.576  0.7903 -1.2794 -0.5807
  805SOL     MW 3220   2.749   1.026   2.546  0.5579 -0.0625  0.1076
  806SOL     OW 3221   2.651   0.386   2.287  0.1259 -0.7496 -0.1008
  806SOL    HW1 3222   2.566   0.352   2.316  2.5147 -2.8374  1.1186
  806SOL    HW2 3223   2.627   0.456   2.221  1.1480  2.3906  0.7685
  806SOL     MW 3224   2.637   0.391   2.282  0.5759 -0.6107  0.1748
  807SOL     OW 3225   3.073   1.127   2.036  0.2169 -0.0245 -0.1431
  807SOL    HW1 3226   3.118   1.047   2.008  1.3189 -0.0421 -1.5097
  807SOL    HW2 3227   3.010   1.094   2.102  0.0970 -1.0077 -0.0023
  807SOL     MW 3228   3.071   1.112   2.041  0.3465 -0.1565 -0.3049
  808SOL     OW 3229   2.576   3.058   2.790 -0.0730  0.4313  0.3749
  808SOL    HW1 3230   2.510   2.999   2.750 -0.2119 -2.0377 -0.6852
  808SOL    HW2 3231   2.607   3.116   2.717 -1.9240  1.2852  2.6470
  808SOL     MW 3232   2.571   3.058   2.775 -0.3356  0.2182  0.5348
  809SOL     OW 3233   2.489   1.246   2.417 -0.4296  0.5014  0.0924
  809SOL    HW1 3234   2.524   1.269   2.509  0.0960  1.1164  1.3584
  809SOL    HW2 3235   2.563   1.210   2.367 -0.1767  0.1305 -1.0189
  809SOL     MW 3236   2.504   1.244   2.422 -0.3269  0.5336  0.1128
  810SOL     OW 3237   2.195   1.205   2.175 -0.2185 -0.0774 -0.2452
  810SOL    HW1 3238   2.239   1.162   2.256 -0.5455 -2.6919 -0.9655
  810SOL    HW2 3239   2.100   1.190   2.175 -1.2625  2.5601  0.6365
  810SOL     MW 3240   2.188   1.197   2.186 -0.3994 -0.0744 -0.2239
  811SOL     OW 3241   1.484   0.095   2.248  0.5154 -0.1236 -0.1477
  811SOL    HW1 3242   1.564   0.063   2.294 -2.5076  2.2289  2.4517
  811SOL    HW2 3243   1.505   0.064   2.153 -2.1201 -3.1119 -3.2592
  811SOL     MW 3244   1.497   0.087   2.242 -0.2312 -0.2075 -0.2152
  812SOL     OW 3245   1.388   2.756   2.074 -0.2448 -0.5799  0.1032
  812SOL    HW1 3246   1.481   2.764   2.045  1.0947  1.8579 -2.8345
  812SOL    HW2 3247   1.403   2.723   2.163  1.9482  0.4509  0.0651
  812SOL     MW 3248   1.402   2.753   2.082  0.2213 -0.1222 -0.2894
  813SOL     OW 3249   1.818   0.783   2.185  0.4911 -1.1538  0.1157
  813SOL    HW1 3250   1.789   0.690   2.187 -0.7923 -2.7398 -3.4460
  813SOL    HW2 3251   1.877   0.785   2.260 -5.1011 -0.1974  1.2015
  813SOL     MW 3252   1.822   0.771   2.195 -0.4161 -1.2369 -0.2110
  814SOL     OW 3253   2.769   1.212   1.606  0.8946 -0.2526  0.1577
  814SOL    HW1 3254   2.709   1.208   1.689  0.5739 -0.5000 -0.4662
  814SOL    HW2 3255   2.752   1.134   1.548 -0.1637 -1.0946 -0.1284
  814SOL     MW 3256   2.759   1.201   1.610  0.7126 -0.3964  0.0376
  815SOL     OW 3257   2.451   1.616   2.368  0.6064 -0.3088  0.1902
  815SOL    HW1 3258   2.387   1.562   2.323  0.7447  2.3883  2.7119
  815SOL    HW2 3259   2.536   1.570   2.352 -1.3263  0.9953 -1.1884
  815SOL     MW 3260   2.454   1.603   2.360  0.3697  0.2191  0.3410
  816SOL     OW 3261   0.631   0.664   2.732  0.4695  0.7764 -0.7321
  816SOL    HW1 3262   0.683   0.588   2.768 -1.7476  1.7203 -1.0544
  816SOL    HW2 3263   0.571   0.633   2.655 -0.7901  0.6198 -0.3229
  816SOL     MW 3264   0.630   0.650   2.727  0.0108  0.8803 -0.7206
  817SOL     OW 3265   3.034   1.153   1.393 -0.0058  0.6911 -0.1443
  817SOL    HW1 3266   3.093   1.160   1.470 -1.9878 -2.1519  0.6148
  817SOL    HW2 3267   3.017   1.242   1.365 -1.7807 -1.5172 -1.8350
  817SOL     MW 3268   3.040   1.166   1.400 -0.5015  0.0247 -0.2672
  818SOL     OW 3269   1.939   0.989   2.690 -0.1895 -0.0755 -0.3566
  818SOL    HW1 3270   1.984   1.042   2.622 -1.1862 -1.9787 -0.9193
  818SOL    HW2 3271   1.988   0.906   2.695 -0.0308  0.9590 -0.1746
  818SOL     MW 3272   1.951   0.985   2.682 -0.3001 -0.1901 -0.4069
  819SOL     OW 3273   1.826   0.251   2.375 -0.4894  0.3226  0.7171
  819SOL    HW1 3274   1.778   0.335   2.401  2.6952  1.9230 -1.5437
  819SOL    HW2 3275   1.880   0.225   2.454  2.8812  0.7815  0.3596
  819SOL     MW 3276   1.826   0.259   2.389  0.3755  0.5943  0.3716
  820SOL     OW 3277   2.470   1.711   2.629 -0.7080  0.2916 -0.1317
  820SOL    HW1 3278   2.517   1.635   2.664 -0.3576 -0.9275 -0.5849
  820SOL    HW2 3279   2.482   1.691   2.530  0.6407 -0.3923 -2.5225
  820SOL     MW 3280   2.478   1.698   2.621 -0.4838  0.0405 -0.5069
  821SOL     OW 3281   2.582   1.337   2.033  0.2191 -0.0951  0.4948
  821SOL    HW1 3282   2.598   1.411   1.979 -0.4340 -0.0073 -0.1016
  821SOL    HW2 3283   2.490   1.318   2.018  1.6114 -0.9541 -0.5670
  821SOL     MW 3284   2.572   1.344   2.024  0.3166 -0.1969  0.2761
  822SOL     OW 3285   2.878   2.687   1.391  0.7934 -0.1724 -0.3180
  822SOL    HW1 3286   2.811   2.752   1.412 -2.1631 -0.2269 -1.3697
  822SOL    HW2 3287   2.953   2.733   1.365  0.4217  0.7536  2.0235
  822SOL     MW 3288   2.879   2.702   1.390  0.3543 -0.0574 -0.1478
  823SOL     OW 3289   2.290   0.463   1.769  0.4669 -0.3297  0.5518
  823SOL    HW1 3290   2.358   0.399   1.741 -1.4782 -0.6984 -1.3576
  823SOL    HW2 3291   2.216   0.405   1.762  2.4508 -1.9285 -1.0435
  823SOL     MW 3292   2.289   0.447   1.765  0.4720 -0.5893  0.0894
  824SOL     OW 3293   2.114   1.329   2.547 -0.0137 -0.9001  0.3514
  824SOL    HW1 3294   2.190   1.359   2.485 -0.1844  0.2148  0.5130
  824SOL    HW2 3295   2.098   1.410   2.596  1.0115  1.7724  0.8438
  824SOL     MW 3296   2.122   1.344   2.545  0.0990 -0.4004  0.4377
  825SOL     OW 3297   2.201   2.403   0.399  0.0290 -0.6239 -0.2134
  825SOL    HW1 3298   2.286   2.399   0.353 -2.6272 -1.0018  1.1000
  825SOL    HW2 3299   2.212   2.365   0.484  2.8563  0.0428 -1.3689
  825SOL     MW 3300   2.214   2.397   0.404  0.0516 -0.5858 -0.1926
  826SOL     OW 3301   1.740   2.333   0.400 -0.1486  0.2816 -0.0288
  826SOL    HW1 3302   1.767   2.268   0.471  0.1299 -0.4142  1.7602
  826SOL    HW2 3303   1.754   2.411   0.446  2.3555 -1.1964  0.2240
  826SOL     MW 3304   1.746   2.335   0.415  0.2185 -0.0052  0.2406
  827SOL     OW 3305   1.933   2.289   0.902 -0.1352  0.2037 -0.3705
  827SOL    HW1 3306   1.872   2.278   0.825 -1.3466 -2.9303  1.3424
  827SOL    HW2 3307   1.890   2.218   0.956 -1.4609 -1.7632 -2.1672
  827SOL     MW 3308   1.919   2.278   0.899 -0.4700 -0.4693 -0.3816
  828SOL     OW 3309   0.062   2.615   0.568 -0.6501 -0.2350 -0.0964
  828SOL    HW1 3310   0.159   2.622   0.572  0.1881  0.2264  1.2118
  828SOL    HW2 3311   0.037   2.662   0.484  1.4621 -1.3191 -2.1000
  828SOL     MW 3312   0.071   2.622   0.557 -0.2608 -0.3172 -0.1881
  829SOL     OW 3313   3.006   2.896   1.193  0.0466 -0.2268  0.2660
  829SOL    HW1 3314   2.934   2.866   1.141  2.3095  2.4564  1.4893
  829SOL    HW2 3315   3.073   2.832   1.182  0.2064 -1.0909 -0.9910
  829SOL     MW 3316   3.005   2.883   1.185  0.3662  0.0132  0.2615
  830SOL     OW 3317   2.530   2.782   2.003 -0.8492  0.0288 -0.0150
  830SOL    HW1 3318   2.438   2.823   1.978  1.3509 -1.2511  1.2237
  830SOL    HW2 3319   2.580   2.784   1.917 -2.0846  0.8428 -0.1163
  830SOL     MW 3320   2.524   2.787   1.988 -0.7219 -0.0326  0.1351
  831SOL     OW 3321   2.479   2.433   1.175 -0.0886 -0.2999 -0.2487
  831SOL    HW1 3322   2.449   2.385   1.249 -0.6008 -2.2766  1.0118
  831SOL    HW2 3323   2.569   2.395   1.148 -0.4778 -0.5056  0.0486
  831SOL     MW 3324   2.487   2.422   1.181 -0.2075 -0.5878 -0.0432
  832SOL     OW 3325   2.417   2.134   1.875 -0.1748 -0.2264  0.7233
  832SOL    HW1 3326   2.443   2.222   1.893  1.2983 -0.5750 -0.6574
  832SOL    HW2 3327   2.491   2.091   1.835 -0.8398  2.8250  0.7728
  832SOL     MW 3328   2.430   2.140   1.872 -0.0682  0.1302  0.5477
  833SOL     OW 3329   1.660   2.595   0.887 -0.8168 -0.3347 -0.6183
  833SOL    HW1 3330   1.617   2.519   0.935  3.4877 -0.5693 -3.6347
  833SOL    HW2 3331   1.603   2.672   0.896 -0.1730 -0.4844 -0.1643
  833SOL     MW 3332   1.647   2.595   0.894 -0.1639 -0.3854 -0.9564
  834SOL     OW 3333   2.261   2.347   0.689 -0.2747 -0.0555 -0.3730
  834SOL    HW1 3334   2.193   2.286   0.699  2.0678  0.9337 -1.3543
  834SOL    HW2 3335   2.338   2.294   0.662  2.4897  0.9995  0.6124
  834SOL     MW 3336   2.262   2.332   0.687  0.3991  0.2142 -0.3725
  835SOL     OW 3337   1.731   2.543   0.612 -0.3982  0.2655 -0.2607
  835SOL    HW1 3338   1.708   2.565   0.704  1.4808 -3.4835  0.1155
  835SOL    HW2 3339   1.822   2.516   0.615 -2.5286 -1.1505  1.2931
  835SOL     MW 3340   1.740   2.542   0.625 -0.4314 -0.4160 -0.0060
  836SOL     OW 3341   2.051   2.112   1.674  0.4693 -0.3936  0.0020
  836SOL    HW1 3342   2.134   2.075   1.651  0.0030 -3.4189  0.5983
  836SOL    HW2 3343   2.070   2.204   1.695  1.6426 -0.5728  1.2058
  836SOL     MW 3344   2.064   2.119   1.674  0.5626 -0.8164  0.2395
  837SOL     OW 3345   2.101   0.198   0.633 -0.0908 -0.1172  0.0594
  837SOL    HW1 3346   2.014   0.195   0.588 -1.8626 -4.5548 -2.5720
  837SOL    HW2 3347   2.149   0.123   0.583  1.5201 -1.0144 -2.2715
  837SOL     MW 3348   2.096   0.188   0.621 -0.1120 -0.8211 -0.5953
  838SOL     OW 3349   2.865   2.066   0.905  0.4811 -0.1564 -0.2152
  838SOL    HW1 3350   2.780   2.022   0.930 -0.3988 -1.4874 -2.3211
  838SOL    HW2 3351   2.916   2.054   0.987  0.6511 -1.7048  1.3655
  838SOL     MW 3352   2.860   2.059   0.919  0.3874 -0.5363 -0.2845
  839SOL     OW 3353   1.577   2.373   1.042 -0.0662  0.7097  0.2796
  839SOL    HW1 3354   1.512   2.422   1.100 -0.1485 -2.2758 -1.9373
  839SOL    HW2 3355   1.602   2.295   1.107 -0.0879 -4.2529  1.6874
  839SOL     MW 3356   1.571   2.369   1.059 -0.0799 -0.3390  0.1729
  840SOL     OW 3357   2.413   2.097   2.388  0.5502  0.2461 -0.5624
  840SOL    HW1 3358   2.351   2.162   2.348 -2.8560  0.4037 -1.3833
  840SOL    HW2 3359   2.439   2.131   2.474  1.8546 -1.4772 -1.0986
  840SOL     MW 3360   2.408   2.110   2.394  0.2729  0.0396 -0.7414
  841SOL     OW 3361   2.316   2.330   0.087 -0.4121 -0.9465  0.3712
  841SOL    HW1 3362   2.324   2.421   0.054  4.0911 -2.1475  0.4671
  841SOL    HW2 3363   2.223   2.311   0.063 -0.5871 -0.1340 -1.0822
  841SOL     MW 3364   2.304   2.340   0.080  0.1590 -0.9977  0.1920
  842SOL     OW 3365   2.664   1.923   1.413 -0.1460 -0.5815 -0.0695
  842SOL    HW1 3366   2.595   1.863   1.393 -1.0330  1.3073 -2.1379
  842SOL    HW2 3367   2.668   1.992   1.345  0.6320  1.8580  1.5166
  842SOL     MW 3368   2.656   1.924   1.402 -0.1604 -0.0104 -0.1331
  843SOL     OW 3369   2.646   2.783   1.738  0.4729  0.3795 -0.0749
  843SOL    HW1 3370   2.733   2.739   1.740 -2.2733 -1.9388 -0.1662
  843SOL    HW2 3371   2.587   2.705   1.727  1.0436 -2.6751 -1.3854
  843SOL     MW 3372   2.650   2.767   1.736  0.1859 -0.3294 -0.2598
  844SOL     OW 3373   2.713   2.334   1.111 -0.3350  0.0477 -0.3014
  844SOL    HW1 3374   2.748   2.378   1.032  0.0119 -1.7984  0.7192
  844SOL    HW2 3375   2.765   2.361   1.187 -0.6395 -3.6928  0.2812
  844SOL     MW 3376   2.724   2.344   1.110 -0.3294 -0.6894 -0.0898
  845SOL     OW 3377   2.838   2.571   0.297 -0.1119  0.5637  0.3100
  845SOL    HW1 3378   2.811   2.490   0.335  0.2154  0.4370  0.9906
  845SOL    HW2 3379   2.832   2.644   0.358 -0.4898  0.6668  1.0477
  845SOL     MW 3380   2.833   2.570   0.310 -0.1185  0.5606  0.4972
  846SOL     OW 3381   1.459   2.793   0.780  0.3381 -0.8152  0.2847
  846SOL    HW1 3382   1.506   2.875   0.808 -0.1294  0.1246 -1.1341
  846SOL    HW2 3383   1.362   2.815   0.774 -0.9068 -0.5242 -0.4702
  846SOL     MW 3384   1.452   2.807   0.783  0.1121 -0.6528 -0.0021
  847SOL     OW 3385   2.492   1.869   0.193  0.1808 -0.6263  0.1144
  847SOL    HW1 3386   2.462   1.782   0.218 -0.2748  2.1506 -0.0980
  847SOL    HW2 3387   2.474   1.879   0.091  1.1499  0.5056  0.3772
  847SOL     MW 3388   2.486   1.859   0.183  0.2485 -0.1106  0.1210
  848SOL     OW 3389   2.655   2.089   1.196  0.8446  0.0975  0.1297
  848SOL    HW1 3390   2.674   2.176   1.166 -1.5242 -2.5472  2.3963
  848SOL    HW2 3391   2.683   2.028   1.124  1.1749 -3.0780  0.7261
  848SOL     MW 3392   2.661   2.092   1.182  0.5756 -0.6704  0.5074
  849SOL     OW 3393   1.979   2.858   0.787 -0.1404  0.2346 -0.3638
  849SOL    HW1 3394   1.950   2.807   0.865  1.1881  0.0502  0.7819
  849SOL    HW2 3395   2.044   2.807   0.741 -0.7287 -0.1572  0.5079
  849SOL     MW 3396   1.984   2.845   0.791 -0.0428  0.1586 -0.0976
  850SOL     OW 3397   2.336   1.854   1.627 -0.0413  0.5745 -0.9814
  850SOL    HW1 3398   2.247   1.829   1.593 -1.6025 -1.7915  0.8690
  850SOL    HW2 3399   2.339   1.954   1.629 -0.0319  2.3363  0.1373
  850SOL     MW 3400   2.324   1.864   1.623 -0.2461  0.4948 -0.5897
  851SOL     OW 3401   2.414   2.268   0.349  0.4903 -0.2985  0.8176
  851SOL    HW1 3402   2.425   2.279   0.256 -0.1443 -2.9342  1.5476
  851SOL    HW2 3403   2.484   2.326   0.390  2.4228  1.0025  1.1208
  851SOL     MW 3404   2.425   2.277   0.342  0.6616 -0.4746  0.9539
  852SOL     OW 3405   2.317   1.999   0.350  0.2326  0.2964  0.4326
  852SOL    HW1 3406   2.341   2.089   0.336 -2.5785  0.0844  1.2184
  852SOL    HW2 3407   2.374   1.943   0.289 -1.6923  1.5667  0.4928
  852SOL     MW 3408   2.327   2.003   0.340 -0.3923  0.4361  0.5442
  853SOL     OW 3409   2.514   2.380   1.925  0.0811 -0.1884  0.0447
  853SOL    HW1 3410   2.491   2.440   1.853 -1.7527  0.9918 -1.1116
  853SOL    HW2 3411   2.610   2.379   1.942  0.7103 -0.9760 -0.8753
  853SOL     MW 3412   2.523   2.388   1.918 -0.0778 -0.1366 -0.2292
  854SOL     OW 3413   2.858   2.261   0.720  0.3738  0.3182  0.0736
  854SOL    HW1 3414   2.772   2.263   0.675 -1.0684  2.1090  0.5835
  854SOL    HW2 3415   2.853   2.190   0.789  1.2598 -0.6020  0.2481
  854SOL     MW 3416   2.846   2.252   0.723  0.3004  0.4331  0.1639
  855SOL     OW 3417   2.765   2.367   0.445 -0.1658  0.1252 -0.1620
  855SOL    HW1 3418   2.698   2.349   0.508  0.4651 -2.2908  1.3562
  855SOL    HW2 3419   2.797   2.278   0.413  0.6081  0.5877 -1.0334
  855SOL     MW 3420   2.761   2.353   0.449  0.0195 -0.1325 -0.0767
  856SOL     OW 3421   2.064   1.892   0.264 -0.1562 -0.3938 -0.1246
  856SOL    HW1 3422   1.974   1.912   0.295 -2.2318 -1.4136 -0.5500
  856SOL    HW2 3423   2.118   1.954   0.313  0.6720 -0.5659 -1.6064
  856SOL     MW 3424   2.059   1.903   0.275 -0.3208 -0.5510 -0.3762
  857SOL     OW 3425   2.501   1.944   0.553 -0.5747  0.1490  0.4295
  857SOL    HW1 3426   2.435   1.967   0.484 -3.5275 -0.4511  2.7427
  857SOL    HW2 3427   2.439   1.897   0.607 -2.6802 -1.2406 -0.3989
  857SOL     MW 3428   2.484   1.941   0.551 -1.2421 -0.1135  0.6254
  858SOL     OW 3429   2.879   2.680   1.783 -0.0157  0.5570 -0.1777
  858SOL    HW1 3430   2.951   2.740   1.799  1.3166 -1.2388  3.1631
  858SOL    HW2 3431   2.916   2.592   1.756  1.3319  0.2668 -2.3527
  858SOL     MW 3432   2.894   2.676   1.782  0.3379  0.2818 -0.0239
  859SOL     OW 3433   1.876   2.703   1.013 -0.6823 -0.4536  0.0163
  859SOL    HW1 3434   1.791   2.666   0.987 -1.5480 -3.2590 -1.1080
  859SOL    HW2 3435   1.941   2.643   1.043 -1.1878 -1.5646 -0.0012
  859SOL     MW 3436   1.873   2.691   1.013 -0.8632 -0.9703 -0.1343
  860SOL     OW 3437   2.603   2.632   0.174  0.3753 -0.7681  0.2862
  860SOL    HW1 3438   2.681   2.601   0.227 -0.6196 -0.4093  0.5250
  860SOL    HW2 3439   2.637   2.675   0.098 -0.7955 -2.2859  1.0307
  860SOL     MW 3440   2.618   2.634   0.171  0.0896 -0.9210  0.4159
  861SOL     OW 3441   1.642   2.151   1.198 -0.2482 -0.0572  0.2968
  861SOL    HW1 3442   1.680   2.183   1.279  2.7930 -3.0798 -0.4756
  861SOL    HW2 3443   1.580   2.085   1.227 -0.2112 -2.0588 -1.0610
  861SOL     MW 3444   1.639   2.147   1.213  0.1579 -0.7201  0.0157
  862SOL     OW 3445   2.460   1.746   1.421 -1.1018  0.1410  0.3448
  862SOL    HW1 3446   2.423   1.819   1.471 -1.9689  0.9336 -3.9587
  862SOL    HW2 3447   2.401   1.737   1.346 -0.9973 -0.9182  2.9070
  862SOL     MW 3448   2.448   1.755   1.418 -1.2024  0.1058  0.1150
  863SOL     OW 3449   3.009   1.696   0.974 -0.0740 -0.5831  0.4747
  863SOL    HW1 3450   3.097   1.730   0.990 -0.3656  3.4088  0.0770
  863SOL    HW2 3451   2.948   1.734   1.036 -0.9201 -0.1866  0.9588
  863SOL     MW 3452   3.012   1.705   0.984 -0.2241 -0.0041  0.4861
  864SOL     OW 3453   0.019   1.812   0.746  0.2343 -0.1659 -0.1626
  864SOL    HW1 3454  -0.045   1.784   0.810  0.5308 -2.4110 -2.1171
  864SOL    HW2 3455  -0.018   1.782   0.664  1.6066  1.4040  0.0352
  864SOL     MW 3456   0.006   1.804   0.744  0.4544 -0.2550 -0.3944
  865SOL     OW 3457   2.592   2.172   0.098 -0.6800 -0.4464  0.2075
  865SOL    HW1 3458   2.538   2.100   0.124  0.5342  0.7900  0.4113
  865SOL    HW2 3459   2.551   2.186   0.013 -0.4712  2.8117 -0.6685
  865SOL     MW 3460   2.579   2.165   0.090 -0.4923  0.1466  0.1188
  866SOL     OW 3461   2.663   2.392   1.537 -0.2284  0.1149  0.4144
  866SOL    HW1 3462   2.649   2.297   1.539  1.5641 -1.4191  1.9012
  866SOL    HW2 3463   2.696   2.420   1.456  0.1344 -0.8203  2.4768
  866SOL     MW 3464   2.665   2.383   1.526  0.0560 -0.2109  0.8827
  867SOL     OW 3465   0.110   2.656   1.750 -0.0296  0.4161 -0.1631
  867SOL    HW1 3466   0.141   2.737   1.787 -1.7950  0.5016 -2.2606
  867SOL    HW2 3467   0.077   2.677   1.667 -0.8612  1.6776 -0.4300
  867SOL     MW 3468   0.110   2.670   1.744 -0.3723  0.5939 -0.4750
  868SOL     OW 3469   2.759   2.704   0.515  0.2985 -0.2724  0.1152
  868SOL    HW1 3470   2.722   2.621   0.500  1.4937  4.1287  1.2667
  868SOL    HW2 3471   2.698   2.769   0.482 -2.1162 -1.4241 -2.0014
  868SOL     MW 3472   2.746   2.702   0.509  0.1376  0.1563 -0.0121
  869SOL     OW 3473   2.061   2.509   1.050 -0.2212 -0.0152  0.0612
  869SOL    HW1 3474   2.133   2.546   0.998  1.2542  1.2821  1.4259
  869SOL    HW2 3475   2.021   2.438   1.000 -3.8072 -1.0956  0.3830
  869SOL     MW 3476   2.066   2.505   1.036 -0.4997  0.0134  0.2837
  870SOL     OW 3477   2.212   0.006   0.474  0.4382 -0.6020  0.2679
  870SOL    HW1 3478   2.292   0.056   0.443  1.0777 -0.7765  0.3609
  870SOL    HW2 3479   2.242  -0.079   0.494  1.0609  2.5808 -0.6892
  870SOL     MW 3480   2.227   0.002   0.473  0.6047 -0.2051  0.1539
  871SOL     OW 3481   2.469   2.114   0.871 -0.1286  0.1830  0.6023
  871SOL    HW1 3482   2.416   2.037   0.858  0.8421  0.8260 -0.9841
  871SOL    HW2 3483   2.402   2.175   0.905  1.5987  3.3049 -2.2088
  871SOL     MW 3484   2.453   2.112   0.874  0.2274  0.6797  0.0221
  872SOL     OW 3485   2.132   2.564   1.540  0.2517 -0.3253  0.1101
  872SOL    HW1 3486   2.061   2.621   1.576  1.0926  1.6452  1.1552
  872SOL    HW2 3487   2.101   2.535   1.452  0.1211 -0.6600 -2.2730
  872SOL     MW 3488   2.118   2.567   1.533  0.3454 -0.1095 -0.0664
  873SOL     OW 3489   2.853   2.092   1.830  0.0602 -0.1232  0.1472
  873SOL    HW1 3490   2.835   2.171   1.879  1.2304  1.6723 -0.6611
  873SOL    HW2 3491   2.949   2.105   1.807  0.5908  1.7709  1.9089
  873SOL     MW 3492   2.863   2.104   1.834  0.2846  0.3636  0.2730
  874SOL     OW 3493   2.287   1.415   2.327 -0.3296 -0.6502  0.0244
  874SOL    HW1 3494   2.252   1.370   2.248 -3.0325 -0.9057 -1.4350
  874SOL    HW2 3495   2.376   1.376   2.343  3.2723 -1.7797  0.1605
  874SOL     MW 3496   2.294   1.404   2.319 -0.2110 -0.8329 -0.1502
  875SOL     OW 3497   2.359   2.356   0.945  0.5814  0.3468 -0.1517
  875SOL    HW1 3498   2.386   2.407   0.864 -0.3856  0.5108 -2.3775
  875SOL    HW2 3499   2.396   2.407   1.025 -0.9249  0.7487  1.2228
  875SOL     MW 3500   2.368   2.370   0.945  0.2550  0.4215 -0.2640
  876SOL     OW 3501  -0.001   2.260   1.348  0.3947 -0.1172 -0.1730
  876SOL    HW1 3502   0.043   2.281   1.264 -0.0439  0.5491 -0.0742
  876SOL    HW2 3503   0.057   2.308   1.414 -1.0975 -0.0577  0.4862
  876SOL     MW 3504   0.013   2.269   1.345  0.1399 -0.0215 -0.0730
  877SOL     OW 3505   0.060   2.758   0.335 -0.1054 -0.2640 -0.0986
  877SOL    HW1 3506   0.098   2.845   0.334  0.6241  0.5952  2.0939
  877SOL    HW2 3507   0.049   2.721   0.251  0.7480  3.4919 -0.3580
  877SOL     MW 3508   0.064   2.765   0.324  0.1035  0.3449  0.1565
  878SOL     OW 3509   2.307   1.709   1.216 -0.2390  0.1606  0.1452
  878SOL    HW1 3510   2.218   1.672   1.256 -0.3297  0.1772 -0.5282
  878SOL    HW2 3511   2.352   1.638   1.165  0.2371  2.6550  1.1947
  878SOL     MW 3512   2.302   1.695   1.214 -0.1882  0.4919  0.1948
  879SOL     OW 3513   2.747   2.469   0.899  0.1156  0.3968 -0.0186
  879SOL    HW1 3514   2.821   2.524   0.917 -0.9923 -1.9525 -0.9670
  879SOL    HW2 3515   2.787   2.412   0.833 -1.5806  2.5530  0.4835
  879SOL     MW 3516   2.762   2.469   0.893 -0.2544  0.3713 -0.0775
  880SOL     OW 3517   2.589   2.228   0.633 -0.3216  0.2126  0.0457
  880SOL    HW1 3518   2.578   2.199   0.727 -1.1833 -1.1846  0.3509
  880SOL    HW2 3519   2.547   2.160   0.571  2.4432  0.3594  0.3090
  880SOL     MW 3520   2.582   2.215   0.637 -0.0705  0.0476  0.1207
  881SOL     OW 3521   2.955   2.760   0.695  0.5359 -0.2734 -0.7457
  881SOL    HW1 3522   2.876   2.746   0.646 -0.5303  2.0909  3.4363
  881SOL    HW2 3523   3.033   2.722   0.657 -0.4095  2.1066  0.7909
  881SOL     MW 3524   2.955   2.753   0.683  0.2705  0.3526  0.0088
  882SOL     OW 3525   2.266   2.878   1.939 -0.6646  0.1857 -0.0518
  882SOL    HW1 3526   2.274   2.885   1.843 -0.0031  1.2885  2.1569
  882SOL    HW2 3527   2.213   2.798   1.959 -0.9636  1.3845 -1.2932
  882SOL     MW 3528   2.260   2.869   1.929 -0.6167  0.4894  0.0758
  883SOL     OW 3529   2.433   2.207   1.319  0.3453 -0.5959  0.0107
  883SOL    HW1 3530   2.506   2.162   1.276 -2.4585  0.3843  0.9820
  883SOL    HW2 3531   2.355   2.204   1.254  0.5061 -1.1273  0.0376
  883SOL     MW 3532   2.432   2.201   1.305 -0.0034 -0.5367  0.1424
  884SOL     OW 3533   1.938   1.826   1.072 -0.1074  0.2410 -0.3276
  884SOL    HW1 3534   1.908   1.918   1.059  0.5426  1.0046  0.2005
  884SOL    HW2 3535   2.029   1.831   1.050 -1.7082  0.8456 -0.1756
  884SOL     MW 3536   1.946   1.839   1.067 -0.2328  0.4215 -0.2379
  885SOL     OW 3537   2.889   2.392   1.698  0.4931  0.2907  0.1097
  885SOL    HW1 3538   2.945   2.312   1.673 -2.9261  0.5101 -1.1695
  885SOL    HW2 3539   2.819   2.399   1.635  0.9902  0.2184 -1.1626
  885SOL     MW 3540   2.887   2.382   1.686  0.1076  0.3101 -0.2269
  886SOL     OW 3541   2.871   2.414   1.327  0.3618  0.8993 -0.8089
  886SOL    HW1 3542   2.956   2.375   1.354 -0.5044 -0.4712 -5.1674
  886SOL    HW2 3543   2.884   2.511   1.363 -0.0772  1.5529 -1.4454
  886SOL     MW 3544   2.884   2.422   1.335  0.1896  0.8047 -1.4679
  887SOL     OW 3545   2.365   2.698   1.518 -0.3150 -0.1017  0.0178
  887SOL    HW1 3546   2.412   2.696   1.435  0.2077  2.2782  1.5750
  887SOL    HW2 3547   2.284   2.642   1.506  0.3418  1.3113 -1.4286
  887SOL     MW 3548   2.361   2.690   1.505 -0.1594  0.3987  0.0324
  888SOL     OW 3549   2.057   2.168   1.376  0.2256 -0.1850  0.6455
  888SOL    HW1 3550   2.106   2.185   1.296 -1.3570  0.5389  0.1243
  888SOL    HW2 3551   2.117   2.190   1.450 -0.0857 -0.8277 -0.0736
  888SOL     MW 3552   2.071   2.173   1.375 -0.0243 -0.1743  0.4819
  889SOL     OW 3553   2.272   1.917   2.026 -0.2151  0.2640 -0.1443
  889SOL    HW1 3554   2.353   1.902   2.081 -1.2114 -1.5323 -0.5178
  889SOL    HW2 3555   2.289   1.991   1.965  1.1225  1.2544 -0.5808
  889SOL     MW 3556   2.285   1.925   2.025 -0.1701  0.1577 -0.2512
  890SOL     OW 3557   0.043   2.343   0.157  0.5885 -0.1791 -0.5540
  890SOL    HW1 3558   0.003   2.432   0.161 -1.5912 -1.3169  0.8831
  890SOL    HW2 3559   0.026   2.303   0.244 -0.4251  1.2049  3.6374
  890SOL     MW 3560   0.036   2.350   0.169  0.1672 -0.1466  0.1886
  891SOL     OW 3561   3.005   2.038   1.154  0.6556 -0.2222 -0.1183
  891SOL    HW1 3562   3.076   1.982   1.176 -3.8576 -2.5661  0.8621
  891SOL    HW2 3563   3.016   2.124   1.193  0.7711  1.2019 -0.5761
  891SOL     MW 3564   3.016   2.042   1.162  0.0753 -0.3436 -0.0493
  892SOL     OW 3565   2.493   2.402   2.825 -0.1491 -0.4416 -0.5003
  892SOL    HW1 3566   2.485   2.313   2.862 -1.7816 -0.8345 -0.0500
  892SOL    HW2 3567   2.588   2.435   2.853 -0.6210  3.6367  0.7009
  892SOL     MW 3568   2.504   2.394   2.834 -0.4267  0.0446 -0.2824
  893SOL     OW 3569   1.670   2.371   1.389 -0.4022 -0.4892  0.0667
  893SOL    HW1 3570   1.587   2.383   1.436 -0.9090  2.3845  2.8247
  893SOL    HW2 3571   1.719   2.447   1.417  1.0428 -0.6565 -1.7471
  893SOL     MW 3572   1.666   2.382   1.399 -0.2784 -0.1321  0.1913
  894SOL     OW 3573   2.755   1.871   0.460  0.1425 -0.0681 -0.4750
  894SOL    HW1 3574   2.661   1.890   0.494 -3.6355  1.7349 -0.0073
  894SOL    HW2 3575   2.739   1.840   0.371 -0.7097  1.2245 -1.8476
  894SOL     MW 3576   2.740   1.870   0.453 -0.4684  0.3403 -0.5944
  895SOL     OW 3577   2.215   2.181   1.104  0.5529 -0.4606 -0.2187
  895SOL    HW1 3578   2.228   2.243   1.034  1.4192 -1.5998  0.1557
  895SOL    HW2 3579   2.224   2.098   1.065  1.1890 -0.2165 -0.7005
  895SOL     MW 3580   2.218   2.178   1.090  0.7511 -0.5787 -0.2329
  896SOL     OW 3581   2.204   2.753   1.079 -0.4964  0.1346 -0.1867
  896SOL    HW1 3582   2.271   2.764   1.152  1.7089 -0.3837 -2.2796
  896SOL    HW2 3583   2.120   2.792   1.105  1.6854  0.7485  2.6825
  896SOL     MW 3584   2.202   2.760   1.092  0.0824  0.1472 -0.0843
  897SOL     OW 3585   3.053   3.024   0.002 -0.0379  0.3328  0.0425
  897SOL    HW1 3586   3.110   2.948   0.004  1.4548 -1.7624  0.8132
  897SOL    HW2 3587   2.967   2.996  -0.039 -1.6354  0.1677  1.1002
  897SOL     MW 3588   3.049   3.010  -0.003 -0.0517  0.0346  0.2837
  898SOL     OW 3589   2.142   0.137   1.454  1.0399 -0.0553  0.1023
  898SOL    HW1 3590   2.112   0.050   1.489 -0.0682 -0.2826 -1.0836
  898SOL    HW2 3591   2.119   0.137   1.366  1.8572  0.2574  1.2532
  898SOL     MW 3592   2.135   0.125   1.447  1.0015 -0.0440  0.0977
  899SOL     OW 3593   2.884   3.037   0.600  0.0814 -0.1945 -0.0920
  899SOL    HW1 3594   2.906   2.950   0.644  2.0086  1.4692  2.3187
  899SOL    HW2 3595   2.791   3.046   0.615 -1.0933  0.5841 -1.1036
  899SOL     MW 3596   2.875   3.027   0.607  0.1807  0.1277  0.0926
  900SOL     OW 3597   0.095   2.346   1.084 -0.0040 -0.2647  0.0426
  900SOL    HW1 3598   0.040   2.418   1.053  2.0963  1.3825  0.1890
  900SOL    HW2 3599   0.124   2.306   1.002  0.8546 -1.0801  0.6001
  900SOL     MW 3600   0.092   2.350   1.069  0.3864 -0.1549  0.1354
  901SOL     OW 3601   1.753   2.855   1.794 -0.2945  0.2205 -0.0051
  901SOL    HW1 3602   1.831   2.811   1.760  0.2029  2.5578 -3.2318
  901SOL    HW2 3603   1.673   2.843   1.742  0.4830  0.2605 -2.2210
  901SOL     MW 3604   1.752   2.848   1.783 -0.1263  0.5341 -0.7232
  902SOL     OW 3605   2.638   2.119   1.599 -0.0185 -0.1283  0.4513
  902SOL    HW1 3606   2.639   2.037   1.544 -0.9452 -2.4956  0.6807
  902SOL    HW2 3607   2.708   2.102   1.660 -0.6765  0.4434  0.3718
  902SOL     MW 3608   2.648   2.106   1.599 -0.2276 -0.3652  0.4711
  903SOL     OW 3609   1.501   2.660   0.558  0.0752 -0.4400 -0.9670
  903SOL    HW1 3610   1.585   2.626   0.597  1.0337  1.9018 -0.2397
  903SOL    HW2 3611   1.469   2.726   0.634  3.8429  2.7319  1.0256
  903SOL     MW 3612   1.508   2.664   0.573  0.6987  0.2875 -0.6081
  904SOL     OW 3613   2.492   2.539   1.697  0.8662 -0.5773  0.1985
  904SOL    HW1 3614   2.429   2.589   1.634 -0.3081  0.6519 -0.4861
  904SOL    HW2 3615   2.555   2.492   1.641 -1.4720  0.4171 -2.8653
  904SOL     MW 3616   2.492   2.539   1.681  0.4028 -0.2839 -0.2961
  905SOL     OW 3617   2.293   2.451   2.091 -0.2324  0.3108  0.0919
  905SOL    HW1 3618   2.370   2.417   2.046 -0.6463 -0.0341  0.8489
  905SOL    HW2 3619   2.282   2.376   2.164 -0.0056  0.7517 -0.9422
  905SOL     MW 3620   2.302   2.436   2.094 -0.2571  0.3235  0.0554
  906SOL     OW 3621   2.493   2.522   0.757 -0.4670  0.0847  0.0625
  906SOL    HW1 3622   2.575   2.502   0.798  2.5402  1.7725 -2.1472
  906SOL    HW2 3623   2.462   2.603   0.798  0.1644  0.3472  2.0485
  906SOL     MW 3624   2.500   2.530   0.768  0.0131  0.3420  0.0330
  907SOL     OW 3625   2.647   2.883   1.267 -0.0879  0.2056 -0.3350
  907SOL    HW1 3626   2.693   2.934   1.339  2.6405  0.8411  0.9365
  907SOL    HW2 3627   2.705   2.885   1.196  2.4068 -2.1256  1.8346
  907SOL     MW 3628   2.661   2.890   1.267  0.6012 -0.0181  0.1190
  908SOL     OW 3629   2.724   2.419   0.030  0.3209 -0.5587 -0.4658
  908SOL    HW1 3630   2.662   2.351   0.052  2.1588 -0.8228 -0.2983
  908SOL    HW2 3631   2.682   2.490   0.079 -3.9673 -0.4310  1.0980
  908SOL     MW 3632   2.710   2.419   0.039 -0.0024 -0.5767 -0.2374
  909SOL     OW 3633   1.701   0.115   1.285 -0.4108 -0.6328  0.4997
  909SOL    HW1 3634   1.658   0.198   1.280  2.0510  0.6428 -0.4017
  909SOL    HW2 3635   1.689   0.080   1.373  0.3150 -2.7487 -1.8358
  909SOL     MW 3636   1.694   0.121   1.296  0.0098 -0.7437  0.0726
  910SOL     OW 3637   2.140   1.633   0.393 -0.3652 -0.1828  0.2992
  910SOL    HW1 3638   2.104   1.544   0.366  1.2115  0.5594 -2.1515
  910SOL    HW2 3639   2.087   1.688   0.333  1.0377 -2.3013 -0.0129
  910SOL     MW 3640   2.128   1.629   0.381  0.0279 -0.3644 -0.0653
  911SOL     OW 3641   2.338   2.127   1.583  0.1322 -0.0487  0.3134
  911SOL    HW1 3642   2.424   2.153   1.630  0.5519  0.5977 -0.7252
  911SOL    HW2 3643   2.365   2.146   1.490 -0.7507 -1.3797  0.2974
  911SOL     MW 3644   2.353   2.133   1.577  0.0711 -0.1390  0.1743
  912SOL     OW 3645   2.919   1.870   1.402 -0.2716  0.2232 -0.0286
  912SOL    HW1 3646   2.944   1.892   1.320 -2.2770 -0.1200  3.3234
  912SOL    HW2 3647   2.828   1.891   1.406  1.0168  0.0670 -0.6157
  912SOL     MW 3648   2.910   1.876   1.392 -0.3662  0.1573  0.3362
  913SOL     OW 3649   2.706   3.078   0.263 -0.0187  0.2476 -0.0537
  913SOL    HW1 3650   2.798   3.058   0.292  0.5202 -1.5874 -1.9676
  913SOL    HW2 3651   2.662   2.992   0.238 -2.2674 -1.5227  2.1793
  913SOL     MW 3652   2.712   3.064   0.263 -0.2443 -0.2281 -0.0116
  914SOL     OW 3653   2.709   1.814   2.930 -0.1062  0.0182 -0.0363
  914SOL    HW1 3654   2.741   1.907   2.927 -1.1426 -1.2635  0.3746
  914SOL    HW2 3655   2.618   1.817   2.951  2.9230 -2.1120  0.1456
  914SOL     MW 3656   2.701   1.827   2.932  0.1568 -0.4319  0.0419
  915SOL     OW 3657   1.810   0.118   0.100  0.3373  0.1486  0.0684
  915SOL    HW1 3658   1.875   0.068   0.148 -0.2916 -2.6064  0.8733
  915SOL    HW2 3659   1.727   0.096   0.148  1.6782 -0.4638 -1.1671
  915SOL     MW 3660   1.808   0.109   0.113  0.4313 -0.2957  0.0116
  916SOL     OW 3661   1.752   2.177   2.010  0.0774 -0.2305  0.5320
  916SOL    HW1 3662   1.802   2.260   1.999 -0.2731 -1.8460 -1.2651
  916SOL    HW2 3663   1.778   2.140   1.926 -0.3731 -0.0500  1.1583
  916SOL     MW 3664   1.762   2.183   1.997 -0.0283 -0.4198  0.3775
  917SOL     OW 3665   2.523   2.226   2.592  0.4122 -0.6414 -0.0451
  917SOL    HW1 3666   2.491   2.290   2.659 -0.2600  1.5597 -0.5652
  917SOL    HW2 3667   2.597   2.266   2.554  1.8876  1.4276  2.0958
  917SOL     MW 3668   2.528   2.239   2.596  0.5182 -0.0780  0.1687
  918SOL     OW 3669   2.089   1.614   2.627  0.2727  0.6595  0.1892
  918SOL    HW1 3670   2.009   1.655   2.597 -2.1225  1.1763  1.2159
  918SOL    HW2 3671   2.148   1.693   2.630 -0.3102  0.6231  0.8611
  918SOL     MW 3672   2.086   1.630   2.623 -0.1202  0.7229  0.4133
  919SOL     OW 3673   3.090   2.413   2.243  0.1241  0.4357 -0.2694
  919SOL    HW1 3674   3.025   2.353   2.211  0.1104 -3.4269 -0.0972
  919SOL    HW2 3675   3.153   2.413   2.172 -2.9150 -1.0342 -1.8863
  919SOL     MW 3676   3.089   2.405   2.230 -0.2787 -0.2679 -0.4600
  920SOL     OW 3677   2.661   2.758   3.038 -0.1819  0.1039  0.0907
  920SOL    HW1 3678   2.575   2.785   3.019  2.9076  0.0621 -0.2021
  920SOL    HW2 3679   2.704   2.760   2.949 -2.2594  0.1368  0.5136
  920SOL     MW 3680   2.656   2.762   3.024 -0.0483  0.1027  0.1078
  921SOL     OW 3681   2.484   2.634   2.634 -0.1314 -0.1656  0.1848
  921SOL    HW1 3682   2.551   2.650   2.565  1.9617  1.2918  2.1232
  921SOL    HW2 3683   2.518   2.554   2.671 -0.0640 -0.1472  0.3642
  921SOL     MW 3684   2.497   2.625   2.630  0.1537  0.0291  0.4643
  922SOL     OW 3685   2.091   2.689   0.409 -0.2652 -0.6364  0.0827
  922SOL    HW1 3686   2.092   2.711   0.317 -0.6876 -2.2361  2.1632
  922SOL    HW2 3687   2.100   2.589   0.415  1.7305  1.3106  1.0426
  922SOL     MW 3688   2.092   2.679   0.398 -0.0576 -0.5906  0.4838
  923SOL     OW 3689   2.197   2.894   1.671 -0.0851  0.6876  0.4315
  923SOL    HW1 3690   2.254   2.827   1.628  1.6477  0.3163  1.0910
  923SOL    HW2 3691   2.150   2.946   1.606 -0.0092  0.0687  0.0850
  923SOL     MW 3692   2.199   2.892   1.657  0.1536  0.5569  0.4728
  924SOL     OW 3693   1.075   2.740   2.604 -0.5517  0.0624 -0.1916
  924SOL    HW1 3694   1.175   2.755   2.598 -0.6244 -0.2116  2.0727
  924SOL    HW2 3695   1.076   2.665   2.661 -2.4838 -0.2911  1.2563
  924SOL     MW 3696   1.088   2.732   2.611 -0.8162 -0.0204  0.2982
  925SOL     OW 3697   2.981   0.238   2.665  0.1529  0.0625 -0.5020
  925SOL    HW1 3698   2.951   0.246   2.571  0.6815 -1.1767 -0.4323
  925SOL    HW2 3699   2.952   0.317   2.704  0.1815 -1.0770 -0.3716
  925SOL     MW 3700   2.973   0.250   2.658  0.2264 -0.2513 -0.4756
  926SOL     OW 3701   2.806   2.357   1.959  0.2183  0.4256 -0.4422
  926SOL    HW1 3702   2.826   2.440   2.007  0.6095 -2.0984 -2.1132
  926SOL    HW2 3703   2.823   2.376   1.864 -0.5879 -0.3522 -0.1790
  926SOL     MW 3704   2.810   2.370   1.952  0.1636 -0.0100 -0.6279
  927SOL     OW 3705   2.373   0.154   0.287 -0.4462  0.1369  0.3025
  927SOL    HW1 3706   2.456   0.202   0.287  1.9725 -1.7187 -0.9588
  927SOL    HW2 3707   2.370   0.123   0.197  2.3111  0.5484 -2.4645
  927SOL     MW 3708   2.384   0.156   0.275  0.2367 -0.0536 -0.2290
  928SOL     OW 3709   2.131   2.361   1.776  0.5400 -0.6454  0.7847
  928SOL    HW1 3710   2.162   2.404   1.697 -2.2721  1.0460  0.3175
  928SOL    HW2 3711   2.201   2.312   1.821  0.3358  1.2122  1.3841
  928SOL     MW 3712   2.144   2.360   1.771  0.1420 -0.1771  0.8021
  929SOL     OW 3713   2.769   2.351   2.489 -0.5900  0.1707  0.0329
  929SOL    HW1 3714   2.832   2.313   2.431  3.0854 -1.0151 -1.9467
  929SOL    HW2 3715   2.816   2.360   2.574  2.0912 -3.8857  0.0487
  929SOL     MW 3716   2.783   2.347   2.493  0.2487 -0.5210 -0.2262
  930SOL     OW 3717   2.045   2.800   2.675 -0.3129 -0.1523  0.0062
  930SOL    HW1 3718   2.099   2.742   2.726 -1.9642  1.0900  0.8729
  930SOL    HW2 3719   2.094   2.865   2.624  2.4631  0.2151 -2.1149
  930SOL     MW 3720   2.059   2.801   2.675 -0.1645  0.0601 -0.1593
  931SOL     OW 3721   0.039   2.777   2.465  0.0987 -0.1026 -0.1918
  931SOL    HW1 3722   0.022   2.805   2.558  1.1354 -0.4820 -4.0198
  931SOL    HW2 3723   0.135   2.800   2.459  0.2027  2.2474 -0.5888
  931SOL     MW 3724   0.049   2.784   2.477  0.2492  0.1574 -0.7493
  932SOL     OW 3725   2.838   1.959   2.524 -0.1982  0.6628  0.2785
  932SOL    HW1 3726   2.918   2.010   2.539  1.3635  0.1221 -1.1749
  932SOL    HW2 3727   2.825   1.951   2.427 -0.0490  1.3553  0.7847
  932SOL     MW 3728   2.847   1.965   2.513  0.0275  0.6828  0.1535
  933SOL     OW 3729   2.078   2.800   2.210 -0.0043  0.2537 -0.2678
  933SOL    HW1 3730   2.160   2.837   2.243  3.4745  0.4845  0.8872
  933SOL    HW2 3731   2.017   2.864   2.191  3.9595  0.1510  1.1213
  933SOL     MW 3732   2.081   2.813   2.212  0.9777  0.2706  0.0679
  934SOL     OW 3733   2.018   2.647   2.429 -0.0560  0.4768  0.0935
  934SOL    HW1 3734   2.028   2.706   2.504  2.9773 -2.6654 -2.1241
  934SOL    HW2 3735   2.042   2.693   2.338  1.8391 -3.2513 -0.2926
  934SOL     MW 3736   2.022   2.661   2.427  0.5943 -0.4296 -0.2500
  935SOL     OW 3737   2.639   1.486   1.770  0.1022 -0.4591  0.0550
  935SOL    HW1 3738   2.731   1.482   1.745 -0.6738 -0.5216 -3.1479
  935SOL    HW2 3739   2.607   1.452   1.683  1.7613 -0.8621 -1.5095
  935SOL     MW 3740   2.647   1.481   1.755  0.2187 -0.5205 -0.5740
  936SOL     OW 3741   2.944   2.247   0.005 -0.4483  0.3181  0.6276
  936SOL    HW1 3742   3.017   2.278   0.058 -1.1128  0.1565 -0.7846
  936SOL    HW2 3743   2.873   2.308   0.028  1.4369 -1.9721  1.6609
  936SOL     MW 3744   2.944   2.259   0.015 -0.2873 -0.0053  0.5776
  937SOL     OW 3745   1.982   2.133   2.670  0.1376 -0.9751  0.0901
  937SOL    HW1 3746   2.061   2.105   2.716  1.2517 -0.0282 -0.5447
  937SOL    HW2 3747   1.993   2.120   2.576 -1.7905  2.6300  0.2590
  937SOL     MW 3748   1.994   2.127   2.664  0.0302 -0.3745  0.0286
  938SOL     OW 3749   2.366   1.715   1.866 -0.6806 -0.2268 -0.6711
  938SOL    HW1 3750   2.351   1.731   1.770  0.5696 -0.0073 -2.7077
  938SOL    HW2 3751   2.316   1.781   1.926  0.9072 -0.8305  2.2184
  938SOL     MW 3752   2.357   1.726   1.861 -0.3062 -0.2775 -0.5586
  939SOL     OW 3753   2.777   1.942   2.262  0.2752 -0.2379  0.0277
  939SOL    HW1 3754   2.815   1.913   2.177  0.0633  1.1811 -0.7367
  939SOL    HW2 3755   2.684   1.953   2.241 -2.2732 -0.9531  1.7285
  939SOL     MW 3756   2.770   1.940   2.248 -0.0890 -0.1450  0.1513
  940SOL     OW 3757   2.196   0.130   2.695 -0.6914 -0.0117  0.5716
  940SOL    HW1 3758   2.215   0.047   2.651  1.3512 -1.4777  0.2933
  940SOL    HW2 3759   2.262   0.144   2.765  1.3252  0.0415  0.4419
  940SOL     MW 3760   2.207   0.121   2.698 -0.1558 -0.1981  0.5178
  941SOL     OW 3761   0.171   2.439   2.040 -0.7338  0.1109  0.4102
  941SOL    HW1 3762   0.245   2.392   2.065 -3.0648  0.9188  2.6900
  941SOL    HW2 3763   0.132   2.407   1.959 -0.8238  1.1658 -0.7776
  941SOL     MW 3764   0.175   2.429   2.033 -1.0532  0.3567  0.5543
  942SOL     OW 3765   2.883   2.239   2.204  0.3039  0.2128 -0.1431
  942SOL    HW1 3766   2.853   2.252   2.112 -1.9236  1.2736 -1.9942
  942SOL    HW2 3767   2.861   2.154   2.235 -1.7841  0.9995  1.1753
  942SOL     MW 3768   2.876   2.229   2.196 -0.2655  0.4565 -0.2134
  943SOL     OW 3769   0.281   2.117   2.300  0.0860 -0.5594  0.3615
  943SOL    HW1 3770   0.228   2.148   2.379  0.1910 -0.0588 -1.5230
  943SOL    HW2 3771   0.367   2.084   2.332 -0.3734  0.7074 -0.2556
  943SOL     MW 3772   0.285   2.116   2.314  0.0393 -0.3262  0.0314
  944SOL     OW 3773   2.154   2.635   1.975  0.6658 -0.0350 -0.1784
  944SOL    HW1 3774   2.204   2.555   1.997  1.0630 -1.4860 -0.0288
  944SOL    HW2 3775   2.084   2.642   2.034 -0.9769 -1.2178  0.0455
  944SOL     MW 3776   2.151   2.626   1.986  0.5014 -0.3825 -0.1291
  945SOL     OW 3777   2.819   2.778   2.819  0.1485  0.3580  0.2194
  945SOL    HW1 3778   2.809   2.687   2.802  2.2048  4.4227 -0.1473
  945SOL    HW2 3779   2.790   2.825   2.734 -1.2827 -3.1667  0.8766
  945SOL     MW 3780   2.814   2.773   2.805  0.2310  0.4292  0.2577
  946SOL     OW 3781   2.469   2.650   2.236  0.3008  0.0986  0.0916
  946SOL    HW1 3782   2.489   2.668   2.144 -0.1612 -1.6213 -4.0224
  946SOL    HW2 3783   2.398   2.584   2.224 -1.0245  2.7400 -0.3724
  946SOL     MW 3784   2.462   2.644   2.222  0.0650  0.2202 -0.5124
  947SOL     OW 3785   2.049   0.027   0.213  0.2758 -0.8472 -0.7331
  947SOL    HW1 3786   2.059  -0.062   0.176 -1.1759  2.7535 -0.0120
  947SOL    HW2 3787   2.088   0.032   0.298 -3.3147 -1.3235 -1.1240
  947SOL     MW 3788   2.056   0.016   0.219 -0.3895 -0.4350 -0.6895
  948SOL     OW 3789   1.787   3.002   2.611 -0.2815 -0.1917 -0.0973
  948SOL    HW1 3790   1.823   2.918   2.600  0.9200  0.3787 -2.9353
  948SOL    HW2 3791   1.753   3.033   2.524  0.8357  0.6411  0.3293
  948SOL     MW 3792   1.787   2.995   2.598  0.0244 -0.0065 -0.4154
  949SOL     OW 3793   2.483   1.894   2.206 -0.0266 -0.2515 -0.2554
  949SOL    HW1 3794   2.473   1.812   2.254  3.0575  2.0955 -1.0676
  949SOL    HW2 3795   2.470   1.970   2.268 -1.1700 -0.8576 -0.1547
  949SOL     MW 3796   2.480   1.893   2.220  0.2295 -0.0218 -0.3493
  950SOL     OW 3797   2.326   2.559   2.997  0.4455 -0.4239  0.1752
  950SOL    HW1 3798   2.384   2.513   2.936  1.8050  0.6968 -0.7104
  950SOL    HW2 3799   2.250   2.559   2.948  0.4376  1.5623 -0.1131
  950SOL     MW 3800   2.323   2.553   2.983  0.6238 -0.0140  0.0203
  951SOL     OW 3801   3.051   2.203   2.852  0.2196  0.5937 -0.1540
  951SOL    HW1 3802   2.999   2.198   2.934  0.5783 -2.9874  2.8550
  951SOL    HW2 3803   3.032   2.113   2.824 -1.7074  0.7718  0.9567
  951SOL     MW 3804   3.042   2.191   2.859  0.0127  0.1447  0.3895
  952SOL     OW 3805   3.040   1.697   2.127 -0.1047  0.1482 -0.1444
  952SOL    HW1 3806   2.951   1.713   2.099  0.2615 -1.3871  0.8323
  952SOL    HW2 3807   3.081   1.776   2.167  1.8983  0.1911  2.7304
  952SOL     MW 3808   3.034   1.710   2.129  0.2079 -0.0487  0.3637
  953SOL     OW 3809   1.960   1.712   2.925 -0.1431 -0.0250  0.1288
  953SOL    HW1 3810   1.890   1.673   2.976  1.0448 -0.9101 -0.2292
  953SOL    HW2 3811   1.971   1.636   2.866 -1.4325 -0.8966  3.1935
  953SOL     MW 3812   1.952   1.697   2.924 -0.1565 -0.2568  0.4859
  954SOL     OW 3813   2.426   2.139   2.920 -0.5881  0.3435 -0.1823
  954SOL    HW1 3814   2.338   2.136   2.884  0.5255  4.3288  0.9234
  954SOL    HW2 3815   2.478   2.071   2.879  1.2769 -2.7882  1.4948
  954SOL     MW 3816   2.421   2.130   2.910 -0.1951  0.4561  0.1849
  955SOL     OW 3817   1.590   1.528   2.532  0.1507 -0.5999  0.2586
  955SOL    HW1 3818   1.551   1.576   2.451 -0.4009  1.5230 -1.1267
  955SOL    HW2 3819   1.681   1.545   2.525  2.5521 -1.4478 -0.0267
  955SOL     MW 3820   1.597   1.537   2.521  0.3947 -0.4317  0.0382
  956SOL     OW 3821   2.738   2.506   2.854 -0.1398 -0.3185  0.0508
  956SOL    HW1 3822   2.759   2.478   2.939  0.5058 -0.2755  0.0889
  956SOL    HW2 3823   2.808   2.469   2.799 -0.2891 -1.0334 -0.5655
  956SOL     MW 3824   2.750   2.498   2.858 -0.0743 -0.4072 -0.0255
  957SOL     OW 3825   2.274   2.845   0.574  0.3907 -0.1909  0.7502
  957SOL    HW1 3826   2.213   2.783   0.522 -0.9786  1.4379  0.3866
  957SOL    HW2 3827   2.304   2.804   0.650 -1.0503 -0.6526 -2.7918
  957SOL     MW 3828   2.270   2.832   0.577  0.0199 -0.0369  0.2349
  958SOL     OW 3829   2.062   2.590   2.871  0.0292 -0.5457  0.1256
  958SOL    HW1 3830   2.022   2.514   2.829 -0.1845 -1.1770  4.4256
  958SOL    HW2 3831   1.989   2.643   2.888  0.3379 -2.4372  0.3596
  958SOL     MW 3832   2.047   2.587   2.868  0.0417 -0.8786  0.7238
  959SOL     OW 3833   2.526   2.809   0.455 -0.3421  0.0219  0.1776
  959SOL    HW1 3834   2.516   2.859   0.372  1.4208  1.3198  1.4656
  959SOL    HW2 3835   2.441   2.817   0.501 -0.4147 -0.6651 -1.1431
  959SOL     MW 3836   2.513   2.817   0.450 -0.1191  0.1025  0.1733
  960SOL     OW 3837   1.918   2.352   2.277  0.0439  0.3666 -0.4245
  960SOL    HW1 3838   1.919   2.261   2.308 -1.2493  0.7795 -1.9979
  960SOL    HW2 3839   1.871   2.397   2.347  0.4601 -0.0961 -0.0446
  960SOL     MW 3840   1.912   2.346   2.290 -0.0718  0.3600 -0.5819
  961SOL     OW 3841   2.245   2.297   2.297  0.3618  0.2884 -0.4172
  961SOL    HW1 3842   2.150   2.280   2.303  0.9380  1.6105  1.3723
  961SOL    HW2 3843   2.260   2.340   2.380  1.2266 -2.2944 -1.1288
  961SOL     MW 3844   2.234   2.301   2.309  0.5519  0.1221 -0.2750
  962SOL     OW 3845   2.187   2.025   2.819 -1.2933 -0.3746  0.0276
  962SOL    HW1 3846   2.160   1.987   2.902  1.7698 -1.5099  0.0211
  962SOL    HW2 3847   2.208   1.956   2.761  0.7013 -1.9454 -1.9240
  962SOL     MW 3848   2.186   2.011   2.822 -0.6260 -0.7316 -0.2308
  963SOL     OW 3849   1.870   2.590   2.096  0.6198  0.4610 -0.2024
  963SOL    HW1 3850   1.888   2.534   2.171 -1.2810 -0.8140  0.8911
  963SOL    HW2 3851   1.869   2.521   2.018 -0.0945  1.4450 -3.0054
  963SOL     MW 3852   1.873   2.574   2.096  0.2747  0.4226 -0.4280
  964SOL     OW 3853   1.825   1.907   2.773 -0.1390 -0.0963 -0.5502
  964SOL    HW1 3854   1.892   1.972   2.741  0.6323  0.2096 -0.0763
  964SOL    HW2 3855   1.858   1.830   2.822  0.3524  2.7022 -2.5888
  964SOL     MW 3856   1.838   1.905   2.775  0.0276  0.3133 -0.7567
  965SOL     OW 3857   2.177   2.621   0.776 -0.8193 -0.0267  0.8667
  965SOL    HW1 3858   2.230   2.544   0.762 -0.8543  0.6926 -0.3280
  965SOL    HW2 3859   2.237   2.683   0.811 -2.3419  1.1265  1.2997
  965SOL     MW 3860   2.192   2.619   0.778 -1.0248  0.2204  0.7662
  966SOL     OW 3861   2.664   2.604   2.422  0.1232  0.0523 -0.1077
  966SOL    HW1 3862   2.583   2.602   2.364  1.2182 -2.3998  3.0458
  966SOL    HW2 3863   2.696   2.510   2.429 -2.9380  0.6466 -1.7354
  966SOL     MW 3864   2.657   2.591   2.415 -0.1363 -0.1928  0.0936
  967SOL     OW 3865   2.769   3.031   2.981 -0.5889  0.4682  0.3742
  967SOL    HW1 3866   2.732   2.951   3.014 -0.2232 -1.5440  4.4240
  967SOL    HW2 3867   2.709   3.041   2.904 -0.6200 -0.0911 -0.9165
  967SOL     MW 3868   2.756   3.022   2.975 -0.5448  0.1289  0.7382
  968SOL     OW 3869   3.049   2.665   2.939 -0.1225  0.2364 -0.4022
  968SOL    HW1 3870   3.004   2.738   2.901 -2.3682  0.6179 -1.0177
  968SOL    HW2 3871   3.095   2.630   2.862 -0.4974 -0.2228 -2.4497
  968SOL     MW 3872   3.049   2.670   2.924 -0.4682  0.2262 -0.7536
  969SOL     OW 3873   1.579   2.208   1.725 -0.8613 -0.0675 -0.2783
  969SOL    HW1 3874   1.647   2.139   1.734 -0.7796  0.0695  0.7086
  969SOL    HW2 3875   1.541   2.221   1.812 -0.8514 -0.4571  3.9107
  969SOL     MW 3876   1.583   2.200   1.737 -0.8492 -0.1008  0.4046
  970SOL     OW 3877   1.778   1.823   1.923 -0.8569 -0.4868  0.1251
  970SOL    HW1 3878   1.817   1.747   1.964 -0.2293 -0.2788 -3.5367
  970SOL    HW2 3879   1.688   1.836   1.954  1.2515  1.1448  1.4122
  970SOL     MW 3880   1.771   1.815   1.933 -0.4959 -0.2441 -0.1882
  971SOL     OW 3881   1.726   3.092   2.376 -0.2333  0.1384 -0.6288
  971SOL    HW1 3882   1.775   3.042   2.303 -1.5810  1.1156  0.5770
  971SOL    HW2 3883   1.769   3.175   2.384 -1.5182 -0.5867  2.2171
  971SOL     MW 3884   1.738   3.096   2.367 -0.5807  0.1717 -0.0942
  972SOL     OW 3885   0.312   2.902   2.380 -0.0024  0.6863 -0.0220
  972SOL    HW1 3886   0.371   2.831   2.411 -0.2377 -1.9517  0.1233
  972SOL    HW2 3887   0.339   2.975   2.435 -0.8077 -0.6911 -0.1046
  972SOL     MW 3888   0.323   2.902   2.391 -0.1397  0.1565 -0.0137
  973SOL     OW 3889   2.579   3.008   2.131  0.8426 -0.4746 -0.0086
  973SOL    HW1 3890   2.581   2.917   2.094 -1.2456 -1.5657  1.7450
  973SOL    HW2 3891   2.578   3.062   2.050  0.8310  3.3911 -2.1045
  973SOL     MW 3892   2.579   3.003   2.115  0.5656 -0.1085 -0.0538
  974SOL     OW 3893   1.957   0.164   2.588  0.2035  0.3491  0.0586
  974SOL    HW1 3894   2.034   0.130   2.633  0.3955 -2.1092 -3.2470
  974SOL    HW2 3895   1.884   0.108   2.620 -0.3401 -0.2661  0.8191
  974SOL     MW 3896   1.958   0.152   2.598  0.1571 -0.0564 -0.2772
  975SOL     OW 3897   2.225   2.483   2.502 -0.0717  0.2566  0.2463
  975SOL    HW1 3898   2.300   2.538   2.497 -0.2188  0.1679  1.1260
  975SOL    HW2 3899   2.147   2.548   2.478 -4.1281  1.3034  2.4157
  975SOL     MW 3900   2.224   2.499   2.498 -0.6263  0.3830  0.6486
  976SOL     OW 3901   0.215   0.350   1.644  0.3008 -0.4063 -0.2974
  976SOL    HW1 3902   0.256   0.314   1.719  0.8606  1.3659 -0.6696
  976SOL    HW2 3903   0.142   0.291   1.633  1.0617  0.0518  0.1961
  976SOL     MW 3904   0.211   0.337   1.653  0.4750 -0.1120 -0.2814
  977SOL     OW 3905   1.743   2.763   2.383  0.5692  0.2330 -0.4090
  977SOL    HW1 3906   1.838   2.742   2.380  1.6621  1.3308  1.3838
  977SOL    HW2 3907   1.741   2.824   2.312 -1.9005 -0.3188  0.3714
  977SOL     MW 3908   1.755   2.768   2.373  0.3875  0.3051 -0.0695
   3.10000   3.10000   3.10000
