977 TIP4P/2005f water molecules t=   1.88000 step= 1880
 3908
    1SOL     OW    1   0.428   0.771   0.139  1.0969  0.2459  0.8417
    1SOL    HW1    2   0.435   0.772   0.043  1.6924 -1.8184  0.0813
    1SOL    HW2    3   0.421   0.683   0.172  1.4198  1.8798  0.2885
    1SOL     MW    4   0.428   0.759   0.131  1.2181  0.1891  0.6684
    2SOL     OW    5   0.271   2.996   1.108 -0.1398  0.3115  0.3613
    2SOL    HW1    6   0.326   3.078   1.095  0.3950  0.9352  1.0345
    2SOL    HW2    7   0.179   3.020   1.110  1.4309 -0.3919 -0.7236
    2SOL     MW    8   0.266   3.010   1.107  0.1380  0.3010  0.3070
    3SOL     OW    9   2.707   0.333   0.927 -0.0808  0.3425 -0.9702
    3SOL    HW1   10   2.758   0.394   0.882 -1.3813  0.5924  2.2634
    3SOL    HW2   11   2.692   0.370   1.015 -1.7984  1.7994  3.5258
    3SOL     MW   12   2.712   0.346   0.932 -0.4790  0.5677  0.0497
    4SOL     OW   13   2.945   1.729   0.534 -0.5786  0.6421  0.0080
    4SOL    HW1   14   2.910   1.818   0.510  2.4297  0.8984 -0.8945
    4SOL    HW2   15   3.009   1.713   0.459  0.4071  0.4308 -0.9590
    4SOL     MW   16   2.949   1.738   0.521 -0.0517  0.6480 -0.2387
    5SOL     OW   17   1.621   1.461   0.621  0.1893  0.0940  0.0724
    5SOL    HW1   18   1.634   1.464   0.716 -0.2512 -0.3393  0.5643
    5SOL    HW2   19   1.535   1.507   0.620 -2.9787  1.3808  1.3275
    5SOL     MW   20   1.611   1.467   0.634 -0.2868  0.2066  0.3029
    6SOL     OW   21   0.771   1.422   0.606 -0.0663  0.2517  0.2509
    6SOL    HW1   22   0.673   1.435   0.613 -2.1053 -1.7926 -0.7531
    6SOL    HW2   23   0.792   1.335   0.638  0.5663  0.0136 -2.3277
    6SOL     MW   24   0.761   1.412   0.611 -0.2519 -0.0494 -0.2218
    7SOL     OW   25   1.994   1.020   0.024  0.6571 -0.6169 -0.3726
    7SOL    HW1   26   2.073   1.072   0.046  2.2551  2.8388  0.5239
    7SOL    HW2   27   1.951   1.009   0.115 -1.0072 -1.7289 -0.8200
    7SOL     MW   28   1.999   1.026   0.038  0.6483 -0.3077 -0.3134
    8SOL     OW   29   0.841   1.382   0.984  0.3121 -0.1234 -0.0398
    8SOL    HW1   30   0.902   1.446   1.008 -1.1867  0.0758 -1.6656
    8SOL    HW2   31   0.815   1.326   1.062  0.0984 -2.3336 -1.6881
    8SOL     MW   32   0.846   1.383   0.998  0.0862 -0.3887 -0.4718
    9SOL     OW   33   0.877   0.542   1.286 -0.4211 -0.0225 -0.2897
    9SOL    HW1   34   0.817   0.469   1.270  1.0774  0.2242 -0.5105
    9SOL    HW2   35   0.951   0.505   1.336 -0.4273 -0.5393  0.5240
    9SOL     MW   36   0.879   0.527   1.290 -0.2242 -0.0582 -0.2115
   10SOL     OW   37   0.318   0.814   0.513  0.0146  0.6771  0.1261
   10SOL    HW1   38   0.413   0.837   0.497  2.2041 -0.2103  1.9364
   10SOL    HW2   39   0.283   0.871   0.580  1.9194 -0.1514 -2.1944
   10SOL     MW   40   0.326   0.825   0.520  0.5548  0.4507  0.0588
   11SOL     OW   41   0.742   1.109   1.489 -0.0029 -0.4818 -0.7271
   11SOL    HW1   42   0.807   1.114   1.562 -0.3989  0.6038  1.4300
   11SOL    HW2   43   0.785   1.039   1.439 -0.9206 -2.0237  2.1410
   11SOL     MW   44   0.756   1.100   1.492 -0.1763 -0.5420 -0.0641
   12SOL     OW   45   0.006   1.084   0.908 -0.7718 -0.5100  0.0541
   12SOL    HW1   46   0.045   1.140   0.978  0.0217  0.6301  1.5321
   12SOL    HW2   47   0.003   1.139   0.823  2.3467  0.4437  0.2369
   12SOL     MW   48   0.011   1.099   0.906 -0.2557 -0.2337  0.2732
   13SOL     OW   49   1.840   1.422   1.299 -0.1171  0.3618 -0.4103
   13SOL    HW1   50   1.896   1.361   1.247  0.9395  0.7901 -0.3154
   13SOL    HW2   51   1.897   1.497   1.320  0.1406 -0.8595 -0.3908
   13SOL     MW   52   1.855   1.424   1.295  0.0563  0.2572 -0.3952
   14SOL     OW   53   0.590   0.262   1.844  0.1642 -0.1764  0.5786
   14SOL    HW1   54   0.643   0.198   1.802 -0.3731  0.5061  0.1742
   14SOL    HW2   55   0.558   0.313   1.773 -4.3327 -1.1932 -0.3996
   14SOL     MW   56   0.593   0.260   1.829 -0.5000 -0.2205  0.3962
   15SOL     OW   57   2.043   0.405   0.951 -0.5526 -0.3241  0.3503
   15SOL    HW1   58   2.048   0.488   0.999 -1.2089 -0.5139  0.8749
   15SOL    HW2   59   2.068   0.430   0.855 -0.3498 -3.0976 -2.8098
   15SOL     MW   60   2.047   0.419   0.944 -0.6124 -0.7151  0.0026
   16SOL     OW   61   0.213   1.841   0.262  0.1553  0.1344  0.1272
   16SOL    HW1   62   0.301   1.799   0.239  1.9295 -2.0375  0.0656
   16SOL    HW2   63   0.236   1.913   0.320  0.8972  1.5139 -2.0330
   16SOL     MW   64   0.228   1.845   0.266  0.4873  0.0299 -0.1659
   17SOL     OW   65   1.129   0.879   1.399  0.2865 -0.4922 -0.1467
   17SOL    HW1   66   1.140   0.846   1.489  2.4828 -1.0308 -1.1931
   17SOL    HW2   67   1.029   0.871   1.390 -1.0417  0.2133 -2.0527
   17SOL     MW   68   1.117   0.873   1.410  0.4010 -0.4702 -0.5363
   18SOL     OW   69   0.020   1.628   0.357 -0.8884 -0.2671 -0.5271
   18SOL    HW1   70   0.072   1.708   0.336  1.3501 -2.3213 -0.5909
   18SOL    HW2   71  -0.009   1.610   0.269  0.3662  0.4020  0.1463
   18SOL     MW   72   0.023   1.636   0.343 -0.4275 -0.4499 -0.4467
   19SOL     OW   73   0.072   1.384   0.959  0.2280  0.1395 -0.2278
   19SOL    HW1   74   0.088   1.402   0.865  0.1117  1.0282 -0.6208
   19SOL    HW2   75  -0.020   1.372   0.970  0.3151  0.6598  0.7061
   19SOL     MW   76   0.062   1.385   0.948  0.2241  0.3254 -0.1565
   20SOL     OW   77   0.441   2.115   1.269 -0.2094 -0.0572 -0.0988
   20SOL    HW1   78   0.425   2.024   1.244 -0.1818 -2.4649 -1.0558
   20SOL    HW2   79   0.392   2.125   1.349  1.6780  3.7709 -0.1984
   20SOL     MW   80   0.432   2.105   1.276  0.0433  0.1302 -0.2382
   21SOL     OW   81   0.566   0.924   0.448  0.1890  0.0487  0.0921
   21SOL    HW1   82   0.643   0.904   0.497 -4.2979 -0.9572 -0.1885
   21SOL    HW2   83   0.592   0.934   0.353 -0.7950  1.5178  1.1095
   21SOL     MW   84   0.580   0.922   0.442 -0.5328  0.1098  0.1893
   22SOL     OW   85   1.543   0.744   0.961 -0.0233  0.7851 -0.4624
   22SOL    HW1   86   1.555   0.726   0.867 -0.0022  1.4853 -1.0933
   22SOL    HW2   87   1.473   0.805   0.972  1.1173 -0.2958 -0.4217
   22SOL     MW   88   1.535   0.749   0.950  0.1300  0.7349 -0.5403
   23SOL     OW   89  -0.005   0.805   0.689 -0.1035 -0.0765 -0.2605
   23SOL    HW1   90   0.038   0.749   0.761  3.1234  0.2705 -0.6053
   23SOL    HW2   91   0.061   0.871   0.660  2.6778  0.6427 -0.6411
   23SOL     MW   92   0.010   0.806   0.695  0.6892  0.0642 -0.3562
   24SOL     OW   93   2.036   2.162   0.074 -0.6545  0.5206 -0.1070
   24SOL    HW1   94   2.005   2.164   0.168 -0.6481  1.1360 -3.0759
   24SOL    HW2   95   2.023   2.078   0.036 -0.6121  0.0535 -0.4580
   24SOL     MW   96   2.030   2.151   0.082 -0.6481  0.5402 -0.5450
   25SOL     OW   97   0.226   1.451   0.384  0.2607 -0.3041 -0.1794
   25SOL    HW1   98   0.147   1.501   0.394 -4.1516  1.6652  2.9922
   25SOL    HW2   99   0.248   1.454   0.296 -0.1496  3.4160 -0.3313
   25SOL     MW  100   0.219   1.458   0.373 -0.3756  0.4466  0.2190
   26SOL     OW  101   1.950   1.028   0.320 -0.5475 -0.3209  0.4898
   26SOL    HW1  102   1.911   1.075   0.398 -1.0468 -0.2219  0.3717
   26SOL    HW2  103   2.030   1.079   0.309 -0.7994  2.9169  0.4904
   26SOL     MW  104   1.955   1.041   0.329 -0.6466  0.1193  0.4743
   27SOL     OW  105   1.850   1.381   0.147 -0.4464  0.1148  0.7816
   27SOL    HW1  106   1.795   1.460   0.168 -0.4401  1.3461 -0.0949
   27SOL    HW2  107   1.910   1.370   0.221 -1.0458 -0.9647  0.8901
   27SOL     MW  108   1.851   1.390   0.160 -0.5247  0.1348  0.6802
   28SOL     OW  109   0.439   0.926   2.083 -0.0067 -0.1594  0.4939
   28SOL    HW1  110   0.497   0.910   2.159 -0.7318 -0.6579  1.1175
   28SOL    HW2  111   0.350   0.912   2.102  3.0556 -3.2599 -0.1911
   28SOL     MW  112   0.435   0.922   2.095  0.3017 -0.6343  0.4858
   29SOL     OW  113   0.173   1.426   0.687 -0.0965  0.3338 -0.2646
   29SOL    HW1  114   0.177   1.518   0.662 -1.0869 -1.2257 -1.0635
   29SOL    HW2  115   0.145   1.381   0.607  2.1928 -2.1241  0.0830
   29SOL     MW  116   0.170   1.432   0.673  0.0749 -0.1962 -0.3241
   30SOL     OW  117   0.696   1.272   1.229  0.1315  0.2287  0.0060
   30SOL    HW1  118   0.607   1.258   1.273  2.1462  0.7960  2.1841
   30SOL    HW2  119   0.760   1.218   1.272 -0.1022 -1.0782 -0.1250
   30SOL     MW  120   0.692   1.263   1.240  0.3665  0.1311  0.2761
   31SOL     OW  121   0.488   0.257   0.183 -0.3916 -0.1119 -0.4363
   31SOL    HW1  122   0.531   0.194   0.239  0.5131 -1.9070 -0.7204
   31SOL    HW2  123   0.488   0.213   0.095 -2.3140  0.2734  1.3182
   31SOL     MW  124   0.494   0.243   0.179 -0.5259 -0.2979 -0.2423
   32SOL     OW  125   2.749   1.000   1.088 -0.5304  0.1358 -0.3068
   32SOL    HW1  126   2.683   0.927   1.114 -1.8116 -0.0689  2.5731
   32SOL    HW2  127   2.832   0.953   1.114  2.6979 -2.2703 -0.9040
   32SOL     MW  128   2.751   0.984   1.095 -0.2735 -0.2087 -0.0056
   33SOL     OW  129   1.627   1.244   0.405  0.0145  0.8857 -0.6276
   33SOL    HW1  130   1.723   1.235   0.411  1.5967  0.6408  2.2406
   33SOL    HW2  131   1.609   1.303   0.480 -1.6400  1.4362 -0.8963
   33SOL     MW  132   1.638   1.250   0.415  0.0049  0.9260 -0.2846
   34SOL     OW  133   1.139   1.996   1.181 -0.2287  0.0073 -0.3427
   34SOL    HW1  134   1.088   2.016   1.260 -0.3180  1.3759 -0.4099
   34SOL    HW2  135   1.222   1.987   1.221  2.2474  1.0819  0.1415
   34SOL     MW  136   1.143   1.997   1.197  0.0862  0.3297 -0.2877
   35SOL     OW  137   0.329   0.150   1.669  0.4000 -0.2280 -0.1616
   35SOL    HW1  138   0.388   0.103   1.726 -0.4149 -0.5334  0.6281
   35SOL    HW2  139   0.274   0.084   1.633  2.7069 -0.2964 -1.8401
   35SOL     MW  140   0.330   0.135   1.672  0.5969 -0.2773 -0.2788
   36SOL     OW  141   1.956   2.009   0.564  0.0703  0.4726 -0.1686
   36SOL    HW1  142   1.955   2.016   0.468 -1.4117 -2.0252 -3.0090
   36SOL    HW2  143   1.960   1.914   0.571 -0.4671  2.7221  2.6113
   36SOL     MW  144   1.956   1.997   0.552 -0.1961  0.4398 -0.1766
   37SOL     OW  145   1.727   2.066   0.965 -0.2818 -0.2557  0.0535
   37SOL    HW1  146   1.661   2.028   0.903  0.5367 -0.9676  3.5359
   37SOL    HW2  147   1.671   2.090   1.041  2.6767 -3.2313 -0.7971
   37SOL     MW  148   1.711   2.064   0.967  0.2166 -0.7422  0.4008
   38SOL     OW  149   2.836   0.971   0.046  0.6649 -0.2631  0.4938
   38SOL    HW1  150   2.845   0.950   0.140  2.1138 -2.4022 -1.5873
   38SOL    HW2  151   2.923   0.968  -0.004  0.7134  0.1682  0.3649
   38SOL     MW  152   2.848   0.968   0.052  0.8624 -0.4884  0.2022
   39SOL     OW  153   1.535   0.632   0.715 -0.7960 -0.8547 -0.3403
   39SOL    HW1  154   1.527   0.543   0.742 -1.2473  0.3445 -3.9716
   39SOL    HW2  155   1.448   0.668   0.717  1.9597 -0.9273  1.2364
   39SOL     MW  156   1.522   0.625   0.719 -0.4919 -0.7060 -0.6114
   40SOL     OW  157   1.278   1.881   0.239  0.0985  0.2150 -0.2259
   40SOL    HW1  158   1.315   1.794   0.239 -0.6636 -1.1690 -0.5439
   40SOL    HW2  159   1.247   1.896   0.326 -1.1520 -0.8211 -0.9026
   40SOL     MW  160   1.279   1.871   0.250 -0.1670 -0.1043 -0.3572
   41SOL     OW  161   0.498   0.500   1.588 -0.7729 -0.3395 -0.2718
   41SOL    HW1  162   0.577   0.546   1.548  0.1648  0.0859  0.2488
   41SOL    HW2  163   0.437   0.524   1.514 -3.0995  2.2621  0.7374
   41SOL     MW  164   0.500   0.510   1.573 -0.9561  0.0599 -0.0699
   42SOL     OW  165   1.244   2.905   1.985  0.0680 -0.2622 -0.2480
   42SOL    HW1  166   1.179   2.905   2.057  5.1154  0.0934 -0.4954
   42SOL    HW2  167   1.326   2.857   2.028  1.0741 -1.3478 -1.5265
   42SOL     MW  168   1.246   2.899   2.000  0.8667 -0.3585 -0.4493
   43SOL     OW  169   1.383   0.129   1.692  0.2995 -0.0706 -0.4017
   43SOL    HW1  170   1.457   0.072   1.673 -0.9645 -1.1453  3.5305
   43SOL    HW2  171   1.320   0.066   1.658 -1.9684  0.5803  0.4239
   43SOL     MW  172   1.385   0.113   1.685 -0.1665 -0.1265  0.2260
   44SOL     OW  173   1.201   0.840   0.943 -0.1431  0.0588 -0.3806
   44SOL    HW1  174   1.167   0.926   0.964  1.2852  1.3133 -1.1109
   44SOL    HW2  175   1.140   0.774   0.972 -0.5800  0.5988 -0.4317
   44SOL     MW  176   1.189   0.842   0.950 -0.0123  0.2956 -0.4837
   45SOL     OW  177   1.313   0.776   0.698  0.4348 -0.2720  0.3269
   45SOL    HW1  178   1.272   0.822   0.773  0.5018 -0.8356  2.5998
   45SOL    HW2  179   1.229   0.735   0.657 -2.7108 -1.7010  0.5947
   45SOL     MW  180   1.296   0.777   0.703  0.0286 -0.5349  0.6621
   46SOL     OW  181   0.427   1.120   0.675  0.3061 -0.4383  0.3559
   46SOL    HW1  182   0.464   1.167   0.603  1.4833 -0.0826 -0.2567
   46SOL    HW2  183   0.413   1.196   0.740  0.5745  0.1923 -0.2168
   46SOL     MW  184   0.430   1.136   0.674  0.4969 -0.3082  0.1995
   47SOL     OW  185   0.140   1.998   1.937  0.7960  1.0805 -0.7355
   47SOL    HW1  186   0.110   1.917   1.896 -0.1335 -1.9745 -0.7459
   47SOL    HW2  187   0.156   1.981   2.034  2.9823  2.0960 -1.2168
   47SOL     MW  188   0.138   1.985   1.944  0.9618  0.8114 -0.8003
   48SOL     OW  189   1.286   0.489   1.062  0.1164  0.0124  0.0627
   48SOL    HW1  190   1.242   0.459   0.983  1.3704  1.2402 -0.4481
   48SOL    HW2  191   1.215   0.547   1.087  0.7090 -0.3615 -1.0101
   48SOL     MW  192   1.270   0.493   1.055  0.3601  0.1250 -0.1463
   49SOL     OW  193   1.708   0.711   1.536  0.7176 -0.3537 -0.5016
   49SOL    HW1  194   1.768   0.657   1.596  0.8730  1.4014  2.6788
   49SOL    HW2  195   1.742   0.687   1.448  0.6339  0.0156 -1.9278
   49SOL     MW  196   1.720   0.700   1.532  0.7270 -0.0734 -0.2701
   50SOL     OW  197   1.304   1.224   0.613 -1.0184  0.8359 -0.6748
   50SOL    HW1  198   1.210   1.212   0.645  2.5455  2.3005 -1.5944
   50SOL    HW2  199   1.350   1.139   0.614  2.1477  0.7986 -2.6954
   50SOL     MW  200   1.297   1.211   0.617 -0.1304  1.0242 -1.0627
   51SOL     OW  201   0.346   2.917   0.853 -0.4039  0.2921  0.2253
   51SOL    HW1  202   0.430   2.869   0.857  0.3745 -1.6027 -0.9492
   51SOL    HW2  203   0.316   2.911   0.944  0.0734 -2.1341  0.5086
   51SOL     MW  204   0.353   2.910   0.865 -0.2382 -0.2780  0.1077
   52SOL     OW  205   0.813   1.850   0.466 -0.1113  0.1047 -0.4651
   52SOL    HW1  206   0.792   1.942   0.475 -0.6016 -0.3947 -1.1802
   52SOL    HW2  207   0.814   1.832   0.370  1.8592  1.4362 -1.3780
   52SOL     MW  208   0.810   1.859   0.455  0.0840  0.2145 -0.6799
   53SOL     OW  209   0.476   2.152   0.593  0.1558  0.0643  0.6853
   53SOL    HW1  210   0.417   2.105   0.530 -1.3028  0.9131  0.7198
   53SOL    HW2  211   0.469   2.248   0.568 -0.0749 -0.4149  0.8719
   53SOL     MW  212   0.467   2.159   0.581 -0.0671  0.1131  0.7145
   54SOL     OW  213   2.042   0.984   0.696 -0.1039 -0.3117 -0.3750
   54SOL    HW1  214   2.114   0.971   0.636 -1.5925 -2.5165 -0.4551
   54SOL    HW2  215   2.003   0.898   0.716 -1.2517 -1.3035 -1.7423
   54SOL     MW  216   2.046   0.971   0.691 -0.4517 -0.7334 -0.5659
   55SOL     OW  217   0.431   1.533   1.724  0.0474  0.1758 -0.1514
   55SOL    HW1  218   0.386   1.579   1.646 -1.0367  0.5541 -1.8658
   55SOL    HW2  219   0.512   1.497   1.689  0.5899 -0.7296 -2.0671
   55SOL     MW  220   0.436   1.534   1.709 -0.0241  0.1062 -0.6304
   56SOL     OW  221   0.656   0.902   0.191 -0.2152 -0.4605  0.2741
   56SOL    HW1  222   0.645   0.974   0.125 -1.6143 -1.0079 -0.0305
   56SOL    HW2  223   0.577   0.856   0.171 -0.1010 -0.6815  0.9665
   56SOL     MW  224   0.644   0.906   0.180 -0.3847 -0.5619  0.3252
   57SOL     OW  225   1.099   1.335   1.189  0.2070  0.4294  0.3343
   57SOL    HW1  226   1.194   1.355   1.201 -1.2253 -0.8925 -2.0569
   57SOL    HW2  227   1.098   1.260   1.252 -1.5476  0.3378  1.4952
   57SOL     MW  228   1.112   1.328   1.199 -0.2135  0.2429  0.1719
   58SOL     OW  229   0.451   1.249   1.294 -0.1401  0.4061 -0.1591
   58SOL    HW1  230   0.429   1.347   1.297 -0.0405 -0.9325  4.4337
   58SOL    HW2  231   0.441   1.220   1.382  0.9901  0.2674 -3.4304
   58SOL     MW  232   0.447   1.258   1.306  0.0221  0.2112  0.0152
   59SOL     OW  233   1.489   1.667   0.384 -0.1437 -0.0615  0.3539
   59SOL    HW1  234   1.532   1.724   0.437 -1.0120 -1.4676 -3.8059
   59SOL    HW2  235   1.399   1.674   0.420  1.8868 -0.9904  0.9916
   59SOL     MW  236   1.483   1.676   0.396  0.0097 -0.3696 -0.1108
   60SOL     OW  237   3.063   0.164   1.619 -0.3739 -0.4478 -0.1496
   60SOL    HW1  238   2.994   0.227   1.653 -1.3622 -0.0872 -2.8206
   60SOL    HW2  239   3.081   0.104   1.688 -1.3954  4.6692 -1.9279
   60SOL     MW  240   3.056   0.164   1.632 -0.6391  0.2749 -0.7367
   61SOL     OW  241   1.990   1.357   2.993 -0.2714  0.2406 -0.1229
   61SOL    HW1  242   1.963   1.346   3.090  2.4870  1.2363  0.4340
   61SOL    HW2  243   2.047   1.286   2.977 -0.3866  2.2489 -0.3184
   61SOL     MW  244   1.994   1.346   3.003  0.0773  0.6370 -0.0752
   62SOL     OW  245   0.552   1.775   0.573 -0.5556  0.5551 -0.4935
   62SOL    HW1  246   0.642   1.799   0.558  1.2913  2.1499 -1.6204
   62SOL    HW2  247   0.540   1.681   0.561  1.2764  0.6195 -1.3099
   62SOL     MW  248   0.562   1.766   0.570 -0.0702  0.7740 -0.7499
   63SOL     OW  249   1.714   0.663   0.512 -0.0367  0.0357 -0.4085
   63SOL    HW1  250   1.706   0.748   0.471  0.5864  0.2642 -0.7078
   63SOL    HW2  251   1.650   0.675   0.582 -1.8830  1.5429 -0.5480
   63SOL     MW  252   1.705   0.676   0.516 -0.1981  0.2647 -0.4664
   64SOL     OW  253   0.198   1.710   0.639 -0.2838 -0.0516 -0.3276
   64SOL    HW1  254   0.264   1.779   0.647 -1.1906 -0.2944  0.2769
   64SOL    HW2  255   0.129   1.740   0.701 -1.6243  0.9151  2.6108
   64SOL     MW  256   0.198   1.723   0.648 -0.5803  0.0439  0.1398
   65SOL     OW  257   1.526   2.320   0.385  1.0012 -0.1767 -0.6863
   65SOL    HW1  258   1.615   2.358   0.394  0.2583  1.4862 -0.5080
   65SOL    HW2  259   1.472   2.374   0.446  0.1760  1.4461  0.3909
   65SOL     MW  260   1.531   2.332   0.394  0.7943  0.2568 -0.5207
   66SOL     OW  261   0.390   0.561   0.533  0.5226  0.5331 -0.2565
   66SOL    HW1  262   0.444   0.549   0.452 -0.0199  1.2727  1.4568
   66SOL    HW2  263   0.345   0.645   0.522 -0.1904 -0.5137 -1.9063
   66SOL     MW  264   0.391   0.571   0.521  0.3569  0.4926 -0.2481
   67SOL     OW  265   1.336   0.067   1.999  0.2482  0.6735 -0.2970
   67SOL    HW1  266   1.359   0.104   1.916  0.7915  0.6720  2.0371
   67SOL    HW2  267   1.308  -0.023   1.978 -1.0140  1.9963 -0.5384
   67SOL     MW  268   1.336   0.060   1.985  0.1533  0.8478 -0.0209
   68SOL     OW  269   0.795   0.104   2.853  0.3487 -0.0933 -0.6943
   68SOL    HW1  270   0.772   0.191   2.813  0.2401 -0.5970 -1.7607
   68SOL    HW2  271   0.875   0.111   2.902 -1.2094  1.1741 -2.9753
   68SOL     MW  272   0.803   0.117   2.854  0.1288  0.0075 -1.1360
   69SOL     OW  273   1.088   0.273   1.957 -0.1049  0.1785 -0.1899
   69SOL    HW1  274   1.163   0.332   1.970 -3.2065  0.4699 -1.3697
   69SOL    HW2  275   1.067   0.217   2.037 -0.6376  0.4131  0.0241
   69SOL     MW  276   1.095   0.274   1.969 -0.5844  0.2479 -0.3173
   70SOL     OW  277   0.533   1.696   1.136 -0.2789 -0.5380  0.1363
   70SOL    HW1  278   0.592   1.767   1.108  0.6155 -0.4963 -1.1898
   70SOL    HW2  279   0.553   1.637   1.061  0.8862  4.0467 -5.5923
   70SOL     MW  280   0.544   1.698   1.123 -0.0072  0.0724 -0.7945
   71SOL     OW  281   1.581   0.611   1.207  0.0602  0.6513  0.2093
   71SOL    HW1  282   1.521   0.640   1.270  3.0858 -2.8399 -2.3233
   71SOL    HW2  283   1.545   0.654   1.126  0.1625  0.5087  1.8595
   71SOL     MW  284   1.569   0.620   1.204  0.4729  0.1719  0.0929
   72SOL     OW  285   0.791   1.848   1.070  0.1845  0.1888  0.7036
   72SOL    HW1  286   0.805   1.922   1.010 -1.2379 -0.9946  2.2363
   72SOL    HW2  287   0.878   1.810   1.073 -0.7360 -0.3702  1.6739
   72SOL     MW  288   0.805   1.852   1.062 -0.1246 -0.0411  1.0338
   73SOL     OW  289   1.071   0.660   1.131  0.0807 -0.3344 -0.4536
   73SOL    HW1  290   0.986   0.632   1.174  0.1884 -3.0258  1.9456
   73SOL    HW2  291   1.081   0.737   1.178  1.3106  0.7507  2.1611
   73SOL     MW  292   1.061   0.667   1.143  0.2572 -0.5463  0.2079
   74SOL     OW  293   2.830   0.094   0.981 -0.0024 -0.0606  0.2138
   74SOL    HW1  294   2.917   0.113   0.941 -0.7292 -0.5658 -1.4011
   74SOL    HW2  295   2.775   0.172   0.961 -2.2215 -0.3930  0.1385
   74SOL     MW  296   2.834   0.107   0.973 -0.3911 -0.1711 -0.0092
   75SOL     OW  297   1.468   1.312   0.167 -0.3066  0.1331  0.1708
   75SOL    HW1  298   1.535   1.264   0.114  0.4092 -2.7752  2.0678
   75SOL    HW2  299   1.521   1.326   0.242 -0.7849 -0.1950  0.0594
   75SOL     MW  300   1.484   1.307   0.170 -0.2752 -0.2939  0.4064
   76SOL     OW  301   3.043   0.688   0.415 -0.2406  0.0380  0.8553
   76SOL    HW1  302   3.075   0.738   0.492  0.9204 -1.5660  0.5801
   76SOL    HW2  303   3.110   0.624   0.395 -0.2003 -0.9757  1.2633
   76SOL     MW  304   3.056   0.686   0.422 -0.0821 -0.3074  0.8728
   77SOL     OW  305   0.853   0.599   0.435 -0.4467  0.4304  0.1878
   77SOL    HW1  306   0.824   0.630   0.345 -0.2115 -3.4404 -0.9352
   77SOL    HW2  307   0.842   0.502   0.425  0.6102  0.5713 -2.0819
   77SOL     MW  308   0.848   0.590   0.422 -0.2762 -0.0617 -0.2599
   78SOL     OW  309   0.803   0.876   1.092 -0.0677 -0.3414  0.2618
   78SOL    HW1  310   0.817   0.955   1.046 -1.6562 -0.1309  0.6958
   78SOL    HW2  311   0.706   0.874   1.109  0.4853  1.4076  1.0203
   78SOL     MW  312   0.792   0.886   1.088 -0.2044 -0.0829  0.4191
   79SOL     OW  313   1.878   1.506   0.554  0.4215 -0.0968  0.2790
   79SOL    HW1  314   1.785   1.512   0.566  2.3198 -0.7679  1.1453
   79SOL    HW2  315   1.905   1.458   0.635  3.1241 -1.2129  0.8366
   79SOL     MW  316   1.869   1.501   0.566  1.0286 -0.3326  0.4669
   80SOL     OW  317   0.225   0.980   0.294  0.0045 -0.2996  0.0428
   80SOL    HW1  318   0.189   0.935   0.219 -0.0413  0.9910  1.7648
   80SOL    HW2  319   0.263   0.911   0.354 -0.3249 -0.2345  1.3814
   80SOL     MW  320   0.225   0.965   0.292 -0.0450 -0.1207  0.4466
   81SOL     OW  321   1.809   1.821   0.307 -0.2120  0.3198 -1.0120
   81SOL    HW1  322   1.773   1.738   0.289  0.9731 -1.1093 -1.8152
   81SOL    HW2  323   1.764   1.884   0.253 -1.5879 -0.4040 -3.4970
   81SOL     MW  324   1.799   1.819   0.297 -0.2372  0.0357 -1.4458
   82SOL     OW  325   0.967   1.032   0.559 -0.3107  0.0753 -0.0794
   82SOL    HW1  326   0.904   1.067   0.491 -1.3406 -0.0239 -1.5924
   82SOL    HW2  327   0.924   0.951   0.582 -0.0072  1.1791  2.1914
   82SOL     MW  328   0.953   1.026   0.553 -0.4065  0.2078  0.0206
   83SOL     OW  329  -0.003   0.725   1.527  0.2585 -0.6394 -0.3143
   83SOL    HW1  330   0.006   0.771   1.442 -1.7253  0.7005  0.1338
   83SOL    HW2  331   0.066   0.655   1.510  2.5372 -1.3660 -0.4608
   83SOL     MW  332   0.008   0.722   1.514  0.2974 -0.5585 -0.2745
   84SOL     OW  333   3.072   0.179   0.917  0.4203  0.3721  0.2547
   84SOL    HW1  334   3.091   0.277   0.937  1.2379 -0.4154  0.4641
   84SOL    HW2  335   3.108   0.122   0.984 -0.4060  2.4712  0.9983
   84SOL     MW  336   3.079   0.184   0.928  0.4191  0.5452  0.3805
   85SOL     OW  337   0.362   0.475   0.791 -0.0124 -0.1435 -0.1118
   85SOL    HW1  338   0.391   0.507   0.702  1.7806 -0.3379 -0.5624
   85SOL    HW2  339   0.309   0.395   0.772  2.5558 -2.3051 -0.6876
   85SOL     MW  340   0.359   0.469   0.777  0.5630 -0.4543 -0.2472
   86SOL     OW  341   1.284   0.275   1.205  0.2348  0.0516 -0.2380
   86SOL    HW1  342   1.282   0.354   1.152  0.8213  1.6637  0.2754
   86SOL    HW2  343   1.373   0.280   1.244  1.7368  2.3637 -1.1341
   86SOL     MW  344   1.296   0.286   1.203  0.5103  0.5694 -0.2885
   87SOL     OW  345   0.999   1.577   1.190 -0.5342  0.3612  0.1300
   87SOL    HW1  346   1.057   1.638   1.144 -2.2668  2.1591  0.0501
   87SOL    HW2  347   1.035   1.487   1.190 -0.1348 -2.3952 -1.4910
   87SOL     MW  348   1.011   1.573   1.184 -0.7101  0.2348 -0.0944
   88SOL     OW  349   1.157   1.130   1.021  0.1440  0.0163  0.2244
   88SOL    HW1  350   1.244   1.141   0.986 -1.8251 -0.3289  1.0027
   88SOL    HW2  351   1.133   1.205   1.075  0.5580  1.9022 -0.9589
   88SOL     MW  352   1.165   1.141   1.023 -0.0612  0.2196  0.1709
   89SOL     OW  353   1.789   0.732   0.216 -0.2241  0.1282 -0.1633
   89SOL    HW1  354   1.748   0.668   0.279 -0.2636  0.9976 -0.0388
   89SOL    HW2  355   1.870   0.757   0.262  1.6167  1.3850 -0.0501
   89SOL     MW  356   1.794   0.727   0.230  0.0135  0.4087 -0.1319
   90SOL     OW  357   0.787   1.178   2.763  0.3759 -0.3407 -0.5734
   90SOL    HW1  358   0.797   1.086   2.788  3.7763  2.6358  1.1183
   90SOL    HW2  359   0.834   1.230   2.824 -0.6418 -0.2527 -1.8417
   90SOL     MW  360   0.795   1.172   2.775  0.6902  0.0636 -0.5175
   91SOL     OW  361   2.269   0.608   0.541  0.5829  0.5315 -0.1130
   91SOL    HW1  362   2.322   0.673   0.495 -1.7906  0.1126 -0.6884
   91SOL    HW2  363   2.287   0.530   0.483 -0.1854 -2.2331 -0.0279
   91SOL     MW  364   2.278   0.607   0.528  0.1684  0.1115 -0.1777
   92SOL     OW  365   1.645   0.950   0.480 -0.2608 -0.1063  0.0876
   92SOL    HW1  366   1.574   0.968   0.547 -0.9429 -1.7116  2.1075
   92SOL    HW2  367   1.626   1.011   0.411 -0.7187 -3.8321  0.2554
   92SOL     MW  368   1.633   0.960   0.480 -0.4112 -0.8097  0.3762
   93SOL     OW  369   1.116   0.227   0.405  0.2781 -0.4195  0.1347
   93SOL    HW1  370   1.031   0.266   0.416  0.1704  0.9322  1.0166
   93SOL    HW2  371   1.138   0.270   0.320 -0.3613  1.1295  0.5761
   93SOL     MW  372   1.108   0.238   0.395  0.1795 -0.0367  0.3093
   94SOL     OW  373   1.913   1.383   1.588 -0.2210 -0.0101  0.2901
   94SOL    HW1  374   1.898   1.363   1.496 -1.3282 -1.8342  0.3010
   94SOL    HW2  375   1.873   1.308   1.622  1.6880 -2.1118 -1.6861
   94SOL     MW  376   1.906   1.370   1.580 -0.1152 -0.5280  0.0308
   95SOL     OW  377   0.599   1.518   0.932  0.3032 -0.3935  0.0430
   95SOL    HW1  378   0.674   1.463   0.951 -1.5328  0.1996  0.6951
   95SOL    HW2  379   0.531   1.458   0.889 -0.6714 -1.5556 -0.6627
   95SOL     MW  380   0.600   1.503   0.929 -0.0676 -0.4686  0.0359
   96SOL     OW  381   1.335   1.822   1.699 -0.4205 -0.3623 -0.5214
   96SOL    HW1  382   1.253   1.835   1.749  2.6255 -1.4685  2.8589
   96SOL    HW2  383   1.332   1.731   1.664  0.6622 -2.7420  0.6898
   96SOL     MW  384   1.324   1.812   1.701  0.1243 -0.8222  0.0844
   97SOL     OW  385   1.089   1.564   0.835  0.1099  0.0864  0.1366
   97SOL    HW1  386   1.112   1.618   0.914 -2.3897  1.6391 -0.0270
   97SOL    HW2  387   1.003   1.601   0.810  0.7577 -1.8004  0.9843
   97SOL     MW  388   1.081   1.576   0.842 -0.1344  0.0423  0.2269
   98SOL     OW  389   1.356   1.393   1.203 -0.4205 -0.0248 -0.5942
   98SOL    HW1  390   1.435   1.412   1.261  0.5010  0.8208  0.3305
   98SOL    HW2  391   1.385   1.375   1.114  1.3343  0.5229  1.2306
   98SOL     MW  392   1.370   1.393   1.199 -0.0674  0.1590 -0.2314
   99SOL     OW  393   1.543   0.333   1.318 -0.5150 -0.0502  0.2707
   99SOL    HW1  394   1.551   0.421   1.274  0.2011  2.2016  0.9549
   99SOL    HW2  395   1.473   0.349   1.387  0.4878 -0.6036  0.2028
   99SOL     MW  396   1.535   0.347   1.321 -0.2882  0.1739  0.3520
  100SOL     OW  397   1.088   1.165   1.395 -0.1617 -0.0890  0.2337
  100SOL    HW1  398   1.055   1.173   1.485  1.6541  0.4062  0.9816
  100SOL    HW2  399   1.113   1.077   1.386 -0.0040 -0.1539  0.8244
  100SOL     MW  400   1.087   1.154   1.406  0.0987 -0.0323  0.4103
  101SOL     OW  401   0.526   1.260   0.466 -0.4366  0.3896  0.0166
  101SOL    HW1  402   0.480   1.226   0.383 -0.8080 -0.2084  0.4113
  101SOL    HW2  403   0.596   1.194   0.470  3.3245  1.2680  1.6561
  101SOL     MW  404   0.529   1.246   0.456  0.0106  0.4266  0.2850
  102SOL     OW  405   2.879   0.594   1.071  0.0047 -0.1250 -0.2563
  102SOL    HW1  406   2.917   0.682   1.079 -1.8931 -2.6135 -0.5168
  102SOL    HW2  407   2.876   0.575   1.164  1.7899 -0.2347  3.0225
  102SOL     MW  408   2.883   0.603   1.084 -0.0101 -0.4678  0.1419
  103SOL     OW  409   1.893   0.273   1.761  0.6283 -0.2533  0.2959
  103SOL    HW1  410   1.871   0.179   1.747  2.7812  0.9717 -1.9820
  103SOL    HW2  411   1.884   0.291   1.857  0.3299 -1.8272 -0.8721
  103SOL     MW  412   1.889   0.263   1.772  0.8730 -0.2993 -0.1587
  104SOL     OW  413   0.046   1.527   1.676 -0.1777 -0.0226  0.0679
  104SOL    HW1  414   0.094   1.463   1.729 -0.1385  1.6976 -1.3354
  104SOL    HW2  415  -0.049   1.496   1.687 -0.7073  2.0283  0.9195
  104SOL     MW  416   0.040   1.514   1.684 -0.2424  0.4749 -0.0049
  105SOL     OW  417   0.097   1.205   0.438  0.2554  0.1905 -0.3287
  105SOL    HW1  418   0.130   1.123   0.401 -0.1245 -0.3479 -0.4704
  105SOL    HW2  419   0.144   1.280   0.402  1.5184  2.8488  2.1801
  105SOL     MW  420   0.108   1.204   0.429  0.3719  0.4702 -0.0164
  106SOL     OW  421   0.834   0.241   0.858  0.7158 -0.4881  0.0133
  106SOL    HW1  422   0.794   0.322   0.822  2.1883  1.4230 -1.7440
  106SOL    HW2  423   0.932   0.246   0.864  0.8821  0.9461  4.8875
  106SOL     MW  424   0.842   0.253   0.854  0.9320 -0.0467  0.4245
  107SOL     OW  425   0.802   2.193   2.871 -0.0264 -0.2804 -0.0517
  107SOL    HW1  426   0.703   2.197   2.875 -1.7062  2.4977 -0.4384
  107SOL    HW2  427   0.817   2.154   2.954 -1.9233  0.2754  0.0057
  107SOL     MW  428   0.791   2.189   2.883 -0.4983  0.1595 -0.0952
  108SOL     OW  429   1.311   1.553   1.627  0.3231  0.2212 -0.0674
  108SOL    HW1  430   1.235   1.514   1.574 -1.5870  0.7874  0.2622
  108SOL    HW2  431   1.399   1.507   1.622 -0.3426  3.0975  1.7715
  108SOL     MW  432   1.312   1.542   1.619 -0.0167  0.6754  0.2187
  109SOL     OW  433   2.040   0.752   0.371 -0.2691 -0.1351  0.6405
  109SOL    HW1  434   2.020   0.843   0.370 -0.1800 -2.8564 -1.9321
  109SOL    HW2  435   2.065   0.737   0.464  0.7170 -0.2682  0.8036
  109SOL     MW  436   2.041   0.762   0.383 -0.1273 -0.5117  0.3226
  110SOL     OW  437   0.398   1.891   0.793 -0.1531 -0.1226 -0.1872
  110SOL    HW1  438   0.453   1.843   0.728 -0.3750  1.7217 -1.6740
  110SOL    HW2  439   0.399   1.987   0.765  0.1233  0.6303  0.0220
  110SOL     MW  440   0.405   1.897   0.780 -0.1459  0.2201 -0.3558
  111SOL     OW  441   0.862   0.883   1.365 -0.1110 -0.0503  0.0129
  111SOL    HW1  442   0.838   0.885   1.268 -0.1025  0.9353 -1.3336
  111SOL    HW2  443   0.809   0.823   1.414  2.3917  1.8624  1.2103
  111SOL     MW  444   0.852   0.875   1.359  0.2203  0.3321 -0.0067
  112SOL     OW  445   1.341   1.162   1.677 -0.1509 -0.0277 -0.4517
  112SOL    HW1  446   1.255   1.196   1.654  0.5811  0.5945  1.7265
  112SOL    HW2  447   1.342   1.067   1.680  1.1127 -1.1814 -0.3025
  112SOL     MW  448   1.330   1.154   1.675  0.1124 -0.0978 -0.1446
  113SOL     OW  449   1.223   2.983   1.734  0.0697  0.7233  0.0566
  113SOL    HW1  450   1.202   2.940   1.818 -2.2836 -1.5431 -1.7155
  113SOL    HW2  451   1.187   2.933   1.661  0.3068 -0.2440 -0.8617
  113SOL     MW  452   1.216   2.971   1.736 -0.2095  0.2967 -0.2984
  114SOL     OW  453   0.338   2.893   1.809  0.1288  0.4059  1.1625
  114SOL    HW1  454   0.413   2.948   1.802 -1.8890 -1.6012 -1.7443
  114SOL    HW2  455   0.290   2.908   1.894 -2.4982 -1.1937 -1.0520
  114SOL     MW  456   0.342   2.902   1.819 -0.4840 -0.0700  0.4868
  115SOL     OW  457   0.547   0.881   1.173 -0.8577 -0.3919 -0.0246
  115SOL    HW1  458   0.538   0.794   1.141  1.6819  0.4689  0.9335
  115SOL    HW2  459   0.473   0.896   1.237 -2.3131 -0.1576 -0.0594
  115SOL     MW  460   0.536   0.871   1.177 -0.7146 -0.2474  0.0972
  116SOL     OW  461   0.700   1.120   1.000  0.1996  0.0735 -0.1837
  116SOL    HW1  462   0.758   1.158   0.931  1.2744 -0.5123  1.5489
  116SOL    HW2  463   0.677   1.184   1.070  1.9244  2.8617 -4.0070
  116SOL     MW  464   0.705   1.133   1.000  0.5690  0.3641 -0.4595
  117SOL     OW  465   1.083   1.284   0.774 -0.5652 -0.5603 -0.0047
  117SOL    HW1  466   1.088   1.239   0.856  1.2657 -2.9374  1.1138
  117SOL    HW2  467   1.065   1.377   0.802 -0.8854 -1.6385  1.9382
  117SOL     MW  468   1.082   1.290   0.789 -0.3659 -1.0162  0.3992
  118SOL     OW  469   3.100   2.970   1.828  0.0285  0.1343  0.3623
  118SOL    HW1  470   3.126   3.063   1.844  0.9088 -2.1823 -1.7742
  118SOL    HW2  471   3.016   2.960   1.791  2.1614 -2.1222  1.8593
  118SOL     MW  472   3.092   2.981   1.825  0.4260 -0.4690  0.2780
  119SOL     OW  473   0.392   1.504   1.299 -0.0045 -0.4390  0.4108
  119SOL    HW1  474   0.424   1.569   1.236 -0.9052  0.9177 -0.6380
  119SOL    HW2  475   0.296   1.497   1.282  0.0827 -1.3427  1.2761
  119SOL     MW  476   0.384   1.512   1.288 -0.1118 -0.3792  0.3866
  120SOL     OW  477   0.297   0.878   0.966  0.0882  0.1284  0.0341
  120SOL    HW1  478   0.289   0.942   1.034  1.0445 -0.2591 -0.4188
  120SOL    HW2  479   0.387   0.898   0.935  0.1510 -1.4122 -2.0050
  120SOL     MW  480   0.308   0.889   0.971  0.2227 -0.1260 -0.2947
  121SOL     OW  481   1.764   1.112   1.606  0.3073  0.5529  0.1648
  121SOL    HW1  482   1.680   1.119   1.557 -1.4146 -2.8288  2.0927
  121SOL    HW2  483   1.809   1.032   1.566 -0.9959 -2.7026  0.0099
  121SOL     MW  484   1.759   1.103   1.594 -0.0918 -0.3228  0.3987
  122SOL     OW  485   0.148   0.665   0.862 -0.3508 -0.5246 -0.6110
  122SOL    HW1  486   0.217   0.604   0.820 -1.4058 -2.8432  1.3326
  122SOL    HW2  487   0.195   0.751   0.876 -0.5402 -2.8197  0.6558
  122SOL     MW  488   0.164   0.668   0.859 -0.5150 -1.1333 -0.1874
  123SOL     OW  489   1.848   1.128   0.554  0.1811  0.1780  0.4956
  123SOL    HW1  490   1.779   1.059   0.552  1.1537  0.5707  0.2180
  123SOL    HW2  491   1.926   1.081   0.592  2.0977  1.0225 -1.1819
  123SOL     MW  492   1.850   1.113   0.558  0.5623  0.3412  0.2376
  124SOL     OW  493   0.664   0.460   0.822  0.2619  0.4063 -0.4752
  124SOL    HW1  494   0.567   0.453   0.806  0.7054  1.6405 -1.2627
  124SOL    HW2  495   0.694   0.548   0.809 -0.3035 -1.1712 -0.9479
  124SOL     MW  496   0.655   0.471   0.819  0.2459  0.3610 -0.6415
  125SOL     OW  497   0.657   1.745   1.711 -0.5926  0.8669 -0.0710
  125SOL    HW1  498   0.673   1.740   1.612 -1.7462 -0.1450 -1.7495
  125SOL    HW2  499   0.619   1.835   1.720  1.0097  0.6371 -0.5369
  125SOL     MW  500   0.654   1.756   1.699 -0.5334  0.7031 -0.3539
  126SOL     OW  501   2.123   1.551   1.863 -0.1448 -0.1812 -0.1801
  126SOL    HW1  502   2.177   1.628   1.878  3.1099 -0.9791 -1.9482
  126SOL    HW2  503   2.178   1.474   1.885 -0.8476 -0.7531  0.2559
  126SOL     MW  504   2.138   1.551   1.868  0.1919 -0.3619 -0.3559
  127SOL     OW  505   0.521   0.769   1.835  0.6993 -0.0367 -0.3372
  127SOL    HW1  506   0.611   0.791   1.815 -1.4259 -1.3550  1.4565
  127SOL    HW2  507   0.502   0.820   1.913 -0.9438  0.8143  1.9070
  127SOL     MW  508   0.530   0.778   1.843  0.2021 -0.0984  0.1956
  128SOL     OW  509   1.738   0.768   2.860 -0.2727 -0.1999 -0.1216
  128SOL    HW1  510   1.797   0.756   2.784 -1.5657  0.2581  0.0945
  128SOL    HW2  511   1.730   0.866   2.881 -1.2708  0.2608  0.8485
  128SOL     MW  512   1.745   0.779   2.853 -0.5750 -0.0787  0.0349
  129SOL     OW  513   1.611   0.949   0.158  0.6362  0.2367 -0.0140
  129SOL    HW1  514   1.552   0.918   0.091 -1.4804  1.1636  0.1606
  129SOL    HW2  515   1.683   0.886   0.157 -2.0769 -0.5523 -1.7269
  129SOL     MW  516   1.613   0.936   0.149 -0.0010  0.2549 -0.2170
  130SOL     OW  517   0.864   1.460   0.327 -0.4913  0.4550 -0.2085
  130SOL    HW1  518   0.848   1.455   0.420 -1.8687 -0.0180  2.0492
  130SOL    HW2  519   0.957   1.454   0.318 -2.5407 -0.7048  4.5582
  130SOL     MW  520   0.874   1.459   0.338 -0.9434  0.2396  0.7183
  131SOL     OW  521   0.063   0.823   0.061  0.0236  0.2881 -0.2451
  131SOL    HW1  522   0.075   0.862  -0.027 -0.6182  0.2820 -3.0156
  131SOL    HW2  523   0.114   0.735   0.063  0.5419  1.1986  0.3095
  131SOL     MW  524   0.071   0.817   0.050  0.0073  0.4075 -0.5375
  132SOL     OW  525   2.731   0.072   1.226 -0.4644 -0.3477  0.0176
  132SOL    HW1  526   2.775   0.087   1.142  2.0728  0.7193  0.7515
  132SOL    HW2  527   2.662   0.014   1.204  1.5734 -1.4850  1.2708
  132SOL     MW  528   2.728   0.066   1.212  0.1392 -0.3570  0.2798
  133SOL     OW  529   1.082   0.115   1.740  0.6938 -0.2650 -0.0142
  133SOL    HW1  530   1.134   0.038   1.765  2.3860  0.7382  1.0111
  133SOL    HW2  531   1.089   0.176   1.818 -3.0507 -0.2929 -1.0301
  133SOL     MW  532   1.090   0.113   1.753  0.4230 -0.1363 -0.0130
  134SOL     OW  533   1.413   2.478   1.458 -0.0784 -0.7384  0.0225
  134SOL    HW1  534   1.351   2.542   1.430 -0.6838 -0.2799  0.4553
  134SOL    HW2  535   1.437   2.515   1.551 -1.5340 -1.7841  2.0294
  134SOL     MW  536   1.408   2.491   1.467 -0.3503 -0.8159  0.3444
  135SOL     OW  537   2.995   1.003   2.919 -0.5281 -0.3716 -0.1637
  135SOL    HW1  538   3.066   1.052   2.949 -1.6274  1.3158  0.7049
  135SOL    HW2  539   2.920   1.065   2.900 -1.6861  1.4072  0.3851
  135SOL     MW  540   2.994   1.018   2.921 -0.8259  0.0858  0.0233
  136SOL     OW  541   0.146   2.002   0.856 -0.1741  0.1956 -0.2081
  136SOL    HW1  542   0.066   1.949   0.839  2.3183 -0.1145 -0.2528
  136SOL    HW2  543   0.219   1.939   0.848 -1.9096 -3.5641  1.0119
  136SOL     MW  544   0.145   1.987   0.853 -0.0742 -0.3413 -0.0530
  137SOL     OW  545   0.747   2.074   0.614 -0.1252  0.1107  0.4304
  137SOL    HW1  546   0.764   2.066   0.708  0.0392  1.7774 -1.2633
  137SOL    HW2  547   0.650   2.084   0.605  0.0495  0.0028  1.1786
  137SOL     MW  548   0.736   2.075   0.626 -0.0805  0.3164  0.3057
  138SOL     OW  549   0.521   0.619   1.064  0.0599  0.7293 -0.0975
  138SOL    HW1  550   0.433   0.578   1.059 -0.3438 -1.4087 -0.4736
  138SOL    HW2  551   0.574   0.563   1.004  3.5238 -1.1951 -0.7666
  138SOL     MW  552   0.517   0.607   1.055  0.4637  0.1933 -0.2354
  139SOL     OW  553   2.860   0.484   1.325 -0.0596 -0.0308 -0.1750
  139SOL    HW1  554   2.952   0.458   1.337 -0.6817 -0.5573  1.1446
  139SOL    HW2  555   2.839   0.542   1.399 -0.5822 -0.2599 -2.1154
  139SOL     MW  556   2.869   0.488   1.336 -0.2107 -0.1305 -0.2569
  140SOL     OW  557   0.909   0.468   1.947  0.0431 -0.3136 -0.2626
  140SOL    HW1  558   0.960   0.388   1.946  0.6918 -0.5608  2.0648
  140SOL    HW2  559   0.887   0.472   2.044 -0.8805  0.6714  1.4192
  140SOL     MW  560   0.913   0.458   1.960  0.0068 -0.2163  0.2664
  141SOL     OW  561   1.122   0.677   1.724  0.4627  0.4707 -0.1539
  141SOL    HW1  562   1.125   0.610   1.653  1.4323  0.9925  0.8796
  141SOL    HW2  563   1.176   0.649   1.804 -0.0889  0.0880  0.5384
  141SOL     MW  564   1.130   0.664   1.725  0.5178  0.4891  0.0738
  142SOL     OW  565   0.834   1.169   0.771 -0.1611  0.0095 -0.2492
  142SOL    HW1  566   0.857   1.104   0.707 -1.6603  1.2859  0.8994
  142SOL    HW2  567   0.918   1.227   0.777  1.4279  0.6231 -0.3755
  142SOL     MW  568   0.848   1.168   0.763 -0.1492  0.2589 -0.1143
  143SOL     OW  569   1.828   0.738   1.044 -0.1566  0.8486 -0.1869
  143SOL    HW1  570   1.886   0.746   0.973 -2.1273 -0.2542 -2.4561
  143SOL    HW2  571   1.741   0.719   1.001  0.1180 -2.5995  0.5735
  143SOL     MW  572   1.824   0.737   1.029 -0.3804  0.2481 -0.3860
  144SOL     OW  573   0.235   1.333   1.757  0.0210  0.5290  0.0961
  144SOL    HW1  574   0.313   1.385   1.740 -2.9132  0.3821 -2.4024
  144SOL    HW2  575   0.266   1.284   1.834  0.6350 -2.6203  1.5482
  144SOL     MW  576   0.249   1.333   1.765 -0.2851  0.0941 -0.0419
  145SOL     OW  577   0.228   0.489   1.179  0.2225 -0.0529  0.2718
  145SOL    HW1  578   0.264   0.400   1.189 -2.2595  1.6558 -3.1173
  145SOL    HW2  579   0.156   0.496   1.111 -1.5022 -0.2601  0.2272
  145SOL     MW  580   0.223   0.478   1.172 -0.3325  0.1452 -0.1813
  146SOL     OW  581   0.799   2.000   1.549  0.1851  1.0260 -0.0645
  146SOL    HW1  582   0.812   1.994   1.457  1.4793 -0.8794 -0.0778
  146SOL    HW2  583   0.745   1.926   1.573  1.0997  1.2134  0.6691
  146SOL     MW  584   0.794   1.990   1.540  0.4766  0.7993  0.0306
  147SOL     OW  585   0.436   0.521   3.002  0.0005 -0.2422  0.1031
  147SOL    HW1  586   0.359   0.500   3.059 -3.9711  0.5488 -2.3276
  147SOL    HW2  587   0.399   0.574   2.927 -0.2086 -2.2139 -1.7402
  147SOL     MW  588   0.421   0.525   3.000 -0.5511 -0.3980 -0.4608
  148SOL     OW  589   0.020   0.885   1.310  0.4008  0.1854 -0.6535
  148SOL    HW1  590   0.112   0.905   1.320 -0.1118  1.9840  2.5201
  148SOL    HW2  591  -0.027   0.972   1.305 -0.5610  1.7284 -0.1781
  148SOL     MW  592   0.026   0.899   1.311  0.2063  0.6263 -0.1721
  149SOL     OW  593   1.514   1.219   1.450 -0.2288 -0.0018  0.2692
  149SOL    HW1  594   1.448   1.223   1.529 -1.9499 -0.8082  3.1145
  149SOL    HW2  595   1.548   1.309   1.442  0.7402  0.4662  1.2689
  149SOL     MW  596   1.509   1.232   1.460 -0.3280 -0.0465  0.7765
  150SOL     OW  597   1.704   1.455   0.882  0.0834 -0.1038 -0.0549
  150SOL    HW1  598   1.747   1.371   0.894 -2.2429 -2.1845  0.2909
  150SOL    HW2  599   1.764   1.532   0.888 -0.6276  1.6731  2.8958
  150SOL     MW  600   1.717   1.454   0.885 -0.3174 -0.1439  0.3801
  151SOL     OW  601   1.593   1.843   0.810  0.1440 -0.2350 -0.0889
  151SOL    HW1  602   1.576   1.833   0.713  3.3409 -1.3339 -0.5550
  151SOL    HW2  603   1.524   1.799   0.867  0.7454 -1.5503  0.1362
  151SOL     MW  604   1.582   1.836   0.804  0.6451 -0.5536 -0.1207
  152SOL     OW  605   0.653   1.424   1.595 -0.2534 -0.2749 -0.0704
  152SOL    HW1  606   0.717   1.447   1.530  1.6155  2.1352  4.0783
  152SOL    HW2  607   0.592   1.375   1.541 -0.5144  1.1598  2.3451
  152SOL     MW  608   0.653   1.421   1.579 -0.0412  0.2324  0.7957
  153SOL     OW  609   2.620   1.219   0.738  0.2620  0.4273 -0.0269
  153SOL    HW1  610   2.697   1.171   0.721  0.9985  0.2037  0.1797
  153SOL    HW2  611   2.564   1.146   0.731  0.7138  1.5707  3.6593
  153SOL     MW  612   2.622   1.203   0.735  0.4188  0.5486  0.4867
  154SOL     OW  613   0.113   1.784   1.766 -0.3823  0.2954  0.3278
  154SOL    HW1  614   0.063   1.693   1.747  0.9122 -1.9962 -2.0242
  154SOL    HW2  615   0.198   1.757   1.811  1.7511 -1.4225 -0.6360
  154SOL     MW  616   0.118   1.769   1.769  0.0700 -0.2336 -0.1097
  155SOL     OW  617   1.163   0.701   0.290  0.3851 -0.2234  0.0949
  155SOL    HW1  618   1.169   0.664   0.375  0.9781  2.1665 -3.4021
  155SOL    HW2  619   1.117   0.787   0.308 -2.3211  2.3113 -1.2975
  155SOL     MW  620   1.158   0.708   0.304  0.1063  0.4264 -0.5502
  156SOL     OW  621   1.571   3.098   1.098 -0.3400 -0.6288  0.1502
  156SOL    HW1  622   1.617   3.157   1.159  0.5310  4.1453  1.7307
  156SOL    HW2  623   1.591   3.009   1.136  0.3698  1.0217 -0.5648
  156SOL     MW  624   1.579   3.094   1.111 -0.1314  0.2188  0.2644
  157SOL     OW  625   1.261   1.137   0.161  0.0530 -0.7744  0.3911
  157SOL    HW1  626   1.274   1.047   0.187  0.4624  0.5863 -2.9400
  157SOL    HW2  627   1.333   1.191   0.195  2.1212  2.4396 -0.7153
  157SOL     MW  628   1.272   1.132   0.169  0.3799 -0.1708 -0.1944
  158SOL     OW  629   0.336   1.640   2.336 -0.4526 -0.4033  0.6900
  158SOL    HW1  630   0.270   1.667   2.270 -1.1327 -0.7010  0.3628
  158SOL    HW2  631   0.374   1.712   2.385  0.0154 -0.1746 -0.5704
  158SOL     MW  632   0.332   1.653   2.334 -0.4806 -0.4124  0.4805
  159SOL     OW  633   1.216   1.717   0.483  0.4223 -0.2268 -0.3492
  159SOL    HW1  634   1.162   1.662   0.426  0.3178  0.0807 -0.7998
  159SOL    HW2  635   1.158   1.748   0.550 -0.9387  0.1740  0.2354
  159SOL     MW  636   1.201   1.714   0.484  0.2289 -0.1334 -0.3315
  160SOL     OW  637   0.472   1.158   1.551 -0.2236 -0.1210  0.7257
  160SOL    HW1  638   0.430   1.069   1.563 -1.6858  2.0595 -0.2554
  160SOL    HW2  639   0.561   1.134   1.555  1.1798  0.7267  3.0271
  160SOL     MW  640   0.478   1.143   1.553 -0.2313  0.2785  0.8999
  161SOL     OW  641   0.481   2.298   2.651 -0.1085 -0.7016 -0.3392
  161SOL    HW1  642   0.387   2.308   2.614 -2.1416  1.1853 -1.4582
  161SOL    HW2  643   0.523   2.232   2.602  1.8278 -0.9405  1.9626
  161SOL     MW  644   0.475   2.291   2.639 -0.1213 -0.4841 -0.1831
  162SOL     OW  645   1.096   1.815   1.845 -0.3453  0.1975  0.6042
  162SOL    HW1  646   1.100   1.914   1.862 -0.6509  1.5510 -2.6762
  162SOL    HW2  647   1.013   1.779   1.893 -3.3240  0.8444  0.6019
  162SOL     MW  648   1.086   1.823   1.854 -0.7786  0.4614  0.1711
  163SOL     OW  649   2.115   3.035   0.799 -0.6545  0.1605 -0.0156
  163SOL    HW1  650   2.070   3.102   0.748  0.3882 -0.3385 -2.2743
  163SOL    HW2  651   2.046   2.962   0.802 -1.6720 -0.8125 -0.4624
  163SOL     MW  652   2.100   3.034   0.793 -0.6512 -0.0337 -0.3726
  164SOL     OW  653   0.214   0.209   0.781 -0.1746 -0.5087 -0.3119
  164SOL    HW1  654   0.126   0.181   0.822  0.5515 -0.5128 -0.1259
  164SOL    HW2  655   0.233   0.132   0.726  0.1400 -0.8787 -2.1238
  164SOL     MW  656   0.205   0.196   0.779 -0.0373 -0.5581 -0.5264
  165SOL     OW  657   1.150   1.288   0.387 -0.0264 -0.3033  0.2874
  165SOL    HW1  658   1.214   1.279   0.457  4.5416 -0.1195  0.9837
  165SOL    HW2  659   1.161   1.218   0.318 -1.7835 -0.7540  1.4593
  165SOL     MW  660   1.160   1.278   0.388  0.3445 -0.3385  0.5339
  166SOL     OW  661   0.331   1.187   1.048 -0.3917  0.5145 -0.1348
  166SOL    HW1  662   0.352   1.205   1.140 -2.0736 -0.9103  1.1644
  166SOL    HW2  663   0.405   1.126   1.032  0.2602 -2.4101 -0.4055
  166SOL     MW  664   0.343   1.181   1.058 -0.5276 -0.0594  0.0009
  167SOL     OW  665   0.799   1.151   0.399 -0.2124 -0.2444 -0.2722
  167SOL    HW1  666   0.811   1.240   0.365  1.0343 -2.3421  2.6820
  167SOL    HW2  667   0.817   1.093   0.326  0.6209 -1.0322  0.7404
  167SOL     MW  668   0.803   1.155   0.385  0.0620 -0.6251  0.2512
  168SOL     OW  669   1.683   1.645   3.055  0.0288  0.1140  0.1241
  168SOL    HW1  670   1.615   1.713   3.036  1.1358  2.2048  0.8460
  168SOL    HW2  671   1.648   1.566   3.016 -1.1886  0.7311 -0.2233
  168SOL     MW  672   1.670   1.644   3.047  0.0142  0.4713  0.1735
  169SOL     OW  673   0.303   0.908   1.346  0.1187 -0.6857 -0.4531
  169SOL    HW1  674   0.302   0.839   1.414 -3.5488 -1.2290  3.1634
  169SOL    HW2  675   0.295   0.983   1.409 -0.0301  0.5256  1.3466
  169SOL     MW  676   0.302   0.909   1.363 -0.3848 -0.5976  0.2615
  170SOL     OW  677   1.096   1.562   1.453 -0.1268 -0.2142 -0.0004
  170SOL    HW1  678   1.053   1.636   1.494 -0.3661 -0.6783 -2.9399
  170SOL    HW2  679   1.093   1.601   1.364 -2.5945 -0.0931 -0.5220
  170SOL     MW  680   1.090   1.577   1.446 -0.4840 -0.2595 -0.4570
  171SOL     OW  681   0.490   1.510   0.503  0.0458  0.1112 -0.2328
  171SOL    HW1  682   0.407   1.507   0.459 -2.5299 -3.4027  0.8163
  171SOL    HW2  683   0.507   1.417   0.484 -0.6184  3.5023 -2.3835
  171SOL     MW  684   0.481   1.498   0.495 -0.3817  0.0950 -0.3781
  172SOL     OW  685   0.778   0.291   1.298  0.5529 -0.2258  1.0533
  172SOL    HW1  686   0.744   0.240   1.221 -3.4209  0.7221 -0.2486
  172SOL    HW2  687   0.840   0.249   1.350 -0.5945 -0.2797 -1.6804
  172SOL     MW  688   0.781   0.279   1.294 -0.1228 -0.1078  0.5209
  173SOL     OW  689   0.498   1.747   0.293 -0.1514 -0.6183 -0.3823
  173SOL    HW1  690   0.552   1.667   0.278 -3.9246 -0.1264 -1.3566
  173SOL    HW2  691   0.492   1.752   0.390  3.4263 -0.0688  0.9138
  173SOL     MW  692   0.504   1.737   0.304 -0.1772 -0.4809 -0.3399
  174SOL     OW  693   1.929   0.912   1.498  0.2496  0.8100 -0.4790
  174SOL    HW1  694   1.872   0.841   1.521  0.1471  0.5831  1.8066
  174SOL    HW2  695   1.893   0.942   1.409 -0.3731 -0.1265 -3.0175
  174SOL     MW  696   1.917   0.907   1.489  0.1539  0.6565 -0.5124
  175SOL     OW  697   0.602   1.491   0.247  0.5098  0.2918  0.6950
  175SOL    HW1  698   0.565   1.466   0.332  1.2692  2.9917  2.4508
  175SOL    HW2  699   0.694   1.459   0.260 -0.8692 -1.7200  0.5806
  175SOL     MW  700   0.610   1.483   0.260  0.4280  0.3826  0.9116
  176SOL     OW  701   0.096   1.509   1.209  0.5709  0.2316 -0.4842
  176SOL    HW1  702   0.096   1.455   1.128  2.9335  3.5220 -1.5534
  176SOL    HW2  703   0.010   1.499   1.251 -2.5012 -1.8519 -1.9278
  176SOL     MW  704   0.085   1.501   1.204  0.4773  0.3909 -0.8157
  177SOL     OW  705   0.542   0.280   1.437  0.9181  0.2308  0.4049
  177SOL    HW1  706   0.620   0.286   1.381  0.0571  1.2918 -0.5689
  177SOL    HW2  707   0.532   0.362   1.485  0.3704  0.4897  0.3819
  177SOL     MW  708   0.551   0.292   1.436  0.7322  0.4049  0.2734
  178SOL     OW  709   3.097   0.638   2.925 -0.4049  0.6081 -0.6844
  178SOL    HW1  710   3.011   0.597   2.912 -3.0689 -1.3672 -2.1217
  178SOL    HW2  711   3.161   0.604   2.864  4.0727  0.2571 -1.9272
  178SOL     MW  712   3.094   0.628   2.915 -0.1656  0.3011 -1.0380
  179SOL     OW  713   1.583   1.477   1.377  0.6934 -0.1336  0.2258
  179SOL    HW1  714   1.581   1.503   1.470  1.6357 -0.4322 -1.0466
  179SOL    HW2  715   1.673   1.457   1.342  1.1575 -0.7969  2.6004
  179SOL     MW  716   1.595   1.478   1.385  0.8790 -0.2605  0.3713
  180SOL     OW  717   0.048   0.234   0.435 -0.1758 -0.0397  0.0637
  180SOL    HW1  718  -0.038   0.247   0.397  1.6125 -2.4795 -0.8118
  180SOL    HW2  719   0.088   0.320   0.463 -0.7202  1.1495  0.5068
  180SOL     MW  720   0.042   0.247   0.434 -0.0117 -0.2047  0.0066
  181SOL     OW  721   1.073   1.318   0.038 -0.9869 -0.3217 -0.2180
  181SOL    HW1  722   1.129   1.352   0.110  2.8004  2.4359 -0.7832
  181SOL    HW2  723   1.132   1.312  -0.039  0.7624  0.4374 -2.5486
  181SOL     MW  724   1.088   1.322   0.037 -0.2564  0.1423 -0.6001
  182SOL     OW  725   0.356   0.914   1.635 -0.0232  0.8569  0.9548
  182SOL    HW1  726   0.274   0.937   1.677  0.3695  1.6375 -1.1676
  182SOL    HW2  727   0.407   0.848   1.686  2.1913 -0.0193  0.5978
  182SOL     MW  728   0.352   0.909   1.647  0.3208  0.8443  0.6277
  183SOL     OW  729   1.541   1.738   1.266 -0.3358 -0.1437 -0.6077
  183SOL    HW1  730   1.629   1.760   1.291 -0.8362 -1.5085  0.1903
  183SOL    HW2  731   1.541   1.639   1.279 -1.9181  2.6430  1.0207
  183SOL     MW  732   1.552   1.728   1.271 -0.6106  0.0439 -0.2875
  184SOL     OW  733   0.848   0.636   1.693  0.2395  0.1505 -0.3750
  184SOL    HW1  734   0.938   0.658   1.721 -2.5995  0.0636 -0.0731
  184SOL    HW2  735   0.818   0.574   1.758 -0.0545  0.1602 -1.8410
  184SOL     MW  736   0.856   0.631   1.705 -0.1738  0.1403 -0.5286
  185SOL     OW  737   1.069   0.958   1.865 -0.0275 -0.3855 -0.4734
  185SOL    HW1  738   1.044   0.872   1.906  1.7566  1.7525  0.9231
  185SOL    HW2  739   1.125   0.996   1.932  0.1966  1.3718  2.6375
  185SOL     MW  740   1.073   0.951   1.879  0.2375  0.1285  0.1213
  186SOL     OW  741   0.289   1.638   1.521  0.9210  0.2837 -0.1972
  186SOL    HW1  742   0.314   1.601   1.437 -1.4725  0.5023 -0.5905
  186SOL    HW2  743   0.196   1.627   1.538  1.8211  0.6084 -1.0128
  186SOL     MW  744   0.280   1.632   1.512  0.7240  0.3554 -0.3567
  187SOL     OW  745   1.406   0.845   1.363 -0.0668  0.6294  0.0670
  187SOL    HW1  746   1.402   0.857   1.456 -0.2244 -1.4316 -1.2358
  187SOL    HW2  747   1.319   0.857   1.324 -0.3977 -0.8272  0.4614
  187SOL     MW  748   1.394   0.848   1.370 -0.1312  0.1653 -0.0528
  188SOL     OW  749   1.870   1.216   0.920  0.3115 -0.0144 -0.2330
  188SOL    HW1  750   1.905   1.227   1.010  0.8736 -0.1788 -0.7225
  188SOL    HW2  751   1.834   1.129   0.914  0.9349  1.5430 -1.4298
  188SOL     MW  752   1.870   1.206   0.931  0.4679  0.1694 -0.4555
  189SOL     OW  753   0.730   0.727   0.855  0.1396  0.4893 -0.0016
  189SOL    HW1  754   0.654   0.781   0.855  0.4701  2.1109 -1.4998
  189SOL    HW2  755   0.783   0.751   0.933 -2.1159  0.9975 -0.3171
  189SOL     MW  756   0.727   0.737   0.865 -0.1144  0.7703 -0.2409
  190SOL     OW  757   1.884   0.292   2.034 -0.2123  0.4442 -0.0475
  190SOL    HW1  758   1.889   0.256   2.124  1.6733  1.0161 -0.6621
  190SOL    HW2  759   1.959   0.358   2.033 -0.1580  1.0607  1.6273
  190SOL     MW  760   1.894   0.296   2.046  0.0436  0.6010  0.0924
  191SOL     OW  761   1.504   1.056   1.221 -0.1354  0.1456 -0.5513
  191SOL    HW1  762   1.499   1.115   1.298 -2.3245  1.9983  1.4951
  191SOL    HW2  763   1.474   0.974   1.260 -2.9851 -0.1144  0.6083
  191SOL     MW  764   1.499   1.053   1.236 -0.8003  0.3558 -0.1283
  192SOL     OW  765   0.520   2.200   2.947  0.5419 -0.0750 -0.4210
  192SOL    HW1  766   0.478   2.239   2.867 -1.0170  0.3433  0.8183
  192SOL    HW2  767   0.521   2.103   2.939  0.0054  1.6737  0.4718
  192SOL     MW  768   0.515   2.193   2.935  0.2654  0.2109 -0.1397
  193SOL     OW  769   0.823   1.677   0.782 -0.5670  0.4206 -0.0883
  193SOL    HW1  770   0.777   1.684   0.869  4.6285 -0.5600 -1.4132
  193SOL    HW2  771   0.798   1.598   0.739 -0.1660 -3.3227  0.5931
  193SOL     MW  772   0.814   1.668   0.788  0.1714 -0.2026 -0.1732
  194SOL     OW  773   0.393   1.337   0.842  0.2889  0.3893  0.0574
  194SOL    HW1  774   0.370   1.289   0.915  0.6502 -0.2103 -3.4368
  194SOL    HW2  775   0.315   1.381   0.810  1.9171  0.2801  2.7233
  194SOL     MW  776   0.380   1.336   0.847  0.5514  0.2958 -0.0519
  195SOL     OW  777   1.230   1.119   2.969  0.0489  0.2384 -0.3597
  195SOL    HW1  778   1.253   1.125   3.062  1.0006 -0.7867  1.3715
  195SOL    HW2  779   1.166   1.041   2.954 -1.8455 -0.3787  2.5846
  195SOL     MW  780   1.224   1.110   2.979 -0.0755  0.0217  0.2572
  196SOL     OW  781   2.249   0.974   0.520  0.2600 -0.0391 -0.2552
  196SOL    HW1  782   2.283   0.967   0.426  0.6736 -2.1878 -0.9697
  196SOL    HW2  783   2.236   1.067   0.529 -3.5020 -0.2767  2.0677
  196SOL     MW  784   2.251   0.985   0.509 -0.1818 -0.3540 -0.0430
  197SOL     OW  785   0.613   1.300   2.184  0.2183 -0.8128  0.4298
  197SOL    HW1  786   0.649   1.220   2.139  0.5086 -0.8295 -0.4933
  197SOL    HW2  787   0.671   1.377   2.154 -0.4402  0.4489 -1.4863
  197SOL     MW  788   0.625   1.300   2.174  0.1697 -0.6486  0.0552
  198SOL     OW  789   2.920   1.369   1.036 -0.0341 -0.2974  0.6088
  198SOL    HW1  790   2.896   1.456   1.000  1.4187  0.5388  0.6052
  198SOL    HW2  791   2.833   1.318   1.027 -2.2339 -3.1126 -0.2569
  198SOL     MW  792   2.905   1.374   1.030 -0.1327 -0.5585  0.4941
  199SOL     OW  793   0.650   1.214   1.831 -0.3201 -0.4208  0.3778
  199SOL    HW1  794   0.558   1.211   1.856  1.1633 -2.2032 -2.4826
  199SOL    HW2  795   0.664   1.290   1.769 -0.3623 -2.9511  0.9520
  199SOL     MW  796   0.640   1.223   1.826 -0.1299 -0.9898  0.0762
  200SOL     OW  797   1.863   2.961   1.300  0.3216 -0.0042  0.1979
  200SOL    HW1  798   1.925   2.969   1.221  1.1661 -1.6014 -1.5491
  200SOL    HW2  799   1.816   3.043   1.314 -0.9818 -1.0060 -0.6484
  200SOL     MW  800   1.865   2.973   1.291  0.2610 -0.3471 -0.1443
  201SOL     OW  801   1.191   0.299   0.859  0.2894  0.0015  0.1478
  201SOL    HW1  802   1.156   0.218   0.826  0.9886  1.7050  1.1301
  201SOL    HW2  803   1.287   0.301   0.844  0.3134  2.9088  0.4277
  201SOL     MW  804   1.199   0.288   0.853  0.3848  0.6098  0.3143
  202SOL     OW  805   1.437   1.681   1.009 -0.9433 -0.9865 -0.0990
  202SOL    HW1  806   1.426   1.586   1.018  0.7431  1.1060  0.9874
  202SOL    HW2  807   1.491   1.714   1.087  1.4470  1.6607  0.9046
  202SOL     MW  808   1.443   1.673   1.021 -0.4054 -0.3612  0.1767
  203SOL     OW  809   0.010   0.413   1.348 -0.4101  0.0286 -0.2045
  203SOL    HW1  810   0.018   0.319   1.355  0.8975  0.4591  1.1007
  203SOL    HW2  811   0.075   0.435   1.280  1.0750 -3.8393  1.3575
  203SOL     MW  812   0.019   0.403   1.340 -0.0416 -0.4249  0.1738
  204SOL     OW  813   1.010   1.834   0.654  0.5524 -0.2740  0.0328
  204SOL    HW1  814   0.936   1.787   0.693  1.2018 -2.3877 -2.0760
  204SOL    HW2  815   0.964   1.867   0.575 -1.0922 -0.7720  0.2644
  204SOL     MW  816   0.995   1.832   0.649  0.4211 -0.6186 -0.2149
  205SOL     OW  817   1.386   2.996   1.349  0.1056 -0.4049  0.9789
  205SOL    HW1  818   1.429   3.055   1.284 -0.4462  0.5564  0.2571
  205SOL    HW2  819   1.306   3.041   1.380  0.7294 -1.2969  0.0427
  205SOL     MW  820   1.381   3.010   1.345  0.1151 -0.3958  0.7602
  206SOL     OW  821   0.355   2.871   1.379 -0.2100 -0.1882  0.1000
  206SOL    HW1  822   0.338   2.906   1.292 -1.1561  0.2622  0.2037
  206SOL    HW2  823   0.449   2.857   1.394  0.6563 -0.7629  0.7865
  206SOL     MW  824   0.365   2.874   1.369 -0.2205 -0.2046  0.2043
  207SOL     OW  825   0.859   1.723   0.217 -0.3478 -0.3655 -0.0279
  207SOL    HW1  826   0.948   1.753   0.199 -1.7147  1.0019  0.6543
  207SOL    HW2  827   0.871   1.643   0.274  3.2890 -1.0773  0.3018
  207SOL     MW  828   0.873   1.716   0.223 -0.0483 -0.2790  0.1056
  208SOL     OW  829   0.780   1.498   1.374 -0.2066 -0.3545  0.0953
  208SOL    HW1  830   0.858   1.527   1.337 -1.9496 -3.0994  0.6142
  208SOL    HW2  831   0.750   1.417   1.322 -2.1879  2.4387  2.3973
  208SOL     MW  832   0.786   1.491   1.362 -0.6980 -0.3482  0.4675
  209SOL     OW  833   1.618   0.495   2.821  0.2619  0.4234 -0.2168
  209SOL    HW1  834   1.669   0.578   2.837 -0.4218  2.5552 -1.4701
  209SOL    HW2  835   1.682   0.426   2.807 -0.1038 -0.1233  4.3017
  209SOL     MW  836   1.633   0.497   2.821  0.1235  0.6325  0.2140
  210SOL     OW  837   1.441   1.408   0.956  0.0226 -0.3837  0.0069
  210SOL    HW1  838   1.534   1.422   0.935 -2.4728  0.8643  1.8262
  210SOL    HW2  839   1.392   1.434   0.874  0.4647  0.7905 -0.0215
  210SOL     MW  840   1.447   1.413   0.942 -0.2483 -0.0641  0.2432
  211SOL     OW  841   1.748   0.443   0.877 -0.0245 -0.9806 -0.4523
  211SOL    HW1  842   1.750   0.434   0.782 -0.0564 -4.3985 -1.5731
  211SOL    HW2  843   1.836   0.441   0.894  0.2910  0.5576 -0.0264
  211SOL     MW  844   1.760   0.442   0.867  0.0129 -1.2286 -0.5440
  212SOL     OW  845   0.408   1.223   0.233 -0.1288 -0.0176  0.6447
  212SOL    HW1  846   0.348   1.149   0.247 -0.5465  1.3312  0.7069
  212SOL    HW2  847   0.479   1.204   0.156  3.6578  3.0784 -1.3585
  212SOL     MW  848   0.409   1.211   0.225  0.3157  0.5689  0.3886
  213SOL     OW  849   0.424   1.800   3.067  0.0156  0.4101  0.5544
  213SOL    HW1  850   0.478   1.846   3.131 -0.4011  0.8685  1.2893
  213SOL    HW2  851   0.441   1.835   2.977 -0.3601 -0.5910  0.4946
  213SOL     MW  852   0.433   1.811   3.063 -0.0890  0.3385  0.6435
  214SOL     OW  853   0.566   0.362   2.121  0.0903 -0.1987  0.0486
  214SOL    HW1  854   0.517   0.443   2.133  2.0789 -0.9394 -2.6845
  214SOL    HW2  855   0.576   0.334   2.025 -1.1933  0.6761  1.1063
  214SOL     MW  856   0.561   0.369   2.110  0.1833 -0.1810 -0.1724
  215SOL     OW  857   0.537   0.551   2.493  0.7987  1.2578  0.5072
  215SOL    HW1  858   0.466   0.601   2.459  0.5930 -1.4752 -0.1842
  215SOL    HW2  859   0.525   0.458   2.470  0.2368  0.0867 -2.5426
  215SOL     MW  860   0.526   0.546   2.485  0.6974  0.7427  0.0136
  216SOL     OW  861   2.915   3.087   2.856 -0.0398 -0.1487  0.0180
  216SOL    HW1  862   2.821   3.103   2.840  0.1979 -1.8570 -0.4610
  216SOL    HW2  863   2.954   3.135   2.789 -2.3847 -0.4473 -1.6585
  216SOL     MW  864   2.908   3.095   2.845 -0.3178 -0.4135 -0.2664
  217SOL     OW  865   0.942   1.095   0.144 -0.3691 -0.0846 -0.3975
  217SOL    HW1  866   0.951   1.025   0.078 -3.1715  0.3576  2.0528
  217SOL    HW2  867   0.989   1.173   0.107  1.5278  1.3916 -0.9641
  217SOL     MW  868   0.949   1.096   0.131 -0.4886  0.1685 -0.1490
  218SOL     OW  869   0.810   1.409   2.606 -0.2200  0.3385  0.4290
  218SOL    HW1  870   0.785   1.329   2.652  0.0049  1.2818 -0.3583
  218SOL    HW2  871   0.899   1.437   2.638  2.0999  1.6302 -2.0645
  218SOL     MW  872   0.819   1.402   2.616  0.1158  0.6334 -0.0039
  219SOL     OW  873   1.066   0.457   2.548  0.5763 -0.3250 -0.4574
  219SOL    HW1  874   1.139   0.509   2.544 -1.7702 -2.3020 -2.1919
  219SOL    HW2  875   0.994   0.521   2.539  3.1697  2.0488  0.4502
  219SOL     MW  876   1.066   0.472   2.546  0.6089 -0.2727 -0.5665
  220SOL     OW  877   1.673   0.500   2.215  0.0207  0.2521 -0.3807
  220SOL    HW1  878   1.581   0.526   2.194  0.3401  0.7434 -0.4616
  220SOL    HW2  879   1.692   0.419   2.163 -1.2457 -0.2048 -0.8209
  220SOL     MW  880   1.663   0.493   2.205 -0.1042  0.2566 -0.4495
  221SOL     OW  881   0.350   1.367   2.934 -0.6575 -0.1227 -0.4068
  221SOL    HW1  882   0.405   1.285   2.927 -0.6233 -1.1187 -0.4349
  221SOL    HW2  883   0.413   1.441   2.931 -0.7605 -3.2315  0.6180
  221SOL     MW  884   0.366   1.366   2.933 -0.6666 -0.6643 -0.2753
  222SOL     OW  885   0.518   0.908   2.733 -0.0372 -0.0735 -0.1173
  222SOL    HW1  886   0.448   0.919   2.669  0.4773  1.7655  0.0795
  222SOL    HW2  887   0.545   0.815   2.739 -0.9982  0.4796 -2.1576
  222SOL     MW  888   0.513   0.897   2.725 -0.0961  0.2421 -0.3605
  223SOL     OW  889   3.048   2.043   2.526  0.4319  0.5397  0.1425
  223SOL    HW1  890   3.063   2.076   2.612 -1.4692 -1.3894  1.8018
  223SOL    HW2  891   3.104   2.092   2.468  1.4386  2.8616  3.5395
  223SOL     MW  892   3.057   2.054   2.530  0.3139  0.5915  0.8097
  224SOL     OW  893   1.455   0.624   2.414 -0.3159 -0.7289 -0.1328
  224SOL    HW1  894   1.542   0.583   2.433 -2.5506 -1.4778 -0.8663
  224SOL    HW2  895   1.452   0.714   2.445  0.1300 -0.4288  0.7622
  224SOL     MW  896   1.466   0.630   2.421 -0.5519 -0.7881 -0.1115
  225SOL     OW  897   2.922   1.506   2.185 -0.5752  0.2117  0.2045
  225SOL    HW1  898   2.969   1.588   2.165 -0.0117 -2.0180 -0.0935
  225SOL    HW2  899   2.863   1.540   2.251 -1.0193 -1.0342  2.1694
  225SOL     MW  900   2.921   1.521   2.191 -0.5595 -0.2469  0.4244
  226SOL     OW  901   0.453   1.568   2.698 -0.2430  0.0637  0.5603
  226SOL    HW1  902   0.538   1.588   2.653 -0.2432  2.7680  0.0070
  226SOL    HW2  903   0.411   1.653   2.700  1.7176 -0.0247 -1.2045
  226SOL     MW  904   0.459   1.581   2.692  0.0156  0.4088  0.2545
  227SOL     OW  905   0.514   1.146   2.891 -0.1866 -0.0314  0.0637
  227SOL    HW1  906   0.600   1.157   2.851 -2.1332 -0.8725 -0.4501
  227SOL    HW2  907   0.489   1.055   2.863 -1.4923 -2.8928 -1.1054
  227SOL     MW  908   0.522   1.135   2.882 -0.6157 -0.5199 -0.1583
  228SOL     OW  909   0.789   1.103   2.014  0.0705  0.1239  0.0521
  228SOL    HW1  910   0.737   1.139   1.946  3.0939  0.5703 -1.1478
  228SOL    HW2  911   0.862   1.163   2.031 -0.9065  0.7286  0.5935
  228SOL     MW  912   0.792   1.116   2.007  0.3405  0.2626 -0.0348
  229SOL     OW  913   0.179   0.573   0.030 -0.1563  0.6563  0.2139
  229SOL    HW1  914   0.110   0.578  -0.044 -1.3272 -0.4283  0.8394
  229SOL    HW2  915   0.161   0.490   0.079 -1.2326  0.6338 -2.4540
  229SOL     MW  916   0.167   0.563   0.026 -0.4528  0.5102 -0.0556
  230SOL     OW  917   1.769   1.350   2.154 -0.1996  0.5576  0.3806
  230SOL    HW1  918   1.680   1.324   2.186  1.7952  2.9723  4.7260
  230SOL    HW2  919   1.809   1.260   2.156 -0.2897 -0.1483  1.4622
  230SOL     MW  920   1.763   1.335   2.159  0.0517  0.7831  1.0967
  231SOL     OW  921   2.710   1.263   2.223 -0.2245 -0.5929 -0.3473
  231SOL    HW1  922   2.766   1.336   2.195  0.0315  0.5162  3.1158
  231SOL    HW2  923   2.635   1.251   2.157 -3.0695 -2.5393 -0.3262
  231SOL     MW  924   2.708   1.271   2.210 -0.5661 -0.7034  0.1124
  232SOL     OW  925   2.263   0.887   1.987 -0.5821 -0.1244  0.7532
  232SOL    HW1  926   2.183   0.937   1.975  3.1482  2.4923 -1.3038
  232SOL    HW2  927   2.250   0.816   2.057 -0.4852  0.4418  0.7032
  232SOL     MW  928   2.250   0.884   1.995 -0.0772  0.2956  0.4752
  233SOL     OW  929   2.097   0.444   2.059  0.4080 -0.1327 -0.3634
  233SOL    HW1  930   2.162   0.379   2.042 -2.7032  3.2460  2.1727
  233SOL    HW2  931   2.092   0.463   2.149 -5.2108 -0.8108 -2.0113
  233SOL     MW  932   2.105   0.438   2.069 -0.7438  0.2236 -0.2462
  234SOL     OW  933   0.263   1.059   2.625  0.1088  0.2245 -0.2331
  234SOL    HW1  934   0.184   1.058   2.567 -2.0773 -3.5164  0.0553
  234SOL    HW2  935   0.287   1.147   2.632  1.5745  0.2139 -1.6594
  234SOL     MW  936   0.256   1.071   2.619  0.0138 -0.2705 -0.3833
  235SOL     OW  937   1.121   0.033   2.820 -0.8250 -0.1460  0.0962
  235SOL    HW1  938   1.139   0.026   2.913 -0.4291  1.6379 -1.9428
  235SOL    HW2  939   1.087   0.122   2.799 -0.2133  1.2693 -1.4461
  235SOL     MW  940   1.119   0.044   2.830 -0.6921  0.2761 -0.3763
  236SOL     OW  941   2.959   0.618   0.178 -0.1940  0.5027 -0.6082
  236SOL    HW1  942   2.987   0.640   0.267 -3.9764  3.3325 -1.8422
  236SOL    HW2  943   3.013   0.670   0.123  2.0589 -2.0837 -1.8881
  236SOL     MW  944   2.970   0.628   0.182 -0.3958  0.5349 -0.9399
  237SOL     OW  945   1.903   1.130   2.119  0.5868 -0.0390  0.1840
  237SOL    HW1  946   1.841   1.063   2.172 -1.5790  0.0254  0.6558
  237SOL    HW2  947   1.880   1.105   2.030  1.1388  1.8785 -1.9580
  237SOL     MW  948   1.892   1.118   2.114  0.3739  0.2225 -0.0364
  238SOL     OW  949   1.099   1.715   2.900  0.1572 -0.4080  0.0599
  238SOL    HW1  950   1.038   1.648   2.881 -0.4562  0.2077 -1.4598
  238SOL    HW2  951   1.188   1.676   2.881  1.1939  1.6967 -1.0228
  238SOL     MW  952   1.102   1.701   2.895  0.2131 -0.0491 -0.2835
  239SOL     OW  953   1.170   1.280   2.366  0.0908 -0.3746  0.4527
  239SOL    HW1  954   1.094   1.335   2.383 -0.6206  1.8396 -0.7207
  239SOL    HW2  955   1.180   1.233   2.449 -0.4304 -1.5906 -0.1665
  239SOL     MW  956   1.162   1.281   2.379 -0.0718 -0.2429  0.2162
  240SOL     OW  957   0.575   0.837   2.306  0.3978  0.0432 -0.3622
  240SOL    HW1  958   0.588   0.886   2.387 -3.5796 -1.9518 -0.2715
  240SOL    HW2  959   0.655   0.830   2.258  3.1544  0.4203  0.3360
  240SOL     MW  960   0.587   0.843   2.310  0.2367 -0.1703 -0.2581
  241SOL     OW  961   0.674   0.455   3.090 -0.7643  0.1924 -0.4155
  241SOL    HW1  962   0.695   0.534   3.142  2.1098  1.1734  0.4581
  241SOL    HW2  963   0.587   0.473   3.050  2.4951 -2.2506 -2.3590
  241SOL     MW  964   0.665   0.468   3.092  0.0449 -0.0005 -0.5567
  242SOL     OW  965   1.514   1.615   2.291  0.5692 -0.2697 -0.2968
  242SOL    HW1  966   1.451   1.680   2.326  2.0123  0.0806  2.1503
  242SOL    HW2  967   1.468   1.559   2.233 -1.3517  1.9470  0.0938
  242SOL     MW  968   1.499   1.616   2.288  0.5061  0.0690  0.0776
  243SOL     OW  969   0.961   0.225   2.419 -0.0710 -0.6319  0.6380
  243SOL    HW1  970   1.042   0.181   2.402 -0.6154  0.4701  1.4750
  243SOL    HW2  971   0.985   0.313   2.454 -0.1467 -3.3767  1.3635
  243SOL     MW  972   0.975   0.231   2.422 -0.1528 -0.8487  0.8442
  244SOL     OW  973   0.122   0.793   2.387 -0.1629  0.3049 -0.0625
  244SOL    HW1  974   0.112   0.884   2.418 -1.1359  2.8197  0.9591
  244SOL    HW2  975   0.211   0.780   2.355  1.6567 -1.1953 -2.2018
  244SOL     MW  976   0.133   0.803   2.387 -0.0512  0.4387 -0.2100
  245SOL     OW  977   1.271   0.099   2.394 -0.4184 -0.3807  0.0902
  245SOL    HW1  978   1.346   0.090   2.337 -3.3953 -0.1635 -0.3140
  245SOL    HW2  979   1.282   0.039   2.464  1.0400  3.4180 -0.8209
  245SOL     MW  980   1.282   0.090   2.395 -0.6188  0.1491 -0.0834
  246SOL     OW  981   1.183   1.078   2.086  0.0036 -0.6079  0.0274
  246SOL    HW1  982   1.114   1.082   2.151 -1.8052  0.6513 -1.1420
  246SOL    HW2  983   1.266   1.052   2.135  0.5598  0.2267  2.1475
  246SOL     MW  984   1.185   1.075   2.101 -0.1617 -0.3317  0.1529
  247SOL     OW  985   0.784   0.646   0.186 -0.0901  0.3529 -0.0687
  247SOL    HW1  986   0.765   0.742   0.174 -0.0436  1.8533 -0.8539
  247SOL    HW2  987   0.867   0.633   0.140  1.0514 -2.4425 -3.3697
  247SOL     MW  988   0.792   0.657   0.178  0.0666  0.1820 -0.6079
  248SOL     OW  989   0.348   1.331   2.630  0.3736 -0.3492  0.3032
  248SOL    HW1  990   0.361   1.345   2.538 -1.2449 -1.1758 -0.4607
  248SOL    HW2  991   0.393   1.405   2.670 -1.6640  0.0247 -0.2436
  248SOL     MW  992   0.356   1.342   2.623 -0.1088 -0.4090  0.1303
  249SOL     OW  993   3.024   1.908   2.803 -0.0456 -0.7188  0.2127
  249SOL    HW1  994   2.987   1.822   2.773 -1.4205 -0.1722 -0.9792
  249SOL    HW2  995   3.116   1.889   2.819  0.7894  1.0972 -0.8805
  249SOL     MW  996   3.031   1.894   2.801 -0.1169 -0.4070 -0.0888
  250SOL     OW  997   2.270   0.705   2.195 -0.0538 -0.3796  0.1928
  250SOL    HW1  998   2.207   0.658   2.240  2.2496  1.3244  0.4070
  250SOL    HW2  999   2.353   0.677   2.249 -2.1840 -0.9443  1.4433
  250SOL     MW 1000   2.273   0.695   2.208 -0.0309 -0.2292  0.3860
  251SOL     OW 1001   0.167   0.877   2.006 -0.2409  0.4828 -0.4585
  251SOL    HW1 1002   0.130   0.793   2.024 -1.8835 -2.4814 -1.4660
  251SOL    HW2 1003   0.190   0.871   1.913 -1.3813 -1.2081 -1.8959
  251SOL     MW 1004   0.165   0.865   1.996 -0.6081 -0.1314 -0.7810
  252SOL     OW 1005   1.705   1.023   2.888  0.4847 -0.1298  0.3930
  252SOL    HW1 1006   1.728   1.079   2.959 -2.9784  0.6267  0.2373
  252SOL    HW2 1007   1.759   1.033   2.813  0.4516 -0.5066 -3.1386
  252SOL     MW 1008   1.715   1.032   2.887  0.0234 -0.0797 -0.0935
  253SOL     OW 1009   1.137   1.669   2.543 -0.0075  0.0251  0.5882
  253SOL    HW1 1010   1.121   1.628   2.453  2.2788  0.6175 -3.9442
  253SOL    HW2 1011   1.074   1.740   2.559 -0.5869 -1.3055 -2.2675
  253SOL     MW 1012   1.127   1.673   2.533  0.2177 -0.0723 -0.3866
  254SOL     OW 1013   0.982   1.047   2.275 -0.2282  0.0791  0.5553
  254SOL    HW1 1014   0.935   0.970   2.240 -0.9931 -2.1358 -0.8779
  254SOL    HW2 1015   0.917   1.108   2.309  1.7319 -1.4391  1.9356
  254SOL     MW 1016   0.968   1.045   2.275 -0.0705 -0.4135  0.5483
  255SOL     OW 1017   0.866   2.475   2.143  0.4370 -0.6617  0.5494
  255SOL    HW1 1018   0.780   2.437   2.147 -0.7356 -1.8173  2.0017
  255SOL    HW2 1019   0.915   2.414   2.206 -1.8488 -2.0530 -0.3659
  255SOL     MW 1020   0.861   2.462   2.152 -0.0193 -0.9977  0.6203
  256SOL     OW 1021   1.346   2.809   3.061 -0.4316  0.5637 -0.2959
  256SOL    HW1 1022   1.299   2.729   3.070 -1.6040  1.7926  2.4848
  256SOL    HW2 1023   1.400   2.804   2.980  0.5687  0.9059  1.3511
  256SOL     MW 1024   1.347   2.798   3.051 -0.4543  0.7710  0.2883
  257SOL     OW 1025   0.056   1.978   0.039  0.1233  0.2604 -0.5286
  257SOL    HW1 1026   0.113   1.951   0.113  1.2428 -1.8141  0.5888
  257SOL    HW2 1027   0.083   1.915  -0.025 -0.4294  0.5498  0.3000
  257SOL     MW 1028   0.067   1.966   0.040  0.1980  0.0249 -0.2718
  258SOL     OW 1029   0.700   0.985   2.531  0.1128 -0.2751  0.3156
  258SOL    HW1 1030   0.706   1.083   2.534 -0.2515  1.6933 -0.4522
  258SOL    HW2 1031   0.651   0.980   2.617  2.9909 -0.4231  1.5008
  258SOL     MW 1032   0.694   0.997   2.542  0.4445 -0.0349  0.3707
  259SOL     OW 1033   0.808   0.413   2.260  0.0058  0.0221  0.1460
  259SOL    HW1 1034   0.728   0.383   2.221  1.2359  1.2842  0.6250
  259SOL    HW2 1035   0.868   0.340   2.281 -0.7618  1.5054 -1.1727
  259SOL     MW 1036   0.806   0.400   2.258  0.0668  0.3844  0.0352
  260SOL     OW 1037   0.661   0.073   1.612  0.9295  0.4403 -0.3467
  260SOL    HW1 1038   0.593   0.117   1.564 -3.0281 -3.7428  1.5550
  260SOL    HW2 1039   0.742   0.110   1.575 -0.4998 -1.2379  1.3299
  260SOL     MW 1040   0.663   0.083   1.600  0.2188 -0.3330  0.1254
  261SOL     OW 1041   1.019   0.748   2.018 -0.2928 -0.0114  0.0324
  261SOL    HW1 1042   1.073   0.733   2.098  1.0860  1.0554 -1.4329
  261SOL    HW2 1043   0.995   0.654   1.996 -0.2191 -2.7091 -0.7458
  261SOL     MW 1044   1.023   0.733   2.026 -0.1012 -0.2266 -0.2636
  262SOL     OW 1045   1.108   0.319   0.144 -0.2756  0.4524 -0.0243
  262SOL    HW1 1046   1.181   0.338   0.083 -2.7108  1.6579 -2.5488
  262SOL    HW2 1047   1.056   0.256   0.093  0.3109 -1.0563 -0.6810
  262SOL     MW 1048   1.111   0.313   0.129 -0.5195  0.4124 -0.4440
  263SOL     OW 1049   0.392   0.004   2.483 -0.6089  0.1387  0.2299
  263SOL    HW1 1050   0.304   0.039   2.492 -2.0030  0.6029 -0.7343
  263SOL    HW2 1051   0.418   0.038   2.401 -1.4803  2.6064  0.4005
  263SOL     MW 1052   0.384   0.013   2.473 -0.9078  0.5255  0.1252
  264SOL     OW 1053   1.539   1.463   1.930 -0.3514 -0.2262  0.7202
  264SOL    HW1 1054   1.474   1.390   1.908 -1.1943  1.7528 -0.1519
  264SOL    HW2 1055   1.625   1.440   1.912 -0.7706 -2.8463  2.2116
  264SOL     MW 1056   1.542   1.451   1.925 -0.5179 -0.3108  0.8019
  265SOL     OW 1057   0.706   2.772   2.338 -0.0646 -0.1375 -0.0269
  265SOL    HW1 1058   0.799   2.762   2.312 -0.0432  0.4174  0.2260
  265SOL    HW2 1059   0.711   2.778   2.436  3.3078 -1.2174  1.1014
  265SOL     MW 1060   0.719   2.772   2.347  0.3832 -0.2068  0.1553
  266SOL     OW 1061   0.807   0.850   2.145 -0.5806 -0.1678 -0.5525
  266SOL    HW1 1062   0.803   0.935   2.106 -0.2190 -0.3483  1.0961
  266SOL    HW2 1063   0.876   0.798   2.094  0.5192  0.7402  0.7375
  266SOL     MW 1064   0.816   0.854   2.133 -0.3878 -0.0718 -0.1648
  267SOL     OW 1065   1.383   1.745   2.690  0.0745 -0.1277  0.4126
  267SOL    HW1 1066   1.446   1.687   2.651  0.2721 -1.4127  1.6654
  267SOL    HW2 1067   1.295   1.704   2.663 -1.6237 -2.8974  0.5969
  267SOL     MW 1068   1.380   1.732   2.681 -0.1235 -0.6626  0.6022
  268SOL     OW 1069   0.086   0.911   1.722 -0.1161 -0.3404 -0.4641
  268SOL    HW1 1070  -0.001   0.934   1.752  0.8050  1.8860 -0.2970
  268SOL    HW2 1071   0.064   0.845   1.648 -4.2852 -1.1492 -2.4691
  268SOL     MW 1072   0.072   0.905   1.716 -0.5446 -0.1534 -0.7066
  269SOL     OW 1073   1.362   1.832   2.405 -0.5348 -0.2017  0.3765
  269SOL    HW1 1074   1.422   1.869   2.471  0.9740 -0.4086 -1.3068
  269SOL    HW2 1075   1.301   1.772   2.455 -2.6706 -3.1961 -1.9043
  269SOL     MW 1076   1.362   1.829   2.420 -0.6175 -0.6241 -0.1465
  270SOL     OW 1077   1.092   0.462   1.528  0.2762  0.4464  0.3961
  270SOL    HW1 1078   1.075   0.382   1.578 -0.4703  0.1052 -0.7381
  270SOL    HW2 1079   1.181   0.459   1.509 -4.3367  0.3705 -0.4375
  270SOL     MW 1080   1.101   0.451   1.532 -0.4310  0.3914  0.1365
  271SOL     OW 1081   0.754   0.086   2.559 -0.8539  0.5461  0.8532
  271SOL    HW1 1082   0.759   0.053   2.647 -0.9215  0.0093 -0.0876
  271SOL    HW2 1083   0.838   0.123   2.554 -0.6781 -3.1363 -1.3908
  271SOL     MW 1084   0.765   0.086   2.570 -0.8397 -0.0106  0.4330
  272SOL     OW 1085   1.458   2.786   2.825  0.4653  0.6644  0.4437
  272SOL    HW1 1086   1.433   2.760   2.741  1.4458  0.1681  2.0986
  272SOL    HW2 1087   1.500   2.876   2.820  1.1855 -1.0496  0.1026
  272SOL     MW 1088   1.460   2.794   2.813  0.6897  0.3728  0.6170
  273SOL     OW 1089   1.455   0.801   2.807 -0.1746 -0.2079  0.0152
  273SOL    HW1 1090   1.548   0.773   2.818  0.0948 -4.0540  2.0909
  273SOL    HW2 1091   1.457   0.899   2.801  1.1855  0.0888 -0.9498
  273SOL     MW 1092   1.468   0.810   2.808  0.0404 -0.6762  0.1617
  274SOL     OW 1093   1.400   0.643   0.122 -0.2375  0.5081  0.4224
  274SOL    HW1 1094   1.468   0.594   0.174 -0.7790 -1.7153 -0.1125
  274SOL    HW2 1095   1.328   0.672   0.185  0.2664  0.5671 -1.4002
  274SOL     MW 1096   1.400   0.640   0.137 -0.2425  0.2225  0.1114
  275SOL     OW 1097   1.862   0.554   1.703  0.3912 -0.1422  0.1893
  275SOL    HW1 1098   1.909   0.587   1.775  1.9207  0.5300 -1.0462
  275SOL    HW2 1099   1.831   0.467   1.720  1.0011  1.3940  1.4004
  275SOL     MW 1100   1.864   0.547   1.715  0.6735  0.1492  0.1861
  276SOL     OW 1101   0.406   1.165   1.941  1.1010  0.1269  0.1429
  276SOL    HW1 1102   0.419   1.083   1.989 -0.8580  1.1603 -0.0730
  276SOL    HW2 1103   0.372   1.229   2.005 -0.8921  1.0657  1.0510
  276SOL     MW 1104   0.403   1.163   1.955  0.5796  0.3871  0.2342
  277SOL     OW 1105   1.956   1.139   2.457  0.4239  0.0674 -0.0711
  277SOL    HW1 1106   1.993   1.216   2.500  1.0452  0.7549 -0.5635
  277SOL    HW2 1107   1.993   1.144   2.372 -2.8413  1.7194 -3.4559
  277SOL     MW 1108   1.966   1.150   2.451  0.0751  0.3761 -0.5827
  278SOL     OW 1109   1.462   0.621   1.600 -0.6727 -0.1523  0.4928
  278SOL    HW1 1110   1.477   0.604   1.689  0.0626 -0.5466  0.2122
  278SOL    HW2 1111   1.543   0.665   1.571 -0.5391  0.0646 -1.8541
  278SOL     MW 1112   1.475   0.624   1.608 -0.5580 -0.1757  0.1461
  279SOL     OW 1113   0.505   0.092   2.209 -0.1549 -0.2938 -0.5325
  279SOL    HW1 1114   0.597   0.057   2.195  1.0219 -1.9631 -0.6688
  279SOL    HW2 1115   0.501   0.189   2.221 -0.2891 -0.2104  0.5458
  279SOL     MW 1116   0.516   0.100   2.209 -0.0173 -0.5031 -0.4082
  280SOL     OW 1117   1.380   0.993   2.234 -0.1638 -0.1453 -0.3682
  280SOL    HW1 1118   1.467   0.966   2.213  0.2297  0.9140  0.7421
  280SOL    HW2 1119   1.375   0.949   2.318 -1.5086 -0.0699  0.4793
  280SOL     MW 1120   1.391   0.983   2.242 -0.2893  0.0044 -0.1099
  281SOL     OW 1121   1.394   1.073   2.771  0.0447 -0.2210  0.1224
  281SOL    HW1 1122   1.452   1.148   2.757 -2.0714  1.2109  1.9430
  281SOL    HW2 1123   1.337   1.084   2.850 -0.2145 -0.5204  0.2380
  281SOL     MW 1124   1.394   1.084   2.780 -0.2687 -0.0716  0.3778
  282SOL     OW 1125   1.088   1.322   1.631 -0.8855  0.3676 -0.5166
  282SOL    HW1 1126   1.077   1.380   1.561  1.7048 -1.3981  1.7244
  282SOL    HW2 1127   1.004   1.299   1.664  0.3680  0.5942 -0.4036
  282SOL     MW 1128   1.075   1.326   1.626 -0.3784  0.1646 -0.2060
  283SOL     OW 1129   0.820   1.340   3.014  0.1434 -0.6133 -0.3929
  283SOL    HW1 1130   0.917   1.349   3.037  0.9267  2.1954  1.5320
  283SOL    HW2 1131   0.783   1.426   3.007 -0.4939 -0.2469  0.5394
  283SOL     MW 1132   0.828   1.353   3.016  0.1627 -0.1944 -0.0159
  284SOL     OW 1133   0.351   0.680   2.343  0.2051 -0.0079  0.4009
  284SOL    HW1 1134   0.419   0.754   2.336 -1.4300  1.0965  2.7030
  284SOL    HW2 1135   0.346   0.643   2.253 -0.9411  0.3048  0.8028
  284SOL     MW 1136   0.359   0.685   2.330 -0.1619  0.1791  0.7577
  285SOL     OW 1137   0.863   0.922   2.799  0.3093  0.9104 -0.3631
  285SOL    HW1 1138   0.910   0.937   2.717 -0.8348  0.5235  0.2699
  285SOL    HW2 1139   0.803   0.859   2.773  2.1921  2.3892 -0.5812
  285SOL     MW 1140   0.861   0.916   2.784  0.4067  1.0545 -0.3083
  286SOL     OW 1141   1.066   1.444   2.733 -0.2865 -0.1903  0.2086
  286SOL    HW1 1142   1.098   1.356   2.736  0.2289 -0.6622  0.2500
  286SOL    HW2 1143   1.111   1.488   2.659 -0.9376 -3.4860 -0.2748
  286SOL     MW 1144   1.076   1.438   2.724 -0.3044 -0.6874  0.1503
  287SOL     OW 1145   1.091   0.958   0.325 -0.1925  0.4228  0.0698
  287SOL    HW1 1146   1.051   0.974   0.411  2.6315  0.0334 -0.8805
  287SOL    HW2 1147   1.050   1.021   0.264  1.6534  2.6044 -0.2914
  287SOL     MW 1148   1.080   0.968   0.328  0.4236  0.6593 -0.1032
  288SOL     OW 1149   1.494   0.712   2.091 -0.0989  0.7470 -0.1094
  288SOL    HW1 1150   1.408   0.737   2.121  3.4291 -1.9576 -0.9119
  288SOL    HW2 1151   1.550   0.784   2.115 -2.6514 -1.7407  0.2644
  288SOL     MW 1152   1.490   0.724   2.098  0.0298  0.0619 -0.1660
  289SOL     OW 1153   1.002   1.006   2.584  0.3722  1.0844  0.0068
  289SOL    HW1 1154   1.044   0.944   2.532  0.6126  1.4871  1.6165
  289SOL    HW2 1155   0.924   1.027   2.527  1.7371  0.5427  1.8249
  289SOL     MW 1156   0.997   1.001   2.569  0.5840  1.0661  0.4590
  290SOL     OW 1157   0.691   0.646   1.479  0.2241 -0.0372  0.1400
  290SOL    HW1 1158   0.734   0.600   1.408 -1.4265  0.4535  0.9655
  290SOL    HW2 1159   0.759   0.642   1.544 -2.5438  0.7383 -0.3592
  290SOL     MW 1160   0.706   0.639   1.478 -0.3589  0.1299  0.1831
  291SOL     OW 1161   0.216   0.348   0.214 -0.7240  0.1053 -0.0256
  291SOL    HW1 1162   0.305   0.324   0.194 -3.0624 -2.1638  2.5573
  291SOL    HW2 1163   0.177   0.269   0.245 -0.4176  1.1950  2.0998
  291SOL     MW 1164   0.223   0.334   0.215 -0.9921 -0.0503  0.5956
  292SOL     OW 1165   1.026   0.570   0.079  0.1961 -0.3241 -0.0922
  292SOL    HW1 1166   1.085   0.609   0.142 -1.1518  0.3031 -0.2898
  292SOL    HW2 1167   1.028   0.470   0.095 -0.9111 -1.9859 -2.0073
  292SOL     MW 1168   1.034   0.562   0.090 -0.1278 -0.4606 -0.3710
  293SOL     OW 1169   0.142   0.130   2.527 -0.6647 -0.7369  0.0579
  293SOL    HW1 1170   0.123   0.083   2.445 -3.3594  2.6129 -2.0350
  293SOL    HW2 1171   0.051   0.148   2.559  3.1556 -0.6320  1.4307
  293SOL     MW 1172   0.127   0.126   2.520 -0.5162 -0.2811 -0.0371
  294SOL     OW 1173   1.264   0.435   2.297 -0.8510 -0.0344 -0.2594
  294SOL    HW1 1174   1.324   0.497   2.345  1.5551  1.1754  0.7272
  294SOL    HW2 1175   1.245   0.360   2.349  1.9710 -0.4480 -1.8604
  294SOL     MW 1176   1.269   0.433   2.310 -0.1612  0.0706 -0.3405
  295SOL     OW 1177   0.857   0.658   2.482  0.3615  0.2645 -0.1079
  295SOL    HW1 1178   0.806   0.609   2.421 -0.3556 -0.1269  0.1223
  295SOL    HW2 1179   0.794   0.690   2.546  0.1219  0.8537 -0.4312
  295SOL     MW 1180   0.842   0.656   2.482  0.2353  0.2906 -0.1202
  296SOL     OW 1181   1.369   0.345   2.064  0.2105  0.0190 -0.2021
  296SOL    HW1 1182   1.398   0.254   2.081  0.8189  1.1610 -0.9694
  296SOL    HW2 1183   1.337   0.378   2.145  0.2422  1.7119 -1.9422
  296SOL     MW 1184   1.369   0.337   2.077  0.2950  0.3930 -0.5329
  297SOL     OW 1185   1.369   0.374   1.515  0.4521  0.1263 -0.3401
  297SOL    HW1 1186   1.403   0.454   1.551 -0.4724  0.9643  1.1967
  297SOL    HW2 1187   1.347   0.319   1.593  0.9398  0.3527 -0.2218
  297SOL     MW 1188   1.371   0.377   1.530  0.3945  0.2667 -0.1217
  298SOL     OW 1189   1.698   0.929   2.143 -0.1774  0.2549 -0.0689
  298SOL    HW1 1190   1.695   0.942   2.044  0.4824 -0.4542  0.8479
  298SOL    HW2 1191   1.763   0.855   2.152 -0.1893 -2.0007 -0.6159
  298SOL     MW 1192   1.706   0.921   2.131 -0.0919 -0.1362 -0.0201
  299SOL     OW 1193   0.602   1.167   0.035  0.1351 -0.5384 -0.2714
  299SOL    HW1 1194   0.560   1.177  -0.059 -2.2483  2.1137 -1.0146
  299SOL    HW2 1195   0.690   1.207   0.015 -0.1806 -0.6348 -0.0643
  299SOL     MW 1196   0.608   1.173   0.020 -0.2210 -0.2012 -0.3422
  300SOL     OW 1197   1.164   1.206   2.662  0.1082  0.4398  0.3901
  300SOL    HW1 1198   1.107   1.132   2.659  0.2218  0.9920  1.1858
  300SOL    HW2 1199   1.233   1.190   2.725 -1.5816  0.9447  0.2225
  300SOL     MW 1200   1.166   1.194   2.670 -0.0998  0.5793  0.4730
  301SOL     OW 1201   1.475   1.014   0.685 -0.1686  0.6446 -0.3213
  301SOL    HW1 1202   1.453   1.058   0.765 -1.1467 -0.0643 -1.3621
  301SOL    HW2 1203   1.430   0.931   0.682  1.9981 -1.7062  0.0448
  301SOL     MW 1204   1.466   1.009   0.696 -0.0118  0.2409 -0.4104
  302SOL     OW 1205   0.234   1.598   2.031  0.2316 -0.6231  0.3403
  302SOL    HW1 1206   0.227   1.503   2.046  0.8219 -2.9513  1.6262
  302SOL    HW2 1207   0.148   1.636   2.039  0.5110 -0.8216  1.5786
  302SOL     MW 1208   0.221   1.590   2.034  0.3464 -0.9565  0.6733
  303SOL     OW 1209   0.289   1.790   2.681  0.2775  0.0070  0.2626
  303SOL    HW1 1210   0.227   1.818   2.613  2.1925  2.4235  0.4400
  303SOL    HW2 1211   0.235   1.752   2.751  1.0410 -3.5791  1.2768
  303SOL     MW 1212   0.273   1.788   2.681  0.6309 -0.1473  0.4198
  304SOL     OW 1213   0.529   2.098   2.470  0.2291  0.5261 -0.5212
  304SOL    HW1 1214   0.583   2.169   2.444  0.6058  0.7289  1.4910
  304SOL    HW2 1215   0.579   2.028   2.423  0.0220 -1.2539 -0.5661
  304SOL     MW 1216   0.543   2.098   2.461  0.2515  0.3180 -0.2617
  305SOL     OW 1217   1.134   0.629   0.564  0.0406 -0.2168 -0.2760
  305SOL    HW1 1218   1.040   0.623   0.536 -2.0147 -0.0267  0.6256
  305SOL    HW2 1219   1.173   0.531   0.572 -0.7094 -3.8457  0.1954
  305SOL     MW 1220   1.127   0.615   0.561 -0.3295 -0.6705 -0.0948
  306SOL     OW 1221   1.136   1.539   0.294  0.5483 -0.0341  0.0955
  306SOL    HW1 1222   1.167   1.463   0.345 -0.4729  2.5993 -0.1260
  306SOL    HW2 1223   1.204   1.562   0.225  0.9148 -0.3718  0.9205
  306SOL     MW 1224   1.149   1.532   0.291  0.4619  0.2688  0.1751
  307SOL     OW 1225   1.457   0.556   1.871 -0.4302  0.3709 -0.0955
  307SOL    HW1 1226   1.439   0.476   1.920  0.6296 -0.9268 -2.2564
  307SOL    HW2 1227   1.501   0.606   1.944  2.2508 -2.0696 -0.9286
  307SOL     MW 1228   1.461   0.552   1.887  0.0634 -0.1223 -0.4906
  308SOL     OW 1229   2.279   0.577   2.735 -0.4499 -0.0784 -0.6605
  308SOL    HW1 1230   2.369   0.596   2.770 -1.6414  0.8249 -0.6644
  308SOL    HW2 1231   2.234   0.663   2.739  0.2613 -0.5493  3.5231
  308SOL     MW 1232   2.285   0.591   2.740 -0.5132 -0.0214 -0.1090
  309SOL     OW 1233   0.542   0.516   0.292  0.2173  0.1829  0.4409
  309SOL    HW1 1234   0.634   0.537   0.271  0.5168 -3.4821 -2.1423
  309SOL    HW2 1235   0.531   0.426   0.255  2.7646  2.1800 -1.8589
  309SOL     MW 1236   0.552   0.507   0.284  0.5929 -0.0371 -0.2033
  310SOL     OW 1237   0.388   0.529   1.851  0.2918 -0.0994 -0.6350
  310SOL    HW1 1238   0.378   0.518   1.757 -0.4407 -0.2011 -0.3142
  310SOL    HW2 1239   0.442   0.610   1.863  0.2510  1.5468  0.1336
  310SOL     MW 1240   0.394   0.538   1.840  0.1898  0.1044 -0.4913
  311SOL     OW 1241   1.997   0.712   1.912 -0.1866  0.0695 -0.5080
  311SOL    HW1 1242   1.943   0.687   1.995  1.1887  0.5829  2.1340
  311SOL    HW2 1243   2.077   0.671   1.929 -1.1706  4.8038  3.0828
  311SOL     MW 1244   2.001   0.703   1.925 -0.1350  0.7619  0.3143
  312SOL     OW 1245   1.739   2.464   0.153  0.7187 -0.4569 -0.1600
  312SOL    HW1 1246   1.765   2.466   0.244 -1.6704 -1.0557 -0.4957
  312SOL    HW2 1247   1.650   2.510   0.151 -1.9071  0.5241  0.3462
  312SOL     MW 1248   1.731   2.471   0.164  0.0570 -0.4065 -0.1375
  313SOL     OW 1249   0.096   1.145   3.073 -0.6445  0.1270  0.2893
  313SOL    HW1 1250   0.048   1.169   3.154 -1.1678 -0.7795  0.5583
  313SOL    HW2 1251   0.113   1.221   3.024 -1.0896 -0.6937  2.5866
  313SOL     MW 1252   0.092   1.158   3.077 -0.7722 -0.1009  0.6279
  314SOL     OW 1253   2.218   2.871   3.075 -0.0155 -0.2173 -0.3255
  314SOL    HW1 1254   2.140   2.899   3.019  1.1782  0.5234 -0.4225
  314SOL    HW2 1255   2.255   2.945   3.106  0.2464 -1.6112 -0.2379
  314SOL     MW 1256   2.212   2.885   3.072  0.1766 -0.3035 -0.3267
  315SOL     OW 1257   1.511   1.865   3.029  0.1773  0.5609 -0.0605
  315SOL    HW1 1258   1.470   1.945   3.065 -1.0835  2.5285  1.8947
  315SOL    HW2 1259   1.557   1.899   2.952  0.6283  1.9178 -1.7261
  315SOL     MW 1260   1.512   1.880   3.023  0.0705  0.9995 -0.0223
  316SOL     OW 1261   1.220   0.706   2.715 -0.3374 -0.5691 -0.2456
  316SOL    HW1 1262   1.307   0.726   2.737 -0.6953  1.0531  3.3252
  316SOL    HW2 1263   1.179   0.662   2.792  0.4953  1.0877  1.7201
  316SOL     MW 1264   1.226   0.703   2.728 -0.2748 -0.1365  0.4849
  317SOL     OW 1265   0.682   1.623   2.571 -0.4368  0.0815 -0.1402
  317SOL    HW1 1266   0.743   1.543   2.588  0.6255 -1.3106 -1.6233
  317SOL    HW2 1267   0.658   1.606   2.487  0.5359 -0.2406  1.0840
  317SOL     MW 1268   0.687   1.610   2.562 -0.1683 -0.1447 -0.1744
  318SOL     OW 1269   1.357   0.401   2.862  0.0128 -0.3499  0.1301
  318SOL    HW1 1270   1.296   0.473   2.869  1.1327 -2.4566 -0.5919
  318SOL    HW2 1271   1.440   0.437   2.841 -2.9519 -0.1727 -2.5480
  318SOL     MW 1272   1.360   0.416   2.860 -0.2306 -0.6045 -0.3185
  319SOL     OW 1273   0.830   0.507   2.865  0.0181 -0.4275  0.3713
  319SOL    HW1 1274   0.821   0.432   2.803  0.1327  1.2032  0.1914
  319SOL    HW2 1275   0.761   0.487   2.926 -0.5233  0.0965  1.1435
  319SOL     MW 1276   0.819   0.494   2.865 -0.0382 -0.1432  0.4495
  320SOL     OW 1277   1.009   1.307   1.999  0.2236 -0.5491  0.2404
  320SOL    HW1 1278   1.075   1.286   2.063  0.3828  0.2349  1.3939
  320SOL    HW2 1279   1.054   1.377   1.950  0.0352 -1.0299 -0.8871
  320SOL     MW 1280   1.024   1.314   2.001  0.2198 -0.5091  0.2439
  321SOL     OW 1281   1.016   0.936   3.040 -0.2536  0.5528 -0.4512
  321SOL    HW1 1282   0.973   0.912   2.956 -2.2219 -1.0563  1.7790
  321SOL    HW2 1283   1.088   0.873   3.052 -1.1969  1.8434 -0.5864
  321SOL     MW 1284   1.020   0.925   3.031 -0.6377  0.5108 -0.1748
  322SOL     OW 1285   1.344   0.860   1.648 -0.2879 -0.2875  0.1039
  322SOL    HW1 1286   1.397   0.779   1.646 -1.6142  0.0413 -1.0957
  322SOL    HW2 1287   1.262   0.837   1.693  0.6512  0.4042  1.3140
  322SOL     MW 1288   1.340   0.846   1.654 -0.3390 -0.1528  0.1053
  323SOL     OW 1289   1.151   1.526   1.903 -0.4748 -0.4305  0.4303
  323SOL    HW1 1290   1.215   1.502   1.834 -1.6943  0.3332 -1.7579
  323SOL    HW2 1291   1.135   1.619   1.895  0.7885  0.3541  3.7975
  323SOL     MW 1292   1.157   1.536   1.893 -0.4690 -0.2262  0.5859
  324SOL     OW 1293   1.441   0.892   2.506 -0.2156 -0.6648  0.0744
  324SOL    HW1 1294   1.396   0.905   2.581  3.6327  1.1359 -2.3172
  324SOL    HW2 1295   1.516   0.957   2.518 -2.7087 -0.9092 -0.2391
  324SOL     MW 1296   1.445   0.903   2.517 -0.0368 -0.4595 -0.2825
  325SOL     OW 1297   1.102   0.545   2.914  0.2473  0.5530  0.2226
  325SOL    HW1 1298   1.110   0.545   3.008  0.9592 -0.7869 -0.1870
  325SOL    HW2 1299   1.004   0.547   2.902 -0.7126  0.9608 -4.9694
  325SOL     MW 1300   1.090   0.545   2.925  0.2146  0.4300 -0.5165
  326SOL     OW 1301   0.382   1.362   2.348 -0.3119  0.0595 -0.5522
  326SOL    HW1 1302   0.471   1.359   2.312  1.2817  2.8548 -1.0573
  326SOL    HW2 1303   0.359   1.460   2.347 -0.8796  2.1485  0.2546
  326SOL     MW 1304   0.390   1.375   2.343 -0.1765  0.7039 -0.5124
  327SOL     OW 1305   1.959   0.747   2.412  0.1081 -0.1278  0.1120
  327SOL    HW1 1306   1.910   0.710   2.488  0.1623  1.3187  1.4040
  327SOL    HW2 1307   1.998   0.825   2.450  0.5198  1.1682  0.0378
  327SOL     MW 1308   1.958   0.752   2.427  0.1695  0.2340  0.2727
  328SOL     OW 1309   0.258   1.337   2.110 -0.4579 -0.2969 -0.3769
  328SOL    HW1 1310   0.187   1.285   2.141  3.2112 -0.2421  0.4169
  328SOL    HW2 1311   0.310   1.340   2.198 -0.2477 -1.1936  3.2769
  328SOL     MW 1312   0.255   1.330   2.126  0.0539 -0.4080  0.2099
  329SOL     OW 1313   0.034   0.144   1.366 -0.2869  0.6670  0.0597
  329SOL    HW1 1314   0.005   0.115   1.454 -0.5294  1.4416 -4.0877
  329SOL    HW2 1315   0.131   0.143   1.354 -0.6332 -0.2496 -2.3149
  329SOL     MW 1316   0.043   0.140   1.376 -0.3646  0.6483 -0.8008
  330SOL     OW 1317   0.335   0.061   1.964  0.4004 -0.2248  0.2445
  330SOL    HW1 1318   0.427   0.079   1.974  0.3241 -0.3721 -0.3043
  330SOL    HW2 1319   0.314  -0.011   2.025 -1.3132 -0.6005 -0.1967
  330SOL     MW 1320   0.344   0.054   1.973  0.1642 -0.2938  0.1139
  331SOL     OW 1321   0.797   1.229   2.396  0.5739 -0.2783  0.4703
  331SOL    HW1 1322   0.719   1.264   2.346  1.1000 -0.7057  1.0801
  331SOL    HW2 1323   0.811   1.312   2.446 -0.2543 -5.3658 -2.0313
  331SOL     MW 1324   0.789   1.244   2.396  0.5340 -1.0060  0.2207
  332SOL     OW 1325   1.355   1.639   2.944 -0.0837 -0.5731 -0.0796
  332SOL    HW1 1326   1.396   1.638   2.860 -2.3908 -0.5339 -0.6480
  332SOL    HW2 1327   1.370   1.729   2.976  2.9917 -0.1654  1.8690
  332SOL     MW 1328   1.363   1.651   2.937  0.0177 -0.5141  0.1025
  333SOL     OW 1329   1.707   1.348   2.928  0.5410 -0.1182  0.1163
  333SOL    HW1 1330   1.802   1.342   2.938 -0.2927  2.0704  3.6309
  333SOL    HW2 1331   1.664   1.289   2.996 -2.7809 -2.1017  0.0624
  333SOL     MW 1332   1.714   1.339   2.938 -0.0073 -0.0912  0.5729
  334SOL     OW 1333   1.325   3.050   2.628  0.0561 -0.5726 -0.6265
  334SOL    HW1 1334   1.243   3.062   2.675  3.0394  2.4152 -1.9008
  334SOL    HW2 1335   1.386   3.110   2.678 -2.1891  0.6588 -0.2310
  334SOL     MW 1336   1.322   3.060   2.641  0.1535 -0.0159 -0.7425
  335SOL     OW 1337   1.262   0.774   3.031  0.1329 -0.1313  0.5970
  335SOL    HW1 1338   1.320   0.716   3.088 -0.4483  3.6141 -3.1379
  335SOL    HW2 1339   1.327   0.806   2.971 -0.8884 -0.6599  2.2291
  335SOL     MW 1340   1.279   0.770   3.030 -0.0785  0.2931  0.3196
  336SOL     OW 1341   0.919   1.106   1.710 -0.5982  0.0752 -0.1734
  336SOL    HW1 1342   0.869   1.138   1.783 -1.8230 -1.8177  0.1285
  336SOL    HW2 1343   0.987   1.045   1.759 -1.0726 -3.1067  3.4905
  336SOL     MW 1344   0.921   1.102   1.727 -0.8224 -0.5944  0.3499
  337SOL     OW 1345   0.519   1.947   2.850  0.7525 -0.2020  0.5118
  337SOL    HW1 1346   0.455   1.962   2.780 -0.9842 -1.6600  1.7367
  337SOL    HW2 1347   0.591   1.893   2.818  1.9071 -1.6977  0.4849
  337SOL     MW 1348   0.520   1.942   2.837  0.6757 -0.5917  0.6698
  338SOL     OW 1349   1.118   0.775   2.464  0.3021 -0.2858 -0.0187
  338SOL    HW1 1350   1.025   0.744   2.464  1.5354  1.8113 -0.9239
  338SOL    HW2 1351   1.155   0.759   2.550  0.0457 -0.4337 -1.0314
  338SOL     MW 1352   1.111   0.769   2.476  0.4310 -0.0286 -0.2717
  339SOL     OW 1353   1.347   1.276   1.909 -0.0740  0.2085  0.6452
  339SOL    HW1 1354   1.344   1.229   1.824 -0.2041  2.3357 -0.9970
  339SOL    HW2 1355   1.331   1.202   1.970 -0.8283 -1.5732 -0.0932
  339SOL     MW 1356   1.344   1.260   1.906 -0.1907  0.2541  0.3311
  340SOL     OW 1357   1.312   1.545   0.102  0.3192  0.1085  0.6195
  340SOL    HW1 1358   1.335   1.574   0.007 -1.3961  1.2723 -3.4506
  340SOL    HW2 1359   1.385   1.490   0.133 -0.2094 -0.5176 -1.9540
  340SOL     MW 1360   1.324   1.541   0.094  0.0232  0.1795 -0.2570
  341SOL     OW 1361   0.103   1.385   2.829 -0.1801  0.2658  0.1906
  341SOL    HW1 1362   0.199   1.389   2.864  1.7979  1.4819  2.2313
  341SOL    HW2 1363   0.111   1.369   2.733 -2.9670 -1.3055 -0.4504
  341SOL     MW 1364   0.117   1.383   2.821 -0.2868  0.2189  0.3753
  342SOL     OW 1365   1.389   0.326   0.023 -0.0943  0.2152 -0.0561
  342SOL    HW1 1366   1.416   0.400   0.069 -0.1506 -1.5265 -2.2655
  342SOL    HW2 1367   1.371   0.355  -0.069  1.3825  0.8166 -1.9981
  342SOL     MW 1368   1.390   0.340   0.017  0.0931  0.0648 -0.6038
  343SOL     OW 1369   0.256   0.275   2.140  0.0204  0.5027 -0.8002
  343SOL    HW1 1370   0.301   0.208   2.090 -0.6168  0.8735 -1.1119
  343SOL    HW2 1371   0.158   0.268   2.118 -0.7032 -0.2308 -3.4564
  343SOL     MW 1372   0.249   0.265   2.131 -0.1592  0.4549 -1.1917
  344SOL     OW 1373   1.681   2.038   0.192 -0.3331  0.1318  0.2248
  344SOL    HW1 1374   1.718   2.088   0.123  0.4246  1.3917 -3.3721
  344SOL    HW2 1375   1.584   2.031   0.170  2.1196 -0.9257  1.8045
  344SOL     MW 1376   1.673   2.043   0.180  0.0905  0.1585 -0.0413
  345SOL     OW 1377   0.639   1.578   2.294 -0.4491 -0.4993 -0.5176
  345SOL    HW1 1378   0.549   1.577   2.265 -0.4403 -2.4002 -1.9900
  345SOL    HW2 1379   0.692   1.583   2.211  0.7230 -1.0358  0.2197
  345SOL     MW 1380   0.634   1.578   2.279 -0.2933 -0.8209 -0.6146
  346SOL     OW 1381   1.665   1.178   0.035 -0.2284  1.0099 -0.5653
  346SOL    HW1 1382   1.741   1.217   0.077  0.3735 -1.6661 -1.7317
  346SOL    HW2 1383   1.647   1.097   0.084  3.1554 -0.3609  3.8434
  346SOL     MW 1384   1.673   1.173   0.047  0.2974  0.4759 -0.1375
  347SOL     OW 1385   1.213   0.693   2.195  0.7659  0.8288  0.0531
  347SOL    HW1 1386   1.219   0.606   2.232 -0.6242  2.9272  0.0520
  347SOL    HW2 1387   1.187   0.741   2.276  2.2779  1.2332 -0.8854
  347SOL     MW 1388   1.211   0.688   2.211  0.7820  1.1590 -0.0708
  348SOL     OW 1389   1.290   2.545   1.939  0.1418 -0.6198 -0.3997
  348SOL    HW1 1390   1.303   2.473   2.009 -2.6351 -3.0432 -0.3344
  348SOL    HW2 1391   1.356   2.613   1.974  0.0609 -0.4488  1.8199
  348SOL     MW 1392   1.300   2.544   1.953 -0.2353 -0.9170 -0.0982
  349SOL     OW 1393   1.457   0.156   2.783 -0.2643 -0.2487  0.2554
  349SOL    HW1 1394   1.407   0.239   2.810 -0.7886 -1.5269  3.1044
  349SOL    HW2 1395   1.458   0.105   2.867 -0.2776 -0.6720 -1.5831
  349SOL     MW 1396   1.451   0.160   2.798 -0.3352 -0.4732  0.3887
  350SOL     OW 1397   1.873   0.616   2.650  0.2733 -0.6455  0.1674
  350SOL    HW1 1398   1.824   0.551   2.597 -1.1307  1.7707 -2.4877
  350SOL    HW2 1399   1.945   0.567   2.705 -1.1671 -0.8170  0.4145
  350SOL     MW 1400   1.876   0.601   2.650 -0.1020 -0.3493 -0.1503
  351SOL     OW 1401   0.116   1.174   1.557  0.1701 -0.6961 -0.3089
  351SOL    HW1 1402   0.105   1.113   1.630  1.1444 -2.5526 -1.1112
  351SOL    HW2 1403   0.153   1.253   1.601  1.1996  0.3968 -2.7651
  351SOL     MW 1404   0.120   1.176   1.572  0.4345 -0.7968 -0.7388
  352SOL     OW 1405   0.744   1.796   2.820  0.1300 -0.2713  0.6413
  352SOL    HW1 1406   0.767   1.764   2.908 -0.2832  0.5776  0.3029
  352SOL    HW2 1407   0.730   1.723   2.760 -1.3669  0.0382 -1.3575
  352SOL     MW 1408   0.745   1.782   2.823 -0.1220 -0.1185  0.3329
  353SOL     OW 1409   3.089   2.572   2.662 -0.0293  0.0312  0.5822
  353SOL    HW1 1410   3.158   2.529   2.611  0.1988 -1.0859 -1.2814
  353SOL    HW2 1411   3.057   2.632   2.597 -1.7485  1.3877  0.7618
  353SOL     MW 1412   3.094   2.574   2.646 -0.2260  0.0628  0.3600
  354SOL     OW 1413   0.345   2.416   0.791 -0.4946 -0.0680 -0.3008
  354SOL    HW1 1414   0.406   2.396   0.861 -3.3514  2.0610  0.3845
  354SOL    HW2 1415   0.269   2.350   0.804 -0.0759  0.3067 -2.0575
  354SOL     MW 1416   0.343   2.405   0.802 -0.8163  0.2623 -0.4422
  355SOL     OW 1417   0.107   2.267   0.404 -0.0362  0.1242 -0.6264
  355SOL    HW1 1418   0.014   2.227   0.390 -1.1992  0.1983  2.2896
  355SOL    HW2 1419   0.109   2.309   0.489 -1.7347 -0.2232 -2.8904
  355SOL     MW 1420   0.095   2.267   0.413 -0.4138  0.0882 -0.5404
  356SOL     OW 1421   0.740   2.959   1.002  0.0467 -0.3586 -0.5481
  356SOL    HW1 1422   0.823   2.968   0.954  1.3006  2.5659  0.5250
  356SOL    HW2 1423   0.678   2.917   0.937  1.4624 -2.2177  0.0950
  356SOL     MW 1424   0.743   2.955   0.987  0.3989 -0.2180 -0.3217
  357SOL     OW 1425   1.869   2.802   0.460  0.7524  0.0699 -0.5099
  357SOL    HW1 1426   1.833   2.769   0.543 -0.7776 -0.5331 -1.2256
  357SOL    HW2 1427   1.943   2.744   0.444  2.6683  1.3196 -0.3096
  357SOL     MW 1428   1.874   2.790   0.469  0.8033  0.1552 -0.5779
  358SOL     OW 1429   0.409   0.123   1.057 -0.3498 -0.5487 -0.3384
  358SOL    HW1 1430   0.506   0.144   1.067  0.5518 -0.2279 -0.3456
  358SOL    HW2 1431   0.390   0.134   0.963 -1.8394 -0.6114  0.5035
  358SOL     MW 1432   0.419   0.127   1.046 -0.4274 -0.5147 -0.2283
  359SOL     OW 1433   0.916   2.937   1.901  0.2611 -0.1543  0.7072
  359SOL    HW1 1434   0.885   2.842   1.907 -1.2602 -0.0049 -0.2467
  359SOL    HW2 1435   0.900   2.951   1.806 -1.6961 -0.7514 -3.1504
  359SOL     MW 1436   0.910   2.926   1.890 -0.1979 -0.2134  0.0723
  360SOL     OW 1437   0.569   2.759   0.902 -0.2138 -0.2245 -0.1235
  360SOL    HW1 1438   0.599   2.726   0.820 -0.0133  0.2937  0.0785
  360SOL    HW2 1439   0.604   2.703   0.967 -0.1451  2.5128  0.4283
  360SOL     MW 1440   0.577   2.747   0.900 -0.1783  0.2051 -0.0241
  361SOL     OW 1441   0.132   2.712   1.337 -0.6989  0.1838 -0.6795
  361SOL    HW1 1442   0.078   2.751   1.401 -0.8529 -2.8782 -2.9413
  361SOL    HW2 1443   0.218   2.744   1.357  0.5752  0.2590 -0.5005
  361SOL     MW 1444   0.136   2.722   1.348 -0.5511 -0.2103 -0.9543
  362SOL     OW 1445   1.397   2.424   0.596  0.2414 -0.0945  0.0352
  362SOL    HW1 1446   1.444   2.354   0.647  0.4096 -1.8640 -1.9143
  362SOL    HW2 1447   1.443   2.510   0.592  0.3890  2.3038 -0.5114
  362SOL     MW 1448   1.409   2.426   0.602  0.2831 -0.0115 -0.2941
  363SOL     OW 1449   0.308   0.006   0.645  0.2440  0.3509 -0.2578
  363SOL    HW1 1450   0.321  -0.071   0.697  1.8718  0.0803 -1.2144
  363SOL    HW2 1451   0.233  -0.019   0.589 -0.5149  0.3184  0.8975
  363SOL     MW 1452   0.300  -0.007   0.644  0.3586  0.3109 -0.2316
  364SOL     OW 1453   0.769   0.230   0.143  0.6502  0.4088 -0.0811
  364SOL    HW1 1454   0.727   0.143   0.162 -1.0013 -1.5724  1.6096
  364SOL    HW2 1455   0.691   0.294   0.135  1.4023  0.2869  0.3849
  364SOL     MW 1456   0.753   0.227   0.145  0.5316  0.1313  0.2035
  365SOL     OW 1457   0.874   1.999   1.285 -0.2784 -0.9003  0.3542
  365SOL    HW1 1458   0.871   2.074   1.223  2.8162 -0.1065  0.7086
  365SOL    HW2 1459   0.851   1.923   1.226  0.9544  1.2582 -0.0030
  365SOL     MW 1460   0.871   1.998   1.269  0.2926 -0.5108  0.3538
  366SOL     OW 1461   2.878   2.656   0.941 -0.5545 -0.0049  0.2091
  366SOL    HW1 1462   2.962   2.637   0.998  0.2231 -0.0753  1.9795
  366SOL    HW2 1463   2.909   2.681   0.851  1.7352 -0.3427  1.9725
  366SOL     MW 1464   2.894   2.657   0.937 -0.1498 -0.0587  0.6753
  367SOL     OW 1465   1.310   3.053   0.995  0.6341  0.4217 -0.7848
  367SOL    HW1 1466   1.392   3.081   1.024  2.2491 -2.1123  0.1109
  367SOL    HW2 1467   1.327   3.064   0.903  0.9991  3.0054 -0.3539
  367SOL     MW 1468   1.323   3.058   0.986  0.8953  0.4282 -0.6097
  368SOL     OW 1469   1.710   0.386   0.596  0.0957 -0.5505 -0.0486
  368SOL    HW1 1470   1.793   0.345   0.562  1.2305 -1.3225 -3.2003
  368SOL    HW2 1471   1.710   0.474   0.560  0.6665 -3.3511  1.1822
  368SOL     MW 1472   1.721   0.392   0.587  0.3207 -1.0218 -0.3021
  369SOL     OW 1473   0.158   2.421   1.751  0.0798  0.7637 -0.0451
  369SOL    HW1 1474   0.253   2.391   1.743  0.3111 -0.8989  0.3527
  369SOL    HW2 1475   0.162   2.515   1.735  2.1969  1.3783  0.7010
  369SOL     MW 1476   0.171   2.430   1.748  0.3896  0.6254  0.1058
  370SOL     OW 1477   0.678   0.136   1.067 -0.6480 -0.0654 -0.1055
  370SOL    HW1 1478   0.710   0.194   0.998 -0.0069  2.2881 -0.2069
  370SOL    HW2 1479   0.716   0.054   1.032 -1.4757  0.6719 -1.2326
  370SOL     MW 1480   0.688   0.133   1.053 -0.6726  0.3424 -0.2676
  371SOL     OW 1481   1.116   2.905   1.486 -0.7615 -0.2182  0.5903
  371SOL    HW1 1482   1.123   2.810   1.477  1.3165  1.1048 -0.1857
  371SOL    HW2 1483   1.070   2.939   1.409  1.4423  1.1863  1.3975
  371SOL     MW 1484   1.111   2.897   1.474 -0.1966  0.1416  0.5944
  372SOL     OW 1485   0.813   2.307   0.460 -0.2112 -0.3787 -0.1747
  372SOL    HW1 1486   0.773   2.226   0.496 -0.0853 -0.0694 -0.9677
  372SOL    HW2 1487   0.863   2.287   0.382  0.1259  1.0391 -0.0615
  372SOL     MW 1488   0.814   2.294   0.455 -0.1501 -0.1508 -0.2644
  373SOL     OW 1489   2.795   2.980   1.417 -0.3007  0.1237 -0.1430
  373SOL    HW1 1490   2.876   2.939   1.399 -0.6014 -1.8442 -0.3015
  373SOL    HW2 1491   2.785   3.034   1.342  0.7203  0.0730 -0.3015
  373SOL     MW 1492   2.804   2.982   1.404 -0.2056 -0.1427 -0.1848
  374SOL     OW 1493   1.590   0.457   0.239 -0.3568 -0.2769 -0.3189
  374SOL    HW1 1494   1.682   0.424   0.231  1.3101  0.0606 -0.0698
  374SOL    HW2 1495   1.552   0.409   0.310 -0.4016 -0.5774  1.9459
  374SOL     MW 1496   1.597   0.446   0.247 -0.1428 -0.2721  0.0128
  375SOL     OW 1497   1.103   2.023   2.194 -0.2465 -0.7577 -0.7265
  375SOL    HW1 1498   1.121   2.020   2.290 -1.4436  2.3187 -2.3602
  375SOL    HW2 1499   1.028   1.965   2.173 -1.2207  1.1260  0.8178
  375SOL     MW 1500   1.096   2.015   2.204 -0.5330 -0.1033 -0.7383
  376SOL     OW 1501   0.855   2.530   0.135  0.0707  0.3927 -0.8875
  376SOL    HW1 1502   0.814   2.458   0.196  0.6605 -0.8608  3.8892
  376SOL    HW2 1503   0.847   2.498   0.041 -0.8601 -0.9376 -1.5942
  376SOL     MW 1504   0.848   2.516   0.131  0.0257  0.0518 -0.3505
  377SOL     OW 1505   1.346   2.083   0.959 -0.5884 -0.0615  0.4670
  377SOL    HW1 1506   1.274   2.049   0.907  1.0638 -0.0769  0.1193
  377SOL    HW2 1507   1.325   2.078   1.049  1.2732 -1.2871  2.8131
  377SOL     MW 1508   1.334   2.078   0.964 -0.1248 -0.2253  0.7307
  378SOL     OW 1509   0.882   2.856   1.620 -0.0444 -0.4784 -0.6650
  378SOL    HW1 1510   0.883   2.759   1.608  0.9257 -2.3732 -0.9397
  378SOL    HW2 1511   0.971   2.892   1.603  2.4250  2.5962 -1.4456
  378SOL     MW 1512   0.894   2.848   1.616  0.4094 -0.3227 -0.8042
  379SOL     OW 1513   1.070   1.554   2.309  0.2564 -0.2011  0.1882
  379SOL    HW1 1514   1.006   1.550   2.239 -2.3183 -1.6456  2.6056
  379SOL    HW2 1515   1.149   1.533   2.252 -0.5214  3.5500 -1.4056
  379SOL     MW 1516   1.072   1.551   2.292 -0.1859  0.1032  0.2969
  380SOL     OW 1517   0.917   0.145   1.533 -0.4244  0.3266 -0.3034
  380SOL    HW1 1518   0.926   0.075   1.461 -2.2355 -0.9852  0.9550
  380SOL    HW2 1519   0.967   0.115   1.615  0.4220  1.5120 -0.2115
  380SOL     MW 1520   0.925   0.132   1.534 -0.5517  0.3099 -0.1252
  381SOL     OW 1521   0.851   2.066   0.894  0.5353 -0.0907 -0.3322
  381SOL    HW1 1522   0.934   2.085   0.846 -1.3186  1.1172  0.2995
  381SOL    HW2 1523   0.847   2.129   0.967 -1.5490  0.5168 -3.2800
  381SOL     MW 1524   0.861   2.077   0.897  0.0157  0.1489 -0.6378
  382SOL     OW 1525   0.859   0.137   0.578 -0.5031  0.2932 -0.4521
  382SOL    HW1 1526   0.848   0.135   0.677  1.2346  1.8068  0.0290
  382SOL    HW2 1527   0.811   0.062   0.546 -2.9043 -0.4904  0.0685
  382SOL     MW 1528   0.851   0.127   0.587 -0.5907  0.3895 -0.3200
  383SOL     OW 1529   0.657   0.009   0.288  0.1956  0.0357 -0.5752
  383SOL    HW1 1530   0.698  -0.066   0.251 -0.8609  0.3849 -0.1906
  383SOL    HW2 1531   0.596  -0.024   0.350  2.2642  4.2150 -0.7200
  383SOL     MW 1532   0.655  -0.005   0.291  0.3291  0.6332 -0.5435
  384SOL     OW 1533   0.797   2.955   0.611  0.5331 -0.2217  0.1582
  384SOL    HW1 1534   0.821   2.972   0.705 -0.0380 -0.9994 -1.5504
  384SOL    HW2 1535   0.739   2.880   0.618  0.5479  1.0404 -0.3013
  384SOL     MW 1536   0.793   2.947   0.624  0.4597 -0.1578 -0.1279
  385SOL     OW 1537   1.393   2.050   1.548  0.4518 -0.2562  0.2894
  385SOL    HW1 1538   1.471   2.072   1.612  0.1730  1.6232  2.8613
  385SOL    HW2 1539   1.357   1.971   1.595 -2.7551 -1.3564 -0.3714
  385SOL     MW 1540   1.399   2.042   1.563 -0.0081 -0.1534  0.5415
  386SOL     OW 1541   1.459   0.383   0.851  0.3118  0.4957  0.4351
  386SOL    HW1 1542   1.425   0.426   0.930 -1.6135 -2.0405 -0.3036
  386SOL    HW2 1543   1.553   0.377   0.862 -0.3894 -0.8204 -0.5329
  386SOL     MW 1544   1.467   0.388   0.863 -0.0347 -0.0125  0.2099
  387SOL     OW 1545   0.829   2.262   1.571  0.3620 -0.6801  0.0104
  387SOL    HW1 1546   0.919   2.282   1.528  0.5749  0.3117 -0.7584
  387SOL    HW2 1547   0.827   2.170   1.572  0.0284  2.3336 -0.3367
  387SOL     MW 1548   0.841   2.252   1.566  0.3461 -0.1517 -0.1368
  388SOL     OW 1549   1.484   2.795   1.501  0.8469 -0.2660  0.3296
  388SOL    HW1 1550   1.449   2.859   1.442  0.0983 -0.6607  2.7042
  388SOL    HW2 1551   1.550   2.743   1.452  0.9496 -0.7425  0.2037
  388SOL     MW 1552   1.488   2.797   1.487  0.7617 -0.3809  0.6263
  389SOL     OW 1553   0.434   0.095   3.051 -1.0370  0.4131  0.1032
  389SOL    HW1 1554   0.496   0.024   3.017 -0.6703 -2.6057  1.2480
  389SOL    HW2 1555   0.424   0.165   2.985  2.1663  0.0590  1.4207
  389SOL     MW 1556   0.441   0.095   3.038 -0.5660 -0.0319  0.4281
  390SOL     OW 1557   1.374   3.088   0.717  0.0345 -0.2757  0.5194
  390SOL    HW1 1558   1.382   3.028   0.641 -1.9515 -1.8933  0.9284
  390SOL    HW2 1559   1.460   3.134   0.737 -2.9580 -0.7542 -0.6174
  390SOL     MW 1560   1.386   3.086   0.710 -0.6223 -0.5522  0.4234
  391SOL     OW 1561   0.306   2.149   1.503 -0.0042 -0.3394  0.0785
  391SOL    HW1 1562   0.315   2.130   1.596 -0.0801  4.3914 -1.7924
  391SOL    HW2 1563   0.259   2.236   1.502  1.5092  1.2322  0.5613
  391SOL     MW 1564   0.301   2.158   1.515  0.1854  0.4922 -0.1047
  392SOL     OW 1565   1.957   2.101   0.327  0.1614 -0.8689  0.2885
  392SOL    HW1 1566   2.009   2.178   0.346 -0.6440 -1.0220 -1.7279
  392SOL    HW2 1567   1.863   2.127   0.335 -0.8312 -0.5433 -0.0871
  392SOL     MW 1568   1.951   2.114   0.330 -0.0758 -0.8462 -0.0271
  393SOL     OW 1569   0.252   2.955   2.791  0.8001  0.0494 -0.1558
  393SOL    HW1 1570   0.342   2.942   2.769 -0.6491 -0.5431  0.1115
  393SOL    HW2 1571   0.246   3.048   2.810  1.1876  0.3368  1.6300
  393SOL     MW 1572   0.263   2.965   2.791  0.6600  0.0092  0.1151
  394SOL     OW 1573   0.961   1.769   1.594 -0.4866  0.1499  1.0338
  394SOL    HW1 1574   0.996   1.771   1.679 -2.1709  1.4267  0.7700
  394SOL    HW2 1575   0.929   1.855   1.577  1.0856  0.1990  0.0203
  394SOL     MW 1576   0.961   1.780   1.603 -0.5014  0.3249  0.8653
  395SOL     OW 1577   0.956   2.937   2.714 -0.0476  0.0483 -0.1156
  395SOL    HW1 1578   1.010   3.004   2.760  0.5599 -2.6856 -3.7439
  395SOL    HW2 1579   1.009   2.857   2.685 -0.1602 -2.2535 -1.7546
  395SOL     MW 1580   0.970   2.935   2.716  0.0177 -0.6161 -0.8106
  396SOL     OW 1581   0.704   1.908   2.371 -0.4325  0.8705  0.5958
  396SOL    HW1 1582   0.770   1.876   2.435  1.2454  0.3068 -0.4406
  396SOL    HW2 1583   0.676   1.826   2.326  2.0371 -0.2576  1.3592
  396SOL     MW 1584   0.709   1.893   2.374  0.1147  0.6473  0.5598
  397SOL     OW 1585   1.037   2.294   1.411  0.3590  0.2430  0.6133
  397SOL    HW1 1586   1.074   2.306   1.327  0.0029  0.7864  0.0875
  397SOL    HW2 1587   1.126   2.296   1.462  0.9595 -1.8944 -0.9580
  397SOL     MW 1588   1.053   2.296   1.407  0.3912  0.0327  0.3366
  398SOL     OW 1589   0.666   2.706   0.661  0.3946 -0.3858 -0.3059
  398SOL    HW1 1590   0.621   2.713   0.573 -2.4752 -1.0455  1.6659
  398SOL    HW2 1591   0.718   2.625   0.669 -0.5859  0.6491 -2.3061
  398SOL     MW 1592   0.667   2.696   0.650 -0.1134 -0.3363 -0.3096
  399SOL     OW 1593   0.328   2.047   0.395 -0.2180  0.0983 -0.0844
  399SOL    HW1 1594   0.257   2.108   0.390 -0.5087  1.5866 -0.3917
  399SOL    HW2 1595   0.399   2.087   0.339  0.2790 -1.7720 -2.7192
  399SOL     MW 1596   0.328   2.060   0.387 -0.1908  0.0479 -0.4725
  400SOL     OW 1597   0.602   1.946   0.132  0.0568  0.5587  0.0405
  400SOL    HW1 1598   0.575   2.040   0.166  0.2942  0.6226  0.7921
  400SOL    HW2 1599   0.565   1.895   0.206 -1.6115 -1.5368  0.4884
  400SOL     MW 1600   0.594   1.952   0.146 -0.1320  0.2907  0.1987
  401SOL     OW 1601   0.836   2.009   3.092 -0.0403 -0.1762  0.1307
  401SOL    HW1 1602   0.913   1.951   3.100 -2.5363 -1.5279  3.7387
  401SOL    HW2 1603   0.770   1.966   3.150  1.4227  0.8025  3.6987
  401SOL     MW 1604   0.837   1.996   3.101 -0.1766 -0.2254  1.0775
  402SOL     OW 1605   0.592   3.023   1.849 -0.6058  0.1362  0.5362
  402SOL    HW1 1606   0.665   3.007   1.910  0.2506  0.7061  0.2594
  402SOL    HW2 1607   0.638   3.020   1.764  2.9767  1.0109  0.1224
  402SOL     MW 1608   0.608   3.020   1.846 -0.0201  0.3268  0.4451
  403SOL     OW 1609   0.143   0.492   0.431 -0.0554 -0.0770  0.1209
  403SOL    HW1 1610   0.229   0.520   0.470 -1.4287  0.0767 -1.3420
  403SOL    HW2 1611   0.167   0.444   0.355 -2.6612 -0.8629  0.3648
  403SOL     MW 1612   0.158   0.489   0.426 -0.5804 -0.1604 -0.0399
  404SOL     OW 1613   0.958   2.977   0.828  0.4989 -0.0359  0.2581
  404SOL    HW1 1614   1.031   2.912   0.825 -1.0360  1.5839 -0.5712
  404SOL    HW2 1615   1.007   3.062   0.811  1.3131  0.3399 -2.1189
  404SOL     MW 1616   0.974   2.980   0.825  0.4038  0.2274 -0.1649
  405SOL     OW 1617   0.522   2.495   1.505 -0.0114  0.8303 -0.7516
  405SOL    HW1 1618   0.564   2.569   1.476 -1.0270 -0.4309  0.8901
  405SOL    HW2 1619   0.547   2.424   1.447 -1.1159  1.6682  2.5158
  405SOL     MW 1620   0.531   2.496   1.494 -0.2911  0.7745 -0.1039
  406SOL     OW 1621   0.446   2.332   1.086 -0.6920 -0.5652 -0.2040
  406SOL    HW1 1622   0.351   2.343   1.116 -1.4608 -2.7205  2.8417
  406SOL    HW2 1623   0.471   2.249   1.134 -0.7017 -1.2675 -0.6302
  406SOL     MW 1624   0.437   2.323   1.096 -0.7947 -0.9422  0.1416
  407SOL     OW 1625   0.053   2.630   1.107 -0.2633 -0.2250 -0.0026
  407SOL    HW1 1626   0.088   2.648   1.199  0.2772 -0.5326  2.1543
  407SOL    HW2 1627   0.119   2.649   1.038  0.0879  1.7142  0.6341
  407SOL     MW 1628   0.067   2.635   1.110 -0.1456 -0.0097  0.3660
  408SOL     OW 1629   2.119   2.180   0.702 -0.1723 -0.0386  0.2796
  408SOL    HW1 1630   2.073   2.215   0.784 -1.8592  0.0154  0.0599
  408SOL    HW2 1631   2.058   2.128   0.643 -2.4006  1.0117  0.2135
  408SOL     MW 1632   2.105   2.178   0.705 -0.6889  0.1071  0.2419
  409SOL     OW 1633   1.603   0.081   0.847  0.2784 -0.1946 -0.2363
  409SOL    HW1 1634   1.667   0.149   0.842 -0.0574 -0.6055 -1.5147
  409SOL    HW2 1635   1.603   0.052   0.938  0.2145 -2.3667  1.2324
  409SOL     MW 1636   1.611   0.086   0.858  0.2257 -0.5354 -0.2112
  410SOL     OW 1637   1.077   2.448   1.178  0.0868  0.2052  0.3453
  410SOL    HW1 1638   1.007   2.451   1.113  0.5300  0.3513  1.6564
  410SOL    HW2 1639   1.156   2.431   1.131 -0.9966 -1.3301 -1.5133
  410SOL     MW 1640   1.078   2.446   1.164  0.0023  0.0219  0.2731
  411SOL     OW 1641   1.994   2.919   2.941 -0.3816 -0.1656  0.7398
  411SOL    HW1 1642   2.009   2.924   2.843  1.0239  0.3722 -0.6375
  411SOL    HW2 1643   1.955   3.002   2.970  1.7530 -0.4698 -1.1048
  411SOL     MW 1644   1.991   2.930   2.932  0.0855 -0.1348  0.3147
  412SOL     OW 1645   1.030   2.241   0.610  0.9074  0.1607  0.5074
  412SOL    HW1 1646   1.070   2.312   0.662  1.6168 -1.5571 -0.0320
  412SOL    HW2 1647   0.954   2.283   0.577  0.5871  1.5814 -0.1585
  412SOL     MW 1648   1.025   2.256   0.612  0.9587  0.1215  0.3484
  413SOL     OW 1649   0.615   2.680   0.025 -0.2653 -0.1056  0.3296
  413SOL    HW1 1650   0.675   2.630   0.083 -0.4294  0.7491  0.0277
  413SOL    HW2 1651   0.618   2.653  -0.066 -0.4247 -1.6961  1.2167
  413SOL     MW 1652   0.623   2.670   0.020 -0.3080 -0.2027  0.4068
  414SOL     OW 1653   2.048   2.990   1.097  0.4858  0.0718 -0.1004
  414SOL    HW1 1654   2.103   3.068   1.097 -1.6150  2.9415 -1.7462
  414SOL    HW2 1655   2.034   2.987   1.000  1.0082  1.2943 -0.7388
  414SOL     MW 1656   2.053   3.000   1.084  0.2775  0.6117 -0.4018
  415SOL     OW 1657   1.646   2.854   1.160  0.2855  0.0554  0.3027
  415SOL    HW1 1658   1.718   2.858   1.226 -1.1334  1.0060  0.8462
  415SOL    HW2 1659   1.668   2.784   1.095 -1.9389  1.6095 -0.7966
  415SOL     MW 1660   1.658   2.845   1.160 -0.1952  0.3858  0.2294
  416SOL     OW 1661   0.648   1.788   1.427  0.7113 -0.4791  0.1082
  416SOL    HW1 1662   0.555   1.796   1.423 -1.6427  1.5535 -3.0759
  416SOL    HW2 1663   0.677   1.709   1.387  1.9660  0.6552 -0.3406
  416SOL     MW 1664   0.639   1.779   1.421  0.5662 -0.0612 -0.3711
  417SOL     OW 1665   0.919   0.053   2.088 -0.0482  0.3544  0.6413
  417SOL    HW1 1666   0.856   0.040   2.154 -1.3431  0.5610 -0.9907
  417SOL    HW2 1667   0.900  -0.012   2.026  2.7225 -1.2284  1.5353
  417SOL     MW 1668   0.908   0.043   2.088  0.1465  0.1728  0.5439
  418SOL     OW 1669   0.772   2.865   0.199 -0.6354 -0.5140 -0.1946
  418SOL    HW1 1670   0.825   2.818   0.133  0.0705 -0.8716 -1.1739
  418SOL    HW2 1671   0.689   2.841   0.162  1.3946 -0.3053  2.4656
  418SOL     MW 1672   0.768   2.856   0.185 -0.2744 -0.5337  0.0271
  419SOL     OW 1673   0.636   2.691   1.336  0.0950 -0.0520  0.5221
  419SOL    HW1 1674   0.636   2.785   1.358 -0.5954  2.4186  1.1111
  419SOL    HW2 1675   0.729   2.677   1.340 -0.5406 -0.9639 -2.3143
  419SOL     MW 1676   0.649   2.702   1.340 -0.0799  0.1536  0.2256
  420SOL     OW 1677   0.828   2.228   1.129 -0.4321  0.2850  0.7050
  420SOL    HW1 1678   0.774   2.261   1.200  2.1977  1.3639 -1.4572
  420SOL    HW2 1679   0.860   2.304   1.082  1.2918 -2.4741 -0.3647
  420SOL     MW 1680   0.825   2.242   1.132  0.1423  0.0633  0.2786
  421SOL     OW 1681   2.928   0.125   0.075 -0.0471 -0.1521 -0.2247
  421SOL    HW1 1682   2.842   0.103   0.046  0.4456  0.7168  1.6102
  421SOL    HW2 1683   2.999   0.062   0.050 -2.5661  2.2225 -0.3821
  421SOL     MW 1684   2.926   0.114   0.068 -0.3144  0.2758 -0.0033
  422SOL     OW 1685   0.904   2.445   0.970 -0.0729  0.1232 -0.0291
  422SOL    HW1 1686   0.820   2.482   0.970  1.6454 -2.8293 -2.5055
  422SOL    HW2 1687   0.938   2.478   0.886 -0.2321  0.3138 -0.5808
  422SOL     MW 1688   0.897   2.454   0.959  0.1328 -0.2412 -0.4286
  423SOL     OW 1689   1.541   0.041   0.489  0.5793  0.2435  0.1180
  423SOL    HW1 1690   1.600   0.022   0.418 -0.6517 -1.5755 -2.5664
  423SOL    HW2 1691   1.528   0.133   0.478  0.6003 -0.9269 -0.8604
  423SOL     MW 1692   1.547   0.051   0.478  0.4196 -0.1509 -0.3652
  424SOL     OW 1693   0.641   2.306   1.338  0.3110  0.1762  0.0772
  424SOL    HW1 1694   0.561   2.257   1.316  0.5967  0.3041 -2.5212
  424SOL    HW2 1695   0.685   2.268   1.415 -0.9917  0.4069  0.7715
  424SOL     MW 1696   0.636   2.294   1.345  0.1768  0.2235 -0.1740
  425SOL     OW 1697   1.732   2.808   2.052  0.3707  0.5599  0.0941
  425SOL    HW1 1698   1.741   2.817   1.952 -0.6547  1.4150 -0.9357
  425SOL    HW2 1699   1.768   2.720   2.069 -1.7561 -1.8584 -3.1381
  425SOL     MW 1700   1.738   2.797   2.041 -0.0452  0.3536 -0.4682
  426SOL     OW 1701   0.839   1.720   1.939 -0.2434  0.6709  0.1038
  426SOL    HW1 1702   0.764   1.721   1.876 -1.1391  3.3550  2.1179
  426SOL    HW2 1703   0.805   1.782   1.999  1.3274  4.2712 -0.8458
  426SOL     MW 1704   0.825   1.729   1.939 -0.1543  1.5001  0.2443
  427SOL     OW 1705   0.379   1.751   1.882  0.7337  0.0753 -0.1200
  427SOL    HW1 1706   0.421   1.694   1.819  0.3771  4.4634  1.4355
  427SOL    HW2 1707   0.333   1.686   1.942  1.2170 -0.0419  3.4274
  427SOL     MW 1708   0.378   1.735   1.881  0.7504  0.6388  0.5533
  428SOL     OW 1709   0.639   2.542   1.088  0.0784  0.3474 -0.6062
  428SOL    HW1 1710   0.570   2.472   1.088 -1.3268  0.6346 -1.4906
  428SOL    HW2 1711   0.640   2.570   1.174  1.5301 -3.3980 -0.4449
  428SOL     MW 1712   0.630   2.536   1.099  0.0845 -0.1089 -0.7016
  429SOL     OW 1713   1.217   2.804   1.067  0.6820  0.4917 -0.5662
  429SOL    HW1 1714   1.123   2.805   1.095  1.7761  1.4928 -0.5230
  429SOL    HW2 1715   1.245   2.893   1.050  2.7139 -0.5804  0.8556
  429SOL     MW 1716   1.208   2.816   1.069  1.0945  0.4823 -0.3729
  430SOL     OW 1717   1.193   2.817   0.795  0.0858 -0.0966  0.0767
  430SOL    HW1 1718   1.194   2.781   0.884  2.8819 -0.7691 -0.3617
  430SOL    HW2 1719   1.134   2.769   0.736  0.3451  0.7448 -2.8455
  430SOL     MW 1720   1.185   2.806   0.799  0.4889 -0.0743 -0.3667
  431SOL     OW 1721   0.341   1.903   1.126  0.4037 -0.3165  0.3024
  431SOL    HW1 1722   0.414   1.837   1.134  3.0396  0.4841  0.3269
  431SOL    HW2 1723   0.363   1.946   1.040  0.9703 -0.5598 -1.8329
  431SOL     MW 1724   0.354   1.900   1.116  0.8262 -0.2430  0.0239
  432SOL     OW 1725   0.019   0.004   1.123  0.3257 -0.0850  0.1392
  432SOL    HW1 1726  -0.017   0.070   1.186 -5.1341 -1.6636  0.9298
  432SOL    HW2 1727  -0.038  -0.071   1.138  2.0549  4.9598 -3.0131
  432SOL     MW 1728   0.007   0.003   1.134 -0.1665  0.3724 -0.1724
  433SOL     OW 1729   0.641   2.920   1.493  0.0656 -0.2723 -0.2194
  433SOL    HW1 1730   0.640   3.016   1.497 -0.6916 -1.3308 -2.4227
  433SOL    HW2 1731   0.722   2.879   1.530  0.9390 -0.4582  2.2155
  433SOL     MW 1732   0.652   2.927   1.499  0.0809 -0.4365 -0.1888
  434SOL     OW 1733   1.477   2.799   1.792 -0.0685 -0.5667  0.2805
  434SOL    HW1 1734   1.396   2.822   1.833  0.6574 -0.0233  2.5836
  434SOL    HW2 1735   1.459   2.818   1.697  0.8369 -1.0920 -0.7146
  434SOL     MW 1736   1.464   2.804   1.785  0.1468 -0.5643  0.4531
  435SOL     OW 1737   2.688   1.788   0.281 -0.0310 -0.2574 -0.3570
  435SOL    HW1 1738   2.729   1.786   0.196 -1.7468  0.9605  2.9813
  435SOL    HW2 1739   2.602   1.817   0.255 -2.2139  0.1454 -1.3269
  435SOL     MW 1740   2.682   1.791   0.266 -0.5454 -0.0436 -0.0445
  436SOL     OW 1741   1.371   2.749   0.356  0.5244 -0.2255  0.5923
  436SOL    HW1 1742   1.419   2.712   0.426 -1.3510  0.5044 -1.8881
  436SOL    HW2 1743   1.370   2.843   0.362 -1.4432 -1.9287  0.6821
  436SOL     MW 1744   1.377   2.757   0.366  0.0174 -0.3539  0.2768
  437SOL     OW 1745   0.907   3.089   1.304 -0.1558  0.9665  0.1263
  437SOL    HW1 1746   0.966   3.125   1.233  2.3497  1.8916  1.9566
  437SOL    HW2 1747   0.864   3.013   1.267 -1.1478 -1.0985 -1.7778
  437SOL     MW 1748   0.909   3.083   1.290  0.0439  0.8161  0.1166
  438SOL     OW 1749   0.858   2.689   1.991 -0.3614  0.0770  0.1942
  438SOL    HW1 1750   0.869   2.626   2.065  1.7766 -1.3156  2.6768
  438SOL    HW2 1751   0.809   2.632   1.935  2.2125  0.6826  1.4532
  438SOL     MW 1752   0.853   2.673   1.993  0.2603 -0.0268  0.6879
  439SOL     OW 1753   1.156   2.065   0.443 -0.1705  0.3621 -0.4547
  439SOL    HW1 1754   1.107   2.121   0.507  0.4682  0.8721  0.5726
  439SOL    HW2 1755   1.182   2.127   0.374  0.1820 -1.6738  0.1940
  439SOL     MW 1756   1.153   2.081   0.442 -0.0397  0.1608 -0.2336
  440SOL     OW 1757   1.805   2.744   3.019  0.4933 -0.0577  0.1389
  440SOL    HW1 1758   1.809   2.758   3.117  2.6361 -0.4409  1.0207
  440SOL    HW2 1759   1.877   2.786   2.976  1.8386  1.1062 -0.5278
  440SOL     MW 1760   1.815   2.751   3.026  0.9535  0.0453  0.1673
  441SOL     OW 1761   0.502   2.719   0.435  0.4465 -0.6746  0.8419
  441SOL    HW1 1762   0.471   2.675   0.350  2.0542  0.1856  0.0361
  441SOL    HW2 1763   0.510   2.806   0.414 -0.6322 -3.2924  1.8121
  441SOL     MW 1764   0.499   2.725   0.421  0.5163 -0.9065  0.8636
  442SOL     OW 1765   0.037   2.388   0.627  0.2378  1.0368  0.1884
  442SOL    HW1 1766   0.038   2.476   0.596 -0.2225 -2.2011  2.3903
  442SOL    HW2 1767  -0.054   2.360   0.640  0.7722 -0.2868  0.4549
  442SOL     MW 1768   0.025   2.396   0.624  0.2476  0.4349  0.5141
  443SOL     OW 1769   1.471   1.796   1.953 -0.1788 -0.0750 -0.1001
  443SOL    HW1 1770   1.426   1.816   1.872  0.6314 -1.3588  0.4479
  443SOL    HW2 1771   1.497   1.706   1.944  2.1516 -0.7574  0.9555
  443SOL     MW 1772   1.469   1.787   1.941  0.2355 -0.3344  0.1115
  444SOL     OW 1773   0.921   2.590   1.600 -0.2862  0.1844  0.6281
  444SOL    HW1 1774   0.996   2.563   1.652 -0.0410 -0.6420  2.4017
  444SOL    HW2 1775   0.856   2.553   1.655  0.7556  0.5196 -0.8958
  444SOL     MW 1776   0.922   2.582   1.614 -0.1164  0.1196  0.6611
  445SOL     OW 1777   1.184   0.084   1.377 -0.7288  0.0469  0.3932
  445SOL    HW1 1778   1.131   0.119   1.446  0.3977  1.5904  0.2615
  445SOL    HW2 1779   1.218   0.161   1.332 -2.8620 -0.0217 -0.9164
  445SOL     MW 1780   1.182   0.099   1.380 -0.8616  0.2415  0.2031
  446SOL     OW 1781   2.686   2.836   1.059 -0.2382 -0.5340 -0.1416
  446SOL    HW1 1782   2.664   2.906   0.994  0.7680 -0.9243 -0.6046
  446SOL    HW2 1783   2.735   2.774   1.004 -1.8698 -0.1738 -3.4648
  446SOL     MW 1784   2.690   2.837   1.043 -0.3207 -0.5380 -0.6412
  447SOL     OW 1785   0.069   1.966   1.557  0.3422  0.2679 -0.0746
  447SOL    HW1 1786   0.100   1.908   1.631  1.4062 -1.7215  0.9058
  447SOL    HW2 1787  -0.012   1.926   1.528  2.2782  3.0714 -1.7428
  447SOL     MW 1788   0.062   1.953   1.563  0.7380  0.3753 -0.1654
  448SOL     OW 1789   1.687   2.333   1.666  0.0409  0.4536 -0.1652
  448SOL    HW1 1790   1.644   2.249   1.669  2.8642  1.0246 -0.3594
  448SOL    HW2 1791   1.628   2.399   1.703 -2.5519 -1.1698  1.2255
  448SOL     MW 1792   1.673   2.331   1.671  0.0713  0.3148 -0.0073
  449SOL     OW 1793   0.948   2.896   0.404 -0.3090  0.0811 -0.0910
  449SOL    HW1 1794   0.888   2.865   0.335 -2.2453  2.1190 -0.8843
  449SOL    HW2 1795   0.890   2.949   0.465 -0.0830  0.7111  1.1697
  449SOL     MW 1796   0.933   2.899   0.403 -0.5347  0.4331 -0.0294
  450SOL     OW 1797   1.183   2.500   0.773  0.4435 -0.9836  0.9314
  450SOL    HW1 1798   1.213   2.455   0.850  2.9522  3.0832 -1.4440
  450SOL    HW2 1799   1.257   2.483   0.709  0.0474 -2.5387  0.0680
  450SOL     MW 1800   1.197   2.491   0.775  0.7223 -0.6522  0.5041
  451SOL     OW 1801   0.539   2.001   1.689 -0.4189 -0.3363 -0.2826
  451SOL    HW1 1802   0.603   2.050   1.631 -0.8177  2.5136 -0.9978
  451SOL    HW2 1803   0.470   1.966   1.635  0.3930 -0.7652  0.8957
  451SOL     MW 1804   0.538   2.003   1.674 -0.3644 -0.0169 -0.2215
  452SOL     OW 1805   0.288   2.634   0.006 -0.6312  0.5031  0.1398
  452SOL    HW1 1806   0.382   2.653  -0.014 -1.2165  0.1861  0.4532
  452SOL    HW2 1807   0.224   2.696  -0.022  0.7464  1.2540  0.7376
  452SOL     MW 1808   0.292   2.645  -0.000 -0.5266  0.5603  0.2601
  453SOL     OW 1809   0.200   2.983   1.581 -0.1277 -0.2109  0.1008
  453SOL    HW1 1810   0.222   2.964   1.673 -2.2218  1.5689  1.2162
  453SOL    HW2 1811   0.259   2.940   1.523 -0.6481 -0.8731  0.8949
  453SOL     MW 1812   0.210   2.975   1.586 -0.4727 -0.0634  0.3528
  454SOL     OW 1813   0.959   2.784   1.181 -0.1986  0.3648 -0.0464
  454SOL    HW1 1814   0.936   2.702   1.224 -0.4415 -2.4003 -0.1229
  454SOL    HW2 1815   0.884   2.812   1.130 -1.4108  0.6847  0.8092
  454SOL     MW 1816   0.946   2.777   1.180 -0.3906  0.0422  0.0564
  455SOL     OW 1817   1.753   2.818   0.187  0.1232 -0.8321  0.2659
  455SOL    HW1 1818   1.791   2.811   0.278 -3.3224  1.6755  0.5220
  455SOL    HW2 1819   1.682   2.756   0.180 -0.7934  0.2188 -1.1322
  455SOL     MW 1820   1.749   2.809   0.198 -0.4523 -0.3626  0.1152
  456SOL     OW 1821   2.763   0.246   1.468  0.2664 -0.3246 -0.1047
  456SOL    HW1 1822   2.740   0.190   1.391  0.1939 -0.9632  0.6775
  456SOL    HW2 1823   2.829   0.305   1.434  0.2056 -0.9902 -0.9543
  456SOL     MW 1824   2.769   0.247   1.453  0.2488 -0.4967 -0.1136
  457SOL     OW 1825   0.816   1.661   3.051 -0.4754 -0.3822 -0.3592
  457SOL    HW1 1826   0.733   1.616   3.076 -0.2459  0.9858  0.0591
  457SOL    HW2 1827   0.864   1.679   3.133  1.7314  0.3125 -0.5259
  457SOL     MW 1828   0.812   1.658   3.065 -0.1540 -0.1100 -0.3260
  458SOL     OW 1829   1.357   1.467   0.712 -0.6515  0.3244 -0.9296
  458SOL    HW1 1830   1.264   1.502   0.731 -0.5237 -2.6665  0.3888
  458SOL    HW2 1831   1.335   1.379   0.676 -1.7342 -0.3561 -1.4130
  458SOL     MW 1832   1.342   1.460   0.710 -0.7775 -0.1600 -0.8195
  459SOL     OW 1833   1.579   3.049   0.237 -0.4990 -0.0413 -0.1741
  459SOL    HW1 1834   1.630   2.968   0.208 -0.8482  0.4220 -2.8964
  459SOL    HW2 1835   1.516   3.075   0.165  0.2659  0.4118  0.7475
  459SOL     MW 1836   1.577   3.041   0.224 -0.4442  0.0796 -0.4117
  460SOL     OW 1837   1.777   2.237   0.636  0.0253 -0.4068  0.2316
  460SOL    HW1 1838   1.689   2.222   0.675  2.0741  0.1127 -1.5763
  460SOL    HW2 1839   1.812   2.152   0.625 -0.0749  2.8483 -1.7181
  460SOL     MW 1840   1.770   2.224   0.639  0.2824  0.0912 -0.2642
  461SOL     OW 1841   0.416   2.452   0.538  0.3915  0.0262  0.2208
  461SOL    HW1 1842   0.421   2.550   0.528  1.9255  1.0832  3.1067
  461SOL    HW2 1843   0.391   2.440   0.628  1.2476 -0.9703  1.7516
  461SOL     MW 1844   0.413   2.464   0.549  0.7068  0.0342  0.8035
  462SOL     OW 1845   0.291   0.240   1.275  0.4424 -0.1473 -0.0476
  462SOL    HW1 1846   0.329   0.199   1.195  0.4297  0.9350 -0.4693
  462SOL    HW2 1847   0.363   0.267   1.331 -1.2458  0.5217 -2.6281
  462SOL     MW 1848   0.305   0.238   1.272  0.2180  0.0838 -0.4437
  463SOL     OW 1849   1.098   0.091   0.721  0.1291  0.8537  0.0540
  463SOL    HW1 1850   1.182   0.050   0.703 -1.8662 -1.7218  0.2340
  463SOL    HW2 1851   1.053   0.102   0.637  2.7200 -0.9197  0.7319
  463SOL     MW 1852   1.103   0.087   0.708  0.2077  0.2799  0.1672
  464SOL     OW 1853   0.750   3.070   2.273  0.4094 -0.6129  0.3773
  464SOL    HW1 1854   0.735   2.974   2.268 -1.9643  1.9538 -1.3296
  464SOL    HW2 1855   0.776   3.098   2.366 -2.1287  0.0025 -1.3912
  464SOL     MW 1856   0.752   3.061   2.285 -0.2387 -0.1930 -0.0812
  465SOL     OW 1857   0.836   0.331   0.414  0.0072 -1.4022  0.4027
  465SOL    HW1 1858   0.841   0.257   0.483  1.2103 -1.9800  1.7046
  465SOL    HW2 1859   0.809   0.292   0.332 -0.0184  0.6256  1.7780
  465SOL     MW 1860   0.833   0.316   0.412  0.1625 -1.2109  0.7559
  466SOL     OW 1861   1.104   2.045   0.800 -0.1387  0.2837  0.6084
  466SOL    HW1 1862   1.081   1.959   0.765 -1.0784 -0.8520 -1.9704
  466SOL    HW2 1863   1.082   2.097   0.717 -0.1534 -3.2396 -1.2741
  466SOL     MW 1864   1.098   2.041   0.784 -0.2646 -0.3310  0.0198
  467SOL     OW 1865   1.257   2.363   0.977 -0.1872  0.2046  0.0740
  467SOL    HW1 1866   1.341   2.380   1.020 -0.1995  0.6196 -0.5780
  467SOL    HW2 1867   1.263   2.273   0.940 -0.3299  0.4359  0.1975
  467SOL     MW 1868   1.268   2.353   0.978 -0.2077  0.2899  0.0043
  468SOL     OW 1869   0.464   2.668   1.927 -0.8817  0.0960  0.5957
  468SOL    HW1 1870   0.434   2.592   1.867 -0.0876  0.7564 -4.8940
  468SOL    HW2 1871   0.442   2.748   1.887  0.2719  1.7947 -0.7502
  468SOL     MW 1872   0.458   2.668   1.913 -0.6247  0.4073 -0.3062
  469SOL     OW 1873   0.321   2.144   1.794 -0.0789 -0.4648 -0.2016
  469SOL    HW1 1874   0.249   2.087   1.825  0.8839 -1.6083  3.9159
  469SOL    HW2 1875   0.400   2.099   1.765 -0.3039  0.1151 -0.7492
  469SOL     MW 1876   0.322   2.130   1.794  0.0185 -0.5392  0.2694
  470SOL     OW 1877   3.038   2.595   0.103  0.0495  0.5689  0.0461
  470SOL    HW1 1878   2.949   2.584   0.148 -2.1309 -1.2169  0.4262
  470SOL    HW2 1879   3.023   2.599   0.006  2.2704 -1.9982  0.6262
  470SOL     MW 1880   3.024   2.594   0.097  0.0548 -0.0054  0.1728
  471SOL     OW 1881   1.150   2.641   1.376  0.6849  0.2281  0.2760
  471SOL    HW1 1882   1.106   2.573   1.321  1.6457  1.0232 -2.8471
  471SOL    HW2 1883   1.181   2.702   1.308  0.2118 -1.0974 -0.7883
  471SOL     MW 1884   1.148   2.640   1.360  0.7492  0.1581 -0.2765
  472SOL     OW 1885   2.961   2.139   0.362  0.4032  0.2981 -0.3234
  472SOL    HW1 1886   2.938   2.117   0.270  0.2944 -0.6526 -2.2023
  472SOL    HW2 1887   2.907   2.079   0.425 -1.0796 -0.4731  3.8838
  472SOL     MW 1888   2.951   2.128   0.358  0.1932  0.0709 -0.0162
  473SOL     OW 1889   0.881   2.557   1.346 -0.0357  0.3246  0.1753
  473SOL    HW1 1890   0.905   2.465   1.329 -0.6270 -0.2072  0.1388
  473SOL    HW2 1891   0.919   2.573   1.437 -1.6752  1.9157 -1.5291
  473SOL     MW 1892   0.889   2.547   1.356 -0.3301  0.4643 -0.0544
  474SOL     OW 1893   0.754   2.272   1.836  0.6358 -0.2264 -0.0422
  474SOL    HW1 1894   0.843   2.285   1.876  0.7292 -2.7375 -0.4868
  474SOL    HW2 1895   0.780   2.265   1.746  2.3933  0.1869 -1.2495
  474SOL     MW 1896   0.769   2.273   1.830  0.8800 -0.5032 -0.2602
  475SOL     OW 1897   1.586   3.082   1.532 -0.3183 -0.1256  0.2643
  475SOL    HW1 1898   1.504   3.045   1.491 -3.9099  2.5283  0.2511
  475SOL    HW2 1899   1.643   3.006   1.544 -0.9437 -0.4332  2.6762
  475SOL     MW 1900   1.583   3.067   1.528 -0.8747  0.1840  0.5808
  476SOL     OW 1901   1.439   2.680   1.200  0.1202 -0.1040  0.2715
  476SOL    HW1 1902   1.373   2.714   1.149  2.0676  1.6165  1.6561
  476SOL    HW2 1903   1.507   2.747   1.205 -0.4147 -2.8445 -0.1424
  476SOL     MW 1904   1.440   2.693   1.194  0.3066 -0.2385  0.3996
  477SOL     OW 1905   0.876   2.524   0.695  0.4261 -0.3542 -0.7314
  477SOL    HW1 1906   0.923   2.607   0.671  0.3111  0.8398 -0.0861
  477SOL    HW2 1907   0.864   2.470   0.620 -0.1150  0.1528  2.5201
  477SOL     MW 1908   0.881   2.528   0.682  0.3396 -0.1298 -0.2173
  478SOL     OW 1909   0.212   2.647   0.858 -0.1000  0.0595 -0.6367
  478SOL    HW1 1910   0.273   2.715   0.837 -1.9644  0.5957  2.4365
  478SOL    HW2 1911   0.253   2.560   0.833 -1.8526 -0.4507 -1.7473
  478SOL     MW 1912   0.225   2.645   0.852 -0.5772  0.0629 -0.3778
  479SOL     OW 1913   1.405   1.992   1.290  0.3497  0.2774  0.6986
  479SOL    HW1 1914   1.385   2.025   1.381  0.5372 -0.2339 -1.0057
  479SOL    HW2 1915   1.445   1.903   1.297 -0.0181  0.6177  0.7051
  479SOL     MW 1916   1.407   1.985   1.303  0.3259  0.2548  0.4746
  480SOL     OW 1917   1.953   2.444   1.349 -0.7438 -0.5076 -0.1800
  480SOL    HW1 1918   1.951   2.346   1.350 -2.5845  1.3152 -2.0411
  480SOL    HW2 1919   1.941   2.468   1.259  0.6185  2.1067  1.3266
  480SOL     MW 1920   1.951   2.434   1.337 -0.8069  0.0779 -0.2267
  481SOL     OW 1921   1.080   0.071   1.096 -0.2879 -0.5082  0.4283
  481SOL    HW1 1922   1.161   0.023   1.077 -2.1917 -1.0214  2.1599
  481SOL    HW2 1923   1.108   0.161   1.113  0.2003 -0.5519  2.6143
  481SOL     MW 1924   1.094   0.077   1.095 -0.4747 -0.5817  0.9452
  482SOL     OW 1925   1.050   3.094   0.255  0.4339 -0.2189 -0.2736
  482SOL    HW1 1926   1.007   3.031   0.306  0.4259 -0.2670 -2.2057
  482SOL    HW2 1927   1.040   3.178   0.303  2.3641  2.2931 -0.9771
  482SOL     MW 1928   1.043   3.097   0.268  0.6875  0.1062 -0.6213
  483SOL     OW 1929   0.483   2.997   0.463  0.6104  0.7479 -0.1152
  483SOL    HW1 1930   0.420   2.995   0.391 -0.3339  0.6761  0.2915
  483SOL    HW2 1931   0.441   3.036   0.544 -3.6695 -0.5966  0.8859
  483SOL     MW 1932   0.469   3.002   0.464 -0.0789  0.5610  0.0705
  484SOL     OW 1933   1.842   2.040   1.434  0.5065  0.0206 -0.2548
  484SOL    HW1 1934   1.907   2.115   1.425  0.2413  2.1689  1.3462
  484SOL    HW2 1935   1.805   2.038   1.525  1.5295 -0.1046  0.7772
  484SOL     MW 1936   1.845   2.049   1.445  0.6065  0.2875  0.0926
  485SOL     OW 1937   0.631   2.419   0.294 -0.0200 -0.0139 -0.6088
  485SOL    HW1 1938   0.690   2.403   0.375  2.4008  1.4537 -1.1336
  485SOL    HW2 1939   0.564   2.486   0.316 -1.7446  0.1530  2.0977
  485SOL     MW 1940   0.630   2.426   0.307  0.0718  0.2018 -0.3210
  486SOL     OW 1941   0.166   2.373   1.483 -0.4307 -0.2617  0.4057
  486SOL    HW1 1942   0.177   2.454   1.432  0.0349  1.1423  2.9730
  486SOL    HW2 1943   0.178   2.392   1.575 -1.1869 -1.4120  0.7598
  486SOL     MW 1944   0.169   2.386   1.489 -0.4690 -0.2282  0.7912
  487SOL     OW 1945   1.172   1.765   1.051 -0.4690 -0.1461  0.5256
  487SOL    HW1 1946   1.162   1.850   1.081  1.9758 -1.9083 -3.9277
  487SOL    HW2 1947   1.269   1.745   1.043  1.0769 -1.2119 -0.6225
  487SOL     MW 1948   1.183   1.773   1.054  0.0576 -0.5192 -0.2134
  488SOL     OW 1949   1.613   1.856   0.534  0.4618  0.1623 -0.3633
  488SOL    HW1 1950   1.681   1.868   0.465  1.2205 -0.0850 -1.6835
  488SOL    HW2 1951   1.552   1.928   0.517  1.6614  0.5785 -2.2810
  488SOL     MW 1952   1.614   1.867   0.523  0.7202  0.1846 -0.7905
  489SOL     OW 1953   0.781   0.818   0.584 -0.0714 -0.1840  0.0732
  489SOL    HW1 1954   0.755   0.753   0.517  0.7349  1.9279 -0.0358
  489SOL    HW2 1955   0.758   0.772   0.665 -0.0563 -1.7991 -3.4148
  489SOL     MW 1956   0.775   0.804   0.586  0.0370 -0.1184 -0.4014
  490SOL     OW 1957   1.435   2.077   0.473 -0.0336  0.7133 -0.7247
  490SOL    HW1 1958   1.466   2.159   0.428  0.6418  0.1213 -0.6981
  490SOL    HW2 1959   1.342   2.075   0.470 -0.6011 -0.5563 -1.4515
  490SOL     MW 1960   1.427   2.087   0.467 -0.0194  0.4677 -0.8171
  491SOL     OW 1961   1.313   3.025   0.416  0.5619  0.3629  0.1815
  491SOL    HW1 1962   1.397   3.082   0.415  3.2059  3.1863 -1.4460
  491SOL    HW2 1963   1.244   3.067   0.368  0.2327  1.9536  1.8245
  491SOL     MW 1964   1.315   3.038   0.410  0.8673  0.9453  0.1836
  492SOL     OW 1965   1.496   2.201   0.751 -0.6538 -0.0053 -0.1098
  492SOL    HW1 1966   1.492   2.144   0.678  0.3031  1.6819 -2.0595
  492SOL    HW2 1967   1.458   2.160   0.834  1.3964 -1.0389  1.0149
  492SOL     MW 1968   1.490   2.188   0.752 -0.2570  0.0810 -0.2186
  493SOL     OW 1969   0.276   2.973   0.280  0.0568  0.2422 -0.1198
  493SOL    HW1 1970   0.229   3.000   0.360  0.5567  2.7494 -1.7012
  493SOL    HW2 1971   0.263   3.047   0.216 -1.5525  1.0148  1.6330
  493SOL     MW 1972   0.268   2.987   0.282 -0.0896  0.6749 -0.0972
  494SOL     OW 1973   0.452   2.431   1.762  0.3253 -0.1409 -0.3498
  494SOL    HW1 1974   0.509   2.369   1.808 -0.6564 -1.6895 -0.6857
  494SOL    HW2 1975   0.488   2.451   1.674 -0.6993 -0.9969  3.1460
  494SOL     MW 1976   0.464   2.425   1.757  0.0606 -0.4582  0.0671
  495SOL     OW 1977   2.826   1.753   2.564 -0.1067  0.4988  0.4487
  495SOL    HW1 1978   2.850   1.831   2.523  1.1974 -3.3294  0.4024
  495SOL    HW2 1979   2.793   1.760   2.652  1.5212  2.3438 -1.9445
  495SOL     MW 1980   2.825   1.764   2.570  0.2802  0.2371  0.1269
  496SOL     OW 1981   2.907   2.330   2.647 -0.6119 -0.1145  0.2689
  496SOL    HW1 1982   2.939   2.281   2.722 -0.0513 -0.4284 -2.9792
  496SOL    HW2 1983   2.978   2.392   2.633  1.2432 -1.2449 -1.7523
  496SOL     MW 1984   2.920   2.332   2.655 -0.2932 -0.3050 -0.4264
  497SOL     OW 1985   1.541   2.211   2.675  0.2089 -0.4173  0.3489
  497SOL    HW1 1986   1.460   2.163   2.653 -2.3304  0.8202  0.7130
  497SOL    HW2 1987   1.570   2.158   2.750  1.7799 -0.7612 -2.4048
  497SOL     MW 1988   1.534   2.198   2.682  0.0811 -0.2994  0.0336
  498SOL     OW 1989   1.491   2.694   2.355 -0.2612 -0.0487 -0.1638
  498SOL    HW1 1990   1.489   2.600   2.358 -0.6382 -0.2703 -0.8060
  498SOL    HW2 1991   1.584   2.715   2.360 -1.1681 -2.3323  1.7208
  498SOL     MW 1992   1.503   2.685   2.356 -0.4306 -0.3792  0.0001
  499SOL     OW 1993   0.963   0.156   3.073  0.2933  0.2429  0.3675
  499SOL    HW1 1994   0.885   0.194   3.120 -0.2210  4.0008  0.9781
  499SOL    HW2 1995   1.007   0.080   3.120 -0.5266  1.2918  2.3072
  499SOL     MW 1996   0.959   0.151   3.086  0.1173  0.8771  0.7040
  500SOL     OW 1997   1.024   2.489   2.768 -0.3968  0.4945  0.3102
  500SOL    HW1 1998   1.092   2.480   2.840 -1.2354 -0.2938  1.7006
  500SOL    HW2 1999   0.944   2.504   2.823 -1.1636  0.8013  1.6392
  500SOL     MW 2000   1.022   2.489   2.785 -0.6086  0.4310  0.6690
  501SOL     OW 2001   1.758   2.207   3.057  0.0504 -0.4010 -0.1834
  501SOL    HW1 2002   1.737   2.296   3.039  1.1503 -1.0380 -2.0490
  501SOL    HW2 2003   1.850   2.201   3.068 -0.4429  0.9599  3.8139
  501SOL     MW 2004   1.768   2.218   3.056  0.1305 -0.3055  0.0978
  502SOL     OW 2005   0.104   2.831   2.996 -0.1622 -0.1543 -0.6900
  502SOL    HW1 2006   0.039   2.768   2.963 -0.1808 -2.7881  1.4110
  502SOL    HW2 2007   0.157   2.862   2.928  0.3551 -0.0735  1.3692
  502SOL     MW 2008   0.102   2.827   2.983 -0.0964 -0.4911 -0.1411
  503SOL     OW 2009   1.045   2.922   2.158  0.3850  0.1653  0.3786
  503SOL    HW1 2010   0.982   2.879   2.100  1.7737  1.1413 -1.6282
  503SOL    HW2 2011   1.015   3.016   2.147 -3.1001  0.3263 -1.3823
  503SOL     MW 2012   1.032   2.929   2.149  0.1084  0.3154 -0.1185
  504SOL     OW 2013   0.123   2.708   2.118  0.8691 -0.3390 -0.3617
  504SOL    HW1 2014   0.117   2.615   2.085 -0.2884  2.0086  2.6358
  504SOL    HW2 2015   0.081   2.694   2.205 -2.5748  0.4556  0.4335
  504SOL     MW 2016   0.117   2.694   2.125  0.2620  0.0756  0.1387
  505SOL     OW 2017   1.719   2.713   2.689  0.1972 -0.5154  0.1820
  505SOL    HW1 2018   1.671   2.685   2.614 -2.8905  2.3222 -0.4193
  505SOL    HW2 2019   1.652   2.716   2.755 -0.6109  2.1154  0.5418
  505SOL     MW 2020   1.703   2.710   2.688 -0.3168  0.2061  0.1501
  506SOL     OW 2021   1.642   3.001   2.866 -0.0469 -0.0393  0.4964
  506SOL    HW1 2022   1.703   2.958   2.926  0.2065 -0.0422 -0.2322
  506SOL    HW2 2023   1.692   3.006   2.785 -0.2556 -1.6108  0.6913
  506SOL     MW 2024   1.657   2.996   2.863 -0.0410 -0.2470  0.4260
  507SOL     OW 2025   0.795   2.836   2.904 -0.6781  1.1548  0.4609
  507SOL    HW1 2026   0.849   2.865   2.833 -2.0277 -0.2392 -0.6665
  507SOL    HW2 2027   0.721   2.897   2.914  1.8612 -1.0801 -0.4674
  507SOL     MW 2028   0.793   2.848   2.896 -0.5211  0.6760  0.1896
  508SOL     OW 2029   1.115   2.077   2.474 -0.4939  0.5734  0.0216
  508SOL    HW1 2030   1.196   2.060   2.519 -2.1453  1.4885 -0.4041
  508SOL    HW2 2031   1.091   2.161   2.518  0.1503  0.0848  1.8175
  508SOL     MW 2032   1.122   2.086   2.486 -0.6268  0.6297  0.2024
  509SOL     OW 2033   0.567   2.538   2.905  0.7539  0.4467  0.3657
  509SOL    HW1 2034   0.605   2.576   2.818  1.6667  1.6101 -1.4312
  509SOL    HW2 2035   0.489   2.480   2.882 -0.9268  1.4939 -4.1412
  509SOL     MW 2036   0.561   2.536   2.890  0.6526  0.7384 -0.4660
  510SOL     OW 2037   1.480   2.541   1.735 -0.3752  0.2849  0.6378
  510SOL    HW1 2038   1.492   2.633   1.763  0.3892  1.0140 -1.0597
  510SOL    HW2 2039   1.399   2.511   1.784 -0.2558  2.0114  0.5526
  510SOL     MW 2040   1.471   2.549   1.745 -0.2586  0.6089  0.4026
  511SOL     OW 2041   0.418   2.591   2.485 -0.6708  0.0799  0.1800
  511SOL    HW1 2042   0.506   2.580   2.525 -0.2972  1.3800 -2.0877
  511SOL    HW2 2043   0.443   2.593   2.391  0.7945 -0.5178  3.2715
  511SOL     MW 2044   0.433   2.590   2.478 -0.4282  0.1726  0.2887
  512SOL     OW 2045   1.009   1.966   2.835 -0.0692 -0.2885 -0.6638
  512SOL    HW1 2046   0.917   1.973   2.861  0.0393 -1.2048  0.3331
  512SOL    HW2 2047   1.044   1.886   2.879  1.0738  0.7820  0.9854
  512SOL     MW 2048   1.002   1.956   2.844  0.0959 -0.2681 -0.3146
  513SOL     OW 2049   1.463   2.384   2.382 -0.3716 -0.1581 -0.5583
  513SOL    HW1 2050   1.523   2.403   2.456  1.7597 -0.6693 -3.0923
  513SOL    HW2 2051   1.492   2.296   2.355  1.0120  0.4427  1.1465
  513SOL     MW 2052   1.474   2.375   2.388  0.0921 -0.1463 -0.6677
  514SOL     OW 2053   0.246   2.432   2.607  0.5808 -0.1445 -0.3926
  514SOL    HW1 2054   0.313   2.489   2.566  1.9193 -0.7258  0.1526
  514SOL    HW2 2055   0.258   2.429   2.702  0.3960  1.7470  2.0304
  514SOL     MW 2056   0.256   2.439   2.614  0.7330  0.0284 -0.0010
  515SOL     OW 2057   1.177   2.067   1.913  0.4048  0.1265 -0.1357
  515SOL    HW1 2058   1.107   2.129   1.911 -0.6211 -1.0019 -3.0798
  515SOL    HW2 2059   1.178   2.041   2.002 -1.5581 -0.3257  1.7794
  515SOL     MW 2060   1.168   2.072   1.924  0.0104 -0.0820 -0.2715
  516SOL     OW 2061   1.443   2.505   3.071  0.2588 -0.6502  0.0911
  516SOL    HW1 2062   1.511   2.501   3.005 -2.7214  2.2148  0.4690
  516SOL    HW2 2063   1.363   2.484   3.021  1.0306  1.9979  3.0723
  516SOL     MW 2064   1.441   2.502   3.056 -0.0326  0.0772  0.5343
  517SOL     OW 2065   0.572   2.423   2.095  0.3215 -0.3261 -0.5945
  517SOL    HW1 2066   0.548   2.522   2.108 -2.2476  0.6274 -1.8496
  517SOL    HW2 2067   0.484   2.389   2.057 -2.6364 -1.5757  1.5408
  517SOL     MW 2068   0.557   2.431   2.092 -0.4077 -0.3652 -0.4783
  518SOL     OW 2069   1.886   0.079   3.001 -0.2166  0.2252  0.5945
  518SOL    HW1 2070   1.825   0.112   2.928 -2.8057 -1.8319  0.0742
  518SOL    HW2 2071   1.842   0.096   3.086  1.9970 -2.0389  1.7684
  518SOL     MW 2072   1.872   0.085   3.003 -0.2661 -0.3450  0.6807
  519SOL     OW 2073   0.737   2.545   1.803 -0.0641  0.0059  0.3168
  519SOL    HW1 2074   0.766   2.447   1.810  0.0908  2.6592  0.9260
  519SOL    HW2 2075   0.640   2.552   1.796 -4.5408 -2.7559  0.3739
  519SOL     MW 2076   0.728   2.533   1.803 -0.6343 -0.0084  0.4047
  520SOL     OW 2077   1.193   2.149   2.907 -0.5035  0.2333 -0.5024
  520SOL    HW1 2078   1.113   2.103   2.881  0.9901 -0.1453  0.2861
  520SOL    HW2 2079   1.204   2.098   2.989 -2.2781  1.1235  1.5934
  520SOL     MW 2080   1.184   2.136   2.914 -0.5406  0.3008 -0.1219
  521SOL     OW 2081   1.747   2.002   2.229 -0.4671 -0.0173 -0.1782
  521SOL    HW1 2082   1.740   2.036   2.141 -1.5614 -1.3559  0.6423
  521SOL    HW2 2083   1.746   1.905   2.220 -0.3482  0.3362 -0.0305
  521SOL     MW 2084   1.746   1.994   2.216 -0.5958 -0.1473 -0.0504
  522SOL     OW 2085   2.873   2.616   2.233  0.3637  0.3034  0.1310
  522SOL    HW1 2086   2.937   2.561   2.283  3.1729  0.1949  1.4858
  522SOL    HW2 2087   2.805   2.604   2.296  2.4626  0.8783  1.5088
  522SOL     MW 2088   2.873   2.607   2.248  1.0112  0.3649  0.4916
  523SOL     OW 2089   0.841   1.503   2.123 -0.3668  0.3102 -0.3842
  523SOL    HW1 2090   0.850   1.577   2.060 -0.5964  0.2495  0.0960
  523SOL    HW2 2091   0.890   1.433   2.075  1.3886  0.2767 -0.5187
  523SOL     MW 2092   0.849   1.503   2.108 -0.1655  0.2977 -0.3386
  524SOL     OW 2093   0.813   2.460   2.951 -0.1230  0.0430 -0.0150
  524SOL    HW1 2094   0.719   2.470   2.939 -1.6686 -4.6727 -1.1137
  524SOL    HW2 2095   0.818   2.371   2.923  0.3814  0.4027  0.5098
  524SOL     MW 2096   0.802   2.450   2.946 -0.2604 -0.5317 -0.0907
  525SOL     OW 2097   0.347   2.304   2.026  0.2211 -0.3868 -0.5590
  525SOL    HW1 2098   0.342   2.244   2.106 -2.0863  1.5549  2.9223
  525SOL    HW2 2099   0.346   2.239   1.958 -0.3073 -0.8038 -0.1856
  525SOL     MW 2100   0.346   2.288   2.028 -0.1530 -0.1856 -0.0504
  526SOL     OW 2101   0.631   2.124   2.097 -0.0087  0.0262  0.0016
  526SOL    HW1 2102   0.649   2.162   2.011  2.9976  0.0383  0.0009
  526SOL    HW2 2103   0.600   2.196   2.153 -1.0056  1.2477  0.9319
  526SOL     MW 2104   0.629   2.139   2.093  0.2564  0.1890  0.1243
  527SOL     OW 2105   1.416   1.969   2.155  0.1388  0.5840  0.6434
  527SOL    HW1 2106   1.372   1.906   2.215  0.5973  1.4016 -1.2180
  527SOL    HW2 2107   1.427   1.918   2.073  0.2658  1.2268  0.1863
  527SOL     MW 2108   1.411   1.954   2.152  0.2160  0.7767  0.3375
  528SOL     OW 2109   0.594   3.028   2.933  0.0694  0.4350 -0.1431
  528SOL    HW1 2110   0.656   3.094   2.899 -1.5466  1.0825 -0.6046
  528SOL    HW2 2111   0.537   3.008   2.856  1.2777 -1.4035  0.4783
  528SOL     MW 2112   0.595   3.034   2.918  0.0156  0.2779 -0.1220
  529SOL     OW 2113   0.990   2.286   1.945  0.9323 -0.0033 -0.1167
  529SOL    HW1 2114   1.007   2.317   2.030 -0.6739  0.8312 -1.0479
  529SOL    HW2 2115   1.023   2.354   1.887  0.8398 -0.3202  2.8882
  529SOL     MW 2116   0.996   2.299   1.948  0.7082  0.0650  0.1569
  530SOL     OW 2117   1.192   2.436   2.985 -0.7385 -0.0686  0.2795
  530SOL    HW1 2118   1.149   2.492   3.051 -2.3521  0.1370  0.5175
  530SOL    HW2 2119   1.155   2.348   2.989 -1.2746  1.1552  1.5720
  530SOL     MW 2120   1.181   2.432   2.995 -1.0221  0.1200  0.4814
  531SOL     OW 2121   0.945   1.866   2.561  0.3006 -0.0143 -0.3639
  531SOL    HW1 2122   0.984   1.935   2.507 -0.4779  2.2229 -1.3865
  531SOL    HW2 2123   0.925   1.904   2.652  1.7129  4.5812  3.7558
  531SOL     MW 2124   0.947   1.880   2.566  0.3843  0.8872  0.0448
  532SOL     OW 2125   1.757   0.204   2.767  0.3357  0.2777  0.3408
  532SOL    HW1 2126   1.710   0.128   2.747  2.3352 -0.8383  1.4072
  532SOL    HW2 2127   1.848   0.200   2.731  0.6314  2.7172 -2.0280
  532SOL     MW 2128   1.763   0.194   2.760  0.6385  0.4523  0.1690
  533SOL     OW 2129   1.965   2.556   3.097  0.2293 -0.5741  0.4425
  533SOL    HW1 2130   1.907   2.495   3.148 -0.6903 -1.4039 -0.2515
  533SOL    HW2 2131   1.900   2.616   3.047 -1.4981 -0.1636 -0.9596
  533SOL     MW 2132   1.949   2.556   3.097 -0.1199 -0.6294  0.1659
  534SOL     OW 2133   1.704   2.372   2.511 -0.3037  0.2922  0.2616
  534SOL    HW1 2134   1.665   2.297   2.557  1.2442 -2.1787  0.8778
  534SOL    HW2 2135   1.771   2.413   2.571  0.7726  1.1081  2.0273
  534SOL     MW 2136   1.708   2.367   2.525  0.0426  0.0739  0.5759
  535SOL     OW 2137   1.892   2.374   1.866  0.0739 -0.3105 -0.1237
  535SOL    HW1 2138   1.844   2.371   1.781  0.1461  0.3502  2.8960
  535SOL    HW2 2139   1.985   2.348   1.852  0.4021  0.1457  0.6461
  535SOL     MW 2140   1.898   2.370   1.853  0.1267 -0.1631  0.3763
  536SOL     OW 2141   0.493   1.879   2.121  0.1810  0.1518 -0.2192
  536SOL    HW1 2142   0.470   1.846   2.033  1.5992  0.9601 -4.9593
  536SOL    HW2 2143   0.534   1.967   2.107 -1.4452  0.3201  1.3212
  536SOL     MW 2144   0.495   1.887   2.108  0.1536  0.2806 -0.6414
  537SOL     OW 2145   1.059   0.291   2.766 -0.3187  0.3800 -0.0760
  537SOL    HW1 2146   1.082   0.364   2.828  0.2316 -0.9283 -1.7123
  537SOL    HW2 2147   1.076   0.332   2.683 -0.2512 -0.6572  1.2945
  537SOL     MW 2148   1.064   0.306   2.764 -0.2372  0.0706 -0.1111
  538SOL     OW 2149   1.433   0.066   0.056 -0.0246  0.1050 -0.4373
  538SOL    HW1 2150   1.437   0.161   0.059  1.7113  0.2453  0.9189
  538SOL    HW2 2151   1.350   0.039   0.015  1.2137  1.0642  0.4672
  538SOL     MW 2152   1.422   0.075   0.051  0.3678  0.2500 -0.1390
  539SOL     OW 2153   0.725   2.842   2.591  0.5084  0.5884  0.3038
  539SOL    HW1 2154   0.810   2.883   2.612  0.1787  1.2910  1.4104
  539SOL    HW2 2155   0.701   2.777   2.654  2.6800  3.7890 -0.6491
  539SOL     MW 2156   0.733   2.839   2.602  0.7514  1.1034  0.3241
  540SOL     OW 2157   0.307   2.440   2.881  0.0130 -0.4580  0.1593
  540SOL    HW1 2158   0.285   2.512   2.942 -3.2175 -2.1636 -1.6779
  540SOL    HW2 2159   0.272   2.363   2.932 -2.3158 -0.2444 -1.6349
  540SOL     MW 2160   0.299   2.439   2.896 -0.7205 -0.6548 -0.3198
  541SOL     OW 2161   0.257   2.938   2.114  0.1625 -0.2300 -0.2701
  541SOL    HW1 2162   0.222   2.849   2.096  0.0468 -0.8082 -0.6789
  541SOL    HW2 2163   0.307   2.912   2.192  1.9772  1.3122 -1.4246
  541SOL     MW 2164   0.259   2.923   2.122  0.3866 -0.1028 -0.4764
  542SOL     OW 2165   0.971   2.276   2.609 -0.2305 -0.8425  0.0709
  542SOL    HW1 2166   0.909   2.231   2.663  0.4521  0.6041  0.7072
  542SOL    HW2 2167   1.007   2.352   2.666 -0.6810 -0.1422  1.5070
  542SOL     MW 2168   0.967   2.280   2.624 -0.1998 -0.5592  0.3443
  543SOL     OW 2169   1.602   2.455   2.830  0.3154  0.3409  0.0711
  543SOL    HW1 2170   1.546   2.392   2.792  1.5075  2.1362  2.9645
  543SOL    HW2 2171   1.675   2.465   2.770  2.6527 -0.3021  1.8426
  543SOL     MW 2172   1.604   2.448   2.817  0.7810  0.4930  0.6866
  544SOL     OW 2173   0.679   0.312   2.718 -0.3098 -0.0562  0.1185
  544SOL    HW1 2174   0.589   0.316   2.753 -3.5401  0.0561 -1.8898
  544SOL    HW2 2175   0.681   0.250   2.643 -1.8041  0.2241  0.7165
  544SOL     MW 2176   0.667   0.304   2.713 -0.9332 -0.0044 -0.0676
  545SOL     OW 2177   1.527   2.117   2.341  0.5817 -0.4373  0.1164
  545SOL    HW1 2178   1.472   2.072   2.275  1.1113 -1.7073  0.8649
  545SOL    HW2 2179   1.601   2.071   2.319  0.6639  2.3810 -0.7466
  545SOL     MW 2180   1.530   2.105   2.330  0.6624 -0.2330  0.1013
  546SOL     OW 2181   2.908   1.969   0.145  0.3542 -0.0851  0.3092
  546SOL    HW1 2182   2.883   2.047   0.091  2.6639  1.0836  0.5202
  546SOL    HW2 2183   3.000   1.959   0.125 -0.1437  0.5183  1.5876
  546SOL     MW 2184   2.917   1.978   0.135  0.5932  0.1488  0.5057
  547SOL     OW 2185   0.197   0.061   0.094 -0.1286 -0.3568 -0.3218
  547SOL    HW1 2186   0.273   0.083   0.033  2.1856 -0.8770  0.5619
  547SOL    HW2 2187   0.131   0.039   0.034 -0.7002  1.1961 -0.9651
  547SOL     MW 2188   0.198   0.061   0.078  0.1013 -0.2205 -0.2901
  548SOL     OW 2189   0.374   2.573   0.253  0.1925  0.1020 -0.0828
  548SOL    HW1 2190   0.316   2.591   0.178 -0.4713  0.5740 -1.1612
  548SOL    HW2 2191   0.339   2.501   0.299 -1.5458  3.5529 -0.2311
  548SOL     MW 2192   0.361   2.566   0.250 -0.1244  0.6196 -0.2447
  549SOL     OW 2193   0.842   1.926   2.129  0.3754 -0.4413  0.2909
  549SOL    HW1 2194   0.800   2.009   2.129 -0.2455  0.2537 -0.3524
  549SOL    HW2 2195   0.822   1.904   2.222 -2.6161  2.5833  0.9274
  549SOL     MW 2196   0.834   1.934   2.141 -0.1012  0.0495  0.2900
  550SOL     OW 2197   1.801   1.623   2.528 -0.4380 -0.3901  0.3572
  550SOL    HW1 2198   1.819   1.613   2.436  0.0276  3.1231  3.0674
  550SOL    HW2 2199   1.801   1.719   2.542 -1.4992 -2.1748 -2.2495
  550SOL     MW 2200   1.804   1.634   2.517 -0.5166 -0.1620  0.3709
  551SOL     OW 2201   0.919   2.228   0.197 -0.1236 -0.0829  0.1477
  551SOL    HW1 2202   1.012   2.263   0.195  1.9048  2.3452  1.1320
  551SOL    HW2 2203   0.914   2.153   0.141 -2.7289  1.7035  2.9689
  551SOL     MW 2204   0.931   2.223   0.190 -0.1997  0.4731  0.6498
  552SOL     OW 2205   1.760   1.726   2.245  0.0076 -1.0104 -0.5892
  552SOL    HW1 2206   1.669   1.694   2.253 -4.3627  2.7673  1.0946
  552SOL    HW2 2207   1.803   1.676   2.180  0.6808  2.8191 -0.3170
  552SOL     MW 2208   1.754   1.715   2.237 -0.4802 -0.0067 -0.3311
  553SOL     OW 2209   1.243   2.303   1.581  0.5184  0.3748  0.2168
  553SOL    HW1 2210   1.295   2.223   1.575 -2.9768  0.9386 -2.0491
  553SOL    HW2 2211   1.300   2.363   1.532 -0.5929 -2.6890  2.2895
  553SOL     MW 2212   1.257   2.300   1.574 -0.0894  0.0449  0.1913
  554SOL     OW 2213   0.507   2.976   2.682 -0.2964  0.2155 -0.2646
  554SOL    HW1 2214   0.486   3.032   2.610  0.5522  0.1404 -1.1543
  554SOL    HW2 2215   0.590   2.937   2.649 -0.4811 -1.2586  0.2906
  554SOL     MW 2216   0.515   2.978   2.668 -0.2088  0.0111 -0.3087
  555SOL     OW 2217   0.639   2.526   2.624  0.3345  0.3718  0.3242
  555SOL    HW1 2218   0.602   2.438   2.639  0.2908 -1.8801  3.3637
  555SOL    HW2 2219   0.721   2.510   2.572  1.9435 -1.3878  0.5513
  555SOL     MW 2220   0.645   2.512   2.619  0.5410 -0.1575  0.7552
  556SOL     OW 2221   1.058   1.840   0.046 -0.5860 -0.4894  0.1727
  556SOL    HW1 2222   1.069   1.776  -0.022  1.0649 -1.8471  1.6507
  556SOL    HW2 2223   1.147   1.835   0.085  0.7954  1.8004 -0.5251
  556SOL     MW 2224   1.071   1.831   0.042 -0.1859 -0.3664  0.2756
  557SOL     OW 2225   1.037   2.718   0.586 -0.3556 -0.1838  0.3481
  557SOL    HW1 2226   1.100   2.669   0.537  0.8764 -1.8082  0.1367
  557SOL    HW2 2227   1.026   2.795   0.532 -1.5226 -0.9171  4.3678
  557SOL     MW 2228   1.044   2.722   0.572 -0.3470 -0.4948  0.8506
  558SOL     OW 2229   0.220   2.227   3.019 -0.0292  0.0053 -0.7641
  558SOL    HW1 2230   0.310   2.206   3.045 -0.7229  0.5319  1.4768
  558SOL    HW2 2231   0.169   2.245   3.104 -3.1566  0.9589  2.4931
  558SOL     MW 2232   0.225   2.227   3.033 -0.5334  0.2006 -0.0387
  559SOL     OW 2233   1.055   2.299   2.253 -0.1078 -0.5605  0.0941
  559SOL    HW1 2234   1.145   2.325   2.258 -2.6596  1.1318 -1.9341
  559SOL    HW2 2235   1.067   2.209   2.227  0.6747  1.0916 -0.7819
  559SOL     MW 2236   1.068   2.290   2.250 -0.3413 -0.1193 -0.2891
  560SOL     OW 2237   2.171   2.670   0.145  0.0804 -0.0928 -0.0762
  560SOL    HW1 2238   2.218   2.724   0.086 -0.8172 -1.4079 -2.1759
  560SOL    HW2 2239   2.095   2.642   0.091  0.5204 -1.0380  0.1844
  560SOL     MW 2240   2.167   2.673   0.130  0.0200 -0.3910 -0.3188
  561SOL     OW 2241   0.486   2.205   0.175  0.0292  0.0855 -0.2522
  561SOL    HW1 2242   0.457   2.219   0.086  1.4818 -0.3468 -0.0826
  561SOL    HW2 2243   0.543   2.279   0.202  0.9537 -0.1101 -0.5167
  561SOL     MW 2244   0.490   2.217   0.167  0.3428  0.0027 -0.2647
  562SOL     OW 2245   0.659   2.317   2.363 -0.0371  0.4719  0.0873
  562SOL    HW1 2246   0.602   2.382   2.330  1.9716 -1.1182  2.6606
  562SOL    HW2 2247   0.725   2.380   2.392 -0.9430  3.6068 -1.9118
  562SOL     MW 2248   0.660   2.334   2.362  0.1084  0.6757  0.1631
  563SOL     OW 2249   1.266   0.401   0.576  0.1276 -0.2903 -0.5112
  563SOL    HW1 2250   1.210   0.338   0.522  1.3891 -2.3918  1.1768
  563SOL    HW2 2251   1.281   0.367   0.666 -1.1967 -1.8781  3.5480
  563SOL     MW 2252   1.261   0.388   0.580  0.1194 -0.7771  0.2471
  564SOL     OW 2253   1.000   2.716   2.334  0.1905  0.9927  0.5568
  564SOL    HW1 2254   1.028   2.789   2.286 -1.1898  0.2241  3.0942
  564SOL    HW2 2255   1.032   2.738   2.422 -1.5533 -0.0706 -3.6699
  564SOL     MW 2256   1.008   2.729   2.339 -0.2217  0.7510  0.3339
  565SOL     OW 2257   2.749   2.806   2.623  0.1619 -0.1585 -0.4760
  565SOL    HW1 2258   2.755   2.876   2.558 -0.5718  1.0942 -0.0105
  565SOL    HW2 2259   2.742   2.738   2.564 -0.8400 -0.9635  3.9968
  565SOL     MW 2260   2.749   2.806   2.607 -0.0671 -0.0995  0.1756
  566SOL     OW 2261   2.183   1.932   2.379  0.1299  0.1365 -0.0307
  566SOL    HW1 2262   2.187   1.875   2.298  1.3842 -3.3176 -0.8836
  566SOL    HW2 2263   2.239   2.005   2.361  0.3590 -3.7622 -0.7204
  566SOL     MW 2264   2.191   1.934   2.366  0.3256 -0.8336 -0.2342
  567SOL     OW 2265   1.168   3.049   0.004  0.1262 -0.4706  0.1656
  567SOL    HW1 2266   1.145   3.070   0.094 -1.1382 -0.4025 -1.4604
  567SOL    HW2 2267   1.249   2.993   0.010 -0.6766 -1.6957  0.3552
  567SOL     MW 2268   1.176   3.044   0.017 -0.1465 -0.6233 -0.0239
  568SOL     OW 2269   1.651   2.034   2.859 -0.4086  0.0628  0.1905
  568SOL    HW1 2270   1.695   2.084   2.927 -0.9488  2.1190  1.8491
  568SOL    HW2 2271   1.708   2.009   2.785 -0.2619 -0.5033  0.0645
  568SOL     MW 2272   1.665   2.038   2.858 -0.4605  0.2594  0.3927
  569SOL     OW 2273   0.127   2.242   2.424 -0.1323  0.1058 -0.7908
  569SOL    HW1 2274   0.058   2.290   2.380 -0.7326 -2.8094  2.0455
  569SOL    HW2 2275   0.171   2.314   2.473 -0.3953  0.8127  0.2063
  569SOL     MW 2276   0.124   2.258   2.425 -0.2462 -0.1855 -0.2850
  570SOL     OW 2277   1.495   0.307   0.456  0.4083  0.4407  0.0880
  570SOL    HW1 2278   1.416   0.334   0.513  1.4574 -0.7332  2.5225
  570SOL    HW2 2279   1.578   0.327   0.512 -1.3086  0.0104 -1.0319
  570SOL     MW 2280   1.495   0.313   0.471  0.3202  0.2291  0.2615
  571SOL     OW 2281   1.350   2.365   2.134 -0.1444 -0.3409 -0.2507
  571SOL    HW1 2282   1.373   2.371   2.228  0.8021  0.8671  0.6272
  571SOL    HW2 2283   1.436   2.353   2.085  0.1400  1.4535  1.5499
  571SOL     MW 2284   1.365   2.364   2.140  0.0180  0.0552  0.1027
  572SOL     OW 2285   1.108   2.596   0.104 -0.1532  0.0829  0.0706
  572SOL    HW1 2286   1.079   2.675   0.074 -0.3611 -3.8556  0.7648
  572SOL    HW2 2287   1.022   2.541   0.112 -0.4237  1.0803  0.8399
  572SOL     MW 2288   1.093   2.599   0.101 -0.2163 -0.3052  0.2637
  573SOL     OW 2289   1.208   2.302   0.290 -0.0371 -0.0061  0.3885
  573SOL    HW1 2290   1.275   2.311   0.220  0.8634  0.5081 -0.6069
  573SOL    HW2 2291   1.183   2.388   0.328  0.7242  2.0979 -0.6611
  573SOL     MW 2292   1.213   2.314   0.286  0.1821  0.3394  0.1187
  574SOL     OW 2293   1.159   2.575   0.376  0.5762  0.3191 -0.2141
  574SOL    HW1 2294   1.242   2.623   0.368  0.4346  0.5364 -0.2717
  574SOL    HW2 2295   1.121   2.590   0.294  0.0642  1.0222  0.4838
  574SOL     MW 2296   1.165   2.583   0.364  0.4900  0.4405 -0.1296
  575SOL     OW 2297   3.080   2.220   1.649  0.2654  0.1680  1.0841
  575SOL    HW1 2298   3.117   2.141   1.606  0.1172 -0.8913  1.7100
  575SOL    HW2 2299   3.159   2.266   1.681  0.4569  0.2209  0.6845
  575SOL     MW 2300   3.095   2.215   1.648  0.2711  0.0352  1.1139
  576SOL     OW 2301   2.924   1.864   1.917 -0.2897 -0.4350 -0.2830
  576SOL    HW1 2302   2.931   1.956   1.900  2.2944 -0.9073 -0.6185
  576SOL    HW2 2303   2.866   1.812   1.855 -0.2333  0.0872 -1.4166
  576SOL     MW 2304   2.917   1.869   1.907  0.0587 -0.4284 -0.4768
  577SOL     OW 2305   2.145   0.159   0.033  0.2620  0.4278  0.3565
  577SOL    HW1 2306   2.103   0.144  -0.053  0.7465 -1.3904  2.3752
  577SOL    HW2 2307   2.096   0.096   0.089 -0.5034 -0.8998  2.8383
  577SOL     MW 2308   2.133   0.149   0.029  0.2249  0.0128  0.9503
  578SOL     OW 2309   1.985   2.121   2.348  0.0242 -0.0878  0.6611
  578SOL    HW1 2310   1.911   2.070   2.309 -0.2298 -0.5755 -3.0164
  578SOL    HW2 2311   2.053   2.046   2.368  2.0766 -1.1150 -0.5454
  578SOL     MW 2312   1.984   2.104   2.345  0.2615 -0.2877  0.0167
  579SOL     OW 2313   0.860   2.495   2.475  0.4191 -0.8541 -0.4676
  579SOL    HW1 2314   0.902   2.419   2.500  0.1961 -0.8870 -0.8167
  579SOL    HW2 2315   0.926   2.548   2.431 -2.6093  0.6491 -1.5199
  579SOL     MW 2316   0.875   2.492   2.473 -0.0099 -0.6601 -0.6525
  580SOL     OW 2317   0.997   2.828   3.094  0.0748 -0.3532  0.0582
  580SOL    HW1 2318   1.070   2.893   3.082  4.4025 -4.8983 -1.3589
  580SOL    HW2 2319   0.948   2.846   3.006 -0.0468 -0.0970 -0.7779
  580SOL     MW 2320   1.000   2.839   3.081  0.6297 -0.9191 -0.2391
  581SOL     OW 2321   1.097   2.472   1.773 -0.1824  0.0513 -0.6494
  581SOL    HW1 2322   1.166   2.492   1.840  0.1210  0.7047  0.1090
  581SOL    HW2 2323   1.128   2.404   1.714 -0.0833  0.0573 -1.2083
  581SOL     MW 2324   1.110   2.465   1.774 -0.1293  0.1383 -0.6231
  582SOL     OW 2325   0.004   2.960   2.658 -0.1043 -0.5045 -0.2553
  582SOL    HW1 2326  -0.063   2.942   2.726 -1.7379 -0.8404  2.1022
  582SOL    HW2 2327   0.087   2.970   2.705 -1.2148  3.5481 -2.9417
  582SOL     MW 2328   0.006   2.959   2.673 -0.4664 -0.0141 -0.2987
  583SOL     OW 2329   1.933   2.398   2.672  0.7369  0.2918  0.5500
  583SOL    HW1 2330   1.993   2.427   2.602 -0.1211 -0.4579 -1.4876
  583SOL    HW2 2331   1.927   2.299   2.668  0.2312 -1.9677 -0.3934
  583SOL     MW 2332   1.940   2.389   2.662  0.5569 -0.1052  0.1567
  584SOL     OW 2333   0.188   1.886   2.193  0.1734 -0.2101 -0.0431
  584SOL    HW1 2334   0.149   1.891   2.282 -1.9696  1.0696  1.2099
  584SOL    HW2 2335   0.282   1.898   2.189 -1.9605 -4.0207 -3.1252
  584SOL     MW 2336   0.195   1.888   2.204 -0.3909 -0.5441 -0.2845
  585SOL     OW 2337   1.532   2.666   0.161  0.0942 -0.8372  0.1623
  585SOL    HW1 2338   1.485   2.624   0.086  1.1326 -1.0790 -0.0242
  585SOL    HW2 2339   1.460   2.690   0.224  2.2655 -0.4567 -1.1980
  585SOL     MW 2340   1.516   2.663   0.160  0.5177 -0.8189 -0.0417
  586SOL     OW 2341   1.349   2.773   2.583 -0.0436 -0.1996 -0.1372
  586SOL    HW1 2342   1.389   2.767   2.495 -1.2320 -0.5982  3.1315
  586SOL    HW2 2343   1.332   2.867   2.608 -0.5962  0.0171  0.8255
  586SOL     MW 2344   1.352   2.785   2.575 -0.2733 -0.2236  0.4211
  587SOL     OW 2345   1.274   1.481   2.154 -0.8224  0.7909  0.2105
  587SOL    HW1 2346   1.295   1.391   2.173  0.8388  1.3757 -1.0541
  587SOL    HW2 2347   1.248   1.486   2.065  0.7036 -1.2289  1.6261
  587SOL     MW 2348   1.274   1.469   2.145 -0.4019  0.6015  0.2304
  588SOL     OW 2349   1.315   2.035   2.676 -0.3920  0.2893 -0.6808
  588SOL    HW1 2350   1.313   1.943   2.701  0.2565 -0.8276  0.9647
  588SOL    HW2 2351   1.256   2.077   2.740  0.3760  0.5265 -1.2758
  588SOL     MW 2352   1.307   2.028   2.687 -0.2051  0.1732 -0.5422
  589SOL     OW 2353   1.362   2.051   0.031  0.2262  0.5839  0.1204
  589SOL    HW1 2354   1.371   2.147   0.039  0.2188 -0.9820  2.2738
  589SOL    HW2 2355   1.337   2.017   0.117  0.6573  0.2551  2.7197
  589SOL     MW 2356   1.360   2.059   0.043  0.2821  0.3339  0.7475
  590SOL     OW 2357   0.477   2.659   2.234 -0.3488  0.3777  0.4202
  590SOL    HW1 2358   0.460   2.686   2.135  2.1445 -0.0227 -2.1555
  590SOL    HW2 2359   0.560   2.711   2.258 -0.6649  2.3677  1.4159
  590SOL     MW 2360   0.486   2.669   2.224 -0.0615  0.5875  0.2117
  591SOL     OW 2361   2.197   0.687   0.161  0.0425  0.1869  0.2267
  591SOL    HW1 2362   2.133   0.707   0.232  0.5417 -0.2836 -2.8653
  591SOL    HW2 2363   2.191   0.735   0.080  0.1769  0.7153  2.5830
  591SOL     MW 2364   2.188   0.696   0.160  0.1261  0.1946  0.1296
  592SOL     OW 2365   1.636   2.900   0.735 -0.4220  0.1475 -0.6014
  592SOL    HW1 2366   1.593   2.985   0.754  0.7885  0.4643 -1.0511
  592SOL    HW2 2367   1.707   2.901   0.798  0.7811  0.0409  0.3464
  592SOL     MW 2368   1.639   2.911   0.746 -0.1035  0.1752 -0.5356
  593SOL     OW 2369   1.935   0.737   0.717 -0.0773  0.6090 -0.8221
  593SOL    HW1 2370   1.872   0.711   0.645  0.0836 -1.0762  1.3797
  593SOL    HW2 2371   1.996   0.665   0.726  0.0876  0.5347  1.9938
  593SOL     MW 2372   1.935   0.724   0.708 -0.0343  0.3768 -0.1600
  594SOL     OW 2373   2.823   1.048   1.352  0.2427  0.6643  0.3021
  594SOL    HW1 2374   2.906   1.105   1.335  2.6582  1.4443  1.0598
  594SOL    HW2 2375   2.764   1.073   1.277 -2.6446  2.0168 -1.2823
  594SOL     MW 2376   2.827   1.059   1.340  0.1805  0.9457  0.1930
  595SOL     OW 2377   0.547   0.947   0.848  0.1524  0.0199 -0.0750
  595SOL    HW1 2378   0.518   1.014   0.781  0.0797 -0.8579 -0.5115
  595SOL    HW2 2379   0.609   0.998   0.910 -0.7602 -0.7924 -0.3579
  595SOL     MW 2380   0.551   0.963   0.847  0.0224 -0.2031 -0.1699
  596SOL     OW 2381   2.451   1.355   0.494  0.0799 -0.1274  0.3270
  596SOL    HW1 2382   2.456   1.425   0.430 -0.6039 -2.9523  0.6005
  596SOL    HW2 2383   2.487   1.375   0.581 -1.4158 -1.1088  1.3316
  596SOL     MW 2384   2.456   1.367   0.497 -0.2077 -0.6296  0.4957
  597SOL     OW 2385   2.230   0.666   1.614  0.2628  0.7006  1.0209
  597SOL    HW1 2386   2.252   0.600   1.685 -0.0719 -1.0861  1.2432
  597SOL    HW2 2387   2.176   0.611   1.548  1.4170  1.8748  3.7805
  597SOL     MW 2388   2.226   0.650   1.614  0.3709  0.6198  1.4143
  598SOL     OW 2389   2.582   1.015   2.876 -0.0746 -0.4325 -0.2846
  598SOL    HW1 2390   2.584   0.923   2.895  0.2348 -0.2079 -1.6441
  598SOL    HW2 2391   2.671   1.030   2.855 -0.2604 -0.2315 -2.4143
  598SOL     MW 2392   2.594   1.005   2.875 -0.0583 -0.3763 -0.7450
  599SOL     OW 2393   3.017   0.510   2.239 -0.8033  0.5466 -0.6148
  599SOL    HW1 2394   3.097   0.550   2.278  2.2191  1.5408  1.9336
  599SOL    HW2 2395   3.034   0.525   2.137  0.3552  0.8504 -0.2086
  599SOL     MW 2396   3.030   0.517   2.230 -0.2517  0.7179 -0.2249
  600SOL     OW 2397   1.833   1.693   0.825  0.0105 -0.4548 -0.3884
  600SOL    HW1 2398   1.865   1.752   0.897 -0.1003  1.2023 -1.7319
  600SOL    HW2 2399   1.753   1.742   0.807  0.8561 -1.3118 -0.4054
  600SOL     MW 2400   1.827   1.708   0.832  0.1075 -0.3492 -0.5679
  601SOL     OW 2401   2.537   0.764   0.857 -0.0718  0.1969 -0.3729
  601SOL    HW1 2402   2.542   0.741   0.954 -0.4628 -1.2912 -2.8139
  601SOL    HW2 2403   2.489   0.683   0.826  1.3997 -2.0955  0.6387
  601SOL     MW 2404   2.532   0.750   0.866  0.0707 -0.3019 -0.5615
  602SOL     OW 2405   2.247   1.941   0.768 -0.1288  0.9052 -0.1029
  602SOL    HW1 2406   2.178   1.873   0.746 -3.0912 -0.1786  0.6943
  602SOL    HW2 2407   2.222   2.020   0.714 -0.3823 -1.6297  1.5127
  602SOL     MW 2408   2.235   1.942   0.758 -0.5531  0.4277  0.2155
  603SOL     OW 2409   3.015   1.352   1.974  0.6667 -0.5121  0.3004
  603SOL    HW1 2410   2.987   1.409   2.042 -0.1202  1.3997  0.2962
  603SOL    HW2 2411   3.066   1.278   2.017  0.9474 -2.9683  3.2870
  603SOL     MW 2412   3.018   1.350   1.988  0.5999 -0.5840  0.6939
  604SOL     OW 2413   2.021   1.384   0.342 -0.2822 -0.0965 -0.0039
  604SOL    HW1 2414   2.061   1.316   0.396  0.9390 -0.0411 -0.4139
  604SOL    HW2 2415   1.962   1.427   0.405 -0.7120  2.0864 -2.2960
  604SOL     MW 2416   2.019   1.381   0.358 -0.1778  0.1989 -0.3604
  605SOL     OW 2417   2.435   1.448   0.787  0.1699 -0.2120 -0.2409
  605SOL    HW1 2418   2.441   1.513   0.716 -3.2620 -0.0704 -0.4869
  605SOL    HW2 2419   2.490   1.371   0.774  0.2267 -0.6849 -0.7664
  605SOL     MW 2420   2.443   1.447   0.776 -0.2754 -0.2557 -0.3427
  606SOL     OW 2421   2.688   1.775   1.781 -0.0290  0.2819 -0.0261
  606SOL    HW1 2422   2.598   1.799   1.791 -0.7332  0.0085 -3.6392
  606SOL    HW2 2423   2.689   1.684   1.769  1.8277  2.7260  0.9768
  606SOL     MW 2424   2.676   1.766   1.781  0.1231  0.5683 -0.3705
  607SOL     OW 2425   2.398   0.998   3.082 -0.0882  0.2597  0.5088
  607SOL    HW1 2426   2.464   1.048   3.026 -0.3241  0.6928 -0.3079
  607SOL    HW2 2427   2.405   1.035   3.169  0.0542  2.8178 -3.3894
  607SOL     MW 2428   2.408   1.010   3.086 -0.1005  0.6544 -0.1133
  608SOL     OW 2429   1.914   0.256   0.461  0.2593 -0.2279 -0.6988
  608SOL    HW1 2430   1.918   0.297   0.368 -0.9977  1.0877  0.7053
  608SOL    HW2 2431   1.897   0.163   0.440 -0.7114 -0.4377 -0.2711
  608SOL     MW 2432   1.913   0.249   0.446 -0.0346 -0.0820 -0.4571
  609SOL     OW 2433   2.102   1.889   3.086 -0.4010  0.2142  0.0275
  609SOL    HW1 2434   2.038   1.834   3.037  1.1959  0.0739  0.1081
  609SOL    HW2 2435   2.095   1.861   3.179 -3.6053 -0.7723 -1.2558
  609SOL     MW 2436   2.093   1.878   3.092 -0.6131  0.0655 -0.1312
  610SOL     OW 2437   1.800   0.975   1.229 -0.2003  0.1233  0.6630
  610SOL    HW1 2438   1.805   0.899   1.168 -2.2595 -2.4209 -2.1988
  610SOL    HW2 2439   1.700   0.994   1.222 -1.0743  1.3554  2.3561
  610SOL     MW 2440   1.787   0.968   1.220 -0.5873 -0.0498  0.5088
  611SOL     OW 2441   2.479   1.650   0.584 -0.0210  0.4986 -0.4414
  611SOL    HW1 2442   2.461   1.651   0.489 -0.4053 -0.3570 -0.2507
  611SOL    HW2 2443   2.492   1.744   0.601  0.7046  3.0752  0.1605
  611SOL     MW 2444   2.478   1.663   0.574  0.0240  0.7257 -0.3369
  612SOL     OW 2445   2.892   2.859   0.402  0.3205 -0.3717  0.1701
  612SOL    HW1 2446   2.934   2.907   0.473  0.9176 -3.0964 -2.1698
  612SOL    HW2 2447   2.963   2.833   0.340 -0.2058 -0.3214  0.3415
  612SOL     MW 2448   2.907   2.862   0.403  0.3298 -0.7245 -0.1160
  613SOL     OW 2449   1.435   1.134   0.953  0.4836  0.6424 -0.5201
  613SOL    HW1 2450   1.429   1.228   0.950  0.1518  0.8437 -2.6381
  613SOL    HW2 2451   1.462   1.107   1.046  0.0425 -0.7565 -0.8461
  613SOL     MW 2452   1.438   1.143   0.965  0.3816  0.4844 -0.8426
  614SOL     OW 2453   2.065   0.487   1.441  0.0781  0.4887 -0.3003
  614SOL    HW1 2454   2.051   0.456   1.530 -0.1934  1.8268 -0.6350
  614SOL    HW2 2455   1.974   0.523   1.410 -2.0003 -1.4776 -0.2294
  614SOL     MW 2456   2.051   0.488   1.449 -0.2319  0.4058 -0.3351
  615SOL     OW 2457   2.402   0.728   0.332  0.5082  0.2377  0.5934
  615SOL    HW1 2458   2.482   0.671   0.323 -3.0476 -0.4110 -2.7012
  615SOL    HW2 2459   2.347   0.699   0.259  0.7242 -0.5169  0.9789
  615SOL     MW 2460   2.405   0.717   0.322  0.0675  0.0525  0.2096
  616SOL     OW 2461   2.579   0.385   1.647 -0.2860 -0.2347 -0.2450
  616SOL    HW1 2462   2.581   0.312   1.584  0.5420  0.6317  1.6187
  616SOL    HW2 2463   2.576   0.469   1.598  0.5796  0.5431  1.1345
  616SOL     MW 2464   2.579   0.386   1.632 -0.0626 -0.0177  0.1829
  617SOL     OW 2465   2.804   0.567   1.835 -0.1782 -0.1542 -0.4918
  617SOL    HW1 2466   2.713   0.551   1.858  1.8569  0.1216 -2.3470
  617SOL    HW2 2467   2.835   0.476   1.805 -1.8745  0.9798  0.3707
  617SOL     MW 2468   2.796   0.553   1.834 -0.1335  0.0318 -0.6228
  618SOL     OW 2469   2.813   0.213   1.995  0.2444 -0.3980 -0.1657
  618SOL    HW1 2470   2.745   0.261   2.046 -0.9463 -3.9237  0.3549
  618SOL    HW2 2471   2.893   0.235   2.046  1.9578 -2.5513 -1.4027
  618SOL     MW 2472   2.815   0.222   2.008  0.3134 -1.1473 -0.2603
  619SOL     OW 2473   2.727   0.731   0.056  0.1739 -0.4912 -0.3751
  619SOL    HW1 2474   2.766   0.816   0.040 -1.9890  0.4196  0.6726
  619SOL    HW2 2475   2.768   0.692   0.134 -2.6661  0.7659 -0.7394
  619SOL     MW 2476   2.738   0.737   0.064 -0.4862 -0.2052 -0.2849
  620SOL     OW 2477   2.228   1.014   0.913  0.1519 -0.1131  0.1013
  620SOL    HW1 2478   2.315   1.017   0.868 -2.2554  1.7620 -2.2816
  620SOL    HW2 2479   2.167   0.994   0.843 -1.4270  2.2289  0.9273
  620SOL     MW 2480   2.232   1.012   0.898 -0.3740  0.4433 -0.1041
  621SOL     OW 2481   1.517   2.190   1.970 -0.0646 -0.6040  0.6353
  621SOL    HW1 2482   1.462   2.129   2.016 -1.1923  2.6369 -1.3599
  621SOL    HW2 2483   1.608   2.173   1.996 -1.4295 -0.6191 -0.5791
  621SOL     MW 2484   1.522   2.180   1.980 -0.3934 -0.1784  0.2118
  622SOL     OW 2485   2.651   0.277   0.197  0.0242  0.3659 -0.4642
  622SOL    HW1 2486   2.746   0.296   0.207 -2.9056 -0.6080  2.0096
  622SOL    HW2 2487   2.646   0.179   0.184 -0.6426 -0.1732  0.0949
  622SOL     MW 2488   2.663   0.266   0.196 -0.4503  0.1663 -0.0641
  623SOL     OW 2489   2.339   2.785   0.799  0.6537  0.6288  0.1431
  623SOL    HW1 2490   2.409   2.845   0.779 -1.1974  0.1154 -2.0219
  623SOL    HW2 2491   2.345   2.790   0.900 -0.9142 -0.8518 -0.2335
  623SOL     MW 2492   2.349   2.794   0.810  0.2026  0.3657 -0.1923
  624SOL     OW 2493   2.136   1.581   3.017 -0.0865  0.0422 -0.0300
  624SOL    HW1 2494   2.072   1.509   2.999 -2.6730  0.3951 -1.0680
  624SOL    HW2 2495   2.126   1.601   3.111  2.6869 -2.3472 -1.5418
  624SOL     MW 2496   2.126   1.574   3.027 -0.0618 -0.2265 -0.3664
  625SOL     OW 2497   2.143   1.945   1.036 -0.4032  0.3519  0.2400
  625SOL    HW1 2498   2.182   1.876   1.093  0.7058 -0.3677 -0.7647
  625SOL    HW2 2499   2.192   1.943   0.955 -0.8987 -1.9071 -1.0797
  625SOL     MW 2500   2.154   1.935   1.033 -0.3222 -0.0411 -0.0667
  626SOL     OW 2501   0.122   1.847   2.468 -0.1669 -0.2182  0.0749
  626SOL    HW1 2502   0.075   1.755   2.465 -2.0209 -1.7160 -0.7550
  626SOL    HW2 2503   0.055   1.913   2.499 -4.4939 -0.9359  1.2492
  626SOL     MW 2504   0.107   1.843   2.472 -0.9824 -0.5105  0.1203
  627SOL     OW 2505   2.600   0.791   2.613  0.3425  0.6631 -0.3405
  627SOL    HW1 2506   2.509   0.831   2.605 -1.0576 -0.1032 -1.2593
  627SOL    HW2 2507   2.632   0.784   2.524  0.2233 -2.0804  0.1706
  627SOL     MW 2508   2.592   0.795   2.600  0.1420  0.2000 -0.3943
  628SOL     OW 2509   2.335   1.378   1.276 -0.0916 -0.4373 -0.5085
  628SOL    HW1 2510   2.284   1.315   1.228  0.2609  0.1436  0.2941
  628SOL    HW2 2511   2.422   1.336   1.277 -1.0515 -1.1721  3.9002
  628SOL     MW 2512   2.339   1.364   1.270 -0.1717 -0.4576  0.1790
  629SOL     OW 2513   1.849   0.609   1.322 -0.0580 -0.4424 -0.1692
  629SOL    HW1 2514   1.903   0.639   1.248  1.1611  1.3102  1.2342
  629SOL    HW2 2515   1.768   0.579   1.281 -0.3441 -0.5372 -0.6462
  629SOL     MW 2516   1.846   0.609   1.307  0.0651 -0.2237 -0.0470
  630SOL     OW 2517   2.396   1.942   3.067 -0.6397  0.3275 -0.1014
  630SOL    HW1 2518   2.398   2.003   2.989  0.5846  2.6642 -1.5150
  630SOL    HW2 2519   2.300   1.931   3.071  0.7123  1.7658 -1.9313
  630SOL     MW 2520   2.383   1.949   3.057 -0.2998  0.8255 -0.5294
  631SOL     OW 2521   2.095   1.867   1.477 -0.1113  0.3485 -0.1164
  631SOL    HW1 2522   2.068   1.797   1.541 -0.5613  1.2807 -0.0056
  631SOL    HW2 2523   2.025   1.930   1.473  0.4190  1.1295 -0.5605
  631SOL     MW 2524   2.082   1.866   1.485 -0.1007  0.5745 -0.1604
  632SOL     OW 2525   0.388   1.887   1.483 -0.1179  0.3294  0.5072
  632SOL    HW1 2526   0.335   1.962   1.466  2.2925 -0.4255  0.5671
  632SOL    HW2 2527   0.323   1.809   1.493 -1.5700 -2.6068  0.2282
  632SOL     MW 2528   0.373   1.887   1.482  0.0086 -0.1576  0.4783
  633SOL     OW 2529   2.617   0.571   0.364 -0.1286  0.6446 -0.0945
  633SOL    HW1 2530   2.693   0.558   0.415 -1.0680  0.7661 -0.2794
  633SOL    HW2 2531   2.587   0.480   0.353  0.2358  1.7053  1.3962
  633SOL     MW 2532   2.623   0.557   0.369 -0.2045  0.8006  0.0778
  634SOL     OW 2533   2.706   3.085   0.618  0.1956  0.3255  0.6683
  634SOL    HW1 2534   2.699   3.177   0.605  1.2751 -0.9374  1.5954
  634SOL    HW2 2535   2.684   3.045   0.535 -1.1099  1.6039 -0.1083
  634SOL     MW 2536   2.702   3.092   0.606  0.1658  0.3275  0.6881
  635SOL     OW 2537   2.663   0.064   1.844 -0.0525  0.5036 -0.2690
  635SOL    HW1 2538   2.725   0.007   1.794 -0.6459  4.7861  1.0098
  635SOL    HW2 2539   2.719   0.121   1.898 -0.0050 -0.5336 -2.8537
  635SOL     MW 2540   2.679   0.064   1.844 -0.1245  0.9318 -0.4413
  636SOL     OW 2541   2.690   1.640   0.751 -0.0253 -0.1203 -0.1468
  636SOL    HW1 2542   2.607   1.610   0.721  1.1579 -2.0382 -1.1929
  636SOL    HW2 2543   2.688   1.734   0.764 -0.6451 -1.2282 -0.5595
  636SOL     MW 2544   2.679   1.648   0.749  0.0490 -0.5195 -0.3393
  637SOL     OW 2545   2.936   1.437   0.715  0.4357 -0.2209 -0.1479
  637SOL    HW1 2546   2.985   1.513   0.749  0.8332  2.0726 -0.4281
  637SOL    HW2 2547   2.843   1.464   0.727  0.1802 -1.3189 -1.0853
  637SOL     MW 2548   2.930   1.451   0.721  0.4544 -0.0632 -0.3086
  638SOL     OW 2549   2.824   0.535   0.556  0.4975 -0.0819  0.1811
  638SOL    HW1 2550   2.899   0.574   0.513 -0.7600 -1.1633  0.8544
  638SOL    HW2 2551   2.814   0.568   0.646 -3.6760 -0.4090  0.0907
  638SOL     MW 2552   2.833   0.544   0.562 -0.2191 -0.2677  0.2580
  639SOL     OW 2553   1.825   3.084   0.531 -0.1959  0.0134 -0.3373
  639SOL    HW1 2554   1.733   3.057   0.555  2.3215  1.6918  1.8886
  639SOL    HW2 2555   1.855   2.997   0.504 -2.7223 -0.0190 -2.5681
  639SOL     MW 2556   1.816   3.069   0.530 -0.1971  0.2306 -0.3379
  640SOL     OW 2557   0.287   1.447   0.123  0.1262 -0.5125  0.5965
  640SOL    HW1 2558   0.354   1.450   0.053 -0.0387  3.0805 -2.0255
  640SOL    HW2 2559   0.303   1.360   0.161  1.2770  1.6590 -0.5770
  640SOL     MW 2560   0.298   1.436   0.118  0.2563  0.2480  0.0957
  641SOL     OW 2561   2.316   0.367   0.389  0.3949  0.6451 -0.1053
  641SOL    HW1 2562   2.329   0.317   0.305  0.4699 -1.3453  0.7641
  641SOL    HW2 2563   2.358   0.310   0.452  0.6453 -0.8959  1.2916
  641SOL     MW 2564   2.323   0.353   0.386  0.4378  0.1792  0.1938
  642SOL     OW 2565   0.119   3.068   0.473  0.3724 -0.3932 -0.3338
  642SOL    HW1 2566   0.101   3.163   0.452 -3.6701 -1.1444 -0.2219
  642SOL    HW2 2567   0.053   3.051   0.540  4.5325 -2.8710  0.3639
  642SOL     MW 2568   0.108   3.078   0.479  0.3879 -0.8192 -0.2270
  643SOL     OW 2569   2.130   0.353   1.673 -0.1408 -0.3734 -0.0302
  643SOL    HW1 2570   2.047   0.316   1.714 -1.7812 -0.0577 -1.1485
  643SOL    HW2 2571   2.153   0.286   1.604 -0.1813  0.2705  0.4607
  643SOL     MW 2572   2.122   0.339   1.669 -0.3626 -0.2468 -0.1130
  644SOL     OW 2573   2.701   1.909   0.946  0.2184 -0.2760 -0.1963
  644SOL    HW1 2574   2.677   1.875   1.029 -3.0728  0.2942 -2.4546
  644SOL    HW2 2575   2.630   1.970   0.917  0.4239 -1.3833 -0.2725
  644SOL     MW 2576   2.688   1.912   0.953 -0.1887 -0.3468 -0.5043
  645SOL     OW 2577   2.825   0.991   0.776  0.2541 -0.0659  0.1588
  645SOL    HW1 2578   2.916   0.970   0.796  0.8322  0.3553  1.2565
  645SOL    HW2 2579   2.792   1.009   0.866  0.9815 -0.4328  2.1356
  645SOL     MW 2580   2.833   0.991   0.791  0.4264 -0.0587  0.5644
  646SOL     OW 2581   0.124   2.276   0.853  0.2410  0.2436 -0.4795
  646SOL    HW1 2582   0.117   2.172   0.853 -2.3072 -4.4975  0.0182
  646SOL    HW2 2583   0.083   2.314   0.770  1.1571  0.6588 -2.4503
  646SOL     MW 2584   0.118   2.267   0.842  0.0256 -0.3271 -0.6739
  647SOL     OW 2585   2.799   0.490   3.025  0.0132 -0.6208  0.1277
  647SOL    HW1 2586   2.718   0.468   3.073 -1.1330  1.0024  1.5759
  647SOL    HW2 2587   2.787   0.584   3.039  0.9212  0.1665 -0.8904
  647SOL     MW 2588   2.786   0.499   3.033 -0.0182 -0.3027  0.1845
  648SOL     OW 2589   2.119   0.633   1.119 -0.2555 -0.2108  0.0613
  648SOL    HW1 2590   2.191   0.577   1.160  2.2228  1.3120  0.0158
  648SOL    HW2 2591   2.131   0.717   1.166  1.6098 -0.7697  0.5242
  648SOL     MW 2592   2.130   0.636   1.131  0.3176 -0.0836  0.1164
  649SOL     OW 2593   2.415   2.689   1.315 -0.6064 -0.1159  0.1289
  649SOL    HW1 2594   2.512   2.691   1.323 -0.0795 -0.0773  0.7738
  649SOL    HW2 2595   2.414   2.600   1.271  1.9958  2.2615 -1.9426
  649SOL     MW 2596   2.428   2.677   1.310 -0.1935  0.2029 -0.0593
  650SOL     OW 2597   2.722   0.248   0.515  0.5826  0.0324  0.2924
  650SOL    HW1 2598   2.779   0.326   0.502 -1.1220  1.5462  0.2457
  650SOL    HW2 2599   2.725   0.202   0.429  0.1948  3.6989 -1.2708
  650SOL     MW 2600   2.730   0.252   0.502  0.3065  0.7159  0.0800
  651SOL     OW 2601   3.100   0.462   1.000  0.0711  0.1215 -0.3645
  651SOL    HW1 2602   3.151   0.533   0.957 -0.4747  1.9297  2.1752
  651SOL    HW2 2603   3.016   0.504   1.036 -1.1797  0.1026 -0.5969
  651SOL     MW 2604   3.095   0.477   0.999 -0.1659  0.3576 -0.0601
  652SOL     OW 2605   2.317   1.432   2.900  0.2057  0.0118 -0.7327
  652SOL    HW1 2606   2.401   1.468   2.868 -0.7878 -0.8572 -2.1547
  652SOL    HW2 2607   2.255   1.501   2.929  1.0626 -1.6678  0.4208
  652SOL     MW 2608   2.320   1.446   2.900  0.1877 -0.3245 -0.7681
  653SOL     OW 2609   1.849   0.373   0.217 -0.1013  0.0650 -0.4173
  653SOL    HW1 2610   1.815   0.287   0.187  0.6679  0.1316  1.3082
  653SOL    HW2 2611   1.860   0.422   0.135 -0.6282 -2.2192 -0.3332
  653SOL     MW 2612   1.846   0.369   0.202 -0.0694 -0.2276 -0.1785
  654SOL     OW 2613   2.445   1.003   0.732  0.3768 -0.8062  0.3175
  654SOL    HW1 2614   2.431   0.989   0.643 -0.1877  2.4672  1.0503
  654SOL    HW2 2615   2.490   0.918   0.762  0.7189  0.9903 -1.0709
  654SOL     MW 2616   2.449   0.990   0.724  0.3475 -0.1373  0.2310
  655SOL     OW 2617   2.914   0.960   0.307  0.7936  0.0731  0.2106
  655SOL    HW1 2618   2.864   0.984   0.383 -0.1525 -0.8186 -1.6805
  655SOL    HW2 2619   2.973   0.890   0.330  0.2534  0.1220 -0.6643
  655SOL     MW 2620   2.915   0.954   0.320  0.5975 -0.0381 -0.1544
  656SOL     OW 2621   1.743   2.666   1.439 -0.7298  0.3311  0.1885
  656SOL    HW1 2622   1.804   2.737   1.429 -1.1092 -0.3373 -0.4464
  656SOL    HW2 2623   1.788   2.590   1.404 -0.6675  0.7527  1.7748
  656SOL     MW 2624   1.757   2.665   1.433 -0.7716  0.2985  0.3140
  657SOL     OW 2625   0.086   1.779   1.117 -0.0817  0.0144  0.2248
  657SOL    HW1 2626   0.175   1.802   1.121 -0.1576 -2.5752 -0.3669
  657SOL    HW2 2627   0.092   1.685   1.119  0.6902  1.1459 -0.0071
  657SOL     MW 2628   0.098   1.769   1.117  0.0101 -0.1779  0.1161
  658SOL     OW 2629   2.654   1.348   0.214 -0.3645 -0.0664 -0.0085
  658SOL    HW1 2630   2.666   1.271   0.268  0.5371  1.0556  0.9899
  658SOL    HW2 2631   2.688   1.418   0.273 -0.9364 -2.8173 -0.8921
  658SOL     MW 2632   2.660   1.347   0.229 -0.3210 -0.2813  0.0066
  659SOL     OW 2633   2.102   1.393   1.044  0.4974  0.2762  0.1531
  659SOL    HW1 2634   2.176   1.340   1.064 -1.1076  1.3316 -3.7694
  659SOL    HW2 2635   2.109   1.471   1.099  0.6923 -0.7011 -1.1780
  659SOL     MW 2636   2.113   1.396   1.054  0.3113  0.2865 -0.5400
  660SOL     OW 2637   2.082   1.616   1.605  0.0602  0.2076 -0.1853
  660SOL    HW1 2638   2.109   1.607   1.697 -0.0464 -1.5868 -1.4693
  660SOL    HW2 2639   2.020   1.539   1.616 -1.2317 -0.7892 -0.0188
  660SOL     MW 2640   2.077   1.605   1.619 -0.1244 -0.1607 -0.3327
  661SOL     OW 2641   2.383   0.998   0.269 -0.6442 -0.4983  0.2930
  661SOL    HW1 2642   2.461   1.045   0.313 -0.7801 -0.2828  0.7038
  661SOL    HW2 2643   2.398   0.901   0.281  0.3894  2.1333  0.5389
  661SOL     MW 2644   2.395   0.991   0.276 -0.5258 -0.1226  0.3796
  662SOL     OW 2645   2.510   2.994   0.788 -0.3084 -0.3163 -0.2784
  662SOL    HW1 2646   2.440   3.038   0.833 -1.1195 -2.5900  3.0372
  662SOL    HW2 2647   2.551   3.052   0.726 -0.6436  0.9930 -0.7708
  662SOL     MW 2648   2.506   3.007   0.786 -0.4597 -0.4435  0.0941
  663SOL     OW 2649   2.722   1.539   0.394  0.2434  0.1607  0.0967
  663SOL    HW1 2650   2.713   1.623   0.351 -1.2630 -1.2458  1.6157
  663SOL    HW2 2651   2.771   1.556   0.468  3.2557 -0.0367 -0.8142
  663SOL     MW 2652   2.728   1.552   0.398  0.4421 -0.0510  0.1769
  664SOL     OW 2653   2.532   1.487   1.550  0.0984  0.0715  0.3327
  664SOL    HW1 2654   2.506   1.571   1.511  3.1018  1.9706  2.4812
  664SOL    HW2 2655   2.451   1.450   1.588 -1.2104  3.3150 -0.8179
  664SOL     MW 2656   2.518   1.493   1.550  0.3220  0.7500  0.4644
  665SOL     OW 2657   2.878   0.758   2.153  0.0383 -0.1034  0.6562
  665SOL    HW1 2658   2.861   0.780   2.061  1.4738  0.1602  0.1959
  665SOL    HW2 2659   2.958   0.708   2.144  0.3074 -1.1626  0.1657
  665SOL     MW 2660   2.886   0.754   2.139  0.2632 -0.2084  0.5308
  666SOL     OW 2661   2.802   2.966   1.690  0.1078 -0.2168 -0.3351
  666SOL    HW1 2662   2.785   2.979   1.595  1.3537 -0.3443  0.4455
  666SOL    HW2 2663   2.763   2.877   1.713 -1.2178 -2.0043  0.3482
  666SOL     MW 2664   2.795   2.956   1.680  0.0973 -0.4694 -0.1419
  667SOL     OW 2665   2.005   2.699   1.738 -0.2245 -0.0750  0.0240
  667SOL    HW1 2666   2.022   2.676   1.830 -1.3599 -0.5863  1.5624
  667SOL    HW2 2667   2.058   2.773   1.709 -2.0304 -2.8585  0.5047
  667SOL     MW 2668   2.014   2.706   1.746 -0.6126 -0.5097  0.2904
  668SOL     OW 2669   2.776   0.614   0.817 -0.6553  0.3926  0.0290
  668SOL    HW1 2670   2.834   0.602   0.891  0.4743  0.0654 -1.0507
  668SOL    HW2 2671   2.712   0.678   0.842 -0.5146  1.3298 -2.2606
  668SOL     MW 2672   2.775   0.621   0.830 -0.4877  0.4731 -0.4156
  669SOL     OW 2673   0.191   1.009   0.677  0.4719 -0.3435  0.2305
  669SOL    HW1 2674   0.172   1.004   0.774 -1.2663  0.1673  2.3079
  669SOL    HW2 2675   0.281   1.058   0.668 -1.8366  1.4661 -0.9301
  669SOL     MW 2676   0.200   1.015   0.689 -0.0621 -0.0373  0.3514
  670SOL     OW 2677   2.908   0.337   0.253  0.1997 -0.2446 -0.3691
  670SOL    HW1 2678   2.928   0.272   0.186 -0.9739  1.2101  1.7300
  670SOL    HW2 2679   2.902   0.426   0.211 -0.4566  1.5097 -1.3523
  670SOL     MW 2680   2.910   0.340   0.238 -0.0417  0.1788 -0.2219
  671SOL     OW 2681   2.058   3.022   1.475  0.3024 -0.1155  0.7501
  671SOL    HW1 2682   1.997   2.982   1.409  0.7621  0.0796  1.9117
  671SOL    HW2 2683   2.001   3.047   1.547 -0.1959 -1.2095  2.4577
  671SOL     MW 2684   2.042   3.020   1.475  0.2973 -0.2341  1.1287
  672SOL     OW 2685   1.798   1.790   1.302 -0.3578  0.6408 -0.1830
  672SOL    HW1 2686   1.795   1.877   1.360  0.0027  0.3303  1.4956
  672SOL    HW2 2687   1.810   1.818   1.211  2.3075  1.5290  0.5389
  672SOL     MW 2688   1.799   1.805   1.297  0.0414  0.7170  0.1337
  673SOL     OW 2689   2.824   1.089   0.522 -0.0196  0.2862 -0.0106
  673SOL    HW1 2690   2.810   1.037   0.596  0.8603 -2.5449 -0.6190
  673SOL    HW2 2691   2.915   1.118   0.544  1.5721 -0.4064 -1.4978
  673SOL     MW 2692   2.834   1.086   0.534  0.3065 -0.1787 -0.2870
  674SOL     OW 2693   2.465   3.048   1.198  0.5312 -0.2499 -0.2564
  674SOL    HW1 2694   2.424   3.070   1.116  0.5226 -0.4501 -0.7105
  674SOL    HW2 2695   2.465   2.954   1.197 -3.2959  1.8454  0.0301
  674SOL     MW 2696   2.459   3.039   1.187  0.0251  0.0001 -0.2785
  675SOL     OW 2697   2.992   0.841   1.053  0.6789 -0.2482 -0.6881
  675SOL    HW1 2698   3.042   0.831   1.134  0.8470 -2.6639 -0.4572
  675SOL    HW2 2699   3.038   0.911   0.998 -1.0531  3.3249 -1.7787
  675SOL     MW 2700   3.004   0.849   1.056  0.4726 -0.0955 -0.8015
  676SOL     OW 2701   2.891   1.432   1.734  0.0921  0.0092 -0.0087
  676SOL    HW1 2702   2.879   1.354   1.681  0.5519 -2.9757  0.0511
  676SOL    HW2 2703   2.936   1.403   1.814 -0.0317 -3.7182 -2.3146
  676SOL     MW 2704   2.895   1.418   1.737  0.1364 -0.8764 -0.3051
  677SOL     OW 2705   2.480   0.717   1.874  0.2122 -0.0383 -0.1535
  677SOL    HW1 2706   2.425   0.646   1.840  2.9836 -1.5567 -0.8288
  677SOL    HW2 2707   2.421   0.788   1.904  0.8438  4.0419 -0.2348
  677SOL     MW 2708   2.465   0.717   1.873  0.6612  0.2997 -0.2533
  678SOL     OW 2709   2.374   1.565   0.326  0.3327  0.0384 -0.0044
  678SOL    HW1 2710   2.289   1.606   0.341  0.5775 -1.3673 -0.0094
  678SOL    HW2 2711   2.373   1.512   0.242  1.3407 -0.7292 -0.8591
  678SOL     MW 2712   2.363   1.563   0.317  0.4980 -0.2483 -0.1178
  679SOL     OW 2713   2.274   0.454   1.265 -0.2657  0.7170 -0.5195
  679SOL    HW1 2714   2.247   0.382   1.207 -1.1509  1.1525 -2.7769
  679SOL    HW2 2715   2.212   0.449   1.335  1.2275  1.4915  0.2049
  679SOL     MW 2716   2.262   0.444   1.266 -0.1855  0.8766 -0.7218
  680SOL     OW 2717   2.448   0.166   1.485 -0.8433  0.2469  0.2090
  680SOL    HW1 2718   2.359   0.181   1.468  1.5780 -0.0543  1.0679
  680SOL    HW2 2719   2.468   0.094   1.419  0.9058  3.0155 -0.7204
  680SOL     MW 2720   2.439   0.159   1.474 -0.2931  0.5724  0.1997
  681SOL     OW 2721   0.233   0.582   1.452  0.5476  0.4152  0.1436
  681SOL    HW1 2722   0.202   0.508   1.499 -0.0552  0.1966  1.1145
  681SOL    HW2 2723   0.225   0.553   1.359 -1.5544 -2.6552 -1.4467
  681SOL     MW 2724   0.228   0.568   1.446  0.1907 -0.0188  0.0619
  682SOL     OW 2725   3.045   2.854   1.531 -0.4337 -0.0973  0.0822
  682SOL    HW1 2726   3.109   2.918   1.554 -3.0412 -2.5063  2.2193
  682SOL    HW2 2727   2.973   2.903   1.567  3.9814  0.0342 -1.5034
  682SOL     MW 2728   3.044   2.869   1.539 -0.1952 -0.3978  0.1549
  683SOL     OW 2729   2.120   0.787   3.021  0.0899  0.7093 -0.1687
  683SOL    HW1 2730   2.042   0.730   3.032  0.8070  1.2876 -0.9251
  683SOL    HW2 2731   2.077   0.867   3.061 -2.3936 -1.1768  2.5723
  683SOL     MW 2732   2.104   0.790   3.028 -0.1432  0.5368  0.0932
  684SOL     OW 2733   2.061   1.760   0.685 -0.0032  0.0376  0.4063
  684SOL    HW1 2734   2.075   1.705   0.603  1.3151  1.6011 -0.5763
  684SOL    HW2 2735   1.983   1.725   0.729 -1.2706  2.1216  1.6289
  684SOL     MW 2736   2.053   1.748   0.680  0.0035  0.5189  0.4380
  685SOL     OW 2737   2.629   1.749   1.168  0.1265  0.2412  0.2784
  685SOL    HW1 2738   2.650   1.725   1.259 -3.7595 -1.1315  0.5443
  685SOL    HW2 2739   2.615   1.663   1.128 -2.6940 -3.0773  1.8857
  685SOL     MW 2740   2.630   1.735   1.175 -0.7583 -0.3778  0.5256
  686SOL     OW 2741   2.820   0.645   1.539  0.4162  0.2570 -0.6839
  686SOL    HW1 2742   2.799   0.610   1.623  0.3375  0.5483  1.2409
  686SOL    HW2 2743   2.911   0.682   1.551  0.1969  1.5470  0.1683
  686SOL     MW 2744   2.829   0.646   1.551  0.3769  0.4656 -0.3175
  687SOL     OW 2745   2.156   0.205   1.090  0.4623  0.6882  0.3189
  687SOL    HW1 2746   2.222   0.176   1.032 -0.7080 -3.8579 -1.0919
  687SOL    HW2 2747   2.110   0.265   1.030  1.0230  2.4749  0.9724
  687SOL     MW 2748   2.159   0.209   1.074  0.3819  0.3241  0.2190
  688SOL     OW 2749   2.476   0.594   1.487  0.2241 -0.2959  0.4599
  688SOL    HW1 2750   2.444   0.556   1.403 -0.0692  0.3012  0.8268
  688SOL    HW2 2751   2.398   0.621   1.538 -0.4724 -0.2403  0.9297
  688SOL     MW 2752   2.462   0.593   1.482  0.0935 -0.2098  0.5703
  689SOL     OW 2753   2.499   0.744   3.013 -0.0883  0.2037  0.1785
  689SOL    HW1 2754   2.442   0.821   3.035  2.5249  1.3297  0.5128
  689SOL    HW2 2755   2.574   0.739   3.073  0.9315  1.4842  1.9192
  689SOL     MW 2756   2.501   0.754   3.024  0.3910  0.5212  0.4523
  690SOL     OW 2757   2.016   0.974   1.832  0.2893 -0.3068 -0.0180
  690SOL    HW1 2758   2.011   0.882   1.863  0.7131  0.3396  1.0325
  690SOL    HW2 2759   2.094   0.976   1.771  2.8514  3.2772 -1.5206
  690SOL     MW 2760   2.026   0.962   1.828  0.6832  0.2514 -0.0776
  691SOL     OW 2761   2.426   0.304   0.881 -0.0526 -0.3562  0.3996
  691SOL    HW1 2762   2.511   0.322   0.921  0.4945 -0.8955  0.6893
  691SOL    HW2 2763   2.413   0.392   0.846  2.5215 -2.5505  2.3175
  691SOL     MW 2764   2.435   0.318   0.882  0.3592 -0.7169  0.6909
  692SOL     OW 2765   2.756   1.638   1.386  0.0672  0.1194 -0.1383
  692SOL    HW1 2766   2.708   1.594   1.453 -4.2162  0.9464 -1.3550
  692SOL    HW2 2767   2.817   1.695   1.431  2.5890 -0.1047 -2.8913
  692SOL     MW 2768   2.758   1.640   1.401 -0.1652  0.1989 -0.6620
  693SOL     OW 2769   2.232   0.443   3.089 -0.4767 -0.7268 -0.3620
  693SOL    HW1 2770   2.187   0.367   3.113 -0.9159 -2.1726  0.7284
  693SOL    HW2 2771   2.229   0.503   3.161 -3.0058 -0.8750 -0.5688
  693SOL     MW 2772   2.226   0.441   3.102 -0.8683 -0.9371 -0.2454
  694SOL     OW 2773   1.963   1.190   1.187  0.4988 -0.0180 -0.1705
  694SOL    HW1 2774   2.061   1.176   1.176  2.7115 -1.0305  3.1755
  694SOL    HW2 2775   1.915   1.108   1.215 -0.9270 -1.1144 -0.6114
  694SOL     MW 2776   1.970   1.177   1.189  0.6026 -0.2963  0.2128
  695SOL     OW 2777   2.929   1.436   1.298 -0.5262  0.2078  0.8895
  695SOL    HW1 2778   2.907   1.426   1.202  0.4334  2.1387 -0.6459
  695SOL    HW2 2779   2.880   1.511   1.332  1.9972 -0.2675 -2.3397
  695SOL     MW 2780   2.920   1.444   1.290 -0.0666  0.3999  0.2609
  696SOL     OW 2781   2.045   1.356   0.751 -0.1690 -0.7784  0.0188
  696SOL    HW1 2782   2.088   1.389   0.829 -0.5559 -1.1374  2.2592
  696SOL    HW2 2783   1.971   1.304   0.783  0.6195 -2.3514  0.6035
  696SOL     MW 2784   2.041   1.353   0.766 -0.1160 -1.0333  0.3915
  697SOL     OW 2785   2.925   1.047   2.234  0.4050 -0.1429  0.3397
  697SOL    HW1 2786   2.850   1.101   2.252  1.0230  3.1604  0.8219
  697SOL    HW2 2787   2.900   0.951   2.218 -1.2729 -0.8871  0.8927
  697SOL     MW 2788   2.912   1.041   2.235  0.2652  0.1948  0.4762
  698SOL     OW 2789   2.508   0.382   3.065 -0.4539 -0.6267 -0.0768
  698SOL    HW1 2790   2.411   0.410   3.071  2.1990  1.7369 -0.1457
  698SOL    HW2 2791   2.533   0.368   3.153 -2.6535 -0.6382 -1.4412
  698SOL     MW 2792   2.499   0.384   3.077 -0.3941 -0.3164 -0.2659
  699SOL     OW 2793   1.861   1.569   1.992 -0.3731  0.1115 -0.3749
  699SOL    HW1 2794   1.854   1.495   2.058 -0.7430  0.4410  1.0308
  699SOL    HW2 2795   1.941   1.551   1.945  0.0048 -2.3283  0.9498
  699SOL     MW 2796   1.870   1.557   1.995 -0.3721 -0.1669 -0.0146
  700SOL     OW 2797   2.710   0.895   1.583  0.0950 -0.0132 -0.6228
  700SOL    HW1 2798   2.791   0.942   1.579  2.4591 -0.1370  0.7220
  700SOL    HW2 2799   2.735   0.802   1.573  0.5293 -0.7452 -2.7368
  700SOL     MW 2800   2.724   0.889   1.581  0.4642 -0.1261 -0.7243
  701SOL     OW 2801   1.630   1.069   2.586 -0.4499 -0.1055  0.0049
  701SOL    HW1 2802   1.707   1.019   2.617  1.0456 -1.5785 -0.5989
  701SOL    HW2 2803   1.599   1.145   2.646 -0.3276 -2.2358 -0.9492
  701SOL     MW 2804   1.636   1.072   2.598 -0.2365 -0.5809 -0.2007
  702SOL     OW 2805   2.073   0.491   0.689  0.0627  0.3419  0.1843
  702SOL    HW1 2806   2.068   0.389   0.680  0.8463  1.9587  1.1477
  702SOL    HW2 2807   2.146   0.522   0.626  1.5738 -1.2357  1.1327
  702SOL     MW 2808   2.082   0.482   0.680  0.3654  0.3471  0.4365
  703SOL     OW 2809   2.686   1.258   0.993 -0.8069  0.1039  0.0477
  703SOL    HW1 2810   2.663   1.243   0.899 -3.5432  0.2271 -0.2754
  703SOL    HW2 2811   2.693   1.162   1.021 -0.4168 -0.8230 -1.1616
  703SOL     MW 2812   2.684   1.244   0.984 -1.1164 -0.0021 -0.1544
  704SOL     OW 2813   3.060   1.285   0.172  0.4552 -0.4162  0.6693
  704SOL    HW1 2814   2.976   1.272   0.118 -0.2122  1.9028 -0.1105
  704SOL    HW2 2815   3.034   1.248   0.257  2.2008 -2.8665 -0.3900
  704SOL     MW 2816   3.046   1.278   0.176  0.5974 -0.4335  0.4266
  705SOL     OW 2817   2.049   1.610   1.301  0.2134 -0.2814 -0.0217
  705SOL    HW1 2818   2.004   1.693   1.293 -0.0170  2.2896  1.6008
  705SOL    HW2 2819   2.095   1.623   1.385 -0.5944  3.4218  0.2784
  705SOL     MW 2820   2.049   1.623   1.311  0.0764  0.5465  0.2320
  706SOL     OW 2821   3.059   1.178   0.661  0.3680  0.0582 -0.8300
  706SOL    HW1 2822   3.134   1.186   0.597  1.6090 -0.8194 -3.8814
  706SOL    HW2 2823   3.013   1.263   0.659  0.7416  1.5930  1.3619
  706SOL     MW 2824   3.063   1.190   0.652  0.5810  0.1449 -0.9434
  707SOL     OW 2825   2.330   0.050   0.943  0.0277 -0.3574 -0.3082
  707SOL    HW1 2826   2.343   0.138   0.899  0.9903  1.6024 -0.3827
  707SOL    HW2 2827   2.264   0.001   0.898  1.8586  1.9143  1.1708
  707SOL     MW 2828   2.323   0.055   0.931  0.3962  0.2009 -0.1229
  708SOL     OW 2829   2.389   1.423   0.090 -0.0778  0.0422 -0.6157
  708SOL    HW1 2830   2.483   1.403   0.092 -0.9931 -0.8991 -0.2662
  708SOL    HW2 2831   2.371   1.435  -0.001 -1.4910 -0.8466  1.2583
  708SOL     MW 2832   2.399   1.422   0.078 -0.3850 -0.1993 -0.3223
  709SOL     OW 2833   1.695   1.586   0.226  0.3261 -0.9444  0.2643
  709SOL    HW1 2834   1.670   1.618   0.137  1.9588 -0.8402 -1.2776
  709SOL    HW2 2835   1.613   1.587   0.281 -1.2544  1.5126 -0.8808
  709SOL     MW 2836   1.681   1.591   0.221  0.3330 -0.6065 -0.0902
  710SOL     OW 2837   2.254   1.169   1.131 -0.1782 -0.2159 -0.9872
  710SOL    HW1 2838   2.245   1.119   1.047  2.9627  0.9279 -2.5220
  710SOL    HW2 2839   2.274   1.097   1.191 -1.2969 -0.9416  0.8824
  710SOL     MW 2840   2.256   1.153   1.128  0.0886 -0.1607 -0.9430
  711SOL     OW 2841   2.389   0.084   1.775  0.5461  0.2734 -0.4969
  711SOL    HW1 2842   2.483   0.089   1.800  0.5421 -1.6745  0.2021
  711SOL    HW2 2843   2.411   0.089   1.679 -1.8888 -2.7552 -1.5259
  711SOL     MW 2844   2.405   0.085   1.765  0.2243 -0.3832 -0.5404
  712SOL     OW 2845   1.888   0.619   3.086 -0.2421  0.1635 -0.1075
  712SOL    HW1 2846   1.843   0.661   3.015  0.7424 -0.9295  2.3207
  712SOL    HW2 2847   1.846   0.666   3.166  1.4301  1.4029 -0.0973
  712SOL     MW 2848   1.876   0.631   3.087  0.1084  0.1828  0.2142
  713SOL     OW 2849   2.590   0.682   1.115  0.1452  0.0766 -0.3781
  713SOL    HW1 2850   2.610   0.586   1.123  1.1914  0.3159  0.3829
  713SOL    HW2 2851   2.588   0.724   1.202  3.7363  0.9812 -0.4395
  713SOL     MW 2852   2.592   0.675   1.128  0.7570  0.2275 -0.2858
  714SOL     OW 2853   2.222   0.203   1.989 -0.1972 -0.1449 -0.3083
  714SOL    HW1 2854   2.277   0.146   2.040  0.2637  1.0676  0.1795
  714SOL    HW2 2855   2.267   0.189   1.907  0.7352 -0.6938  0.5020
  714SOL     MW 2856   2.236   0.194   1.985 -0.0134 -0.0574 -0.1370
  715SOL     OW 2857   1.837   1.982   1.695 -0.0795 -0.1228  0.1759
  715SOL    HW1 2858   1.930   2.008   1.723 -1.0180 -0.5159  0.5693
  715SOL    HW2 2859   1.797   1.913   1.755 -0.8214 -0.2473  2.4466
  715SOL     MW 2860   1.844   1.976   1.707 -0.3012 -0.1911  0.5274
  716SOL     OW 2861   2.444   0.540   0.735 -0.2298  0.7780  0.0042
  716SOL    HW1 2862   2.517   0.511   0.686  0.8980  0.0211 -1.0526
  716SOL    HW2 2863   2.379   0.577   0.677 -1.7900 -0.3338 -1.7659
  716SOL     MW 2864   2.445   0.541   0.721 -0.2868  0.5314 -0.3688
  717SOL     OW 2865   2.787   1.682   2.841 -0.2800  0.3075 -0.2324
  717SOL    HW1 2866   2.862   1.632   2.880  2.2286 -1.3418  1.0403
  717SOL    HW2 2867   2.731   1.695   2.915  3.0320 -1.2543 -1.6630
  717SOL     MW 2868   2.790   1.677   2.856  0.4880 -0.1161 -0.2533
  718SOL     OW 2869   2.637   1.309   1.311 -0.1690 -0.1797  0.4241
  718SOL    HW1 2870   2.643   1.331   1.403 -0.0065 -0.7011 -2.3783
  718SOL    HW2 2871   2.723   1.321   1.274  1.2519 -0.2701  0.5524
  718SOL     MW 2872   2.649   1.314   1.318  0.0399 -0.2604  0.0713
  719SOL     OW 2873   2.187   1.239   0.520 -0.1176 -0.6138 -0.0459
  719SOL    HW1 2874   2.259   1.305   0.519 -0.8668 -1.9642 -1.2406
  719SOL    HW2 2875   2.129   1.255   0.603 -0.4252 -1.3920  0.4294
  719SOL     MW 2876   2.189   1.250   0.531 -0.2570 -0.8947 -0.1408
  720SOL     OW 2877   2.840   1.258   0.038  0.0137  0.5652 -0.0670
  720SOL    HW1 2878   2.837   1.163   0.060  2.0792 -1.0194  2.0851
  720SOL    HW2 2879   2.773   1.301   0.089 -1.5784 -1.2203 -1.6104
  720SOL     MW 2880   2.831   1.251   0.048  0.0761  0.1205  0.0133
  721SOL     OW 2881   2.574   0.811   1.365 -0.4892 -0.1562  0.4183
  721SOL    HW1 2882   2.532   0.732   1.407 -1.2587 -1.5672  1.8985
  721SOL    HW2 2883   2.620   0.860   1.436  4.8823  1.8938  0.8997
  721SOL     MW 2884   2.575   0.807   1.380  0.1180 -0.0719  0.6771
  722SOL     OW 2885   2.585   1.134   0.402  0.3476 -0.2526 -0.2353
  722SOL    HW1 2886   2.540   1.212   0.441  1.7924 -0.5375 -2.4420
  722SOL    HW2 2887   2.663   1.124   0.458  0.5239  1.7987 -0.0586
  722SOL     MW 2888   2.589   1.143   0.414  0.5615 -0.0196 -0.5032
  723SOL     OW 2889   2.284   1.343   1.543  0.0580  0.3887 -0.0133
  723SOL    HW1 2890   2.305   1.344   1.450 -1.4439 -3.0965 -0.0546
  723SOL    HW2 2891   2.198   1.380   1.556 -3.3758 -1.1465  1.6208
  723SOL     MW 2892   2.275   1.348   1.533 -0.5932 -0.2737  0.1969
  724SOL     OW 2893   2.480   0.249   0.615 -0.3619 -0.4626 -0.1911
  724SOL    HW1 2894   2.489   0.267   0.707 -2.0821 -1.1278 -0.6445
  724SOL    HW2 2895   2.570   0.248   0.580  1.0447  0.7770  0.0905
  724SOL     MW 2896   2.493   0.251   0.622 -0.4033 -0.3868 -0.2138
  725SOL     OW 2897   2.649   0.412   1.175  0.0271 -0.2255 -0.7135
  725SOL    HW1 2898   2.719   0.434   1.229 -0.9685 -1.8668 -2.4676
  725SOL    HW2 2899   2.592   0.353   1.229 -0.2173 -2.6353  0.3381
  725SOL     MW 2900   2.650   0.407   1.189 -0.1365 -0.7600 -0.8062
  726SOL     OW 2901   2.484   2.482   0.438 -0.3334  0.0563 -0.1971
  726SOL    HW1 2902   2.535   2.531   0.375  0.0121  0.9196  0.3734
  726SOL    HW2 2903   2.460   2.551   0.503 -2.3706  1.7652  3.1923
  726SOL     MW 2904   2.488   2.498   0.438 -0.5566  0.3957  0.3254
  727SOL     OW 2905   2.871   0.314   1.726  0.0186  0.3939  0.1422
  727SOL    HW1 2906   2.803   0.290   1.662  0.7883 -0.5642 -0.0797
  727SOL    HW2 2907   2.836   0.289   1.807  0.4572 -1.5405  0.4162
  727SOL     MW 2908   2.857   0.307   1.728  0.1780  0.0123  0.1491
  728SOL     OW 2909   2.796   1.188   2.859 -0.1736  0.4599  0.0712
  728SOL    HW1 2910   2.818   1.253   2.796  0.6887  0.4791  0.6452
  728SOL    HW2 2911   2.818   1.226   2.945 -0.4757 -0.4587 -1.5637
  728SOL     MW 2912   2.802   1.202   2.862 -0.0997  0.3412 -0.0688
  729SOL     OW 2913   2.556   1.503   1.066  0.1046 -0.4710  0.0517
  729SOL    HW1 2914   2.582   1.413   1.068  2.0150 -0.8365 -2.1277
  729SOL    HW2 2915   2.493   1.510   0.995 -2.0149 -0.9911  0.7468
  729SOL     MW 2916   2.551   1.492   1.057  0.0770 -0.5878 -0.1441
  730SOL     OW 2917   2.179   1.145   0.200  0.1923 -0.0468  0.0077
  730SOL    HW1 2918   2.253   1.080   0.225  1.1499 -1.3490  1.2209
  730SOL    HW2 2919   2.218   1.234   0.206  0.9576  0.6041  1.0475
  730SOL     MW 2920   2.194   1.148   0.204  0.4196 -0.1327  0.3050
  731SOL     OW 2921   2.783   1.978   2.923  0.1821 -0.0374  0.3466
  731SOL    HW1 2922   2.742   1.983   2.841 -0.1360 -0.7890 -1.3329
  731SOL    HW2 2923   2.873   1.991   2.896  0.0597 -3.2582  0.5488
  731SOL     MW 2924   2.790   1.980   2.909  0.1240 -0.5615  0.1516
  732SOL     OW 2925   2.327   0.979   1.345  0.3934 -0.0502 -0.1262
  732SOL    HW1 2926   2.289   0.986   1.437 -1.1283 -2.0924  1.9541
  732SOL    HW2 2927   2.416   0.941   1.361  0.6162  0.6077  2.2534
  732SOL     MW 2928   2.334   0.975   1.359  0.2220 -0.2328  0.4622
  733SOL     OW 2929   2.391   2.687   2.991 -0.3101 -0.4694 -0.3603
  733SOL    HW1 2930   2.323   2.753   3.010 -0.2097  2.8593  4.8813
  733SOL    HW2 2931   2.352   2.602   2.979  2.0118  0.0340 -0.1121
  733SOL     MW 2932   2.377   2.684   2.992  0.0095  0.0362  0.3640
  734SOL     OW 2933   1.516   0.282   2.505  0.1856  0.1480  0.1364
  734SOL    HW1 2934   1.499   0.268   2.600 -0.4822 -0.7487 -0.4604
  734SOL    HW2 2935   1.495   0.203   2.462  0.8539 -0.7686  1.4715
  734SOL     MW 2936   1.511   0.270   2.512  0.1856 -0.0912  0.2338
  735SOL     OW 2937   3.018   0.868   2.695  0.0181 -0.1538  0.0838
  735SOL    HW1 2938   2.992   0.776   2.704  1.7732  0.4037  0.2622
  735SOL    HW2 2939   3.036   0.895   2.786  1.7248  0.0734 -0.5570
  735SOL     MW 2940   3.017   0.859   2.708  0.4749 -0.0503  0.0228
  736SOL     OW 2941   0.137   0.551   2.522  0.2736 -0.6479  0.1273
  736SOL    HW1 2942   0.154   0.639   2.474  1.2136  1.3103 -1.7432
  736SOL    HW2 2943   0.207   0.489   2.484  0.4455 -0.2065  1.1272
  736SOL     MW 2944   0.148   0.555   2.511  0.4203 -0.3313  0.0124
  737SOL     OW 2945   3.000   0.566   2.656  0.4622 -0.4207  0.1194
  737SOL    HW1 2946   2.941   0.585   2.580 -1.4143 -1.9719  0.5624
  737SOL    HW2 2947   3.081   0.554   2.608 -1.3871  2.2126  1.5546
  737SOL     MW 2948   3.003   0.567   2.640 -0.0294 -0.2779  0.3672
  738SOL     OW 2949   0.102   0.413   1.854  0.0554  0.1057  0.0598
  738SOL    HW1 2950   0.190   0.441   1.887  1.6017 -3.3041  3.1636
  738SOL    HW2 2951   0.129   0.401   1.760  0.5916  1.3314 -0.5869
  738SOL     MW 2952   0.118   0.415   1.846  0.3301 -0.1825  0.3840
  739SOL     OW 2953   2.529   0.986   2.109 -0.1073  0.0235  0.3454
  739SOL    HW1 2954   2.445   0.981   2.072 -2.6888 -1.4411 -0.9865
  739SOL    HW2 2955   2.558   0.896   2.100  3.4961  0.1995 -0.4930
  739SOL     MW 2956   2.522   0.973   2.103  0.0275 -0.1465  0.0591
  740SOL     OW 2957   0.148   1.782   2.942  0.5610  0.7021 -0.5625
  740SOL    HW1 2958   0.100   1.703   2.972  0.2559 -3.0285  1.2597
  740SOL    HW2 2959   0.236   1.777   2.988  1.0962  1.7259  0.6863
  740SOL     MW 2960   0.154   1.771   2.952  0.5914  0.3450 -0.1573
  741SOL     OW 2961   2.251   1.160   2.716  0.5543 -0.0276 -0.1517
  741SOL    HW1 2962   2.214   1.229   2.664  2.3977 -0.3418 -0.9015
  741SOL    HW2 2963   2.229   1.192   2.810  0.5636  0.6273  0.7008
  741SOL     MW 2964   2.243   1.173   2.721  0.7987  0.0173 -0.1381
  742SOL     OW 2965   1.532   1.228   2.334 -0.3439  0.2332  0.9947
  742SOL    HW1 2966   1.480   1.146   2.335  0.5840  1.1868 -1.9270
  742SOL    HW2 2967   1.602   1.207   2.394  0.0876 -1.2353 -0.7237
  742SOL     MW 2968   1.535   1.214   2.342 -0.1646  0.1653  0.3825
  743SOL     OW 2969   2.549   1.234   2.681  0.9600  0.0133 -0.6635
  743SOL    HW1 2970   2.447   1.234   2.692 -2.4898 -0.0606 -0.5478
  743SOL    HW2 2971   2.584   1.187   2.755  2.2707 -2.6362 -1.6012
  743SOL     MW 2972   2.540   1.228   2.692  0.6778 -0.3460 -0.7720
  744SOL     OW 2973   2.731   0.872   1.921  0.1954  0.4594 -0.4332
  744SOL    HW1 2974   2.689   0.960   1.929 -0.5701  1.6390 -0.1122
  744SOL    HW2 2975   2.674   0.816   1.866  0.1585  0.0109  2.2101
  744SOL     MW 2976   2.718   0.876   1.915  0.0895  0.5558 -0.0421
  745SOL     OW 2977   1.702   0.467   2.485  0.4513 -0.2146 -0.0489
  745SOL    HW1 2978   1.705   0.458   2.390  1.7838  0.8132  0.8858
  745SOL    HW2 2979   1.645   0.395   2.517  0.9576 -1.1951  3.1228
  745SOL     MW 2980   1.695   0.456   2.477  0.6939 -0.2084  0.4929
  746SOL     OW 2981   1.587   1.502   1.656  0.0421  0.3281  0.2629
  746SOL    HW1 2982   1.674   1.538   1.655  1.5145  3.2093 -1.8485
  746SOL    HW2 2983   1.566   1.492   1.748  4.2344  0.4982  0.4235
  746SOL     MW 2984   1.595   1.505   1.668  0.7895  0.7307  0.0055
  747SOL     OW 2985   2.610   1.136   1.817 -0.4409 -0.2179  0.2410
  747SOL    HW1 2986   2.533   1.094   1.783  1.8826  0.8280  0.6584
  747SOL    HW2 2987   2.572   1.194   1.885 -0.5174  1.1054 -3.6796
  747SOL     MW 2988   2.595   1.138   1.822 -0.1444  0.0947 -0.2212
  748SOL     OW 2989   0.080   0.120   1.873  0.1093  0.3616 -0.3200
  748SOL    HW1 2990   0.169   0.110   1.906 -2.4976  0.7071 -2.8460
  748SOL    HW2 2991   0.077   0.206   1.837 -2.1587 -1.0686 -0.5477
  748SOL     MW 2992   0.092   0.130   1.873 -0.5339  0.2185 -0.6833
  749SOL     OW 2993   2.577   0.595   2.791  0.3013 -0.3870  0.4367
  749SOL    HW1 2994   2.580   0.672   2.732 -0.5494  0.4537  1.3152
  749SOL    HW2 2995   2.557   0.625   2.884  0.0308  0.4886  0.7012
  749SOL     MW 2996   2.574   0.610   2.795  0.1534 -0.1606  0.5875
  750SOL     OW 2997   2.057   3.096   1.961  0.1111  0.6425 -0.2337
  750SOL    HW1 2998   2.100   3.185   1.968  2.0141  0.3365 -2.1721
  750SOL    HW2 2999   2.135   3.033   1.936  0.5994 -1.0414 -1.8419
  750SOL     MW 3000   2.073   3.099   1.959  0.4266  0.3800 -0.7016
  751SOL     OW 3001   0.278   0.356   2.409 -0.1491  0.6470 -0.1765
  751SOL    HW1 3002   0.231   0.296   2.462 -1.6566  3.4002  2.0570
  751SOL    HW2 3003   0.257   0.333   2.320 -0.0570  3.0700 -0.8253
  751SOL     MW 3004   0.269   0.345   2.405 -0.3358  1.3299  0.0326
  752SOL     OW 3005   2.141   0.835   2.758 -0.0492 -0.1794  0.5223
  752SOL    HW1 3006   2.226   0.867   2.742 -1.5562  0.7596 -1.2393
  752SOL    HW2 3007   2.139   0.812   2.854 -1.4394 -0.2356  0.4665
  752SOL     MW 3008   2.152   0.836   2.769 -0.4314 -0.0629  0.2825
  753SOL     OW 3009   2.791   0.137   2.407 -0.0245 -0.3654  0.3089
  753SOL    HW1 3010   2.770   0.046   2.383  0.0576 -0.9136  0.9386
  753SOL    HW2 3011   2.779   0.190   2.329  2.8472 -0.4407 -1.3029
  753SOL     MW 3012   2.787   0.132   2.394  0.3652 -0.4477  0.1793
  754SOL     OW 3013   2.276   2.959   2.647  0.2721  0.0401  0.4119
  754SOL    HW1 3014   2.302   2.964   2.553  1.5353 -4.4216 -0.4608
  754SOL    HW2 3015   2.351   2.918   2.691  0.9221 -0.0672  0.7683
  754SOL     MW 3016   2.290   2.954   2.640  0.5245 -0.5627  0.3438
  755SOL     OW 3017   2.753   1.529   2.396  0.1325  0.0321 -0.2943
  755SOL    HW1 3018   2.764   1.442   2.431  0.6604 -0.2069  1.2883
  755SOL    HW2 3019   2.745   1.591   2.471 -0.3046 -2.1741  2.2597
  755SOL     MW 3020   2.754   1.526   2.411  0.1445 -0.2905  0.2515
  756SOL     OW 3021   2.209   1.201   2.985 -0.4742 -0.1081  0.3540
  756SOL    HW1 3022   2.251   1.287   2.970  1.6032 -0.5509 -0.1107
  756SOL    HW2 3023   2.278   1.148   3.029 -0.8680 -1.5576 -1.2054
  756SOL     MW 3024   2.223   1.205   2.989 -0.2521 -0.3578  0.0870
  757SOL     OW 3025   2.196   0.930   1.605  0.1931 -0.1742 -0.3687
  757SOL    HW1 3026   2.220   0.838   1.613 -4.0974  1.2812  1.0479
  757SOL    HW2 3027   2.106   0.916   1.562 -0.3568  0.7054 -1.0209
  757SOL     MW 3028   2.187   0.916   1.600 -0.4455  0.1339 -0.2678
  758SOL     OW 3029   2.223   1.820   2.629 -0.1435  0.3333  0.6301
  758SOL    HW1 3030   2.200   1.868   2.546 -1.3672 -1.8218 -4.1053
  758SOL    HW2 3031   2.314   1.796   2.624  0.9207  2.1236 -1.8033
  758SOL     MW 3032   2.232   1.823   2.617 -0.1646  0.2852 -0.3157
  759SOL     OW 3033   1.550   1.293   2.707  0.1454  0.7052 -0.1519
  759SOL    HW1 3034   1.530   1.377   2.669  3.2339  1.0084 -0.3466
  759SOL    HW2 3035   1.616   1.313   2.780 -0.5200  0.1937 -0.6871
  759SOL     MW 3036   1.556   1.307   2.711  0.4651  0.6777 -0.2482
  760SOL     OW 3037   2.585   1.980   2.699  0.7601 -0.6127 -0.6792
  760SOL    HW1 3038   2.549   1.889   2.672  1.0266  1.0240  0.3441
  760SOL    HW2 3039   2.589   2.035   2.620  2.0723 -1.0998  2.1738
  760SOL     MW 3040   2.581   1.975   2.685  0.9684 -0.4610 -0.1677
  761SOL     OW 3041   2.218   0.409   2.537  0.6832 -0.5741 -0.3264
  761SOL    HW1 3042   2.150   0.352   2.581  0.4111 -0.5414 -0.7833
  761SOL    HW2 3043   2.249   0.453   2.617  2.1090  0.4532 -1.9253
  761SOL     MW 3044   2.213   0.407   2.554  0.8354 -0.4342 -0.5977
  762SOL     OW 3045   3.070   0.245   2.163  0.5881  0.3011  0.3884
  762SOL    HW1 3046   3.075   0.159   2.208  0.1334 -1.8545  0.1436
  762SOL    HW2 3047   3.054   0.310   2.233 -2.9569  0.6663 -2.1469
  762SOL     MW 3048   3.069   0.242   2.178  0.0604  0.0649  0.0216
  763SOL     OW 3049   2.351   1.035   2.326  0.7507  0.0473 -0.4309
  763SOL    HW1 3050   2.420   1.002   2.266  0.6027 -0.9628 -0.9579
  763SOL    HW2 3051   2.406   1.084   2.391 -0.9708  0.8333  0.9735
  763SOL     MW 3052   2.367   1.037   2.327  0.5040  0.0178 -0.3152
  764SOL     OW 3053   0.408   0.288   2.851  0.4408  0.1289  0.5333
  764SOL    HW1 3054   0.326   0.245   2.820  0.0162 -0.1912 -1.1408
  764SOL    HW2 3055   0.384   0.380   2.874  0.1344 -0.6883  1.0403
  764SOL     MW 3056   0.394   0.295   2.850  0.3444 -0.0211  0.3793
  765SOL     OW 3057   2.720   2.962   2.399 -0.2221 -0.3963  0.1276
  765SOL    HW1 3058   2.664   2.986   2.326 -0.5412 -0.1556 -1.2678
  765SOL    HW2 3059   2.795   2.921   2.353 -0.7052 -1.8694 -0.0326
  765SOL     MW 3060   2.722   2.960   2.383 -0.3279 -0.5589 -0.0776
  766SOL     OW 3061   1.913   2.968   2.167  0.1493  0.3444 -0.2455
  766SOL    HW1 3062   1.964   3.007   2.090  2.2795 -1.0740 -1.4236
  766SOL    HW2 3063   1.847   2.903   2.128  0.3356 -0.8229 -2.5769
  766SOL     MW 3064   1.911   2.965   2.151  0.4550  0.0033 -0.7086
  767SOL     OW 3065   2.638   0.600   2.109  0.3630  0.3201 -0.9380
  767SOL    HW1 3066   2.727   0.639   2.122 -1.0386  1.3522  0.6853
  767SOL    HW2 3067   2.592   0.634   2.031 -2.7312 -0.7540  0.4903
  767SOL     MW 3068   2.644   0.610   2.100 -0.2302  0.3145 -0.5354
  768SOL     OW 3069   3.001   1.548   2.943 -0.7404 -0.0665  0.0581
  768SOL    HW1 3070   3.033   1.559   3.030  0.6586  0.1970  1.1308
  768SOL    HW2 3071   3.056   1.491   2.893  0.3257  2.0194  1.5432
  768SOL     MW 3072   3.012   1.542   2.948 -0.4151  0.2435  0.3956
  769SOL     OW 3073   2.495   0.652   2.366  0.3837 -0.1514  1.0924
  769SOL    HW1 3074   2.518   0.612   2.445 -2.8823 -0.8758  2.4544
  769SOL    HW2 3075   2.560   0.623   2.303  2.2048 -0.1238 -0.3083
  769SOL     MW 3076   2.506   0.643   2.368  0.1931 -0.2434  1.0873
  770SOL     OW 3077   3.085   1.624   2.522 -0.3442  0.0393  0.0828
  770SOL    HW1 3078   2.997   1.639   2.497 -1.0044  0.5848 -1.7259
  770SOL    HW2 3079   3.103   1.526   2.517 -0.2315  2.1500 -0.3025
  770SOL     MW 3080   3.076   1.613   2.518 -0.4164  0.3898 -0.2067
  771SOL     OW 3081   3.070   0.608   1.987  0.1960 -0.4261 -0.0146
  771SOL    HW1 3082   3.025   0.637   1.905  0.6164  1.6896 -1.1475
  771SOL    HW2 3083   3.122   0.544   1.935  0.5037  0.5009  1.2740
  771SOL     MW 3084   3.071   0.604   1.969  0.2920 -0.0246  0.0059
  772SOL     OW 3085   0.059   0.011   2.286 -0.3609  0.4312 -0.4656
  772SOL    HW1 3086  -0.013  -0.049   2.275  1.3315 -1.2000  3.1732
  772SOL    HW2 3087   0.124  -0.029   2.236 -1.5740  0.6964  1.5536
  772SOL     MW 3088   0.058  -0.002   2.278 -0.2977  0.2510  0.2809
  773SOL     OW 3089   2.483   2.813   2.768  0.2015 -0.0327  0.1925
  773SOL    HW1 3090   2.493   2.761   2.691  0.4374 -0.6858 -0.6447
  773SOL    HW2 3091   2.447   2.761   2.841  0.3736  0.2064 -0.4462
  773SOL     MW 3092   2.479   2.800   2.767  0.2553 -0.0873 -0.0022
  774SOL     OW 3093   2.288   1.137   1.748 -0.3336  0.3351  0.0378
  774SOL    HW1 3094   2.297   1.207   1.683 -0.3925 -1.0420  0.0452
  774SOL    HW2 3095   2.261   1.067   1.688  0.4309  1.1493 -1.2320
  774SOL     MW 3096   2.286   1.137   1.732 -0.2405  0.2608 -0.1288
  775SOL     OW 3097   2.303   2.914   2.351 -0.1194  0.0537  0.1796
  775SOL    HW1 3098   2.334   2.990   2.302 -0.3476  0.5080  2.4243
  775SOL    HW2 3099   2.362   2.849   2.322 -2.6348  2.2523  0.7448
  775SOL     MW 3100   2.315   2.915   2.341 -0.4814  0.4037  0.5503
  776SOL     OW 3101   0.019   1.534   0.103 -0.0850 -0.0023  0.4380
  776SOL    HW1 3102   0.109   1.527   0.084 -0.8403  1.6404  1.2675
  776SOL    HW2 3103  -0.006   1.445   0.139  0.4485  3.5432  0.0706
  776SOL     MW 3104   0.027   1.521   0.105 -0.1142  0.6823  0.4989
  777SOL     OW 3105   2.927   0.957   1.785 -0.0419 -0.0894  0.5529
  777SOL    HW1 3106   2.897   1.041   1.751 -0.0947 -4.3381  1.2693
  777SOL    HW2 3107   2.842   0.917   1.817 -0.3375  0.4136  2.8647
  777SOL     MW 3108   2.912   0.963   1.785 -0.0878 -0.5836  0.9525
  778SOL     OW 3109   2.901   0.352   2.781  0.1717 -0.0525 -0.1932
  778SOL    HW1 3110   2.856   0.380   2.860  3.3127  1.7156  0.6405
  778SOL    HW2 3111   2.947   0.438   2.748 -0.6272  0.0413 -1.4700
  778SOL     MW 3112   2.901   0.367   2.787  0.4807  0.1931 -0.2517
  779SOL     OW 3113   2.101   0.530   2.328  0.1206 -0.0222  0.4524
  779SOL    HW1 3114   2.047   0.595   2.368 -2.4880 -1.0973 -3.8950
  779SOL    HW2 3115   2.155   0.486   2.392  0.4734  0.7056 -1.4091
  779SOL     MW 3116   2.101   0.533   2.341 -0.1770 -0.0680 -0.3668
  780SOL     OW 3117   0.192   0.128   2.805  0.1270  0.2592 -0.5292
  780SOL    HW1 3118   0.122   0.177   2.845 -0.0982 -3.6637  0.4791
  780SOL    HW2 3119   0.167   0.128   2.711 -0.9816  2.5122 -1.2062
  780SOL     MW 3120   0.180   0.134   2.798 -0.0490  0.0389 -0.4855
  781SOL     OW 3121   3.023   1.371   2.410  0.1925 -0.6869 -0.3121
  781SOL    HW1 3122   3.019   1.419   2.324 -0.2485  1.7967 -0.2465
  781SOL    HW2 3123   3.060   1.291   2.379 -2.0025 -0.7305 -5.5712
  781SOL     MW 3124   3.027   1.366   2.395 -0.1553 -0.3649 -0.9973
  782SOL     OW 3125   0.565   1.539   3.074  0.8227 -0.4428 -0.1173
  782SOL    HW1 3126   0.520   1.620   3.050  1.7712  0.7049 -1.0862
  782SOL    HW2 3127   0.570   1.530   3.174  1.3451  0.3558 -3.1556
  782SOL     MW 3128   0.560   1.548   3.084  1.0167 -0.1860 -0.6461
  783SOL     OW 3129   2.819   0.562   2.425  0.0551  0.0664 -0.0372
  783SOL    HW1 3130   2.887   0.530   2.363 -0.1408  1.6642  0.0134
  783SOL    HW2 3131   2.782   0.480   2.465 -1.0004 -2.4016  0.7659
  783SOL     MW 3132   2.823   0.547   2.422 -0.1100 -0.0484  0.0754
  784SOL     OW 3133   0.200   0.911   2.886 -0.0316  0.4162 -0.3620
  784SOL    HW1 3134   0.191   0.963   2.960  0.1250 -1.2884  0.3921
  784SOL    HW2 3135   0.195   0.967   2.812  0.0968 -1.3707  3.7500
  784SOL     MW 3136   0.198   0.925   2.886  0.0060 -0.0445  0.2800
  785SOL     OW 3137   0.354   0.546   2.106 -0.1175  0.0190  0.1454
  785SOL    HW1 3138   0.358   0.553   2.012 -2.8353  2.2845  0.0507
  785SOL    HW2 3139   0.315   0.459   2.105 -2.5606 -1.2259  2.2490
  785SOL     MW 3140   0.350   0.536   2.093 -0.7985  0.1537  0.4105
  786SOL     OW 3141   2.030   0.471   2.843 -0.0033 -0.0282 -0.2272
  786SOL    HW1 3142   2.028   0.447   2.937 -0.7998 -0.5468  0.8998
  786SOL    HW2 3143   2.126   0.489   2.837  3.4855  0.0994  0.8169
  786SOL     MW 3144   2.042   0.470   2.855  0.3519 -0.0798  0.0593
  787SOL     OW 3145   2.423   0.144   2.917  0.0947  0.0375 -0.5210
  787SOL    HW1 3146   2.477   0.156   2.841 -1.4245 -0.4352  0.5978
  787SOL    HW2 3147   2.424   0.228   2.964  0.6502 -0.3593  1.0618
  787SOL     MW 3148   2.430   0.157   2.914 -0.0324 -0.0772 -0.1645
  788SOL     OW 3149   2.946   2.865   2.286  0.4054 -0.1487  0.0987
  788SOL    HW1 3150   2.932   2.794   2.218 -0.7401 -2.4172  1.0413
  788SOL    HW2 3151   3.013   2.827   2.347 -1.0535 -4.3956  0.1391
  788SOL     MW 3152   2.953   2.851   2.285  0.0618 -1.0084  0.2284
  789SOL     OW 3153   0.044   0.287   3.027  0.2098  0.3352  0.2786
  789SOL    HW1 3154  -0.048   0.266   3.045  1.3141 -0.6223 -2.0741
  789SOL    HW2 3155   0.098   0.257   3.104 -1.2804 -1.8317 -0.6279
  789SOL     MW 3156   0.039   0.281   3.040  0.1589 -0.0770 -0.1514
  790SOL     OW 3157   0.021   1.047   2.468 -0.0036 -0.3219 -0.9101
  790SOL    HW1 3158  -0.031   1.020   2.540 -0.1185 -1.5662  0.3475
  790SOL    HW2 3159  -0.040   1.046   2.396  1.9608  0.1782  0.1043
  790SOL     MW 3160   0.006   1.043   2.468  0.2405 -0.4201 -0.6104
  791SOL     OW 3161   2.683   0.416   2.609  0.4466 -0.0948 -0.1333
  791SOL    HW1 3162   2.651   0.484   2.674  0.8748 -0.3235 -2.0357
  791SOL    HW2 3163   2.760   0.382   2.660  0.5270  2.0985 -1.6145
  791SOL     MW 3164   2.689   0.421   2.624  0.5137  0.1644 -0.5797
  792SOL     OW 3165   2.418   0.280   2.384 -0.7301  0.4131  0.5248
  792SOL    HW1 3166   2.349   0.323   2.435  0.2183 -0.6210 -3.0457
  792SOL    HW2 3167   2.466   0.222   2.445  0.3907  1.7188 -2.9631
  792SOL     MW 3168   2.415   0.278   2.399 -0.4571  0.4489 -0.4065
  793SOL     OW 3169   1.758   1.011   1.873 -0.2972 -0.1265  0.2373
  793SOL    HW1 3170   1.740   1.063   1.797 -1.8377  0.0491  2.3693
  793SOL    HW2 3171   1.859   0.993   1.867  2.2403 -2.0833 -1.0951
  793SOL     MW 3172   1.769   1.016   1.862 -0.1656 -0.3615  0.3428
  794SOL     OW 3173   1.434   2.280   0.119 -0.1934 -0.2419  0.4334
  794SOL    HW1 3174   1.457   2.367   0.080 -1.4398 -1.5620  0.4087
  794SOL    HW2 3175   1.480   2.274   0.206  0.4279  1.2508  1.1601
  794SOL     MW 3176   1.443   2.291   0.125 -0.2759 -0.2191  0.5260
  795SOL     OW 3177   2.365   0.939   2.593 -0.2382  0.3317  0.0269
  795SOL    HW1 3178   2.331   1.017   2.638 -1.1127  0.3308 -0.5251
  795SOL    HW2 3179   2.347   0.958   2.499  1.2892 -0.0572 -2.2723
  795SOL     MW 3180   2.358   0.952   2.587 -0.1521  0.2802 -0.3493
  796SOL     OW 3181   0.324   0.657   2.801 -0.1162 -0.5001  0.0633
  796SOL    HW1 3182   0.290   0.734   2.851  0.5714 -0.1396 -0.3516
  796SOL    HW2 3183   0.282   0.658   2.716  0.9065  0.0949 -1.2466
  796SOL     MW 3184   0.314   0.668   2.797  0.1095 -0.3740 -0.1643
  797SOL     OW 3185   2.564   0.165   2.592 -0.0629 -0.0714  0.3641
  797SOL    HW1 3186   2.580   0.260   2.612  1.4337  3.2323  0.1738
  797SOL    HW2 3187   2.641   0.149   2.535  1.5918  1.7298 -0.2807
  797SOL     MW 3188   2.576   0.175   2.587  0.3529  0.6022  0.2539
  798SOL     OW 3189   2.383   0.045   2.191 -0.3217  0.3357  0.2330
  798SOL    HW1 3190   2.401   0.114   2.257  1.4335 -1.6398  1.6283
  798SOL    HW2 3191   2.468   0.005   2.165 -1.0704 -1.3127  1.5379
  798SOL     MW 3192   2.396   0.049   2.196 -0.1889 -0.1424  0.5893
  799SOL     OW 3193   2.540   2.920   0.200  0.1812 -0.3498  0.3544
  799SOL    HW1 3194   2.565   2.901   0.110 -0.2431 -0.1020  0.3680
  799SOL    HW2 3195   2.457   2.968   0.195  1.0798 -1.6255 -1.9310
  799SOL     MW 3196   2.532   2.924   0.188  0.2438 -0.4854  0.0547
  800SOL     OW 3197   1.913   3.093   1.718  0.1071 -0.0319  0.2046
  800SOL    HW1 3198   1.869   3.008   1.736 -1.2917 -0.4365 -1.6044
  800SOL    HW2 3199   1.952   3.112   1.804  0.3904  3.9748 -0.1884
  800SOL     MW 3200   1.912   3.085   1.732 -0.0401  0.4434 -0.0859
  801SOL     OW 3201   2.835   1.329   2.595  0.0064  0.3621 -0.4678
  801SOL    HW1 3202   2.819   1.230   2.596  0.1409  0.1061  0.6896
  801SOL    HW2 3203   2.908   1.342   2.528 -0.9025  1.0322 -2.0737
  801SOL     MW 3204   2.843   1.317   2.586 -0.0958  0.4167 -0.5270
  802SOL     OW 3205   2.542   1.501   2.744 -0.3515 -0.1170  0.0740
  802SOL    HW1 3206   2.576   1.413   2.715  0.0530 -0.7183  4.4558
  802SOL    HW2 3207   2.626   1.538   2.768  3.0313 -1.1600  0.3897
  802SOL     MW 3208   2.558   1.494   2.744  0.1482 -0.3340  0.6938
  803SOL     OW 3209   2.250   1.297   1.956 -0.6885 -0.3389 -0.2709
  803SOL    HW1 3210   2.215   1.264   2.044 -1.3963  1.9880  1.9852
  803SOL    HW2 3211   2.250   1.234   1.885  2.5073  2.0555  0.6914
  803SOL     MW 3212   2.246   1.284   1.958 -0.3603  0.2840  0.1538
  804SOL     OW 3213   2.362   0.002   0.060  0.1633  0.1575  0.0570
  804SOL    HW1 3214   2.283   0.065   0.050 -0.8218 -0.0187 -0.5551
  804SOL    HW2 3215   2.437   0.037   0.008  0.4323 -2.2349  1.7126
  804SOL     MW 3216   2.361   0.015   0.052  0.0688 -0.1814  0.1947
  805SOL     OW 3217   2.837   1.048   2.581 -0.0712 -0.0188  0.7610
  805SOL    HW1 3218   2.753   1.009   2.592 -0.8406  1.7038  0.8085
  805SOL    HW2 3219   2.892   0.980   2.623  2.8090  0.1799  1.8200
  805SOL     MW 3220   2.833   1.034   2.588  0.2073  0.2347  0.9070
  806SOL     OW 3221   2.651   0.335   2.183  0.0165 -0.1998  0.0372
  806SOL    HW1 3222   2.575   0.335   2.233  0.2908  0.9426 -2.6854
  806SOL    HW2 3223   2.660   0.422   2.152 -0.7593 -0.4635  0.1496
  806SOL     MW 3224   2.642   0.347   2.186 -0.0497 -0.0839 -0.3072
  807SOL     OW 3225   0.042   1.150   2.122  0.3693 -0.0487  0.3601
  807SOL    HW1 3226   0.085   1.074   2.082  1.9115  2.1780 -0.2911
  807SOL    HW2 3227  -0.040   1.119   2.160  0.6150 -2.1201 -1.1735
  807SOL     MW 3228   0.037   1.136   2.122  0.6052 -0.0282  0.0718
  808SOL     OW 3229   2.649   3.060   2.810  0.6092  0.0585 -0.1823
  808SOL    HW1 3230   2.602   2.979   2.797  0.2090  0.8398  1.3626
  808SOL    HW2 3231   2.631   3.105   2.728  0.2859 -1.7157  1.5798
  808SOL     MW 3232   2.641   3.055   2.797  0.5138 -0.0725  0.2540
  809SOL     OW 3233   2.529   1.233   2.421  0.0144 -0.3399  0.0733
  809SOL    HW1 3234   2.568   1.224   2.511  1.7849 -0.4197  3.7993
  809SOL    HW2 3235   2.602   1.226   2.362  2.3602  0.8338 -0.1814
  809SOL     MW 3236   2.544   1.231   2.425  0.5575 -0.1956  0.5313
  810SOL     OW 3237   2.185   1.208   2.193  0.7963  0.5822  0.5724
  810SOL    HW1 3238   2.249   1.149   2.245  1.2196  1.6835  1.9464
  810SOL    HW2 3239   2.109   1.151   2.168 -1.5137  0.7108  2.3680
  810SOL     MW 3240   2.184   1.193   2.197  0.5473  0.7445  0.9906
  811SOL     OW 3241   1.473   0.076   2.232  0.2933 -0.2884 -0.1848
  811SOL    HW1 3242   1.554   0.028   2.238 -1.7714 -0.5909 -2.1737
  811SOL    HW2 3243   1.435   0.032   2.149 -3.5995  0.7572  1.2009
  811SOL     MW 3244   1.479   0.064   2.222 -0.4927 -0.1904 -0.2644
  812SOL     OW 3245   1.454   2.763   2.080  0.3801  0.0020 -0.2189
  812SOL    HW1 3246   1.546   2.783   2.061 -1.0064 -0.4669  0.3267
  812SOL    HW2 3247   1.462   2.734   2.171  0.8199  2.8292  0.5696
  812SOL     MW 3248   1.467   2.762   2.090  0.2552  0.3131 -0.0429
  813SOL     OW 3249   1.851   0.711   2.151 -0.3417 -0.6600 -0.5407
  813SOL    HW1 3250   1.791   0.636   2.176 -0.9645 -2.4588  1.6948
  813SOL    HW2 3251   1.901   0.719   2.232  0.4073 -3.3361 -0.4676
  813SOL     MW 3252   1.850   0.703   2.165 -0.3250 -1.2504 -0.2361
  814SOL     OW 3253   2.823   1.175   1.640 -0.2210 -0.0579 -0.5530
  814SOL    HW1 3254   2.744   1.175   1.688 -0.8109 -0.1912 -0.6695
  814SOL    HW2 3255   2.802   1.137   1.556  1.5144 -0.5724 -1.4171
  814SOL     MW 3256   2.810   1.170   1.635 -0.0698 -0.1434 -0.6824
  815SOL     OW 3257   2.502   1.643   2.369 -0.1793  0.3523  0.2427
  815SOL    HW1 3258   2.440   1.571   2.361  3.5936  1.5143  1.0216
  815SOL    HW2 3259   2.581   1.596   2.357 -0.5891 -2.8636  0.4348
  815SOL     MW 3260   2.504   1.627   2.366  0.2644  0.0813  0.3708
  816SOL     OW 3261   0.673   0.662   2.714 -0.2402 -0.0432  0.4454
  816SOL    HW1 3262   0.724   0.604   2.768 -1.3104  0.3186 -0.6414
  816SOL    HW2 3263   0.627   0.606   2.645  1.1899  2.8758 -1.3168
  816SOL     MW 3264   0.673   0.647   2.712 -0.1927  0.3897  0.0695
  817SOL     OW 3265   3.064   1.178   1.310  0.3338  0.2105  0.4840
  817SOL    HW1 3266   3.111   1.181   1.392  0.2277  1.7706  2.1215
  817SOL    HW2 3267   3.054   1.271   1.288  4.2279 -1.6028  0.3062
  817SOL     MW 3268   3.069   1.190   1.318  0.8336  0.1771  0.6766
  818SOL     OW 3269   1.906   0.994   2.683  0.0902  0.5236 -0.2884
  818SOL    HW1 3270   1.942   1.046   2.609 -0.8366  3.5267 -0.5999
  818SOL    HW2 3271   1.978   0.935   2.707  1.3830  0.7356  0.3671
  818SOL     MW 3272   1.921   0.993   2.677  0.1385  0.9478 -0.2430
  819SOL     OW 3273   1.939   0.224   2.321  0.0493 -0.5580 -0.1226
  819SOL    HW1 3274   2.030   0.232   2.280  0.0889 -1.1973  1.1160
  819SOL    HW2 3275   1.955   0.230   2.416  1.8292  0.3304  1.6679
  819SOL     MW 3276   1.953   0.226   2.328  0.2894 -0.5251  0.2771
  820SOL     OW 3277   2.479   1.736   2.623  0.1346  0.6286  0.3734
  820SOL    HW1 3278   2.515   1.665   2.682  0.4530 -1.3466 -2.0117
  820SOL    HW2 3279   2.484   1.696   2.539  1.0102  3.1036 -0.0760
  820SOL     MW 3280   2.484   1.721   2.620  0.2921  0.6946 -0.0006
  821SOL     OW 3281   2.540   1.332   1.989  0.0535  0.4003 -0.0038
  821SOL    HW1 3282   2.585   1.400   1.939 -0.4139 -0.5513  0.3831
  821SOL    HW2 3283   2.448   1.350   1.981 -1.2031  1.0740  0.7758
  821SOL     MW 3284   2.534   1.343   1.981 -0.1739  0.3637  0.1501
  822SOL     OW 3285   2.883   2.617   1.432  0.2505 -0.6073 -0.3444
  822SOL    HW1 3286   2.804   2.666   1.398 -0.7200 -0.2377  0.0057
  822SOL    HW2 3287   2.955   2.680   1.440 -0.0894  2.5514  2.3101
  822SOL     MW 3288   2.882   2.632   1.428  0.0776 -0.1418  0.0520
  823SOL     OW 3289   2.360   0.483   1.794 -0.4656  0.6165 -0.0566
  823SOL    HW1 3290   2.425   0.447   1.727  0.7911  0.1231 -0.3322
  823SOL    HW2 3291   2.296   0.416   1.791  1.3929 -2.2502  3.4863
  823SOL     MW 3292   2.360   0.470   1.785 -0.0546  0.1732  0.3745
  824SOL     OW 3293   2.128   1.354   2.569 -0.6187  0.3905  0.1568
  824SOL    HW1 3294   2.201   1.384   2.505 -0.9565 -0.4478  0.3506
  824SOL    HW2 3295   2.091   1.432   2.604  1.4276 -1.9719  1.2628
  824SOL     MW 3296   2.133   1.368   2.565 -0.3933 -0.0318  0.3283
  825SOL     OW 3297   2.116   2.320   0.363 -0.2029 -0.2257 -0.0271
  825SOL    HW1 3298   2.179   2.307   0.297 -2.6165 -2.3413  1.8438
  825SOL    HW2 3299   2.174   2.348   0.437 -0.1636  0.7444  0.9519
  825SOL     MW 3300   2.132   2.322   0.364 -0.5162 -0.3769  0.3489
  826SOL     OW 3301   1.779   2.434   0.448  0.2027  0.2481  0.4483
  826SOL    HW1 3302   1.784   2.377   0.521  0.6789 -0.2289  0.0970
  826SOL    HW2 3303   1.845   2.502   0.469  2.0135  1.3224 -0.8062
  826SOL     MW 3304   1.789   2.435   0.461  0.5044  0.3269  0.2365
  827SOL     OW 3305   1.924   2.253   0.878 -0.2247 -0.0115  0.2771
  827SOL    HW1 3306   1.894   2.270   0.789  0.7265  1.9064  2.2364
  827SOL    HW2 3307   1.861   2.195   0.919  0.8142 -1.1029  0.9621
  827SOL     MW 3308   1.912   2.248   0.871  0.0378  0.0976  0.6260
  828SOL     OW 3309   0.089   2.657   0.519 -0.4551  0.4127 -0.3916
  828SOL    HW1 3310   0.168   2.698   0.549 -1.1203 -1.1154 -2.2457
  828SOL    HW2 3311   0.069   2.702   0.439  1.0214  0.3837 -0.5449
  828SOL     MW 3312   0.097   2.668   0.512 -0.3481  0.2073 -0.6564
  829SOL     OW 3313   2.977   2.877   1.176 -0.0016  0.1718 -0.2452
  829SOL    HW1 3314   2.911   2.863   1.108 -4.0493  1.1276 -1.8000
  829SOL    HW2 3315   3.043   2.812   1.161 -1.6585  0.4789 -0.2146
  829SOL     MW 3316   2.977   2.867   1.165 -0.7543  0.3384 -0.4463
  830SOL     OW 3317   2.507   2.834   1.992  0.9052  0.2968  0.0066
  830SOL    HW1 3318   2.415   2.832   1.954 -2.1378 -1.4074  0.4703
  830SOL    HW2 3319   2.563   2.796   1.925  0.4130  0.8513 -1.4337
  830SOL     MW 3320   2.502   2.829   1.978  0.4388  0.1451 -0.1222
  831SOL     OW 3321   2.456   2.424   1.220 -0.0623 -0.4553 -0.6027
  831SOL    HW1 3322   2.437   2.340   1.268 -1.2094 -1.3730  3.6791
  831SOL    HW2 3323   2.553   2.410   1.202  0.6778 -0.2305 -0.1360
  831SOL     MW 3324   2.466   2.411   1.223 -0.1160 -0.5467  0.0238
  832SOL     OW 3325   2.412   2.110   1.925 -0.2308  0.3045 -0.4724
  832SOL    HW1 3326   2.391   2.197   1.898  0.6584  2.7540 -0.2819
  832SOL    HW2 3327   2.483   2.093   1.859  1.1373  0.2830  2.4948
  832SOL     MW 3328   2.419   2.120   1.913  0.0671  0.6249 -0.0558
  833SOL     OW 3329   1.614   2.503   0.791  0.1413  0.4643 -0.2474
  833SOL    HW1 3330   1.594   2.443   0.870  0.8881  2.5359  4.0724
  833SOL    HW2 3331   1.549   2.571   0.809  0.4551 -2.0328 -0.1597
  833SOL     MW 3332   1.603   2.504   0.804  0.2812  0.4081  0.3341
  834SOL     OW 3333   2.222   2.412   0.601  0.7385  0.3109  0.2372
  834SOL    HW1 3334   2.175   2.335   0.634 -0.8979 -0.8289 -2.6235
  834SOL    HW2 3335   2.310   2.425   0.631 -2.3588 -0.4804  0.9411
  834SOL     MW 3336   2.227   2.403   0.609  0.1139  0.0561 -0.0474
  835SOL     OW 3337   1.832   2.616   0.690 -0.1599 -0.1592  0.1963
  835SOL    HW1 3338   1.747   2.569   0.719 -3.9565  1.0514 -0.7508
  835SOL    HW2 3339   1.900   2.543   0.715  1.0393 -2.5415  1.7551
  835SOL     MW 3340   1.830   2.600   0.697 -0.5026 -0.3138  0.2770
  836SOL     OW 3341   2.075   2.048   1.777  0.1107 -0.1275  0.5646
  836SOL    HW1 3342   2.107   1.965   1.809 -0.3231 -1.0411  1.3542
  836SOL    HW2 3343   2.135   2.120   1.796 -1.0891  0.2380 -3.1603
  836SOL     MW 3344   2.087   2.047   1.783 -0.1048 -0.1998  0.1773
  837SOL     OW 3345   2.076   0.213   0.667 -0.4043 -0.3045 -0.0155
  837SOL    HW1 3346   2.004   0.221   0.603  0.9227  0.0717  3.0059
  837SOL    HW2 3347   2.151   0.181   0.615  0.1710 -0.3679  0.2514
  837SOL     MW 3348   2.076   0.209   0.652 -0.1533 -0.2632  0.4183
  838SOL     OW 3349   2.944   2.054   0.908  0.4946  0.4131  0.0777
  838SOL    HW1 3350   2.867   2.000   0.899 -0.5407  0.1451  1.7340
  838SOL    HW2 3351   2.968   2.030   1.000 -1.5102 -1.7742  0.6855
  838SOL     MW 3352   2.937   2.044   0.919  0.0935  0.0891  0.3764
  839SOL     OW 3353   1.528   2.437   1.047  0.1828  0.1823  0.5608
  839SOL    HW1 3354   1.518   2.520   1.096 -1.2608 -0.3075 -0.5870
  839SOL    HW2 3355   1.550   2.371   1.106 -3.6017  5.4361  0.8627
  839SOL     MW 3356   1.529   2.439   1.061 -0.5070  0.8108  0.4492
  840SOL     OW 3357   2.379   2.106   2.320 -0.4297 -0.2774  0.3543
  840SOL    HW1 3358   2.369   2.185   2.271 -1.3218 -2.6338 -1.4229
  840SOL    HW2 3359   2.430   2.134   2.398  0.2064 -1.1958  0.4509
  840SOL     MW 3360   2.384   2.120   2.324 -0.4634 -0.7095  0.1326
  841SOL     OW 3361   2.273   2.301   0.139 -0.4845  0.8295 -0.2739
  841SOL    HW1 3362   2.258   2.391   0.115 -1.3143 -0.4021  0.0680
  841SOL    HW2 3363   2.202   2.247   0.099 -0.1339 -0.8327 -1.5025
  841SOL     MW 3364   2.261   2.306   0.130 -0.5477  0.4477 -0.3909
  842SOL     OW 3365   2.659   1.970   1.461  0.1703  0.0863 -0.1929
  842SOL    HW1 3366   2.588   1.907   1.444 -2.3923  1.3046 -1.0923
  842SOL    HW2 3367   2.680   2.006   1.375  2.2355 -0.4321 -0.7253
  842SOL     MW 3368   2.653   1.966   1.447  0.1046  0.1787 -0.3818
  843SOL     OW 3369   2.682   2.740   1.783 -0.2312 -0.0703  0.5971
  843SOL    HW1 3370   2.772   2.718   1.807 -1.9938  2.6549 -0.0970
  843SOL    HW2 3371   2.634   2.662   1.736  1.2176 -0.1951  2.4619
  843SOL     MW 3372   2.687   2.727   1.780 -0.2726  0.2728  0.7516
  844SOL     OW 3373   2.694   2.340   1.109  0.3351  0.4400  0.3267
  844SOL    HW1 3374   2.708   2.390   1.025 -0.8218  1.5453 -0.1259
  844SOL    HW2 3375   2.777   2.352   1.150  0.4075  1.2985 -1.6110
  844SOL     MW 3376   2.707   2.348   1.103  0.1920  0.6991  0.0113
  845SOL     OW 3377   2.813   2.613   0.270 -0.5025 -0.0802 -0.2918
  845SOL    HW1 3378   2.830   2.543   0.342  1.2069  0.7617  0.1132
  845SOL    HW2 3379   2.819   2.697   0.316 -0.0763 -1.7385  2.4085
  845SOL     MW 3380   2.816   2.615   0.286 -0.2207 -0.1879  0.1179
  846SOL     OW 3381   1.446   2.710   0.784  0.6134 -0.1876  0.0016
  846SOL    HW1 3382   1.505   2.787   0.776  0.8435  0.4708 -1.3948
  846SOL    HW2 3383   1.356   2.746   0.761  0.2722  0.0717  0.9585
  846SOL     MW 3384   1.442   2.725   0.780  0.5987 -0.0665 -0.0564
  847SOL     OW 3385   2.427   1.826   0.224  0.4124  0.1847  0.4046
  847SOL    HW1 3386   2.420   1.739   0.256  0.3825 -1.3742 -2.1445
  847SOL    HW2 3387   2.412   1.821   0.133  1.8376 -0.3009  3.9804
  847SOL     MW 3388   2.424   1.814   0.216  0.5965 -0.0850  0.5400
  848SOL     OW 3389   2.719   2.100   1.227  0.3025 -0.1063  0.8235
  848SOL    HW1 3390   2.705   2.181   1.180  3.3988  2.2717  0.6326
  848SOL    HW2 3391   2.799   2.061   1.191 -0.8259 -1.1852 -3.1525
  848SOL     MW 3392   2.727   2.106   1.216  0.5621  0.0651  0.2737
  849SOL     OW 3393   1.907   2.845   0.847 -0.4837  0.0726  0.7337
  849SOL    HW1 3394   1.887   2.789   0.920  0.6797 -0.0567 -0.8350
  849SOL    HW2 3395   1.886   2.777   0.777 -2.7016 -0.5222 -1.9396
  849SOL     MW 3396   1.901   2.828   0.847 -0.6229 -0.0229  0.1740
  850SOL     OW 3397   2.328   1.936   1.616  0.3701 -0.4915 -0.4016
  850SOL    HW1 3398   2.250   1.927   1.557  0.1394 -0.2209  0.9860
  850SOL    HW2 3399   2.338   2.035   1.628 -1.8234  2.5013  3.0328
  850SOL     MW 3400   2.319   1.948   1.610  0.0502 -0.0610  0.2346
  851SOL     OW 3401   2.589   2.219   0.388  0.5908 -0.1281 -0.1737
  851SOL    HW1 3402   2.585   2.202   0.291 -1.5185  3.0114 -0.5457
  851SOL    HW2 3403   2.533   2.294   0.395 -2.6114 -0.8657 -1.3041
  851SOL     MW 3404   2.581   2.227   0.376 -0.1100  0.1888 -0.3719
  852SOL     OW 3405   2.334   2.042   0.359  0.0499  0.3194  0.2007
  852SOL    HW1 3406   2.367   2.119   0.309 -0.3239  0.9697 -1.0041
  852SOL    HW2 3407   2.375   1.962   0.314  0.3536 -1.7340  0.9528
  852SOL     MW 3408   2.344   2.042   0.346  0.0407  0.1343  0.1410
  853SOL     OW 3409   2.518   2.403   1.897  0.2415 -0.1260 -0.1096
  853SOL    HW1 3410   2.522   2.445   1.808 -0.8998 -0.1460 -1.8706
  853SOL    HW2 3411   2.611   2.384   1.919  2.2399  0.1776 -1.6231
  853SOL     MW 3412   2.531   2.406   1.888  0.3546 -0.0886 -0.5416
  854SOL     OW 3413   2.895   2.265   0.754 -0.5607  0.0565  0.2518
  854SOL    HW1 3414   2.815   2.226   0.713  0.7432 -1.5591 -0.8145
  854SOL    HW2 3415   2.925   2.193   0.820 -0.1890  0.7345 -0.0227
  854SOL     MW 3416   2.889   2.250   0.757 -0.3396 -0.0672  0.0749
  855SOL     OW 3417   2.835   2.370   0.411  0.0658  0.0486 -0.2187
  855SOL    HW1 3418   2.756   2.312   0.406 -1.2866  0.4703  0.9932
  855SOL    HW2 3419   2.906   2.301   0.410  0.2286 -0.9596  0.3332
  855SOL     MW 3420   2.834   2.353   0.410 -0.0911 -0.0288  0.0140
  856SOL     OW 3421   2.077   1.828   0.249 -0.8415  0.5288  0.1000
  856SOL    HW1 3422   1.984   1.842   0.265 -1.4562 -0.5454 -0.4548
  856SOL    HW2 3423   2.120   1.896   0.304 -1.8322  1.4960 -0.8688
  856SOL     MW 3424   2.071   1.839   0.259 -1.0533  0.5147 -0.1010
  857SOL     OW 3425   2.484   1.928   0.583  0.1411  0.0176  0.2641
  857SOL    HW1 3426   2.449   1.965   0.504  1.7864 -0.8829  0.2542
  857SOL    HW2 3427   2.418   1.947   0.652  1.6160 -3.0024  0.2588
  857SOL     MW 3428   2.470   1.936   0.582  0.5528 -0.4997  0.2621
  858SOL     OW 3429   2.941   2.687   1.873  0.6273  0.1115  1.0036
  858SOL    HW1 3430   3.012   2.743   1.898  1.0832 -0.9825 -1.8461
  858SOL    HW2 3431   2.985   2.622   1.822  1.6158  1.0150 -0.4058
  858SOL     MW 3432   2.956   2.686   1.870  0.8178  0.0863  0.4416
  859SOL     OW 3433   1.750   2.656   0.989  0.0427  0.4205  0.2584
  859SOL    HW1 3434   1.710   2.607   0.916  2.0935 -1.5848  3.8097
  859SOL    HW2 3435   1.791   2.584   1.034  3.4193 -0.6354  0.7360
  859SOL     MW 3436   1.750   2.640   0.985  0.7588  0.0166  0.7900
  860SOL     OW 3437   2.654   2.564   0.061  0.3435 -0.4936  0.1083
  860SOL    HW1 3438   2.715   2.577   0.140  1.1011  0.3219 -1.3890
  860SOL    HW2 3439   2.627   2.643   0.023  0.7910 -0.1410 -0.1616
  860SOL     MW 3440   2.659   2.577   0.066  0.5025 -0.3395 -0.1248
  861SOL     OW 3441   1.592   2.146   1.175 -0.7359  0.0909 -0.2148
  861SOL    HW1 3442   1.657   2.184   1.240  1.9487  1.9477 -0.3090
  861SOL    HW2 3443   1.534   2.098   1.236  0.9895  0.3566 -0.2178
  861SOL     MW 3444   1.593   2.145   1.191 -0.1540  0.3710 -0.2276
  862SOL     OW 3445   2.455   1.727   1.460  0.4541  1.0065  0.0343
  862SOL    HW1 3446   2.412   1.788   1.522  1.7929 -2.5264  0.0875
  862SOL    HW2 3447   2.392   1.705   1.392 -1.2245  0.4199  3.0006
  862SOL     MW 3448   2.441   1.732   1.459  0.4093  0.4630  0.4327
  863SOL     OW 3449   2.873   1.651   0.943 -0.3694 -0.1996  0.1611
  863SOL    HW1 3450   2.828   1.707   1.006  0.8345  1.7165  0.6981
  863SOL    HW2 3451   2.813   1.644   0.866 -0.4409  0.7906  0.2971
  863SOL     MW 3452   2.859   1.658   0.941 -0.2200  0.1839  0.2499
  864SOL     OW 3453   3.075   1.768   0.774  0.0024  0.4876  0.1173
  864SOL    HW1 3454   3.008   1.775   0.845  0.0981 -1.3344  0.0435
  864SOL    HW2 3455   3.029   1.738   0.693  2.6813 -1.5709 -0.5175
  864SOL     MW 3456   3.060   1.765   0.773  0.3685 -0.0244  0.0238
  865SOL     OW 3457   2.511   2.158   0.137  0.0627 -0.2078 -0.2115
  865SOL    HW1 3458   2.500   2.081   0.087  3.3193  1.4154 -2.6364
  865SOL    HW2 3459   2.435   2.218   0.120 -2.9771  3.4062 -1.4749
  865SOL     MW 3460   2.500   2.156   0.128  0.0913  0.4832 -0.6981
  866SOL     OW 3461   2.725   2.356   1.529 -0.3088 -0.4519 -0.0648
  866SOL    HW1 3462   2.727   2.258   1.540  1.5923 -2.7609  0.3124
  866SOL    HW2 3463   2.771   2.380   1.453  0.4534 -1.7488 -1.8302
  866SOL     MW 3464   2.731   2.346   1.520  0.0426 -0.9277 -0.2480
  867SOL     OW 3465   0.172   2.715   1.723 -0.1747  0.0743 -0.3998
  867SOL    HW1 3466   0.226   2.787   1.754  0.1777 -0.1338  1.1137
  867SOL    HW2 3467   0.097   2.758   1.675 -1.1278 -0.6190  1.1245
  867SOL     MW 3468   0.169   2.730   1.721 -0.2540 -0.0446  0.0010
  868SOL     OW 3469   2.734   2.641   0.574  0.0491 -0.7490 -0.3414
  868SOL    HW1 3470   2.724   2.549   0.546  1.2838  1.8737  1.0645
  868SOL    HW2 3471   2.669   2.694   0.530  0.6018 -1.5267 -1.3145
  868SOL     MW 3472   2.724   2.636   0.564  0.2850 -0.5055 -0.2843
  869SOL     OW 3473   1.940   2.451   1.075  0.4125 -0.4087 -0.8865
  869SOL    HW1 3474   2.020   2.497   1.041 -0.3053  3.8213  2.4520
  869SOL    HW2 3475   1.925   2.375   1.015 -0.7656  1.5811  0.7027
  869SOL     MW 3476   1.948   2.447   1.063  0.1624  0.4119 -0.2363
  870SOL     OW 3477   2.167   0.018   0.461 -0.0365  0.1967 -0.0428
  870SOL    HW1 3478   2.231   0.059   0.397  3.0501  2.3237 -2.4194
  870SOL    HW2 3479   2.207  -0.063   0.503 -0.7766 -0.4114  2.4315
  870SOL     MW 3480   2.181   0.013   0.458  0.2731  0.3971 -0.0299
  871SOL     OW 3481   2.450   2.046   0.902 -0.9021  0.1817 -0.0591
  871SOL    HW1 3482   2.376   1.997   0.858 -0.5927 -2.9804 -0.0092
  871SOL    HW2 3483   2.413   2.127   0.948 -0.0661 -0.1875  2.1713
  871SOL     MW 3484   2.435   2.050   0.902 -0.7510 -0.2843  0.2417
  872SOL     OW 3485   2.108   2.468   1.616  0.1707 -0.1696  0.0662
  872SOL    HW1 3486   2.068   2.548   1.651 -1.2092 -0.2840 -2.3188
  872SOL    HW2 3487   2.070   2.446   1.532 -1.3533 -0.8316  2.4380
  872SOL     MW 3488   2.098   2.476   1.610 -0.2124 -0.2720  0.0645
  873SOL     OW 3489   2.889   2.135   1.831  0.4087  0.1329 -0.3667
  873SOL    HW1 3490   2.880   2.204   1.897  1.7999 -0.5371  0.1882
  873SOL    HW2 3491   2.965   2.162   1.780  1.9494 -0.0030 -1.1051
  873SOL     MW 3492   2.898   2.148   1.833  0.7955  0.0266 -0.3909
  874SOL     OW 3493   2.324   1.421   2.382  0.5588 -0.0837 -0.0797
  874SOL    HW1 3494   2.270   1.384   2.308  1.7663 -0.6599  0.7301
  874SOL    HW2 3495   2.384   1.352   2.393 -1.0358  3.1271 -2.8369
  874SOL     MW 3496   2.325   1.407   2.374  0.5077  0.2639 -0.3366
  875SOL     OW 3497   2.338   2.290   1.001 -0.4154 -0.7056  0.0680
  875SOL    HW1 3498   2.362   2.344   0.925 -0.5683 -2.3757 -0.3557
  875SOL    HW2 3499   2.402   2.315   1.065  0.4048  0.2457 -1.1883
  875SOL     MW 3500   2.349   2.301   0.999 -0.3273 -0.8005 -0.1537
  876SOL     OW 3501   3.093   2.212   1.299  0.7988  0.0562 -0.4198
  876SOL    HW1 3502   3.156   2.258   1.242  2.0913  1.3441  1.8392
  876SOL    HW2 3503   3.135   2.222   1.380 -0.3105 -2.1490  0.9803
  876SOL     MW 3504   3.107   2.220   1.302  0.8230 -0.0648  0.0630
  877SOL     OW 3505   0.023   2.791   0.274  0.2968 -0.0885 -0.1010
  877SOL    HW1 3506   0.106   2.827   0.232  0.9720 -0.8034 -1.4051
  877SOL    HW2 3507  -0.002   2.720   0.216  0.5644  1.2647  2.7185
  877SOL     MW 3508   0.030   2.786   0.261  0.4212 -0.0043  0.0989
  878SOL     OW 3509   2.259   1.704   1.144 -0.0911  0.9596 -0.2718
  878SOL    HW1 3510   2.186   1.660   1.203 -2.9483 -1.9514 -0.2137
  878SOL    HW2 3511   2.319   1.629   1.147  3.4736 -0.0489  0.8401
  878SOL     MW 3512   2.257   1.688   1.152  0.0022  0.4425 -0.1174
  879SOL     OW 3513   2.709   2.451   0.854  0.3940 -0.0137  0.3070
  879SOL    HW1 3514   2.756   2.533   0.875  2.4305  0.7747 -1.9464
  879SOL    HW2 3515   2.775   2.386   0.829 -3.9421 -0.9221  1.9935
  879SOL     MW 3516   2.724   2.454   0.854  0.0906 -0.0296  0.2322
  880SOL     OW 3517   2.602   2.200   0.707  0.7349  0.2582 -0.1138
  880SOL    HW1 3518   2.566   2.150   0.789 -0.8059  2.5071 -0.9333
  880SOL    HW2 3519   2.573   2.146   0.639 -0.5060 -2.6578  1.9147
  880SOL     MW 3520   2.594   2.186   0.709  0.3679  0.1702  0.0457
  881SOL     OW 3521   2.972   2.712   0.708 -0.5448 -0.4492  0.1089
  881SOL    HW1 3522   2.885   2.696   0.657 -2.0724  0.2163 -2.9125
  881SOL    HW2 3523   3.037   2.670   0.660  0.6627 -0.4024  0.9358
  881SOL     MW 3524   2.969   2.704   0.695 -0.5870 -0.3552 -0.1807
  882SOL     OW 3525   2.246   2.918   1.922  0.0109 -0.3542 -0.4251
  882SOL    HW1 3526   2.257   2.916   1.826 -1.1509  0.3118 -0.4326
  882SOL    HW2 3527   2.198   2.838   1.941 -1.0642 -1.8875 -0.1652
  882SOL     MW 3528   2.241   2.907   1.912 -0.2842 -0.4686 -0.3918
  883SOL     OW 3529   2.448   2.165   1.314 -0.7176  0.5661  0.2721
  883SOL    HW1 3530   2.539   2.141   1.285  0.5303  0.5156  1.4849
  883SOL    HW2 3531   2.392   2.120   1.250  0.6639 -1.3721 -0.7711
  883SOL     MW 3532   2.453   2.156   1.302 -0.3707  0.3037  0.2944
  884SOL     OW 3533   1.879   1.869   1.041 -0.0994  0.2785  0.2391
  884SOL    HW1 3534   1.819   1.949   1.018  0.9984 -0.7699 -2.9345
  884SOL    HW2 3535   1.972   1.902   1.032 -0.0534 -1.4364  0.1754
  884SOL     MW 3536   1.884   1.884   1.037  0.0515 -0.0861 -0.1881
  885SOL     OW 3537   2.932   2.435   1.711 -0.1472  0.2532  0.2304
  885SOL    HW1 3538   2.984   2.358   1.678 -0.7861 -1.4060  1.4817
  885SOL    HW2 3539   2.869   2.446   1.638 -0.6263 -0.9476  1.8234
  885SOL     MW 3540   2.931   2.426   1.697 -0.2947 -0.1241  0.6057
  886SOL     OW 3541   2.896   2.386   1.291 -0.1726  0.3547  0.2754
  886SOL    HW1 3542   2.972   2.322   1.297  2.4201 -1.2194 -4.7954
  886SOL    HW2 3543   2.936   2.467   1.321  1.0223 -1.6235 -0.6347
  886SOL     MW 3544   2.911   2.388   1.296  0.3271 -0.1140 -0.5137
  887SOL     OW 3545   2.328   2.628   1.560  0.7310 -0.3843 -0.5386
  887SOL    HW1 3546   2.350   2.650   1.467  0.5130  0.0192 -1.1884
  887SOL    HW2 3547   2.252   2.573   1.570 -0.4039 -0.3937  0.3393
  887SOL     MW 3548   2.321   2.624   1.549  0.5525 -0.3323 -0.5085
  888SOL     OW 3549   2.077   2.192   1.424 -0.2369  0.8880  0.0474
  888SOL    HW1 3550   2.131   2.192   1.345  1.5556 -1.3358 -1.4815
  888SOL    HW2 3551   2.140   2.203   1.498  0.8130 -1.1104 -0.4299
  888SOL     MW 3552   2.092   2.194   1.423  0.1382  0.3309 -0.2173
  889SOL     OW 3553   2.274   1.933   2.067  0.4163 -0.2456 -0.1239
  889SOL    HW1 3554   2.354   1.910   2.109 -1.0612  0.3978 -0.1963
  889SOL    HW2 3555   2.309   2.009   2.014  1.4539  2.1649  1.7287
  889SOL     MW 3556   2.289   1.940   2.065  0.3583  0.1573  0.1110
  890SOL     OW 3557   0.064   2.352   0.121 -0.4671  0.0413 -0.0578
  890SOL    HW1 3558   0.035   2.446   0.121 -0.9802 -0.7460 -0.2642
  890SOL    HW2 3559   0.080   2.333   0.212  2.7271 -0.4715 -1.1255
  890SOL     MW 3560   0.062   2.362   0.133 -0.1134 -0.1302 -0.2259
  891SOL     OW 3561   3.012   1.961   1.200  0.1963  0.0976  0.0685
  891SOL    HW1 3562   3.085   1.904   1.171 -2.9537 -3.6656  1.2501
  891SOL    HW2 3563   3.042   2.049   1.235 -0.9255 -1.0433  1.1694
  891SOL     MW 3564   3.025   1.965   1.201 -0.3673 -0.5494  0.3696
  892SOL     OW 3565   2.433   2.357   2.738 -0.3192  0.3972  0.2102
  892SOL    HW1 3566   2.433   2.267   2.785  0.0436 -0.5770 -2.7228
  892SOL    HW2 3567   2.527   2.379   2.757  2.7022 -0.8556 -0.8735
  892SOL     MW 3568   2.445   2.348   2.746  0.1273  0.1034 -0.3197
  893SOL     OW 3569   1.629   2.332   1.392 -0.0067  0.4005  0.0206
  893SOL    HW1 3570   1.550   2.382   1.400 -0.4574 -0.2202 -1.7732
  893SOL    HW2 3571   1.682   2.353   1.468  0.7131 -2.1420 -0.6764
  893SOL     MW 3572   1.625   2.341   1.403  0.0288 -0.0169 -0.3080
  894SOL     OW 3573   2.782   1.981   0.486  0.1326 -0.2156  1.3210
  894SOL    HW1 3574   2.701   1.997   0.527  3.3166  0.5941 -0.1233
  894SOL    HW2 3575   2.759   1.922   0.413 -0.3602  1.4701 -0.6870
  894SOL     MW 3576   2.768   1.976   0.482  0.4877  0.1137  0.8655
  895SOL     OW 3577   2.185   2.155   1.192  0.2070  0.7578  0.3837
  895SOL    HW1 3578   2.224   2.225   1.131 -1.5181  1.7379  0.6289
  895SOL    HW2 3579   2.140   2.092   1.129 -0.6485 -0.7473 -0.6546
  895SOL     MW 3580   2.184   2.156   1.175 -0.1335  0.6886  0.2790
  896SOL     OW 3581   2.315   2.802   1.086  1.1675 -0.4235  0.3006
  896SOL    HW1 3582   2.353   2.757   1.165  1.1640 -2.0193 -1.5186
  896SOL    HW2 3583   2.242   2.852   1.120 -0.5143 -1.3978  2.4260
  896SOL     MW 3584   2.310   2.803   1.101  0.9452 -0.7626  0.3410
  897SOL     OW 3585   0.008   3.060   3.042  0.8605 -0.6994 -0.3663
  897SOL    HW1 3586   0.044   2.972   3.025 -0.2699 -0.6810 -1.4635
  897SOL    HW2 3587  -0.061   3.071   2.980  4.0981 -0.8872 -2.0523
  897SOL     MW 3588   0.003   3.050   3.031  1.1385 -0.7217 -0.7336
  898SOL     OW 3589   2.165   0.189   1.429 -0.6224  0.0171  0.1868
  898SOL    HW1 3590   2.116   0.106   1.428 -0.8617  0.4638 -2.5228
  898SOL    HW2 3591   2.146   0.216   1.343 -0.3561 -1.4379  0.4394
  898SOL     MW 3592   2.156   0.182   1.417 -0.6188 -0.1159 -0.1374
  899SOL     OW 3593   3.011   2.975   0.611  0.1575 -0.5195 -0.0301
  899SOL    HW1 3594   3.009   2.888   0.647 -1.1897 -1.0320 -0.7171
  899SOL    HW2 3595   2.932   3.029   0.640  0.2857  0.0470 -0.3933
  899SOL     MW 3596   3.001   2.971   0.620 -0.0033 -0.5123 -0.1687
  900SOL     OW 3597   0.178   2.371   1.139 -0.2665  0.2966  0.1725
  900SOL    HW1 3598   0.155   2.454   1.096  2.0385  0.2947 -2.8075
  900SOL    HW2 3599   0.167   2.309   1.065  0.2825 -1.1040 -1.0175
  900SOL     MW 3600   0.173   2.374   1.123  0.1100  0.1116 -0.3777
  901SOL     OW 3601   1.751   2.871   1.772  0.0965 -0.1921 -0.3305
  901SOL    HW1 3602   1.788   2.789   1.756 -0.4997  1.9514 -1.2188
  901SOL    HW2 3603   1.655   2.861   1.806 -1.8811 -1.5544  3.1900
  901SOL     MW 3604   1.744   2.859   1.775 -0.2431 -0.0891  0.0168
  902SOL     OW 3605   2.613   2.086   1.724 -0.1829  0.1037  0.1031
  902SOL    HW1 3606   2.607   2.034   1.647 -1.9058 -0.9458  0.1178
  902SOL    HW2 3607   2.701   2.074   1.755  1.0613 -0.2477 -0.2178
  902SOL     MW 3608   2.624   2.078   1.718 -0.2460 -0.0812  0.0627
  903SOL     OW 3609   1.546   2.649   0.539 -0.3897  0.6717 -0.5440
  903SOL    HW1 3610   1.636   2.614   0.535 -0.2244 -0.5808  2.9056
  903SOL    HW2 3611   1.531   2.672   0.629  1.4601 -1.7374  0.0279
  903SOL     MW 3612   1.556   2.648   0.550 -0.1238  0.1886 -0.0134
  904SOL     OW 3613   2.558   2.535   1.666 -0.2493  0.1930  0.5625
  904SOL    HW1 3614   2.473   2.571   1.623 -1.9336  1.8068  0.8390
  904SOL    HW2 3615   2.605   2.485   1.595 -0.4573  0.5013  0.4930
  904SOL     MW 3616   2.553   2.533   1.651 -0.4990  0.4466  0.5898
  905SOL     OW 3617   2.336   2.507   2.082 -0.0974  0.0876  0.1109
  905SOL    HW1 3618   2.419   2.468   2.049  0.7802 -2.0211  0.6648
  905SOL    HW2 3619   2.290   2.460   2.156  0.2494  0.4871  0.6655
  905SOL     MW 3620   2.340   2.496   2.088  0.0641 -0.1380  0.2572
  906SOL     OW 3621   2.418   2.476   0.782 -0.7275 -0.7811  0.4820
  906SOL    HW1 3622   2.510   2.461   0.782 -1.8390  1.1304  0.0662
  906SOL    HW2 3623   2.420   2.570   0.803 -1.3243  1.2702  0.2935
  906SOL     MW 3624   2.430   2.487   0.784 -0.9529 -0.2582  0.4023
  907SOL     OW 3625   2.668   2.735   1.329 -0.2758  0.3543  0.2581
  907SOL    HW1 3626   2.698   2.809   1.381 -3.1515 -3.6163  1.1170
  907SOL    HW2 3627   2.678   2.763   1.236  0.7566 -1.8343 -4.8557
  907SOL     MW 3628   2.673   2.749   1.324 -0.5190 -0.4584 -0.3033
  908SOL     OW 3629   2.680   2.315   3.070  0.0810 -0.2281  0.0418
  908SOL    HW1 3630   2.626   2.254   3.109  0.1266 -1.8345  2.0008
  908SOL    HW2 3631   2.667   2.404   3.106 -1.8027 -0.2114 -1.2779
  908SOL     MW 3632   2.671   2.318   3.080 -0.1615 -0.4378  0.1261
  909SOL     OW 3633   1.712   0.098   1.304  0.0596  0.0448  0.0408
  909SOL    HW1 3634   1.686   0.194   1.300  1.7113 -0.5096 -3.8594
  909SOL    HW2 3635   1.672   0.074   1.395 -0.8023  0.2823 -1.1114
  909SOL     MW 3636   1.703   0.108   1.316  0.1638  0.0030 -0.6258
  910SOL     OW 3637   2.134   1.640   0.439  0.1364 -0.1290  0.5459
  910SOL    HW1 3638   2.116   1.548   0.423 -0.1595  2.2465  1.9238
  910SOL    HW2 3639   2.092   1.697   0.369 -1.3834  0.8188  2.1035
  910SOL     MW 3640   2.126   1.635   0.428 -0.1032  0.3095  0.9332
  911SOL     OW 3641   2.391   2.209   1.575 -0.3950 -0.1823  0.3195
  911SOL    HW1 3642   2.478   2.211   1.615 -0.8454 -1.1854 -2.0672
  911SOL    HW2 3643   2.405   2.192   1.487 -1.6132 -1.7930  1.5330
  911SOL     MW 3644   2.405   2.207   1.568 -0.6151 -0.5272  0.1647
  912SOL     OW 3645   2.934   1.849   1.439 -0.1136 -0.4051  0.4749
  912SOL    HW1 3646   2.965   1.869   1.343  2.3432 -0.5771  0.4081
  912SOL    HW2 3647   2.881   1.922   1.470 -2.6605  1.1400 -1.6747
  912SOL     MW 3648   2.931   1.861   1.430 -0.1255 -0.2240  0.1824
  913SOL     OW 3649   2.684   0.008   0.311  0.0022 -0.8666 -0.0938
  913SOL    HW1 3650   2.774  -0.027   0.309 -1.2657  0.2890 -0.3476
  913SOL    HW2 3651   2.634  -0.064   0.274 -0.6705  0.6768  0.9111
  913SOL     MW 3652   2.689  -0.006   0.306 -0.2539 -0.5105  0.0053
  914SOL     OW 3653   2.640   1.774   3.046  0.2427 -0.2119  0.7512
  914SOL    HW1 3654   2.700   1.848   3.018 -0.6977 -0.5412 -0.2559
  914SOL    HW2 3655   2.551   1.819   3.044  0.5960 -0.0265 -3.2142
  914SOL     MW 3656   2.636   1.790   3.042  0.1652 -0.2309  0.0951
  915SOL     OW 3657   1.794   0.114   0.169  0.2451  0.4065  0.0440
  915SOL    HW1 3658   1.872   0.052   0.192 -0.1207 -1.0325  0.7317
  915SOL    HW2 3659   1.713   0.071   0.200  2.2620  0.6945 -1.2114
  915SOL     MW 3660   1.794   0.100   0.176  0.4629  0.2546 -0.0309
  916SOL     OW 3661   1.787   2.136   1.982 -0.2348 -0.7879  0.1911
  916SOL    HW1 3662   1.804   2.224   1.952  0.3737 -1.8795  1.3221
  916SOL    HW2 3663   1.836   2.076   1.923  0.0132 -1.7355 -1.3295
  916SOL     MW 3664   1.795   2.139   1.971 -0.1218 -1.0570  0.1397
  917SOL     OW 3665   2.516   2.193   2.530 -0.3808 -0.1223 -0.1267
  917SOL    HW1 3666   2.468   2.259   2.580 -1.4632  2.9782 -0.1065
  917SOL    HW2 3667   2.593   2.231   2.494  2.8071 -1.5583  1.9206
  917SOL     MW 3668   2.520   2.207   2.532 -0.1030  0.0973  0.1461
  918SOL     OW 3669   2.035   1.611   2.680 -0.4822 -0.2259 -0.4372
  918SOL    HW1 3670   1.958   1.590   2.624 -1.1631 -1.8852  0.9763
  918SOL    HW2 3671   2.090   1.680   2.633  1.1784 -2.3582 -0.8244
  918SOL     MW 3672   2.032   1.618   2.666 -0.3529 -0.7261 -0.3018
  919SOL     OW 3673   3.047   2.397   2.291  0.3779 -0.3163 -0.2191
  919SOL    HW1 3674   2.984   2.328   2.275  2.6531  1.9914  1.5259
  919SOL    HW2 3675   3.084   2.411   2.204 -1.3710  0.6373 -2.6535
  919SOL     MW 3676   3.044   2.389   2.277  0.4473  0.1140 -0.3100
  920SOL     OW 3677   2.592   2.864   3.037 -0.2520  0.3480 -0.4440
  920SOL    HW1 3678   2.526   2.795   3.016  0.1921  0.8460 -2.2973
  920SOL    HW2 3679   2.655   2.848   2.969 -1.2655  1.7072  0.5341
  920SOL     MW 3680   2.592   2.853   3.025 -0.3271  0.5930 -0.5595
  921SOL     OW 3681   2.415   2.583   2.598 -0.3832 -0.0282 -0.1431
  921SOL    HW1 3682   2.495   2.567   2.550 -1.0246  0.3104  1.3622
  921SOL    HW2 3683   2.406   2.511   2.661 -0.9340 -0.3290 -2.5626
  921SOL     MW 3684   2.425   2.572   2.600 -0.5405 -0.0232 -0.2637
  922SOL     OW 3685   2.087   2.640   0.406  0.0043  0.2637  0.1087
  922SOL    HW1 3686   2.126   2.653   0.317 -1.6506  2.7798 -3.4647
  922SOL    HW2 3687   2.120   2.551   0.442  0.7358  0.9151 -0.2733
  922SOL     MW 3688   2.097   2.630   0.399 -0.1175  0.6816 -0.4132
  923SOL     OW 3689   2.221   2.871   1.654  0.0070 -0.8465 -0.1895
  923SOL    HW1 3690   2.266   2.790   1.629 -1.8724 -0.7701 -1.3489
  923SOL    HW2 3691   2.205   2.913   1.569  0.8275  1.8494  1.1677
  923SOL     MW 3692   2.225   2.866   1.640 -0.1327 -0.4807 -0.1634
  924SOL     OW 3693   1.073   2.720   2.617 -0.3865  0.7307 -0.3891
  924SOL    HW1 3694   1.168   2.717   2.602 -1.8709 -0.8587  0.4263
  924SOL    HW2 3695   1.048   2.637   2.659  0.7835 -1.5383 -0.7674
  924SOL     MW 3696   1.083   2.709   2.621 -0.4280  0.2216 -0.3314
  925SOL     OW 3697   2.994   0.144   2.625 -0.5520  0.2351  0.4922
  925SOL    HW1 3698   2.953   0.151   2.540 -1.8068  2.3569 -1.9506
  925SOL    HW2 3699   2.971   0.217   2.684 -0.0880 -0.9013 -0.6429
  925SOL     MW 3700   2.986   0.155   2.622 -0.6563  0.3651  0.0202
  926SOL     OW 3701   2.802   2.412   1.952 -0.5146 -0.0213  0.1456
  926SOL    HW1 3702   2.822   2.492   1.990  1.1435 -1.6104 -0.0717
  926SOL    HW2 3703   2.847   2.419   1.868 -0.4081 -1.1007 -0.2066
  926SOL     MW 3704   2.810   2.423   1.946 -0.2818 -0.3734  0.0705
  927SOL     OW 3705   2.361   0.121   0.298 -0.2937 -0.0342 -0.1967
  927SOL    HW1 3706   2.448   0.136   0.328 -0.9460 -1.3456 -3.0104
  927SOL    HW2 3707   2.374   0.073   0.213 -0.5913 -0.7232  3.6645
  927SOL     MW 3708   2.374   0.116   0.291 -0.4190 -0.2981 -0.0585
  928SOL     OW 3709   2.164   2.326   1.860  0.4976  0.5193 -0.0021
  928SOL    HW1 3710   2.190   2.369   1.777 -1.6916  0.4052  0.9922
  928SOL    HW2 3711   2.196   2.375   1.934 -2.7874 -1.9057  1.3799
  928SOL     MW 3712   2.172   2.339   1.859 -0.2247  0.1843  0.3114
  929SOL     OW 3713   2.723   2.350   2.438 -0.2788  0.0467 -0.8147
  929SOL    HW1 3714   2.752   2.297   2.362 -2.3941  0.1347 -2.4775
  929SOL    HW2 3715   2.787   2.333   2.509  2.0325  0.5071  1.5149
  929SOL     MW 3716   2.735   2.341   2.437 -0.2530  0.1190 -0.7267
  930SOL     OW 3717   2.038   2.844   2.672  0.2648 -0.1381  0.3353
  930SOL    HW1 3718   2.043   2.766   2.722  1.9906 -0.0730 -0.3424
  930SOL    HW2 3719   2.134   2.869   2.653  2.3902 -3.3510  0.3481
  930SOL     MW 3720   2.052   2.837   2.676  0.7729 -0.5534  0.2476
  931SOL     OW 3721   0.037   2.765   2.449  0.0686 -0.0933  0.2016
  931SOL    HW1 3722   0.051   2.835   2.522 -0.1984 -0.0149 -0.1118
  931SOL    HW2 3723   0.130   2.762   2.418 -2.7427 -1.2522 -2.1094
  931SOL     MW 3724   0.051   2.773   2.455 -0.3376 -0.2359 -0.1447
  932SOL     OW 3725   2.765   2.042   2.446 -0.5679 -0.1009  0.2492
  932SOL    HW1 3726   2.859   2.055   2.464  0.0120  1.8929 -0.7776
  932SOL    HW2 3727   2.763   2.025   2.351 -2.1524 -1.9277  0.6340
  932SOL     MW 3728   2.777   2.041   2.436 -0.7005 -0.0788  0.1645
  933SOL     OW 3729   2.092   2.770   2.223 -0.1039  0.4972  0.1785
  933SOL    HW1 3730   2.174   2.812   2.227 -1.3020 -1.9704 -2.9687
  933SOL    HW2 3731   2.026   2.845   2.204 -0.0768 -3.5060  0.3233
  933SOL     MW 3732   2.094   2.786   2.221 -0.2584 -0.3566 -0.2176
  934SOL     OW 3733   2.008   2.666   2.454 -0.5061 -0.4197 -0.1601
  934SOL    HW1 3734   2.016   2.724   2.525  2.8280 -0.4550  0.8724
  934SOL    HW2 3735   2.055   2.702   2.374  2.5186 -0.8115 -1.2736
  934SOL     MW 3736   2.015   2.678   2.453  0.3329 -0.4760 -0.1708
  935SOL     OW 3737   2.639   1.503   1.813  0.0935  0.5968  0.6604
  935SOL    HW1 3738   2.731   1.471   1.800  1.7508 -1.3000 -0.5654
  935SOL    HW2 3739   2.597   1.474   1.732 -1.3582  0.3273  2.5735
  935SOL     MW 3740   2.645   1.495   1.800  0.1206  0.3110  0.7510
  936SOL     OW 3741   2.926   2.213   0.020  0.1182  0.1469  0.1376
  936SOL    HW1 3742   2.998   2.275   0.051  0.2392 -0.5412 -1.1154
  936SOL    HW2 3743   2.852   2.261  -0.009 -1.9426  2.9960  1.6881
  936SOL     MW 3744   2.925   2.227   0.020 -0.1378  0.4320  0.1768
  937SOL     OW 3745   1.913   2.126   2.613  0.8343 -0.3353  0.1443
  937SOL    HW1 3746   1.992   2.088   2.655 -0.3748 -2.0603  0.2984
  937SOL    HW2 3747   1.938   2.129   2.519  0.3400 -2.6188 -0.7705
  937SOL     MW 3748   1.927   2.122   2.606  0.6095 -0.8642  0.0439
  938SOL     OW 3749   2.224   1.810   1.836 -0.3116  0.8173  0.3380
  938SOL    HW1 3750   2.267   1.860   1.769 -0.1392  1.4250 -3.9125
  938SOL    HW2 3751   2.251   1.843   1.920  2.0413 -3.1836  0.3799
  938SOL     MW 3752   2.233   1.821   1.838  0.0216  0.3696 -0.2173
  939SOL     OW 3753   2.785   1.978   2.164 -0.6140 -0.0430 -0.9929
  939SOL    HW1 3754   2.822   1.929   2.091  1.2714  0.4895 -1.2205
  939SOL    HW2 3755   2.697   1.946   2.162 -0.5528  0.7176 -1.6143
  939SOL     MW 3756   2.778   1.968   2.154 -0.3572  0.1276 -1.1049
  940SOL     OW 3757   2.217   0.081   2.771  0.3502  0.0875  0.2575
  940SOL    HW1 3758   2.242  -0.003   2.723  3.0898  1.1012 -1.8405
  940SOL    HW2 3759   2.297   0.086   2.822 -0.5058 -1.2027 -0.6250
  940SOL     MW 3760   2.231   0.071   2.772  0.5987  0.0510 -0.1357
  941SOL     OW 3761   0.119   2.451   2.061 -0.4794 -0.0106 -0.7068
  941SOL    HW1 3762   0.210   2.402   2.070  1.2264  0.0439 -2.1729
  941SOL    HW2 3763   0.113   2.440   1.969  0.1998 -1.0655  0.6907
  941SOL     MW 3764   0.130   2.443   2.050 -0.1647 -0.1426 -0.7159
  942SOL     OW 3765   2.796   2.259   2.177 -0.4631  0.2030  0.2926
  942SOL    HW1 3766   2.774   2.305   2.092  0.0602 -2.6068  2.9001
  942SOL    HW2 3767   2.763   2.171   2.155  1.8384  1.8643  0.6395
  942SOL     MW 3768   2.788   2.254   2.163 -0.0904  0.0515  0.6824
  943SOL     OW 3769   0.348   2.176   2.264  0.2387  0.3413  0.7109
  943SOL    HW1 3770   0.268   2.169   2.314 -1.1706 -0.5030  3.1692
  943SOL    HW2 3771   0.412   2.143   2.329  1.4108 -0.6868 -0.2474
  943SOL     MW 3772   0.346   2.171   2.279  0.2074  0.0942  0.9088
  944SOL     OW 3773   2.127   2.662   1.982 -0.1997  0.6761  0.0047
  944SOL    HW1 3774   2.191   2.599   2.006 -1.7882 -0.2155 -1.0243
  944SOL    HW2 3775   2.107   2.702   2.075  1.1469  1.3388 -1.3583
  944SOL     MW 3776   2.132   2.659   1.997 -0.2316  0.6459 -0.3109
  945SOL     OW 3777   2.745   2.677   2.885 -0.0100 -0.3261  0.1911
  945SOL    HW1 3778   2.700   2.584   2.872 -0.8501  0.4010  0.5650
  945SOL    HW2 3779   2.755   2.715   2.793  0.8754 -0.4139  0.6540
  945SOL     MW 3780   2.740   2.670   2.871 -0.0041 -0.2417  0.3015
  946SOL     OW 3781   2.447   2.720   2.237  0.6633 -0.1000 -0.3332
  946SOL    HW1 3782   2.482   2.747   2.161 -2.5762 -0.7322  2.0253
  946SOL    HW2 3783   2.393   2.642   2.210 -0.1484  0.1053  0.6776
  946SOL     MW 3784   2.444   2.713   2.224  0.1288 -0.1563  0.1113
  947SOL     OW 3785   2.037   3.033   0.206 -0.1918 -0.1489 -0.4978
  947SOL    HW1 3786   2.050   2.950   0.170 -0.7274  0.4320  2.1516
  947SOL    HW2 3787   2.068   3.031   0.303  1.3587 -3.0571  0.1973
  947SOL     MW 3788   2.043   3.022   0.214 -0.0579 -0.4560 -0.0566
  948SOL     OW 3789   1.819   3.039   2.631 -0.1069 -0.0265 -0.1815
  948SOL    HW1 3790   1.880   2.964   2.643  2.0300  0.1475  0.0459
  948SOL    HW2 3791   1.789   3.035   2.538  1.9869 -0.2602 -1.5585
  948SOL     MW 3792   1.823   3.028   2.620  0.4513 -0.0344 -0.3332
  949SOL     OW 3793   2.516   1.888   2.220  0.0893  0.3712 -0.4791
  949SOL    HW1 3794   2.511   1.813   2.280  0.3123 -0.8351 -0.2611
  949SOL    HW2 3795   2.462   1.961   2.255 -0.2795  1.7342 -0.6800
  949SOL     MW 3796   2.508   1.888   2.232  0.0701  0.3919 -0.4768
  950SOL     OW 3797   2.293   2.448   2.947 -0.2722 -0.1326 -0.2695
  950SOL    HW1 3798   2.319   2.387   2.880  0.1027  0.4604  0.8618
  950SOL    HW2 3799   2.214   2.492   2.908 -2.1363  3.0766 -0.3304
  950SOL     MW 3800   2.286   2.446   2.933 -0.4687  0.3691 -0.1283
  951SOL     OW 3801   3.018   2.226   2.866  0.0279  0.0457 -0.2157
  951SOL    HW1 3802   2.969   2.188   2.936  1.8916  1.0287 -1.1693
  951SOL    HW2 3803   3.089   2.265   2.913  1.8594 -0.7948  0.2329
  951SOL     MW 3804   3.021   2.226   2.882  0.5155  0.0645 -0.2823
  952SOL     OW 3805   3.062   1.734   2.119  0.2559  0.0171  0.0291
  952SOL    HW1 3806   3.009   1.765   2.042 -0.9443  0.6390 -0.6350
  952SOL    HW2 3807   3.133   1.801   2.132  0.2825  0.2093  0.6571
  952SOL     MW 3808   3.064   1.747   2.111  0.1011  0.1245  0.0243
  953SOL     OW 3809   1.907   1.770   2.877 -0.3352  0.0799 -0.7876
  953SOL    HW1 3810   1.830   1.725   2.918 -0.4396 -2.7384  1.9543
  953SOL    HW2 3811   1.959   1.705   2.828 -0.4919  0.0451  0.8712
  953SOL     MW 3812   1.904   1.756   2.876 -0.3697 -0.2965 -0.2070
  954SOL     OW 3813   2.409   2.109   2.845  0.0359 -0.8341 -0.5427
  954SOL    HW1 3814   2.321   2.084   2.813  0.5956  0.0609 -1.5794
  954SOL    HW2 3815   2.474   2.076   2.776 -0.5243 -1.9193  0.0759
  954SOL     MW 3816   2.406   2.101   2.832  0.0358 -0.8592 -0.5979
  955SOL     OW 3817   1.564   1.548   2.570 -1.1641  0.2382  0.0385
  955SOL    HW1 3818   1.542   1.551   2.476  2.5761  2.5393  4.2949
  955SOL    HW2 3819   1.656   1.581   2.570 -1.0010  1.4624  1.5091
  955SOL     MW 3820   1.573   1.553   2.558 -0.6491  0.7033  0.7941
  956SOL     OW 3821   2.684   2.415   2.820 -0.2179 -0.4190 -0.1092
  956SOL    HW1 3822   2.698   2.367   2.900 -1.4169 -2.8279 -3.1025
  956SOL    HW2 3823   2.740   2.374   2.753  1.0442  0.9869  3.6720
  956SOL     MW 3824   2.693   2.403   2.822 -0.2096 -0.5513 -0.0053
  957SOL     OW 3825   2.275   2.839   0.538  0.2917 -0.0001 -0.0802
  957SOL    HW1 3826   2.231   2.760   0.511 -1.1402 -1.2624  3.0308
  957SOL    HW2 3827   2.271   2.836   0.631 -0.7929 -0.9893 -4.2388
  957SOL     MW 3828   2.269   2.829   0.546 -0.0403 -0.2972 -0.2185
  958SOL     OW 3829   2.067   2.555   2.851 -0.2059  0.2789 -0.2850
  958SOL    HW1 3830   2.022   2.501   2.788 -1.0076  2.8313  1.6845
  958SOL    HW2 3831   2.025   2.541   2.942 -1.0302  0.3956 -0.0041
  958SOL     MW 3832   2.055   2.546   2.855 -0.4204  0.6311  0.0119
  959SOL     OW 3833   2.541   2.756   0.424 -0.1661 -0.0694  0.0652
  959SOL    HW1 3834   2.545   2.806   0.338  1.2290  0.7432  1.1143
  959SOL    HW2 3835   2.474   2.803   0.472  2.1021  0.9852 -1.0008
  959SOL     MW 3836   2.532   2.769   0.419  0.3172  0.1770  0.0630
  960SOL     OW 3837   1.905   2.385   2.310 -0.5494  0.2625 -0.1392
  960SOL    HW1 3838   1.939   2.297   2.319 -0.6858 -0.1351  2.3887
  960SOL    HW2 3839   1.837   2.385   2.375  0.3737 -2.2813  1.9502
  960SOL     MW 3840   1.901   2.374   2.320 -0.4456 -0.1256  0.4700
  961SOL     OW 3841   2.217   2.338   2.254 -0.1709  0.0019 -0.6502
  961SOL    HW1 3842   2.133   2.297   2.227 -0.6966  0.2574 -1.2705
  961SOL    HW2 3843   2.214   2.373   2.349  0.9943  0.8449  0.8972
  961SOL     MW 3844   2.206   2.337   2.263 -0.0865  0.1468 -0.5279
  962SOL     OW 3845   2.153   2.034   2.785  0.1671 -0.1665 -0.4734
  962SOL    HW1 3846   2.122   1.969   2.849  2.5608 -0.5789 -1.3579
  962SOL    HW2 3847   2.180   1.955   2.732  1.6127  0.9154 -3.6378
  962SOL     MW 3848   2.153   2.015   2.787  0.6737 -0.0781 -1.0076
  963SOL     OW 3849   1.843   2.539   2.087  0.1770 -0.6075  0.2242
  963SOL    HW1 3850   1.839   2.491   2.172 -0.4873  0.0188  1.9370
  963SOL    HW2 3851   1.883   2.478   2.023 -0.0795  0.3332  1.4679
  963SOL     MW 3852   1.848   2.525   2.090  0.0555 -0.4008  0.6143
  964SOL     OW 3853   1.791   1.889   2.645 -0.5552  0.4589 -0.8344
  964SOL    HW1 3854   1.824   1.975   2.620  0.2391 -2.9969  0.5404
  964SOL    HW2 3855   1.833   1.874   2.729  1.4348  0.9834 -1.6500
  964SOL     MW 3856   1.801   1.898   2.653 -0.1879  0.0721 -0.7606
  965SOL     OW 3857   2.140   2.581   0.865 -0.2360 -0.6839  0.5618
  965SOL    HW1 3858   2.174   2.516   0.804  0.2748  1.3301 -0.7367
  965SOL    HW2 3859   2.210   2.649   0.867 -2.0134  0.7102 -1.1142
  965SOL     MW 3860   2.154   2.582   0.857 -0.4031 -0.2343  0.1693
  966SOL     OW 3861   2.659   2.617   2.413 -0.3021  0.2411 -0.5792
  966SOL    HW1 3862   2.579   2.644   2.371  0.1298 -4.4251  1.4171
  966SOL    HW2 3863   2.663   2.521   2.415 -0.4220 -0.2151 -0.5160
  966SOL     MW 3864   2.649   2.608   2.408 -0.2609 -0.4347 -0.3074
  967SOL     OW 3865   2.657   0.044   3.094  0.1836 -0.3981  0.6373
  967SOL    HW1 3866   2.638  -0.054   3.077  0.3335  1.2788 -0.9868
  967SOL    HW2 3867   2.642   0.095   3.014 -3.8732  1.2342 -0.0830
  967SOL     MW 3868   2.652   0.038   3.081 -0.3319  0.0385  0.3280
  968SOL     OW 3869   3.021   2.656   2.929  0.2377 -0.2432  0.6057
  968SOL    HW1 3870   2.928   2.680   2.936 -0.2173 -3.5941 -1.1418
  968SOL    HW2 3871   3.025   2.611   2.845 -2.6339 -1.1236 -0.2423
  968SOL     MW 3872   3.009   2.653   2.919 -0.2012 -0.8015  0.2633
  969SOL     OW 3873   1.582   2.101   1.730  0.2267 -0.0573 -0.1218
  969SOL    HW1 3874   1.667   2.063   1.747 -2.9937 -2.1146 -0.7339
  969SOL    HW2 3875   1.554   2.146   1.812  1.1897 -2.4614 -0.9853
  969SOL     MW 3876   1.589   2.102   1.743 -0.0712 -0.6460 -0.3165
  970SOL     OW 3877   1.732   1.796   1.859  0.3059 -0.4485 -0.1287
  970SOL    HW1 3878   1.776   1.733   1.916  0.4344 -1.5239  0.8825
  970SOL    HW2 3879   1.648   1.808   1.906  1.2471 -0.1448 -0.8403
  970SOL     MW 3880   1.727   1.790   1.873  0.4470 -0.5503 -0.0891
  971SOL     OW 3881   1.762   0.003   2.362  0.1389  0.4153 -0.0381
  971SOL    HW1 3882   1.821  -0.027   2.286  2.2840 -1.5662 -0.4393
  971SOL    HW2 3883   1.782   0.096   2.365 -0.2675 -2.3764  1.0358
  971SOL     MW 3884   1.773   0.011   2.352  0.3683 -0.2145  0.0507
  972SOL     OW 3885   0.299   2.828   2.415 -0.1823 -0.3134  0.3215
  972SOL    HW1 3886   0.351   2.751   2.428 -1.2119  3.0164  1.8925
  972SOL    HW2 3887   0.341   2.900   2.468  0.2800  1.4705  0.4710
  972SOL     MW 3888   0.311   2.828   2.424 -0.2571  0.3613  0.5485
  973SOL     OW 3889   2.616   3.023   2.148  0.1184  0.0050  0.4330
  973SOL    HW1 3890   2.583   2.945   2.095  2.8889  1.8205  1.4559
  973SOL    HW2 3891   2.673   3.062   2.080 -0.8601  1.1757 -0.7520
  973SOL     MW 3892   2.619   3.017   2.132  0.3549  0.3990  0.4116
  974SOL     OW 3893   2.010   0.141   2.603  0.2542 -0.1867  0.3795
  974SOL    HW1 3894   2.081   0.135   2.668 -2.5852 -0.3144 -0.1808
  974SOL    HW2 3895   1.967   0.056   2.610 -0.0808  0.3320  0.0115
  974SOL     MW 3896   2.014   0.129   2.612 -0.1647 -0.1351  0.2570
  975SOL     OW 3897   2.176   2.460   2.506 -0.4863 -0.3123 -0.0407
  975SOL    HW1 3898   2.256   2.505   2.525  1.9315 -4.1808 -0.4905
  975SOL    HW2 3899   2.121   2.542   2.488 -0.9052  1.7262  0.3285
  975SOL     MW 3900   2.179   2.477   2.506 -0.2225 -0.5538 -0.0513
  976SOL     OW 3901   0.165   0.349   1.589 -0.3976 -0.1679  0.1996
  976SOL    HW1 3902   0.237   0.290   1.621  1.3086  2.3708  0.0260
  976SOL    HW2 3903   0.083   0.301   1.576 -1.4772 -0.7266  0.6236
  976SOL     MW 3904   0.164   0.335   1.592 -0.3149  0.0934  0.2327
  977SOL     OW 3905   1.751   2.742   2.386  0.0473  0.0739  0.0940
  977SOL    HW1 3906   1.839   2.699   2.390  1.4529 -3.1993  0.6471
  977SOL    HW2 3907   1.761   2.824   2.430 -3.2931  0.7921  1.1630
  977SOL     MW 3908   1.764   2.747   2.392 -0.2080 -0.2632  0.3080
   3.10000   3.10000   3.10000
