977 TIP4P/2005f water molecules t=   0.29000 step= 290
 3908
    1SOL     OW    1   0.293   0.749   0.037  0.7202  0.2890  0.6415
    1SOL    HW1    2   0.274   0.791  -0.043  1.1276  1.0556  0.6652
    1SOL    HW2    3   0.252   0.659   0.028 -3.0383  0.7445  0.7611
    1SOL     MW    4   0.285   0.743   0.025  0.2781  0.4502  0.6604
    2SOL     OW    5   0.347   3.031   1.145 -0.6111  0.3266 -0.1617
    2SOL    HW1    6   0.385   3.107   1.103 -2.0019 -0.4486  0.3148
    2SOL    HW2    7   0.258   3.063   1.157  0.0446 -1.5176  0.6661
    2SOL     MW    8   0.340   3.045   1.141 -0.7081 -0.0190  0.0104
    3SOL     OW    9   2.661   0.405   0.924 -0.4303  0.0710  0.0239
    3SOL    HW1   10   2.683   0.479   0.870  1.5305  1.7451 -1.8245
    3SOL    HW2   11   2.679   0.437   1.008  0.6470 -0.2854 -0.1572
    3SOL     MW   12   2.666   0.419   0.928 -0.0294  0.2449 -0.2439
    4SOL     OW   13   3.066   1.818   0.626 -0.1698 -0.3925 -0.5731
    4SOL    HW1   14   2.991   1.831   0.574 -0.2410  2.4253  1.0745
    4SOL    HW2   15   3.130   1.770   0.572  1.0439 -0.3591  0.7772
    4SOL     MW   16   3.064   1.813   0.612 -0.0190 -0.0163 -0.1776
    5SOL     OW   17   1.704   1.428   0.522 -0.2214 -0.4420  0.3941
    5SOL    HW1   18   1.759   1.398   0.589 -0.9022 -1.4047  0.5672
    5SOL    HW2   19   1.626   1.441   0.574 -1.7660  1.3970 -2.0078
    5SOL     MW   20   1.701   1.426   0.538 -0.5150 -0.3264  0.1001
    6SOL     OW   21   0.871   1.414   0.611 -0.2366 -0.2235 -0.2157
    6SOL    HW1   22   0.786   1.417   0.659 -1.5971 -1.7833  0.6429
    6SOL    HW2   23   0.902   1.322   0.636 -0.4070  0.5128  1.4180
    6SOL     MW   24   0.864   1.402   0.621 -0.4386 -0.3321  0.1132
    7SOL     OW   25   1.974   1.065   0.029  0.7010 -0.6141  0.6406
    7SOL    HW1   26   1.974   1.121  -0.050  0.4755  3.2005  0.4823
    7SOL    HW2   27   2.019   1.116   0.097  0.7357  2.6584 -1.6642
    7SOL     MW   28   1.980   1.079   0.027  0.6758  0.3210  0.3156
    8SOL     OW   29   1.010   1.312   1.041  0.0250  0.2429 -0.2329
    8SOL    HW1   30   1.095   1.339   1.065 -0.9601 -0.1104 -0.4485
    8SOL    HW2   31   1.004   1.219   1.062  1.8151  3.5788 -1.3647
    8SOL     MW   32   1.021   1.303   1.047  0.1312  0.6364 -0.4107
    9SOL     OW   33   1.032   0.475   1.348  0.2362 -0.0295 -0.8934
    9SOL    HW1   34   0.969   0.415   1.301  1.4892 -1.0323 -1.0934
    9SOL    HW2   35   1.047   0.430   1.433  1.3358 -0.7067  1.3485
    9SOL     MW   36   1.026   0.461   1.353  0.5466 -0.2512 -0.6240
   10SOL     OW   37   0.312   0.839   0.467  0.5183 -0.8138 -0.1547
   10SOL    HW1   38   0.403   0.869   0.443 -2.4626  0.3993  1.0373
   10SOL    HW2   39   0.299   0.888   0.549  1.5289 -0.6414 -0.4415
   10SOL     MW   40   0.323   0.849   0.475  0.2583 -0.6310 -0.0352
   11SOL     OW   41   0.894   1.090   1.603 -0.6226 -0.2969  0.8711
   11SOL    HW1   42   0.870   1.108   1.695  1.9657  1.0393 -0.0138
   11SOL    HW2   43   0.838   1.011   1.572 -0.7949 -0.9051  1.7628
   11SOL     MW   44   0.883   1.082   1.611 -0.3038 -0.2008  0.8720
   12SOL     OW   45   0.013   1.142   0.840  0.0647  0.9414 -0.3077
   12SOL    HW1   46   0.057   1.206   0.899  2.5990  2.7813  2.7550
   12SOL    HW2   47  -0.062   1.179   0.802 -0.6349 -1.8319 -0.3767
   12SOL     MW   48   0.009   1.155   0.843  0.3068  0.8182  0.0873
   13SOL     OW   49   1.928   1.432   1.397 -0.6282  0.0356 -0.8642
   13SOL    HW1   50   1.959   1.390   1.317 -0.6071 -1.0251 -1.6489
   13SOL    HW2   51   1.883   1.513   1.368  1.0841 -0.9277 -0.1417
   13SOL     MW   52   1.927   1.437   1.382 -0.3995 -0.2314 -0.8724
   14SOL     OW   53   0.627   0.333   1.779  0.0011 -0.4457  0.7787
   14SOL    HW1   54   0.620   0.265   1.713  0.3245  1.0010  2.0963
   14SOL    HW2   55   0.707   0.302   1.823  0.7035  0.3349  0.3108
   14SOL     MW   56   0.636   0.320   1.776  0.1364 -0.1518  0.8908
   15SOL     OW   57   1.988   0.550   0.920  0.3389  0.3014  0.2123
   15SOL    HW1   58   2.001   0.554   1.017 -1.0772 -2.6708  1.5719
   15SOL    HW2   59   2.081   0.537   0.896  0.4679 -1.7998  1.4430
   15SOL     MW   60   2.002   0.549   0.929  0.1691 -0.3680  0.5540
   16SOL     OW   61   0.207   1.781   0.325  0.2213 -0.4181  0.2689
   16SOL    HW1   62   0.296   1.750   0.323 -1.6874  3.0774  1.7467
   16SOL    HW2   63   0.220   1.865   0.371  0.3194 -0.4523  1.9490
   16SOL     MW   64   0.220   1.788   0.331 -0.0176  0.0386  0.6855
   17SOL     OW   65   1.077   0.820   1.461 -0.0918  0.0235  0.0931
   17SOL    HW1   66   1.128   0.811   1.547  0.3009 -2.3330 -1.0827
   17SOL    HW2   67   0.995   0.768   1.478 -2.0981 -0.9882  2.5516
   17SOL     MW   68   1.073   0.812   1.474 -0.3047 -0.4209  0.2623
   18SOL     OW   69   0.028   1.547   0.413  0.3475  0.0394 -0.0551
   18SOL    HW1   70   0.081   1.594   0.344 -0.9630 -1.0338  0.4319
   18SOL    HW2   71   0.019   1.458   0.388  0.2187  1.2749  0.2411
   18SOL     MW   72   0.034   1.542   0.401  0.1576  0.0608  0.0482
   19SOL     OW   73   0.123   1.293   1.024 -0.2786  0.5420 -0.1800
   19SOL    HW1   74   0.167   1.352   0.964  0.4391  0.0017  2.6845
   19SOL    HW2   75   0.042   1.338   1.048 -1.9562 -1.7207  1.5297
   19SOL     MW   76   0.118   1.307   1.019 -0.4053  0.1722  0.4235
   20SOL     OW   77   0.460   2.155   1.298 -0.0523 -0.2905  0.2072
   20SOL    HW1   78   0.410   2.096   1.236  1.9173  0.3652  0.3893
   20SOL    HW2   79   0.398   2.206   1.353  1.3159 -1.1775  1.5500
   20SOL     MW   80   0.445   2.154   1.297  0.3881 -0.3210  0.4084
   21SOL     OW   81   0.548   0.903   0.352  0.1677 -0.3701 -0.0804
   21SOL    HW1   82   0.611   0.850   0.396 -1.1687 -0.1423 -4.5787
   21SOL    HW2   83   0.537   0.865   0.264 -2.0346  0.2823 -1.9937
   21SOL     MW   84   0.555   0.891   0.346 -0.2992 -0.2540 -0.9264
   22SOL     OW   85   1.531   0.547   1.141 -0.7329 -0.3824  0.0599
   22SOL    HW1   86   1.572   0.541   1.051  0.0400 -0.9548  0.6552
   22SOL    HW2   87   1.451   0.591   1.129  1.5689 -0.7304 -2.4826
   22SOL     MW   88   1.526   0.552   1.127 -0.3272 -0.5038 -0.1970
   23SOL     OW   89   3.031   0.742   0.740  0.4063  0.1805 -0.0145
   23SOL    HW1   90   3.092   0.665   0.733  0.4881 -1.2461 -1.2066
   23SOL    HW2   91   3.100   0.808   0.751 -3.5281 -1.5137  1.3740
   23SOL     MW   92   3.048   0.741   0.741 -0.1020 -0.2312  0.0114
   24SOL     OW   93   2.028   2.198   0.034 -0.4331  0.2646 -0.2628
   24SOL    HW1   94   2.020   2.168   0.127  3.0374 -0.2966  2.2292
   24SOL    HW2   95   2.072   2.120  -0.007 -0.4827  0.7822  2.2203
   24SOL     MW   96   2.033   2.183   0.040  0.0183  0.2589  0.3936
   25SOL     OW   97   0.263   1.433   0.545  0.7780 -0.5707 -0.1010
   25SOL    HW1   98   0.183   1.479   0.515 -1.8955  3.4844 -1.6940
   25SOL    HW2   99   0.322   1.433   0.471 -0.3778 -1.6578  0.3516
   25SOL     MW  100   0.260   1.439   0.532  0.2728 -0.1791 -0.2515
   26SOL     OW  101   2.060   0.945   0.393  0.2737 -0.6488  0.4305
   26SOL    HW1  102   1.964   0.953   0.385 -1.0649  0.2132  2.7047
   26SOL    HW2  103   2.089   1.024   0.338  1.4819  0.0384 -1.6657
   26SOL     MW  104   2.051   0.956   0.385  0.2565 -0.4444  0.4540
   27SOL     OW  105   1.981   1.423   0.261  0.3336  0.0133 -0.1951
   27SOL    HW1  106   1.912   1.364   0.286  0.7017 -0.1050 -0.1164
   27SOL    HW2  107   2.006   1.469   0.342 -1.1069 -0.3833  1.8501
   27SOL     MW  108   1.976   1.421   0.275  0.1921 -0.0546  0.0851
   28SOL     OW  109   0.397   0.964   1.888 -0.1430  0.8509  0.6472
   28SOL    HW1  110   0.336   0.913   1.943  2.4446 -2.7236 -2.2067
   28SOL    HW2  111   0.424   0.904   1.818 -0.3588 -2.4049  0.5370
   28SOL     MW  112   0.393   0.950   1.886  0.1699 -0.0503  0.2562
   29SOL     OW  113   0.243   1.449   0.815 -0.2530 -0.3952 -0.3267
   29SOL    HW1  114   0.236   1.538   0.856  2.7390  1.7986  0.3903
   29SOL    HW2  115   0.271   1.464   0.726  2.1153  0.7594 -0.3094
   29SOL     MW  116   0.246   1.463   0.809  0.4543  0.0466 -0.2298
   30SOL     OW  117   0.902   1.028   1.147 -0.3694  0.3687 -0.1565
   30SOL    HW1  118   0.817   1.055   1.184  0.6261  0.3814  0.0868
   30SOL    HW2  119   0.953   1.031   1.232  0.1821  1.0415  0.3965
   30SOL     MW  120   0.898   1.032   1.163 -0.1653  0.4591 -0.0514
   31SOL     OW  121   0.461   0.279   0.247  0.3727  0.1842  0.3783
   31SOL    HW1  122   0.475   0.187   0.285  0.2981  1.2426  1.8737
   31SOL    HW2  123   0.443   0.267   0.152 -4.2240 -0.6410 -2.0943
   31SOL     MW  124   0.461   0.266   0.239 -0.2437  0.2149  0.2494
   32SOL     OW  125   2.699   1.040   1.117  0.8345  0.4639 -0.2340
   32SOL    HW1  126   2.664   0.949   1.127 -2.0300  0.0384 -1.4536
   32SOL    HW2  127   2.794   1.031   1.093 -0.7930  1.4666  1.6844
   32SOL     MW  128   2.707   1.027   1.115  0.2419  0.5400 -0.1418
   33SOL     OW  129   1.744   1.249   0.319 -0.1802  0.0160 -0.1370
   33SOL    HW1  130   1.770   1.161   0.355 -1.2115  1.3734  0.6463
   33SOL    HW2  131   1.709   1.301   0.391 -1.4052  0.6974  0.1600
   33SOL     MW  132   1.743   1.244   0.333 -0.4779  0.2850  0.0055
   34SOL     OW  133   1.237   1.859   1.140 -0.9376  0.2358  0.3029
   34SOL    HW1  134   1.154   1.908   1.155  2.4492  1.2244 -2.2012
   34SOL    HW2  135   1.301   1.885   1.215  0.6892  0.5884  1.1186
   34SOL     MW  136   1.234   1.869   1.152 -0.2761  0.4128  0.0801
   35SOL     OW  137   0.376   0.065   1.872 -0.4485  0.6921  0.0975
   35SOL    HW1  138   0.406   0.028   1.959  1.2391 -1.5451 -0.8758
   35SOL    HW2  139   0.428   0.009   1.806  1.0783 -0.4841 -1.4970
   35SOL     MW  140   0.387   0.053   1.875 -0.0244  0.2417 -0.2413
   36SOL     OW  141   1.908   1.960   0.562  0.0171  0.3150  0.5062
   36SOL    HW1  142   1.935   1.973   0.470 -1.3724  0.1664  0.8381
   36SOL    HW2  143   1.891   1.865   0.566  0.4295  0.2101 -0.6888
   36SOL     MW  144   1.909   1.950   0.550 -0.1119  0.2815  0.3923
   37SOL     OW  145   1.740   2.022   0.957 -0.1522  0.8388  0.6168
   37SOL    HW1  146   1.691   1.946   0.925 -1.4060  3.7857  2.2766
   37SOL    HW2  147   1.683   2.073   1.028  2.4943 -1.4428 -0.3518
   37SOL     MW  148   1.726   2.018   0.962  0.0315  0.9266  0.7080
   38SOL     OW  149   2.860   0.950   0.203 -0.1717  0.2879 -0.0617
   38SOL    HW1  150   2.898   0.943   0.288 -0.6966 -0.1703 -1.8798
   38SOL    HW2  151   2.912   0.893   0.144  1.3560 -0.7961 -1.8633
   38SOL     MW  152   2.872   0.942   0.207 -0.0394  0.0844 -0.5393
   39SOL     OW  153   1.461   0.693   0.858  0.3345 -0.0789 -0.3197
   39SOL    HW1  154   1.435   0.599   0.870  0.1452 -0.0425 -0.3469
   39SOL    HW2  155   1.431   0.739   0.936 -1.5084 -2.0427 -1.4642
   39SOL     MW  156   1.454   0.686   0.870  0.0664 -0.3332 -0.4743
   40SOL     OW  157   1.282   1.880   0.268 -0.2052 -0.0410 -0.1954
   40SOL    HW1  158   1.300   1.786   0.278 -0.7636 -0.8353 -1.1804
   40SOL    HW2  159   1.332   1.923   0.338  0.2136  0.6342 -1.3441
   40SOL     MW  160   1.291   1.873   0.279 -0.2236 -0.0567 -0.4769
   41SOL     OW  161   0.584   0.535   1.586 -0.0351  0.7432 -0.1000
   41SOL    HW1  162   0.676   0.549   1.564  3.4880 -0.2355  0.7505
   41SOL    HW2  163   0.599   0.465   1.649 -0.7308 -0.7526  0.0757
   41SOL     MW  164   0.598   0.527   1.591  0.3380  0.4167  0.0354
   42SOL     OW  165   1.332   3.074   1.944 -0.5461  0.4508  0.2439
   42SOL    HW1  166   1.243   3.068   1.978  1.4232  1.1813 -2.1849
   42SOL    HW2  167   1.377   2.991   1.978  2.3368  1.6744 -0.8683
   42SOL     MW  168   1.326   3.062   1.953  0.0941  0.7086 -0.2233
   43SOL     OW  169   1.595   0.233   1.599 -0.8847 -0.0083  0.1892
   43SOL    HW1  170   1.642   0.173   1.540 -0.8959 -0.0093  2.1593
   43SOL    HW2  171   1.523   0.174   1.644 -0.8612 -0.0880  0.3621
   43SOL     MW  172   1.592   0.217   1.597 -0.8831 -0.0189  0.4720
   44SOL     OW  173   1.321   0.753   1.103 -0.2815 -0.0106  0.4492
   44SOL    HW1  174   1.338   0.846   1.083  0.9538 -0.5031  1.7445
   44SOL    HW2  175   1.309   0.739   1.200  1.3542 -2.1167  2.5027
   44SOL     MW  176   1.322   0.763   1.113  0.0973 -0.3535  0.8910
   45SOL     OW  177   1.107   0.719   0.780  0.5536 -0.6447 -0.6610
   45SOL    HW1  178   1.048   0.713   0.861  1.5097 -2.9684  0.6001
   45SOL    HW2  179   1.135   0.635   0.778 -1.2317  1.9793 -0.5384
   45SOL     MW  180   1.103   0.707   0.791  0.4442 -0.6051 -0.4784
   46SOL     OW  181   0.586   1.149   0.592 -0.2282  0.7143 -0.4143
   46SOL    HW1  182   0.583   1.187   0.498  0.0443  1.6653 -0.2856
   46SOL    HW2  183   0.669   1.103   0.587  1.2239  2.4082  0.6349
   46SOL     MW  184   0.597   1.148   0.579 -0.0006  1.0633 -0.2589
   47SOL     OW  185   0.143   1.929   1.839  0.3960 -0.3073  0.5487
   47SOL    HW1  186   0.197   1.867   1.789 -1.0522  2.2213  1.0599
   47SOL    HW2  187   0.121   1.889   1.923  1.3215  0.8982 -0.0113
   47SOL     MW  188   0.147   1.916   1.844  0.3270  0.1854  0.5423
   48SOL     OW  189   1.031   0.652   1.039  0.5199 -0.1264 -0.2834
   48SOL    HW1  190   0.977   0.688   1.110 -0.5589 -1.8882 -0.5741
   48SOL    HW2  191   1.113   0.685   1.061 -0.0313  1.5650 -1.1623
   48SOL     MW  192   1.035   0.662   1.052  0.3048 -0.1356 -0.4377
   49SOL     OW  193   1.884   0.744   1.602  0.1553 -0.3454  0.0255
   49SOL    HW1  194   1.792   0.728   1.641  1.9183  0.3793 -0.7015
   49SOL    HW2  195   1.924   0.658   1.577  0.4029  0.4925 -0.6255
   49SOL     MW  196   1.877   0.730   1.604  0.4206 -0.1393 -0.1563
   50SOL     OW  197   1.291   0.983   0.528 -0.2650 -0.2449 -0.4308
   50SOL    HW1  198   1.253   1.032   0.606 -1.8077 -1.5146 -0.5279
   50SOL    HW2  199   1.301   0.896   0.555 -0.3756  3.9433 -0.9870
   50SOL     MW  200   1.287   0.978   0.542 -0.4832  0.1401 -0.5170
   51SOL     OW  201   0.334   2.849   0.950  0.5152 -0.0368  0.7491
   51SOL    HW1  202   0.424   2.830   0.923 -2.1079  1.8264  0.2184
   51SOL    HW2  203   0.339   2.909   1.031  2.5761 -0.3812  1.0576
   51SOL     MW  204   0.347   2.855   0.957  0.4410  0.1636  0.7198
   52SOL     OW  205   0.811   1.837   0.385  0.1586 -0.7009 -0.1798
   52SOL    HW1  206   0.757   1.893   0.437  0.0204 -1.8418  0.0023
   52SOL    HW2  207   0.771   1.851   0.299  0.2907 -1.5333  1.1795
   52SOL     MW  208   0.799   1.846   0.381  0.1578 -0.9612  0.0236
   53SOL     OW  209   0.433   2.056   0.586  0.8354  0.0571 -0.3905
   53SOL    HW1  210   0.368   2.054   0.510  3.6342  1.5038  1.4449
   53SOL    HW2  211   0.435   2.150   0.591 -0.7843  3.1340 -0.2529
   53SOL     MW  212   0.425   2.068   0.577  0.9910  0.6540 -0.1302
   54SOL     OW  213   2.207   0.816   0.893 -0.2704 -0.4106  0.9089
   54SOL    HW1  214   2.275   0.810   0.827  0.8379 -0.3243  1.4091
   54SOL    HW2  215   2.124   0.811   0.845 -1.4367  1.0581 -0.5565
   54SOL     MW  216   2.205   0.815   0.878 -0.2781 -0.2055  0.7816
   55SOL     OW  217   0.542   1.487   1.560  0.3601  0.5866 -0.2156
   55SOL    HW1  218   0.525   1.542   1.484 -0.2538  2.2605 -0.2178
   55SOL    HW2  219   0.628   1.438   1.554 -0.4290  0.8940 -0.3577
   55SOL     MW  220   0.551   1.488   1.549  0.1750  0.8480 -0.2347
   56SOL     OW  221   0.547   0.782   0.088  0.2800  0.2417  0.3415
   56SOL    HW1  222   0.537   0.877   0.058 -0.1107 -0.1276  0.0881
   56SOL    HW2  223   0.461   0.750   0.071  2.5450  1.4387 -2.3128
   56SOL     MW  224   0.534   0.791   0.082  0.5273  0.3509 -0.0422
   57SOL     OW  225   1.247   1.223   1.170 -0.2508  0.0526 -0.3680
   57SOL    HW1  226   1.341   1.237   1.186  0.2477  1.0735 -1.0299
   57SOL    HW2  227   1.220   1.157   1.239  1.3802 -2.2723  1.4083
   57SOL     MW  228   1.256   1.216   1.181  0.0302 -0.1194 -0.2210
   58SOL     OW  229   0.697   1.103   1.295 -0.1470  0.3275 -0.0868
   58SOL    HW1  230   0.637   1.172   1.266  1.9910  0.1226  2.8331
   58SOL    HW2  231   0.670   1.072   1.382  0.7124  2.1153  0.0125
   58SOL     MW  232   0.685   1.108   1.302  0.2485  0.5363  0.3116
   59SOL     OW  233   1.527   1.633   0.276  0.4779  0.3439  0.5269
   59SOL    HW1  234   1.608   1.595   0.317  1.5008 -1.0931 -0.8843
   59SOL    HW2  235   1.457   1.636   0.346 -1.7704  0.4719 -1.6615
   59SOL     MW  236   1.528   1.628   0.291  0.3163  0.1712  0.0520
   60SOL     OW  237   3.078   0.172   1.620 -0.2759 -0.1352 -0.0198
   60SOL    HW1  238   3.012   0.235   1.639  1.1025 -0.5259 -0.1029
   60SOL    HW2  239   3.031   0.091   1.604  2.4399  0.5431  0.2861
   60SOL     MW  240   3.063   0.170   1.621  0.2643 -0.0973  0.0096
   61SOL     OW  241   2.009   1.509   3.089 -0.4765 -0.0857  0.4915
   61SOL    HW1  242   2.016   1.490   3.183 -1.2054 -1.0620  1.4667
   61SOL    HW2  243   2.032   1.425   3.061  1.4905 -0.3066 -0.1443
   61SOL     MW  244   2.013   1.495   3.097 -0.3131 -0.2436  0.5363
   62SOL     OW  245   0.590   1.630   0.585 -0.7234 -0.2567  0.2779
   62SOL    HW1  246   0.670   1.613   0.537  3.0181  0.1360 -1.8616
   62SOL    HW2  247   0.572   1.549   0.632 -0.9883  3.7508 -0.8361
   62SOL     MW  248   0.598   1.617   0.585 -0.2647  0.3239 -0.1513
   63SOL     OW  249   1.720   0.719   0.677 -0.0015  0.3085 -0.8901
   63SOL    HW1  250   1.654   0.736   0.611 -0.2041  3.5961 -0.0086
   63SOL    HW2  251   1.665   0.726   0.756  0.0265 -2.6938  0.2833
   63SOL     MW  252   1.704   0.722   0.679 -0.0246  0.3462 -0.6190
   64SOL     OW  253   0.245   1.697   0.969 -0.6070 -0.5471 -0.7650
   64SOL    HW1  254   0.314   1.747   0.931  1.7004  1.6417 -0.8096
   64SOL    HW2  255   0.168   1.751   0.948  3.2071  0.4579  1.8842
   64SOL     MW  256   0.244   1.711   0.961  0.2006 -0.1257 -0.4213
   65SOL     OW  257   1.539   2.276   0.329  0.0231  0.9013  0.3570
   65SOL    HW1  258   1.607   2.229   0.272  2.0388 -0.9231  1.6038
   65SOL    HW2  259   1.589   2.321   0.390  2.6177 -1.7263 -2.4077
   65SOL     MW  260   1.554   2.276   0.330  0.6313  0.3139  0.1567
   66SOL     OW  261   0.310   0.558   0.510 -0.1999 -0.6788 -0.0341
   66SOL    HW1  262   0.386   0.536   0.461  2.0156  0.7752  0.2098
   66SOL    HW2  263   0.302   0.653   0.503 -4.5127 -2.1452  1.6843
   66SOL     MW  264   0.319   0.567   0.503 -0.4766 -0.6804  0.2248
   67SOL     OW  265   1.542   0.167   2.034 -0.0643 -1.0781  0.1717
   67SOL    HW1  266   1.564   0.249   1.986  2.2240 -0.0664 -0.5933
   67SOL    HW2  267   1.468   0.115   1.994  1.4498  0.5441 -2.3718
   67SOL     MW  268   1.535   0.171   2.022  0.4374 -0.7306 -0.2648
   68SOL     OW  269   0.639   0.075   2.962 -0.2043  0.4634 -0.3394
   68SOL    HW1  270   0.591   0.073   2.881 -0.7902 -1.1305  0.1206
   68SOL    HW2  271   0.630   0.163   2.989 -0.5363 -1.6614 -1.9660
   68SOL     MW  272   0.631   0.087   2.955 -0.3254 -0.0272 -0.4933
   69SOL     OW  273   1.060   0.194   1.958 -0.9434  0.3946 -0.5111
   69SOL    HW1  274   1.149   0.188   1.991 -0.6456 -2.2179  0.5708
   69SOL    HW2  275   1.034   0.102   1.951  2.5597  1.6402 -1.2782
   69SOL     MW  276   1.068   0.181   1.961 -0.4419  0.2142 -0.4696
   70SOL     OW  277   0.594   1.810   1.117  0.2655 -0.1103 -0.2045
   70SOL    HW1  278   0.613   1.720   1.147 -0.0990 -1.3791  2.4695
   70SOL    HW2  279   0.678   1.834   1.070 -1.0693 -0.7311  2.9941
   70SOL     MW  280   0.608   1.801   1.115  0.0413 -0.3596  0.5703
   71SOL     OW  281   1.762   0.697   1.235  0.0150 -0.0438  0.1178
   71SOL    HW1  282   1.734   0.729   1.321 -1.1906  0.2029 -1.5800
   71SOL    HW2  283   1.692   0.643   1.206 -0.7987 -2.2915 -0.5741
   71SOL     MW  284   1.749   0.694   1.243 -0.2514 -0.3078 -0.1975
   72SOL     OW  285   0.822   1.814   0.982  0.2389 -0.4616 -0.7240
   72SOL    HW1  286   0.804   1.879   0.914 -1.1002 -0.2467 -1.3450
   72SOL    HW2  287   0.820   1.733   0.931 -1.7403  0.3253  0.6774
   72SOL     MW  288   0.819   1.812   0.967 -0.1989 -0.3294 -0.6210
   73SOL     OW  289   1.274   0.661   1.347 -0.7906 -0.1096 -0.1680
   73SOL    HW1  290   1.225   0.581   1.338 -2.9675  1.1088 -1.2149
   73SOL    HW2  291   1.212   0.729   1.375  1.2225 -0.7318  0.0296
   73SOL     MW  292   1.259   0.660   1.349 -0.8122 -0.0310 -0.2800
   74SOL     OW  293   2.766   0.128   1.015  0.4134  0.5149 -0.0331
   74SOL    HW1  294   2.805   0.045   0.982  0.9196 -0.2925 -1.3406
   74SOL    HW2  295   2.738   0.181   0.943 -2.0752 -1.9474  0.8655
   74SOL     MW  296   2.767   0.124   1.001  0.1518  0.0835 -0.0870
   75SOL     OW  297   1.625   1.319   0.081 -0.3936  0.0394 -0.1477
   75SOL    HW1  298   1.658   1.307   0.172 -2.9547  0.8729  0.2420
   75SOL    HW2  299   1.625   1.234   0.044 -0.8790  0.6160 -0.2730
   75SOL     MW  300   1.629   1.306   0.088 -0.7956  0.2254 -0.1128
   76SOL     OW  301   2.921   0.669   0.470  0.2896 -0.0040 -0.3881
   76SOL    HW1  302   2.942   0.676   0.564 -0.1164 -1.0708  1.6781
   76SOL    HW2  303   2.999   0.630   0.420 -0.0752 -2.7002  0.7915
   76SOL     MW  304   2.934   0.665   0.475  0.1879 -0.5005  0.0402
   77SOL     OW  305   0.901   0.416   0.513  0.3850  0.4082 -0.3455
   77SOL    HW1  306   0.833   0.482   0.536 -1.7876 -0.5341 -0.3421
   77SOL    HW2  307   0.856   0.325   0.516  2.4481 -0.1326  1.6487
   77SOL     MW  308   0.886   0.412   0.516  0.3706  0.2125 -0.0819
   78SOL     OW  309   0.796   0.759   1.199 -0.6649 -0.1780 -0.2581
   78SOL    HW1  310   0.708   0.748   1.180 -0.9605 -1.6770  2.4739
   78SOL    HW2  311   0.815   0.853   1.194 -0.9650  0.1975  1.7099
   78SOL     MW  312   0.787   0.770   1.196 -0.7435 -0.3263  0.3621
   79SOL     OW  313   1.863   1.676   0.597  0.8074  0.6215 -0.0332
   79SOL    HW1  314   1.808   1.609   0.567  1.1757  0.8155  1.0302
   79SOL    HW2  315   1.859   1.666   0.691  3.0550 -0.6900  0.6990
   79SOL     MW  316   1.855   1.666   0.605  1.1525  0.4741  0.2037
   80SOL     OW  317   0.147   0.988   0.301 -0.4721  0.2687  0.2489
   80SOL    HW1  318   0.054   0.963   0.332 -0.7839  0.2607  0.6861
   80SOL    HW2  319   0.193   0.919   0.354  0.0025  0.6638 -0.5288
   80SOL     MW  320   0.141   0.975   0.312 -0.4506  0.3198  0.2040
   81SOL     OW  321   1.915   1.905   0.225 -0.1555 -0.0083 -0.3821
   81SOL    HW1  322   1.833   1.850   0.210 -0.2680 -2.2070  3.0315
   81SOL    HW2  323   1.890   1.997   0.234  0.3516  2.7338  0.0468
   81SOL     MW  324   1.901   1.910   0.224 -0.1034  0.0634  0.1249
   82SOL     OW  325   0.828   0.982   0.557 -0.4584  0.3979 -0.0607
   82SOL    HW1  326   0.917   0.961   0.512 -1.6802 -1.2721  0.0213
   82SOL    HW2  327   0.779   0.898   0.533 -0.6902 -3.0041 -0.8339
   82SOL     MW  328   0.834   0.968   0.548 -0.6502 -0.2713 -0.1519
   83SOL     OW  329   0.107   0.624   1.383  0.8659  0.1723 -0.2765
   83SOL    HW1  330   0.127   0.708   1.347 -2.2816 -2.6009 -0.5143
   83SOL    HW2  331   0.185   0.596   1.433 -0.4748 -2.9354  3.7867
   83SOL     MW  332   0.120   0.631   1.385  0.2738 -0.6036  0.2282
   84SOL     OW  333   0.076   0.277   1.028  0.0554 -0.4946 -0.4205
   84SOL    HW1  334  -0.004   0.291   0.974  0.2049 -2.2352 -2.0175
   84SOL    HW2  335   0.081   0.181   1.046 -0.9874 -0.7647 -0.6233
   84SOL     MW  336   0.066   0.266   1.023 -0.0624 -0.7599 -0.6580
   85SOL     OW  337   0.419   0.434   0.756  0.1664  0.4270  0.0269
   85SOL    HW1  338   0.391   0.486   0.687  1.3463 -3.9012  2.5562
   85SOL    HW2  339   0.347   0.373   0.780  0.7819  0.5455 -1.3966
   85SOL     MW  340   0.405   0.433   0.750  0.4033 -0.1284  0.1728
   86SOL     OW  341   1.189   0.436   1.132  0.2275  0.0619  0.0555
   86SOL    HW1  342   1.138   0.487   1.061 -0.5984 -0.0381 -0.9150
   86SOL    HW2  343   1.124   0.456   1.202 -1.0467 -0.4322  0.0914
   86SOL     MW  344   1.174   0.445   1.132 -0.0496 -0.0165 -0.0678
   87SOL     OW  345   1.206   1.462   1.277  0.0844  0.3958 -0.7918
   87SOL    HW1  346   1.214   1.506   1.192  0.2247 -0.0769 -2.5918
   87SOL    HW2  347   1.218   1.371   1.254 -0.1075  1.8532  0.7500
   87SOL     MW  348   1.209   1.456   1.262  0.0776  0.5257 -0.8259
   88SOL     OW  349   1.336   1.025   0.992 -0.8784  0.3778 -0.1493
   88SOL    HW1  350   1.428   1.042   1.004 -1.5995 -0.1645 -0.5892
   88SOL    HW2  351   1.295   1.084   1.059  0.9737  0.4786  0.9852
   88SOL     MW  352   1.343   1.035   1.003 -0.7292  0.3195 -0.0577
   89SOL     OW  353   1.735   0.613   0.319 -0.2338  1.2382  0.7703
   89SOL    HW1  354   1.779   0.551   0.369 -1.0232 -1.2731 -2.3252
   89SOL    HW2  355   1.803   0.665   0.272  0.9372  2.8540  1.8459
   89SOL     MW  356   1.750   0.612   0.320 -0.1835  1.1200  0.5038
   90SOL     OW  357   0.697   1.202   2.771  0.5100 -0.3396 -0.3653
   90SOL    HW1  358   0.757   1.125   2.772  1.9119  0.6712 -1.3757
   90SOL    HW2  359   0.716   1.232   2.858  2.5219 -1.3942  0.4241
   90SOL     MW  360   0.708   1.196   2.783  0.9604 -0.3454 -0.3944
   91SOL     OW  361   2.084   0.684   0.507  0.9297 -0.6541  0.4400
   91SOL    HW1  362   2.056   0.762   0.459 -0.4594  1.9587  0.9690
   91SOL    HW2  363   2.060   0.604   0.454 -1.6025 -2.7452  2.7737
   91SOL     MW  364   2.077   0.684   0.494  0.4124 -0.5853  0.8177
   92SOL     OW  365   1.588   0.812   0.450 -0.3603  0.1459 -0.5591
   92SOL    HW1  366   1.499   0.780   0.469 -1.6329  0.2463 -1.2095
   92SOL    HW2  367   1.633   0.738   0.410 -1.0607  1.2586  1.8891
   92SOL     MW  368   1.582   0.798   0.447 -0.6206  0.3059 -0.3219
   93SOL     OW  369   1.078   0.254   0.333  0.4474  0.1273  0.6949
   93SOL    HW1  370   1.020   0.322   0.372 -2.0818  0.3671 -1.6449
   93SOL    HW2  371   1.074   0.265   0.238 -1.2669  0.3469  2.5149
   93SOL     MW  372   1.070   0.264   0.326 -0.1125  0.1879  0.6263
   94SOL     OW  373   1.931   1.304   1.654 -0.3322  0.3934  0.4851
   94SOL    HW1  374   1.934   1.337   1.564  3.3643 -2.2258  1.7363
   94SOL    HW2  375   1.922   1.213   1.654  3.2090  2.8703 -0.6732
   94SOL     MW  376   1.930   1.296   1.642  0.6227  0.3746  0.4973
   95SOL     OW  377   0.852   1.530   0.973 -0.6674  0.0734 -0.1635
   95SOL    HW1  378   0.894   1.452   0.999 -1.9705 -1.6915 -0.8851
   95SOL    HW2  379   0.795   1.539   1.043 -1.3529 -1.1831  1.2725
   95SOL     MW  380   0.850   1.521   0.986 -0.9298 -0.3252 -0.0692
   96SOL     OW  381   1.246   1.806   1.586 -0.3716  0.1263 -0.1901
   96SOL    HW1  382   1.152   1.806   1.585  3.1744  2.0843  2.4684
   96SOL    HW2  383   1.270   1.742   1.521 -0.9555 -1.4370  2.0705
   96SOL     MW  384   1.237   1.798   1.577  0.0193  0.1784  0.4589
   97SOL     OW  385   1.261   1.396   0.827 -0.5264 -0.6455 -0.1802
   97SOL    HW1  386   1.296   1.448   0.897  2.0431 -3.3177 -3.9333
   97SOL    HW2  387   1.189   1.453   0.798  0.7470  0.3719 -1.0779
   97SOL     MW  388   1.256   1.410   0.832 -0.0194 -0.8638 -0.7938
   98SOL     OW  389   1.515   1.326   1.164  0.2071 -0.1189 -0.4878
   98SOL    HW1  390   1.560   1.384   1.227  1.6812 -0.8596  0.4629
   98SOL    HW2  391   1.556   1.335   1.078  1.2537  2.1882  0.2589
   98SOL     MW  392   1.526   1.335   1.161  0.5397  0.0878 -0.2638
   99SOL     OW  393   1.530   0.314   1.274  0.0169  0.4620 -0.2424
   99SOL    HW1  394   1.538   0.390   1.220  2.5768  4.6140  1.7258
   99SOL    HW2  395   1.492   0.355   1.355  0.5280  1.2286  2.3815
   99SOL     MW  396   1.526   0.330   1.278  0.4221  1.1109  0.3634
  100SOL     OW  397   1.066   1.069   1.354 -0.6885  0.1537  0.9220
  100SOL    HW1  398   1.011   1.126   1.409 -0.9240 -0.2861  0.7699
  100SOL    HW2  399   1.068   0.983   1.402 -0.5561  0.7803  0.5648
  100SOL     MW  400   1.059   1.065   1.367 -0.7021  0.1783  0.8548
  101SOL     OW  401   0.609   1.161   0.309  0.1368 -0.1255 -0.4392
  101SOL    HW1  402   0.584   1.065   0.317 -0.0999 -1.4177 -0.5508
  101SOL    HW2  403   0.568   1.190   0.227  0.9474 -1.4106  0.7282
  101SOL     MW  404   0.600   1.152   0.299  0.2125 -0.4655 -0.2999
  102SOL     OW  405   2.955   0.592   0.982  0.1754  0.0278  0.5496
  102SOL    HW1  406   3.017   0.667   0.953 -0.6674 -0.9739 -0.8787
  102SOL    HW2  407   2.978   0.567   1.070  0.5520  0.6280 -1.7107
  102SOL     MW  408   2.966   0.599   0.990  0.1139 -0.0252  0.0629
  103SOL     OW  409   1.611   0.357   1.866  0.5423  0.2638  0.5905
  103SOL    HW1  410   1.615   0.319   1.774  0.4577 -0.0974 -3.0520
  103SOL    HW2  411   1.698   0.366   1.893 -0.5923  1.9581 -0.4040
  103SOL     MW  412   1.623   0.353   1.857  0.3815  0.4397 -0.0213
  104SOL     OW  413   0.123   1.848   1.409  0.4599  0.2641 -0.5033
  104SOL    HW1  414   0.182   1.772   1.419 -0.8247  0.5840 -0.8017
  104SOL    HW2  415   0.044   1.808   1.413  2.9367  1.3135 -0.6890
  104SOL     MW  416   0.120   1.832   1.411  0.6172  0.4448 -0.5672
  105SOL     OW  417   0.167   1.137   0.545  0.1439  0.3229  0.4106
  105SOL    HW1  418   0.181   1.098   0.454  2.1146  1.4559  1.7251
  105SOL    HW2  419   0.238   1.203   0.548  2.3790 -0.6520 -0.5150
  105SOL     MW  420   0.178   1.141   0.534  0.6988  0.3438  0.4619
  106SOL     OW  421   0.835   0.328   0.931  0.5072  0.0557 -0.1761
  106SOL    HW1  422   0.782   0.399   0.897  0.8954 -0.0250  1.9674
  106SOL    HW2  423   0.920   0.335   0.893 -2.1174  1.9342  0.6644
  106SOL     MW  424   0.839   0.338   0.922  0.2121  0.2929  0.2176
  107SOL     OW  425   0.803   2.195   3.030 -0.0477 -0.1393 -0.2393
  107SOL    HW1  426   0.758   2.113   3.007 -0.0413 -0.8344  0.5169
  107SOL    HW2  427   0.870   2.164   3.094  0.4323  2.7405  0.5198
  107SOL     MW  428   0.806   2.181   3.036  0.0165  0.1489 -0.0394
  108SOL     OW  429   1.412   1.586   1.453 -0.4844  0.1867 -0.8322
  108SOL    HW1  430   1.353   1.533   1.404  1.2535  0.0173 -1.0241
  108SOL    HW2  431   1.417   1.570   1.554  0.7755 -0.6822  0.4881
  108SOL     MW  432   1.405   1.577   1.460 -0.0889  0.0497 -0.6833
  109SOL     OW  433   1.961   0.766   0.222 -0.3557  0.0394 -0.0183
  109SOL    HW1  434   1.970   0.774   0.126  0.4939  1.1751  1.8340
  109SOL    HW2  435   2.042   0.806   0.255  2.0859 -1.0173  2.1787
  109SOL     MW  436   1.973   0.772   0.214  0.0785  0.0499  0.5160
  110SOL     OW  437   0.407   1.795   0.700  0.3467 -0.2507 -0.1153
  110SOL    HW1  438   0.468   1.726   0.672  2.2631  1.7448 -1.0091
  110SOL    HW2  439   0.428   1.862   0.640 -0.4186  1.3142  0.6156
  110SOL     MW  440   0.418   1.795   0.688  0.4986  0.2191 -0.1368
  111SOL     OW  441   0.731   0.879   1.498  0.1045 -0.6589  0.4387
  111SOL    HW1  442   0.754   0.800   1.452 -0.2835  0.5670 -1.6574
  111SOL    HW2  443   0.644   0.866   1.541 -1.5802 -1.8951 -2.2048
  111SOL     MW  444   0.722   0.867   1.497 -0.1690 -0.6602 -0.1866
  112SOL     OW  445   1.308   1.104   1.650 -0.0085  0.0111  1.0423
  112SOL    HW1  446   1.225   1.161   1.646 -0.3805 -0.8974  0.8649
  112SOL    HW2  447   1.264   1.022   1.687  1.1407 -1.2088  0.1055
  112SOL     MW  448   1.291   1.101   1.654  0.0940 -0.2697  0.8953
  113SOL     OW  449   1.370   0.099   1.691  0.2448 -0.2733  0.1622
  113SOL    HW1  450   1.349   0.062   1.780  1.0280  2.3693 -0.0100
  113SOL    HW2  451   1.362   0.021   1.631  3.5745  1.7244  1.5654
  113SOL     MW  452   1.366   0.084   1.695  0.7875  0.3389  0.3246
  114SOL     OW  453   0.447   2.802   1.835  0.4649 -0.2127 -0.4080
  114SOL    HW1  454   0.452   2.873   1.897  0.8865  0.8754 -0.3557
  114SOL    HW2  455   0.417   2.848   1.756 -0.8170  0.5906 -2.2861
  114SOL     MW  456   0.444   2.817   1.832  0.3514  0.0368 -0.6489
  115SOL     OW  457   0.465   0.845   1.091  0.2127 -0.7580  0.1594
  115SOL    HW1  458   0.491   0.755   1.097 -0.9447  0.9539  1.1210
  115SOL    HW2  459   0.398   0.863   1.156  0.7077 -0.2282  2.3967
  115SOL     MW  460   0.460   0.836   1.100  0.1253 -0.4622  0.5814
  116SOL     OW  461   0.767   1.009   0.911 -0.0415  0.1239 -0.3175
  116SOL    HW1  462   0.811   1.075   0.854  2.0050 -1.5619  0.9064
  116SOL    HW2  463   0.809   1.007   0.995  0.3098  1.0613  1.5722
  116SOL     MW  464   0.778   1.017   0.915  0.2748  0.0251  0.0933
  117SOL     OW  465   1.211   1.133   0.780  0.7301  0.1155  0.2410
  117SOL    HW1  466   1.263   1.094   0.847 -0.3405  0.9370 -4.9743
  117SOL    HW2  467   1.221   1.228   0.790  1.5390  0.2114 -0.8234
  117SOL     MW  468   1.219   1.141   0.790  0.6956  0.2365 -0.5876
  118SOL     OW  469   3.087   2.965   1.723 -0.6970  0.3338 -0.4967
  118SOL    HW1  470   3.128   3.013   1.805  2.2274  1.9748  0.6407
  118SOL    HW2  471   2.995   2.974   1.748  1.1983  2.2107 -0.9816
  118SOL     MW  472   3.080   2.972   1.737 -0.0611  0.7980 -0.4106
  119SOL     OW  473   0.563   1.324   1.204  0.2072  0.0264  0.0625
  119SOL    HW1  474   0.544   1.333   1.106 -1.6719  0.6753  1.1643
  119SOL    HW2  475   0.483   1.296   1.242 -0.8658 -1.9303 -2.2226
  119SOL     MW  476   0.550   1.322   1.196 -0.1823 -0.1461 -0.0936
  120SOL     OW  477   0.217   0.678   0.927 -0.0486  0.4076 -0.1601
  120SOL    HW1  478   0.236   0.617   1.001  1.3348 -0.8358 -1.7742
  120SOL    HW2  479   0.254   0.766   0.943 -1.4818 -0.3826  2.4279
  120SOL     MW  480   0.224   0.681   0.939 -0.0552  0.1393 -0.0316
  121SOL     OW  481   1.806   1.030   1.714  0.4683  0.1348 -0.4277
  121SOL    HW1  482   1.716   1.051   1.714 -0.2689 -0.5345  3.0239
  121SOL    HW2  483   1.821   0.942   1.689  0.5002 -1.2908  1.2266
  121SOL     MW  484   1.796   1.021   1.711  0.3752 -0.1416  0.2460
  122SOL     OW  485   0.104   0.511   0.736 -0.2607 -0.0921  0.4697
  122SOL    HW1  486   0.164   0.498   0.663  0.4355 -0.9374 -0.0934
  122SOL    HW2  487   0.150   0.565   0.800  0.7496  0.4178  0.4661
  122SOL     MW  488   0.118   0.517   0.735 -0.0356 -0.1363  0.3949
  123SOL     OW  489   1.787   1.027   0.472 -0.2568  0.3379  0.2713
  123SOL    HW1  490   1.726   0.953   0.486  1.1002 -3.0358 -2.8363
  123SOL    HW2  491   1.839   1.034   0.557 -1.7979 -0.4782  2.4047
  123SOL     MW  492   1.786   1.018   0.485 -0.2811 -0.2149  0.1428
  124SOL     OW  493   0.669   0.507   0.830 -0.3692  0.5606  0.1029
  124SOL    HW1  494   0.587   0.465   0.793  1.1694  0.3112  1.3191
  124SOL    HW2  495   0.652   0.599   0.816 -0.0617 -1.7654  1.7668
  124SOL     MW  496   0.656   0.514   0.823 -0.1256  0.2208  0.4829
  125SOL     OW  497   0.686   1.672   1.655 -0.2322  0.4369  0.1132
  125SOL    HW1  498   0.613   1.606   1.618  0.6724  0.4322  3.2478
  125SOL    HW2  499   0.629   1.745   1.687 -0.5267  1.2538  1.4188
  125SOL     MW  500   0.669   1.673   1.654 -0.1517  0.5441  0.6990
  126SOL     OW  501   2.134   1.614   1.953  0.1093 -0.0841  0.4214
  126SOL    HW1  502   2.196   1.692   1.941 -0.0620  1.2104 -0.2990
  126SOL    HW2  503   2.189   1.542   1.980 -1.1369  0.8518  0.9719
  126SOL     MW  504   2.150   1.615   1.955 -0.0777  0.2102  0.3989
  127SOL     OW  505   0.615   0.720   1.899  0.2999 -0.1140 -0.2464
  127SOL    HW1  506   0.695   0.687   1.929  0.2039 -0.1571  0.2454
  127SOL    HW2  507   0.612   0.814   1.927 -0.4530  2.1080  1.4499
  127SOL     MW  508   0.625   0.728   1.906  0.1879  0.1735  0.0423
  128SOL     OW  509   1.767   0.759   2.883  0.8189  0.2366 -0.3212
  128SOL    HW1  510   1.777   0.725   2.795  1.6135  0.7199  0.7850
  128SOL    HW2  511   1.748   0.854   2.862  1.3123  0.3688  3.1391
  128SOL     MW  512   1.766   0.767   2.868  0.9888  0.3178  0.2813
  129SOL     OW  513   1.487   0.966   0.208  0.3682  0.1038  0.1572
  129SOL    HW1  514   1.448   0.881   0.196 -0.8908  2.6854  2.0082
  129SOL    HW2  515   1.535   0.936   0.286 -1.1699 -0.5878  1.5664
  129SOL     MW  516   1.488   0.951   0.217 -0.0008  0.3532  0.5874
  130SOL     OW  517   0.746   1.483   0.367 -0.1074 -0.0536  0.1187
  130SOL    HW1  518   0.783   1.423   0.438  0.1270 -2.1742  3.3100
  130SOL    HW2  519   0.831   1.520   0.332  1.9081 -0.6645  0.7235
  130SOL     MW  520   0.762   1.480   0.372  0.1894 -0.4140  0.6196
  131SOL     OW  521   3.042   0.761   0.066  0.4225 -0.3226  0.2382
  131SOL    HW1  522   3.009   0.820  -0.011 -0.6522  1.9751 -1.3203
  131SOL    HW2  523   3.134   0.796   0.087 -0.2073  0.2643  1.4960
  131SOL     MW  524   3.049   0.773   0.058  0.1976  0.0580  0.1985
  132SOL     OW  525   2.751   0.158   1.276  0.5060 -0.5229 -0.1325
  132SOL    HW1  526   2.770   0.156   1.182  0.0505 -0.4520 -0.1756
  132SOL    HW2  527   2.654   0.134   1.278  0.0707  1.5176 -0.0796
  132SOL     MW  528   2.741   0.155   1.264  0.3885 -0.2444 -0.1312
  133SOL     OW  529   1.122   0.192   1.691  0.0714 -0.4174  0.0908
  133SOL    HW1  530   1.215   0.165   1.681  0.4556 -0.4194  0.7660
  133SOL    HW2  531   1.098   0.192   1.784 -2.5744  1.1628 -0.5475
  133SOL     MW  532   1.131   0.188   1.702 -0.2270 -0.2092  0.0957
  134SOL     OW  533   1.370   2.512   1.386  0.2315  0.1800 -0.1598
  134SOL    HW1  534   1.312   2.590   1.368  3.2527 -2.0288 -1.0467
  134SOL    HW2  535   1.408   2.528   1.477 -0.7864 -0.9290 -2.1087
  134SOL     MW  536   1.367   2.524   1.396  0.4958 -0.2577 -0.5339
  135SOL     OW  537   3.034   0.969   2.973  0.1269 -0.0773  0.3370
  135SOL    HW1  538   3.108   1.036   2.974  0.0519 -1.3707 -0.1250
  135SOL    HW2  539   2.952   1.029   2.955 -2.7878  1.4247 -3.8500
  135SOL     MW  540   3.033   0.986   2.971 -0.2676 -0.0498 -0.2764
  136SOL     OW  541   0.283   2.002   0.846  0.6094  0.0912  0.0323
  136SOL    HW1  542   0.204   1.948   0.841 -2.6187  3.4574 -3.5271
  136SOL    HW2  543   0.349   1.942   0.799  1.8435  1.8573 -0.4335
  136SOL     MW  544   0.281   1.987   0.839  0.3463  0.7683 -0.4988
  137SOL     OW  545   0.690   2.001   0.558  0.6356  0.5636 -0.2553
  137SOL    HW1  546   0.735   2.013   0.644  3.8077 -2.0522  0.8482
  137SOL    HW2  547   0.593   2.012   0.573 -1.3250  0.7703 -0.7666
  137SOL     MW  548   0.683   2.004   0.572  0.7954  0.2458 -0.1771
  138SOL     OW  549   0.528   0.580   1.066 -0.3952 -0.4749  0.6042
  138SOL    HW1  550   0.441   0.547   1.071  2.2091 -2.9650 -0.0521
  138SOL    HW2  551   0.569   0.537   0.989 -2.4600 -0.5130 -1.9923
  138SOL     MW  552   0.522   0.570   1.057 -0.3240 -0.8085  0.1750
  139SOL     OW  553   2.739   0.512   1.409 -0.6490 -0.7176 -0.3297
  139SOL    HW1  554   2.788   0.434   1.432  0.7939 -1.9610  0.6449
  139SOL    HW2  555   2.810   0.582   1.418  1.4892  0.2748 -0.5578
  139SOL     MW  556   2.755   0.511   1.413 -0.1765 -0.7507 -0.2312
  140SOL     OW  557   0.864   0.327   2.133 -0.1912  0.6243 -0.5831
  140SOL    HW1  558   0.900   0.275   2.063 -0.1891  1.4689 -1.3614
  140SOL    HW2  559   0.916   0.285   2.201  2.0745 -2.2603  0.2183
  140SOL     MW  560   0.876   0.314   2.133  0.1080  0.3552 -0.5800
  141SOL     OW  561   1.003   0.614   1.761 -0.1420  0.1821 -0.3044
  141SOL    HW1  562   1.065   0.541   1.723 -1.4893 -1.8877 -0.8009
  141SOL    HW2  563   1.055   0.692   1.758 -0.0821  1.7947 -0.4394
  141SOL     MW  564   1.018   0.614   1.755 -0.3119  0.1217 -0.3877
  142SOL     OW  565   0.927   1.147   0.746  0.1994  0.5332  0.7665
  142SOL    HW1  566   0.911   1.086   0.673 -1.3174  1.2215  0.1627
  142SOL    HW2  567   1.028   1.144   0.764 -1.2264  3.5810  0.0180
  142SOL     MW  568   0.938   1.138   0.739 -0.1889  1.0261  0.5881
  143SOL     OW  569   1.883   0.910   1.117 -0.2323 -0.3411  0.0054
  143SOL    HW1  570   1.910   0.890   1.027 -1.4627  0.9120 -1.2519
  143SOL    HW2  571   1.846   0.831   1.152  0.8543 -1.0071  0.1822
  143SOL     MW  572   1.882   0.897   1.110 -0.2513 -0.2636 -0.1372
  144SOL     OW  573   0.135   1.174   1.540  0.0226  0.1852 -0.0508
  144SOL    HW1  574   0.203   1.113   1.512 -1.6707  0.0592 -3.7565
  144SOL    HW2  575   0.168   1.195   1.629  1.6963 -2.0106 -0.5452
  144SOL     MW  576   0.148   1.169   1.548  0.0200 -0.1212 -0.6050
  145SOL     OW  577   0.291   0.476   1.114  0.1101  0.9060 -0.7669
  145SOL    HW1  578   0.299   0.421   1.187 -0.1725  1.1550 -3.7899
  145SOL    HW2  579   0.238   0.410   1.061 -1.3644 -1.2863 -1.6085
  145SOL     MW  580   0.285   0.460   1.116 -0.1217  0.6496 -1.2768
  146SOL     OW  581   0.903   1.887   1.386  0.1064 -0.4583 -0.5612
  146SOL    HW1  582   0.931   1.936   1.299  0.5862 -0.3275 -1.6860
  146SOL    HW2  583   0.814   1.915   1.409 -0.3945  1.2567 -0.6272
  146SOL     MW  584   0.895   1.897   1.377  0.1036 -0.2148 -0.7183
  147SOL     OW  585   0.389   0.448   2.858 -0.2639 -0.1083  0.6305
  147SOL    HW1  586   0.352   0.461   2.940  1.1661 -1.7226 -1.8516
  147SOL    HW2  587   0.339   0.509   2.805 -1.1082  0.7444  1.4428
  147SOL     MW  588   0.378   0.458   2.862 -0.1866 -0.2088  0.4102
  148SOL     OW  589   0.042   0.939   1.305 -0.2249 -0.0236  0.0659
  148SOL    HW1  590   0.135   0.940   1.313 -1.3314  1.0438 -0.4159
  148SOL    HW2  591   0.013   0.921   1.398 -0.2817 -1.0713  4.2824
  148SOL     MW  592   0.051   0.937   1.319 -0.3784 -0.0210  0.5587
  149SOL     OW  593   1.423   1.122   1.408  0.2732  0.1410  0.5685
  149SOL    HW1  594   1.369   1.114   1.493 -1.5483  2.2795  1.1303
  149SOL    HW2  595   1.488   1.193   1.427  0.2025  0.9062  2.3403
  149SOL     MW  596   1.425   1.130   1.422  0.0235  0.5241  0.8764
  150SOL     OW  597   1.819   1.332   0.760 -0.0479 -0.4946  0.4434
  150SOL    HW1  598   1.841   1.244   0.734 -1.4315  0.1941  0.6229
  150SOL    HW2  599   1.895   1.364   0.803  0.1489 -2.1370  3.0543
  150SOL     MW  600   1.832   1.324   0.763 -0.2044 -0.6205  0.8116
  151SOL     OW  601   1.620   1.794   0.850  0.0363  0.0397 -0.0239
  151SOL    HW1  602   1.572   1.794   0.767 -2.0021  1.5228  1.9767
  151SOL    HW2  603   1.585   1.732   0.917  0.8926  1.9284  0.6311
  151SOL     MW  604   1.609   1.786   0.848 -0.1197  0.4846  0.3265
  152SOL     OW  605   0.781   1.355   1.540  0.5386  0.7098 -0.2939
  152SOL    HW1  606   0.800   1.260   1.537 -0.1377 -2.8297  1.7396
  152SOL    HW2  607   0.863   1.404   1.519 -0.5356 -0.3578 -0.3380
  152SOL     MW  608   0.794   1.349   1.537  0.3076  0.1019 -0.0314
  153SOL     OW  609   2.665   1.233   0.693  0.0191  0.0178  0.7519
  153SOL    HW1  610   2.726   1.196   0.630 -0.5337  0.1244 -1.5187
  153SOL    HW2  611   2.603   1.157   0.708  0.8924  2.3317 -1.1236
  153SOL     MW  612   2.665   1.218   0.687  0.0614  0.3372  0.2048
  154SOL     OW  613   0.322   1.778   1.697  0.2918 -0.1371 -0.1990
  154SOL    HW1  614   0.328   1.748   1.609 -2.3484 -1.4233 -3.1052
  154SOL    HW2  615   0.365   1.707   1.746 -0.1541  1.1902  0.0803
  154SOL     MW  616   0.328   1.765   1.692 -0.1154 -0.1317 -0.5456
  155SOL     OW  617   1.109   0.716   0.290  0.0701 -0.5009  1.1119
  155SOL    HW1  618   1.117   0.658   0.367  2.1492 -0.0502  0.9531
  155SOL    HW2  619   1.062   0.795   0.325 -0.4208  1.0931 -0.8197
  155SOL     MW  620   1.104   0.719   0.305  0.2797 -0.2311  0.8361
  156SOL     OW  621   1.499   3.038   1.038 -0.5985 -0.5619  0.1573
  156SOL    HW1  622   1.569   3.107   1.057 -0.5242 -0.4587 -0.3914
  156SOL    HW2  623   1.509   2.964   1.099  0.1521 -0.7602 -1.5150
  156SOL     MW  624   1.509   3.038   1.049 -0.4896 -0.5744 -0.1358
  157SOL     OW  625   1.367   1.227   0.125 -0.4213  0.4450  0.1902
  157SOL    HW1  626   1.386   1.132   0.133  0.2947 -2.8148 -1.5706
  157SOL    HW2  627   1.450   1.278   0.119 -2.1177  1.1282  0.5871
  157SOL     MW  628   1.381   1.221   0.125 -0.5506  0.1050  0.0102
  158SOL     OW  629   0.384   1.659   2.276  0.7412  0.7382 -0.3208
  158SOL    HW1  630   0.351   1.731   2.219 -3.1872 -1.5855 -2.4326
  158SOL    HW2  631   0.311   1.622   2.326 -0.2357  2.0299  0.7325
  158SOL     MW  632   0.370   1.663   2.275  0.0940  0.6021 -0.4605
  159SOL     OW  633   1.308   1.661   0.450  0.3264 -0.2279  0.0853
  159SOL    HW1  634   1.280   1.571   0.425  0.5401  2.2465  3.6933
  159SOL    HW2  635   1.227   1.704   0.490 -0.6348  2.3375 -0.9515
  159SOL     MW  636   1.294   1.655   0.452  0.2278  0.4370  0.4245
  160SOL     OW  637   0.449   1.071   1.545  0.1966 -0.2100  0.0220
  160SOL    HW1  638   0.481   0.996   1.590  1.0597  1.9528  0.8332
  160SOL    HW2  639   0.475   1.146   1.597 -1.2078 -0.5936 -0.2811
  160SOL     MW  640   0.457   1.071   1.558  0.1252  0.0248  0.0890
  161SOL     OW  641   0.586   2.119   2.706 -0.2460 -0.2435 -0.0486
  161SOL    HW1  642   0.514   2.153   2.760 -1.7055 -0.4933 -0.4688
  161SOL    HW2  643   0.551   2.079   2.630  0.6344  2.5708  2.6583
  161SOL     MW  644   0.572   2.118   2.703 -0.3224  0.0949  0.2531
  162SOL     OW  645   1.024   1.700   1.806 -0.9057 -0.7836 -0.3045
  162SOL    HW1  646   1.029   1.801   1.808  2.1699 -0.3662 -2.7785
  162SOL    HW2  647   0.933   1.685   1.838  0.7094  3.4704 -1.6674
  162SOL     MW  648   1.013   1.711   1.811 -0.2868 -0.1673 -0.8108
  163SOL     OW  649   2.121   0.158   0.970 -0.5102  0.2104 -0.4977
  163SOL    HW1  650   2.128   0.162   0.873  0.2129 -0.0996  2.7069
  163SOL    HW2  651   2.073   0.080   0.994 -1.8566  1.2762 -1.5346
  163SOL     MW  652   2.116   0.148   0.960 -0.5924  0.3102 -0.2117
  164SOL     OW  653   0.243   0.203   0.815  0.1957  0.0764 -0.4944
  164SOL    HW1  654   0.156   0.210   0.857 -1.4143  2.2419  3.4747
  164SOL    HW2  655   0.253   0.110   0.791 -1.6389  0.7504  1.5172
  164SOL     MW  656   0.233   0.191   0.817 -0.2588  0.4511  0.2947
  165SOL     OW  657   1.368   1.221   0.413  0.1038  0.0680 -0.1037
  165SOL    HW1  658   1.343   1.136   0.449 -1.1822  1.6322  0.0266
  165SOL    HW2  659   1.361   1.204   0.322 -2.3348  0.8487  0.0789
  165SOL     MW  660   1.364   1.208   0.406 -0.3877  0.3774 -0.0624
  166SOL     OW  661   0.503   1.080   0.976 -0.4716  0.1500 -0.1909
  166SOL    HW1  662   0.490   0.994   1.022 -3.8226  0.2781  2.1112
  166SOL    HW2  663   0.597   1.070   0.947 -0.4545  3.1957 -0.4732
  166SOL     MW  664   0.514   1.067   0.978 -0.9115  0.5687  0.0756
  167SOL     OW  665   0.910   1.144   0.260 -0.3030 -0.1366  0.1898
  167SOL    HW1  666   0.822   1.162   0.281  1.5965  0.2410 -2.8118
  167SOL    HW2  667   0.914   1.144   0.165 -2.9807 -1.9771 -1.7628
  167SOL     MW  668   0.899   1.146   0.250 -0.4057 -0.3296 -0.4638
  168SOL     OW  669   1.700   1.743   2.889  0.5161 -0.0501 -0.0630
  168SOL    HW1  670   1.611   1.776   2.890  0.3095 -2.3605 -1.4264
  168SOL    HW2  671   1.696   1.645   2.917  2.3880  1.2565  0.8783
  168SOL     MW  672   1.687   1.734   2.893  0.7358 -0.1826 -0.1187
  169SOL     OW  673   0.306   0.937   1.335  0.4594  0.4879 -0.1464
  169SOL    HW1  674   0.346   0.926   1.424 -1.5115  0.3757  2.6409
  169SOL    HW2  675   0.316   1.032   1.310 -1.6103  2.1528  1.1399
  169SOL     MW  676   0.312   0.948   1.343 -0.0737  0.6927  0.3911
  170SOL     OW  677   1.032   1.465   1.482  0.1546 -0.2282  0.1405
  170SOL    HW1  678   0.966   1.528   1.441 -1.2867  0.2327 -1.6954
  170SOL    HW2  679   1.097   1.467   1.412 -3.0924  2.2268  1.5343
  170SOL     MW  680   1.032   1.474   1.467 -0.4640  0.1565  0.0822
  171SOL     OW  681   0.602   1.384   0.710  0.3016 -0.3221 -0.0724
  171SOL    HW1  682   0.581   1.379   0.806  2.3407 -2.0762  1.7122
  171SOL    HW2  683   0.581   1.300   0.669 -0.8380 -0.7794 -2.5818
  171SOL     MW  684   0.596   1.373   0.717  0.4203 -0.6138 -0.1680
  172SOL     OW  685   0.835   0.327   1.216  0.2150  0.0166  0.0102
  172SOL    HW1  686   0.824   0.344   1.120 -0.2945  1.8406 -0.3066
  172SOL    HW2  687   0.759   0.373   1.259  3.8349 -0.4273 -0.9885
  172SOL     MW  688   0.823   0.335   1.209  0.6254  0.1987 -0.1634
  173SOL     OW  689   0.471   1.682   0.326  0.3976  0.8109  0.4074
  173SOL    HW1  690   0.448   1.585   0.329  1.9874 -1.9483 -0.0694
  173SOL    HW2  691   0.512   1.689   0.411  0.2909  0.4154 -0.3979
  173SOL     MW  692   0.473   1.670   0.338  0.5933  0.3947  0.2383
  174SOL     OW  693   2.033   0.951   1.510  0.3471 -0.1862 -0.7697
  174SOL    HW1  694   1.980   0.869   1.515  0.1847 -4.3025 -2.3937
  174SOL    HW2  695   1.993   0.997   1.433  3.4472  0.0402  0.5523
  174SOL     MW  696   2.021   0.946   1.500  0.7347 -0.6994 -0.8095
  175SOL     OW  697   0.438   1.424   0.341  0.7990  0.3948 -0.4150
  175SOL    HW1  698   0.420   1.389   0.253 -1.1223 -0.9729 -2.9617
  175SOL    HW2  699   0.530   1.416   0.352 -0.8956  2.9807 -1.5775
  175SOL     MW  700   0.448   1.418   0.331  0.3219  0.5555 -0.9044
  176SOL     OW  701   0.300   1.204   1.253  0.3625 -0.5403 -0.2883
  176SOL    HW1  702   0.262   1.249   1.177 -0.6694  0.5342 -1.3000
  176SOL    HW2  703   0.262   1.254   1.335 -2.3624 -1.2278  1.2167
  176SOL     MW  704   0.290   1.217   1.254 -0.1331 -0.4892 -0.2232
  177SOL     OW  705   0.631   0.459   1.307  0.0730  0.0274 -0.1154
  177SOL    HW1  706   0.607   0.523   1.231  1.0449  0.7452 -1.9004
  177SOL    HW2  707   0.608   0.504   1.385  0.2415 -0.4749 -1.8572
  177SOL     MW  708   0.625   0.474   1.307  0.2235  0.0558 -0.5807
  178SOL     OW  709   3.097   0.435   2.948 -0.1011 -0.3085 -0.0709
  178SOL    HW1  710   3.030   0.451   3.018  2.0611  0.6694 -0.1934
  178SOL    HW2  711   3.042   0.447   2.866 -0.5172 -0.7009  1.1008
  178SOL     MW  712   3.081   0.439   2.946  0.1293 -0.2313  0.0675
  179SOL     OW  713   1.621   1.333   1.495  0.2361 -0.4874 -0.4241
  179SOL    HW1  714   1.624   1.400   1.567 -0.3503  0.0330  3.8701
  179SOL    HW2  715   1.707   1.294   1.489  1.5128 -0.9989  1.5275
  179SOL     MW  716   1.633   1.337   1.503  0.3272 -0.4862  0.4000
  180SOL     OW  717   3.034   0.284   0.490  0.2455  0.3533 -0.0760
  180SOL    HW1  718   2.997   0.271   0.399 -0.7627  0.2501 -2.6121
  180SOL    HW2  719   3.079   0.365   0.477  0.0843 -0.7331  1.5157
  180SOL     MW  720   3.035   0.293   0.476  0.0912  0.1964 -0.2006
  181SOL     OW  721   1.119   1.431   3.068 -0.3292  0.5666 -0.5548
  181SOL    HW1  722   1.188   1.474   3.121  1.4789 -4.7257  0.9439
  181SOL    HW2  723   1.156   1.422   2.976  0.2497  0.7888  1.0150
  181SOL     MW  724   1.133   1.435   3.063 -0.0143 -0.1023 -0.1500
  182SOL     OW  725   0.482   0.807   1.644 -0.0197  0.1997 -0.7129
  182SOL    HW1  726   0.394   0.783   1.659  0.6891  1.7792 -1.4479
  182SOL    HW2  727   0.533   0.727   1.665  0.4544  0.2087 -0.2340
  182SOL     MW  728   0.477   0.793   1.648  0.1364  0.4093 -0.7467
  183SOL     OW  729   1.624   1.536   1.304  0.5661 -0.2164 -0.2448
  183SOL    HW1  730   1.556   1.572   1.361 -1.8046  2.5964 -0.3849
  183SOL    HW2  731   1.659   1.469   1.364 -0.9819 -0.7812 -0.0561
  183SOL     MW  732   1.620   1.532   1.319  0.0490  0.0802 -0.2384
  184SOL     OW  733   0.839   0.605   1.972  0.3156  0.3103  0.1583
  184SOL    HW1  734   0.902   0.603   1.894  2.3574  3.5826 -1.3161
  184SOL    HW2  735   0.872   0.524   2.018  0.0214  1.2589 -1.6061
  184SOL     MW  736   0.852   0.594   1.968  0.5462  0.8672 -0.2691
  185SOL     OW  737   1.121   0.959   1.937  0.3973 -0.2611  0.0780
  185SOL    HW1  738   1.112   0.887   1.993 -1.3593  0.0022 -0.9463
  185SOL    HW2  739   1.149   1.034   1.999 -0.4186  0.5747 -0.1630
  185SOL     MW  740   1.123   0.959   1.953  0.0579 -0.1161 -0.0889
  186SOL     OW  741   0.375   1.679   1.408  0.3827 -0.3906 -0.2512
  186SOL    HW1  742   0.451   1.718   1.359  2.3457 -0.0765  2.3923
  186SOL    HW2  743   0.336   1.613   1.350 -0.7520 -0.9604  0.1579
  186SOL     MW  744   0.380   1.676   1.394  0.4920 -0.4244  0.1515
  187SOL     OW  745   1.514   0.683   1.475  0.2384  0.2320 -0.0199
  187SOL    HW1  746   1.485   0.678   1.567  2.5961  2.4018  0.6958
  187SOL    HW2  747   1.434   0.672   1.421 -0.8039  0.2225  0.4270
  187SOL     MW  748   1.499   0.681   1.480  0.4119  0.5170  0.1335
  188SOL     OW  749   1.917   1.053   0.720  0.0840 -0.7527 -0.1547
  188SOL    HW1  750   1.922   0.972   0.774 -1.2137 -0.4078 -1.2865
  188SOL    HW2  751   2.011   1.072   0.711 -1.6854 -2.2001  3.2357
  188SOL     MW  752   1.930   1.045   0.726 -0.3207 -0.8982  0.1433
  189SOL     OW  753   0.664   0.776   0.800 -0.1495 -0.5537 -0.3666
  189SOL    HW1  754   0.586   0.832   0.789  4.3739  4.4521  2.5414
  189SOL    HW2  755   0.726   0.838   0.841  0.1551  1.7603 -0.0531
  189SOL     MW  756   0.662   0.792   0.804  0.4875  0.4121  0.0584
  190SOL     OW  757   1.856   0.349   1.964 -0.0616 -0.4091 -0.1599
  190SOL    HW1  758   1.907   0.283   1.919  3.1917 -0.1602 -1.1555
  190SOL    HW2  759   1.916   0.426   1.950  0.3669 -1.0167  0.5790
  190SOL     MW  760   1.871   0.351   1.956  0.4242 -0.4564 -0.1938
  191SOL     OW  761   1.594   0.933   1.456 -0.1304  0.2602 -1.4598
  191SOL    HW1  762   1.517   0.997   1.442 -1.0012 -0.3231 -1.1962
  191SOL    HW2  763   1.566   0.839   1.453  2.5361 -0.4394 -0.2140
  191SOL     MW  764   1.581   0.929   1.454  0.1065  0.0909 -1.2606
  192SOL     OW  765   0.758   1.966   2.901  0.2811 -0.0205 -1.4680
  192SOL    HW1  766   0.698   2.020   2.846 -2.2241  0.4528  2.4703
  192SOL    HW2  767   0.704   1.888   2.917  0.2409  0.1764  1.0204
  192SOL     MW  768   0.743   1.963   2.896 -0.0548  0.0679 -0.6200
  193SOL     OW  769   1.042   1.577   0.731  0.3734  0.7654  0.1648
  193SOL    HW1  770   0.985   1.577   0.805  3.2101  1.7595 -1.1588
  193SOL    HW2  771   0.990   1.519   0.675 -1.3321  2.6849 -2.7824
  193SOL     MW  772   1.028   1.569   0.733  0.5226  1.1498 -0.3987
  194SOL     OW  773   0.465   1.340   0.949  0.2398  0.0423 -0.4373
  194SOL    HW1  774   0.469   1.241   0.961  1.0882 -1.0711  2.3729
  194SOL    HW2  775   0.386   1.358   0.899 -0.4730  2.1157  0.4205
  194SOL     MW  776   0.455   1.329   0.944  0.2577  0.1689  0.0467
  195SOL     OW  777   1.297   1.171   2.974 -0.4570  0.2685  0.5014
  195SOL    HW1  778   1.323   1.197   3.064  0.6179  1.8170  1.0646
  195SOL    HW2  779   1.211   1.124   2.984 -1.6696 -2.1218 -0.5516
  195SOL     MW  780   1.289   1.168   2.987 -0.4752  0.1574  0.4368
  196SOL     OW  781   2.162   1.058   0.609  0.1169  0.6135  0.6108
  196SOL    HW1  782   2.142   1.025   0.522  1.1037  1.1829  0.3252
  196SOL    HW2  783   2.179   1.151   0.597 -2.4095 -0.4722 -0.4240
  196SOL     MW  784   2.162   1.066   0.596 -0.0862  0.5454  0.4366
  197SOL     OW  785   0.566   1.254   2.012  0.0167  0.3277  0.0180
  197SOL    HW1  786   0.559   1.162   2.002 -0.3024  0.2989 -0.1607
  197SOL    HW2  787   0.571   1.275   1.922 -0.5170 -0.5985  3.3925
  197SOL     MW  788   0.566   1.245   1.999 -0.0958  0.2017  0.4396
  198SOL     OW  789   2.922   1.389   1.045  0.2335  0.7299 -0.2534
  198SOL    HW1  790   2.926   1.487   1.021 -1.0600  1.4809 -0.5554
  198SOL    HW2  791   2.841   1.361   1.012  4.5777  0.3983 -3.5088
  198SOL     MW  792   2.912   1.398   1.037  0.6360  0.7852 -0.7228
  199SOL     OW  793   0.496   1.280   1.744  0.8299 -0.0638  0.1249
  199SOL    HW1  794   0.402   1.263   1.775 -0.9635  4.7063 -0.9488
  199SOL    HW2  795   0.484   1.355   1.689 -0.9713  0.2212  0.6712
  199SOL     MW  796   0.482   1.288   1.741  0.3556  0.6032  0.0554
  200SOL     OW  797   1.932   3.092   1.333 -0.3589  0.4327  0.8998
  200SOL    HW1  798   1.944   3.087   1.235  0.9244 -0.3203 -0.8670
  200SOL    HW2  799   1.838   3.088   1.356  0.0031 -1.8646 -0.0662
  200SOL     MW  800   1.921   3.091   1.323 -0.1418  0.0303  0.5392
  201SOL     OW  801   1.120   0.302   0.807 -0.3508 -0.2652  0.2161
  201SOL    HW1  802   1.138   0.203   0.830 -2.8027 -1.5432 -0.6841
  201SOL    HW2  803   1.127   0.284   0.713  0.6507 -2.7729 -0.7319
  201SOL     MW  804   1.123   0.287   0.798 -0.5422 -0.7647 -0.0277
  202SOL     OW  805   1.577   1.594   1.028 -0.4272  0.2341  0.4135
  202SOL    HW1  806   1.564   1.512   0.977 -1.5117  0.7955  0.2652
  202SOL    HW2  807   1.612   1.571   1.115  1.2217  0.7757 -1.5826
  202SOL     MW  808   1.580   1.580   1.033 -0.3527  0.3796  0.1306
  203SOL     OW  809   3.043   0.459   1.225  0.9344 -0.2993 -0.2275
  203SOL    HW1  810   3.105   0.398   1.185  0.8447  3.6613  0.5014
  203SOL    HW2  811   3.095   0.525   1.259 -0.0581 -3.6552 -1.7783
  203SOL     MW  812   3.058   0.459   1.224  0.7916 -0.2195 -0.3359
  204SOL     OW  813   1.078   1.760   0.532 -0.0258 -0.6130  0.2920
  204SOL    HW1  814   1.072   1.698   0.608  0.8090  2.7648  0.2703
  204SOL    HW2  815   0.997   1.756   0.479  1.2175 -1.3531 -1.4813
  204SOL     MW  816   1.066   1.751   0.535  0.2484 -0.2649  0.0552
  205SOL     OW  817   1.396   0.072   1.328 -0.0054 -0.1671  0.3150
  205SOL    HW1  818   1.329   0.066   1.261 -0.4493  0.4041  2.4312
  205SOL    HW2  819   1.415   0.163   1.315  0.4781 -1.3997  0.3561
  205SOL     MW  820   1.390   0.083   1.318 -0.0002 -0.2544  0.5996
  206SOL     OW  821   0.516   3.077   1.370 -0.3927 -0.1057  0.1224
  206SOL    HW1  822   0.468   3.062   1.288 -0.3043  0.0664  0.2193
  206SOL    HW2  823   0.593   3.015   1.377 -2.5653  0.3098 -0.6908
  206SOL     MW  824   0.520   3.067   1.360 -0.6677 -0.0281  0.0279
  207SOL     OW  825   0.992   1.547   0.222 -0.0248 -0.2634  0.6009
  207SOL    HW1  826   1.026   1.634   0.193  0.7017  0.6331 -0.0341
  207SOL    HW2  827   1.071   1.499   0.264  4.3607  0.5093 -1.0370
  207SOL     MW  828   1.007   1.552   0.224  0.6496 -0.0432  0.3010
  208SOL     OW  829   0.648   1.577   1.221  0.1719  0.3588 -0.8154
  208SOL    HW1  830   0.707   1.592   1.293 -2.0346  2.5021  1.4460
  208SOL    HW2  831   0.610   1.486   1.237 -0.2877 -2.1734  0.7387
  208SOL     MW  832   0.651   1.567   1.233 -0.1799  0.3075 -0.3120
  209SOL     OW  833   1.477   0.502   2.801 -0.3336  0.7442  0.0627
  209SOL    HW1  834   1.489   0.545   2.888 -1.4309  0.3747  1.4670
  209SOL    HW2  835   1.559   0.447   2.791  2.4922  1.0607 -0.1863
  209SOL     MW  836   1.489   0.501   2.811 -0.1055  0.7372  0.2152
  210SOL     OW  837   1.568   1.367   0.887 -0.1662  0.5624 -0.2799
  210SOL    HW1  838   1.656   1.353   0.854  0.8711  0.6029 -1.7816
  210SOL    HW2  839   1.511   1.365   0.811  1.2853  2.8445 -0.0837
  210SOL     MW  840   1.572   1.365   0.872  0.1622  0.8689 -0.4521
  211SOL     OW  841   1.713   0.471   0.927 -0.0971  0.3273  0.2642
  211SOL    HW1  842   1.692   0.468   0.830  0.3765  1.5098  0.6894
  211SOL    HW2  843   1.813   0.492   0.920  1.9858 -0.0606  0.4180
  211SOL     MW  844   1.724   0.474   0.913  0.2402  0.4321  0.3406
  212SOL     OW  845   0.241   1.094   0.049 -0.0360 -0.0787  0.7041
  212SOL    HW1  846   0.182   1.061   0.118 -2.4326  0.8291 -2.4261
  212SOL    HW2  847   0.317   1.041   0.066 -1.2276  0.2195 -0.8976
  212SOL     MW  848   0.243   1.083   0.061 -0.5094  0.0804  0.0798
  213SOL     OW  849   0.479   1.684   3.098 -0.7333 -0.0043  0.1736
  213SOL    HW1  850   0.533   1.742   3.152 -0.0109 -1.8309  1.1548
  213SOL    HW2  851   0.494   1.718   3.014  1.8069 -2.2827 -2.5883
  213SOL     MW  852   0.488   1.696   3.094 -0.3028 -0.5459 -0.0614
  214SOL     OW  853   0.635   0.258   2.278  0.4012  0.1595  0.6105
  214SOL    HW1  854   0.564   0.292   2.227 -0.1733 -0.8444 -0.6116
  214SOL    HW2  855   0.702   0.263   2.215  2.1560  1.7607 -0.5371
  214SOL     MW  856   0.634   0.263   2.263  0.5569  0.2383  0.2979
  215SOL     OW  857   0.496   0.750   2.636 -0.4869  0.3199 -0.0408
  215SOL    HW1  858   0.518   0.702   2.554  1.1673  1.3635 -1.9224
  215SOL    HW2  859   0.415   0.709   2.660  1.3687  0.5026 -3.0713
  215SOL     MW  860   0.488   0.738   2.628 -0.0238  0.4817 -0.6889
  216SOL     OW  861   3.094   3.077   2.751  0.0538  0.0152 -0.7703
  216SOL    HW1  862   3.030   3.032   2.809 -4.0632 -1.5949 -0.5873
  216SOL    HW2  863   3.049   3.160   2.717 -0.2938  1.6741 -0.5529
  216SOL     MW  864   3.080   3.082   2.754 -0.5352  0.0216 -0.7175
  217SOL     OW  865   0.983   1.186   3.092 -0.2111  0.0696 -0.1779
  217SOL    HW1  866   1.040   1.102   3.077 -2.1907 -2.3432 -1.2699
  217SOL    HW2  867   1.046   1.259   3.117  1.7914  3.4807  1.7508
  217SOL     MW  868   0.999   1.184   3.093 -0.2080  0.2013 -0.0675
  218SOL     OW  869   0.913   1.386   2.484 -0.2634 -0.6573 -0.1159
  218SOL    HW1  870   0.897   1.300   2.519  2.8802  1.9770  3.8996
  218SOL    HW2  871   0.982   1.425   2.530 -1.1317 -1.7460  1.6593
  218SOL     MW  872   0.920   1.380   2.495  0.0368 -0.4534  0.6481
  219SOL     OW  873   1.012   0.428   2.488  0.5960 -0.1718 -0.8001
  219SOL    HW1  874   1.098   0.466   2.472  0.6975  1.8601 -0.4867
  219SOL    HW2  875   0.959   0.498   2.522 -0.6330  1.1333 -2.1979
  219SOL     MW  876   1.017   0.442   2.491  0.4473  0.2685 -0.9432
  220SOL     OW  877   1.752   0.531   2.193  0.0390 -0.2221  0.4259
  220SOL    HW1  878   1.677   0.579   2.162 -0.3398 -2.4060  0.1451
  220SOL    HW2  879   1.786   0.471   2.134 -0.6122 -2.3032  3.1578
  220SOL     MW  880   1.746   0.529   2.181 -0.0969 -0.7848  0.7493
  221SOL     OW  881   0.409   1.407   2.904  0.0767 -0.2574 -0.1327
  221SOL    HW1  882   0.426   1.313   2.892 -0.6284 -1.7897 -2.1540
  221SOL    HW2  883   0.391   1.447   2.821 -0.1017 -5.9716 -0.0987
  221SOL     MW  884   0.409   1.400   2.892 -0.0399 -1.2135 -0.3949
  222SOL     OW  885   0.320   0.958   2.645 -0.5739 -0.1618 -0.4088
  222SOL    HW1  886   0.292   0.981   2.560 -0.9132  1.9576 -0.8677
  222SOL    HW2  887   0.395   0.902   2.633 -1.0324  0.0601  0.3010
  222SOL     MW  888   0.326   0.953   2.632 -0.6792  0.1471 -0.3757
  223SOL     OW  889   3.091   1.984   2.622  0.1997  0.0250 -0.4462
  223SOL    HW1  890   3.177   1.939   2.648  0.4857  0.5982 -3.1902
  223SOL    HW2  891   3.127   2.064   2.573 -1.1165 -1.7099  1.2919
  223SOL     MW  892   3.107   1.989   2.619  0.0638 -0.1282 -0.5789
  224SOL     OW  893   1.505   0.838   2.594 -0.4790 -0.0135  0.4559
  224SOL    HW1  894   1.429   0.859   2.652 -0.1879  1.8383 -0.2775
  224SOL    HW2  895   1.519   0.920   2.551  0.7552 -2.5641  1.6014
  224SOL     MW  896   1.497   0.852   2.596 -0.2778 -0.1057  0.5103
  225SOL     OW  897   2.908   1.485   2.226  0.0699  0.0635  0.0921
  225SOL    HW1  898   2.976   1.538   2.182 -0.2071  1.1871 -1.1764
  225SOL    HW2  899   2.853   1.555   2.270 -1.2643  0.1496  0.8379
  225SOL     MW  900   2.909   1.501   2.226 -0.1427  0.2231  0.0231
  226SOL     OW  901   0.389   1.492   2.622 -0.2676  0.3492 -0.0840
  226SOL    HW1  902   0.472   1.457   2.595  0.6035  0.1660  1.0841
  226SOL    HW2  903   0.391   1.583   2.601 -0.5391 -0.1093 -0.4240
  226SOL     MW  904   0.400   1.500   2.616 -0.1885  0.2645  0.0252
  227SOL     OW  905   0.424   1.135   2.849  0.0828 -0.1421  0.2163
  227SOL    HW1  906   0.501   1.162   2.798 -1.4156 -0.2993  1.9423
  227SOL    HW2  907   0.382   1.079   2.788 -0.8691 -1.9839  1.1530
  227SOL     MW  908   0.428   1.131   2.834 -0.2405 -0.4058  0.5676
  228SOL     OW  909   0.689   0.983   1.979  0.3140  0.1771 -0.1891
  228SOL    HW1  910   0.749   1.027   1.915 -1.9695 -0.0486  0.6093
  228SOL    HW2  911   0.729   0.975   2.060 -2.2055  1.3791 -0.4526
  228SOL     MW  912   0.702   0.988   1.981 -0.3197  0.3059 -0.1186
  229SOL     OW  913   0.243   0.493   3.095 -0.4045 -0.8660  0.1252
  229SOL    HW1  914   0.163   0.482   3.046  2.3879 -0.3919  0.3087
  229SOL    HW2  915   0.233   0.440   3.177 -0.9493  0.7745 -0.2995
  229SOL     MW  916   0.231   0.484   3.099 -0.1079 -0.5870  0.0934
  230SOL     OW  917   1.771   1.343   2.110  0.1615 -0.1452 -0.2619
  230SOL    HW1  918   1.739   1.354   2.200 -0.7617  0.5096  0.6117
  230SOL    HW2  919   1.798   1.250   2.097  0.2404  0.5732  0.7281
  230SOL     MW  920   1.770   1.332   2.120  0.0501  0.0360 -0.0160
  231SOL     OW  921   2.798   1.247   2.161 -0.6298  0.5874 -0.3596
  231SOL    HW1  922   2.859   1.317   2.169  0.1233 -0.0436 -1.2224
  231SOL    HW2  923   2.723   1.264   2.108  1.0355 -0.9595  0.0132
  231SOL     MW  924   2.796   1.259   2.155 -0.3107  0.3000 -0.4243
  232SOL     OW  925   2.287   0.924   2.101  0.1647 -0.4199 -0.0696
  232SOL    HW1  926   2.229   0.975   2.045  2.5006 -1.1723  0.2286
  232SOL    HW2  927   2.233   0.913   2.185  0.5783 -1.6697  2.1544
  232SOL     MW  928   2.272   0.929   2.105  0.5275 -0.6840  0.2632
  233SOL     OW  929   2.072   0.529   1.938 -0.4992 -0.8550  0.3402
  233SOL    HW1  930   2.107   0.599   1.875 -0.6932  1.3600  1.5304
  233SOL    HW2  931   2.139   0.513   2.008 -1.7269  2.3985 -0.0297
  233SOL     MW  932   2.085   0.536   1.939 -0.6868 -0.1335  0.4484
  234SOL     OW  933   0.262   0.979   2.371  0.4860  0.2383 -0.9682
  234SOL    HW1  934   0.170   1.011   2.394  0.2834  1.4501  1.4136
  234SOL    HW2  935   0.316   1.059   2.364  0.7094  2.6139 -0.9094
  234SOL     MW  936   0.257   0.994   2.373  0.4887  0.7116 -0.6462
  235SOL     OW  937   0.996   3.046   2.789  0.6884 -0.1866  0.1204
  235SOL    HW1  938   1.040   2.977   2.843  2.7947  1.8113 -0.1193
  235SOL    HW2  939   0.974   3.122   2.843  0.0323  0.3399 -0.5613
  235SOL     MW  940   0.999   3.047   2.803  0.8797  0.1465 -0.0012
  236SOL     OW  941   2.932   0.522   0.058 -0.2271 -0.0128 -0.7603
  236SOL    HW1  942   2.854   0.532  -0.005  0.2899  2.6040 -0.2977
  236SOL    HW2  943   2.969   0.618   0.070 -2.0391 -0.8971 -0.3276
  236SOL     MW  944   2.927   0.536   0.051 -0.3980  0.2158 -0.6422
  237SOL     OW  945   1.767   0.874   2.185 -0.1332  0.1032  0.1350
  237SOL    HW1  946   1.769   0.966   2.143 -0.4682  0.6666  0.8046
  237SOL    HW2  947   1.812   0.876   2.274 -1.5833  0.8870 -1.2729
  237SOL     MW  948   1.773   0.887   2.191 -0.3687  0.2809  0.0376
  238SOL     OW  949   1.104   1.750   2.974 -0.2395 -0.3603  0.1515
  238SOL    HW1  950   1.059   1.664   2.988  1.7358 -1.9105  0.0675
  238SOL    HW2  951   1.195   1.730   3.003 -1.0917  1.9666 -2.2773
  238SOL     MW  952   1.110   1.736   2.980 -0.0913 -0.2578 -0.1801
  239SOL     OW  953   1.189   1.389   2.308 -0.5896  0.3062  0.1574
  239SOL    HW1  954   1.181   1.401   2.401 -1.2190  0.0387  1.3864
  239SOL    HW2  955   1.126   1.318   2.296  0.6269  0.7851 -0.3117
  239SOL     MW  956   1.179   1.381   2.319 -0.5122  0.3341  0.2576
  240SOL     OW  957   0.606   0.845   2.261 -0.0055  0.7409  0.6730
  240SOL    HW1  958   0.600   0.901   2.336 -0.9029 -0.6241  0.4992
  240SOL    HW2  959   0.696   0.828   2.254  0.7052  2.9938 -0.1312
  240SOL     MW  960   0.617   0.850   2.270 -0.0302  0.8580  0.5439
  241SOL     OW  961   0.649   0.370   2.968 -0.2957 -0.2001  1.0358
  241SOL    HW1  962   0.678   0.403   3.056 -0.0119 -3.0254  1.3967
  241SOL    HW2  963   0.570   0.420   2.946 -0.4135 -2.5330 -0.8893
  241SOL     MW  964   0.643   0.381   2.977 -0.2738 -0.8807  0.8294
  242SOL     OW  965   1.454   1.698   2.341  0.8597  0.9511 -0.3600
  242SOL    HW1  966   1.441   1.791   2.369  0.5029  3.2672  1.5771
  242SOL    HW2  967   1.368   1.670   2.308  0.0251 -3.3968  0.4764
  242SOL     MW  968   1.441   1.707   2.341  0.7025  0.6830  0.0059
  243SOL     OW  969   0.975   0.211   2.344 -1.0004  0.5256  0.7235
  243SOL    HW1  970   1.068   0.192   2.351 -3.1462 -0.3179  1.5703
  243SOL    HW2  971   0.961   0.281   2.403 -1.1224  2.8449 -3.7007
  243SOL     MW  972   0.986   0.217   2.353 -1.2996  0.7203  0.2515
  244SOL     OW  973   0.199   0.712   2.281  0.0563 -0.1118  0.1134
  244SOL    HW1  974   0.223   0.808   2.296 -2.0108 -1.6877  1.4910
  244SOL    HW2  975   0.278   0.668   2.296 -1.1927  0.3719  2.6107
  244SOL     MW  976   0.213   0.719   2.285 -0.3812 -0.2559  0.6247
  245SOL     OW  977   1.227   0.161   2.293  0.1201 -0.0008  0.3980
  245SOL    HW1  978   1.255   0.075   2.325 -2.2530 -1.1540  2.8762
  245SOL    HW2  979   1.282   0.225   2.337 -0.9451  1.0503  1.6130
  245SOL     MW  980   1.238   0.158   2.303 -0.3336 -0.0143  0.8853
  246SOL     OW  981   1.168   1.140   2.144  0.5813 -0.0649 -0.9711
  246SOL    HW1  982   1.121   1.084   2.209 -0.1306  0.8971 -1.0827
  246SOL    HW2  983   1.250   1.179   2.191  1.6912  0.8425  0.8386
  246SOL     MW  984   1.173   1.138   2.159  0.6338  0.1818 -0.7471
  247SOL     OW  985   0.677   0.520   0.121  0.3362 -0.1141 -0.6571
  247SOL    HW1  986   0.637   0.600   0.092  1.7692 -0.8816  0.3388
  247SOL    HW2  987   0.773   0.535   0.119  0.8898 -1.9076  0.3299
  247SOL     MW  988   0.685   0.532   0.117  0.5983 -0.4520 -0.3954
  248SOL     OW  989   0.431   1.206   2.425 -0.3437 -0.2205  0.1394
  248SOL    HW1  990   0.421   1.276   2.361 -0.9239 -2.1502 -0.1301
  248SOL    HW2  991   0.410   1.243   2.515  0.9360  1.8175  1.3981
  248SOL     MW  992   0.427   1.220   2.428 -0.2514 -0.2062  0.2699
  249SOL     OW  993   0.166   1.795   2.718  0.1486  0.8842  0.3306
  249SOL    HW1  994   0.115   1.721   2.680  1.0333  1.5965  0.0495
  249SOL    HW2  995   0.186   1.760   2.805  0.3652  1.1512  0.2482
  249SOL     MW  996   0.162   1.781   2.725  0.2939  1.0134  0.2826
  250SOL     OW  997   2.156   0.888   2.368  0.2930  0.7546  0.0217
  250SOL    HW1  998   2.221   0.807   2.356 -2.0073  0.2449  0.5664
  250SOL    HW2  999   2.210   0.954   2.422  1.6953 -3.3878  0.0406
  250SOL     MW 1000   2.172   0.886   2.374  0.1746  0.1408  0.0960
  251SOL     OW 1001   0.191   0.825   1.995  0.0536  0.2293 -0.1131
  251SOL    HW1 1002   0.168   0.740   2.038  0.7123 -1.2768 -1.6075
  251SOL    HW2 1003   0.179   0.805   1.906 -0.3885 -0.5343  0.5568
  251SOL     MW 1004   0.187   0.811   1.989  0.0822 -0.0701 -0.2219
  252SOL     OW 1005   1.714   1.006   2.821  0.4852 -0.1308 -0.4469
  252SOL    HW1 1006   1.736   1.062   2.898  0.3082  0.4403 -1.7492
  252SOL    HW2 1007   1.772   1.024   2.747  1.7135 -1.2289  0.7776
  252SOL     MW 1008   1.725   1.016   2.821  0.6239 -0.2003 -0.4571
  253SOL     OW 1009   1.146   1.731   2.555 -0.6217  0.1091 -0.1570
  253SOL    HW1 1010   1.138   1.783   2.476  2.4910  2.2839 -0.5195
  253SOL    HW2 1011   1.055   1.759   2.588  2.8125  1.2654  0.4726
  253SOL     MW 1012   1.133   1.742   2.549  0.2421  0.5486 -0.1218
  254SOL     OW 1013   1.027   1.025   2.324  0.0275 -0.2259 -0.8164
  254SOL    HW1 1014   1.010   0.935   2.294 -0.5804  0.4380 -1.8098
  254SOL    HW2 1015   0.946   1.075   2.315  2.5778 -0.6949 -0.4447
  254SOL     MW 1016   1.014   1.020   2.319  0.2838 -0.2002 -0.8985
  255SOL     OW 1017   0.796   2.406   2.234  0.2432 -0.1684 -0.5883
  255SOL    HW1 1018   0.700   2.396   2.242 -1.7790  1.0862  1.1855
  255SOL    HW2 1019   0.826   2.438   2.319 -0.0463  1.2826  0.3227
  255SOL     MW 1020   0.787   2.409   2.246 -0.0618  0.1886 -0.2341
  256SOL     OW 1021   1.157   2.821   2.898 -0.3337 -0.5477 -0.1321
  256SOL    HW1 1022   1.172   2.725   2.887 -0.7969  1.2417 -0.0297
  256SOL    HW2 1023   1.244   2.868   2.881  1.0565  0.8658  0.3444
  256SOL     MW 1024   1.171   2.814   2.895 -0.2114 -0.1251 -0.0557
  257SOL     OW 1025   0.118   1.856   0.053  0.3179 -0.5084  0.8013
  257SOL    HW1 1026   0.134   1.813   0.141 -0.7809  0.1168 -2.7947
  257SOL    HW2 1027   0.171   1.806  -0.010 -3.1715 -0.0213 -0.0926
  257SOL     MW 1028   0.127   1.844   0.056 -0.2875 -0.3617  0.2089
  258SOL     OW 1029   0.668   1.059   2.472  0.4108 -0.0548 -0.0523
  258SOL    HW1 1030   0.715   1.101   2.403 -0.7910  0.5926 -0.0856
  258SOL    HW2 1031   0.586   1.115   2.466 -2.5278  1.8380 -4.2820
  258SOL     MW 1032   0.663   1.072   2.462 -0.1355  0.2803 -0.6147
  259SOL     OW 1033   0.675   0.479   2.449  0.7728  0.0677 -0.6103
  259SOL    HW1 1034   0.594   0.523   2.417  0.2754 -1.5474 -1.0682
  259SOL    HW2 1035   0.669   0.387   2.409 -1.1323  0.1077 -0.1318
  259SOL     MW 1036   0.663   0.473   2.440  0.4558 -0.1401 -0.6076
  260SOL     OW 1037   0.599   0.128   1.594 -0.6802 -0.3649  0.1406
  260SOL    HW1 1038   0.556   0.108   1.512 -1.1348 -2.2610  0.2011
  260SOL    HW2 1039   0.690   0.146   1.567  1.1250 -0.9843  0.6459
  260SOL     MW 1040   0.605   0.128   1.579 -0.5020 -0.6968  0.2153
  261SOL     OW 1041   1.125   0.665   2.116  0.5579 -0.0601  0.1521
  261SOL    HW1 1042   1.146   0.641   2.208  1.5211 -0.4084  0.1089
  261SOL    HW2 1043   1.189   0.629   2.058 -2.1828 -2.1451 -0.3857
  261SOL     MW 1044   1.137   0.657   2.120  0.3234 -0.3811  0.0754
  262SOL     OW 1045   1.130   0.348   0.081  0.2654  0.1089  0.0034
  262SOL    HW1 1046   1.223   0.352   0.092 -1.9282  1.1053 -0.6004
  262SOL    HW2 1047   1.123   0.332  -0.010  0.1242  0.2378 -1.3420
  262SOL     MW 1048   1.141   0.346   0.071 -0.0427  0.2573 -0.2538
  263SOL     OW 1049   0.488   3.028   2.532 -0.0506  0.2766  0.7553
  263SOL    HW1 1050   0.418   3.093   2.529 -2.2912  1.2829  0.6377
  263SOL    HW2 1051   0.506   2.987   2.445  0.5550 -1.2499  0.6956
  263SOL     MW 1052   0.481   3.031   2.520 -0.2663  0.2080  0.7319
  264SOL     OW 1053   1.550   1.375   1.945 -0.2060  0.4308 -0.0779
  264SOL    HW1 1054   1.484   1.402   2.005 -1.5560 -0.9548  0.3000
  264SOL    HW2 1055   1.627   1.356   2.004  2.3387  0.3809 -1.8652
  264SOL     MW 1056   1.551   1.376   1.960 -0.0484  0.2414 -0.2638
  265SOL     OW 1057   0.685   2.738   2.247  0.4774 -0.3930 -0.3636
  265SOL    HW1 1058   0.700   2.662   2.198 -1.5556  1.1670  3.6465
  265SOL    HW2 1059   0.716   2.717   2.336 -0.9040  1.0093 -0.8882
  265SOL     MW 1060   0.691   2.725   2.252  0.0269 -0.0022  0.0962
  266SOL     OW 1061   0.898   0.794   2.253  0.2197  0.6785 -0.8934
  266SOL    HW1 1062   0.946   0.727   2.194 -0.3537 -0.6734 -0.1120
  266SOL    HW2 1063   0.895   0.745   2.341 -1.5377  0.7914  1.9839
  266SOL     MW 1064   0.904   0.778   2.257 -0.0878  0.5150 -0.4107
  267SOL     OW 1065   1.386   1.794   2.693  0.3659 -0.2267  0.4975
  267SOL    HW1 1066   1.458   1.740   2.664  0.9177 -0.4757 -2.2614
  267SOL    HW2 1067   1.317   1.780   2.634 -2.3424  0.8711  2.0954
  267SOL     MW 1068   1.387   1.785   2.682  0.0813 -0.1147  0.3443
  268SOL     OW 1069   0.193   0.758   1.706  0.1480 -0.4869  0.4408
  268SOL    HW1 1070   0.127   0.800   1.651  1.2016 -0.8797 -1.1905
  268SOL    HW2 1071   0.210   0.672   1.676 -2.4678  4.4529 -1.7576
  268SOL     MW 1072   0.186   0.752   1.695 -0.0581  0.1130 -0.0645
  269SOL     OW 1073   1.440   1.963   2.445 -0.3987  0.1453  0.3757
  269SOL    HW1 1074   1.494   1.937   2.513 -1.4797  2.4968 -4.2444
  269SOL    HW2 1075   1.381   2.025   2.487  3.0662 -2.2122 -0.0975
  269SOL     MW 1076   1.439   1.967   2.459 -0.0842  0.1445 -0.2963
  270SOL     OW 1077   1.172   0.452   1.611 -0.2179 -0.3639 -0.3202
  270SOL    HW1 1078   1.147   0.357   1.629 -1.5480 -2.2891  0.9704
  270SOL    HW2 1079   1.266   0.446   1.589 -2.4126  0.9248  0.3592
  270SOL     MW 1080   1.181   0.438   1.611 -0.6829 -0.4479 -0.0603
  271SOL     OW 1081   0.862   3.080   2.389 -0.8364 -0.3858 -0.2446
  271SOL    HW1 1082   0.890   3.034   2.473 -1.4359  1.4604  0.6907
  271SOL    HW2 1083   0.903   3.169   2.393  2.0020  0.3344 -1.3225
  271SOL     MW 1084   0.871   3.086   2.401 -0.5410 -0.0472 -0.2634
  272SOL     OW 1085   1.382   2.982   2.828  0.1943 -0.8292  0.4996
  272SOL    HW1 1086   1.330   3.007   2.754 -0.7375 -3.0149 -0.5793
  272SOL    HW2 1087   1.372   3.058   2.888 -0.9345 -0.4215 -1.3845
  272SOL     MW 1088   1.374   2.995   2.826 -0.0776 -1.0638  0.1087
  273SOL     OW 1089   1.437   0.935   2.886 -0.3109  0.2825 -0.1384
  273SOL    HW1 1090   1.528   0.937   2.856 -1.2711 -0.4974  3.0210
  273SOL    HW2 1091   1.407   1.024   2.904  2.4475  1.1919  0.3983
  273SOL     MW 1092   1.445   0.947   2.885 -0.0736  0.2996  0.3493
  274SOL     OW 1093   1.337   0.739   0.141 -0.2385  0.5471  0.5028
  274SOL    HW1 1094   1.375   0.656   0.162 -0.2234  0.0446 -0.4566
  274SOL    HW2 1095   1.249   0.741   0.194 -2.6382  0.2813  0.4653
  274SOL     MW 1096   1.330   0.729   0.151 -0.5531  0.4457  0.3713
  275SOL     OW 1097   1.702   0.709   1.821 -0.1510  0.3064 -0.0378
  275SOL    HW1 1098   1.772   0.735   1.887 -0.3674  1.6117 -0.7609
  275SOL    HW2 1099   1.713   0.613   1.818 -2.1207 -0.4825  0.5681
  275SOL     MW 1100   1.713   0.700   1.829 -0.4395  0.3746 -0.0533
  276SOL     OW 1101   0.245   1.174   1.814 -0.2024  0.0477  0.0289
  276SOL    HW1 1102   0.269   1.088   1.842 -4.3975  2.0822  1.1384
  276SOL    HW2 1103   0.207   1.206   1.893 -1.1143  0.8613 -0.1543
  276SOL     MW 1104   0.243   1.167   1.828 -0.8762  0.4235  0.1511
  277SOL     OW 1105   1.943   1.372   2.647 -0.3528 -0.0935 -0.4200
  277SOL    HW1 1106   2.010   1.437   2.681  1.7136 -0.5452 -0.7905
  277SOL    HW2 1107   1.999   1.292   2.634  1.6192 -0.4375 -0.1937
  277SOL     MW 1108   1.960   1.370   2.650  0.1800 -0.1985 -0.4390
  278SOL     OW 1109   1.434   0.661   1.732  0.6297  0.2104 -0.2575
  278SOL    HW1 1110   1.394   0.614   1.809 -0.0822  1.1307  0.2361
  278SOL    HW2 1111   1.516   0.693   1.778  0.4688  1.4451 -1.4983
  278SOL     MW 1112   1.440   0.659   1.748  0.5145  0.4947 -0.3561
  279SOL     OW 1113   0.572   3.054   2.263  0.0796 -0.0286 -0.6444
  279SOL    HW1 1114   0.665   3.034   2.245 -2.0164  0.9886 -3.0806
  279SOL    HW2 1115   0.569   3.132   2.317 -1.7192 -0.1169  0.9657
  279SOL     MW 1116   0.584   3.062   2.267 -0.4343  0.0940 -0.7534
  280SOL     OW 1117   1.501   1.145   2.225  0.3260 -0.3299 -0.5001
  280SOL    HW1 1118   1.498   1.061   2.177  0.6931  0.5559 -0.9401
  280SOL    HW2 1119   1.498   1.112   2.311  0.6111  1.4743  0.2280
  280SOL     MW 1120   1.500   1.130   2.230  0.4120  0.0250 -0.4621
  281SOL     OW 1121   1.261   1.412   2.855  0.3803 -0.7620  0.4850
  281SOL    HW1 1122   1.358   1.418   2.843 -0.5469  0.1151 -0.6370
  281SOL    HW2 1123   1.248   1.322   2.886 -2.2106 -2.1641  0.2445
  281SOL     MW 1124   1.272   1.401   2.857 -0.0839 -0.8313  0.3052
  282SOL     OW 1125   1.128   1.301   1.693  0.4867 -0.0589 -0.0273
  282SOL    HW1 1126   1.121   1.357   1.612  3.2703  1.7761 -0.4836
  282SOL    HW2 1127   1.037   1.287   1.723 -0.4148  3.0255  1.8546
  282SOL     MW 1128   1.115   1.306   1.687  0.7350  0.5901  0.1608
  283SOL     OW 1129   0.712   1.239   3.083  0.1489  0.6923 -0.0743
  283SOL    HW1 1130   0.808   1.230   3.084 -0.5224  2.4963  1.2433
  283SOL    HW2 1131   0.689   1.325   3.108  2.0613 -0.4337 -1.7920
  283SOL     MW 1132   0.722   1.249   3.086  0.3127  0.7818 -0.1271
  284SOL     OW 1133   0.470   0.636   2.333 -0.2442  0.3095  0.0022
  284SOL    HW1 1134   0.534   0.703   2.292  0.2528  1.2806 -0.7677
  284SOL    HW2 1135   0.472   0.574   2.255  0.3627 -3.8661  2.1033
  284SOL     MW 1136   0.479   0.636   2.318 -0.0986 -0.1133  0.1778
  285SOL     OW 1137   0.877   0.938   2.846 -0.5917  1.1699  0.5861
  285SOL    HW1 1138   0.926   0.958   2.774 -0.6458  0.3773  0.2902
  285SOL    HW2 1139   0.843   0.853   2.817 -2.8768 -2.1874  0.4397
  285SOL     MW 1140   0.879   0.930   2.833 -0.9003  0.6224  0.5278
  286SOL     OW 1141   1.176   1.457   2.593  0.0405 -0.3948 -0.2357
  286SOL    HW1 1142   1.205   1.427   2.683 -1.4901  1.9130 -0.0825
  286SOL    HW2 1143   1.175   1.553   2.586  1.9839 -0.1480 -2.0813
  286SOL     MW 1144   1.180   1.466   2.604  0.0950 -0.0577 -0.4590
  287SOL     OW 1145   1.041   0.960   0.405  0.0816 -0.2425 -1.1583
  287SOL    HW1 1146   1.133   0.975   0.435 -0.6931 -1.1565 -0.8054
  287SOL    HW2 1147   0.998   1.029   0.352  0.2348 -1.4357  0.8298
  287SOL     MW 1148   1.048   0.971   0.402 -0.0004 -0.5205 -0.8494
  288SOL     OW 1149   1.499   0.637   2.137 -0.2342 -0.1361 -0.2271
  288SOL    HW1 1150   1.481   0.647   2.231  0.5444 -0.3460 -3.6853
  288SOL    HW2 1151   1.501   0.726   2.106 -3.0829 -1.4685 -1.1242
  288SOL     MW 1152   1.497   0.650   2.145 -0.5073 -0.3396 -0.8018
  289SOL     OW 1153   0.906   1.089   2.591  0.5678  0.3231  0.7679
  289SOL    HW1 1154   0.969   1.033   2.539 -1.5539 -1.8996  0.0134
  289SOL    HW2 1155   0.815   1.062   2.570 -1.8664 -2.3943  2.5250
  289SOL     MW 1156   0.903   1.078   2.581 -0.0333 -0.3287  0.9002
  290SOL     OW 1157   0.855   0.608   1.532 -0.1276 -1.1650 -0.1008
  290SOL    HW1 1158   0.906   0.570   1.464 -1.4795  0.0733 -0.2859
  290SOL    HW2 1159   0.899   0.604   1.619  0.4478  0.8396  1.3295
  290SOL     MW 1160   0.868   0.603   1.535 -0.2301 -0.7371  0.0635
  291SOL     OW 1161   0.185   0.346   0.221 -0.6910  0.0948  0.1661
  291SOL    HW1 1162   0.261   0.303   0.253 -1.2560  0.4945  0.1773
  291SOL    HW2 1163   0.141   0.276   0.178  1.8712  0.5188  0.5195
  291SOL     MW 1164   0.189   0.331   0.220 -0.4275  0.2034  0.2142
  292SOL     OW 1165   0.952   0.565   0.092  0.4311 -0.2829  0.1821
  292SOL    HW1 1166   0.978   0.633   0.155  0.3177 -1.9626  0.0630
  292SOL    HW2 1167   1.024   0.502   0.096 -1.3557  0.5901 -0.0315
  292SOL     MW 1168   0.965   0.566   0.101  0.1804 -0.3894  0.1382
  293SOL     OW 1169   0.234   0.061   2.498  0.1915 -0.2420 -0.0757
  293SOL    HW1 1170   0.159   0.048   2.437 -1.9818 -0.4636  1.4215
  293SOL    HW2 1171   0.210   0.124   2.564 -0.6892 -1.6702 -1.5214
  293SOL     MW 1172   0.221   0.068   2.499 -0.2114 -0.4597 -0.0689
  294SOL     OW 1173   1.463   0.628   2.413 -0.4382 -0.2584 -0.9313
  294SOL    HW1 1174   1.478   0.695   2.481 -1.0206  0.4017  2.5006
  294SOL    HW2 1175   1.476   0.539   2.445 -1.5338  1.2824 -2.2332
  294SOL     MW 1176   1.467   0.625   2.426 -0.6596  0.0320 -0.6503
  295SOL     OW 1177   0.857   0.667   2.496  1.0353  0.2707 -0.0546
  295SOL    HW1 1178   0.788   0.600   2.464  1.7104 -1.0630 -0.6506
  295SOL    HW2 1179   0.805   0.698   2.575 -1.0707  1.0303  0.0057
  295SOL     MW 1180   0.841   0.662   2.502  0.8465  0.1950 -0.1253
  296SOL     OW 1181   1.308   0.318   2.079  0.3407  0.4364 -0.0440
  296SOL    HW1 1182   1.389   0.273   2.075  1.6393 -3.4637 -0.2061
  296SOL    HW2 1183   1.256   0.272   2.144  3.2085  0.6350  4.6223
  296SOL     MW 1184   1.312   0.306   2.087  0.8904 -0.0520  0.5503
  297SOL     OW 1185   1.423   0.421   1.517  0.8592 -0.0789  0.2598
  297SOL    HW1 1186   1.477   0.501   1.495 -1.5425 -1.1642 -1.3208
  297SOL    HW2 1187   1.486   0.356   1.551 -0.2619 -0.2005  2.8903
  297SOL     MW 1188   1.439   0.423   1.518  0.3944 -0.2381  0.3983
  298SOL     OW 1189   1.519   0.924   2.073  0.3035  0.0124 -0.0423
  298SOL    HW1 1190   1.522   0.971   1.988  1.3230  1.7262  1.2570
  298SOL    HW2 1191   1.607   0.924   2.108 -2.1538  0.1766  0.3127
  298SOL     MW 1192   1.531   0.930   2.067  0.1138  0.2602  0.1759
  299SOL     OW 1193   0.527   1.030   3.099 -0.2163 -0.0150  0.6035
  299SOL    HW1 1194   0.605   1.085   3.089  0.9181  1.9648 -5.1211
  299SOL    HW2 1195   0.484   1.050   3.010 -0.8554  0.0394  1.0031
  299SOL     MW 1196   0.531   1.040   3.086 -0.1509  0.2534 -0.0991
  300SOL     OW 1197   1.230   1.134   2.509  0.3220  0.3839  0.3765
  300SOL    HW1 1198   1.178   1.079   2.445 -2.1814 -0.4074 -2.3721
  300SOL    HW2 1199   1.185   1.213   2.543  0.7994 -0.0963  0.3257
  300SOL     MW 1200   1.217   1.137   2.505  0.0547  0.2161  0.0072
  301SOL     OW 1201   1.366   0.715   0.572 -0.0271  0.2547  0.0301
  301SOL    HW1 1202   1.381   0.708   0.668 -2.2048 -0.7486  0.9567
  301SOL    HW2 1203   1.299   0.649   0.556 -3.4199  0.4447 -0.7902
  301SOL     MW 1204   1.359   0.706   0.582 -0.7620  0.1474  0.0441
  302SOL     OW 1205   0.128   1.457   1.951 -0.2960  0.3956  0.9269
  302SOL    HW1 1206   0.143   1.393   2.019  0.1885  1.1518 -0.0730
  302SOL    HW2 1207   0.069   1.516   1.996 -0.1725 -2.1555  0.1205
  302SOL     MW 1208   0.122   1.456   1.966 -0.2158  0.1588  0.6886
  303SOL     OW 1209   0.397   1.760   2.574 -0.1495 -0.6085 -0.2851
  303SOL    HW1 1210   0.393   1.764   2.479  2.2971  1.3919 -0.8078
  303SOL    HW2 1211   0.319   1.800   2.611  3.5066 -0.1920  0.1439
  303SOL     MW 1212   0.386   1.766   2.566  0.6557 -0.2896 -0.2975
  304SOL     OW 1213   0.527   2.078   2.423  1.0460  0.2006 -0.2014
  304SOL    HW1 1214   0.523   2.166   2.388  4.0209 -0.4249  0.1877
  304SOL    HW2 1215   0.614   2.052   2.388 -0.5989  2.6425  1.6230
  304SOL     MW 1216   0.538   2.086   2.413  1.2214  0.4402  0.0906
  305SOL     OW 1217   1.154   0.547   0.514 -0.5921 -0.0398 -0.0176
  305SOL    HW1 1218   1.054   0.543   0.536 -1.9277 -1.9779  1.4837
  305SOL    HW2 1219   1.196   0.463   0.535  1.9129  1.4251  1.6393
  305SOL     MW 1220   1.146   0.536   0.519 -0.4378 -0.1022  0.3991
  306SOL     OW 1221   1.219   1.437   0.307 -0.3442 -0.0047 -0.0138
  306SOL    HW1 1222   1.270   1.360   0.326 -0.9912  1.9116  0.6074
  306SOL    HW2 1223   1.257   1.468   0.216 -1.4924 -0.0321 -3.0249
  306SOL     MW 1224   1.231   1.431   0.297 -0.5811  0.2445 -0.3291
  307SOL     OW 1225   1.324   0.569   1.951  0.1633 -0.0157  0.3448
  307SOL    HW1 1226   1.292   0.478   1.973 -2.5461  1.4679 -1.6234
  307SOL    HW2 1227   1.399   0.584   2.009  0.7505  0.1552 -0.2145
  307SOL     MW 1228   1.330   0.559   1.962 -0.1167  0.2026  0.0113
  308SOL     OW 1229   2.110   0.617   2.689  0.5187  0.3543 -0.2460
  308SOL    HW1 1230   2.093   0.529   2.720 -1.8209 -0.1257 -0.9072
  308SOL    HW2 1231   2.179   0.625   2.749 -0.5757  1.1750 -2.2162
  308SOL     MW 1232   2.117   0.607   2.701  0.0656  0.3993 -0.5932
  309SOL     OW 1233   0.563   0.500   0.421  0.0484  0.4402  0.3748
  309SOL    HW1 1234   0.582   0.405   0.436  1.2164 -0.3082  1.5830
  309SOL    HW2 1235   0.549   0.498   0.326  1.7041  0.4329 -0.0276
  309SOL     MW 1236   0.564   0.487   0.410  0.4209  0.3405  0.4811
  310SOL     OW 1237   0.432   0.526   1.918  0.6576 -0.3819  0.1746
  310SOL    HW1 1238   0.473   0.458   1.860 -1.2151 -0.4893 -1.2014
  310SOL    HW2 1239   0.499   0.596   1.917 -0.2455 -0.8421 -0.6558
  310SOL     MW 1240   0.446   0.526   1.910  0.2913 -0.4568 -0.1165
  311SOL     OW 1241   1.909   0.751   1.987  0.3042 -0.0855  0.1080
  311SOL    HW1 1242   1.873   0.790   2.069  0.2786  0.2767  1.7432
  311SOL    HW2 1243   1.948   0.667   2.013  0.4661  3.0544 -0.5606
  311SOL     MW 1244   1.909   0.745   2.001  0.3222  0.3766  0.2355
  312SOL     OW 1245   1.752   2.537   0.003 -0.1470 -0.4228  0.2202
  312SOL    HW1 1246   1.758   2.566   0.091 -0.6556 -3.0501  0.2001
  312SOL    HW2 1247   1.651   2.536   0.001 -1.5411  1.8951 -2.9858
  312SOL     MW 1248   1.739   2.541   0.014 -0.3980 -0.4637 -0.2055
  313SOL     OW 1249   0.090   1.235   2.963  0.2697  0.1059 -0.2268
  313SOL    HW1 1250   0.161   1.218   3.028 -1.6787 -3.6189  1.4341
  313SOL    HW2 1251   0.137   1.240   2.880 -1.0201  0.9335  0.5307
  313SOL     MW 1252   0.106   1.234   2.961 -0.1575 -0.2763  0.0923
  314SOL     OW 1253   2.153   3.042   2.960 -0.3247  0.0464 -0.1676
  314SOL    HW1 1254   2.089   3.104   2.914  0.8884 -0.2586  1.6839
  314SOL    HW2 1255   2.204   3.094   3.021 -0.4125  1.7194  0.2112
  314SOL     MW 1256   2.151   3.057   2.962 -0.1762  0.2269  0.1267
  315SOL     OW 1257   1.559   1.970   3.022 -0.1537 -0.1411  0.2104
  315SOL    HW1 1258   1.499   2.013   3.079  0.0882  0.2784 -2.2130
  315SOL    HW2 1259   1.585   2.038   2.954  2.1292 -0.1362 -2.2858
  315SOL     MW 1260   1.555   1.985   3.021  0.1794 -0.0851 -0.4387
  316SOL     OW 1261   1.229   0.670   2.675 -0.0532 -0.0984  0.3629
  316SOL    HW1 1262   1.311   0.633   2.651 -0.6879  0.1155  2.3989
  316SOL    HW2 1263   1.214   0.649   2.761 -0.5653  1.5162 -0.5336
  316SOL     MW 1264   1.238   0.663   2.683 -0.2045  0.1429  0.5132
  317SOL     OW 1265   0.636   1.408   2.579  0.5754  0.5639  0.2730
  317SOL    HW1 1266   0.683   1.353   2.633 -1.1061  0.7476 -1.5697
  317SOL    HW2 1267   0.681   1.449   2.509 -1.3765 -0.7489  3.2934
  317SOL     MW 1268   0.648   1.406   2.577  0.0960  0.4149  0.4284
  318SOL     OW 1269   1.292   0.336   2.904  0.4448 -0.1468  0.3364
  318SOL    HW1 1270   1.206   0.393   2.893  1.1579  1.1632 -2.2037
  318SOL    HW2 1271   1.360   0.384   2.854  1.0139  1.5812  1.4658
  318SOL     MW 1272   1.290   0.350   2.896  0.6140  0.2540  0.1503
  319SOL     OW 1273   0.823   0.405   2.764  0.1734  0.2513 -0.0213
  319SOL    HW1 1274   0.813   0.364   2.682  2.0086  1.2644  1.3178
  319SOL    HW2 1275   0.742   0.392   2.814  0.0384 -0.3862  1.3820
  319SOL     MW 1276   0.811   0.398   2.760  0.3977  0.3008  0.3405
  320SOL     OW 1277   0.999   1.329   2.024 -0.3169  0.2494 -0.2011
  320SOL    HW1 1278   1.068   1.263   2.053  2.7028 -0.3644  0.8832
  320SOL    HW2 1279   1.053   1.389   1.969 -0.1145 -0.9656 -1.0758
  320SOL     MW 1280   1.016   1.328   2.021  0.1082  0.0081 -0.1734
  321SOL     OW 1281   1.098   0.955   3.012  0.2142 -0.1963  0.5169
  321SOL    HW1 1282   1.019   0.941   2.952  0.2501  2.4004 -2.5276
  321SOL    HW2 1283   1.151   0.873   3.005  0.5965  0.8924  0.9382
  321SOL     MW 1284   1.095   0.943   3.003  0.2694  0.2899  0.1708
  322SOL     OW 1285   1.187   0.817   1.717 -0.3455 -0.1698  0.7633
  322SOL    HW1 1286   1.264   0.763   1.722 -0.0941  0.9708  0.2080
  322SOL    HW2 1287   1.174   0.872   1.796 -1.9895  2.6157 -0.3665
  322SOL     MW 1288   1.196   0.817   1.728 -0.5293  0.3482  0.5409
  323SOL     OW 1289   1.183   1.496   1.883  0.1494 -0.1142  0.1592
  323SOL    HW1 1290   1.186   1.418   1.828  1.0246 -3.0718 -2.5751
  323SOL    HW2 1291   1.115   1.559   1.844 -0.3657  1.1166 -0.6606
  323SOL     MW 1292   1.174   1.494   1.871  0.1969 -0.3421 -0.3097
  324SOL     OW 1293   1.516   1.093   2.488  0.5703  0.5435  0.3574
  324SOL    HW1 1294   1.421   1.104   2.501  0.3834 -0.6474 -0.6456
  324SOL    HW2 1295   1.582   1.151   2.527 -0.5740 -1.3294  2.3663
  324SOL     MW 1296   1.512   1.102   2.495  0.3946  0.1392  0.4901
  325SOL     OW 1297   1.058   0.484   2.900  0.3423  0.1078 -0.5508
  325SOL    HW1 1298   1.036   0.552   2.964  1.3590  2.7586  0.6028
  325SOL    HW2 1299   0.970   0.453   2.869  1.1604 -2.4962  0.2216
  325SOL     MW 1300   1.043   0.489   2.904  0.5844  0.1139 -0.2967
  326SOL     OW 1301   0.394   1.366   2.200  0.6636 -1.2433  0.3488
  326SOL    HW1 1302   0.463   1.327   2.144  1.2236  1.2030 -3.6974
  326SOL    HW2 1303   0.425   1.457   2.207 -0.1527 -0.2015  2.1527
  326SOL     MW 1304   0.407   1.373   2.194  0.6298 -0.7831  0.0530
  327SOL     OW 1305   1.896   0.841   2.399 -0.6876  0.3348  0.1737
  327SOL    HW1 1306   1.879   0.793   2.483 -1.1992 -0.5781  1.3600
  327SOL    HW2 1307   1.986   0.880   2.402  0.3398  0.4192 -0.5993
  327SOL     MW 1308   1.905   0.840   2.410 -0.6196  0.2255  0.2282
  328SOL     OW 1309   0.131   1.334   2.198  0.1097 -0.1757  0.2798
  328SOL    HW1 1310   0.121   1.248   2.154  3.0543 -1.7627  2.4054
  328SOL    HW2 1311   0.224   1.353   2.207 -2.5144  2.2563  0.0252
  328SOL     MW 1312   0.142   1.325   2.194  0.1520 -0.0642  0.5267
  329SOL     OW 1313   0.116   0.170   1.379  0.0006  0.3321 -0.1020
  329SOL    HW1 1314   0.060   0.213   1.442  3.3995  0.4744 -4.0581
  329SOL    HW2 1315   0.208   0.196   1.393 -1.1595 -1.2005 -1.8456
  329SOL     MW 1316   0.121   0.179   1.389  0.2960  0.1487 -0.8540
  330SOL     OW 1317   0.400   2.980   2.063  0.0752  0.3109 -0.2338
  330SOL    HW1 1318   0.469   2.992   2.126 -1.1590  0.3751 -2.5866
  330SOL    HW2 1319   0.313   2.979   2.115  0.5467 -0.4634  1.9684
  330SOL     MW 1320   0.398   2.981   2.078 -0.0254  0.2172 -0.2536
  331SOL     OW 1321   0.824   1.203   2.262  0.2574 -0.1308  0.0755
  331SOL    HW1 1322   0.777   1.214   2.174 -0.5030  0.5832  0.9320
  331SOL    HW2 1323   0.841   1.289   2.304  1.5444  0.9584  0.8548
  331SOL     MW 1324   0.820   1.215   2.256  0.3269  0.1071  0.2913
  332SOL     OW 1325   1.392   1.762   2.963 -0.8646  0.4574 -0.2536
  332SOL    HW1 1326   1.371   1.793   2.873 -0.0485 -1.0916 -0.7010
  332SOL    HW2 1327   1.437   1.837   2.998 -1.3786  0.0771  0.4104
  332SOL     MW 1328   1.395   1.776   2.955 -0.8247  0.2029 -0.2250
  333SOL     OW 1329   1.714   1.510   3.009 -0.3715  0.0201 -0.1938
  333SOL    HW1 1330   1.799   1.540   3.036 -1.5009  2.5429 -0.7928
  333SOL    HW2 1331   1.693   1.449   3.081  0.4504 -0.4025 -0.8204
  333SOL     MW 1332   1.723   1.506   3.022 -0.4121  0.2972 -0.3555
  334SOL     OW 1333   1.229   3.094   2.645 -0.1321  0.0775  0.2260
  334SOL    HW1 1334   1.148   3.095   2.692  4.4006 -1.5485 -0.5364
  334SOL    HW2 1335   1.261   3.187   2.641  1.6616 -0.2951 -0.5163
  334SOL     MW 1336   1.223   3.106   2.651  0.7026 -0.1862  0.0275
  335SOL     OW 1337   1.266   0.742   2.988 -0.0824 -0.0032  0.1405
  335SOL    HW1 1338   1.282   0.720   3.083  0.1808 -3.9880  1.8637
  335SOL    HW2 1339   1.347   0.785   2.963 -1.5725 -0.1534 -0.0296
  335SOL     MW 1340   1.279   0.745   2.998 -0.2443 -0.5488  0.3454
  336SOL     OW 1341   0.898   1.127   1.866  0.1806  0.8867  0.0725
  336SOL    HW1 1342   0.911   1.200   1.924 -2.7070  0.3644  2.2789
  336SOL    HW2 1343   0.960   1.058   1.871 -0.6686 -1.8484  1.5475
  336SOL     MW 1344   0.907   1.128   1.874 -0.3124  0.4569  0.5582
  337SOL     OW 1345   0.533   1.771   2.841 -0.3114  0.3395 -0.0718
  337SOL    HW1 1346   0.480   1.804   2.763 -2.8366 -0.7082  0.4629
  337SOL    HW2 1347   0.610   1.729   2.795  0.1102  1.3259 -0.6532
  337SOL     MW 1348   0.536   1.770   2.825 -0.5890  0.3314 -0.0780
  338SOL     OW 1349   1.071   0.823   2.531  0.2873 -0.3048  0.2254
  338SOL    HW1 1350   0.992   0.770   2.551  3.4173 -2.7735  1.8220
  338SOL    HW2 1351   1.138   0.769   2.582  3.2592 -2.9398  0.8517
  338SOL     MW 1352   1.070   0.809   2.540  1.0924 -0.9781  0.5187
  339SOL     OW 1353   1.530   1.106   1.830  0.6685 -0.5951  0.1832
  339SOL    HW1 1354   1.455   1.127   1.769  1.2702 -1.9455 -0.8412
  339SOL    HW2 1355   1.543   1.182   1.884 -1.0629 -1.7741 -1.9788
  339SOL     MW 1356   1.521   1.119   1.829  0.5194 -0.9288 -0.2372
  340SOL     OW 1357   1.335   1.606   0.086  0.0430  0.0544  0.3735
  340SOL    HW1 1358   1.353   1.644   0.004  2.5656  0.6158  1.9224
  340SOL    HW2 1359   1.413   1.625   0.139 -2.6390  0.9159  0.3681
  340SOL     MW 1360   1.348   1.613   0.083  0.0220  0.2421  0.5771
  341SOL     OW 1361   0.179   1.338   2.670 -0.3035 -0.7512  0.5157
  341SOL    HW1 1362   0.251   1.402   2.660  0.3346 -1.1459 -3.1125
  341SOL    HW2 1363   0.118   1.345   2.593 -1.3239  0.1333 -2.4655
  341SOL     MW 1364   0.181   1.347   2.658 -0.3540 -0.6866 -0.3564
  342SOL     OW 1365   1.407   0.292   0.065  0.1195  0.4401 -0.4711
  342SOL    HW1 1366   1.447   0.374   0.103  0.0597  0.6106  0.9607
  342SOL    HW2 1367   1.380   0.307  -0.028 -2.7934  0.5498 -1.5785
  342SOL     MW 1368   1.408   0.305   0.058 -0.2727  0.4771 -0.4283
  343SOL     OW 1369   0.201   0.296   2.311  0.0145 -0.1957 -0.1896
  343SOL    HW1 1370   0.233   0.228   2.374  1.0691 -1.4815 -0.1849
  343SOL    HW2 1371   0.163   0.244   2.233  1.3870 -1.9475 -0.1962
  343SOL     MW 1372   0.200   0.280   2.309  0.3347 -0.5965 -0.1899
  344SOL     OW 1373   1.710   2.136   0.171 -0.2625 -0.8538  0.5590
  344SOL    HW1 1374   1.742   2.188   0.097  0.1433 -0.8066  1.9225
  344SOL    HW2 1375   1.692   2.053   0.134  3.0059  2.2734  0.5700
  344SOL     MW 1376   1.712   2.132   0.156  0.2223 -0.4350  0.7404
  345SOL     OW 1377   0.675   1.616   2.351  0.1148 -0.0635  0.1209
  345SOL    HW1 1378   0.581   1.622   2.321 -0.5541  0.2885 -1.7030
  345SOL    HW2 1379   0.726   1.560   2.289 -1.5490 -0.1906 -0.3531
  345SOL     MW 1380   0.669   1.609   2.339 -0.1929 -0.0339 -0.1823
  346SOL     OW 1381   1.690   1.052   0.027 -0.4528  0.5302  0.2395
  346SOL    HW1 1382   1.780   1.033   0.049 -3.3928 -1.2598  0.6162
  346SOL    HW2 1383   1.639   0.984   0.065  1.3014  1.5168 -1.9694
  346SOL     MW 1384   1.695   1.041   0.035 -0.6093  0.4242 -0.0022
  347SOL     OW 1385   1.182   0.601   2.386  0.4011 -0.2255 -0.1286
  347SOL    HW1 1386   1.278   0.623   2.384 -1.9314 -0.3669  2.8094
  347SOL    HW2 1387   1.135   0.675   2.420 -0.9530  0.1028  0.5553
  347SOL     MW 1388   1.188   0.614   2.390 -0.0853 -0.2009  0.3493
  348SOL     OW 1389   1.363   2.634   1.889 -0.3602  0.2896  0.2346
  348SOL    HW1 1390   1.401   2.553   1.921 -0.7701 -2.1960  1.5234
  348SOL    HW2 1391   1.399   2.713   1.926  3.2518 -2.5553 -0.0815
  348SOL     MW 1392   1.373   2.634   1.898  0.0623 -0.4137  0.3629
  349SOL     OW 1393   1.379   0.221   2.668  0.3000  0.0787 -0.6686
  349SOL    HW1 1394   1.342   0.267   2.745  1.6584  1.5637 -0.4314
  349SOL    HW2 1395   1.463   0.172   2.696 -0.4195 -0.3146  2.0964
  349SOL     MW 1396   1.385   0.221   2.682  0.3843  0.2228 -0.2725
  350SOL     OW 1397   1.856   0.696   2.631 -0.6713  0.7299 -0.4127
  350SOL    HW1 1398   1.807   0.637   2.570 -0.5479 -0.4040 -1.5443
  350SOL    HW2 1399   1.937   0.651   2.650 -1.0499 -1.3931 -0.6773
  350SOL     MW 1400   1.860   0.682   2.625 -0.7050  0.3002 -0.5969
  351SOL     OW 1401   3.101   0.932   1.591  0.1942  0.1107  0.2179
  351SOL    HW1 1402   3.022   0.947   1.639  1.4895  0.5527  1.6721
  351SOL    HW2 1403   3.135   1.021   1.586  2.4818 -0.2888  0.4114
  351SOL     MW 1404   3.095   0.946   1.597  0.6669  0.1163  0.4353
  352SOL     OW 1405   0.772   1.619   2.758 -0.5390  0.4706 -0.0675
  352SOL    HW1 1406   0.804   1.593   2.853  2.4706 -0.3606  2.4757
  352SOL    HW2 1407   0.765   1.533   2.716  1.1640 -1.3117 -1.1487
  352SOL     MW 1408   0.776   1.604   2.765  0.0828  0.1258  0.1254
  353SOL     OW 1409   3.020   2.401   2.764 -0.6761  0.1923  0.2449
  353SOL    HW1 1410   3.109   2.380   2.743  0.4110  1.2042  1.2002
  353SOL    HW2 1411   3.004   2.488   2.725 -0.0730 -0.9027 -1.1240
  353SOL     MW 1412   3.029   2.410   2.756 -0.4531  0.1814  0.1903
  354SOL     OW 1413   0.407   2.395   0.873  0.1357 -0.1655 -0.2319
  354SOL    HW1 1414   0.410   2.386   0.972  0.4676 -1.3330 -1.9100
  354SOL    HW2 1415   0.324   2.350   0.856 -0.1454 -1.5623  1.0429
  354SOL     MW 1416   0.397   2.388   0.884  0.1424 -0.5039 -0.2851
  355SOL     OW 1417   0.083   2.243   0.382 -0.0135 -0.4681 -0.0514
  355SOL    HW1 1418  -0.005   2.198   0.379 -1.8339 -1.9028 -1.3513
  355SOL    HW2 1419   0.078   2.281   0.472  0.0476 -0.3515 -2.3756
  355SOL     MW 1420   0.070   2.242   0.394 -0.2457 -0.6420 -0.5295
  356SOL     OW 1421   0.798   2.972   1.024  0.1759 -0.7181  0.5467
  356SOL    HW1 1422   0.862   2.945   0.959  2.8573 -1.7900  0.4343
  356SOL    HW2 1423   0.726   2.915   0.999  1.2938  1.2944  0.1616
  356SOL     MW 1424   0.797   2.961   1.012  0.6772 -0.5940  0.4810
  357SOL     OW 1425   1.793   2.934   0.368 -0.3077 -0.2017 -0.0282
  357SOL    HW1 1426   1.728   2.881   0.414  0.0233  0.4452  0.0226
  357SOL    HW2 1427   1.876   2.894   0.359 -2.5416 -1.1001 -0.2250
  357SOL     MW 1428   1.795   2.922   0.373 -0.5588 -0.2349 -0.0474
  358SOL     OW 1429   0.409   0.172   1.032 -0.8064 -0.3750 -0.8280
  358SOL    HW1 1430   0.495   0.165   1.000  1.3908  1.4734 -1.5273
  358SOL    HW2 1431   0.354   0.206   0.959 -2.7121 -1.1950  0.3963
  358SOL     MW 1432   0.413   0.176   1.018 -0.7680 -0.2393 -0.7588
  359SOL     OW 1433   0.992   2.771   1.837  0.4316 -0.0913 -0.4582
  359SOL    HW1 1434   0.933   2.725   1.899 -3.1293  0.4451 -0.4762
  359SOL    HW2 1435   1.044   2.708   1.782 -0.2995  3.3852 -4.9957
  359SOL     MW 1436   0.991   2.756   1.838 -0.1347  0.4382 -1.0592
  360SOL     OW 1437   0.621   2.783   0.930  0.7239  0.5632  0.5390
  360SOL    HW1 1438   0.625   2.730   0.848 -0.1267 -2.5314  0.3165
  360SOL    HW2 1439   0.593   2.731   1.012  0.3578  1.2600 -0.3381
  360SOL     MW 1440   0.618   2.769   0.930  0.5634  0.2468  0.3939
  361SOL     OW 1441   0.156   2.758   1.356 -0.0897  0.0010  0.3019
  361SOL    HW1 1442   0.167   2.847   1.382  1.3820 -3.6527 -1.0686
  361SOL    HW2 1443   0.243   2.721   1.377 -0.9696  0.5711 -2.4730
  361SOL     MW 1444   0.169   2.765   1.362 -0.0116 -0.4059 -0.2450
  362SOL     OW 1445   1.487   2.405   0.585  0.2093  0.8751 -0.0082
  362SOL    HW1 1446   1.515   2.332   0.642  0.8973 -0.4239 -1.6961
  362SOL    HW2 1447   1.481   2.470   0.654  0.6917 -1.6558 -0.4958
  362SOL     MW 1448   1.490   2.404   0.601  0.3637  0.3698 -0.2953
  363SOL     OW 1449   0.214   3.038   0.742  0.2000  0.4184  0.2876
  363SOL    HW1 1450   0.222   2.983   0.815  2.0501  0.0149 -0.0066
  363SOL    HW2 1451   0.132   3.025   0.695 -0.4404  0.8947  0.5033
  363SOL     MW 1452   0.204   3.029   0.745  0.3596  0.4280  0.2773
  364SOL     OW 1453   0.731   0.184   0.157 -0.0635 -0.3119 -0.5035
  364SOL    HW1 1454   0.699   0.092   0.169 -2.7527 -2.6587  0.9313
  364SOL    HW2 1455   0.670   0.250   0.183  2.0644 -2.1126  0.8592
  364SOL     MW 1456   0.719   0.181   0.162 -0.1376 -0.8591 -0.1344
  365SOL     OW 1457   0.997   1.960   1.133  0.2428 -0.3864  0.2098
  365SOL    HW1 1458   1.004   2.047   1.103  1.7218 -1.6006 -0.0541
  365SOL    HW2 1459   0.946   1.916   1.071 -0.6518  0.6892  1.7323
  365SOL     MW 1460   0.991   1.966   1.121  0.3199 -0.4046  0.3759
  366SOL     OW 1461   2.870   2.681   1.036 -0.0635 -0.1491 -0.3170
  366SOL    HW1 1462   2.963   2.686   1.080 -1.0467  1.6040  0.4755
  366SOL    HW2 1463   2.886   2.681   0.942  3.0319  0.0480 -1.9351
  366SOL     MW 1464   2.884   2.682   1.029  0.2152  0.1082 -0.4260
  367SOL     OW 1465   1.293   2.911   0.886 -0.1526 -0.3639 -0.0762
  367SOL    HW1 1466   1.229   2.933   0.945  1.4362  0.2956 -2.6677
  367SOL    HW2 1467   1.246   2.863   0.811 -0.6829  0.4678 -1.1259
  367SOL     MW 1468   1.278   2.907   0.884 -0.0129 -0.1671 -0.5566
  368SOL     OW 1469   1.693   0.442   0.648 -0.3309 -0.0106 -0.3866
  368SOL    HW1 1470   1.777   0.394   0.643 -1.5175 -1.1075  3.2317
  368SOL    HW2 1471   1.709   0.534   0.649  2.8211  0.1902  0.2578
  368SOL     MW 1472   1.706   0.448   0.648 -0.0716 -0.1288  0.1758
  369SOL     OW 1473   0.124   2.495   1.751  0.0306  0.6080 -0.2145
  369SOL    HW1 1474   0.214   2.461   1.763 -0.8024  1.4237  2.1590
  369SOL    HW2 1475   0.127   2.582   1.777  1.5678 -0.6829  0.0342
  369SOL     MW 1476   0.137   2.502   1.756  0.1235  0.5453  0.1315
  370SOL     OW 1477   0.665   0.104   0.950 -0.2893  0.0756  0.0236
  370SOL    HW1 1478   0.731   0.175   0.951  1.7018 -0.2481  0.4410
  370SOL    HW2 1479   0.701   0.030   1.002  0.1114 -1.1787  0.1307
  370SOL     MW 1480   0.679   0.103   0.957  0.0263 -0.1326  0.0928
  371SOL     OW 1481   1.334   2.971   1.525 -0.4007 -0.0384 -0.7153
  371SOL    HW1 1482   1.247   2.932   1.510  1.6746  0.8295  3.0644
  371SOL    HW2 1483   1.357   3.032   1.451  1.9306 -0.9019 -1.4712
  371SOL     MW 1484   1.326   2.974   1.513  0.1807 -0.0378 -0.3163
  372SOL     OW 1485   0.812   2.244   0.520  0.5024 -0.4196  0.1472
  372SOL    HW1 1486   0.748   2.166   0.534  0.3452 -0.6622  2.1781
  372SOL    HW2 1487   0.833   2.263   0.426  1.2061  0.8519  1.4919
  372SOL     MW 1488   0.806   2.237   0.509  0.5745 -0.2839  0.5926
  373SOL     OW 1489   2.837   3.039   1.394  0.2742  0.5608  0.3241
  373SOL    HW1 1490   2.898   3.008   1.323 -0.0839  2.2184 -0.7340
  373SOL    HW2 1491   2.801   3.120   1.351  0.8048  1.8566  1.0018
  373SOL     MW 1492   2.840   3.045   1.379  0.2970  0.9505  0.2739
  374SOL     OW 1493   1.497   0.531   0.226  0.2485 -0.3451  0.3728
  374SOL    HW1 1494   1.577   0.570   0.236 -1.5336 -1.5864 -0.9130
  374SOL    HW2 1495   1.470   0.494   0.307 -1.1107 -0.6116 -0.5008
  374SOL     MW 1496   1.504   0.531   0.238 -0.1660 -0.5441  0.0879
  375SOL     OW 1497   1.152   2.104   2.270  0.3845 -0.1089 -0.4420
  375SOL    HW1 1498   1.159   2.127   2.367  1.6070  1.6813  1.6338
  375SOL    HW2 1499   1.138   2.005   2.274 -1.7760  0.3988  1.6634
  375SOL     MW 1500   1.151   2.094   2.283  0.2607  0.1943  0.1096
  376SOL     OW 1501   0.668   2.542   0.142 -0.7711  0.0213  0.2901
  376SOL    HW1 1502   0.708   2.476   0.195 -0.9040  0.2948 -2.4110
  376SOL    HW2 1503   0.633   2.492   0.066  1.3097  0.5732 -2.1647
  376SOL     MW 1504   0.669   2.527   0.139 -0.5141  0.1302 -0.3902
  377SOL     OW 1505   1.213   2.063   0.932 -0.0852 -0.8807 -0.6313
  377SOL    HW1 1506   1.179   2.036   0.843 -2.1133  0.6036 -0.7634
  377SOL    HW2 1507   1.205   1.984   0.982 -1.9159 -0.3913  0.7607
  377SOL     MW 1508   1.208   2.049   0.927 -0.5943 -0.6203 -0.4651
  378SOL     OW 1509   0.962   2.802   1.509  0.3231  0.1235  0.4179
  378SOL    HW1 1510   0.889   2.737   1.525 -3.0174  0.5376  0.1632
  378SOL    HW2 1511   0.926   2.863   1.443 -0.6038 -0.1309  1.5945
  378SOL     MW 1512   0.947   2.802   1.502 -0.2399  0.1446  0.5395
  379SOL     OW 1513   1.056   1.835   2.297  0.2373  0.2023  0.0370
  379SOL    HW1 1514   0.963   1.847   2.315 -0.4659  0.9112 -2.4564
  379SOL    HW2 1515   1.081   1.745   2.270 -0.2002 -2.6629 -2.5406
  379SOL     MW 1516   1.047   1.825   2.296  0.0868 -0.0822 -0.6321
  380SOL     OW 1517   0.897   0.219   1.554  0.1117  0.2480 -0.2466
  380SOL    HW1 1518   0.907   0.168   1.469  1.8603 -2.9395 -0.7608
  380SOL    HW2 1519   0.976   0.193   1.605  1.6074 -1.2399  1.8708
  380SOL     MW 1520   0.909   0.209   1.550  0.5398 -0.3689 -0.0351
  381SOL     OW 1521   0.815   2.014   0.800  0.0720 -0.1040  0.0015
  381SOL    HW1 1522   0.907   2.003   0.774 -0.8502 -1.1961  2.4024
  381SOL    HW2 1523   0.818   2.092   0.858  1.3204 -1.2108 -0.1235
  381SOL     MW 1524   0.827   2.023   0.804  0.1151 -0.3942  0.3018
  382SOL     OW 1525   0.700   0.027   0.679  0.2298 -0.4186  1.1499
  382SOL    HW1 1526   0.693   0.058   0.771  0.4850 -0.7988  2.4799
  382SOL    HW2 1527   0.642  -0.046   0.678  0.9860  0.5055 -2.5255
  382SOL     MW 1528   0.692   0.021   0.691  0.3632 -0.3469  0.8404
  383SOL     OW 1529   0.488   0.010   0.363 -0.3296  0.2413  0.5243
  383SOL    HW1 1530   0.535  -0.055   0.404 -2.1755 -1.1257 -4.1159
  383SOL    HW2 1531   0.398  -0.020   0.356  2.8001 -0.3942 -0.0564
  383SOL     MW 1532   0.482  -0.002   0.367 -0.1602 -0.0229 -0.1646
  384SOL     OW 1533   0.595   2.882   0.575 -0.2969 -0.0666  0.0068
  384SOL    HW1 1534   0.636   2.805   0.616  0.2029  1.5767 -1.2129
  384SOL    HW2 1535   0.508   2.858   0.557  2.4442 -0.1905 -0.3330
  384SOL     MW 1536   0.589   2.869   0.578  0.1307  0.1338 -0.1989
  385SOL     OW 1537   1.331   2.068   1.538 -0.3628  0.4732 -0.4136
  385SOL    HW1 1538   1.399   2.083   1.607 -1.0241 -0.8136  3.3955
  385SOL    HW2 1539   1.307   1.973   1.561  1.2104 -0.7716  0.9227
  385SOL     MW 1540   1.337   2.057   1.550 -0.2425  0.1392  0.2653
  386SOL     OW 1541   1.377   0.433   0.912  0.3287 -0.0863  0.3798
  386SOL    HW1 1542   1.296   0.411   0.862 -0.8522  2.5515 -2.1004
  386SOL    HW2 1543   1.349   0.439   1.004 -0.1569  0.7436  0.9455
  386SOL     MW 1544   1.363   0.431   0.918  0.1088  0.3712  0.1272
  387SOL     OW 1545   0.870   2.160   1.494 -0.4703  0.8310  1.1169
  387SOL    HW1 1546   0.921   2.218   1.444 -3.8669 -0.7453  0.9858
  387SOL    HW2 1547   0.905   2.069   1.479  0.9911 -2.2911 -0.8018
  387SOL     MW 1548   0.881   2.156   1.485 -0.7256  0.2111  0.8465
  388SOL     OW 1549   1.535   2.821   1.182 -0.5061 -0.9694  0.6143
  388SOL    HW1 1550   1.467   2.761   1.149 -1.1581 -0.6883 -1.3284
  388SOL    HW2 1551   1.598   2.791   1.117 -1.0148  0.4153  0.1941
  388SOL     MW 1552   1.534   2.809   1.169 -0.6592 -0.7496  0.3025
  389SOL     OW 1553   0.385   0.189   3.094 -0.1968  0.1638 -0.5201
  389SOL    HW1 1554   0.404   0.098   3.116 -2.0829  0.0275  1.7500
  389SOL    HW2 1555   0.289   0.190   3.087 -3.7669  3.1446 -0.2681
  389SOL     MW 1556   0.375   0.177   3.096 -0.9167  0.5391 -0.1873
  390SOL     OW 1557   1.360   0.051   0.589 -0.4113  0.0307 -0.2427
  390SOL    HW1 1558   1.449   0.062   0.555 -1.2085 -1.0457  1.7690
  390SOL    HW2 1559   1.363   0.043   0.686  1.0316 -0.3070  0.2829
  390SOL     MW 1560   1.372   0.052   0.597 -0.3261 -0.1559  0.0921
  391SOL     OW 1561   0.277   2.307   1.441  0.9838 -0.1850 -0.1201
  391SOL    HW1 1562   0.243   2.242   1.507 -0.6347 -0.0099  1.8819
  391SOL    HW2 1563   0.218   2.384   1.436 -0.9579 -0.8475  0.3384
  391SOL     MW 1564   0.265   2.308   1.449  0.5141 -0.2493  0.2045
  392SOL     OW 1565   1.982   2.150   0.318 -0.1536  0.1009  0.0553
  392SOL    HW1 1566   1.903   2.195   0.340  2.1800 -1.2916  0.2013
  392SOL    HW2 1567   2.031   2.139   0.404  1.6421 -1.0656 -0.1033
  392SOL     MW 1568   1.978   2.154   0.333  0.3912 -0.2367  0.0536
  393SOL     OW 1569   0.242   2.998   2.910  0.7464 -0.0720 -0.7436
  393SOL    HW1 1570   0.280   3.081   2.900 -2.6514 -1.2913 -1.8683
  393SOL    HW2 1571   0.160   3.008   2.864  1.2331 -1.8299 -0.5432
  393SOL     MW 1572   0.236   3.011   2.903  0.3623 -0.4648 -0.8656
  394SOL     OW 1573   0.831   1.628   1.410  0.2166 -0.0988 -0.4753
  394SOL    HW1 1574   0.817   1.636   1.509  0.5434  0.5099  0.8915
  394SOL    HW2 1575   0.862   1.722   1.393 -1.5459 -3.2250  0.1895
  394SOL     MW 1576   0.833   1.642   1.421  0.0272 -0.4309 -0.2073
  395SOL     OW 1577   0.931   2.898   2.576  0.2390 -0.4802 -0.2057
  395SOL    HW1 1578   0.940   2.963   2.643 -3.1090  0.1038 -0.3366
  395SOL    HW2 1579   1.013   2.859   2.540  1.2017 -0.7841  2.6515
  395SOL     MW 1580   0.943   2.902   2.580 -0.0757 -0.4433  0.1540
  396SOL     OW 1581   0.771   1.878   2.388 -0.1473  0.0070 -0.0973
  396SOL    HW1 1582   0.805   1.859   2.475  1.8869 -0.1560 -1.9680
  396SOL    HW2 1583   0.745   1.790   2.357 -0.3327 -1.0289 -0.9661
  396SOL     MW 1584   0.772   1.864   2.395  0.0966 -0.1512 -0.4587
  397SOL     OW 1585   1.020   2.346   1.337 -0.0215 -0.1125  0.1150
  397SOL    HW1 1586   1.058   2.384   1.259 -2.3586  0.1076  1.4230
  397SOL    HW2 1587   1.100   2.351   1.396  1.8841 -1.0006  1.6558
  397SOL     MW 1588   1.036   2.351   1.335 -0.0784 -0.2007  0.4909
  398SOL     OW 1589   0.637   2.620   0.706  0.6901  0.5149  0.5394
  398SOL    HW1 1590   0.577   2.555   0.674  1.1862  4.9698  0.3719
  398SOL    HW2 1591   0.717   2.598   0.661  4.0453  1.9228  0.3604
  398SOL     MW 1592   0.640   2.608   0.696  1.1983  1.2884  0.4937
  399SOL     OW 1593   0.285   2.048   0.363 -0.0110 -0.4717 -0.2637
  399SOL    HW1 1594   0.221   2.116   0.369  1.3115 -1.3359  2.4775
  399SOL    HW2 1595   0.351   2.083   0.297 -2.9048  1.0333  1.4247
  399SOL     MW 1596   0.286   2.062   0.355 -0.2183 -0.3872  0.3208
  400SOL     OW 1597   0.624   1.858   0.174 -0.2337 -0.1742 -0.4393
  400SOL    HW1 1598   0.570   1.939   0.174  2.0330  1.7304  1.6203
  400SOL    HW2 1599   0.568   1.801   0.228 -1.3293  0.7969 -0.4625
  400SOL     MW 1600   0.609   1.861   0.181 -0.0792  0.2052 -0.1706
  401SOL     OW 1601   1.008   2.072   0.063 -0.3834 -0.6186  0.9237
  401SOL    HW1 1602   0.987   1.973   0.066  0.8136 -1.0730 -0.5975
  401SOL    HW2 1603   1.040   2.101   0.148 -0.6420 -2.6956 -0.7679
  401SOL     MW 1604   1.010   2.063   0.075 -0.2596 -0.9526  0.4998
  402SOL     OW 1605   0.715   2.857   1.739  0.2547  0.4186  0.5037
  402SOL    HW1 1606   0.648   2.845   1.804  1.5071  0.7989 -1.3226
  402SOL    HW2 1607   0.799   2.848   1.783  2.2959  2.4000 -0.6057
  402SOL     MW 1608   0.718   2.854   1.754  0.6893  0.7302  0.1163
  403SOL     OW 1609   0.051   0.522   0.395  0.2509 -0.7438  0.5104
  403SOL    HW1 1610   0.124   0.552   0.456  0.3239 -3.1244  2.3303
  403SOL    HW2 1611   0.111   0.472   0.330 -1.6051 -2.1351  1.8276
  403SOL     MW 1612   0.068   0.519   0.394  0.0156 -1.2415  0.9243
  404SOL     OW 1613   0.975   2.895   0.809  0.2506  0.1297 -0.5444
  404SOL    HW1 1614   1.034   2.833   0.770  0.0653  2.7417  0.4208
  404SOL    HW2 1615   1.006   2.984   0.786 -2.8132 -0.4269 -0.0574
  404SOL     MW 1616   0.987   2.898   0.801 -0.1781  0.4009 -0.3528
  405SOL     OW 1617   0.474   2.467   1.542 -0.2968 -0.1207 -0.3231
  405SOL    HW1 1618   0.492   2.554   1.500  3.7689  3.2557 -1.5558
  405SOL    HW2 1619   0.409   2.417   1.492  3.1152  1.4063  1.3319
  405SOL     MW 1620   0.468   2.472   1.530  0.6898  0.5263 -0.2674
  406SOL     OW 1621   0.415   2.383   1.148  0.1463 -0.1994 -0.2436
  406SOL    HW1 1622   0.320   2.376   1.170 -0.5688  0.0002  1.4535
  406SOL    HW2 1623   0.458   2.315   1.213 -1.1860  0.4995  3.1334
  406SOL     MW 1624   0.408   2.373   1.159 -0.1238 -0.0808  0.4259
  407SOL     OW 1625   0.018   2.680   1.145  0.0583  0.2343 -0.5208
  407SOL    HW1 1626   0.077   2.726   1.208 -1.2926 -1.1864 -3.8435
  407SOL    HW2 1627   0.087   2.648   1.085  3.9703  0.6243  0.1976
  407SOL     MW 1628   0.035   2.682   1.145  0.3962  0.0983 -0.8644
  408SOL     OW 1629   2.121   2.140   0.562  0.3567 -0.1695  0.5147
  408SOL    HW1 1630   2.099   2.225   0.592 -0.6721  1.9373 -2.2885
  408SOL    HW2 1631   2.044   2.076   0.594 -2.2775 -1.8011  1.7441
  408SOL     MW 1632   2.108   2.142   0.570 -0.1266 -0.1068  0.3071
  409SOL     OW 1633   1.350   0.123   0.885 -0.8657 -0.3356 -0.1870
  409SOL    HW1 1634   1.419   0.183   0.904 -0.3898  0.6711  2.1830
  409SOL    HW2 1635   1.389   0.044   0.922 -1.1715 -0.7398 -1.9887
  409SOL     MW 1636   1.365   0.120   0.893 -0.8432 -0.2561 -0.1120
  410SOL     OW 1637   1.094   2.490   1.067  0.5401 -0.0270 -0.4389
  410SOL    HW1 1638   1.032   2.501   0.995 -2.9705  0.0677  0.7291
  410SOL    HW2 1639   1.167   2.429   1.034 -0.6816 -1.0636  0.4437
  410SOL     MW 1640   1.096   2.483   1.053 -0.0843 -0.1513 -0.1684
  411SOL     OW 1641   1.981   0.133   2.849  0.1569 -0.7128  0.4919
  411SOL    HW1 1642   1.931   0.085   2.780 -1.0954 -0.3312 -0.3254
  411SOL    HW2 1643   1.908   0.148   2.916 -2.6655 -0.2399  0.0008
  411SOL     MW 1644   1.964   0.128   2.848 -0.3807 -0.6001  0.3193
  412SOL     OW 1645   1.084   2.208   0.565 -0.2457 -0.3098 -0.0663
  412SOL    HW1 1646   1.126   2.295   0.577  0.9215  0.4593  0.2085
  412SOL    HW2 1647   0.986   2.216   0.555 -1.3100  3.4631 -0.4744
  412SOL     MW 1648   1.077   2.221   0.566 -0.2321  0.2894 -0.0839
  413SOL     OW 1649   0.542   2.789   0.164  0.1065  0.1081 -0.4547
  413SOL    HW1 1650   0.602   2.707   0.172  1.4458 -0.6299  2.2033
  413SOL    HW2 1651   0.559   2.825   0.073 -1.7691  0.4982 -2.0390
  413SOL     MW 1652   0.552   2.783   0.153  0.0358  0.0622 -0.3130
  414SOL     OW 1653   1.995   3.045   1.076 -0.1497  0.6040  0.1526
  414SOL    HW1 1654   1.922   3.014   1.014 -0.4647  1.5931  0.9919
  414SOL    HW2 1655   2.064   2.976   1.081  1.0447 -0.3532  4.4351
  414SOL     MW 1656   1.994   3.032   1.068 -0.0337  0.6082  0.8284
  415SOL     OW 1657   1.729   2.684   1.058 -0.3702 -0.1462  0.0178
  415SOL    HW1 1658   1.670   2.622   1.108 -2.2376  0.5335 -1.0868
  415SOL    HW2 1659   1.792   2.721   1.121 -2.8731 -3.4783  0.8186
  415SOL     MW 1660   1.729   2.681   1.073 -0.9468 -0.4962 -0.0223
  416SOL     OW 1661   0.609   1.936   1.382  0.2243  0.0635  0.4346
  416SOL    HW1 1662   0.560   2.016   1.356 -0.2327 -1.3312 -1.8510
  416SOL    HW2 1663   0.608   1.886   1.297 -0.3653 -1.8808 -0.0100
  416SOL     MW 1664   0.603   1.940   1.368  0.0862 -0.3771  0.0743
  417SOL     OW 1665   1.025   3.010   1.980 -0.3267  0.0470 -0.0758
  417SOL    HW1 1666   0.964   3.003   2.059  0.3021 -1.5674  2.2820
  417SOL    HW2 1667   1.020   2.928   1.929 -0.4806 -0.0250  1.6499
  417SOL     MW 1668   1.016   2.998   1.984 -0.2640 -0.1755  0.4630
  418SOL     OW 1669   0.725   3.012   0.206 -0.3309  0.1436  0.1141
  418SOL    HW1 1670   0.771   2.985   0.126 -0.9368  1.3544  1.4390
  418SOL    HW2 1671   0.644   2.961   0.197 -1.2482  1.7157  1.5796
  418SOL     MW 1672   0.720   3.002   0.195 -0.5318  0.5108  0.4822
  419SOL     OW 1673   0.458   2.707   1.392  0.2275  0.1699 -0.1368
  419SOL    HW1 1674   0.531   2.769   1.406 -0.3862 -2.0076 -2.5263
  419SOL    HW2 1675   0.487   2.669   1.308 -2.4175 -1.6207 -1.1798
  419SOL     MW 1676   0.472   2.710   1.383 -0.2024 -0.3536 -0.5897
  420SOL     OW 1677   0.892   2.194   1.019 -0.8604 -0.3639 -0.3863
  420SOL    HW1 1678   0.836   2.197   1.098  0.5905 -0.2594  1.2550
  420SOL    HW2 1679   0.901   2.283   0.984  1.4148  0.5090  2.7124
  420SOL     MW 1680   0.886   2.206   1.025 -0.3688 -0.2349  0.2391
  421SOL     OW 1681   2.941   0.079   0.017  0.3455 -0.5174 -0.4081
  421SOL    HW1 1682   2.926   0.025  -0.055  0.1441  1.7426  0.9988
  421SOL    HW2 1683   2.964   0.014   0.084 -4.0309 -1.4702 -1.7131
  421SOL     MW 1684   2.942   0.064   0.016 -0.2585 -0.3449 -0.3947
  422SOL     OW 1685   0.876   2.458   0.866  0.1199 -0.1693 -0.3058
  422SOL    HW1 1686   0.793   2.495   0.886  1.2375 -0.2045  1.3548
  422SOL    HW2 1687   0.885   2.491   0.779  1.0057  0.6197  3.6821
  422SOL     MW 1688   0.866   2.468   0.857  0.3842 -0.0699  0.4395
  423SOL     OW 1689   1.601   0.152   0.492 -0.0491  0.3717  0.0095
  423SOL    HW1 1690   1.602   0.146   0.397  0.9015  1.7011  0.1907
  423SOL    HW2 1691   1.575   0.241   0.504 -1.0810 -0.4141 -1.6531
  423SOL     MW 1692   1.598   0.163   0.481 -0.0599  0.4434 -0.1859
  424SOL     OW 1693   0.739   2.210   1.249 -0.3285  0.2878 -0.2677
  424SOL    HW1 1694   0.652   2.205   1.289  2.6348 -0.2433  0.9385
  424SOL    HW2 1695   0.793   2.190   1.326 -1.3072 -1.6736  1.9650
  424SOL     MW 1696   0.734   2.207   1.265 -0.0667 -0.0411  0.1861
  425SOL     OW 1697   1.745   2.862   2.023  0.0838  0.2436 -0.3051
  425SOL    HW1 1698   1.744   2.836   1.928  2.0765 -0.2300  0.1017
  425SOL    HW2 1699   1.757   2.784   2.072  0.8506  0.2558 -1.7627
  425SOL     MW 1700   1.747   2.849   2.017  0.4479  0.1827 -0.4437
  426SOL     OW 1701   0.740   1.615   1.915  0.3180 -0.0790 -0.0519
  426SOL    HW1 1702   0.723   1.620   1.818 -0.6485  1.4231 -2.8995
  426SOL    HW2 1703   0.699   1.689   1.959  2.0078  0.0166 -0.9679
  426SOL     MW 1704   0.732   1.625   1.908  0.4134  0.1318 -0.5485
  427SOL     OW 1705   0.403   1.556   1.857  0.0482  0.2130  0.1570
  427SOL    HW1 1706   0.466   1.501   1.903  3.5191 -0.4143  2.6220
  427SOL    HW2 1707   0.312   1.540   1.889  0.8392  2.7131 -1.6223
  427SOL     MW 1708   0.399   1.547   1.867  0.6105  0.4601  0.2475
  428SOL     OW 1709   0.585   2.627   1.147 -0.2863 -0.6097  0.0011
  428SOL    HW1 1710   0.656   2.617   1.214  0.7231 -0.9785  2.6675
  428SOL    HW2 1711   0.532   2.548   1.145 -0.4654 -0.3771 -1.5259
  428SOL     MW 1712   0.587   2.616   1.156 -0.1767 -0.6277  0.1514
  429SOL     OW 1713   1.335   2.682   1.067  0.2804 -0.7592  0.0982
  429SOL    HW1 1714   1.243   2.658   1.090  0.0686  1.4325 -0.7581
  429SOL    HW2 1715   1.319   2.747   0.999  0.7031 -0.1066  2.8101
  429SOL     MW 1716   1.321   2.687   1.061  0.3082 -0.3839  0.3431
  430SOL     OW 1717   1.187   2.715   0.696  0.2612 -0.2956 -0.1476
  430SOL    HW1 1718   1.255   2.646   0.687 -0.3164 -1.0554 -0.1821
  430SOL    HW2 1719   1.159   2.717   0.604  1.6872 -0.3846  0.5191
  430SOL     MW 1720   1.192   2.706   0.683  0.3732 -0.4076 -0.0642
  431SOL     OW 1721   0.318   1.945   1.149 -0.8525 -0.1122  0.3820
  431SOL    HW1 1722   0.359   1.860   1.145  1.0529 -2.1968 -1.2196
  431SOL    HW2 1723   0.322   1.973   1.055  2.5410  1.8940  1.1005
  431SOL     MW 1724   0.324   1.938   1.136 -0.1534 -0.1226  0.2654
  432SOL     OW 1725   0.060   0.028   1.159 -0.4054  0.6304  0.0586
  432SOL    HW1 1726   0.073   0.081   1.235  0.9675 -2.1320  1.8233
  432SOL    HW2 1727   0.000  -0.036   1.193 -2.2342  1.5768 -0.6865
  432SOL     MW 1728   0.054   0.026   1.174 -0.4655  0.3908  0.1931
  433SOL     OW 1729   0.667   2.861   1.456  0.3168 -0.2617  0.1761
  433SOL    HW1 1730   0.705   2.886   1.543  1.6166 -0.8354 -1.3325
  433SOL    HW2 1731   0.730   2.880   1.390 -1.0527  3.6151  0.8630
  433SOL     MW 1732   0.681   2.867   1.459  0.3076  0.1741  0.0677
  434SOL     OW 1733   1.544   2.809   1.477 -0.2999  0.3359 -0.2657
  434SOL    HW1 1734   1.451   2.829   1.475  1.1181 -0.5538 -0.5025
  434SOL    HW2 1735   1.567   2.816   1.381  0.8197 -0.2248 -1.6713
  434SOL     MW 1736   1.535   2.813   1.464  0.0349  0.1445 -0.4824
  435SOL     OW 1737   2.869   1.795   0.242  0.0024 -0.3598  0.3900
  435SOL    HW1 1738   2.892   1.871   0.188 -0.6464  1.3684  0.8972
  435SOL    HW2 1739   2.837   1.734   0.172  1.1953  2.8141 -0.0072
  435SOL     MW 1740   2.867   1.797   0.226  0.0742  0.2870  0.4045
  436SOL     OW 1741   1.436   2.774   0.315 -0.7185 -0.2728  0.0826
  436SOL    HW1 1742   1.483   2.773   0.400 -0.1651  2.1799 -1.9804
  436SOL    HW2 1743   1.380   2.851   0.319 -1.7619 -1.9632  1.5324
  436SOL     MW 1744   1.435   2.784   0.326 -0.7831 -0.1722  0.0017
  437SOL     OW 1745   0.875   2.942   1.275  0.0857 -0.3843  0.0916
  437SOL    HW1 1746   0.907   3.037   1.282 -0.2195  1.5878 -1.7019
  437SOL    HW2 1747   0.837   2.954   1.186  0.7974 -2.7889 -0.2777
  437SOL     MW 1748   0.874   2.956   1.265  0.1394 -0.4413 -0.1937
  438SOL     OW 1749   0.860   2.557   1.995 -0.1947  0.4961  0.1585
  438SOL    HW1 1750   0.854   2.502   2.078 -1.7375  1.2093 -3.5565
  438SOL    HW2 1751   0.800   2.509   1.938  1.0824  0.7890  0.0259
  438SOL     MW 1752   0.852   2.544   1.998 -0.2297  0.6289 -0.3492
  439SOL     OW 1753   1.158   2.156   0.311  0.2521  0.1456  0.3347
  439SOL    HW1 1754   1.112   2.152   0.399 -0.0030 -0.4744 -1.7052
  439SOL    HW2 1755   1.153   2.251   0.289 -0.4843 -1.6219 -0.5664
  439SOL     MW 1756   1.151   2.168   0.320  0.1213 -0.1694 -0.0534
  440SOL     OW 1757   1.664   3.020   3.003  0.0511 -0.7964  0.2509
  440SOL    HW1 1758   1.633   2.991   3.089  1.0704  1.9774  2.4679
  440SOL    HW2 1759   1.705   2.941   2.971  1.1449 -0.2007  1.5088
  440SOL     MW 1760   1.665   3.006   3.010  0.3299 -0.3518  0.7094
  441SOL     OW 1761   0.317   2.571   0.544 -0.2461  0.0692  0.2030
  441SOL    HW1 1762   0.305   2.556   0.443 -1.1924 -1.7517  1.1096
  441SOL    HW2 1763   0.312   2.670   0.541 -1.9282  0.2032 -1.8084
  441SOL     MW 1764   0.315   2.582   0.530 -0.5929 -0.1534  0.0573
  442SOL     OW 1765   0.040   2.345   0.633 -0.0525  0.0128  0.7641
  442SOL    HW1 1766   0.023   2.435   0.648  2.8032 -0.5794 -2.2369
  442SOL    HW2 1767  -0.045   2.308   0.654  1.8394  3.0499  1.9275
  442SOL     MW 1768   0.027   2.352   0.638  0.5739  0.3354  0.5216
  443SOL     OW 1769   1.364   1.704   1.846 -0.8792 -0.6096 -0.1107
  443SOL    HW1 1770   1.322   1.728   1.766 -4.1365 -1.4286 -1.5916
  443SOL    HW2 1771   1.310   1.625   1.873 -1.8219 -0.0248 -0.3844
  443SOL     MW 1772   1.352   1.697   1.839 -1.4334 -0.6405 -0.3422
  444SOL     OW 1773   0.841   2.572   1.573 -0.2416 -0.1605  0.3674
  444SOL    HW1 1774   0.922   2.553   1.628 -2.0437 -1.1663 -1.4675
  444SOL    HW2 1775   0.776   2.593   1.645 -1.2224  0.2954  0.9203
  444SOL     MW 1776   0.843   2.572   1.590 -0.6088 -0.2330  0.1983
  445SOL     OW 1777   0.961   0.095   1.306  0.3134  0.0079 -0.5565
  445SOL    HW1 1778   0.905   0.168   1.279  1.4139 -2.5967  2.8064
  445SOL    HW2 1779   1.046   0.125   1.276  2.1632  1.0126 -0.2614
  445SOL     MW 1780   0.965   0.108   1.299  0.7026 -0.2032 -0.0739
  446SOL     OW 1781   2.768   2.935   1.019  0.8067  0.5210  0.1147
  446SOL    HW1 1782   2.700   2.958   0.957 -0.0725  0.5109 -0.2151
  446SOL    HW2 1783   2.785   2.835   1.015  0.4375  0.4505  3.2263
  446SOL     MW 1784   2.761   2.925   1.010  0.6420  0.5104  0.4817
  447SOL     OW 1785   3.024   2.053   1.707 -0.3660 -0.0322  0.4449
  447SOL    HW1 1786   3.098   2.015   1.759  1.9878  1.4932 -3.3411
  447SOL    HW2 1787   2.975   1.989   1.649 -1.0768 -1.3636 -0.7201
  447SOL     MW 1788   3.027   2.040   1.706 -0.1493 -0.0066 -0.2084
  448SOL     OW 1789   1.672   2.345   1.659  0.1957 -0.7606  0.0366
  448SOL    HW1 1790   1.620   2.272   1.697  1.3507  2.1174  1.5106
  448SOL    HW2 1791   1.612   2.414   1.644  1.4439 -2.7105  2.1490
  448SOL     MW 1792   1.657   2.345   1.662  0.5128 -0.6381  0.5098
  449SOL     OW 1793   0.845   2.885   0.421  0.1178  0.4095  0.1732
  449SOL    HW1 1794   0.802   2.912   0.341 -0.1667  1.5067  0.6222
  449SOL    HW2 1795   0.778   2.897   0.493  0.9466  2.2377  2.1997
  449SOL     MW 1796   0.831   2.890   0.420  0.1896  0.7955  0.4998
  450SOL     OW 1797   1.223   2.424   0.648  0.0662 -0.0744  0.7871
  450SOL    HW1 1798   1.234   2.400   0.743 -0.3936  2.1408 -1.2698
  450SOL    HW2 1799   1.309   2.402   0.611 -0.2636 -0.9311  0.0056
  450SOL     MW 1800   1.236   2.418   0.656 -0.0380  0.1048  0.4126
  451SOL     OW 1801   0.615   1.955   1.674 -0.1033  0.1011  0.0990
  451SOL    HW1 1802   0.695   1.978   1.711 -0.3254 -2.7733 -0.3407
  451SOL    HW2 1803   0.631   1.975   1.580  0.5195 -1.1175 -0.2200
  451SOL     MW 1804   0.628   1.961   1.667 -0.0504 -0.4389 -0.0011
  452SOL     OW 1805   0.300   2.707   0.102  0.3985  0.5471  0.3195
  452SOL    HW1 1806   0.397   2.707   0.132  3.0899  1.1842 -0.4219
  452SOL    HW2 1807   0.299   2.710   0.007 -2.0935 -0.0602  1.8726
  452SOL     MW 1808   0.313   2.707   0.094  0.4248  0.5510  0.4266
  453SOL     OW 1809   0.385   2.981   1.632 -0.5991  0.0569 -0.0069
  453SOL    HW1 1810   0.469   2.998   1.585 -1.5037 -1.7602  0.5571
  453SOL    HW2 1811   0.311   2.967   1.572  1.0865 -2.9202 -0.5599
  453SOL     MW 1812   0.386   2.981   1.618 -0.4960 -0.5756 -0.0054
  454SOL     OW 1813   1.055   2.786   1.150  0.4061  0.2974 -0.4869
  454SOL    HW1 1814   1.003   2.711   1.156 -0.3666  1.1253  0.5656
  454SOL    HW2 1815   1.003   2.857   1.196  0.3010 -0.2267  0.2530
  454SOL     MW 1816   1.041   2.785   1.157  0.2903  0.3375 -0.2504
  455SOL     OW 1817   1.596   2.935   0.162  0.0400 -0.0896 -0.2228
  455SOL    HW1 1818   1.664   2.955   0.225  1.1273 -0.7497  3.7321
  455SOL    HW2 1819   1.541   2.868   0.202  0.5984 -0.8788  0.7517
  455SOL     MW 1820   1.598   2.929   0.175  0.2571 -0.2808  0.4275
  456SOL     OW 1821   2.938   0.284   1.407  0.5972  0.0791  0.3328
  456SOL    HW1 1822   2.884   0.233   1.353  3.6463 -1.8760  2.4915
  456SOL    HW2 1823   2.988   0.334   1.343 -2.5231 -0.6087  2.6500
  456SOL     MW 1824   2.938   0.284   1.391  0.5878 -0.2696  0.9233
  457SOL     OW 1825   0.884   1.545   3.009 -0.1341  0.0133  0.1904
  457SOL    HW1 1826   0.832   1.562   3.086  0.1382  0.4811 -1.7322
  457SOL    HW2 1827   0.958   1.487   3.035 -2.1296 -0.0806 -1.5243
  457SOL     MW 1828   0.887   1.540   3.023 -0.3614  0.0626 -0.2895
  458SOL     OW 1829   1.442   1.414   0.635  0.0235  0.0544  0.5776
  458SOL    HW1 1830   1.371   1.414   0.698 -1.5511  1.2215  1.3622
  458SOL    HW2 1831   1.408   1.359   0.562 -0.3556  1.1100 -3.4432
  458SOL     MW 1832   1.428   1.406   0.633 -0.2342  0.3476  0.1506
  459SOL     OW 1833   1.569   0.118   0.228 -0.4906  0.2844 -0.0400
  459SOL    HW1 1834   1.545   0.026   0.214 -0.1896  0.1429  0.4774
  459SOL    HW2 1835   1.526   0.159   0.154 -1.3446 -0.2937 -2.4537
  459SOL     MW 1836   1.560   0.111   0.217 -0.5636  0.1894 -0.2902
  460SOL     OW 1837   1.710   2.161   0.585 -0.7595 -0.0742 -0.3821
  460SOL    HW1 1838   1.650   2.137   0.646  0.5765  2.2008  2.0989
  460SOL    HW2 1839   1.768   2.076   0.582  1.5320  1.9194 -1.9758
  460SOL     MW 1840   1.710   2.147   0.593 -0.2809  0.4890 -0.2650
  461SOL     OW 1841   0.454   2.320   0.611  1.0620  0.0941 -0.0863
  461SOL    HW1 1842   0.405   2.400   0.583  2.6084 -1.1653 -0.4952
  461SOL    HW2 1843   0.453   2.337   0.702 -0.7541  1.2004 -0.0079
  461SOL     MW 1844   0.447   2.333   0.619  1.0264  0.0739 -0.1299
  462SOL     OW 1845   0.385   0.298   1.303 -0.1776  0.2578  0.4905
  462SOL    HW1 1846   0.404   0.249   1.223 -2.2031 -0.0402 -2.6225
  462SOL    HW2 1847   0.461   0.361   1.308 -3.5339  1.4059 -0.8102
  462SOL     MW 1848   0.398   0.300   1.293 -0.8877  0.3700 -0.0918
  463SOL     OW 1849   1.013   0.057   0.715  0.5300  0.1702 -0.0386
  463SOL    HW1 1850   1.025   0.027   0.625 -0.4768  1.5898  1.3128
  463SOL    HW2 1851   0.915   0.065   0.720  0.1293 -2.0894 -2.0292
  463SOL     MW 1852   1.002   0.054   0.703  0.3443  0.0593 -0.1229
  464SOL     OW 1853   0.833   2.961   2.160 -0.7863 -0.6951  0.4909
  464SOL    HW1 1854   0.796   2.876   2.185 -1.6859  1.5388  0.9369
  464SOL    HW2 1855   0.857   3.019   2.243  0.0203 -1.8093 -1.3672
  464SOL     MW 1856   0.831   2.958   2.175 -0.7986 -0.5474  0.3046
  465SOL     OW 1857   0.727   0.216   0.470  0.3940 -0.1608 -0.2514
  465SOL    HW1 1858   0.701   0.140   0.519  2.5669  1.1224  0.7940
  465SOL    HW2 1859   0.712   0.188   0.381  1.0618 -0.5470  1.6491
  465SOL     MW 1860   0.721   0.202   0.465  0.7688 -0.0424  0.1373
  466SOL     OW 1861   1.076   1.974   0.687 -0.4817 -0.1808  0.0415
  466SOL    HW1 1862   1.093   1.902   0.627 -0.6045  1.7047 -1.3687
  466SOL    HW2 1863   1.095   2.063   0.642  0.1818  0.7621 -0.5379
  466SOL     MW 1864   1.081   1.977   0.673 -0.4103  0.1924 -0.2210
  467SOL     OW 1865   1.286   2.325   0.969 -0.2977  0.3873  0.0370
  467SOL    HW1 1866   1.375   2.334   0.987  0.3365 -1.2489  0.3938
  467SOL    HW2 1867   1.275   2.224   0.957 -1.7072 -0.0300  1.7096
  467SOL     MW 1868   1.296   2.313   0.970 -0.4000  0.1163  0.3047
  468SOL     OW 1869   0.311   2.618   1.983  0.0500  0.3206 -0.5013
  468SOL    HW1 1870   0.320   2.532   1.944  1.1595  1.0565 -1.6620
  468SOL    HW2 1871   0.360   2.676   1.920 -3.0058  2.1717  0.0387
  468SOL     MW 1872   0.319   2.614   1.970 -0.2068  0.6620 -0.5832
  469SOL     OW 1873   0.406   2.080   1.839 -0.0911  0.0369 -0.3036
  469SOL    HW1 1874   0.315   2.062   1.819  0.6387 -1.2852 -0.9268
  469SOL    HW2 1875   0.467   2.043   1.767  1.4005 -0.2432  1.0290
  469SOL     MW 1876   0.402   2.073   1.827  0.2020 -0.1745 -0.2100
  470SOL     OW 1877   3.073   2.519   0.172 -0.3055 -0.4693  0.0997
  470SOL    HW1 1878   2.989   2.510   0.220 -0.3704  0.4591  0.7175
  470SOL    HW2 1879   3.058   2.551   0.081 -1.1301  1.3962  0.6824
  470SOL     MW 1880   3.060   2.522   0.166 -0.4228 -0.1006  0.2581
  471SOL     OW 1881   1.177   2.706   1.383 -0.6018 -0.0368 -0.3402
  471SOL    HW1 1882   1.105   2.736   1.439 -0.4783  0.6899  0.3835
  471SOL    HW2 1883   1.151   2.723   1.294  1.8014 -1.1725 -1.8061
  471SOL     MW 1884   1.164   2.712   1.378 -0.2684 -0.0908 -0.4381
  472SOL     OW 1885   2.927   2.121   0.359  0.0501 -0.1944 -0.8515
  472SOL    HW1 1886   2.944   2.076   0.271  0.3609  2.6533 -0.7275
  472SOL    HW2 1887   2.895   2.050   0.413 -2.8046 -1.0346  0.1726
  472SOL     MW 1888   2.925   2.106   0.355 -0.2855  0.0705 -0.7000
  473SOL     OW 1889   0.797   2.528   1.307  0.2611  0.4345 -0.3975
  473SOL    HW1 1890   0.866   2.460   1.298 -2.5315 -1.4151 -0.7321
  473SOL    HW2 1891   0.801   2.541   1.402  1.2021  0.4524 -0.4125
  473SOL     MW 1892   0.807   2.521   1.319  0.0168  0.1928 -0.4436
  474SOL     OW 1893   0.852   2.204   1.773 -0.0838  0.2839 -0.2066
  474SOL    HW1 1894   0.936   2.244   1.784 -3.1621 -1.1512 -0.2341
  474SOL    HW2 1895   0.840   2.188   1.674 -1.3826 -1.3635 -2.0908
  474SOL     MW 1896   0.861   2.207   1.761 -0.6613 -0.1228 -0.4588
  475SOL     OW 1897   1.648   3.087   1.440 -0.5549  0.1921 -0.2095
  475SOL    HW1 1898   1.573   3.115   1.383 -1.9456 -0.7480  0.2627
  475SOL    HW2 1899   1.636   2.993   1.468 -1.9610 -1.7917 -2.8813
  475SOL     MW 1900   1.637   3.078   1.436 -0.9239 -0.1936 -0.4997
  476SOL     OW 1901   1.452   2.598   0.795 -0.7984 -0.6300 -0.2447
  476SOL    HW1 1902   1.420   2.594   0.889  1.7541  1.3211 -0.0664
  476SOL    HW2 1903   1.490   2.686   0.783 -0.5456  1.9972  2.0164
  476SOL     MW 1904   1.453   2.609   0.806 -0.4282 -0.0259  0.0771
  477SOL     OW 1905   0.850   2.526   0.598  0.2343 -0.5076  0.1916
  477SOL    HW1 1906   0.929   2.574   0.560 -3.4729  0.5090  0.4677
  477SOL    HW2 1907   0.862   2.435   0.555  1.0651 -1.9695  0.3618
  477SOL     MW 1908   0.862   2.520   0.587 -0.1452 -0.5664  0.2505
  478SOL     OW 1909   0.233   2.588   0.983 -0.2017 -0.1345 -0.7202
  478SOL    HW1 1910   0.276   2.679   0.981  4.6818 -2.4582  3.9238
  478SOL    HW2 1911   0.292   2.526   0.936  1.0183  0.4043  0.8592
  478SOL     MW 1912   0.247   2.592   0.977  0.6036 -0.3700  0.1009
  479SOL     OW 1913   1.407   1.940   1.331 -0.2385  0.3118 -0.3546
  479SOL    HW1 1914   1.383   2.008   1.400 -2.6975 -1.1688 -2.7119
  479SOL    HW2 1915   1.480   1.901   1.381 -0.4164  1.0680  1.0993
  479SOL     MW 1916   1.414   1.944   1.347 -0.5865  0.2162 -0.4738
  480SOL     OW 1917   1.789   2.368   1.291 -0.0849  0.4289 -0.2639
  480SOL    HW1 1918   1.801   2.272   1.315 -0.3990 -1.5068 -0.0708
  480SOL    HW2 1919   1.817   2.367   1.197  0.6896 -1.6672 -1.1315
  480SOL     MW 1920   1.794   2.355   1.281 -0.0241 -0.1030 -0.3529
  481SOL     OW 1921   1.176   0.160   1.123  0.4423 -0.0872  0.7670
  481SOL    HW1 1922   1.239   0.134   1.056 -1.8677  0.7068  1.1051
  481SOL    HW2 1923   1.169   0.257   1.110 -3.3769  0.7185  0.4068
  481SOL     MW 1924   1.184   0.170   1.112 -0.3664  0.1239  0.7641
  482SOL     OW 1925   1.020   3.095   0.428 -0.6277  0.7030  0.0634
  482SOL    HW1 1926   0.945   3.040   0.406  1.8148  0.7219 -0.8572
  482SOL    HW2 1927   1.026   3.175   0.375 -0.7416 -0.8818 -1.6472
  482SOL     MW 1928   1.011   3.098   0.418 -0.3204  0.4964 -0.2837
  483SOL     OW 1929   0.303   2.848   0.546 -0.4575  0.0084  0.1572
  483SOL    HW1 1930   0.301   2.902   0.460  0.1059  1.8206 -2.1375
  483SOL    HW2 1931   0.269   2.908   0.619  2.6525 -0.4398  1.0012
  483SOL     MW 1932   0.298   2.863   0.544  0.0271  0.1884 -0.0342
  484SOL     OW 1933   1.648   1.864   1.439 -0.0771  0.4385 -0.7517
  484SOL    HW1 1934   1.688   1.933   1.386  1.6320 -2.7589 -0.0960
  484SOL    HW2 1935   1.678   1.878   1.525 -0.9948 -1.2197 -1.4273
  484SOL     MW 1936   1.657   1.875   1.443  0.0273 -0.2022 -0.7543
  485SOL     OW 1937   0.554   2.328   0.286 -0.1273  0.2601  0.0088
  485SOL    HW1 1938   0.553   2.337   0.380 -1.3631  4.2639 -0.5386
  485SOL    HW2 1939   0.491   2.399   0.263 -2.3586  0.9410  1.1494
  485SOL     MW 1940   0.546   2.338   0.295 -0.5848  0.8782  0.0871
  486SOL     OW 1941   0.090   2.498   1.474 -0.2614 -0.5817 -0.1248
  486SOL    HW1 1942   0.066   2.579   1.438 -2.3396 -1.0018  0.6057
  486SOL    HW2 1943   0.095   2.498   1.569  0.8197  0.6896 -1.4780
  486SOL     MW 1944   0.087   2.509   1.482 -0.3930 -0.4694 -0.2070
  487SOL     OW 1945   1.294   1.617   1.022 -0.2155  0.0733 -0.5069
  487SOL    HW1 1946   1.270   1.701   1.073  0.7044  0.7818  0.5628
  487SOL    HW2 1947   1.384   1.597   1.035 -0.4042 -0.7584 -1.7362
  487SOL     MW 1948   1.302   1.625   1.030 -0.1190  0.0570 -0.5279
  488SOL     OW 1949   1.475   1.805   0.610  0.3522  0.0819  0.3181
  488SOL    HW1 1950   1.462   1.887   0.567  0.4854 -2.1965 -1.7480
  488SOL    HW2 1951   1.427   1.743   0.557  0.4679  1.1615 -0.1972
  488SOL     MW 1952   1.467   1.807   0.597  0.3851 -0.0763 -0.0225
  489SOL     OW 1953   0.692   0.737   0.539 -0.1041  0.4996  0.2181
  489SOL    HW1 1954   0.649   0.653   0.514  0.8159  0.7552 -0.9291
  489SOL    HW2 1955   0.697   0.746   0.637  0.1407 -2.4171  0.9379
  489SOL     MW 1956   0.687   0.727   0.548  0.0496  0.1485  0.1617
  490SOL     OW 1957   1.372   2.063   0.469  0.3129  0.1846 -0.2767
  490SOL    HW1 1958   1.444   2.106   0.418  1.2303  0.4716 -0.1311
  490SOL    HW2 1959   1.295   2.086   0.414 -0.1804  1.5931  0.1861
  490SOL     MW 1960   1.371   2.072   0.455  0.3688  0.4083 -0.1965
  491SOL     OW 1961   1.293   3.000   0.382 -0.1686 -0.5297 -0.3423
  491SOL    HW1 1962   1.305   3.059   0.458 -0.3877 -0.6551 -1.2829
  491SOL    HW2 1963   1.200   3.021   0.372 -2.3691  1.3436 -1.5354
  491SOL     MW 1964   1.283   3.010   0.391 -0.4878 -0.2991 -0.6238
  492SOL     OW 1965   1.457   2.156   0.710 -0.1848 -0.2292  0.0684
  492SOL    HW1 1966   1.407   2.140   0.631 -0.3971 -0.4031 -1.3436
  492SOL    HW2 1967   1.401   2.121   0.779 -0.1195 -0.6914 -1.7158
  492SOL     MW 1968   1.443   2.149   0.709 -0.2042 -0.3132 -0.3533
  493SOL     OW 1969   0.236   3.023   0.341  0.5594 -0.6179  0.2802
  493SOL    HW1 1970   0.171   3.048   0.411  0.8898  0.0621  1.2627
  493SOL    HW2 1971   0.184   3.009   0.263 -0.9249 -2.3130  1.5325
  493SOL     MW 1972   0.221   3.024   0.340  0.4071 -0.7518  0.5751
  494SOL     OW 1973   0.397   2.369   1.801 -0.1053 -0.0698  0.1175
  494SOL    HW1 1974   0.394   2.277   1.775 -1.0526  1.7077  2.2557
  494SOL    HW2 1975   0.436   2.421   1.725  0.0710  0.0081 -2.9436
  494SOL     MW 1976   0.402   2.363   1.788 -0.2070  0.1750 -0.0043
  495SOL     OW 1977   2.884   1.632   2.688  0.6325  0.1658  0.1409
  495SOL    HW1 1978   2.896   1.716   2.728  2.4534  0.2722 -0.8578
  495SOL    HW2 1979   2.822   1.591   2.745 -1.6050 -0.1154  0.3222
  495SOL     MW 1980   2.877   1.638   2.701  0.5775  0.1428  0.0330
  496SOL     OW 1981   2.786   2.273   2.719 -0.3960 -0.3591 -0.1479
  496SOL    HW1 1982   2.806   2.181   2.739  1.0734  1.8191  0.1463
  496SOL    HW2 1983   2.876   2.318   2.738 -1.0455 -1.7514  2.6128
  496SOL     MW 1984   2.800   2.266   2.724 -0.2878 -0.2554  0.2552
  497SOL     OW 1985   1.508   2.349   2.569 -0.5926 -0.9749 -0.3902
  497SOL    HW1 1986   1.526   2.305   2.480  0.7102  0.6013 -0.2966
  497SOL    HW2 1987   1.464   2.277   2.621 -0.4108 -0.2763  1.9944
  497SOL     MW 1988   1.505   2.334   2.564 -0.3967 -0.6748 -0.0632
  498SOL     OW 1989   1.442   2.760   2.320 -0.4696  0.3768 -0.5897
  498SOL    HW1 1990   1.428   2.666   2.299  2.0923  0.1784 -0.3338
  498SOL    HW2 1991   1.532   2.765   2.358  1.2805  0.1260  1.5933
  498SOL     MW 1992   1.452   2.748   2.322  0.0993  0.3176 -0.2679
  499SOL     OW 1993   0.966   0.067   0.078 -0.6627  0.1008 -0.1406
  499SOL    HW1 1994   0.883   0.101   0.128 -0.6937 -2.6577  0.3357
  499SOL    HW2 1995   0.941  -0.027   0.057 -2.7426  1.5442 -0.1767
  499SOL     MW 1996   0.952   0.059   0.082 -0.9412 -0.0727 -0.0825
  500SOL     OW 1997   1.043   2.514   2.722 -0.7236  0.1724 -0.0555
  500SOL    HW1 1998   1.119   2.495   2.775  1.2395 -0.4650  0.6128
  500SOL    HW2 1999   0.999   2.594   2.755  0.3215  3.5714 -2.3523
  500SOL     MW 2000   1.047   2.522   2.733 -0.3267  0.5368 -0.2703
  501SOL     OW 2001   1.796   2.263   3.034 -0.8374  0.0957  0.6493
  501SOL    HW1 2002   1.797   2.359   3.047 -0.2695  1.0358 -3.5478
  501SOL    HW2 2003   1.890   2.237   3.051 -0.7093 -0.8715 -0.9322
  501SOL     MW 2004   1.809   2.272   3.038 -0.7455  0.0921 -0.1131
  502SOL     OW 2005   0.269   2.737   2.930 -0.2142 -0.2331  0.9544
  502SOL    HW1 2006   0.234   2.692   2.853 -0.9484 -1.8731 -0.0188
  502SOL    HW2 2007   0.273   2.828   2.903 -0.6268  1.2406  0.0656
  502SOL     MW 2008   0.265   2.743   2.916 -0.3655 -0.2551  0.7087
  503SOL     OW 2009   1.122   2.556   2.076  0.2354  0.5555  0.3694
  503SOL    HW1 2010   1.179   2.615   2.028  3.0808 -1.3611  1.1410
  503SOL    HW2 2011   1.030   2.568   2.040 -2.1043 -4.6310 -2.4777
  503SOL     MW 2012   1.118   2.565   2.065  0.3021 -0.3817  0.0956
  504SOL     OW 2013   0.099   2.637   2.154 -0.4545  0.2917  0.1437
  504SOL    HW1 2014   0.162   2.587   2.098  0.0049 -1.8327 -1.0911
  504SOL    HW2 2015   0.046   2.567   2.187  1.4916  1.4857 -0.9539
  504SOL     MW 2016   0.100   2.621   2.151 -0.1371  0.1689 -0.1641
  505SOL     OW 2017   1.593   2.789   2.743  0.7427 -0.0340  0.0739
  505SOL    HW1 2018   1.640   2.833   2.672 -1.3123 -1.0458  1.2719
  505SOL    HW2 2019   1.523   2.853   2.775 -2.2000 -0.9212  3.1284
  505SOL     MW 2020   1.590   2.803   2.737  0.0833 -0.2846  0.6350
  506SOL     OW 2021   1.605   0.093   2.751 -0.0696 -0.1789  0.0925
  506SOL    HW1 2022   1.605   0.048   2.829  0.9524  1.7911 -2.5929
  506SOL    HW2 2023   1.675   0.055   2.700 -2.5990 -1.1157 -0.2985
  506SOL     MW 2024   1.614   0.082   2.754 -0.2685 -0.0426 -0.3134
  507SOL     OW 2025   0.866   2.713   2.820 -0.0283 -0.1628 -0.5298
  507SOL    HW1 2026   0.878   2.781   2.755 -0.0164  0.9902 -0.3118
  507SOL    HW2 2027   0.780   2.670   2.793 -2.0251  1.1984 -0.7305
  507SOL     MW 2028   0.857   2.716   2.808 -0.2902  0.1689 -0.5275
  508SOL     OW 2029   1.163   2.117   2.544 -0.5260 -0.1093  0.7663
  508SOL    HW1 2030   1.229   2.148   2.609 -0.4783 -1.9261 -0.5549
  508SOL    HW2 2031   1.084   2.105   2.599  0.9560  0.6190  1.0756
  508SOL     MW 2032   1.162   2.120   2.560 -0.3241 -0.2529  0.6328
  509SOL     OW 2033   0.642   2.574   2.806  0.1704  0.5818 -0.6581
  509SOL    HW1 2034   0.608   2.496   2.759  2.9617 -1.0616  1.4566
  509SOL    HW2 2035   0.580   2.643   2.809  0.0531  2.3934 -1.0259
  509SOL     MW 2036   0.630   2.573   2.800  0.5232  0.6040 -0.4276
  510SOL     OW 2037   1.495   2.573   1.618 -0.0315 -0.3086 -0.0466
  510SOL    HW1 2038   1.521   2.658   1.573  1.9017 -1.3333 -2.0153
  510SOL    HW2 2039   1.451   2.607   1.700  0.3550  1.4267 -0.6343
  510SOL     MW 2040   1.493   2.589   1.623  0.2746 -0.2149 -0.3839
  511SOL     OW 2041   0.346   2.513   2.507  0.2050  0.1398  1.0581
  511SOL    HW1 2042   0.424   2.459   2.532 -0.7461 -1.4484 -1.1427
  511SOL    HW2 2043   0.356   2.535   2.416 -1.2955 -0.5561  2.8181
  511SOL     MW 2044   0.358   2.509   2.499 -0.1184 -0.1616  0.9999
  512SOL     OW 2045   1.034   1.963   2.819  0.0199  0.0407  0.2831
  512SOL    HW1 2046   0.947   1.981   2.859 -0.5033  0.8832  0.2740
  512SOL    HW2 2047   1.073   1.873   2.853 -1.6559 -0.5619  1.4683
  512SOL     MW 2048   1.028   1.954   2.829 -0.2702  0.0724  0.4383
  513SOL     OW 2049   1.499   2.487   2.258  0.2388  0.0102 -0.9388
  513SOL    HW1 2050   1.588   2.514   2.229 -1.1649  2.5002 -2.7729
  513SOL    HW2 2051   1.522   2.412   2.308 -2.9959  1.0237 -1.4633
  513SOL     MW 2052   1.514   2.481   2.260 -0.3732  0.4724 -1.2500
  514SOL     OW 2053   0.197   2.334   2.678  0.1246  0.0276  0.0738
  514SOL    HW1 2054   0.246   2.408   2.642  0.9786 -0.1093 -0.6501
  514SOL    HW2 2055   0.239   2.290   2.755 -0.8727 -0.6709  0.9307
  514SOL     MW 2056   0.209   2.338   2.683  0.1057 -0.0826  0.0914
  515SOL     OW 2057   1.076   1.975   1.838 -0.1031  0.3286 -0.2630
  515SOL    HW1 2058   1.048   2.065   1.821  1.1716 -3.6238 -0.0699
  515SOL    HW2 2059   1.153   1.985   1.903  0.2018 -0.0322  1.6540
  515SOL     MW 2060   1.083   1.988   1.844  0.1053 -0.2405  0.0154
  516SOL     OW 2061   1.296   2.584   2.929  0.0514  0.3154  0.7759
  516SOL    HW1 2062   1.326   2.595   2.836  1.5877  0.7702  0.3983
  516SOL    HW2 2063   1.254   2.493   2.935 -0.3823 -2.1239 -0.3043
  516SOL     MW 2064   1.295   2.573   2.918  0.1969  0.0536  0.5836
  517SOL     OW 2065   0.519   2.332   2.245  0.3956  0.4100  0.3426
  517SOL    HW1 2066   0.475   2.412   2.213 -1.6205  1.1015  0.2457
  517SOL    HW2 2067   0.479   2.257   2.201 -2.3351 -0.6749 -0.5289
  517SOL     MW 2068   0.508   2.333   2.235 -0.2307  0.3581  0.2148
  518SOL     OW 2069   1.788   0.143   3.047  0.4395 -0.7986  0.2303
  518SOL    HW1 2070   1.813   0.149   3.144  2.3267 -1.6198 -1.1341
  518SOL    HW2 2071   1.754   0.053   3.042 -0.2984  0.4913  0.9469
  518SOL     MW 2072   1.787   0.132   3.059  0.5912 -0.7368  0.1448
  519SOL     OW 2073   0.628   2.398   1.935  0.3817  0.3566 -0.7252
  519SOL    HW1 2074   0.643   2.307   1.926  0.3731  1.3917 -1.9370
  519SOL    HW2 2075   0.536   2.406   1.899 -0.2587  0.9489 -1.2625
  519SOL     MW 2076   0.618   2.387   1.929  0.2961  0.5713 -0.9560
  520SOL     OW 2077   1.219   2.121   2.929  0.3144  0.2928  0.1696
  520SOL    HW1 2078   1.155   2.056   2.897 -0.2156 -1.2344 -0.0648
  520SOL    HW2 2079   1.245   2.091   3.020 -1.0557 -0.6790  0.3658
  520SOL     MW 2080   1.214   2.108   2.937  0.0637 -0.0369  0.1646
  521SOL     OW 2081   1.775   2.034   2.243  0.1865  0.0939  0.0153
  521SOL    HW1 2082   1.791   2.040   2.143  0.7708  2.8032  0.1217
  521SOL    HW2 2083   1.759   1.941   2.257 -0.6110 -1.8742 -2.0659
  521SOL     MW 2084   1.775   2.023   2.232  0.1584  0.1917 -0.2453
  522SOL     OW 2085   2.833   2.563   2.240  0.6767 -0.4526 -0.0172
  522SOL    HW1 2086   2.918   2.536   2.262 -2.3826  0.9692  0.7735
  522SOL    HW2 2087   2.831   2.646   2.275  2.4443  0.1151 -1.3986
  522SOL     MW 2088   2.844   2.570   2.247  0.5062 -0.1901 -0.0952
  523SOL     OW 2089   0.818   1.484   2.148  0.3294  0.1022 -0.3229
  523SOL    HW1 2090   0.810   1.554   2.079  1.6021 -0.3627 -0.0710
  523SOL    HW2 2091   0.882   1.426   2.105  0.4557 -0.3617  2.8291
  523SOL     MW 2092   0.825   1.486   2.133  0.5140 -0.0204  0.1262
  524SOL     OW 2093   0.597   2.387   3.020  0.9069  0.0102 -0.2409
  524SOL    HW1 2094   0.632   2.449   2.957  3.3570  2.5595 -1.7444
  524SOL    HW2 2095   0.662   2.323   3.038 -2.1155  2.1028  0.6578
  524SOL     MW 2096   0.610   2.387   3.014  0.8314  0.6227 -0.3207
  525SOL     OW 2097   0.350   2.164   2.097  0.7503  0.3508  0.6414
  525SOL    HW1 2098   0.347   2.085   2.145  0.2600  2.5506 -1.8944
  525SOL    HW2 2099   0.383   2.143   2.008 -0.3462  0.8922  1.7959
  525SOL     MW 2100   0.354   2.151   2.091  0.5409  0.7125  0.4592
  526SOL     OW 2101   0.730   2.098   1.995 -0.2407  0.6886 -0.3166
  526SOL    HW1 2102   0.781   2.134   1.919 -1.2975 -2.4856  5.9789
  526SOL    HW2 2103   0.781   2.126   2.073 -0.1861  1.6458 -0.9685
  526SOL     MW 2104   0.743   2.106   1.995 -0.3729  0.3961  0.4281
  527SOL     OW 2105   1.304   1.912   2.007  0.1313 -0.2820 -0.0603
  527SOL    HW1 2106   1.264   1.858   2.073 -1.4133  2.4611 -1.2373
  527SOL    HW2 2107   1.337   1.855   1.938 -0.9336 -0.5958 -0.3979
  527SOL     MW 2108   1.304   1.898   2.007 -0.2130  0.0385 -0.2601
  528SOL     OW 2109   0.608   2.895   3.027  0.0631 -0.2201  0.0669
  528SOL    HW1 2110   0.634   2.990   3.000  0.5761 -1.0092  0.4068
  528SOL    HW2 2111   0.613   2.844   2.948  2.0085 -3.1067  1.5174
  528SOL     MW 2112   0.612   2.901   3.013  0.3874 -0.7051  0.3032
  529SOL     OW 2113   1.114   2.273   1.791  0.5836 -0.3565 -0.3949
  529SOL    HW1 2114   1.159   2.275   1.878  1.9147 -0.7823 -0.2188
  529SOL    HW2 2115   1.169   2.285   1.714 -0.4876  3.1371  0.8078
  529SOL     MW 2116   1.127   2.275   1.792  0.6179  0.0482 -0.2130
  530SOL     OW 2117   1.126   2.385   2.990  0.3596 -0.2554 -0.0639
  530SOL    HW1 2118   1.059   2.429   3.050 -0.6790 -2.0890 -1.0098
  530SOL    HW2 2119   1.118   2.292   3.002  2.1820 -1.8216  0.7650
  530SOL     MW 2120   1.116   2.379   3.000  0.4630 -0.7040 -0.0793
  531SOL     OW 2121   0.895   1.812   2.618  0.1903 -0.1710  0.3826
  531SOL    HW1 2122   0.924   1.868   2.689 -2.9044 -0.9518  0.5715
  531SOL    HW2 2123   0.868   1.732   2.662 -0.3842  2.0667  1.8366
  531SOL     MW 2124   0.895   1.809   2.633 -0.2938  0.0212  0.5993
  532SOL     OW 2125   1.695   0.315   2.866 -0.4793 -0.2323  0.0767
  532SOL    HW1 2126   1.670   0.244   2.809  2.8261  0.2602  3.1731
  532SOL    HW2 2127   1.733   0.271   2.942  0.7209  0.0199 -0.8220
  532SOL     MW 2128   1.697   0.300   2.868  0.1152 -0.1341  0.3667
  533SOL     OW 2129   1.774   2.771   2.956 -0.1165 -0.4319 -0.3074
  533SOL    HW1 2130   1.773   2.691   3.007 -0.2263 -0.2817  0.8246
  533SOL    HW2 2131   1.719   2.752   2.876 -3.6737 -4.1441  0.2311
  533SOL     MW 2132   1.766   2.758   2.952 -0.6003 -0.9019 -0.0870
  534SOL     OW 2133   1.746   2.485   2.503  0.0205  0.0666  0.2901
  534SOL    HW1 2134   1.665   2.439   2.543  1.2996 -0.2176 -1.4658
  534SOL    HW2 2135   1.815   2.468   2.574  0.9792  0.4552  2.4313
  534SOL     MW 2136   1.744   2.476   2.518  0.3157  0.0804  0.3409
  535SOL     OW 2137   1.788   2.365   1.917 -0.0623 -0.8010 -0.1933
  535SOL    HW1 2138   1.721   2.395   1.853 -0.5593  1.1539 -2.2029
  535SOL    HW2 2139   1.865   2.405   1.877 -0.1519  1.0092  1.3238
  535SOL     MW 2140   1.789   2.374   1.904 -0.1397 -0.3042 -0.2583
  536SOL     OW 2141   0.432   1.861   2.028  0.4927 -0.5486  0.0230
  536SOL    HW1 2142   0.436   1.903   1.941  0.4267  1.6184 -0.8095
  536SOL    HW2 2143   0.528   1.836   2.045 -0.1974 -1.9963  2.5183
  536SOL     MW 2144   0.445   1.863   2.019  0.3929 -0.4537  0.2424
  537SOL     OW 2145   0.968   0.194   2.933 -0.2506  0.1548  0.2636
  537SOL    HW1 2146   0.963   0.170   3.028  0.4134 -1.1656  0.4110
  537SOL    HW2 2147   0.887   0.236   2.902  2.4023  0.8823 -0.5295
  537SOL     MW 2148   0.957   0.196   2.942  0.1870  0.0765  0.1784
  538SOL     OW 2149   1.305   0.070   3.052  0.4092 -0.0547  0.3505
  538SOL    HW1 2150   1.305   0.135   2.983  0.0181  0.9271 -1.3159
  538SOL    HW2 2151   1.331   0.125   3.134 -1.4137  1.1372  1.6257
  538SOL     MW 2152   1.308   0.086   3.054  0.1170  0.2321  0.2989
  539SOL     OW 2153   0.737   2.698   2.503 -0.0368 -0.4377  0.3849
  539SOL    HW1 2154   0.802   2.757   2.538 -0.7629  0.2948  1.5860
  539SOL    HW2 2155   0.785   2.618   2.503 -1.5526 -0.9987 -0.3016
  539SOL     MW 2156   0.752   2.695   2.508 -0.3326 -0.4151  0.4528
  540SOL     OW 2157   0.389   2.218   2.871 -0.6240 -0.0295 -0.5977
  540SOL    HW1 2158   0.443   2.279   2.929 -0.0399  1.6536  1.1021
  540SOL    HW2 2159   0.334   2.170   2.933 -1.2228 -0.2967 -0.9517
  540SOL     MW 2160   0.389   2.220   2.887 -0.6260  0.1573 -0.4201
  541SOL     OW 2161   0.192   2.883   2.255 -0.0672 -0.3168  0.1917
  541SOL    HW1 2162   0.160   2.797   2.224 -0.7066  0.2480  0.2129
  541SOL    HW2 2163   0.251   2.871   2.326 -1.9452  1.5728 -0.6465
  541SOL     MW 2164   0.196   2.870   2.260 -0.3994  0.0070  0.0839
  542SOL     OW 2165   0.885   2.300   2.778  0.0557 -0.4841  0.0384
  542SOL    HW1 2166   0.870   2.252   2.863  1.3868 -1.0349 -2.8596
  542SOL    HW2 2167   0.942   2.379   2.788  1.0857  1.5899  0.5843
  542SOL     MW 2168   0.891   2.304   2.790  0.3672 -0.2831 -0.2719
  543SOL     OW 2169   1.373   2.651   2.669  0.5233 -0.1912  0.0984
  543SOL    HW1 2170   1.396   2.571   2.619 -1.2229 -1.5968 -0.9360
  543SOL    HW2 2171   1.451   2.711   2.675  2.1872 -0.0427  0.3561
  543SOL     MW 2172   1.386   2.649   2.663  0.5124 -0.3571 -0.0041
  544SOL     OW 2173   0.694   0.082   2.586 -0.0896 -0.0718 -0.3404
  544SOL    HW1 2174   0.619   0.031   2.579  2.1907 -0.2232 -1.8715
  544SOL    HW2 2175   0.749   0.064   2.515  1.0527 -0.0944 -0.2140
  544SOL     MW 2176   0.692   0.073   2.576  0.3620 -0.0948 -0.5258
  545SOL     OW 2177   1.568   2.215   2.331 -0.3227 -0.7606  0.1639
  545SOL    HW1 2178   1.522   2.137   2.358  2.0191  2.5881  1.0397
  545SOL    HW2 2179   1.644   2.175   2.298 -1.3936 -3.8560 -1.5430
  545SOL     MW 2180   1.572   2.200   2.330 -0.1550 -0.7272  0.0542
  546SOL     OW 2181   2.974   2.018   0.110 -0.1596 -0.0628 -0.1313
  546SOL    HW1 2182   2.942   2.093   0.054 -0.2385  1.4174  2.5638
  546SOL    HW2 2183   3.047   1.971   0.059  3.0505  0.2353 -2.6460
  546SOL     MW 2184   2.979   2.022   0.096  0.2535  0.1718 -0.1075
  547SOL     OW 2185   0.110   2.934   0.057 -0.1595 -0.0467  0.0260
  547SOL    HW1 2186   0.151   2.937  -0.031  2.2797 -1.6384 -0.4739
  547SOL    HW2 2187   0.156   2.858   0.093  0.8796 -0.9761 -0.6946
  547SOL     MW 2188   0.122   2.925   0.050  0.2994 -0.3794 -0.1351
  548SOL     OW 2189   0.288   2.492   0.279  0.9483 -0.2522 -0.2425
  548SOL    HW1 2190   0.262   2.548   0.206  0.2693  1.1859  0.7386
  548SOL    HW2 2191   0.233   2.419   0.273  3.3021  0.3493 -0.3506
  548SOL     MW 2192   0.277   2.490   0.269  1.1693  0.0169 -0.1273
  549SOL     OW 2193   0.700   1.830   2.079 -0.1321  0.1567  0.8991
  549SOL    HW1 2194   0.702   1.920   2.041 -1.2173  5.1219  1.8865
  549SOL    HW2 2195   0.720   1.837   2.173 -1.1357 -2.7850  3.1984
  549SOL     MW 2196   0.703   1.843   2.086 -0.4077  0.4237  1.3328
  550SOL     OW 2197   1.857   1.751   2.526 -0.2058  0.2368  0.3608
  550SOL    HW1 2198   1.826   1.735   2.438 -2.8746  0.2270 -2.2790
  550SOL    HW2 2199   1.849   1.843   2.557 -2.0505 -0.7690  0.8386
  550SOL     MW 2200   1.852   1.761   2.518 -0.8013  0.1028  0.0756
  551SOL     OW 2201   0.852   2.297   0.246  0.0179  0.2825  0.1650
  551SOL    HW1 2202   0.933   2.338   0.212 -0.4583  2.1354  2.1829
  551SOL    HW2 2203   0.796   2.282   0.171  1.3689 -2.0453 -0.6840
  551SOL     MW 2204   0.855   2.300   0.231  0.1333  0.2199  0.3192
  552SOL     OW 2205   1.739   1.751   2.280  0.3588  0.1651  0.0162
  552SOL    HW1 2206   1.654   1.716   2.292 -0.7028 -0.7975  1.6850
  552SOL    HW2 2207   1.793   1.706   2.210  1.2179 -0.0326  0.0001
  552SOL     MW 2208   1.735   1.741   2.272  0.3321  0.0120  0.2343
  553SOL     OW 2209   1.210   2.315   1.522  0.0107  0.3558 -0.1546
  553SOL    HW1 2210   1.228   2.225   1.491 -0.4997 -1.2586  2.2099
  553SOL    HW2 2211   1.269   2.376   1.474  0.8133  0.4928  0.2480
  553SOL     MW 2212   1.220   2.311   1.511  0.0492  0.1609  0.2105
  554SOL     OW 2213   0.533   2.810   2.717  0.4465 -0.0434  0.1313
  554SOL    HW1 2214   0.512   2.903   2.694 -2.5947  1.9708  1.8855
  554SOL    HW2 2215   0.581   2.778   2.643 -0.8815 -1.1475  3.3656
  554SOL     MW 2216   0.537   2.818   2.704 -0.1300  0.0767  0.7895
  555SOL     OW 2217   0.562   2.370   2.613  0.0793  0.2152  0.1668
  555SOL    HW1 2218   0.559   2.278   2.628 -0.9966 -2.3122 -1.6911
  555SOL    HW2 2219   0.643   2.391   2.558  0.2922 -0.6728 -0.4618
  555SOL     MW 2220   0.572   2.360   2.608 -0.0346 -0.2354 -0.1613
  556SOL     OW 2221   1.049   1.800   0.139  0.1843  0.2720 -0.1027
  556SOL    HW1 2222   1.059   1.791   0.042  0.6148  1.9345 -0.4870
  556SOL    HW2 2223   1.132   1.824   0.174 -2.8040  0.4996 -2.0388
  556SOL     MW 2224   1.061   1.802   0.131 -0.1532  0.5214 -0.4089
  557SOL     OW 2225   1.043   2.699   0.452 -0.1063 -0.0344 -0.0485
  557SOL    HW1 2226   1.089   2.676   0.374 -1.3606 -1.2013  2.0825
  557SOL    HW2 2227   0.961   2.749   0.426 -3.0661 -0.3748 -0.0724
  557SOL     MW 2228   1.038   2.702   0.438 -0.6623 -0.2333  0.2295
  558SOL     OW 2229   0.264   2.086   3.085  0.5511  0.5623  0.3077
  558SOL    HW1 2230   0.232   2.000   3.110  3.6440  2.5728  0.1461
  558SOL    HW2 2231   0.210   2.154   3.118  0.5624  0.8914 -1.4245
  558SOL     MW 2232   0.253   2.083   3.093  0.9607  0.8710  0.0578
  559SOL     OW 2233   1.193   2.277   2.038 -0.1883  0.3592  0.1268
  559SOL    HW1 2234   1.170   2.362   2.072  1.0668  1.0946  0.1651
  559SOL    HW2 2235   1.195   2.219   2.122 -2.6085  0.0351  2.7728
  559SOL     MW 2236   1.191   2.280   2.053 -0.3420  0.4134  0.4809
  560SOL     OW 2237   1.932   2.947   0.036  0.2328 -1.0343  0.0729
  560SOL    HW1 2238   2.015   2.965  -0.010 -0.0712 -2.1133 -0.7053
  560SOL    HW2 2239   1.885   2.901  -0.030 -0.6647 -0.3069 -0.8776
  560SOL     MW 2240   1.936   2.943   0.021  0.0742 -1.0807 -0.1552
  561SOL     OW 2241   0.476   2.085   0.164 -0.3065  0.0136  0.2572
  561SOL    HW1 2242   0.412   2.112   0.083 -0.5523 -1.1265 -0.7685
  561SOL    HW2 2243   0.516   2.170   0.196 -1.3566 -2.0113 -1.4079
  561SOL     MW 2244   0.473   2.099   0.158 -0.4775 -0.4040 -0.0978
  562SOL     OW 2245   0.872   2.142   2.230  0.1958  0.2927 -0.3014
  562SOL    HW1 2246   0.849   2.237   2.234  0.7044  0.5086 -0.4474
  562SOL    HW2 2247   0.965   2.126   2.251  0.8848  1.2267 -0.1597
  562SOL     MW 2248   0.881   2.152   2.233  0.3538  0.4444 -0.3020
  563SOL     OW 2249   1.226   0.294   0.552 -0.6261  0.0093  0.1384
  563SOL    HW1 2250   1.187   0.273   0.463 -0.9744 -0.2018  0.4921
  563SOL    HW2 2251   1.274   0.207   0.567 -1.0884  0.0595  0.9538
  563SOL     MW 2252   1.227   0.280   0.543 -0.7331 -0.0119  0.2926
  564SOL     OW 2253   1.018   2.613   2.335  0.2812  0.2586  0.7016
  564SOL    HW1 2254   1.062   2.605   2.249  0.3269 -0.0467 -0.2979
  564SOL    HW2 2255   1.065   2.667   2.401 -0.4230 -1.3905 -0.0946
  564SOL     MW 2256   1.030   2.619   2.333  0.1943  0.0008  0.4647
  565SOL     OW 2257   2.914   2.655   2.662 -0.1620 -0.1989 -1.3260
  565SOL    HW1 2258   2.986   2.709   2.627  4.2186 -1.2252 -3.1647
  565SOL    HW2 2259   2.840   2.648   2.591 -0.6981 -0.3076 -0.1774
  565SOL     MW 2260   2.914   2.661   2.648  0.3453 -0.3487 -1.4170
  566SOL     OW 2261   2.235   1.955   2.342  0.7651 -0.6329  0.2961
  566SOL    HW1 2262   2.253   1.971   2.249  1.1884 -0.1516  0.6662
  566SOL    HW2 2263   2.271   2.034   2.388  0.9705 -0.5802  3.4162
  566SOL     MW 2264   2.242   1.967   2.336  0.8480 -0.5624  0.7566
  567SOL     OW 2265   1.190   2.927   0.089 -0.1311 -0.1250 -0.3569
  567SOL    HW1 2266   1.226   3.015   0.081  0.6945  1.3642 -0.3362
  567SOL    HW2 2267   1.187   2.886  -0.000 -1.4026 -1.8273 -0.4756
  567SOL     MW 2268   1.194   2.933   0.076 -0.1899 -0.1531 -0.3698
  568SOL     OW 2269   1.656   2.136   2.835  0.4747 -0.1707  0.0940
  568SOL    HW1 2270   1.700   2.185   2.913 -0.8189  2.5992  0.6388
  568SOL    HW2 2271   1.727   2.104   2.779 -0.9332 -1.8529  4.1019
  568SOL     MW 2272   1.671   2.138   2.838  0.1183 -0.0272  0.6947
  569SOL     OW 2273   0.099   2.202   2.437 -0.5080 -0.2495 -0.4381
  569SOL    HW1 2274   0.040   2.261   2.391  2.1507 -3.8557 -1.0632
  569SOL    HW2 2275   0.151   2.259   2.493  0.7370  1.3418 -3.4948
  569SOL     MW 2276   0.098   2.217   2.438  0.0071 -0.5154 -0.9239
  570SOL     OW 2277   1.476   0.412   0.489 -0.8812  0.3542  0.3867
  570SOL    HW1 2278   1.408   0.376   0.542 -1.1744  4.3780 -1.0533
  570SOL    HW2 2279   1.548   0.439   0.549 -3.9469 -2.0142 -0.5032
  570SOL     MW 2280   1.476   0.410   0.504 -1.3244  0.5726  0.0793
  571SOL     OW 2281   1.476   2.401   1.988  0.0927 -0.3818 -0.3162
  571SOL    HW1 2282   1.490   2.405   2.084  2.8955  0.1673  0.2701
  571SOL    HW2 2283   1.420   2.324   1.983  0.2765 -0.6816  3.9908
  571SOL     MW 2284   1.470   2.391   2.000  0.4868 -0.3489  0.3294
  572SOL     OW 2285   0.905   2.575   3.072  0.4131  0.2887  0.1842
  572SOL    HW1 2286   0.887   2.612   2.986  0.2535  0.9300  0.7837
  572SOL    HW2 2287   0.817   2.562   3.109 -1.4212  0.3068  1.8469
  572SOL     MW 2288   0.891   2.578   3.066  0.1500  0.3757  0.4827
  573SOL     OW 2289   1.113   2.411   0.183 -0.0050  0.0648  0.3447
  573SOL    HW1 2290   1.187   2.378   0.125  0.4604 -1.1904 -2.0079
  573SOL    HW2 2291   1.125   2.505   0.186  0.0730  3.4259 -0.5075
  573SOL     MW 2292   1.125   2.419   0.176  0.0667  0.3426 -0.0782
  574SOL     OW 2293   1.165   2.693   0.214 -0.4377  0.3052  0.4792
  574SOL    HW1 2294   1.253   2.677   0.253 -2.2058 -0.0567  1.9172
  574SOL    HW2 2295   1.166   2.784   0.196 -2.4449 -2.0639  1.3319
  574SOL     MW 2296   1.177   2.703   0.217 -0.9358 -0.0551  0.7815
  575SOL     OW 2297   3.053   2.310   1.853 -0.4156  0.3975  0.7394
  575SOL    HW1 2298   3.043   2.268   1.769  2.1612 -1.9413  3.0462
  575SOL    HW2 2299   3.110   2.383   1.820  1.7326  1.5054  1.7175
  575SOL     MW 2300   3.059   2.314   1.837  0.2078  0.2351  1.1728
  576SOL     OW 2301   2.824   1.812   2.039  0.0266  0.1369  0.0177
  576SOL    HW1 2302   2.822   1.897   1.992  3.4648 -0.3140 -0.4068
  576SOL    HW2 2303   2.733   1.781   2.029  0.0499 -0.0396  1.7454
  576SOL     MW 2304   2.811   1.819   2.031  0.4833  0.0541  0.1896
  577SOL     OW 2305   2.068   0.226   0.064  0.3631 -0.1162  0.1784
  577SOL    HW1 2306   2.011   0.284   0.019 -1.5862 -3.8452 -1.0017
  577SOL    HW2 2307   2.022   0.187   0.134 -2.5709 -0.2421  2.4296
  577SOL     MW 2308   2.054   0.229   0.067 -0.2812 -0.6248  0.3197
  578SOL     OW 2309   2.000   2.128   2.331  0.4414 -0.6540  0.4368
  578SOL    HW1 2310   1.913   2.084   2.296  1.6268 -1.6267  2.0263
  578SOL    HW2 2311   2.071   2.058   2.332 -0.3825 -2.9810 -0.7987
  578SOL     MW 2312   1.997   2.113   2.326  0.4891 -1.0894  0.4835
  579SOL     OW 2313   0.838   2.440   2.519  0.4625 -0.1260  0.1717
  579SOL    HW1 2314   0.857   2.385   2.598 -2.8003 -0.6299 -0.8836
  579SOL    HW2 2315   0.927   2.470   2.494  1.7403  0.6683 -0.0604
  579SOL     MW 2316   0.852   2.437   2.526  0.2006 -0.0877  0.0018
  580SOL     OW 2317   0.916   2.915   0.027  0.4428  0.7830  0.2281
  580SOL    HW1 2318   1.012   2.918   0.054 -0.2419  1.2807 -2.6806
  580SOL    HW2 2319   0.914   2.840  -0.030  1.6549 -1.5976 -1.3582
  580SOL     MW 2320   0.929   2.905   0.023  0.5124  0.5345 -0.3649
  581SOL     OW 2321   1.089   2.549   1.760 -0.0116  0.4796 -0.2095
  581SOL    HW1 2322   1.172   2.562   1.806  0.0586 -2.9516  2.4795
  581SOL    HW2 2323   1.097   2.458   1.735 -1.1899 -1.6001  2.2668
  581SOL     MW 2324   1.101   2.539   1.762 -0.1578 -0.2475  0.4720
  582SOL     OW 2325   0.001   2.855   2.601 -0.1150 -0.1336 -0.3434
  582SOL    HW1 2326   0.029   2.936   2.655  0.7240 -1.0980 -0.3120
  582SOL    HW2 2327   0.086   2.835   2.565  1.5296  1.3037 -1.6199
  582SOL     MW 2328   0.016   2.863   2.604  0.2127 -0.0712 -0.5077
  583SOL     OW 2329   1.975   2.473   2.674  0.4964 -0.1889 -0.6811
  583SOL    HW1 2330   2.014   2.516   2.599 -0.2175 -0.8497  0.9493
  583SOL    HW2 2331   2.007   2.381   2.674 -0.0406 -2.9587  0.9550
  583SOL     MW 2332   1.984   2.467   2.664  0.3314 -0.6415 -0.2501
  584SOL     OW 2333   0.151   1.840   2.121  0.1925 -0.0552 -0.4239
  584SOL    HW1 2334   0.241   1.844   2.082  1.3303  0.1212 -0.0734
  584SOL    HW2 2335   0.154   1.901   2.193 -0.9919  2.0845 -0.2746
  584SOL     MW 2336   0.163   1.849   2.125  0.1863  0.2504 -0.3580
  585SOL     OW 2337   1.475   2.564   0.027  0.9523 -0.0477 -0.4534
  585SOL    HW1 2338   1.421   2.591  -0.055 -0.7752  0.0366 -1.5199
  585SOL    HW2 2339   1.461   2.632   0.086  0.4039 -3.7730  1.9599
  585SOL     MW 2340   1.466   2.576   0.024  0.6520 -0.5281 -0.2757
  586SOL     OW 2341   1.270   2.996   2.372 -0.6370  0.1804 -0.2084
  586SOL    HW1 2342   1.356   2.956   2.381  1.6680  1.6340  1.4091
  586SOL    HW2 2343   1.237   3.022   2.464 -1.4888  0.5797  0.3652
  586SOL     MW 2344   1.277   2.994   2.385 -0.4453  0.4249  0.0807
  587SOL     OW 2345   1.198   1.624   2.188  0.4036 -0.4022 -0.6531
  587SOL    HW1 2346   1.188   1.535   2.230 -0.2065 -0.5777 -0.7861
  587SOL    HW2 2347   1.202   1.607   2.090  1.0952  1.7616 -0.3476
  587SOL     MW 2348   1.197   1.610   2.181  0.4144 -0.1399 -0.6303
  588SOL     OW 2349   1.387   2.153   2.719  0.3186 -0.6954  0.0716
  588SOL    HW1 2350   1.469   2.147   2.757  0.4796  0.0137 -0.7711
  588SOL    HW2 2351   1.329   2.162   2.799  4.3019  1.3032  2.2099
  588SOL     MW 2352   1.390   2.154   2.735  0.8654 -0.3382  0.2426
  589SOL     OW 2353   1.349   2.051   0.059  0.2084  0.0987  0.2593
  589SOL    HW1 2354   1.345   2.140   0.097  0.3672 -0.4046  3.3341
  589SOL    HW2 2355   1.314   1.993   0.127  2.4648  2.0296  0.8774
  589SOL     MW 2356   1.344   2.055   0.073  0.5270  0.2871  0.7465
  590SOL     OW 2357   0.451   2.591   2.235 -0.0541  0.3579  0.1731
  590SOL    HW1 2358   0.384   2.611   2.170 -1.3159  0.5900  0.9827
  590SOL    HW2 2359   0.507   2.667   2.232 -0.3895  0.2592 -1.7476
  590SOL     MW 2360   0.449   2.604   2.226 -0.2649  0.3755  0.0265
  591SOL     OW 2361   2.273   0.714   3.056  0.6203 -0.0334  0.2749
  591SOL    HW1 2362   2.188   0.741   3.028  0.3450 -0.1868  0.0812
  591SOL    HW2 2363   2.327   0.791   3.043 -1.0186 -0.2946  0.5395
  591SOL     MW 2364   2.269   0.727   3.051  0.3678 -0.0881  0.2843
  592SOL     OW 2365   1.841   2.957   0.849 -0.0326  1.0535 -0.0411
  592SOL    HW1 2366   1.860   3.028   0.782  1.1693  2.0262 -1.1063
  592SOL    HW2 2367   1.912   2.888   0.831 -0.3083 -3.4072  2.0386
  592SOL     MW 2368   1.853   2.957   0.838  0.0896  0.5933  0.0928
  593SOL     OW 2369   1.920   0.794   0.839  0.0524  0.4200  0.1475
  593SOL    HW1 2370   1.865   0.772   0.762 -1.8788 -0.8145 -1.9793
  593SOL    HW2 2371   1.938   0.704   0.868 -1.1688  0.4938 -1.0260
  593SOL     MW 2372   1.915   0.779   0.832 -0.3636  0.2669 -0.2879
  594SOL     OW 2373   2.739   1.149   1.371 -0.4400 -0.8302 -0.3423
  594SOL    HW1 2374   2.821   1.203   1.385  0.1733  2.7988 -2.4193
  594SOL    HW2 2375   2.743   1.106   1.281  2.1876 -1.4634 -0.7831
  594SOL     MW 2376   2.750   1.150   1.361 -0.0124 -0.4350 -0.6745
  595SOL     OW 2377   0.434   0.957   0.734  0.3084 -0.5090 -0.2803
  595SOL    HW1 2378   0.460   1.005   0.651  0.4730 -1.2517  0.2438
  595SOL    HW2 2379   0.427   1.014   0.807 -1.7736 -0.7299 -1.6520
  595SOL     MW 2380   0.437   0.971   0.733  0.0554 -0.6362 -0.3921
  596SOL     OW 2381   2.448   1.354   0.587  0.3515 -0.5913 -0.1133
  596SOL    HW1 2382   2.484   1.438   0.555 -0.9330  2.0037 -1.7343
  596SOL    HW2 2383   2.509   1.311   0.647  1.7531 -0.8628 -2.5097
  596SOL     MW 2384   2.461   1.360   0.590  0.3669 -0.2847 -0.6434
  597SOL     OW 2385   2.173   0.662   1.719  0.4068  0.6527  0.2538
  597SOL    HW1 2386   2.251   0.619   1.750 -0.3645  0.2210 -0.7345
  597SOL    HW2 2387   2.155   0.628   1.627  0.7231 -1.1213  1.9315
  597SOL     MW 2388   2.181   0.652   1.711  0.3468  0.3617  0.3447
  598SOL     OW 2389   2.617   1.012   2.867 -0.3699  0.2545  0.2596
  598SOL    HW1 2390   2.661   0.968   2.788 -6.1661  2.1953  1.1196
  598SOL    HW2 2391   2.683   1.068   2.916  3.3573  1.1958 -3.6758
  598SOL     MW 2392   2.631   1.013   2.863 -0.6429  0.6348 -0.1462
  599SOL     OW 2393   2.912   0.374   2.001  0.1634 -0.1936  0.6231
  599SOL    HW1 2394   2.889   0.357   2.092  0.9299  1.9729 -0.1751
  599SOL    HW2 2395   2.950   0.461   2.009  2.1338 -1.3751 -2.6735
  599SOL     MW 2396   2.914   0.383   2.014  0.5245 -0.0637  0.0828
  600SOL     OW 2397   1.878   1.708   0.885  0.3564  0.0896  0.2143
  600SOL    HW1 2398   1.907   1.740   0.967  1.4974  2.8157 -1.3134
  600SOL    HW2 2399   1.785   1.732   0.893  3.4502  0.1038 -1.0892
  600SOL     MW 2400   1.870   1.715   0.897  0.9151  0.4511 -0.1593
  601SOL     OW 2401   2.546   0.801   0.876  0.4099  0.1807 -0.1752
  601SOL    HW1 2402   2.561   0.814   0.972  0.7889 -1.1735  0.1344
  601SOL    HW2 2403   2.482   0.724   0.873  0.9485  0.2803  0.1751
  601SOL     MW 2404   2.540   0.793   0.889  0.5309  0.0152 -0.0881
  602SOL     OW 2405   2.305   1.935   0.678  0.2698 -0.0181  0.1918
  602SOL    HW1 2406   2.241   1.894   0.737  1.7885 -0.1460  1.5188
  602SOL    HW2 2407   2.260   2.013   0.645 -0.4919 -0.2311 -2.4726
  602SOL     MW 2408   2.291   1.940   0.682  0.3697 -0.0631  0.0154
  603SOL     OW 2409   2.992   1.395   1.820 -0.4315  0.2046 -0.7126
  603SOL    HW1 2410   3.078   1.414   1.862  0.3248  0.6462  1.6523
  603SOL    HW2 2411   2.990   1.297   1.810 -0.5079  1.5807  1.3793
  603SOL     MW 2412   3.003   1.385   1.824 -0.3418  0.4444 -0.1245
  604SOL     OW 2413   2.094   1.543   0.456  0.5653  0.1217 -0.3145
  604SOL    HW1 2414   2.119   1.472   0.520 -3.4524 -1.4250 -2.8793
  604SOL    HW2 2415   2.035   1.601   0.508  1.5578  2.3821  0.1400
  604SOL     MW 2416   2.090   1.541   0.472  0.1661  0.2158 -0.5929
  605SOL     OW 2417   2.657   1.572   0.876 -0.2089  0.1935 -0.3685
  605SOL    HW1 2418   2.594   1.603   0.816 -0.7826 -2.3467  3.4493
  605SOL    HW2 2419   2.607   1.532   0.940 -0.4304  0.0660  0.0278
  605SOL     MW 2420   2.642   1.571   0.876 -0.3138 -0.1585  0.1875
  606SOL     OW 2421   2.535   1.756   2.004  0.2316  0.1801  0.1801
  606SOL    HW1 2422   2.447   1.786   2.026 -2.3467  0.0706 -0.4678
  606SOL    HW2 2423   2.534   1.689   1.929 -2.8638 -0.7993 -1.2833
  606SOL     MW 2424   2.523   1.751   1.997 -0.5170  0.0364 -0.0984
  607SOL     OW 2425   2.341   1.016   3.011  0.2613 -0.2091 -0.4783
  607SOL    HW1 2426   2.422   0.993   2.965  1.4705 -1.0879  1.0023
  607SOL    HW2 2427   2.382   1.036   3.097  1.8014 -1.9405  1.8201
  607SOL     MW 2428   2.357   1.016   3.016  0.6240 -0.5535  0.0203
  608SOL     OW 2429   1.889   0.277   0.585  0.5405  0.2485 -0.1428
  608SOL    HW1 2430   1.917   0.328   0.505  0.5905  0.6826 -1.2189
  608SOL    HW2 2431   1.849   0.188   0.557 -2.2429 -1.3411 -2.4797
  608SOL     MW 2432   1.888   0.272   0.571  0.1799  0.0960 -0.5931
  609SOL     OW 2433   2.149   1.918   3.017  0.4051  0.7095  0.4683
  609SOL    HW1 2434   2.076   1.869   2.968  0.5624  0.3778 -0.4605
  609SOL    HW2 2435   2.138   1.886   3.108  1.5306  2.4286  0.5302
  609SOL     MW 2436   2.138   1.907   3.022  0.5743  0.8926  0.3540
  610SOL     OW 2437   1.857   1.087   1.343 -0.1011 -0.3717 -0.4423
  610SOL    HW1 2438   1.864   1.022   1.270  1.4415  1.3198 -1.7553
  610SOL    HW2 2439   1.781   1.062   1.392  0.5910 -2.5923 -0.2232
  610SOL     MW 2440   1.848   1.075   1.340  0.1937 -0.4415 -0.5866
  611SOL     OW 2441   2.448   1.670   0.716  0.2219 -0.6223  0.2115
  611SOL    HW1 2442   2.386   1.746   0.728  0.3471 -0.0461 -1.6210
  611SOL    HW2 2443   2.446   1.674   0.618  0.0503  0.6073 -2.5753
  611SOL     MW 2444   2.439   1.681   0.705  0.2158 -0.3841 -0.3980
  612SOL     OW 2445   2.788   2.812   0.455  0.0057  0.8123 -0.1179
  612SOL    HW1 2446   2.815   2.867   0.532 -0.3071 -1.4234  0.4034
  612SOL    HW2 2447   2.871   2.775   0.419 -0.7655  0.4689 -1.1718
  612SOL     MW 2448   2.803   2.814   0.460 -0.1373  0.4720 -0.1882
  613SOL     OW 2449   1.599   1.033   1.124 -0.4904  0.6110  0.0228
  613SOL    HW1 2450   1.594   1.113   1.180 -2.3686  0.6584 -0.5561
  613SOL    HW2 2451   1.687   1.000   1.122 -1.1315  1.2967  0.4797
  613SOL     MW 2452   1.610   1.039   1.131 -0.8228  0.7077  0.0067
  614SOL     OW 2453   2.046   0.544   1.492  0.1684  0.0941 -0.0466
  614SOL    HW1 2454   2.057   0.459   1.534  1.0866 -0.4341  1.6330
  614SOL    HW2 2455   2.019   0.515   1.407 -2.4966 -0.1684 -0.1021
  614SOL     MW 2456   2.044   0.529   1.487 -0.0621 -0.0102  0.1677
  615SOL     OW 2457   2.267   0.836   0.184  0.5545  0.8038 -0.0482
  615SOL    HW1 2458   2.298   0.785   0.254  0.0226  3.2482  0.3059
  615SOL    HW2 2459   2.281   0.781   0.105  3.6793 -0.1007  2.9959
  615SOL     MW 2460   2.273   0.822   0.183  0.8966  1.0070  0.4002
  616SOL     OW 2461   2.567   0.433   1.599 -0.3915 -0.2221  0.4232
  616SOL    HW1 2462   2.522   0.371   1.540 -2.2311  1.5739  0.9009
  616SOL    HW2 2463   2.629   0.487   1.542  0.9687 -0.5826  0.9944
  616SOL     MW 2464   2.569   0.432   1.584 -0.4547 -0.0327  0.5616
  617SOL     OW 2465   2.880   0.549   1.736 -0.3714  0.7346 -0.2625
  617SOL    HW1 2466   2.808   0.564   1.803 -0.1762 -2.3834 -0.5374
  617SOL    HW2 2467   2.850   0.459   1.713  0.7758  0.4014 -2.9408
  617SOL     MW 2468   2.866   0.539   1.742 -0.1943  0.2793 -0.6522
  618SOL     OW 2469   2.649   0.369   1.913  0.1363 -0.0793 -0.4086
  618SOL    HW1 2470   2.631   0.462   1.934 -0.4834  0.4490  0.1726
  618SOL    HW2 2471   2.741   0.351   1.934 -0.1917  0.4268 -1.7625
  618SOL     MW 2472   2.659   0.379   1.919  0.0113  0.0572 -0.5105
  619SOL     OW 2473   2.595   0.853   0.154 -0.4413 -0.7552 -0.1736
  619SOL    HW1 2474   2.691   0.866   0.167  2.3135 -1.5852  1.5061
  619SOL    HW2 2475   2.560   0.802   0.226 -1.4423 -2.8118  0.0165
  619SOL     MW 2476   2.603   0.848   0.166 -0.2099 -1.1361  0.0731
  620SOL     OW 2477   2.283   1.088   0.932 -0.0076  0.4033  0.2071
  620SOL    HW1 2478   2.358   1.113   0.881  0.8269 -1.2841  0.7414
  620SOL    HW2 2479   2.272   0.997   0.907 -0.2340 -2.1350  1.3323
  620SOL     MW 2480   2.291   1.080   0.922  0.0726 -0.1543  0.4260
  621SOL     OW 2481   1.468   2.118   1.984 -0.2456  0.3100  0.3582
  621SOL    HW1 2482   1.398   2.056   1.998  1.5100 -0.3601  1.0244
  621SOL    HW2 2483   1.532   2.108   2.056  0.9383 -1.6422 -1.4016
  621SOL     MW 2484   1.467   2.109   1.995  0.1423 -0.0360  0.2139
  622SOL     OW 2485   2.614   0.154   0.188 -0.3290 -0.1635  0.2257
  622SOL    HW1 2486   2.700   0.170   0.221  1.0936 -0.6157 -0.4733
  622SOL    HW2 2487   2.612   0.054   0.162  3.2369  0.5745  0.1620
  622SOL     MW 2488   2.625   0.143   0.189  0.3292 -0.1258  0.1251
  623SOL     OW 2489   2.352   2.776   0.836 -0.0672 -0.3037  0.3458
  623SOL    HW1 2490   2.422   2.837   0.834 -1.2675  1.2315 -0.3152
  623SOL    HW2 2491   2.296   2.806   0.908 -1.1669  0.7323 -0.9352
  623SOL     MW 2492   2.354   2.788   0.845 -0.3707  0.0355  0.0896
  624SOL     OW 2493   2.239   1.651   3.036 -0.0313  0.1563  0.3531
  624SOL    HW1 2494   2.156   1.607   3.054  2.3746  2.1374  2.1708
  624SOL    HW2 2495   2.219   1.744   3.026  1.9310 -0.3810 -0.4417
  624SOL     MW 2496   2.226   1.658   3.037  0.5450  0.3468  0.4881
  625SOL     OW 2497   2.162   1.905   1.065 -0.6228  0.4466 -0.3729
  625SOL    HW1 2498   2.202   1.872   1.144 -0.8317  1.9160 -1.9170
  625SOL    HW2 2499   2.158   1.832   1.006 -1.1604  0.5475 -0.2748
  625SOL     MW 2500   2.167   1.891   1.068 -0.7213  0.6538 -0.5636
  626SOL     OW 2501   0.161   1.537   2.371 -0.4434 -0.1151  0.2524
  626SOL    HW1 2502   0.112   1.453   2.361  1.0178  0.2299 -2.5332
  626SOL    HW2 2503   0.111   1.587   2.433 -0.6191  0.0179 -3.6112
  626SOL     MW 2504   0.148   1.532   2.378 -0.2738 -0.0520 -0.6249
  627SOL     OW 2505   2.443   0.817   2.562  0.2160 -0.4952  0.3356
  627SOL    HW1 2506   2.383   0.895   2.542 -0.8010 -1.3638 -0.8900
  627SOL    HW2 2507   2.414   0.749   2.498 -1.6796  1.2305  1.2504
  627SOL     MW 2508   2.431   0.818   2.551 -0.1683 -0.3821  0.2946
  628SOL     OW 2509   2.288   1.373   1.387 -0.4470 -0.1183 -0.4154
  628SOL    HW1 2510   2.259   1.309   1.326  0.7376  0.5549 -0.9150
  628SOL    HW2 2511   2.387   1.364   1.375  1.8222 -1.2949  2.4844
  628SOL     MW 2512   2.297   1.363   1.377  0.0087 -0.1847 -0.0987
  629SOL     OW 2513   1.991   0.545   1.216  0.0575 -0.0130  0.4696
  629SOL    HW1 2514   2.055   0.620   1.218 -0.1421 -1.2803 -0.8595
  629SOL    HW2 2515   1.905   0.577   1.245  0.8857 -2.1947  0.1849
  629SOL     MW 2516   1.988   0.559   1.220  0.1404 -0.4681  0.2566
  630SOL     OW 2517   2.530   1.802   3.063  0.0721  0.2744 -0.0935
  630SOL    HW1 2518   2.471   1.871   3.036  1.4320 -1.0713  2.0269
  630SOL    HW2 2519   2.482   1.729   3.095  0.3696  3.3450 -0.5281
  630SOL     MW 2520   2.516   1.801   3.064  0.2907  0.5020  0.1289
  631SOL     OW 2521   1.978   1.793   1.591  0.0493  0.2272 -0.2330
  631SOL    HW1 2522   2.005   1.701   1.623 -3.4284 -1.6915 -0.6569
  631SOL    HW2 2523   1.961   1.791   1.493  0.0444 -1.4505 -3.4298
  631SOL     MW 2524   1.980   1.781   1.582 -0.4102 -0.2473 -0.7107
  632SOL     OW 2525   0.159   2.089   1.578 -0.8102 -0.1457 -0.2141
  632SOL    HW1 2526   0.078   2.071   1.617  0.6746 -0.5726  1.2256
  632SOL    HW2 2527   0.183   1.999   1.541 -1.3079 -1.6811 -0.1481
  632SOL     MW 2528   0.152   2.075   1.578 -0.6800 -0.4046 -0.0154
  633SOL     OW 2529   2.424   0.688   0.353  0.2130 -0.2002  0.0717
  633SOL    HW1 2530   2.513   0.670   0.386  2.3023  1.8117  2.6686
  633SOL    HW2 2531   2.369   0.609   0.363 -2.6986  0.0389 -1.4474
  633SOL     MW 2532   2.429   0.675   0.359  0.1045  0.0968  0.2139
  634SOL     OW 2533   2.646   3.079   0.632  0.0629 -0.0238  0.3290
  634SOL    HW1 2534   2.687   3.165   0.614  0.5572 -0.5510  1.3960
  634SOL    HW2 2535   2.603   3.054   0.550 -3.1476  0.3655 -0.3522
  634SOL     MW 2536   2.646   3.087   0.619 -0.2955 -0.0420  0.3799
  635SOL     OW 2537   2.618   0.123   1.801 -0.5956 -0.4537 -0.0259
  635SOL    HW1 2538   2.701   0.099   1.759 -1.5587 -1.5317 -1.1123
  635SOL    HW2 2539   2.631   0.208   1.843 -3.9876  0.5818 -1.6244
  635SOL     MW 2540   2.631   0.131   1.801 -1.1702 -0.4593 -0.3801
  636SOL     OW 2541   2.948   1.649   0.972  0.3977  0.1501 -0.2582
  636SOL    HW1 2542   2.857   1.675   0.954 -1.4388 -2.0303  1.4697
  636SOL    HW2 2543   2.964   1.693   1.061  3.1312  0.8936  0.9869
  636SOL     MW 2544   2.938   1.658   0.981  0.5160 -0.0395  0.1341
  637SOL     OW 2545   2.901   1.488   0.693 -0.0709 -0.2142 -0.4290
  637SOL    HW1 2546   2.928   1.550   0.762 -1.3791  2.6812  1.3857
  637SOL    HW2 2547   2.817   1.455   0.719 -0.2448 -0.2713 -1.2549
  637SOL     MW 2548   2.893   1.492   0.706 -0.2664  0.1603 -0.2986
  638SOL     OW 2549   2.650   0.658   0.497 -0.1079 -0.2464 -0.3685
  638SOL    HW1 2550   2.739   0.629   0.477 -2.0460 -0.3880  0.7868
  638SOL    HW2 2551   2.624   0.603   0.571  0.6530  1.7299  1.6694
  638SOL     MW 2552   2.658   0.647   0.504 -0.2632 -0.0043  0.0528
  639SOL     OW 2553   1.820   0.008   0.585  0.3595  0.2379 -1.2485
  639SOL    HW1 2554   1.725   0.028   0.583  2.0896  0.7936 -1.4694
  639SOL    HW2 2555   1.844  -0.040   0.507  1.1958 -1.6298  0.8838
  639SOL     MW 2556   1.811   0.004   0.575  0.6981  0.0648 -0.9963
  640SOL     OW 2557   0.372   1.368   0.090 -0.3356 -0.1668 -0.0175
  640SOL    HW1 2558   0.388   1.413   0.005  0.6150  1.8134 -1.3173
  640SOL    HW2 2559   0.348   1.274   0.070 -1.1888  0.4310  0.1110
  640SOL     MW 2560   0.371   1.361   0.076 -0.3227  0.1734 -0.1721
  641SOL     OW 2561   2.238   0.447   0.372 -0.1101 -0.0026  0.2282
  641SOL    HW1 2562   2.265   0.442   0.279  1.4990  0.6756  0.0263
  641SOL    HW2 2563   2.291   0.389   0.421 -2.5919  1.0260  0.4868
  641SOL     MW 2564   2.249   0.439   0.366 -0.2252  0.2226  0.2357
  642SOL     OW 2565   3.099   3.093   0.560 -0.5092 -0.8635  0.3173
  642SOL    HW1 2566   3.091   3.181   0.519 -0.1152  1.1575  0.6061
  642SOL    HW2 2567   3.010   3.072   0.597 -1.9632  2.3488  1.2858
  642SOL     MW 2568   3.086   3.102   0.559 -0.6491 -0.1730  0.4832
  643SOL     OW 2569   2.014   0.342   1.665  0.3139  0.1453 -0.4264
  643SOL    HW1 2570   2.095   0.344   1.714 -1.2947  2.8214  2.8236
  643SOL    HW2 2571   2.024   0.278   1.590 -0.2597 -0.3522  0.5641
  643SOL     MW 2572   2.026   0.334   1.661  0.0260  0.4328  0.1331
  644SOL     OW 2573   2.714   1.846   0.998  0.3776  0.4576  0.4131
  644SOL    HW1 2574   2.666   1.810   1.069 -0.6942 -1.5163  0.2810
  644SOL    HW2 2575   2.642   1.892   0.948 -0.2615  1.4652  2.9464
  644SOL     MW 2576   2.698   1.848   1.000  0.1519  0.3301  0.7299
  645SOL     OW 2577   2.810   0.885   0.654  0.3842 -0.1524 -0.1293
  645SOL    HW1 2578   2.865   0.857   0.726  0.2998  2.9100 -1.3990
  645SOL    HW2 2579   2.749   0.810   0.646 -0.3171  0.7503  0.7228
  645SOL     MW 2580   2.810   0.872   0.662  0.2805  0.3708 -0.1844
  646SOL     OW 2581   0.177   2.257   0.853 -0.1553 -0.2783 -0.9076
  646SOL    HW1 2582   0.222   2.172   0.846 -1.0659 -1.5543  2.7695
  646SOL    HW2 2583   0.129   2.282   0.774  0.0459  2.4027  1.8494
  646SOL     MW 2584   0.177   2.249   0.842 -0.2489 -0.0929 -0.0586
  647SOL     OW 2585   2.729   0.543   2.976 -0.1972  0.1854  0.0544
  647SOL    HW1 2586   2.668   0.487   3.019 -1.2487  1.0975  1.2250
  647SOL    HW2 2587   2.689   0.625   2.976  4.0131  0.5805 -1.5144
  647SOL     MW 2588   2.716   0.546   2.982  0.2196  0.3579  0.0018
  648SOL     OW 2589   2.220   0.713   1.188 -0.3227  0.3458 -0.5335
  648SOL    HW1 2590   2.234   0.748   1.103  1.1853 -1.0672  2.1682
  648SOL    HW2 2591   2.219   0.792   1.242 -0.7267  1.9137 -1.4667
  648SOL     MW 2592   2.221   0.728   1.184 -0.1770  0.3662 -0.3002
  649SOL     OW 2593   2.385   2.724   1.250  0.2782  0.3740 -0.1001
  649SOL    HW1 2594   2.473   2.765   1.260  0.2845 -0.6225 -0.4037
  649SOL    HW2 2595   2.394   2.644   1.195  0.3809  0.3859  3.6384
  649SOL     MW 2596   2.398   2.719   1.244  0.2926  0.2441  0.3531
  650SOL     OW 2597   2.799   0.239   0.628  0.1848  0.1932  0.5526
  650SOL    HW1 2598   2.829   0.273   0.711  1.5127 -2.8348 -0.1741
  650SOL    HW2 2599   2.878   0.257   0.570  0.3278  2.4499 -2.1001
  650SOL     MW 2600   2.814   0.246   0.631  0.3789  0.0914  0.1067
  651SOL     OW 2601   2.973   0.345   0.839  0.5539  0.3752  0.2203
  651SOL    HW1 2602   3.050   0.402   0.808  0.8563  1.3437 -0.5657
  651SOL    HW2 2603   2.919   0.399   0.899  0.6936  0.6601 -1.2627
  651SOL     MW 2604   2.976   0.360   0.843  0.6122  0.5406 -0.0791
  652SOL     OW 2605   2.383   1.418   2.966  0.4086 -0.4558  0.5842
  652SOL    HW1 2606   2.460   1.443   2.907 -0.4261 -1.5018  0.1329
  652SOL    HW2 2607   2.333   1.503   2.975 -0.2119 -1.6385 -1.1398
  652SOL     MW 2608   2.386   1.433   2.959  0.2166 -0.7498  0.2972
  653SOL     OW 2609   1.979   0.433   0.358 -0.0114  0.0820 -0.3726
  653SOL    HW1 2610   1.967   0.355   0.304 -0.4200  0.2978  0.7581
  653SOL    HW2 2611   2.074   0.435   0.363  0.6693 -3.2122  1.0656
  653SOL     MW 2612   1.990   0.423   0.352  0.0245 -0.3242 -0.0337
  654SOL     OW 2613   2.473   1.034   0.702 -0.2125  0.0866  0.1427
  654SOL    HW1 2614   2.401   1.034   0.640  1.5783 -2.3926 -0.9067
  654SOL    HW2 2615   2.504   0.944   0.710 -0.2736  2.5108 -0.4007
  654SOL     MW 2616   2.467   1.022   0.695  0.0157  0.0794 -0.0674
  655SOL     OW 2617   3.019   0.917   0.432 -0.4130  0.2148 -0.1427
  655SOL    HW1 2618   3.013   0.962   0.515  2.0541  2.2102 -0.8024
  655SOL    HW2 2619   2.981   0.824   0.447 -1.2893 -0.3948 -1.9152
  655SOL     MW 2620   3.013   0.911   0.445 -0.2031  0.3976 -0.4636
  656SOL     OW 2621   1.939   2.769   1.228  0.2972 -0.4182  0.1314
  656SOL    HW1 2622   1.952   2.839   1.294 -1.7246 -0.9068 -0.9918
  656SOL    HW2 2623   1.980   2.691   1.252 -2.1639  1.2769 -0.9679
  656SOL     MW 2624   1.946   2.768   1.240 -0.2942 -0.2590 -0.1619
  657SOL     OW 2625   0.248   1.515   1.241 -0.0755  0.0675  0.2467
  657SOL    HW1 2626   0.155   1.510   1.252  0.0208  0.7576  1.7338
  657SOL    HW2 2627   0.260   1.543   1.149  1.8045  1.3178 -0.9808
  657SOL     MW 2628   0.237   1.518   1.230  0.1852  0.3235  0.2809
  658SOL     OW 2629   2.700   1.380   0.240 -0.1697  0.2338  0.1253
  658SOL    HW1 2630   2.639   1.321   0.288 -2.1799  0.5300  1.1364
  658SOL    HW2 2631   2.726   1.439   0.307 -0.0755  0.4298 -1.1726
  658SOL     MW 2632   2.696   1.380   0.255 -0.4225  0.2987  0.0875
  659SOL     OW 2633   2.252   1.559   1.017  0.7928 -0.0122  0.4304
  659SOL    HW1 2634   2.330   1.499   1.035 -1.3932  0.1555 -0.2049
  659SOL    HW2 2635   2.230   1.604   1.093 -0.3933 -2.3857 -0.3360
  659SOL     MW 2636   2.260   1.557   1.030  0.3478 -0.3032  0.2455
  660SOL     OW 2637   2.049   1.542   1.706 -0.1094 -0.1559 -0.8702
  660SOL    HW1 2638   2.063   1.576   1.801  0.0388 -0.5603  0.7830
  660SOL    HW2 2639   2.017   1.454   1.704  0.1687  1.3533 -1.9743
  660SOL     MW 2640   2.046   1.535   1.718 -0.0531 -0.0101 -0.7978
  661SOL     OW 2641   2.374   1.103   0.167 -0.2137 -0.8428  0.3810
  661SOL    HW1 2642   2.426   1.129   0.240 -0.0825 -0.9889 -1.9045
  661SOL    HW2 2643   2.342   1.010   0.184  1.0836 -0.9466  1.9851
  661SOL     MW 2644   2.377   1.094   0.179 -0.0252 -0.8758  0.2911
  662SOL     OW 2645   2.534   2.987   0.874 -0.5244 -0.3640 -0.3775
  662SOL    HW1 2646   2.466   3.043   0.916 -0.4369 -1.3170  0.0016
  662SOL    HW2 2647   2.561   3.031   0.794 -0.5890  1.1444 -0.0538
  662SOL     MW 2648   2.528   3.000   0.869 -0.5214 -0.2907 -0.2848
  663SOL     OW 2649   2.821   1.577   0.440 -0.2008  0.0985 -0.0008
  663SOL    HW1 2650   2.889   1.626   0.396  2.3801  0.2679 -1.4166
  663SOL    HW2 2651   2.860   1.563   0.524 -2.4568  0.6807 -1.6087
  663SOL     MW 2652   2.835   1.582   0.445 -0.1579  0.1977 -0.3997
  664SOL     OW 2653   2.492   1.585   1.553  0.2498  0.0522  0.0937
  664SOL    HW1 2654   2.457   1.675   1.548  1.4534 -0.1854 -0.1190
  664SOL    HW2 2655   2.420   1.530   1.587 -0.7583 -1.7360  1.8039
  664SOL     MW 2656   2.478   1.590   1.557  0.2756 -0.2151  0.2912
  665SOL     OW 2657   2.856   0.797   2.032  0.3970  0.3233  0.3997
  665SOL    HW1 2658   2.840   0.855   1.957 -0.5305 -1.7669 -0.3943
  665SOL    HW2 2659   2.934   0.749   2.018 -0.1491 -0.6759 -0.1630
  665SOL     MW 2660   2.864   0.798   2.020  0.2026 -0.0843  0.2207
  666SOL     OW 2661   2.789   3.021   1.689 -0.0330  0.2976 -0.2685
  666SOL    HW1 2662   2.799   3.023   1.593  0.9961  0.4093 -0.4142
  666SOL    HW2 2663   2.732   2.949   1.709  0.8777 -1.0471  3.1563
  666SOL     MW 2664   2.783   3.012   1.679  0.2229  0.1349  0.1642
  667SOL     OW 2665   1.959   2.709   1.600  0.3069  0.2693  0.4602
  667SOL    HW1 2666   1.962   2.653   1.679  0.7296  3.6194  0.8037
  667SOL    HW2 2667   2.048   2.751   1.607 -2.1425  2.4372 -1.0724
  667SOL     MW 2668   1.971   2.707   1.612  0.0395  0.9973  0.3033
  668SOL     OW 2669   2.740   0.635   0.802 -0.2722 -0.2814 -0.2687
  668SOL    HW1 2670   2.826   0.642   0.849 -1.3964  2.2159  1.6681
  668SOL    HW2 2671   2.691   0.705   0.840 -0.0004 -3.3004 -2.7755
  668SOL     MW 2672   2.745   0.645   0.813 -0.3847 -0.3502 -0.3439
  669SOL     OW 2673   0.159   0.894   0.731  0.1506 -0.3918  0.1075
  669SOL    HW1 2674   0.132   0.986   0.740  0.7317 -1.2180 -0.1395
  669SOL    HW2 2675   0.258   0.892   0.748  4.0660 -1.4888  1.2082
  669SOL     MW 2676   0.169   0.905   0.734  0.7439 -0.6456  0.2201
  670SOL     OW 2677   2.927   0.283   0.226  0.3738  0.0602 -0.3729
  670SOL    HW1 2678   2.927   0.230   0.147  0.4810 -0.3370 -1.4887
  670SOL    HW2 2679   2.924   0.378   0.194  0.4344  1.8208 -0.5379
  670SOL     MW 2680   2.927   0.289   0.211  0.3959  0.2401 -0.5419
  671SOL     OW 2681   2.170  -0.001   1.612  0.1984  0.0765 -0.3044
  671SOL    HW1 2682   2.168   0.066   1.542 -1.1355 -0.7807  1.5189
  671SOL    HW2 2683   2.089  -0.014   1.666  1.3933 -1.0731  0.4038
  671SOL     MW 2684   2.159   0.006   1.610  0.1800 -0.1883  0.0296
  672SOL     OW 2685   1.875   1.704   1.344 -0.1749 -0.2354 -0.0734
  672SOL    HW1 2686   1.789   1.699   1.363 -0.1913  0.4551 -0.6906
  672SOL    HW2 2687   1.885   1.753   1.260 -0.6972  2.4861  2.2710
  672SOL     MW 2688   1.865   1.710   1.335 -0.2459  0.2148  0.1545
  673SOL     OW 2689   2.791   1.107   0.464  0.3153 -0.3102  0.4382
  673SOL    HW1 2690   2.787   1.028   0.525  1.9087  1.6334  2.3730
  673SOL    HW2 2691   2.878   1.153   0.496  0.4535  1.3598 -0.4689
  673SOL     MW 2692   2.802   1.102   0.477  0.5438  0.1666  0.5738
  674SOL     OW 2693   2.510   0.053   1.286 -0.0728  0.7498 -0.0297
  674SOL    HW1 2694   2.461   0.056   1.202  0.1257  1.5054  3.2286
  674SOL    HW2 2695   2.517  -0.043   1.292 -1.7677 -1.2394 -0.6279
  674SOL     MW 2696   2.505   0.041   1.276 -0.2702  0.5871  0.3213
  675SOL     OW 2697   2.965   1.057   1.108  0.0547 -0.4177  0.4568
  675SOL    HW1 2698   3.017   1.038   1.190 -1.9177  1.9237  0.3982
  675SOL    HW2 2699   3.020   1.109   1.052  0.5241 -0.9041 -0.7964
  675SOL     MW 2700   2.979   1.062   1.111 -0.1436 -0.1730  0.2837
  676SOL     OW 2701   2.789   1.468   1.623 -0.3147  0.1410 -0.0747
  676SOL    HW1 2702   2.766   1.382   1.605 -0.8970  3.6656  0.0403
  676SOL    HW2 2703   2.844   1.439   1.699 -0.1627 -0.9206 -0.3825
  676SOL     MW 2704   2.793   1.453   1.631 -0.3715  0.4660 -0.1001
  677SOL     OW 2705   2.452   0.819   1.884 -0.9247 -0.0409  0.2392
  677SOL    HW1 2706   2.414   0.842   1.798  0.9322 -2.2190  0.5359
  677SOL    HW2 2707   2.385   0.837   1.944  1.2429 -2.1452 -1.1979
  677SOL     MW 2708   2.438   0.825   1.880 -0.3937 -0.6059  0.0887
  678SOL     OW 2709   2.500   1.581   0.457  0.7681  0.3660 -0.0500
  678SOL    HW1 2710   2.453   1.630   0.394  1.3545  0.6826  1.9477
  678SOL    HW2 2711   2.590   1.602   0.460  0.6702 -3.1997 -1.1692
  678SOL     MW 2712   2.506   1.590   0.449  0.8326 -0.0627  0.0659
  679SOL     OW 2713   2.387   0.494   1.117 -0.8115 -0.4069 -0.9491
  679SOL    HW1 2714   2.319   0.426   1.121 -2.7303 -0.7282 -0.8248
  679SOL    HW2 2715   2.350   0.578   1.148 -1.0980 -3.0354  4.4301
  679SOL     MW 2716   2.373   0.496   1.122 -1.1024 -0.7961 -0.2230
  680SOL     OW 2717   2.398   0.277   1.445 -0.1114 -0.2769 -0.4532
  680SOL    HW1 2718   2.362   0.246   1.529  0.7663  2.0303  1.5975
  680SOL    HW2 2719   2.449   0.209   1.400 -2.0726  2.8553 -2.0079
  680SOL     MW 2720   2.400   0.264   1.450 -0.2544  0.4408 -0.3878
  681SOL     OW 2721   0.299   0.525   1.568 -0.1073  0.5179  0.1717
  681SOL    HW1 2722   0.292   0.444   1.614  0.3970  1.5166 -0.5566
  681SOL    HW2 2723   0.392   0.549   1.559 -0.7357 -0.4691  1.0197
  681SOL     MW 2724   0.310   0.517   1.573 -0.1236  0.5194  0.1875
  682SOL     OW 2725   0.134   3.014   1.478  0.9483 -0.5187  0.4159
  682SOL    HW1 2726   0.130   3.104   1.455 -3.7401 -0.2826  2.7594
  682SOL    HW2 2727   0.077   3.016   1.558  0.4977  1.7719  0.0462
  682SOL     MW 2728   0.126   3.026   1.486  0.2703 -0.1853  0.6763
  683SOL     OW 2729   2.016   0.823   2.992  0.5856 -0.0945 -0.2306
  683SOL    HW1 2730   1.925   0.808   2.966 -0.9899  0.4029 -0.1274
  683SOL    HW2 2731   2.022   0.903   3.043  1.3799  2.9089 -1.2700
  683SOL     MW 2732   2.005   0.832   2.996  0.4825  0.3674 -0.3541
  684SOL     OW 2733   2.159   1.742   0.842 -0.3303  0.5177  0.2694
  684SOL    HW1 2734   2.062   1.724   0.835  1.0457 -1.2683  0.0369
  684SOL    HW2 2735   2.198   1.657   0.876  0.8657 -0.4151  1.1394
  684SOL     MW 2736   2.152   1.728   0.845  0.0091  0.1590  0.3535
  685SOL     OW 2737   2.566   1.726   1.214  0.2256 -0.1164  0.0809
  685SOL    HW1 2738   2.629   1.717   1.282 -2.2470  0.5795  0.2411
  685SOL    HW2 2739   2.569   1.645   1.163  0.3490 -1.7509  2.5292
  685SOL     MW 2740   2.575   1.714   1.216 -0.0844 -0.2403  0.4250
  686SOL     OW 2741   2.916   0.703   1.485 -0.4805  0.4664  0.2050
  686SOL    HW1 2742   2.908   0.651   1.567  0.1394 -2.0609  1.1268
  686SOL    HW2 2743   2.989   0.659   1.441  2.3840  0.6726 -1.1263
  686SOL     MW 2744   2.925   0.690   1.490 -0.0208  0.1601  0.1509
  687SOL     OW 2745   2.166   0.320   1.200  0.2804  0.3570  0.3679
  687SOL    HW1 2746   2.159   0.276   1.116  1.5406 -1.2265  0.4700
  687SOL    HW2 2747   2.113   0.404   1.195 -0.9193  0.8497 -0.7442
  687SOL     MW 2748   2.158   0.325   1.188  0.2884  0.2131  0.2347
  688SOL     OW 2749   2.334   0.561   1.416  0.1984 -0.1503  0.2772
  688SOL    HW1 2750   2.369   0.514   1.489  0.2584  1.4700 -0.4710
  688SOL    HW2 2751   2.327   0.505   1.337  0.3992 -1.4902  0.1911
  688SOL     MW 2752   2.337   0.547   1.415  0.2328 -0.1133  0.1671
  689SOL     OW 2753   2.574   0.768   2.993  0.3875  0.3021  0.1837
  689SOL    HW1 2754   2.599   0.849   2.944 -1.0834 -0.0843  0.4707
  689SOL    HW2 2755   2.576   0.801   3.089  0.9372 -1.4705 -0.6765
  689SOL     MW 2756   2.577   0.783   3.000  0.2660  0.0172  0.1081
  690SOL     OW 2757   2.050   1.023   1.970 -0.0730 -0.2537  0.3058
  690SOL    HW1 2758   1.999   0.945   2.002 -0.6972  0.5528 -0.7683
  690SOL    HW2 2759   2.076   0.999   1.878  0.4010 -0.7895 -2.7205
  690SOL     MW 2760   2.047   1.009   1.962 -0.0928 -0.2180 -0.2352
  691SOL     OW 2761   2.453   0.261   0.821  0.5754 -0.5502  0.0143
  691SOL    HW1 2762   2.523   0.308   0.869 -0.1916  0.7315  0.0505
  691SOL    HW2 2763   2.381   0.335   0.820 -0.3623  1.2941  1.1517
  691SOL     MW 2764   2.453   0.277   0.827  0.3505 -0.1378  0.1691
  692SOL     OW 2765   2.776   1.683   1.383  0.3153  0.5731 -0.1787
  692SOL    HW1 2766   2.739   1.633   1.459  0.1990 -1.2189 -1.6215
  692SOL    HW2 2767   2.821   1.752   1.436 -2.1921 -0.1994 -1.6528
  692SOL     MW 2768   2.777   1.685   1.400 -0.0309  0.2348 -0.5636
  693SOL     OW 2769   2.271   0.418   0.104 -0.5149  0.5821 -0.1974
  693SOL    HW1 2770   2.193   0.357   0.100  2.9034  1.1742  1.2181
  693SOL    HW2 2771   2.252   0.482   0.040 -0.0061 -1.1641  1.1576
  693SOL     MW 2772   2.258   0.419   0.095  0.0032  0.4298  0.1681
  694SOL     OW 2773   1.987   1.287   1.178 -0.1662 -0.1423 -0.5454
  694SOL    HW1 2774   2.075   1.247   1.186 -2.1100 -2.3099  1.3101
  694SOL    HW2 2775   1.937   1.225   1.230  0.1132 -1.0878 -0.9898
  694SOL     MW 2776   1.992   1.273   1.186 -0.3858 -0.5530 -0.3592
  695SOL     OW 2777   2.963   1.483   1.316 -0.2822 -0.5642  0.0482
  695SOL    HW1 2778   2.915   1.453   1.237 -2.5710 -1.0135 -2.5901
  695SOL    HW2 2779   2.912   1.549   1.364  0.7082  1.2678 -2.5293
  695SOL     MW 2780   2.950   1.488   1.312 -0.4535 -0.3818 -0.6400
  696SOL     OW 2781   2.042   1.404   0.919  0.3107 -0.1223 -0.5241
  696SOL    HW1 2782   2.105   1.470   0.952  0.8876 -1.5736  2.4597
  696SOL    HW2 2783   2.024   1.339   0.986 -0.2471  2.1676  2.7905
  696SOL     MW 2784   2.048   1.404   0.932  0.3132 -0.0117  0.3069
  697SOL     OW 2785   2.862   0.952   2.289 -0.0980  0.4892 -0.1271
  697SOL    HW1 2786   2.784   0.998   2.304 -2.7912  1.3700 -1.2470
  697SOL    HW2 2787   2.847   0.904   2.205  0.2101  0.3008 -1.4757
  697SOL     MW 2788   2.850   0.952   2.280 -0.4127  0.5806 -0.4528
  698SOL     OW 2789   2.533   0.349   0.014 -0.0294 -0.6976  0.2832
  698SOL    HW1 2790   2.466   0.384   0.071  2.1763 -1.4492  0.6372
  698SOL    HW2 2791   2.572   0.272   0.064 -2.1666 -2.6427  2.8903
  698SOL     MW 2792   2.529   0.343   0.028 -0.0204 -1.0534  0.6739
  699SOL     OW 2793   1.822   1.607   2.058  0.1489  0.3391  0.1467
  699SOL    HW1 2794   1.811   1.510   2.061 -1.0458  2.2826 -1.1840
  699SOL    HW2 2795   1.908   1.617   2.017  0.8510  0.3531  1.6973
  699SOL     MW 2796   1.832   1.596   2.053  0.0839  0.5974  0.1757
  700SOL     OW 2797   2.730   0.907   1.517 -0.0817  0.3880  0.2010
  700SOL    HW1 2798   2.719   0.980   1.459  3.3154 -0.0562  0.9597
  700SOL    HW2 2799   2.782   0.846   1.468 -3.4182 -0.2231  2.0805
  700SOL     MW 2800   2.736   0.909   1.503 -0.0737  0.2487  0.5491
  701SOL     OW 2801   1.681   1.281   2.617 -0.1842  0.0853 -0.2328
  701SOL    HW1 2802   1.767   1.325   2.622 -1.2035 -0.1179  0.2440
  701SOL    HW2 2803   1.625   1.335   2.680 -0.7352 -2.0294 -1.2866
  701SOL     MW 2804   1.685   1.294   2.626 -0.3914 -0.2205 -0.3089
  702SOL     OW 2805   2.249   0.445   0.814  0.5513 -0.0990  0.0684
  702SOL    HW1 2806   2.186   0.376   0.774 -0.8236  2.9312 -1.1373
  702SOL    HW2 2807   2.258   0.512   0.745  0.6711 -0.1358  0.0240
  702SOL     MW 2808   2.242   0.445   0.799  0.3857  0.2959 -0.0965
  703SOL     OW 2809   2.653   1.288   0.985 -0.2579  0.1329 -0.5465
  703SOL    HW1 2810   2.664   1.271   0.892  1.0224  3.1346  1.1265
  703SOL    HW2 2811   2.655   1.203   1.032 -3.5196 -2.0824  0.9081
  703SOL     MW 2812   2.655   1.275   0.979 -0.5193  0.2367 -0.1338
  704SOL     OW 2813   0.025   1.274   0.253 -0.1164  0.6640 -0.0300
  704SOL    HW1 2814  -0.058   1.258   0.213  2.2871 -0.5996 -1.1667
  704SOL    HW2 2815   0.052   1.184   0.273 -1.9168  0.5647 -3.9631
  704SOL     MW 2816   0.017   1.260   0.250 -0.0368  0.4841 -0.6989
  705SOL     OW 2817   2.152   1.598   1.308 -0.2930 -0.6015 -0.1788
  705SOL    HW1 2818   2.063   1.599   1.344  1.9230 -2.2696 -0.7196
  705SOL    HW2 2819   2.202   1.535   1.364 -2.4772  1.7451  1.1074
  705SOL     MW 2820   2.147   1.590   1.320 -0.2888 -0.5120 -0.0804
  706SOL     OW 2821   2.992   1.252   0.574 -0.2413 -0.3719  0.2012
  706SOL    HW1 2822   3.081   1.228   0.608 -1.0762  2.8483  0.1047
  706SOL    HW2 2823   2.978   1.331   0.624  0.5884 -2.6735 -0.5483
  706SOL     MW 2824   3.002   1.259   0.585 -0.2420 -0.2507  0.0896
  707SOL     OW 2825   2.384   0.083   1.033 -0.0456 -0.6914 -0.0592
  707SOL    HW1 2826   2.419   0.139   0.967  0.3134 -2.2254  0.1536
  707SOL    HW2 2827   2.288   0.088   1.027 -0.3550  1.7525  0.6834
  707SOL     MW 2828   2.376   0.091   1.024 -0.0390 -0.5713  0.0668
  708SOL     OW 2829   2.525   1.504   0.064 -0.0079  0.0713  0.4570
  708SOL    HW1 2830   2.549   1.449   0.140 -1.0520 -0.5182 -1.7704
  708SOL    HW2 2831   2.469   1.452   0.005  1.5799 -1.1979 -2.7702
  708SOL     MW 2832   2.521   1.490   0.067  0.0638 -0.1739 -0.2627
  709SOL     OW 2833   1.701   1.753   0.106 -0.6273  0.1761 -0.2556
  709SOL    HW1 2834   1.677   1.722   0.014  1.0304  0.9648  0.8710
  709SOL    HW2 2835   1.636   1.712   0.157  0.6646  0.8175 -0.4829
  709SOL     MW 2836   1.689   1.744   0.101 -0.2381  0.3648 -0.1370
  710SOL     OW 2837   2.236   1.167   1.195  0.0609  0.4754 -0.2564
  710SOL    HW1 2838   2.252   1.128   1.107  2.2630  2.9712  1.6892
  710SOL    HW2 2839   2.239   1.091   1.264  0.4486 -1.3945  2.3301
  710SOL     MW 2840   2.238   1.152   1.193  0.4026  0.5580  0.3415
  711SOL     OW 2841   2.339   0.181   1.720  0.5137 -0.8250 -0.4927
  711SOL    HW1 2842   2.429   0.155   1.705 -0.2391  2.8849 -0.3975
  711SOL    HW2 2843   2.277   0.104   1.704 -2.0404 -1.8427  3.8371
  711SOL     MW 2844   2.343   0.168   1.716  0.0774 -0.4698  0.0911
  712SOL     OW 2845   1.622   0.589   3.054 -0.1456 -0.3170 -0.1888
  712SOL    HW1 2846   1.681   0.634   2.989 -1.1373 -1.7215 -0.2487
  712SOL    HW2 2847   1.608   0.657   3.112 -0.6053 -0.0028  0.0254
  712SOL     MW 2848   1.628   0.604   3.053 -0.3371 -0.4609 -0.1684
  713SOL     OW 2849   2.588   0.794   1.151 -0.1407 -0.4022  0.0968
  713SOL    HW1 2850   2.641   0.710   1.159  2.3602  1.1978 -0.3968
  713SOL    HW2 2851   2.545   0.811   1.238 -0.9390  0.5995  0.5791
  713SOL     MW 2852   2.590   0.785   1.163  0.0839 -0.0589  0.0953
  714SOL     OW 2853   2.274   0.172   1.994 -0.1367 -0.5315 -0.5442
  714SOL    HW1 2854   2.346   0.134   2.048 -0.7251 -1.7508  1.3401
  714SOL    HW2 2855   2.297   0.169   1.899 -1.2384  2.1578 -0.0783
  714SOL     MW 2856   2.286   0.166   1.988 -0.3597 -0.3375 -0.2341
  715SOL     OW 2857   1.744   1.921   1.713  0.2895  0.1990 -0.2520
  715SOL    HW1 2858   1.830   1.893   1.676  2.5153 -2.7495  0.9941
  715SOL    HW2 2859   1.728   1.841   1.768  2.3948  0.1731  2.4640
  715SOL     MW 2860   1.754   1.907   1.715  0.8610 -0.1934  0.2708
  716SOL     OW 2861   2.324   0.678   0.643  0.2727 -0.8724 -0.0423
  716SOL    HW1 2862   2.372   0.710   0.569  0.0959 -1.2551  2.5200
  716SOL    HW2 2863   2.230   0.697   0.626  1.4133  0.6157 -0.1710
  716SOL     MW 2864   2.318   0.685   0.631  0.3999 -0.7266  0.2788
  717SOL     OW 2865   2.824   1.441   2.934  0.1634 -0.0337  0.3079
  717SOL    HW1 2866   2.923   1.445   2.933 -0.0426  0.0570  1.8889
  717SOL    HW2 2867   2.807   1.516   2.996 -1.6230  2.8405 -1.1965
  717SOL     MW 2868   2.835   1.451   2.942 -0.0995  0.3575  0.3180
  718SOL     OW 2869   2.565   1.359   1.388 -1.2831 -0.7569  0.5769
  718SOL    HW1 2870   2.585   1.421   1.464 -2.5487 -0.8815  0.4269
  718SOL    HW2 2871   2.629   1.286   1.388  0.8792  1.2086 -1.0649
  718SOL     MW 2872   2.576   1.358   1.398 -1.1648 -0.5140  0.3405
  719SOL     OW 2873   2.185   1.370   0.644 -0.5432  0.7515 -0.1321
  719SOL    HW1 2874   2.282   1.361   0.635  0.7513 -0.2846 -3.9158
  719SOL    HW2 2875   2.173   1.393   0.735 -1.5554 -0.6568  0.8844
  719SOL     MW 2876   2.196   1.372   0.655 -0.5060  0.4290 -0.4972
  720SOL     OW 2877   2.885   1.221   0.148  0.0894  0.1258 -0.7232
  720SOL    HW1 2878   2.878   1.125   0.172  1.5413 -1.5069  1.6011
  720SOL    HW2 2879   2.800   1.276   0.179 -1.9152  2.4407  1.0597
  720SOL     MW 2880   2.872   1.215   0.155  0.0165  0.2159 -0.1813
  721SOL     OW 2881   2.478   0.803   1.408  0.8252 -0.6085  0.5395
  721SOL    HW1 2882   2.440   0.714   1.426 -1.9659  3.4523  0.9949
  721SOL    HW2 2883   2.556   0.833   1.453 -2.1510  2.1692 -1.4254
  721SOL     MW 2884   2.483   0.795   1.416  0.0642  0.2938  0.3403
  722SOL     OW 2885   2.553   1.204   0.368 -0.3300  0.5720  0.5558
  722SOL    HW1 2886   2.512   1.235   0.447 -0.4383  2.2574  0.3388
  722SOL    HW2 2887   2.632   1.158   0.405  1.8082  1.4657 -1.5160
  722SOL     MW 2888   2.558   1.202   0.383 -0.0621  0.9123  0.2538
  723SOL     OW 2889   2.294   1.432   1.634  0.3975 -0.3018 -0.6975
  723SOL    HW1 2890   2.294   1.398   1.540  2.1455 -0.6679 -1.8125
  723SOL    HW2 2891   2.206   1.474   1.645  2.6405  2.9083 -1.7869
  723SOL     MW 2892   2.283   1.433   1.623  0.9241  0.0735 -0.9883
  724SOL     OW 2893   2.479   0.388   0.558 -0.4014  0.0411 -0.1133
  724SOL    HW1 2894   2.482   0.337   0.641  0.7434  0.2590 -1.6149
  724SOL    HW2 2895   2.566   0.394   0.527 -1.9416 -1.0220 -1.3870
  724SOL     MW 2896   2.491   0.382   0.565 -0.4536 -0.0704 -0.4794
  725SOL     OW 2897   2.662   0.535   1.160 -0.2076  0.3313 -0.1399
  725SOL    HW1 2898   2.697   0.504   1.241 -4.1197 -0.4740 -0.2536
  725SOL    HW2 2899   2.561   0.530   1.151 -1.7457 -0.3309 -3.2208
  725SOL     MW 2900   2.654   0.530   1.170 -0.9267  0.1376 -0.5614
  726SOL     OW 2901   2.579   2.411   0.499  0.2412  0.4306 -0.4389
  726SOL    HW1 2902   2.508   2.451   0.440  0.6695  0.2190 -1.7562
  726SOL    HW2 2903   2.536   2.408   0.582  3.0901  1.8599  1.8990
  726SOL     MW 2904   2.564   2.416   0.502  0.6736  0.5913 -0.3042
  727SOL     OW 2905   2.802   0.297   1.634 -0.7484 -0.4888 -0.2576
  727SOL    HW1 2906   2.834   0.275   1.542 -1.7449  1.8876 -1.2144
  727SOL    HW2 2907   2.713   0.333   1.638 -0.2368  0.0126  1.8405
  727SOL     MW 2908   2.794   0.298   1.623 -0.8124 -0.1091 -0.1070
  728SOL     OW 2909   2.813   1.137   3.005 -0.5574  0.2672  0.0485
  728SOL    HW1 2910   2.781   1.217   2.962 -1.2592 -1.8393  0.5317
  728SOL    HW2 2911   2.845   1.173   3.091 -1.2196 -0.7585  0.6185
  728SOL     MW 2912   2.813   1.152   3.010 -0.7374 -0.1461  0.1874
  729SOL     OW 2913   2.515   1.482   1.131  0.4622 -0.2275  0.2062
  729SOL    HW1 2914   2.520   1.461   1.223  0.4609 -1.1872 -3.7776
  729SOL    HW2 2915   2.570   1.410   1.099  3.2422 -3.4781  2.0250
  729SOL     MW 2916   2.523   1.469   1.139  0.8288 -0.7830 -0.0794
  730SOL     OW 2917   2.110   1.160   0.234  0.1693  0.1722 -0.2684
  730SOL    HW1 2918   2.208   1.164   0.208  4.8128  0.2739  2.7998
  730SOL    HW2 2919   2.085   1.254   0.252  1.4555  1.5525  1.6560
  730SOL     MW 2920   2.120   1.173   0.233  0.9516  0.3677  0.3903
  731SOL     OW 2921   2.816   1.811   2.899  0.3761  0.2196  0.6759
  731SOL    HW1 2922   2.733   1.820   2.859  0.6250 -0.3024  0.3238
  731SOL    HW2 2923   2.863   1.897   2.892  0.8786 -2.4138  1.1875
  731SOL     MW 2924   2.812   1.824   2.893  0.4753 -0.1967  0.6969
  732SOL     OW 2925   2.254   0.943   1.340 -0.7976 -0.2086  0.6030
  732SOL    HW1 2926   2.189   0.939   1.417 -1.5200 -1.0411  2.5876
  732SOL    HW2 2927   2.338   0.922   1.370  1.7374  2.0383 -1.7797
  732SOL     MW 2928   2.256   0.940   1.354 -0.5584 -0.0220  0.5505
  733SOL     OW 2929   2.364   2.885   3.028 -0.5065 -0.3283  0.0700
  733SOL    HW1 2930   2.288   2.934   2.994 -1.5508 -1.1621 -2.3836
  733SOL    HW2 2931   2.320   2.804   3.057  0.1992  0.5815 -0.5210
  733SOL     MW 2932   2.348   2.880   3.027 -0.5512 -0.3183 -0.3317
  734SOL     OW 2933   1.483   0.355   2.467 -0.0135  0.2529 -0.3083
  734SOL    HW1 2934   1.441   0.307   2.535 -0.3531  2.4452 -1.8360
  734SOL    HW2 2935   1.529   0.277   2.439  0.5124 -1.3423  1.3170
  734SOL     MW 2936   1.483   0.338   2.473  0.0111  0.3317 -0.2955
  735SOL     OW 2937   3.065   0.868   2.672  1.0603  0.3030  0.0466
  735SOL    HW1 2938   3.013   0.797   2.628 -0.1561  0.7654 -1.2809
  735SOL    HW2 2939   3.020   0.884   2.755 -1.4180  1.3697 -0.6597
  735SOL     MW 2940   3.052   0.861   2.677  0.5728  0.5047 -0.2218
  736SOL     OW 2941   0.029   0.602   2.489 -0.1751  0.1120  0.5725
  736SOL    HW1 2942   0.076   0.630   2.407  0.2408  0.0986 -0.2610
  736SOL    HW2 2943   0.004   0.506   2.469 -3.4702 -0.7864 -0.9853
  736SOL     MW 2944   0.032   0.593   2.475 -0.5550 -0.0083  0.2570
  737SOL     OW 2945   2.887   0.698   2.528  0.2158 -0.4742 -0.4565
  737SOL    HW1 2946   2.813   0.661   2.477 -0.9307  0.8622  1.1498
  737SOL    HW2 2947   2.970   0.655   2.501  0.5359  1.2968  0.1636
  737SOL     MW 2948   2.888   0.687   2.517  0.1067 -0.0642 -0.1627
  738SOL     OW 2949   0.178   0.430   1.957 -0.0230  0.1693  0.9121
  738SOL    HW1 2950   0.253   0.484   1.938 -3.6742  4.0525 -0.6965
  738SOL    HW2 2951   0.162   0.355   1.902 -0.0663  2.9363  1.5943
  738SOL     MW 2952   0.186   0.427   1.947 -0.5104  1.0467  0.7899
  739SOL     OW 2953   2.556   0.983   2.113 -0.4292  0.0455  0.2808
  739SOL    HW1 2954   2.466   0.974   2.086  1.1108  1.1273 -2.2462
  739SOL    HW2 2955   2.599   1.001   2.026 -1.7230 -1.2020 -0.2336
  739SOL     MW 2956   2.550   0.984   2.098 -0.3967  0.0236 -0.1205
  740SOL     OW 2957   0.217   1.681   2.951 -0.7527 -0.1255  0.3091
  740SOL    HW1 2958   0.155   1.610   2.957  0.1667 -1.4924 -0.4461
  740SOL    HW2 2959   0.301   1.662   2.994 -0.1290  1.4934 -0.4343
  740SOL     MW 2960   0.220   1.669   2.957 -0.5491 -0.0922  0.1113
  741SOL     OW 2961   2.194   1.216   2.753  0.1290 -0.5331 -0.1443
  741SOL    HW1 2962   2.212   1.310   2.739 -3.4630  1.3615  0.2881
  741SOL    HW2 2963   2.146   1.214   2.835  1.8838  1.6473 -1.4887
  741SOL     MW 2964   2.190   1.228   2.762 -0.1134  0.0046 -0.2646
  742SOL     OW 2965   1.672   1.353   2.359  0.3814 -0.0827 -0.0430
  742SOL    HW1 2966   1.588   1.331   2.323  0.9825  1.4205 -2.0439
  742SOL    HW2 2967   1.674   1.316   2.451 -1.0673 -2.0954  3.3486
  742SOL     MW 2968   1.662   1.345   2.367  0.2696 -0.1500  0.1405
  743SOL     OW 2969   2.530   1.225   2.711 -0.1392  0.2870  0.3617
  743SOL    HW1 2970   2.455   1.208   2.759  1.4992 -1.5219 -0.9089
  743SOL    HW2 2971   2.596   1.161   2.743 -0.0999 -2.1964 -0.8422
  743SOL     MW 2972   2.529   1.214   2.722  0.0821 -0.2793  0.0352
  744SOL     OW 2973   2.775   0.925   1.800 -0.1624  0.4220  0.2072
  744SOL    HW1 2974   2.692   0.966   1.814 -0.6559 -1.3295 -1.6949
  744SOL    HW2 2975   2.771   0.890   1.712  1.0310  1.3573 -0.4850
  744SOL     MW 2976   2.764   0.926   1.790 -0.0700  0.3143 -0.1351
  745SOL     OW 2977   1.737   0.473   2.484  0.5751 -0.2948 -0.0663
  745SOL    HW1 2978   1.732   0.482   2.385  1.7600 -1.9018  0.3597
  745SOL    HW2 2979   1.651   0.428   2.497 -0.0393 -2.7051  2.2531
  745SOL     MW 2980   1.725   0.468   2.473  0.6503 -0.8248  0.2959
  746SOL     OW 2981   1.585   1.510   1.694 -0.0177  0.3462 -0.0055
  746SOL    HW1 2982   1.633   1.585   1.725 -0.0747 -0.4639  0.2177
  746SOL    HW2 2983   1.566   1.453   1.775 -0.4500 -1.1337 -0.3356
  746SOL     MW 2984   1.588   1.512   1.709 -0.0823  0.0441 -0.0196
  747SOL     OW 2985   2.589   1.117   1.878 -0.2567 -0.1705 -0.4862
  747SOL    HW1 2986   2.514   1.111   1.813 -2.4774 -1.8334 -3.7022
  747SOL    HW2 2987   2.580   1.202   1.927  0.3637  1.2359 -0.1204
  747SOL     MW 2988   2.578   1.128   1.876 -0.4679 -0.2043 -0.8622
  748SOL     OW 2989   0.093   3.080   1.926  0.2761 -0.0787 -0.0766
  748SOL    HW1 2990   0.183   3.103   1.911 -0.4800  0.0094  0.3782
  748SOL    HW2 2991   0.069   3.157   1.980 -2.3804  0.6015 -0.3445
  748SOL     MW 2992   0.102   3.094   1.931 -0.1741  0.0227 -0.0519
  749SOL     OW 2993   2.411   0.656   2.770 -0.0739 -0.2351  0.4028
  749SOL    HW1 2994   2.420   0.736   2.706 -1.6473  0.9155 -1.0006
  749SOL    HW2 2995   2.444   0.679   2.855 -2.5213 -0.7502 -2.3302
  749SOL     MW 2996   2.417   0.669   2.772 -0.6044 -0.1513 -0.1429
  750SOL     OW 2997   2.136   3.035   1.976 -0.2240 -0.1253 -0.3372
  750SOL    HW1 2998   2.191   3.118   1.983  0.5405 -0.8857 -0.8992
  750SOL    HW2 2999   2.200   2.956   1.973 -0.8375 -3.0368 -0.8718
  750SOL     MW 3000   2.152   3.036   1.977 -0.2041 -0.6097 -0.4819
  751SOL     OW 3001   3.053   0.339   2.458  0.2507  0.1826 -0.1935
  751SOL    HW1 3002   2.982   0.329   2.394 -2.5136 -0.7157 -1.5972
  751SOL    HW2 3003   3.133   0.321   2.411 -2.2919  0.4123  0.2969
  751SOL     MW 3004   3.054   0.335   2.443 -0.4495  0.0944 -0.3140
  752SOL     OW 3005   2.144   0.924   2.767 -0.0945 -0.1286  0.1317
  752SOL    HW1 3006   2.210   0.988   2.796 -0.6864  2.2452 -2.4543
  752SOL    HW2 3007   2.096   0.886   2.843 -0.2480 -1.1969  0.6492
  752SOL     MW 3008   2.146   0.927   2.781 -0.1928  0.0437 -0.1413
  753SOL     OW 3009   2.851   0.330   2.266 -0.5991  0.7764 -0.3173
  753SOL    HW1 3010   2.788   0.256   2.274 -0.5538 -1.6945  2.3279
  753SOL    HW2 3011   2.802   0.407   2.302  0.5766  1.0987  0.2208
  753SOL     MW 3012   2.836   0.331   2.272 -0.4380  0.4929  0.1027
  754SOL     OW 3013   2.284   2.971   2.605  0.3219 -0.4152  0.3434
  754SOL    HW1 3014   2.312   2.930   2.520  0.6638 -1.3196 -0.0708
  754SOL    HW2 3015   2.352   2.937   2.667 -0.7044 -0.8924  1.4444
  754SOL     MW 3016   2.297   2.961   2.602  0.2316 -0.5975  0.4340
  755SOL     OW 3017   2.762   1.620   2.447  0.3282 -0.7661  0.2933
  755SOL    HW1 3018   2.725   1.533   2.445  0.7517  1.3793  0.1920
  755SOL    HW2 3019   2.808   1.629   2.531  0.4584 -0.8491  2.3508
  755SOL     MW 3020   2.763   1.609   2.457  0.4013 -0.4940  0.5514
  756SOL     OW 3021   2.162   1.251   3.028  0.2413  0.5274 -0.0677
  756SOL    HW1 3022   2.224   1.321   3.003 -1.7033 -0.0525  2.4794
  756SOL    HW2 3023   2.209   1.174   3.054 -2.4698 -1.6601 -0.2162
  756SOL     MW 3024   2.176   1.250   3.028 -0.3729  0.1623  0.2488
  757SOL     OW 3025   2.175   0.937   1.740  0.3576 -0.6915 -0.8292
  757SOL    HW1 3026   2.164   0.838   1.738 -0.5022  0.2813  1.7127
  757SOL    HW2 3027   2.115   0.967   1.668 -1.9504  1.6555 -0.5064
  757SOL     MW 3028   2.166   0.928   1.730 -0.0604 -0.2535 -0.4512
  758SOL     OW 3029   2.250   1.870   2.622 -0.1799  0.3988 -0.1156
  758SOL    HW1 3030   2.238   1.869   2.529 -1.3036  1.7593 -2.6157
  758SOL    HW2 3031   2.326   1.810   2.633  1.2952  1.6572 -1.4763
  758SOL     MW 3032   2.258   1.862   2.611 -0.1336  0.7443 -0.6250
  759SOL     OW 3033   1.528   1.430   2.795 -0.2703  0.1267 -0.3273
  759SOL    HW1 3034   1.537   1.497   2.721 -0.3732  0.9341  1.1628
  759SOL    HW2 3035   1.591   1.448   2.861  0.4774 -0.9223  2.1562
  759SOL     MW 3036   1.537   1.442   2.794 -0.1852  0.0949  0.1970
  760SOL     OW 3037   2.600   1.955   2.719 -0.2024  0.9276  0.2397
  760SOL    HW1 3038   2.548   1.887   2.678 -0.8989  0.2505  1.8951
  760SOL    HW2 3039   2.683   1.955   2.674 -0.5868  0.6437 -1.5055
  760SOL     MW 3040   2.604   1.946   2.708 -0.3450  0.8008  0.2279
  761SOL     OW 3041   2.193   0.490   2.453 -0.6622 -0.0071 -0.0013
  761SOL    HW1 3042   2.117   0.433   2.427  0.2249 -1.2718 -1.8889
  761SOL    HW2 3043   2.158   0.524   2.536  1.6636 -2.2727  3.8327
  761SOL     MW 3044   2.178   0.487   2.461 -0.2383 -0.4729  0.2555
  762SOL     OW 3045   0.021   0.186   2.141  0.2089  0.1234  0.1187
  762SOL    HW1 3046  -0.000   0.117   2.205 -0.6205 -1.7916 -2.7039
  762SOL    HW2 3047  -0.053   0.244   2.127 -1.5576 -1.7310 -0.4973
  762SOL     MW 3048   0.009   0.185   2.148 -0.1336 -0.3739 -0.3350
  763SOL     OW 3049   2.476   1.194   2.339 -0.1176  0.0178 -0.4768
  763SOL    HW1 3050   2.519   1.126   2.292 -2.3443 -4.2063 -1.4247
  763SOL    HW2 3051   2.540   1.252   2.383  0.2114 -1.6081 -0.3653
  763SOL     MW 3052   2.490   1.193   2.339 -0.3680 -0.7540 -0.5872
  764SOL     OW 3053   0.388   0.112   2.799 -0.2100  0.6508 -0.6741
  764SOL    HW1 3054   0.340   0.178   2.757  1.0762 -2.7924  0.4309
  764SOL    HW2 3055   0.417   0.151   2.882 -0.0428  2.1180 -0.6284
  764SOL     MW 3056   0.385   0.126   2.804 -0.0182  0.3901 -0.5223
  765SOL     OW 3057   2.702   0.120   2.287 -0.3786  0.6847 -0.1922
  765SOL    HW1 3058   2.662   0.087   2.204 -2.1437 -1.1850  1.5779
  765SOL    HW2 3059   2.752   0.046   2.329  0.3414 -2.3808 -0.0985
  765SOL     MW 3060   2.703   0.106   2.282 -0.5165  0.0335  0.0537
  766SOL     OW 3061   1.934   3.066   2.166  0.0460  0.1805 -0.4213
  766SOL    HW1 3062   2.003   3.092   2.102 -1.5365  1.7323 -3.5244
  766SOL    HW2 3063   1.868   3.024   2.118  0.2366 -0.1431 -0.9077
  766SOL     MW 3064   1.935   3.064   2.151 -0.1377  0.3425 -0.8949
  767SOL     OW 3065   2.668   0.635   1.920 -0.7789 -0.1510  0.2447
  767SOL    HW1 3066   2.730   0.695   1.962  1.3168 -2.3152  3.9800
  767SOL    HW2 3067   2.590   0.688   1.896 -0.1486  1.4616  1.5958
  767SOL     MW 3068   2.666   0.650   1.923 -0.4193 -0.2238  0.9158
  768SOL     OW 3069   3.091   1.496   2.983  0.0679  0.3537  0.6764
  768SOL    HW1 3070   3.110   1.534   3.070 -1.4075 -2.9634 -0.8334
  768SOL    HW2 3071   3.120   1.404   2.983  1.6979 -1.0388 -2.6703
  768SOL     MW 3072   3.097   1.489   2.995  0.0883 -0.2677  0.0356
  769SOL     OW 3073   2.339   0.693   2.344  0.0117 -0.5916  0.5170
  769SOL    HW1 3074   2.295   0.606   2.354 -0.3556 -2.4985  3.2157
  769SOL    HW2 3075   2.417   0.675   2.295 -1.9731 -2.5238 -1.7321
  769SOL     MW 3076   2.343   0.679   2.339 -0.2987 -1.0981  0.5763
  770SOL     OW 3077   0.053   1.593   2.620 -0.2077  0.2680 -0.6352
  770SOL    HW1 3078  -0.034   1.606   2.661  1.8688  1.8942  0.7227
  770SOL    HW2 3079   0.075   1.510   2.667 -0.9455 -0.8313 -0.9551
  770SOL     MW 3080   0.044   1.584   2.632 -0.0310  0.3375 -0.4983
  771SOL     OW 3081   3.073   0.606   1.964 -0.0589 -0.0101  0.1278
  771SOL    HW1 3082   3.031   0.608   1.881 -0.9753  0.3104 -1.7447
  771SOL    HW2 3083   3.137   0.539   1.956 -2.3891  1.7010 -2.6115
  771SOL     MW 3084   3.076   0.597   1.952 -0.4873  0.2580 -0.4807
  772SOL     OW 3085   0.021   0.008   2.338  0.3540 -0.0641  0.1265
  772SOL    HW1 3086  -0.048  -0.018   2.397  2.2326  2.1981 -0.2404
  772SOL    HW2 3087   0.052  -0.077   2.306  2.4581  2.4107 -1.1645
  772SOL     MW 3088   0.016  -0.006   2.342  0.8795  0.5609 -0.0923
  773SOL     OW 3089   2.480   2.906   2.785  0.3242 -0.6240  0.7184
  773SOL    HW1 3090   2.528   2.834   2.747 -1.1207  0.6571 -1.7130
  773SOL    HW2 3091   2.437   2.868   2.867 -0.8950 -4.5730  2.0437
  773SOL     MW 3092   2.481   2.891   2.791 -0.0273 -0.9760  0.5725
  774SOL     OW 3093   2.359   1.138   1.745  0.1960 -0.0912  0.4803
  774SOL    HW1 3094   2.335   1.208   1.684  2.2155  1.0490  2.2930
  774SOL    HW2 3095   2.292   1.060   1.736  0.6934 -0.9385  0.4187
  774SOL     MW 3096   2.347   1.137   1.735  0.5281 -0.0525  0.7113
  775SOL     OW 3097   2.300   2.893   2.342  0.2377  0.7278 -0.7701
  775SOL    HW1 3098   2.320   2.977   2.300  2.0056  0.1803  2.3404
  775SOL    HW2 3099   2.381   2.840   2.344 -0.7774 -0.2205  0.1235
  775SOL     MW 3100   2.313   2.897   2.336  0.3370  0.5305 -0.2418
  776SOL     OW 3101   0.125   1.507   0.122 -0.1365  0.3320 -0.2658
  776SOL    HW1 3102   0.208   1.462   0.103  0.2216  1.3466  0.3460
  776SOL    HW2 3103   0.072   1.434   0.158 -0.0897 -0.5874  0.9648
  776SOL     MW 3104   0.129   1.491   0.124 -0.0831  0.3445 -0.0227
  777SOL     OW 3105   2.948   1.125   1.760  0.0659 -0.6171 -0.2976
  777SOL    HW1 3106   2.901   1.148   1.686  1.2849 -3.0060  0.0526
  777SOL    HW2 3107   2.899   1.044   1.793 -1.0559 -1.3040  3.0218
  777SOL     MW 3108   2.935   1.117   1.755  0.0787 -1.0229  0.1866
  778SOL     OW 3109   2.890   0.474   2.745 -0.3432 -0.5065  0.0816
  778SOL    HW1 3110   2.810   0.499   2.794 -2.5858 -2.3287 -1.2799
  778SOL    HW2 3111   2.916   0.551   2.695 -1.7514  0.6266  1.8830
  778SOL     MW 3112   2.883   0.487   2.745 -0.8249 -0.5974  0.1397
  779SOL     OW 3113   2.254   0.411   2.111  0.2679  0.3890 -0.1399
  779SOL    HW1 3114   2.203   0.408   2.191 -4.1823  3.4975  0.9529
  779SOL    HW2 3115   2.246   0.324   2.069  5.1301 -0.4040  2.4699
  779SOL     MW 3116   2.246   0.399   2.116  0.3222  0.6945  0.3486
  780SOL     OW 3117   0.152   0.241   2.695 -0.2197  0.0359 -0.1116
  780SOL    HW1 3118   0.085   0.189   2.748  0.2778 -0.5499  1.5658
  780SOL    HW2 3119   0.154   0.323   2.750 -0.4249  0.4828  1.0009
  780SOL     MW 3120   0.144   0.245   2.709 -0.1812  0.0175  0.2565
  781SOL     OW 3121   3.066   1.314   2.482 -0.0359  0.8825  0.4506
  781SOL    HW1 3122   3.021   1.354   2.406 -2.1569  0.6579 -1.2254
  781SOL    HW2 3123   3.093   1.222   2.456  0.3839 -0.9960  3.6101
  781SOL     MW 3124   3.064   1.307   2.468 -0.2604  0.6050  0.6463
  782SOL     OW 3125   0.690   1.499   0.090 -0.6105 -0.1509  0.2765
  782SOL    HW1 3126   0.601   1.517   0.061 -0.6824 -0.9418  0.1560
  782SOL    HW2 3127   0.708   1.506   0.182 -0.9164 -0.9603 -0.2353
  782SOL     MW 3128   0.680   1.502   0.098 -0.6603 -0.3620  0.1930
  783SOL     OW 3129   2.718   0.526   2.393  0.7399  0.9976  0.1206
  783SOL    HW1 3130   2.662   0.584   2.342 -2.0072 -0.0896  1.8868
  783SOL    HW2 3131   2.652   0.486   2.456 -0.5429  0.3608 -1.1146
  783SOL     MW 3132   2.702   0.528   2.395  0.2082  0.7701  0.1906
  784SOL     OW 3133   0.202   0.838   2.861 -0.2639  0.6978 -0.0023
  784SOL    HW1 3134   0.109   0.863   2.848 -2.8108  0.4514 -0.3744
  784SOL    HW2 3135   0.247   0.877   2.790  1.3743  0.1322  3.1280
  784SOL     MW 3136   0.196   0.846   2.850 -0.3838  0.5907  0.3616
  785SOL     OW 3137   0.424   0.392   2.185  0.7893  0.4796 -0.2767
  785SOL    HW1 3138   0.430   0.395   2.087 -0.1355 -1.1721  0.1581
  785SOL    HW2 3139   0.330   0.392   2.205  0.0769  0.9900  0.9705
  785SOL     MW 3140   0.412   0.392   2.175  0.5733  0.3290 -0.0548
  786SOL     OW 3141   1.890   0.431   0.005  0.2493 -0.1615 -0.3810
  786SOL    HW1 3142   1.813   0.454   0.048  1.7156 -0.0694 -2.2610
  786SOL    HW2 3143   1.864   0.421  -0.082  1.3148 -0.7860  0.0698
  786SOL     MW 3144   1.876   0.432  -0.001  0.5834 -0.2317 -0.5696
  787SOL     OW 3145   2.465   0.170   2.936 -0.0527 -0.2593  0.1927
  787SOL    HW1 3146   2.540   0.132   2.902  0.7517  2.1234 -2.4900
  787SOL    HW2 3147   2.498   0.237   3.002  1.4068  0.1432  2.3263
  787SOL     MW 3148   2.480   0.174   2.940  0.2460  0.1082  0.1203
  788SOL     OW 3149   2.857   2.992   2.423 -0.4583 -0.1101 -0.2759
  788SOL    HW1 3150   2.860   2.935   2.500 -0.5066 -0.8881  0.3277
  788SOL    HW2 3151   2.906   2.939   2.358  0.9774  1.0949 -1.5734
  788SOL     MW 3152   2.864   2.977   2.425 -0.2752 -0.0538 -0.3675
  789SOL     OW 3153   0.113   0.167   3.092  0.0633  0.3614 -0.4594
  789SOL    HW1 3154   0.068   0.087   3.100 -1.5248  0.6473 -1.9316
  789SOL    HW2 3155   0.056   0.229   3.044 -2.0187 -2.1653  0.2851
  789SOL     MW 3156   0.099   0.165   3.087 -0.4209  0.0657 -0.5554
  790SOL     OW 3157   0.005   1.041   2.426  0.7329 -0.0732 -0.7966
  790SOL    HW1 3158  -0.009   0.993   2.507  1.6099  2.4454  0.9948
  790SOL    HW2 3159  -0.070   1.011   2.363 -1.8363  1.1951 -2.5175
  790SOL     MW 3160  -0.006   1.031   2.429  0.5096  0.4264 -0.7873
  791SOL     OW 3161   2.534   0.475   2.602 -0.4752  0.4620  0.4904
  791SOL    HW1 3162   2.500   0.533   2.670  1.8462  2.0178 -1.9374
  791SOL    HW2 3163   2.548   0.392   2.650 -0.5692 -0.5388 -2.4253
  791SOL     MW 3164   2.531   0.471   2.617 -0.1813  0.5352 -0.2146
  792SOL     OW 3165   2.393   0.207   2.454 -1.0506  0.5904 -0.4729
  792SOL    HW1 3166   2.362   0.294   2.430  0.8221 -0.0195  0.1513
  792SOL    HW2 3167   2.343   0.196   2.534 -2.6088  0.7941  0.2585
  792SOL     MW 3168   2.383   0.217   2.462 -1.0091  0.5368 -0.2940
  793SOL     OW 3169   1.797   1.090   2.012  0.5349 -0.2705  0.1855
  793SOL    HW1 3170   1.738   1.077   1.933  1.9895 -1.3382  1.2742
  793SOL    HW2 3171   1.887   1.069   1.981  1.2726 -0.9594 -1.5525
  793SOL     MW 3172   1.801   1.085   1.998  0.8242 -0.5023  0.0998
  794SOL     OW 3173   1.375   2.320   0.108 -0.2083 -0.0164 -0.0101
  794SOL    HW1 3174   1.400   2.398   0.065 -2.5562 -2.2474  4.0461
  794SOL    HW2 3175   1.406   2.343   0.198  1.9172  0.0412  1.7342
  794SOL     MW 3176   1.382   2.333   0.114 -0.2377 -0.3032  0.7552
  795SOL     OW 3177   2.302   1.062   2.533 -0.0901 -0.3533 -0.1313
  795SOL    HW1 3178   2.266   1.122   2.600 -0.1603 -0.4247 -0.9248
  795SOL    HW2 3179   2.385   1.102   2.518 -0.7131 -2.1027  1.6448
  795SOL     MW 3180   2.308   1.075   2.540 -0.1816 -0.5935 -0.0017
  796SOL     OW 3181   0.246   0.611   2.693 -0.3714 -0.1097 -0.6289
  796SOL    HW1 3182   0.203   0.672   2.756  0.0709  1.4438 -0.3184
  796SOL    HW2 3183   0.185   0.607   2.620  0.1499 -0.2027 -0.9743
  796SOL     MW 3184   0.232   0.618   2.692 -0.2442  0.0830 -0.6335
  797SOL     OW 3185   2.635   0.177   2.597 -0.2099 -0.3345 -0.0699
  797SOL    HW1 3186   2.566   0.168   2.542 -0.0168 -1.6612 -2.4909
  797SOL    HW2 3187   2.700   0.194   2.532 -2.4865  1.4063 -1.6969
  797SOL     MW 3188   2.635   0.178   2.581 -0.4848 -0.2799 -0.6040
  798SOL     OW 3189   2.363   0.056   2.225  0.3104  0.1294 -0.1993
  798SOL    HW1 3190   2.386   0.110   2.306  1.6715  0.4054 -0.8025
  798SOL    HW2 3191   2.447   0.023   2.204 -1.1493 -0.3238 -3.2299
  798SOL     MW 3192   2.377   0.059   2.233  0.2974  0.1060 -0.6788
  799SOL     OW 3193   2.550   2.977   0.120  0.0537  0.3484  0.3000
  799SOL    HW1 3194   2.470   2.961   0.071 -1.0869 -2.2421 -0.5990
  799SOL    HW2 3195   2.531   2.976   0.213  2.4058 -1.2126  0.4317
  799SOL     MW 3196   2.537   2.975   0.126  0.2136 -0.1993  0.1988
  800SOL     OW 3197   1.929   3.065   1.762  0.0439  0.1126  0.3997
  800SOL    HW1 3198   1.862   2.999   1.742  0.7716  0.3813  0.4986
  800SOL    HW2 3199   1.974   3.023   1.838  0.1036  2.4355 -2.0581
  800SOL     MW 3200   1.926   3.051   1.770  0.1478  0.4545  0.0885
  801SOL     OW 3201   2.843   1.222   2.621 -0.2541  0.0484 -0.0800
  801SOL    HW1 3202   2.845   1.131   2.598 -1.0424 -1.5994  0.6046
  801SOL    HW2 3203   2.924   1.263   2.589 -1.2148  1.9010  1.9610
  801SOL     MW 3204   2.854   1.215   2.614 -0.4849  0.0754  0.2796
  802SOL     OW 3205   2.594   1.476   2.772 -0.3503 -0.2205 -0.2203
  802SOL    HW1 3206   2.575   1.386   2.743  0.4157 -3.0314 -1.7263
  802SOL    HW2 3207   2.673   1.485   2.832  0.3150 -0.3419  1.3719
  802SOL     MW 3208   2.602   1.465   2.776 -0.1615 -0.6074 -0.2089
  803SOL     OW 3209   2.275   1.384   2.007 -0.1651 -0.1695  0.5256
  803SOL    HW1 3210   2.255   1.371   2.099 -0.4575 -0.1384 -0.1107
  803SOL    HW2 3211   2.246   1.304   1.963 -0.7820 -0.1717 -1.6691
  803SOL     MW 3212   2.268   1.372   2.013 -0.2851 -0.1657  0.1521
  804SOL     OW 3213   2.296   0.093   0.027 -0.0485 -0.4868  0.0228
  804SOL    HW1 3214   2.222   0.158   0.039 -0.4716 -0.5580  0.1544
  804SOL    HW2 3215   2.351   0.128  -0.052  1.4999 -1.9109 -0.3214
  804SOL     MW 3216   2.293   0.106   0.018  0.1000 -0.6841 -0.0052
  805SOL     OW 3217   2.716   0.884   2.649  0.7719  0.5100 -0.0504
  805SOL    HW1 3218   2.629   0.856   2.609  2.6024 -0.7724 -0.7285
  805SOL    HW2 3219   2.777   0.820   2.623 -0.4777  1.7660 -0.0051
  805SOL     MW 3220   2.712   0.872   2.640  0.8486  0.5065 -0.1339
  806SOL     OW 3221   2.586   0.697   2.233 -0.4181 -0.2082 -0.7955
  806SOL    HW1 3222   2.577   0.643   2.155 -0.7828 -2.7014  1.4829
  806SOL    HW2 3223   2.609   0.785   2.209 -0.9833  0.4396 -1.3143
  806SOL     MW 3224   2.587   0.701   2.220 -0.5408 -0.4517 -0.5633
  807SOL     OW 3225   0.072   1.095   2.067  0.6097 -0.8106 -0.0055
  807SOL    HW1 3226   0.092   1.000   2.069 -1.1798  1.8308  0.3394
  807SOL    HW2 3227  -0.007   1.102   2.014 -1.5887  2.0116 -2.2794
  807SOL     MW 3228   0.064   1.084   2.060  0.0835 -0.0897 -0.2600
  808SOL     OW 3229   2.653   0.013   2.813  0.4056 -1.1185  0.0749
  808SOL    HW1 3230   2.608  -0.071   2.799 -0.1128  0.0345  1.9288
  808SOL    HW2 3231   2.655   0.071   2.729 -2.3999 -0.1644 -2.1819
  808SOL     MW 3232   2.648   0.010   2.800 -0.0330 -0.8405  0.0218
  809SOL     OW 3233   2.691   1.355   2.391  0.4416  0.1718 -0.4651
  809SOL    HW1 3234   2.730   1.319   2.473 -2.5025 -0.1781  0.3477
  809SOL    HW2 3235   2.734   1.316   2.312 -3.1514  0.1981 -1.2704
  809SOL     MW 3236   2.702   1.345   2.391 -0.4209  0.1291 -0.4641
  810SOL     OW 3237   2.230   1.345   2.299  0.3213 -0.3588  0.2769
  810SOL    HW1 3238   2.306   1.292   2.326 -0.6820  1.6035  0.7076
  810SOL    HW2 3239   2.158   1.317   2.355 -0.9770  0.1376 -0.4399
  810SOL     MW 3240   2.230   1.334   2.310  0.0176 -0.0344  0.2392
  811SOL     OW 3241   1.587   0.160   2.298 -0.3390 -0.2622 -0.0659
  811SOL    HW1 3242   1.676   0.147   2.333  1.2493  1.6624  0.2383
  811SOL    HW2 3243   1.594   0.146   2.206  0.0947 -0.1842  1.4517
  811SOL     MW 3244   1.600   0.156   2.290 -0.0722  0.0020  0.1745
  812SOL     OW 3245   1.460   2.853   2.044  0.1037 -0.8601 -0.2969
  812SOL    HW1 3246   1.555   2.856   2.033  0.0556 -0.1665 -0.6416
  812SOL    HW2 3247   1.448   2.822   2.134  1.5996 -0.4401  0.7180
  812SOL     MW 3248   1.471   2.849   2.054  0.2947 -0.7132 -0.2085
  813SOL     OW 3249   2.031   0.613   2.247 -0.1004 -0.0866  0.2574
  813SOL    HW1 3250   1.950   0.575   2.232  1.7157 -0.9331  0.9313
  813SOL    HW2 3251   2.010   0.683   2.302  0.8590  1.1692  0.8765
  813SOL     MW 3252   2.017   0.617   2.252  0.2658 -0.0326  0.4280
  814SOL     OW 3253   2.697   1.223   1.644  0.1115 -0.0852  0.5075
  814SOL    HW1 3254   2.642   1.199   1.722  0.4518 -1.0016  0.0440
  814SOL    HW2 3255   2.673   1.167   1.571  1.1949 -1.5798  3.3471
  814SOL     MW 3256   2.686   1.213   1.644  0.2994 -0.4033  0.8210
  815SOL     OW 3257   2.545   1.767   2.410 -0.1700 -0.2858  0.2630
  815SOL    HW1 3258   2.503   1.689   2.360 -1.4201 -3.2956 -0.5463
  815SOL    HW2 3259   2.636   1.737   2.426  0.8730  0.9495  1.1272
  815SOL     MW 3260   2.551   1.753   2.406 -0.1973 -0.5200  0.2702
  816SOL     OW 3261   0.753   0.707   2.780 -0.0401 -0.2816  0.0742
  816SOL    HW1 3262   0.753   0.613   2.804  0.5071  4.4929  0.7084
  816SOL    HW2 3263   0.650   0.725   2.776 -0.7310 -1.5658 -0.3035
  816SOL     MW 3264   0.739   0.697   2.782 -0.0591  0.1789  0.1081
  817SOL     OW 3265   2.974   1.232   1.456  0.5941 -0.0618  0.2240
  817SOL    HW1 3266   3.069   1.229   1.475 -1.5149 -0.5317 -0.3405
  817SOL    HW2 3267   2.967   1.322   1.409  0.8550  2.5962  0.4145
  817SOL     MW 3268   2.986   1.244   1.453  0.3503  0.2269  0.1746
  818SOL     OW 3269   1.898   1.057   2.634  0.1515  0.0256  0.4264
  818SOL    HW1 3270   1.873   1.032   2.545  0.3756 -5.1131 -2.2076
  818SOL    HW2 3271   1.969   0.991   2.660 -0.3812  0.4656 -0.6728
  818SOL     MW 3272   1.904   1.045   2.625  0.1108 -0.5944 -0.0662
  819SOL     OW 3273   1.972   0.328   2.489  0.1462 -0.1654  0.1491
  819SOL    HW1 3274   1.886   0.372   2.501  1.5194 -0.7025 -0.7488
  819SOL    HW2 3275   2.004   0.331   2.581 -4.7184  1.8429  1.3918
  819SOL     MW 3276   1.965   0.334   2.503 -0.3144  0.0287  0.1946
  820SOL     OW 3277   2.456   1.671   2.643 -0.1853 -0.2732 -0.5496
  820SOL    HW1 3278   2.518   1.609   2.686  0.2136 -0.9742 -2.2434
  820SOL    HW2 3279   2.489   1.677   2.551  0.0306 -1.1081  0.2468
  820SOL     MW 3280   2.469   1.664   2.636 -0.1042 -0.4758 -0.6680
  821SOL     OW 3281   2.575   1.371   1.985 -0.3461  0.1901 -0.0091
  821SOL    HW1 3282   2.605   1.456   1.953  1.0469 -3.6148  0.0621
  821SOL    HW2 3283   2.486   1.388   2.006  0.4361 -0.6612  0.0041
  821SOL     MW 3284   2.567   1.385   1.984 -0.0591 -0.4242  0.0020
  822SOL     OW 3285   2.902   2.744   1.472 -0.4213 -0.1152 -0.3226
  822SOL    HW1 3286   2.932   2.720   1.555 -1.3537 -0.6869 -0.1194
  822SOL    HW2 3287   2.917   2.833   1.459  0.5473 -0.2959  1.3493
  822SOL     MW 3288   2.908   2.752   1.481 -0.4165 -0.2145 -0.0752
  823SOL     OW 3289   2.372   0.513   1.856  0.1481  0.5654 -0.2747
  823SOL    HW1 3290   2.412   0.444   1.812  1.4161  0.6224 -1.9584
  823SOL    HW2 3291   2.367   0.498   1.947 -0.8554  0.9565 -0.5470
  823SOL     MW 3292   2.377   0.502   1.862  0.1830  0.6245 -0.5328
  824SOL     OW 3293   2.274   1.469   2.672  0.2087  0.0492 -0.1124
  824SOL    HW1 3294   2.348   1.518   2.637 -0.8787 -0.7264 -1.7240
  824SOL    HW2 3295   2.201   1.533   2.657  0.9514 -0.8825 -0.1235
  824SOL     MW 3296   2.274   1.484   2.665  0.1632 -0.1761 -0.3265
  825SOL     OW 3297   1.878   2.568   0.256  0.6697 -0.4014  0.1640
  825SOL    HW1 3298   1.854   2.493   0.317  0.6033 -3.7207  1.0369
  825SOL    HW2 3299   1.947   2.528   0.205 -0.8320 -2.7478  1.6379
  825SOL     MW 3300   1.884   2.553   0.257  0.4628 -1.1489  0.4736
  826SOL     OW 3301   1.796   2.378   0.432  0.0670  0.3165 -0.5371
  826SOL    HW1 3302   1.775   2.295   0.486 -2.7500  2.1388  4.4452
  826SOL    HW2 3303   1.756   2.448   0.487  0.9338  0.0903  1.0764
  826SOL     MW 3304   1.788   2.376   0.446 -0.1903  0.5271  0.3332
  827SOL     OW 3305   1.894   2.208   0.802 -0.2966 -0.7419 -0.2004
  827SOL    HW1 3306   1.833   2.228   0.730  0.7613  2.4711 -1.6801
  827SOL    HW2 3307   1.850   2.137   0.840  0.5878  1.9468  1.2090
  827SOL     MW 3308   1.881   2.201   0.797 -0.0403  0.0368 -0.2097
  828SOL     OW 3309   0.050   2.617   0.571  0.1981  0.0007 -0.0950
  828SOL    HW1 3310   0.147   2.610   0.572 -1.3821 -2.3420 -0.7793
  828SOL    HW2 3311   0.025   2.632   0.480 -2.1371 -2.0619  0.7720
  828SOL     MW 3312   0.059   2.618   0.559 -0.3185 -0.5806 -0.0709
  829SOL     OW 3313   2.987   2.931   1.197  0.3129 -0.1482 -0.1290
  829SOL    HW1 3314   2.946   2.938   1.111  1.2627  1.1092  2.3974
  829SOL    HW2 3315   3.042   2.850   1.192  0.6520 -1.2573  0.3081
  829SOL     MW 3316   2.989   2.921   1.185  0.4829 -0.1286  0.2620
  830SOL     OW 3317   2.572   2.814   2.029  0.3746 -0.3243 -0.0637
  830SOL    HW1 3318   2.480   2.798   1.991  1.4441  1.1340  0.7701
  830SOL    HW2 3319   2.623   2.792   1.949 -0.8623 -1.1054  1.6318
  830SOL     MW 3320   2.567   2.809   2.014  0.3525 -0.2349  0.2700
  831SOL     OW 3321   2.359   2.436   1.175 -0.3906  0.1848 -0.1503
  831SOL    HW1 3322   2.325   2.381   1.253  0.2391 -1.0703 -0.6785
  831SOL    HW2 3323   2.453   2.414   1.171 -0.8471  2.9489  1.4910
  831SOL     MW 3324   2.367   2.426   1.185 -0.3677  0.3839 -0.0034
  832SOL     OW 3325   2.358   2.194   1.860 -0.1565 -0.2810 -0.0404
  832SOL    HW1 3326   2.395   2.274   1.896  0.2373 -0.3737  0.2793
  832SOL    HW2 3327   2.433   2.132   1.865  3.1902  0.8322  0.5564
  832SOL     MW 3328   2.373   2.196   1.865  0.3370 -0.1464  0.0805
  833SOL     OW 3329   1.714   2.466   0.885  0.6834  0.3226 -0.7429
  833SOL    HW1 3330   1.642   2.432   0.936  3.3056 -0.5980 -0.0243
  833SOL    HW2 3331   1.747   2.536   0.938 -3.3153 -2.9573 -3.4530
  833SOL     MW 3332   1.708   2.471   0.898  0.5018 -0.2316 -1.0056
  834SOL     OW 3333   2.073   2.419   0.586 -0.3567  0.5533  0.4421
  834SOL    HW1 3334   1.993   2.440   0.533 -1.4509  0.4404  1.0460
  834SOL    HW2 3335   2.145   2.408   0.522 -0.4096 -0.4041 -2.0402
  834SOL     MW 3336   2.072   2.420   0.571 -0.5081  0.4121  0.1943
  835SOL     OW 3337   1.770   2.572   0.634 -0.5456 -0.0220  0.1778
  835SOL    HW1 3338   1.722   2.533   0.717 -3.0883 -3.4992  1.1892
  835SOL    HW2 3339   1.853   2.605   0.659  2.6865 -2.8932 -0.0935
  835SOL     MW 3340   1.775   2.571   0.648 -0.4546 -0.8596  0.2754
  836SOL     OW 3341   1.896   2.170   1.573  0.2836 -0.3163 -0.0739
  836SOL    HW1 3342   1.977   2.213   1.593 -1.1912  0.7571 -0.1506
  836SOL    HW2 3343   1.825   2.232   1.602 -0.6149  1.0819 -1.1016
  836SOL     MW 3344   1.897   2.183   1.580 -0.0296  0.0098 -0.2196
  837SOL     OW 3345   2.136   0.233   0.694 -0.5060  0.4313 -0.8251
  837SOL    HW1 3346   2.052   0.246   0.647  0.7159  1.3052  2.3141
  837SOL    HW2 3347   2.183   0.178   0.633 -1.5770 -0.6549  1.9677
  837SOL     MW 3348   2.131   0.227   0.680 -0.4861  0.4033 -0.0425
  838SOL     OW 3349   2.925   2.031   0.934 -0.2178  0.4963  0.0644
  838SOL    HW1 3350   2.851   1.975   0.964 -0.1345 -2.4339 -1.4496
  838SOL    HW2 3351   3.006   1.981   0.936 -1.6972 -0.5837  0.5790
  838SOL     MW 3352   2.926   2.017   0.938 -0.4020 -0.0328 -0.0675
  839SOL     OW 3353   1.538   2.337   1.044 -0.6829 -0.2198  0.7206
  839SOL    HW1 3354   1.536   2.393   1.119  1.1335 -0.2255 -0.6718
  839SOL    HW2 3355   1.540   2.245   1.080 -0.7383  0.8578  0.0471
  839SOL     MW 3356   1.538   2.332   1.058 -0.4506 -0.0784  0.4480
  840SOL     OW 3357   2.367   2.178   2.461 -0.1595 -0.5299  0.4464
  840SOL    HW1 3358   2.328   2.243   2.407  0.5127 -1.7692  1.1928
  840SOL    HW2 3359   2.362   2.192   2.556  1.6708  0.0717 -1.5852
  840SOL     MW 3360   2.361   2.188   2.466  0.1707 -0.6140  0.2768
  841SOL     OW 3361   2.075   2.445   0.116  0.3090  0.4946  0.4826
  841SOL    HW1 3362   2.134   2.496   0.058  0.8839  0.6235 -0.7645
  841SOL    HW2 3363   2.054   2.362   0.071  0.4496  0.8634 -5.1815
  841SOL     MW 3364   2.080   2.441   0.103  0.4034  0.5602 -0.4293
  842SOL     OW 3365   2.685   2.079   1.528 -0.4653  0.0235  0.0037
  842SOL    HW1 3366   2.637   2.050   1.605  0.8632  0.9235  0.4778
  842SOL    HW2 3367   2.622   2.092   1.452  1.7327  1.6920 -2.0755
  842SOL     MW 3368   2.670   2.077   1.528  0.0000  0.3624 -0.2081
  843SOL     OW 3369   2.659   2.754   1.781 -0.3564  0.2697 -0.2477
  843SOL    HW1 3370   2.747   2.719   1.750  3.5863  3.6668 -1.0992
  843SOL    HW2 3371   2.591   2.693   1.732  2.1264 -0.0719 -0.2413
  843SOL     MW 3372   2.661   2.741   1.770  0.4914  0.6729 -0.3592
  844SOL     OW 3373   2.619   2.385   1.153 -0.5469 -0.0219  0.2639
  844SOL    HW1 3374   2.666   2.397   1.066  0.4295 -2.8024 -1.8265
  844SOL    HW2 3375   2.669   2.443   1.216 -1.0893 -0.4549  1.2964
  844SOL     MW 3376   2.632   2.394   1.150 -0.4896 -0.4459  0.1243
  845SOL     OW 3377   2.834   2.501   0.291 -0.5677 -0.2539  0.4310
  845SOL    HW1 3378   2.802   2.402   0.288 -1.6138 -1.3668  0.3302
  845SOL    HW2 3379   2.818   2.521   0.381  1.7421 -2.4383 -1.8854
  845SOL     MW 3380   2.828   2.490   0.302 -0.4010 -0.6890  0.1121
  846SOL     OW 3381   1.590   2.847   0.799 -0.5308 -0.2438  0.0029
  846SOL    HW1 3382   1.677   2.889   0.816 -0.0828 -0.3809  0.2494
  846SOL    HW2 3383   1.530   2.892   0.855  1.3261 -1.9462  0.0575
  846SOL     MW 3384   1.593   2.858   0.809 -0.2267 -0.4865  0.0426
  847SOL     OW 3385   2.603   1.923   0.193 -0.1567 -0.7223 -0.1641
  847SOL    HW1 3386   2.679   1.881   0.231 -2.6792  1.1852  1.2993
  847SOL    HW2 3387   2.582   1.857   0.131  0.8649 -2.9125 -1.7860
  847SOL     MW 3388   2.610   1.908   0.190 -0.3548 -0.7596 -0.1850
  848SOL     OW 3389   2.515   2.120   1.291 -0.2529  0.2063 -0.2073
  848SOL    HW1 3390   2.579   2.181   1.259  0.0228  1.4498  1.1218
  848SOL    HW2 3391   2.518   2.035   1.242 -2.2631 -2.6212  0.0940
  848SOL     MW 3392   2.524   2.117   1.280 -0.4817 -0.0027  0.0078
  849SOL     OW 3393   1.980   2.723   0.802  0.3691  0.6961  0.0273
  849SOL    HW1 3394   2.003   2.649   0.861  1.3247 -0.3710 -0.5013
  849SOL    HW2 3395   2.055   2.727   0.745  0.8130 -2.6443  0.8742
  849SOL     MW 3396   1.993   2.714   0.802  0.5537  0.1146  0.0693
  850SOL     OW 3397   2.183   1.959   1.678  0.5384  0.1403 -0.1443
  850SOL    HW1 3398   2.099   1.914   1.661 -1.7139 -0.0934  0.7379
  850SOL    HW2 3399   2.165   2.049   1.684  1.4566  0.9056  2.3330
  850SOL     MW 3400   2.169   1.965   1.676  0.3624  0.2104  0.2989
  851SOL     OW 3401   2.222   2.359   0.359 -0.2570 -0.2626  0.5687
  851SOL    HW1 3402   2.154   2.371   0.297  1.5099 -0.3974 -1.8630
  851SOL    HW2 3403   2.289   2.419   0.329 -0.6446 -0.7433 -2.7266
  851SOL     MW 3404   2.222   2.368   0.347 -0.0750 -0.3438 -0.1869
  852SOL     OW 3405   2.290   2.127   0.206 -0.4699  0.3422 -0.9060
  852SOL    HW1 3406   2.273   2.193   0.276 -0.0079  1.6967 -1.0709
  852SOL    HW2 3407   2.368   2.151   0.153  1.9887 -0.9806  0.3980
  852SOL     MW 3408   2.298   2.139   0.208 -0.0845  0.3464 -0.7557
  853SOL     OW 3409   2.428   2.447   1.959  0.5811  0.1060  0.6257
  853SOL    HW1 3410   2.459   2.494   1.880 -0.0626 -1.2434  0.7499
  853SOL    HW2 3411   2.513   2.420   1.993 -0.4396  0.9844 -0.1175
  853SOL     MW 3412   2.444   2.449   1.953  0.3615  0.0439  0.5440
  854SOL     OW 3413   2.872   2.220   0.740  0.3720  0.0631  0.0264
  854SOL    HW1 3414   2.789   2.186   0.702 -0.1891  0.2295 -0.3553
  854SOL    HW2 3415   2.906   2.146   0.795  1.4595 -1.0062  0.0374
  854SOL     MW 3416   2.866   2.206   0.742  0.4414 -0.0560 -0.0225
  855SOL     OW 3417   2.690   2.269   0.297  0.0896  0.8679  0.3133
  855SOL    HW1 3418   2.623   2.297   0.354  0.3275 -0.4307 -1.7600
  855SOL    HW2 3419   2.740   2.201   0.344  0.1495  0.1714  2.1977
  855SOL     MW 3420   2.688   2.263   0.310  0.1289  0.6047  0.2884
  856SOL     OW 3421   2.186   1.873   0.184 -0.9037 -0.2604  0.2639
  856SOL    HW1 3422   2.090   1.880   0.203 -1.3442  0.4116  0.8116
  856SOL    HW2 3423   2.224   1.963   0.196 -0.0191  1.9211 -0.4457
  856SOL     MW 3424   2.179   1.886   0.188 -0.8451  0.1161  0.2426
  857SOL     OW 3425   2.548   1.914   0.459  0.6878  0.0004  0.0961
  857SOL    HW1 3426   2.560   1.909   0.366 -2.0201 -1.1773  2.4046
  857SOL    HW2 3427   2.458   1.895   0.458  0.5298  0.7375 -1.8448
  857SOL     MW 3428   2.538   1.911   0.446  0.3097 -0.0577  0.1446
  858SOL     OW 3429   2.918   2.636   1.743 -0.0563 -0.8274  0.0866
  858SOL    HW1 3430   3.000   2.638   1.792  1.1250 -1.2598 -1.2067
  858SOL    HW2 3431   2.866   2.570   1.788  2.5745  0.5314 -0.7404
  858SOL     MW 3432   2.922   2.627   1.755  0.4467 -0.7051 -0.1931
  859SOL     OW 3433   2.090   2.463   0.891 -0.7156 -0.0369 -0.5200
  859SOL    HW1 3434   2.040   2.424   0.825  0.7089  0.4130 -0.0467
  859SOL    HW2 3435   2.173   2.422   0.881  0.8009  1.5894 -1.5416
  859SOL     MW 3436   2.094   2.453   0.881 -0.3276  0.2370 -0.5923
  860SOL     OW 3437   2.635   2.628   0.171  0.4127  0.1856 -0.6295
  860SOL    HW1 3438   2.709   2.575   0.207 -0.2262  1.3957 -0.3237
  860SOL    HW2 3439   2.684   2.702   0.142 -1.0980 -2.3716 -0.1777
  860SOL     MW 3440   2.651   2.631   0.172  0.1291  0.0079 -0.5295
  861SOL     OW 3441   1.576   2.100   1.168  0.2802 -0.0837  0.3519
  861SOL    HW1 3442   1.639   2.091   1.238 -0.1650 -1.0494 -1.8045
  861SOL    HW2 3443   1.495   2.056   1.205 -0.3164 -1.0972 -0.9028
  861SOL     MW 3444   1.573   2.093   1.182  0.1427 -0.3449 -0.0982
  862SOL     OW 3445   2.386   1.840   1.540 -0.4668  0.1278 -0.3505
  862SOL    HW1 3446   2.325   1.902   1.576  0.6988 -1.1615 -1.4901
  862SOL    HW2 3447   2.362   1.847   1.447 -0.0965  3.8713 -0.4385
  862SOL     MW 3448   2.374   1.849   1.532 -0.2642  0.4516 -0.5125
  863SOL     OW 3449   3.060   1.798   1.163 -0.2216  0.1291  0.4299
  863SOL    HW1 3450   3.149   1.828   1.169 -0.0387 -2.4444  0.0795
  863SOL    HW2 3451   3.018   1.880   1.188 -0.1841 -2.2098  0.0615
  863SOL     MW 3452   3.066   1.813   1.167 -0.1926 -0.5191  0.3351
  864SOL     OW 3453   0.028   1.838   0.883 -0.5240 -0.5837 -0.5651
  864SOL    HW1 3454  -0.035   1.768   0.906  1.3684 -3.4830 -2.9153
  864SOL    HW2 3455   0.017   1.845   0.783  1.4436 -0.2024  0.5905
  864SOL     MW 3456   0.018   1.830   0.873 -0.0147 -0.9160 -0.7227
  865SOL     OW 3457   2.529   2.173   0.056  0.0063  0.0648 -0.6232
  865SOL    HW1 3458   2.562   2.096   0.118  0.1537 -2.0115  0.0577
  865SOL    HW2 3459   2.494   2.130  -0.022 -0.5157  2.4321 -1.0027
  865SOL     MW 3460   2.529   2.157   0.054 -0.0431  0.1032 -0.5835
  866SOL     OW 3461   2.695   2.379   1.586 -0.1409 -0.2061 -0.0990
  866SOL    HW1 3462   2.685   2.292   1.551 -0.8761  0.8742  0.9486
  866SOL    HW2 3463   2.739   2.419   1.511 -3.0206 -1.8293 -2.2590
  866SOL     MW 3464   2.699   2.373   1.571 -0.6179 -0.2777 -0.2457
  867SOL     OW 3465   0.071   2.743   1.848 -0.2618 -0.2059 -0.6991
  867SOL    HW1 3466   0.127   2.764   1.922 -0.0522  0.1531  1.3918
  867SOL    HW2 3467   0.046   2.823   1.801 -1.2307 -1.1486  3.4309
  867SOL     MW 3468   0.075   2.756   1.851 -0.3620 -0.2829  0.1217
  868SOL     OW 3469   2.794   2.564   0.558 -0.2967 -0.2818 -0.2073
  868SOL    HW1 3470   2.714   2.506   0.556 -0.7811 -0.2198  0.8270
  868SOL    HW2 3471   2.775   2.652   0.523  0.4141  0.9557  0.9658
  868SOL     MW 3472   2.781   2.568   0.553 -0.2668 -0.1103  0.0840
  869SOL     OW 3473   1.920   2.328   1.055  1.0179  0.0819  0.5379
  869SOL    HW1 3474   1.982   2.386   1.003 -0.7943 -0.8285 -2.4932
  869SOL    HW2 3475   1.858   2.308   0.974  1.2665 -0.7461 -1.9509
  869SOL     MW 3476   1.920   2.333   1.038  0.8116 -0.1475 -0.1904
  870SOL     OW 3477   2.244   0.029   0.519 -0.5149 -0.2262 -0.4301
  870SOL    HW1 3478   2.295   0.065   0.444  1.3490 -0.9995 -0.6720
  870SOL    HW2 3479   2.276  -0.056   0.543  2.3894  0.2497 -0.7530
  870SOL     MW 3480   2.255   0.023   0.513  0.1142 -0.2654 -0.5046
  871SOL     OW 3481   2.473   2.023   0.882 -0.1007 -0.8696  0.2113
  871SOL    HW1 3482   2.395   1.995   0.836  0.6996 -1.5370  2.1793
  871SOL    HW2 3483   2.447   2.109   0.912  0.4248 -1.9761 -0.2387
  871SOL     MW 3484   2.459   2.031   0.880  0.0742 -1.1037  0.4116
  872SOL     OW 3485   2.013   2.539   1.378 -0.3203 -1.1145 -0.2878
  872SOL    HW1 3486   1.979   2.578   1.466  1.2498  0.4645 -0.3309
  872SOL    HW2 3487   1.944   2.480   1.358  0.6729 -0.7219 -0.4709
  872SOL     MW 3488   1.999   2.537   1.387  0.0179 -0.8544 -0.3177
  873SOL     OW 3489   2.828   2.090   1.932  0.1597  0.1236  0.5155
  873SOL    HW1 3490   2.862   2.148   1.997 -2.4600  0.5544 -2.4866
  873SOL    HW2 3491   2.891   2.085   1.861  0.9559 -1.5982  0.7691
  873SOL     MW 3492   2.840   2.097   1.931 -0.0809 -0.0468  0.1528
  874SOL     OW 3493   2.431   1.517   2.365 -0.0156  0.3787  0.5295
  874SOL    HW1 3494   2.356   1.475   2.326 -1.4290  0.0417 -0.4886
  874SOL    HW2 3495   2.508   1.463   2.358  1.9182  3.6047  2.8359
  874SOL     MW 3496   2.431   1.504   2.359  0.0531  0.7599  0.6995
  875SOL     OW 3497   2.322   2.297   0.914 -0.3120 -0.6119  0.5807
  875SOL    HW1 3498   2.377   2.368   0.877  2.3445 -0.4908 -0.8698
  875SOL    HW2 3499   2.320   2.329   1.002  2.0404  0.3169 -1.1972
  875SOL     MW 3500   2.329   2.310   0.921  0.3488 -0.4733  0.1547
  876SOL     OW 3501   3.031   2.331   1.327 -0.2093  0.1060 -0.1288
  876SOL    HW1 3502   3.083   2.357   1.248 -1.3483  0.3431 -1.6804
  876SOL    HW2 3503   3.070   2.352   1.411  0.9237  0.8744  1.9944
  876SOL     MW 3504   3.043   2.337   1.328 -0.2101  0.2387 -0.0534
  877SOL     OW 3505   3.017   2.751   0.324 -0.2822 -0.2692  0.2122
  877SOL    HW1 3506   3.016   2.820   0.259 -2.6613 -1.0014  0.2535
  877SOL    HW2 3507   3.033   2.670   0.276 -2.2848 -0.1070  1.9497
  877SOL     MW 3508   3.019   2.749   0.309 -0.8603 -0.3444  0.4469
  878SOL     OW 3509   2.307   1.816   1.284 -0.0264  0.1146  0.3516
  878SOL    HW1 3510   2.254   1.736   1.306 -1.6015  2.4493 -1.3745
  878SOL    HW2 3511   2.394   1.780   1.272 -1.6311  0.5491  1.4633
  878SOL     MW 3512   2.312   1.801   1.285 -0.4459  0.4800  0.2705
  879SOL     OW 3513   2.759   2.433   0.892 -0.4279  0.0903 -0.4379
  879SOL    HW1 3514   2.816   2.496   0.944  1.7267  0.4800  2.3011
  879SOL    HW2 3515   2.816   2.365   0.865 -1.3461  1.8400 -1.5493
  879SOL     MW 3516   2.774   2.432   0.895 -0.2647  0.3725 -0.2232
  880SOL     OW 3517   2.633   2.056   0.666 -0.4616  0.9566 -0.1057
  880SOL    HW1 3518   2.583   2.041   0.752 -0.0883 -0.2277  3.1066
  880SOL    HW2 3519   2.579   2.018   0.597 -1.7738 -0.1722 -0.0988
  880SOL     MW 3520   2.619   2.049   0.668 -0.5855  0.6514  0.3191
  881SOL     OW 3521   2.921   2.686   0.761 -0.0216  0.1252 -0.1228
  881SOL    HW1 3522   2.882   2.628   0.691 -0.7151 -0.3325 -2.5808
  881SOL    HW2 3523   3.011   2.676   0.733  1.3421 -0.7591 -1.5111
  881SOL     MW 3524   2.928   2.677   0.748  0.0669 -0.0519 -0.6303
  882SOL     OW 3525   2.324   2.788   1.886 -0.2493  0.5844  0.5389
  882SOL    HW1 3526   2.289   2.807   1.800  1.1415 -1.7401  0.5365
  882SOL    HW2 3527   2.261   2.731   1.929  0.2724  1.5823 -0.5895
  882SOL     MW 3528   2.311   2.783   1.880  0.0030  0.4094  0.3897
  883SOL     OW 3529   2.265   2.266   1.364  0.1119  0.3477  0.4378
  883SOL    HW1 3530   2.336   2.202   1.344  2.0545 -0.6640 -0.4392
  883SOL    HW2 3531   2.189   2.240   1.305 -1.1961  0.0813 -0.1413
  883SOL     MW 3532   2.264   2.254   1.354  0.1957  0.1791  0.2457
  884SOL     OW 3533   1.894   1.875   1.126 -0.6347  0.2384  0.0547
  884SOL    HW1 3534   1.844   1.938   1.074 -3.5086  0.3083  1.1989
  884SOL    HW2 3535   1.983   1.894   1.106 -0.4141  2.4539  2.5779
  884SOL     MW 3536   1.900   1.886   1.117 -0.9848  0.5399  0.5386
  885SOL     OW 3537   2.782   2.414   1.849  0.2626  0.4903  0.1589
  885SOL    HW1 3538   2.856   2.348   1.849  0.9711 -3.2612 -4.4626
  885SOL    HW2 3539   2.747   2.416   1.760 -0.6091 -0.8753 -0.6937
  885SOL     MW 3540   2.787   2.405   1.838  0.2411 -0.1849 -0.5634
  886SOL     OW 3541   2.802   2.472   1.372  0.0041 -0.9056 -0.1506
  886SOL    HW1 3542   2.880   2.421   1.346  0.2050 -2.0809  1.4176
  886SOL    HW2 3543   2.845   2.558   1.391  0.6905 -0.7211 -1.0243
  886SOL     MW 3544   2.818   2.476   1.371  0.1212 -1.0363 -0.0590
  887SOL     OW 3545   2.302   2.609   1.492 -0.0479 -0.1223  0.1704
  887SOL    HW1 3546   2.339   2.646   1.409 -1.0855  1.9683  1.2348
  887SOL    HW2 3547   2.242   2.539   1.468  1.5448 -2.6382  0.7529
  887SOL     MW 3548   2.299   2.605   1.478  0.0253 -0.1784  0.3877
  888SOL     OW 3549   1.800   2.082   1.338  0.0395  0.1803  0.0883
  888SOL    HW1 3550   1.865   2.055   1.274  1.8068  0.4609  1.2729
  888SOL    HW2 3551   1.854   2.100   1.419  0.6102 -3.4877  2.0607
  888SOL     MW 3552   1.816   2.081   1.340  0.3480 -0.2666  0.5049
  889SOL     OW 3553   2.345   2.020   2.102  0.6101 -0.3267  0.0850
  889SOL    HW1 3554   2.420   2.033   2.163 -1.7598  0.2168  2.7941
  889SOL    HW2 3555   2.353   2.086   2.036  1.1253 -1.0482 -1.2679
  889SOL     MW 3556   2.356   2.031   2.101  0.3654 -0.3502  0.2639
  890SOL     OW 3557   0.126   2.293   0.096 -0.2576 -0.3555 -0.1335
  890SOL    HW1 3558   0.092   2.380   0.100 -0.1582 -1.4252  0.0117
  890SOL    HW2 3559   0.098   2.254   0.183  0.6403 -3.4420  0.0220
  890SOL     MW 3560   0.118   2.299   0.108 -0.1260 -0.9038 -0.0938
  891SOL     OW 3561   3.047   2.052   1.316  0.0561 -0.1740 -0.2948
  891SOL    HW1 3562   3.136   2.029   1.326 -1.7123  2.6175 -4.3466
  891SOL    HW2 3563   3.044   2.144   1.330 -1.9628 -0.3126 -1.4393
  891SOL     MW 3564   3.058   2.061   1.319 -0.4436  0.1760 -0.9804
  892SOL     OW 3565   2.365   2.406   2.986  0.4922  0.1638  0.1183
  892SOL    HW1 3566   2.361   2.310   3.007 -2.3619  0.9925 -1.3520
  892SOL    HW2 3567   2.449   2.423   2.939  1.3688  1.6917  0.1731
  892SOL     MW 3568   2.375   2.395   2.983  0.2313  0.4747 -0.0685
  893SOL     OW 3569   1.571   2.525   1.228 -0.1613 -0.6673  0.1275
  893SOL    HW1 3570   1.478   2.512   1.264  0.3261  0.6712  1.1286
  893SOL    HW2 3571   1.626   2.461   1.276 -0.3639  2.4074 -1.4981
  893SOL     MW 3572   1.566   2.515   1.239 -0.1238 -0.0850  0.0451
  894SOL     OW 3573   2.831   1.909   0.511 -0.3137  0.3066 -0.2414
  894SOL    HW1 3574   2.739   1.911   0.553 -2.3535 -1.2407  0.6621
  894SOL    HW2 3575   2.836   1.839   0.437 -0.0325  0.8461 -1.1427
  894SOL     MW 3576   2.820   1.900   0.507 -0.5458  0.1736 -0.2411
  895SOL     OW 3577   2.077   2.151   1.176  0.0070  0.5650  0.1355
  895SOL    HW1 3578   2.023   2.215   1.125 -0.3233  0.0753 -0.5933
  895SOL    HW2 3579   2.108   2.078   1.121 -1.6950 -1.0304 -0.7276
  895SOL     MW 3580   2.074   2.150   1.162 -0.2612  0.2899 -0.0746
  896SOL     OW 3581   2.200   2.833   1.068  0.0764 -0.3587  0.5228
  896SOL    HW1 3582   2.273   2.801   1.125  0.0165  0.1821 -0.7684
  896SOL    HW2 3583   2.128   2.813   1.120 -0.1224  1.4485 -0.2834
  896SOL     MW 3584   2.200   2.826   1.082  0.0423 -0.0489  0.2461
  897SOL     OW 3585   2.977   2.971   0.174  0.1132  0.4457  0.4823
  897SOL    HW1 3586   3.056   2.957   0.118  1.6319  0.3737  0.2435
  897SOL    HW2 3587   2.906   2.948   0.114  1.7465  1.5331  3.5078
  897SOL     MW 3588   2.978   2.966   0.158  0.5291  0.5797  0.8500
  898SOL     OW 3589   2.075   0.188   1.432 -0.2146  0.1846  0.6591
  898SOL    HW1 3590   2.017   0.115   1.398  1.0330  0.7442 -0.2499
  898SOL    HW2 3591   2.094   0.231   1.348  4.5110  0.3757  2.0058
  898SOL     MW 3592   2.070   0.184   1.416  0.5735  0.2837  0.7169
  899SOL     OW 3593   2.904   2.973   0.678  0.3352 -0.2333  0.2268
  899SOL    HW1 3594   2.918   2.885   0.714 -0.3801  0.7064  1.7783
  899SOL    HW2 3595   2.809   2.990   0.695 -0.2965  0.8763  1.8826
  899SOL     MW 3596   2.893   2.964   0.685  0.1575  0.0371  0.6499
  900SOL     OW 3597   0.127   2.374   1.110  0.3647 -0.2940  0.0147
  900SOL    HW1 3598   0.151   2.448   1.053 -2.5153 -0.8510 -2.0549
  900SOL    HW2 3599   0.129   2.304   1.046 -2.5178  1.2522 -0.7420
  900SOL     MW 3600   0.130   2.375   1.094 -0.3956 -0.1635 -0.3582
  901SOL     OW 3601   1.737   2.823   1.730  0.3141  0.7418 -0.5484
  901SOL    HW1 3602   1.811   2.775   1.690 -0.0492  0.2935 -0.4821
  901SOL    HW2 3603   1.677   2.851   1.666  2.9179 -1.1899  0.5192
  901SOL     MW 3604   1.739   2.820   1.716  0.6097  0.4278 -0.3988
  902SOL     OW 3605   2.574   1.998   1.825 -0.1437 -0.0188  0.6305
  902SOL    HW1 3606   2.545   1.917   1.860  1.4508 -0.6216 -1.5688
  902SOL    HW2 3607   2.645   2.041   1.877  1.5522 -0.9729 -0.5814
  902SOL     MW 3608   2.579   1.993   1.837  0.2904 -0.2242  0.1804
  903SOL     OW 3609   1.632   2.798   0.525 -0.4348  0.0077  0.6560
  903SOL    HW1 3610   1.687   2.721   0.554 -0.5372  0.4581 -0.8426
  903SOL    HW2 3611   1.607   2.821   0.620 -1.2411  0.5034  0.8160
  903SOL     MW 3612   1.636   2.790   0.541 -0.5547  0.1325  0.4794
  904SOL     OW 3613   2.504   2.564   1.679 -0.4577  0.8326  0.5784
  904SOL    HW1 3614   2.434   2.582   1.620  0.2515 -2.3858  1.3175
  904SOL    HW2 3615   2.559   2.501   1.626  1.2427  2.0632  1.5308
  904SOL     MW 3616   2.502   2.558   1.664 -0.1398  0.5703  0.8016
  905SOL     OW 3617   2.348   2.587   2.176 -0.2616 -0.3540  0.7475
  905SOL    HW1 3618   2.386   2.541   2.104 -0.6160  0.2143  2.0692
  905SOL    HW2 3619   2.297   2.513   2.222  1.2739 -1.8738 -0.9151
  905SOL     MW 3620   2.346   2.571   2.173 -0.1058 -0.4795  0.7025
  906SOL     OW 3621   2.511   2.464   0.808  0.0754 -0.1363 -0.6686
  906SOL    HW1 3622   2.609   2.444   0.826  0.4936 -0.6315  0.9260
  906SOL    HW2 3623   2.490   2.549   0.840 -1.6568  0.3145 -0.6181
  906SOL     MW 3624   2.521   2.473   0.815 -0.0979 -0.1422 -0.4515
  907SOL     OW 3625   2.615   2.885   1.256  0.4288  0.4417 -0.3236
  907SOL    HW1 3626   2.674   2.920   1.323 -0.2654  0.9108 -0.2329
  907SOL    HW2 3627   2.664   2.903   1.177  0.0785 -0.9163 -0.5059
  907SOL     MW 3628   2.629   2.892   1.254  0.2910  0.3244 -0.3357
  908SOL     OW 3629   2.712   2.398   0.026  0.1982  0.0746 -0.0558
  908SOL    HW1 3630   2.653   2.315   0.051 -3.4601 -1.9060 -2.7949
  908SOL    HW2 3631   2.669   2.473   0.064 -0.6834  3.2303 -3.6497
  908SOL     MW 3632   2.698   2.397   0.034 -0.4008  0.2297 -0.8914
  909SOL     OW 3633   1.615   0.221   1.021 -0.0582 -0.4202  0.4590
  909SOL    HW1 3634   1.655   0.297   0.976 -1.9704  1.2339  0.7662
  909SOL    HW2 3635   1.634   0.223   1.112 -0.9520 -3.9199 -1.3805
  909SOL     MW 3636   1.623   0.231   1.027 -0.4284 -0.6637  0.2569
  910SOL     OW 3637   2.291   1.762   0.406  0.1310  0.7893  0.3579
  910SOL    HW1 3638   2.232   1.691   0.430  0.8649 -3.1029 -2.1897
  910SOL    HW2 3639   2.248   1.799   0.328  0.3910 -1.1155  1.3236
  910SOL     MW 3640   2.278   1.758   0.399  0.2621  0.0244  0.1492
  911SOL     OW 3641   2.153   2.290   1.652  0.1407  0.4259  0.3450
  911SOL    HW1 3642   2.225   2.271   1.709 -0.4355  0.9232  2.6212
  911SOL    HW2 3643   2.188   2.298   1.559 -0.5046  3.7152 -1.8126
  911SOL     MW 3644   2.167   2.289   1.647 -0.0204  0.9255  0.3606
  912SOL     OW 3645   2.905   1.919   1.498  0.2658  0.3778  0.2186
  912SOL    HW1 3646   2.950   1.971   1.428  2.2574  1.9334  1.3111
  912SOL    HW2 3647   2.819   1.953   1.495 -1.3166  0.7227  0.3270
  912SOL     MW 3648   2.900   1.931   1.488  0.3198  0.6286  0.3771
  913SOL     OW 3649   2.537   2.951   0.406  0.1027 -0.1826  0.6280
  913SOL    HW1 3650   2.620   2.896   0.411  1.4756 -0.1843 -0.2827
  913SOL    HW2 3651   2.461   2.892   0.415 -0.1019 -1.9408 -1.0343
  913SOL     MW 3652   2.538   2.936   0.408  0.2568 -0.4148  0.2885
  914SOL     OW 3653   2.788   1.652   0.030 -0.2139 -0.0482 -0.5485
  914SOL    HW1 3654   2.789   1.712  -0.043  1.4387 -0.6861  1.6222
  914SOL    HW2 3655   2.713   1.598   0.035  1.5297  5.8264  1.4232
  914SOL     MW 3656   2.779   1.653   0.021  0.2342  0.6427 -0.0020
  915SOL     OW 3657   1.843   0.160   0.221 -0.0775  0.1184  0.2600
  915SOL    HW1 3658   1.895   0.100   0.275  3.3136 -0.4553 -2.3876
  915SOL    HW2 3659   1.751   0.142   0.229 -1.1382  3.5812  1.9418
  915SOL     MW 3660   1.838   0.150   0.229  0.2300  0.4996  0.1326
  916SOL     OW 3661   1.822   2.081   1.985 -0.0978 -0.1103  0.4628
  916SOL    HW1 3662   1.830   2.177   1.964 -1.4411 -1.5248 -0.7292
  916SOL    HW2 3663   1.808   2.040   1.898 -0.3776 -0.4389  1.7480
  916SOL     MW 3664   1.821   2.088   1.970 -0.3119 -0.3403  0.4751
  917SOL     OW 3665   2.303   2.342   2.690  0.2848  0.0503 -0.1180
  917SOL    HW1 3666   2.316   2.354   2.785  0.4338  3.2784 -1.7142
  917SOL    HW2 3667   2.271   2.422   2.651  1.9829 -0.5313 -1.9664
  917SOL     MW 3668   2.300   2.355   2.698  0.5285  0.3994 -0.5725
  918SOL     OW 3669   2.082   1.665   2.665  0.3529 -0.2015 -0.1542
  918SOL    HW1 3670   1.999   1.690   2.626 -0.1318  1.8651  2.5451
  918SOL    HW2 3671   2.142   1.736   2.642 -2.1089 -0.8052  0.2341
  918SOL     MW 3672   2.079   1.677   2.657 -0.0359 -0.0085  0.2532
  919SOL     OW 3673   3.078   2.390   2.278  0.3510 -0.3737  0.1369
  919SOL    HW1 3674   3.009   2.319   2.249  3.8050  1.8489 -0.6915
  919SOL    HW2 3675   3.154   2.374   2.219  1.7000 -0.3661 -3.1787
  919SOL     MW 3676   3.079   2.379   2.267  0.9847 -0.0795 -0.4098
  920SOL     OW 3677   2.779   2.844   0.012 -0.1638 -0.1550  0.0755
  920SOL    HW1 3678   2.706   2.904   0.030 -0.8369 -0.3844  1.1354
  920SOL    HW2 3679   2.752   2.781  -0.057  0.5683 -1.4789  0.8281
  920SOL     MW 3680   2.766   2.844   0.005 -0.1560 -0.3599  0.3146
  921SOL     OW 3681   2.511   2.614   2.676 -0.3801 -0.1182 -0.1603
  921SOL    HW1 3682   2.574   2.601   2.607  0.4359 -1.6533 -0.2834
  921SOL    HW2 3683   2.535   2.556   2.741 -1.4066  1.0870 -4.3834
  921SOL     MW 3684   2.522   2.605   2.676 -0.4078 -0.1617 -0.7337
  922SOL     OW 3685   2.038   2.807   0.252  0.1496 -0.0879 -0.1863
  922SOL    HW1 3686   1.997   2.846   0.172  3.1116  2.1807  2.5522
  922SOL    HW2 3687   1.998   2.713   0.263 -1.0522 -0.2856 -2.1148
  922SOL     MW 3688   2.028   2.800   0.243  0.3818  0.1853 -0.0794
  923SOL     OW 3689   2.209   2.826   1.647  0.1195  0.4397  0.1976
  923SOL    HW1 3690   2.236   2.768   1.573 -0.9053 -1.0091  1.3864
  923SOL    HW2 3691   2.219   2.915   1.618 -1.1293 -1.4547  0.7768
  923SOL     MW 3692   2.214   2.830   1.634 -0.1805 -0.0014  0.4309
  924SOL     OW 3693   1.169   2.774   2.490 -0.3324  0.2803  0.1995
  924SOL    HW1 3694   1.206   2.837   2.423  0.1308  0.4090  1.2451
  924SOL    HW2 3695   1.251   2.733   2.513  1.3307  0.1434  0.3598
  924SOL     MW 3696   1.185   2.777   2.484 -0.0518  0.2792  0.3586
  925SOL     OW 3697   2.957   0.206   2.673  0.1454  0.0013 -0.2685
  925SOL    HW1 3698   3.018   0.257   2.618 -2.7424 -2.4432 -0.0447
  925SOL    HW2 3699   2.887   0.269   2.694 -3.6081 -0.4479  1.7562
  925SOL     MW 3700   2.956   0.221   2.669 -0.7308 -0.3805  0.0281
  926SOL     OW 3701   2.659   2.397   2.095  0.2922  0.1543  0.0493
  926SOL    HW1 3702   2.702   2.462   2.149 -0.0599 -0.7829  1.1305
  926SOL    HW2 3703   2.709   2.374   2.015  0.4866  0.1207  0.8886
  926SOL     MW 3704   2.671   2.403   2.091  0.2714  0.0262  0.3027
  927SOL     OW 3705   2.359   0.154   0.311  0.0479 -0.2477  0.5965
  927SOL    HW1 3706   2.452   0.161   0.305 -2.1904 -0.7972 -0.6100
  927SOL    HW2 3707   2.341   0.123   0.224 -2.0855 -1.6682 -1.2703
  927SOL     MW 3708   2.369   0.151   0.299 -0.5289 -0.5076  0.1910
  928SOL     OW 3709   2.003   2.505   1.782 -0.1218 -0.0254 -0.2494
  928SOL    HW1 3710   2.068   2.450   1.731 -0.9240 -1.3291 -2.5693
  928SOL    HW2 3711   2.059   2.548   1.845  2.4910 -0.1497 -1.4721
  928SOL     MW 3712   2.019   2.504   1.784  0.1171 -0.2138 -0.7169
  929SOL     OW 3713   2.771   2.360   2.443 -0.0598  0.3574  0.4240
  929SOL    HW1 3714   2.703   2.310   2.395  2.2000 -3.2962  3.0517
  929SOL    HW2 3715   2.775   2.328   2.532 -1.6906  1.2459 -1.5118
  929SOL     MW 3716   2.763   2.349   2.449  0.0232 -0.0074  0.5153
  930SOL     OW 3717   2.023   2.903   2.661  0.3553  0.5157  0.3508
  930SOL    HW1 3718   2.033   2.852   2.738 -0.2412  0.3209 -0.8998
  930SOL    HW2 3719   2.111   2.932   2.629 -0.9405 -1.3512  0.5461
  930SOL     MW 3720   2.036   2.900   2.667  0.1056  0.2437  0.2115
  931SOL     OW 3721   2.931   2.836   2.222 -0.1586  0.0011  0.7575
  931SOL    HW1 3722   3.007   2.786   2.188  0.1628 -0.9137  0.8225
  931SOL    HW2 3723   2.865   2.840   2.157  2.4386 -0.7445  0.7150
  931SOL     MW 3724   2.932   2.830   2.209  0.2265 -0.2180  0.7605
  932SOL     OW 3725   2.830   1.924   2.574  0.2667  0.1548  0.0755
  932SOL    HW1 3726   2.926   1.933   2.586  1.1073 -0.1142  1.4496
  932SOL    HW2 3727   2.809   1.939   2.487 -0.5873  0.8088 -0.2501
  932SOL     MW 3728   2.840   1.927   2.564  0.2650  0.2056  0.2139
  933SOL     OW 3729   2.039   2.817   2.228 -0.5925  0.3467 -0.4166
  933SOL    HW1 3730   2.132   2.846   2.233 -0.3202 -4.6607 -1.0454
  933SOL    HW2 3731   1.984   2.895   2.232 -0.4015 -1.3974  0.7988
  933SOL     MW 3732   2.044   2.831   2.229 -0.5314 -0.5441 -0.3392
  934SOL     OW 3733   2.020   2.690   2.465  0.3357  0.2243  0.3024
  934SOL    HW1 3734   2.026   2.763   2.521  2.2511 -0.8349  0.3569
  934SOL    HW2 3735   2.026   2.736   2.375  0.6623  2.4821  1.1346
  934SOL     MW 3736   2.021   2.705   2.460  0.6315  0.3824  0.4194
  935SOL     OW 3737   2.602   1.594   1.794 -0.0748 -0.9503 -0.3101
  935SOL    HW1 3738   2.682   1.554   1.768 -1.8892  1.6660 -0.9137
  935SOL    HW2 3739   2.551   1.580   1.721  0.7632  1.4497  2.3917
  935SOL     MW 3740   2.606   1.587   1.781 -0.2036 -0.2884 -0.0333
  936SOL     OW 3741   2.952   2.245   3.037  0.0413  0.2527  0.3002
  936SOL    HW1 3742   3.024   2.279   3.082  0.2735  0.1584 -1.5700
  936SOL    HW2 3743   2.874   2.294   3.069 -0.4810 -1.5406 -1.0906
  936SOL     MW 3744   2.951   2.256   3.047  0.0030  0.0036 -0.1300
  937SOL     OW 3745   1.978   2.188   2.637 -0.2588  0.3088 -0.4392
  937SOL    HW1 3746   2.061   2.176   2.688 -1.2176 -0.6016  1.2876
  937SOL    HW2 3747   1.995   2.177   2.540 -0.2700  0.4055 -0.5438
  937SOL     MW 3748   1.991   2.185   2.631 -0.3867  0.2014 -0.2251
  938SOL     OW 3749   2.276   1.846   1.913  0.6496 -0.1847 -0.2513
  938SOL    HW1 3750   2.242   1.892   1.836 -2.0011  0.3528  0.9920
  938SOL    HW2 3751   2.278   1.906   1.987 -1.1207 -3.6859 -2.8879
  938SOL     MW 3752   2.272   1.860   1.913  0.0663 -0.5757 -0.4351
  939SOL     OW 3753   2.804   1.942   2.274  0.2045 -0.4802  0.3386
  939SOL    HW1 3754   2.817   1.891   2.197  0.6381 -0.4059 -0.2205
  939SOL    HW2 3755   2.709   1.967   2.282 -2.3087 -1.3300  1.2769
  939SOL     MW 3756   2.793   1.939   2.265 -0.0699 -0.5825  0.3886
  940SOL     OW 3757   2.268   0.147   2.691  0.3869 -0.2912  0.2579
  940SOL    HW1 3758   2.280   0.057   2.665  1.8968  1.7763  2.2109
  940SOL    HW2 3759   2.320   0.152   2.773 -0.8349 -0.7992 -0.4318
  940SOL     MW 3760   2.276   0.135   2.699  0.4249 -0.0855  0.4246
  941SOL     OW 3761   0.168   2.358   2.071 -0.1938 -0.7620 -0.1350
  941SOL    HW1 3762   0.236   2.295   2.079 -2.8736  1.9443 -2.0900
  941SOL    HW2 3763   0.113   2.318   2.000  0.3046  0.1089 -0.1877
  941SOL     MW 3764   0.170   2.344   2.063 -0.4816 -0.2900 -0.3999
  942SOL     OW 3765   2.888   2.227   2.166 -0.1582 -0.1713 -0.0656
  942SOL    HW1 3766   2.811   2.288   2.157 -1.8167  0.6378  1.4780
  942SOL    HW2 3767   2.860   2.142   2.212  0.2100  1.3318 -0.2032
  942SOL     MW 3768   2.874   2.224   2.171 -0.3284  0.1338  0.1199
  943SOL     OW 3769   0.269   2.011   2.323  0.7014  0.3512  0.1941
  943SOL    HW1 3770   0.209   2.072   2.377 -1.9470 -0.3021  2.8238
  943SOL    HW2 3771   0.350   2.014   2.374  2.3129 -0.5934  0.5283
  943SOL     MW 3772   0.271   2.020   2.337  0.5646  0.1404  0.5852
  944SOL     OW 3773   2.111   2.658   2.000 -0.1194 -0.2517 -0.3518
  944SOL    HW1 3774   2.174   2.622   2.064 -1.0345  0.5061  1.1413
  944SOL    HW2 3775   2.061   2.713   2.059  0.9258 -3.9032  0.3196
  944SOL     MW 3776   2.113   2.661   2.016 -0.1022 -0.6335 -0.0662
  945SOL     OW 3777   2.761   2.685   2.890 -0.0951  0.0590 -0.3691
  945SOL    HW1 3778   2.739   2.591   2.875  0.0850  1.3098  1.3029
  945SOL    HW2 3779   2.805   2.702   2.806 -1.0850 -1.2586 -0.1680
  945SOL     MW 3780   2.764   2.675   2.877 -0.2019  0.0502 -0.1220
  946SOL     OW 3781   2.525   2.752   2.293 -0.3425  0.4159  0.3801
  946SOL    HW1 3782   2.561   2.771   2.204 -1.1154  2.1980  0.6612
  946SOL    HW2 3783   2.465   2.681   2.263 -4.4719  0.5681 -3.2012
  946SOL     MW 3784   2.522   2.745   2.277 -0.9893  0.6711 -0.0553
  947SOL     OW 3785   2.048   0.025   0.341 -0.5151 -0.4163 -0.7883
  947SOL    HW1 3786   2.052  -0.066   0.309  0.4722 -4.7620  0.8797
  947SOL    HW2 3787   2.125   0.034   0.401  3.6952  1.7759  1.7549
  947SOL     MW 3788   2.058   0.014   0.345  0.1707 -0.7004 -0.2327
  948SOL     OW 3789   1.826   3.091   2.603 -0.5311 -0.3791 -0.1693
  948SOL    HW1 3790   1.885   3.015   2.608  1.2337  1.0637 -0.8002
  948SOL    HW2 3791   1.838   3.132   2.517  3.4513  0.1820  2.2981
  948SOL     MW 3792   1.835   3.087   2.592  0.2272 -0.1147  0.0730
  949SOL     OW 3793   2.534   2.006   2.313 -0.0278  0.2690 -0.4181
  949SOL    HW1 3794   2.533   1.913   2.355 -0.6289 -0.2834 -0.7483
  949SOL    HW2 3795   2.511   2.074   2.378 -0.5681  2.0231 -0.5084
  949SOL     MW 3796   2.531   2.002   2.327 -0.1784  0.4275 -0.4736
  950SOL     OW 3797   2.183   2.627   3.040 -0.3924 -0.2857 -0.0309
  950SOL    HW1 3798   2.239   2.570   2.989 -0.0296  0.9813 -2.8413
  950SOL    HW2 3799   2.122   2.661   2.973  1.8069  0.7450  0.8145
  950SOL     MW 3800   2.182   2.624   3.024 -0.0544  0.0174 -0.2902
  951SOL     OW 3801   2.910   2.062   2.841  0.7157  0.3218 -0.9302
  951SOL    HW1 3802   2.915   2.135   2.900  1.7992 -1.4749 -1.2884
  951SOL    HW2 3803   2.993   2.050   2.790 -1.6522  1.5446  0.2228
  951SOL     MW 3804   2.922   2.070   2.842  0.5462  0.2461 -0.8254
  952SOL     OW 3805   3.081   1.635   2.080 -0.6040  0.1428 -0.4985
  952SOL    HW1 3806   3.020   1.697   2.043 -0.2580  1.9521 -0.4127
  952SOL    HW2 3807   3.144   1.698   2.123 -2.2049 -1.0440  0.4106
  952SOL     MW 3808   3.081   1.652   2.080 -0.7696  0.2249 -0.3673
  953SOL     OW 3809   1.959   1.829   2.860 -0.3641  0.1359  0.3043
  953SOL    HW1 3810   1.874   1.794   2.891 -0.3580 -1.6537  0.0259
  953SOL    HW2 3811   2.013   1.775   2.801 -2.1079 -0.5824  1.3815
  953SOL     MW 3812   1.955   1.818   2.857 -0.5934 -0.1950  0.4097
  954SOL     OW 3813   2.432   2.089   2.927  0.6344  0.3766 -0.0595
  954SOL    HW1 3814   2.351   2.065   2.876 -2.4366 -0.2972 -0.3813
  954SOL    HW2 3815   2.504   2.069   2.861  0.2714  1.9939  2.3492
  954SOL     MW 3816   2.431   2.083   2.911  0.1814  0.5011  0.2158
  955SOL     OW 3817   1.577   1.640   2.605  0.1264 -0.2981 -0.1539
  955SOL    HW1 3818   1.541   1.641   2.520  1.1171 -0.9958 -1.6067
  955SOL    HW2 3819   1.668   1.681   2.590  2.8788  0.9089  0.1192
  955SOL     MW 3820   1.585   1.646   2.591  0.6202 -0.2309 -0.3095
  956SOL     OW 3821   2.615   2.417   2.874 -0.2000  0.4722  0.5367
  956SOL    HW1 3822   2.653   2.415   2.970  0.8757  1.3511 -1.0379
  956SOL    HW2 3823   2.670   2.355   2.817 -0.8604 -1.6243 -0.4116
  956SOL     MW 3824   2.627   2.408   2.879 -0.1452  0.3116  0.2038
  957SOL     OW 3825   2.303   2.801   0.410 -0.0563 -0.1760  0.0675
  957SOL    HW1 3826   2.215   2.782   0.363 -1.5982 -1.9100 -0.7525
  957SOL    HW2 3827   2.294   2.765   0.503  1.6190  2.1908 -1.4097
  957SOL     MW 3828   2.290   2.793   0.416 -0.0387 -0.0925 -0.2356
  958SOL     OW 3829   2.000   2.683   2.848 -0.3743 -0.2928 -0.1108
  958SOL    HW1 3830   1.989   2.597   2.801 -0.1384 -0.0798 -1.7239
  958SOL    HW2 3831   1.918   2.704   2.879  2.2801 -0.6083 -1.3839
  958SOL     MW 3832   1.988   2.674   2.846  0.0071 -0.3063 -0.4916
  959SOL     OW 3833   2.438   2.559   0.336  0.3292 -0.2627  0.1027
  959SOL    HW1 3834   2.502   2.588   0.268  0.6056 -0.7230  1.0829
  959SOL    HW2 3835   2.409   2.643   0.374 -0.2149  2.9690 -3.2179
  959SOL     MW 3836   2.443   2.574   0.332  0.2939  0.1029 -0.2061
  960SOL     OW 3837   1.943   2.412   2.305 -0.2615 -0.6380 -0.1903
  960SOL    HW1 3838   1.950   2.323   2.275  0.5431  1.7068  0.9671
  960SOL    HW2 3839   1.868   2.423   2.361 -1.7877  1.6092 -1.0478
  960SOL     MW 3840   1.934   2.402   2.308 -0.3567 -0.0322 -0.1508
  961SOL     OW 3841   2.236   2.402   2.337 -0.4284  0.3248  0.5836
  961SOL    HW1 3842   2.142   2.418   2.338  2.1732 -2.6358  3.1815
  961SOL    HW2 3843   2.258   2.422   2.425  0.2705  1.0170 -2.8037
  961SOL     MW 3844   2.226   2.407   2.348  0.0071  0.0255  0.4794
  962SOL     OW 3845   2.169   2.063   2.799  0.4380 -0.0910  0.3003
  962SOL    HW1 3846   2.149   2.007   2.877  1.2942  2.0136  2.7157
  962SOL    HW2 3847   2.199   1.993   2.737  0.8256 -3.4709 -0.7823
  962SOL     MW 3848   2.171   2.046   2.801  0.6021 -0.2593  0.4762
  963SOL     OW 3849   1.760   2.565   2.132  0.3052  0.3875 -0.5259
  963SOL    HW1 3850   1.831   2.523   2.174 -2.4865  3.3484 -1.9585
  963SOL    HW2 3851   1.758   2.513   2.053  2.1819  2.1301  1.8679
  963SOL     MW 3852   1.769   2.553   2.127  0.1845  1.0081 -0.3991
  964SOL     OW 3853   1.808   1.972   2.668  0.0496 -0.3647  0.6541
  964SOL    HW1 3854   1.880   2.045   2.655  1.9363  1.9529  3.1882
  964SOL    HW2 3855   1.845   1.931   2.750  0.8171  1.1518  0.7712
  964SOL     MW 3856   1.822   1.976   2.677  0.3998  0.1412  1.0039
  965SOL     OW 3857   2.198   2.702   0.643  0.1318 -0.4111  0.0254
  965SOL    HW1 3858   2.193   2.606   0.632 -2.3557  0.4497 -0.6122
  965SOL    HW2 3859   2.267   2.718   0.714  0.5762  0.2677  2.2911
  965SOL     MW 3860   2.207   2.691   0.651 -0.1378 -0.2080  0.2402
  966SOL     OW 3861   2.704   2.637   2.477 -0.1428  0.2650 -0.4369
  966SOL    HW1 3862   2.643   2.690   2.423 -0.6114  1.7242  0.3999
  966SOL    HW2 3863   2.719   2.549   2.437  0.0543  1.0178 -0.4952
  966SOL     MW 3864   2.698   2.632   2.465 -0.1786  0.5568 -0.3342
  967SOL     OW 3865   2.889   3.000   2.929 -0.5807 -0.3901  0.7372
  967SOL    HW1 3866   2.863   2.920   2.969 -0.4348  0.8071 -0.2852
  967SOL    HW2 3867   2.816   3.047   2.877  1.5748 -1.0386 -1.9665
  967SOL     MW 3868   2.876   2.996   2.928 -0.2770 -0.3177  0.2456
  968SOL     OW 3869   3.018   2.543   3.014 -0.0133  0.5164 -0.9220
  968SOL    HW1 3870   2.962   2.598   2.974 -0.4843 -2.9458  1.2045
  968SOL    HW2 3871   3.051   2.487   2.945 -3.3068 -2.8536 -0.9248
  968SOL     MW 3872   3.015   2.543   3.000 -0.5100 -0.3850 -0.6418
  969SOL     OW 3873   1.550   2.099   1.730  0.3273  0.2608  0.0069
  969SOL    HW1 3874   1.626   2.036   1.708 -1.2806  3.2747 -2.2917
  969SOL    HW2 3875   1.545   2.115   1.828 -0.9973  1.0430  2.1598
  969SOL     MW 3876   1.560   2.093   1.740 -0.0596  0.7616 -0.0123
  970SOL     OW 3877   1.667   1.701   1.860 -0.2621 -0.4507  0.3081
  970SOL    HW1 3878   1.699   1.677   1.948 -2.1322 -0.3952  0.9870
  970SOL    HW2 3879   1.572   1.694   1.856 -1.8539  1.1130 -0.2542
  970SOL     MW 3880   1.659   1.697   1.871 -0.7189 -0.2371  0.3235
  971SOL     OW 3881   1.851   0.098   2.374 -0.5750  0.0656  0.0086
  971SOL    HW1 3882   1.889   0.059   2.297 -1.4047  2.2094  2.4100
  971SOL    HW2 3883   1.904   0.181   2.399  2.4296  2.5833 -2.7828
  971SOL     MW 3884   1.863   0.104   2.367 -0.2881  0.6806 -0.0429
  972SOL     OW 3885   0.285   2.800   2.539  0.0901 -0.2124 -0.2412
  972SOL    HW1 3886   0.296   2.703   2.522 -1.0232 -1.5889 -2.9156
  972SOL    HW2 3887   0.368   2.823   2.577  2.0316 -2.8712  0.5532
  972SOL     MW 3888   0.297   2.790   2.541  0.1994 -0.7448 -0.4892
  973SOL     OW 3889   2.601   0.006   2.048 -0.3431  0.0130 -0.0789
  973SOL    HW1 3890   2.608  -0.088   2.029  2.4880  3.1600 -0.5695
  973SOL    HW2 3891   2.608   0.045   1.961 -0.4956  2.1279  0.5700
  973SOL     MW 3892   2.603  -0.002   2.034  0.0103  0.7073 -0.0580
  974SOL     OW 3893   2.101   0.351   2.738  0.7058  0.4601 -0.1655
  974SOL    HW1 3894   2.163   0.288   2.699  1.9054  0.3079  0.4857
  974SOL    HW2 3895   2.040   0.281   2.773  1.9553  1.9942 -0.3526
  974SOL     MW 3896   2.101   0.333   2.737  1.0289  0.6424 -0.1043
  975SOL     OW 3897   2.266   2.581   2.549 -0.0693 -0.5211  0.0231
  975SOL    HW1 3898   2.333   2.633   2.585 -2.0870 -0.4561  0.3092
  975SOL    HW2 3899   2.201   2.639   2.509 -1.9923 -2.8324 -1.2119
  975SOL     MW 3900   2.267   2.596   2.548 -0.5892 -0.8174 -0.1021
  976SOL     OW 3901   0.219   0.267   1.712 -0.3093  0.0480 -0.5739
  976SOL    HW1 3902   0.264   0.206   1.765 -0.4297  0.7455 -0.0336
  976SOL    HW2 3903   0.140   0.215   1.672  0.0869  0.8105 -2.4981
  976SOL     MW 3904   0.214   0.252   1.714 -0.2729  0.2406 -0.7565
  977SOL     OW 3905   1.677   2.762   2.462  0.6920 -0.3968  0.6479
  977SOL    HW1 3906   1.687   2.663   2.465  1.2552 -0.3165 -1.0887
  977SOL    HW2 3907   1.763   2.801   2.447  0.2572  0.2053 -2.9943
  977SOL     MW 3908   1.690   2.754   2.461  0.7090 -0.3067 -0.0618
   3.10000   3.10000   3.10000
