977 TIP4P/2005f water molecules t=   1.93000 step= 1930
 3908
    1SOL     OW    1   0.448   0.746   0.166 -0.1094 -0.8694  0.3544
    1SOL    HW1    2   0.413   0.687   0.105 -1.0618  0.3023  0.7241
    1SOL    HW2    3   0.465   0.682   0.234  1.3911 -2.8615 -0.3653
    1SOL     MW    4   0.446   0.730   0.167 -0.0371 -0.9777  0.3082
    2SOL     OW    5   0.274   2.988   1.142  0.0364 -0.5859  0.6302
    2SOL    HW1    6   0.308   3.072   1.105 -0.1654 -0.4044  0.0071
    2SOL    HW2    7   0.181   3.006   1.130  1.0926 -0.2455  2.9467
    2SOL     MW    8   0.266   3.001   1.136  0.1491 -0.5171  0.8536
    3SOL     OW    9   2.692   0.353   0.887 -0.3265  0.3980 -0.6546
    3SOL    HW1   10   2.726   0.432   0.848  2.5832  1.7090 -1.0978
    3SOL    HW2   11   2.688   0.374   0.977  1.0713 -0.8905 -5.2686
    3SOL     MW   12   2.696   0.366   0.894  0.2418  0.4009 -1.3218
    4SOL     OW   13   2.928   1.745   0.541 -0.3812 -0.0844  0.2482
    4SOL    HW1   14   2.876   1.828   0.534  2.6835  0.3237  2.2317
    4SOL    HW2   15   2.981   1.728   0.456  0.7115 -1.7667  0.9206
    4SOL     MW   16   2.928   1.754   0.529  0.1673 -0.2525  0.5986
    5SOL     OW   17   1.615   1.464   0.626 -0.1491  0.0534 -0.1054
    5SOL    HW1   18   1.637   1.436   0.714  0.6824 -0.6839 -0.0461
    5SOL    HW2   19   1.524   1.504   0.612  0.6340  0.3260 -0.2395
    5SOL     MW   20   1.606   1.465   0.636  0.0639 -0.0079 -0.1152
    6SOL     OW   21   0.762   1.432   0.616 -0.2859  0.0564  0.4359
    6SOL    HW1   22   0.681   1.409   0.579  1.7709  2.6121 -2.4435
    6SOL    HW2   23   0.779   1.352   0.664 -0.2716 -1.2816 -0.1974
    6SOL     MW   24   0.754   1.419   0.617 -0.0127  0.2170 -0.0276
    7SOL     OW   25   2.005   1.015   0.031 -0.5055  0.2791  0.6104
    7SOL    HW1   26   2.068   1.081   0.076  0.5952  3.3364  1.9831
    7SOL    HW2   27   1.944   0.991   0.094  0.8296  2.0640  0.4738
    7SOL     MW   28   2.005   1.021   0.045 -0.1841  0.9179  0.7735
    8SOL     OW   29   0.858   1.391   0.987  0.4819  0.2054 -0.1372
    8SOL    HW1   30   0.888   1.481   1.015  0.7632  0.9973  2.0667
    8SOL    HW2   31   0.895   1.343   1.057  1.3906  5.3009  1.2785
    8SOL     MW   32   0.867   1.397   1.000  0.6389  0.9822  0.3404
    9SOL     OW   33   0.870   0.540   1.294  0.1724 -0.1470  0.5245
    9SOL    HW1   34   0.856   0.447   1.294 -2.0557  1.1425 -0.9543
    9SOL    HW2   35   0.961   0.546   1.321  0.0785 -0.9190 -2.0393
    9SOL     MW   36   0.880   0.529   1.297 -0.1340 -0.0787 -0.0089
   10SOL     OW   37   0.321   0.848   0.505 -0.3243  0.0978 -0.1024
   10SOL    HW1   38   0.417   0.869   0.505  1.5806 -0.3753 -1.2651
   10SOL    HW2   39   0.287   0.899   0.577  1.4373  0.5237 -1.5892
   10SOL     MW   40   0.329   0.857   0.515  0.1595  0.0916 -0.4520
   11SOL     OW   41   0.737   1.096   1.462 -0.1443  0.0215 -0.6772
   11SOL    HW1   42   0.778   1.095   1.551 -3.2142 -0.3747  0.8280
   11SOL    HW2   43   0.771   1.015   1.427 -0.7909  0.5732  1.1960
   11SOL     MW   44   0.747   1.085   1.469 -0.6346  0.0420 -0.2315
   12SOL     OW   45   3.087   1.064   0.909  0.1362  0.1312 -0.2951
   12SOL    HW1   46   3.151   1.126   0.945 -0.8535 -1.4829  0.4381
   12SOL    HW2   47   3.050   1.115   0.835 -0.1408 -0.8334 -0.2859
   12SOL     MW   48   3.091   1.079   0.904 -0.0309 -0.2090 -0.1972
   13SOL     OW   49   1.856   1.423   1.287  0.5474 -0.4550 -0.1227
   13SOL    HW1   50   1.901   1.343   1.255  1.9193  1.2528 -1.3107
   13SOL    HW2   51   1.925   1.488   1.290 -1.8046  2.0583  1.9071
   13SOL     MW   52   1.871   1.421   1.283  0.4181  0.1019 -0.0117
   14SOL     OW   53   0.584   0.251   1.868 -0.3475 -0.2412  0.3992
   14SOL    HW1   54   0.624   0.238   1.780  0.9377 -0.0839 -0.8418
   14SOL    HW2   55   0.492   0.282   1.851  0.5588  0.8667 -0.7226
   14SOL     MW   56   0.577   0.253   1.854 -0.0583 -0.0743  0.0874
   15SOL     OW   57   2.006   0.407   0.965 -0.7085 -0.0184  0.3770
   15SOL    HW1   58   2.002   0.477   1.028 -2.2324  2.1335 -0.3904
   15SOL    HW2   59   2.035   0.447   0.875  0.3630  2.9610 -0.0181
   15SOL     MW   60   2.009   0.421   0.961 -0.7682  0.6586  0.2236
   16SOL     OW   61   0.222   1.831   0.258  0.0375 -0.2712 -0.1004
   16SOL    HW1   62   0.315   1.798   0.231 -1.5813 -1.0516 -1.6308
   16SOL    HW2   63   0.240   1.916   0.296  1.2298  1.0149 -0.6439
   16SOL     MW   64   0.237   1.838   0.259 -0.0188 -0.2045 -0.3740
   17SOL     OW   65   1.131   0.853   1.388  0.0351 -0.5466 -0.1184
   17SOL    HW1   66   1.152   0.823   1.474 -2.1875 -1.6388  0.3914
   17SOL    HW2   67   1.034   0.857   1.375 -2.2189 -0.6311  1.5674
   17SOL     MW   68   1.121   0.850   1.398 -0.5556 -0.7019  0.1713
   18SOL     OW   69   0.001   1.638   0.352 -0.1010  0.7193  0.1041
   18SOL    HW1   70   0.061   1.709   0.338  1.4330 -2.3912 -1.2323
   18SOL    HW2   71  -0.009   1.597   0.265  1.3031 -0.0220  1.6776
   18SOL     MW   72   0.007   1.642   0.339  0.2866  0.2111  0.1354
   19SOL     OW   73   0.084   1.390   0.945  0.0672  0.0562 -0.3010
   19SOL    HW1   74   0.113   1.407   0.854 -0.0220 -1.1839  1.1546
   19SOL    HW2   75  -0.009   1.383   0.940 -1.7458 -0.7966 -1.8198
   19SOL     MW   76   0.076   1.391   0.932 -0.1838 -0.2199 -0.3093
   20SOL     OW   77   0.450   2.120   1.264  0.5584  0.4212  0.0148
   20SOL    HW1   78   0.447   2.030   1.221 -1.5446 -2.9060  0.2451
   20SOL    HW2   79   0.391   2.113   1.336 -1.8960 -1.6920 -0.3026
   20SOL     MW   80   0.442   2.107   1.267 -0.0429 -0.2966  0.0033
   21SOL     OW   81   0.568   0.932   0.461  0.5742  0.2571  0.1084
   21SOL    HW1   82   0.648   0.914   0.504 -0.2942  1.6894 -1.7102
   21SOL    HW2   83   0.596   0.946   0.368  0.7335  0.9957  2.9801
   21SOL     MW   84   0.582   0.931   0.454  0.4807  0.5435  0.2473
   22SOL     OW   85   1.541   0.769   0.950 -0.0778 -0.0202 -0.2524
   22SOL    HW1   86   1.558   0.736   0.861  1.3176  2.8222 -0.2012
   22SOL    HW2   87   1.459   0.819   0.938 -1.6322  0.6135  0.7403
   22SOL     MW   88   1.532   0.771   0.936 -0.0987  0.4384 -0.1147
   23SOL     OW   89  -0.003   0.815   0.673 -0.1681  0.5312  0.5574
   23SOL    HW1   90   0.039   0.742   0.726 -0.2662 -2.0708 -0.5610
   23SOL    HW2   91   0.072   0.882   0.673  2.0604  3.5793  0.6766
   23SOL     MW   92   0.013   0.815   0.680  0.1130  0.5901  0.4255
   24SOL     OW   93   2.008   2.181   0.049 -0.2952  0.0981 -0.5860
   24SOL    HW1   94   1.989   2.143   0.139 -0.0231  2.6952 -2.7814
   24SOL    HW2   95   2.033   2.097   0.004  2.1704 -1.3113  0.0258
   24SOL     MW   96   2.009   2.165   0.055  0.0660  0.2548 -0.7949
   25SOL     OW   97   0.216   1.458   0.400 -0.0580  0.5498  0.0259
   25SOL    HW1   98   0.160   1.529   0.404 -0.4711  0.2734  2.7998
   25SOL    HW2   99   0.251   1.482   0.323 -3.9774  2.6135  1.2648
   25SOL     MW  100   0.213   1.470   0.390 -0.6296  0.7856  0.5553
   26SOL     OW  101   1.943   1.013   0.334  0.2621 -0.1333  0.1841
   26SOL    HW1  102   1.905   1.073   0.401 -1.0462 -0.4337 -1.4745
   26SOL    HW2  103   2.025   1.056   0.294  1.4343  0.3494  0.4706
   26SOL     MW  104   1.949   1.027   0.337  0.2441 -0.1092  0.0030
   27SOL     OW  105   1.841   1.348   0.148  0.4946 -0.7838 -0.0726
   27SOL    HW1  106   1.805   1.438   0.159  0.6826  0.3186  0.3161
   27SOL    HW2  107   1.911   1.343   0.214 -1.6409 -1.1438  2.5521
   27SOL     MW  108   1.846   1.359   0.158  0.2377 -0.6858  0.3250
   28SOL     OW  109   0.439   0.913   2.075 -0.1809 -0.2072 -0.5019
   28SOL    HW1  110   0.466   0.925   2.164  1.0837  0.6897 -3.3148
   28SOL    HW2  111   0.347   0.920   2.076 -2.3757  1.0492 -0.9147
   28SOL     MW  112   0.431   0.915   2.087 -0.3036  0.0769 -0.9275
   29SOL     OW  113   0.175   1.438   0.687  0.3127  0.2957  0.0140
   29SOL    HW1  114   0.182   1.532   0.701  1.6800 -0.9927  0.6018
   29SOL    HW2  115   0.164   1.432   0.594 -0.8790  2.7822  0.9992
   29SOL     MW  116   0.175   1.450   0.676  0.3359  0.4538  0.2215
   30SOL     OW  117   0.725   1.272   1.234  0.3667 -0.3349  0.2949
   30SOL    HW1  118   0.635   1.302   1.256  1.1811 -1.0016  1.3535
   30SOL    HW2  119   0.748   1.213   1.312  1.3026 -3.8396 -0.4313
   30SOL     MW  120   0.716   1.268   1.247  0.5977 -0.8852  0.3387
   31SOL     OW  121   0.459   0.250   0.178 -0.4972 -0.0299  0.3041
   31SOL    HW1  122   0.514   0.189   0.233 -0.5990  0.2570 -0.2998
   31SOL    HW2  123   0.463   0.210   0.088 -1.7824  1.0591  1.7640
   31SOL     MW  124   0.467   0.236   0.173 -0.6802  0.1516  0.4171
   32SOL     OW  125   2.727   0.989   1.066 -0.5300 -0.4812 -0.3238
   32SOL    HW1  126   2.666   0.935   1.111  2.0341 -0.2657 -2.2758
   32SOL    HW2  127   2.821   0.985   1.107 -0.1062  2.0029  0.2139
   32SOL     MW  128   2.732   0.981   1.077 -0.1357 -0.1250 -0.5104
   33SOL     OW  129   1.627   1.303   0.394  0.0630  1.2230  0.0227
   33SOL    HW1  130   1.693   1.236   0.415 -0.5761  1.9070 -1.5572
   33SOL    HW2  131   1.644   1.370   0.461 -0.2349 -0.8038  1.9598
   33SOL     MW  132   1.638   1.303   0.405 -0.0606  1.0458  0.0698
   34SOL     OW  133   1.147   2.000   1.177 -0.3247 -0.2416 -0.0725
   34SOL    HW1  134   1.060   2.025   1.202  1.3570  1.5292  1.1364
   34SOL    HW2  135   1.216   2.015   1.246  5.0191 -0.4331  0.1524
   34SOL     MW  136   1.144   2.005   1.189  0.6023 -0.0332  0.1167
   35SOL     OW  137   0.356   0.129   1.666  0.2932 -0.4947  0.2701
   35SOL    HW1  138   0.371   0.091   1.752  2.7751 -0.9419 -0.0230
   35SOL    HW2  139   0.308   0.065   1.611 -2.5690 -0.1964  0.1042
   35SOL     MW  140   0.351   0.115   1.670  0.2430 -0.5143  0.2095
   36SOL     OW  141   1.944   2.014   0.598 -0.3356 -0.3091  0.6193
   36SOL    HW1  142   1.942   2.028   0.504 -1.3949  0.0463 -0.4938
   36SOL    HW2  143   1.962   1.927   0.625 -0.9019  2.3540  1.1933
   36SOL     MW  144   1.946   2.005   0.589 -0.5501  0.0892  0.5482
   37SOL     OW  145   1.715   2.053   0.948 -0.5076 -0.3717 -0.3383
   37SOL    HW1  146   1.672   1.990   0.891  0.7028  0.8535  0.4707
   37SOL    HW2  147   1.648   2.074   1.017  1.7882 -2.3575  0.4497
   37SOL     MW  148   1.701   2.047   0.950 -0.0450 -0.4720 -0.1276
   38SOL     OW  149   2.854   0.975   0.058 -0.0680  0.2010  0.2381
   38SOL    HW1  150   2.905   0.950   0.135 -1.9457  1.0010 -0.7802
   38SOL    HW2  151   2.930   0.984  -0.006 -1.2774 -0.4657  0.4032
   38SOL     MW  152   2.871   0.973   0.059 -0.4753  0.2186  0.1255
   39SOL     OW  153   1.515   0.589   0.686 -0.2747 -0.6473 -0.6626
   39SOL    HW1  154   1.498   0.509   0.733  1.3486  0.4235  0.0461
   39SOL    HW2  155   1.433   0.639   0.701  0.8920 -4.7138 -0.8639
   39SOL     MW  156   1.502   0.585   0.694  0.0934 -1.0425 -0.5957
   40SOL     OW  157   1.275   1.877   0.222 -0.1633 -0.3884 -0.1339
   40SOL    HW1  158   1.343   1.821   0.262 -0.6574  0.2805  0.7275
   40SOL    HW2  159   1.238   1.925   0.297 -1.3830  0.9774  0.5853
   40SOL     MW  160   1.279   1.876   0.238 -0.3895 -0.1200  0.0747
   41SOL     OW  161   0.459   0.499   1.561  0.1250 -0.1153 -0.7140
   41SOL    HW1  162   0.520   0.576   1.551 -0.0894  0.5649  1.3300
   41SOL    HW2  163   0.374   0.535   1.524  1.3893  2.4005 -2.0132
   41SOL     MW  164   0.456   0.514   1.555  0.2635  0.3064 -0.6157
   42SOL     OW  165   1.271   2.893   1.988  0.3823  0.2473  0.0100
   42SOL    HW1  166   1.195   2.891   2.044  1.1595 -0.4499 -2.8949
   42SOL    HW2  167   1.342   2.843   2.040  2.5476 -2.0723  2.5816
   42SOL     MW  168   1.270   2.886   2.002  0.7705 -0.1507 -0.0340
   43SOL     OW  169   1.397   0.139   1.688  0.1671  0.6248  0.1380
   43SOL    HW1  170   1.474   0.116   1.640  1.2204 -1.4620  2.4641
   43SOL    HW2  171   1.326   0.079   1.669  2.5984 -0.8126 -1.6087
   43SOL     MW  172   1.398   0.128   1.679  0.6268  0.1598  0.2144
   44SOL     OW  173   1.190   0.855   0.940 -0.2465  0.5169  0.1632
   44SOL    HW1  174   1.161   0.941   0.974 -0.6611 -0.5769  1.9439
   44SOL    HW2  175   1.156   0.791   1.003 -0.0939 -0.0119  1.2812
   44SOL     MW  176   1.182   0.858   0.953 -0.2811  0.3028  0.5456
   45SOL     OW  177   1.314   0.777   0.709 -0.1114  0.5369 -0.1370
   45SOL    HW1  178   1.273   0.798   0.793 -0.7312 -2.4835  1.1677
   45SOL    HW2  179   1.238   0.735   0.659 -2.6192 -2.0904  0.0557
   45SOL     MW  180   1.299   0.774   0.714 -0.5241 -0.2083  0.0606
   46SOL     OW  181   0.446   1.122   0.693  0.1823  0.1097  0.6643
   46SOL    HW1  182   0.491   1.164   0.620 -0.9745  2.1872 -2.4909
   46SOL    HW2  183   0.420   1.200   0.753 -0.4678 -0.0900 -0.3783
   46SOL     MW  184   0.448   1.138   0.691 -0.0561  0.3575  0.1104
   47SOL     OW  185   0.146   2.020   1.929 -0.4716  0.2864  0.4638
   47SOL    HW1  186   0.122   1.932   1.891  0.2383 -3.7098  0.1437
   47SOL    HW2  187   0.139   2.008   2.021 -0.0742 -0.2854 -2.1090
   47SOL     MW  188   0.142   2.007   1.936 -0.3255 -0.3163  0.0821
   48SOL     OW  189   1.284   0.507   1.039  0.0396  0.1933 -0.5463
   48SOL    HW1  190   1.255   0.455   0.962  0.2479  1.0415  0.4940
   48SOL    HW2  191   1.207   0.549   1.073  1.1213 -0.1912 -0.1636
   48SOL     MW  192   1.270   0.506   1.033  0.2098  0.2545 -0.3585
   49SOL     OW  193   1.747   0.700   1.529  0.5741 -0.0146  0.2199
   49SOL    HW1  194   1.810   0.662   1.592  1.6311 -1.3715 -0.4459
   49SOL    HW2  195   1.775   0.673   1.441  2.6354 -0.0518 -0.7012
   49SOL     MW  196   1.759   0.692   1.526  0.9855 -0.1985  0.0106
   50SOL     OW  197   1.285   1.239   0.601 -0.5957  0.0870  0.5963
   50SOL    HW1  198   1.216   1.219   0.672  3.0937 -2.4398 -1.2039
   50SOL    HW2  199   1.358   1.175   0.614 -0.1061 -1.5991  0.0684
   50SOL     MW  200   1.286   1.228   0.612 -0.0443 -0.4688  0.2892
   51SOL     OW  201   0.329   2.911   0.860 -0.2625 -0.2853  0.2659
   51SOL    HW1  202   0.408   2.856   0.869 -0.3498 -1.3388 -1.6355
   51SOL    HW2  203   0.286   2.912   0.945 -1.3919 -1.3041 -0.2370
   51SOL     MW  204   0.334   2.904   0.872 -0.4231 -0.5587 -0.0513
   52SOL     OW  205   0.803   1.852   0.456 -0.1432 -0.1010 -0.0562
   52SOL    HW1  206   0.790   1.946   0.442 -0.2366  1.0988  1.2698
   52SOL    HW2  207   0.824   1.811   0.370  0.6974 -1.6245  0.2543
   52SOL     MW  208   0.804   1.859   0.443 -0.0446 -0.1437  0.1597
   53SOL     OW  209   0.476   2.155   0.627 -0.3153  0.1056  0.5030
   53SOL    HW1  210   0.437   2.124   0.543 -1.9373 -0.1267  1.3119
   53SOL    HW2  211   0.457   2.246   0.619  1.6676 -1.1452  0.4739
   53SOL     MW  212   0.468   2.163   0.615 -0.2677 -0.0901  0.6059
   54SOL     OW  213   2.040   0.982   0.683  0.1990  0.0200 -0.2237
   54SOL    HW1  214   2.104   0.962   0.617 -0.7497 -0.9887 -0.0284
   54SOL    HW2  215   2.002   0.896   0.690 -1.6442  1.5369  1.6665
   54SOL     MW  216   2.044   0.968   0.675 -0.1694  0.0870  0.0515
   55SOL     OW  217   0.429   1.535   1.720 -0.2338 -0.0073  0.4556
   55SOL    HW1  218   0.383   1.578   1.643 -0.9724  1.3356 -0.1862
   55SOL    HW2  219   0.505   1.489   1.685  1.9315  1.3658 -0.0249
   55SOL     MW  220   0.433   1.535   1.706 -0.0455  0.3510  0.3075
   56SOL     OW  221   0.681   0.916   0.199  0.8202  0.6171  0.0555
   56SOL    HW1  222   0.704   0.991   0.143 -0.0801 -1.0187 -0.2082
   56SOL    HW2  223   0.595   0.878   0.171  2.1282  1.4484  1.7884
   56SOL     MW  224   0.672   0.921   0.188  0.8740  0.5110  0.2493
   57SOL     OW  225   1.086   1.339   1.199 -0.4921 -0.2595  0.1166
   57SOL    HW1  226   1.174   1.384   1.211 -1.4858 -1.2143  1.7945
   57SOL    HW2  227   1.071   1.283   1.276 -0.1936  1.1947  1.2390
   57SOL     MW  228   1.095   1.338   1.210 -0.5838 -0.1936  0.4861
   58SOL     OW  229   0.433   1.237   1.301 -0.6184 -0.2784  0.1713
   58SOL    HW1  230   0.408   1.333   1.287  1.7748  0.9739 -0.8033
   58SOL    HW2  231   0.412   1.214   1.389  2.1568 -1.4562  0.0990
   58SOL     MW  232   0.427   1.246   1.311  0.0636 -0.2686  0.0332
   59SOL     OW  233   1.476   1.663   0.392 -0.1007  0.2154  0.2894
   59SOL    HW1  234   1.536   1.714   0.436 -1.8269 -1.5428 -2.7684
   59SOL    HW2  235   1.388   1.686   0.428  2.5622 -1.2600  0.1008
   59SOL     MW  236   1.473   1.673   0.402  0.0229 -0.2112 -0.1389
   60SOL     OW  237   3.049   0.151   1.611 -0.1886 -0.1042 -0.0068
   60SOL    HW1  238   2.965   0.196   1.638  0.4629 -1.0632 -1.5079
   60SOL    HW2  239   3.085   0.125   1.692 -1.9276  1.2426 -2.9508
   60SOL     MW  240   3.043   0.153   1.626 -0.3321 -0.0531 -0.5933
   61SOL     OW  241   1.971   1.376   3.006 -0.0936  0.2110  0.4942
   61SOL    HW1  242   1.901   1.372   3.076  2.7966  0.5698 -0.2049
   61SOL    HW2  243   2.017   1.297   3.015 -0.7008 -0.1788  1.1712
   61SOL     MW  244   1.968   1.365   3.016  0.2076  0.2069  0.4913
   62SOL     OW  245   0.541   1.802   0.546 -0.1877  0.2795 -0.4351
   62SOL    HW1  246   0.629   1.822   0.507  1.6843  1.5691 -2.6750
   62SOL    HW2  247   0.536   1.708   0.539  0.1008 -0.2775  0.0684
   62SOL     MW  248   0.552   1.792   0.540  0.0974  0.3761 -0.6642
   63SOL     OW  249   1.708   0.671   0.508 -0.3362  0.0868  0.2196
   63SOL    HW1  250   1.680   0.759   0.480  0.5182  0.3121 -1.2170
   63SOL    HW2  251   1.642   0.638   0.572 -0.2883  0.7584  1.7825
   63SOL     MW  252   1.696   0.679   0.513 -0.2172  0.2051  0.2363
   64SOL     OW  253   0.191   1.700   0.627  0.0369 -0.1392 -0.1952
   64SOL    HW1  254   0.259   1.743   0.674  1.2006 -1.7419  0.0190
   64SOL    HW2  255   0.104   1.729   0.656 -2.2146  1.1561  0.5048
   64SOL     MW  256   0.188   1.710   0.637 -0.1066 -0.1797 -0.0746
   65SOL     OW  257   1.569   2.330   0.376  0.7821  0.1697  0.7186
   65SOL    HW1  258   1.655   2.372   0.388 -0.1065  0.1865 -1.0388
   65SOL    HW2  259   1.508   2.380   0.433 -1.8773  2.3928  0.8072
   65SOL     MW  260   1.572   2.342   0.385  0.3140  0.4652  0.4985
   66SOL     OW  261   0.406   0.576   0.523  0.0504  0.2405 -0.2014
   66SOL    HW1  262   0.447   0.551   0.439 -0.8585  0.6316  1.2449
   66SOL    HW2  263   0.376   0.667   0.510 -0.8613  0.2976  0.9708
   66SOL     MW  264   0.407   0.584   0.510 -0.1898  0.2997  0.1440
   67SOL     OW  265   1.345   0.091   1.970  0.2992  0.3956 -0.8839
   67SOL    HW1  266   1.388   0.090   1.885  0.7209 -1.7843 -1.3173
   67SOL    HW2  267   1.331   0.001   1.997 -1.9312  1.4032 -1.5624
   67SOL     MW  268   1.349   0.079   1.962  0.0605  0.2409 -1.0306
   68SOL     OW  269   0.800   0.099   2.830 -0.1488  0.1579  0.0323
   68SOL    HW1  270   0.763   0.188   2.823  1.8976 -0.1082 -0.4317
   68SOL    HW2  271   0.887   0.114   2.862  1.8058 -1.9362  0.4010
   68SOL     MW  272   0.807   0.113   2.833  0.3791 -0.1535  0.0198
   69SOL     OW  273   1.089   0.268   1.964 -0.0677 -0.4077  0.3947
   69SOL    HW1  274   1.167   0.238   2.005 -0.7220 -0.6173  1.1191
   69SOL    HW2  275   1.023   0.207   2.008  2.8545 -0.3396 -0.9566
   69SOL     MW  276   1.091   0.256   1.975  0.2315 -0.4264  0.3120
   70SOL     OW  277   0.538   1.673   1.129  0.7210 -0.7366  0.1778
   70SOL    HW1  278   0.608   1.741   1.108 -2.6413  2.8512 -0.6886
   70SOL    HW2  279   0.545   1.598   1.064 -1.7215 -3.7060 -2.0325
   70SOL     MW  280   0.548   1.672   1.118 -0.0449 -0.6550 -0.2281
   71SOL     OW  281   1.584   0.634   1.219 -0.3774  0.5344 -0.1239
   71SOL    HW1  282   1.549   0.696   1.277 -0.5125  0.4715  2.6102
   71SOL    HW2  283   1.531   0.632   1.144  1.3871  0.4712  2.9187
   71SOL     MW  284   1.572   0.642   1.217 -0.1624  0.5178  0.6382
   72SOL     OW  285   0.791   1.836   1.089 -0.1614 -0.4549  0.1004
   72SOL    HW1  286   0.801   1.907   1.028 -0.3276 -2.1877  0.2137
   72SOL    HW2  287   0.866   1.777   1.084 -0.7928 -0.7554 -1.9013
   72SOL     MW  288   0.802   1.837   1.080 -0.2667 -0.7231 -0.1487
   73SOL     OW  289   1.082   0.660   1.127  0.1464  0.3871 -0.0437
   73SOL    HW1  290   0.990   0.633   1.136  0.1042  0.8614  0.8289
   73SOL    HW2  291   1.117   0.698   1.216  1.4301  1.1698  2.4740
   73SOL     MW  292   1.075   0.661   1.140  0.3102  0.5530  0.4036
   74SOL     OW  293   2.819   0.098   0.979 -0.1327  0.2796  0.0725
   74SOL    HW1  294   2.914   0.104   0.964 -1.0814  0.6725 -1.8753
   74SOL    HW2  295   2.788   0.175   0.933 -0.3724 -0.2238 -0.3972
   74SOL     MW  296   2.828   0.109   0.971 -0.2895  0.2650 -0.2464
   75SOL     OW  297   1.459   1.314   0.181 -0.1243 -0.0671  0.2971
   75SOL    HW1  298   1.497   1.276   0.102 -0.6711  0.7564  0.9855
   75SOL    HW2  299   1.523   1.318   0.252 -0.2537  3.0695  0.9214
   75SOL     MW  300   1.472   1.309   0.180 -0.2135  0.4554  0.4703
   76SOL     OW  301   3.031   0.686   0.464 -0.5139 -0.3232 -0.0524
   76SOL    HW1  302   3.053   0.727   0.551 -0.9866 -1.3144 -0.0635
   76SOL    HW2  303   3.104   0.625   0.457 -2.2679 -2.5102  0.3035
   76SOL     MW  304   3.043   0.683   0.474 -0.8077 -0.7425 -0.0069
   77SOL     OW  305   0.852   0.595   0.444 -0.0673 -0.3543  0.0748
   77SOL    HW1  306   0.837   0.638   0.357  2.2579  0.8038  0.8675
   77SOL    HW2  307   0.839   0.497   0.425  4.8081 -1.8105 -0.0235
   77SOL     MW  308   0.848   0.588   0.430  0.8827 -0.3937  0.1664
   78SOL     OW  309   0.785   0.868   1.107 -0.6728 -0.0292  0.1733
   78SOL    HW1  310   0.768   0.954   1.069 -0.6332  1.6719  0.0807
   78SOL    HW2  311   0.695   0.847   1.137 -0.0766  0.2608  0.3793
   78SOL     MW  312   0.771   0.877   1.106 -0.5889  0.2335  0.1883
   79SOL     OW  313   1.916   1.494   0.573  0.5670 -0.1368  0.6415
   79SOL    HW1  314   1.825   1.513   0.577 -0.2770  1.3779  2.0861
   79SOL    HW2  315   1.934   1.419   0.633  0.8893  0.4350 -0.4874
   79SOL     MW  316   1.906   1.487   0.582  0.4982  0.1385  0.6832
   80SOL     OW  317   0.223   0.990   0.300  0.0776  0.6910 -0.1748
   80SOL    HW1  318   0.172   0.946   0.233 -0.7883 -1.2478 -0.0462
   80SOL    HW2  319   0.251   0.918   0.364  0.4094  0.1803 -1.0075
   80SOL     MW  320   0.220   0.974   0.300  0.0071  0.3678 -0.2677
   81SOL     OW  321   1.780   1.823   0.269 -1.1022 -0.2387 -0.3754
   81SOL    HW1  322   1.749   1.734   0.259  2.4358  1.5758  0.7858
   81SOL    HW2  323   1.729   1.880   0.216 -1.3681 -1.2160 -0.6549
   81SOL     MW  324   1.769   1.818   0.260 -0.6705 -0.1282 -0.2591
   82SOL     OW  325   0.947   1.020   0.564 -0.5316 -0.2483 -0.1884
   82SOL    HW1  326   0.896   1.069   0.494 -0.2574 -0.7831 -1.6657
   82SOL    HW2  327   0.896   0.942   0.588 -0.4008 -0.3701 -0.0740
   82SOL     MW  328   0.934   1.016   0.558 -0.4781 -0.3349 -0.3683
   83SOL     OW  329   0.010   0.709   1.504  0.3385  0.1752 -0.5320
   83SOL    HW1  330   0.009   0.769   1.430 -0.0069 -0.8998 -2.4348
   83SOL    HW2  331   0.082   0.644   1.491  0.4461  0.1440 -1.6369
   83SOL     MW  332   0.019   0.709   1.492  0.3071  0.0293 -0.9288
   84SOL     OW  333   3.093   0.202   0.930  0.3226  0.3317  0.2008
   84SOL    HW1  334   3.102   0.298   0.962 -0.4268  0.3785 -0.7191
   84SOL    HW2  335   3.126   0.145   1.000 -0.9092 -1.0141  1.5582
   84SOL     MW  336   3.099   0.207   0.943  0.0612  0.1603  0.2586
   85SOL     OW  337   0.367   0.460   0.780  0.0359 -0.2743 -0.3097
   85SOL    HW1  338   0.401   0.477   0.689  0.7513  0.9220 -1.2606
   85SOL    HW2  339   0.304   0.385   0.764  0.3168 -1.4976 -0.0291
   85SOL     MW  340   0.363   0.452   0.766  0.1673 -0.2779 -0.3982
   86SOL     OW  341   1.295   0.260   1.209  0.0679 -0.6632  0.0664
   86SOL    HW1  342   1.275   0.343   1.170 -3.1200  0.5854  0.2794
   86SOL    HW2  343   1.391   0.263   1.229  1.4103 -0.2411  0.4548
   86SOL     MW  344   1.305   0.271   1.207 -0.1756 -0.4428  0.1457
   87SOL     OW  345   0.971   1.589   1.190 -0.6873  0.0120  0.0475
   87SOL    HW1  346   1.038   1.626   1.129  0.3075 -1.1851  1.9019
   87SOL    HW2  347   1.001   1.502   1.200 -0.0140  1.0253 -0.5385
   87SOL     MW  348   0.984   1.583   1.183 -0.4672 -0.0123  0.2148
   88SOL     OW  349   1.168   1.126   1.009  0.2572 -0.2575 -0.0688
   88SOL    HW1  350   1.259   1.137   0.994  0.5830 -2.2238 -3.0071
   88SOL    HW2  351   1.148   1.189   1.079  2.2363  1.2428 -0.1689
   88SOL     MW  352   1.177   1.136   1.017  0.5613 -0.3190 -0.4697
   89SOL     OW  353   1.788   0.736   0.218 -0.0005 -0.1599  0.1103
   89SOL    HW1  354   1.722   0.684   0.259  0.5716  1.0892  0.5730
   89SOL    HW2  355   1.861   0.745   0.287  1.6178 -1.0083 -0.0864
   89SOL     MW  356   1.789   0.730   0.232  0.2885 -0.1070  0.1454
   90SOL     OW  357   0.780   1.197   2.761 -0.5692 -0.3492  0.2755
   90SOL    HW1  358   0.798   1.105   2.772 -2.4214  2.0503  1.0514
   90SOL    HW2  359   0.811   1.236   2.843 -3.5443  4.7038  0.8883
   90SOL     MW  360   0.786   1.190   2.773 -1.2061  0.6341  0.4587
   91SOL     OW  361   2.270   0.616   0.526 -0.7354  0.2766  0.0913
   91SOL    HW1  362   2.315   0.676   0.464 -0.0333 -1.7058  0.2269
   91SOL    HW2  363   2.288   0.533   0.480  0.2160  0.2294 -2.4584
   91SOL     MW  364   2.278   0.613   0.512 -0.5172  0.0088 -0.2272
   92SOL     OW  365   1.647   0.935   0.492  0.3983 -0.3540  0.2717
   92SOL    HW1  366   1.563   0.956   0.539 -0.0360  1.2414  0.0351
   92SOL    HW2  367   1.635   0.961   0.401 -0.6059  1.7837 -1.4755
   92SOL     MW  368   1.634   0.941   0.486  0.2085  0.1386  0.0099
   93SOL     OW  369   1.110   0.218   0.399 -0.7333 -0.0514 -0.5761
   93SOL    HW1  370   1.025   0.251   0.431 -1.1795  0.7730  1.0915
   93SOL    HW2  371   1.136   0.279   0.327  3.1749 -0.5329  0.2000
   93SOL     MW  372   1.103   0.230   0.393 -0.2765 -0.0062 -0.2536
   94SOL     OW  373   1.906   1.376   1.576 -0.0634  0.2967 -0.6830
   94SOL    HW1  374   1.882   1.392   1.483  1.4678 -0.6679 -2.0585
   94SOL    HW2  375   1.841   1.311   1.616 -0.9499 -2.7239  1.7940
   94SOL     MW  376   1.894   1.369   1.569  0.0217 -0.2291 -0.5377
   95SOL     OW  377   0.609   1.503   0.930  0.3669  0.0676  0.0394
   95SOL    HW1  378   0.683   1.446   0.942 -0.1009 -1.3959  1.5685
   95SOL    HW2  379   0.537   1.445   0.888 -0.5405 -0.4369  0.0528
   95SOL     MW  380   0.609   1.488   0.926  0.1855 -0.1921  0.2429
   96SOL     OW  381   1.320   1.815   1.704 -0.4307  0.6707  0.7613
   96SOL    HW1  382   1.234   1.838   1.732 -0.5449  0.7497  1.8206
   96SOL    HW2  383   1.310   1.719   1.693  0.5782 -0.8570 -2.8107
   96SOL     MW  384   1.307   1.805   1.707 -0.3126  0.4795  0.4298
   97SOL     OW  385   1.086   1.561   0.844 -0.4437 -0.0304  0.2073
   97SOL    HW1  386   1.118   1.609   0.921  0.7909 -3.1308 -0.4239
   97SOL    HW2  387   0.997   1.588   0.828  0.7131 -0.6611 -0.7684
   97SOL     MW  388   1.079   1.571   0.852 -0.1282 -0.5227 -0.0047
   98SOL     OW  389   1.361   1.400   1.211  0.5970  0.3037  0.3257
   98SOL    HW1  390   1.440   1.420   1.258 -2.5681  0.0148  0.4005
   98SOL    HW2  391   1.394   1.398   1.121  0.2827  0.1260 -0.2729
   98SOL     MW  392   1.376   1.402   1.205  0.1379  0.2421  0.2566
   99SOL     OW  393   1.538   0.339   1.303  0.2488  0.0820 -0.6913
   99SOL    HW1  394   1.561   0.420   1.253 -0.0460  0.6743  2.5128
   99SOL    HW2  395   1.497   0.366   1.389  1.7249 -0.4110  0.8791
   99SOL     MW  396   1.536   0.353   1.308  0.4047  0.0951 -0.0613
  100SOL     OW  397   1.078   1.155   1.404 -0.2464  0.2284  0.0076
  100SOL    HW1  398   1.066   1.212   1.479 -1.7971 -2.5221 -0.1590
  100SOL    HW2  399   1.130   1.080   1.441  1.6390 -1.3351 -0.5335
  100SOL     MW  400   1.084   1.153   1.419 -0.2023 -0.3408 -0.0858
  101SOL     OW  401   0.546   1.250   0.471  0.6937 -0.0609  0.1070
  101SOL    HW1  402   0.493   1.212   0.400  1.1598 -0.8745 -2.1842
  101SOL    HW2  403   0.633   1.208   0.472  1.5749 -2.4598 -0.1458
  101SOL     MW  404   0.550   1.239   0.462  0.8715 -0.4847 -0.2286
  102SOL     OW  405   2.888   0.593   1.062  0.6180  0.6226 -0.5898
  102SOL    HW1  406   2.914   0.688   1.051 -2.4521 -2.6180 -1.3712
  102SOL    HW2  407   2.861   0.563   1.152 -0.7080 -0.8167  1.9435
  102SOL     MW  408   2.888   0.602   1.072  0.0379  0.0051 -0.3587
  103SOL     OW  409   1.898   0.259   1.773 -0.2562 -0.0023  0.5735
  103SOL    HW1  410   1.882   0.165   1.771  0.1921  1.5196 -1.3852
  103SOL    HW2  411   1.859   0.287   1.857  0.3027 -2.0955 -0.4128
  103SOL     MW  412   1.891   0.250   1.784 -0.1233 -0.0777  0.1849
  104SOL     OW  413   0.046   1.541   1.673  0.1506  0.2019 -0.3047
  104SOL    HW1  414   0.100   1.475   1.714 -1.3123  0.7719  1.5943
  104SOL    HW2  415  -0.045   1.506   1.675  2.1321 -0.6624  1.9925
  104SOL     MW  416   0.041   1.528   1.679  0.2190  0.1631  0.2489
  105SOL     OW  417   0.125   1.207   0.406  0.4021 -0.1054 -0.1663
  105SOL    HW1  418   0.169   1.131   0.362 -0.0949 -0.5804 -1.2892
  105SOL    HW2  419   0.183   1.282   0.409  3.0721 -2.7972  0.2486
  105SOL     MW  420   0.139   1.207   0.400  0.6888 -0.5232 -0.2597
  106SOL     OW  421   0.862   0.233   0.859  0.1061 -0.0754  0.3240
  106SOL    HW1  422   0.828   0.325   0.857  0.6489  1.7446 -2.5872
  106SOL    HW2  423   0.929   0.239   0.924  1.3510 -0.2795 -1.1724
  106SOL     MW  424   0.867   0.246   0.867  0.3420  0.1378 -0.2576
  107SOL     OW  425   0.792   2.183   2.876  0.1483 -0.3921 -0.0087
  107SOL    HW1  426   0.694   2.168   2.896 -0.9960 -0.3753  0.0774
  107SOL    HW2  427   0.840   2.154   2.953  0.6183 -0.4210  2.5961
  107SOL     MW  428   0.785   2.177   2.889  0.0594 -0.3937  0.3464
  108SOL     OW  429   1.319   1.555   1.640  0.2135 -0.5459  0.3609
  108SOL    HW1  430   1.279   1.532   1.551  2.6410 -1.6424  1.7120
  108SOL    HW2  431   1.415   1.551   1.626 -2.6757 -1.1900 -3.5885
  108SOL     MW  432   1.326   1.551   1.626  0.1526 -0.7755  0.0181
  109SOL     OW  433   2.018   0.753   0.384 -0.2280 -0.0641 -0.0725
  109SOL    HW1  434   1.999   0.845   0.386  0.0262 -0.3164  0.0516
  109SOL    HW2  435   2.088   0.734   0.444 -2.1637  2.4488 -0.0098
  109SOL     MW  436   2.025   0.763   0.392 -0.4499  0.2341 -0.0478
  110SOL     OW  437   0.395   1.894   0.767 -0.0640  0.3405 -0.9451
  110SOL    HW1  438   0.445   1.853   0.695 -1.3679 -0.6901 -0.3223
  110SOL    HW2  439   0.411   1.985   0.747  1.2989 -1.9165  1.1653
  110SOL     MW  440   0.404   1.900   0.755 -0.0562 -0.0932 -0.5845
  111SOL     OW  441   0.858   0.867   1.365  0.0376 -0.5165 -0.0239
  111SOL    HW1  442   0.819   0.875   1.273 -2.5005 -2.5881 -0.9312
  111SOL    HW2  443   0.789   0.825   1.413 -0.2319 -1.8825  0.7466
  111SOL     MW  444   0.844   0.862   1.359 -0.3328 -0.9700 -0.0420
  112SOL     OW  445   1.327   1.159   1.653 -0.4075  0.0670 -0.0717
  112SOL    HW1  446   1.246   1.204   1.650 -1.7915 -0.5480  0.4234
  112SOL    HW2  447   1.303   1.064   1.661 -2.9548 -0.9263 -0.3314
  112SOL     MW  448   1.313   1.152   1.654 -0.9262 -0.1452 -0.0407
  113SOL     OW  449   1.234   2.993   1.713  0.4423 -0.0855 -0.3367
  113SOL    HW1  450   1.227   2.957   1.802 -1.1996  1.1123  1.5112
  113SOL    HW2  451   1.209   2.926   1.648  0.2723 -0.9164 -1.1473
  113SOL     MW  452   1.230   2.980   1.716  0.2033 -0.0371 -0.1998
  114SOL     OW  453   0.336   2.903   1.855 -0.3158 -0.3602  0.2199
  114SOL    HW1  454   0.415   2.955   1.843 -0.2456 -0.8686  4.1758
  114SOL    HW2  455   0.319   2.928   1.949  1.7320  0.1420 -1.2003
  114SOL     MW  456   0.344   2.913   1.866 -0.0363 -0.3610  0.5545
  115SOL     OW  457   0.503   0.866   1.177 -0.5530 -0.1093 -0.0250
  115SOL    HW1  458   0.511   0.773   1.161 -0.2089  0.8449  2.2726
  115SOL    HW2  459   0.428   0.872   1.245 -1.6922 -0.2232 -2.1265
  115SOL     MW  460   0.494   0.855   1.184 -0.6579  0.0016  0.0008
  116SOL     OW  461   0.711   1.110   0.984  0.3719 -0.5245 -0.1325
  116SOL    HW1  462   0.761   1.145   0.907  0.2722 -0.5916 -1.4663
  116SOL    HW2  463   0.722   1.167   1.058 -1.7549 -0.1515  0.7429
  116SOL     MW  464   0.719   1.122   0.983  0.0781 -0.4841 -0.1930
  117SOL     OW  465   1.082   1.256   0.802  0.3770  0.0896  0.4871
  117SOL    HW1  466   1.113   1.210   0.880  2.2216 -1.6458  1.3679
  117SOL    HW2  467   1.083   1.351   0.815  1.8031 -1.3684 -0.0601
  117SOL     MW  468   1.086   1.263   0.814  0.8085 -0.3317  0.5311
  118SOL     OW  469   3.095   2.944   1.846 -0.2283 -0.5850  0.5252
  118SOL    HW1  470   3.131   3.026   1.838 -1.8053 -3.0593 -1.0996
  118SOL    HW2  471   3.011   2.957   1.804 -1.0669 -0.0317 -1.9804
  118SOL     MW  472   3.089   2.956   1.840 -0.5470 -0.8384 -0.0198
  119SOL     OW  473   0.371   1.513   1.301 -0.4035  0.3530 -0.4468
  119SOL    HW1  474   0.432   1.567   1.245 -0.6299  1.0266 -2.4219
  119SOL    HW2  475   0.283   1.517   1.257  0.0880 -3.0429 -2.7453
  119SOL     MW  476   0.368   1.521   1.288 -0.3685 -0.0062 -1.0107
  120SOL     OW  477   0.296   0.877   0.956 -0.1660 -0.1085 -0.2697
  120SOL    HW1  478   0.311   0.847   1.047  1.5245 -1.6972 -0.1619
  120SOL    HW2  479   0.382   0.900   0.916  0.3414 -0.3227 -0.1727
  120SOL     MW  480   0.309   0.876   0.962  0.1240 -0.3464 -0.2427
  121SOL     OW  481   1.766   1.135   1.618 -0.0970  0.7252  0.2042
  121SOL    HW1  482   1.709   1.165   1.547 -0.8549 -0.6833 -0.3869
  121SOL    HW2  483   1.832   1.077   1.571 -0.8424 -1.6899  1.8109
  121SOL     MW  484   1.767   1.131   1.602 -0.2953  0.2207  0.3382
  122SOL     OW  485   0.151   0.627   0.838  0.4153 -0.2652 -0.7098
  122SOL    HW1  486   0.243   0.593   0.811 -0.0014  0.4979  0.0811
  122SOL    HW2  487   0.170   0.713   0.872  2.5765 -1.9654 -1.5013
  122SOL     MW  488   0.166   0.634   0.839  0.6455 -0.3889 -0.7099
  123SOL     OW  489   1.846   1.132   0.565 -0.5703 -0.1182 -0.1915
  123SOL    HW1  490   1.778   1.064   0.561  0.0830  0.2933  2.7112
  123SOL    HW2  491   1.915   1.094   0.624 -1.1190 -0.5863  1.3098
  123SOL     MW  492   1.846   1.118   0.572 -0.5565 -0.1257  0.3896
  124SOL     OW  493   0.673   0.480   0.809  0.0518  0.2801 -0.0818
  124SOL    HW1  494   0.585   0.469   0.782  1.6592 -0.4559  1.6843
  124SOL    HW2  495   0.701   0.561   0.774  0.4514  0.7901 -0.7983
  124SOL     MW  496   0.665   0.489   0.801  0.3166  0.2503  0.0567
  125SOL     OW  497   0.646   1.779   1.720  0.4803 -0.0974  0.5466
  125SOL    HW1  498   0.678   1.747   1.634 -1.5572  0.1332  1.8777
  125SOL    HW2  499   0.586   1.859   1.708  0.7615  0.9494 -1.5227
  125SOL     MW  500   0.642   1.785   1.707  0.2485  0.0711  0.4492
  126SOL     OW  501   2.117   1.540   1.863 -0.4418  0.1887 -0.0252
  126SOL    HW1  502   2.160   1.622   1.892  0.6872  1.3073 -0.2408
  126SOL    HW2  503   2.158   1.462   1.906 -1.9473 -0.4816  0.0959
  126SOL     MW  504   2.128   1.541   1.872 -0.4915  0.2479 -0.0376
  127SOL     OW  505   0.539   0.784   1.839 -0.0164  0.5491  0.0724
  127SOL    HW1  506   0.621   0.743   1.820  2.0650 -1.0317 -0.4539
  127SOL    HW2  507   0.545   0.831   1.925  1.2474  1.2220  2.3128
  127SOL     MW  508   0.550   0.785   1.848  0.4250  0.4293  0.2986
  128SOL     OW  509   1.734   0.738   2.860  0.3273 -0.2860  0.0019
  128SOL    HW1  510   1.790   0.710   2.786 -0.9367 -0.6506  0.0355
  128SOL    HW2  511   1.742   0.834   2.869  3.1497 -0.1874 -0.0341
  128SOL     MW  512   1.742   0.747   2.852  0.5329 -0.3211  0.0016
  129SOL     OW  513   1.628   0.953   0.158  0.1602 -0.0899  0.1724
  129SOL    HW1  514   1.570   0.880   0.135  1.0897  0.0882  1.2615
  129SOL    HW2  515   1.712   0.916   0.162 -0.7436  1.1357 -0.2698
  129SOL     MW  516   1.631   0.938   0.156  0.1636  0.0953  0.2578
  130SOL     OW  517   0.862   1.464   0.360  0.5671  0.0463  0.7840
  130SOL    HW1  518   0.860   1.439   0.455 -1.3605 -0.6293  3.7847
  130SOL    HW2  519   0.953   1.474   0.338  1.6102 -0.6907 -1.6913
  130SOL     MW  520   0.874   1.462   0.370  0.4504 -0.1401  0.8533
  131SOL     OW  521   0.063   0.839   0.051 -0.1645  0.0992 -0.2057
  131SOL    HW1  522   0.013   0.848  -0.030  1.1601  1.7599  1.0303
  131SOL    HW2  523   0.116   0.755   0.037 -2.4072  0.5036 -0.1991
  131SOL     MW  524   0.064   0.829   0.038 -0.2856  0.3717 -0.0417
  132SOL     OW  525   2.704   0.062   1.242 -0.7482 -0.0106  0.0396
  132SOL    HW1  526   2.741   0.076   1.156 -1.6251 -0.3279  0.2563
  132SOL    HW2  527   2.625   0.014   1.217  1.0003  2.6753 -2.2161
  132SOL     MW  528   2.699   0.057   1.227 -0.6332  0.3019 -0.2294
  133SOL     OW  529   1.082   0.125   1.719 -0.3738  0.5390 -0.6377
  133SOL    HW1  530   1.139   0.048   1.730  2.5234  1.6701  1.4386
  133SOL    HW2  531   1.093   0.189   1.792 -2.5522 -1.5052 -0.9153
  133SOL     MW  532   1.091   0.123   1.730 -0.2790  0.4185 -0.4004
  134SOL     OW  533   1.409   2.470   1.472  0.2212  0.2594  0.2280
  134SOL    HW1  534   1.347   2.536   1.429 -2.5681  0.5642  0.9280
  134SOL    HW2  535   1.437   2.503   1.568  1.6829 -0.0158  1.8331
  134SOL     MW  536   1.405   2.483   1.479  0.0460  0.2633  0.5321
  135SOL     OW  537   2.980   1.009   2.930  0.3559  0.1463  0.0149
  135SOL    HW1  538   3.047   1.059   2.967 -1.2463  2.2291 -0.4151
  135SOL    HW2  539   2.916   1.081   2.906 -3.8336 -1.2721 -0.4182
  135SOL     MW  540   2.980   1.025   2.932 -0.4083  0.2340 -0.0989
  136SOL     OW  541   0.136   1.997   0.846 -0.1046 -0.3422 -0.3143
  136SOL    HW1  542   0.063   1.940   0.847  0.0347  0.7570  0.6130
  136SOL    HW2  543   0.204   1.945   0.801  1.6290  2.4641  0.4903
  136SOL     MW  544   0.136   1.983   0.840  0.1425  0.1731 -0.0858
  137SOL     OW  545   0.741   2.093   0.623 -0.0512  0.4426  0.1599
  137SOL    HW1  546   0.756   2.088   0.716  0.1286  1.4310 -0.2807
  137SOL    HW2  547   0.644   2.112   0.620  0.1727  0.2912 -0.6807
  137SOL     MW  548   0.730   2.095   0.635  0.0021  0.5530 -0.0092
  138SOL     OW  549   0.526   0.633   1.055  0.0249 -0.3042 -0.5628
  138SOL    HW1  550   0.453   0.577   1.038  1.1581  0.6682  0.0858
  138SOL    HW2  551   0.593   0.625   0.984 -1.1753  1.3612  1.6567
  138SOL     MW  552   0.525   0.625   1.043  0.0161  0.0438 -0.1844
  139SOL     OW  553   2.837   0.479   1.317 -0.7677 -0.0750  0.1474
  139SOL    HW1  554   2.933   0.456   1.331 -1.2034  2.0695 -0.8221
  139SOL    HW2  555   2.831   0.551   1.382  0.4133 -1.0369 -1.3785
  139SOL     MW  556   2.849   0.485   1.328 -0.6694  0.0810 -0.1818
  140SOL     OW  557   0.897   0.489   1.951 -0.4045  0.5256  0.2584
  140SOL    HW1  558   0.969   0.430   1.933  0.4577  0.1354 -0.5953
  140SOL    HW2  559   0.855   0.458   2.029  0.9669  2.9377 -1.6414
  140SOL     MW  560   0.901   0.477   1.959 -0.1098  0.7924 -0.1049
  141SOL     OW  561   1.136   0.684   1.714  0.1198 -0.1438 -0.1783
  141SOL    HW1  562   1.133   0.606   1.651 -2.3341  1.1850  0.5498
  141SOL    HW2  563   1.169   0.647   1.791 -1.0503  0.4148 -1.8988
  141SOL     MW  564   1.140   0.669   1.716 -0.3584  0.1052 -0.3093
  142SOL     OW  565   0.819   1.181   0.739 -0.4235  0.4844 -0.8411
  142SOL    HW1  566   0.851   1.121   0.677 -1.3070 -0.5492 -0.0758
  142SOL    HW2  567   0.909   1.216   0.767  1.8473  0.0002  0.7370
  142SOL     MW  568   0.835   1.178   0.735 -0.2405  0.2841 -0.5319
  143SOL     OW  569   1.819   0.784   1.032 -0.4124  1.0792 -0.2585
  143SOL    HW1  570   1.856   0.783   0.939  2.7596  0.6733  0.5664
  143SOL    HW2  571   1.727   0.790   1.019  0.3005  3.5167 -1.0837
  143SOL     MW  572   1.812   0.784   1.018  0.1002  1.3472 -0.2585
  144SOL     OW  573   0.238   1.347   1.757  0.0214  0.0158 -0.2036
  144SOL    HW1  574   0.306   1.406   1.738  0.9926 -3.1129  0.3242
  144SOL    HW2  575   0.277   1.273   1.807  0.5288  3.2192  1.1190
  144SOL     MW  576   0.252   1.345   1.761  0.2165  0.0257  0.0405
  145SOL     OW  577   0.219   0.489   1.186  0.0577 -0.2896  0.0438
  145SOL    HW1  578   0.255   0.403   1.205 -0.7756  1.9207  0.9890
  145SOL    HW2  579   0.171   0.473   1.102 -0.5348  1.9490 -0.4330
  145SOL     MW  580   0.217   0.475   1.178 -0.1304  0.2974  0.1056
  146SOL     OW  581   0.808   1.990   1.551 -0.0760 -0.8233  0.4732
  146SOL    HW1  582   0.846   1.982   1.459 -0.2949  0.8254  1.9010
  146SOL    HW2  583   0.734   1.933   1.537  0.0744 -0.2765 -1.8390
  146SOL     MW  584   0.803   1.981   1.537 -0.0851 -0.5337  0.3565
  147SOL     OW  585   0.396   0.518   3.012 -0.7612 -0.0590  0.1519
  147SOL    HW1  586   0.320   0.507   3.076 -0.4074 -0.2181  2.2746
  147SOL    HW2  587   0.364   0.584   2.946 -0.9267  2.6418  1.1521
  147SOL     MW  588   0.382   0.525   3.012 -0.7363  0.2763  0.5640
  148SOL     OW  589   0.034   0.903   1.280  0.1059  0.4808 -0.4216
  148SOL    HW1  590   0.128   0.889   1.296  2.1428 -0.8775  0.3657
  148SOL    HW2  591   0.022   1.000   1.287 -0.7775 -0.3139 -2.1987
  148SOL     MW  592   0.045   0.914   1.283  0.2581  0.1967 -0.5522
  149SOL     OW  593   1.510   1.204   1.463  0.6475 -0.4580 -0.4584
  149SOL    HW1  594   1.443   1.188   1.535 -1.6097 -1.2171  2.7612
  149SOL    HW2  595   1.510   1.298   1.444 -1.2193  0.6863  0.1823
  149SOL     MW  596   1.501   1.214   1.470  0.1034 -0.4072  0.0509
  150SOL     OW  597   1.711   1.437   0.888  0.3827 -0.1298 -0.1130
  150SOL    HW1  598   1.771   1.363   0.908  0.6532 -1.5884 -1.1967
  150SOL    HW2  599   1.774   1.513   0.893  2.6423 -1.1096  1.8825
  150SOL     MW  600   1.727   1.438   0.892  0.7165 -0.4515  0.0073
  151SOL     OW  601   1.609   1.830   0.805  0.1734  0.1624 -0.1421
  151SOL    HW1  602   1.581   1.849   0.713 -1.6215 -4.4065  0.2127
  151SOL    HW2  603   1.528   1.809   0.850  2.3926  2.5873 -1.2313
  151SOL     MW  604   1.595   1.830   0.799  0.2294 -0.1205 -0.2390
  152SOL     OW  605   0.641   1.396   1.625 -0.1577 -1.0882  0.7509
  152SOL    HW1  606   0.680   1.423   1.544 -1.3916 -1.4237 -1.2336
  152SOL    HW2  607   0.580   1.326   1.608 -0.2810 -0.3627 -2.3738
  152SOL     MW  608   0.638   1.390   1.612 -0.3368 -1.0367  0.0768
  153SOL     OW  609   2.624   1.235   0.725 -0.0980 -0.0642 -0.5336
  153SOL    HW1  610   2.704   1.197   0.683  0.6383 -0.5864 -0.8685
  153SOL    HW2  611   2.561   1.170   0.735  2.6310  3.1063  1.0106
  153SOL     MW  612   2.627   1.221   0.721  0.3592  0.2852 -0.3741
  154SOL     OW  613   0.123   1.791   1.776  0.5612  0.4623  0.1588
  154SOL    HW1  614   0.073   1.706   1.746 -0.8114 -1.4832 -2.5280
  154SOL    HW2  615   0.213   1.753   1.781  1.1170  1.2469  1.8652
  154SOL     MW  616   0.128   1.775   1.773  0.4534  0.3091  0.0294
  155SOL     OW  617   1.175   0.700   0.281 -0.1356 -0.0560 -0.0301
  155SOL    HW1  618   1.158   0.655   0.358  2.9441  1.6692 -0.4697
  155SOL    HW2  619   1.149   0.795   0.303 -2.5407  1.3757  1.4066
  155SOL     MW  620   1.169   0.707   0.294 -0.0466  0.3606  0.1015
  156SOL     OW  621   1.556   3.093   1.112  0.0087 -0.1019  0.1563
  156SOL    HW1  622   1.610   3.149   1.169  1.8780  2.3999  3.5339
  156SOL    HW2  623   1.592   3.004   1.126  0.4154  2.0421  0.1827
  156SOL     MW  624   1.568   3.089   1.121  0.3090  0.5110  0.6054
  157SOL     OW  625   1.281   1.114   0.159  0.4408 -0.3692 -0.2509
  157SOL    HW1  626   1.242   1.082   0.239 -1.5135  1.9754  0.8884
  157SOL    HW2  627   1.350   1.169   0.192  0.8078 -1.4263  2.5315
  157SOL     MW  628   1.285   1.117   0.174  0.2313 -0.1993  0.2665
  158SOL     OW  629   0.314   1.627   2.359 -0.6126  0.2515  0.2380
  158SOL    HW1  630   0.269   1.627   2.277  2.4835  0.5266  0.0188
  158SOL    HW2  631   0.252   1.681   2.405 -3.6157 -3.0086 -0.0033
  158SOL     MW  632   0.300   1.634   2.354 -0.6003 -0.1423  0.1772
  159SOL     OW  633   1.234   1.720   0.480  0.2680  0.2106  0.1207
  159SOL    HW1  634   1.179   1.659   0.427 -0.7242  0.2453  0.2951
  159SOL    HW2  635   1.181   1.756   0.554 -0.7789  0.3100  2.2188
  159SOL     MW  636   1.220   1.717   0.482 -0.0010  0.2283  0.4205
  160SOL     OW  637   0.480   1.169   1.568  0.2041  0.7124  0.0212
  160SOL    HW1  638   0.425   1.098   1.608  3.9682 -0.4353 -0.9528
  160SOL    HW2  639   0.562   1.125   1.539  2.4690 -2.2488 -1.0053
  160SOL     MW  640   0.483   1.154   1.570  0.9996  0.1703 -0.2428
  161SOL     OW  641   0.488   2.280   2.666  0.3176  0.1819  0.7303
  161SOL    HW1  642   0.394   2.286   2.633  1.7154 -1.6709 -0.8098
  161SOL    HW2  643   0.521   2.209   2.612 -0.5058 -3.0956  0.2690
  161SOL     MW  644   0.480   2.271   2.654  0.3934 -0.4950  0.4662
  162SOL     OW  645   1.072   1.812   1.869 -0.3427 -0.2359  0.4686
  162SOL    HW1  646   1.086   1.909   1.872  2.1444  0.2459 -3.8338
  162SOL    HW2  647   0.977   1.812   1.900 -1.5726  0.6264  1.1007
  162SOL     MW  648   1.062   1.825   1.874 -0.1768 -0.0585 -0.0156
  163SOL     OW  649   2.077   3.048   0.796 -0.7705  0.3068  0.3022
  163SOL    HW1  650   2.053   3.140   0.771  0.2521  0.1264 -0.7346
  163SOL    HW2  651   1.998   2.995   0.819  0.2262  2.0723  0.5494
  163SOL     MW  652   2.064   3.053   0.796 -0.5041  0.5159  0.1980
  164SOL     OW  653   0.229   0.218   0.784  0.6163  0.8441  0.4752
  164SOL    HW1  654   0.138   0.210   0.827  0.9278  0.0665 -0.9062
  164SOL    HW2  655   0.261   0.138   0.742  1.3977 -0.6366  1.6029
  164SOL     MW  656   0.222   0.207   0.784  0.7605  0.5461  0.4417
  165SOL     OW  657   1.130   1.275   0.364 -0.6658 -0.3200 -1.4300
  165SOL    HW1  658   1.197   1.258   0.429  1.1348 -2.2042 -1.3278
  165SOL    HW2  659   1.172   1.241   0.290 -3.2149  1.7828 -0.0532
  165SOL     MW  660   1.145   1.269   0.363 -0.7646 -0.2912 -1.2348
  166SOL     OW  661   0.324   1.186   1.048  0.1466 -0.3456 -0.2489
  166SOL    HW1  662   0.356   1.188   1.141  0.4699 -0.6249  0.5950
  166SOL    HW2  663   0.327   1.096   1.017 -3.6307  1.5915  1.1720
  166SOL     MW  664   0.329   1.175   1.056 -0.3091 -0.1269  0.0500
  167SOL     OW  665   0.785   1.160   0.377 -0.1284  0.6780 -0.1983
  167SOL    HW1  666   0.798   1.249   0.364 -1.6349  0.6425 -3.6863
  167SOL    HW2  667   0.810   1.126   0.290  1.5997  1.3228 -0.3990
  167SOL     MW  668   0.790   1.167   0.364 -0.0992  0.7584 -0.6850
  168SOL     OW  669   1.689   1.658   3.062  0.3303  0.3115  0.0855
  168SOL    HW1  670   1.618   1.721   3.041 -0.5992 -1.8757 -1.4404
  168SOL    HW2  671   1.689   1.584   3.001  0.3756 -0.8733  0.6199
  168SOL     MW  672   1.680   1.657   3.051  0.2137 -0.1334 -0.0453
  169SOL     OW  673   0.301   0.875   1.344  0.1773 -0.6695  0.5661
  169SOL    HW1  674   0.321   0.804   1.412 -1.2897 -1.6538 -0.6399
  169SOL    HW2  675   0.310   0.959   1.392 -2.5297 -0.1701 -2.4639
  169SOL     MW  676   0.305   0.877   1.359 -0.3734 -0.7335  0.0072
  170SOL     OW  677   1.073   1.559   1.457 -0.6725  0.5673  0.1690
  170SOL    HW1  678   1.035   1.627   1.513 -0.3331 -2.3980  1.2104
  170SOL    HW2  679   1.072   1.583   1.363  1.0075 -0.7463  2.7502
  170SOL     MW  680   1.068   1.571   1.452 -0.4061  0.0028  0.6469
  171SOL     OW  681   0.475   1.532   0.505 -0.3218  0.4258  0.4264
  171SOL    HW1  682   0.396   1.536   0.447 -2.3942 -2.8573  0.0695
  171SOL    HW2  683   0.486   1.444   0.541 -1.1408  3.6358  2.0490
  171SOL     MW  684   0.466   1.521   0.502 -0.7033  0.4161  0.5934
  172SOL     OW  685   0.789   0.277   1.307 -0.0056  0.2740 -0.5523
  172SOL    HW1  686   0.794   0.212   1.234  3.4373 -1.2941  2.2418
  172SOL    HW2  687   0.835   0.229   1.373  0.7660 -1.1649  0.7642
  172SOL     MW  688   0.796   0.262   1.306  0.5505 -0.1228 -0.0099
  173SOL     OW  689   0.481   1.748   0.272 -0.3276  0.4297 -0.2975
  173SOL    HW1  690   0.541   1.675   0.269 -1.4720  2.0977 -0.3117
  173SOL    HW2  691   0.465   1.775   0.365 -0.4593  2.2556 -0.6984
  173SOL     MW  692   0.487   1.742   0.284 -0.4960  0.8907 -0.3523
  174SOL     OW  693   1.925   0.940   1.473 -0.1774  0.4435 -0.3035
  174SOL    HW1  694   1.869   0.870   1.511 -1.8727 -1.2704  1.6782
  174SOL    HW2  695   1.883   0.961   1.384 -1.7219 -0.6293 -1.5021
  174SOL     MW  696   1.912   0.934   1.466 -0.6048  0.0758 -0.2002
  175SOL     OW  697   0.603   1.506   0.253 -0.0541  0.1718 -0.3422
  175SOL    HW1  698   0.539   1.485   0.324  0.4873 -0.1771 -0.9454
  175SOL    HW2  699   0.693   1.474   0.275 -1.9329 -0.8857 -1.1929
  175SOL     MW  700   0.607   1.499   0.265 -0.2306 -0.0138 -0.5340
  176SOL     OW  701   0.129   1.516   1.188  0.5592  0.0870 -0.0482
  176SOL    HW1  702   0.114   1.459   1.110  3.4435  0.3043  0.8882
  176SOL    HW2  703   0.047   1.502   1.242  0.2782 -1.4447 -1.0363
  176SOL     MW  704   0.116   1.506   1.185  0.9027 -0.0864 -0.0550
  177SOL     OW  705   0.559   0.271   1.454 -0.1299 -0.5582  0.2473
  177SOL    HW1  706   0.621   0.296   1.387 -1.5932  0.2091  0.5352
  177SOL    HW2  707   0.538   0.351   1.501  0.9160 -0.6168  0.0727
  177SOL     MW  708   0.564   0.285   1.452 -0.1850 -0.4647  0.2622
  178SOL     OW  709   3.095   0.658   2.903  0.2510  0.5023 -0.2178
  178SOL    HW1  710   3.072   0.627   2.810  2.9632  0.9116 -0.4161
  178SOL    HW2  711   3.172   0.726   2.889  0.7536  2.3619 -0.2456
  178SOL     MW  712   3.102   0.663   2.889  0.6752  0.8017 -0.2476
  179SOL     OW  713   1.594   1.469   1.394  0.0416 -0.0031  0.3436
  179SOL    HW1  714   1.613   1.510   1.477 -3.9496  1.8392 -0.2813
  179SOL    HW2  715   1.680   1.463   1.350 -0.0594 -2.9590  1.0416
  179SOL     MW  716   1.608   1.473   1.399 -0.4983 -0.1500  0.3532
  180SOL     OW  717   0.030   0.223   0.419 -0.2987 -0.2259 -0.5279
  180SOL    HW1  718  -0.056   0.258   0.400 -0.2268  0.4675 -0.1495
  180SOL    HW2  719   0.068   0.303   0.459 -3.0092 -1.0173 -0.3488
  180SOL     MW  720   0.023   0.238   0.422 -0.6468 -0.2389 -0.4544
  181SOL     OW  721   1.049   1.322   0.019 -0.0583  0.3332 -0.5600
  181SOL    HW1  722   1.096   1.406   0.016 -1.8647 -0.3599 -0.9018
  181SOL    HW2  723   1.124   1.260  -0.006  2.2089 -2.1548  2.8022
  181SOL     MW  724   1.065   1.325   0.015  0.0025 -0.0865 -0.1615
  182SOL     OW  725   0.362   0.945   1.681  0.3083  0.2810  0.9027
  182SOL    HW1  726   0.274   0.940   1.718  0.5363  2.0146  3.4421
  182SOL    HW2  727   0.415   0.889   1.744 -1.8222  0.0435  1.0276
  182SOL     MW  728   0.358   0.937   1.694  0.0573  0.4784  1.2543
  183SOL     OW  729   1.518   1.738   1.244 -0.1150 -0.1106  0.0168
  183SOL    HW1  730   1.601   1.782   1.243 -0.3001  1.5395  0.7718
  183SOL    HW2  731   1.533   1.667   1.296 -1.2005  0.2010 -2.8358
  183SOL     MW  732   1.531   1.734   1.251 -0.2827  0.1482 -0.2600
  184SOL     OW  733   0.860   0.638   1.700  0.4633  0.0892  0.5432
  184SOL    HW1  734   0.937   0.690   1.694 -0.2057 -2.4966  0.6231
  184SOL    HW2  735   0.862   0.595   1.784 -2.5725  0.1878 -0.1176
  184SOL     MW  736   0.870   0.639   1.710 -0.0255 -0.2390  0.4666
  185SOL     OW  737   1.084   0.952   1.848  0.0580 -0.2574 -0.5048
  185SOL    HW1  738   1.051   0.866   1.855  0.2184  0.8747 -2.9134
  185SOL    HW2  739   1.134   0.969   1.931  1.0950  1.8627  2.2373
  185SOL     MW  740   1.086   0.943   1.860  0.2160  0.1717 -0.4608
  186SOL     OW  741   0.298   1.644   1.515 -0.4525 -0.1867  0.0657
  186SOL    HW1  742   0.318   1.589   1.440 -0.3841  0.1287  1.6687
  186SOL    HW2  743   0.211   1.624   1.548 -1.0960  1.8213  1.1022
  186SOL     MW  744   0.289   1.634   1.509 -0.5284  0.1198  0.4139
  187SOL     OW  745   1.410   0.861   1.355  0.4510  0.1783 -0.4421
  187SOL    HW1  746   1.422   0.880   1.447 -1.4747  1.5065  0.9263
  187SOL    HW2  747   1.316   0.855   1.359  2.1280 -0.6735 -1.4472
  187SOL     MW  748   1.399   0.863   1.368  0.4182  0.2411 -0.3941
  188SOL     OW  749   1.869   1.215   0.918 -0.2590  0.0022  0.4270
  188SOL    HW1  750   1.883   1.213   1.014 -0.8504 -2.8257  0.1327
  188SOL    HW2  751   1.866   1.123   0.894  0.6094 -1.1790 -0.5805
  188SOL     MW  752   1.871   1.203   0.928 -0.2225 -0.5268  0.2552
  189SOL     OW  753   0.735   0.756   0.849  0.5214  0.3524  0.0482
  189SOL    HW1  754   0.662   0.817   0.855  0.3226  0.2495 -1.4454
  189SOL    HW2  755   0.793   0.784   0.916 -1.4441 -1.4987 -1.2320
  189SOL     MW  756   0.733   0.768   0.859  0.2359  0.0946 -0.3178
  190SOL     OW  757   1.860   0.311   2.047 -0.7831  0.5874  0.5476
  190SOL    HW1  758   1.843   0.291   2.136 -0.5300 -0.6591  0.1881
  190SOL    HW2  759   1.934   0.380   2.045  2.4516 -1.6624 -0.6927
  190SOL     MW  760   1.868   0.317   2.058 -0.3229  0.1261  0.3366
  191SOL     OW  761   1.500   1.075   1.203  0.1723  0.4236 -0.3851
  191SOL    HW1  762   1.495   1.127   1.288  0.8532  1.7594  2.2348
  191SOL    HW2  763   1.452   0.995   1.224 -1.1249 -1.5518 -1.4315
  191SOL     MW  764   1.493   1.071   1.217  0.0910  0.3392 -0.1775
  192SOL     OW  765   0.538   2.208   2.931  0.0451  0.1794 -0.4578
  192SOL    HW1  766   0.525   2.237   2.839 -0.5830 -2.5131 -0.0650
  192SOL    HW2  767   0.503   2.120   2.923  1.7732  1.1133  2.0465
  192SOL     MW  768   0.532   2.200   2.918  0.1902 -0.0526 -0.0755
  193SOL     OW  769   0.823   1.669   0.781  0.3966 -0.0912  0.2005
  193SOL    HW1  770   0.746   1.712   0.796 -2.5530 -1.5840 -2.1662
  193SOL    HW2  771   0.791   1.601   0.713  1.7459 -1.7680 -1.2361
  193SOL     MW  772   0.808   1.665   0.774  0.1855 -0.5094 -0.3013
  194SOL     OW  773   0.409   1.356   0.833 -0.3574 -0.1190 -0.1994
  194SOL    HW1  774   0.372   1.316   0.914  3.1550  2.9370 -1.8968
  194SOL    HW2  775   0.335   1.394   0.790  0.6757  0.3649  0.2595
  194SOL     MW  776   0.394   1.355   0.838  0.2424  0.3480 -0.3628
  195SOL     OW  777   1.209   1.132   2.998 -0.1959  0.3769  0.6677
  195SOL    HW1  778   1.239   1.102   3.086 -0.6893 -0.4523  2.9901
  195SOL    HW2  779   1.160   1.049   2.975 -2.5793  2.4886  1.9099
  195SOL     MW  780   1.206   1.117   3.006 -0.5755  0.5461  1.1380
  196SOL     OW  781   2.256   0.966   0.522 -0.0562  0.0475  0.4958
  196SOL    HW1  782   2.312   0.970   0.438 -0.3429  1.6673  0.2170
  196SOL    HW2  783   2.249   1.057   0.540  3.5292 -1.5243  0.2533
  196SOL     MW  784   2.263   0.979   0.513  0.3790  0.0538  0.4270
  197SOL     OW  785   0.636   1.261   2.208  0.5792 -0.8015  0.5399
  197SOL    HW1  786   0.666   1.185   2.158  1.5164  1.0151  1.4421
  197SOL    HW2  787   0.661   1.332   2.153 -1.5689 -1.0332  2.7635
  197SOL     MW  788   0.644   1.260   2.194  0.4194 -0.5924  0.9523
  198SOL     OW  789   2.909   1.380   1.054 -0.0311  0.5945  0.1532
  198SOL    HW1  790   2.897   1.468   1.019 -1.0776  0.5204 -0.2320
  198SOL    HW2  791   2.824   1.332   1.036 -3.9541 -0.2286 -0.8974
  198SOL     MW  792   2.896   1.385   1.047 -0.6868  0.4761 -0.0362
  199SOL     OW  793   0.653   1.202   1.810  0.2682  0.0779 -0.4678
  199SOL    HW1  794   0.557   1.202   1.828  2.8340 -0.7336 -1.6565
  199SOL    HW2  795   0.670   1.282   1.762  0.9832 -3.0505  3.1814
  199SOL     MW  796   0.643   1.212   1.806  0.7011 -0.4419 -0.1431
  200SOL     OW  797   1.881   2.956   1.302  0.4422  0.0277  0.0879
  200SOL    HW1  798   1.933   2.950   1.217  1.2772  0.5975 -1.2375
  200SOL    HW2  799   1.843   3.045   1.287 -0.0075  0.6167  0.0340
  200SOL     MW  800   1.883   2.967   1.289  0.4931  0.1806 -0.0941
  201SOL     OW  801   1.208   0.325   0.864  0.0776  0.3456 -0.3463
  201SOL    HW1  802   1.172   0.246   0.829  3.3893  0.7269  0.4493
  201SOL    HW2  803   1.304   0.309   0.855 -0.9560  0.1565  0.1634
  201SOL     MW  804   1.216   0.313   0.858  0.3782  0.3709 -0.1741
  202SOL     OW  805   1.397   1.664   1.004 -0.7602 -0.1691 -0.5167
  202SOL    HW1  806   1.432   1.583   0.973 -0.2121 -1.1122  1.2928
  202SOL    HW2  807   1.455   1.689   1.084  0.4718  3.8432  0.4528
  202SOL     MW  808   1.410   1.657   1.011 -0.5253  0.2359 -0.1500
  203SOL     OW  809   0.006   0.427   1.334 -0.2184  0.6557 -0.5282
  203SOL    HW1  810   0.001   0.332   1.320 -0.9118 -0.2441  3.5937
  203SOL    HW2  811   0.056   0.468   1.264  0.5082  1.8607  0.9397
  203SOL     MW  812   0.012   0.420   1.323 -0.2140  0.6960  0.2093
  204SOL     OW  813   1.029   1.813   0.641  0.0222 -0.2083 -0.5074
  204SOL    HW1  814   0.970   1.772   0.703  1.5158 -1.7247 -0.0839
  204SOL    HW2  815   0.972   1.827   0.564  1.0404  0.5720 -0.8166
  204SOL     MW  816   1.014   1.810   0.639  0.3536 -0.3054 -0.4923
  205SOL     OW  817   1.386   2.996   1.376 -0.3341  0.0896 -0.1503
  205SOL    HW1  818   1.364   2.961   1.293 -1.1503 -0.8930  1.9654
  205SOL    HW2  819   1.317   3.060   1.390  0.7472  0.4837  2.1530
  205SOL     MW  820   1.374   3.000   1.367 -0.2991  0.0119  0.4328
  206SOL     OW  821   0.337   2.871   1.381 -0.4740  0.1259  0.0922
  206SOL    HW1  822   0.327   2.904   1.290  0.0450  0.8071 -0.1910
  206SOL    HW2  823   0.428   2.849   1.388 -1.4907  1.2399 -1.7412
  206SOL     MW  824   0.348   2.872   1.370 -0.5397  0.3627 -0.1871
  207SOL     OW  825   0.851   1.716   0.213 -0.5614 -0.3384  0.0672
  207SOL    HW1  826   0.936   1.739   0.170 -1.1192  2.9381  0.7695
  207SOL    HW2  827   0.865   1.634   0.263 -0.7326  0.0603  0.2587
  207SOL     MW  828   0.864   1.708   0.214 -0.6576  0.1465  0.1851
  208SOL     OW  829   0.766   1.505   1.370 -0.4054  0.1921 -0.2263
  208SOL    HW1  830   0.819   1.574   1.330  0.9873  3.4060 -0.1471
  208SOL    HW2  831   0.762   1.432   1.300 -1.7204  3.2886  0.8209
  208SOL     MW  832   0.772   1.504   1.356 -0.3952  1.0247 -0.0777
  209SOL     OW  833   1.613   0.500   2.815 -0.6191 -0.4821 -0.0379
  209SOL    HW1  834   1.654   0.584   2.844 -2.4258 -2.7567  2.6521
  209SOL    HW2  835   1.682   0.432   2.813  1.2164  0.5528 -3.2578
  209SOL     MW  836   1.627   0.502   2.819 -0.6153 -0.6457 -0.1078
  210SOL     OW  837   1.450   1.410   0.929 -0.2824  0.1923 -0.8112
  210SOL    HW1  838   1.551   1.422   0.920 -0.3085  0.4901  0.4866
  210SOL    HW2  839   1.412   1.429   0.838  1.3475  1.3945 -1.7480
  210SOL     MW  840   1.458   1.414   0.916 -0.0708  0.3902 -0.7636
  211SOL     OW  841   1.749   0.376   0.857 -0.1459 -1.6640 -0.0421
  211SOL    HW1  842   1.739   0.374   0.762 -0.0989 -1.1188  0.8094
  211SOL    HW2  843   1.838   0.390   0.889  3.3079  1.4888  0.9989
  211SOL     MW  844   1.759   0.378   0.848  0.3160 -1.1761  0.2076
  212SOL     OW  845   0.404   1.209   0.233 -0.4041 -0.3364  0.0914
  212SOL    HW1  846   0.346   1.133   0.243 -0.0048 -2.0498 -2.5286
  212SOL    HW2  847   0.468   1.183   0.159  2.7902 -3.7031 -4.4721
  212SOL     MW  848   0.405   1.195   0.224  0.0700 -1.0067 -0.8564
  213SOL     OW  849   0.421   1.810   3.078 -0.4302 -0.1735  0.0141
  213SOL    HW1  850   0.473   1.834   3.157  1.8259  0.0975 -0.3808
  213SOL    HW2  851   0.479   1.859   3.015 -0.3129 -1.4735  0.5748
  213SOL     MW  852   0.436   1.819   3.080 -0.1171 -0.3093  0.0360
  214SOL     OW  853   0.582   0.346   2.118  0.2854 -0.3460 -0.1107
  214SOL    HW1  854   0.506   0.397   2.127  1.4232  0.1648  1.8953
  214SOL    HW2  855   0.578   0.327   2.020  0.3194 -1.7344  1.9069
  214SOL     MW  856   0.572   0.350   2.106  0.4400 -0.4618  0.4202
  215SOL     OW  857   0.572   0.584   2.509  0.7601 -0.0150 -0.0458
  215SOL    HW1  858   0.499   0.606   2.454  0.2360  1.4079  0.8454
  215SOL    HW2  859   0.601   0.510   2.461 -0.5416  0.9865  1.1433
  215SOL     MW  860   0.567   0.577   2.495  0.5192  0.3049  0.2287
  216SOL     OW  861   2.932   3.074   2.832  0.1861 -0.5005 -0.7407
  216SOL    HW1  862   2.840   3.072   2.804  2.1957 -1.6181 -0.6295
  216SOL    HW2  863   2.964   3.149   2.787  0.3780  1.4311 -1.8814
  216SOL     MW  864   2.924   3.083   2.822  0.4766 -0.3931 -0.8766
  217SOL     OW  865   0.916   1.102   0.141 -0.4709 -0.2215  0.0243
  217SOL    HW1  866   0.938   1.060   0.059 -1.3176  0.8541  1.3899
  217SOL    HW2  867   0.961   1.191   0.128 -0.1991  1.5589 -3.0576
  217SOL     MW  868   0.925   1.109   0.128 -0.5468  0.1553 -0.2022
  218SOL     OW  869   0.825   1.405   2.614  0.0278  0.2547 -0.5737
  218SOL    HW1  870   0.808   1.328   2.674 -0.3343  1.9048  0.8475
  218SOL    HW2  871   0.918   1.429   2.645  1.5081  1.0587  0.5235
  218SOL     MW  872   0.835   1.398   2.626  0.1753  0.5785 -0.2414
  219SOL     OW  873   1.080   0.441   2.518 -0.0801 -0.3835 -0.8097
  219SOL    HW1  874   1.126   0.457   2.435  1.9446  1.4622 -3.2494
  219SOL    HW2  875   1.022   0.515   2.525 -0.2042 -1.6802  1.8776
  219SOL     MW  876   1.079   0.453   2.508  0.1707 -0.3111 -0.7770
  220SOL     OW  877   1.664   0.502   2.190 -0.5986 -0.0734 -0.6842
  220SOL    HW1  878   1.587   0.560   2.177 -1.2522 -2.4821  1.1259
  220SOL    HW2  879   1.661   0.448   2.114 -0.6274 -0.6319  1.0855
  220SOL     MW  880   1.654   0.502   2.178 -0.6886 -0.4649 -0.2119
  221SOL     OW  881   0.336   1.363   2.934 -0.0209  0.0543  0.2533
  221SOL    HW1  882   0.399   1.289   2.932 -0.3360  1.6078  2.9422
  221SOL    HW2  883   0.389   1.431   2.901 -0.0452  0.2317 -1.2997
  221SOL     MW  884   0.351   1.362   2.929 -0.0657  0.2827  0.4032
  222SOL     OW  885   0.505   0.918   2.726 -0.1735 -0.0250 -0.5513
  222SOL    HW1  886   0.431   0.891   2.672 -1.5337 -1.7692  1.0794
  222SOL    HW2  887   0.561   0.841   2.736 -0.3960  1.0537  1.3580
  222SOL     MW  888   0.503   0.905   2.720 -0.3823 -0.1128 -0.0842
  223SOL     OW  889   3.043   2.062   2.552 -0.6203 -0.0678  0.6321
  223SOL    HW1  890   3.075   2.040   2.639  1.5440  0.8464  1.9719
  223SOL    HW2  891   3.104   2.131   2.528  1.1489 -0.5341 -2.0192
  223SOL     MW  892   3.055   2.068   2.560 -0.1013 -0.0087  0.4591
  224SOL     OW  893   1.436   0.578   2.410 -0.2641 -0.7309  0.1196
  224SOL    HW1  894   1.496   0.557   2.475 -0.2871  0.3119  0.3116
  224SOL    HW2  895   1.435   0.675   2.414  1.2034 -0.4808  0.0955
  224SOL     MW  896   1.444   0.588   2.419 -0.0735 -0.5603  0.1417
  225SOL     OW  897   2.908   1.508   2.187  0.0126 -0.1174 -0.4229
  225SOL    HW1  898   2.964   1.584   2.171 -1.2326 -1.9400  1.0504
  225SOL    HW2  899   2.854   1.528   2.263  0.9099  0.9361  1.5504
  225SOL     MW  900   2.908   1.521   2.195 -0.0333 -0.2188  0.0319
  226SOL     OW  901   0.447   1.567   2.731 -0.1752 -0.2576  0.8099
  226SOL    HW1  902   0.516   1.590   2.667  0.6097 -3.2000  0.1195
  226SOL    HW2  903   0.384   1.638   2.731 -1.0349 -1.1711 -0.1750
  226SOL     MW  904   0.448   1.579   2.723 -0.1850 -0.7663  0.5889
  227SOL     OW  905   0.499   1.133   2.870 -0.1874  0.2536 -0.0266
  227SOL    HW1  906   0.568   1.186   2.831  2.6881 -0.2177 -1.1056
  227SOL    HW2  907   0.493   1.051   2.814 -2.5382 -1.1233 -2.5145
  227SOL     MW  908   0.507   1.129   2.857 -0.1182  0.0098 -0.4972
  228SOL     OW  909   0.802   1.109   2.036  0.1612  0.2610  0.1110
  228SOL    HW1  910   0.767   1.128   1.954 -0.6613 -0.9202  2.4299
  228SOL    HW2  911   0.872   1.174   2.045 -1.8511  1.0894  1.9531
  228SOL     MW  912   0.807   1.120   2.027 -0.2128  0.2144  0.6600
  229SOL     OW  913   0.171   0.584   0.028 -0.0962 -0.5305 -0.0380
  229SOL    HW1  914   0.113   0.560  -0.050 -1.5349  0.7879  0.0487
  229SOL    HW2  915   0.149   0.510   0.083 -1.7768  2.2408  1.6344
  229SOL     MW  916   0.160   0.571   0.025 -0.5077  0.0091  0.1941
  230SOL     OW  917   1.753   1.388   2.178 -0.2784  0.4357  0.5042
  230SOL    HW1  918   1.696   1.376   2.250 -2.8228  0.5537 -1.6227
  230SOL    HW2  919   1.785   1.305   2.138 -0.1632  1.3185  0.3639
  230SOL     MW  920   1.750   1.376   2.182 -0.5989  0.5677  0.2050
  231SOL     OW  921   2.714   1.229   2.201  0.2108 -0.8085 -0.5261
  231SOL    HW1  922   2.756   1.310   2.228 -0.0281 -0.3632 -0.2836
  231SOL    HW2  923   2.630   1.254   2.152  0.7804  2.6420  0.0815
  231SOL     MW  924   2.708   1.243   2.198  0.2544 -0.2945 -0.4139
  232SOL     OW  925   2.267   0.888   2.011  0.6153 -0.1074  0.4637
  232SOL    HW1  926   2.189   0.900   1.959  0.3016 -2.7151 -2.4680
  232SOL    HW2  927   2.257   0.806   2.068 -1.4419 -0.3223 -1.7324
  232SOL     MW  928   2.255   0.878   2.012  0.3025 -0.4798 -0.2129
  233SOL     OW  929   2.106   0.455   2.042  0.3356  0.0342 -0.6709
  233SOL    HW1  930   2.154   0.382   2.024 -1.0654  3.9353  2.6309
  233SOL    HW2  931   2.112   0.465   2.136  0.0090 -0.7678 -0.0564
  233SOL     MW  932   2.113   0.447   2.052  0.1077  0.4431 -0.1542
  234SOL     OW  933   0.265   1.051   2.626 -0.0914 -0.3720  0.2208
  234SOL    HW1  934   0.218   1.059   2.543  2.0507 -0.1109  0.7213
  234SOL    HW2  935   0.313   1.128   2.634 -0.4251 -0.9725 -2.3032
  234SOL     MW  936   0.265   1.062   2.616  0.1472 -0.4168 -0.0462
  235SOL     OW  937   1.100   0.031   2.813  0.3532  0.4670 -0.0063
  235SOL    HW1  938   1.156   0.037   2.887  2.3707  0.6021 -0.0607
  235SOL    HW2  939   1.092   0.125   2.789  0.3029  0.2643 -0.4692
  235SOL     MW  940   1.106   0.044   2.819  0.6127  0.4581 -0.0745
  236SOL     OW  941   2.954   0.628   0.151  0.2552 -0.1614 -0.1356
  236SOL    HW1  942   2.969   0.643   0.242 -0.0745 -0.1455  1.2664
  236SOL    HW2  943   3.017   0.686   0.101  0.3154  1.6460 -0.0488
  236SOL     MW  944   2.964   0.638   0.157  0.2197  0.0791  0.0609
  237SOL     OW  945   1.926   1.125   2.134  0.3594  0.2657  0.2263
  237SOL    HW1  946   1.850   1.058   2.148  1.1004  0.9969  0.9762
  237SOL    HW2  947   1.996   1.087   2.073  0.5974 -4.4598  1.2618
  237SOL     MW  948   1.925   1.111   2.128  0.4886 -0.2614  0.4618
  238SOL     OW  949   1.103   1.699   2.903  0.3520 -0.1054  0.3146
  238SOL    HW1  950   1.054   1.613   2.898 -1.4099 -0.9835  0.8031
  238SOL    HW2  951   1.196   1.672   2.905 -1.9642 -2.2431 -3.5294
  238SOL     MW  952   1.108   1.684   2.902 -0.1861 -0.5033 -0.1281
  239SOL     OW  953   1.178   1.277   2.383  0.3228  0.5469  0.3346
  239SOL    HW1  954   1.111   1.346   2.386 -2.2305 -3.8261  1.6689
  239SOL    HW2  955   1.190   1.244   2.471 -0.0835 -0.3934 -0.6796
  239SOL     MW  956   1.171   1.282   2.395 -0.0677 -0.1542  0.3768
  240SOL     OW  957   0.593   0.843   2.309  0.3193  0.1957  0.3501
  240SOL    HW1  958   0.644   0.867   2.387  0.9269 -0.1570 -0.5326
  240SOL    HW2  959   0.667   0.843   2.251  0.8429  1.5617  3.1198
  240SOL     MW  960   0.610   0.846   2.312  0.4686  0.3294  0.5991
  241SOL     OW  961   0.672   0.459   3.093  0.0059 -0.0359  0.5252
  241SOL    HW1  962   0.713   0.536   3.143 -1.0086  2.7421 -1.8163
  241SOL    HW2  963   0.591   0.496   3.059  1.7667  0.5521  0.6302
  241SOL     MW  964   0.667   0.474   3.095  0.1044  0.4082  0.2302
  242SOL     OW  965   1.506   1.611   2.289 -0.7240  0.0035  0.0796
  242SOL    HW1  966   1.459   1.682   2.333 -1.1845 -0.8886 -0.4697
  242SOL    HW2  967   1.434   1.569   2.242 -1.5017 -0.6069 -1.4556
  242SOL     MW  968   1.491   1.615   2.289 -0.8874 -0.1948 -0.1955
  243SOL     OW  969   0.961   0.192   2.451  0.1540 -0.2780  0.6275
  243SOL    HW1  970   1.035   0.136   2.425 -0.4410 -0.6289 -0.3173
  243SOL    HW2  971   1.004   0.263   2.495 -2.9651 -2.7094  0.1542
  243SOL     MW  972   0.977   0.194   2.453 -0.3360 -0.6451  0.4404
  244SOL     OW  973   0.103   0.782   2.379 -0.5073 -1.1286 -0.3029
  244SOL    HW1  974   0.072   0.872   2.392  0.1369  0.5842 -0.2909
  244SOL    HW2  975   0.197   0.783   2.361  3.7800 -0.5257 -1.8536
  244SOL     MW  976   0.111   0.794   2.378  0.1433 -0.8231 -0.5059
  245SOL     OW  977   1.229   0.101   2.399 -0.8625  0.1155  0.0334
  245SOL    HW1  978   1.301   0.088   2.342 -2.7154  0.3749 -0.2819
  245SOL    HW2  979   1.255   0.053   2.473  1.4455  1.7602 -2.7003
  245SOL     MW  980   1.242   0.093   2.401 -0.8024  0.3668 -0.3689
  246SOL     OW  981   1.165   1.072   2.087 -0.0229  0.0702  0.2308
  246SOL    HW1  982   1.107   1.067   2.162 -3.0759 -0.1105 -0.9524
  246SOL    HW2  983   1.246   1.043   2.131 -1.1208 -0.6913  2.3505
  246SOL     MW  984   1.168   1.068   2.102 -0.5706 -0.0541  0.3544
  247SOL     OW  985   0.774   0.649   0.157 -0.2741 -0.2204 -0.3730
  247SOL    HW1  986   0.763   0.747   0.146 -0.1466  0.1092 -1.8265
  247SOL    HW2  987   0.856   0.627   0.125 -1.4653  0.7841  1.0139
  247SOL     MW  988   0.784   0.659   0.151 -0.4144 -0.0444 -0.3818
  248SOL     OW  989   0.357   1.309   2.616  0.1988 -0.2122 -0.4503
  248SOL    HW1  990   0.353   1.329   2.524  0.4113  0.2226 -1.0412
  248SOL    HW2  991   0.385   1.387   2.660  0.4903 -0.4011 -1.6551
  248SOL     MW  992   0.360   1.322   2.610  0.2653 -0.1797 -0.6872
  249SOL     OW  993   3.027   1.871   2.797  0.1084 -0.4975 -0.2603
  249SOL    HW1  994   2.961   1.808   2.782 -0.2331  1.1721  1.6563
  249SOL    HW2  995   3.100   1.837   2.850 -0.1241 -3.6511 -1.0719
  249SOL     MW  996   3.028   1.858   2.802  0.0327 -0.6933 -0.1145
  250SOL     OW  997   2.282   0.695   2.217  0.8032  0.1791  0.8036
  250SOL    HW1  998   2.214   0.650   2.265 -2.2593 -0.4923 -0.7715
  250SOL    HW2  999   2.345   0.730   2.277 -1.3577  0.9196 -3.4717
  250SOL     MW 1000   2.281   0.694   2.231  0.1140  0.1882  0.0317
  251SOL     OW 1001   0.146   0.885   1.977 -0.5835  0.1341 -0.4278
  251SOL    HW1 1002   0.107   0.796   2.005  0.3698 -0.4165 -0.4936
  251SOL    HW2 1003   0.136   0.892   1.881  1.2616  1.3523 -1.4475
  251SOL     MW 1004   0.140   0.875   1.968 -0.2143  0.2222 -0.5710
  252SOL     OW 1005   1.725   1.024   2.901  0.1368 -0.3485  0.4627
  252SOL    HW1 1006   1.713   1.085   2.973  2.8224  1.1870  0.8907
  252SOL    HW2 1007   1.798   1.066   2.848  0.9046  2.0918 -2.4523
  252SOL     MW 1008   1.733   1.037   2.904  0.5924  0.1761  0.1346
  253SOL     OW 1009   1.141   1.672   2.559 -0.3022  0.3770  0.3834
  253SOL    HW1 1010   1.099   1.630   2.484 -2.3741 -0.7783 -1.2005
  253SOL    HW2 1011   1.079   1.739   2.573  0.4631 -1.4862  1.6495
  253SOL     MW 1012   1.127   1.675   2.551 -0.4746 -0.0213  0.3415
  254SOL     OW 1013   0.973   1.024   2.282  0.0536 -0.6804 -0.2045
  254SOL    HW1 1014   0.889   0.983   2.251  1.2887 -0.7448  0.3314
  254SOL    HW2 1015   0.942   1.100   2.328 -1.1420 -2.2608  0.2999
  254SOL     MW 1016   0.958   1.029   2.284  0.0588 -0.8974 -0.0672
  255SOL     OW 1017   0.864   2.440   2.164 -0.1681 -0.3535 -0.2242
  255SOL    HW1 1018   0.779   2.389   2.143 -2.2017 -0.2631 -2.5956
  255SOL    HW2 1019   0.936   2.377   2.197  1.3323  0.5411  0.4534
  255SOL     MW 1020   0.862   2.425   2.165 -0.2384 -0.2236 -0.4477
  256SOL     OW 1021   1.315   2.823   3.067  0.0928 -0.8513 -0.1367
  256SOL    HW1 1022   1.354   2.760   3.127  1.6075  0.4397 -0.6713
  256SOL    HW2 1023   1.382   2.820   2.994  1.6861 -2.7257  1.7749
  256SOL     MW 1024   1.329   2.814   3.065  0.5029 -0.9283  0.0449
  257SOL     OW 1025   0.082   1.966   0.041  0.7063 -0.4439  0.4802
  257SOL    HW1 1026   0.134   1.925   0.114 -1.6902  0.2516  2.2001
  257SOL    HW2 1027   0.124   1.947  -0.044  1.9556 -2.8083 -0.0298
  257SOL     MW 1028   0.095   1.958   0.039  0.5550 -0.6641  0.6398
  258SOL     OW 1029   0.708   0.973   2.527 -0.0078 -0.3573 -0.5007
  258SOL    HW1 1030   0.743   1.065   2.500 -0.1646 -0.6993  0.6907
  258SOL    HW2 1031   0.622   0.972   2.564  3.0288  1.1729 -0.5041
  258SOL     MW 1032   0.701   0.985   2.528  0.3722 -0.2005 -0.3440
  259SOL     OW 1033   0.808   0.427   2.262 -0.1486  0.2955  0.1378
  259SOL    HW1 1034   0.728   0.390   2.226  1.4349 -0.2527 -0.5175
  259SOL    HW2 1035   0.849   0.354   2.297  0.1463  0.9895 -1.6466
  259SOL     MW 1036   0.803   0.413   2.262  0.0992  0.3147 -0.1841
  260SOL     OW 1037   0.668   0.086   1.617 -0.3517 -0.0477  0.6815
  260SOL    HW1 1038   0.618   0.144   1.561 -0.6425 -0.7983 -1.7795
  260SOL    HW2 1039   0.758   0.092   1.589 -2.2189  4.3623 -1.6671
  260SOL     MW 1040   0.673   0.094   1.606 -0.6364  0.4351  0.0469
  261SOL     OW 1041   1.008   0.718   2.014 -0.2528 -0.3039 -0.0330
  261SOL    HW1 1042   1.065   0.724   2.093  0.9137 -2.3065 -0.4501
  261SOL    HW2 1043   0.970   0.622   2.005  0.8213 -3.1079  0.8731
  261SOL     MW 1044   1.011   0.706   2.024  0.0428 -0.9381  0.0315
  262SOL     OW 1045   1.125   0.326   0.143  1.1082 -0.1770  0.2415
  262SOL    HW1 1046   1.215   0.340   0.107 -0.2457  3.0067 -0.4443
  262SOL    HW2 1047   1.074   0.279   0.079 -0.1325  0.8807 -0.0326
  262SOL     MW 1048   1.130   0.321   0.130  0.7659  0.3826  0.1148
  263SOL     OW 1049   0.359   0.016   2.470 -0.2808  0.2101 -0.2103
  263SOL    HW1 1050   0.270   0.046   2.497 -2.4544 -1.5954 -1.4739
  263SOL    HW2 1051   0.388   0.062   2.386  0.7746 -1.0011 -3.9488
  263SOL     MW 1052   0.351   0.026   2.463 -0.4283 -0.1879 -0.8703
  264SOL     OW 1053   1.540   1.466   1.962 -0.2474  0.1669  0.5816
  264SOL    HW1 1054   1.498   1.378   1.968  3.3199  0.1923  1.8567
  264SOL    HW2 1055   1.578   1.481   2.053  3.4359  0.4322  1.0196
  264SOL     MW 1056   1.539   1.456   1.974  0.7093  0.2052  0.8076
  265SOL     OW 1057   0.719   2.776   2.329  0.5827  0.0720 -0.1538
  265SOL    HW1 1058   0.816   2.774   2.345  0.5562  1.2467 -0.2749
  265SOL    HW2 1059   0.691   2.799   2.420 -2.4453  1.5041 -0.0317
  265SOL     MW 1060   0.728   2.779   2.343  0.1797  0.4160 -0.1537
  266SOL     OW 1061   0.785   0.859   2.126  0.0332  0.2661 -0.5774
  266SOL    HW1 1062   0.796   0.946   2.089 -2.5718 -0.9414 -1.5004
  266SOL    HW2 1063   0.856   0.807   2.082 -0.9946  0.6265 -0.9275
  266SOL     MW 1064   0.796   0.864   2.115 -0.4461  0.1543 -0.7454
  267SOL     OW 1065   1.364   1.732   2.706 -0.7479  0.2568  0.2686
  267SOL    HW1 1066   1.426   1.674   2.662 -0.1891  1.8662  0.9557
  267SOL    HW2 1067   1.275   1.718   2.663 -1.1126 -0.8362  2.2579
  267SOL     MW 1068   1.360   1.722   2.695 -0.7223  0.3249  0.6217
  268SOL     OW 1069   0.086   0.895   1.689  0.1963 -0.4865 -0.6644
  268SOL    HW1 1070   0.004   0.920   1.734  3.3209  1.4821  1.4468
  268SOL    HW2 1071   0.063   0.818   1.626 -2.1997 -0.7448 -2.7877
  268SOL     MW 1072   0.072   0.888   1.686  0.2924 -0.2609 -0.6660
  269SOL     OW 1073   1.338   1.808   2.402 -0.4534 -0.3261 -0.6482
  269SOL    HW1 1074   1.348   1.890   2.450 -2.6242 -0.9853  1.0726
  269SOL    HW2 1075   1.260   1.761   2.438  2.5615  0.1171  4.1376
  269SOL     MW 1076   1.329   1.813   2.413 -0.3420 -0.3546  0.2103
  270SOL     OW 1077   1.101   0.483   1.540  0.4005  0.2582  0.2019
  270SOL    HW1 1078   1.034   0.423   1.566  1.4232  0.3205  0.8269
  270SOL    HW2 1079   1.183   0.443   1.544 -2.1505  0.8311 -2.5070
  270SOL     MW 1080   1.103   0.470   1.544  0.1988  0.3420 -0.0731
  271SOL     OW 1081   0.723   0.104   2.566 -0.2820  0.4977 -0.4458
  271SOL    HW1 1082   0.751   0.064   2.647 -1.1252 -1.2079 -1.9222
  271SOL    HW2 1083   0.803   0.135   2.528  0.9667 -2.9285 -0.4491
  271SOL     MW 1084   0.737   0.103   2.572 -0.2285 -0.1794 -0.6410
  272SOL     OW 1085   1.488   2.801   2.844  0.1268 -0.0423  0.1582
  272SOL    HW1 1086   1.443   2.784   2.764 -1.2325 -1.5485 -0.8752
  272SOL    HW2 1087   1.551   2.882   2.833 -0.0732 -0.1500  1.6525
  272SOL     MW 1088   1.491   2.810   2.832 -0.0789 -0.2552  0.2190
  273SOL     OW 1089   1.444   0.788   2.825 -0.4541 -0.2205  0.6336
  273SOL    HW1 1090   1.538   0.784   2.807 -0.7327  1.6543 -0.7098
  273SOL    HW2 1091   1.423   0.881   2.814 -0.1636 -0.9732 -1.8677
  273SOL     MW 1092   1.453   0.800   2.821 -0.4525 -0.0724  0.1263
  274SOL     OW 1093   1.403   0.660   0.153  0.5049  0.4384  0.4909
  274SOL    HW1 1094   1.451   0.579   0.184 -2.0968 -0.3390  1.2512
  274SOL    HW2 1095   1.326   0.674   0.220  1.1667  1.4571  0.4528
  274SOL     MW 1096   1.399   0.651   0.166  0.2490  0.4702  0.5862
  275SOL     OW 1097   1.885   0.556   1.715  0.3901  0.0827  0.0080
  275SOL    HW1 1098   1.927   0.594   1.790  2.1277 -0.7763  0.8342
  275SOL    HW2 1099   1.887   0.463   1.726 -0.2213 -0.7070  0.9603
  275SOL     MW 1100   1.891   0.549   1.726  0.5387 -0.1348  0.2427
  276SOL     OW 1101   0.423   1.171   1.962  0.1212 -0.3010  0.2345
  276SOL    HW1 1102   0.430   1.082   1.992  1.9517  1.5022 -0.5403
  276SOL    HW2 1103   0.360   1.221   2.019  0.1245  0.8432  2.7102
  276SOL     MW 1104   0.416   1.166   1.973  0.3632  0.0879  0.4590
  277SOL     OW 1105   1.983   1.157   2.439  0.3514  0.3349 -0.2183
  277SOL    HW1 1106   2.027   1.221   2.498  1.1194  0.8858  1.3522
  277SOL    HW2 1107   1.887   1.162   2.455  0.6210 -0.7657 -0.0723
  277SOL     MW 1108   1.976   1.166   2.449  0.4883  0.2624  0.0082
  278SOL     OW 1109   1.447   0.618   1.612  0.0454  0.2091 -0.0671
  278SOL    HW1 1110   1.455   0.588   1.710  1.1611  2.6051 -1.7068
  278SOL    HW2 1111   1.536   0.645   1.587  0.9016 -0.5331 -0.1966
  278SOL     MW 1112   1.460   0.617   1.621  0.3056  0.4273 -0.3005
  279SOL     OW 1113   0.506   0.079   2.204  0.2832 -0.1830  0.2218
  279SOL    HW1 1114   0.590   0.024   2.208  0.1266  1.3442  0.4258
  279SOL    HW2 1115   0.544   0.160   2.171 -0.2321 -1.1824  1.9101
  279SOL     MW 1116   0.522   0.082   2.200  0.1945 -0.1133  0.4715
  280SOL     OW 1117   1.411   0.984   2.246  0.9346  0.0356  0.2891
  280SOL    HW1 1118   1.498   1.016   2.218  2.1485  0.4730  0.3785
  280SOL    HW2 1119   1.410   0.935   2.328  0.7116 -1.1953 -0.0577
  280SOL     MW 1120   1.422   0.982   2.253  1.0653 -0.0691  0.2551
  281SOL     OW 1121   1.390   1.073   2.771 -0.2441  0.2979  0.3378
  281SOL    HW1 1122   1.468   1.123   2.777  0.7793 -1.2546 -1.9684
  281SOL    HW2 1123   1.344   1.104   2.848 -0.1270 -0.1997 -0.4296
  281SOL     MW 1124   1.394   1.084   2.782 -0.0936  0.0274 -0.0678
  282SOL     OW 1125   1.069   1.324   1.616 -0.1140 -0.3700 -0.0846
  282SOL    HW1 1126   1.056   1.397   1.561 -0.0769 -2.3994 -1.2207
  282SOL    HW2 1127   0.987   1.288   1.645 -1.4097  2.2755 -0.1072
  282SOL     MW 1128   1.056   1.329   1.612 -0.2800 -0.2887 -0.2375
  283SOL     OW 1129   0.806   1.310   2.995 -0.5339 -0.5718 -0.2027
  283SOL    HW1 1130   0.903   1.303   3.015 -0.1567 -2.1649  1.9076
  283SOL    HW2 1131   0.791   1.406   2.985 -1.4931 -0.5998 -1.4801
  283SOL     MW 1132   0.817   1.322   2.996 -0.6107 -0.7857 -0.0928
  284SOL     OW 1133   0.376   0.695   2.356  0.2749  0.4779  0.1465
  284SOL    HW1 1134   0.462   0.747   2.355 -0.1392  0.4982 -0.8946
  284SOL    HW2 1135   0.374   0.648   2.273  3.6142  0.1239  0.5987
  284SOL     MW 1136   0.387   0.696   2.345  0.6608  0.4339  0.0688
  285SOL     OW 1137   0.880   0.930   2.791  0.3742 -0.0941 -0.5998
  285SOL    HW1 1138   0.927   0.963   2.710 -0.5249  0.6011  0.9102
  285SOL    HW2 1139   0.812   0.864   2.767 -2.2857 -1.9909  0.9608
  285SOL     MW 1140   0.877   0.926   2.777 -0.0954 -0.2526 -0.1947
  286SOL     OW 1141   1.050   1.470   2.738  0.3182  1.2174  0.1774
  286SOL    HW1 1142   1.098   1.390   2.731 -0.8783  1.8718  0.2581
  286SOL    HW2 1143   1.095   1.525   2.680 -2.2097 -0.0949  0.6235
  286SOL     MW 1144   1.062   1.467   2.730 -0.1732  1.1306  0.2469
  287SOL     OW 1145   1.093   0.968   0.328  0.1031 -0.1503  0.1665
  287SOL    HW1 1146   1.055   0.980   0.414  2.0393 -0.3667 -1.3467
  287SOL    HW2 1147   1.032   1.020   0.274 -0.5407  1.9541  1.1501
  287SOL     MW 1148   1.080   0.976   0.333  0.2736  0.0988  0.0967
  288SOL     OW 1149   1.498   0.727   2.093  0.0618  0.1666  0.1946
  288SOL    HW1 1150   1.417   0.756   2.138  2.4480 -0.9282 -3.6463
  288SOL    HW2 1151   1.553   0.801   2.091  0.6716 -0.0785  0.7966
  288SOL     MW 1152   1.495   0.740   2.099  0.4571 -0.0102 -0.2328
  289SOL     OW 1153   1.019   1.027   2.576 -0.0289 -0.1827 -0.4782
  289SOL    HW1 1154   1.069   0.965   2.525  1.8164 -0.6924 -0.6634
  289SOL    HW2 1155   0.961   1.069   2.521  2.9800  0.7994  1.5757
  289SOL     MW 1156   1.018   1.025   2.562  0.6115 -0.1204 -0.2316
  290SOL     OW 1157   0.695   0.655   1.466 -0.2281  0.2447 -0.3120
  290SOL    HW1 1158   0.742   0.607   1.399  2.9527  1.9671  1.1893
  290SOL    HW2 1159   0.746   0.646   1.550 -1.6906 -0.7445 -2.1796
  290SOL     MW 1160   0.708   0.648   1.469 -0.0014  0.3414 -0.3603
  291SOL     OW 1161   0.178   0.345   0.215 -0.5629 -0.1107 -0.0891
  291SOL    HW1 1162   0.259   0.308   0.188 -0.0042  1.3456 -1.6732
  291SOL    HW2 1163   0.130   0.272   0.254 -2.2331 -0.1460 -1.6411
  291SOL     MW 1164   0.182   0.330   0.216 -0.7095  0.0768 -0.5029
  292SOL     OW 1165   1.022   0.582   0.082  0.0375  0.9279 -0.0266
  292SOL    HW1 1166   1.080   0.626   0.141 -1.4508 -1.1184  1.8521
  292SOL    HW2 1167   1.042   0.489   0.107  1.1077 -0.0403  2.1472
  292SOL     MW 1168   1.033   0.576   0.093 -0.0177  0.5301  0.5081
  293SOL     OW 1169   0.107   0.116   2.514 -0.8484  0.1744 -0.0355
  293SOL    HW1 1170   0.082   0.051   2.447 -2.2029  0.5627 -0.5487
  293SOL    HW2 1171   0.020   0.136   2.555  2.6938  0.9654  0.6741
  293SOL     MW 1172   0.092   0.110   2.510 -0.5597  0.3300 -0.0096
  294SOL     OW 1173   1.252   0.440   2.294 -0.1244 -0.0819  0.0267
  294SOL    HW1 1174   1.321   0.483   2.347  0.0970 -1.4319  0.2456
  294SOL    HW2 1175   1.268   0.357   2.334 -0.1536 -1.1270 -0.1346
  294SOL     MW 1176   1.263   0.434   2.306 -0.0990 -0.3979  0.0343
  295SOL     OW 1177   0.885   0.661   2.477  0.5681 -0.2158 -0.1852
  295SOL    HW1 1178   0.847   0.634   2.392  0.8968  0.5377 -0.8226
  295SOL    HW2 1179   0.807   0.680   2.531  1.1221  0.1325 -0.0500
  295SOL     MW 1180   0.869   0.660   2.473  0.6845 -0.0705 -0.2515
  296SOL     OW 1181   1.376   0.369   2.041 -0.0063  0.4944 -0.3977
  296SOL    HW1 1182   1.381   0.277   2.034  0.6586  2.2390 -0.3223
  296SOL    HW2 1183   1.342   0.386   2.127 -0.6548 -1.4366 -0.3920
  296SOL     MW 1184   1.372   0.359   2.052 -0.0042  0.4698 -0.3870
  297SOL     OW 1185   1.367   0.375   1.526 -0.3728 -0.1654  0.6267
  297SOL    HW1 1186   1.405   0.461   1.545 -0.9269 -1.4869  0.3828
  297SOL    HW2 1187   1.362   0.326   1.609 -0.7717  0.6451 -1.6708
  297SOL     MW 1188   1.371   0.380   1.540 -0.4986 -0.2328  0.2914
  298SOL     OW 1189   1.682   0.933   2.133 -0.4166 -0.0789 -0.2782
  298SOL    HW1 1190   1.700   0.972   2.042  0.3385  1.5567 -0.3939
  298SOL    HW2 1191   1.732   0.848   2.138  0.5864 -1.6158  0.6817
  298SOL     MW 1192   1.691   0.927   2.122 -0.1846 -0.0659 -0.1668
  299SOL     OW 1193   0.616   1.143   0.052  0.3240 -0.4896  0.5172
  299SOL    HW1 1194   0.554   1.141  -0.028 -0.5251  0.7516 -1.0517
  299SOL    HW2 1195   0.693   1.194   0.031  0.1348  0.1144  0.7335
  299SOL     MW 1196   0.618   1.150   0.039  0.1870 -0.2461  0.3388
  300SOL     OW 1197   1.184   1.223   2.672  0.6240  0.3881 -0.0313
  300SOL    HW1 1198   1.127   1.149   2.653  3.9234  1.1710 -1.9410
  300SOL    HW2 1199   1.266   1.185   2.699  0.3716  1.7183  0.3605
  300SOL     MW 1200   1.187   1.208   2.673  1.0260  0.6669 -0.2316
  301SOL     OW 1201   1.449   1.036   0.672 -0.5963  0.5158 -0.4048
  301SOL    HW1 1202   1.455   1.070   0.759 -3.3305  0.2936  0.3696
  301SOL    HW2 1203   1.387   0.964   0.683 -0.5572 -2.6460  0.6867
  301SOL     MW 1204   1.442   1.031   0.685 -0.9519  0.0693 -0.1586
  302SOL     OW 1205   0.235   1.579   2.066  0.0961  0.1535  0.7073
  302SOL    HW1 1206   0.234   1.485   2.065 -0.8348 -0.3666 -0.9358
  302SOL    HW2 1207   0.143   1.604   2.050 -1.3477  0.9699  0.9815
  302SOL     MW 1208   0.223   1.570   2.064 -0.2172  0.1926  0.5267
  303SOL     OW 1209   0.306   1.802   2.691  0.4134  0.6725  0.0948
  303SOL    HW1 1210   0.236   1.790   2.629 -0.8301  0.4390 -0.0299
  303SOL    HW2 1211   0.255   1.833   2.771 -2.0182 -1.4231  0.3376
  303SOL     MW 1212   0.290   1.804   2.693 -0.0715  0.3652  0.1104
  304SOL     OW 1213   0.548   2.120   2.448  0.5112  0.7385 -0.1712
  304SOL    HW1 1214   0.581   2.202   2.408 -0.2783 -2.3288  0.1705
  304SOL    HW2 1215   0.593   2.043   2.411  0.3944 -0.2921  1.0347
  304SOL     MW 1216   0.558   2.121   2.438  0.3916  0.1978  0.0330
  305SOL     OW 1217   1.123   0.618   0.537 -0.2198 -0.1074 -0.8646
  305SOL    HW1 1218   1.033   0.587   0.517 -0.5060  1.7582 -0.5118
  305SOL    HW2 1219   1.171   0.538   0.574  0.5676 -4.2034  2.7171
  305SOL     MW 1220   1.118   0.604   0.539 -0.1537 -0.4017 -0.3455
  306SOL     OW 1221   1.136   1.532   0.307 -0.2680 -0.2590  0.1608
  306SOL    HW1 1222   1.149   1.434   0.330 -2.8375  1.0261  0.4004
  306SOL    HW2 1223   1.197   1.540   0.230 -0.7259 -1.8503 -0.5940
  306SOL     MW 1224   1.145   1.520   0.300 -0.6674 -0.2994  0.0928
  307SOL     OW 1225   1.435   0.558   1.869 -0.6195  0.2611  0.6172
  307SOL    HW1 1226   1.411   0.483   1.928 -1.2716 -0.3465 -0.8833
  307SOL    HW2 1227   1.469   0.631   1.925  1.1310 -3.3670 -0.2791
  307SOL     MW 1228   1.436   0.558   1.884 -0.4746 -0.2977  0.3009
  308SOL     OW 1229   2.266   0.584   2.721 -0.1578  0.2721 -0.1221
  308SOL    HW1 1230   2.349   0.605   2.758 -0.3138 -1.1994 -1.3910
  308SOL    HW2 1231   2.217   0.668   2.711 -1.3405 -0.7726 -0.0453
  308SOL     MW 1232   2.270   0.598   2.725 -0.3344 -0.0599 -0.2794
  309SOL     OW 1233   0.553   0.525   0.295  0.4364 -0.0412  0.0410
  309SOL    HW1 1234   0.640   0.557   0.266 -1.2913  3.5723 -1.5108
  309SOL    HW2 1235   0.550   0.429   0.281 -3.2319 -0.3708  0.4541
  309SOL     MW 1236   0.564   0.516   0.289 -0.2756  0.3921 -0.1092
  310SOL     OW 1237   0.404   0.534   1.822  0.0154  0.1997  0.0684
  310SOL    HW1 1238   0.403   0.524   1.726 -0.2182 -0.2499 -0.3772
  310SOL    HW2 1239   0.417   0.629   1.829  3.1549 -0.1267 -0.2190
  310SOL     MW 1240   0.406   0.545   1.810  0.3988  0.0973 -0.0283
  311SOL     OW 1241   1.994   0.713   1.904 -0.1989 -0.3298  0.1394
  311SOL    HW1 1242   1.936   0.704   1.986  1.7325  2.7770  1.9501
  311SOL    HW2 1243   2.056   0.639   1.915  1.0647 -4.0574 -1.2121
  311SOL     MW 1244   1.995   0.702   1.917  0.2226 -0.4117  0.2000
  312SOL     OW 1245   1.765   2.437   0.156  0.2490 -0.7750  0.3342
  312SOL    HW1 1246   1.786   2.423   0.248  2.4412 -1.0855  1.6881
  312SOL    HW2 1247   1.687   2.503   0.161 -0.9950 -1.4707 -0.5212
  312SOL     MW 1248   1.757   2.444   0.169  0.3741 -0.9077  0.3999
  313SOL     OW 1249   0.065   1.145   3.067 -0.4219 -0.0046 -0.4351
  313SOL    HW1 1250   0.037   1.198   3.141  0.5768 -0.8474 -0.9210
  313SOL    HW2 1251   0.118   1.209   3.017  0.0293  1.5972 -2.4451
  313SOL     MW 1252   0.068   1.160   3.070 -0.2306  0.0955 -0.7644
  314SOL     OW 1253   2.225   2.875   3.070 -0.0337  0.0078  0.0226
  314SOL    HW1 1254   2.155   2.918   3.015  1.8921  0.2522  0.3218
  314SOL    HW2 1255   2.264   2.941   3.112 -0.6712 -2.0773 -1.7406
  314SOL     MW 1256   2.221   2.889   3.068  0.1363 -0.2351 -0.1705
  315SOL     OW 1257   1.523   1.866   3.023  0.0042 -0.5722  0.0190
  315SOL    HW1 1258   1.478   1.926   3.077 -0.1144  0.5861  1.8842
  315SOL    HW2 1259   1.553   1.922   2.954 -0.6018  0.0802  1.0514
  315SOL     MW 1260   1.521   1.881   3.021 -0.0914 -0.3333  0.4013
  316SOL     OW 1261   1.212   0.692   2.702  0.0045 -0.1793 -0.4645
  316SOL    HW1 1262   1.295   0.699   2.740  2.4813  1.3741  0.4349
  316SOL    HW2 1263   1.158   0.645   2.766 -2.0803  2.7479 -1.1245
  316SOL     MW 1264   1.215   0.687   2.716  0.0562  0.4119 -0.4329
  317SOL     OW 1265   0.658   1.645   2.552 -0.3580  0.3149 -0.3863
  317SOL    HW1 1266   0.723   1.577   2.577  1.0151 -0.1972  0.0310
  317SOL    HW2 1267   0.614   1.609   2.480 -2.2644  0.5865 -1.8787
  317SOL     MW 1268   0.660   1.631   2.546 -0.4284  0.2832 -0.5281
  318SOL     OW 1269   1.360   0.395   2.857  0.2414  0.1747 -0.2276
  318SOL    HW1 1270   1.292   0.454   2.836 -0.4392  0.2436 -1.7020
  318SOL    HW2 1271   1.440   0.438   2.837 -0.0827 -1.5068  0.0645
  318SOL     MW 1272   1.361   0.408   2.851  0.1089 -0.0380 -0.3836
  319SOL     OW 1273   0.831   0.487   2.870 -0.2173 -0.1408 -0.3866
  319SOL    HW1 1274   0.806   0.424   2.807  2.4529  0.9063  1.6999
  319SOL    HW2 1275   0.774   0.480   2.946 -0.7565 -4.1434  0.0667
  319SOL     MW 1276   0.820   0.477   2.872  0.0638 -0.5307 -0.0515
  320SOL     OW 1277   1.008   1.285   2.026 -0.1046 -0.3662  0.6598
  320SOL    HW1 1278   1.058   1.202   2.039  0.8267 -1.2129 -0.0273
  320SOL    HW2 1279   1.066   1.351   1.986 -0.0811  0.5290 -0.1446
  320SOL     MW 1280   1.023   1.283   2.022  0.0214 -0.3598  0.4630
  321SOL     OW 1281   1.014   0.950   3.019  0.3088  0.1630 -0.2301
  321SOL    HW1 1282   0.961   0.919   2.940  0.1316 -3.7796  2.3745
  321SOL    HW2 1283   1.072   0.873   3.029 -2.7524 -1.5061  0.5972
  321SOL     MW 1284   1.015   0.936   3.010 -0.1185 -0.5774  0.2227
  322SOL     OW 1285   1.324   0.872   1.647 -0.4419  0.4451 -0.2640
  322SOL    HW1 1286   1.382   0.796   1.634  0.1497  2.6775  1.4044
  322SOL    HW2 1287   1.245   0.828   1.680  0.6403  0.2747  0.3855
  322SOL     MW 1288   1.321   0.856   1.649 -0.2211  0.7172  0.0418
  323SOL     OW 1289   1.134   1.521   1.911 -0.5324  0.0443 -0.0987
  323SOL    HW1 1290   1.179   1.485   1.835  3.0455 -1.0604  3.4389
  323SOL    HW2 1291   1.095   1.604   1.878  0.0558  0.5169 -3.0365
  323SOL     MW 1292   1.134   1.527   1.897  0.0173 -0.0391 -0.0196
  324SOL     OW 1293   1.428   0.862   2.492 -0.0163 -0.6097 -0.3553
  324SOL    HW1 1294   1.349   0.863   2.555 -5.0992 -1.4967  0.9216
  324SOL    HW2 1295   1.490   0.923   2.536 -1.1461 -0.2229 -3.4270
  324SOL     MW 1296   1.426   0.870   2.506 -0.8360 -0.6757 -0.5921
  325SOL     OW 1297   1.101   0.547   2.905  0.0028 -0.5363 -0.3789
  325SOL    HW1 1298   1.121   0.579   2.994 -1.5996  1.0984  1.5951
  325SOL    HW2 1299   1.003   0.546   2.901 -1.9132  0.8741  2.1587
  325SOL     MW 1300   1.090   0.551   2.916 -0.4614 -0.1345  0.2164
  326SOL     OW 1301   0.379   1.364   2.339  0.2141 -0.5606  0.1047
  326SOL    HW1 1302   0.469   1.355   2.302  1.9772 -0.0752 -0.2415
  326SOL    HW2 1303   0.366   1.455   2.360 -2.2831  0.0471  1.7545
  326SOL     MW 1304   0.389   1.375   2.337  0.1173 -0.4164  0.2767
  327SOL     OW 1305   1.960   0.743   2.421  0.0874  0.0112  0.0698
  327SOL    HW1 1306   1.910   0.713   2.498 -1.8419 -1.4261 -0.6448
  327SOL    HW2 1307   1.990   0.829   2.443 -1.1097 -0.7469  0.2900
  327SOL     MW 1308   1.957   0.751   2.434 -0.3251 -0.2785  0.0046
  328SOL     OW 1309   0.258   1.313   2.102 -0.0730 -0.3104  0.1407
  328SOL    HW1 1310   0.199   1.241   2.117  3.5711 -0.9449 -2.6918
  328SOL    HW2 1311   0.312   1.332   2.178  4.4792 -0.1446 -0.8196
  328SOL     MW 1312   0.257   1.306   2.114  1.0084 -0.3723 -0.3597
  329SOL     OW 1313   0.026   0.153   1.340 -0.0108  0.0741 -0.2845
  329SOL    HW1 1314  -0.031   0.136   1.422  1.4565  0.9091 -1.8468
  329SOL    HW2 1315   0.108   0.187   1.379 -0.4948 -3.3795  0.6535
  329SOL     MW 1316   0.029   0.155   1.356  0.1189 -0.2714 -0.3669
  330SOL     OW 1317   0.340   0.074   1.965 -0.3976  0.8632 -0.3944
  330SOL    HW1 1318   0.436   0.064   1.969  0.1181  1.2426 -0.0499
  330SOL    HW2 1319   0.321  -0.003   2.020  1.9725  1.0749  0.2776
  330SOL     MW 1320   0.350   0.062   1.973 -0.0169  0.9412 -0.2603
  331SOL     OW 1321   0.812   1.206   2.419  0.1625 -0.1274  0.5859
  331SOL    HW1 1322   0.733   1.231   2.357 -0.1243  1.1210  2.7230
  331SOL    HW2 1323   0.846   1.288   2.472 -2.5245 -2.3742 -1.5329
  331SOL     MW 1324   0.806   1.220   2.418 -0.2299 -0.2591  0.5883
  332SOL     OW 1325   1.371   1.627   2.950  0.5970  0.1387  0.1544
  332SOL    HW1 1326   1.371   1.643   2.856  1.7063 -1.8957  0.6295
  332SOL    HW2 1327   1.396   1.717   2.979 -1.9266  2.5522 -0.7009
  332SOL     MW 1328   1.375   1.641   2.941  0.4104  0.1887  0.1042
  333SOL     OW 1329   1.716   1.372   2.915 -0.3199  1.0311 -0.8592
  333SOL    HW1 1330   1.806   1.348   2.890  1.1171  0.8071  1.4215
  333SOL    HW2 1331   1.701   1.307   2.989 -0.5001  0.0304  0.6582
  333SOL     MW 1332   1.726   1.360   2.921 -0.1541  0.8695 -0.3581
  334SOL     OW 1333   1.324   3.049   2.611 -0.1817  0.1940  0.1124
  334SOL    HW1 1334   1.254   3.038   2.670 -2.3651 -1.3050 -0.8940
  334SOL    HW2 1335   1.375   3.112   2.667 -0.2476  0.1856 -1.9718
  334SOL     MW 1336   1.321   3.056   2.626 -0.4784 -0.0049 -0.2954
  335SOL     OW 1337   1.260   0.795   3.044  0.1143  0.4490  0.3118
  335SOL    HW1 1338   1.311   0.757   3.126 -2.7019  1.3835  0.5519
  335SOL    HW2 1339   1.323   0.788   2.970 -0.9016  0.7520 -2.5359
  335SOL     MW 1340   1.275   0.789   3.045 -0.3913  0.6123 -0.0323
  336SOL     OW 1341   0.877   1.114   1.704 -0.6178  0.4019 -0.5029
  336SOL    HW1 1342   0.793   1.138   1.747 -2.2434  2.2155 -0.5919
  336SOL    HW2 1343   0.925   1.062   1.772  1.2534 -2.1237  1.8934
  336SOL     MW 1344   0.872   1.110   1.719 -0.5854  0.3080 -0.1985
  337SOL     OW 1345   0.530   1.925   2.871 -0.2059 -0.4174  0.2123
  337SOL    HW1 1346   0.479   1.916   2.790  0.4937  2.9541 -0.4654
  337SOL    HW2 1347   0.612   1.882   2.848 -0.6232 -0.8222 -2.5467
  337SOL     MW 1348   0.534   1.918   2.857 -0.1687 -0.0259 -0.2411
  338SOL     OW 1349   1.131   0.777   2.461  0.0209  0.3231  0.0238
  338SOL    HW1 1350   1.036   0.759   2.461  3.3407 -0.3996  0.2785
  338SOL    HW2 1351   1.162   0.742   2.545 -0.7112 -0.2768 -1.7722
  338SOL     MW 1352   1.123   0.770   2.472  0.3623  0.1486 -0.1796
  339SOL     OW 1353   1.326   1.270   1.948 -0.5760 -0.4671  0.8916
  339SOL    HW1 1354   1.356   1.224   1.869 -2.8362 -1.4346 -0.3276
  339SOL    HW2 1355   1.277   1.207   2.000  0.3390  0.7241 -0.0330
  339SOL     MW 1356   1.323   1.255   1.945 -0.7535 -0.4376  0.6088
  340SOL     OW 1357   1.337   1.547   0.106  0.2957 -0.0752  0.4680
  340SOL    HW1 1358   1.376   1.548   0.011  0.6081 -0.8263 -1.6974
  340SOL    HW2 1359   1.388   1.480   0.152  1.2173 -0.5471 -0.9251
  340SOL     MW 1360   1.349   1.538   0.099  0.4585 -0.2366 -0.0015
  341SOL     OW 1361   0.078   1.399   2.842 -0.8839  0.1618  0.1969
  341SOL    HW1 1362   0.176   1.411   2.864  3.5913 -1.7995 -0.0784
  341SOL    HW2 1363   0.081   1.372   2.752 -0.5172  2.5406 -0.5228
  341SOL     MW 1364   0.091   1.397   2.833 -0.2450  0.2169  0.0656
  342SOL     OW 1365   1.375   0.348   0.031 -0.6827  0.2810  0.4050
  342SOL    HW1 1366   1.454   0.382   0.077  0.8783  2.2276  3.7666
  342SOL    HW2 1367   1.374   0.377  -0.061  2.2293 -1.6927 -0.0798
  342SOL     MW 1368   1.386   0.356   0.025 -0.0925  0.2774  0.7846
  343SOL     OW 1369   0.241   0.300   2.097 -0.3389 -0.0699 -0.5691
  343SOL    HW1 1370   0.278   0.221   2.056  2.9988  0.5320 -2.3569
  343SOL    HW2 1371   0.144   0.282   2.104 -1.6995  0.5416 -1.4183
  343SOL     MW 1372   0.233   0.287   2.092 -0.0781  0.0902 -0.9170
  344SOL     OW 1373   1.673   2.057   0.187 -0.1303  0.4512  0.1374
  344SOL    HW1 1374   1.690   2.102   0.099  1.3939  1.3459 -2.4449
  344SOL    HW2 1375   1.590   2.082   0.204 -0.4344  3.5954 -2.7960
  344SOL     MW 1376   1.664   2.067   0.178  0.0307  0.9841 -0.5903
  345SOL     OW 1377   0.616   1.569   2.278 -0.1559  0.1703 -0.2526
  345SOL    HW1 1378   0.580   1.657   2.261 -0.1656  0.6022  2.2786
  345SOL    HW2 1379   0.692   1.560   2.221 -3.1834  1.2837 -1.4306
  345SOL     MW 1380   0.621   1.580   2.269 -0.5566  0.3742 -0.0741
  346SOL     OW 1381   1.665   1.199   0.035 -0.2600 -0.3085  0.0361
  346SOL    HW1 1382   1.742   1.232   0.081 -1.3222  1.0020 -3.3588
  346SOL    HW2 1383   1.631   1.137   0.091  0.8921 -0.2467  1.4368
  346SOL     MW 1384   1.671   1.195   0.048 -0.2481 -0.1274 -0.2270
  347SOL     OW 1385   1.246   0.732   2.198  0.0865  0.5285  0.2044
  347SOL    HW1 1386   1.267   0.644   2.220  2.8337  1.3066 -0.2817
  347SOL    HW2 1387   1.216   0.776   2.277  0.9741 -1.2876 -0.7918
  347SOL     MW 1388   1.245   0.727   2.211  0.5661  0.3916  0.0088
  348SOL     OW 1389   1.293   2.528   1.943 -0.2681  0.3444 -0.0156
  348SOL    HW1 1390   1.309   2.473   2.025  0.3111 -0.0135  2.6794
  348SOL    HW2 1391   1.317   2.618   1.954 -0.6012 -3.0407  0.1756
  348SOL     MW 1392   1.298   2.533   1.955 -0.2356 -0.1494  0.3652
  349SOL     OW 1393   1.442   0.121   2.780 -0.0233 -0.4004 -0.3500
  349SOL    HW1 1394   1.399   0.211   2.788 -0.8813 -2.5600 -0.1633
  349SOL    HW2 1395   1.509   0.119   2.844 -0.7232 -2.0610 -0.7786
  349SOL     MW 1396   1.445   0.133   2.789 -0.2288 -0.9044 -0.3819
  350SOL     OW 1397   1.882   0.606   2.658  0.3875  0.5505  0.4382
  350SOL    HW1 1398   1.834   0.548   2.596 -0.8998 -1.3456 -0.1279
  350SOL    HW2 1399   1.947   0.546   2.709 -1.9198 -1.8010 -0.2907
  350SOL     MW 1400   1.884   0.591   2.656 -0.0868 -0.0099  0.2674
  351SOL     OW 1401   0.136   1.131   1.548  0.8230 -1.0135  0.2650
  351SOL    HW1 1402   0.109   1.049   1.593  0.5739  0.4480  3.4500
  351SOL    HW2 1403   0.150   1.200   1.612 -0.7559 -0.7744 -0.0311
  351SOL     MW 1404   0.135   1.129   1.562  0.5818 -0.7891  0.6462
  352SOL     OW 1405   0.761   1.793   2.824  0.7865  0.2637 -0.4911
  352SOL    HW1 1406   0.773   1.740   2.904 -0.0098  0.6913 -0.1293
  352SOL    HW2 1407   0.738   1.726   2.759 -0.2360 -2.0453  2.4981
  352SOL     MW 1408   0.760   1.777   2.826  0.5465  0.0155 -0.0490
  353SOL     OW 1409   3.089   2.560   2.680  0.0955 -0.6500  0.3349
  353SOL    HW1 1410   3.142   2.481   2.685 -0.4487 -1.2136 -0.9702
  353SOL    HW2 1411   3.094   2.609   2.595  0.0817  1.2572 -0.8393
  353SOL     MW 1412   3.096   2.556   2.670  0.0219 -0.4727  0.0078
  354SOL     OW 1413   0.338   2.426   0.805  0.3164  0.5689  0.5770
  354SOL    HW1 1414   0.408   2.368   0.834  1.0418 -1.7115 -0.6041
  354SOL    HW2 1415   0.258   2.367   0.813  0.0683 -0.1348  1.4425
  354SOL     MW 1416   0.337   2.410   0.810  0.3794  0.1752  0.5354
  355SOL     OW 1417   0.112   2.263   0.364  0.0769 -0.0536 -0.2641
  355SOL    HW1 1418   0.030   2.211   0.373 -0.8778 -1.0155 -1.8894
  355SOL    HW2 1419   0.114   2.305   0.446  3.4433  1.8693 -1.1532
  355SOL     MW 1420   0.102   2.262   0.376  0.3951  0.0732 -0.5958
  356SOL     OW 1421   0.753   2.952   0.995 -0.0573 -0.2652  0.3410
  356SOL    HW1 1422   0.835   2.939   0.945  1.3892  1.3680 -0.6068
  356SOL    HW2 1423   0.681   2.908   0.950  3.4970  0.4501 -0.5834
  356SOL     MW 1424   0.754   2.944   0.983  0.6025  0.0447  0.0940
  357SOL     OW 1425   1.884   2.812   0.439 -0.0559  0.0371 -0.4329
  357SOL    HW1 1426   1.831   2.780   0.509  0.5703  2.1196  0.4072
  357SOL    HW2 1427   1.966   2.763   0.439  0.8031  0.7063  1.5623
  357SOL     MW 1428   1.888   2.801   0.448  0.1400  0.4001 -0.0588
  358SOL     OW 1429   0.383   0.115   1.029 -0.7786  0.3463 -0.6522
  358SOL    HW1 1430   0.480   0.138   1.030  1.0576 -0.8222 -2.4930
  358SOL    HW2 1431   0.353   0.154   0.947  1.9494 -0.3293 -2.0238
  358SOL     MW 1432   0.392   0.123   1.018 -0.1764  0.1030 -1.0760
  359SOL     OW 1433   0.908   2.936   1.912 -0.3729  0.0687  0.0443
  359SOL    HW1 1434   0.880   2.845   1.941  0.0082 -1.6014 -0.2816
  359SOL    HW2 1435   0.921   2.936   1.812 -1.1247  2.5270  0.4251
  359SOL     MW 1436   0.906   2.924   1.902 -0.4218  0.1727  0.0515
  360SOL     OW 1437   0.561   2.758   0.901 -0.2185  0.1784 -0.1952
  360SOL    HW1 1438   0.592   2.737   0.815  1.7136 -0.4999  1.7072
  360SOL    HW2 1439   0.593   2.683   0.945  1.2665  0.7257 -0.4606
  360SOL     MW 1440   0.569   2.746   0.896  0.2324  0.1611  0.0208
  361SOL     OW 1441   0.109   2.718   1.335 -0.4716  0.0111 -0.1120
  361SOL    HW1 1442   0.052   2.741   1.405 -0.3699  0.3397  2.8582
  361SOL    HW2 1443   0.194   2.751   1.361  1.3829 -0.3129  0.7783
  361SOL     MW 1444   0.112   2.726   1.348 -0.2135  0.0117  0.3973
  362SOL     OW 1445   1.403   2.419   0.586  0.1861  0.0399 -0.5789
  362SOL    HW1 1446   1.456   2.361   0.643 -0.6746  0.0366  1.0974
  362SOL    HW2 1447   1.454   2.504   0.592  3.2611  0.0181  1.1179
  362SOL     MW 1448   1.417   2.423   0.594  0.4782  0.0366 -0.1339
  363SOL     OW 1449   0.337   3.101   0.645  0.4290 -0.4682 -0.0559
  363SOL    HW1 1450   0.361   3.041   0.713 -1.4806  1.3178  2.9441
  363SOL    HW2 1451   0.254   3.074   0.607  0.4434 -0.5933  3.3507
  363SOL     MW 1452   0.329   3.089   0.649  0.1790 -0.2490  0.7894
  364SOL     OW 1453   0.788   0.250   0.159  0.0357  0.7534 -0.0800
  364SOL    HW1 1454   0.741   0.164   0.182 -1.1240 -1.3818  1.1139
  364SOL    HW2 1455   0.728   0.306   0.108  2.5532 -0.8741  0.2806
  364SOL     MW 1456   0.774   0.246   0.155  0.2149  0.2570  0.1251
  365SOL     OW 1457   0.883   1.993   1.298  0.5012  0.4276 -0.4949
  365SOL    HW1 1458   0.874   2.074   1.244  0.4772  0.1721 -0.2410
  365SOL    HW2 1459   0.847   1.916   1.244  2.2743  1.0357  1.6474
  365SOL     MW 1460   0.877   1.993   1.283  0.7320  0.4741 -0.1787
  366SOL     OW 1461   2.873   2.646   0.970  0.5401 -0.2656  0.1557
  366SOL    HW1 1462   2.965   2.638   1.009 -2.3112  1.3292  1.7447
  366SOL    HW2 1463   2.898   2.669   0.881 -0.5134 -2.6256 -0.2381
  366SOL     MW 1464   2.889   2.648   0.963  0.0249 -0.3666  0.3134
  367SOL     OW 1465   1.326   3.064   0.986 -0.4665  0.1046  0.2899
  367SOL    HW1 1466   1.404   3.082   1.035  0.1534 -2.5457 -1.2709
  367SOL    HW2 1467   1.330   3.060   0.890 -2.1494  0.7970  2.9650
  367SOL     MW 1468   1.337   3.066   0.980 -0.6067 -0.1537  0.4369
  368SOL     OW 1469   1.744   0.367   0.592  0.8257  0.3509 -0.1262
  368SOL    HW1 1470   1.798   0.314   0.531  0.6100 -2.5549 -1.8782
  368SOL    HW2 1471   1.747   0.449   0.553  0.0580 -0.2648  0.6596
  368SOL     MW 1472   1.751   0.371   0.579  0.6960 -0.1137 -0.2537
  369SOL     OW 1473   0.173   2.450   1.767  0.4945  0.0891  0.2460
  369SOL    HW1 1474   0.269   2.451   1.752 -1.1498  0.6788  1.2122
  369SOL    HW2 1475   0.151   2.542   1.751  2.0718  0.2013  1.3626
  369SOL     MW 1476   0.183   2.462   1.763  0.4856  0.1817  0.5208
  370SOL     OW 1477   0.666   0.136   1.055  0.0034 -0.3412 -0.1006
  370SOL    HW1 1478   0.698   0.140   0.962  0.1510  2.0535 -1.4970
  370SOL    HW2 1479   0.680   0.049   1.088 -0.1715 -0.1549 -0.6907
  370SOL     MW 1480   0.672   0.125   1.047 -0.0002 -0.0007 -0.3627
  371SOL     OW 1481   1.107   2.900   1.493  0.1797 -0.1675 -0.2525
  371SOL    HW1 1482   1.155   2.830   1.451  0.4275  2.1150 -0.7927
  371SOL    HW2 1483   1.113   2.971   1.432  1.1214 -0.3508 -1.0212
  371SOL     MW 1484   1.114   2.900   1.480  0.3366  0.1095 -0.4252
  372SOL     OW 1485   0.820   2.294   0.465  0.3188 -0.0850  0.4862
  372SOL    HW1 1486   0.795   2.210   0.506  1.7756  0.1427 -0.0256
  372SOL    HW2 1487   0.848   2.267   0.377 -0.8249 -0.4650  0.1657
  372SOL     MW 1488   0.820   2.279   0.459  0.3601 -0.1051  0.3764
  373SOL     OW 1489   2.791   2.965   1.401  0.1375 -0.5297 -0.3111
  373SOL    HW1 1490   2.886   2.962   1.381  2.2024 -0.0998  1.1868
  373SOL    HW2 1491   2.759   3.033   1.345  1.1156 -0.7001  1.7708
  373SOL     MW 1492   2.799   2.974   1.391  0.5390 -0.4954  0.1612
  374SOL     OW 1493   1.564   0.450   0.221 -0.3532 -0.0016 -0.7396
  374SOL    HW1 1494   1.659   0.433   0.220 -0.1660  0.7615 -0.1479
  374SOL    HW2 1495   1.537   0.415   0.303 -1.7088 -0.6265  0.7590
  374SOL     MW 1496   1.573   0.443   0.231 -0.5074  0.0167 -0.4638
  375SOL     OW 1497   1.094   2.010   2.173 -0.0140 -0.2172  0.0364
  375SOL    HW1 1498   1.087   2.003   2.265 -0.6697  2.2945 -2.1371
  375SOL    HW2 1499   1.008   1.972   2.145  0.6561  0.4940  0.7889
  375SOL     MW 1500   1.082   2.004   2.181 -0.0121  0.2080 -0.1511
  376SOL     OW 1501   0.820   2.535   0.097 -1.0631  0.2797 -0.2541
  376SOL    HW1 1502   0.786   2.465   0.168  0.1834 -2.2138  1.4703
  376SOL    HW2 1503   0.827   2.490   0.009 -1.6651 -2.3576 -1.6225
  376SOL     MW 1504   0.816   2.520   0.095 -0.9781 -0.3973 -0.2071
  377SOL     OW 1505   1.325   2.088   0.972 -0.1305  0.1060  0.1360
  377SOL    HW1 1506   1.258   2.076   0.907 -0.8667 -0.1270  0.1646
  377SOL    HW2 1507   1.274   2.044   1.049 -3.3680  0.6967 -0.8193
  377SOL     MW 1508   1.310   2.081   0.974 -0.6548  0.1532  0.0137
  378SOL     OW 1509   0.860   2.857   1.617 -0.5358  0.3113  0.7290
  378SOL    HW1 1510   0.877   2.764   1.618 -1.1718  1.5663 -0.1170
  378SOL    HW2 1511   0.951   2.882   1.594  1.4556  0.3507 -1.8204
  378SOL     MW 1512   0.874   2.848   1.614 -0.3570  0.4821  0.2810
  379SOL     OW 1513   1.052   1.544   2.331 -0.3352 -0.2248  0.5655
  379SOL    HW1 1514   0.975   1.539   2.275 -0.4789 -0.8651 -1.3370
  379SOL    HW2 1515   1.131   1.569   2.286 -2.0940 -1.5170  0.4286
  379SOL     MW 1516   1.052   1.547   2.318 -0.5862 -0.4798  0.2964
  380SOL     OW 1517   0.920   0.169   1.528  0.5386  0.6623 -0.1423
  380SOL    HW1 1518   0.930   0.093   1.464 -0.3821 -2.4516  1.2751
  380SOL    HW2 1519   0.978   0.158   1.610  1.2059 -0.0224  1.5007
  380SOL     MW 1520   0.929   0.158   1.530  0.5051  0.1611  0.2615
  381SOL     OW 1521   0.838   2.056   0.887 -0.3622 -0.3187  0.3109
  381SOL    HW1 1522   0.928   2.059   0.848 -1.7559 -1.6431 -0.9419
  381SOL    HW2 1523   0.844   2.119   0.955 -1.7404 -0.7762 -0.1940
  381SOL     MW 1524   0.851   2.064   0.891 -0.7279 -0.5538  0.0790
  382SOL     OW 1525   0.838   0.103   0.616 -0.0594 -0.4039  1.0346
  382SOL    HW1 1526   0.837   0.129   0.709 -0.5171 -2.9612  0.6298
  382SOL    HW2 1527   0.816   0.005   0.611 -2.8124 -2.6555  0.6556
  382SOL     MW 1528   0.835   0.093   0.628 -0.4830 -1.0384  0.9312
  383SOL     OW 1529   0.670   0.028   0.252 -0.0466  0.3458 -0.5750
  383SOL    HW1 1530   0.688  -0.052   0.206 -0.2176 -1.6855  0.4892
  383SOL    HW2 1531   0.614  -0.005   0.318  1.7578 -0.2446 -3.5866
  383SOL     MW 1532   0.665   0.013   0.255  0.1689 -0.0001 -0.8320
  384SOL     OW 1533   0.803   2.943   0.636  0.0740 -0.2837  1.0211
  384SOL    HW1 1534   0.864   2.947   0.715 -1.5422 -0.8427  0.0325
  384SOL    HW2 1535   0.758   2.858   0.640  2.2190 -1.9174  0.9016
  384SOL     MW 1536   0.805   2.932   0.647  0.1438 -0.5730  0.8749
  385SOL     OW 1537   1.379   2.043   1.574 -0.8497  0.0381  0.2459
  385SOL    HW1 1538   1.467   2.061   1.617  2.3636 -0.5979  2.5527
  385SOL    HW2 1539   1.344   1.962   1.617 -0.7631 -2.1802  0.5558
  385SOL     MW 1540   1.386   2.035   1.585 -0.4143 -0.3385  0.5911
  386SOL     OW 1541   1.481   0.404   0.875  0.5134  0.3355  0.6088
  386SOL    HW1 1542   1.440   0.445   0.952  2.8893  0.0215  0.8029
  386SOL    HW2 1543   1.571   0.397   0.907 -0.4925 -0.0844  1.0135
  386SOL     MW 1544   1.488   0.409   0.890  0.6942  0.2387  0.6878
  387SOL     OW 1545   0.825   2.276   1.570 -0.4811  0.2843 -0.3097
  387SOL    HW1 1546   0.909   2.308   1.520 -0.0033  2.3485 -1.5422
  387SOL    HW2 1547   0.828   2.174   1.549  0.9760  1.7631 -1.7675
  387SOL     MW 1548   0.836   2.266   1.561 -0.2258  0.7518 -0.6647
  388SOL     OW 1549   1.511   2.781   1.541 -0.0889 -0.0630  0.3623
  388SOL    HW1 1550   1.462   2.836   1.481  0.0035  1.6099 -0.7621
  388SOL    HW2 1551   1.587   2.740   1.492 -1.3413 -0.3190 -1.8610
  388SOL     MW 1552   1.515   2.783   1.526 -0.2419  0.1239 -0.0794
  389SOL     OW 1553   0.409   0.115   3.052  0.0819  0.2160 -0.2876
  389SOL    HW1 1554   0.478   0.050   3.021  1.9510 -1.3758 -0.9623
  389SOL    HW2 1555   0.420   0.183   2.980  0.5971 -0.0511  0.3022
  389SOL     MW 1556   0.420   0.116   3.039  0.3965 -0.0292 -0.2988
  390SOL     OW 1557   1.350   3.079   0.714  0.0550  0.1650 -1.0155
  390SOL    HW1 1558   1.347   3.018   0.640 -1.0319  0.6031  0.8486
  390SOL    HW2 1559   1.438   3.110   0.715 -3.2266 -3.8964 -1.3833
  390SOL     MW 1560   1.361   3.075   0.704 -0.5214 -0.3131 -0.8181
  391SOL     OW 1561   0.317   2.169   1.510  0.2183  0.9511  0.2707
  391SOL    HW1 1562   0.325   2.148   1.603  0.3637 -0.9423 -2.3228
  391SOL    HW2 1563   0.258   2.250   1.505  0.9959  0.8719 -1.3999
  391SOL     MW 1564   0.311   2.177   1.522  0.3401  0.6908 -0.2919
  392SOL     OW 1565   1.956   2.089   0.298 -0.2235  0.2278 -0.6768
  392SOL    HW1 1566   2.000   2.175   0.319 -0.1439 -1.0766  2.2957
  392SOL    HW2 1567   1.864   2.101   0.263  0.0757  0.9057  1.0999
  392SOL     MW 1568   1.950   2.102   0.296 -0.1735  0.1452 -0.0502
  393SOL     OW 1569   0.262   2.958   2.795 -0.2172  0.1102  0.1062
  393SOL    HW1 1570   0.347   2.951   2.756 -3.5389 -0.1766 -2.1245
  393SOL    HW2 1571   0.236   3.050   2.783 -1.1247  0.0374  0.2763
  393SOL     MW 1572   0.270   2.969   2.789 -0.7752  0.0627 -0.1657
  394SOL     OW 1573   0.956   1.771   1.628  0.2819 -0.0511  0.2955
  394SOL    HW1 1574   0.988   1.784   1.718 -0.1228 -2.0043  3.0949
  394SOL    HW2 1575   0.894   1.842   1.610 -0.6898  0.1114 -1.0446
  394SOL     MW 1576   0.952   1.782   1.638  0.1003 -0.2873  0.4881
  395SOL     OW 1577   0.956   2.953   2.708 -0.0576  0.3695 -0.0365
  395SOL    HW1 1578   1.017   3.025   2.745 -2.1321 -1.7847  0.8370
  395SOL    HW2 1579   1.017   2.889   2.673  0.9130 -0.3365 -0.4677
  395SOL     MW 1580   0.972   2.954   2.708 -0.2032 -0.0079  0.0218
  396SOL     OW 1581   0.717   1.912   2.400  0.7539 -0.6012  0.7784
  396SOL    HW1 1582   0.796   1.891   2.454  2.7786  0.8758  0.0599
  396SOL    HW2 1583   0.649   1.858   2.437  0.3520  0.8642  0.6360
  396SOL     MW 1584   0.718   1.902   2.412  0.9680 -0.2130  0.6648
  397SOL     OW 1585   1.054   2.309   1.415  0.2483  0.3326  0.1717
  397SOL    HW1 1586   1.062   2.334   1.323 -0.5977 -0.2209 -0.8080
  397SOL    HW2 1587   1.133   2.272   1.467 -0.1216 -0.9744 -1.7398
  397SOL     MW 1588   1.066   2.307   1.410  0.0879  0.0872 -0.2098
  398SOL     OW 1589   0.704   2.700   0.669  1.3055 -0.1807  0.5007
  398SOL    HW1 1590   0.650   2.683   0.587 -2.4672  0.5130  4.6095
  398SOL    HW2 1591   0.749   2.615   0.679  0.3353  1.2983  2.2247
  398SOL     MW 1592   0.703   2.686   0.659  0.6797  0.1060  1.2703
  399SOL     OW 1593   0.311   2.085   0.380 -0.1309  1.0975 -0.4920
  399SOL    HW1 1594   0.230   2.136   0.392 -2.9337  2.3953 -1.1606
  399SOL    HW2 1595   0.353   2.130   0.309  0.6007 -0.3856  1.6648
  399SOL     MW 1596   0.306   2.097   0.372 -0.4042  1.0730 -0.2956
  400SOL     OW 1597   0.599   1.960   0.145  0.2301 -0.0071  0.2171
  400SOL    HW1 1598   0.573   2.057   0.157 -0.4540 -1.2627  0.8015
  400SOL    HW2 1599   0.562   1.897   0.210 -1.9250 -0.2266  1.6266
  400SOL     MW 1600   0.591   1.965   0.155 -0.1445 -0.2018  0.4802
  401SOL     OW 1601   0.839   2.015   0.013  0.2607  0.2513  0.4495
  401SOL    HW1 1602   0.912   1.959   0.038  2.8893  2.4088 -1.1142
  401SOL    HW2 1603   0.763   1.991   0.073 -3.0886  3.0651  1.1094
  401SOL     MW 1604   0.838   2.004   0.024  0.1656  0.9072  0.3303
  402SOL     OW 1605   0.579   3.033   1.867  0.1354  0.3129 -0.0457
  402SOL    HW1 1606   0.654   2.977   1.855 -1.3267 -1.5187  0.3938
  402SOL    HW2 1607   0.582   3.097   1.790 -0.8854  2.5005  1.0738
  402SOL     MW 1608   0.590   3.034   1.855 -0.1922  0.3599  0.1600
  403SOL     OW 1609   0.136   0.503   0.441  0.2001  0.6067  0.4083
  403SOL    HW1 1610   0.222   0.536   0.468 -1.5778 -2.9970 -2.1004
  403SOL    HW2 1611   0.156   0.455   0.366  0.2078  0.5833  1.2723
  403SOL     MW 1612   0.150   0.501   0.435 -0.0334  0.1281  0.1913
  404SOL     OW 1613   0.992   2.983   0.833  0.9784  0.1722 -0.1512
  404SOL    HW1 1614   1.069   2.926   0.815 -1.6857 -2.0516  3.3368
  404SOL    HW2 1615   1.024   3.074   0.804  0.6334  0.1952 -1.8251
  404SOL     MW 1616   1.006   2.988   0.827  0.5814 -0.1182  0.0882
  405SOL     OW 1617   0.508   2.515   1.488 -0.4067 -0.2625 -0.1058
  405SOL    HW1 1618   0.565   2.580   1.455 -0.6542 -1.4599  1.3970
  405SOL    HW2 1619   0.555   2.444   1.453 -0.7938  1.9576  1.2087
  405SOL     MW 1620   0.522   2.514   1.479 -0.4905 -0.1276  0.2659
  406SOL     OW 1621   0.421   2.319   1.063 -0.1453  0.0877 -0.4357
  406SOL    HW1 1622   0.324   2.341   1.074 -1.9190  0.2643 -0.8935
  406SOL    HW2 1623   0.437   2.266   1.142  2.2180 -0.3843 -2.9392
  406SOL     MW 1624   0.410   2.315   1.075 -0.0675  0.0487 -0.8264
  407SOL     OW 1625   0.021   2.619   1.071 -0.7980 -0.2517 -1.0272
  407SOL    HW1 1626   0.072   2.656   1.142 -1.3220  0.0838  0.2519
  407SOL    HW2 1627   0.084   2.617   0.997 -0.1807  1.9226 -0.8075
  407SOL     MW 1628   0.036   2.624   1.070 -0.7857  0.0794 -0.8295
  408SOL     OW 1629   2.108   2.194   0.713 -0.2348  0.8881  0.1823
  408SOL    HW1 1630   2.063   2.197   0.801  3.2203 -0.9759  2.4488
  408SOL    HW2 1631   2.038   2.144   0.668 -1.5842  0.4340 -0.1283
  408SOL     MW 1632   2.093   2.188   0.719  0.0431  0.5822  0.4404
  409SOL     OW 1633   1.623   0.064   0.826  0.2452 -0.2182 -0.5569
  409SOL    HW1 1634   1.667   0.147   0.808 -0.9297  0.8330 -0.7632
  409SOL    HW2 1635   1.614   0.056   0.923  2.7682 -0.7734  2.6698
  409SOL     MW 1636   1.628   0.074   0.836  0.4231 -0.1528 -0.1584
  410SOL     OW 1637   1.097   2.451   1.188  0.5342  0.2495 -0.1024
  410SOL    HW1 1638   1.046   2.464   1.112 -0.4254 -1.3499  0.5877
  410SOL    HW2 1639   1.167   2.408   1.141 -0.2167 -0.9016  1.3080
  410SOL     MW 1640   1.100   2.447   1.172  0.3085 -0.1134  0.1747
  411SOL     OW 1641   1.990   2.940   2.948 -0.1487  0.4973 -0.1323
  411SOL    HW1 1642   1.978   2.929   2.851  2.0146  2.1815  0.0916
  411SOL    HW2 1643   1.943   3.021   2.969  1.6982  0.3892  0.6162
  411SOL     MW 1644   1.982   2.949   2.938  0.3804  0.7052 -0.0040
  412SOL     OW 1645   1.082   2.254   0.639  1.0403  0.2503  0.4865
  412SOL    HW1 1646   1.107   2.340   0.673  1.5581 -1.2379  2.7755
  412SOL    HW2 1647   0.996   2.264   0.589 -2.3307  2.3533  1.7696
  412SOL     MW 1648   1.074   2.267   0.637  0.6638  0.3314  0.9578
  413SOL     OW 1649   0.596   2.673   0.061 -0.2496 -0.2928  0.6048
  413SOL    HW1 1650   0.674   2.617   0.068 -2.1759  1.2350  1.7375
  413SOL    HW2 1651   0.607   2.694  -0.030 -1.0601  0.8209 -0.1095
  413SOL     MW 1652   0.608   2.668   0.050 -0.6107  0.0557  0.6600
  414SOL     OW 1653   2.069   3.010   1.090  0.3047  0.5952 -0.2630
  414SOL    HW1 1654   2.061   3.106   1.102  1.9565 -0.4145  1.5162
  414SOL    HW2 1655   2.105   2.996   1.004 -0.7156 -0.1120  0.9863
  414SOL     MW 1656   2.072   3.021   1.081  0.3880  0.3687  0.1366
  415SOL     OW 1657   1.659   2.841   1.177  0.0581 -0.2385  0.5670
  415SOL    HW1 1658   1.733   2.878   1.232  1.2325 -2.2204  0.9093
  415SOL    HW2 1659   1.710   2.774   1.119  1.6299  0.9020 -0.2984
  415SOL     MW 1660   1.676   2.837   1.177  0.4205 -0.3495  0.4980
  416SOL     OW 1661   0.679   1.761   1.433  0.5781 -0.4632  0.2352
  416SOL    HW1 1662   0.582   1.772   1.405 -2.0901 -1.9530  0.5168
  416SOL    HW2 1663   0.679   1.665   1.439  0.5354 -2.7779  1.7573
  416SOL     MW 1664   0.666   1.750   1.430  0.2204 -0.9651  0.4732
  417SOL     OW 1665   0.934   0.072   2.097  0.2795  0.6610  0.0922
  417SOL    HW1 1666   0.871   0.077   2.165  0.4445  0.4625 -0.1673
  417SOL    HW2 1667   0.910   0.006   2.032  0.0017 -2.6993 -0.5109
  417SOL     MW 1668   0.922   0.064   2.097  0.2646  0.1915 -0.0216
  418SOL     OW 1669   0.750   2.853   0.183 -0.1806  0.1485 -0.6342
  418SOL    HW1 1670   0.829   2.850   0.127 -1.2648 -1.5900 -0.6147
  418SOL    HW2 1671   0.680   2.806   0.143  0.4879  1.5104  2.8725
  418SOL     MW 1672   0.751   2.847   0.171 -0.2354  0.0988 -0.1689
  419SOL     OW 1673   0.635   2.694   1.336 -0.3877  0.1088 -0.6934
  419SOL    HW1 1674   0.636   2.785   1.363  1.4669  0.5997 -0.8384
  419SOL    HW2 1675   0.723   2.657   1.333 -2.4272  3.4271 -2.6973
  419SOL     MW 1676   0.647   2.701   1.339 -0.4121  0.6114 -0.9769
  420SOL     OW 1677   0.823   2.233   1.150  0.0504 -0.1397  0.2976
  420SOL    HW1 1678   0.757   2.261   1.211  2.5571 -0.4498 -0.0269
  420SOL    HW2 1679   0.850   2.309   1.102 -2.4169 -1.1995 -1.8183
  420SOL     MW 1680   0.818   2.247   1.152  0.0556 -0.3204 -0.0244
  421SOL     OW 1681   2.919   0.125   0.058 -0.0001 -0.1983 -0.4001
  421SOL    HW1 1682   2.841   0.072   0.045  0.8710  0.2862  0.4553
  421SOL    HW2 1683   2.982   0.059   0.051 -3.6064  3.2062 -1.1165
  421SOL     MW 1684   2.917   0.109   0.056 -0.3610  0.3148 -0.3818
  422SOL     OW 1685   0.892   2.449   0.966 -0.3960  0.2912  0.0272
  422SOL    HW1 1686   0.820   2.498   1.000 -2.6772  0.4143 -0.3525
  422SOL    HW2 1687   0.880   2.451   0.872  0.5661 -1.5906  0.9538
  422SOL     MW 1688   0.881   2.456   0.958 -0.5700  0.0591  0.0993
  423SOL     OW 1689   1.573   0.056   0.482  0.4039  0.3105 -0.5449
  423SOL    HW1 1690   1.567   0.039   0.390  0.0338  1.5809 -1.1763
  423SOL    HW2 1691   1.551   0.146   0.483  0.1429 -0.5184 -0.1399
  423SOL     MW 1692   1.570   0.065   0.470  0.3206  0.3688 -0.5748
  424SOL     OW 1693   0.657   2.314   1.348  0.2351  0.2065  0.5216
  424SOL    HW1 1694   0.584   2.252   1.361  0.9036 -0.1687 -0.5855
  424SOL    HW2 1695   0.721   2.299   1.422 -1.4753  0.0597  1.7265
  424SOL     MW 1696   0.656   2.304   1.360  0.0976  0.1376  0.5345
  425SOL     OW 1697   1.744   2.812   2.035  0.2416 -0.3200 -0.1991
  425SOL    HW1 1698   1.741   2.823   1.935  1.2676  3.7668 -0.2731
  425SOL    HW2 1699   1.772   2.722   2.062 -0.9245 -2.8750  0.3837
  425SOL     MW 1700   1.748   2.801   2.025  0.2231 -0.1179 -0.1320
  426SOL     OW 1701   0.824   1.755   1.945 -0.6906  0.0015 -0.1624
  426SOL    HW1 1702   0.762   1.746   1.870  0.6533 -1.2290  0.8970
  426SOL    HW2 1703   0.804   1.815   2.016  1.8078  4.6173 -1.4145
  426SOL     MW 1704   0.813   1.762   1.944 -0.1836  0.4482 -0.1879
  427SOL     OW 1705   0.402   1.770   1.882 -0.0607  0.1461 -0.0812
  427SOL    HW1 1706   0.458   1.722   1.831 -0.4388  1.3933  1.6690
  427SOL    HW2 1707   0.368   1.703   1.944  2.0040 -2.9050  0.6798
  427SOL     MW 1708   0.405   1.755   1.883  0.1619 -0.0919  0.2501
  428SOL     OW 1709   0.635   2.541   1.050 -0.0673 -0.2929 -0.6339
  428SOL    HW1 1710   0.600   2.460   1.086  0.0037  0.1288 -1.2175
  428SOL    HW2 1711   0.612   2.606   1.119 -1.4897  1.8323  1.3600
  428SOL     MW 1712   0.627   2.538   1.064 -0.2456  0.0432 -0.4478
  429SOL     OW 1713   1.254   2.818   1.064  0.4624  0.1869  0.4423
  429SOL    HW1 1714   1.174   2.817   1.114  1.5315  0.3423 -1.2345
  429SOL    HW2 1715   1.280   2.910   1.051  0.1437 -1.8705 -1.5337
  429SOL     MW 1716   1.247   2.830   1.069  0.5614 -0.0641 -0.0396
  430SOL     OW 1717   1.199   2.814   0.783  0.1836  0.1415 -0.4893
  430SOL    HW1 1718   1.203   2.770   0.871 -0.2289 -1.1347 -0.5887
  430SOL    HW2 1719   1.138   2.755   0.734 -0.4005 -4.1588  2.3607
  430SOL     MW 1720   1.191   2.800   0.788  0.0521 -0.5942 -0.1264
  431SOL     OW 1721   0.359   1.882   1.122  0.0823 -0.2009 -0.5093
  431SOL    HW1 1722   0.422   1.807   1.133 -0.1793 -2.2813 -0.1933
  431SOL    HW2 1723   0.347   1.906   1.032 -0.9155  0.1446  2.3347
  431SOL     MW 1724   0.366   1.875   1.112 -0.0838 -0.4298 -0.0924
  432SOL     OW 1725   0.026   0.007   1.123 -0.2798 -0.4011 -0.1341
  432SOL    HW1 1726   0.016   0.078   1.198  2.2434  1.8358  2.2673
  432SOL    HW2 1727  -0.037  -0.064   1.142  4.8058 -0.3677 -3.1570
  432SOL     MW 1728   0.016   0.007   1.135  0.7241 -0.1015 -0.2161
  433SOL     OW 1729   0.643   2.917   1.489 -0.1039  0.5739  0.0457
  433SOL    HW1 1730   0.631   2.998   1.534 -0.9860  0.0465 -0.2839
  433SOL    HW2 1731   0.730   2.903   1.531 -2.2830  0.1312  1.1783
  433SOL     MW 1732   0.653   2.926   1.501 -0.5078  0.4459  0.1517
  434SOL     OW 1733   1.485   2.806   1.786  0.1011  0.0811  0.6458
  434SOL    HW1 1734   1.419   2.867   1.824 -0.9186  2.2111 -2.4362
  434SOL    HW2 1735   1.491   2.806   1.689  1.7268  0.5297  0.7191
  434SOL     MW 1736   1.477   2.814   1.778  0.1810  0.4213  0.2488
  435SOL     OW 1737   2.705   1.790   0.283  0.6606  0.4864  0.4051
  435SOL    HW1 1738   2.759   1.819   0.214  2.5345 -2.5622 -0.5763
  435SOL    HW2 1739   2.615   1.810   0.265  1.5710  0.4009  0.1965
  435SOL     MW 1740   2.701   1.796   0.271  1.0279  0.0729  0.2481
  436SOL     OW 1741   1.372   2.765   0.357  0.2761  0.7330 -0.2626
  436SOL    HW1 1742   1.439   2.737   0.428 -0.8818  1.8740 -2.6808
  436SOL    HW2 1743   1.368   2.857   0.375 -1.5010  0.5545 -0.2037
  436SOL     MW 1744   1.381   2.773   0.368 -0.1112  0.8600 -0.5739
  437SOL     OW 1745   0.891   0.010   1.307 -0.6541 -0.0895 -0.0013
  437SOL    HW1 1746   0.961   0.019   1.238 -0.4528 -1.3460 -1.5129
  437SOL    HW2 1747   0.849  -0.076   1.290  2.6858  0.0767  3.0311
  437SOL     MW 1748   0.895  -0.000   1.296 -0.1869 -0.2333  0.1993
  438SOL     OW 1749   0.847   2.694   2.017 -0.4493 -0.0937  0.5118
  438SOL    HW1 1750   0.873   2.637   2.095  0.4202  0.1881  2.4445
  438SOL    HW2 1751   0.800   2.638   1.960  1.3244 -1.4763  1.0946
  438SOL     MW 1752   0.844   2.679   2.020 -0.1005 -0.2389  0.8437
  439SOL     OW 1753   1.162   2.083   0.415  0.5727  0.1930 -0.4286
  439SOL    HW1 1754   1.148   2.099   0.507 -0.1317  1.3351 -2.1914
  439SOL    HW2 1755   1.170   2.173   0.379 -0.7070 -1.9159  0.0440
  439SOL     MW 1756   1.161   2.097   0.422  0.3109  0.0655 -0.5989
  440SOL     OW 1757   1.815   2.748   3.036  0.0242  0.1533  0.6173
  440SOL    HW1 1758   1.807   2.760   3.133  2.1487 -0.8827 -0.2040
  440SOL    HW2 1759   1.879   2.808   3.012 -0.9693 -1.3325  0.1981
  440SOL     MW 1760   1.822   2.758   3.046  0.1735 -0.1794  0.4536
  441SOL     OW 1761   0.507   2.696   0.466 -0.3360 -0.0616 -0.1382
  441SOL    HW1 1762   0.488   2.662   0.375 -0.3335 -0.9191  1.6552
  441SOL    HW2 1763   0.509   2.791   0.459  1.5164  2.6855 -0.6619
  441SOL     MW 1764   0.505   2.704   0.453 -0.0913  0.1877  0.0293
  442SOL     OW 1765   0.029   2.425   0.628 -0.4019  0.4723 -0.3512
  442SOL    HW1 1766   0.049   2.508   0.596 -1.4191 -0.4325  0.2466
  442SOL    HW2 1767  -0.065   2.418   0.634 -0.2730  0.2902 -0.1237
  442SOL     MW 1768   0.019   2.435   0.624 -0.5191  0.3289 -0.2423
  443SOL     OW 1769   1.476   1.778   1.939 -0.0434 -0.2364 -0.0861
  443SOL    HW1 1770   1.422   1.812   1.871 -0.0384 -0.9636 -0.2975
  443SOL    HW2 1771   1.444   1.686   1.956  0.9454 -1.7036 -2.8653
  443SOL     MW 1772   1.465   1.770   1.932  0.0877 -0.5260 -0.4806
  444SOL     OW 1773   0.896   2.592   1.629 -0.7975 -0.2717  0.2171
  444SOL    HW1 1774   0.982   2.576   1.665 -0.9420  0.3540  0.4751
  444SOL    HW2 1775   0.832   2.568   1.696 -0.6430  1.9274 -0.4011
  444SOL     MW 1776   0.899   2.587   1.643 -0.7962  0.1010  0.1696
  445SOL     OW 1777   1.166   0.091   1.406  0.3516  0.3260  0.7016
  445SOL    HW1 1778   1.108   0.141   1.464 -0.3098 -1.4414  2.1356
  445SOL    HW2 1779   1.198   0.151   1.338 -2.0925 -0.8144 -1.3936
  445SOL     MW 1780   1.163   0.106   1.405 -0.0582 -0.0577  0.6143
  446SOL     OW 1781   2.681   2.815   1.057 -0.1517 -0.1968  0.0184
  446SOL    HW1 1782   2.628   2.822   0.982 -1.1864 -0.6788  0.2844
  446SOL    HW2 1783   2.753   2.751   1.035  1.0502 -3.1110  3.5911
  446SOL     MW 1784   2.684   2.807   1.044 -0.1297 -0.6449  0.5249
  447SOL     OW 1785   0.073   1.971   1.569 -0.1370  0.0369  0.3380
  447SOL    HW1 1786   0.098   1.898   1.634  0.3257 -0.6684  1.2321
  447SOL    HW2 1787   0.005   1.932   1.519 -1.3072 -2.7268  0.5098
  447SOL     MW 1788   0.067   1.956   1.571 -0.2304 -0.4208  0.4787
  448SOL     OW 1789   1.697   2.365   1.672  0.2195  0.4495  0.2090
  448SOL    HW1 1790   1.635   2.295   1.681  1.5401  1.1681 -1.1384
  448SOL    HW2 1791   1.639   2.442   1.691 -0.1254  0.5265  1.3879
  448SOL     MW 1792   1.681   2.366   1.675  0.3483  0.5545  0.1868
  449SOL     OW 1793   0.933   2.906   0.385 -0.1237 -0.0029 -0.5244
  449SOL    HW1 1794   0.874   2.853   0.330 -0.8070  1.0662 -2.3436
  449SOL    HW2 1795   0.872   2.946   0.452  1.1115 -0.6080  1.6771
  449SOL     MW 1796   0.917   2.904   0.387 -0.0509  0.0583 -0.4740
  450SOL     OW 1797   1.193   2.472   0.754  0.1260 -0.6113 -0.6001
  450SOL    HW1 1798   1.217   2.443   0.840  0.6988  2.8920 -2.1626
  450SOL    HW2 1799   1.264   2.455   0.684 -2.0112 -1.9663 -0.6059
  450SOL     MW 1800   1.205   2.466   0.756 -0.0804 -0.3278 -0.8070
  451SOL     OW 1801   0.526   2.008   1.683  0.6645  0.6719  0.0181
  451SOL    HW1 1802   0.600   2.053   1.649 -0.3227 -2.5611  0.1118
  451SOL    HW2 1803   0.481   1.961   1.605 -0.9222  0.4957  0.8517
  451SOL     MW 1804   0.530   2.008   1.669  0.3249  0.2221  0.1404
  452SOL     OW 1805   0.283   2.647   0.003  0.5962 -0.1025 -0.0823
  452SOL    HW1 1806   0.323   2.729   0.009 -0.3888 -1.4353  0.8935
  452SOL    HW2 1807   0.206   2.686  -0.035  2.4802 -0.8204  2.6376
  452SOL     MW 1808   0.278   2.663  -0.001  0.7148 -0.3731  0.4053
  453SOL     OW 1809   0.190   2.988   1.585 -0.0563  0.2748 -0.0332
  453SOL    HW1 1810   0.229   2.950   1.664  0.5544  0.5698 -1.2576
  453SOL    HW2 1811   0.246   2.956   1.514  1.6237 -0.8521  1.0698
  453SOL     MW 1812   0.203   2.979   1.586  0.2459  0.1650 -0.0492
  454SOL     OW 1813   0.950   2.803   1.173  0.0470  0.4959 -0.3044
  454SOL    HW1 1814   0.906   2.752   1.248 -1.9364 -0.9466  0.4533
  454SOL    HW2 1815   0.879   2.838   1.118  0.3127  1.9870 -0.3653
  454SOL     MW 1816   0.935   2.801   1.176 -0.1796  0.5023 -0.2124
  455SOL     OW 1817   1.755   2.801   0.196  0.3154  0.1244  0.3955
  455SOL    HW1 1818   1.805   2.787   0.274 -3.2849  0.1109 -0.1521
  455SOL    HW2 1819   1.685   2.735   0.203  0.7986  0.4145 -2.1430
  455SOL     MW 1820   1.752   2.790   0.207 -0.0959  0.1609 -0.0117
  456SOL     OW 1821   2.781   0.229   1.455  0.4354 -0.1762 -0.3432
  456SOL    HW1 1822   2.785   0.184   1.373 -2.6809  0.3317 -0.0174
  456SOL    HW2 1823   2.791   0.324   1.436  1.6103 -0.0019  0.2857
  456SOL     MW 1824   2.783   0.235   1.441  0.1792 -0.0862 -0.2173
  457SOL     OW 1825   0.812   1.637   3.041  0.2491 -0.5110 -0.1099
  457SOL    HW1 1826   0.717   1.603   3.054 -0.3167 -0.2075  3.2551
  457SOL    HW2 1827   0.831   1.679   3.128  2.7784 -1.0031 -0.2052
  457SOL     MW 1828   0.802   1.638   3.054  0.5081 -0.5359  0.3215
  458SOL     OW 1829   1.324   1.497   0.690 -0.2821  1.1549 -0.0753
  458SOL    HW1 1830   1.252   1.553   0.684  1.9329 -1.6684  0.1060
  458SOL    HW2 1831   1.315   1.411   0.639  0.6488 -2.1775  0.6220
  458SOL     MW 1832   1.313   1.493   0.683  0.1330  0.3427  0.0406
  459SOL     OW 1833   1.587   3.048   0.227  0.5035 -0.0256 -0.1473
  459SOL    HW1 1834   1.612   2.957   0.221  1.4243  2.3281  0.1455
  459SOL    HW2 1835   1.540   3.067   0.140  0.9568  1.1967 -0.6707
  459SOL     MW 1836   1.584   3.038   0.214  0.6848  0.4463 -0.1777
  460SOL     OW 1837   1.777   2.229   0.648 -0.3133 -0.2015  0.4056
  460SOL    HW1 1838   1.689   2.207   0.666  3.4311  0.6334  0.3193
  460SOL    HW2 1839   1.821   2.146   0.635 -2.9534  1.6798 -1.5276
  460SOL     MW 1840   1.771   2.215   0.648 -0.1676  0.1569  0.1391
  461SOL     OW 1841   0.447   2.442   0.543  0.7669 -0.4035  0.0196
  461SOL    HW1 1842   0.462   2.534   0.522 -2.0579 -2.1453  0.1882
  461SOL    HW2 1843   0.415   2.443   0.631  0.2498 -2.0974  1.1038
  461SOL     MW 1844   0.444   2.454   0.552  0.3260 -0.8568  0.1849
  462SOL     OW 1845   0.318   0.237   1.274  0.6833  0.1055  0.1311
  462SOL    HW1 1846   0.340   0.186   1.192 -0.0900 -0.6629  1.0067
  462SOL    HW2 1847   0.391   0.222   1.328 -0.3765  0.7035 -0.4273
  462SOL     MW 1848   0.331   0.228   1.270  0.4414  0.0830  0.1729
  463SOL     OW 1849   1.114   0.105   0.723  0.2151  0.3079  0.0403
  463SOL    HW1 1850   1.196   0.061   0.697  0.1913 -1.7140  2.1463
  463SOL    HW2 1851   1.058   0.100   0.649 -0.9304  1.9389 -0.0295
  463SOL     MW 1852   1.117   0.099   0.710  0.0609  0.2563  0.3090
  464SOL     OW 1853   0.734   3.044   2.301 -0.3841 -0.0435  0.6476
  464SOL    HW1 1854   0.745   2.945   2.294 -2.4288  0.7247  3.8157
  464SOL    HW2 1855   0.760   3.061   2.390 -0.9446 -5.2800 -2.5749
  464SOL     MW 1856   0.739   3.033   2.312 -0.7278 -0.6330  0.6405
  465SOL     OW 1857   0.852   0.321   0.394  0.5205  0.2994 -0.3739
  465SOL    HW1 1858   0.805   0.250   0.440 -1.0075  0.2064  1.5518
  465SOL    HW2 1859   0.833   0.297   0.303  0.1346 -2.4897  1.6129
  465SOL     MW 1860   0.843   0.308   0.388  0.2680 -0.0808  0.1423
  466SOL     OW 1861   1.112   2.043   0.816  0.1269  0.2176  0.0843
  466SOL    HW1 1862   1.103   1.964   0.753 -0.3612 -5.5886  1.6461
  466SOL    HW2 1863   1.105   2.130   0.763  2.0705  0.0067 -0.4308
  466SOL     MW 1864   1.110   2.044   0.801  0.3190 -0.5763  0.2224
  467SOL     OW 1865   1.281   2.344   1.028  0.6555 -0.4857  1.2878
  467SOL    HW1 1866   1.365   2.385   1.062  1.2186 -3.4249  0.2183
  467SOL    HW2 1867   1.304   2.250   1.019  0.7674  0.8215 -1.5994
  467SOL     MW 1868   1.295   2.337   1.031  0.7445 -0.7010  0.7657
  468SOL     OW 1869   0.427   2.665   1.953 -0.5778 -0.7336  0.9267
  468SOL    HW1 1870   0.397   2.584   1.910 -0.7377  1.6763  1.0012
  468SOL    HW2 1871   0.395   2.739   1.895  0.3633  4.2997 -2.0226
  468SOL     MW 1872   0.419   2.664   1.939 -0.4747  0.2484  0.5474
  469SOL     OW 1873   0.340   2.151   1.773  0.1298  0.9185  0.1687
  469SOL    HW1 1874   0.293   2.090   1.833  0.6684 -0.5556 -4.4204
  469SOL    HW2 1875   0.415   2.087   1.748  0.0310  2.7227 -3.0973
  469SOL     MW 1876   0.344   2.134   1.778  0.1878  0.9621 -0.8677
  470SOL     OW 1877   3.040   2.604   0.112  0.0155 -0.0174  0.1235
  470SOL    HW1 1878   2.956   2.595   0.171 -1.2164 -2.2836  1.4343
  470SOL    HW2 1879   3.009   2.603   0.021  1.3139 -0.0387  0.1436
  470SOL     MW 1880   3.025   2.603   0.108  0.0243 -0.3192  0.2991
  471SOL     OW 1881   1.211   2.663   1.370  1.6357  0.4133 -0.5328
  471SOL    HW1 1882   1.144   2.611   1.320 -0.3861  0.8936  1.0447
  471SOL    HW2 1883   1.280   2.678   1.305  2.2170  3.0108  1.3080
  471SOL     MW 1884   1.212   2.658   1.355  1.4456  0.8194 -0.0818
  472SOL     OW 1885   2.978   2.136   0.358  0.3329 -0.0522  0.2503
  472SOL    HW1 1886   2.946   2.082   0.284 -0.0377 -1.9079 -1.3883
  472SOL    HW2 1887   2.923   2.085   0.427 -1.2838 -2.4848  1.0621
  472SOL     MW 1888   2.967   2.122   0.357  0.0707 -0.6180  0.1412
  473SOL     OW 1889   0.871   2.573   1.349  0.3304  0.2088  0.5233
  473SOL    HW1 1890   0.888   2.494   1.301  0.4121  0.9246  0.0984
  473SOL    HW2 1891   0.893   2.556   1.447 -0.4425 -1.8123 -1.0244
  473SOL     MW 1892   0.876   2.561   1.356  0.2392  0.0366  0.2630
  474SOL     OW 1893   0.780   2.258   1.835  0.5158 -0.1150  0.2217
  474SOL    HW1 1894   0.862   2.255   1.886 -1.9471 -0.2266  1.4533
  474SOL    HW2 1895   0.803   2.256   1.742  2.3408 -0.6949 -0.7158
  474SOL     MW 1896   0.794   2.257   1.829  0.4316 -0.2062  0.2605
  475SOL     OW 1897   1.571   3.082   1.546  0.1765  0.2888  0.1689
  475SOL    HW1 1898   1.504   3.043   1.480 -1.8878 -3.9880  0.4705
  475SOL    HW2 1899   1.602   3.012   1.602  0.2695  0.2656  0.4139
  475SOL     MW 1900   1.567   3.067   1.545 -0.0836 -0.2786  0.2410
  476SOL     OW 1901   1.431   2.668   1.208 -0.3064  0.1875  0.2648
  476SOL    HW1 1902   1.382   2.698   1.136 -0.3194 -1.0605  0.9797
  476SOL    HW2 1903   1.501   2.730   1.215 -2.1020 -1.6397  1.0398
  476SOL     MW 1904   1.434   2.680   1.199 -0.5450 -0.2182  0.4614
  477SOL     OW 1905   0.874   2.491   0.668 -0.4293 -0.9628 -0.2706
  477SOL    HW1 1906   0.929   2.568   0.637  0.7484 -2.1012 -2.0110
  477SOL    HW2 1907   0.851   2.446   0.587 -0.5001 -1.8420 -1.4641
  477SOL     MW 1908   0.878   2.495   0.653 -0.2832 -1.2290 -0.6577
  478SOL     OW 1909   0.189   2.664   0.842 -0.7122  0.3013 -0.0474
  478SOL    HW1 1910   0.239   2.743   0.824  0.6981  1.0721  0.0040
  478SOL    HW2 1911   0.250   2.588   0.831  0.0997  2.3304 -0.7768
  478SOL     MW 1912   0.203   2.665   0.838 -0.4190  0.6707 -0.1368
  479SOL     OW 1913   1.410   1.986   1.299 -0.0408 -0.4084  0.0489
  479SOL    HW1 1914   1.390   2.003   1.394  1.6932  0.3343 -0.2433
  479SOL    HW2 1915   1.435   1.892   1.300 -1.1987  0.9914 -0.5826
  479SOL     MW 1916   1.410   1.976   1.311  0.0352 -0.1257 -0.0730
  480SOL     OW 1917   1.912   2.448   1.349 -0.6602  0.1983  0.2536
  480SOL    HW1 1918   1.944   2.372   1.384 -0.6870  0.6440 -2.4359
  480SOL    HW2 1919   1.906   2.428   1.255 -0.2997  1.5188 -0.8130
  480SOL     MW 1920   1.916   2.435   1.341 -0.6162  0.4314 -0.2420
  481SOL     OW 1921   1.076   0.065   1.111  0.1589  0.2549 -0.1955
  481SOL    HW1 1922   1.079   0.008   1.038 -0.3122 -1.8769  0.3254
  481SOL    HW2 1923   1.167   0.090   1.113 -0.1580 -2.2582  0.7613
  481SOL     MW 1924   1.089   0.061   1.102  0.0549 -0.3580 -0.0005
  482SOL     OW 1925   1.081   3.096   0.243  0.7037 -0.1639 -0.0032
  482SOL    HW1 1926   1.030   3.031   0.285 -1.0513  2.7997  0.3098
  482SOL    HW2 1927   1.073   3.177   0.299  0.4483 -1.5850  1.8768
  482SOL     MW 1928   1.073   3.098   0.256  0.4384  0.0396  0.2862
  483SOL     OW 1929   0.500   3.019   0.441  0.3417 -0.0042 -0.7262
  483SOL    HW1 1930   0.427   3.002   0.384  1.7444  0.2972 -3.1928
  483SOL    HW2 1931   0.452   3.054   0.519  0.5576  2.3606 -0.6879
  483SOL     MW 1932   0.484   3.022   0.444  0.5553  0.3476 -1.0466
  484SOL     OW 1933   1.877   2.036   1.434  0.7554 -0.0143  0.1705
  484SOL    HW1 1934   1.944   2.107   1.450  0.6480  0.6444  0.2507
  484SOL    HW2 1935   1.839   2.027   1.524 -0.4064 -2.3054  1.4611
  484SOL     MW 1936   1.881   2.044   1.448  0.5880 -0.2297  0.3514
  485SOL     OW 1937   0.631   2.416   0.265 -0.1769 -0.0826 -0.4077
  485SOL    HW1 1938   0.671   2.412   0.357  0.4284  1.2816 -1.0597
  485SOL    HW2 1939   0.566   2.490   0.259  0.9113  0.3220 -3.6167
  485SOL     MW 1940   0.627   2.425   0.277  0.0465  0.1508 -0.9171
  486SOL     OW 1941   0.146   2.390   1.483 -0.2403  0.4597 -0.4181
  486SOL    HW1 1942   0.196   2.449   1.431 -0.3022  0.7973 -0.6540
  486SOL    HW2 1943   0.171   2.410   1.574 -2.1099  1.5110  1.5036
  486SOL     MW 1944   0.156   2.400   1.488 -0.4952  0.6429 -0.1957
  487SOL     OW 1945   1.148   1.735   1.058 -0.4382 -0.1533  0.2274
  487SOL    HW1 1946   1.156   1.821   1.083 -3.0606 -2.3333 -2.9934
  487SOL    HW2 1947   1.242   1.705   1.044  1.2229 -1.1341  0.1860
  487SOL     MW 1948   1.162   1.743   1.060 -0.5650 -0.5703 -0.2030
  488SOL     OW 1949   1.638   1.871   0.501  0.4006  0.4831 -0.7297
  488SOL    HW1 1950   1.691   1.859   0.418 -0.9074 -0.4431 -0.2825
  488SOL    HW2 1951   1.575   1.943   0.484 -1.2667 -0.7965  0.4019
  488SOL     MW 1952   1.636   1.879   0.488  0.0080  0.1921 -0.5214
  489SOL     OW 1953   0.783   0.818   0.594 -0.1333 -0.1011  0.5913
  489SOL    HW1 1954   0.767   0.737   0.545  2.3744  3.3678 -0.2553
  489SOL    HW2 1955   0.773   0.804   0.689 -0.9327 -1.2605 -1.8399
  489SOL     MW 1956   0.779   0.806   0.600  0.0921  0.2036  0.1588
  490SOL     OW 1957   1.445   2.089   0.454  0.6031  0.0683 -0.2410
  490SOL    HW1 1958   1.486   2.170   0.424 -1.1773 -0.8747  1.6455
  490SOL    HW2 1959   1.352   2.097   0.430 -1.0208  0.5113 -1.0436
  490SOL     MW 1960   1.439   2.101   0.447  0.1539  0.0023 -0.0980
  491SOL     OW 1961   1.328   3.033   0.437  0.0949 -0.0412  0.6090
  491SOL    HW1 1962   1.421   3.067   0.416  2.6395  0.3379 -0.5301
  491SOL    HW2 1963   1.265   3.068   0.372 -1.6643 -2.4600  0.0569
  491SOL     MW 1964   1.332   3.042   0.426  0.1985 -0.3103  0.3858
  492SOL     OW 1965   1.483   2.195   0.729  0.0193 -0.1738 -0.2744
  492SOL    HW1 1966   1.445   2.153   0.647 -0.6806 -2.2409 -2.2672
  492SOL    HW2 1967   1.417   2.172   0.795 -0.3712 -0.2633 -3.1140
  492SOL     MW 1968   1.469   2.186   0.727 -0.1246 -0.4583 -0.9120
  493SOL     OW 1969   0.288   2.979   0.264  0.1437 -0.0820 -0.0722
  493SOL    HW1 1970   0.212   2.991   0.324  0.0158 -2.5713 -0.5280
  493SOL    HW2 1971   0.251   3.041   0.197 -0.1104 -2.2774 -1.1032
  493SOL     MW 1972   0.273   2.989   0.263  0.0933 -0.7001 -0.2683
  494SOL     OW 1973   0.462   2.438   1.751 -0.1706  0.4963 -0.6947
  494SOL    HW1 1974   0.448   2.344   1.740 -1.7023  0.7715  0.6839
  494SOL    HW2 1975   0.497   2.470   1.662 -0.7713 -1.2032  0.6272
  494SOL     MW 1976   0.465   2.430   1.738 -0.4519  0.3084 -0.3384
  495SOL     OW 1977   2.825   1.763   2.566 -0.0737 -0.5229  0.2416
  495SOL    HW1 1978   2.775   1.841   2.584 -1.2122  1.5429  0.4348
  495SOL    HW2 1979   2.802   1.724   2.646  0.2305  3.6347 -1.3078
  495SOL     MW 1980   2.815   1.768   2.579 -0.1838  0.2982  0.0627
  496SOL     OW 1981   2.884   2.337   2.643 -0.1173  0.2815 -0.0900
  496SOL    HW1 1982   2.940   2.284   2.699 -2.2749  0.6976 -1.7057
  496SOL    HW2 1983   2.920   2.427   2.652 -1.2624  0.8302 -0.4054
  496SOL     MW 1984   2.896   2.342   2.651 -0.5531  0.4088 -0.3448
  497SOL     OW 1985   1.547   2.212   2.683  0.2683  0.6893 -0.1441
  497SOL    HW1 1986   1.493   2.148   2.632  0.3603 -0.2608  1.0845
  497SOL    HW2 1987   1.575   2.165   2.761 -1.0892  0.4675 -2.3724
  497SOL     MW 1988   1.544   2.197   2.687  0.1013  0.5347 -0.2760
  498SOL     OW 1989   1.467   2.676   2.348 -0.2917 -0.8031  0.1422
  498SOL    HW1 1990   1.468   2.579   2.355  0.2488 -0.4628  0.4258
  498SOL    HW2 1991   1.553   2.704   2.373 -2.9119  1.4213  0.2733
  498SOL     MW 1992   1.479   2.667   2.352 -0.5661 -0.4647  0.1969
  499SOL     OW 1993   0.975   0.161   3.079  0.6475 -0.2556 -0.4461
  499SOL    HW1 1994   0.910   0.171   3.147 -1.4747 -2.4240 -0.7342
  499SOL    HW2 1995   1.044   0.110   3.112 -1.9110  1.5671  1.6020
  499SOL     MW 1996   0.975   0.156   3.092  0.0299 -0.3012 -0.2139
  500SOL     OW 1997   1.007   2.517   2.780 -0.1695  0.5171 -0.0041
  500SOL    HW1 1998   1.082   2.519   2.843  1.3398  0.4168 -1.3467
  500SOL    HW2 1999   0.929   2.491   2.835 -1.9258  0.8344 -0.0697
  500SOL     MW 2000   1.006   2.514   2.796 -0.2021  0.5457 -0.1899
  501SOL     OW 2001   1.761   2.186   3.051 -0.0663 -0.2367 -0.0005
  501SOL    HW1 2002   1.748   2.272   3.089 -1.3897  0.7150  1.1824
  501SOL    HW2 2003   1.850   2.171   3.074  0.4549 -1.8952  0.6000
  501SOL     MW 2004   1.771   2.195   3.059 -0.1721 -0.3300  0.2348
  502SOL     OW 2005   0.123   2.804   2.963 -0.0219 -0.1247 -0.9502
  502SOL    HW1 2006   0.062   2.749   2.917  1.9886  0.9045 -2.7409
  502SOL    HW2 2007   0.184   2.835   2.898 -2.3365 -1.0322 -0.2755
  502SOL     MW 2008   0.123   2.801   2.949 -0.0621 -0.1086 -1.0975
  503SOL     OW 2009   1.067   2.934   2.171  0.6572  0.4461 -0.0343
  503SOL    HW1 2010   0.989   2.907   2.121 -0.6783 -1.6360  2.2424
  503SOL    HW2 2011   1.067   3.031   2.160  3.4365 -0.7048  0.3728
  503SOL     MW 2012   1.057   2.943   2.163  0.8477  0.0196  0.3198
  504SOL     OW 2013   0.136   2.706   2.115 -0.4076 -0.3524 -0.4482
  504SOL    HW1 2014   0.169   2.619   2.099  1.4709  3.1340  1.6101
  504SOL    HW2 2015   0.043   2.703   2.096  2.5418  1.4338  1.0945
  504SOL     MW 2016   0.128   2.694   2.110  0.2294  0.3433  0.0269
  505SOL     OW 2017   1.716   2.698   2.704 -0.2654 -0.3716  0.5178
  505SOL    HW1 2018   1.706   2.662   2.612  2.1262 -1.5945  0.9691
  505SOL    HW2 2019   1.639   2.755   2.721  0.1209  3.7851 -3.5157
  505SOL     MW 2020   1.704   2.700   2.694  0.1011  0.0155  0.0452
  506SOL     OW 2021   1.654   3.003   2.873  0.6398  0.2651  0.0334
  506SOL    HW1 2022   1.693   2.955   2.945  1.9479  1.2652 -0.6864
  506SOL    HW2 2023   1.716   2.998   2.799 -0.0371  1.9216 -0.8814
  506SOL     MW 2024   1.667   2.996   2.873  0.7231  0.6156 -0.1823
  507SOL     OW 2025   0.787   2.866   2.925  0.0027 -0.0158  0.4289
  507SOL    HW1 2026   0.838   2.882   2.846  0.4581  0.1886 -0.7860
  507SOL    HW2 2027   0.706   2.919   2.923  4.5759  1.3880  1.3178
  507SOL     MW 2028   0.783   2.875   2.914  0.6662  0.1964  0.3859
  508SOL     OW 2029   1.100   2.082   2.460  0.1132 -0.0027 -0.6207
  508SOL    HW1 2030   1.172   2.066   2.520  0.1602 -3.6711 -2.9364
  508SOL    HW2 2031   1.055   2.168   2.482  0.8275 -0.2246 -0.6678
  508SOL     MW 2032   1.103   2.091   2.471  0.2136 -0.5160 -0.9324
  509SOL     OW 2033   0.569   2.565   2.893 -0.2178  0.3194 -0.0539
  509SOL    HW1 2034   0.577   2.550   2.795  0.2712  3.2552 -1.7524
  509SOL    HW2 2035   0.506   2.493   2.914  0.3140  0.7081  1.3521
  509SOL     MW 2036   0.562   2.553   2.883 -0.0831  0.7580 -0.0925
  510SOL     OW 2037   1.478   2.515   1.734  0.1824 -0.7693 -0.4943
  510SOL    HW1 2038   1.473   2.608   1.760  0.6064 -0.0790 -1.0507
  510SOL    HW2 2039   1.397   2.477   1.775  1.3298 -0.5489 -0.3685
  510SOL     MW 2040   1.467   2.522   1.743  0.3898 -0.6491 -0.5511
  511SOL     OW 2041   0.414   2.609   2.490  0.4247  0.5262 -0.0565
  511SOL    HW1 2042   0.500   2.604   2.533 -2.1656  1.1641  1.7763
  511SOL    HW2 2043   0.424   2.605   2.390 -0.4063 -0.9503 -0.1401
  511SOL     MW 2044   0.426   2.608   2.483 -0.0267  0.4155  0.1743
  512SOL     OW 2045   0.997   1.937   2.806 -0.4233 -0.7792 -0.0595
  512SOL    HW1 2046   0.907   1.909   2.829 -0.6439 -1.0770  0.3789
  512SOL    HW2 2047   1.048   1.858   2.827  0.9156 -0.6211 -1.5832
  512SOL     MW 2048   0.992   1.923   2.812 -0.2757 -0.7976 -0.2027
  513SOL     OW 2049   1.464   2.387   2.365  0.4194  0.2292 -0.0652
  513SOL    HW1 2050   1.552   2.396   2.397 -0.3793  3.6577  0.9206
  513SOL    HW2 2051   1.459   2.292   2.375 -0.5395 -0.2115 -0.8519
  513SOL     MW 2052   1.475   2.375   2.370  0.1875  0.6234 -0.0389
  514SOL     OW 2053   0.241   2.409   2.608 -0.4122 -0.5205  0.3722
  514SOL    HW1 2054   0.299   2.475   2.574 -0.7624 -1.3335 -0.7643
  514SOL    HW2 2055   0.247   2.433   2.698  0.5130  0.6443  1.4241
  514SOL     MW 2056   0.249   2.421   2.615 -0.3363 -0.4741  0.3611
  515SOL     OW 2057   1.189   2.063   1.918  0.4216 -0.2737  0.2092
  515SOL    HW1 2058   1.125   2.134   1.913 -2.7594 -0.6218 -0.0808
  515SOL    HW2 2059   1.190   2.036   2.011  1.5848 -0.5634  3.3421
  515SOL     MW 2060   1.181   2.069   1.929  0.1554 -0.3579  0.5843
  516SOL     OW 2061   1.437   2.482   3.051 -0.2886 -0.3829 -0.7304
  516SOL    HW1 2062   1.504   2.470   2.982 -1.0291  1.8197  0.7112
  516SOL    HW2 2063   1.354   2.484   3.003  1.6319 -1.0147  0.9715
  516SOL     MW 2064   1.434   2.480   3.036 -0.1329 -0.1757 -0.3157
  517SOL     OW 2065   0.592   2.413   2.077  0.2529  0.2310 -0.1272
  517SOL    HW1 2066   0.580   2.503   2.094  4.1553 -3.1218  0.3944
  517SOL    HW2 2067   0.502   2.368   2.067 -0.7757 -1.1388  1.6003
  517SOL     MW 2068   0.578   2.419   2.078  0.6321 -0.3921  0.1696
  518SOL     OW 2069   1.890   0.075   3.022  0.5143  0.2001 -0.1430
  518SOL    HW1 2070   1.863   0.138   2.950 -1.2548 -2.1166  0.4345
  518SOL    HW2 2071   1.822   0.093   3.092  0.0859  0.3815 -0.4143
  518SOL     MW 2072   1.877   0.086   3.022  0.2244 -0.0816 -0.1026
  519SOL     OW 2073   0.715   2.535   1.820 -0.3793 -0.5350  0.2930
  519SOL    HW1 2074   0.722   2.433   1.838 -0.8436  2.6498  3.8576
  519SOL    HW2 2075   0.626   2.532   1.774  1.3636 -0.5229  1.5040
  519SOL     MW 2076   0.704   2.521   1.816 -0.2106 -0.1132  0.9231
  520SOL     OW 2077   1.175   2.163   2.900 -0.1170 -0.0106  0.0075
  520SOL    HW1 2078   1.102   2.112   2.867  0.9440  1.4281  0.0106
  520SOL    HW2 2079   1.222   2.119   2.972 -3.0949  1.1773  0.0313
  520SOL     MW 2080   1.171   2.150   2.905 -0.3699  0.3360  0.0110
  521SOL     OW 2081   1.765   1.990   2.232  0.9254 -0.7001  0.2844
  521SOL    HW1 2082   1.768   2.037   2.150 -0.8670  0.6969  2.1358
  521SOL    HW2 2083   1.762   1.898   2.208  1.1194  1.1136  0.2657
  521SOL     MW 2084   1.765   1.984   2.218  0.7145 -0.2764  0.5262
  522SOL     OW 2085   2.885   2.604   2.239 -0.0352 -0.3917  0.0037
  522SOL    HW1 2086   2.963   2.540   2.249 -0.1615 -0.3812 -1.1968
  522SOL    HW2 2087   2.811   2.594   2.297 -0.1805  1.0900 -0.1623
  522SOL     MW 2088   2.886   2.594   2.248 -0.0710 -0.1948 -0.1766
  523SOL     OW 2089   0.833   1.514   2.098 -0.0848  0.1398 -0.3708
  523SOL    HW1 2090   0.832   1.577   2.025  0.2724 -0.2379  0.0733
  523SOL    HW2 2091   0.868   1.429   2.067 -0.0593 -0.1650  0.3465
  523SOL     MW 2092   0.838   1.511   2.085 -0.0343  0.0497 -0.2176
  524SOL     OW 2093   0.824   2.434   2.961  0.0210 -0.7008 -0.3001
  524SOL    HW1 2094   0.746   2.487   2.951 -1.3018  0.5775  1.8870
  524SOL    HW2 2095   0.812   2.343   2.934  2.4435 -0.9213  1.6748
  524SOL     MW 2096   0.812   2.429   2.956  0.1661 -0.5613  0.2490
  525SOL     OW 2097   0.338   2.277   2.018 -0.1784 -0.2233  0.0295
  525SOL    HW1 2098   0.340   2.242   2.106 -2.0848 -1.7325  0.5967
  525SOL    HW2 2099   0.355   2.212   1.950  1.4313 -2.9940  0.2358
  525SOL     MW 2100   0.341   2.264   2.020 -0.2175 -0.7880  0.1316
  526SOL     OW 2101   0.646   2.128   2.082  0.5238 -0.0898 -0.3547
  526SOL    HW1 2102   0.654   2.201   2.018  1.2890  0.9466 -0.0896
  526SOL    HW2 2103   0.637   2.174   2.166 -1.1993 -0.7455 -1.6726
  526SOL     MW 2104   0.646   2.144   2.085  0.3974 -0.0395 -0.4936
  527SOL     OW 2105   1.405   1.979   2.158 -0.3732 -0.4004 -0.1331
  527SOL    HW1 2106   1.329   1.944   2.196  0.0067  0.5863 -1.7023
  527SOL    HW2 2107   1.437   1.912   2.097 -0.0430  0.2746  0.8111
  527SOL     MW 2108   1.399   1.966   2.155 -0.2795 -0.1812 -0.2156
  528SOL     OW 2109   0.594   3.058   2.930 -0.4683  0.7573 -0.1248
  528SOL    HW1 2110   0.673   3.104   2.895 -0.6294  1.7433  0.2265
  528SOL    HW2 2111   0.535   3.051   2.853 -0.5941  2.1987  0.9010
  528SOL     MW 2112   0.596   3.063   2.916 -0.5061  1.0776  0.0569
  529SOL     OW 2113   1.039   2.294   1.945  0.6939  0.6060 -0.3356
  529SOL    HW1 2114   1.020   2.351   2.022  1.3955  0.2461  2.3489
  529SOL    HW2 2115   1.060   2.352   1.871 -1.6442 -1.9537 -0.4152
  529SOL     MW 2116   1.039   2.309   1.945  0.4780  0.2208  0.0081
  530SOL     OW 2117   1.166   2.436   2.993  0.0495 -0.2312 -0.3517
  530SOL    HW1 2118   1.135   2.481   3.075  0.0374  2.3909  0.1562
  530SOL    HW2 2119   1.131   2.348   2.993 -0.8831 -0.1151  1.5337
  530SOL     MW 2120   1.157   2.430   3.004 -0.0752  0.1300 -0.0359
  531SOL     OW 2121   0.959   1.887   2.549 -0.1859 -0.0769 -0.7664
  531SOL    HW1 2122   1.004   1.964   2.515  2.5727  0.5357  0.5122
  531SOL    HW2 2123   0.951   1.916   2.648  3.2386  0.3311  3.7763
  531SOL     MW 2124   0.964   1.901   2.557  0.6299  0.0578  0.0017
  532SOL     OW 2125   1.784   0.220   2.793  0.4855  0.5245  0.7932
  532SOL    HW1 2126   1.757   0.162   2.717  0.5199  1.3250 -0.6727
  532SOL    HW2 2127   1.850   0.273   2.753  1.6681 -2.2867  1.9690
  532SOL     MW 2128   1.789   0.219   2.778  0.6461  0.2592  0.7549
  533SOL     OW 2129   1.968   2.524   0.013  0.0852 -0.3359 -0.2329
  533SOL    HW1 2130   1.912   2.466   0.069  1.3872 -0.6074  0.6512
  533SOL    HW2 2131   1.907   2.595  -0.005 -1.6233  0.9040  0.4541
  533SOL     MW 2132   1.952   2.526   0.018  0.0315 -0.2081 -0.0256
  534SOL     OW 2133   1.701   2.390   2.532  0.0810  0.4381  0.4984
  534SOL    HW1 2134   1.659   2.315   2.577 -0.6895 -2.2113  0.3013
  534SOL    HW2 2135   1.782   2.396   2.587 -0.6960  2.1764  1.8142
  534SOL     MW 2136   1.706   2.381   2.546 -0.1232  0.3179  0.6460
  535SOL     OW 2137   1.882   2.347   1.881 -0.3766 -0.7154  0.4052
  535SOL    HW1 2138   1.843   2.358   1.793  1.5672 -1.3719  2.8489
  535SOL    HW2 2139   1.980   2.341   1.868 -1.4588  0.4889 -0.5431
  535SOL     MW 2140   1.890   2.348   1.867 -0.2629 -0.6431  0.6025
  536SOL     OW 2141   0.487   1.884   2.110 -0.2212  0.2447  0.1192
  536SOL    HW1 2142   0.459   1.840   2.026 -0.3959 -1.5502 -2.6639
  536SOL    HW2 2143   0.528   1.964   2.081  0.3619 -0.7111  0.9953
  536SOL     MW 2144   0.489   1.889   2.095 -0.1673 -0.1182 -0.1324
  537SOL     OW 2145   1.045   0.302   2.769 -0.0269  0.0078  0.1828
  537SOL    HW1 2146   1.046   0.359   2.840 -2.6475  1.0240 -1.8000
  537SOL    HW2 2147   1.073   0.349   2.693 -0.8735 -2.7037 -0.0321
  537SOL     MW 2148   1.049   0.316   2.768 -0.4844 -0.2158 -0.1072
  538SOL     OW 2149   1.424   0.070   0.029 -0.3360 -0.3085 -0.5766
  538SOL    HW1 2150   1.409   0.163   0.014  1.2901  0.4900  1.5083
  538SOL    HW2 2151   1.348   0.028  -0.011  0.5907  3.9440 -2.1722
  538SOL     MW 2152   1.412   0.077   0.022  0.0008  0.3579 -0.5121
  539SOL     OW 2153   0.730   2.860   2.598 -0.4011 -0.0918 -0.4206
  539SOL    HW1 2154   0.817   2.886   2.630 -0.5327 -0.7876 -0.7502
  539SOL    HW2 2155   0.715   2.780   2.645 -2.2335 -1.8990  2.1292
  539SOL     MW 2156   0.740   2.853   2.609 -0.6602 -0.4220 -0.1277
  540SOL     OW 2157   0.301   2.450   2.874 -0.1085  0.6435  0.0959
  540SOL    HW1 2158   0.293   2.517   2.938  1.5144  1.4885 -1.6620
  540SOL    HW2 2159   0.256   2.373   2.911 -0.2931  0.4904 -0.7025
  540SOL     MW 2160   0.294   2.448   2.887  0.0813  0.7348 -0.2414
  541SOL     OW 2161   0.273   2.941   2.108  0.2609  0.1288  0.2373
  541SOL    HW1 2162   0.215   2.865   2.122 -0.5976  0.3354  1.1812
  541SOL    HW2 2163   0.324   2.950   2.187 -1.2994  2.1404  1.3396
  541SOL     MW 2164   0.272   2.932   2.120 -0.0582  0.4214  0.5072
  542SOL     OW 2165   0.954   2.253   2.638 -0.4886  0.0935  0.9028
  542SOL    HW1 2166   0.897   2.214   2.707 -2.4163 -0.6779  1.7898
  542SOL    HW2 2167   0.994   2.328   2.686  1.2779 -0.4643 -0.2491
  542SOL     MW 2168   0.952   2.258   2.654 -0.5099 -0.0819  0.8678
  543SOL     OW 2169   1.624   2.462   2.852  0.5989  0.1081  0.8123
  543SOL    HW1 2170   1.614   2.406   2.778 -0.7115 -0.6556 -1.9093
  543SOL    HW2 2171   1.666   2.543   2.822 -0.7714 -0.7517 -1.4066
  543SOL     MW 2172   1.628   2.466   2.839  0.2452 -0.1061  0.1605
  544SOL     OW 2173   0.653   0.316   2.723 -0.2894  0.0493  0.0816
  544SOL    HW1 2174   0.569   0.306   2.772 -2.7344  1.7275  2.7568
  544SOL    HW2 2175   0.647   0.245   2.658  1.1155  1.6384 -0.5222
  544SOL     MW 2176   0.641   0.305   2.721 -0.4266  0.4804  0.3549
  545SOL     OW 2177   1.548   2.119   2.373 -0.0400 -0.0172  0.6856
  545SOL    HW1 2178   1.495   2.100   2.296 -0.2377  0.9666  2.5314
  545SOL    HW2 2179   1.628   2.075   2.361  1.7141 -0.8442  0.6872
  545SOL     MW 2180   1.551   2.110   2.361  0.1653  0.0035  0.9293
  546SOL     OW 2181   2.917   1.970   0.156  0.0152  0.1342 -0.0688
  546SOL    HW1 2182   2.894   2.050   0.107 -1.0334 -1.9260 -1.0472
  546SOL    HW2 2183   3.007   1.961   0.126  1.5739 -0.3865  1.4199
  546SOL     MW 2184   2.926   1.979   0.146  0.0825 -0.2063 -0.0015
  547SOL     OW 2185   0.188   0.062   0.095 -0.7407  0.2616  0.3391
  547SOL    HW1 2186   0.270   0.059   0.039 -0.1457 -0.8169 -0.7590
  547SOL    HW2 2187   0.134   0.022   0.032  1.7899  1.3314 -0.3677
  547SOL     MW 2188   0.192   0.056   0.079 -0.3283  0.2604  0.1009
  548SOL     OW 2189   0.371   2.574   0.260 -0.0310 -0.0235  0.2567
  548SOL    HW1 2190   0.354   2.597   0.166  0.0211  1.3171 -0.3809
  548SOL    HW2 2191   0.287   2.532   0.294 -1.0236 -3.1546  1.2652
  548SOL     MW 2192   0.358   2.571   0.252 -0.1551 -0.2598  0.3056
  549SOL     OW 2193   0.833   1.933   2.155 -0.5061  0.4118  0.7881
  549SOL    HW1 2194   0.784   2.017   2.138 -2.5052  2.8760  0.2232
  549SOL    HW2 2195   0.806   1.902   2.242 -1.9293 -2.6506 -0.7461
  549SOL     MW 2196   0.823   1.940   2.164 -0.9577  0.3328  0.5111
  550SOL     OW 2197   1.791   1.640   2.529 -0.3271  0.8904 -0.4091
  550SOL    HW1 2198   1.814   1.635   2.439 -0.7087 -2.7769 -1.7032
  550SOL    HW2 2199   1.786   1.733   2.558 -2.4111 -0.5045  0.4737
  550SOL     MW 2200   1.793   1.651   2.521 -0.6524  0.2225 -0.4634
  551SOL     OW 2201   0.915   2.233   0.223 -0.0488  0.1381  0.6706
  551SOL    HW1 2202   1.008   2.263   0.221 -1.4172 -1.4889 -1.9408
  551SOL    HW2 2203   0.901   2.174   0.149  2.5492 -2.5596 -1.1876
  551SOL     MW 2204   0.925   2.229   0.213  0.1134 -0.4325  0.0809
  552SOL     OW 2205   1.769   1.699   2.220  0.7301 -0.0263 -0.2461
  552SOL    HW1 2206   1.680   1.661   2.223 -1.6180 -1.4300 -1.4910
  552SOL    HW2 2207   1.801   1.636   2.155 -3.5820 -3.1626 -0.4569
  552SOL     MW 2208   1.761   1.686   2.212 -0.1486 -0.6253 -0.4382
  553SOL     OW 2209   1.252   2.291   1.610  0.2050 -0.7409  0.7941
  553SOL    HW1 2210   1.291   2.205   1.607 -2.0137 -1.3836 -0.7255
  553SOL    HW2 2211   1.310   2.355   1.554  0.1847 -0.5660 -0.0446
  553SOL     MW 2212   1.265   2.288   1.602 -0.0904 -0.8026  0.4830
  554SOL     OW 2213   0.506   2.977   2.672  0.3277  0.1359 -0.0014
  554SOL    HW1 2214   0.479   3.026   2.597 -1.1662 -0.8350 -0.7403
  554SOL    HW2 2215   0.591   2.935   2.645 -1.0722  0.0267 -1.0358
  554SOL     MW 2216   0.513   2.978   2.658 -0.0541 -0.0066 -0.2354
  555SOL     OW 2217   0.657   2.533   2.641  0.4718  0.0975 -0.1895
  555SOL    HW1 2218   0.624   2.441   2.634 -1.8717 -2.9562 -0.4957
  555SOL    HW2 2219   0.740   2.538   2.593  0.8846 -0.6726 -0.5621
  555SOL     MW 2220   0.663   2.522   2.634  0.2171 -0.4070 -0.2791
  556SOL     OW 2221   1.039   1.820   0.065  0.3019 -0.1007  0.1118
  556SOL    HW1 2222   1.040   1.780  -0.024 -1.2230 -3.6088  0.4588
  556SOL    HW2 2223   1.123   1.801   0.107 -2.5631 -1.4977  0.3304
  556SOL     MW 2224   1.050   1.812   0.059 -0.2773 -0.7479  0.1864
  557SOL     OW 2225   1.039   2.699   0.585  0.0721 -0.2153 -0.3842
  557SOL    HW1 2226   1.105   2.658   0.530  0.7144 -1.1886 -2.6318
  557SOL    HW2 2227   1.008   2.776   0.544  3.0324  2.0461 -1.4428
  557SOL     MW 2228   1.044   2.704   0.572  0.5474 -0.0453 -0.8204
  558SOL     OW 2229   0.197   2.220   3.000 -0.4743 -0.3594 -0.2969
  558SOL    HW1 2230   0.231   2.148   3.049 -1.0882 -1.5229  0.0967
  558SOL    HW2 2231   0.135   2.266   3.065 -2.9806  1.2513  1.9542
  558SOL     MW 2232   0.193   2.217   3.015 -0.8860 -0.3004  0.0521
  559SOL     OW 2233   1.060   2.274   2.243  0.5086 -0.5468 -0.2995
  559SOL    HW1 2234   1.148   2.293   2.219  1.6929 -1.7357  0.3765
  559SOL    HW2 2235   1.044   2.183   2.219 -0.0609 -0.9473  0.6511
  559SOL     MW 2236   1.069   2.265   2.237  0.5897 -0.7565 -0.0849
  560SOL     OW 2237   2.158   2.653   0.151 -0.3072 -0.1251  0.1044
  560SOL    HW1 2238   2.212   2.701   0.087  2.1555 -3.2576 -1.5283
  560SOL    HW2 2239   2.089   2.608   0.102 -0.1160  0.1011  1.5247
  560SOL     MW 2240   2.156   2.653   0.136  0.0430 -0.5086  0.0764
  561SOL     OW 2241   0.494   2.203   0.160  0.0948  0.0113 -0.3079
  561SOL    HW1 2242   0.521   2.213   0.068 -4.1556  0.2041 -2.3276
  561SOL    HW2 2243   0.536   2.284   0.196  2.6011  0.5193 -1.4817
  561SOL     MW 2244   0.503   2.215   0.152 -0.1353  0.1038 -0.7292
  562SOL     OW 2245   0.652   2.346   2.359 -0.1336  0.6962 -0.4103
  562SOL    HW1 2246   0.619   2.403   2.289 -4.5523 -0.6653 -2.3461
  562SOL    HW2 2247   0.741   2.376   2.394  0.0518 -1.0435 -0.2388
  562SOL     MW 2248   0.659   2.357   2.354 -0.6922  0.2870 -0.6431
  563SOL     OW 2249   1.259   0.364   0.575 -0.3303 -0.5572  0.2152
  563SOL    HW1 2250   1.202   0.299   0.536  0.5535 -1.4838 -2.1701
  563SOL    HW2 2251   1.249   0.341   0.674 -0.1214  0.4470  2.6558
  563SOL     MW 2252   1.250   0.352   0.583 -0.1862 -0.5469  0.2225
  564SOL     OW 2253   0.980   2.742   2.355 -0.6578  0.1515  0.1358
  564SOL    HW1 2254   1.029   2.803   2.305 -1.3961 -0.2178 -0.6901
  564SOL    HW2 2255   1.015   2.742   2.454 -2.1910 -0.7834 -1.5905
  564SOL     MW 2256   0.991   2.750   2.362 -0.9575 -0.0206 -0.2010
  565SOL     OW 2257   2.756   2.772   2.615  0.0664 -0.8919  0.3640
  565SOL    HW1 2258   2.755   2.861   2.581  1.7443 -0.8879 -0.9270
  565SOL    HW2 2259   2.754   2.711   2.543 -0.9441 -2.7117 -4.0854
  565SOL     MW 2260   2.755   2.776   2.601  0.1544 -1.1315 -0.3934
  566SOL     OW 2261   2.179   1.909   2.366 -0.2657 -0.2731 -0.7561
  566SOL    HW1 2262   2.162   1.888   2.274 -0.0599 -0.7791  2.1114
  566SOL    HW2 2263   2.252   1.975   2.353 -1.3331 -2.0750  0.3161
  566SOL     MW 2264   2.186   1.915   2.352 -0.3794 -0.5776 -0.2363
  567SOL     OW 2265   1.188   3.049   0.000 -0.2149  1.3237 -0.3180
  567SOL    HW1 2266   1.163   3.059   0.092 -0.8313  1.0824 -1.6461
  567SOL    HW2 2267   1.218   2.954  -0.004 -0.4080 -1.2364  1.2043
  567SOL     MW 2268   1.189   3.038   0.012 -0.3217  0.9541 -0.2924
  568SOL     OW 2269   1.646   2.034   2.862  0.1066 -0.4431 -0.2775
  568SOL    HW1 2270   1.705   2.081   2.920  0.3516  0.4287 -0.2233
  568SOL    HW2 2271   1.700   1.997   2.793  0.7231  4.3625 -0.6623
  568SOL     MW 2272   1.661   2.036   2.861  0.2203  0.3060 -0.3211
  569SOL     OW 2273   0.132   2.248   2.421 -0.2257  0.2281  0.5787
  569SOL    HW1 2274   0.059   2.292   2.384  4.4374  1.8099 -0.3163
  569SOL    HW2 2275   0.179   2.320   2.468 -0.6478  0.2368 -1.6626
  569SOL     MW 2276   0.128   2.263   2.422  0.3339  0.4380  0.1649
  570SOL     OW 2277   1.510   0.321   0.453  0.0551  0.0246 -0.1391
  570SOL    HW1 2278   1.433   0.329   0.515 -0.2665  0.4536  0.2164
  570SOL    HW2 2279   1.593   0.349   0.506  1.8686  0.7776  0.0950
  570SOL     MW 2280   1.510   0.326   0.468  0.2520  0.1806 -0.0613
  571SOL     OW 2281   1.335   2.341   2.126 -0.5136 -1.1126 -0.1287
  571SOL    HW1 2282   1.384   2.365   2.207 -0.9813  1.7921  1.1083
  571SOL    HW2 2283   1.391   2.275   2.082 -0.5855  2.2650 -0.8041
  571SOL     MW 2284   1.349   2.336   2.131 -0.5848 -0.2837 -0.0546
  572SOL     OW 2285   1.101   2.592   0.114 -0.2790  0.0285  0.5929
  572SOL    HW1 2286   1.090   2.675   0.068  2.5477 -5.1425  1.2423
  572SOL    HW2 2287   1.004   2.575   0.135 -2.1004 -1.7498  0.4453
  572SOL     MW 2288   1.086   2.601   0.111 -0.1463 -0.8884  0.6591
  573SOL     OW 2289   1.197   2.311   0.292 -0.5602  0.5216 -0.0584
  573SOL    HW1 2290   1.271   2.335   0.234  0.9237  0.1714 -1.1429
  573SOL    HW2 2291   1.185   2.398   0.335 -0.1937  0.1030  1.3847
  573SOL     MW 2292   1.206   2.325   0.290 -0.3160  0.4202 -0.0111
  574SOL     OW 2293   1.179   2.580   0.372  0.2027 -0.0685 -0.0920
  574SOL    HW1 2294   1.238   2.656   0.364 -0.2814 -1.1860  0.6751
  574SOL    HW2 2295   1.129   2.594   0.295 -1.8328  0.2107  0.2697
  574SOL     MW 2296   1.180   2.592   0.361 -0.1297 -0.1791  0.0569
  575SOL     OW 2297   0.017   2.211   1.696  1.1913 -0.0794  0.7032
  575SOL    HW1 2298   0.028   2.135   1.638 -0.0373 -1.3659  1.7471
  575SOL    HW2 2299   0.088   2.210   1.760  0.1264 -2.2778  0.6961
  575SOL     MW 2300   0.028   2.201   1.697  0.8887 -0.5392  0.8400
  576SOL     OW 2301   2.909   1.853   1.917 -0.2624 -0.1561  0.1278
  576SOL    HW1 2302   2.902   1.939   1.875 -2.4488  1.7939  1.5382
  576SOL    HW2 2303   2.844   1.815   1.853  1.6032  1.2645  1.4229
  576SOL     MW 2304   2.899   1.859   1.903 -0.3048  0.2886  0.4847
  577SOL     OW 2305   2.142   0.168   0.056 -0.4801 -0.2220  0.4785
  577SOL    HW1 2306   2.072   0.151  -0.005  0.5578 -0.9764 -1.3539
  577SOL    HW2 2307   2.131   0.098   0.125  0.4058 -0.1347 -0.2042
  577SOL     MW 2308   2.131   0.156   0.057 -0.2263 -0.3100  0.1467
  578SOL     OW 2309   1.979   2.108   2.356 -0.2862 -0.0345  0.4323
  578SOL    HW1 2310   1.897   2.062   2.320 -0.1031 -3.2056 -4.4084
  578SOL    HW2 2311   2.049   2.031   2.361  0.7983 -2.6356 -2.4827
  578SOL     MW 2312   1.978   2.092   2.352 -0.1190 -0.7961 -0.5910
  579SOL     OW 2313   0.872   2.464   2.448  0.0850 -0.2473 -0.1038
  579SOL    HW1 2314   0.909   2.390   2.493  2.2360 -2.4267  1.6664
  579SOL    HW2 2315   0.935   2.492   2.384  0.8913 -1.6792 -0.2572
  579SOL     MW 2316   0.885   2.458   2.445  0.4752 -0.7238  0.1095
  580SOL     OW 2317   0.992   2.804   3.091 -0.5690 -0.2050 -0.2150
  580SOL    HW1 2318   1.011   2.896   3.073 -0.7518 -0.5103  2.9860
  580SOL    HW2 2319   0.927   2.762   3.025  1.1029  2.4584 -0.2366
  580SOL     MW 2320   0.986   2.811   3.080 -0.3725  0.1061  0.2045
  581SOL     OW 2321   1.105   2.457   1.744  0.5504 -0.3844 -0.1376
  581SOL    HW1 2322   1.167   2.480   1.817  2.6036 -1.0980 -0.9293
  581SOL    HW2 2323   1.153   2.385   1.698 -0.2812 -0.8456 -0.5086
  581SOL     MW 2324   1.120   2.450   1.748  0.7116 -0.5394 -0.2910
  582SOL     OW 2325   3.094   2.935   2.649 -0.2562  0.0555  0.2366
  582SOL    HW1 2326   3.029   2.989   2.698  0.2037 -1.2333 -0.0819
  582SOL    HW2 2327   3.169   2.921   2.704 -0.6104 -0.7367  2.6332
  582SOL     MW 2328   3.096   2.940   2.663 -0.2423 -0.2191  0.5108
  583SOL     OW 2329   1.958   2.388   2.671  0.3904 -0.5234 -0.4267
  583SOL    HW1 2330   2.031   2.391   2.609  0.5391 -0.0370 -0.6018
  583SOL    HW2 2331   1.949   2.290   2.685  0.3611 -2.2696  1.8558
  583SOL     MW 2332   1.967   2.375   2.665  0.4061 -0.6896 -0.1487
  584SOL     OW 2333   0.200   1.872   2.181  0.4276 -0.1158 -0.3383
  584SOL    HW1 2334   0.171   1.875   2.277  1.3332 -0.1658 -0.4261
  584SOL    HW2 2335   0.287   1.902   2.193 -0.8082  0.7213  2.5192
  584SOL     MW 2336   0.207   1.876   2.195  0.3840 -0.0119  0.0271
  585SOL     OW 2337   1.553   2.621   0.176  0.1128 -1.2390  0.4679
  585SOL    HW1 2338   1.506   2.593   0.092 -1.1066  2.4792 -0.8628
  585SOL    HW2 2339   1.486   2.652   0.240  1.2726 -1.1161 -1.8010
  585SOL     MW 2340   1.538   2.621   0.173  0.1049 -0.7322 -0.0070
  586SOL     OW 2341   1.340   2.768   2.587  0.2110 -0.1874 -0.1114
  586SOL    HW1 2342   1.379   2.743   2.503 -2.2418  4.0130  1.7312
  586SOL    HW2 2343   1.336   2.868   2.580 -0.1788 -0.8319  1.9569
  586SOL     MW 2344   1.344   2.778   2.575 -0.1640  0.2818  0.4046
  587SOL     OW 2345   1.277   1.511   2.155  0.3347  0.3995 -0.0028
  587SOL    HW1 2346   1.262   1.417   2.159 -0.5189  0.1645 -1.8608
  587SOL    HW2 2347   1.246   1.528   2.070  2.2609  2.7757  1.6662
  587SOL     MW 2348   1.271   1.501   2.144  0.4762  0.6820 -0.0277
  588SOL     OW 2349   1.300   2.046   2.649 -0.1030  0.1837 -0.3210
  588SOL    HW1 2350   1.340   1.971   2.697 -2.9326 -0.7345  0.0462
  588SOL    HW2 2351   1.239   2.085   2.710  0.5458  0.6550 -1.6820
  588SOL     MW 2352   1.298   2.041   2.663 -0.3907  0.1247 -0.4521
  589SOL     OW 2353   1.341   2.049   0.037 -0.6399  0.1303 -0.4273
  589SOL    HW1 2354   1.335   2.138   0.069  0.3075 -1.1755 -0.4702
  589SOL    HW2 2355   1.318   1.995   0.111  0.1758 -1.1314 -0.1772
  589SOL     MW 2356   1.337   2.054   0.051 -0.4073 -0.2085 -0.4000
  590SOL     OW 2357   0.476   2.677   2.224 -0.0160  0.0193 -0.5842
  590SOL    HW1 2358   0.446   2.679   2.127  1.3406 -0.2652  1.0621
  590SOL    HW2 2359   0.558   2.736   2.232  0.3963  3.0106  0.4141
  590SOL     MW 2360   0.483   2.685   2.212  0.2174  0.3764 -0.2353
  591SOL     OW 2361   2.206   0.679   0.167 -0.1720 -0.0846  0.1342
  591SOL    HW1 2362   2.140   0.710   0.224  2.1133 -2.5045 -1.4389
  591SOL    HW2 2363   2.177   0.714   0.084  1.4180 -2.6918 -0.4783
  591SOL     MW 2364   2.193   0.688   0.163  0.3393 -0.7479 -0.1541
  592SOL     OW 2365   1.636   2.920   0.722  0.4093  0.5693 -0.1124
  592SOL    HW1 2366   1.625   3.010   0.751  1.1068 -0.3831 -1.2370
  592SOL    HW2 2367   1.729   2.901   0.748  0.1191 -0.2312  1.1594
  592SOL     MW 2368   1.647   2.929   0.730  0.4630  0.3380 -0.0930
  593SOL     OW 2369   1.911   0.730   0.688 -0.8236 -0.4964 -0.5734
  593SOL    HW1 2370   1.860   0.731   0.611  0.8623 -2.3736  0.8440
  593SOL    HW2 2371   1.947   0.639   0.685 -0.0104 -0.7224 -0.0414
  593SOL     MW 2372   1.909   0.718   0.678 -0.4939 -0.7739 -0.3162
  594SOL     OW 2373   2.842   1.097   1.374 -0.0118  0.7316  0.1272
  594SOL    HW1 2374   2.936   1.124   1.360  1.7522  1.8703 -0.2576
  594SOL    HW2 2375   2.778   1.159   1.329  1.4154  2.5193  3.7581
  594SOL     MW 2376   2.846   1.109   1.366  0.4092  1.1177  0.5555
  595SOL     OW 2377   0.547   0.935   0.852 -0.3026 -0.2172  0.3714
  595SOL    HW1 2378   0.525   1.002   0.782 -0.0810 -0.1781 -0.1132
  595SOL    HW2 2379   0.604   0.990   0.917 -2.4502  1.7168 -0.0267
  595SOL     MW 2380   0.552   0.951   0.851 -0.5567  0.0431  0.2549
  596SOL     OW 2381   2.436   1.325   0.498 -0.5069 -0.7716 -0.0930
  596SOL    HW1 2382   2.436   1.407   0.449  1.6341  0.0839  2.8203
  596SOL    HW2 2383   2.462   1.359   0.583 -3.8777  0.6039 -1.2139
  596SOL     MW 2384   2.440   1.341   0.502 -0.6692 -0.4773  0.1435
  597SOL     OW 2385   2.241   0.676   1.652 -0.2325  0.2035  0.0681
  597SOL    HW1 2386   2.289   0.625   1.723  2.3490 -0.3451  2.3125
  597SOL    HW2 2387   2.181   0.617   1.613  3.0780  3.4162  0.1173
  597SOL     MW 2388   2.239   0.662   1.656  0.5449  0.5550  0.3707
  598SOL     OW 2389   2.578   0.996   2.862  0.0246 -0.2828 -0.0196
  598SOL    HW1 2390   2.622   0.932   2.805  1.1556  0.1839 -1.8189
  598SOL    HW2 2391   2.645   1.058   2.893  0.2883  2.0632 -1.0520
  598SOL     MW 2392   2.593   0.996   2.858  0.2087  0.0883 -0.3932
  599SOL     OW 2393   3.000   0.532   2.219 -0.1782  0.3390  0.1704
  599SOL    HW1 2394   3.043   0.582   2.295  0.5933  0.1902 -1.1066
  599SOL    HW2 2395   3.025   0.566   2.126 -0.2190  1.0442 -3.9491
  599SOL     MW 2396   3.009   0.543   2.217 -0.0818  0.4124 -0.5416
  600SOL     OW 2397   1.834   1.682   0.829  0.2891 -0.1817  0.4542
  600SOL    HW1 2398   1.867   1.709   0.917 -1.5678 -1.0038  0.6702
  600SOL    HW2 2399   1.753   1.729   0.809 -2.2881 -3.2499  2.1953
  600SOL     MW 2400   1.828   1.692   0.838 -0.2960 -0.6950  0.7124
  601SOL     OW 2401   2.541   0.774   0.849  0.2025  0.3491  0.5406
  601SOL    HW1 2402   2.559   0.761   0.948 -0.2283  0.6839 -0.0532
  601SOL    HW2 2403   2.498   0.691   0.811 -0.6876 -0.6474 -2.3779
  601SOL     MW 2404   2.538   0.761   0.857  0.0283  0.2618  0.0772
  602SOL     OW 2405   2.231   1.960   0.765  0.1372  0.3897  0.2698
  602SOL    HW1 2406   2.168   1.893   0.741 -0.1525 -2.3799 -1.7320
  602SOL    HW2 2407   2.185   2.043   0.733  0.7851  0.2134  1.7948
  602SOL     MW 2408   2.216   1.962   0.758  0.1844  0.0010  0.2069
  603SOL     OW 2409   3.031   1.335   1.984 -0.0349 -0.1115 -0.3550
  603SOL    HW1 2410   2.998   1.383   2.063 -0.9125  1.2387  2.6838
  603SOL    HW2 2411   3.079   1.253   2.014  0.0157 -0.7058  1.3975
  603SOL     MW 2412   3.033   1.331   1.998 -0.1440 -0.0118  0.2771
  604SOL     OW 2413   2.025   1.380   0.362  0.2921 -0.3428 -0.1892
  604SOL    HW1 2414   2.093   1.320   0.399  0.1778 -1.2572  1.7430
  604SOL    HW2 2415   1.994   1.432   0.433 -0.0859 -1.7817  0.5770
  604SOL     MW 2416   2.030   1.379   0.376  0.2271 -0.6533  0.1668
  605SOL     OW 2417   2.436   1.440   0.786  0.0284  0.2084  0.2844
  605SOL    HW1 2418   2.467   1.527   0.761  3.1871 -0.5115  0.8499
  605SOL    HW2 2419   2.516   1.392   0.807 -0.7707 -1.0672 -1.4878
  605SOL     MW 2420   2.451   1.445   0.785  0.3397 -0.0549  0.1252
  606SOL     OW 2421   2.688   1.794   1.776 -0.1803  0.2849 -0.2340
  606SOL    HW1 2422   2.624   1.845   1.728  0.2255  0.5347  1.2440
  606SOL    HW2 2423   2.667   1.705   1.771  1.6788  1.7468 -2.1044
  606SOL     MW 2424   2.677   1.789   1.769  0.1185  0.5107 -0.2858
  607SOL     OW 2425   2.393   1.024   3.084  0.0345  0.3701 -0.1320
  607SOL    HW1 2426   2.442   1.001   2.998 -0.9843  0.6647 -0.1753
  607SOL    HW2 2427   2.434   0.982   3.160  0.5538  0.3920  2.0457
  607SOL     MW 2428   2.405   1.016   3.083 -0.0314  0.4118  0.1496
  608SOL     OW 2429   1.910   0.244   0.437  0.0846 -0.3001 -0.3938
  608SOL    HW1 2430   1.886   0.281   0.349 -0.3867 -2.3630  0.6190
  608SOL    HW2 2431   1.898   0.145   0.438 -1.7727 -0.3011 -1.1300
  608SOL     MW 2432   1.905   0.236   0.426 -0.2226 -0.5724 -0.3573
  609SOL     OW 2433   2.086   1.906   3.074 -0.1427  0.1205 -0.2171
  609SOL    HW1 2434   2.072   1.823   3.032  1.2746  1.7971 -1.0338
  609SOL    HW2 2435   2.078   1.890   3.170  0.4205  2.7305 -0.4062
  609SOL     MW 2436   2.083   1.893   3.081  0.1186  0.6861 -0.3498
  610SOL     OW 2437   1.782   0.970   1.252 -0.5384  0.2027  0.1069
  610SOL    HW1 2438   1.832   0.907   1.191  2.0414 -3.2922 -0.2633
  610SOL    HW2 2439   1.694   0.991   1.220  1.3033 -1.5288 -0.8858
  610SOL     MW 2440   1.777   0.964   1.240  0.0450 -0.4869 -0.0729
  611SOL     OW 2441   2.468   1.667   0.559  0.0295  0.0344 -0.2189
  611SOL    HW1 2442   2.461   1.650   0.467  0.4679  0.7997  0.1390
  611SOL    HW2 2443   2.459   1.764   0.572 -2.3675  2.5379 -1.2528
  611SOL     MW 2444   2.466   1.678   0.549 -0.2289  0.4657 -0.3081
  612SOL     OW 2445   2.898   2.843   0.384  0.1699 -0.1076 -0.4124
  612SOL    HW1 2446   2.928   2.867   0.468  0.1205  0.9961 -2.9143
  612SOL    HW2 2447   2.983   2.842   0.334 -1.9232  1.1821 -1.9374
  612SOL     MW 2448   2.914   2.846   0.388 -0.1128  0.2082 -0.9437
  613SOL     OW 2449   1.450   1.132   0.929  0.2077 -0.5459 -0.1054
  613SOL    HW1 2450   1.469   1.227   0.923  4.1508 -0.0372 -1.3118
  613SOL    HW2 2451   1.488   1.107   1.016 -1.4134  1.8008 -0.7448
  613SOL     MW 2452   1.457   1.141   0.940  0.5140 -0.1692 -0.3489
  614SOL     OW 2453   2.085   0.520   1.439  0.7041  0.6712  0.2013
  614SOL    HW1 2454   2.067   0.458   1.512 -0.0883 -0.2492  0.9412
  614SOL    HW2 2455   1.994   0.544   1.402  1.8552  0.4380 -0.8799
  614SOL     MW 2456   2.071   0.515   1.444  0.7514  0.5190  0.1563
  615SOL     OW 2457   2.412   0.744   0.344  0.4897 -0.0914 -0.0693
  615SOL    HW1 2458   2.501   0.692   0.341  0.2322 -2.0111  1.9048
  615SOL    HW2 2459   2.347   0.701   0.280 -2.9005  0.7659  0.7323
  615SOL     MW 2460   2.415   0.731   0.335  0.0084 -0.2316  0.2969
  616SOL     OW 2461   2.566   0.379   1.655 -0.3565 -0.4535  0.2616
  616SOL    HW1 2462   2.540   0.316   1.592  1.6487  0.8629 -0.6393
  616SOL    HW2 2463   2.559   0.457   1.596  0.7427  0.2362  1.6687
  616SOL     MW 2464   2.561   0.381   1.639  0.0531 -0.1888  0.3284
  617SOL     OW 2465   2.805   0.575   1.792  0.3052  0.6421 -0.8113
  617SOL    HW1 2466   2.730   0.568   1.851 -1.0893  1.6159  1.6328
  617SOL    HW2 2467   2.823   0.478   1.758  0.2087 -0.2444 -2.2010
  617SOL     MW 2468   2.798   0.561   1.795  0.1085  0.6536 -0.6722
  618SOL     OW 2469   2.849   0.200   1.997  0.8126 -0.1462 -0.1454
  618SOL    HW1 2470   2.787   0.259   2.041  0.5168 -3.4444  2.5759
  618SOL    HW2 2471   2.932   0.207   2.045 -0.6606  3.8576  1.4978
  618SOL     MW 2472   2.851   0.209   2.009  0.5792 -0.0531  0.4304
  619SOL     OW 2473   2.729   0.719   0.044  0.5017  0.1551  0.0825
  619SOL    HW1 2474   2.750   0.809   0.027 -0.3100 -0.9082 -0.9795
  619SOL    HW2 2475   2.800   0.698   0.099 -1.4391  1.0232 -1.0617
  619SOL     MW 2476   2.741   0.728   0.049  0.1385  0.1293 -0.2086
  620SOL     OW 2477   2.225   1.001   0.886  0.0210 -0.3947 -0.7949
  620SOL    HW1 2478   2.310   1.032   0.859 -1.3919 -0.3799 -1.0842
  620SOL    HW2 2479   2.184   0.984   0.800 -1.1704 -1.7517 -0.0595
  620SOL     MW 2480   2.231   1.003   0.871 -0.3226 -0.5718 -0.7360
  621SOL     OW 2481   1.502   2.170   1.999 -0.1216 -0.3803  0.1807
  621SOL    HW1 2482   1.491   2.087   2.044  0.2801  1.2744  3.1523
  621SOL    HW2 2483   1.590   2.201   2.011 -1.1351 -1.0876  0.9683
  621SOL     MW 2484   1.512   2.163   2.007 -0.2023 -0.2553  0.6767
  622SOL     OW 2485   2.635   0.290   0.187 -0.0690  0.2188 -0.0794
  622SOL    HW1 2486   2.722   0.321   0.171 -2.5935 -1.2517  1.2345
  622SOL    HW2 2487   2.648   0.197   0.203 -2.6229  2.1827 -0.0880
  622SOL     MW 2488   2.648   0.282   0.187 -0.7391  0.2839  0.0928
  623SOL     OW 2489   2.341   2.767   0.819 -0.4611 -0.9742  0.2181
  623SOL    HW1 2490   2.397   2.840   0.790  1.6434 -3.3746  2.1807
  623SOL    HW2 2491   2.365   2.763   0.917  1.5302  2.6813 -0.0495
  623SOL     MW 2492   2.352   2.776   0.828  0.0793 -0.8086  0.4417
  624SOL     OW 2493   2.132   1.594   3.014  0.0170  0.5677 -0.0753
  624SOL    HW1 2494   2.062   1.527   3.020 -0.6856 -0.1379  0.6119
  624SOL    HW2 2495   2.205   1.558   3.057  2.0614 -0.7218 -0.4845
  624SOL     MW 2496   2.132   1.580   3.020  0.1940  0.3044 -0.0386
  625SOL     OW 2497   2.134   1.944   1.035 -0.0694  0.0788 -0.2192
  625SOL    HW1 2498   2.183   1.875   1.078 -0.0297  0.7997  1.5844
  625SOL    HW2 2499   2.184   1.951   0.953  0.8058  1.3419 -1.2388
  625SOL     MW 2500   2.147   1.936   1.030  0.0513  0.3405 -0.1158
  626SOL     OW 2501   0.125   1.851   2.469  0.5769  0.4052 -0.2634
  626SOL    HW1 2502   0.062   1.776   2.466 -0.4183 -3.0083  0.7776
  626SOL    HW2 2503   0.059   1.915   2.493 -1.9130  0.2814  3.2111
  626SOL     MW 2504   0.108   1.849   2.472  0.1171 -0.0615  0.3324
  627SOL     OW 2505   2.614   0.825   2.600  0.0380  0.6679  0.1005
  627SOL    HW1 2506   2.541   0.885   2.624 -0.5184  0.9487 -1.2088
  627SOL    HW2 2507   2.573   0.777   2.528  0.4791 -0.0465 -1.5557
  627SOL     MW 2508   2.599   0.827   2.594  0.0228  0.6107 -0.2908
  628SOL     OW 2509   2.345   1.363   1.271  0.0831  0.1859 -0.1835
  628SOL    HW1 2510   2.308   1.284   1.237  1.6157 -1.2494  1.3288
  628SOL    HW2 2511   2.377   1.409   1.197 -0.0671 -1.9028 -0.8354
  628SOL     MW 2512   2.345   1.359   1.257  0.2655 -0.2790 -0.0700
  629SOL     OW 2513   1.842   0.590   1.292 -0.0179 -0.3044 -0.8512
  629SOL    HW1 2514   1.894   0.610   1.214 -0.5199 -0.8070 -1.5488
  629SOL    HW2 2515   1.754   0.582   1.254  0.1177 -1.3215 -0.9909
  629SOL     MW 2516   1.837   0.592   1.277 -0.0663 -0.5049 -0.9616
  630SOL     OW 2517   2.369   1.959   3.061 -0.6498 -0.1352  0.3399
  630SOL    HW1 2518   2.395   2.001   2.978  1.1638  1.7387  0.2619
  630SOL    HW2 2519   2.278   1.939   3.064  1.1017  2.5726 -0.7986
  630SOL     MW 2520   2.361   1.962   3.051 -0.1794  0.4693  0.1794
  631SOL     OW 2521   2.097   1.888   1.478  0.2807 -0.0551  0.1902
  631SOL    HW1 2522   2.080   1.802   1.514 -0.4912  1.2924 -1.2381
  631SOL    HW2 2523   2.009   1.930   1.468 -0.1887  1.8211  2.3425
  631SOL     MW 2524   2.083   1.882   1.481  0.1169  0.3702  0.2857
  632SOL     OW 2525   0.387   1.892   1.489 -0.0039  0.0484 -0.5767
  632SOL    HW1 2526   0.313   1.941   1.462 -0.5533  0.2213 -1.6913
  632SOL    HW2 2527   0.359   1.797   1.507 -2.8780 -2.0705  0.4533
  632SOL     MW 2528   0.374   1.886   1.488 -0.4556 -0.2084 -0.5879
  633SOL     OW 2529   2.628   0.582   0.364  0.5321 -0.1130  0.0138
  633SOL    HW1 2530   2.693   0.556   0.430 -0.6434 -0.6917  2.1810
  633SOL    HW2 2531   2.604   0.511   0.309  0.7012  1.1658 -1.6396
  633SOL     MW 2532   2.634   0.570   0.366  0.3993 -0.0206  0.0816
  634SOL     OW 2533   2.729   0.005   0.636  0.5545  0.3776  0.1487
  634SOL    HW1 2534   2.742   0.099   0.619  0.5445  1.5824 -0.8001
  634SOL    HW2 2535   2.694  -0.031   0.555  2.4142 -0.2433  0.0342
  634SOL     MW 2536   2.726   0.013   0.623  0.7985  0.4546  0.0084
  635SOL     OW 2537   2.656   0.067   1.820  0.5998 -0.4298 -0.3325
  635SOL    HW1 2538   2.697   0.001   1.770 -3.1399  0.6637 -1.3165
  635SOL    HW2 2539   2.724   0.101   1.877 -1.1660  1.1731 -1.1111
  635SOL     MW 2540   2.671   0.062   1.821 -0.1266 -0.0740 -0.5651
  636SOL     OW 2541   2.697   1.632   0.741  0.3217 -0.1001 -0.1340
  636SOL    HW1 2542   2.636   1.641   0.666 -1.3611 -0.0892 -0.6750
  636SOL    HW2 2543   2.706   1.722   0.766 -2.0943  1.1034 -0.9906
  636SOL     MW 2544   2.690   1.645   0.734 -0.2191  0.0601 -0.3184
  637SOL     OW 2545   2.956   1.434   0.706  0.3710  0.3194 -0.4393
  637SOL    HW1 2546   3.009   1.493   0.655 -1.0843 -1.9056  0.2196
  637SOL    HW2 2547   2.867   1.463   0.697  0.6215  1.8029  0.7346
  637SOL     MW 2548   2.952   1.446   0.698  0.2121  0.2216 -0.1975
  638SOL     OW 2549   2.830   0.526   0.558  0.2482 -0.0332 -0.2483
  638SOL    HW1 2550   2.896   0.585   0.520  1.0589  0.2802  3.7191
  638SOL    HW2 2551   2.809   0.571   0.641 -2.8632  0.3978 -1.4511
  638SOL     MW 2552   2.836   0.539   0.564 -0.0554  0.0650  0.1165
  639SOL     OW 2553   1.832   3.089   0.506  0.1847  0.0925 -0.6921
  639SOL    HW1 2554   1.737   3.093   0.510  4.6686  0.8954  2.9450
  639SOL    HW2 2555   1.872   3.002   0.504  2.2846  1.6519 -0.7112
  639SOL     MW 2556   1.825   3.078   0.506  1.0534  0.4042 -0.2148
  640SOL     OW 2557   0.300   1.443   0.119  0.2313 -0.4555 -0.4683
  640SOL    HW1 2558   0.303   1.414   0.025  1.6572 -0.3109  1.4257
  640SOL    HW2 2559   0.332   1.363   0.161 -0.1977  1.8224 -2.3101
  640SOL     MW 2560   0.304   1.428   0.112  0.3628 -0.1359 -0.4614
  641SOL     OW 2561   2.346   0.396   0.412  0.7455  0.2591  0.2476
  641SOL    HW1 2562   2.328   0.334   0.345  0.9638  2.2823  0.6248
  641SOL    HW2 2563   2.400   0.346   0.479 -0.8916 -3.2133  2.6944
  641SOL     MW 2564   2.351   0.382   0.412  0.5583  0.0679  0.6202
  642SOL     OW 2565   0.116   3.056   0.470 -0.1291  0.0198  0.2189
  642SOL    HW1 2566   0.087   3.144   0.435 -3.3742 -1.4487  0.9008
  642SOL    HW2 2567   0.053   3.035   0.536  1.2180  1.5924  0.0155
  642SOL     MW 2568   0.104   3.065   0.474 -0.3795  0.0336  0.2821
  643SOL     OW 2569   2.139   0.338   1.654  0.4289 -0.2178 -0.5478
  643SOL    HW1 2570   2.052   0.308   1.694 -1.7636 -0.6174 -1.8075
  643SOL    HW2 2571   2.149   0.279   1.579  1.2640  2.1328 -0.1529
  643SOL     MW 2572   2.129   0.326   1.649  0.2498  0.0396 -0.6619
  644SOL     OW 2573   2.694   1.898   0.939 -0.4490 -0.1386  0.2674
  644SOL    HW1 2574   2.665   1.855   1.014 -0.0763 -1.0395 -1.3115
  644SOL    HW2 2575   2.619   1.951   0.923  1.5431 -1.2984 -0.9664
  644SOL     MW 2576   2.680   1.900   0.947 -0.1370 -0.4105 -0.1037
  645SOL     OW 2577   2.833   0.986   0.792 -0.0641 -0.5035  0.2003
  645SOL    HW1 2578   2.890   0.907   0.791 -1.2969 -1.5837 -0.7611
  645SOL    HW2 2579   2.783   0.987   0.874 -0.3686  4.2050 -1.1800
  645SOL     MW 2580   2.834   0.976   0.802 -0.2669 -0.0248 -0.1086
  646SOL     OW 2581   0.125   2.267   0.854 -0.0451  0.0590  0.5744
  646SOL    HW1 2582   0.109   2.173   0.855 -4.3650 -3.5355  1.0249
  646SOL    HW2 2583   0.080   2.292   0.773 -0.8687  0.0041 -1.3388
  646SOL     MW 2584   0.117   2.258   0.844 -0.7237 -0.4225  0.3814
  647SOL     OW 2585   2.797   0.446   3.018 -0.5195 -1.0477 -0.3207
  647SOL    HW1 2586   2.714   0.446   2.971  1.3455 -0.5503  0.2895
  647SOL    HW2 2587   2.810   0.532   3.059  2.1850 -0.9513 -2.7825
  647SOL     MW 2588   2.787   0.458   3.017  0.0834 -0.9694 -0.5650
  648SOL     OW 2589   2.100   0.634   1.113 -0.7905  0.1462 -0.5999
  648SOL    HW1 2590   2.164   0.575   1.160 -0.5820 -0.1078  0.9739
  648SOL    HW2 2591   2.143   0.674   1.042 -0.7890 -0.5904 -1.5319
  648SOL     MW 2592   2.114   0.632   1.110 -0.7628  0.0155 -0.5152
  649SOL     OW 2593   2.398   2.653   1.299  0.0214 -0.9984 -0.5138
  649SOL    HW1 2594   2.485   2.671   1.338 -0.8022 -1.0960 -0.3020
  649SOL    HW2 2595   2.398   2.566   1.249  0.0049 -1.2819  0.7930
  649SOL     MW 2596   2.409   2.644   1.297 -0.0894 -1.0487 -0.3134
  650SOL     OW 2597   2.758   0.270   0.526  0.7831  0.4349  0.2036
  650SOL    HW1 2598   2.788   0.363   0.541 -2.6747  0.6260  0.6153
  650SOL    HW2 2599   2.779   0.253   0.435  2.1259 -0.7913  0.8128
  650SOL     MW 2600   2.765   0.280   0.516  0.5040  0.2984  0.3383
  651SOL     OW 2601   0.018   0.458   0.994  0.5910 -0.5522  0.3615
  651SOL    HW1 2602   0.068   0.526   0.942  0.7575  0.7760 -0.5799
  651SOL    HW2 2603  -0.070   0.503   1.012 -2.2749 -1.3660 -1.0492
  651SOL     MW 2604   0.013   0.473   0.990  0.2349 -0.4843  0.0512
  652SOL     OW 2605   2.331   1.422   2.889  0.1770 -0.2279  0.2583
  652SOL    HW1 2606   2.416   1.443   2.849 -1.2000 -0.4306 -0.2478
  652SOL    HW2 2607   2.278   1.492   2.855  2.6674 -1.3189 -0.7690
  652SOL     MW 2608   2.335   1.434   2.879  0.3239 -0.3986  0.0560
  653SOL     OW 2609   1.840   0.383   0.193 -0.3365  0.3399 -0.5178
  653SOL    HW1 2610   1.834   0.294   0.153  1.3734 -0.2206  0.6671
  653SOL    HW2 2611   1.894   0.442   0.144  0.0983  1.0970 -0.3179
  653SOL     MW 2612   1.846   0.379   0.182 -0.0535  0.3658 -0.3351
  654SOL     OW 2613   2.457   0.998   0.739  0.1848  0.5084 -0.1535
  654SOL    HW1 2614   2.407   0.966   0.662 -0.8642  1.8223 -2.5705
  654SOL    HW2 2615   2.522   0.925   0.772 -0.1598 -0.0349 -0.8648
  654SOL     MW 2616   2.459   0.984   0.733  0.0009  0.6101 -0.5663
  655SOL     OW 2617   2.972   0.950   0.321  1.4240 -0.1496  0.5809
  655SOL    HW1 2618   2.932   0.996   0.390  0.8502 -2.3041  1.1870
  655SOL    HW2 2619   3.003   0.870   0.365  0.5659 -1.3458  0.4639
  655SOL     MW 2620   2.971   0.945   0.336  1.2350 -0.5917  0.6454
  656SOL     OW 2621   1.727   2.674   1.440  0.4492 -0.4031 -0.2495
  656SOL    HW1 2622   1.811   2.704   1.408  0.8838  0.1678 -0.6420
  656SOL    HW2 2623   1.717   2.586   1.407 -1.5675  0.1431 -1.4564
  656SOL     MW 2624   1.737   2.666   1.432  0.2405 -0.2557 -0.4605
  657SOL     OW 2625   0.095   1.781   1.129  0.5435  0.0833  0.4909
  657SOL    HW1 2626   0.184   1.818   1.130  2.0153  1.8640 -1.5391
  657SOL    HW2 2627   0.102   1.688   1.108 -2.7317  1.3068 -5.1693
  657SOL     MW 2628   0.108   1.774   1.126  0.3055  0.4797 -0.5238
  658SOL     OW 2629   2.627   1.340   0.212 -0.5151  0.2620  0.1260
  658SOL    HW1 2630   2.620   1.260   0.269 -0.5233 -1.8554 -1.2060
  658SOL    HW2 2631   2.667   1.409   0.269 -2.0499 -0.2544 -2.8502
  658SOL     MW 2632   2.632   1.338   0.227 -0.7187 -0.0855 -0.4424
  659SOL     OW 2633   2.130   1.422   1.018  0.5154  0.6209 -0.9585
  659SOL    HW1 2634   2.145   1.333   1.044  2.2389 -0.6026  2.3396
  659SOL    HW2 2635   2.148   1.474   1.093  0.3439  1.3919  1.0202
  659SOL     MW 2636   2.134   1.417   1.031  0.7202  0.5612 -0.2622
  660SOL     OW 2637   2.063   1.605   1.581 -0.4382 -0.5486 -0.4177
  660SOL    HW1 2638   2.107   1.630   1.660 -1.3434  0.9600 -2.0768
  660SOL    HW2 2639   1.997   1.530   1.600 -0.4744  0.7479  0.2887
  660SOL     MW 2640   2.060   1.598   1.594 -0.5624 -0.1785 -0.5434
  661SOL     OW 2641   2.389   0.993   0.286  0.3173  0.6193 -0.2069
  661SOL    HW1 2642   2.465   1.052   0.318  1.1278  3.1366  0.9053
  661SOL    HW2 2643   2.419   0.899   0.302  2.8883 -0.8059 -2.2295
  661SOL     MW 2644   2.403   0.988   0.292  0.7635  0.7634 -0.3270
  662SOL     OW 2645   2.514   2.993   0.782  0.5815 -0.0609 -0.1831
  662SOL    HW1 2646   2.463   3.064   0.824  0.2860  0.4221  2.0265
  662SOL    HW2 2647   2.589   3.036   0.739  0.3510  3.5307 -1.0376
  662SOL     MW 2648   2.517   3.008   0.782  0.5121  0.4767 -0.0043
  663SOL     OW 2649   2.740   1.543   0.400  0.3215 -0.0425 -0.3260
  663SOL    HW1 2650   2.728   1.624   0.353  1.5831 -0.7476  2.6385
  663SOL    HW2 2651   2.832   1.557   0.441  0.2165  0.5156  2.3769
  663SOL     MW 2652   2.751   1.556   0.399  0.4741 -0.0619  0.4217
  664SOL     OW 2653   2.530   1.500   1.574 -0.2413  0.0537  0.6485
  664SOL    HW1 2654   2.482   1.575   1.540  1.7377  0.8745 -1.6156
  664SOL    HW2 2655   2.471   1.453   1.630 -0.3738  2.3372  1.3905
  664SOL     MW 2656   2.516   1.504   1.577  0.0023  0.4633  0.4477
  665SOL     OW 2657   2.860   0.776   2.173 -0.4232  0.5865  0.2952
  665SOL    HW1 2658   2.893   0.789   2.084 -2.1549  0.0173  0.2667
  665SOL    HW2 2659   2.900   0.697   2.218 -0.2946 -0.1662  1.7519
  665SOL     MW 2660   2.870   0.767   2.167 -0.6347  0.4121  0.4837
  666SOL     OW 2661   2.822   2.962   1.682  0.7857  0.0977 -0.1438
  666SOL    HW1 2662   2.783   2.978   1.596 -2.3689  0.6209  3.1805
  666SOL    HW2 2663   2.770   2.879   1.713 -2.0366 -0.7618  0.2938
  666SOL     MW 2664   2.810   2.953   1.675 -0.0028  0.0533  0.3526
  667SOL     OW 2665   1.983   2.692   1.729 -0.3035  0.1838 -0.4927
  667SOL    HW1 2666   2.014   2.677   1.822  1.2981 -1.1586 -0.3131
  667SOL    HW2 2667   2.047   2.757   1.703 -3.7607 -1.3126  2.2239
  667SOL     MW 2668   1.996   2.699   1.738 -0.5483 -0.1908 -0.1106
  668SOL     OW 2669   2.746   0.616   0.808 -0.2933 -0.5805 -0.0476
  668SOL    HW1 2670   2.796   0.621   0.889 -0.1038  0.9723 -0.6197
  668SOL    HW2 2671   2.682   0.684   0.825  1.8627  0.9608  2.1115
  668SOL     MW 2672   2.744   0.625   0.821  0.0162 -0.1723  0.1618
  669SOL     OW 2673   0.203   0.982   0.704  0.5418 -0.3338  0.8655
  669SOL    HW1 2674   0.202   0.966   0.803  1.5686 -0.6797  0.1371
  669SOL    HW2 2675   0.266   1.060   0.700 -2.0022  0.5602  0.6707
  669SOL     MW 2676   0.211   0.990   0.716  0.3416 -0.2615  0.7437
  670SOL     OW 2677   2.921   0.337   0.243  0.5103 -0.0112 -0.2481
  670SOL    HW1 2678   2.926   0.261   0.180 -0.7979  0.9361  1.6378
  670SOL    HW2 2679   2.945   0.414   0.186 -1.7131 -0.7950 -0.9139
  670SOL     MW 2680   2.925   0.337   0.227  0.0443  0.0103 -0.0871
  671SOL     OW 2681   2.070   3.030   1.519  0.1463  0.1564  0.2526
  671SOL    HW1 2682   2.017   2.984   1.455  0.9088  1.2645  0.8896
  671SOL    HW2 2683   2.016   3.046   1.597  1.0603 -0.4840  1.4096
  671SOL     MW 2684   2.055   3.026   1.521  0.3675  0.2181  0.4893
  672SOL     OW 2685   1.799   1.821   1.290 -0.0198  0.1598 -0.2701
  672SOL    HW1 2686   1.821   1.909   1.338  0.4393 -0.5572  1.4239
  672SOL    HW2 2687   1.842   1.835   1.207 -0.5042  1.8528 -0.5520
  672SOL     MW 2688   1.808   1.835   1.285 -0.0231  0.2886 -0.0838
  673SOL     OW 2689   2.829   1.094   0.535  0.1644  0.0405  0.4336
  673SOL    HW1 2690   2.819   1.033   0.605 -1.5617 -2.3470  1.6848
  673SOL    HW2 2691   2.922   1.118   0.550 -0.0444  0.2422 -2.5428
  673SOL     MW 2692   2.840   1.089   0.546 -0.0909 -0.2479  0.2060
  674SOL     OW 2693   2.478   3.045   1.172 -0.1417  0.0770 -0.8504
  674SOL    HW1 2694   2.442   3.090   1.094 -0.1605 -0.5832 -0.6504
  674SOL    HW2 2695   2.483   2.953   1.151  2.5440 -1.4306  0.2819
  674SOL     MW 2696   2.474   3.039   1.159  0.2102 -0.2091 -0.6746
  675SOL     OW 2697   3.019   0.840   1.033  0.2247 -0.2724  0.0313
  675SOL    HW1 2698   3.030   0.866   1.127  2.9200 -1.5437  1.8607
  675SOL    HW2 2699   3.037   0.928   0.984 -1.0291  2.4011 -0.9205
  675SOL     MW 2700   3.023   0.855   1.039  0.4149 -0.0874  0.1471
  676SOL     OW 2701   2.899   1.406   1.745  0.3058 -0.5798  0.6156
  676SOL    HW1 2702   2.874   1.323   1.705 -1.7582 -2.5795 -2.4707
  676SOL    HW2 2703   2.951   1.381   1.817  0.9800  1.1844  0.6214
  676SOL     MW 2704   2.903   1.391   1.749  0.1225 -0.6109  0.2092
  677SOL     OW 2705   2.498   0.723   1.880  0.2970  0.1855  0.2920
  677SOL    HW1 2706   2.456   0.644   1.844 -3.6571 -0.0983  1.0345
  677SOL    HW2 2707   2.419   0.780   1.911 -0.9146 -0.8317  0.9005
  677SOL     MW 2708   2.482   0.720   1.879 -0.3846  0.0139  0.4702
  678SOL     OW 2709   2.389   1.563   0.321 -0.1766 -0.1527 -0.0947
  678SOL    HW1 2710   2.303   1.566   0.363  0.8041 -0.8489 -0.5582
  678SOL    HW2 2711   2.376   1.515   0.235 -0.4530 -0.2394 -0.2807
  678SOL     MW 2712   2.376   1.557   0.315 -0.0837 -0.2560 -0.1804
  679SOL     OW 2713   2.277   0.472   1.249  0.4903 -0.0284  0.1136
  679SOL    HW1 2714   2.258   0.386   1.205 -1.4493 -0.1682  1.5481
  679SOL    HW2 2715   2.213   0.477   1.317 -0.4980  0.7314 -1.3281
  679SOL     MW 2716   2.266   0.461   1.252  0.1040  0.0534  0.1126
  680SOL     OW 2717   2.407   0.178   1.493 -0.8155  0.5263  0.1877
  680SOL    HW1 2718   2.323   0.167   1.457  0.8198 -0.3601 -0.1000
  680SOL    HW2 2719   2.467   0.139   1.440 -0.8613 -2.4012  2.2548
  680SOL     MW 2720   2.404   0.172   1.481 -0.6058  0.0231  0.4225
  681SOL     OW 2721   0.246   0.588   1.456 -0.5049 -0.0246 -0.3494
  681SOL    HW1 2722   0.213   0.511   1.493  1.7907  0.7636  2.3726
  681SOL    HW2 2723   0.250   0.569   1.358 -2.2862 -0.8196 -1.8608
  681SOL     MW 2724   0.242   0.576   1.448 -0.4370 -0.0255 -0.1897
  682SOL     OW 2725   3.038   2.846   1.544  0.1580  0.3843  0.5550
  682SOL    HW1 2726   3.111   2.908   1.545 -0.0095 -3.7957  0.4871
  682SOL    HW2 2727   2.963   2.874   1.592 -1.1602 -3.5780 -2.0635
  682SOL     MW 2728   3.038   2.858   1.550 -0.0380 -0.6900  0.2005
  683SOL     OW 2729   2.120   0.791   3.032  0.0093 -0.8380  0.3176
  683SOL    HW1 2730   2.040   0.738   3.036  2.8687 -2.1990 -0.2623
  683SOL    HW2 2731   2.110   0.888   3.051  1.3277  2.0377 -1.2985
  683SOL     MW 2732   2.109   0.797   3.035  0.5605 -0.6382  0.0279
  684SOL     OW 2733   2.055   1.777   0.687 -0.3242  0.4786 -0.2490
  684SOL    HW1 2734   2.084   1.713   0.617 -0.3374  0.9541  0.3226
  684SOL    HW2 2735   1.981   1.732   0.732 -1.1764 -3.1266 -1.5650
  684SOL     MW 2736   2.049   1.763   0.684 -0.4384  0.0657 -0.3472
  685SOL     OW 2737   2.618   1.745   1.158  0.0240 -0.2321 -0.4798
  685SOL    HW1 2738   2.662   1.715   1.237 -2.8417  1.8343  1.5619
  685SOL    HW2 2739   2.595   1.662   1.119 -2.1143 -1.8189 -2.4551
  685SOL     MW 2740   2.621   1.730   1.163 -0.6362 -0.1688 -0.4710
  686SOL     OW 2741   2.851   0.649   1.532  0.7956 -0.3053 -0.1035
  686SOL    HW1 2742   2.822   0.630   1.624 -1.0714  0.8288  2.4993
  686SOL    HW2 2743   2.943   0.682   1.540  0.7638 -0.6893 -0.1117
  686SOL     MW 2744   2.859   0.651   1.545  0.5450 -0.2063  0.2389
  687SOL     OW 2745   2.183   0.227   1.125  0.2658  0.3560  1.0314
  687SOL    HW1 2746   2.239   0.170   1.073  2.3179  0.2012 -1.4096
  687SOL    HW2 2747   2.122   0.281   1.078  2.3183  1.0561  1.2008
  687SOL     MW 2748   2.182   0.227   1.112  0.8073  0.4279  0.7317
  688SOL     OW 2749   2.463   0.579   1.501 -0.6248 -0.1464 -0.2943
  688SOL    HW1 2750   2.411   0.541   1.434 -0.5197 -0.8253  0.7187
  688SOL    HW2 2751   2.399   0.633   1.551 -1.4139  0.7369  0.6930
  688SOL     MW 2752   2.448   0.581   1.499 -0.7151 -0.1194 -0.0304
  689SOL     OW 2753   2.490   0.757   3.012 -0.4877 -0.0553 -0.3356
  689SOL    HW1 2754   2.414   0.794   3.055 -1.8747 -1.1163 -1.5937
  689SOL    HW2 2755   2.555   0.748   3.079 -0.7716 -2.9476  0.3916
  689SOL     MW 2756   2.488   0.761   3.027 -0.7082 -0.5769 -0.4057
  690SOL     OW 2757   2.042   0.971   1.839  0.4645  0.1820  0.3258
  690SOL    HW1 2758   2.014   0.884   1.866 -0.5984 -0.5183 -0.8815
  690SOL    HW2 2759   2.079   0.957   1.748 -1.6507 -0.9198  0.9689
  690SOL     MW 2760   2.044   0.957   1.831  0.0452 -0.0558  0.2514
  691SOL     OW 2761   2.437   0.285   0.888  0.1119 -0.1678 -0.3577
  691SOL    HW1 2762   2.530   0.315   0.901 -0.8060 -2.4345 -0.1997
  691SOL    HW2 2763   2.380   0.356   0.880 -0.4366 -0.2921 -0.0306
  691SOL     MW 2764   2.442   0.299   0.888 -0.0816 -0.4833 -0.2937
  692SOL     OW 2765   2.766   1.646   1.382  0.3123  0.1226 -0.1756
  692SOL    HW1 2766   2.696   1.632   1.450  0.2297 -0.0029 -0.1836
  692SOL    HW2 2767   2.820   1.720   1.407 -4.2831  3.7587  2.9266
  692SOL     MW 2768   2.764   1.654   1.395 -0.3049  0.5858  0.2327
  693SOL     OW 2769   2.202   0.415   3.079 -0.3640 -0.0294 -0.1431
  693SOL    HW1 2770   2.166   0.332   3.105 -2.4558 -2.0294  0.9516
  693SOL    HW2 2771   2.224   0.461   3.160  2.2243 -0.0931  0.5001
  693SOL     MW 2772   2.201   0.410   3.093 -0.2985 -0.3017  0.0862
  694SOL     OW 2773   1.970   1.178   1.183  0.0376 -0.1815 -0.2041
  694SOL    HW1 2774   2.067   1.156   1.172  0.1944 -1.1895  0.3397
  694SOL    HW2 2775   1.931   1.096   1.221 -1.9944 -0.2282  0.0515
  694SOL     MW 2776   1.978   1.165   1.187 -0.2098 -0.3207 -0.0986
  695SOL     OW 2777   2.921   1.437   1.317 -0.0676 -0.1864  0.2916
  695SOL    HW1 2778   2.934   1.430   1.218  2.3896 -2.4290 -1.2447
  695SOL    HW2 2779   2.866   1.513   1.338  2.6746 -0.9740  1.2404
  695SOL     MW 2780   2.916   1.446   1.306  0.6184 -0.5862  0.2141
  696SOL     OW 2781   2.050   1.326   0.745  0.3027 -0.2209 -0.3552
  696SOL    HW1 2782   2.113   1.367   0.808  2.8663 -0.4480 -0.6364
  696SOL    HW2 2783   1.997   1.286   0.813  0.9964 -1.4209 -0.0118
  696SOL     MW 2784   2.051   1.326   0.762  0.7325 -0.4092 -0.3470
  697SOL     OW 2785   2.931   1.041   2.260 -0.0520 -0.3608  0.3369
  697SOL    HW1 2786   2.845   1.087   2.240 -2.0934  0.9506  0.6016
  697SOL    HW2 2787   2.911   0.954   2.220 -0.3420  2.7474 -0.7174
  697SOL     MW 2788   2.917   1.036   2.252 -0.3596  0.2223  0.2327
  698SOL     OW 2789   2.495   0.360   3.064 -0.4293  0.1027  0.3524
  698SOL    HW1 2790   2.398   0.359   3.071  3.5487  0.1490 -2.0655
  698SOL    HW2 2791   2.541   0.337   3.146  1.4040 -0.2764  0.8002
  698SOL     MW 2792   2.488   0.357   3.076  0.3374  0.0588  0.0925
  699SOL     OW 2793   1.848   1.571   1.988  0.3805 -0.3170  0.2830
  699SOL    HW1 2794   1.813   1.497   2.044 -0.4840  1.5893  0.9696
  699SOL    HW2 2795   1.928   1.541   1.943  0.0570 -2.6691 -1.9933
  699SOL     MW 2796   1.854   1.558   1.990  0.2237 -0.3758  0.0732
  700SOL     OW 2797   2.728   0.889   1.576  0.3232  0.1951  0.1514
  700SOL    HW1 2798   2.764   0.974   1.544 -2.5774 -0.5584 -1.9657
  700SOL    HW2 2799   2.778   0.816   1.543 -0.3354 -1.2537  1.0152
  700SOL     MW 2800   2.739   0.890   1.567 -0.1464 -0.0955 -0.0140
  701SOL     OW 2801   1.634   1.056   2.562  0.2273 -0.0508 -0.1250
  701SOL    HW1 2802   1.714   1.021   2.612  0.2915  0.6016 -0.7421
  701SOL    HW2 2803   1.622   1.143   2.605  3.0289 -1.7203 -3.1164
  701SOL     MW 2804   1.643   1.062   2.574  0.6054 -0.1850 -0.6011
  702SOL     OW 2805   2.081   0.498   0.706  0.3428 -0.1974  0.2638
  702SOL    HW1 2806   2.090   0.400   0.693 -1.6895  1.6545  2.4692
  702SOL    HW2 2807   2.153   0.530   0.648 -1.1711  0.6058 -0.4450
  702SOL     MW 2808   2.091   0.489   0.697 -0.1251  0.1529  0.4613
  703SOL     OW 2809   2.655   1.248   1.007 -0.1648 -0.5148  0.3914
  703SOL    HW1 2810   2.636   1.242   0.914  0.4187  0.2516  0.5912
  703SOL    HW2 2811   2.679   1.159   1.042 -0.0556 -0.1495 -0.4792
  703SOL     MW 2812   2.656   1.236   1.000 -0.0734 -0.3655  0.3029
  704SOL     OW 2813   3.079   1.268   0.203  0.0877 -0.1111  0.3897
  704SOL    HW1 2814   3.012   1.197   0.196  0.5358 -0.4278  2.2164
  704SOL    HW2 2815   3.131   1.257   0.286  2.2929 -0.5368 -1.9531
  704SOL     MW 2816   3.077   1.257   0.213  0.4378 -0.2091  0.3216
  705SOL     OW 2817   2.052   1.625   1.306  0.1218  0.4023  0.2341
  705SOL    HW1 2818   1.986   1.702   1.306 -2.2681  2.9897 -2.2210
  705SOL    HW2 2819   2.064   1.605   1.401 -0.4529 -2.6714  0.9376
  705SOL     MW 2820   2.045   1.632   1.319 -0.2694  0.3382  0.0030
  706SOL     OW 2821   3.052   1.197   0.637 -0.4634  0.2558  0.0288
  706SOL    HW1 2822   3.136   1.192   0.591  1.5769  0.9134 -1.9892
  706SOL    HW2 2823   3.021   1.287   0.659 -1.1338  0.7895  0.1983
  706SOL     MW 2824   3.059   1.208   0.634 -0.2827  0.4130 -0.2151
  707SOL     OW 2825   2.331   0.044   0.939 -0.2940 -0.1296  0.1281
  707SOL    HW1 2826   2.367   0.125   0.894  1.5995 -0.3965 -0.3893
  707SOL    HW2 2827   2.271   0.004   0.885  0.0265  3.3409  1.1653
  707SOL     MW 2828   2.328   0.050   0.926 -0.0019  0.2931  0.1966
  708SOL     OW 2829   2.384   1.423   0.073  0.0887  0.0550  0.0302
  708SOL    HW1 2830   2.467   1.390   0.106 -0.2162 -0.7822 -2.2117
  708SOL    HW2 2831   2.384   1.418  -0.022 -0.9564 -0.8476 -0.5659
  708SOL     MW 2832   2.395   1.418   0.065 -0.0894 -0.1746 -0.3442
  709SOL     OW 2833   1.689   1.581   0.229 -0.5563  0.0286 -0.0661
  709SOL    HW1 2834   1.668   1.611   0.139 -0.2327  1.2321  0.0355
  709SOL    HW2 2835   1.605   1.583   0.281  0.2000  1.7537 -0.8402
  709SOL     MW 2836   1.675   1.585   0.224 -0.4138  0.4150 -0.1548
  710SOL     OW 2837   2.246   1.148   1.123 -0.3498 -0.1734  0.5708
  710SOL    HW1 2838   2.246   1.102   1.039 -1.0017 -1.7579  1.1018
  710SOL    HW2 2839   2.280   1.080   1.185 -0.5738 -4.2518 -0.7537
  710SOL     MW 2840   2.251   1.133   1.120 -0.4653 -0.9205  0.4661
  711SOL     OW 2841   2.395   0.101   1.757 -0.4319  0.6732 -0.1918
  711SOL    HW1 2842   2.484   0.065   1.777 -1.0529 -1.3414 -2.2460
  711SOL    HW2 2843   2.400   0.108   1.663  0.4285 -2.0563  1.0172
  711SOL     MW 2844   2.407   0.097   1.747 -0.4003  0.0473 -0.3033
  712SOL     OW 2845   1.884   0.628   3.075  0.0437  0.3509 -0.3566
  712SOL    HW1 2846   1.828   0.653   3.004 -0.4601 -0.2388  0.5129
  712SOL    HW2 2847   1.853   0.670   3.162 -0.6441 -0.3638 -0.8256
  712SOL     MW 2848   1.872   0.637   3.077 -0.1135  0.1788 -0.3038
  713SOL     OW 2849   2.598   0.697   1.106 -0.1609  0.1478 -0.1924
  713SOL    HW1 2850   2.589   0.603   1.120 -0.5221  2.5863  0.1814
  713SOL    HW2 2851   2.559   0.729   1.188  0.9390  2.0179  0.5845
  713SOL     MW 2852   2.591   0.689   1.119 -0.0635  0.7162 -0.0406
  714SOL     OW 2853   2.254   0.202   1.981  0.9296 -0.1042 -0.2319
  714SOL    HW1 2854   2.292   0.149   2.051  0.5127  0.5535  0.8795
  714SOL    HW2 2855   2.298   0.187   1.897  1.7143  2.4277  0.2678
  714SOL     MW 2856   2.265   0.193   1.979  0.9781  0.3166 -0.0194
  715SOL     OW 2857   1.828   1.976   1.710  0.1082  0.0555  0.3789
  715SOL    HW1 2858   1.920   1.995   1.745  0.2553  1.0609  0.5806
  715SOL    HW2 2859   1.806   1.893   1.753  0.9359 -2.3035 -1.3316
  715SOL     MW 2860   1.838   1.968   1.720  0.2368 -0.1231  0.1798
  716SOL     OW 2861   2.438   0.551   0.733 -0.0878 -0.3770 -0.0268
  716SOL    HW1 2862   2.520   0.515   0.691 -0.3182 -0.0801 -0.1098
  716SOL    HW2 2863   2.386   0.564   0.658  0.1737  1.8569  0.5922
  716SOL     MW 2864   2.442   0.548   0.718 -0.0837 -0.0431  0.0439
  717SOL     OW 2865   2.775   1.672   2.828 -0.4016 -0.3521 -0.1759
  717SOL    HW1 2866   2.845   1.626   2.875  0.1753 -2.0339 -0.0535
  717SOL    HW2 2867   2.756   1.746   2.876  0.8086 -0.8253 -3.3490
  717SOL     MW 2868   2.782   1.676   2.840 -0.1658 -0.6364 -0.5784
  718SOL     OW 2869   2.636   1.304   1.338  0.5694  0.0517  0.6243
  718SOL    HW1 2870   2.576   1.340   1.401 -3.8699  1.0512  0.1099
  718SOL    HW2 2871   2.719   1.349   1.349 -0.9494 -0.0484  2.2303
  718SOL     MW 2872   2.639   1.314   1.348 -0.2167  0.1704  0.7683
  719SOL     OW 2873   2.178   1.223   0.525  0.1948  0.0251  0.2608
  719SOL    HW1 2874   2.244   1.293   0.525 -2.4714 -0.5870  0.6091
  719SOL    HW2 2875   2.111   1.250   0.598 -0.5078 -1.3509 -0.1150
  719SOL     MW 2876   2.178   1.236   0.535 -0.2497 -0.2372  0.2572
  720SOL     OW 2877   2.830   1.257   0.032 -0.3290 -0.1701  0.1318
  720SOL    HW1 2878   2.820   1.161   0.052 -0.1108 -1.3899  2.9791
  720SOL    HW2 2879   2.759   1.295   0.081 -0.9834 -0.1729 -0.7603
  720SOL     MW 2880   2.819   1.250   0.041 -0.3866 -0.3314  0.3898
  721SOL     OW 2881   2.549   0.816   1.361 -0.5844 -0.1028 -0.3955
  721SOL    HW1 2882   2.528   0.731   1.404 -1.5184 -0.1867  2.0431
  721SOL    HW2 2883   2.613   0.843   1.422  2.1929 -0.3539 -0.1108
  721SOL     MW 2884   2.555   0.808   1.375 -0.3412 -0.1470 -0.0362
  722SOL     OW 2885   2.593   1.132   0.376  0.1498 -0.2326 -0.3336
  722SOL    HW1 2886   2.544   1.200   0.430 -0.1511  1.3411 -4.4972
  722SOL    HW2 2887   2.676   1.119   0.424  0.3851  2.3569 -0.1435
  722SOL     MW 2888   2.597   1.140   0.389  0.1412  0.3167 -0.8578
  723SOL     OW 2889   2.269   1.352   1.554 -0.3791  0.3449  0.2137
  723SOL    HW1 2890   2.293   1.355   1.462  1.8057  0.4288  0.7109
  723SOL    HW2 2891   2.208   1.429   1.555  1.2669  0.1995 -1.7456
  723SOL     MW 2892   2.264   1.363   1.542  0.1263  0.3368  0.0208
  724SOL     OW 2893   2.446   0.236   0.598 -0.7398 -0.2932 -0.2014
  724SOL    HW1 2894   2.449   0.259   0.689  1.0471  1.8051 -0.2387
  724SOL    HW2 2895   2.531   0.192   0.584  1.2352  0.3970  0.1457
  724SOL     MW 2896   2.458   0.234   0.608 -0.2434  0.0747 -0.1605
  725SOL     OW 2897   2.635   0.394   1.154 -0.2962 -0.2553 -0.0342
  725SOL    HW1 2898   2.702   0.421   1.213 -1.5823 -2.1331 -1.5849
  725SOL    HW2 2899   2.609   0.311   1.187  1.1642  1.2456 -1.9753
  725SOL     MW 2900   2.641   0.386   1.166 -0.2732 -0.3050 -0.4949
  726SOL     OW 2901   2.470   2.475   0.430 -0.4214 -0.5876 -0.1671
  726SOL    HW1 2902   2.476   2.569   0.457  0.2117 -0.9258  1.8985
  726SOL    HW2 2903   2.388   2.442   0.462  1.2579  2.0263 -3.3978
  726SOL     MW 2904   2.460   2.483   0.438 -0.1163 -0.2874 -0.3208
  727SOL     OW 2905   2.859   0.328   1.736 -0.4313  0.0070  0.0219
  727SOL    HW1 2906   2.784   0.298   1.684 -0.0846 -2.1785 -0.3600
  727SOL    HW2 2907   2.851   0.278   1.820  0.6151 -3.1262  3.0597
  727SOL     MW 2908   2.848   0.317   1.740 -0.2475 -0.6947  0.3724
  728SOL     OW 2909   2.801   1.215   2.872  0.1042  0.7178  0.3533
  728SOL    HW1 2910   2.814   1.271   2.791  2.1521  1.3643 -1.5221
  728SOL    HW2 2911   2.825   1.267   2.947 -0.1733 -1.8750 -0.3647
  728SOL     MW 2912   2.806   1.229   2.871  0.3377  0.4610  0.0112
  729SOL     OW 2913   2.544   1.496   1.058 -0.7241  0.3191 -0.1244
  729SOL    HW1 2914   2.558   1.401   1.068  0.4645 -0.6783 -0.6002
  729SOL    HW2 2915   2.496   1.503   0.975 -1.6625  1.2184 -0.5092
  729SOL     MW 2916   2.539   1.484   1.048 -0.6911  0.3062 -0.2380
  730SOL     OW 2917   2.168   1.157   0.201 -0.5499  0.2149 -0.0794
  730SOL    HW1 2918   2.254   1.117   0.231  2.4640  0.8758  1.1952
  730SOL    HW2 2919   2.196   1.231   0.151 -1.0860 -1.0600 -1.8516
  730SOL     MW 2920   2.183   1.161   0.198 -0.2230  0.1339 -0.1451
  731SOL     OW 2921   2.781   1.972   2.934 -0.0959 -0.0444  0.3895
  731SOL    HW1 2922   2.719   1.986   2.855 -0.3861 -1.7501 -3.7321
  731SOL    HW2 2923   2.869   1.986   2.905  0.6087  1.2217  0.4588
  731SOL     MW 2924   2.784   1.976   2.919 -0.0412 -0.1024 -0.1452
  732SOL     OW 2925   2.341   0.978   1.344  0.0457  0.2058 -0.1866
  732SOL    HW1 2926   2.300   1.010   1.428  0.2672  1.1435 -2.2279
  732SOL    HW2 2927   2.416   0.919   1.364 -0.0563  0.3661 -0.2516
  732SOL     MW 2928   2.346   0.975   1.358  0.0615  0.3507 -0.4645
  733SOL     OW 2929   2.399   2.684   2.977  0.2822 -0.0316 -0.2226
  733SOL    HW1 2930   2.324   2.738   3.006 -2.7841 -1.3753  0.5007
  733SOL    HW2 2931   2.361   2.599   2.984  1.1484  2.4840  1.1207
  733SOL     MW 2932   2.384   2.680   2.982 -0.0081  0.1230  0.0501
  734SOL     OW 2933   1.518   0.272   2.525  0.2260 -0.4114  0.4069
  734SOL    HW1 2934   1.487   0.215   2.593 -0.4778  0.4322  0.6266
  734SOL    HW2 2935   1.509   0.214   2.448 -1.0370  0.8287 -0.9404
  734SOL     MW 2936   1.513   0.257   2.524 -0.0335 -0.1365  0.2581
  735SOL     OW 2937   3.029   0.865   2.675  0.4100  0.2199 -0.4830
  735SOL    HW1 2938   3.003   0.776   2.667 -2.4366  0.9720 -1.9178
  735SOL    HW2 2939   3.027   0.885   2.767  0.6673 -0.8783 -1.3193
  735SOL     MW 2940   3.026   0.856   2.686  0.0684  0.1742 -0.7827
  736SOL     OW 2941   0.140   0.565   2.540  0.2608  0.5737  0.4415
  736SOL    HW1 2942   0.132   0.653   2.490  0.0616  1.8092 -1.6528
  736SOL    HW2 2943   0.196   0.504   2.486  0.0624 -0.2321  0.2125
  736SOL     MW 2944   0.146   0.569   2.526  0.2084  0.6304  0.1350
  737SOL     OW 2945   3.001   0.565   2.644 -0.1630  0.3141 -0.2360
  737SOL    HW1 2946   2.942   0.591   2.569 -0.1056 -0.3420 -0.8879
  737SOL    HW2 2947   3.095   0.567   2.616 -2.8350  2.9435 -0.1138
  737SOL     MW 2948   3.006   0.569   2.630 -0.5080  0.5745 -0.3059
  738SOL     OW 2949   0.123   0.407   1.869  0.6566  0.2109  0.5289
  738SOL    HW1 2950   0.206   0.453   1.886 -0.8062  1.5700 -1.7247
  738SOL    HW2 2951   0.124   0.371   1.777  0.7560 -0.0544  0.2979
  738SOL     MW 2952   0.134   0.408   1.859  0.4767  0.3552  0.2011
  739SOL     OW 2953   2.516   0.967   2.109  0.0212 -0.3576 -0.2039
  739SOL    HW1 2954   2.424   0.961   2.068 -4.7331  1.8665 -0.1847
  739SOL    HW2 2955   2.593   0.949   2.051 -1.3317 -5.0533 -2.7110
  739SOL     MW 2956   2.514   0.964   2.096 -0.7846 -0.6837 -0.5322
  740SOL     OW 2957   0.177   1.806   2.932  0.6128  0.3737  0.0584
  740SOL    HW1 2958   0.126   1.721   2.941  0.3611  2.6890 -1.6740
  740SOL    HW2 2959   0.262   1.799   2.983  0.4746 -0.3159  1.5104
  740SOL     MW 2960   0.181   1.794   2.940  0.5613  0.5882  0.0214
  741SOL     OW 2961   2.287   1.172   2.707  0.5131  0.1821  0.1223
  741SOL    HW1 2962   2.244   1.246   2.664  1.5336  2.3687 -0.7403
  741SOL    HW2 2963   2.255   1.165   2.801  1.7512  2.1303 -0.8250
  741SOL     MW 2964   2.277   1.181   2.713  0.8111  0.7276 -0.1165
  742SOL     OW 2965   1.529   1.240   2.373 -0.0939  0.5089  0.5369
  742SOL    HW1 2966   1.444   1.245   2.339 -2.0309 -0.7179  2.5817
  742SOL    HW2 2967   1.533   1.161   2.427  3.0824 -0.1352 -0.6066
  742SOL     MW 2968   1.518   1.230   2.376  0.0696  0.2621  0.6558
  743SOL     OW 2969   2.564   1.223   2.686  0.2105 -0.1961  0.2869
  743SOL    HW1 2970   2.468   1.226   2.725 -1.3466  1.6119 -0.6525
  743SOL    HW2 2971   2.622   1.193   2.758  0.0527  0.2212  1.9916
  743SOL     MW 2972   2.559   1.219   2.701 -0.0157  0.0975  0.3879
  744SOL     OW 2973   2.697   0.899   1.934 -0.6140  0.7677  0.0007
  744SOL    HW1 2974   2.655   0.969   1.877 -0.3868  1.7515 -0.9841
  744SOL    HW2 2975   2.636   0.827   1.926 -0.7490  1.2591  0.2530
  744SOL     MW 2976   2.684   0.899   1.926 -0.6019  0.9623 -0.0959
  745SOL     OW 2977   1.727   0.463   2.482  0.3331 -0.1533 -0.3942
  745SOL    HW1 2978   1.704   0.480   2.391 -2.0837 -2.9192  0.0124
  745SOL    HW2 2979   1.661   0.395   2.508 -1.3512 -0.7737  0.4515
  745SOL     MW 2980   1.715   0.457   2.473 -0.2080 -0.6001 -0.2290
  746SOL     OW 2981   1.606   1.532   1.668  0.3371  0.8387  0.4801
  746SOL    HW1 2982   1.642   1.601   1.730 -0.7044  0.2001  0.7528
  746SOL    HW2 2983   1.592   1.458   1.726  0.5123 -1.1377 -0.0195
  746SOL     MW 2984   1.609   1.531   1.684  0.2228  0.4937  0.4502
  747SOL     OW 2985   2.593   1.118   1.814 -0.4869 -0.0938  0.0020
  747SOL    HW1 2986   2.503   1.120   1.790 -0.9356 -2.2345 -0.5280
  747SOL    HW2 2987   2.603   1.176   1.885 -0.8839 -1.6259 -2.6115
  747SOL     MW 2988   2.583   1.126   1.820 -0.5985 -0.5784 -0.4128
  748SOL     OW 2989   0.071   0.139   1.853 -0.1351 -0.1668 -0.0679
  748SOL    HW1 2990   0.160   0.124   1.865 -0.4528  0.8015  2.0738
  748SOL    HW2 2991   0.062   0.232   1.874 -0.1096 -0.2813 -4.3084
  748SOL     MW 2992   0.081   0.149   1.857 -0.1737 -0.0542 -0.3448
  749SOL     OW 2993   2.575   0.590   2.798 -0.2875  0.2367 -0.0274
  749SOL    HW1 2994   2.588   0.663   2.736 -0.5662  0.9722 -1.6339
  749SOL    HW2 2995   2.543   0.639   2.877  0.4943 -1.1409 -0.4204
  749SOL     MW 2996   2.572   0.606   2.800 -0.2212  0.1520 -0.2912
  750SOL     OW 2997   2.055  -0.001   1.946  0.0274 -0.2987 -0.1680
  750SOL    HW1 2998   2.094   0.088   1.950 -0.2508  0.5379  1.5051
  750SOL    HW2 2999   2.127  -0.057   1.910  1.8823 -1.0168 -2.2257
  750SOL     MW 3000   2.070   0.004   1.942  0.2354 -0.2830 -0.2188
  751SOL     OW 3001   0.281   0.360   2.388  0.1783 -0.0539 -0.4128
  751SOL    HW1 3002   0.246   0.280   2.436 -0.8617 -4.0442 -1.9122
  751SOL    HW2 3003   0.311   0.329   2.301 -0.5426 -2.1076 -2.2624
  751SOL     MW 3004   0.280   0.345   2.383 -0.0541 -0.8514 -0.8546
  752SOL     OW 3005   2.136   0.829   2.750 -0.2083 -0.2212 -0.8592
  752SOL    HW1 3006   2.213   0.878   2.722  1.4112  2.0220  0.6159
  752SOL    HW2 3007   2.141   0.821   2.846  0.9262  2.2056 -0.1062
  752SOL     MW 3008   2.147   0.834   2.759  0.1550  0.3949 -0.5653
  753SOL     OW 3009   2.789   0.110   2.430 -0.2580 -0.5015  0.4035
  753SOL    HW1 3010   2.776   0.018   2.406  1.1507  0.1487 -0.5167
  753SOL    HW2 3011   2.756   0.164   2.357 -0.6605 -1.2266  0.2586
  753SOL     MW 3012   2.783   0.105   2.417 -0.1252 -0.5114  0.2629
  754SOL     OW 3013   2.299   2.940   2.636 -0.3092  0.1110 -0.4901
  754SOL    HW1 3014   2.326   2.960   2.545  0.7949 -1.0644 -1.0006
  754SOL    HW2 3015   2.370   2.897   2.683 -2.4819 -0.3030  1.6075
  754SOL     MW 3016   2.312   2.937   2.631 -0.4502 -0.0987 -0.2807
  755SOL     OW 3017   2.742   1.539   2.418 -0.1643  0.8028  0.5454
  755SOL    HW1 3018   2.778   1.469   2.472 -0.3573 -1.8545 -0.0729
  755SOL    HW2 3019   2.771   1.619   2.461 -4.1849 -0.4271  2.8364
  755SOL     MW 3020   2.751   1.540   2.431 -0.7203  0.2899  0.7661
  756SOL     OW 3021   2.200   1.187   2.983 -0.0070 -0.0588 -0.4096
  756SOL    HW1 3022   2.215   1.278   2.951 -2.0505  1.9526  0.8254
  756SOL    HW2 3023   2.281   1.152   3.026  0.2091 -0.3020 -3.0872
  756SOL     MW 3024   2.213   1.195   2.984 -0.2481  0.1745 -0.5999
  757SOL     OW 3025   2.180   0.940   1.576 -0.2959  0.1283 -0.3619
  757SOL    HW1 3026   2.205   0.851   1.607 -1.2138  0.3726 -1.0595
  757SOL    HW2 3027   2.094   0.930   1.524 -1.4370  2.1730 -1.3770
  757SOL     MW 3028   2.172   0.927   1.573 -0.5676  0.4303 -0.5879
  758SOL     OW 3029   2.214   1.811   2.619 -0.1646 -0.7523 -0.2731
  758SOL    HW1 3030   2.194   1.820   2.524 -2.4933 -4.5204 -2.2625
  758SOL    HW2 3031   2.304   1.791   2.617 -0.3705 -0.7069  0.2134
  758SOL     MW 3032   2.223   1.809   2.606 -0.4990 -1.2434 -0.4714
  759SOL     OW 3033   1.560   1.313   2.707  0.0726 -0.3154  0.2195
  759SOL    HW1 3034   1.514   1.398   2.698  0.0586  0.3917 -1.3637
  759SOL    HW2 3035   1.618   1.326   2.788  0.7834 -0.5929 -0.5238
  759SOL     MW 3036   1.561   1.326   2.716  0.1645 -0.2587 -0.0875
  760SOL     OW 3037   2.650   1.958   2.694  1.3482  0.0189  0.0283
  760SOL    HW1 3038   2.580   1.885   2.672  0.9318 -0.4262 -1.3000
  760SOL    HW2 3039   2.666   1.997   2.609  0.9899  0.9016  1.1579
  760SOL     MW 3040   2.643   1.954   2.680  1.2460  0.0767  0.0021
  761SOL     OW 3041   2.224   0.386   2.535 -0.4662 -0.5398  0.2097
  761SOL    HW1 3042   2.198   0.305   2.570  0.7752  2.1862  1.6411
  761SOL    HW2 3043   2.256   0.447   2.602 -0.5375 -1.4327 -0.2131
  761SOL     MW 3044   2.225   0.383   2.548 -0.3118 -0.2979  0.3428
  762SOL     OW 3045   3.083   0.261   2.153 -0.0476  0.4692 -0.5163
  762SOL    HW1 3046   3.088   0.180   2.209  3.4407 -0.6868  0.3156
  762SOL    HW2 3047   3.079   0.335   2.210 -0.5058  0.5525 -0.2211
  762SOL     MW 3048   3.083   0.260   2.168  0.3522  0.3277 -0.3676
  763SOL     OW 3049   2.378   1.035   2.326 -0.1149 -0.1963  0.4768
  763SOL    HW1 3050   2.429   1.010   2.249  0.6485 -0.6682  1.4639
  763SOL    HW2 3051   2.428   1.106   2.366  1.4578  0.2451 -2.2549
  763SOL     MW 3052   2.392   1.041   2.321  0.1933 -0.2003  0.2466
  764SOL     OW 3053   0.435   0.283   2.862  0.4890  0.2405 -0.0542
  764SOL    HW1 3054   0.366   0.250   2.800  0.7416 -0.8072 -0.7795
  764SOL    HW2 3055   0.422   0.372   2.900 -1.7123 -0.5167 -0.6630
  764SOL     MW 3056   0.424   0.291   2.859  0.2319  0.0024 -0.2302
  765SOL     OW 3057   2.723   2.962   2.396  0.4028  0.1965 -0.0783
  765SOL    HW1 3058   2.678   2.975   2.311 -1.1220  0.3543 -1.2723
  765SOL    HW2 3059   2.796   2.907   2.370  0.4322 -0.3782  0.0237
  765SOL     MW 3060   2.727   2.956   2.381  0.2055  0.1415 -0.2224
  766SOL     OW 3061   1.921   2.988   2.153 -0.1152  0.5606 -0.2151
  766SOL    HW1 3062   1.974   3.036   2.084  2.4311  1.3054 -1.1229
  766SOL    HW2 3063   1.863   2.931   2.105 -1.8778 -0.7085 -1.5088
  766SOL     MW 3064   1.920   2.987   2.137 -0.0118  0.4914 -0.5056
  767SOL     OW 3065   2.647   0.607   2.081  0.2962 -0.1147 -0.1212
  767SOL    HW1 3066   2.710   0.676   2.104 -2.5796  1.1130 -1.0331
  767SOL    HW2 3067   2.585   0.654   2.024  2.3278 -0.4996 -1.4247
  767SOL     MW 3068   2.647   0.622   2.077  0.1848 -0.0035 -0.4135
  768SOL     OW 3069   2.985   1.548   2.950 -0.0932 -0.0288 -0.0258
  768SOL    HW1 3070   3.026   1.558   3.039  1.0742  1.4134  2.1875
  768SOL    HW2 3071   3.047   1.494   2.908 -2.9364  0.5928 -1.0266
  768SOL     MW 3072   2.999   1.542   2.956 -0.3143  0.2435  0.1342
  769SOL     OW 3073   2.512   0.640   2.414  0.2390 -0.3112  0.9489
  769SOL    HW1 3074   2.455   0.573   2.368  1.3290 -0.2541 -2.2589
  769SOL    HW2 3075   2.598   0.649   2.366  0.1309  0.8361  0.2094
  769SOL     MW 3076   2.516   0.632   2.402  0.3685 -0.1523  0.4281
  770SOL     OW 3077   3.062   1.616   2.524 -0.4305 -0.3736  0.0337
  770SOL    HW1 3078   2.976   1.660   2.551 -1.4740  1.6800 -3.3950
  770SOL    HW2 3079   3.042   1.548   2.469  0.9354  0.4479  0.6833
  770SOL     MW 3080   3.048   1.613   2.521 -0.3880  0.0058 -0.3330
  771SOL     OW 3081   3.075   0.609   1.977 -0.1002  0.1700 -0.4165
  771SOL    HW1 3082   2.997   0.577   1.932  1.2068  2.1873 -1.6712
  771SOL    HW2 3083   3.152   0.566   1.943 -1.4864  0.0750  0.5674
  771SOL     MW 3084   3.075   0.599   1.967 -0.1107  0.4236 -0.4522
  772SOL     OW 3085   0.041   0.007   2.278 -0.5876 -0.4968 -0.1780
  772SOL    HW1 3086  -0.042  -0.039   2.272 -1.5634 -0.8520 -2.6481
  772SOL    HW2 3087   0.095  -0.037   2.213  2.7801 -2.3642 -0.8173
  772SOL     MW 3088   0.037  -0.005   2.269 -0.2720 -0.7901 -0.5882
  773SOL     OW 3089   2.488   2.808   2.758  0.6487 -0.5980 -0.2706
  773SOL    HW1 3090   2.489   2.728   2.700  0.8301 -1.1058 -1.3265
  773SOL    HW2 3091   2.471   2.762   2.840 -0.8961  0.8493 -2.1440
  773SOL     MW 3092   2.486   2.792   2.761  0.4688 -0.4741 -0.6571
  774SOL     OW 3093   2.296   1.149   1.726  0.4537  0.2671 -0.7954
  774SOL    HW1 3094   2.286   1.223   1.664  1.0574  1.3915  1.5144
  774SOL    HW2 3095   2.243   1.076   1.691 -0.0169  0.4327  1.6904
  774SOL     MW 3096   2.288   1.149   1.713  0.4713  0.4373 -0.1627
  775SOL     OW 3097   2.296   2.924   2.365  0.0608 -0.1250 -0.1322
  775SOL    HW1 3098   2.307   3.000   2.310 -0.0784 -0.3122  0.9459
  775SOL    HW2 3099   2.354   2.859   2.338 -0.2683  3.7744  1.4564
  775SOL     MW 3100   2.305   2.925   2.354 -0.0010  0.3648  0.2197
  776SOL     OW 3101   0.020   1.528   0.098 -0.1073 -0.7129 -0.3189
  776SOL    HW1 3102   0.116   1.523   0.102  2.4705 -0.3398  1.0807
  776SOL    HW2 3103  -0.003   1.441   0.145  0.7685  1.4971 -1.5586
  776SOL     MW 3104   0.029   1.516   0.105  0.3483 -0.3721 -0.2978
  777SOL     OW 3105   2.953   0.976   1.791  0.1824  0.8501 -0.0724
  777SOL    HW1 3106   2.926   1.055   1.758  0.3653 -2.6759  0.2352
  777SOL    HW2 3107   2.871   0.924   1.806  1.8139 -0.0383  0.3727
  777SOL     MW 3108   2.938   0.979   1.789  0.4218  0.2676  0.0269
  778SOL     OW 3109   2.898   0.363   2.790 -0.3728  0.4536  0.4297
  778SOL    HW1 3110   2.878   0.383   2.882  1.7940 -0.4059  1.7925
  778SOL    HW2 3111   2.946   0.443   2.751  2.6126  2.8947  0.6955
  778SOL     MW 3112   2.901   0.376   2.797  0.3070  0.6623  0.6446
  779SOL     OW 3113   2.098   0.523   2.323 -0.0817 -0.1924 -0.3490
  779SOL    HW1 3114   2.042   0.590   2.363 -2.4545 -3.9343  0.7510
  779SOL    HW2 3115   2.099   0.465   2.396  0.3018  2.9353  0.2873
  779SOL     MW 3116   2.091   0.524   2.338 -0.3442 -0.2735 -0.1199
  780SOL     OW 3117   0.202   0.144   2.794  0.1558  0.5424 -0.1350
  780SOL    HW1 3118   0.145   0.188   2.856  0.1761  0.6362  0.9018
  780SOL    HW2 3119   0.156   0.124   2.711  0.0293 -2.8470  1.7973
  780SOL     MW 3120   0.189   0.147   2.791  0.1418  0.1075  0.2567
  781SOL     OW 3121   3.039   1.348   2.373  0.3069 -0.4048 -0.5920
  781SOL    HW1 3122   3.016   1.367   2.279  2.0366 -0.2922 -0.2102
  781SOL    HW2 3123   3.119   1.290   2.382  1.9942  2.2846  1.0963
  781SOL     MW 3124   3.047   1.343   2.362  0.7577 -0.0351 -0.3188
  782SOL     OW 3125   0.575   1.524   3.068 -0.7316 -0.5329  0.3147
  782SOL    HW1 3126   0.515   1.601   3.074 -0.1678  0.4472 -1.3103
  782SOL    HW2 3127   0.580   1.500   3.161 -0.4153  1.1129 -2.9320
  782SOL     MW 3128   0.568   1.531   3.081 -0.6155 -0.1864 -0.3280
  783SOL     OW 3129   2.822   0.577   2.435 -0.0335  0.4864  0.4978
  783SOL    HW1 3130   2.851   0.516   2.368  0.0551 -2.0051  0.7877
  783SOL    HW2 3131   2.765   0.539   2.509 -2.0891  0.4330  0.7591
  783SOL     MW 3132   2.818   0.564   2.436 -0.2930  0.1506  0.5706
  784SOL     OW 3133   0.210   0.922   2.872  0.2431 -0.0621 -0.7301
  784SOL    HW1 3134   0.173   0.968   2.951  0.0956  1.6955  0.5973
  784SOL    HW2 3135   0.218   0.986   2.810  0.2127  0.2731  2.2102
  784SOL     MW 3136   0.206   0.937   2.874  0.2197  0.2140 -0.1670
  785SOL     OW 3137   0.339   0.540   2.123 -0.1647  0.1475  0.2398
  785SOL    HW1 3138   0.374   0.588   2.051  3.0521  0.2727 -0.1950
  785SOL    HW2 3139   0.298   0.455   2.109  1.1034 -0.4720  0.2001
  785SOL     MW 3140   0.338   0.535   2.112  0.4270  0.0823  0.1772
  786SOL     OW 3141   2.032   0.467   2.832 -0.0201  0.0571 -0.1899
  786SOL    HW1 3142   2.042   0.482   2.925  0.7280 -1.7220 -0.8460
  786SOL    HW2 3143   2.117   0.500   2.783  0.5441 -0.2881 -2.2526
  786SOL     MW 3144   2.044   0.473   2.838  0.1531 -0.2232 -0.5486
  787SOL     OW 3145   2.458   0.155   2.912  0.6963 -0.1934 -0.2624
  787SOL    HW1 3146   2.515   0.166   2.836  2.0113  1.0938 -1.4342
  787SOL    HW2 3147   2.481   0.232   2.971  1.0553 -0.6721  0.6345
  787SOL     MW 3148   2.469   0.166   2.910  0.9172 -0.0867 -0.2987
  788SOL     OW 3149   2.971   2.873   2.292  0.4863  0.3089  0.1104
  788SOL    HW1 3150   2.929   2.791   2.259 -1.0913  0.8384 -1.5199
  788SOL    HW2 3151   3.018   2.827   2.359 -0.5617  1.2731  2.4380
  788SOL     MW 3152   2.971   2.856   2.296  0.1399  0.5060  0.2024
  789SOL     OW 3153   0.062   0.285   3.034  0.5668 -0.2006  0.2415
  789SOL    HW1 3154  -0.028   0.292   3.057  0.7345 -0.2636 -0.2413
  789SOL    HW2 3155   0.103   0.272   3.115 -1.1673  0.8302 -1.8447
  789SOL     MW 3156   0.055   0.284   3.048  0.3601 -0.0729 -0.0975
  790SOL     OW 3157   0.025   1.030   2.441  0.0570 -0.0898 -0.0328
  790SOL    HW1 3158   0.008   0.995   2.532 -0.2674  1.4341  2.3670
  790SOL    HW2 3159  -0.058   1.033   2.397  0.2500 -2.0650  0.4810
  790SOL     MW 3160   0.012   1.026   2.447  0.0397 -0.1494  0.3516
  791SOL     OW 3161   2.696   0.406   2.625  0.2551  0.2318  0.6176
  791SOL    HW1 3162   2.637   0.459   2.682  0.7262 -1.6513 -0.4426
  791SOL    HW2 3163   2.769   0.378   2.681 -2.7774 -1.4079  1.5477
  791SOL     MW 3164   2.698   0.410   2.640 -0.0828 -0.2330  0.6004
  792SOL     OW 3165   2.423   0.271   2.371  0.8404 -0.5885 -0.5247
  792SOL    HW1 3166   2.352   0.324   2.419  2.7879 -1.0673  0.6516
  792SOL    HW2 3167   2.466   0.231   2.445 -1.7024  1.0726  0.5995
  792SOL     MW 3168   2.420   0.273   2.387  0.7619 -0.4325 -0.2212
  793SOL     OW 3169   1.748   1.006   1.890 -0.0475  0.0250  0.1303
  793SOL    HW1 3170   1.738   1.038   1.798  0.7570 -0.3424 -3.0232
  793SOL    HW2 3171   1.849   1.018   1.896  0.5154  0.2852 -0.2604
  793SOL     MW 3172   1.760   1.012   1.879  0.1329  0.0108 -0.3373
  794SOL     OW 3173   1.428   2.298   0.152 -0.2446  0.3726  0.1667
  794SOL    HW1 3174   1.439   2.381   0.099 -2.1823 -1.0722 -0.7557
  794SOL    HW2 3175   1.486   2.310   0.231  0.0371  1.2514  1.3301
  794SOL     MW 3176   1.437   2.310   0.155 -0.4631  0.2980  0.1985
  795SOL     OW 3177   2.352   0.941   2.583 -0.2191 -0.2539 -0.0536
  795SOL    HW1 3178   2.326   1.019   2.632 -0.1713  1.0392 -2.1366
  795SOL    HW2 3179   2.352   0.961   2.487 -0.8785 -1.3888 -0.8702
  795SOL     MW 3180   2.348   0.954   2.577 -0.2998 -0.2331 -0.4362
  796SOL     OW 3181   0.300   0.654   2.784 -0.6101  0.0858 -0.5690
  796SOL    HW1 3182   0.293   0.748   2.791  0.7072 -0.8653  0.7061
  796SOL    HW2 3183   0.273   0.630   2.695 -3.4280  2.1359 -0.1200
  796SOL     MW 3184   0.295   0.663   2.773 -0.8081  0.2308 -0.3415
  797SOL     OW 3185   2.580   0.170   2.604  0.0970 -0.5165 -0.0699
  797SOL    HW1 3186   2.618   0.261   2.613  0.1278  3.1378  2.4801
  797SOL    HW2 3187   2.647   0.119   2.553  3.2009  0.1176  3.1602
  797SOL     MW 3188   2.594   0.176   2.598  0.5106  0.0493  0.6927
  798SOL     OW 3189   2.356   0.065   2.218 -0.6160  0.2853  0.7187
  798SOL    HW1 3190   2.370   0.145   2.273 -0.1946  1.1414 -0.8514
  798SOL    HW2 3191   2.447   0.036   2.199 -0.6427  0.9645 -2.0567
  798SOL     MW 3192   2.370   0.072   2.223 -0.5639  0.4879  0.1454
  799SOL     OW 3193   2.532   2.890   0.196 -0.2330 -0.3742 -0.2368
  799SOL    HW1 3194   2.575   2.880   0.111  0.1080 -0.6907 -0.6448
  799SOL    HW2 3195   2.458   2.945   0.174 -1.3705 -0.5135 -0.1845
  799SOL     MW 3196   2.528   2.896   0.182 -0.3381 -0.4343 -0.2837
  800SOL     OW 3197   1.918   3.094   1.718 -0.3541  0.0370 -0.1088
  800SOL    HW1 3198   1.858   3.018   1.732  2.9977 -2.2498  2.3057
  800SOL    HW2 3199   1.968   3.095   1.799 -0.8103 -1.4998  1.0250
  800SOL     MW 3200   1.917   3.084   1.731  0.0279 -0.4675  0.3593
  801SOL     OW 3201   2.839   1.331   2.575  0.1438 -0.1922 -0.2546
  801SOL    HW1 3202   2.809   1.239   2.578  1.5282  0.4492  0.4046
  801SOL    HW2 3203   2.902   1.327   2.500 -0.2626 -1.8936 -1.1810
  801SOL     MW 3204   2.843   1.318   2.566  0.2729 -0.3321 -0.2899
  802SOL     OW 3205   2.558   1.507   2.754  0.6658  0.4175  0.0166
  802SOL    HW1 3206   2.577   1.423   2.707 -0.8642  0.0275  0.3411
  802SOL    HW2 3207   2.642   1.548   2.796  1.9234  1.1524  1.6522
  802SOL     MW 3208   2.572   1.501   2.753  0.6298  0.4630  0.2752
  803SOL     OW 3209   2.238   1.322   1.954  0.2908  0.5611  0.0005
  803SOL    HW1 3210   2.208   1.279   2.040 -2.3910 -0.7067  0.4948
  803SOL    HW2 3211   2.220   1.252   1.890  0.6846 -0.4813  3.3279
  803SOL     MW 3212   2.232   1.307   1.957 -0.0111  0.2563  0.5047
  804SOL     OW 3213   2.363   3.080   0.053  0.3864 -0.4402 -0.1842
  804SOL    HW1 3214   2.293   3.148   0.024  0.5241  0.6829 -0.0298
  804SOL    HW2 3215   2.441   3.119   0.015 -2.6400  0.9952 -0.9126
  804SOL     MW 3216   2.364   3.094   0.044  0.0053 -0.1027 -0.2599
  805SOL     OW 3217   2.820   1.042   2.620 -0.6182  0.0951  0.3065
  805SOL    HW1 3218   2.767   0.973   2.575 -1.0279 -3.1368  2.0528
  805SOL    HW2 3219   2.892   0.989   2.659 -0.9693 -2.4314  2.4255
  805SOL     MW 3220   2.823   1.026   2.619 -0.7186 -0.6647  0.8165
  806SOL     OW 3221   2.653   0.328   2.185  0.0958  0.0843  0.1091
  806SOL    HW1 3222   2.576   0.314   2.244 -2.0676 -1.0357  1.9027
  806SOL    HW2 3223   2.636   0.412   2.151  0.5314  0.5368 -1.2389
  806SOL     MW 3224   2.640   0.337   2.189 -0.1321 -0.0038  0.1679
  807SOL     OW 3225   0.065   1.129   2.127  0.1105 -1.0317  0.0387
  807SOL    HW1 3226   0.087   1.047   2.087 -1.4271 -0.9272 -1.0168
  807SOL    HW2 3227  -0.019   1.108   2.164 -0.6210 -0.5584 -0.1236
  807SOL     MW 3228   0.057   1.116   2.126 -0.1889 -0.9555 -0.1219
  808SOL     OW 3229   2.653   3.058   2.788 -0.1425 -0.0308 -0.6447
  808SOL    HW1 3230   2.609   2.973   2.782  0.4318  0.0903 -0.8813
  808SOL    HW2 3231   2.625   3.110   2.716 -0.8923  0.1767 -1.6002
  808SOL     MW 3232   2.643   3.054   2.778 -0.1657  0.0126 -0.8020
  809SOL     OW 3233   2.528   1.230   2.410  0.0745  0.1841 -0.2307
  809SOL    HW1 3234   2.560   1.219   2.496 -0.3678  0.4284  1.1510
  809SOL    HW2 3235   2.597   1.235   2.347  1.9732  1.1453  0.4364
  809SOL     MW 3236   2.541   1.229   2.413  0.2666  0.3432  0.0396
  810SOL     OW 3237   2.208   1.235   2.234  0.1190  0.6094  0.7019
  810SOL    HW1 3238   2.272   1.168   2.271  1.6449 -1.2216 -0.2661
  810SOL    HW2 3239   2.121   1.204   2.268  0.9165 -0.0886  2.2514
  810SOL     MW 3240   2.205   1.222   2.243  0.4255  0.2757  0.7786
  811SOL     OW 3241   1.480   0.062   2.226  0.0085 -0.2590  0.1671
  811SOL    HW1 3242   1.567   0.049   2.266  2.1131  1.2987  0.0489
  811SOL    HW2 3243   1.477   0.046   2.133  1.7767  0.0571  3.3730
  811SOL     MW 3244   1.491   0.058   2.219  0.5195 -0.0118  0.5745
  812SOL     OW 3245   1.472   2.755   2.093  0.6228 -0.3977  0.3336
  812SOL    HW1 3246   1.562   2.780   2.081 -0.0576  0.6425  1.3552
  812SOL    HW2 3247   1.464   2.723   2.185 -1.8487  0.7329  1.3767
  812SOL     MW 3248   1.483   2.754   2.104  0.2069 -0.1113  0.6060
  813SOL     OW 3249   1.845   0.686   2.140  0.2213  0.3175 -0.1040
  813SOL    HW1 3250   1.775   0.620   2.155 -2.7492 -0.3796  0.6390
  813SOL    HW2 3251   1.898   0.709   2.219  3.9160  0.1004 -0.5833
  813SOL     MW 3252   1.843   0.680   2.152  0.3168  0.1969 -0.0692
  814SOL     OW 3253   2.812   1.165   1.618 -0.0077 -0.0939  0.1114
  814SOL    HW1 3254   2.720   1.166   1.641 -2.0218 -1.7387 -0.2368
  814SOL    HW2 3255   2.816   1.151   1.524  0.1110  2.1212  0.5073
  814SOL     MW 3256   2.800   1.164   1.609 -0.2577 -0.0186  0.1177
  815SOL     OW 3257   2.500   1.661   2.372 -0.3494  0.0522 -0.3522
  815SOL    HW1 3258   2.435   1.593   2.350  0.4243  3.9134  1.3897
  815SOL    HW2 3259   2.587   1.622   2.389  3.0655  2.0465  2.0552
  815SOL     MW 3260   2.503   1.647   2.372  0.2033  0.8248  0.1953
  816SOL     OW 3261   0.669   0.690   2.734  0.3735  1.0698  0.8732
  816SOL    HW1 3262   0.725   0.623   2.771  0.5789 -0.6779 -1.2702
  816SOL    HW2 3263   0.635   0.645   2.648  0.0662  1.1167  0.5040
  816SOL     MW 3264   0.672   0.675   2.727  0.3601  0.8454  0.5417
  817SOL     OW 3265   3.090   1.177   1.333  0.5659  0.1616  0.1505
  817SOL    HW1 3266   3.146   1.163   1.407 -0.0974 -1.5719 -0.9349
  817SOL    HW2 3267   3.041   1.256   1.345 -2.5414 -0.1200 -0.5389
  817SOL     MW 3268   3.091   1.185   1.344  0.0684 -0.1043 -0.0837
  818SOL     OW 3269   1.908   1.019   2.673 -0.0146  0.3133 -0.1600
  818SOL    HW1 3270   1.963   1.066   2.609  2.2419  1.1237 -0.2365
  818SOL    HW2 3271   1.962   0.943   2.696  1.4703 -0.0300 -0.3116
  818SOL     MW 3272   1.922   1.015   2.667  0.4791  0.3749 -0.1901
  819SOL     OW 3273   1.954   0.197   2.325  0.3833 -0.6993  0.2881
  819SOL    HW1 3274   2.019   0.137   2.306 -0.2849 -1.1689 -1.3524
  819SOL    HW2 3275   1.962   0.209   2.424  1.1658  0.9122  0.2999
  819SOL     MW 3276   1.964   0.191   2.335  0.3984 -0.5486  0.0732
  820SOL     OW 3277   2.479   1.748   2.628 -0.2106 -0.3643  0.1806
  820SOL    HW1 3278   2.513   1.681   2.690 -1.3293  0.1345  0.1619
  820SOL    HW2 3279   2.473   1.701   2.545  0.4816  1.8677 -0.7301
  820SOL     MW 3280   2.482   1.733   2.625 -0.2669 -0.0040  0.0580
  821SOL     OW 3281   2.527   1.336   2.003 -0.0657 -0.2158  0.2299
  821SOL    HW1 3282   2.573   1.403   1.955 -1.0127 -0.7363  1.2402
  821SOL    HW2 3283   2.430   1.345   1.982 -2.1262  0.6806  0.2171
  821SOL     MW 3284   2.520   1.346   1.994 -0.4625 -0.1662  0.3615
  822SOL     OW 3285   2.901   2.617   1.432  0.2964  0.4117  0.2710
  822SOL    HW1 3286   2.828   2.677   1.406 -0.1129 -0.8445 -0.0144
  822SOL    HW2 3287   2.977   2.675   1.459  0.7987 -0.5767 -2.9089
  822SOL     MW 3288   2.902   2.633   1.432  0.3087  0.1156 -0.1862
  823SOL     OW 3289   2.360   0.494   1.805  0.1904 -0.1069  0.6941
  823SOL    HW1 3290   2.426   0.442   1.753  2.4449  1.8119  0.9170
  823SOL    HW2 3291   2.273   0.452   1.780 -0.6434 -3.8895 -2.1146
  823SOL     MW 3292   2.357   0.482   1.795  0.3778 -0.3528  0.3529
  824SOL     OW 3293   2.112   1.358   2.568  0.1606 -0.0657 -0.3882
  824SOL    HW1 3294   2.191   1.392   2.522 -2.7275 -1.3641  0.8839
  824SOL    HW2 3295   2.077   1.438   2.603  2.9757 -0.3176  2.3853
  824SOL     MW 3296   2.118   1.373   2.567  0.1510 -0.2702  0.1456
  825SOL     OW 3297   2.099   2.315   0.371 -0.2147  0.2595 -0.0205
  825SOL    HW1 3298   2.155   2.324   0.297 -0.9492 -1.1846  1.3216
  825SOL    HW2 3299   2.154   2.293   0.445 -2.3453 -2.0005 -1.0059
  825SOL     MW 3300   2.114   2.313   0.371 -0.5927 -0.2292  0.0265
  826SOL     OW 3301   1.790   2.447   0.454  0.4704  0.0421  0.0065
  826SOL    HW1 3302   1.784   2.394   0.530  1.8241  0.1507 -0.3757
  826SOL    HW2 3303   1.880   2.467   0.440 -1.4106 -1.2006 -0.5757
  826SOL     MW 3304   1.801   2.442   0.462  0.4009 -0.1075 -0.1208
  827SOL     OW 3305   1.903   2.245   0.891 -0.5403 -0.2825 -0.0059
  827SOL    HW1 3306   1.855   2.256   0.808 -1.4057  0.4105  1.4583
  827SOL    HW2 3307   1.854   2.169   0.930 -2.5941 -0.9490 -1.2338
  827SOL     MW 3308   1.890   2.237   0.885 -0.9255 -0.2790  0.0253
  828SOL     OW 3309   0.062   2.667   0.510 -0.4689 -0.0384 -0.0682
  828SOL    HW1 3310   0.148   2.688   0.543 -0.1645  1.9301  3.0240
  828SOL    HW2 3311   0.058   2.711   0.426 -0.1784 -0.1541  1.1869
  828SOL     MW 3312   0.073   2.676   0.503 -0.3904  0.2060  0.5054
  829SOL     OW 3313   2.953   2.881   1.155 -0.7261  0.3468 -0.1907
  829SOL    HW1 3314   2.865   2.885   1.105 -1.1753 -0.2292 -1.0954
  829SOL    HW2 3315   2.995   2.800   1.128  0.4226 -1.0223 -1.9632
  829SOL     MW 3316   2.947   2.871   1.145 -0.6338  0.0902 -0.5439
  830SOL     OW 3317   2.527   2.846   2.000 -0.1165  0.5200  0.5862
  830SOL    HW1 3318   2.437   2.858   1.954 -0.7462 -1.9047  0.8818
  830SOL    HW2 3319   2.590   2.813   1.935 -0.5684  1.1489 -1.0196
  830SOL     MW 3320   2.523   2.843   1.986 -0.2592  0.2830  0.4133
  831SOL     OW 3321   2.450   2.414   1.193 -0.0799 -0.0836 -0.7379
  831SOL    HW1 3322   2.451   2.353   1.272 -2.8750  0.3216  3.8816
  831SOL    HW2 3323   2.544   2.443   1.183  0.6620  0.9573  0.5473
  831SOL     MW 3324   2.462   2.410   1.202 -0.3508  0.1072  0.0412
  832SOL     OW 3325   2.405   2.140   1.902 -0.2348  0.1833 -0.4409
  832SOL    HW1 3326   2.436   2.235   1.911  1.2605  1.8452 -0.3981
  832SOL    HW2 3327   2.458   2.097   1.840  1.1659  0.6872  1.3083
  832SOL     MW 3328   2.416   2.147   1.895  0.1473  0.4691 -0.2045
  833SOL     OW 3329   1.618   2.499   0.818 -0.1144 -0.1754  0.6861
  833SOL    HW1 3330   1.585   2.451   0.899  2.3558  0.8504  1.2447
  833SOL    HW2 3331   1.553   2.569   0.802  0.2326 -1.9421 -1.4191
  833SOL     MW 3332   1.605   2.502   0.826  0.2573 -0.2731  0.4821
  834SOL     OW 3333   2.227   2.416   0.610  0.0495 -0.0681  0.4594
  834SOL    HW1 3334   2.194   2.331   0.636  0.4402  0.0824 -0.3226
  834SOL    HW2 3335   2.298   2.416   0.679 -3.4632  0.7740 -0.9935
  834SOL     MW 3336   2.232   2.405   0.622 -0.3624  0.0629  0.1646
  835SOL     OW 3337   1.848   2.621   0.694  1.0861  0.4793  0.0680
  835SOL    HW1 3338   1.773   2.581   0.739 -1.4829 -0.9372  3.3079
  835SOL    HW2 3339   1.928   2.587   0.730 -3.4929 -0.7925 -1.0182
  835SOL     MW 3340   1.849   2.612   0.705  0.1430  0.1246  0.3522
  836SOL     OW 3341   2.075   2.058   1.803 -0.2808  0.5416  0.4056
  836SOL    HW1 3342   2.113   1.969   1.800  0.4555  0.2587  2.9142
  836SOL    HW2 3343   2.143   2.095   1.853  0.1691 -0.0637 -0.4934
  836SOL     MW 3344   2.089   2.051   1.809 -0.1243  0.4244  0.6180
  837SOL     OW 3345   2.075   0.195   0.665  0.1005 -0.3579 -0.3124
  837SOL    HW1 3346   2.004   0.208   0.603  2.1844 -0.5159 -0.1308
  837SOL    HW2 3347   2.136   0.145   0.610 -1.6737  0.0030 -0.3088
  837SOL     MW 3348   2.074   0.191   0.650  0.1414 -0.3311 -0.2880
  838SOL     OW 3349   2.952   2.053   0.935 -0.1813 -0.0252  0.7847
  838SOL    HW1 3350   2.876   1.989   0.937 -1.7591 -0.8148 -2.5603
  838SOL    HW2 3351   2.993   2.048   1.021  0.8913 -0.2286 -0.6791
  838SOL     MW 3352   2.947   2.044   0.946 -0.2480 -0.1562  0.1502
  839SOL     OW 3353   1.514   2.455   1.075 -0.1421  0.2281  0.5335
  839SOL    HW1 3354   1.504   2.518   1.149 -1.3263 -0.7916 -1.7111
  839SOL    HW2 3355   1.561   2.386   1.113  0.2217 -2.3581  2.3961
  839SOL     MW 3356   1.519   2.454   1.090 -0.2503 -0.2476  0.4831
  840SOL     OW 3357   2.364   2.097   2.327 -0.2918 -0.0362  0.1958
  840SOL    HW1 3358   2.340   2.178   2.283  2.3535  1.4013 -0.9748
  840SOL    HW2 3359   2.423   2.127   2.398 -0.6749  1.6013 -2.2164
  840SOL     MW 3360   2.369   2.111   2.331  0.0067  0.3695 -0.2769
  841SOL     OW 3361   2.248   2.328   0.120 -0.5277  0.5300 -0.5227
  841SOL    HW1 3362   2.280   2.366   0.039 -0.8018  0.8528 -1.6788
  841SOL    HW2 3363   2.162   2.297   0.086  0.3013 -2.0504 -0.3615
  841SOL     MW 3364   2.241   2.329   0.105 -0.4545  0.2321 -0.6540
  842SOL     OW 3365   2.666   1.965   1.469  0.4405 -0.1015  0.8083
  842SOL    HW1 3366   2.628   1.875   1.464 -0.2371  0.4725  2.5372
  842SOL    HW2 3367   2.690   2.001   1.384 -1.0686 -1.6224 -0.2602
  842SOL     MW 3368   2.664   1.958   1.457  0.1520 -0.2265  0.8954
  843SOL     OW 3369   2.688   2.751   1.815  0.6615 -0.0560  0.1820
  843SOL    HW1 3370   2.763   2.704   1.844  1.3819  1.1722 -0.0497
  843SOL    HW2 3371   2.641   2.677   1.762  0.6154 -0.0430  1.6114
  843SOL     MW 3372   2.692   2.735   1.812  0.7505  0.1078  0.3400
  844SOL     OW 3373   2.700   2.366   1.117  0.1203  0.0474  0.4422
  844SOL    HW1 3374   2.710   2.389   1.019 -1.9717  0.0670 -0.4791
  844SOL    HW2 3375   2.780   2.380   1.163 -1.0377  2.7414 -1.9878
  844SOL     MW 3376   2.712   2.371   1.110 -0.3085  0.4054  0.0000
  845SOL     OW 3377   2.811   2.610   0.274  0.2995  0.3283 -0.1829
  845SOL    HW1 3378   2.823   2.537   0.342  0.4570 -2.4357  0.5418
  845SOL    HW2 3379   2.813   2.694   0.323 -1.0351  2.3061 -0.9617
  845SOL     MW 3380   2.812   2.611   0.289  0.1442  0.2245 -0.1900
  846SOL     OW 3381   1.460   2.727   0.783  0.0197  0.5724 -0.0273
  846SOL    HW1 3382   1.510   2.808   0.774 -0.5941  0.8469  0.9554
  846SOL    HW2 3383   1.365   2.750   0.774  0.9626  0.5962  0.4365
  846SOL     MW 3384   1.454   2.740   0.781  0.0632  0.6118  0.1636
  847SOL     OW 3385   2.429   1.830   0.237 -0.1786 -0.0028 -0.1202
  847SOL    HW1 3386   2.423   1.743   0.270  1.4221 -0.4271  2.9782
  847SOL    HW2 3387   2.422   1.828   0.147 -1.5552  0.8829 -1.1531
  847SOL     MW 3388   2.427   1.818   0.230 -0.1490  0.0581  0.1523
  848SOL     OW 3389   2.732   2.103   1.242 -0.0996  0.0450 -0.2419
  848SOL    HW1 3390   2.731   2.189   1.195 -1.8375  3.7544 -0.4088
  848SOL    HW2 3391   2.733   2.036   1.176  2.4334 -0.3662  1.2917
  848SOL     MW 3392   2.732   2.106   1.227  0.0053  0.4802 -0.0616
  849SOL     OW 3393   1.878   2.846   0.849 -0.6512  0.0718 -0.6020
  849SOL    HW1 3394   1.854   2.809   0.931  2.3604  0.7377  0.9746
  849SOL    HW2 3395   1.870   2.772   0.779 -1.5282 -0.4084  0.3822
  849SOL     MW 3396   1.873   2.831   0.851 -0.3696  0.0963 -0.2641
  850SOL     OW 3397   2.333   1.923   1.609 -0.3891  0.0800 -0.1036
  850SOL    HW1 3398   2.246   1.913   1.564 -0.3084  0.5077  0.4811
  850SOL    HW2 3399   2.347   2.022   1.593 -0.1772  2.1140  2.0653
  850SOL     MW 3400   2.323   1.935   1.601 -0.3505  0.4048  0.2597
  851SOL     OW 3401   2.601   2.233   0.384 -0.0935  0.1927 -0.3244
  851SOL    HW1 3402   2.635   2.211   0.298  1.3076 -0.3316  1.2402
  851SOL    HW2 3403   2.560   2.323   0.385 -1.3514  3.3322  0.8865
  851SOL     MW 3404   2.600   2.242   0.373 -0.0746  0.5377  0.0418
  852SOL     OW 3405   2.336   2.044   0.375  0.2001 -0.0100  0.6528
  852SOL    HW1 3406   2.399   2.109   0.350 -0.0260 -0.5953  1.6380
  852SOL    HW2 3407   2.362   1.967   0.313  0.3633  0.9281 -1.6137
  852SOL     MW 3408   2.348   2.042   0.364  0.1918  0.0366  0.4838
  853SOL     OW 3409   2.518   2.387   1.908 -0.2626 -0.3318  0.7062
  853SOL    HW1 3410   2.525   2.439   1.827 -3.0034  0.8368 -0.6185
  853SOL    HW2 3411   2.611   2.369   1.929  0.3808 -0.6569 -1.3193
  853SOL     MW 3412   2.531   2.391   1.900 -0.5393 -0.2205  0.2642
  854SOL     OW 3413   2.878   2.276   0.749  0.0267  0.2299 -0.2036
  854SOL    HW1 3414   2.782   2.252   0.732  0.1294  0.7865  0.3448
  854SOL    HW2 3415   2.913   2.198   0.804  0.0701  0.1226 -0.9414
  854SOL     MW 3416   2.870   2.262   0.754  0.0460  0.2892 -0.2286
  855SOL     OW 3417   2.819   2.378   0.403 -0.1682  0.1133 -0.1120
  855SOL    HW1 3418   2.754   2.305   0.411 -0.7885 -0.0084  0.8655
  855SOL    HW2 3419   2.906   2.340   0.417 -0.6498  0.4572  2.3983
  855SOL     MW 3420   2.822   2.363   0.406 -0.3136  0.1426  0.3482
  856SOL     OW 3421   2.053   1.844   0.253  0.0700 -0.1128  0.0186
  856SOL    HW1 3422   1.971   1.796   0.251  1.7132  1.1049 -0.9436
  856SOL    HW2 3423   2.030   1.925   0.299  0.8417 -1.0708 -0.2841
  856SOL     MW 3424   2.039   1.848   0.259  0.3886 -0.0785 -0.1483
  857SOL     OW 3425   2.488   1.947   0.592 -0.0457  0.6112  0.1663
  857SOL    HW1 3426   2.438   1.978   0.518 -2.0421  1.1009  0.8422
  857SOL    HW2 3427   2.426   1.951   0.661 -0.8585  2.7700 -2.2679
  857SOL     MW 3428   2.473   1.952   0.592 -0.4163  0.9606 -0.0657
  858SOL     OW 3429   2.971   2.684   1.906  0.4469 -0.2267  0.3811
  858SOL    HW1 3430   3.028   2.759   1.884 -1.4398  2.6041 -0.1285
  858SOL    HW2 3431   2.982   2.610   1.842  0.5344 -2.5537  1.2198
  858SOL     MW 3432   2.980   2.684   1.895  0.2095 -0.1602  0.4246
  859SOL     OW 3433   1.770   2.661   1.025  0.0805 -0.1844  0.7974
  859SOL    HW1 3434   1.695   2.610   1.008  1.5742 -1.8231  1.2549
  859SOL    HW2 3435   1.846   2.598   1.030  4.7918  0.9515 -0.1549
  859SOL     MW 3436   1.770   2.646   1.023  0.8992 -0.2507  0.7321
  860SOL     OW 3437   2.653   2.549   0.055 -0.2208  0.0053 -0.2156
  860SOL    HW1 3438   2.717   2.582   0.121 -0.1709 -2.4136 -0.1370
  860SOL    HW2 3439   2.680   2.608  -0.021  0.6766 -0.8407 -1.0055
  860SOL     MW 3440   2.665   2.561   0.054 -0.0958 -0.4255 -0.3095
  861SOL     OW 3441   1.574   2.178   1.177 -0.4144  0.7899 -0.1538
  861SOL    HW1 3442   1.634   2.220   1.247  0.9678  1.4259 -0.5565
  861SOL    HW2 3443   1.517   2.112   1.222  0.9814  1.2391  1.4485
  861SOL     MW 3444   1.574   2.175   1.192 -0.0479  0.9331  0.0044
  862SOL     OW 3445   2.481   1.767   1.466  0.7424  0.0580 -0.1958
  862SOL    HW1 3446   2.409   1.819   1.514  1.4430  0.0816 -0.2395
  862SOL    HW2 3447   2.459   1.778   1.373  2.9543  3.9656 -1.4758
  862SOL     MW 3448   2.469   1.776   1.460  1.1267  0.5767 -0.3705
  863SOL     OW 3449   2.877   1.631   0.969  0.3785 -0.5118  0.5551
  863SOL    HW1 3450   2.858   1.724   0.982 -0.7057 -1.4392 -1.0987
  863SOL    HW2 3451   2.825   1.610   0.889  1.1777 -0.6767  0.5343
  863SOL     MW 3452   2.867   1.640   0.960  0.3409 -0.6559  0.3341
  864SOL     OW 3453   3.066   1.782   0.784 -0.3156  0.2057  0.4011
  864SOL    HW1 3454   3.032   1.729   0.854 -0.5032  1.3112 -0.9873
  864SOL    HW2 3455   2.995   1.771   0.717  1.7185 -4.7168 -0.3411
  864SOL     MW 3456   3.052   1.774   0.784 -0.0719 -0.2979  0.1200
  865SOL     OW 3457   2.493   2.166   0.114 -0.8322  0.0330 -0.3146
  865SOL    HW1 3458   2.447   2.094   0.074 -2.7818 -0.9245 -0.9165
  865SOL    HW2 3459   2.418   2.220   0.138 -3.6628  0.9784  1.7481
  865SOL     MW 3460   2.477   2.163   0.112 -1.4629  0.0314 -0.1218
  866SOL     OW 3461   2.722   2.331   1.523 -0.2370 -0.4499  0.4085
  866SOL    HW1 3462   2.701   2.246   1.551 -0.7353  2.0553 -1.5852
  866SOL    HW2 3463   2.761   2.315   1.435  2.0127 -0.4842 -2.6665
  866SOL     MW 3464   2.724   2.318   1.515 -0.0059 -0.1239 -0.2603
  867SOL     OW 3465   0.145   2.700   1.707 -0.7200  0.3714 -0.2646
  867SOL    HW1 3466   0.229   2.738   1.736 -1.4813  1.6009 -0.6781
  867SOL    HW2 3467   0.091   2.765   1.673  0.5442 -2.0399 -2.6006
  867SOL     MW 3468   0.149   2.713   1.706 -0.6536  0.2155 -0.6274
  868SOL     OW 3469   2.746   2.604   0.565 -0.1271 -0.6402 -0.1039
  868SOL    HW1 3470   2.743   2.528   0.513  0.8141 -1.4319 -1.4199
  868SOL    HW2 3471   2.681   2.659   0.523  1.3911 -0.6558 -0.4006
  868SOL     MW 3472   2.737   2.602   0.553  0.1974 -0.7467 -0.3167
  869SOL     OW 3473   1.958   2.469   1.049 -0.4052  0.2186  0.3613
  869SOL    HW1 3474   2.020   2.514   0.990 -0.1332 -0.4962 -0.6678
  869SOL    HW2 3475   1.925   2.394   0.994  4.0189  1.7927 -3.5404
  869SOL     MW 3476   1.962   2.465   1.034  0.2144  0.3319 -0.2893
  870SOL     OW 3477   2.171   0.012   0.461 -0.1969 -0.6405  0.2251
  870SOL    HW1 3478   2.241   0.051   0.412  3.1905  0.1828 -1.6672
  870SOL    HW2 3479   2.216  -0.064   0.498  0.4213  1.3910 -0.6333
  870SOL     MW 3480   2.186   0.007   0.460  0.3316 -0.2638 -0.1378
  871SOL     OW 3481   2.452   2.056   0.911  0.7785  0.1837  0.1820
  871SOL    HW1 3482   2.369   2.009   0.883 -0.2014 -1.4226  0.7169
  871SOL    HW2 3483   2.400   2.135   0.949  0.1575 -0.2536 -0.2365
  871SOL     MW 3484   2.435   2.060   0.913  0.5673 -0.0860  0.1973
  872SOL     OW 3485   2.110   2.468   1.618  0.0756  0.1876  0.0014
  872SOL    HW1 3486   2.048   2.531   1.653  0.1817 -1.0167  0.9382
  872SOL    HW2 3487   2.067   2.441   1.539 -0.3570  0.8952 -1.1183
  872SOL     MW 3488   2.096   2.473   1.612  0.0325  0.1220 -0.0227
  873SOL     OW 3489   2.889   2.125   1.824 -0.5579 -0.5374  0.1313
  873SOL    HW1 3490   2.894   2.144   1.916 -1.0740 -1.5658  1.0181
  873SOL    HW2 3491   2.968   2.154   1.782 -0.3638  0.0038  1.3044
  873SOL     MW 3492   2.900   2.132   1.831 -0.6004 -0.6017  0.4031
  874SOL     OW 3493   2.343   1.420   2.375  0.1193 -0.2383  0.1108
  874SOL    HW1 3494   2.285   1.367   2.312  0.8331  2.2955 -0.1388
  874SOL    HW2 3495   2.418   1.362   2.395  0.0603  4.0231 -3.0252
  874SOL     MW 3496   2.345   1.405   2.369  0.2057  0.6583 -0.3359
  875SOL     OW 3497   2.330   2.285   0.995 -0.0499  0.4477 -0.2663
  875SOL    HW1 3498   2.346   2.339   0.917  1.2368  0.3004  0.0404
  875SOL    HW2 3499   2.384   2.324   1.065 -0.1049  0.9811  0.6182
  875SOL     MW 3500   2.339   2.298   0.994  0.1126  0.4986 -0.1091
  876SOL     OW 3501   0.038   2.203   1.286  0.5778 -0.4378  0.0001
  876SOL    HW1 3502   0.071   2.227   1.201 -4.1087 -1.1331 -1.5616
  876SOL    HW2 3503   0.095   2.248   1.354  3.2940  1.6989 -0.6223
  876SOL     MW 3504   0.050   2.212   1.284  0.3178 -0.2476 -0.2881
  877SOL     OW 3505   0.056   2.794   0.273  1.1262  0.3645 -0.1184
  877SOL    HW1 3506   0.131   2.849   0.249 -1.5270 -1.6098 -0.1448
  877SOL    HW2 3507   0.038   2.731   0.201 -0.4968  2.0197  1.4416
  877SOL     MW 3508   0.064   2.793   0.261  0.5620  0.3224  0.0839
  878SOL     OW 3509   2.255   1.740   1.142  0.2700  0.7077  0.1405
  878SOL    HW1 3510   2.188   1.706   1.212 -1.3018 -1.8142 -0.6956
  878SOL    HW2 3511   2.342   1.701   1.132 -2.1470  0.0601 -0.2878
  878SOL     MW 3512   2.258   1.730   1.150 -0.2563  0.2895 -0.0263
  879SOL     OW 3513   2.704   2.450   0.867 -0.4643  0.1288  0.0340
  879SOL    HW1 3514   2.729   2.539   0.902  1.5167  0.8082 -1.0702
  879SOL    HW2 3515   2.787   2.419   0.829 -1.5872  0.5930  0.9731
  879SOL     MW 3516   2.718   2.458   0.867 -0.3511  0.2797  0.0122
  880SOL     OW 3517   2.624   2.194   0.703 -0.0142 -0.5842  0.0838
  880SOL    HW1 3518   2.596   2.145   0.773  1.8548 -0.7977 -2.4990
  880SOL    HW2 3519   2.584   2.149   0.623  1.9257  1.9024 -2.1799
  880SOL     MW 3520   2.615   2.181   0.702  0.4884 -0.2843 -0.5557
  881SOL     OW 3521   2.955   2.702   0.693 -0.2636 -0.2162  0.0433
  881SOL    HW1 3522   2.875   2.671   0.648  0.0163 -2.0500 -1.1069
  881SOL    HW2 3523   3.023   2.672   0.635  2.3681 -2.8046  0.5282
  881SOL     MW 3524   2.954   2.694   0.679  0.1206 -0.7997 -0.0445
  882SOL     OW 3525   2.254   2.896   1.907  0.3863  0.2117 -0.3624
  882SOL    HW1 3526   2.248   2.897   1.813  1.7624  2.6852  0.1302
  882SOL    HW2 3527   2.209   2.819   1.936  1.6782 -2.5120 -0.9903
  882SOL     MW 3528   2.247   2.886   1.898  0.7383  0.1787 -0.3803
  883SOL     OW 3529   2.433   2.176   1.329 -0.0872  0.1601 -0.0278
  883SOL    HW1 3530   2.469   2.121   1.263 -0.7811 -0.3733  1.3926
  883SOL    HW2 3531   2.337   2.165   1.318 -1.5438  0.6676  1.3431
  883SOL     MW 3532   2.425   2.168   1.319 -0.3709  0.1567  0.3405
  884SOL     OW 3533   1.885   1.848   1.051  0.1891 -0.7375 -0.1092
  884SOL    HW1 3534   1.823   1.920   1.008 -1.5044 -0.7902 -2.3968
  884SOL    HW2 3535   1.978   1.879   1.035  0.5432 -0.4342 -0.4649
  884SOL     MW 3536   1.889   1.862   1.043  0.0123 -0.7044 -0.4579
  885SOL     OW 3537   2.911   2.454   1.721 -0.2282  0.5526 -0.0939
  885SOL    HW1 3538   2.987   2.394   1.705 -1.9313  0.0130  0.5825
  885SOL    HW2 3539   2.861   2.443   1.643  0.0239 -0.5943  0.8498
  885SOL     MW 3540   2.915   2.444   1.709 -0.4196  0.3301  0.1198
  886SOL     OW 3541   2.895   2.380   1.299  0.2652 -0.2724  0.3814
  886SOL    HW1 3542   2.977   2.329   1.301  1.1720 -1.0273 -0.3910
  886SOL    HW2 3543   2.908   2.470   1.333 -1.6561 -2.1131 -0.1851
  886SOL     MW 3544   2.907   2.385   1.304  0.1313 -0.6148  0.2047
  887SOL     OW 3545   2.334   2.613   1.554 -0.3142 -0.2347  0.1308
  887SOL    HW1 3546   2.343   2.621   1.458 -0.5273 -3.0676  0.7286
  887SOL    HW2 3547   2.252   2.567   1.565 -0.6353 -0.5960  0.8759
  887SOL     MW 3548   2.324   2.608   1.543 -0.3847 -0.6562  0.3080
  888SOL     OW 3549   2.065   2.232   1.448  0.0749  1.0069  0.7218
  888SOL    HW1 3550   2.116   2.216   1.371  0.2191 -0.9941  0.0561
  888SOL    HW2 3551   2.119   2.204   1.518 -4.2433  0.4436  0.3906
  888SOL     MW 3552   2.079   2.226   1.447 -0.4759  0.6685  0.5903
  889SOL     OW 3553   2.301   1.929   2.074  0.2798  0.0349 -0.0907
  889SOL    HW1 3554   2.385   1.894   2.100 -1.0330 -0.9569 -2.0965
  889SOL    HW2 3555   2.316   2.015   2.029 -0.1113  0.4514 -0.2028
  889SOL     MW 3556   2.314   1.936   2.072  0.0550 -0.0410 -0.3701
  890SOL     OW 3557   0.046   2.346   0.115 -0.2616  0.1916 -0.3436
  890SOL    HW1 3558   0.029   2.440   0.104  0.7839  0.6852  1.1640
  890SOL    HW2 3559   0.083   2.331   0.202  1.7030 -0.5420  0.0475
  890SOL     MW 3560   0.049   2.356   0.125  0.1355  0.1600 -0.0931
  891SOL     OW 3561   3.004   1.962   1.202 -0.1535  0.3282  0.2016
  891SOL    HW1 3562   3.078   1.898   1.202 -0.9663 -0.7446 -1.1503
  891SOL    HW2 3563   3.044   2.035   1.256  0.0570 -2.3641  0.7931
  891SOL     MW 3564   3.019   1.963   1.209 -0.2330 -0.1686  0.1013
  892SOL     OW 3565   2.432   2.348   2.741  0.0613 -0.3910  0.3839
  892SOL    HW1 3566   2.417   2.256   2.781  0.9849 -1.5027 -1.1046
  892SOL    HW2 3567   2.506   2.390   2.783 -2.2165  0.3630  0.8765
  892SOL     MW 3568   2.440   2.342   2.752 -0.1173 -0.4382  0.2525
  893SOL     OW 3569   1.634   2.340   1.377  0.1039  0.0772 -0.3673
  893SOL    HW1 3570   1.557   2.379   1.415 -0.6898 -1.1582  3.0800
  893SOL    HW2 3571   1.694   2.349   1.450  0.0930  4.1117 -0.6160
  893SOL     MW 3572   1.632   2.347   1.391 -0.0022  0.4465  0.0547
  894SOL     OW 3573   2.796   1.969   0.524  0.1498 -0.1349  0.2370
  894SOL    HW1 3574   2.742   1.983   0.605 -1.5571  0.9906  2.9133
  894SOL    HW2 3575   2.732   1.946   0.457 -1.6097  1.3482  1.1214
  894SOL     MW 3576   2.780   1.967   0.526 -0.3075  0.2093  0.7068
  895SOL     OW 3577   2.187   2.174   1.195 -0.1032  0.0082  0.1992
  895SOL    HW1 3578   2.221   2.210   1.110 -0.8083  1.0518  2.7891
  895SOL    HW2 3579   2.131   2.096   1.171 -1.6935 -0.4330 -1.2624
  895SOL     MW 3580   2.184   2.169   1.180 -0.4061  0.0877  0.3480
  896SOL     OW 3581   2.350   2.803   1.079  0.2361  0.2861 -0.5109
  896SOL    HW1 3582   2.355   2.751   1.164  0.9689  1.0747  0.5200
  896SOL    HW2 3583   2.264   2.849   1.082  2.2849  2.5112  1.2446
  896SOL     MW 3584   2.340   2.802   1.091  0.6031  0.6837 -0.1433
  897SOL     OW 3585   0.013   3.058   3.016 -0.0992 -0.2799 -0.4873
  897SOL    HW1 3586   0.057   2.970   3.009 -0.9385  1.1029  1.5862
  897SOL    HW2 3587  -0.055   3.064   2.949  0.7159  1.4677  1.8439
  897SOL     MW 3588   0.010   3.047   3.006 -0.1024  0.1331  0.0938
  898SOL     OW 3589   2.143   0.177   1.435 -0.2508 -0.7290  0.0325
  898SOL    HW1 3590   2.118   0.089   1.474 -1.2212  0.7011  2.0578
  898SOL    HW2 3591   2.121   0.180   1.340 -0.1982  1.8577 -1.2677
  898SOL     MW 3592   2.137   0.166   1.428 -0.3719 -0.1990  0.1282
  899SOL     OW 3593   2.998   2.950   0.627 -0.6734  0.0697  0.4570
  899SOL    HW1 3594   2.985   2.862   0.664 -0.5027  1.0306 -0.2806
  899SOL    HW2 3595   2.927   2.993   0.668  1.9117 -3.5048 -0.7832
  899SOL     MW 3596   2.987   2.944   0.637 -0.3098 -0.2751  0.1960
  900SOL     OW 3597   0.158   2.380   1.122 -0.6111  0.3861 -0.7583
  900SOL    HW1 3598   0.109   2.464   1.130 -0.5692  1.9369 -1.7728
  900SOL    HW2 3599   0.133   2.344   1.034  0.2619 -1.8744 -1.3724
  900SOL     MW 3600   0.148   2.387   1.112 -0.4904  0.2925 -0.9732
  901SOL     OW 3601   1.755   2.863   1.766  0.5812  0.0565 -0.2738
  901SOL    HW1 3602   1.815   2.792   1.757 -0.1467 -4.1741 -0.8132
  901SOL    HW2 3603   1.657   2.830   1.770 -1.2771  0.9035  0.9013
  901SOL     MW 3604   1.750   2.849   1.765  0.2400 -0.3900 -0.1899
  902SOL     OW 3605   2.622   2.090   1.717  0.3391  0.2912 -0.2192
  902SOL    HW1 3606   2.651   2.042   1.637 -1.2881 -1.4946 -2.7377
  902SOL    HW2 3607   2.699   2.091   1.776  2.2057 -0.8143 -0.7077
  902SOL     MW 3608   2.636   2.084   1.715  0.3707 -0.0902 -0.6159
  903SOL     OW 3609   1.558   2.652   0.533  0.7172 -0.2184  0.2409
  903SOL    HW1 3610   1.651   2.627   0.534  0.4957 -1.8208 -3.8624
  903SOL    HW2 3611   1.539   2.694   0.616 -1.9173 -0.4000  2.5133
  903SOL     MW 3612   1.568   2.654   0.544  0.3404 -0.4538 -0.0006
  904SOL     OW 3613   2.560   2.535   1.680  0.7545 -0.2734  0.2259
  904SOL    HW1 3614   2.478   2.563   1.640 -1.2289 -0.7375 -0.7903
  904SOL    HW2 3615   2.608   2.485   1.613  0.7235  1.9292 -0.4632
  904SOL     MW 3616   2.555   2.532   1.666  0.4887 -0.0440  0.0009
  905SOL     OW 3617   2.334   2.517   2.074  0.0588  0.3212 -0.4041
  905SOL    HW1 3618   2.406   2.463   2.037  0.1828 -0.6421 -0.0940
  905SOL    HW2 3619   2.290   2.449   2.129 -2.0615 -0.2906 -2.2674
  905SOL     MW 3620   2.338   2.501   2.076 -0.2046  0.1134 -0.6090
  906SOL     OW 3621   2.406   2.458   0.812  0.2088 -0.1173  0.8041
  906SOL    HW1 3622   2.500   2.444   0.806  0.7311  0.3694 -1.6181
  906SOL    HW2 3623   2.386   2.545   0.853  1.0792 -0.3966 -0.6093
  906SOL     MW 3624   2.416   2.468   0.817  0.3926 -0.0899  0.2980
  907SOL     OW 3625   2.662   2.754   1.320 -0.0366  0.2833  0.0188
  907SOL    HW1 3626   2.702   2.828   1.360 -4.1135 -0.7543 -2.6074
  907SOL    HW2 3627   2.663   2.781   1.227  2.4234  2.9421 -3.5649
  907SOL     MW 3628   2.667   2.767   1.313 -0.2499  0.4972 -0.8005
  908SOL     OW 3629   2.676   2.300   3.072  0.0188 -0.2315 -0.2374
  908SOL    HW1 3630   2.616   2.245   3.108  3.5067  0.7506  1.4092
  908SOL    HW2 3631   2.647   2.390   3.102 -0.0090 -1.4863 -2.4362
  908SOL     MW 3632   2.664   2.304   3.081  0.4754 -0.2674 -0.3103
  909SOL     OW 3633   1.715   0.098   1.313  0.0314 -0.0643  0.6049
  909SOL    HW1 3634   1.657   0.173   1.311 -0.3364 -1.7961  0.3921
  909SOL    HW2 3635   1.702   0.061   1.402 -1.4481  1.3435 -1.5880
  909SOL     MW 3636   1.705   0.103   1.324 -0.2123 -0.1070  0.2875
  910SOL     OW 3637   2.147   1.643   0.461  0.4014  0.5476  0.0372
  910SOL    HW1 3638   2.076   1.582   0.468  1.8699 -1.3900  0.9053
  910SOL    HW2 3639   2.117   1.715   0.401 -1.9898 -1.4955  2.2832
  910SOL     MW 3640   2.133   1.644   0.454  0.2796  0.0224  0.4481
  911SOL     OW 3641   2.358   2.191   1.596 -0.8010 -0.3783  0.4596
  911SOL    HW1 3642   2.405   2.201   1.676 -1.1242  1.9175  1.3340
  911SOL    HW2 3643   2.418   2.192   1.529 -1.9281 -1.2233  1.5064
  911SOL     MW 3644   2.372   2.192   1.598 -0.9923 -0.1869  0.7131
  912SOL     OW 3645   2.927   1.849   1.451  0.0972  0.2819  0.0924
  912SOL    HW1 3646   2.936   1.894   1.360  0.7930  0.1496 -0.7866
  912SOL    HW2 3647   2.867   1.905   1.504 -0.6332  1.6276  0.1338
  912SOL     MW 3648   2.920   1.862   1.446  0.0926  0.4420 -0.0181
  913SOL     OW 3649   2.695   3.090   0.329  0.1476 -0.3555  0.6448
  913SOL    HW1 3650   2.773   3.042   0.348  0.5455 -0.5184  0.1394
  913SOL    HW2 3651   2.646   3.024   0.284  2.6736 -0.0599  1.0795
  913SOL     MW 3652   2.699   3.075   0.326  0.5333 -0.3380  0.6355
  914SOL     OW 3653   2.647   1.779   3.071 -0.0646  0.2945  0.1869
  914SOL    HW1 3654   2.699   1.847   3.023  0.9674 -1.8004  0.5132
  914SOL    HW2 3655   2.561   1.800   3.048  0.4464  1.3250  3.0198
  914SOL     MW 3656   2.643   1.791   3.062  0.1390  0.1541  0.6038
  915SOL     OW 3657   1.813   0.101   0.177  0.0224 -0.7248  0.3234
  915SOL    HW1 3658   1.895   0.039   0.166  2.0276  1.3178 -1.0279
  915SOL    HW2 3659   1.744   0.040   0.202  0.4702  0.0887  1.6714
  915SOL     MW 3660   1.815   0.085   0.178  0.3460 -0.3479  0.3230
  916SOL     OW 3661   1.785   2.095   1.979  0.1254 -0.6068 -0.4597
  916SOL    HW1 3662   1.836   2.169   1.944 -0.2688 -1.2620 -1.2620
  916SOL    HW2 3663   1.797   2.031   1.911  0.5191  0.0373  2.0812
  916SOL     MW 3664   1.794   2.096   1.965  0.1253 -0.6083 -0.2303
  917SOL     OW 3665   2.506   2.199   2.530 -0.1720  0.0099 -0.0543
  917SOL    HW1 3666   2.461   2.253   2.600 -3.0083  1.6919  0.5823
  917SOL    HW2 3667   2.561   2.260   2.485  3.0831  1.8989  0.9437
  917SOL     MW 3668   2.507   2.214   2.533 -0.1168  0.4810  0.1613
  918SOL     OW 3669   2.025   1.594   2.676 -0.0159 -0.0431  0.0759
  918SOL    HW1 3670   1.937   1.601   2.628 -0.7907  2.7152  1.2215
  918SOL    HW2 3671   2.084   1.663   2.649 -1.4024 -2.7373 -1.2859
  918SOL     MW 3672   2.021   1.604   2.666 -0.3011 -0.0346  0.0473
  919SOL     OW 3673   3.050   2.394   2.255 -0.2041 -0.2381 -0.8461
  919SOL    HW1 3674   3.000   2.323   2.228  1.1234  0.3986 -1.1322
  919SOL    HW2 3675   3.097   2.419   2.174 -1.4909  0.8676 -3.4504
  919SOL     MW 3676   3.049   2.388   2.241 -0.1987 -0.0082 -1.2274
  920SOL     OW 3677   2.602   2.876   3.034  0.3866 -0.0957  0.3461
  920SOL    HW1 3678   2.522   2.825   3.038  2.5801 -1.1989 -0.7982
  920SOL    HW2 3679   2.649   2.831   2.964  1.9266  2.4541 -1.7393
  920SOL     MW 3680   2.598   2.864   3.025  0.8792  0.0952 -0.0800
  921SOL     OW 3681   2.403   2.593   2.580 -0.3745  0.1762 -0.4668
  921SOL    HW1 3682   2.441   2.600   2.494  2.1792  1.2605 -0.1455
  921SOL    HW2 3683   2.421   2.509   2.614 -1.1063  1.8877 -0.3836
  921SOL     MW 3684   2.410   2.583   2.573 -0.1341  0.5451 -0.4135
  922SOL     OW 3685   2.110   2.656   0.408  0.6998  0.1431  0.6073
  922SOL    HW1 3686   2.137   2.631   0.321 -0.0372 -1.8777  0.4825
  922SOL    HW2 3687   2.120   2.579   0.454  1.1307  1.3928 -3.2201
  922SOL     MW 3688   2.115   2.642   0.402  0.6594  0.0414  0.0859
  923SOL     OW 3689   2.209   2.826   1.642 -0.5912 -1.0359 -0.1341
  923SOL    HW1 3690   2.266   2.755   1.608 -1.4702  0.2482 -0.7349
  923SOL    HW2 3691   2.198   2.898   1.578  3.3643  0.0989  2.2767
  923SOL     MW 3692   2.215   2.826   1.629 -0.1852 -0.7167  0.1047
  924SOL     OW 3693   1.078   2.724   2.601  0.5611 -0.1608  0.1737
  924SOL    HW1 3694   1.175   2.720   2.595  0.4945  1.8462 -0.0237
  924SOL    HW2 3695   1.052   2.645   2.652 -1.8450 -1.9283  0.9011
  924SOL     MW 3696   1.087   2.713   2.607  0.2348 -0.1292  0.2437
  925SOL     OW 3697   2.956   0.148   2.635 -0.3039  0.0255 -0.0413
  925SOL    HW1 3698   2.899   0.145   2.555 -3.0030 -1.5064 -1.9648
  925SOL    HW2 3699   2.933   0.231   2.683 -2.0260 -2.8033  0.6879
  925SOL     MW 3700   2.945   0.159   2.631 -0.8872 -0.5498 -0.1989
  926SOL     OW 3701   2.787   2.413   1.963 -0.2271  0.0251  0.5769
  926SOL    HW1 3702   2.829   2.487   2.012  1.9537  2.0245  2.2773
  926SOL    HW2 3703   2.832   2.408   1.878 -1.0518 -0.2380  0.3504
  926SOL     MW 3704   2.798   2.422   1.958 -0.0482  0.2542  0.7713
  927SOL     OW 3705   2.363   0.117   0.300  0.3504  0.0227 -0.0164
  927SOL    HW1 3706   2.441   0.126   0.353  0.2318  1.7259  2.5336
  927SOL    HW2 3707   2.385   0.066   0.222 -1.3889  0.2041  1.4859
  927SOL     MW 3708   2.376   0.111   0.296  0.1053  0.2713  0.5182
  928SOL     OW 3709   2.175   2.341   1.857 -0.1090  0.1247  0.0237
  928SOL    HW1 3710   2.187   2.356   1.764 -0.9785  1.0223  1.5793
  928SOL    HW2 3711   2.197   2.428   1.895  2.0253  2.3434 -3.9716
  928SOL     MW 3712   2.180   2.354   1.849  0.0579  0.5359 -0.2982
  929SOL     OW 3713   2.704   2.359   2.420 -0.8201  0.1540  0.1705
  929SOL    HW1 3714   2.754   2.328   2.343  0.0963  0.0525  0.6697
  929SOL    HW2 3715   2.772   2.361   2.491  2.2663  0.3767  0.8102
  929SOL     MW 3716   2.719   2.355   2.419 -0.2920  0.1700  0.3208
  930SOL     OW 3717   2.048   2.821   2.693  0.0976 -0.5917  0.1689
  930SOL    HW1 3718   2.054   2.752   2.759 -1.6142  1.1254  3.4040
  930SOL    HW2 3719   2.138   2.845   2.665  1.1287 -0.0544  0.4579
  930SOL     MW 3720   2.061   2.815   2.698  0.0078 -0.2942  0.6339
  931SOL     OW 3721   0.031   2.755   2.473  0.0274 -0.8658  0.2798
  931SOL    HW1 3722   0.012   2.826   2.543  1.9769  1.4647  1.9935
  931SOL    HW2 3723   0.119   2.777   2.439 -1.4791  0.8339  0.5171
  931SOL     MW 3724   0.040   2.767   2.478  0.0858 -0.3341  0.5373
  932SOL     OW 3725   2.754   2.027   2.452  0.1937 -0.3043  0.1050
  932SOL    HW1 3726   2.842   2.030   2.492 -0.9421 -3.0956 -0.6047
  932SOL    HW2 3727   2.769   2.013   2.360  1.4038 -1.0796  0.4375
  932SOL     MW 3728   2.768   2.025   2.445  0.2035 -0.7749  0.0552
  933SOL     OW 3729   2.086   2.790   2.239 -0.0595  0.5053  0.6612
  933SOL    HW1 3730   2.171   2.813   2.275  2.7934  2.3188 -2.8761
  933SOL    HW2 3731   2.045   2.874   2.202 -2.2349 -1.2850  2.1258
  933SOL     MW 3732   2.092   2.804   2.239  0.0299  0.5084  0.3877
  934SOL     OW 3733   1.997   2.656   2.459 -0.3378 -0.1328  0.0984
  934SOL    HW1 3734   2.022   2.712   2.527  0.6722  0.2428  2.8482
  934SOL    HW2 3735   2.025   2.702   2.381 -1.2900  1.5513  0.6953
  934SOL     MW 3736   2.004   2.670   2.457 -0.3302  0.1389  0.5399
  935SOL     OW 3737   2.655   1.529   1.825  0.1901  0.3654 -0.1054
  935SOL    HW1 3738   2.746   1.499   1.822  0.6306 -0.1944  0.2991
  935SOL    HW2 3739   2.621   1.511   1.738  0.9145  0.5276  0.9261
  935SOL     MW 3740   2.662   1.523   1.813  0.3438  0.3129  0.0840
  936SOL     OW 3741   2.932   2.213   0.029  0.1095 -0.1652 -0.1119
  936SOL    HW1 3742   2.994   2.285   0.053 -0.7825 -3.3458 -1.3224
  936SOL    HW2 3743   2.845   2.245   0.011 -2.7423  0.4113  1.5112
  936SOL     MW 3744   2.929   2.227   0.030 -0.3844 -0.5088 -0.0575
  937SOL     OW 3745   1.957   2.115   2.634  0.4322  0.1609  0.3054
  937SOL    HW1 3746   2.040   2.070   2.669 -0.6408 -1.0240  0.5776
  937SOL    HW2 3747   1.968   2.118   2.538 -0.6081 -0.1113 -1.4870
  937SOL     MW 3748   1.969   2.109   2.626  0.1534 -0.0313  0.1048
  938SOL     OW 3749   2.217   1.825   1.835 -0.0117 -0.3397  0.2530
  938SOL    HW1 3750   2.281   1.849   1.777  0.3693 -0.7678  0.6366
  938SOL    HW2 3751   2.259   1.842   1.918 -0.7017  2.0429 -3.6545
  938SOL     MW 3752   2.231   1.830   1.838 -0.0525 -0.0819 -0.2120
  939SOL     OW 3753   2.761   1.986   2.114 -0.2753  0.5042 -0.8256
  939SOL    HW1 3754   2.803   1.928   2.049 -0.6826  0.0682 -0.1585
  939SOL    HW2 3755   2.679   1.947   2.142  0.3146 -0.8814 -0.6941
  939SOL     MW 3756   2.755   1.973   2.109 -0.2512  0.2639 -0.7202
  940SOL     OW 3757   2.209   0.088   2.776 -0.0513 -0.0028  0.2553
  940SOL    HW1 3758   2.215  -0.006   2.747 -1.3455  1.5836 -0.6575
  940SOL    HW2 3759   2.282   0.119   2.829 -0.2114 -0.2854 -1.9810
  940SOL     MW 3760   2.219   0.080   2.779 -0.2432  0.1692 -0.1602
  941SOL     OW 3761   0.096   2.429   2.022 -0.3779 -0.6580 -0.5031
  941SOL    HW1 3762   0.161   2.353   2.043 -0.6423 -0.2141  2.6658
  941SOL    HW2 3763   0.123   2.448   1.929  2.1357 -0.6198 -2.5975
  941SOL     MW 3764   0.108   2.421   2.013 -0.0812 -0.5944 -0.3613
  942SOL     OW 3765   2.797   2.253   2.191  0.3426 -0.4913 -0.4977
  942SOL    HW1 3766   2.783   2.312   2.114  3.3250 -2.8628  3.5135
  942SOL    HW2 3767   2.766   2.162   2.172  1.6820  2.5797 -2.5204
  942SOL     MW 3768   2.791   2.248   2.178  0.9128 -0.3990 -0.2353
  943SOL     OW 3769   0.353   2.193   2.283  0.0716  0.3256 -0.5308
  943SOL    HW1 3770   0.271   2.199   2.333 -1.0970  1.4355  1.4042
  943SOL    HW2 3771   0.422   2.159   2.340  0.3750  0.8707 -1.2255
  943SOL     MW 3772   0.351   2.190   2.297 -0.0425  0.5440 -0.3672
  944SOL     OW 3773   2.125   2.678   1.976 -0.1865 -0.1418  0.1718
  944SOL    HW1 3774   2.193   2.615   1.996 -0.5156 -2.8586  0.0580
  944SOL    HW2 3775   2.084   2.701   2.067  1.5089 -2.7653  0.5956
  944SOL     MW 3776   2.129   2.673   1.991 -0.0062 -0.8464  0.2127
  945SOL     OW 3777   2.748   2.674   2.886 -0.2553  0.1370 -0.2811
  945SOL    HW1 3778   2.724   2.573   2.860 -0.0502 -0.7548  0.2192
  945SOL    HW2 3779   2.758   2.717   2.797  1.9454 -0.9114  0.0677
  945SOL     MW 3780   2.746   2.666   2.870  0.0622 -0.1190 -0.1690
  946SOL     OW 3781   2.469   2.705   2.221  0.1263 -0.1462 -0.7058
  946SOL    HW1 3782   2.490   2.760   2.148  0.2977 -2.7861  4.8336
  946SOL    HW2 3783   2.413   2.635   2.176  1.5115  1.0618 -0.4177
  946SOL     MW 3784   2.464   2.703   2.206  0.3316 -0.3351  0.0630
  947SOL     OW 3785   2.030   3.044   0.201 -0.1367  0.5733  0.5780
  947SOL    HW1 3786   1.975   2.960   0.211 -2.1275 -1.0544 -1.7635
  947SOL    HW2 3787   2.054   3.058   0.295  0.9240  1.8713 -0.0570
  947SOL     MW 3788   2.026   3.035   0.215 -0.2594  0.5298  0.1853
  948SOL     OW 3789   1.823   3.029   2.623  0.0913 -0.1579  0.0041
  948SOL    HW1 3790   1.883   2.953   2.620  0.2203 -0.2402  1.5449
  948SOL    HW2 3791   1.808   3.046   2.528  1.0566 -0.3497 -0.9778
  948SOL     MW 3792   1.829   3.021   2.610  0.2357 -0.1940  0.0778
  949SOL     OW 3793   2.525   1.893   2.198  0.3445 -0.2202 -0.0163
  949SOL    HW1 3794   2.516   1.815   2.256  0.7996 -0.3066  0.0486
  949SOL    HW2 3795   2.474   1.962   2.241  1.0089  0.0214  0.6985
  949SOL     MW 3796   2.517   1.892   2.211  0.4922 -0.1997  0.0866
  950SOL     OW 3797   2.267   2.439   2.952 -0.3459 -0.3078  0.2448
  950SOL    HW1 3798   2.303   2.405   2.873 -1.1359  0.8055 -0.3510
  950SOL    HW2 3799   2.201   2.502   2.917 -1.9240  1.2109 -0.1723
  950SOL     MW 3800   2.263   2.443   2.937 -0.6583  0.0394  0.1112
  951SOL     OW 3801   3.038   2.226   2.856  0.3534 -0.2103 -0.0477
  951SOL    HW1 3802   3.010   2.241   2.942 -0.1446  0.1131 -1.7271
  951SOL    HW2 3803   3.098   2.152   2.870  0.3886  1.2084 -0.3835
  951SOL     MW 3804   3.043   2.218   2.869  0.2923  0.0195 -0.3136
  952SOL     OW 3805   3.072   1.720   2.114  0.2088 -0.5928 -0.1459
  952SOL    HW1 3806   3.016   1.770   2.049 -1.8007  0.0014  0.3336
  952SOL    HW2 3807   3.152   1.775   2.123  0.2160 -0.7946 -2.8610
  952SOL     MW 3808   3.075   1.734   2.107 -0.0554 -0.5411 -0.4408
  953SOL     OW 3809   1.889   1.765   2.846 -0.5617 -0.1979 -0.5159
  953SOL    HW1 3810   1.837   1.731   2.922 -0.2995  1.2752 -0.8784
  953SOL    HW2 3811   1.930   1.688   2.808  1.5755  0.5188 -0.5601
  953SOL     MW 3812   1.888   1.751   2.851 -0.2451  0.0910 -0.5696
  954SOL     OW 3813   2.411   2.084   2.817  0.4528 -0.0456 -0.7473
  954SOL    HW1 3814   2.327   2.062   2.774 -0.4405  0.9734  0.2923
  954SOL    HW2 3815   2.484   2.050   2.757 -0.1296 -2.9332 -0.7576
  954SOL     MW 3816   2.409   2.077   2.803  0.2581 -0.2921 -0.6115
  955SOL     OW 3817   1.509   1.554   2.574 -0.6454 -0.1096 -0.6279
  955SOL    HW1 3818   1.466   1.551   2.497  0.5762 -0.7923  2.1529
  955SOL    HW2 3819   1.596   1.595   2.556 -0.6784 -0.4404  2.4443
  955SOL     MW 3820   1.515   1.559   2.561 -0.4886 -0.2433  0.1444
  956SOL     OW 3821   2.684   2.400   2.816  0.1414 -0.3661  0.1261
  956SOL    HW1 3822   2.702   2.359   2.902 -1.9269  2.7337  0.6439
  956SOL    HW2 3823   2.731   2.355   2.746  1.3679  3.4880  0.3674
  956SOL     MW 3824   2.692   2.389   2.818  0.0304  0.5514  0.2262
  957SOL     OW 3825   2.282   2.839   0.524  0.0765 -0.0192 -0.0183
  957SOL    HW1 3826   2.224   2.767   0.485  1.3554 -1.0360 -3.9575
  957SOL    HW2 3827   2.280   2.827   0.614 -0.6788  2.3630 -1.0017
  957SOL     MW 3828   2.274   2.828   0.531  0.1456  0.1609 -0.6678
  958SOL     OW 3829   2.054   2.592   2.838 -0.5066  0.6364 -0.2931
  958SOL    HW1 3830   2.004   2.538   2.780  2.6418  2.2550  0.5280
  958SOL    HW2 3831   2.013   2.576   2.924  1.2574  1.3531  0.2798
  958SOL     MW 3832   2.042   2.583   2.842  0.1416  0.9445 -0.1092
  959SOL     OW 3833   2.528   2.759   0.437 -0.5770 -0.1142  0.5574
  959SOL    HW1 3834   2.540   2.787   0.342  0.3607 -2.8568  1.0199
  959SOL    HW2 3835   2.451   2.805   0.467  0.3827  1.1452  0.7702
  959SOL     MW 3836   2.519   2.769   0.429 -0.3267 -0.3099  0.6465
  960SOL     OW 3837   1.879   2.373   2.322 -0.2831 -0.3979  0.1651
  960SOL    HW1 3838   1.909   2.279   2.321  1.1702 -1.5256 -3.8894
  960SOL    HW2 3839   1.816   2.382   2.395 -2.0899 -0.7572  2.9677
  960SOL     MW 3840   1.875   2.362   2.332 -0.3297 -0.5941 -0.0001
  961SOL     OW 3841   2.205   2.326   2.243 -0.2246 -0.3550  0.0871
  961SOL    HW1 3842   2.115   2.318   2.221  0.5573 -0.9767  0.8492
  961SOL    HW2 3843   2.186   2.352   2.339 -1.8157 -1.3495  0.5848
  961SOL     MW 3844   2.191   2.328   2.253 -0.3314 -0.5682  0.2533
  962SOL     OW 3845   2.153   2.035   2.765  0.0859 -0.0034  0.1258
  962SOL    HW1 3846   2.081   2.035   2.823  0.0433 -0.5144 -0.4536
  962SOL    HW2 3847   2.188   1.946   2.740 -2.3077  1.4193  0.3522
  962SOL     MW 3848   2.148   2.023   2.769 -0.2355  0.1169  0.0792
  963SOL     OW 3849   1.839   2.538   2.092 -0.1879  0.3305 -0.2795
  963SOL    HW1 3850   1.834   2.484   2.173 -0.7404  0.3224  0.2740
  963SOL    HW2 3851   1.867   2.476   2.026  0.9598  0.4104  2.0937
  963SOL     MW 3852   1.842   2.523   2.094 -0.1094  0.3400  0.1067
  964SOL     OW 3853   1.770   1.888   2.631 -0.2190  0.1475  0.3624
  964SOL    HW1 3854   1.813   1.968   2.609 -0.5373 -3.4394 -0.6280
  964SOL    HW2 3855   1.820   1.847   2.706  1.3115 -3.0263 -0.7609
  964SOL     MW 3856   1.782   1.893   2.638 -0.0591 -0.7445  0.0835
  965SOL     OW 3857   2.120   2.557   0.872 -0.2600  0.0909 -0.8820
  965SOL    HW1 3858   2.163   2.517   0.798  1.2242 -1.0124  0.4961
  965SOL    HW2 3859   2.154   2.644   0.880  2.5477 -1.7712  1.6477
  965SOL     MW 3860   2.130   2.563   0.864  0.3063 -0.3004 -0.3664
  966SOL     OW 3861   2.648   2.616   2.406 -0.2881  0.2083 -0.1198
  966SOL    HW1 3862   2.579   2.646   2.347  3.0272 -0.1856  0.0699
  966SOL    HW2 3863   2.668   2.521   2.396  1.2876  1.0553  0.4541
  966SOL     MW 3864   2.642   2.608   2.397  0.3572  0.2681 -0.0191
  967SOL     OW 3865   2.651   0.043   0.011 -0.4417 -0.1476 -0.1893
  967SOL    HW1 3866   2.643  -0.045  -0.028  1.9354  2.1316  2.6084
  967SOL    HW2 3867   2.628   0.087  -0.074  0.7189 -0.3691  0.0220
  967SOL     MW 3868   2.647   0.037  -0.006  0.0251  0.1239  0.2077
  968SOL     OW 3869   3.009   2.616   2.936 -0.2904 -0.7804 -0.1006
  968SOL    HW1 3870   2.922   2.659   2.931 -1.4618  1.0544  3.9215
  968SOL    HW2 3871   3.026   2.581   2.846  1.5286 -1.1272 -2.5573
  968SOL     MW 3872   3.000   2.617   2.923 -0.2049 -0.5841  0.1059
  969SOL     OW 3873   1.595   2.103   1.725  0.2855  0.6202  0.2900
  969SOL    HW1 3874   1.684   2.072   1.730 -1.0625  0.2671 -0.9046
  969SOL    HW2 3875   1.565   2.120   1.816  1.6627  0.3736 -2.1487
  969SOL     MW 3876   1.602   2.101   1.738  0.2894  0.5410 -0.1893
  970SOL     OW 3877   1.741   1.764   1.859 -0.3993 -0.3429 -0.2691
  970SOL    HW1 3878   1.791   1.699   1.910 -0.3935 -1.6429  0.1859
  970SOL    HW2 3879   1.652   1.767   1.889  0.7338  0.1834 -2.3422
  970SOL     MW 3880   1.736   1.756   1.870 -0.2490 -0.4450 -0.4826
  971SOL     OW 3881   1.775   3.098   2.358  0.2169 -0.3257 -0.1450
  971SOL    HW1 3882   1.824   3.056   2.281  2.2065  1.0377 -0.2294
  971SOL    HW2 3883   1.828   3.173   2.372 -2.3387 -1.0392  0.7084
  971SOL     MW 3884   1.788   3.102   2.350  0.1422 -0.2400 -0.0436
  972SOL     OW 3885   0.285   2.853   2.432 -0.2881  0.9601  0.3746
  972SOL    HW1 3886   0.344   2.785   2.455 -1.4327  0.9162 -0.9333
  972SOL    HW2 3887   0.323   2.938   2.459 -2.2607 -0.4529  0.5764
  972SOL     MW 3888   0.298   2.855   2.439 -0.6994  0.7679  0.2287
  973SOL     OW 3889   2.622   3.045   2.153 -0.0372  0.9713 -0.0871
  973SOL    HW1 3890   2.583   2.971   2.097 -1.3651  1.8356  0.5487
  973SOL    HW2 3891   2.682   3.095   2.100  0.4500 -1.9454  0.6572
  973SOL     MW 3892   2.625   3.042   2.138 -0.1481  0.7005  0.0950
  974SOL     OW 3893   2.007   0.149   2.608 -0.0850  0.3783 -0.1249
  974SOL    HW1 3894   2.079   0.140   2.676 -2.0847  0.6330 -0.2319
  974SOL    HW2 3895   1.951   0.071   2.619  0.3650 -0.6162 -2.1686
  974SOL     MW 3896   2.009   0.138   2.618 -0.2894  0.2807 -0.4087
  975SOL     OW 3897   2.158   2.439   2.494 -0.4080 -0.4805 -0.3810
  975SOL    HW1 3898   2.234   2.486   2.528  1.1983 -0.0845  1.1277
  975SOL    HW2 3899   2.092   2.499   2.461  1.4677  0.9149  0.0072
  975SOL     MW 3900   2.160   2.453   2.494  0.0514 -0.2442 -0.1307
  976SOL     OW 3901   0.159   0.353   1.604  0.0377  0.1107  0.1143
  976SOL    HW1 3902   0.207   0.275   1.634 -1.2200 -0.1363 -0.7615
  976SOL    HW2 3903   0.072   0.312   1.584  1.0830 -2.2614 -0.7336
  976SOL     MW 3904   0.154   0.337   1.605  0.0097 -0.2349 -0.1131
  977SOL     OW 3905   1.744   2.742   2.400 -0.7173  0.0016  0.5022
  977SOL    HW1 3906   1.834   2.703   2.400  2.5813  1.4441 -2.2819
  977SOL    HW2 3907   1.761   2.836   2.419  0.9942 -0.6007 -1.0839
  977SOL     MW 3908   1.758   2.750   2.403 -0.0563  0.1124 -0.0744
   3.10000   3.10000   3.10000
