977 TIP4P/2005f water molecules t=   0.62000 step= 620
 3908
    1SOL     OW    1   0.182   0.844   0.016 -0.4372 -0.0001 -0.1755
    1SOL    HW1    2   0.162   0.856  -0.073  0.4183 -1.4449 -1.0420
    1SOL    HW2    3   0.160   0.752   0.039 -1.5589 -2.8847 -1.8452
    1SOL     MW    4   0.176   0.833   0.008 -0.4723 -0.5713 -0.5101
    2SOL     OW    5   0.241   3.017   1.179 -0.4262 -0.2401  0.5190
    2SOL    HW1    6   0.290   3.085   1.134 -2.1143  1.6712 -0.7812
    2SOL    HW2    7   0.161   3.061   1.202 -1.3897 -1.1956 -1.6742
    2SOL     MW    8   0.237   3.032   1.176 -0.7761 -0.1140  0.0581
    3SOL     OW    9   2.672   0.409   0.920  0.0426 -0.0554  0.5297
    3SOL    HW1   10   2.715   0.488   0.884  1.0091  3.5558 -2.3832
    3SOL    HW2   11   2.652   0.432   1.010 -2.3567 -0.1376 -0.5605
    3SOL     MW   12   2.675   0.422   0.927 -0.1465  0.4102  0.0016
    4SOL     OW   13   3.031   1.741   0.597 -0.2605 -0.9032  0.2534
    4SOL    HW1   14   2.956   1.761   0.539  2.1443 -1.5072  0.0292
    4SOL    HW2   15   3.086   1.689   0.543 -1.0691  1.0190  0.8510
    4SOL     MW   16   3.028   1.737   0.582 -0.0499 -0.7293  0.3027
    5SOL     OW   17   1.732   1.511   0.545 -0.2937 -0.5381 -0.0767
    5SOL    HW1   18   1.775   1.457   0.614 -1.5149 -1.4160 -2.7578
    5SOL    HW2   19   1.639   1.501   0.550  0.4763 -0.9109  0.6130
    5SOL     MW   20   1.725   1.503   0.555 -0.3532 -0.7031 -0.3395
    6SOL     OW   21   0.859   1.372   0.692  0.2119  0.1559 -0.1818
    6SOL    HW1   22   0.766   1.382   0.681  1.5386 -0.6164 -0.5157
    6SOL    HW2   23   0.874   1.285   0.736 -0.4173 -0.3136 -2.0739
    6SOL     MW   24   0.849   1.362   0.696  0.3039 -0.0080 -0.4755
    7SOL     OW   25   2.008   1.157   0.015 -0.1154 -0.4059 -0.4665
    7SOL    HW1   26   2.087   1.176  -0.030  0.0907 -0.4527  2.5654
    7SOL    HW2   27   2.033   1.137   0.106 -3.5071  0.6297  2.1254
    7SOL     MW   28   2.022   1.157   0.021 -0.5357 -0.2754  0.2755
    8SOL     OW   29   0.953   1.349   1.017  0.0605 -0.3671 -0.0708
    8SOL    HW1   30   1.003   1.264   1.020  1.6543 -2.5274  0.4710
    8SOL    HW2   31   0.920   1.364   1.107  0.0580 -0.4064  0.7659
    8SOL     MW   32   0.955   1.340   1.029  0.2704 -0.6573  0.1111
    9SOL     OW   33   1.073   0.453   1.370 -0.5742 -0.3485 -0.5437
    9SOL    HW1   34   0.995   0.393   1.354 -1.1696 -1.6374 -1.2949
    9SOL    HW2   35   1.118   0.425   1.449  1.8321  2.1340 -1.8339
    9SOL     MW   36   1.068   0.442   1.378 -0.3352 -0.1910 -0.8130
   10SOL     OW   37   0.260   0.790   0.420  0.2324  0.2889 -0.2290
   10SOL    HW1   38   0.343   0.774   0.390 -2.1101  0.7941  2.5077
   10SOL    HW2   39   0.275   0.847   0.495  0.4998  0.1596  0.4229
   10SOL     MW   40   0.273   0.795   0.426 -0.0414  0.3385  0.2181
   11SOL     OW   41   0.782   1.155   1.683  0.2280 -0.7936  0.4551
   11SOL    HW1   42   0.837   1.120   1.748 -0.1503  3.2016 -1.2196
   11SOL    HW2   43   0.764   1.081   1.624  0.7524  3.2292  1.4150
   11SOL     MW   44   0.787   1.141   1.683  0.2473  0.2643  0.3608
   12SOL     OW   45   3.097   1.066   0.884  0.1210 -0.0259  0.2842
   12SOL    HW1   46   3.109   1.127   0.956 -2.6490  2.0713 -1.4323
   12SOL    HW2   47   3.036   1.113   0.822 -1.6227  4.7888  2.7571
   12SOL     MW   48   3.090   1.080   0.885 -0.4746  0.8860  0.3840
   13SOL     OW   49   1.835   1.415   1.325 -0.0872  0.2374  0.2237
   13SOL    HW1   50   1.868   1.359   1.253  0.7258 -2.7995 -1.3146
   13SOL    HW2   51   1.855   1.508   1.294  1.6622 -0.1732 -0.0924
   13SOL     MW   52   1.842   1.420   1.311  0.2509 -0.2175 -0.0209
   14SOL     OW   53   0.601   0.344   1.799  0.0640  0.4919  0.3004
   14SOL    HW1   54   0.580   0.259   1.761  2.2486  1.5036 -2.3898
   14SOL    HW2   55   0.687   0.330   1.831 -0.9504  2.6563 -0.6202
   14SOL     MW   56   0.609   0.331   1.799  0.2184  0.9110 -0.1760
   15SOL     OW   57   1.916   0.495   0.974  0.2659 -0.2572 -0.4369
   15SOL    HW1   58   1.916   0.530   1.068  1.4834  0.6639  0.7795
   15SOL    HW2   59   2.003   0.467   0.945  1.0484  2.3423 -0.8591
   15SOL     MW   60   1.928   0.496   0.983  0.5298  0.2073 -0.3321
   16SOL     OW   61   0.259   1.822   0.331 -0.2427  0.4738  0.1576
   16SOL    HW1   62   0.344   1.782   0.352 -0.0551 -0.3405  1.2076
   16SOL    HW2   63   0.256   1.897   0.391  2.7336  3.0969  0.0316
   16SOL     MW   64   0.270   1.826   0.342  0.1748  0.7125  0.2795
   17SOL     OW   65   1.023   0.870   1.495 -0.0053  0.6841  0.2671
   17SOL    HW1   66   1.053   0.829   1.575  2.0736  1.0286 -0.1743
   17SOL    HW2   67   0.931   0.862   1.503  0.5959 -0.1102  1.1417
   17SOL     MW   68   1.015   0.864   1.507  0.3483  0.6248  0.3242
   18SOL     OW   69   0.099   1.598   0.382  0.1711  0.3545 -0.5475
   18SOL    HW1   70   0.154   1.669   0.343 -0.7888  2.2244  0.1321
   18SOL    HW2   71   0.056   1.557   0.308  1.4988  0.2438  1.1362
   18SOL     MW   72   0.101   1.602   0.367  0.2196  0.5866 -0.2357
   19SOL     OW   73   0.078   1.299   1.004  0.1808  0.0403 -0.8748
   19SOL    HW1   74   0.124   1.352   0.939  0.0104  0.9955  1.2468
   19SOL    HW2   75  -0.015   1.335   1.009 -3.6607  0.5037  2.1800
   19SOL     MW   76   0.072   1.311   0.996 -0.3486  0.2275 -0.1918
   20SOL     OW   77   0.402   2.129   1.233  0.3201  0.1247 -0.8143
   20SOL    HW1   78   0.358   2.046   1.201 -1.7411  1.0682 -3.4643
   20SOL    HW2   79   0.350   2.169   1.309 -0.8744  2.6718  0.9582
   20SOL     MW   80   0.390   2.123   1.239 -0.1095  0.5853 -0.9301
   21SOL     OW   81   0.526   0.804   0.361  0.2513 -0.2981 -0.6716
   21SOL    HW1   82   0.609   0.801   0.408 -0.4337 -0.4440  1.5568
   21SOL    HW2   83   0.532   0.792   0.266 -0.8449  2.2330 -0.6483
   21SOL     MW   84   0.537   0.802   0.355  0.0163  0.0166 -0.3745
   22SOL     OW   85   1.493   0.558   1.097  0.0349  0.2475 -0.2152
   22SOL    HW1   86   1.551   0.521   1.030 -3.4926 -0.2847  1.8574
   22SOL    HW2   87   1.429   0.614   1.052  1.1618 -0.6918  0.2764
   22SOL     MW   88   1.492   0.561   1.082 -0.2818  0.0533  0.1232
   23SOL     OW   89  -0.002   0.774   0.649  0.6761  0.0298  0.2126
   23SOL    HW1   90   0.036   0.722   0.720  2.4142  0.1692  0.3265
   23SOL    HW2   91   0.059   0.846   0.644 -3.1446 -0.7269 -0.3284
   23SOL     MW   92   0.011   0.777   0.658  0.4013 -0.0516  0.1563
   24SOL     OW   93   2.014   2.213   0.109  0.2942  0.3775  0.0847
   24SOL    HW1   94   2.036   2.180   0.199  1.1510 -0.0165 -1.5657
   24SOL    HW2   95   2.036   2.141   0.043 -2.0602 -1.3695  0.4269
   24SOL     MW   96   2.020   2.199   0.112  0.0966  0.0950 -0.0879
   25SOL     OW   97   0.232   1.379   0.548 -1.0621 -0.5036  0.0615
   25SOL    HW1   98   0.192   1.454   0.499  2.0184  1.0782  0.4798
   25SOL    HW2   99   0.297   1.333   0.489  2.6161 -1.1834 -2.2574
   25SOL     MW  100   0.235   1.383   0.534 -0.1704 -0.3846 -0.1893
   26SOL     OW  101   2.009   0.933   0.438 -0.4470  0.6008 -0.8614
   26SOL    HW1  102   1.927   0.965   0.490 -0.8850 -0.5194  2.7693
   26SOL    HW2  103   2.032   0.995   0.367  1.8884 -1.9351 -0.8590
   26SOL     MW  104   2.001   0.945   0.436 -0.1967  0.1185 -0.3820
   27SOL     OW  105   2.059   1.397   0.228 -0.3400  0.2729 -0.2906
   27SOL    HW1  106   1.967   1.387   0.259 -1.2169  0.4396 -0.7155
   27SOL    HW2  107   2.099   1.457   0.289  1.4129 -2.1884  1.0080
   27SOL     MW  108   2.052   1.404   0.240 -0.2245 -0.0298 -0.1753
   28SOL     OW  109   0.406   1.091   1.982 -0.4371 -0.3759  0.6085
   28SOL    HW1  110   0.500   1.100   2.003 -1.2864 -0.8388  1.5204
   28SOL    HW2  111   0.373   1.024   2.042  4.3730 -0.8294  0.3717
   28SOL     MW  112   0.414   1.083   1.992  0.0855 -0.4968  0.6976
   29SOL     OW  113   0.255   1.442   0.822 -1.2770  0.3219 -0.1641
   29SOL    HW1  114   0.260   1.536   0.811  0.5284 -0.2786 -1.6701
   29SOL    HW2  115   0.239   1.406   0.736 -0.2183  0.7874 -1.0365
   29SOL     MW  116   0.254   1.450   0.809 -0.8992  0.3041 -0.4779
   30SOL     OW  117   0.836   1.165   1.224 -0.5283  0.2865 -0.1389
   30SOL    HW1  118   0.765   1.173   1.290  0.6517  1.4250  0.0262
   30SOL    HW2  119   0.917   1.144   1.277 -0.1479 -0.1146 -1.7410
   30SOL     MW  120   0.837   1.163   1.240 -0.3225  0.3838 -0.3285
   31SOL     OW  121   0.380   0.183   0.142 -0.0831 -0.0544  0.0735
   31SOL    HW1  122   0.390   0.129   0.218 -0.6012  2.1643  0.2181
   31SOL    HW2  123   0.378   0.125   0.066 -1.4296 -0.3235 -0.8582
   31SOL     MW  124   0.381   0.168   0.142 -0.3291  0.2028 -0.0303
   32SOL     OW  125   2.779   1.009   1.133  0.4474 -0.0858 -0.2395
   32SOL    HW1  126   2.719   0.939   1.113  0.2299 -0.4879  0.7206
   32SOL    HW2  127   2.866   0.974   1.105 -1.5896 -2.8709 -0.4342
   32SOL     MW  128   2.783   0.995   1.127  0.1499 -0.5064 -0.1385
   33SOL     OW  129   1.817   1.320   0.358  0.5092  0.0329 -0.1805
   33SOL    HW1  130   1.814   1.241   0.414  2.0944 -0.8925 -0.3426
   33SOL    HW2  131   1.793   1.386   0.426  3.4241 -0.4331  1.2717
   33SOL     MW  132   1.814   1.318   0.374  1.1029 -0.1507 -0.0103
   34SOL     OW  133   1.222   1.871   1.105  0.4746 -0.0652 -0.3044
   34SOL    HW1  134   1.134   1.921   1.112  1.7116  0.2898 -1.2142
   34SOL    HW2  135   1.273   1.898   1.180 -0.0548 -0.9448  1.0125
   34SOL     MW  136   1.217   1.881   1.116  0.5680 -0.1344 -0.2507
   35SOL     OW  137   0.368   0.135   1.865  0.3508  0.3130  0.3323
   35SOL    HW1  138   0.354   0.080   1.941  0.5114  0.0500 -2.1832
   35SOL    HW2  139   0.395   0.067   1.798  1.4253  1.5691  1.5470
   35SOL     MW  140   0.370   0.119   1.866  0.5138  0.4440  0.1607
   36SOL     OW  141   1.838   1.924   0.492  0.0389  0.3355  0.3407
   36SOL    HW1  142   1.855   1.916   0.403 -1.5199  0.5224  0.2625
   36SOL    HW2  143   1.867   1.846   0.541  0.7225 -0.0035  1.0826
   36SOL     MW  144   1.844   1.912   0.486 -0.0766  0.3154  0.4283
   37SOL     OW  145   1.764   1.995   1.069 -0.1192 -0.2593  0.1200
   37SOL    HW1  146   1.723   1.962   0.987 -2.3713 -3.2332 -0.8245
   37SOL    HW2  147   1.682   2.016   1.115  1.0327 -0.3017 -0.5349
   37SOL     MW  148   1.748   1.993   1.064 -0.2644 -0.6573 -0.0910
   38SOL     OW  149   2.840   0.904   0.153 -0.2123 -0.4023 -0.3463
   38SOL    HW1  150   2.895   0.908   0.235  1.8799 -1.9371 -1.3630
   38SOL    HW2  151   2.901   0.879   0.083 -1.3547 -3.2692 -1.2327
   38SOL     MW  152   2.856   0.901   0.155 -0.0870 -0.9830 -0.5974
   39SOL     OW  153   1.392   0.634   0.790  0.1798  0.4556 -0.2995
   39SOL    HW1  154   1.409   0.538   0.795 -1.3601 -1.6318 -1.4928
   39SOL    HW2  155   1.297   0.641   0.798  1.7944  1.3839 -0.9549
   39SOL     MW  156   1.382   0.622   0.792  0.1897  0.3027 -0.5434
   40SOL     OW  157   1.189   1.890   0.241 -0.0681  0.2252 -0.7479
   40SOL    HW1  158   1.231   1.822   0.294 -0.2818  0.3851 -0.3285
   40SOL    HW2  159   1.176   1.967   0.300 -0.7606 -0.4505  0.8476
   40SOL     MW  160   1.193   1.891   0.256 -0.1877  0.1571 -0.4821
   41SOL     OW  161   0.613   0.464   1.550  0.2869 -0.2047 -0.0608
   41SOL    HW1  162   0.704   0.490   1.547  0.6008 -0.1009  0.0962
   41SOL    HW2  163   0.598   0.413   1.635 -0.5287  1.1091 -0.1083
   41SOL     MW  164   0.623   0.461   1.561  0.2207 -0.0176 -0.0464
   42SOL     OW  165   1.254   3.003   2.022 -0.1256  0.1578  0.3254
   42SOL    HW1  166   1.169   2.973   2.049  0.7746 -3.0953 -0.2678
   42SOL    HW2  167   1.313   2.929   2.017 -0.7084  2.4217 -2.1016
   42SOL     MW  168   1.251   2.990   2.025 -0.0837  0.0273 -0.0731
   43SOL     OW  169   1.549   0.136   1.759  0.2043 -0.3589  0.2367
   43SOL    HW1  170   1.616   0.090   1.711  2.0473  1.9328  0.6413
   43SOL    HW2  171   1.455   0.114   1.743  0.7150  0.0294  3.0460
   43SOL     MW  172   1.545   0.127   1.751  0.5149 -0.0053  0.6607
   44SOL     OW  173   1.254   0.753   1.104  0.3837  0.4611  0.3560
   44SOL    HW1  174   1.228   0.845   1.080 -0.2101 -0.7062  1.2516
   44SOL    HW2  175   1.234   0.740   1.200  0.0314 -1.1961  1.2160
   44SOL     MW  176   1.248   0.763   1.114  0.2589  0.0885  0.5876
   45SOL     OW  177   1.131   0.705   0.758 -0.1103 -0.1719 -0.1016
   45SOL    HW1  178   1.085   0.664   0.826  0.6341 -0.8130  1.2893
   45SOL    HW2  179   1.113   0.664   0.675  2.1150 -0.0484 -0.1405
   45SOL     MW  180   1.123   0.694   0.756  0.2815 -0.2402  0.0768
   46SOL     OW  181   0.554   1.198   0.546  0.4850 -0.4555  0.0839
   46SOL    HW1  182   0.543   1.202   0.456  1.6494  0.7368  2.4759
   46SOL    HW2  183   0.629   1.142   0.559  0.5315  0.6026 -0.6899
   46SOL     MW  184   0.563   1.191   0.536  0.6448 -0.1586  0.2974
   47SOL     OW  185   0.165   1.934   1.787  0.1365 -0.5826  0.1907
   47SOL    HW1  186   0.219   1.858   1.753 -2.0056  1.1339  2.4350
   47SOL    HW2  187   0.153   1.920   1.886 -0.7099 -0.6697 -0.4430
   47SOL     MW  188   0.170   1.922   1.796 -0.2578 -0.3676  0.4032
   48SOL     OW  189   1.051   0.583   0.999 -0.1174 -0.2877 -0.9344
   48SOL    HW1  190   0.977   0.528   1.036  0.5035 -0.7482 -0.5786
   48SOL    HW2  191   1.090   0.627   1.073  1.8666 -0.0661 -2.4323
   48SOL     MW  192   1.046   0.581   1.014  0.2263 -0.3192 -1.0851
   49SOL     OW  193   1.808   0.762   1.553  0.3018  0.0504  0.5355
   49SOL    HW1  194   1.768   0.737   1.641 -0.6322 -0.6105 -0.6127
   49SOL    HW2  195   1.832   0.670   1.528  1.5763 -2.0318  0.5816
   49SOL     MW  196   1.806   0.746   1.561  0.3467 -0.3116  0.3901
   50SOL     OW  197   1.171   1.049   0.504 -0.1492 -0.1696  0.3075
   50SOL    HW1  198   1.156   1.076   0.594  0.6907  2.3270 -1.5695
   50SOL    HW2  199   1.242   0.987   0.519 -0.9359  0.8840  1.0926
   50SOL     MW  200   1.178   1.044   0.518 -0.1422  0.2988  0.1634
   51SOL     OW  201   0.329   2.891   0.926 -0.6526 -0.2371  0.0533
   51SOL    HW1  202   0.412   2.852   0.945 -0.0425  0.6507  0.1329
   51SOL    HW2  203   0.296   2.919   1.010  3.7578  1.8154  0.8097
   51SOL     MW  204   0.336   2.890   0.940  0.0098  0.1509  0.1636
   52SOL     OW  205   0.802   1.812   0.437 -0.4346  0.1921  0.8507
   52SOL    HW1  206   0.762   1.893   0.461 -1.7061 -1.1741  0.1824
   52SOL    HW2  207   0.773   1.795   0.349 -3.3583  3.8744  0.0783
   52SOL     MW  208   0.793   1.820   0.428 -0.9881  0.4977  0.6606
   53SOL     OW  209   0.482   2.151   0.638 -0.5599  0.2797  1.0648
   53SOL    HW1  210   0.414   2.122   0.580  5.2958  0.0797 -1.6193
   53SOL    HW2  211   0.491   2.246   0.610  0.4032 -1.8494 -2.2959
   53SOL     MW  212   0.474   2.159   0.626  0.3398 -0.0276  0.2672
   54SOL     OW  213   2.165   0.856   0.858 -0.3823  0.0662  0.5825
   54SOL    HW1  214   2.169   0.912   0.776 -3.0164  1.8882  2.2945
   54SOL    HW2  215   2.068   0.826   0.858 -0.1194 -2.3628  4.0197
   54SOL     MW  216   2.153   0.859   0.847 -0.6952 -0.0139  1.2619
   55SOL     OW  217   0.579   1.517   1.595  0.2325  0.6356  0.1433
   55SOL    HW1  218   0.511   1.530   1.527  1.2181  0.7782 -1.5301
   55SOL    HW2  219   0.643   1.460   1.557  2.6438  1.2573 -1.5949
   55SOL     MW  220   0.578   1.511   1.581  0.6807  0.7364 -0.3068
   56SOL     OW  221   0.532   0.776   0.094 -0.4397  0.4080  0.1217
   56SOL    HW1  222   0.560   0.844   0.032  2.3261  2.6623  0.3443
   56SOL    HW2  223   0.447   0.755   0.065  1.7689 -0.4685 -2.3940
   56SOL     MW  224   0.524   0.782   0.082  0.2167  0.5898 -0.1808
   57SOL     OW  225   1.241   1.221   1.158 -0.1993 -0.1165 -0.9917
   57SOL    HW1  226   1.327   1.248   1.114 -0.8628  1.4495  0.7990
   57SOL    HW2  227   1.260   1.197   1.250 -2.3850 -3.1308  0.3627
   57SOL     MW  228   1.255   1.221   1.164 -0.5752 -0.3076 -0.5768
   58SOL     OW  229   0.554   1.168   1.313 -0.1226  0.3178 -0.1151
   58SOL    HW1  230   0.532   1.259   1.286 -0.6565  0.3267 -0.0263
   58SOL    HW2  231   0.545   1.172   1.414 -0.6446  1.2930  1.3465
   58SOL     MW  232   0.550   1.180   1.323 -0.2619  0.4477  0.0895
   59SOL     OW  233   1.533   1.673   0.344 -0.4803  0.0992 -0.4552
   59SOL    HW1  234   1.551   1.743   0.407  1.2725  4.1615 -0.6266
   59SOL    HW2  235   1.438   1.676   0.344 -1.6382  1.1565 -2.1253
   59SOL     MW  236   1.523   1.683   0.352 -0.4018  0.7747 -0.6981
   60SOL     OW  237   0.074   0.178   1.674 -0.3731 -0.8489 -0.3396
   60SOL    HW1  238  -0.013   0.215   1.645 -2.2092  0.8817 -1.7974
   60SOL    HW2  239   0.055   0.127   1.752 -0.9888 -0.5917  1.3305
   60SOL     MW  240   0.060   0.176   1.680 -0.6966 -0.5866 -0.3116
   61SOL     OW  241   2.055   1.457   3.044  0.4145 -0.0064 -0.6226
   61SOL    HW1  242   2.052   1.448   3.143 -1.6295  0.7979 -0.3270
   61SOL    HW2  243   2.109   1.382   3.014 -0.9101 -0.5944  2.9337
   61SOL     MW  244   2.062   1.446   3.053 -0.0299  0.0221 -0.1144
   62SOL     OW  245   0.621   1.711   0.626  0.0468 -0.0199  0.0679
   62SOL    HW1  246   0.696   1.727   0.565  3.4651  0.3897 -2.8838
   62SOL    HW2  247   0.612   1.611   0.632  0.6207 -0.9677 -0.2731
   62SOL     MW  248   0.629   1.700   0.619  0.5736 -0.0909 -0.3665
   63SOL     OW  249   1.651   0.726   0.713  0.2142 -0.3544  0.2743
   63SOL    HW1  250   1.632   0.798   0.651  0.3590  1.5856  0.4506
   63SOL    HW2  251   1.568   0.693   0.747  0.8125 -1.0793 -0.0880
   63SOL     MW  252   1.638   0.731   0.709  0.3122 -0.1941  0.2497
   64SOL     OW  253   0.275   1.708   0.720  0.1947  0.2354  0.0581
   64SOL    HW1  254   0.347   1.771   0.737 -0.9275  1.3927  2.0353
   64SOL    HW2  255   0.187   1.755   0.723  1.6153 -0.8797  0.6067
   64SOL     MW  256   0.273   1.723   0.723  0.2341  0.2410  0.3913
   65SOL     OW  257   1.550   2.350   0.373  0.1955  0.2059  0.3166
   65SOL    HW1  258   1.640   2.325   0.388  0.2548 -0.1083  0.7255
   65SOL    HW2  259   1.533   2.396   0.462 -1.8682 -0.5583 -0.5512
   65SOL     MW  260   1.560   2.353   0.387 -0.0690  0.0636  0.2560
   66SOL     OW  261   0.296   0.556   0.554 -0.1254  0.2418  0.6342
   66SOL    HW1  262   0.350   0.500   0.499 -1.5952 -0.9557  3.6197
   66SOL    HW2  263   0.278   0.634   0.499 -1.1893  1.6494  1.7968
   66SOL     MW  264   0.301   0.559   0.539 -0.4597  0.2695  1.1815
   67SOL     OW  265   1.433   0.096   2.024 -0.0976 -0.1210 -0.3156
   67SOL    HW1  266   1.484   0.079   1.944  0.6872  0.4074  0.2590
   67SOL    HW2  267   1.372   0.023   2.038  0.7559  1.5689  1.1070
   67SOL     MW  268   1.431   0.084   2.015  0.1186  0.1716 -0.0521
   68SOL     OW  269   0.633   0.099   2.959  0.0331 -0.1029 -0.6571
   68SOL    HW1  270   0.616   0.145   2.875  0.9935  0.0484  0.0008
   68SOL    HW2  271   0.702   0.136   3.008  2.4411 -0.4219 -2.5157
   68SOL     MW  272   0.640   0.110   2.954  0.4775 -0.1250 -0.8155
   69SOL     OW  273   1.008   0.176   1.988 -0.5918 -0.2006 -0.2564
   69SOL    HW1  274   1.096   0.215   2.001  1.6783 -0.3347  0.5223
   69SOL    HW2  275   1.009   0.082   2.022 -0.4091 -1.8117  1.0117
   69SOL     MW  276   1.019   0.169   1.994 -0.2682 -0.4308  0.0137
   70SOL     OW  277   0.522   1.730   1.130 -0.3766 -0.0897  0.3159
   70SOL    HW1  278   0.558   1.661   1.183 -1.7145 -1.1073 -0.7969
   70SOL    HW2  279   0.588   1.741   1.055 -2.3946  0.5030 -2.5372
   70SOL     MW  280   0.535   1.722   1.127 -0.8194 -0.1458 -0.2074
   71SOL     OW  281   1.673   0.555   1.350 -0.8463 -0.3201 -0.1862
   71SOL    HW1  282   1.637   0.611   1.419 -1.5840 -1.8645  0.4057
   71SOL    HW2  283   1.627   0.581   1.268 -0.6821 -0.0257 -1.6812
   71SOL     MW  284   1.662   0.566   1.348 -0.9219 -0.4850 -0.3054
   72SOL     OW  285   0.787   1.771   0.967  0.1433  0.2349  0.3339
   72SOL    HW1  286   0.764   1.816   0.883 -2.0184  0.4996  1.5625
   72SOL    HW2  287   0.776   1.676   0.957 -0.7419 -0.4097  0.8435
   72SOL     MW  288   0.783   1.764   0.954 -0.2587  0.1848  0.5632
   73SOL     OW  289   1.185   0.705   1.358  0.0993  0.1649 -0.2875
   73SOL    HW1  290   1.142   0.621   1.373 -0.0845  0.0224 -0.1235
   73SOL    HW2  291   1.119   0.772   1.383  2.0852  1.2565  0.2790
   73SOL     MW  292   1.171   0.703   1.363  0.3370  0.2901 -0.1911
   74SOL     OW  293   2.855   0.179   0.952 -0.8508 -0.1794 -0.1142
   74SOL    HW1  294   2.833   0.127   0.874  1.5904  1.2744 -0.0876
   74SOL    HW2  295   2.804   0.259   0.947  0.1863  1.8077  0.6601
   74SOL     MW  296   2.846   0.183   0.941 -0.3919  0.2746 -0.0086
   75SOL     OW  297   1.668   1.385   0.130  0.2347  0.1153 -0.5100
   75SOL    HW1  298   1.719   1.389   0.211  2.2953 -0.3434 -0.0411
   75SOL    HW2  299   1.698   1.296   0.097  0.3168 -2.8182 -2.0991
   75SOL     MW  300   1.679   1.374   0.136  0.5174 -0.3323 -0.6578
   76SOL     OW  301   3.003   0.620   0.429 -0.6214  0.0195 -0.4903
   76SOL    HW1  302   3.052   0.660   0.503 -0.8864  1.0729  0.6625
   76SOL    HW2  303   3.055   0.550   0.393 -1.3213 -0.4134  2.9283
   76SOL     MW  304   3.017   0.616   0.434 -0.7487  0.1014  0.1128
   77SOL     OW  305   0.828   0.528   0.406  0.5245  0.3579  0.4783
   77SOL    HW1  306   0.782   0.536   0.319  1.1784 -1.2845  1.6060
   77SOL    HW2  307   0.784   0.455   0.451  3.3381 -2.5489  0.4584
   77SOL     MW  308   0.816   0.519   0.400  0.9820 -0.2423  0.6245
   78SOL     OW  309   0.753   0.867   1.262  0.0366  0.6482  0.5895
   78SOL    HW1  310   0.707   0.877   1.180  0.1152  2.8922 -2.5789
   78SOL    HW2  311   0.841   0.861   1.236 -0.0921 -1.3192 -1.0587
   78SOL     MW  312   0.758   0.868   1.247  0.0300  0.6847 -0.0460
   79SOL     OW  313   1.905   1.699   0.624 -0.0230  0.5243  0.4165
   79SOL    HW1  314   1.823   1.651   0.606 -1.3166  0.2245 -1.0614
   79SOL    HW2  315   1.903   1.710   0.715  0.4727  2.6752 -3.9296
   79SOL     MW  316   1.894   1.694   0.634 -0.1283  0.7685 -0.3519
   80SOL     OW  317   0.108   0.999   0.309 -0.3449 -0.2049 -0.4004
   80SOL    HW1  318   0.016   0.957   0.319 -1.7913 -0.6313  1.1413
   80SOL    HW2  319   0.166   0.928   0.345  0.9052  0.9339  0.9323
   80SOL     MW  320   0.104   0.984   0.315 -0.3708 -0.1109 -0.0212
   81SOL     OW  321   1.910   1.913   0.209  0.3092  0.2557  0.6009
   81SOL    HW1  322   1.850   1.836   0.188 -0.2313 -1.7156 -1.6607
   81SOL    HW2  323   1.852   1.990   0.199 -0.3667 -3.3332 -1.3823
   81SOL     MW  324   1.894   1.913   0.205  0.1487 -0.4779  0.0408
   82SOL     OW  325   0.814   1.094   0.528 -0.4947  0.1436  0.2332
   82SOL    HW1  326   0.828   1.138   0.447 -0.2129  0.9149  0.3610
   82SOL    HW2  327   0.821   1.008   0.506  1.3378  1.7886  2.1099
   82SOL     MW  328   0.816   1.088   0.514 -0.2157  0.4624  0.4977
   83SOL     OW  329   0.186   0.608   1.316 -0.2925 -0.6840  0.5973
   83SOL    HW1  330   0.162   0.704   1.301 -1.4543  0.0523 -0.2083
   83SOL    HW2  331   0.244   0.594   1.393 -1.1680  1.6276  2.7799
   83SOL     MW  332   0.191   0.619   1.324 -0.5613 -0.2819  0.7790
   84SOL     OW  333   0.094   0.215   0.898  0.1106  0.4157  0.0465
   84SOL    HW1  334   0.014   0.229   0.851 -1.0105 -1.2398 -1.7818
   84SOL    HW2  335   0.067   0.158   0.972  0.2527 -0.4314 -0.7091
   84SOL     MW  336   0.080   0.209   0.902 -0.0185  0.0855 -0.2944
   85SOL     OW  337   0.484   0.441   0.762  0.0957 -0.0844  0.1449
   85SOL    HW1  338   0.440   0.496   0.692 -1.8410 -1.2682 -2.1513
   85SOL    HW2  339   0.442   0.356   0.766  4.0099  1.0397  2.6468
   85SOL     MW  340   0.473   0.437   0.753  0.3566 -0.0923  0.1720
   86SOL     OW  341   1.215   0.372   1.082 -0.0119 -0.4507  0.3178
   86SOL    HW1  342   1.155   0.445   1.064  0.8685 -1.8223 -0.1565
   86SOL    HW2  343   1.247   0.380   1.169 -0.2486  0.4026  1.1831
   86SOL     MW  344   1.211   0.383   1.091  0.0730 -0.5191  0.3694
   87SOL     OW  345   1.145   1.457   1.244 -0.1615 -0.3305  0.1292
   87SOL    HW1  346   1.180   1.522   1.175  0.3446  1.7867  0.5783
   87SOL    HW2  347   1.174   1.365   1.209  1.0499 -0.1087 -3.1529
   87SOL     MW  348   1.154   1.453   1.230  0.0651 -0.0219 -0.2446
   88SOL     OW  349   1.213   1.007   0.988 -0.2069 -0.1245 -0.0868
   88SOL    HW1  350   1.308   1.011   0.973  1.0894  1.4300 -0.6578
   88SOL    HW2  351   1.208   1.070   1.066 -2.1061 -1.8456  0.3470
   88SOL     MW  352   1.224   1.016   0.997 -0.2864 -0.1465 -0.1049
   89SOL     OW  353   1.755   0.679   0.299  0.2875  0.2644  0.6739
   89SOL    HW1  354   1.800   0.595   0.330  0.9021  0.4003  0.4178
   89SOL    HW2  355   1.811   0.703   0.223 -0.7325 -3.1145 -1.8799
   89SOL     MW  356   1.768   0.671   0.293  0.2340 -0.1635  0.3032
   90SOL     OW  357   0.683   1.168   2.817 -0.6681  0.1125 -0.6204
   90SOL    HW1  358   0.728   1.089   2.843  1.5887 -0.8552  0.3450
   90SOL    HW2  359   0.680   1.218   2.905  1.4091 -3.6843  1.7067
   90SOL     MW  360   0.688   1.164   2.832 -0.0962 -0.5162 -0.1860
   91SOL     OW  361   2.211   0.652   0.533 -0.6186 -0.3048 -0.4864
   91SOL    HW1  362   2.231   0.717   0.464 -0.2711 -1.2243  0.4329
   91SOL    HW2  363   2.214   0.572   0.480  1.2643  0.7325 -1.0144
   91SOL     MW  364   2.214   0.650   0.517 -0.3243 -0.2892 -0.4348
   92SOL     OW  365   1.635   0.887   0.486  0.1357 -0.7834  0.3036
   92SOL    HW1  366   1.538   0.898   0.516 -1.2251 -0.0520  1.0822
   92SOL    HW2  367   1.657   0.794   0.466 -1.4845 -1.2997  0.6947
   92SOL     MW  368   1.625   0.877   0.488 -0.2576 -0.7550  0.4579
   93SOL     OW  369   1.013   0.319   0.373 -0.5023  0.3233  0.3343
   93SOL    HW1  370   0.961   0.394   0.343  1.9642  3.6350  0.8174
   93SOL    HW2  371   1.067   0.289   0.298 -0.5558 -0.6882 -1.6598
   93SOL     MW  372   1.014   0.325   0.359 -0.1839  0.6268  0.1349
   94SOL     OW  373   1.892   1.362   1.603 -0.4668  0.2379  0.2101
   94SOL    HW1  374   1.889   1.376   1.510  0.5389  0.8937  1.6830
   94SOL    HW2  375   1.851   1.279   1.616 -0.3008 -1.6825  3.1397
   94SOL     MW  376   1.887   1.353   1.592 -0.3122  0.0711  0.7910
   95SOL     OW  377   0.708   1.502   0.990  0.1489 -0.1387  0.1051
   95SOL    HW1  378   0.792   1.454   0.970 -0.0193  1.5784  0.4467
   95SOL    HW2  379   0.639   1.441   0.964 -1.2954  3.0217 -2.2367
   95SOL     MW  380   0.710   1.488   0.984 -0.0639  0.5048 -0.1588
   96SOL     OW  381   1.230   1.812   1.581 -0.0216  1.0131  0.6191
   96SOL    HW1  382   1.142   1.789   1.618  4.4871  0.6936  1.1375
   96SOL    HW2  383   1.263   1.735   1.543  0.0418 -1.2725  3.4025
   96SOL     MW  384   1.222   1.799   1.580  0.5817  0.6693  1.0548
   97SOL     OW  385   1.254   1.468   0.816  0.6540 -0.2009  0.6740
   97SOL    HW1  386   1.240   1.511   0.899  1.5468 -1.0790  0.4959
   97SOL    HW2  387   1.172   1.493   0.768 -1.3452  0.1525  0.5767
   97SOL     MW  388   1.241   1.477   0.821  0.5080 -0.2701  0.6377
   98SOL     OW  389   1.482   1.309   1.055 -0.0524  0.2562  0.1479
   98SOL    HW1  390   1.483   1.371   1.123 -0.7259 -0.7581 -2.5219
   98SOL    HW2  391   1.519   1.348   0.977 -0.3258  0.0389 -0.0799
   98SOL     MW  392   1.487   1.322   1.053 -0.1774  0.0937 -0.2344
   99SOL     OW  393   1.406   0.383   1.317 -0.4515 -0.0597  0.5785
   99SOL    HW1  394   1.459   0.442   1.261 -1.8553  1.5587  0.8799
   99SOL    HW2  395   1.412   0.411   1.409 -1.6181 -1.1673 -0.5284
   99SOL     MW  396   1.414   0.394   1.321 -0.7906  0.0077  0.4723
  100SOL     OW  397   1.042   1.136   1.424 -0.2283  0.4668 -0.7672
  100SOL    HW1  398   1.066   1.195   1.497 -0.4075  0.0559 -0.2923
  100SOL    HW2  399   1.025   1.050   1.467  2.9184 -1.8299  1.4235
  100SOL     MW  400   1.043   1.132   1.440  0.1633  0.1095 -0.4155
  101SOL     OW  401   0.547   1.071   0.267 -0.3640  0.2969  0.0638
  101SOL    HW1  402   0.528   0.980   0.293  3.2958  1.1895  0.5861
  101SOL    HW2  403   0.518   1.076   0.174  1.5137 -2.9731  3.1744
  101SOL     MW  404   0.540   1.060   0.258  0.3666 -0.0168  0.5431
  102SOL     OW  405   2.950   0.643   0.954  0.1453 -0.1585  0.7593
  102SOL    HW1  406   2.978   0.737   0.980 -1.3891 -0.1130  0.9685
  102SOL    HW2  407   3.004   0.580   1.011 -0.1773 -1.8484  0.1209
  102SOL     MW  408   2.961   0.647   0.965 -0.0997 -0.3755  0.7027
  103SOL     OW  409   1.746   0.385   1.840  0.6416 -0.0583 -0.0785
  103SOL    HW1  410   1.691   0.317   1.811  1.9707  2.3837  1.0968
  103SOL    HW2  411   1.810   0.349   1.905 -1.9445  0.1581 -1.5229
  103SOL     MW  412   1.747   0.371   1.845  0.4758  0.2925 -0.1140
  104SOL     OW  413   0.160   1.780   1.514 -0.2523 -0.5231 -0.0188
  104SOL    HW1  414   0.096   1.724   1.539  4.2022  1.6082  2.0898
  104SOL    HW2  415   0.205   1.715   1.461 -2.5389 -1.2932 -1.7984
  104SOL     MW  416   0.157   1.764   1.510  0.0337 -0.3435  0.0246
  105SOL     OW  417   0.029   1.164   0.494  0.0655 -0.7730 -0.8081
  105SOL    HW1  418   0.080   1.113   0.430  1.9570 -0.5739  2.1987
  105SOL    HW2  419   0.088   1.229   0.530 -2.0918 -0.5226  3.1828
  105SOL     MW  420   0.044   1.166   0.490  0.0304 -0.7137  0.1152
  106SOL     OW  421   0.866   0.388   1.016  0.3666  0.1465  0.3788
  106SOL    HW1  422   0.793   0.449   0.991 -2.1293  0.1089  1.6101
  106SOL    HW2  423   0.908   0.359   0.936  1.3068 -0.2294  0.2097
  106SOL     MW  424   0.861   0.392   1.002  0.1613  0.0919  0.5189
  107SOL     OW  425   0.794   2.154   2.996 -0.5388  0.0465  0.4328
  107SOL    HW1  426   0.716   2.105   2.973  0.9041  0.6983  0.1368
  107SOL    HW2  427   0.798   2.184   3.086 -2.7710 -1.0124  0.5089
  107SOL     MW  428   0.784   2.152   3.005 -0.6429 -0.0072  0.4038
  108SOL     OW  429   1.340   1.566   1.485 -0.0862 -0.8812  0.3784
  108SOL    HW1  430   1.292   1.508   1.428  1.3358  0.9354  1.2608
  108SOL    HW2  431   1.391   1.507   1.546  1.5211 -2.4751  1.6507
  108SOL     MW  432   1.340   1.551   1.485  0.3135 -0.8518  0.6627
  109SOL     OW  433   2.000   0.751   0.187  0.0958  0.4621 -0.5328
  109SOL    HW1  434   2.043   0.815   0.139 -1.9003  0.5564  2.2298
  109SOL    HW2  435   2.015   0.780   0.277 -0.9529 -4.2519  0.3291
  109SOL     MW  436   2.007   0.764   0.192 -0.3059 -0.1474 -0.0546
  110SOL     OW  437   0.483   1.902   0.773 -0.6454  0.4654  0.4162
  110SOL    HW1  438   0.537   1.837   0.719 -1.8652  1.9393 -0.7267
  110SOL    HW2  439   0.529   1.989   0.764 -3.2754 -1.9217 -2.1274
  110SOL     MW  440   0.496   1.905   0.765 -1.1533  0.3449 -0.0702
  111SOL     OW  441   0.757   0.934   1.527  0.1734  0.6121  0.4596
  111SOL    HW1  442   0.753   0.912   1.432  1.0387  1.0162  0.3260
  111SOL    HW2  443   0.677   0.894   1.565  0.8733  1.2470  0.8201
  111SOL     MW  444   0.746   0.926   1.520  0.3799  0.7492  0.4895
  112SOL     OW  445   1.318   1.073   1.634  0.7728 -0.1385 -1.3675
  112SOL    HW1  446   1.256   1.142   1.657  0.6892  0.8676  0.1841
  112SOL    HW2  447   1.261   1.000   1.619  0.3592  0.5196  0.3570
  112SOL     MW  448   1.302   1.073   1.635  0.7072  0.0811 -0.9352
  113SOL     OW  449   1.273   0.019   1.754 -0.4299  0.4556 -0.3668
  113SOL    HW1  450   1.257  -0.028   1.835  0.8349  1.0174 -0.7519
  113SOL    HW2  451   1.264  -0.044   1.678 -2.2754  1.7220 -0.1074
  113SOL     MW  452   1.269   0.004   1.754 -0.5065  0.6968 -0.3834
  114SOL     OW  453   0.431   2.846   1.938 -0.7134  0.1772  0.1024
  114SOL    HW1  454   0.419   2.892   2.020 -0.4787  0.1670 -0.1588
  114SOL    HW2  455   0.420   2.902   1.861 -1.2202  0.1693 -3.2014
  114SOL     MW  456   0.428   2.859   1.939 -0.7493  0.1748 -0.3680
  115SOL     OW  457   0.479   0.825   1.107  0.2617  0.2209 -0.2021
  115SOL    HW1  458   0.500   0.732   1.115 -2.5086 -0.2020 -2.3147
  115SOL    HW2  459   0.438   0.856   1.189 -2.4646 -2.5090 -1.0401
  115SOL     MW  460   0.476   0.817   1.118 -0.4635 -0.1951 -0.5914
  116SOL     OW  461   0.776   0.993   0.998  0.0863  0.0578 -0.0851
  116SOL    HW1  462   0.809   1.040   0.917  2.6392  1.0944 -1.1197
  116SOL    HW2  463   0.796   1.062   1.064  3.7285  1.1936  0.8030
  116SOL     MW  464   0.783   1.008   0.996  0.9037  0.3444 -0.1044
  117SOL     OW  465   1.188   1.182   0.765 -0.4288  0.5141 -0.8710
  117SOL    HW1  466   1.197   1.111   0.830 -1.4962  2.2774 -1.5786
  117SOL    HW2  467   1.243   1.252   0.802  2.4143  0.1525  2.4911
  117SOL     MW  468   1.197   1.182   0.778 -0.1945  0.6991 -0.5208
  118SOL     OW  469   3.028   2.908   1.696 -0.2272  0.5811 -0.0153
  118SOL    HW1  470   3.074   2.962   1.761  1.9582 -2.2007  2.1880
  118SOL    HW2  471   2.940   2.945   1.700  2.9970 -0.1911  0.5790
  118SOL     MW  472   3.022   2.920   1.705  0.4866  0.1122  0.3538
  119SOL     OW  473   0.465   1.422   1.218 -0.5753  0.1343  0.3270
  119SOL    HW1  474   0.500   1.420   1.127  0.2392 -0.8883 -0.7561
  119SOL    HW2  475   0.376   1.395   1.215  2.3678  0.8896  0.8743
  119SOL     MW  476   0.457   1.418   1.205 -0.0795  0.0990  0.2563
  120SOL     OW  477   0.250   0.684   1.016  1.0371  0.3703 -0.6149
  120SOL    HW1  478   0.272   0.599   1.060 -0.9911  0.2010  0.3795
  120SOL    HW2  479   0.323   0.744   1.026  0.0491  0.1828  1.3529
  120SOL     MW  480   0.263   0.681   1.023  0.6391  0.3232 -0.2240
  121SOL     OW  481   1.807   1.099   1.694 -0.1159  0.8331  0.2111
  121SOL    HW1  482   1.727   1.054   1.718  1.4757  0.4685  1.0429
  121SOL    HW2  483   1.840   1.056   1.610 -1.8096  1.2473 -0.6796
  121SOL     MW  484   1.801   1.088   1.686 -0.1293  0.8396  0.2033
  122SOL     OW  485   0.137   0.588   0.792  0.2867  0.7224  0.5394
  122SOL    HW1  486   0.202   0.565   0.724 -1.5194  0.0712 -1.0546
  122SOL    HW2  487   0.190   0.602   0.868  0.3873  0.5155 -1.5369
  122SOL     MW  488   0.152   0.587   0.793  0.0616  0.6092  0.0551
  123SOL     OW  489   1.803   1.097   0.534 -0.1758 -0.3256  1.2117
  123SOL    HW1  490   1.720   1.044   0.530 -0.5657  2.0890  0.8307
  123SOL    HW2  491   1.831   1.100   0.622  2.2174 -0.3604  0.4132
  123SOL     MW  492   1.796   1.090   0.545  0.0885 -0.0116  1.0561
  124SOL     OW  493   0.677   0.559   0.942 -0.0426 -0.6820 -0.1345
  124SOL    HW1  494   0.607   0.533   0.878 -1.2858 -0.9936 -1.1872
  124SOL    HW2  495   0.715   0.640   0.893 -1.8019  1.4804 -0.1921
  124SOL     MW  496   0.673   0.566   0.927 -0.4388 -0.4378 -0.2810
  125SOL     OW  497   0.701   1.768   1.694  0.2911  0.1509  0.0149
  125SOL    HW1  498   0.620   1.717   1.674 -0.6002 -0.7133 -1.6194
  125SOL    HW2  499   0.672   1.862   1.707 -1.3807 -3.0524  1.4893
  125SOL     MW  500   0.687   1.774   1.693 -0.0471 -0.3858 -0.0062
  126SOL     OW  501   2.104   1.640   1.953  0.8697 -0.2135 -0.6132
  126SOL    HW1  502   2.166   1.714   1.935  0.2866  0.1463  0.5240
  126SOL    HW2  503   2.155   1.569   1.991 -0.2174 -0.2182  1.9494
  126SOL     MW  504   2.119   1.640   1.956  0.6494 -0.1666 -0.1250
  127SOL     OW  505   0.668   0.762   1.872  0.5957 -0.3802  0.1423
  127SOL    HW1  506   0.748   0.706   1.895  1.0490  2.2398  1.9766
  127SOL    HW2  507   0.681   0.837   1.927  0.0096  0.7801 -3.2531
  127SOL     MW  508   0.680   0.765   1.882  0.5782  0.1186 -0.0637
  128SOL     OW  509   1.835   0.785   2.858 -0.2551  0.3029  0.1918
  128SOL    HW1  510   1.867   0.768   2.767 -1.4134  0.4958 -0.9710
  128SOL    HW2  511   1.777   0.861   2.853  2.0208 -0.5677  4.0074
  128SOL     MW  512   1.831   0.793   2.845 -0.1077  0.2135  0.5418
  129SOL     OW  513   1.601   0.925   0.191  0.2067 -0.1661 -0.5879
  129SOL    HW1  514   1.541   0.849   0.174 -1.4293 -3.5371  0.4553
  129SOL    HW2  515   1.616   0.915   0.283  2.3585  0.2179 -0.3902
  129SOL     MW  516   1.595   0.913   0.201  0.2747 -0.5602 -0.4241
  130SOL     OW  517   0.799   1.412   0.403  0.2750 -0.2765 -0.0272
  130SOL    HW1  518   0.859   1.409   0.474 -2.4017  0.9933 -3.6935
  130SOL    HW2  519   0.845   1.462   0.332 -5.2636  1.5406 -0.7057
  130SOL     MW  520   0.813   1.418   0.403 -0.8089  0.1308 -0.6005
  131SOL     OW  521   3.010   0.828   3.079  0.2127  0.5447 -0.1285
  131SOL    HW1  522   2.992   0.888   3.007 -0.4591 -2.1241 -1.4506
  131SOL    HW2  523   3.098   0.865   3.110 -0.8561 -0.0728  0.0022
  131SOL     MW  524   3.019   0.841   3.074 -0.0170  0.1111 -0.2857
  132SOL     OW  525   2.799   0.136   1.215 -0.6191 -0.0237  0.0010
  132SOL    HW1  526   2.830   0.135   1.126 -1.3342 -0.3814  1.1630
  132SOL    HW2  527   2.706   0.142   1.197  0.4520 -2.7095 -1.6243
  132SOL     MW  528   2.790   0.137   1.201 -0.5721 -0.4253 -0.0601
  133SOL     OW  529   1.057   0.174   1.712  0.2359  0.0523  0.3238
  133SOL    HW1  530   1.129   0.113   1.724 -0.4090  0.5472  1.9244
  133SOL    HW2  531   1.015   0.164   1.799  0.3043  1.9968  0.2096
  133SOL     MW  532   1.061   0.165   1.725  0.1598  0.3741  0.5199
  134SOL     OW  533   1.429   2.522   1.428 -0.2277  0.1934  0.0275
  134SOL    HW1  534   1.349   2.578   1.424 -2.1544  0.8806  0.2888
  134SOL    HW2  535   1.462   2.538   1.517 -1.2306  0.1117 -0.7264
  134SOL     MW  536   1.423   2.532   1.439 -0.6142  0.2733 -0.0375
  135SOL     OW  537   3.030   1.032   2.850  0.3141 -0.2916 -0.3984
  135SOL    HW1  538   3.110   1.092   2.861  2.2459  2.9885  0.1408
  135SOL    HW2  539   2.959   1.090   2.881  2.1580  3.1047  0.4918
  135SOL     MW  540   3.031   1.047   2.856  0.8123  0.5893 -0.2098
  136SOL     OW  541   0.253   2.054   0.876 -0.0035 -0.1074  0.2230
  136SOL    HW1  542   0.178   1.991   0.870 -0.0554  3.5893 -0.1858
  136SOL    HW2  543   0.325   2.028   0.823  1.5327  0.3619 -0.1775
  136SOL     MW  544   0.253   2.043   0.868  0.1923  0.4422  0.1163
  137SOL     OW  545   0.721   2.055   0.532 -0.1694  0.3948  0.0317
  137SOL    HW1  546   0.749   2.015   0.615  0.6469 -1.8909 -3.0603
  137SOL    HW2  547   0.623   2.074   0.545 -0.9530 -1.7768  0.0225
  137SOL     MW  548   0.712   2.052   0.544 -0.1651 -0.1933 -0.3775
  138SOL     OW  549   0.523   0.533   1.166 -0.1348 -0.4839 -0.4063
  138SOL    HW1  550   0.441   0.495   1.119 -0.8017 -1.9719  2.6502
  138SOL    HW2  551   0.585   0.532   1.097  0.2085 -1.4276  2.9898
  138SOL     MW  552   0.520   0.528   1.151 -0.1775 -0.8047  0.4451
  139SOL     OW  553   2.677   0.556   1.379  0.9774  0.3569 -0.3909
  139SOL    HW1  554   2.743   0.494   1.346 -1.1887  1.9054  2.9251
  139SOL    HW2  555   2.727   0.615   1.432  0.9224  0.2688  1.3333
  139SOL     MW  556   2.693   0.556   1.381  0.6843  0.5496  0.2741
  140SOL     OW  557   0.846   0.378   2.082  0.0120  0.1062 -0.5519
  140SOL    HW1  558   0.897   0.306   2.040 -0.1817 -0.1246 -0.5985
  140SOL    HW2  559   0.871   0.381   2.175  0.2906 -0.9534  1.5609
  140SOL     MW  560   0.856   0.369   2.089  0.0232 -0.0641 -0.2793
  141SOL     OW  561   1.076   0.549   1.784  0.3745  0.0964  0.4042
  141SOL    HW1  562   1.121   0.479   1.742 -2.9108  1.7513  0.9301
  141SOL    HW2  563   1.129   0.630   1.772  0.3902 -1.3532  1.4052
  141SOL     MW  564   1.089   0.550   1.777 -0.0569  0.1235  0.6056
  142SOL     OW  565   0.910   1.132   0.781 -0.9761 -0.0456  0.7415
  142SOL    HW1  566   0.887   1.123   0.685  1.2584 -2.6515  0.6453
  142SOL    HW2  567   1.007   1.150   0.780  1.2467  0.7304  2.3227
  142SOL     MW  568   0.920   1.133   0.768 -0.3880 -0.2871  0.9374
  143SOL     OW  569   1.765   0.785   1.103 -0.3466  0.3534  0.2732
  143SOL    HW1  570   1.824   0.789   1.030 -1.0189  0.2492  1.1493
  143SOL    HW2  571   1.688   0.733   1.071 -1.4394 -0.6450 -1.4462
  143SOL     MW  572   1.763   0.779   1.089 -0.5795  0.2079  0.1620
  144SOL     OW  573   0.192   1.228   1.537  0.3954  0.4035 -0.2574
  144SOL    HW1  574   0.276   1.200   1.499  0.1184  2.6980  0.3149
  144SOL    HW2  575   0.209   1.248   1.633 -0.1360  0.4883  0.7946
  144SOL     MW  576   0.205   1.227   1.545  0.2888  0.7174 -0.0431
  145SOL     OW  577   0.283   0.403   1.052  0.0525 -0.5453  0.4791
  145SOL    HW1  578   0.263   0.345   1.124  2.2100  3.1653 -0.2616
  145SOL    HW2  579   0.306   0.349   0.978 -0.8289 -2.3281 -4.9010
  145SOL     MW  580   0.284   0.388   1.052  0.2209 -0.2909 -0.3285
  146SOL     OW  581   0.852   1.953   1.365 -0.6147  0.3915 -0.5561
  146SOL    HW1  582   0.869   1.939   1.268 -0.1144  0.4407  2.7102
  146SOL    HW2  583   0.758   1.939   1.374  3.2605  1.3473 -3.2253
  146SOL     MW  584   0.842   1.950   1.353 -0.0374  0.5241 -0.4773
  147SOL     OW  585   0.377   0.393   2.978  0.0377  0.2063  0.6748
  147SOL    HW1  586   0.298   0.394   3.027 -0.4013 -0.0245 -1.0797
  147SOL    HW2  587   0.362   0.454   2.902  1.7279  0.3852  0.1347
  147SOL     MW  588   0.365   0.401   2.975  0.2028  0.1994  0.3720
  148SOL     OW  589   0.110   0.878   1.330 -0.1739  0.6325 -0.5518
  148SOL    HW1  590   0.182   0.930   1.308 -1.8142 -1.9165  0.9638
  148SOL    HW2  591   0.095   0.884   1.428 -1.2562  1.3976  1.9510
  148SOL     MW  592   0.118   0.885   1.340 -0.5331  0.3971 -0.0216
  149SOL     OW  593   1.383   1.165   1.393 -0.1400 -0.2941 -0.3627
  149SOL    HW1  594   1.382   1.114   1.478 -0.7075 -0.4316 -1.2250
  149SOL    HW2  595   1.459   1.217   1.382 -0.9377 -1.6204 -3.9831
  149SOL     MW  596   1.393   1.165   1.403 -0.3201 -0.4872 -0.9542
  150SOL     OW  597   1.856   1.363   0.736 -0.2859  0.5169 -0.2762
  150SOL    HW1  598   1.871   1.274   0.763  0.2466  0.4452  0.7651
  150SOL    HW2  599   1.936   1.408   0.762 -0.1504  3.6911  0.2449
  150SOL     MW  600   1.869   1.358   0.743 -0.1978  0.9262 -0.0701
  151SOL     OW  601   1.648   1.866   0.839 -0.1937 -0.1507 -0.0623
  151SOL    HW1  602   1.623   1.863   0.746 -2.4423  0.0031 -0.3820
  151SOL    HW2  603   1.587   1.821   0.887 -1.3692  1.2013 -3.8894
  151SOL     MW  604   1.637   1.860   0.833 -0.6455  0.0480 -0.6094
  152SOL     OW  605   0.736   1.320   1.463 -0.5173  0.2063  0.1106
  152SOL    HW1  606   0.741   1.273   1.543 -2.4262 -0.4175 -2.3632
  152SOL    HW2  607   0.824   1.360   1.451 -1.5213  0.2051 -0.3056
  152SOL     MW  608   0.749   1.319   1.472 -0.9016  0.1238 -0.2707
  153SOL     OW  609   2.639   1.266   0.764 -0.0874 -0.3046  0.1267
  153SOL    HW1  610   2.714   1.243   0.702 -0.5941 -1.9234 -2.9573
  153SOL    HW2  611   2.583   1.190   0.773  1.6413 -0.7066 -0.9335
  153SOL     MW  612   2.642   1.253   0.757  0.0738 -0.5712 -0.4201
  154SOL     OW  613   0.387   1.745   1.729  0.0770 -0.0945  0.5208
  154SOL    HW1  614   0.375   1.734   1.638  1.2088  1.0055  0.3476
  154SOL    HW2  615   0.378   1.660   1.766  1.8106  1.1582 -1.5709
  154SOL     MW  616   0.384   1.732   1.722  0.4551  0.2159  0.2219
  155SOL     OW  617   1.155   0.694   0.288  0.6968 -0.2908  0.3200
  155SOL    HW1  618   1.119   0.653   0.372  0.8300 -1.4505  0.7191
  155SOL    HW2  619   1.109   0.776   0.280  1.6634  0.3902  1.1560
  155SOL     MW  620   1.144   0.699   0.298  0.8419 -0.3539  0.4829
  156SOL     OW  621   1.596   3.003   1.066  0.1559  0.0479 -0.6282
  156SOL    HW1  622   1.623   3.087   1.110  0.2847 -0.0977 -1.0784
  156SOL    HW2  623   1.608   2.933   1.125 -0.8145  0.5480 -2.8123
  156SOL     MW  624   1.601   3.005   1.080  0.0448  0.0947 -0.9758
  157SOL     OW  625   1.410   1.138   0.122  0.4861 -0.0394  0.1158
  157SOL    HW1  626   1.470   1.068   0.135 -3.6200  0.5173 -0.0467
  157SOL    HW2  627   1.464   1.215   0.109 -0.4577 -0.7479 -1.3217
  157SOL     MW  628   1.425   1.139   0.122 -0.1802 -0.0594 -0.0953
  158SOL     OW  629   0.451   1.648   2.235 -0.5714 -0.3499 -0.4182
  158SOL    HW1  630   0.443   1.694   2.155 -1.2462 -1.3317 -0.9326
  158SOL    HW2  631   0.360   1.619   2.256 -1.5501 -1.8203  1.7764
  158SOL     MW  632   0.438   1.650   2.227 -0.7896 -0.6734 -0.1965
  159SOL     OW  633   1.285   1.719   0.419 -0.0755 -0.0122 -0.1407
  159SOL    HW1  634   1.265   1.630   0.386 -0.7376 -0.7815  1.0986
  159SOL    HW2  635   1.205   1.749   0.479  2.0867  3.6617  0.1082
  159SOL     MW  636   1.272   1.711   0.422  0.1224  0.3710  0.0556
  160SOL     OW  637   0.460   1.140   1.573  0.1139  0.4115  0.4535
  160SOL    HW1  638   0.472   1.054   1.607  1.5071  1.0378 -3.0471
  160SOL    HW2  639   0.510   1.194   1.627 -2.0772 -1.8990  1.5121
  160SOL     MW  640   0.468   1.136   1.585  0.0087  0.1893  0.1313
  161SOL     OW  641   0.525   2.185   2.592 -0.4333 -0.1022 -0.4909
  161SOL    HW1  642   0.435   2.175   2.557  0.6978 -0.8000 -1.9375
  161SOL    HW2  643   0.582   2.139   2.529 -1.8312 -2.6684 -0.3373
  161SOL     MW  644   0.521   2.177   2.579 -0.4685 -0.5329 -0.6615
  162SOL     OW  645   1.058   1.745   1.800  0.1479  0.7264  1.0459
  162SOL    HW1  646   1.057   1.834   1.848  0.5146  3.4991  2.7629
  162SOL    HW2  647   0.963   1.721   1.806  1.8094 -0.0849 -0.1395
  162SOL     MW  648   1.045   1.754   1.807  0.4155  0.9852  1.1161
  163SOL     OW  649   2.094   0.068   0.971  0.0771 -0.1635  0.2236
  163SOL    HW1  650   2.095   0.080   0.879 -2.2052  0.3870 -1.4030
  163SOL    HW2  651   2.035  -0.004   0.992 -0.1702  1.4545 -3.0585
  163SOL     MW  652   2.086   0.060   0.962 -0.2567  0.1226 -0.4240
  164SOL     OW  653   0.334   0.209   0.791  0.0514  0.2279 -0.0325
  164SOL    HW1  654   0.241   0.209   0.820 -0.2226  1.3640  0.0084
  164SOL    HW2  655   0.329   0.141   0.727 -0.4444 -0.9442  0.0826
  164SOL     MW  656   0.321   0.200   0.787 -0.0502  0.2232 -0.0119
  165SOL     OW  657   1.326   1.253   0.377 -0.0074  0.1008 -0.2078
  165SOL    HW1  658   1.270   1.198   0.434  0.5899 -0.6955 -3.5963
  165SOL    HW2  659   1.353   1.200   0.299 -0.8717 -3.0291 -2.8809
  165SOL     MW  660   1.322   1.239   0.374 -0.0426 -0.4173 -1.0076
  166SOL     OW  661   0.509   1.061   0.969 -0.0839  0.0182  0.4526
  166SOL    HW1  662   0.492   0.994   1.033 -0.1926  2.2580  0.5230
  166SOL    HW2  663   0.606   1.066   0.976 -0.4233 -1.7475  1.9065
  166SOL     MW  664   0.519   1.053   0.979 -0.1430  0.0807  0.6537
  167SOL     OW  665   0.810   1.101   0.242 -0.8608 -0.2871 -0.3479
  167SOL    HW1  666   0.715   1.086   0.248  3.1422 -2.8741 -0.8944
  167SOL    HW2  667   0.828   1.164   0.170  0.2320 -1.5514 -3.2159
  167SOL     MW  668   0.800   1.108   0.233 -0.1884 -0.7953 -0.7984
  168SOL     OW  669   1.650   1.686   2.921 -0.1110 -0.4332  0.3211
  168SOL    HW1  670   1.557   1.666   2.930 -0.3957 -1.4261 -0.0074
  168SOL    HW2  671   1.695   1.600   2.932 -1.4691  1.3582 -1.9680
  168SOL     MW  672   1.644   1.672   2.924 -0.3277 -0.3279 -0.0243
  169SOL     OW  673   0.371   0.965   1.308  0.2385 -0.0607  0.5951
  169SOL    HW1  674   0.384   0.917   1.386  0.0511 -0.4821 -0.5672
  169SOL    HW2  675   0.452   1.027   1.300  1.0497 -0.8423  1.0975
  169SOL     MW  676   0.384   0.967   1.317  0.3208 -0.2194  0.5081
  170SOL     OW  677   0.990   1.447   1.490  0.1008 -0.0898  0.2894
  170SOL    HW1  678   0.963   1.537   1.518 -0.7205 -0.6018  0.3923
  170SOL    HW2  679   1.060   1.455   1.415  1.2499  0.8920  3.4671
  170SOL     MW  680   0.996   1.460   1.483  0.1441 -0.0278  0.7223
  171SOL     OW  681   0.599   1.443   0.655 -0.1182  0.2660 -0.5189
  171SOL    HW1  682   0.541   1.420   0.732 -0.3855  1.0321  1.7968
  171SOL    HW2  683   0.587   1.364   0.599 -1.4644 -1.0658  1.5280
  171SOL     MW  684   0.590   1.429   0.658 -0.3311  0.1914  0.0567
  172SOL     OW  685   0.842   0.325   1.276  0.0866 -0.5426  0.2714
  172SOL    HW1  686   0.831   0.367   1.187 -1.4455 -0.0424 -0.5167
  172SOL    HW2  687   0.750   0.294   1.292  1.4214 -2.8204 -0.0713
  172SOL     MW  688   0.828   0.327   1.266  0.0606 -0.7771  0.1222
  173SOL     OW  689   0.474   1.652   0.394 -0.4088 -0.3413 -0.4448
  173SOL    HW1  690   0.434   1.562   0.411 -1.7819 -0.8420  1.1920
  173SOL    HW2  691   0.511   1.681   0.478  2.4479  1.1232 -2.0401
  173SOL     MW  692   0.473   1.644   0.407 -0.2130 -0.2141 -0.4394
  174SOL     OW  693   1.929   0.991   1.485 -0.5791  0.2395  0.1342
  174SOL    HW1  694   1.884   0.901   1.508 -2.9108 -0.7623  0.4857
  174SOL    HW2  695   1.878   1.008   1.402 -2.3037 -2.4375  1.5908
  174SOL     MW  696   1.916   0.982   1.477 -1.1143 -0.2459  0.3728
  175SOL     OW  697   0.467   1.370   0.332 -0.2978 -0.0872 -0.0886
  175SOL    HW1  698   0.437   1.378   0.243  1.8459  0.6752  0.4018
  175SOL    HW2  699   0.552   1.410   0.331  2.3769  2.3428  0.1308
  175SOL     MW  700   0.474   1.377   0.320  0.3379  0.3340  0.0050
  176SOL     OW  701   0.182   1.352   1.242  0.1089  0.5215 -0.2224
  176SOL    HW1  702   0.151   1.323   1.155 -2.6847  0.0529  1.9748
  176SOL    HW2  703   0.124   1.322   1.308 -0.9364 -1.4515 -0.8324
  176SOL     MW  704   0.170   1.344   1.239 -0.3976  0.1993 -0.0130
  177SOL     OW  705   0.569   0.324   1.335 -0.5980  0.6543  0.3197
  177SOL    HW1  706   0.553   0.405   1.284  1.2725 -0.8841  0.2200
  177SOL    HW2  707   0.565   0.345   1.425 -0.4755  0.6688 -1.0866
  177SOL     MW  708   0.566   0.337   1.340 -0.3350  0.4532  0.1210
  178SOL     OW  709   3.045   0.397   2.893  0.5542 -0.3694  0.3377
  178SOL    HW1  710   3.012   0.435   2.975  1.2007 -2.4387 -1.2432
  178SOL    HW2  711   2.976   0.416   2.828  1.5573  0.3863 -1.7319
  178SOL     MW  712   3.032   0.404   2.895  0.7719 -0.5427 -0.1439
  179SOL     OW  713   1.600   1.359   1.440 -0.0190  0.3446 -0.8108
  179SOL    HW1  714   1.562   1.392   1.521 -1.0287  0.8527 -1.0929
  179SOL    HW2  715   1.687   1.398   1.434 -2.1795 -1.1645 -0.3005
  179SOL     MW  716   1.606   1.369   1.450 -0.4373  0.2125 -0.7807
  180SOL     OW  717   2.976   0.201   0.458 -0.1386 -0.2257  0.1950
  180SOL    HW1  718   2.928   0.241   0.382 -2.9493 -0.5304 -0.8954
  180SOL    HW2  719   3.042   0.274   0.478 -1.0781  2.2285 -1.1645
  180SOL     MW  720   2.978   0.216   0.451 -0.6334  0.0579 -0.1282
  181SOL     OW  721   1.164   1.373   3.047 -0.0912 -0.5982  0.0989
  181SOL    HW1  722   1.246   1.387   3.092  0.7756 -0.7990  0.9811
  181SOL    HW2  723   1.189   1.335   2.960  2.5585 -3.9637  0.3399
  181SOL     MW  724   1.178   1.370   3.042  0.3728 -1.0688  0.2471
  182SOL     OW  725   0.501   0.863   1.671  0.1168  0.2454  0.0564
  182SOL    HW1  726   0.414   0.863   1.714 -1.9472 -0.2226 -0.7499
  182SOL    HW2  727   0.549   0.828   1.745  0.0425  0.1091 -1.6345
  182SOL     MW  728   0.496   0.858   1.686 -0.1653  0.1657 -0.2731
  183SOL     OW  729   1.498   1.507   1.239  0.2570  0.1563 -0.3318
  183SOL    HW1  730   1.465   1.587   1.277 -0.5088  0.3081 -1.4590
  183SOL    HW2  731   1.533   1.450   1.317 -0.3985 -1.1500  1.4086
  183SOL     MW  732   1.498   1.510   1.254  0.0695  0.0039 -0.2509
  184SOL     OW  733   0.902   0.624   1.961 -0.1006 -0.4809 -0.3787
  184SOL    HW1  734   0.978   0.604   1.905 -0.4248  1.0150 -0.7914
  184SOL    HW2  735   0.860   0.540   1.987 -0.5135 -2.3146  2.2432
  184SOL     MW  736   0.907   0.611   1.957 -0.1978 -0.5254 -0.0872
  185SOL     OW  737   1.170   0.963   1.948  0.2461  0.4768 -0.4898
  185SOL    HW1  738   1.171   0.866   1.960 -3.2632 -1.2559 -0.5500
  185SOL    HW2  739   1.199   0.988   2.030 -1.9003 -1.1309 -0.8772
  185SOL     MW  740   1.174   0.954   1.961 -0.5001  0.0360 -0.5489
  186SOL     OW  741   0.425   1.635   1.424 -0.4911 -0.1066  0.0443
  186SOL    HW1  742   0.517   1.634   1.397 -0.6184 -1.6601 -0.1284
  186SOL    HW2  743   0.376   1.613   1.340 -1.7964 -0.4624 -0.5731
  186SOL     MW  744   0.431   1.632   1.409 -0.6801 -0.3585 -0.0599
  187SOL     OW  745   1.445   0.759   1.446 -0.2310 -0.2546 -0.3582
  187SOL    HW1  746   1.431   0.728   1.537 -1.4646 -0.3875 -0.6544
  187SOL    HW2  747   1.368   0.719   1.406  0.4628  0.1069 -0.3526
  187SOL     MW  748   1.433   0.750   1.453 -0.3022 -0.2245 -0.3965
  188SOL     OW  749   1.905   1.104   0.805  0.1914  0.3735  0.3735
  188SOL    HW1  750   1.895   1.117   0.898  0.8419  0.2842 -2.6523
  188SOL    HW2  751   1.997   1.083   0.799  0.3960  0.8935  0.5175
  188SOL     MW  752   1.916   1.103   0.816  0.3042  0.4303 -0.0067
  189SOL     OW  753   0.730   0.770   0.797  0.0596  0.2720  0.1053
  189SOL    HW1  754   0.640   0.805   0.807  0.7769  0.6211  1.2536
  189SOL    HW2  755   0.778   0.836   0.845 -3.4540 -1.0255 -0.2430
  189SOL     MW  756   0.725   0.784   0.805 -0.3094  0.1468  0.2108
  190SOL     OW  757   1.858   0.188   2.027 -0.0964  0.1590  0.1998
  190SOL    HW1  758   1.874   0.099   2.005 -2.3228 -0.0354 -2.3538
  190SOL    HW2  759   1.944   0.223   2.041 -1.0077 -1.2954 -2.3866
  190SOL     MW  760   1.871   0.181   2.026 -0.5104 -0.0586 -0.4783
  191SOL     OW  761   1.462   0.960   1.234 -0.0403  0.1908  0.2144
  191SOL    HW1  762   1.440   1.033   1.293 -0.9237 -1.6849  2.1725
  191SOL    HW2  763   1.439   0.886   1.289  0.0377 -1.1557 -2.6968
  191SOL     MW  764   1.456   0.960   1.249 -0.1466 -0.2343  0.0887
  192SOL     OW  765   0.612   2.039   2.819 -0.6766  0.0918 -0.1518
  192SOL    HW1  766   0.560   2.093   2.762  2.0772 -3.5043  1.4365
  192SOL    HW2  767   0.588   1.950   2.804  0.3848 -0.3016 -0.7735
  192SOL     MW  768   0.602   2.034   2.810 -0.1732 -0.4346 -0.0243
  193SOL     OW  769   1.018   1.585   0.721 -0.0262 -0.0185  0.0321
  193SOL    HW1  770   0.996   1.580   0.809  1.6202  0.0909 -0.0240
  193SOL    HW2  771   0.952   1.525   0.678  1.9446  0.0575 -0.2925
  193SOL     MW  772   1.006   1.576   0.727  0.4511  0.0060 -0.0181
  194SOL     OW  773   0.499   1.345   0.914  0.1385 -0.2011  0.0763
  194SOL    HW1  774   0.474   1.250   0.935  0.4113  2.4837  0.6224
  194SOL    HW2  775   0.411   1.387   0.888  0.8662  2.9160  0.3378
  194SOL     MW  776   0.484   1.338   0.913  0.2705  0.5644  0.1828
  195SOL     OW  777   1.301   1.101   2.963  0.5777  0.5813 -0.2012
  195SOL    HW1  778   1.356   1.130   3.033 -2.8163 -1.0570 -0.4727
  195SOL    HW2  779   1.218   1.076   3.000 -0.8450  1.3449  0.3881
  195SOL     MW  780   1.297   1.102   2.977 -0.0578  0.4659 -0.1593
  196SOL     OW  781   2.178   1.027   0.641  0.1098  0.3371 -0.1534
  196SOL    HW1  782   2.136   0.976   0.568  1.8323  1.8264 -1.2023
  196SOL    HW2  783   2.203   1.109   0.599 -1.7460  0.8141  1.3792
  196SOL     MW  784   2.176   1.031   0.626  0.0922  0.5965 -0.0896
  197SOL     OW  785   0.699   1.275   2.028  0.2012 -0.2239  0.2936
  197SOL    HW1  786   0.689   1.184   2.031  3.4638 -1.7595 -0.2566
  197SOL    HW2  787   0.658   1.303   1.946 -0.6043 -0.8846 -1.0018
  197SOL     MW  788   0.692   1.267   2.017  0.5254 -0.5137  0.0501
  198SOL     OW  789   2.954   1.436   1.054  0.3488 -0.6111  0.4202
  198SOL    HW1  790   2.936   1.530   1.035  1.2584  0.5454 -0.0269
  198SOL    HW2  791   2.873   1.381   1.030 -0.0466 -2.2358 -1.4106
  198SOL     MW  792   2.941   1.441   1.048  0.4167 -0.6729  0.1197
  199SOL     OW  793   0.523   1.340   1.804  0.5762 -0.0901  0.5234
  199SOL    HW1  794   0.430   1.312   1.795 -0.3396  0.6946  0.6855
  199SOL    HW2  795   0.542   1.410   1.737  0.7820  1.7468  0.3094
  199SOL     MW  796   0.513   1.346   1.794  0.4825  0.2558  0.5165
  200SOL     OW  797   1.894   3.077   1.344 -0.3373  0.0886 -0.5338
  200SOL    HW1  798   1.911   3.062   1.250  0.1496 -3.0305 -1.8324
  200SOL    HW2  799   1.815   3.134   1.351 -1.7587  0.9946  1.9213
  200SOL     MW  800   1.886   3.082   1.333 -0.4606 -0.2034 -0.3812
  201SOL     OW  801   0.997   0.239   0.827 -0.8457 -0.1212  0.1655
  201SOL    HW1  802   0.971   0.153   0.788  0.4797 -1.7670  1.0874
  201SOL    HW2  803   1.060   0.271   0.768  0.9763  0.6173 -0.8427
  201SOL     MW  804   1.002   0.232   0.814 -0.4304 -0.2409  0.1541
  202SOL     OW  805   1.521   1.643   0.981 -0.3180 -0.1626 -0.3115
  202SOL    HW1  806   1.560   1.574   0.924 -2.7882 -0.4506  0.4147
  202SOL    HW2  807   1.519   1.601   1.070 -0.8439 -3.9695 -1.1695
  202SOL     MW  808   1.526   1.628   0.985 -0.7133 -0.7029 -0.3289
  203SOL     OW  809  -0.003   0.444   1.152 -0.1310  0.0630  0.0154
  203SOL    HW1  810   0.058   0.412   1.089  1.3581  1.8590 -0.5625
  203SOL    HW2  811   0.056   0.477   1.219 -1.4280 -0.9739 -0.2593
  203SOL     MW  812   0.013   0.444   1.152 -0.1056  0.1632 -0.0971
  204SOL     OW  813   1.062   1.807   0.563  0.2609 -0.1621  0.5784
  204SOL    HW1  814   1.042   1.726   0.621  0.6938 -1.9436  0.5482
  204SOL    HW2  815   0.983   1.830   0.513 -2.1344  0.3607  2.0606
  204SOL     MW  816   1.049   1.799   0.564  0.0019 -0.3282  0.7699
  205SOL     OW  817   1.360   0.103   1.330 -0.0642 -0.0555  0.3926
  205SOL    HW1  818   1.329   0.101   1.237 -0.1819 -0.4070 -0.0860
  205SOL    HW2  819   1.333   0.195   1.353  0.5108  0.9981 -1.2485
  205SOL     MW  820   1.352   0.115   1.321 -0.0039  0.0372  0.1130
  206SOL     OW  821   0.418   3.070   1.419  0.0461 -0.4931 -0.5667
  206SOL    HW1  822   0.350   3.038   1.357  1.3723  3.0338  0.1427
  206SOL    HW2  823   0.498   3.006   1.417 -1.3925  1.3309  0.7661
  206SOL     MW  824   0.419   3.058   1.410  0.0313  0.2129 -0.2973
  207SOL     OW  825   0.954   1.526   0.214  0.0943 -0.4239  0.2424
  207SOL    HW1  826   0.922   1.610   0.188  1.0421 -0.6182 -0.2562
  207SOL    HW2  827   1.038   1.537   0.245 -0.3454  0.8152  0.5761
  207SOL     MW  828   0.961   1.539   0.215  0.1613 -0.2861  0.2207
  208SOL     OW  829   0.677   1.612   1.332 -0.2398  0.5763  0.4759
  208SOL    HW1  830   0.751   1.634   1.398  1.1727  0.5558 -1.0623
  208SOL    HW2  831   0.652   1.522   1.341  1.1921  0.4032 -0.3927
  208SOL     MW  832   0.684   1.603   1.342  0.1355  0.5508  0.1583
  209SOL     OW  833   1.584   0.540   2.864  0.1768 -0.5856  0.3861
  209SOL    HW1  834   1.654   0.575   2.915 -1.3107 -0.4072 -0.9705
  209SOL    HW2  835   1.625   0.464   2.819 -1.1874  3.5375  1.7544
  209SOL     MW  836   1.599   0.534   2.865 -0.1995 -0.0181  0.3877
  210SOL     OW  837   1.617   1.415   0.842 -0.3443 -0.3495 -0.4322
  210SOL    HW1  838   1.707   1.384   0.819  0.5437 -4.2608 -2.0610
  210SOL    HW2  839   1.564   1.414   0.761  1.6078 -0.3186 -2.5905
  210SOL     MW  840   1.622   1.411   0.828  0.0304 -0.8615 -0.9319
  211SOL     OW  841   1.665   0.401   0.966 -0.6319  0.4509  0.5560
  211SOL    HW1  842   1.631   0.394   0.877 -2.4040  0.1106 -0.4186
  211SOL    HW2  843   1.760   0.437   0.955  0.5242 -0.2425 -0.8132
  211SOL     MW  844   1.673   0.405   0.953 -0.7132  0.3145  0.2467
  212SOL     OW  845   0.253   1.126   0.108 -0.5208  0.1632  0.5290
  212SOL    HW1  846   0.200   1.121   0.188 -1.1401 -1.1094  1.1025
  212SOL    HW2  847   0.258   1.034   0.083 -0.4564 -0.3307  0.5110
  212SOL     MW  848   0.247   1.113   0.116 -0.5940 -0.0698  0.6023
  213SOL     OW  849   0.414   1.748   3.034  0.7251 -0.6080  0.0297
  213SOL    HW1  850   0.457   1.799   3.105  1.9460  1.0049 -0.9424
  213SOL    HW2  851   0.471   1.762   2.956  2.3974 -0.5634 -0.8509
  213SOL     MW  852   0.427   1.757   3.033  1.1068 -0.3893 -0.2147
  214SOL     OW  853   0.598   0.294   2.223 -0.5537 -0.0297 -0.0179
  214SOL    HW1  854   0.528   0.360   2.200 -0.3441  2.2518  1.2272
  214SOL    HW2  855   0.668   0.309   2.160  2.7714  1.5564 -1.9134
  214SOL     MW  856   0.598   0.305   2.211 -0.0874  0.4806 -0.1037
  215SOL     OW  857   0.475   0.658   2.642  0.4199 -0.3589  0.1395
  215SOL    HW1  858   0.511   0.648   2.553 -2.2214 -2.0194  0.4664
  215SOL    HW2  859   0.410   0.590   2.644  2.2470  1.2158  0.3721
  215SOL     MW  860   0.471   0.648   2.630  0.3124 -0.3702  0.2133
  216SOL     OW  861   3.040   3.081   2.665 -0.0746  0.5059 -0.0694
  216SOL    HW1  862   2.990   3.062   2.748  0.5645 -0.5824  0.7487
  216SOL    HW2  863   3.035   3.180   2.656 -0.6051  3.0908  1.5562
  216SOL     MW  864   3.032   3.092   2.675 -0.0602  0.7034  0.2530
  217SOL     OW  865   0.909   1.238   0.031 -0.0096 -0.4231  0.0548
  217SOL    HW1  866   0.951   1.165  -0.010 -0.9528  2.6457 -0.0083
  217SOL    HW2  867   0.981   1.297   0.065 -0.7084 -1.5849  3.4163
  217SOL     MW  868   0.924   1.236   0.030 -0.2262 -0.1715  0.4900
  218SOL     OW  869   0.903   1.294   2.543  0.1430  0.4819  0.5719
  218SOL    HW1  870   0.911   1.210   2.585 -2.8448  0.5640 -1.8661
  218SOL    HW2  871   0.967   1.356   2.573 -3.1280  1.2663  1.0347
  218SOL     MW  872   0.912   1.291   2.553 -0.6828  0.5962  0.3113
  219SOL     OW  873   1.089   0.467   2.559 -0.0340  0.3918  0.4489
  219SOL    HW1  874   1.159   0.516   2.599 -0.6982  0.1958 -0.0413
  219SOL    HW2  875   1.025   0.533   2.547 -0.0292  0.1156  3.2260
  219SOL     MW  876   1.090   0.483   2.563 -0.1210  0.3295  0.7507
  220SOL     OW  877   1.793   0.412   2.203  0.2991  0.0003  0.2579
  220SOL    HW1  878   1.740   0.482   2.165  0.8868 -0.9679 -1.6900
  220SOL    HW2  879   1.773   0.340   2.139  0.7959  3.4197 -1.5077
  220SOL     MW  880   1.783   0.411   2.189  0.4422  0.3237 -0.2321
  221SOL     OW  881   0.377   1.347   2.891  0.3645  0.5138  0.3999
  221SOL    HW1  882   0.404   1.254   2.881 -0.4902 -0.1512  1.5444
  221SOL    HW2  883   0.410   1.394   2.812 -0.5463  2.2291  1.5892
  221SOL     MW  884   0.385   1.341   2.879  0.1315  0.6524  0.7078
  222SOL     OW  885   0.316   0.893   2.638  0.1502 -0.0288 -0.1840
  222SOL    HW1  886   0.297   0.931   2.550 -0.9769  0.1984  1.6280
  222SOL    HW2  887   0.361   0.810   2.622  1.4824  1.1904  0.0019
  222SOL     MW  888   0.320   0.887   2.624  0.1773  0.1621  0.0796
  223SOL     OW  889   0.050   2.087   2.606  0.3164  0.2135  0.0894
  223SOL    HW1  890   0.105   2.029   2.659 -1.6942 -1.6434  1.2968
  223SOL    HW2  891   0.093   2.128   2.533 -1.9675 -2.0322 -1.0802
  223SOL     MW  892   0.063   2.085   2.603 -0.2502 -0.3278  0.0944
  224SOL     OW  893   1.507   0.792   2.610  0.2260 -0.2577 -0.1858
  224SOL    HW1  894   1.482   0.803   2.701 -0.9340 -0.2007  2.9284
  224SOL    HW2  895   1.486   0.873   2.568 -0.2897  0.7928  0.5460
  224SOL     MW  896   1.501   0.804   2.617  0.0049 -0.1115  0.3216
  225SOL     OW  897   2.987   1.525   2.309 -0.2948 -0.1272  0.3215
  225SOL    HW1  898   3.028   1.597   2.261  1.6941 -0.4153  2.7690
  225SOL    HW2  899   2.934   1.575   2.373  1.3547 -0.2708  1.9445
  225SOL     MW  900   2.985   1.541   2.311  0.1852 -0.1842  0.8586
  226SOL     OW  901   0.417   1.420   2.612  0.4210 -0.0499 -0.0952
  226SOL    HW1  902   0.512   1.427   2.617  2.9146  1.1608  0.8120
  226SOL    HW2  903   0.397   1.514   2.595  1.8782 -0.7190 -0.4574
  226SOL     MW  904   0.427   1.433   2.610  0.9423  0.0216 -0.0233
  227SOL     OW  905   0.422   1.071   2.835  0.7733  0.0426  0.0637
  227SOL    HW1  906   0.505   1.109   2.806 -2.9135  0.9748  3.0130
  227SOL    HW2  907   0.408   1.010   2.763 -1.0056  3.3682  3.5712
  227SOL     MW  908   0.431   1.068   2.821  0.0522  0.6044  0.9156
  228SOL     OW  909   0.700   0.987   2.025  0.6865  0.1491  0.6080
  228SOL    HW1  910   0.783   1.010   1.979  1.0877 -2.9576  1.4510
  228SOL    HW2  911   0.710   0.925   2.098 -0.2542 -2.7239  1.0544
  228SOL     MW  912   0.712   0.982   2.029  0.6153 -0.6399  0.7781
  229SOL     OW  913   0.141   0.557   3.091  0.1120  0.8051  0.3650
  229SOL    HW1  914   0.047   0.556   3.060 -1.1893 -1.8673 -0.2281
  229SOL    HW2  915   0.142   0.484   3.156 -1.8250  1.9769 -2.7993
  229SOL     MW  916   0.129   0.547   3.096 -0.3152  0.6071 -0.1307
  230SOL     OW  917   1.756   1.407   2.033  0.2044  0.3455 -0.0995
  230SOL    HW1  918   1.720   1.377   2.118  0.6676 -0.1381  0.6148
  230SOL    HW2  919   1.823   1.343   2.011 -0.0603  1.3477 -1.2141
  230SOL     MW  920   1.760   1.395   2.041  0.2306  0.4139 -0.1523
  231SOL     OW  921   2.754   1.335   2.245 -0.0303 -0.2485 -0.2073
  231SOL    HW1  922   2.840   1.384   2.243  0.2978  2.1162 -1.4305
  231SOL    HW2  923   2.699   1.363   2.166  0.1494 -0.2743 -2.9398
  231SOL     MW  924   2.758   1.345   2.234  0.0367  0.0601 -0.7292
  232SOL     OW  925   2.250   0.842   2.167  0.3264 -0.6021 -0.3015
  232SOL    HW1  926   2.191   0.874   2.097  0.7291 -0.0050  2.1824
  232SOL    HW2  927   2.189   0.856   2.243  1.1527 -2.2152  1.8432
  232SOL     MW  928   2.234   0.848   2.168  0.4885 -0.7362  0.3092
  233SOL     OW  929   2.039   0.526   1.973  0.4588 -0.5918  0.2928
  233SOL    HW1  930   2.095   0.487   1.911 -1.8438 -1.6677 -1.4250
  233SOL    HW2  931   2.075   0.522   2.060  0.8444  1.6262 -1.0312
  233SOL     MW  932   2.051   0.520   1.976  0.2059 -0.4411 -0.1086
  234SOL     OW  933   0.267   1.009   2.369 -0.1516  0.0625  0.1234
  234SOL    HW1  934   0.184   1.048   2.339 -2.2201  0.5205  0.5663
  234SOL    HW2  935   0.334   1.075   2.400  2.6458 -0.2843 -0.2659
  234SOL     MW  936   0.265   1.023   2.369 -0.0554  0.0771  0.1305
  235SOL     OW  937   1.105   3.067   2.711  0.5867 -0.4118 -0.5519
  235SOL    HW1  938   1.146   2.995   2.761 -0.2920 -0.3523  1.2693
  235SOL    HW2  939   1.095   3.140   2.775  2.9216  2.0661  1.5334
  235SOL     MW  940   1.109   3.067   2.726  0.7788 -0.0770 -0.0365
  236SOL     OW  941   2.944   0.523   0.017 -0.1553 -0.0471 -0.3899
  236SOL    HW1  942   2.860   0.514  -0.035 -1.4366 -3.1968  0.5389
  236SOL    HW2  943   2.933   0.615   0.048 -2.8958  0.5016 -0.2416
  236SOL     MW  944   2.932   0.534   0.014 -0.6860 -0.3902 -0.2478
  237SOL     OW  945   1.897   0.995   2.163  0.8132  0.5394  0.2822
  237SOL    HW1  946   1.903   1.084   2.178 -0.9615 -0.6876 -1.1816
  237SOL    HW2  947   1.884   0.969   2.252  0.9895  1.2849  0.6936
  237SOL     MW  948   1.896   1.003   2.177  0.6023  0.4759  0.1433
  238SOL     OW  949   1.082   1.796   3.028 -0.0678 -0.1477 -0.0155
  238SOL    HW1  950   1.025   1.714   3.010  1.7454 -0.6630  1.0975
  238SOL    HW2  951   1.175   1.776   3.013  0.8985 -0.4273  0.2485
  238SOL     MW  952   1.086   1.782   3.024  0.2989 -0.2526  0.1662
  239SOL     OW  953   1.275   1.391   2.354 -0.0273 -0.4451  0.1437
  239SOL    HW1  954   1.213   1.435   2.409  1.5534  1.9686 -1.4021
  239SOL    HW2  955   1.273   1.297   2.390  1.5003 -2.3258  0.3871
  239SOL     MW  956   1.266   1.385   2.366  0.3828 -0.3748 -0.0282
  240SOL     OW  957   0.722   0.821   2.250  0.8136  0.1533  0.4335
  240SOL    HW1  958   0.724   0.889   2.319  0.3332  0.0509 -0.3061
  240SOL    HW2  959   0.817   0.808   2.220  2.3646  1.4897  1.9598
  240SOL     MW  960   0.735   0.829   2.255  0.9548  0.3161  0.5373
  241SOL     OW  961   0.664   0.366   3.091  0.1610 -0.2236  0.1426
  241SOL    HW1  962   0.674   0.443   3.148  1.1508 -0.7647  0.2409
  241SOL    HW2  963   0.570   0.362   3.078 -0.5030  0.1993  0.0943
  241SOL     MW  964   0.653   0.375   3.097  0.2040 -0.2392  0.1492
  242SOL     OW  965   1.489   1.678   2.296  0.2946 -0.2998  0.8076
  242SOL    HW1  966   1.443   1.756   2.331  2.7693  0.1854 -0.2748
  242SOL    HW2  967   1.427   1.625   2.240  1.6681 -0.0891  0.7365
  242SOL     MW  968   1.475   1.681   2.293  0.8024 -0.2080  0.6554
  243SOL     OW  969   1.021   0.241   2.427  0.4965  0.0866  0.3603
  243SOL    HW1  970   1.096   0.217   2.380 -1.9891  2.6768 -1.5889
  243SOL    HW2  971   1.056   0.320   2.468 -1.0221  2.0113 -2.9799
  243SOL     MW  972   1.036   0.248   2.426 -0.0318  0.6823 -0.3376
  244SOL     OW  973   0.265   0.740   2.399  0.3722 -0.0715 -0.1926
  244SOL    HW1  974   0.255   0.835   2.376 -0.5119  0.6826  1.4355
  244SOL    HW2  975   0.361   0.722   2.375 -1.2836 -1.4021 -0.5543
  244SOL     MW  976   0.276   0.750   2.393  0.0371 -0.1475 -0.0255
  245SOL     OW  977   1.283   0.233   2.335  0.4281  0.1822 -0.0169
  245SOL    HW1  978   1.370   0.199   2.316 -1.9384  0.0467  1.0557
  245SOL    HW2  979   1.311   0.299   2.396 -0.2308 -1.6775 -1.0189
  245SOL     MW  980   1.298   0.237   2.340  0.0289 -0.0811 -0.0076
  246SOL     OW  981   1.191   1.226   2.130 -0.3167 -0.2512  0.5400
  246SOL    HW1  982   1.132   1.170   2.182  0.3150 -0.1665  1.4043
  246SOL    HW2  983   1.219   1.301   2.193  1.8147  2.0034  1.1434
  246SOL     MW  984   1.187   1.228   2.145  0.0478  0.0574  0.7337
  247SOL     OW  985   0.766   0.584   0.127  0.0728  0.6466 -0.5061
  247SOL    HW1  986   0.714   0.658   0.101 -0.7218  1.3323  0.1948
  247SOL    HW2  987   0.856   0.598   0.099  1.8801 -2.8139 -1.3560
  247SOL     MW  988   0.771   0.596   0.120  0.2064  0.2805 -0.5257
  248SOL     OW  989   0.462   1.176   2.473  0.0689  0.2702 -0.1750
  248SOL    HW1  990   0.505   1.212   2.390 -0.9075  0.1961 -0.4626
  248SOL    HW2  991   0.421   1.250   2.517  0.3385  0.0110 -1.3285
  248SOL     MW  992   0.462   1.191   2.468 -0.0243  0.2262 -0.3651
  249SOL     OW  993   0.177   1.834   2.697 -0.3848 -0.9167 -0.5516
  249SOL    HW1  994   0.125   1.765   2.657  0.7227  1.7566  4.3563
  249SOL    HW2  995   0.169   1.822   2.795  0.5370  1.3826  1.0103
  249SOL     MW  996   0.169   1.823   2.705 -0.1170 -0.2606  0.3020
  250SOL     OW  997   2.167   0.871   2.424  0.7089  0.3936  0.2955
  250SOL    HW1  998   2.211   0.783   2.436  2.4567 -2.6545 -0.9881
  250SOL    HW2  999   2.227   0.936   2.461  1.1287  0.8303 -2.6212
  250SOL     MW 1000   2.181   0.868   2.431  0.9949  0.0491 -0.2587
  251SOL     OW 1001   0.182   0.875   2.051 -0.2182  0.8962 -0.3579
  251SOL    HW1 1002   0.155   0.826   2.129 -2.0644  3.9531  4.4035
  251SOL    HW2 1003   0.208   0.824   1.976 -0.7153  0.4632 -0.5744
  251SOL     MW 1004   0.182   0.862   2.051 -0.5274  1.2424  0.2417
  252SOL     OW 1005   1.672   1.009   2.908  0.4686 -0.0584  0.2491
  252SOL    HW1 1006   1.682   1.061   2.992 -0.9179 -0.3194  1.6141
  252SOL    HW2 1007   1.697   1.075   2.843 -1.8742 -0.0886  0.5170
  252SOL     MW 1008   1.677   1.024   2.911 -0.0234 -0.0968  0.4645
  253SOL     OW 1009   1.159   1.751   2.568  0.1651  0.5618  0.0843
  253SOL    HW1 1010   1.168   1.763   2.475  0.3771 -0.1490 -1.7924
  253SOL    HW2 1011   1.081   1.800   2.596  4.2880  0.5535  1.5199
  253SOL     MW 1012   1.150   1.759   2.559  0.7371  0.4669  0.0261
  254SOL     OW 1013   1.015   1.056   2.252  0.6571 -0.5218  0.0958
  254SOL    HW1 1014   0.993   0.962   2.231  1.6393 -1.0284 -1.1387
  254SOL    HW2 1015   0.923   1.099   2.257 -0.5262  0.1051 -1.0516
  254SOL     MW 1016   1.000   1.049   2.250  0.6306 -0.5059 -0.2184
  255SOL     OW 1017   0.833   2.536   2.215  0.0550  0.2944  0.5246
  255SOL    HW1 1018   0.750   2.489   2.231 -0.3745  0.7872 -0.9103
  255SOL    HW2 1019   0.893   2.508   2.285  1.3896  1.8835 -2.3060
  255SOL     MW 1020   0.830   2.526   2.226  0.1744  0.5690 -0.0382
  256SOL     OW 1021   1.202   2.840   2.851 -0.3735 -0.3343  0.0410
  256SOL    HW1 1022   1.184   2.768   2.797  2.5974  0.1362  0.3972
  256SOL    HW2 1023   1.302   2.843   2.850  0.9606  0.1719 -3.2310
  256SOL     MW 1024   1.213   2.830   2.844  0.1945 -0.2054 -0.3437
  257SOL     OW 1025   0.136   1.916   0.090 -0.3983  0.0369  0.2678
  257SOL    HW1 1026   0.190   1.860   0.152 -2.2075 -1.4828  1.3186
  257SOL    HW2 1027   0.133   1.870   0.007 -3.6091  0.9819 -0.3563
  257SOL     MW 1028   0.142   1.903   0.087 -1.0606 -0.0389  0.3241
  258SOL     OW 1029   0.714   1.016   2.455  0.0840 -0.6228 -0.8342
  258SOL    HW1 1030   0.735   1.092   2.402 -0.0233  1.1254 -3.2456
  258SOL    HW2 1031   0.621   1.026   2.491 -1.0440 -0.4450  1.5211
  258SOL     MW 1032   0.705   1.027   2.453 -0.0790 -0.3687 -0.8416
  259SOL     OW 1033   0.754   0.507   2.338 -0.7254 -0.1721  0.2019
  259SOL    HW1 1034   0.689   0.580   2.346  0.8437 -1.1070 -2.2590
  259SOL    HW2 1035   0.708   0.424   2.314  1.4185 -1.0712 -1.1351
  259SOL     MW 1036   0.739   0.506   2.336 -0.2355 -0.4140 -0.2992
  260SOL     OW 1037   0.586   0.164   1.572 -0.1207 -0.3041 -0.2295
  260SOL    HW1 1038   0.529   0.106   1.520 -1.5185  0.5447 -0.6309
  260SOL    HW2 1039   0.670   0.167   1.527  1.9785 -0.5113 -1.3206
  260SOL     MW 1040   0.589   0.156   1.559 -0.0282 -0.2195 -0.4264
  261SOL     OW 1041   1.233   0.692   2.030  0.6952  0.3705  0.2406
  261SOL    HW1 1042   1.243   0.698   2.127 -0.2249  1.4282 -0.9933
  261SOL    HW2 1043   1.283   0.612   1.999  2.0473  0.4945 -2.1413
  261SOL     MW 1044   1.241   0.682   2.039  0.7522  0.5264 -0.2364
  262SOL     OW 1045   1.151   0.281   0.136 -0.5148 -0.5945  0.0433
  262SOL    HW1 1046   1.244   0.266   0.121 -0.5549 -1.8490  0.5787
  262SOL    HW2 1047   1.101   0.226   0.076  1.7110  1.7436  1.3116
  262SOL     MW 1048   1.157   0.271   0.126 -0.2264 -0.4515  0.2812
  263SOL     OW 1049   0.416   3.059   2.498  0.4177 -0.0652 -0.4284
  263SOL    HW1 1050   0.360   3.138   2.504  0.6189 -0.7001 -1.6255
  263SOL    HW2 1051   0.463   3.072   2.415  0.1549  0.9721  1.1933
  263SOL     MW 1052   0.415   3.071   2.488  0.4096 -0.0121 -0.3724
  264SOL     OW 1053   1.517   1.309   1.909 -0.0684  0.6032  0.0479
  264SOL    HW1 1054   1.483   1.265   1.986  2.9535 -1.9115  0.7579
  264SOL    HW2 1055   1.600   1.352   1.936 -1.5300  1.3364 -1.7109
  264SOL     MW 1056   1.523   1.309   1.923  0.1375  0.3682 -0.0905
  265SOL     OW 1057   0.686   2.763   2.242  0.2632  0.5145  0.0181
  265SOL    HW1 1058   0.747   2.704   2.204 -0.6331  0.2160  2.9377
  265SOL    HW2 1059   0.694   2.751   2.339 -1.1445  1.3849 -2.9796
  265SOL     MW 1060   0.695   2.753   2.249 -0.0408  0.5900  0.0078
  266SOL     OW 1061   0.992   0.796   2.168  0.1489  0.2877  0.7619
  266SOL    HW1 1062   0.977   0.734   2.095 -3.3268 -2.8050  1.2254
  266SOL    HW2 1063   1.067   0.764   2.220 -3.4777  1.3137  1.6284
  266SOL     MW 1064   1.000   0.783   2.165 -0.7882  0.0150  0.9374
  267SOL     OW 1065   1.377   1.652   2.708  0.1129 -0.2725  0.3320
  267SOL    HW1 1066   1.459   1.653   2.656 -2.4134  1.8984  1.0429
  267SOL    HW2 1067   1.312   1.705   2.656 -0.2064  1.5217 -0.9532
  267SOL     MW 1068   1.379   1.659   2.694 -0.2626  0.2506  0.2562
  268SOL     OW 1069   0.267   0.790   1.814  0.2241  0.6947 -0.3527
  268SOL    HW1 1070   0.206   0.858   1.771 -2.3001  1.5518 -0.4589
  268SOL    HW2 1071   0.282   0.723   1.748  2.1661  1.8711 -0.3475
  268SOL     MW 1072   0.261   0.790   1.800  0.1473  0.9630 -0.3660
  269SOL     OW 1073   1.387   1.925   2.371 -0.0649  0.4283 -0.0068
  269SOL    HW1 1074   1.418   1.989   2.309 -0.8496 -0.6975 -0.1354
  269SOL    HW2 1075   1.339   1.982   2.433  1.3989 -1.5637 -1.9276
  269SOL     MW 1076   1.385   1.941   2.371  0.0247  0.0169 -0.2772
  270SOL     OW 1077   1.179   0.377   1.613 -0.5306 -0.1438  0.3761
  270SOL    HW1 1078   1.140   0.291   1.640 -0.8389 -0.1471 -0.8516
  270SOL    HW2 1079   1.276   0.359   1.610  0.9885 -2.3491  0.4887
  270SOL     MW 1080   1.186   0.364   1.616 -0.3708 -0.4352  0.2290
  271SOL     OW 1081   0.903  -0.000   2.461  0.0742 -0.2699  1.0431
  271SOL    HW1 1082   0.930  -0.039   2.540  1.3949  0.9696 -0.6323
  271SOL    HW2 1083   0.934   0.096   2.450 -0.5957 -0.9119 -1.2662
  271SOL     MW 1084   0.911   0.008   2.470  0.1601 -0.1911  0.5173
  272SOL     OW 1085   1.476   2.879   2.772  0.1975  0.7312 -0.4974
  272SOL    HW1 1086   1.452   2.967   2.727  2.8775  0.7742  1.8273
  272SOL    HW2 1087   1.519   2.909   2.857  1.3043 -1.4784  2.8592
  272SOL     MW 1088   1.478   2.894   2.777  0.6971  0.4454  0.2522
  273SOL     OW 1089   1.431   0.886   2.879 -0.1473  0.3094  0.0532
  273SOL    HW1 1090   1.527   0.892   2.879 -1.5515  0.6681  0.2241
  273SOL    HW2 1091   1.395   0.972   2.898  1.1038  0.2028 -0.1544
  273SOL     MW 1092   1.439   0.898   2.882 -0.1675  0.3427  0.0484
  274SOL     OW 1093   1.388   0.745   0.193  1.3664  0.3318  0.3262
  274SOL    HW1 1094   1.441   0.663   0.196 -1.3167 -0.0938 -1.6837
  274SOL    HW2 1095   1.302   0.722   0.241  0.6157  1.9496  3.6360
  274SOL     MW 1096   1.383   0.731   0.200  0.9133  0.4891  0.4977
  275SOL     OW 1097   1.690   0.648   1.799  0.0499 -0.0970 -0.2248
  275SOL    HW1 1098   1.749   0.684   1.863 -0.6114 -1.3141 -1.3188
  275SOL    HW2 1099   1.708   0.551   1.810 -1.4321 -2.7401  1.2470
  275SOL     MW 1100   1.700   0.640   1.809 -0.2329 -0.6063 -0.1750
  276SOL     OW 1101   0.256   1.248   1.809  0.3829 -0.4381 -0.3476
  276SOL    HW1 1102   0.306   1.181   1.861 -0.3774 -0.0639 -0.5695
  276SOL    HW2 1103   0.159   1.233   1.821 -1.9452  0.5548  1.0116
  276SOL     MW 1104   0.249   1.237   1.818 -0.0246 -0.2577 -0.1975
  277SOL     OW 1105   1.888   1.271   2.540 -0.0781  0.0451 -0.8642
  277SOL    HW1 1106   1.954   1.327   2.564 -1.7826  2.1896 -1.7900
  277SOL    HW2 1107   1.896   1.194   2.598  0.4417 -0.4469 -1.6154
  277SOL     MW 1108   1.897   1.268   2.551 -0.2344  0.2632 -1.0855
  278SOL     OW 1109   1.411   0.658   1.706  0.2170 -0.6824 -0.1007
  278SOL    HW1 1110   1.393   0.583   1.773  0.9175 -1.9363  3.0346
  278SOL    HW2 1111   1.502   0.683   1.722  0.9865 -0.2526  0.3988
  278SOL     MW 1112   1.421   0.652   1.717  0.4109 -0.7912  0.3789
  279SOL     OW 1113   0.519   0.027   2.269 -0.8001 -0.2305  0.2832
  279SOL    HW1 1114   0.598  -0.022   2.240 -1.4242 -0.7697  0.0341
  279SOL    HW2 1115   0.558   0.116   2.273  2.6191 -1.4246  5.7008
  279SOL     MW 1116   0.534   0.032   2.266 -0.4313 -0.4592  0.9651
  280SOL     OW 1117   1.522   1.106   2.179  0.1173 -0.6705 -0.5857
  280SOL    HW1 1118   1.572   1.035   2.136  1.6484 -1.0539  1.3530
  280SOL    HW2 1119   1.484   1.072   2.259 -1.8496  0.9837 -0.0550
  280SOL     MW 1120   1.524   1.092   2.184  0.0598 -0.5028 -0.2599
  281SOL     OW 1121   1.303   1.274   2.735  0.1216 -0.2409  0.0972
  281SOL    HW1 1122   1.387   1.325   2.758 -1.8678  2.8178  1.1349
  281SOL    HW2 1123   1.289   1.201   2.799 -1.5979  0.8181 -0.6458
  281SOL     MW 1124   1.313   1.271   2.746 -0.3677  0.3024  0.1361
  282SOL     OW 1125   1.136   1.288   1.676 -0.4157  0.7291 -0.6426
  282SOL    HW1 1126   1.097   1.340   1.612 -2.5762 -4.1493  2.5461
  282SOL    HW2 1127   1.079   1.284   1.752  0.0928  0.5293 -0.5225
  282SOL     MW 1128   1.123   1.294   1.678 -0.6337  0.0590 -0.2061
  283SOL     OW 1129   0.656   1.315   3.075 -0.4662 -0.0422 -0.1397
  283SOL    HW1 1130   0.751   1.292   3.075  1.0458  2.8042 -0.2761
  283SOL    HW2 1131   0.656   1.399   3.116  0.9241  0.6589 -1.2727
  283SOL     MW 1132   0.669   1.323   3.080 -0.0833  0.4259 -0.3072
  284SOL     OW 1133   0.506   0.662   2.351 -0.1097 -0.0396  0.5500
  284SOL    HW1 1134   0.549   0.721   2.288  1.4697  0.8201  1.6086
  284SOL    HW2 1135   0.473   0.590   2.291  1.8891  1.1324  0.5074
  284SOL     MW 1136   0.507   0.661   2.335  0.3624  0.2285  0.6840
  285SOL     OW 1137   0.849   0.943   2.850  0.5408  0.0672 -0.0018
  285SOL    HW1 1138   0.890   0.984   2.767 -0.2855 -0.3868 -0.3023
  285SOL    HW2 1139   0.815   0.856   2.813 -0.7546  0.2167  0.7801
  285SOL     MW 1140   0.850   0.937   2.834  0.2609  0.0270  0.0617
  286SOL     OW 1141   1.085   1.482   2.594  0.0861 -0.0333 -0.3057
  286SOL    HW1 1142   1.167   1.466   2.637 -0.1430  0.8470  1.7477
  286SOL    HW2 1143   1.077   1.577   2.584 -0.8831 -0.7632 -1.9134
  286SOL     MW 1144   1.095   1.492   2.598 -0.0720 -0.0134 -0.2469
  287SOL     OW 1145   1.035   0.936   0.308  0.2869  0.8183 -0.0888
  287SOL    HW1 1146   1.090   0.983   0.376  2.1494  0.2035  0.7572
  287SOL    HW2 1147   0.964   1.000   0.285  0.6074 -0.1990  1.8091
  287SOL     MW 1148   1.033   0.950   0.314  0.5750  0.6030  0.2732
  288SOL     OW 1149   1.593   0.617   2.123  0.1397  0.6318  0.2078
  288SOL    HW1 1150   1.560   0.630   2.215  2.1566 -1.7792  1.6543
  288SOL    HW2 1151   1.605   0.708   2.086 -0.5042  0.7307 -2.1646
  288SOL     MW 1152   1.591   0.631   2.130  0.3208  0.3267  0.0856
  289SOL     OW 1153   0.964   1.044   2.628  0.5086 -0.5188 -0.2869
  289SOL    HW1 1154   1.038   0.992   2.599 -3.1752  1.6532 -2.2836
  289SOL    HW2 1155   0.894   1.019   2.570 -1.1550  1.1305  1.8676
  289SOL     MW 1156   0.964   1.034   2.616 -0.1969 -0.0147 -0.2661
  290SOL     OW 1157   0.891   0.538   1.583 -0.1535  0.0797 -0.0380
  290SOL    HW1 1158   0.947   0.541   1.507 -1.1372  2.0998  0.7603
  290SOL    HW2 1159   0.951   0.540   1.655 -1.6507 -1.4290 -1.3101
  290SOL     MW 1160   0.906   0.539   1.582 -0.4809  0.1471 -0.1005
  291SOL     OW 1161   0.157   0.330   0.152  0.5503 -0.4967  0.0547
  291SOL    HW1 1162   0.239   0.283   0.150  0.5945  0.3426 -1.3017
  291SOL    HW2 1163   0.106   0.302   0.073  1.5836  2.0924  1.7748
  291SOL     MW 1164   0.161   0.320   0.141  0.6925 -0.0443  0.1027
  292SOL     OW 1165   1.049   0.554   0.081  0.1646  0.3659  0.1723
  292SOL    HW1 1166   1.102   0.613   0.138  1.1663  1.8129  1.5713
  292SOL    HW2 1167   1.075   0.460   0.097  0.6453 -2.0067 -0.6892
  292SOL     MW 1168   1.059   0.549   0.090  0.3602  0.2438  0.2432
  293SOL     OW 1169   0.227   0.148   2.461  0.1795  0.0314  0.0800
  293SOL    HW1 1170   0.154   0.103   2.415 -0.4901 -0.0110  0.0367
  293SOL    HW2 1171   0.195   0.184   2.544  3.4515  0.2673  0.0600
  293SOL     MW 1172   0.213   0.147   2.466  0.5229  0.0570  0.0716
  294SOL     OW 1173   1.511   0.625   2.383 -0.1587 -0.0892  0.2698
  294SOL    HW1 1174   1.495   0.672   2.462 -3.0377 -0.3357 -0.4556
  294SOL    HW2 1175   1.490   0.533   2.410 -0.6151  3.3859 -2.3924
  294SOL     MW 1176   1.506   0.619   2.397 -0.5987  0.3368 -0.1772
  295SOL     OW 1177   0.911   0.678   2.497  0.2016 -0.0220  0.3785
  295SOL    HW1 1178   0.884   0.623   2.416  1.7086  3.3996  1.2514
  295SOL    HW2 1179   0.836   0.677   2.559 -0.6022  0.9062 -1.3895
  295SOL     MW 1180   0.898   0.670   2.494  0.2944  0.5519  0.2604
  296SOL     OW 1181   1.250   0.274   2.053  0.6878 -0.3009  0.0061
  296SOL    HW1 1182   1.327   0.206   2.036  2.8960  1.5050  0.1822
  296SOL    HW2 1183   1.246   0.270   2.152 -0.3308 -1.3852  0.1821
  296SOL     MW 1184   1.260   0.265   2.064  0.8447 -0.2057  0.0525
  297SOL     OW 1185   1.466   0.369   1.613  0.7204 -0.2565  0.2185
  297SOL    HW1 1186   1.513   0.446   1.644 -0.2746  0.5444 -2.8788
  297SOL    HW2 1187   1.515   0.288   1.641  0.0084 -1.6027 -1.1241
  297SOL     MW 1188   1.479   0.368   1.621  0.4952 -0.3284 -0.3673
  298SOL     OW 1189   1.637   0.899   2.034 -0.0452  0.2355  0.2220
  298SOL    HW1 1190   1.613   0.932   1.948  0.2831  3.2387 -0.4122
  298SOL    HW2 1191   1.730   0.923   2.037  1.3396 -1.9507 -2.1484
  298SOL     MW 1192   1.646   0.907   2.023  0.1809  0.3433 -0.1744
  299SOL     OW 1193   0.537   1.038   3.086  0.6212 -0.3985  0.3762
  299SOL    HW1 1194   0.578   1.125   3.092 -1.1834  0.6871 -0.2955
  299SOL    HW2 1195   0.474   1.047   3.018  1.2683 -1.0575  3.0245
  299SOL     MW 1196   0.534   1.050   3.077  0.4685 -0.3422  0.6370
  300SOL     OW 1197   1.228   1.169   2.495 -0.7684 -0.8701  0.2458
  300SOL    HW1 1198   1.140   1.139   2.498 -2.6453  2.5867  0.2468
  300SOL    HW2 1199   1.263   1.188   2.581 -0.7408  2.9278 -3.3794
  300SOL     MW 1200   1.221   1.167   2.507 -1.0124  0.0871 -0.2324
  301SOL     OW 1201   1.373   0.912   0.612 -0.0207  0.2967  1.0110
  301SOL    HW1 1202   1.373   0.969   0.684 -0.8654  0.8159  0.4196
  301SOL    HW2 1203   1.329   0.836   0.647 -0.7730 -1.2254 -0.4667
  301SOL     MW 1204   1.367   0.909   0.626 -0.2314  0.1644  0.7380
  302SOL     OW 1205   0.071   1.494   2.048  0.0391  0.2135 -0.1208
  302SOL    HW1 1206   0.120   1.431   2.104  2.1128 -1.9505 -0.0639
  302SOL    HW2 1207   0.043   1.573   2.099 -0.3923 -0.1145  2.3095
  302SOL     MW 1208   0.074   1.496   2.062  0.2558 -0.1153  0.2074
  303SOL     OW 1209   0.371   1.686   2.593 -0.7279  0.2498  0.3964
  303SOL    HW1 1210   0.355   1.684   2.499  1.9491  0.8811  0.6020
  303SOL    HW2 1211   0.307   1.742   2.641 -3.0591 -2.3669  1.4875
  303SOL     MW 1212   0.360   1.693   2.587 -0.6823 -0.0121  0.5675
  304SOL     OW 1213   0.681   2.040   2.375  0.3320  0.3145 -0.5823
  304SOL    HW1 1214   0.732   2.120   2.356  1.2759 -0.4463 -0.9983
  304SOL    HW2 1215   0.750   1.980   2.390 -0.7569  0.4662  0.8992
  304SOL     MW 1216   0.697   2.043   2.375  0.3129  0.2342 -0.4417
  305SOL     OW 1217   1.076   0.566   0.531 -0.2833  0.1531 -0.7855
  305SOL    HW1 1218   0.980   0.558   0.511  2.8934  0.4953 -0.5474
  305SOL    HW2 1219   1.115   0.477   0.535 -0.6988 -1.5669 -1.0098
  305SOL     MW 1220   1.069   0.554   0.529  0.0810 -0.0287 -0.7837
  306SOL     OW 1221   1.234   1.491   0.299 -0.0022 -0.0367 -0.5244
  306SOL    HW1 1222   1.260   1.405   0.330  1.2346  1.9755  1.9253
  306SOL    HW2 1223   1.281   1.508   0.215  0.0162 -2.4094 -0.0356
  306SOL     MW 1224   1.244   1.482   0.292  0.1634 -0.0843 -0.1367
  307SOL     OW 1225   1.402   0.492   1.942 -0.4098 -0.1678 -0.3988
  307SOL    HW1 1226   1.341   0.422   1.990 -2.1567  1.0394  2.1106
  307SOL    HW2 1227   1.475   0.522   1.994  0.6911  1.5501 -1.1994
  307SOL     MW 1228   1.404   0.487   1.955 -0.4950  0.2181 -0.1734
  308SOL     OW 1229   2.158   0.618   2.686  0.0174 -0.5149  0.0680
  308SOL    HW1 1230   2.242   0.591   2.733  2.7755 -1.9596 -0.2032
  308SOL    HW2 1231   2.142   0.716   2.713 -0.0938 -0.3618  0.6363
  308SOL     MW 1232   2.167   0.627   2.696  0.3666 -0.6854  0.1072
  309SOL     OW 1233   0.440   0.368   0.391 -0.5237 -0.0698  0.0396
  309SOL    HW1 1234   0.514   0.347   0.446  0.7305  0.3969 -1.7096
  309SOL    HW2 1235   0.419   0.291   0.344 -0.1868 -0.0086  0.6402
  309SOL     MW 1236   0.447   0.355   0.392 -0.3138 -0.0002 -0.1119
  310SOL     OW 1237   0.453   0.584   1.927  0.5427  0.6903 -0.1576
  310SOL    HW1 1238   0.499   0.501   1.900  0.5167 -0.1535  0.3163
  310SOL    HW2 1239   0.517   0.646   1.896  2.4581  0.0596 -0.2248
  310SOL     MW 1240   0.468   0.581   1.919  0.7920  0.4958 -0.1039
  311SOL     OW 1241   1.883   0.746   1.962 -0.1259 -0.2084 -0.0679
  311SOL    HW1 1242   1.869   0.764   2.058 -1.1095  1.4517  1.2698
  311SOL    HW2 1243   1.933   0.657   1.961  1.3058 -2.3296  0.2573
  311SOL     MW 1244   1.888   0.737   1.975 -0.0667 -0.2692  0.1515
  312SOL     OW 1245   1.669   2.492   0.073 -0.1516  0.3545  0.6721
  312SOL    HW1 1246   1.712   2.515   0.156  0.2486  1.6086  0.4338
  312SOL    HW2 1247   1.608   2.564   0.057  0.8846  3.6019  1.8230
  312SOL     MW 1248   1.666   2.505   0.082  0.0379  0.9484  0.7925
  313SOL     OW 1249   0.100   1.236   2.957 -0.4644  0.0981  0.0688
  313SOL    HW1 1250   0.118   1.195   3.041 -0.0949  0.2759 -0.4966
  313SOL    HW2 1251   0.182   1.291   2.934 -0.2962 -0.3463  0.1482
  313SOL     MW 1252   0.113   1.237   2.965 -0.3934  0.0629  0.0047
  314SOL     OW 1253   2.145   2.969   3.019  0.1066  0.3052  0.1748
  314SOL    HW1 1254   2.092   3.017   2.956 -0.6104 -1.9913 -0.9386
  314SOL    HW2 1255   2.186   3.035   3.068 -2.1016  1.8395  0.2519
  314SOL     MW 1256   2.143   2.984   3.017 -0.2794  0.2046  0.0381
  315SOL     OW 1257   1.485   1.869   0.014 -0.0154 -0.3558  0.8109
  315SOL    HW1 1258   1.440   1.955   0.041 -1.2063  1.8556  0.5736
  315SOL    HW2 1259   1.551   1.904  -0.054  0.0649 -0.0451  0.9560
  315SOL     MW 1260   1.488   1.885   0.008 -0.1619 -0.0230  0.7988
  316SOL     OW 1261   1.269   0.645   2.676  0.6336  1.1670 -0.0179
  316SOL    HW1 1262   1.364   0.645   2.686  0.6313  1.9537 -1.6068
  316SOL    HW2 1263   1.218   0.666   2.758 -0.3962 -1.2407 -1.7743
  316SOL     MW 1264   1.275   0.648   2.688  0.4974  0.9531 -0.4593
  317SOL     OW 1265   0.701   1.482   2.566  0.5666  0.2229 -0.6298
  317SOL    HW1 1266   0.767   1.411   2.562 -0.3580  0.4249 -1.6106
  317SOL    HW2 1267   0.715   1.530   2.476  0.7210  0.7024 -0.9105
  317SOL     MW 1268   0.712   1.479   2.553  0.4650  0.3128 -0.7962
  318SOL     OW 1269   1.352   0.410   2.936  0.0657  0.1148  0.1283
  318SOL    HW1 1270   1.276   0.461   2.918 -1.2987  1.3084  1.8128
  318SOL    HW2 1271   1.425   0.474   2.932 -0.9562  2.7364  0.0920
  318SOL     MW 1272   1.352   0.425   2.933 -0.2492  0.6182  0.3458
  319SOL     OW 1273   0.785   0.410   2.849 -0.5480 -0.1256  0.2696
  319SOL    HW1 1274   0.734   0.334   2.818  1.1721 -1.8746  0.4679
  319SOL    HW2 1275   0.748   0.424   2.937 -0.5305 -0.6257  2.4604
  319SOL     MW 1276   0.774   0.402   2.857 -0.3188 -0.4223  0.5849
  320SOL     OW 1277   1.018   1.342   1.948 -0.0570 -0.1437 -0.7544
  320SOL    HW1 1278   1.087   1.300   2.003 -1.6713  0.5869 -1.6678
  320SOL    HW2 1279   1.056   1.427   1.928  0.3921  0.1311  0.2170
  320SOL     MW 1280   1.032   1.348   1.953 -0.2107 -0.0110 -0.7467
  321SOL     OW 1281   1.040   0.996   3.055 -0.6814 -0.1819 -0.0628
  321SOL    HW1 1282   0.989   0.978   2.974 -0.9224 -3.4110 -2.2073
  321SOL    HW2 1283   1.064   0.912   3.095  0.4471  0.4506 -0.0581
  321SOL     MW 1284   1.037   0.982   3.050 -0.5643 -0.5245 -0.3451
  322SOL     OW 1285   1.183   0.809   1.713 -0.2195 -0.4207  0.1918
  322SOL    HW1 1286   1.267   0.769   1.725  0.9118 -0.6715  2.0414
  322SOL    HW2 1287   1.175   0.876   1.783 -0.0104  1.0964 -0.4899
  322SOL     MW 1288   1.193   0.813   1.723 -0.0427 -0.2537  0.3459
  323SOL     OW 1289   1.203   1.541   1.867  0.1341 -0.1093  0.6804
  323SOL    HW1 1290   1.256   1.495   1.805  0.7033 -1.7866 -0.3405
  323SOL    HW2 1291   1.161   1.619   1.829 -0.6241  0.8353  3.1954
  323SOL     MW 1292   1.204   1.545   1.854  0.1092 -0.2060  0.8775
  324SOL     OW 1293   1.436   1.022   2.454  0.4737 -0.3584 -0.2327
  324SOL    HW1 1294   1.343   1.073   2.450 -0.3074  2.1615 -1.1191
  324SOL    HW2 1295   1.498   1.092   2.480 -2.6350 -2.1103  0.3586
  324SOL     MW 1296   1.432   1.038   2.457 -0.0395 -0.2571 -0.2716
  325SOL     OW 1297   1.095   0.523   2.902  0.0697  0.0542 -0.3112
  325SOL    HW1 1298   1.063   0.554   2.988 -1.1386 -0.6073 -0.2776
  325SOL    HW2 1299   1.013   0.510   2.846 -2.0891 -0.1485  0.4772
  325SOL     MW 1300   1.080   0.525   2.906 -0.3746 -0.0598 -0.2028
  326SOL     OW 1301   0.483   1.363   2.206  0.1345  0.2369 -0.0964
  326SOL    HW1 1302   0.554   1.354   2.144 -1.0838  2.4040  0.8713
  326SOL    HW2 1303   0.476   1.458   2.231 -0.1846 -0.4107  1.7852
  326SOL     MW 1304   0.491   1.375   2.201 -0.0683  0.4374  0.2795
  327SOL     OW 1305   1.874   0.889   2.462 -0.1752 -0.2158  0.0122
  327SOL    HW1 1306   1.837   0.809   2.513  0.2727  0.3915 -2.5683
  327SOL    HW2 1307   1.970   0.883   2.471  0.2788 -0.8349  1.3589
  327SOL     MW 1308   1.882   0.878   2.470 -0.0562 -0.2174 -0.1506
  328SOL     OW 1309   0.187   1.333   2.254  0.0543 -0.1559 -0.0021
  328SOL    HW1 1310   0.161   1.260   2.192  0.2821  0.4800 -1.3227
  328SOL    HW2 1311   0.282   1.330   2.253 -2.9302 -0.8984  0.4857
  328SOL     MW 1312   0.196   1.323   2.246 -0.3094 -0.1699 -0.1120
  329SOL     OW 1313   0.114   0.115   1.417  0.2796 -0.3822 -0.6878
  329SOL    HW1 1314   0.114   0.133   1.514 -0.8747  2.3469  1.0044
  329SOL    HW2 1315   0.204   0.136   1.393  2.2076  1.0265 -0.2840
  329SOL     MW 1316   0.126   0.120   1.427  0.3817  0.1637 -0.4113
  330SOL     OW 1317   0.320   3.081   2.070 -0.2765  0.3068  0.2453
  330SOL    HW1 1318   0.392   3.105   2.135  2.6913  3.0569 -2.6245
  330SOL    HW2 1319   0.264   3.013   2.098  3.0140  3.7609  1.8576
  330SOL     MW 1320   0.322   3.075   2.082  0.5492  1.1254  0.0794
  331SOL     OW 1321   0.771   1.221   2.280 -0.1735  0.0456 -0.3587
  331SOL    HW1 1322   0.763   1.258   2.189 -2.4735  0.0864 -0.5659
  331SOL    HW2 1323   0.794   1.294   2.340 -0.5256 -0.9739 -1.1898
  331SOL     MW 1324   0.773   1.235   2.276 -0.5234 -0.0835 -0.4957
  332SOL     OW 1325   1.349   1.693   2.983  0.2518  0.0611  0.2385
  332SOL    HW1 1326   1.349   1.706   2.892  0.0373 -0.4382  0.8734
  332SOL    HW2 1327   1.405   1.765   3.024  0.0907  4.2131  0.3699
  332SOL     MW 1328   1.356   1.705   2.977  0.2023  0.5430  0.3396
  333SOL     OW 1329   1.786   1.452   2.984  0.4525 -0.0157  0.1625
  333SOL    HW1 1330   1.880   1.432   2.992  0.8222  0.2199 -1.5661
  333SOL    HW2 1331   1.756   1.435   3.075  1.3471  1.4986 -3.3990
  333SOL     MW 1332   1.794   1.447   2.997  0.6193  0.2152 -0.5355
  334SOL     OW 1333   1.375   3.081   2.607 -0.0087  0.0607  0.0405
  334SOL    HW1 1334   1.278   3.092   2.610 -0.6095 -0.0370 -0.5810
  334SOL    HW2 1335   1.399   3.171   2.612 -1.9536 -0.6010 -4.6166
  334SOL     MW 1336   1.365   3.094   2.608 -0.3446 -0.0395 -0.6560
  335SOL     OW 1337   1.235   0.787   3.072  0.5296 -0.1336 -1.0136
  335SOL    HW1 1338   1.279   0.759   3.153 -3.3937 -2.0993  0.3565
  335SOL    HW2 1339   1.309   0.813   3.014 -0.0930 -0.6714 -0.3325
  335SOL     MW 1340   1.250   0.787   3.075 -0.0702 -0.4639 -0.7430
  336SOL     OW 1341   0.938   1.062   1.905  0.4544  0.3274 -0.5197
  336SOL    HW1 1342   0.941   1.149   1.936  1.8475  1.5404  0.0753
  336SOL    HW2 1343   1.015   1.017   1.942 -1.5529 -2.5831 -0.4903
  336SOL     MW 1344   0.949   1.067   1.914  0.3734  0.1034 -0.4373
  337SOL     OW 1345   0.571   1.747   2.801  0.7410  0.6069  1.0795
  337SOL    HW1 1346   0.519   1.761   2.716 -0.9689 -0.0280 -0.8716
  337SOL    HW2 1347   0.663   1.726   2.780  0.8698 -0.3986  2.9702
  337SOL     MW 1348   0.576   1.746   2.787  0.5324  0.3904  1.0715
  338SOL     OW 1349   1.123   0.837   2.548  0.3340 -0.4458 -0.1459
  338SOL    HW1 1350   1.050   0.774   2.533  1.5411 -0.8955  1.1842
  338SOL    HW2 1351   1.197   0.789   2.584 -0.2211 -2.3667  0.9649
  338SOL     MW 1352   1.123   0.822   2.551  0.4200 -0.7586  0.1762
  339SOL     OW 1353   1.554   1.046   1.793 -0.1083 -0.5311 -0.2015
  339SOL    HW1 1354   1.476   1.045   1.739 -2.8032 -1.1610 -1.6554
  339SOL    HW2 1355   1.548   1.137   1.831  0.2452  1.8410 -0.8711
  339SOL     MW 1356   1.543   1.058   1.791 -0.4172 -0.3013 -0.4817
  340SOL     OW 1357   1.386   1.488   0.066 -0.0429 -0.1701 -0.1216
  340SOL    HW1 1358   1.380   1.554  -0.000 -0.6219 -2.3135 -2.0284
  340SOL    HW2 1359   1.480   1.477   0.080 -0.2212  0.0177 -0.5593
  340SOL     MW 1360   1.398   1.495   0.059 -0.1428 -0.4281 -0.4309
  341SOL     OW 1361   0.129   1.362   2.676 -0.3849  0.5696  0.1997
  341SOL    HW1 1362   0.211   1.335   2.641 -1.2184 -1.4006  0.2653
  341SOL    HW2 1363   0.067   1.335   2.606  0.7342  0.2673  2.4400
  341SOL     MW 1364   0.131   1.355   2.662 -0.3472  0.2697  0.5040
  342SOL     OW 1365   1.420   0.304   0.095 -0.5390  0.0637  0.2152
  342SOL    HW1 1366   1.488   0.369   0.124 -1.1537 -1.3457 -0.2152
  342SOL    HW2 1367   1.420   0.305  -0.001 -0.3401 -3.0584 -0.1174
  342SOL     MW 1368   1.429   0.313   0.086 -0.5938 -0.5342  0.1145
  343SOL     OW 1369   0.211   0.315   2.215 -0.0099  0.0421 -0.3383
  343SOL    HW1 1370   0.243   0.256   2.287  0.0269 -2.0005  0.9367
  343SOL    HW2 1371   0.158   0.262   2.150 -1.3733  1.4969 -0.2297
  343SOL     MW 1372   0.208   0.300   2.216 -0.1849 -0.0355 -0.1557
  344SOL     OW 1373   1.673   2.074   0.212 -0.2306 -0.0990 -0.4053
  344SOL    HW1 1374   1.688   2.126   0.133  1.3141  1.2229 -0.7432
  344SOL    HW2 1375   1.608   2.004   0.188  0.1599  1.8004  1.6844
  344SOL     MW 1376   1.667   2.072   0.199  0.0247  0.3260 -0.1742
  345SOL     OW 1377   0.722   1.643   2.320  0.7300 -0.2367 -0.2826
  345SOL    HW1 1378   0.639   1.663   2.277 -2.7592  1.1898  1.1331
  345SOL    HW2 1379   0.772   1.584   2.261  2.2501  1.9567  0.8938
  345SOL     MW 1380   0.718   1.638   2.306  0.4702  0.2409  0.0594
  346SOL     OW 1381   1.719   1.143   0.042  0.2628 -0.7150  0.0617
  346SOL    HW1 1382   1.813   1.130   0.020 -0.3805 -2.1151 -1.8994
  346SOL    HW2 1383   1.697   1.086   0.115  0.0377  0.6751  0.8233
  346SOL     MW 1384   1.728   1.134   0.049  0.1483 -0.7164 -0.0966
  347SOL     OW 1385   1.281   0.736   2.281  0.0799  0.1325 -0.1113
  347SOL    HW1 1386   1.362   0.697   2.306 -0.5103  0.3987  2.9193
  347SOL    HW2 1387   1.267   0.800   2.356  1.6514  3.2494 -1.8185
  347SOL     MW 1388   1.289   0.739   2.294  0.2093  0.5788  0.0633
  348SOL     OW 1389   1.324   2.579   1.870 -0.2113 -0.0198 -0.1275
  348SOL    HW1 1390   1.382   2.516   1.911  0.9351 -1.3319 -1.1181
  348SOL    HW2 1391   1.367   2.658   1.900 -0.1746 -0.4673  1.1647
  348SOL     MW 1392   1.337   2.581   1.879 -0.0552 -0.2520 -0.0877
  349SOL     OW 1393   1.428   0.237   2.718 -0.0785 -0.0583 -0.3833
  349SOL    HW1 1394   1.392   0.285   2.794 -0.4578  2.4595  0.5647
  349SOL    HW2 1395   1.515   0.215   2.756 -0.6648  0.6302 -0.2716
  349SOL     MW 1396   1.435   0.240   2.733 -0.2059  0.3648 -0.2435
  350SOL     OW 1397   1.870   0.651   2.618  0.4607 -0.0093 -0.0427
  350SOL    HW1 1398   1.812   0.571   2.602 -1.0023 -1.1500  0.8784
  350SOL    HW2 1399   1.958   0.625   2.613 -0.6342  1.2410 -1.1469
  350SOL     MW 1400   1.874   0.637   2.615  0.1232  0.0052 -0.0669
  351SOL     OW 1401   0.126   0.962   1.608 -0.0756 -0.8691 -0.0694
  351SOL    HW1 1402   0.064   0.999   1.671 -0.3128 -1.0242 -0.3061
  351SOL    HW2 1403   0.171   1.037   1.567 -0.2662 -0.5458 -3.9655
  351SOL     MW 1404   0.124   0.977   1.611 -0.1321 -0.8469 -0.6147
  352SOL     OW 1405   0.824   1.643   2.750  0.5341 -0.1446 -0.6525
  352SOL    HW1 1406   0.865   1.596   2.831 -1.3322 -0.1372  1.1395
  352SOL    HW2 1407   0.801   1.570   2.690  3.0017 -0.5406 -0.3427
  352SOL     MW 1408   0.827   1.627   2.753  0.6135 -0.1959 -0.3752
  353SOL     OW 1409   3.044   2.461   2.676  0.3506  0.3584  0.3092
  353SOL    HW1 1410   3.141   2.475   2.664  1.7326  1.4419 -0.9061
  353SOL    HW2 1411   2.993   2.534   2.649  2.3060  1.0433  0.6595
  353SOL     MW 1412   3.050   2.472   2.671  0.7909  0.5917  0.1951
  354SOL     OW 1413   0.382   2.465   0.839  0.1141  0.3684  0.0189
  354SOL    HW1 1414   0.386   2.437   0.933 -0.6600  1.2156  0.2614
  354SOL    HW2 1415   0.316   2.394   0.812  2.3553  1.2368 -0.2447
  354SOL     MW 1416   0.374   2.452   0.848  0.3077  0.5948  0.0161
  355SOL     OW 1417   0.034   2.197   0.416 -0.1929  0.4257  0.2525
  355SOL    HW1 1418  -0.035   2.129   0.407 -0.7802  0.5374 -0.3747
  355SOL    HW2 1419   0.024   2.252   0.492 -0.3931 -0.1607  1.0821
  355SOL     MW 1420   0.024   2.195   0.425 -0.2968  0.3630  0.2792
  356SOL     OW 1421   0.876   2.876   1.060  0.3967  0.1718  0.4201
  356SOL    HW1 1422   0.906   2.832   0.973 -0.6409 -3.0372 -0.4883
  356SOL    HW2 1423   0.782   2.856   1.075  2.8833  2.0340 -1.0051
  356SOL     MW 1424   0.868   2.868   1.050  0.5878 -0.0059  0.1122
  357SOL     OW 1425   1.757   2.930   0.355  0.5408  0.3470  0.0474
  357SOL    HW1 1426   1.717   2.857   0.416 -0.1894  0.0540  3.8083
  357SOL    HW2 1427   1.834   2.879   0.340 -2.1911  1.8027  0.5254
  357SOL     MW 1428   1.762   2.914   0.361  0.0840  0.5004  0.6067
  358SOL     OW 1429   0.392   0.096   1.065  0.6244 -0.5781  0.8324
  358SOL    HW1 1430   0.462   0.031   1.058  0.9715  0.9299  1.0845
  358SOL    HW2 1431   0.376   0.124   0.974  0.2433 -0.4456  1.0256
  358SOL     MW 1432   0.399   0.091   1.052  0.6199 -0.3616  0.8912
  359SOL     OW 1433   0.897   2.878   1.791 -0.0778 -0.4544  1.1241
  359SOL    HW1 1434   0.895   2.790   1.842 -1.9330 -0.8704 -1.9533
  359SOL    HW2 1435   0.960   2.863   1.724 -2.7386 -1.8954 -1.1566
  359SOL     MW 1436   0.905   2.865   1.789 -0.6737 -0.6994  0.4171
  360SOL     OW 1437   0.595   2.783   1.027 -0.2130  0.1776 -0.0649
  360SOL    HW1 1438   0.614   2.729   0.946  0.9063 -1.3200  0.3759
  360SOL    HW2 1439   0.572   2.705   1.083 -0.1351  0.1053  0.3596
  360SOL     MW 1440   0.595   2.766   1.024 -0.0551 -0.0295  0.0493
  361SOL     OW 1441   0.218   2.699   1.324 -0.1460  0.0836  0.4010
  361SOL    HW1 1442   0.182   2.772   1.375 -0.6459  1.1121 -2.2747
  361SOL    HW2 1443   0.310   2.679   1.337  1.3863  0.2598  1.4085
  361SOL     MW 1444   0.225   2.706   1.333 -0.0098  0.2425  0.1809
  362SOL     OW 1445   1.459   2.423   0.657 -0.3142  0.5265  0.4440
  362SOL    HW1 1446   1.455   2.331   0.696 -1.2251  2.0362 -0.5964
  362SOL    HW2 1447   1.497   2.481   0.723  1.0614 -1.3250 -0.1870
  362SOL     MW 1448   1.464   2.418   0.671 -0.2529  0.4814  0.2235
  363SOL     OW 1449   0.309   3.044   0.688  0.1542  0.5065 -0.5919
  363SOL    HW1 1450   0.319   2.995   0.775 -2.0203 -0.7162 -1.0406
  363SOL    HW2 1451   0.212   3.048   0.688  1.4668 -0.5022 -1.4438
  363SOL     MW 1452   0.298   3.038   0.699  0.0405  0.2121 -0.7635
  364SOL     OW 1453   0.756   0.199   0.244 -0.2309  1.0125 -0.1157
  364SOL    HW1 1454   0.699   0.129   0.282 -2.0186 -1.4398  1.0226
  364SOL    HW2 1455   0.701   0.240   0.175 -0.8166 -2.0046 -0.4016
  364SOL     MW 1456   0.741   0.195   0.240 -0.5441  0.2909 -0.0032
  365SOL     OW 1457   0.949   1.943   1.102 -0.4003  0.2412 -0.2095
  365SOL    HW1 1458   0.917   2.032   1.065  0.3858  1.0738 -0.5914
  365SOL    HW2 1459   0.908   1.879   1.039  0.4641 -1.1574 -0.8820
  365SOL     MW 1460   0.939   1.947   1.089 -0.1825  0.1665 -0.3486
  366SOL     OW 1461   2.879   2.617   1.014 -0.1228 -0.1303  0.9710
  366SOL    HW1 1462   2.950   2.651   1.069  0.2374  1.8637  2.8715
  366SOL    HW2 1463   2.897   2.639   0.919  1.4387  3.1812  0.3482
  366SOL     MW 1464   2.891   2.625   1.009  0.1308  0.5697  1.1396
  367SOL     OW 1465   1.229   2.815   0.890  0.1642  0.3294 -0.1088
  367SOL    HW1 1466   1.142   2.843   0.903 -0.9154  0.0206  1.4739
  367SOL    HW2 1467   1.222   2.774   0.802  0.0775  2.7440 -0.4878
  367SOL     MW 1468   1.217   2.813   0.880  0.0103  0.6072  0.0500
  368SOL     OW 1469   1.673   0.447   0.691  0.0288 -0.3635 -0.4993
  368SOL    HW1 1470   1.752   0.392   0.684 -1.6413  0.6136 -1.1823
  368SOL    HW2 1471   1.707   0.539   0.696  0.9191  1.7176  3.2528
  368SOL     MW 1472   1.688   0.452   0.691 -0.0741  0.0400 -0.0944
  369SOL     OW 1473   0.172   2.451   1.682  0.0209 -0.0215 -0.2032
  369SOL    HW1 1474   0.253   2.427   1.731  2.0890 -1.1316 -4.0480
  369SOL    HW2 1475   0.135   2.534   1.709  1.5465 -0.5558  1.4470
  369SOL     MW 1476   0.178   2.459   1.692  0.4951 -0.2384 -0.4928
  370SOL     OW 1477   0.756   0.071   1.008  0.0618  0.0281  0.0645
  370SOL    HW1 1478   0.797   0.160   1.013  0.0728  1.8381  2.2454
  370SOL    HW2 1479   0.833   0.011   1.009  0.5422 -1.9387 -0.7490
  370SOL     MW 1480   0.771   0.075   1.009  0.1266  0.0074  0.2449
  371SOL     OW 1481   1.340   2.986   1.509 -0.2675  0.6779 -0.0441
  371SOL    HW1 1482   1.297   2.909   1.475 -0.8114 -0.1091  0.4060
  371SOL    HW2 1483   1.329   3.055   1.447  0.2423  1.0562  2.1679
  371SOL     MW 1484   1.333   2.985   1.496 -0.2720  0.6240  0.3072
  372SOL     OW 1485   0.798   2.319   0.475 -0.6970  0.2441  0.4053
  372SOL    HW1 1486   0.778   2.225   0.495 -0.9590  1.3713  1.0868
  372SOL    HW2 1487   0.802   2.315   0.375  0.7936 -1.3798 -0.3227
  372SOL     MW 1488   0.796   2.306   0.465 -0.5349  0.1786  0.3992
  373SOL     OW 1489   2.790   3.019   1.388  0.0787  0.4321 -0.4040
  373SOL    HW1 1490   2.862   2.962   1.363  1.2561  1.7354 -2.2089
  373SOL    HW2 1491   2.796   3.100   1.332 -0.5069 -0.5000  0.1128
  373SOL     MW 1492   2.800   3.022   1.377  0.1568  0.4811 -0.5739
  374SOL     OW 1493   1.542   0.525   0.212  0.0663  0.1550 -0.2374
  374SOL    HW1 1494   1.623   0.568   0.220 -1.3064 -0.2047 -1.5512
  374SOL    HW2 1495   1.521   0.497   0.301 -0.8615 -1.1554 -2.4807
  374SOL     MW 1496   1.550   0.527   0.225 -0.2372 -0.0654 -0.7067
  375SOL     OW 1497   1.128   2.082   2.280 -0.2658  0.0711  0.1127
  375SOL    HW1 1498   1.154   2.102   2.370 -1.2619  0.2832 -2.5617
  375SOL    HW2 1499   1.103   1.990   2.280  0.5232 -0.2245 -0.2265
  375SOL     MW 1500   1.128   2.073   2.292 -0.2932  0.0601 -0.2849
  376SOL     OW 1501   0.704   2.515   0.048 -0.4174  0.2276  0.0412
  376SOL    HW1 1502   0.751   2.461   0.108  0.0596  0.5671 -0.1439
  376SOL    HW2 1503   0.658   2.454  -0.021 -0.5773 -0.3760  0.9556
  376SOL     MW 1504   0.704   2.499   0.047 -0.3755  0.1928  0.1374
  377SOL     OW 1505   1.314   1.991   0.851 -0.1149 -0.1885 -0.0902
  377SOL    HW1 1506   1.229   1.993   0.800 -0.3463  3.9191  0.1884
  377SOL    HW2 1507   1.287   1.957   0.938  0.9147 -0.2524  0.1987
  377SOL     MW 1508   1.299   1.987   0.856 -0.0096  0.3451 -0.0153
  378SOL     OW 1509   1.040   2.818   1.563 -0.1487  0.0432 -0.6025
  378SOL    HW1 1510   1.002   2.726   1.569 -1.9943  0.2544  0.3975
  378SOL    HW2 1511   0.973   2.868   1.515  0.5531  0.8193  0.4219
  378SOL     MW 1512   1.026   2.812   1.558 -0.2996  0.1735 -0.3354
  379SOL     OW 1513   1.130   1.804   2.283  0.1306 -0.5490  0.3169
  379SOL    HW1 1514   1.038   1.825   2.309 -1.4656 -1.3727  0.1142
  379SOL    HW2 1515   1.135   1.722   2.237  1.0502 -0.3369 -0.8424
  379SOL     MW 1516   1.118   1.796   2.281  0.0414 -0.6297  0.1372
  380SOL     OW 1517   0.856   0.056   1.546 -0.5487  0.4080  0.3721
  380SOL    HW1 1518   0.903   0.058   1.462  1.4036  1.9352 -1.5102
  380SOL    HW2 1519   0.912   0.098   1.617 -0.5080  0.7862  2.9180
  380SOL     MW 1520   0.870   0.062   1.544 -0.2858  0.6594  0.4597
  381SOL     OW 1521   0.804   1.983   0.774  0.1933  0.3979 -0.1734
  381SOL    HW1 1522   0.898   1.967   0.753 -0.0587  1.0281 -2.3141
  381SOL    HW2 1523   0.802   2.052   0.837 -0.7350  1.0682  0.4819
  381SOL     MW 1524   0.816   1.990   0.780  0.0376  0.5695 -0.3694
  382SOL     OW 1525   0.700   0.074   0.727 -0.3163  0.4284  0.0256
  382SOL    HW1 1526   0.692   0.054   0.821 -1.5762 -2.3228  1.8292
  382SOL    HW2 1527   0.679  -0.012   0.686  0.1452  2.3734 -3.3654
  382SOL     MW 1528   0.696   0.060   0.734 -0.4217  0.3221 -0.1839
  383SOL     OW 1529   0.471   0.035   0.353  0.4206 -0.3307  0.3856
  383SOL    HW1 1530   0.524  -0.012   0.293 -0.1342 -1.1261 -1.3527
  383SOL    HW2 1531   0.457  -0.030   0.418 -0.7104 -0.8154  0.0432
  383SOL     MW 1532   0.476   0.020   0.353  0.1982 -0.4996  0.1111
  384SOL     OW 1533   0.646   2.914   0.638 -0.3083  0.1114 -0.5754
  384SOL    HW1 1534   0.654   2.829   0.692 -1.9275 -1.9658  3.4500
  384SOL    HW2 1535   0.573   2.891   0.584  1.5482  0.8953 -1.2092
  384SOL     MW 1536   0.637   2.900   0.638 -0.2770 -0.0592 -0.1279
  385SOL     OW 1537   1.326   2.063   1.498  0.1962 -0.2168  0.0354
  385SOL    HW1 1538   1.401   2.070   1.560  0.7183  1.2033 -1.0977
  385SOL    HW2 1539   1.280   1.981   1.534  1.3646  1.9005 -0.9290
  385SOL     MW 1540   1.330   2.053   1.511  0.4192  0.2499 -0.2413
  386SOL     OW 1541   1.386   0.352   0.829 -0.5504  0.4780  0.3507
  386SOL    HW1 1542   1.303   0.354   0.788  3.5872  0.4668 -1.4160
  386SOL    HW2 1543   1.359   0.372   0.922 -1.6953 -1.3268  1.1958
  386SOL     MW 1544   1.371   0.355   0.836 -0.1555  0.2384  0.2291
  387SOL     OW 1545   0.834   2.215   1.446  0.2171 -0.0055 -0.0731
  387SOL    HW1 1546   0.919   2.238   1.408  0.5225 -0.1564 -0.5834
  387SOL    HW2 1547   0.833   2.118   1.440 -0.8683 -0.0899 -0.7411
  387SOL     MW 1548   0.845   2.205   1.440  0.1142 -0.0365 -0.2286
  388SOL     OW 1549   1.565   2.785   1.231 -0.0147 -0.4805 -0.0110
  388SOL    HW1 1550   1.483   2.738   1.236 -0.0464 -0.1068  0.3625
  388SOL    HW2 1551   1.633   2.717   1.208  0.4979 -0.3996 -0.8197
  388SOL     MW 1552   1.563   2.770   1.229  0.0487 -0.4206 -0.0684
  389SOL     OW 1553   0.353   0.024   3.041 -0.0886 -0.8833 -0.1714
  389SOL    HW1 1554   0.444   0.030   3.013 -0.5918 -0.2954  1.8558
  389SOL    HW2 1555   0.307   0.045   2.967  1.9735  0.1928  3.3835
  389SOL     MW 1556   0.359   0.028   3.027  0.1171 -0.6638  0.5651
  390SOL     OW 1557   1.284   0.059   0.634  0.5381  0.1100  0.7200
  390SOL    HW1 1558   1.363   0.091   0.590 -1.8551  2.7745 -1.4503
  390SOL    HW2 1559   1.300   0.042   0.729 -1.4779  0.9415  1.1589
  390SOL     MW 1560   1.297   0.061   0.641 -0.0437  0.5713  0.4916
  391SOL     OW 1561   0.275   2.244   1.442 -0.2629 -0.4830 -0.5347
  391SOL    HW1 1562   0.208   2.174   1.460 -1.9617 -0.1523  1.5178
  391SOL    HW2 1563   0.219   2.320   1.412 -0.5113 -0.1770 -0.2368
  391SOL     MW 1564   0.259   2.245   1.441 -0.5198 -0.3990 -0.2246
  392SOL     OW 1565   2.070   2.140   0.367  0.1142 -0.2940  0.3367
  392SOL    HW1 1566   2.097   2.187   0.446  3.5387 -0.7315  0.0462
  392SOL    HW2 1567   2.013   2.082   0.415 -2.0465 -0.8361  1.7592
  392SOL     MW 1568   2.066   2.139   0.384  0.2810 -0.4233  0.4861
  393SOL     OW 1569   0.177   3.027   2.760 -0.4442  0.4158 -1.1053
  393SOL    HW1 1570   0.223   3.108   2.747 -1.4132  2.3462 -0.8811
  393SOL    HW2 1571   0.079   3.053   2.733 -2.7763  0.2285  2.7214
  393SOL     MW 1572   0.170   3.041   2.755 -0.8798  0.6458 -0.5708
  394SOL     OW 1573   0.870   1.687   1.504 -0.2125 -0.2168  0.2312
  394SOL    HW1 1574   0.813   1.727   1.574 -0.7925 -1.2890  2.5836
  394SOL    HW2 1575   0.903   1.767   1.461  0.5046  1.6073 -1.4489
  394SOL     MW 1576   0.867   1.703   1.507 -0.1944 -0.1176  0.3199
  395SOL     OW 1577   0.967   2.866   2.641  0.7058  0.0567  0.3461
  395SOL    HW1 1578   1.017   2.947   2.674  2.4208  0.2833  1.7341
  395SOL    HW2 1579   1.038   2.815   2.591 -0.4233 -0.8104  0.1615
  395SOL     MW 1580   0.983   2.870   2.639  0.7831 -0.0278  0.5049
  396SOL     OW 1581   0.875   1.854   2.371 -0.3521  0.3987 -0.0222
  396SOL    HW1 1582   0.874   1.872   2.467  2.2515  0.5558 -0.6543
  396SOL    HW2 1583   0.807   1.785   2.355  2.5752  0.8171  0.8295
  396SOL     MW 1584   0.866   1.847   2.381  0.3777  0.4747  0.0068
  397SOL     OW 1585   1.048   2.374   1.341  0.1783 -0.1178 -0.7396
  397SOL    HW1 1586   1.074   2.400   1.251  3.2817 -4.4116 -1.6484
  397SOL    HW2 1587   1.134   2.366   1.393  1.0978  1.3050 -1.5928
  397SOL     MW 1588   1.063   2.376   1.336  0.7091 -0.4966 -0.9721
  398SOL     OW 1589   0.640   2.658   0.787 -0.5277 -0.1349 -0.0962
  398SOL    HW1 1590   0.574   2.628   0.732  2.8421 -0.6882  0.1538
  398SOL    HW2 1591   0.710   2.594   0.764 -1.0095 -0.0726 -0.1944
  398SOL     MW 1592   0.640   2.646   0.777 -0.1466 -0.1997 -0.0761
  399SOL     OW 1593   0.281   2.081   0.455 -0.5434  0.0543  0.1344
  399SOL    HW1 1594   0.188   2.116   0.437 -0.4292  1.9848 -1.7790
  399SOL    HW2 1595   0.339   2.099   0.376 -1.8954 -1.9062 -1.5574
  399SOL     MW 1596   0.276   2.088   0.442 -0.7067  0.0504 -0.3413
  400SOL     OW 1597   0.555   1.797   0.174  0.2216 -0.8170 -0.5526
  400SOL    HW1 1598   0.517   1.875   0.208  1.8996 -0.5460 -0.4900
  400SOL    HW2 1599   0.538   1.733   0.234 -0.1054  0.6642 -3.9997
  400SOL     MW 1600   0.548   1.799   0.186  0.3999 -0.5858 -0.9992
  401SOL     OW 1601   0.919   2.071   0.150 -0.0641  0.2387 -0.7882
  401SOL    HW1 1602   0.912   1.971   0.140 -2.3683 -1.0799  0.4277
  401SOL    HW2 1603   0.990   2.082   0.213  2.3008 -1.6404  1.9661
  401SOL     MW 1604   0.927   2.059   0.157 -0.0561 -0.1832 -0.2643
  402SOL     OW 1605   0.675   2.940   1.671 -0.1200 -0.1279  0.0487
  402SOL    HW1 1606   0.750   2.905   1.727  0.5897 -0.5430  1.2092
  402SOL    HW2 1607   0.701   3.028   1.652 -0.3329 -1.1713 -1.3288
  402SOL     MW 1608   0.688   2.947   1.676 -0.0545 -0.3204  0.0200
  403SOL     OW 1609   0.066   0.405   0.402  0.7249  0.4634 -0.2151
  403SOL    HW1 1610   0.131   0.411   0.467 -1.7988 -1.8680  0.3555
  403SOL    HW2 1611   0.103   0.364   0.327 -0.3970 -0.4130  2.7973
  403SOL     MW 1612   0.080   0.400   0.400  0.2439  0.0401  0.2576
  404SOL     OW 1613   0.972   2.829   0.818 -0.6786 -0.4903  0.0359
  404SOL    HW1 1614   1.023   2.775   0.759  0.4312  0.7419  1.5336
  404SOL    HW2 1615   0.961   2.913   0.771  2.9902  0.6887  0.5732
  404SOL     MW 1616   0.978   2.833   0.804 -0.0481 -0.1722  0.3044
  405SOL     OW 1617   0.522   2.405   1.529 -0.3043 -0.6710 -0.4637
  405SOL    HW1 1618   0.497   2.492   1.506  0.2446 -0.8779  0.7178
  405SOL    HW2 1619   0.440   2.352   1.502  0.1089  2.1730  2.2489
  405SOL     MW 1620   0.508   2.410   1.523 -0.1774 -0.3231  0.0501
  406SOL     OW 1621   0.353   2.359   1.106  0.0824  0.4422 -0.0394
  406SOL    HW1 1622   0.253   2.348   1.087 -2.8716  2.1217 -0.6177
  406SOL    HW2 1623   0.379   2.274   1.144 -2.1029  0.9594 -1.6012
  406SOL     MW 1624   0.343   2.346   1.108 -0.5957  0.7320 -0.3218
  407SOL     OW 1625   0.031   2.758   1.109 -0.4299  0.2326  0.5133
  407SOL    HW1 1626   0.098   2.747   1.173 -0.4289  0.8240  1.4087
  407SOL    HW2 1627   0.075   2.737   1.019  1.8064  0.3761 -0.6067
  407SOL     MW 1628   0.046   2.753   1.106 -0.1347  0.3296  0.4836
  408SOL     OW 1629   2.076   2.060   0.690 -0.0490 -0.2581  0.6592
  408SOL    HW1 1630   2.020   2.096   0.761 -2.2842  0.6951 -2.1166
  408SOL    HW2 1631   2.034   1.982   0.669  0.9460  3.3168 -1.3460
  408SOL     MW 1632   2.063   2.054   0.697 -0.2126  0.3394  0.0284
  409SOL     OW 1633   1.379   0.005   0.905 -0.2288 -0.7561 -0.0021
  409SOL    HW1 1634   1.444   0.065   0.872 -1.3071  1.4157 -1.3150
  409SOL    HW2 1635   1.431  -0.052   0.965  1.4785  0.5791  3.5029
  409SOL     MW 1636   1.395   0.005   0.909 -0.1458 -0.2934  0.2871
  410SOL     OW 1637   1.119   2.405   1.051  0.3887 -0.4582 -0.0669
  410SOL    HW1 1638   1.029   2.410   1.011 -1.1419  2.0816 -1.3174
  410SOL    HW2 1639   1.155   2.326   1.016  1.0182  1.0011  0.0842
  410SOL     MW 1640   1.112   2.395   1.041  0.2698  0.0695 -0.2120
  411SOL     OW 1641   1.973   0.038   2.855 -0.2932 -0.3200  0.0459
  411SOL    HW1 1642   1.906   0.003   2.793  1.8946  2.0291  0.5841
  411SOL    HW2 1643   1.924   0.088   2.924 -1.1580  0.6537  1.5969
  411SOL     MW 1644   1.957   0.040   2.856 -0.1187  0.1184  0.3215
  412SOL     OW 1645   1.051   2.233   0.591  0.0966  0.1443  0.4467
  412SOL    HW1 1646   1.101   2.305   0.633 -1.1229 -1.4964 -0.6251
  412SOL    HW2 1647   0.972   2.272   0.555 -0.6541 -3.9673 -1.0421
  412SOL     MW 1648   1.047   2.247   0.592 -0.1633 -0.6147  0.1088
  413SOL     OW 1649   0.545   2.764   0.024  0.5607 -0.1876 -0.3882
  413SOL    HW1 1650   0.600   2.686   0.031 -1.0055 -0.7842  1.2255
  413SOL    HW2 1651   0.555   2.815  -0.058  0.7196 -1.1919  2.0783
  413SOL     MW 1652   0.554   2.760   0.014  0.3750 -0.3988  0.1502
  414SOL     OW 1653   1.900   2.986   1.084 -0.3063 -0.0674  0.2818
  414SOL    HW1 1654   1.835   2.995   1.013 -0.7880  1.0848 -0.6225
  414SOL    HW2 1655   1.961   2.915   1.064  0.2549  3.1514 -0.1064
  414SOL     MW 1656   1.900   2.978   1.072 -0.2958  0.5093  0.1113
  415SOL     OW 1657   1.736   2.574   1.134 -0.1751 -0.0078 -0.3601
  415SOL    HW1 1658   1.694   2.503   1.195  1.1915 -0.5799  2.3287
  415SOL    HW2 1659   1.822   2.605   1.172 -0.5418 -0.3280  2.4912
  415SOL     MW 1660   1.742   2.569   1.147 -0.0432 -0.1256  0.3709
  416SOL     OW 1661   0.586   1.933   1.366  0.1609  0.3358  0.4421
  416SOL    HW1 1662   0.552   1.998   1.301  1.8256  0.3194  1.1943
  416SOL    HW2 1663   0.545   1.850   1.333 -1.0268 -0.9916  0.6593
  416SOL     MW 1664   0.576   1.931   1.353  0.2238  0.1585  0.5700
  417SOL     OW 1665   0.972   3.015   2.031 -0.2164 -0.1748 -0.0671
  417SOL    HW1 1666   0.889   3.014   2.083 -1.0769 -0.7966 -0.4405
  417SOL    HW2 1667   0.953   2.973   1.942 -2.8806 -1.4540 -1.0732
  417SOL     MW 1668   0.959   3.010   2.026 -0.6815 -0.4256 -0.2491
  418SOL     OW 1669   0.617   2.981   0.181 -0.8809 -0.7804 -0.0800
  418SOL    HW1 1670   0.696   3.008   0.129  1.7669  1.1571  0.8273
  418SOL    HW2 1671   0.575   2.907   0.141  1.0184  2.8457 -0.4637
  418SOL     MW 1672   0.622   2.975   0.169 -0.2810 -0.0464 -0.0110
  419SOL     OW 1673   0.459   2.632   1.395 -0.6684  0.0948  0.5458
  419SOL    HW1 1674   0.517   2.714   1.410  1.1036 -0.1462 -1.1758
  419SOL    HW2 1675   0.484   2.590   1.309  2.0030  1.9235 -1.5489
  419SOL     MW 1676   0.470   2.637   1.386 -0.0821  0.3043  0.0422
  420SOL     OW 1677   0.798   2.162   0.984  0.4786  0.5558  0.3459
  420SOL    HW1 1678   0.751   2.181   1.064  2.6738  0.7373 -1.2996
  420SOL    HW2 1679   0.821   2.250   0.962  2.9637 -1.5833 -1.0463
  420SOL     MW 1680   0.795   2.176   0.992  1.0961  0.2975 -0.0549
  421SOL     OW 1681   2.935   0.070   0.053  0.0966 -0.1574 -0.2833
  421SOL    HW1 1682   2.932   0.055  -0.041 -2.2077 -1.2614  0.3286
  421SOL    HW2 1683   2.960  -0.019   0.093  1.7218 -1.8513  0.8055
  421SOL     MW 1684   2.938   0.056   0.046  0.0070 -0.5265 -0.0589
  422SOL     OW 1685   0.864   2.420   0.940  0.4808 -0.3500 -0.6364
  422SOL    HW1 1686   0.783   2.457   0.971 -0.6154 -2.9664  1.5092
  422SOL    HW2 1687   0.871   2.455   0.853  1.0917  0.3676  0.2831
  422SOL     MW 1688   0.854   2.429   0.932  0.4168 -0.6006 -0.2320
  423SOL     OW 1689   1.511   0.147   0.498  0.4035  0.0843 -0.4347
  423SOL    HW1 1690   1.515   0.100   0.416 -2.5482  0.6829  0.5875
  423SOL    HW2 1691   1.525   0.237   0.458  2.1670  0.4006  0.5694
  423SOL     MW 1692   1.513   0.153   0.482  0.2467  0.2050 -0.1673
  424SOL     OW 1693   0.645   2.227   1.227  0.1114  0.1286 -0.1944
  424SOL    HW1 1694   0.554   2.205   1.250 -2.5913  0.2696  0.9282
  424SOL    HW2 1695   0.696   2.222   1.303  0.4746  0.6626 -1.6775
  424SOL     MW 1696   0.639   2.224   1.240 -0.1973  0.2176 -0.2419
  425SOL     OW 1697   1.709   2.830   1.924  0.0235  0.4469  0.3675
  425SOL    HW1 1698   1.745   2.834   1.828 -0.1246  0.0602 -2.4753
  425SOL    HW2 1699   1.747   2.746   1.963 -1.5568 -0.3936  1.3457
  425SOL     MW 1700   1.718   2.820   1.916 -0.2045  0.2850  0.1215
  426SOL     OW 1701   0.805   1.659   1.937  0.0527 -0.2427 -0.2916
  426SOL    HW1 1702   0.745   1.676   1.867  0.0090 -1.0208  2.2650
  426SOL    HW2 1703   0.769   1.727   1.996  1.4066 -1.2361 -2.3831
  426SOL     MW 1704   0.792   1.670   1.935  0.2256 -0.4764 -0.2302
  427SOL     OW 1705   0.356   1.532   1.901  0.2935 -0.0322  0.1386
  427SOL    HW1 1706   0.428   1.465   1.910 -2.0948  0.8214 -0.3857
  427SOL    HW2 1707   0.269   1.491   1.914 -2.3693 -0.3423 -0.3825
  427SOL     MW 1708   0.354   1.518   1.904 -0.3729  0.0395  0.0007
  428SOL     OW 1709   0.553   2.545   1.148  0.6818 -0.2175  0.1862
  428SOL    HW1 1710   0.637   2.518   1.186  0.8319  0.0214  0.2650
  428SOL    HW2 1711   0.491   2.470   1.151 -0.1947 -0.1090  0.3264
  428SOL     MW 1712   0.556   2.531   1.154  0.5860 -0.1717  0.2151
  429SOL     OW 1713   1.311   2.629   1.058 -0.3166  0.0792 -0.0375
  429SOL    HW1 1714   1.232   2.579   1.068  0.0988  0.4157 -0.2011
  429SOL    HW2 1715   1.280   2.716   1.017 -0.9368  1.3938  0.3155
  429SOL     MW 1716   1.297   2.634   1.054 -0.3436  0.2970 -0.0125
  430SOL     OW 1717   1.140   2.695   0.659  0.2865  0.3846  0.5441
  430SOL    HW1 1718   1.144   2.603   0.688  0.5930  0.6561  1.6990
  430SOL    HW2 1719   1.062   2.700   0.604  3.0493  2.2181  0.5840
  430SOL     MW 1720   1.130   2.684   0.655  0.6914  0.6623  0.7018
  431SOL     OW 1721   0.322   1.909   1.132  0.3193 -0.8149  0.3360
  431SOL    HW1 1722   0.392   1.837   1.129  0.6514  0.1697  0.0731
  431SOL    HW2 1723   0.342   1.943   1.043 -0.2443 -2.4775 -1.3256
  431SOL     MW 1724   0.334   1.904   1.120  0.2888 -0.9043  0.0821
  432SOL     OW 1725   0.017   0.111   1.156  0.0288 -0.4230 -0.0141
  432SOL    HW1 1726   0.009   0.139   1.250 -2.6078  0.5287  1.8936
  432SOL    HW2 1727  -0.052   0.042   1.134  1.4054 -0.4626 -1.2774
  432SOL     MW 1728   0.007   0.105   1.166 -0.1374 -0.3027  0.0709
  433SOL     OW 1729   0.602   2.866   1.436  0.3925 -0.4043  0.0422
  433SOL    HW1 1730   0.633   2.900   1.525 -1.5742  0.7987 -1.2703
  433SOL    HW2 1731   0.682   2.883   1.386 -1.5852  2.5779  0.6342
  433SOL     MW 1732   0.616   2.873   1.441 -0.1279  0.1479 -0.0528
  434SOL     OW 1733   1.582   2.833   1.523  0.2532 -0.0794 -0.7848
  434SOL    HW1 1734   1.489   2.857   1.547 -0.2762  1.2470  1.3340
  434SOL    HW2 1735   1.592   2.838   1.430  1.2013 -0.0736 -1.9912
  434SOL     MW 1736   1.571   2.836   1.514  0.3084  0.0964 -0.6644
  435SOL     OW 1737   2.838   1.775   0.170 -0.0759  0.1628  0.6150
  435SOL    HW1 1738   2.891   1.840   0.123  1.0285 -1.9567  0.0645
  435SOL    HW2 1739   2.816   1.708   0.105 -2.1894 -0.1047 -1.5977
  435SOL     MW 1740   2.842   1.775   0.155 -0.2090 -0.1521  0.2504
  436SOL     OW 1741   1.320   2.731   0.298 -0.6562  0.0967 -0.2452
  436SOL    HW1 1742   1.370   2.703   0.376 -1.4507 -0.1122  0.9508
  436SOL    HW2 1743   1.273   2.813   0.331 -2.5983  0.1215  2.1920
  436SOL     MW 1744   1.320   2.738   0.312 -1.0172  0.0724  0.2341
  437SOL     OW 1745   0.880   2.902   1.353  0.2740 -0.2192 -0.3406
  437SOL    HW1 1746   0.889   2.990   1.313 -0.8281 -0.9453 -1.2831
  437SOL    HW2 1747   0.933   2.840   1.302  1.5398 -0.5417 -1.3256
  437SOL     MW 1748   0.888   2.905   1.341  0.2956 -0.3575 -0.5949
  438SOL     OW 1749   0.905   2.626   1.929 -0.1716 -0.2881  0.3858
  438SOL    HW1 1750   0.880   2.583   2.009 -0.7715  0.5347 -2.1487
  438SOL    HW2 1751   0.856   2.591   1.854 -1.8716  1.0269 -0.1264
  438SOL     MW 1752   0.896   2.616   1.930 -0.4751 -0.0060 -0.0161
  439SOL     OW 1753   1.110   2.128   0.354 -0.5151  0.2030  0.4668
  439SOL    HW1 1754   1.076   2.151   0.442 -2.2258 -1.8332 -1.4975
  439SOL    HW2 1755   1.123   2.223   0.331 -0.5747  0.7405 -0.7996
  439SOL     MW 1756   1.107   2.143   0.363 -0.7487  0.0053  0.0406
  440SOL     OW 1757   1.612   2.899   3.038  0.6667 -0.1685  0.0965
  440SOL    HW1 1758   1.559   2.882   3.113  2.2187  1.9407  1.9666
  440SOL    HW2 1759   1.660   2.818   3.027  2.5142 -2.2240  0.6290
  440SOL     MW 1760   1.611   2.886   3.046  1.1152 -0.1614  0.4135
  441SOL     OW 1761   0.326   2.612   0.532  0.4860  0.2850 -0.5643
  441SOL    HW1 1762   0.334   2.578   0.440 -1.8949  0.3976 -1.0243
  441SOL    HW2 1763   0.345   2.703   0.533 -0.6062  0.5314  2.2820
  441SOL     MW 1764   0.329   2.620   0.520  0.0277  0.3324 -0.2495
  442SOL     OW 1765   3.047   2.340   0.619  0.4533  0.0548 -0.3936
  442SOL    HW1 1766   3.076   2.435   0.606 -1.5778  1.1572  0.2485
  442SOL    HW2 1767   2.966   2.334   0.670  1.3052 -0.4130 -0.4112
  442SOL     MW 1768   3.040   2.352   0.624  0.2977  0.1385 -0.3112
  443SOL     OW 1769   1.418   1.777   1.840 -0.2201 -0.5483  0.1251
  443SOL    HW1 1770   1.382   1.806   1.758 -1.4206  3.0821 -0.2781
  443SOL    HW2 1771   1.383   1.693   1.862 -3.2329  2.8004  0.6234
  443SOL     MW 1772   1.409   1.770   1.832 -0.7760  0.3725  0.1376
  444SOL     OW 1773   0.910   2.590   1.550  0.2673 -0.2608  0.5292
  444SOL    HW1 1774   0.947   2.503   1.544 -1.7417  2.6464 -4.6930
  444SOL    HW2 1775   0.859   2.587   1.633  0.2557 -1.0111  0.5357
  444SOL     MW 1776   0.908   2.578   1.560  0.0007  0.0238 -0.1589
  445SOL     OW 1777   0.932   0.060   1.289 -0.2285  0.0011 -0.2220
  445SOL    HW1 1778   0.914   0.158   1.284 -2.3551  2.2400 -1.2446
  445SOL    HW2 1779   1.012   0.051   1.232  0.7615  0.3210 -1.1181
  445SOL     MW 1780   0.941   0.072   1.281 -0.3784  0.3387 -0.4752
  446SOL     OW 1781   2.683   2.810   1.090  0.0012  0.6286 -0.3083
  446SOL    HW1 1782   2.655   2.849   1.005  0.4414  1.4402 -0.6793
  446SOL    HW2 1783   2.740   2.731   1.069 -2.0626 -1.7992  0.4323
  446SOL     MW 1784   2.687   2.805   1.076 -0.2130  0.4154 -0.2596
  447SOL     OW 1785   3.031   2.044   1.692 -0.5738  0.8849 -0.4766
  447SOL    HW1 1786   3.103   1.982   1.720 -0.7147 -0.0136 -1.0329
  447SOL    HW2 1787   2.959   2.009   1.633  0.0246  0.2266 -0.1029
  447SOL     MW 1788   3.031   2.031   1.688 -0.5134  0.6795 -0.5007
  448SOL     OW 1789   1.692   2.383   1.693 -0.1835 -0.0486  0.1403
  448SOL    HW1 1790   1.645   2.303   1.717  0.8055 -1.6620 -0.3638
  448SOL    HW2 1791   1.627   2.455   1.690  3.8412 -2.7905  1.9124
  448SOL     MW 1792   1.677   2.382   1.696  0.4780 -0.6232  0.3076
  449SOL     OW 1793   0.774   2.933   0.415 -0.7166 -1.1244 -0.2893
  449SOL    HW1 1794   0.708   2.932   0.343  0.1798 -2.1131 -1.3301
  449SOL    HW2 1795   0.728   2.917   0.498  2.4373 -0.2974 -0.8363
  449SOL     MW 1796   0.759   2.931   0.417 -0.1822 -1.1458 -0.4988
  450SOL     OW 1797   1.181   2.437   0.707  0.0552 -0.0634 -0.0591
  450SOL    HW1 1798   1.200   2.384   0.787 -0.9338 -0.6826 -2.2775
  450SOL    HW2 1799   1.276   2.461   0.693 -2.1554 -2.0877 -0.2618
  450SOL     MW 1800   1.196   2.433   0.716 -0.3669 -0.4122 -0.3786
  451SOL     OW 1801   0.581   2.006   1.647  0.2328  0.3229 -0.3591
  451SOL    HW1 1802   0.634   2.080   1.658 -0.7039 -2.0076  0.0149
  451SOL    HW2 1803   0.581   1.987   1.553 -0.0213 -3.5827 -0.2476
  451SOL     MW 1804   0.588   2.013   1.636  0.0757 -0.4998 -0.2950
  452SOL     OW 1805   0.280   2.744   0.068  0.1584 -0.2161 -0.4419
  452SOL    HW1 1806   0.366   2.731   0.040 -3.7446  2.1765 -0.2663
  452SOL    HW2 1807   0.236   2.761  -0.018  2.3253  0.8624 -2.5444
  452SOL     MW 1808   0.286   2.745   0.053 -0.0707  0.2418 -0.6961
  453SOL     OW 1809   0.421   3.005   1.704 -0.3927  0.2794  0.5576
  453SOL    HW1 1810   0.518   2.974   1.693  1.0492 -2.5951 -0.0053
  453SOL    HW2 1811   0.394   3.002   1.612 -1.7390  0.3911  0.0459
  453SOL     MW 1812   0.430   3.000   1.690 -0.3801 -0.0851  0.4158
  454SOL     OW 1813   1.011   2.704   1.209  0.7080 -0.1388  0.6385
  454SOL    HW1 1814   0.951   2.643   1.251  1.2900 -0.3932 -0.7097
  454SOL    HW2 1815   0.963   2.755   1.142  0.5012  0.4290  0.0101
  454SOL     MW 1816   0.997   2.702   1.205  0.7575 -0.0974  0.3777
  455SOL     OW 1817   1.535   2.938   0.214 -0.3156 -0.4185 -0.1547
  455SOL    HW1 1818   1.626   2.935   0.251  0.2233 -3.7962  0.7492
  455SOL    HW2 1819   1.494   2.858   0.234 -1.7923 -1.5799 -0.9518
  455SOL     MW 1820   1.542   2.927   0.221 -0.4393 -1.0174 -0.1406
  456SOL     OW 1821   2.874   0.373   1.319  0.0229 -0.2853  0.3307
  456SOL    HW1 1822   2.856   0.284   1.280 -0.2680 -1.2465 -3.0485
  456SOL    HW2 1823   2.933   0.402   1.250  0.5282  0.2418  0.9221
  456SOL     MW 1824   2.880   0.365   1.305  0.0512 -0.3426 -0.0371
  457SOL     OW 1825   0.916   1.571   2.991  0.0678  0.2917  0.3349
  457SOL    HW1 1826   0.823   1.571   3.021  2.4833  0.2593 -1.6386
  457SOL    HW2 1827   0.965   1.492   3.029  1.3982 -0.0098 -1.4632
  457SOL     MW 1828   0.910   1.560   3.000  0.5620  0.2476 -0.1627
  458SOL     OW 1829   1.460   1.415   0.616  0.3873 -0.1676 -0.2137
  458SOL    HW1 1830   1.388   1.450   0.669 -1.0581  1.8485 -1.9203
  458SOL    HW2 1831   1.410   1.351   0.554 -1.3889 -0.2246 -2.4749
  458SOL     MW 1832   1.444   1.411   0.615 -0.0378  0.0909 -0.7372
  459SOL     OW 1833   1.561   0.114   0.233 -0.0956  0.2828  0.1754
  459SOL    HW1 1834   1.531   0.025   0.209 -2.1562  0.5596 -0.6658
  459SOL    HW2 1835   1.501   0.180   0.189 -0.4277 -1.3314  0.4227
  459SOL     MW 1836   1.549   0.111   0.224 -0.4113  0.1064  0.0970
  460SOL     OW 1837   1.782   2.151   0.655  0.7092 -0.3326  0.1570
  460SOL    HW1 1838   1.681   2.145   0.677  0.6440  2.3898 -1.7914
  460SOL    HW2 1839   1.796   2.084   0.591 -2.4864 -1.4461  1.3710
  460SOL     MW 1840   1.770   2.141   0.649  0.2790 -0.1203  0.0601
  461SOL     OW 1841   0.526   2.423   0.617 -0.7505  0.1396  0.4755
  461SOL    HW1 1842   0.458   2.482   0.582 -0.6534  1.1069  2.5513
  461SOL    HW2 1843   0.510   2.427   0.713 -0.6190 -1.0271 -1.7157
  461SOL     MW 1844   0.515   2.431   0.625 -0.7204  0.1133  0.4603
  462SOL     OW 1845   0.325   0.243   1.272  0.6544  0.1401 -0.0487
  462SOL    HW1 1846   0.353   0.193   1.183  0.4774 -0.3195 -1.2987
  462SOL    HW2 1847   0.405   0.271   1.302 -0.8131 -0.4295  0.5695
  462SOL     MW 1848   0.339   0.240   1.264  0.4374  0.0043 -0.1321
  463SOL     OW 1849   0.954  -0.001   0.683 -0.7285 -0.1409 -0.3424
  463SOL    HW1 1850   0.971   0.026   0.595  0.7900 -0.2444 -0.5459
  463SOL    HW2 1851   0.865   0.025   0.698  1.0066 -0.0967 -1.5232
  463SOL     MW 1852   0.944   0.006   0.674 -0.2992 -0.1487 -0.5250
  464SOL     OW 1853   0.756   3.018   2.224 -0.0514  0.1598  0.4282
  464SOL    HW1 1854   0.729   2.916   2.226  0.9395  2.4194 -1.3122
  464SOL    HW2 1855   0.834   3.028   2.277  0.6168  3.6531 -0.5114
  464SOL     MW 1856   0.763   3.006   2.232  0.1675  0.9188  0.0746
  465SOL     OW 1857   0.689   0.311   0.522 -0.7328 -0.3756 -0.4214
  465SOL    HW1 1858   0.684   0.266   0.607 -2.2891  0.8993  1.3636
  465SOL    HW2 1859   0.738   0.259   0.461 -0.8576  0.1024 -0.5773
  465SOL     MW 1860   0.695   0.298   0.525 -0.9546 -0.1444 -0.2065
  466SOL     OW 1861   1.075   2.008   0.737  0.2663  0.5619  0.2410
  466SOL    HW1 1862   1.086   1.934   0.675  0.4567  1.3717 -2.0414
  466SOL    HW2 1863   1.076   2.091   0.684  2.5658  0.9678  0.4954
  466SOL     MW 1864   1.076   2.009   0.722  0.5948  0.7223 -0.0266
  467SOL     OW 1865   1.257   2.250   0.903  0.0517  0.2579 -0.2317
  467SOL    HW1 1866   1.348   2.290   0.924 -1.0063  2.1803  3.5648
  467SOL    HW2 1867   1.269   2.158   0.914  0.9469  1.5490 -0.0647
  467SOL     MW 1868   1.270   2.243   0.907  0.0302  0.6819  0.2912
  468SOL     OW 1869   0.353   2.586   2.013  0.3869  0.0852  0.1488
  468SOL    HW1 1870   0.365   2.508   1.952  0.8641  0.3435 -1.7038
  468SOL    HW2 1871   0.402   2.661   1.971 -2.3868 -0.9304 -0.4089
  468SOL     MW 1872   0.361   2.585   1.999  0.0839 -0.0147 -0.1692
  469SOL     OW 1873   0.385   2.127   1.785  0.3229  0.0912 -0.5145
  469SOL    HW1 1874   0.309   2.069   1.771 -0.3370 -2.2261 -0.4238
  469SOL    HW2 1875   0.455   2.072   1.752  0.6264  0.0051  1.2112
  469SOL     MW 1876   0.384   2.112   1.779  0.2759 -0.2259 -0.2748
  470SOL     OW 1877   3.047   2.606   0.133  0.6360  0.5549  0.2803
  470SOL    HW1 1878   2.966   2.559   0.153  0.7346 -1.3177  1.6539
  470SOL    HW2 1879   3.049   2.614   0.037  1.1893  3.0118 -0.2727
  470SOL     MW 1880   3.037   2.601   0.123  0.7220  0.6320  0.3886
  471SOL     OW 1881   1.238   2.723   1.401 -0.3197 -0.2497 -0.4015
  471SOL    HW1 1882   1.162   2.757   1.451  0.0429  1.7194  0.9004
  471SOL    HW2 1883   1.191   2.698   1.320 -3.8234 -0.6834 -0.6272
  471SOL     MW 1884   1.222   2.724   1.397 -0.7341 -0.0471 -0.2595
  472SOL     OW 1885   2.879   2.066   0.380  0.1349 -0.2254  0.1811
  472SOL    HW1 1886   2.891   2.082   0.279  0.2876 -1.4171 -0.4287
  472SOL    HW2 1887   2.885   1.971   0.408  0.2341 -1.4470  1.0063
  472SOL     MW 1888   2.881   2.055   0.371  0.1682 -0.5438  0.2095
  473SOL     OW 1889   0.796   2.515   1.286 -0.5809 -0.9399  0.8280
  473SOL    HW1 1890   0.838   2.432   1.272  1.1420 -0.8938  0.2216
  473SOL    HW2 1891   0.818   2.545   1.382 -0.0092 -3.8292  0.1378
  473SOL     MW 1892   0.804   2.508   1.297 -0.2781 -1.3151  0.6570
  474SOL     OW 1893   0.762   2.261   1.708  0.3330  0.1913 -0.6423
  474SOL    HW1 1894   0.849   2.257   1.743  0.4680 -0.0423  0.2280
  474SOL    HW2 1895   0.773   2.249   1.618  1.8539  0.9214 -0.3797
  474SOL     MW 1896   0.775   2.259   1.701  0.5515  0.2568 -0.4928
  475SOL     OW 1897   1.616   0.055   1.460  0.0238  0.3758  0.3976
  475SOL    HW1 1898   1.554   0.082   1.396  0.5518 -2.2470  0.1089
  475SOL    HW2 1899   1.577  -0.026   1.489 -0.4178  0.4377 -1.3814
  475SOL     MW 1900   1.603   0.048   1.455  0.0352  0.0379  0.1248
  476SOL     OW 1901   1.501   2.643   0.850 -0.0459 -0.4838  0.3198
  476SOL    HW1 1902   1.441   2.658   0.929 -0.7930  1.1389  3.8672
  476SOL    HW2 1903   1.493   2.729   0.805  1.2557  0.0138 -2.2100
  476SOL     MW 1904   1.492   2.657   0.854  0.0272 -0.2041  0.4541
  477SOL     OW 1905   0.833   2.499   0.689 -0.3986  0.2365 -0.5207
  477SOL    HW1 1906   0.848   2.577   0.621 -1.3773  2.0253 -2.3385
  477SOL    HW2 1907   0.804   2.436   0.622 -0.2598 -0.4937 -0.6776
  477SOL     MW 1908   0.831   2.501   0.671 -0.5094  0.3762 -0.7813
  478SOL     OW 1909   0.188   2.641   0.902 -0.3902 -0.3948 -0.2464
  478SOL    HW1 1910   0.222   2.729   0.897  0.5323  1.4227 -3.1254
  478SOL    HW2 1911   0.250   2.571   0.891  2.8270  1.1803 -0.7920
  478SOL     MW 1912   0.201   2.643   0.900  0.1560  0.0529 -0.6983
  479SOL     OW 1913   1.443   1.930   1.298 -0.3378 -0.3393  0.1341
  479SOL    HW1 1914   1.402   1.968   1.376  1.7682  0.0730  1.6882
  479SOL    HW2 1915   1.530   1.907   1.330 -0.6162  1.2542 -1.4806
  479SOL     MW 1916   1.449   1.932   1.312 -0.0967 -0.0746  0.1261
  480SOL     OW 1917   1.851   2.387   1.373  0.0547  0.0281  0.5448
  480SOL    HW1 1918   1.867   2.300   1.408  0.1373 -0.4628  1.3820
  480SOL    HW2 1919   1.877   2.382   1.283 -1.2265 -1.4395  1.3255
  480SOL     MW 1920   1.857   2.375   1.366 -0.1035 -0.2303  0.7583
  481SOL     OW 1921   1.181   0.101   1.109  0.0529 -0.3520 -0.4582
  481SOL    HW1 1922   1.217   0.070   1.026 -1.4370 -0.8828  1.4612
  481SOL    HW2 1923   1.183   0.198   1.105 -0.1613  1.8026  2.1375
  481SOL     MW 1924   1.186   0.110   1.098 -0.1719 -0.1378  0.1375
  482SOL     OW 1925   0.965   0.022   0.401 -0.0098 -0.0239  0.1449
  482SOL    HW1 1926   0.899  -0.045   0.396 -1.2395  0.8770 -1.8102
  482SOL    HW2 1927   0.930   0.098   0.355  0.9348 -0.3727 -1.6535
  482SOL     MW 1928   0.952   0.023   0.394 -0.0474  0.0489 -0.3503
  483SOL     OW 1929   0.416   2.865   0.516  0.1296  0.4376  0.3976
  483SOL    HW1 1930   0.340   2.864   0.456 -0.5939 -0.5456 -1.2962
  483SOL    HW2 1931   0.384   2.920   0.591  0.4498  0.1266 -1.7741
  483SOL     MW 1932   0.402   2.872   0.518  0.0764  0.2668 -0.1124
  484SOL     OW 1933   1.686   1.893   1.423  0.0897 -0.2624 -0.0142
  484SOL    HW1 1934   1.737   1.969   1.392  1.6303  0.6096 -0.8272
  484SOL    HW2 1935   1.697   1.898   1.516 -0.3886  0.0703 -0.2191
  484SOL     MW 1936   1.694   1.904   1.431  0.2299 -0.1035 -0.1485
  485SOL     OW 1937   0.557   2.329   0.312  0.2002  0.3441 -0.6523
  485SOL    HW1 1938   0.592   2.365   0.387  0.5049 -2.9542 -1.0933
  485SOL    HW2 1939   0.551   2.410   0.269 -3.7740  2.9320 -1.5420
  485SOL     MW 1940   0.561   2.344   0.316 -0.2839  0.2504 -0.8279
  486SOL     OW 1941   0.091   2.464   1.416  0.1568  0.4857 -0.7304
  486SOL    HW1 1942   0.127   2.547   1.387  2.0680 -2.4845 -0.0109
  486SOL    HW2 1943   0.118   2.466   1.506 -0.9324 -1.7905 -2.0596
  486SOL     MW 1944   0.099   2.475   1.424  0.2652 -0.2065 -0.8108
  487SOL     OW 1945   1.258   1.600   1.043  0.4218 -0.6290  0.9230
  487SOL    HW1 1946   1.224   1.695   1.034 -2.4598  0.3686 -0.1263
  487SOL    HW2 1947   1.351   1.608   1.005  1.5844  1.6486 -0.3419
  487SOL     MW 1948   1.266   1.614   1.037  0.1950 -0.1969  0.6177
  488SOL     OW 1949   1.554   1.856   0.566  0.3542 -0.0808  0.5356
  488SOL    HW1 1950   1.630   1.911   0.545  0.9662 -2.4725  0.7099
  488SOL    HW2 1951   1.484   1.897   0.516  1.6696  1.9105  1.4007
  488SOL     MW 1952   1.555   1.869   0.557  0.6085 -0.1336  0.6727
  489SOL     OW 1953   0.771   0.799   0.487  0.2373  0.2634  0.0077
  489SOL    HW1 1954   0.785   0.711   0.454 -1.0738 -1.5135 -1.1119
  489SOL    HW2 1955   0.761   0.782   0.579 -1.2028 -1.3047 -1.1189
  489SOL     MW 1956   0.772   0.785   0.495 -0.1257 -0.1780 -0.2887
  490SOL     OW 1957   1.404   2.110   0.433  0.2393 -0.1194  0.3594
  490SOL    HW1 1958   1.447   2.185   0.387 -0.6978  2.1551 -0.7546
  490SOL    HW2 1959   1.317   2.091   0.390  0.4287  0.1922 -0.4459
  490SOL     MW 1960   1.398   2.117   0.421  0.1406  0.2218  0.1062
  491SOL     OW 1961   1.215   2.961   0.410 -0.5753  0.1881  0.1052
  491SOL    HW1 1962   1.235   3.018   0.485  1.3117  1.2258  0.4362
  491SOL    HW2 1963   1.130   2.991   0.398  1.1664  0.3278  0.9899
  491SOL     MW 1964   1.207   2.973   0.418 -0.0965  0.3434  0.2656
  492SOL     OW 1965   1.475   2.142   0.679  0.5386 -0.4163  0.2707
  492SOL    HW1 1966   1.431   2.144   0.588  0.5234 -1.0697 -1.6589
  492SOL    HW2 1967   1.433   2.082   0.743 -0.7132  0.1178  0.7135
  492SOL     MW 1968   1.464   2.135   0.675  0.3714 -0.4321  0.0746
  493SOL     OW 1969   0.166   2.940   0.430 -0.1890 -0.1419 -0.7348
  493SOL    HW1 1970   0.105   2.996   0.483 -1.2488 -1.3561 -1.2846
  493SOL    HW2 1971   0.175   2.985   0.342 -0.3563 -1.7642 -1.3551
  493SOL     MW 1972   0.159   2.954   0.425 -0.3509 -0.5162 -0.8892
  494SOL     OW 1973   0.431   2.407   1.790  0.4347  0.1541 -0.3307
  494SOL    HW1 1974   0.411   2.311   1.811 -0.9264 -0.8784  2.1691
  494SOL    HW2 1975   0.459   2.410   1.703  1.4506  0.0768  2.8924
  494SOL     MW 1976   0.432   2.395   1.781  0.3891  0.0077  0.4243
  495SOL     OW 1977   2.923   1.636   2.732  0.1841 -0.1118 -0.2602
  495SOL    HW1 1978   2.889   1.712   2.773 -0.0576 -1.8158 -0.4026
  495SOL    HW2 1979   2.936   1.567   2.796  0.3813  0.8530 -0.3668
  495SOL     MW 1980   2.920   1.637   2.746  0.1782 -0.2093 -0.2931
  496SOL     OW 1981   2.801   2.292   2.643  0.3081  0.0392 -0.3778
  496SOL    HW1 1982   2.825   2.219   2.697 -0.3778  0.9715  1.1649
  496SOL    HW2 1983   2.886   2.333   2.630  1.8695 -0.3445  1.4573
  496SOL     MW 1984   2.815   2.288   2.649  0.4236  0.1116  0.0679
  497SOL     OW 1985   1.497   2.303   2.493  0.2313  0.0415 -0.0447
  497SOL    HW1 1986   1.489   2.268   2.403  2.5862 -0.0432  1.1533
  497SOL    HW2 1987   1.438   2.243   2.545 -3.8359 -0.9032  0.4056
  497SOL     MW 1988   1.488   2.291   2.488  0.0054 -0.0944  0.1728
  498SOL     OW 1989   1.591   2.752   2.224  0.4466  0.1073  0.0998
  498SOL    HW1 1990   1.614   2.659   2.232  0.7479 -2.4581 -0.1086
  498SOL    HW2 1991   1.637   2.793   2.301 -1.4995 -1.2401 -0.3398
  498SOL     MW 1992   1.600   2.745   2.235  0.2296 -0.4089  0.0143
  499SOL     OW 1993   0.914   0.145   0.017  0.5803  0.2344 -0.2660
  499SOL    HW1 1994   0.862   0.188   0.084 -0.0067  0.7961  1.1684
  499SOL    HW2 1995   0.888   0.055   0.020 -0.9307 -1.7849 -1.7700
  499SOL     MW 1996   0.904   0.139   0.026  0.3035  0.0421 -0.2751
  500SOL     OW 1997   1.037   2.457   2.783  0.2625 -0.2255  0.7092
  500SOL    HW1 1998   1.067   2.457   2.874 -1.3641 -1.3127  0.7926
  500SOL    HW2 1999   0.993   2.541   2.789  0.6145 -1.4429  2.4703
  500SOL     MW 2000   1.035   2.468   2.796  0.0943 -0.5296  0.9526
  501SOL     OW 2001   1.724   2.224   3.092  0.0858 -0.2909 -0.6717
  501SOL    HW1 2002   1.705   2.318   3.112  0.3099 -0.5287  0.1084
  501SOL    HW2 2003   1.820   2.217   3.093 -0.0067  1.3061 -0.0948
  501SOL     MW 2004   1.734   2.235   3.095  0.1032 -0.1116 -0.4927
  502SOL     OW 2005   0.146   2.781   2.923 -0.3019 -0.0322  0.1231
  502SOL    HW1 2006   0.092   2.731   2.865 -0.3504 -0.4908  0.7919
  502SOL    HW2 2007   0.176   2.852   2.869 -3.4640  0.8213 -1.5188
  502SOL     MW 2008   0.143   2.784   2.908 -0.7255  0.0199 -0.0052
  503SOL     OW 2009   1.161   2.608   2.095 -0.2214  0.1058 -0.1864
  503SOL    HW1 2010   1.231   2.586   2.026  3.3991  0.7617 -1.0295
  503SOL    HW2 2011   1.079   2.614   2.044 -0.7400 -0.3468  1.4751
  503SOL     MW 2012   1.160   2.606   2.079  0.1879  0.1326 -0.0784
  504SOL     OW 2013   0.086   2.647   2.075  0.0386  0.0514 -0.2144
  504SOL    HW1 2014   0.165   2.644   2.025 -0.9509  0.5279 -1.0880
  504SOL    HW2 2015   0.078   2.562   2.113 -1.4709 -0.0248  0.7012
  504SOL     MW 2016   0.095   2.636   2.074 -0.2911  0.1042 -0.2089
  505SOL     OW 2017   1.650   2.671   2.740 -0.5741  0.2262  0.1031
  505SOL    HW1 2018   1.709   2.676   2.657  2.7072  1.0838 -0.4374
  505SOL    HW2 2019   1.586   2.741   2.722  0.9734 -1.0944  0.3116
  505SOL     MW 2020   1.649   2.681   2.727  0.0630  0.1651  0.0593
  506SOL     OW 2021   1.578   0.027   2.853 -0.3809  0.2172 -0.4502
  506SOL    HW1 2022   1.633   0.006   2.927  2.0146 -1.2678  0.4237
  506SOL    HW2 2023   1.633  -0.008   2.783  1.0206  0.6273 -1.6313
  506SOL     MW 2024   1.593   0.019   2.853  0.1201  0.0753 -0.4907
  507SOL     OW 2025   0.871   2.680   2.850 -0.3607  0.1788 -0.0818
  507SOL    HW1 2026   0.923   2.740   2.794  1.7966 -2.2269  2.1504
  507SOL    HW2 2027   0.788   2.654   2.811 -1.2954  2.5197 -0.6695
  507SOL     MW 2028   0.867   2.685   2.837 -0.1994  0.1703  0.1352
  508SOL     OW 2029   1.230   2.120   2.544  0.4696  0.2093 -0.5581
  508SOL    HW1 2030   1.296   2.124   2.616  2.6481 -1.3741  1.5186
  508SOL    HW2 2031   1.142   2.131   2.587  2.2172 -2.3956 -1.4780
  508SOL     MW 2032   1.227   2.122   2.559  0.9876 -0.3433 -0.4055
  509SOL     OW 2033   0.592   2.609   2.817  0.3967  0.1614 -0.1182
  509SOL    HW1 2034   0.592   2.574   2.731 -0.4034  1.8806 -0.1862
  509SOL    HW2 2035   0.557   2.696   2.816  1.2286  1.5752 -0.7670
  509SOL     MW 2036   0.588   2.616   2.806  0.4009  0.5748 -0.2128
  510SOL     OW 2037   1.517   2.606   1.667  0.8614 -0.2089 -0.2087
  510SOL    HW1 2038   1.543   2.698   1.622  0.5298  0.0644 -0.0504
  510SOL    HW2 2039   1.473   2.624   1.747  0.8685  2.4290  2.1686
  510SOL     MW 2040   1.514   2.621   1.671  0.8186  0.1752  0.1259
  511SOL     OW 2041   0.326   2.579   2.549  0.5297  0.5160  0.1378
  511SOL    HW1 2042   0.415   2.537   2.573 -0.5408  1.2291  0.0808
  511SOL    HW2 2043   0.322   2.582   2.451  0.0582  2.0860  0.0832
  511SOL     MW 2044   0.337   2.574   2.539  0.3262  0.8173  0.1231
  512SOL     OW 2045   1.010   2.011   2.889  0.2772  0.0864 -0.0374
  512SOL    HW1 2046   0.936   2.067   2.913 -1.5189 -1.1509  0.1957
  512SOL    HW2 2047   1.031   1.954   2.964  0.5186  0.0069 -0.1839
  512SOL     MW 2048   1.003   2.011   2.902  0.0721 -0.0874 -0.0260
  513SOL     OW 2049   1.679   2.477   2.183  0.4082 -0.5629  0.3666
  513SOL    HW1 2050   1.745   2.506   2.109  3.0904  0.1422 -3.0998
  513SOL    HW2 2051   1.728   2.445   2.259  1.3925 -1.3350  2.6496
  513SOL     MW 2052   1.694   2.477   2.183  0.8919 -0.5717  0.2105
  514SOL     OW 2053   0.198   2.363   2.658  0.1727  0.2542  0.0047
  514SOL    HW1 2054   0.255   2.435   2.617 -0.8564  3.6025  0.7534
  514SOL    HW2 2055   0.238   2.343   2.741  3.1070  1.4436 -1.1617
  514SOL     MW 2056   0.211   2.370   2.663  0.4241  0.8529 -0.0504
  515SOL     OW 2057   1.077   2.003   1.909 -0.1009 -0.0296  0.0715
  515SOL    HW1 2058   1.076   2.094   1.912  1.5655 -1.4425 -0.4380
  515SOL    HW2 2059   1.157   1.974   1.964 -1.3012  1.7653  1.8802
  515SOL     MW 2060   1.088   2.011   1.916 -0.0394  0.0208  0.2429
  516SOL     OW 2061   1.385   2.519   2.956 -0.4456 -0.2898  0.0945
  516SOL    HW1 2062   1.400   2.499   2.860  4.0276 -0.0893 -0.6435
  516SOL    HW2 2063   1.298   2.482   2.976  2.4543 -3.5485  2.1790
  516SOL     MW 2064   1.376   2.512   2.946  0.5272 -0.6933  0.2722
  517SOL     OW 2065   0.623   2.369   2.268 -0.0937 -0.1368 -0.2586
  517SOL    HW1 2066   0.544   2.417   2.307 -0.6483 -0.0451  2.9216
  517SOL    HW2 2067   0.592   2.316   2.193  2.6263 -0.8307 -5.5124
  517SOL     MW 2068   0.609   2.369   2.263  0.1920 -0.2162 -0.5322
  518SOL     OW 2069   1.792   0.019   3.088  0.9214  0.1234  0.3425
  518SOL    HW1 2070   1.759   0.082   3.149 -2.9080 -0.6655 -0.3272
  518SOL    HW2 2071   1.730  -0.051   3.099 -1.3301  3.3231 -0.0266
  518SOL     MW 2072   1.779   0.018   3.098  0.1191  0.4415  0.2054
  519SOL     OW 2073   0.718   2.546   1.744  0.0675  0.6983 -0.7884
  519SOL    HW1 2074   0.717   2.450   1.722 -0.4169 -1.9824 -0.0691
  519SOL    HW2 2075   0.625   2.557   1.766 -1.4290 -1.4567  2.5783
  519SOL     MW 2076   0.706   2.535   1.744 -0.1939  0.0602 -0.2493
  520SOL     OW 2077   1.220   2.202   2.945 -0.0268  0.1949  0.1227
  520SOL    HW1 2078   1.150   2.134   2.911 -0.1505 -0.2330 -0.6950
  520SOL    HW2 2079   1.276   2.158   3.016 -0.8163 -0.4618 -0.0385
  520SOL     MW 2080   1.218   2.188   2.950 -0.1473  0.0518 -0.0064
  521SOL     OW 2081   1.765   2.064   2.241 -0.1199  0.2281  0.4703
  521SOL    HW1 2082   1.754   2.056   2.146  0.7273 -2.8627 -0.1961
  521SOL    HW2 2083   1.775   1.971   2.273  2.3039 -0.4489 -0.1425
  521SOL     MW 2084   1.765   2.050   2.233  0.3117 -0.2691  0.3015
  522SOL     OW 2085   2.907   2.516   2.273  0.0746  0.0097 -0.0108
  522SOL    HW1 2086   2.980   2.473   2.306 -0.2195  1.2446 -0.7043
  522SOL    HW2 2087   2.929   2.607   2.280 -0.9734 -0.5269 -1.3769
  522SOL     MW 2088   2.920   2.523   2.278 -0.1025  0.1019 -0.2825
  523SOL     OW 2089   0.898   1.515   2.138  0.0688  0.0566  0.2103
  523SOL    HW1 2090   0.874   1.576   2.060  1.9409  2.6465  0.3716
  523SOL    HW2 2091   0.937   1.448   2.082 -1.0488  0.6359 -2.0662
  523SOL     MW 2092   0.900   1.514   2.120  0.1684  0.4747 -0.0688
  524SOL     OW 2093   0.598   2.361   2.946  0.3850  0.5312 -0.1361
  524SOL    HW1 2094   0.620   2.440   2.896  1.5044  0.4428 -1.4907
  524SOL    HW2 2095   0.667   2.303   2.928 -0.4513  3.7654  0.0115
  524SOL     MW 2096   0.610   2.364   2.937  0.4224  0.9462 -0.2954
  525SOL     OW 2097   0.455   2.192   2.113  0.5873  0.3403  0.2013
  525SOL    HW1 2098   0.461   2.118   2.175 -0.3888 -4.4694 -0.3978
  525SOL    HW2 2099   0.526   2.171   2.045 -1.7397 -0.8858  1.7947
  525SOL     MW 2100   0.465   2.180   2.112  0.1515 -0.4561  0.3325
  526SOL     OW 2101   0.694   2.156   1.967  0.0761 -0.3067  0.9694
  526SOL    HW1 2102   0.713   2.209   1.884 -0.1481  2.0897 -1.5804
  526SOL    HW2 2103   0.759   2.188   2.038 -0.6927  0.5390 -2.8572
  526SOL     MW 2104   0.705   2.167   1.965 -0.0549  0.1211  0.1281
  527SOL     OW 2105   1.289   1.914   2.052  0.2418 -0.2411  0.2016
  527SOL    HW1 2106   1.256   1.871   2.135 -0.8550 -1.3052  1.0174
  527SOL    HW2 2107   1.333   1.856   1.996  0.2897  0.0472 -1.9870
  527SOL     MW 2108   1.291   1.900   2.056  0.1034 -0.3435  0.0205
  528SOL     OW 2109   0.646   2.916   2.936  0.1519  0.4409  0.2567
  528SOL    HW1 2110   0.635   3.010   2.946  0.2056  0.3120 -0.3577
  528SOL    HW2 2111   0.655   2.904   2.838 -1.0313  1.1673 -1.6574
  528SOL     MW 2112   0.646   2.927   2.925  0.0028  0.5197 -0.0769
  529SOL     OW 2113   0.971   2.274   1.906 -0.6483  1.1765 -0.4118
  529SOL    HW1 2114   1.010   2.275   1.995  0.3861  4.3622 -2.8979
  529SOL    HW2 2115   1.030   2.338   1.860 -0.3406 -0.3763 -0.3428
  529SOL     MW 2116   0.984   2.283   1.912 -0.4712  1.3919 -0.7307
  530SOL     OW 2117   1.141   2.461   3.033  0.0183 -0.0190 -0.4113
  530SOL    HW1 2118   1.089   2.452   3.113  2.4397  1.4606 -1.7088
  530SOL    HW2 2119   1.172   2.369   3.022 -0.0274  0.0397 -0.0534
  530SOL     MW 2120   1.138   2.448   3.042  0.3317  0.1840 -0.5353
  531SOL     OW 2121   0.911   1.899   2.654  0.7683  0.5084  0.0964
  531SOL    HW1 2122   0.936   1.941   2.739  1.2789  2.9951 -0.7806
  531SOL    HW2 2123   0.876   1.811   2.668 -2.1026 -0.4891 -0.7233
  531SOL     MW 2124   0.910   1.893   2.667  0.4569  0.7048 -0.1275
  532SOL     OW 2125   1.696   0.287   2.819 -0.0676 -0.2557  0.0913
  532SOL    HW1 2126   1.690   0.201   2.860  0.0795  1.9051 -1.9892
  532SOL    HW2 2127   1.789   0.315   2.844  0.6835 -0.0345  1.8957
  532SOL     MW 2128   1.707   0.279   2.828  0.0509  0.0586  0.0548
  533SOL     OW 2129   1.773   2.644   2.977  0.7452  0.0053  0.5603
  533SOL    HW1 2130   1.707   2.580   3.012  1.4132 -2.8222 -0.0473
  533SOL    HW2 2131   1.745   2.666   2.886 -1.4852  1.0638 -0.1939
  533SOL     MW 2132   1.761   2.638   2.970  0.5391 -0.2281  0.3807
  534SOL     OW 2133   1.737   2.426   2.474  0.6827 -0.6674  0.7428
  534SOL    HW1 2134   1.676   2.362   2.507 -0.7702 -1.8295 -3.0132
  534SOL    HW2 2135   1.817   2.418   2.539 -2.7301 -0.7395  2.0519
  534SOL     MW 2136   1.740   2.417   2.487  0.0408 -0.8303  0.4200
  535SOL     OW 2137   1.825   2.337   1.901 -0.3519  0.2077 -0.0042
  535SOL    HW1 2138   1.767   2.366   1.829  0.9549  0.3964  0.4562
  535SOL    HW2 2139   1.914   2.364   1.871  2.2117 -0.0160  0.5462
  535SOL     MW 2140   1.829   2.344   1.887  0.1587  0.2031  0.1291
  536SOL     OW 2141   0.455   1.787   1.993  0.2475  0.2496  0.4636
  536SOL    HW1 2142   0.426   1.744   1.913 -0.1038  2.8509  0.7700
  536SOL    HW2 2143   0.544   1.818   1.975 -0.0701 -0.1171 -0.5729
  536SOL     MW 2144   0.463   1.785   1.980  0.1592  0.5444  0.3673
  537SOL     OW 2145   1.084   0.197   2.896  0.3601 -0.2776  0.0417
  537SOL    HW1 2146   1.017   0.184   2.961  0.7769  1.4278  0.7849
  537SOL    HW2 2147   1.097   0.289   2.885 -1.1298 -3.4589  0.9494
  537SOL     MW 2148   1.077   0.207   2.903  0.2185 -0.4723  0.2595
  538SOL     OW 2149   1.316   0.009   2.978  0.0205  0.0848  0.0685
  538SOL    HW1 2150   1.262   0.074   2.939  0.7352  0.2884 -1.7150
  538SOL    HW2 2151   1.396   0.010   2.926  0.5009 -1.9034  1.0488
  538SOL     MW 2152   1.319   0.018   2.966  0.1782 -0.1507 -0.0375
  539SOL     OW 2153   0.782   2.730   2.500  0.2524  0.1030 -0.0646
  539SOL    HW1 2154   0.839   2.785   2.552 -2.4400  1.7414  0.3475
  539SOL    HW2 2155   0.813   2.645   2.494  0.7018  2.2398 -0.7212
  539SOL     MW 2156   0.793   2.726   2.506 -0.0436  0.6011 -0.0968
  540SOL     OW 2157   0.337   2.254   2.879  0.0683 -0.1984  0.7329
  540SOL    HW1 2158   0.421   2.301   2.892  1.6624 -1.3545  0.4245
  540SOL    HW2 2159   0.312   2.220   2.966 -1.6458 -2.2634 -1.5957
  540SOL     MW 2160   0.345   2.256   2.892  0.0525 -0.6234  0.3850
  541SOL     OW 2161   0.149   2.889   2.187 -0.2078  0.5459 -0.3728
  541SOL    HW1 2162   0.128   2.811   2.133  0.3715  0.0025  0.5569
  541SOL    HW2 2163   0.194   2.851   2.267 -1.1566  0.6306  1.1999
  541SOL     MW 2164   0.152   2.874   2.190 -0.2566  0.4854 -0.0426
  542SOL     OW 2165   0.965   2.213   2.648  0.3907  0.2647 -1.0472
  542SOL    HW1 2166   0.902   2.175   2.708  0.3829 -1.8426  3.6520
  542SOL    HW2 2167   0.998   2.287   2.700  1.7712 -0.0821  0.7693
  542SOL     MW 2168   0.961   2.218   2.663  0.5718 -0.0591 -0.1875
  543SOL     OW 2169   1.435   2.512   2.672 -0.0559 -0.1588  0.2359
  543SOL    HW1 2170   1.444   2.439   2.616  0.4815  0.3961 -1.0736
  543SOL    HW2 2171   1.519   2.559   2.671  1.2924 -0.0687 -1.8816
  543SOL     MW 2172   1.447   2.508   2.665  0.1929 -0.0737 -0.2162
  544SOL     OW 2173   0.572   0.220   2.730 -0.2974  0.1345  0.0364
  544SOL    HW1 2174   0.477   0.180   2.734  0.8033 -3.1268 -0.0679
  544SOL    HW2 2175   0.613   0.172   2.656  1.7221  1.3498  0.3369
  544SOL     MW 2176   0.565   0.208   2.720  0.1142 -0.1354  0.0623
  545SOL     OW 2177   1.503   2.162   2.251  0.0099  0.2351 -0.0085
  545SOL    HW1 2178   1.486   2.174   2.156 -2.4048 -0.0358 -0.7393
  545SOL    HW2 2179   1.596   2.130   2.272  1.1679 -0.4159  1.6689
  545SOL     MW 2180   1.513   2.159   2.241 -0.1559  0.1134  0.1164
  546SOL     OW 2181   2.971   2.002   0.110  0.0470  0.3971  0.0373
  546SOL    HW1 2182   2.978   2.080   0.060 -2.2283  0.8616  0.1430
  546SOL    HW2 2183   3.055   1.959   0.097 -0.7728  0.0303  2.5858
  546SOL     MW 2184   2.983   2.007   0.102 -0.3613  0.4100  0.3875
  547SOL     OW 2185   0.191   3.010   0.156 -0.1208  0.1465  0.8764
  547SOL    HW1 2186   0.220   3.074   0.086  0.8015 -0.5464  1.7258
  547SOL    HW2 2187   0.223   2.926   0.124  0.1202 -1.8727  1.7179
  547SOL     MW 2188   0.199   3.007   0.143  0.0327 -0.2113  1.0995
  548SOL     OW 2189   0.319   2.530   0.271 -0.4731 -0.0051  0.3917
  548SOL    HW1 2190   0.293   2.606   0.218  0.8443 -0.9862  1.2052
  548SOL    HW2 2191   0.250   2.469   0.263  2.4076  0.6766 -0.6678
  548SOL     MW 2192   0.307   2.532   0.263  0.0808 -0.0446  0.3592
  549SOL     OW 2193   0.709   1.894   2.086 -0.0090 -0.1721 -0.0299
  549SOL    HW1 2194   0.711   1.968   2.028 -0.0517 -1.7228  2.1398
  549SOL    HW2 2195   0.739   1.920   2.168 -0.4980 -2.1553 -1.0040
  549SOL     MW 2196   0.713   1.907   2.089 -0.0792 -0.6383  0.1279
  550SOL     OW 2197   1.846   1.769   2.537 -0.3309  0.1312  0.0804
  550SOL    HW1 2198   1.831   1.779   2.440  1.9200 -2.3458 -0.2454
  550SOL    HW2 2199   1.865   1.862   2.560  0.1230 -2.7857 -0.8484
  550SOL     MW 2200   1.847   1.782   2.527  0.0260 -0.5805 -0.0852
  551SOL     OW 2201   0.874   2.341   0.198 -0.0238  0.1764 -0.2767
  551SOL    HW1 2202   0.963   2.375   0.206 -2.2725 -1.6690  0.5492
  551SOL    HW2 2203   0.879   2.250   0.162 -1.5058  0.0612 -1.1966
  551SOL     MW 2204   0.887   2.333   0.194 -0.5160 -0.0823 -0.2891
  552SOL     OW 2205   1.766   1.773   2.273 -0.8207 -0.4646 -0.4729
  552SOL    HW1 2206   1.670   1.743   2.284 -0.5908 -0.4591 -0.7029
  552SOL    HW2 2207   1.796   1.711   2.191 -1.6059 -1.4957 -3.2636
  552SOL     MW 2208   1.757   1.761   2.264 -0.8939 -0.6000 -0.8714
  553SOL     OW 2209   1.251   2.331   1.518  0.1586 -0.3350 -0.6320
  553SOL    HW1 2210   1.257   2.234   1.505 -3.9099 -0.0427  0.8466
  553SOL    HW2 2211   1.334   2.371   1.486  1.7061  0.2958 -0.2580
  553SOL     MW 2212   1.263   2.323   1.512 -0.1740 -0.2132 -0.3876
  554SOL     OW 2213   0.599   2.855   2.662 -0.0989  0.0915  0.2605
  554SOL    HW1 2214   0.536   2.919   2.617  0.2435  0.9781 -0.3254
  554SOL    HW2 2215   0.654   2.811   2.593 -0.0906 -1.6090  1.1079
  554SOL     MW 2216   0.598   2.858   2.647 -0.0526 -0.0159  0.2950
  555SOL     OW 2217   0.584   2.451   2.591  0.2048  0.9686  0.0572
  555SOL    HW1 2218   0.558   2.359   2.596  3.5033 -1.8104 -0.9956
  555SOL    HW2 2219   0.658   2.444   2.539 -0.2201 -3.3011 -0.9411
  555SOL     MW 2220   0.590   2.438   2.585  0.5839  0.0386 -0.2134
  556SOL     OW 2221   0.948   1.813   0.168 -0.1859  0.1732  0.0905
  556SOL    HW1 2222   0.985   1.792   0.082 -2.4521 -0.3244 -1.3020
  556SOL    HW2 2223   1.025   1.849   0.219  1.1458 -1.2862  1.5080
  556SOL     MW 2224   0.963   1.815   0.163 -0.3092 -0.0850  0.0938
  557SOL     OW 2225   0.905   2.685   0.504  0.2991 -0.2814  0.3004
  557SOL    HW1 2226   0.954   2.657   0.423 -0.0175 -3.4760 -0.4190
  557SOL    HW2 2227   0.861   2.762   0.479 -1.2271  1.9381 -0.1407
  557SOL     MW 2228   0.906   2.691   0.490  0.0559 -0.4100  0.1472
  558SOL     OW 2229   0.261   2.199   0.059 -0.2119  0.2984 -0.1165
  558SOL    HW1 2230   0.188   2.141   0.068  1.6333 -0.1584 -1.9291
  558SOL    HW2 2231   0.230   2.270   0.113 -1.4204 -0.5014 -0.2676
  558SOL     MW 2232   0.247   2.201   0.067 -0.1279  0.1326 -0.3756
  559SOL     OW 2233   1.149   2.299   2.106 -0.4452  0.1414  0.0392
  559SOL    HW1 2234   1.150   2.383   2.146  1.6545 -0.3754 -2.5068
  559SOL    HW2 2235   1.147   2.232   2.173  0.8808 -2.4863  1.8513
  559SOL     MW 2236   1.149   2.301   2.120  0.0068 -0.2735 -0.0576
  560SOL     OW 2237   1.947   2.805   0.044 -0.3937  0.1591  0.4070
  560SOL    HW1 2238   2.002   2.864   0.000 -1.6188  0.3803 -0.3593
  560SOL    HW2 2239   1.883   2.763  -0.013 -2.4587 -1.9407  2.8908
  560SOL     MW 2240   1.946   2.807   0.031 -0.8278 -0.0888  0.6336
  561SOL     OW 2241   0.448   2.090   0.243  0.4878  0.9023  0.2219
  561SOL    HW1 2242   0.394   2.122   0.169 -2.2972  1.3114  1.4650
  561SOL    HW2 2243   0.483   2.166   0.283 -2.3091 -3.9678 -1.9055
  561SOL     MW 2244   0.446   2.105   0.239 -0.2487  0.3137  0.1052
  562SOL     OW 2245   0.849   2.214   2.195 -0.9194 -0.0061  0.7053
  562SOL    HW1 2246   0.839   2.307   2.209  0.8483 -1.4329 -0.1806
  562SOL    HW2 2247   0.933   2.186   2.224 -1.0617 -1.5002  0.7011
  562SOL     MW 2248   0.859   2.222   2.201 -0.7050 -0.3915  0.5879
  563SOL     OW 2249   1.181   0.305   0.596 -0.6113  0.6315  0.3499
  563SOL    HW1 2250   1.122   0.302   0.519 -0.4714 -0.5791 -0.5785
  563SOL    HW2 2251   1.221   0.218   0.606  0.3318  1.3361  0.2495
  563SOL     MW 2252   1.178   0.293   0.587 -0.4684  0.5647  0.2142
  564SOL     OW 2253   1.094   2.542   2.352 -0.1022 -0.2520 -0.4407
  564SOL    HW1 2254   1.111   2.576   2.259 -0.6804  0.1120 -0.2334
  564SOL    HW2 2255   1.150   2.599   2.414  0.6820 -1.3588 -0.3935
  564SOL     MW 2256   1.104   2.554   2.348 -0.0751 -0.3500 -0.4071
  565SOL     OW 2257   2.882   2.658   2.581  0.0362 -0.3183 -0.2652
  565SOL    HW1 2258   2.941   2.732   2.546  1.7441  1.9863  1.3709
  565SOL    HW2 2259   2.809   2.638   2.521  1.1513 -2.0299  4.0992
  565SOL     MW 2260   2.880   2.665   2.568  0.4087 -0.2401  0.5265
  566SOL     OW 2261   2.200   1.884   2.397 -1.0320 -0.0090  0.3174
  566SOL    HW1 2262   2.235   1.889   2.309 -0.7493 -2.8850  0.4826
  566SOL    HW2 2263   2.236   1.967   2.437  0.9356  0.3163 -0.3876
  566SOL     MW 2264   2.210   1.895   2.391 -0.7351 -0.3455  0.2462
  567SOL     OW 2265   1.123   2.931   3.094  0.3967  0.6511 -0.8579
  567SOL    HW1 2266   1.177   3.008   3.083 -1.5020 -0.8777 -0.5879
  567SOL    HW2 2267   1.137   2.875   3.016 -0.6674  1.0319 -3.1007
  567SOL     MW 2268   1.132   2.933   3.082  0.0058  0.4997 -1.1182
  568SOL     OW 2269   1.621   2.014   2.922 -0.5514  0.0459  0.2094
  568SOL    HW1 2270   1.659   2.087   2.972  0.9792 -0.8567 -1.3427
  568SOL    HW2 2271   1.694   2.005   2.853  0.9700 -0.5373 -2.6195
  568SOL     MW 2272   1.635   2.022   2.919 -0.1487 -0.1501 -0.3686
  569SOL     OW 2273   0.225   2.210   2.431  0.0536  0.1093  0.0807
  569SOL    HW1 2274   0.164   2.259   2.364 -0.3730  0.7039 -0.1993
  569SOL    HW2 2275   0.212   2.266   2.511  0.1090 -0.6349 -0.5068
  569SOL     MW 2276   0.215   2.224   2.433  0.0046  0.0896 -0.0338
  570SOL     OW 2277   1.475   0.454   0.491  0.0821 -0.3264 -0.0680
  570SOL    HW1 2278   1.393   0.403   0.511  0.7380  0.2650  1.1170
  570SOL    HW2 2279   1.521   0.476   0.576  1.6389 -0.9590  0.3033
  570SOL     MW 2280   1.470   0.450   0.505  0.3741 -0.3319  0.1374
  571SOL     OW 2281   1.492   2.426   1.997 -0.1841  0.3046  0.2922
  571SOL    HW1 2282   1.556   2.420   2.066  0.9412 -2.2604 -2.0126
  571SOL    HW2 2283   1.467   2.334   1.980  0.4638  1.9321 -3.7862
  571SOL     MW 2284   1.497   2.413   2.004  0.0499  0.1809 -0.5500
  572SOL     OW 2285   0.910   2.670   0.074  0.1912 -0.4154 -0.2638
  572SOL    HW1 2286   0.945   2.698  -0.011  0.1897  2.5402 -1.2719
  572SOL    HW2 2287   0.827   2.627   0.054 -0.5914 -1.8918  1.1036
  572SOL     MW 2288   0.904   2.668   0.060  0.0878 -0.2202 -0.2164
  573SOL     OW 2289   1.146   2.363   0.245 -0.1089  0.1711  0.5605
  573SOL    HW1 2290   1.236   2.368   0.199 -1.4860  0.6044  1.3616
  573SOL    HW2 2291   1.131   2.455   0.284  0.7667  1.2991  2.4205
  573SOL     MW 2292   1.156   2.376   0.244 -0.1751  0.3771  0.9116
  574SOL     OW 2293   1.064   2.613   0.298 -0.4233 -0.3806 -0.1629
  574SOL    HW1 2294   1.151   2.664   0.316  0.8265  0.8255 -0.1662
  574SOL    HW2 2295   1.022   2.651   0.219 -1.6172 -0.5599  0.9574
  574SOL     MW 2296   1.070   2.624   0.290 -0.4159 -0.2451 -0.0155
  575SOL     OW 2297   3.074   2.291   1.795  0.1683  0.0945 -0.1042
  575SOL    HW1 2298   3.061   2.218   1.739  0.1083 -0.2257 -0.5821
  575SOL    HW2 2299   3.153   2.334   1.758  0.0135  0.8615  1.4469
  575SOL     MW 2300   3.082   2.287   1.783  0.1400  0.1534  0.0374
  576SOL     OW 2301   2.814   1.843   2.018 -0.0572 -0.1052 -0.1923
  576SOL    HW1 2302   2.844   1.930   1.981 -2.7356  1.1172 -3.1932
  576SOL    HW2 2303   2.726   1.844   1.976 -0.1734  0.5350 -2.2642
  576SOL     MW 2304   2.806   1.854   2.007 -0.4259  0.1406 -0.8616
  577SOL     OW 2305   2.094   0.314   0.074  0.7026  0.0508  0.0709
  577SOL    HW1 2306   2.030   0.334   0.004 -1.1805 -0.7193  2.8503
  577SOL    HW2 2307   2.055   0.249   0.132 -1.0103 -2.0315  0.1226
  577SOL     MW 2308   2.081   0.308   0.073  0.2281 -0.3255  0.4445
  578SOL     OW 2309   1.979   2.013   2.476 -0.1671 -0.0948 -0.2623
  578SOL    HW1 2310   1.943   2.064   2.398 -0.9268  0.6776  0.0396
  578SOL    HW2 2311   2.046   1.958   2.438 -2.1260 -0.2203 -0.7163
  578SOL     MW 2312   1.983   2.013   2.461 -0.5258 -0.0095 -0.2824
  579SOL     OW 2313   0.888   2.461   2.492 -0.1817  0.2489 -0.0904
  579SOL    HW1 2314   0.915   2.385   2.542 -1.1175  1.1185  1.1054
  579SOL    HW2 2315   0.977   2.493   2.458 -0.6372  3.0150  0.0670
  579SOL     MW 2316   0.903   2.456   2.494 -0.3653  0.7286  0.0881
  580SOL     OW 2317   0.864   2.978   0.039  0.3358  0.2176 -0.5108
  580SOL    HW1 2318   0.956   2.942   0.049  1.1885 -0.9506  0.6943
  580SOL    HW2 2319   0.844   2.931  -0.045 -0.7210  0.1761 -2.6277
  580SOL     MW 2320   0.873   2.967   0.029  0.3089  0.0580 -0.6311
  581SOL     OW 2321   1.109   2.427   1.743  0.3594  0.3556  0.5840
  581SOL    HW1 2322   1.162   2.495   1.788  0.7316 -1.4431  3.7726
  581SOL    HW2 2323   1.170   2.382   1.681 -2.5218 -0.2901 -0.0761
  581SOL     MW 2324   1.124   2.430   1.740  0.0284  0.0331  0.9176
  582SOL     OW 2325   3.084   2.823   2.510  0.5354  0.5029  0.1619
  582SOL    HW1 2326   3.043   2.910   2.543 -1.5551  0.1906  0.4375
  582SOL    HW2 2327   3.178   2.827   2.508 -0.9833  2.9679  1.0797
  582SOL     MW 2328   3.091   2.835   2.514  0.0592  0.7869  0.3194
  583SOL     OW 2329   1.941   2.428   2.642 -0.1073 -0.4050  0.1805
  583SOL    HW1 2330   2.028   2.457   2.611  0.4047 -1.1947  2.0081
  583SOL    HW2 2331   1.948   2.336   2.682  1.0781  0.0049 -2.1952
  583SOL     MW 2332   1.953   2.420   2.643  0.1167 -0.4551  0.1082
  584SOL     OW 2333   0.204   1.892   2.043  0.3288  0.1002 -0.1915
  584SOL    HW1 2334   0.296   1.877   2.016  2.6621  1.3997 -1.4541
  584SOL    HW2 2335   0.216   1.961   2.103 -1.2300 -1.5421  1.4079
  584SOL     MW 2336   0.217   1.899   2.048  0.4310  0.0550 -0.1471
  585SOL     OW 2337   1.467   2.674   0.064 -0.3154 -0.1901  0.5420
  585SOL    HW1 2338   1.417   2.657  -0.013 -0.7124 -0.9265 -2.6772
  585SOL    HW2 2339   1.409   2.685   0.142  1.3810  1.1851 -0.3775
  585SOL     MW 2340   1.453   2.673   0.064 -0.1440 -0.1058 -0.0041
  586SOL     OW 2341   1.374   2.832   2.414  0.1020 -0.0159  0.9088
  586SOL    HW1 2342   1.432   2.799   2.344  0.3484 -0.3854 -0.6557
  586SOL    HW2 2343   1.389   2.921   2.416  0.4712 -2.8813  0.9678
  586SOL     MW 2344   1.384   2.840   2.405  0.1832 -0.4427  0.7102
  587SOL     OW 2345   1.282   1.565   2.133  0.0763  0.2994 -0.0733
  587SOL    HW1 2346   1.298   1.495   2.201  0.5449 -0.9804  0.1916
  587SOL    HW2 2347   1.263   1.514   2.049 -1.4949  1.3796  1.3454
  587SOL     MW 2348   1.282   1.549   2.131 -0.0691  0.2730  0.1488
  588SOL     OW 2349   1.409   2.168   2.745  0.0749 -0.3185 -0.0095
  588SOL    HW1 2350   1.488   2.150   2.794 -2.0701  1.5928  4.3154
  588SOL    HW2 2351   1.348   2.193   2.812  0.7109  0.1188  1.0337
  588SOL     MW 2352   1.411   2.169   2.760 -0.1242 -0.0086  0.6988
  589SOL     OW 2353   1.352   2.107   0.068 -0.8124 -0.3204  0.0878
  589SOL    HW1 2354   1.375   2.196   0.095 -0.9952 -1.5210  0.5853
  589SOL    HW2 2355   1.284   2.079   0.132  1.1089 -0.7996  1.4552
  589SOL     MW 2356   1.346   2.115   0.080 -0.5830 -0.5420  0.3339
  590SOL     OW 2357   0.420   2.558   2.281 -0.0599  0.5284 -0.1450
  590SOL    HW1 2358   0.390   2.569   2.185  1.2565 -1.2802 -1.1156
  590SOL    HW2 2359   0.489   2.624   2.280 -0.0883  0.5276 -2.1897
  590SOL     MW 2360   0.425   2.568   2.268  0.1101  0.2897 -0.5429
  591SOL     OW 2361   2.288   0.703   0.008 -0.4556  0.6424 -0.4579
  591SOL    HW1 2362   2.220   0.732  -0.047  2.2332 -0.7451 -4.1924
  591SOL    HW2 2363   2.368   0.715  -0.037 -2.4910 -0.4975  1.3155
  591SOL     MW 2364   2.289   0.708  -0.005 -0.3694  0.3090 -0.7166
  592SOL     OW 2365   1.861   2.986   0.791 -0.4259 -0.8701  0.5618
  592SOL    HW1 2366   1.868   3.049   0.721 -0.3938 -0.4930  1.8965
  592SOL    HW2 2367   1.925   2.913   0.780 -1.3321  1.2703  2.4111
  592SOL     MW 2368   1.870   2.985   0.781 -0.5412 -0.5379  0.9819
  593SOL     OW 2369   1.914   0.761   0.853 -0.0486 -0.4580 -0.0487
  593SOL    HW1 2370   1.833   0.780   0.811  0.0729  0.9504 -0.3017
  593SOL    HW2 2371   1.928   0.666   0.859  1.0685 -0.8846 -1.8695
  593SOL     MW 2372   1.905   0.751   0.849  0.1148 -0.3285 -0.3223
  594SOL     OW 2373   2.765   1.149   1.400 -0.1913  0.1847  0.2431
  594SOL    HW1 2374   2.859   1.171   1.425 -0.2765  1.6101 -1.5940
  594SOL    HW2 2375   2.769   1.092   1.324  0.6826  1.3176 -0.1708
  594SOL     MW 2376   2.778   1.144   1.393 -0.0872  0.5222 -0.0539
  595SOL     OW 2377   0.490   0.930   0.733  0.1622 -0.0530  0.4112
  595SOL    HW1 2378   0.529   0.976   0.656 -0.9002 -0.1919  0.3843
  595SOL    HW2 2379   0.494   0.988   0.811  2.4242  0.5744  1.0665
  595SOL     MW 2380   0.496   0.944   0.733  0.3205  0.0115  0.4941
  596SOL     OW 2381   2.469   1.364   0.514  0.7734 -0.5520 -0.3917
  596SOL    HW1 2382   2.484   1.449   0.469 -0.8535 -2.9079  0.6950
  596SOL    HW2 2383   2.525   1.355   0.589 -1.2423 -1.7269 -1.2055
  596SOL     MW 2384   2.478   1.374   0.518  0.2928 -1.0178 -0.3557
  597SOL     OW 2385   2.184   0.678   1.624 -0.0852  0.0639 -0.5923
  597SOL    HW1 2386   2.202   0.630   1.707  0.0410  2.4930 -0.4129
  597SOL    HW2 2387   2.106   0.628   1.591 -0.7549 -0.2230 -1.7353
  597SOL     MW 2388   2.176   0.665   1.631 -0.1569  0.3466 -0.7194
  598SOL     OW 2389   2.611   1.007   2.902 -0.6200 -0.6243  0.0708
  598SOL    HW1 2390   2.645   0.964   2.821 -1.0569  1.9667  2.6443
  598SOL    HW2 2391   2.685   1.057   2.943  1.9897  2.5561 -0.1997
  598SOL     MW 2392   2.625   1.008   2.897 -0.3334  0.1372  0.3746
  599SOL     OW 2393   2.921   0.383   2.077 -0.4813  0.6386  0.1860
  599SOL    HW1 2394   2.915   0.402   2.171  0.2618  1.6503 -1.5601
  599SOL    HW2 2395   2.964   0.468   2.043  0.1095  1.0561 -1.3510
  599SOL     MW 2396   2.926   0.396   2.085 -0.3053  0.8272 -0.2472
  600SOL     OW 2397   1.899   1.765   0.885  0.1190  0.1104 -0.3972
  600SOL    HW1 2398   1.939   1.800   0.967 -0.1531 -0.1603  1.3442
  600SOL    HW2 2399   1.802   1.785   0.890  1.8424 -0.3361  1.5176
  600SOL     MW 2400   1.892   1.772   0.897  0.3105  0.0158  0.0852
  601SOL     OW 2401   2.516   0.800   0.823 -0.0812  0.0099  0.2975
  601SOL    HW1 2402   2.521   0.799   0.923  2.2101  1.0551  1.3455
  601SOL    HW2 2403   2.463   0.717   0.791 -0.4990 -0.3544 -0.8518
  601SOL     MW 2404   2.509   0.789   0.832  0.1660  0.0997  0.2842
  602SOL     OW 2405   2.309   1.949   0.837  0.3278  0.5148  0.0637
  602SOL    HW1 2406   2.266   1.867   0.874  1.2186 -1.2601  1.4855
  602SOL    HW2 2407   2.239   1.995   0.791 -3.2829  2.0069  1.6223
  602SOL     MW 2408   2.294   1.945   0.836 -0.0311  0.4775  0.4570
  603SOL     OW 2409   3.101   1.383   1.787 -0.3077 -0.3300  0.0321
  603SOL    HW1 2410   3.105   1.424   1.878  0.1411  0.6529 -0.1431
  603SOL    HW2 2411   3.050   1.306   1.787 -1.8759  2.2549  2.5450
  603SOL     MW 2412   3.095   1.379   1.799 -0.4554  0.1408  0.3405
  604SOL     OW 2413   2.099   1.561   0.458 -0.0580 -0.2156  0.1041
  604SOL    HW1 2414   2.120   1.479   0.499 -0.2760  0.8993 -1.7922
  604SOL    HW2 2415   2.031   1.593   0.523  2.6153 -2.7739 -1.7141
  604SOL     MW 2416   2.093   1.554   0.472  0.2659 -0.4061 -0.3860
  605SOL     OW 2417   2.650   1.533   0.851 -0.1450 -0.2070 -0.3478
  605SOL    HW1 2418   2.599   1.610   0.824  0.9157  1.2796  1.7420
  605SOL    HW2 2419   2.616   1.454   0.805 -1.1923 -1.4429  1.5069
  605SOL     MW 2420   2.639   1.533   0.841 -0.1432 -0.1739  0.1727
  606SOL     OW 2421   2.580   1.827   1.878 -0.0500  0.7239  0.8253
  606SOL    HW1 2422   2.484   1.828   1.892  0.4771  0.8021  2.6491
  606SOL    HW2 2423   2.607   1.738   1.846  0.2529  0.1266  1.0890
  606SOL     MW 2424   2.571   1.816   1.876  0.0595  0.6554  1.1007
  607SOL     OW 2425   2.376   1.031   3.031 -0.5697  0.4120  0.9576
  607SOL    HW1 2426   2.468   1.020   3.002 -0.5678 -1.1892  2.5730
  607SOL    HW2 2427   2.369   1.001   3.125  2.5078  1.6075 -0.1080
  607SOL     MW 2428   2.387   1.026   3.039 -0.1634  0.3585  1.0301
  608SOL     OW 2429   1.915   0.306   0.601  0.1091 -0.2940  0.4746
  608SOL    HW1 2430   1.904   0.359   0.520  2.0312 -1.1294 -1.0999
  608SOL    HW2 2431   1.879   0.215   0.589 -0.6791  2.3409  2.6899
  608SOL     MW 2432   1.909   0.301   0.589  0.2587 -0.0565  0.5591
  609SOL     OW 2433   2.103   1.968   3.046 -0.4672  0.2854 -0.0519
  609SOL    HW1 2434   2.038   1.899   3.027 -0.9938  0.6010 -0.2449
  609SOL    HW2 2435   2.161   1.934   3.117  0.5426  0.6023 -1.0833
  609SOL     MW 2436   2.102   1.955   3.053 -0.4035  0.3689 -0.2134
  610SOL     OW 2437   1.788   1.030   1.234  0.4957  0.1290  0.0812
  610SOL    HW1 2438   1.779   0.939   1.209  0.2324  2.2624 -2.7251
  610SOL    HW2 2439   1.697   1.043   1.270 -1.5042 -1.6233  0.8074
  610SOL     MW 2440   1.775   1.020   1.235  0.1971  0.1792 -0.1933
  611SOL     OW 2441   2.487   1.723   0.704  0.2278  0.7730 -0.0855
  611SOL    HW1 2442   2.433   1.798   0.683  2.8991 -0.7035 -2.6800
  611SOL    HW2 2443   2.553   1.736   0.637 -2.5999  1.0051  1.3266
  611SOL     MW 2444   2.489   1.734   0.693  0.2071  0.6088 -0.2415
  612SOL     OW 2445   2.806   2.839   0.405  0.2227  0.2784  0.1201
  612SOL    HW1 2446   2.849   2.864   0.489  0.7076 -0.0036 -0.0064
  612SOL    HW2 2447   2.879   2.807   0.354 -0.2354  0.4067 -2.3900
  612SOL     MW 2448   2.821   2.838   0.409  0.2262  0.2581 -0.2278
  613SOL     OW 2449   1.481   0.984   0.967  0.1424 -0.0372 -0.5612
  613SOL    HW1 2450   1.528   1.067   0.966  0.8078 -1.7190 -0.1840
  613SOL    HW2 2451   1.471   0.967   1.067 -2.4078  1.3122 -0.0147
  613SOL     MW 2452   1.486   0.993   0.980 -0.1063 -0.0811 -0.4394
  614SOL     OW 2453   1.974   0.544   1.515 -0.3732  0.1090 -0.5587
  614SOL    HW1 2454   1.962   0.456   1.559 -0.0301 -1.4263  0.5132
  614SOL    HW2 2455   1.980   0.532   1.419  2.5125 -1.6145 -0.7128
  614SOL     MW 2456   1.973   0.531   1.508  0.0528 -0.3210 -0.4376
  615SOL     OW 2457   2.323   0.745   0.287  0.9703  0.1839 -0.0849
  615SOL    HW1 2458   2.410   0.713   0.309  0.6060  0.1449  2.9452
  615SOL    HW2 2459   2.296   0.713   0.198  1.8918 -1.8902 -0.1817
  615SOL     MW 2460   2.331   0.737   0.278  1.0438 -0.0949  0.3021
  616SOL     OW 2461   2.533   0.384   1.582  0.0565  0.5689  0.1841
  616SOL    HW1 2462   2.496   0.312   1.529  1.7018  1.7895 -0.0162
  616SOL    HW2 2463   2.554   0.444   1.512 -1.1396  0.5230  0.7912
  616SOL     MW 2464   2.531   0.382   1.566  0.1158  0.7239  0.2377
  617SOL     OW 2465   2.928   0.568   1.730  0.4293 -0.0487 -0.0184
  617SOL    HW1 2466   2.833   0.574   1.757 -0.6912 -0.6948 -0.6043
  617SOL    HW2 2467   2.934   0.488   1.682  0.1746  2.5337 -1.8616
  617SOL     MW 2468   2.916   0.558   1.727  0.2479  0.2068 -0.3389
  618SOL     OW 2469   2.664   0.322   1.980  0.5730 -0.1560 -0.1494
  618SOL    HW1 2470   2.647   0.385   1.910 -0.9487  1.5860 -0.0143
  618SOL    HW2 2471   2.751   0.350   2.021 -0.5854  0.3356 -0.5005
  618SOL     MW 2472   2.674   0.334   1.976  0.2194  0.1387 -0.1779
  619SOL     OW 2473   2.663   0.692   0.142  0.3295 -0.2705  0.0052
  619SOL    HW1 2474   2.710   0.768   0.174 -1.8379 -2.8311  2.2124
  619SOL    HW2 2475   2.625   0.652   0.219 -1.4363 -3.0328 -0.3896
  619SOL     MW 2476   2.664   0.697   0.156 -0.1895 -0.9728  0.2444
  620SOL     OW 2477   2.331   1.043   0.993  0.1244 -0.3436 -0.6944
  620SOL    HW1 2478   2.381   1.066   0.914  1.9256 -1.0099  1.3050
  620SOL    HW2 2479   2.282   0.966   0.954  0.6340 -0.4832 -2.9058
  620SOL     MW 2480   2.331   1.036   0.977  0.4293 -0.4499 -0.7224
  621SOL     OW 2481   1.456   2.152   1.987  0.1532  0.1542 -0.9611
  621SOL    HW1 2482   1.394   2.086   2.002  1.3707  1.8044 -1.1337
  621SOL    HW2 2483   1.538   2.106   1.975  0.1984 -2.7033  0.7671
  621SOL     MW 2484   1.459   2.137   1.987  0.3198 -0.0051 -0.7558
  622SOL     OW 2485   2.600   0.160   0.279 -0.4654  0.1602 -0.0262
  622SOL    HW1 2486   2.690   0.179   0.252 -0.2790 -0.0066 -0.4582
  622SOL    HW2 2487   2.618   0.070   0.309  1.5056  0.3055 -0.1363
  622SOL     MW 2488   2.614   0.151   0.279 -0.1807  0.1574 -0.0977
  623SOL     OW 2489   2.344   2.777   0.878 -0.0939  0.5751 -0.5579
  623SOL    HW1 2490   2.406   2.847   0.895  0.1292  1.9169  0.1210
  623SOL    HW2 2491   2.272   2.796   0.940  2.0270 -0.6876 -0.0904
  623SOL     MW 2492   2.343   2.789   0.888  0.2154  0.5855 -0.4067
  624SOL     OW 2493   2.205   1.682   3.005  0.0034 -0.1878  0.1719
  624SOL    HW1 2494   2.151   1.600   3.019  0.4248 -1.5857 -0.4074
  624SOL    HW2 2495   2.124   1.734   2.981  0.8638  1.2566  0.2980
  624SOL     MW 2496   2.187   1.678   3.004  0.1726 -0.1816  0.1121
  625SOL     OW 2497   2.193   2.028   1.123 -0.2468  0.0558  0.5560
  625SOL    HW1 2498   2.263   1.962   1.101  2.2722  1.7518 -1.3182
  625SOL    HW2 2499   2.206   2.113   1.083 -2.6275 -2.1341 -1.9459
  625SOL     MW 2500   2.204   2.031   1.115 -0.2285 -0.0094 -0.0214
  626SOL     OW 2501   0.210   1.563   2.342  0.2217 -0.2702  0.0010
  626SOL    HW1 2502   0.179   1.482   2.296  1.7867  0.8689  0.7159
  626SOL    HW2 2503   0.150   1.579   2.420 -0.6695  2.4802  0.5510
  626SOL     MW 2504   0.198   1.554   2.346  0.3106  0.2430  0.1679
  627SOL     OW 2505   2.460   0.799   2.636 -0.3390 -0.0778  0.0024
  627SOL    HW1 2506   2.417   0.884   2.639 -0.5432 -0.2644 -0.4476
  627SOL    HW2 2507   2.464   0.764   2.544 -0.6867 -1.5017 -2.0383
  627SOL     MW 2508   2.455   0.806   2.625 -0.4118 -0.2903 -0.3262
  628SOL     OW 2509   2.234   1.346   1.387  0.4334  0.3113 -0.0071
  628SOL    HW1 2510   2.216   1.290   1.310 -1.0219  0.1810 -1.7011
  628SOL    HW2 2511   2.330   1.340   1.387 -2.2176 -0.2298 -1.4899
  628SOL     MW 2512   2.244   1.338   1.377 -0.1084  0.2227 -0.4262
  629SOL     OW 2513   1.946   0.547   1.235 -0.3660 -0.3164  0.0389
  629SOL    HW1 2514   2.006   0.623   1.234 -1.8593  1.5592 -0.1803
  629SOL    HW2 2515   1.860   0.577   1.256 -0.2358 -0.5508 -0.7003
  629SOL     MW 2516   1.943   0.561   1.238 -0.5458 -0.0999 -0.0875
  630SOL     OW 2517   2.436   1.821   3.077 -0.1070 -0.0664  0.1546
  630SOL    HW1 2518   2.458   1.896   3.018  0.0394 -1.7960  1.8419
  630SOL    HW2 2519   2.357   1.779   3.051 -1.0468  3.4369  0.9779
  630SOL     MW 2520   2.429   1.825   3.066 -0.2117  0.1676  0.4858
  631SOL     OW 2521   1.960   1.824   1.571 -0.4930  0.2963  0.2050
  631SOL    HW1 2522   1.980   1.739   1.615  0.5460 -0.4830  0.1555
  631SOL    HW2 2523   1.924   1.795   1.489  1.4705 -0.6109  1.4619
  631SOL     MW 2524   1.958   1.809   1.566 -0.0969  0.0738  0.3643
  632SOL     OW 2525   0.099   2.034   1.478  0.5222 -0.3972 -0.0622
  632SOL    HW1 2526   0.049   2.045   1.559  0.5161  1.7059  1.6154
  632SOL    HW2 2527   0.143   1.948   1.489  0.8853  3.7430 -0.4320
  632SOL     MW 2528   0.098   2.024   1.490  0.5693  0.4265  0.1104
  633SOL     OW 2529   2.551   0.616   0.396  0.3796 -0.3648 -0.3635
  633SOL    HW1 2530   2.638   0.603   0.425 -0.5659 -0.6424 -1.3240
  633SOL    HW2 2531   2.507   0.545   0.448  2.9746 -1.8113  3.9701
  633SOL     MW 2532   2.557   0.605   0.407  0.5972 -0.5923  0.0816
  634SOL     OW 2533   2.661   3.032   0.641  0.0990  0.0970 -0.6212
  634SOL    HW1 2534   2.689   3.128   0.642  0.7302  2.7235 -1.9101
  634SOL    HW2 2535   2.652   3.009   0.548  0.8154 -0.1244  0.1555
  634SOL     MW 2536   2.664   3.041   0.629  0.2768  0.4143 -0.6888
  635SOL     OW 2537   2.600   0.067   1.865  0.4919 -0.3586  0.2216
  635SOL    HW1 2538   2.670   0.040   1.806 -3.0930  0.4479 -1.2469
  635SOL    HW2 2539   2.620   0.166   1.884  0.4727  2.0018  2.2367
  635SOL     MW 2540   2.612   0.077   1.860  0.0164  0.0593  0.2937
  636SOL     OW 2541   2.941   1.719   1.090  0.4657 -0.3775  0.2661
  636SOL    HW1 2542   2.870   1.778   1.094  1.4103 -1.2988  2.8745
  636SOL    HW2 2543   3.015   1.769   1.123  2.5354 -1.6486  0.3055
  636SOL     MW 2544   2.941   1.733   1.094  0.8634 -0.6667  0.6155
  637SOL     OW 2545   2.907   1.491   0.627  0.1046  0.2011  0.1262
  637SOL    HW1 2546   2.955   1.572   0.626  0.4635 -0.9885  0.0016
  637SOL    HW2 2547   2.856   1.494   0.707  0.2311 -0.5285  1.4236
  637SOL     MW 2548   2.907   1.502   0.637  0.1687 -0.0521  0.2810
  638SOL     OW 2549   2.776   0.516   0.533  0.4104 -0.3372  0.2981
  638SOL    HW1 2550   2.852   0.557   0.497  0.6104 -0.6907 -0.1815
  638SOL    HW2 2551   2.756   0.561   0.613  3.6062  0.4728 -2.2359
  638SOL     MW 2552   2.783   0.528   0.539  0.8585 -0.2770 -0.0995
  639SOL     OW 2553   1.771   0.054   0.569 -0.0463  0.2339 -0.0819
  639SOL    HW1 2554   1.686   0.104   0.552 -0.9872  1.5226  0.3169
  639SOL    HW2 2555   1.765  -0.026   0.514 -2.7003 -0.5375  0.0190
  639SOL     MW 2556   1.759   0.050   0.560 -0.5206  0.3021 -0.0159
  640SOL     OW 2557   0.372   1.366   0.065  0.3616 -0.5258  0.3966
  640SOL    HW1 2558   0.410   1.375  -0.023 -1.9687 -0.1499 -0.5142
  640SOL    HW2 2559   0.328   1.277   0.084 -2.5868  0.3624 -0.5414
  640SOL     MW 2560   0.371   1.356   0.056 -0.3348 -0.3590  0.1526
  641SOL     OW 2561   2.244   0.430   0.367  0.1641 -0.3696 -0.0338
  641SOL    HW1 2562   2.284   0.468   0.292 -0.0099  1.2660  0.7184
  641SOL    HW2 2563   2.267   0.337   0.357 -0.8245  0.7734 -1.4953
  641SOL     MW 2564   2.253   0.423   0.356  0.0107 -0.0030 -0.1274
  642SOL     OW 2565   0.025   3.098   0.603  0.3064  0.4142  0.0035
  642SOL    HW1 2566  -0.029   3.164   0.559  2.7990  1.3038 -0.2368
  642SOL    HW2 2567  -0.032   3.026   0.617  0.9652  0.2375 -0.4986
  642SOL     MW 2568   0.010   3.097   0.599  0.7222  0.5083 -0.0944
  643SOL     OW 2569   2.096   0.316   1.706  0.2565 -0.5147 -0.0574
  643SOL    HW1 2570   2.056   0.280   1.782  1.4557  2.4242  0.4909
  643SOL    HW2 2571   2.096   0.247   1.643 -0.0962  1.7532 -2.1469
  643SOL     MW 2572   2.091   0.302   1.708  0.3682  0.1722 -0.2607
  644SOL     OW 2573   2.736   1.962   1.065  0.4363  0.0801 -0.3798
  644SOL    HW1 2574   2.712   1.913   1.149  1.2533  0.7144  2.0021
  644SOL    HW2 2575   2.668   2.026   1.044 -0.4428  2.3723  0.4951
  644SOL     MW 2576   2.724   1.964   1.073  0.4281  0.4663  0.0499
  645SOL     OW 2577   2.833   0.864   0.687  0.2185  0.0132 -0.2323
  645SOL    HW1 2578   2.926   0.854   0.683 -0.7359  2.5761  1.2541
  645SOL    HW2 2579   2.801   0.779   0.719  0.5920 -1.1576 -1.2259
  645SOL     MW 2580   2.841   0.851   0.691  0.1418  0.1968 -0.1672
  646SOL     OW 2581   0.182   2.289   0.771 -0.6371  0.3229 -0.2316
  646SOL    HW1 2582   0.202   2.194   0.804  2.5883 -4.7370 -0.7484
  646SOL    HW2 2583   0.096   2.275   0.728  0.6387 -1.0275  0.6658
  646SOL     MW 2584   0.174   2.274   0.769 -0.0432 -0.5229 -0.1813
  647SOL     OW 2585   2.712   0.506   2.975 -0.5137  0.3645  0.2821
  647SOL    HW1 2586   2.673   0.449   3.045  1.8411  0.2084  1.3281
  647SOL    HW2 2587   2.659   0.590   2.988  1.8719 -0.6709  0.6251
  647SOL     MW 2588   2.700   0.509   2.986  0.1117  0.2073  0.4654
  648SOL     OW 2589   2.137   0.724   1.103 -0.3712 -0.2477 -0.4994
  648SOL    HW1 2590   2.162   0.766   1.021  0.1550  3.8659  0.2441
  648SOL    HW2 2591   2.162   0.784   1.172 -0.0859 -0.0037  2.5265
  648SOL     MW 2592   2.143   0.737   1.101 -0.2641  0.3273 -0.0021
  649SOL     OW 2593   2.327   2.750   1.293 -0.5362 -0.3260  0.0514
  649SOL    HW1 2594   2.405   2.810   1.298 -0.8476  0.1736  0.4959
  649SOL    HW2 2595   2.364   2.671   1.249 -1.6730 -1.0456 -0.4831
  649SOL     MW 2596   2.342   2.747   1.288 -0.7273 -0.3551  0.0395
  650SOL     OW 2597   2.813   0.167   0.669 -0.3528  0.0483 -0.2238
  650SOL    HW1 2598   2.831   0.253   0.706 -1.1425 -1.1344 -0.1973
  650SOL    HW2 2599   2.883   0.167   0.603  2.3724  0.0782  3.6793
  650SOL     MW 2600   2.825   0.178   0.665 -0.0974 -0.1038  0.2947
  651SOL     OW 2601   2.994   0.421   0.753 -0.2384 -0.4073 -0.0743
  651SOL    HW1 2602   3.083   0.431   0.736 -1.0635 -0.1121 -1.9474
  651SOL    HW2 2603   2.970   0.505   0.795 -1.2342  0.4212 -0.6883
  651SOL     MW 2604   3.003   0.434   0.756 -0.4787 -0.2591 -0.4025
  652SOL     OW 2605   2.405   1.494   3.022 -0.1713  0.6180 -0.2236
  652SOL    HW1 2606   2.476   1.514   2.964  1.6936  1.9422  0.1918
  652SOL    HW2 2607   2.350   1.567   3.033  1.8923  0.3779  2.4491
  652SOL     MW 2608   2.407   1.506   3.016  0.3470  0.7610  0.1838
  653SOL     OW 2609   1.929   0.451   0.357 -0.4152 -0.0672  0.1855
  653SOL    HW1 2610   1.896   0.391   0.295 -1.4941  1.0207  0.8294
  653SOL    HW2 2611   2.019   0.471   0.338  0.9320  0.9214 -3.6766
  653SOL     MW 2612   1.937   0.446   0.346 -0.3798  0.2068 -0.2391
  654SOL     OW 2613   2.455   1.067   0.734 -0.1992  0.0808  0.6888
  654SOL    HW1 2614   2.362   1.065   0.706  0.3241 -0.5431 -3.6355
  654SOL    HW2 2615   2.483   0.977   0.766 -0.5761  0.9117  2.5405
  654SOL     MW 2616   2.446   1.055   0.735 -0.1799  0.1081  0.3626
  655SOL     OW 2617   2.959   0.886   0.395 -0.1354 -0.3822  0.2758
  655SOL    HW1 2618   2.889   0.914   0.455 -1.0709 -1.5972  0.3422
  655SOL    HW2 2619   2.957   0.788   0.394 -1.8781  0.3544 -0.7182
  655SOL     MW 2620   2.950   0.877   0.402 -0.4888 -0.4454  0.1534
  656SOL     OW 2621   1.941   2.731   1.253 -0.3624  0.1875  0.7447
  656SOL    HW1 2622   1.921   2.812   1.299 -0.7013  2.8128 -0.0091
  656SOL    HW2 2623   1.980   2.674   1.315 -1.6236  2.7730  1.9872
  656SOL     MW 2624   1.943   2.735   1.267 -0.5735  0.8750  0.8091
  657SOL     OW 2625   0.162   1.614   1.299 -0.0455  0.4215  0.3268
  657SOL    HW1 2626   0.079   1.648   1.262  1.1946  1.4291 -0.9653
  657SOL    HW2 2627   0.157   1.519   1.277 -1.8153  1.3069 -2.0804
  657SOL     MW 2628   0.150   1.606   1.292 -0.1154  0.6713 -0.1613
  658SOL     OW 2629   2.692   1.311   0.195 -0.1482 -0.6098  0.5723
  658SOL    HW1 2630   2.633   1.249   0.241 -0.5343 -0.2691 -0.5137
  658SOL    HW2 2631   2.746   1.360   0.258 -1.7607  1.0441 -0.4763
  658SOL     MW 2632   2.691   1.310   0.210 -0.4119 -0.3466  0.2907
  659SOL     OW 2633   2.293   1.509   1.051 -0.4501 -0.4669  0.2876
  659SOL    HW1 2634   2.382   1.501   1.027 -2.4807  1.0472  2.6733
  659SOL    HW2 2635   2.295   1.523   1.144  0.6822 -0.5535  0.3550
  659SOL     MW 2636   2.305   1.510   1.060 -0.5686 -0.2786  0.6113
  660SOL     OW 2637   2.036   1.589   1.692  0.3275 -0.1536  0.3906
  660SOL    HW1 2638   2.057   1.592   1.784 -1.8981  1.9811 -1.8369
  660SOL    HW2 2639   1.991   1.504   1.672  1.7811  0.4749 -1.0111
  660SOL     MW 2640   2.033   1.578   1.701  0.2256  0.2110 -0.0883
  661SOL     OW 2641   2.367   1.013   0.195  0.1216 -0.3033 -0.3861
  661SOL    HW1 2642   2.446   1.051   0.247  0.1747 -0.1714  0.8907
  661SOL    HW2 2643   2.342   0.928   0.235  0.5606  0.8160 -0.7582
  661SOL     MW 2644   2.374   1.007   0.207  0.1865 -0.1382 -0.2667
  662SOL     OW 2645   2.566   2.972   0.884  0.9984  0.4160  0.3564
  662SOL    HW1 2646   2.516   3.047   0.917  1.3607 -2.6280 -0.4977
  662SOL    HW2 2647   2.603   3.003   0.800  0.9387  0.4598 -0.1800
  662SOL     MW 2648   2.564   2.986   0.878  1.0383  0.0202  0.1730
  663SOL     OW 2649   2.811   1.495   0.358 -0.8089  0.3815  0.2154
  663SOL    HW1 2650   2.736   1.535   0.390 -0.0388  0.9765 -1.2093
  663SOL    HW2 2651   2.864   1.489   0.438 -1.4681 -1.7354  3.1662
  663SOL     MW 2652   2.808   1.500   0.373 -0.7943  0.1807  0.4167
  664SOL     OW 2653   2.484   1.494   1.607  0.8547  0.0062  0.5116
  664SOL    HW1 2654   2.447   1.585   1.593 -0.5421 -2.3141 -1.0779
  664SOL    HW2 2655   2.402   1.444   1.623  0.5712 -0.8052 -0.7377
  664SOL     MW 2656   2.469   1.499   1.607  0.6330 -0.4070  0.1370
  665SOL     OW 2657   2.888   0.847   2.024 -0.1171  0.6917 -0.0751
  665SOL    HW1 2658   2.860   0.861   1.932  0.8811 -0.7041  0.5446
  665SOL    HW2 2659   2.941   0.768   2.002 -0.3022 -1.6385 -1.4655
  665SOL     MW 2660   2.892   0.839   2.009 -0.0098  0.2001 -0.1768
  666SOL     OW 2661   2.768   3.014   1.661  0.7504 -0.0891  0.4125
  666SOL    HW1 2662   2.759   3.035   1.565  2.1772  1.8197 -0.5031
  666SOL    HW2 2663   2.697   2.951   1.669 -0.7762 -2.2161  0.9445
  666SOL     MW 2664   2.757   3.009   1.649  0.7373 -0.1178  0.3619
  667SOL     OW 2665   1.995   2.649   1.689  0.0725 -0.4212  0.8684
  667SOL    HW1 2666   2.000   2.591   1.764 -0.7008 -1.4701  1.4057
  667SOL    HW2 2667   2.074   2.707   1.692  0.5836  1.0710 -1.3341
  667SOL     MW 2668   2.006   2.649   1.699  0.0379 -0.3627  0.6487
  668SOL     OW 2669   2.730   0.649   0.804 -0.2815 -0.1513 -0.5870
  668SOL    HW1 2670   2.803   0.659   0.871 -0.3483 -0.0965  2.9169
  668SOL    HW2 2671   2.651   0.702   0.824  1.1676 -2.4786  0.2185
  668SOL     MW 2672   2.730   0.657   0.815 -0.0992 -0.4511 -0.0184
  669SOL     OW 2673   0.227   0.941   0.661  0.6522 -0.3167  0.1260
  669SOL    HW1 2674   0.180   0.989   0.730 -2.3003  3.0135  2.9927
  669SOL    HW2 2675   0.321   0.936   0.694  3.1127 -0.5754 -1.3488
  669SOL     MW 2676   0.233   0.946   0.675  0.5873  0.0886  0.3097
  670SOL     OW 2677   2.868   0.288   0.214 -0.3447 -0.5547  0.4693
  670SOL    HW1 2678   2.918   0.212   0.173 -2.0719  0.6037 -1.5204
  670SOL    HW2 2679   2.919   0.361   0.183 -0.5761 -1.5034  0.6643
  670SOL     MW 2680   2.882   0.287   0.204 -0.6031 -0.5270  0.2325
  671SOL     OW 2681   2.093   2.962   1.524 -0.3541 -0.5013 -0.4172
  671SOL    HW1 2682   2.027   2.992   1.459  2.8497  1.6707  0.6467
  671SOL    HW2 2683   2.072   3.027   1.589 -0.6441  0.1313  0.1581
  671SOL     MW 2684   2.082   2.974   1.524  0.0303 -0.1313 -0.2009
  672SOL     OW 2685   1.871   1.708   1.332  0.3267 -0.1241  0.6466
  672SOL    HW1 2686   1.791   1.757   1.328 -0.8547 -0.6943 -0.2834
  672SOL    HW2 2687   1.932   1.742   1.260 -0.2928  1.1974  0.0271
  672SOL     MW 2688   1.869   1.719   1.322  0.0891 -0.0249  0.4422
  673SOL     OW 2689   2.763   1.095   0.559  0.1304 -0.0452  0.7703
  673SOL    HW1 2690   2.749   1.034   0.631 -1.3995 -0.3551  1.6945
  673SOL    HW2 2691   2.836   1.147   0.585 -0.1550 -1.7718 -1.0618
  673SOL     MW 2692   2.771   1.094   0.572 -0.1091 -0.3139  0.6505
  674SOL     OW 2693   2.520   0.081   1.218 -0.0635  0.2555 -0.2699
  674SOL    HW1 2694   2.473   0.078   1.130  0.1726 -0.2127 -0.6656
  674SOL    HW2 2695   2.536  -0.008   1.245 -0.4272  1.1711  1.0803
  674SOL     MW 2696   2.516   0.069   1.210 -0.0804  0.3145 -0.1440
  675SOL     OW 2697   3.028   0.878   1.075 -0.0528 -0.6439 -0.3299
  675SOL    HW1 2698   3.092   0.855   1.145  0.7540 -0.7337 -2.3354
  675SOL    HW2 2699   3.060   0.927   0.998 -0.0834  0.5115  0.1997
  675SOL     MW 2700   3.041   0.881   1.074  0.0496 -0.5033 -0.5247
  676SOL     OW 2701   2.867   1.480   1.653  0.1025  0.1503 -0.1007
  676SOL    HW1 2702   2.814   1.393   1.642  2.0850 -1.0087 -1.6309
  676SOL    HW2 2703   2.954   1.458   1.684 -0.8127 -1.1000  0.2127
  676SOL     MW 2704   2.871   1.466   1.655  0.2433 -0.1676 -0.2612
  677SOL     OW 2705   2.407   0.670   1.977 -0.0724 -0.1798  0.4851
  677SOL    HW1 2706   2.370   0.617   1.903 -0.2170 -2.3867 -2.0668
  677SOL    HW2 2707   2.330   0.713   2.002  0.2831 -2.1664 -2.1079
  677SOL     MW 2708   2.392   0.669   1.971 -0.0445 -0.7331 -0.1937
  678SOL     OW 2709   2.544   1.642   0.413 -0.1026  0.2742 -0.4954
  678SOL    HW1 2710   2.449   1.678   0.424 -1.5209  1.7564  0.4338
  678SOL    HW2 2711   2.554   1.632   0.314  0.1883  0.3619 -3.3496
  678SOL     MW 2712   2.533   1.645   0.401 -0.2513  0.4814 -0.7494
  679SOL     OW 2713   2.293   0.519   1.187 -0.4784 -0.8989 -0.3480
  679SOL    HW1 2714   2.223   0.457   1.194  1.6724  0.0944 -1.6395
  679SOL    HW2 2715   2.256   0.592   1.137  1.4986 -1.4468 -1.1921
  679SOL     MW 2716   2.279   0.521   1.181  0.0662 -0.8401 -0.6298
  680SOL     OW 2717   2.353   0.198   1.445 -0.2043 -1.0726  0.6744
  680SOL    HW1 2718   2.257   0.213   1.410 -3.0482 -0.9155 -4.6814
  680SOL    HW2 2719   2.410   0.173   1.374  0.5548  0.3605  0.4227
  680SOL     MW 2720   2.348   0.196   1.431 -0.4794 -0.8628 -0.0654
  681SOL     OW 2721   0.338   0.584   1.547 -0.0802 -0.1512 -0.1443
  681SOL    HW1 2722   0.308   0.494   1.573  1.0369 -1.0977 -1.6869
  681SOL    HW2 2723   0.432   0.574   1.564 -0.9058 -0.3835  0.8218
  681SOL     MW 2724   0.347   0.571   1.552 -0.0417 -0.3068 -0.2204
  682SOL     OW 2725   0.116   2.925   1.465 -0.3505 -0.8822  0.3077
  682SOL    HW1 2726   0.117   3.019   1.468 -1.7860  2.8909 -0.7136
  682SOL    HW2 2727   0.060   2.916   1.544 -2.2422  2.3618 -2.1282
  682SOL     MW 2728   0.109   2.936   1.476 -0.7895  0.0436 -0.1484
  683SOL     OW 2729   2.046   0.870   3.023  0.1956  0.4641  0.4154
  683SOL    HW1 2730   1.976   0.845   2.960  0.8770  0.3505  0.9703
  683SOL    HW2 2731   2.038   0.961   3.044  0.0797  1.4010 -0.3820
  683SOL     MW 2732   2.036   0.879   3.018  0.2702  0.5727  0.3834
  684SOL     OW 2733   2.191   1.736   0.938  0.2920 -0.5040  0.0397
  684SOL    HW1 2734   2.113   1.710   0.891  0.4655 -1.4504 -1.7524
  684SOL    HW2 2735   2.259   1.665   0.946 -1.5702  0.5772 -0.7071
  684SOL     MW 2736   2.190   1.723   0.933  0.0692 -0.4862 -0.2953
  685SOL     OW 2737   2.675   1.747   1.231  0.0262 -0.3739  0.1102
  685SOL    HW1 2738   2.700   1.715   1.320  1.4395 -1.1800  0.5258
  685SOL    HW2 2739   2.639   1.671   1.179 -0.3903 -0.8033 -2.1785
  685SOL     MW 2740   2.674   1.733   1.236  0.1577 -0.5369 -0.1369
  686SOL     OW 2741   2.909   0.729   1.515  0.2815  0.1553  0.8308
  686SOL    HW1 2742   2.957   0.696   1.594 -1.9119  0.6716 -0.3402
  686SOL    HW2 2743   2.962   0.714   1.439  0.3683 -0.2749 -1.8487
  686SOL     MW 2744   2.923   0.722   1.516  0.0035  0.1667  0.3228
  687SOL     OW 2745   2.072   0.311   1.145 -0.2751 -0.0126 -0.2305
  687SOL    HW1 2746   2.091   0.240   1.085  0.6245  0.9193  2.0213
  687SOL    HW2 2747   1.997   0.358   1.109 -2.5457 -1.4041 -0.7044
  687SOL     MW 2748   2.064   0.308   1.132 -0.4560 -0.0732  0.0041
  688SOL     OW 2749   2.364   0.635   1.426  0.1052  0.4060  0.0003
  688SOL    HW1 2750   2.312   0.591   1.357 -0.9257 -0.6816  0.1441
  688SOL    HW2 2751   2.308   0.653   1.506  1.9805 -0.0838  0.0649
  688SOL     MW 2752   2.350   0.632   1.428  0.2166  0.1979  0.0278
  689SOL     OW 2753   2.541   0.711   2.996 -0.0123 -0.1121 -0.2191
  689SOL    HW1 2754   2.578   0.783   2.943 -0.7326 -0.9881 -1.1302
  689SOL    HW2 2755   2.574   0.725   3.084  3.3244  0.0638 -1.6651
  689SOL     MW 2756   2.550   0.722   3.000  0.3329 -0.2045 -0.5301
  690SOL     OW 2757   2.094   0.933   1.911 -0.6219  0.2375  0.6596
  690SOL    HW1 2758   2.012   0.888   1.929 -0.0749  0.5071  2.0594
  690SOL    HW2 2759   2.100   0.944   1.818 -0.9909  0.1231  0.9903
  690SOL     MW 2760   2.084   0.928   1.901 -0.5984  0.2580  0.8879
  691SOL     OW 2761   2.471   0.262   0.794 -0.3375 -0.3063  0.0224
  691SOL    HW1 2762   2.542   0.319   0.826 -1.6522  2.4706 -3.1667
  691SOL    HW2 2763   2.389   0.299   0.840  0.0722 -1.8771 -0.8990
  691SOL     MW 2764   2.470   0.274   0.804 -0.4569 -0.1471 -0.5200
  692SOL     OW 2765   2.829   1.632   1.433  0.0122  0.2413  0.7754
  692SOL    HW1 2766   2.833   1.588   1.518 -1.2544  3.5796 -2.3021
  692SOL    HW2 2767   2.862   1.726   1.443 -1.7822  0.1210  0.5850
  692SOL     MW 2768   2.834   1.639   1.446 -0.3917  0.6659  0.3442
  693SOL     OW 2769   2.339   0.463   0.112 -0.0658  0.5247 -0.7920
  693SOL    HW1 2770   2.256   0.418   0.114  0.0804  2.3263  4.0113
  693SOL    HW2 2771   2.324   0.538   0.060  0.9214 -4.9376 -1.2587
  693SOL     MW 2772   2.326   0.467   0.106  0.0838  0.0417 -0.2198
  694SOL     OW 2773   1.908   1.228   1.108  0.3778 -0.8791  0.3577
  694SOL    HW1 2774   2.002   1.220   1.132 -0.9901 -0.1317 -0.3026
  694SOL    HW2 2775   1.867   1.162   1.166 -0.6567  1.2740 -0.6621
  694SOL     MW 2776   1.915   1.218   1.119  0.0608 -0.4964  0.1360
  695SOL     OW 2777   3.017   1.460   1.324  0.6401  0.2051 -0.2020
  695SOL    HW1 2778   3.000   1.451   1.229  2.2015  0.9756 -2.6491
  695SOL    HW2 2779   2.948   1.529   1.350  0.0932 -2.7995 -0.1410
  695SOL     MW 2780   3.006   1.468   1.315  0.7739 -0.0897 -0.5168
  696SOL     OW 2781   2.106   1.384   0.888  0.4349  0.0355 -0.0045
  696SOL    HW1 2782   2.160   1.435   0.953 -3.1457 -1.0562 -0.3294
  696SOL    HW2 2783   2.059   1.316   0.936  0.2325 -0.3247 -1.8082
  696SOL     MW 2784   2.107   1.382   0.903 -0.0642 -0.1561 -0.2854
  697SOL     OW 2785   2.917   1.095   2.147  0.0133  0.0139  0.4083
  697SOL    HW1 2786   2.859   1.170   2.157  3.4067 -0.8951 -1.2491
  697SOL    HW2 2787   2.864   1.016   2.115 -2.6315 -0.6688 -1.1936
  697SOL     MW 2788   2.903   1.095   2.144  0.1120 -0.1961 -0.0217
  698SOL     OW 2789   2.560   0.334   0.035 -0.1349 -0.0959  0.4385
  698SOL    HW1 2790   2.477   0.386   0.051 -0.8725  2.3161  1.5954
  698SOL    HW2 2791   2.571   0.283   0.108  0.3650 -0.8664 -3.5797
  698SOL     MW 2792   2.550   0.334   0.046 -0.1663  0.1207  0.0610
  699SOL     OW 2793   1.838   1.671   2.028 -0.6572 -0.4593 -0.5008
  699SOL    HW1 2794   1.812   1.574   2.018 -2.2386 -1.0282 -1.2718
  699SOL    HW2 2795   1.935   1.671   2.012  1.8594  2.8308 -0.6746
  699SOL     MW 2796   1.848   1.659   2.025 -0.5338 -0.1003 -0.6254
  700SOL     OW 2797   2.719   0.926   1.543  0.2624 -0.1522 -0.4735
  700SOL    HW1 2798   2.769   0.974   1.479 -4.0607  0.8436  0.6665
  700SOL    HW2 2799   2.756   0.835   1.545 -2.2619  1.3006  0.1935
  700SOL     MW 2800   2.730   0.920   1.535 -0.6411  0.1708 -0.2351
  701SOL     OW 2801   1.603   1.267   2.527 -0.0948 -0.3394  0.0816
  701SOL    HW1 2802   1.690   1.300   2.543 -1.2601  0.9781  0.3408
  701SOL    HW2 2803   1.550   1.334   2.564  0.5183  0.0541  0.6059
  701SOL     MW 2804   1.608   1.280   2.534 -0.1676 -0.1137  0.1850
  702SOL     OW 2805   2.201   0.392   0.867  0.0948 -0.1089  0.0224
  702SOL    HW1 2806   2.167   0.333   0.795 -1.5176 -0.2398  1.4515
  702SOL    HW2 2807   2.264   0.459   0.839  0.4612  0.1504  0.1221
  702SOL     MW 2808   2.205   0.393   0.854 -0.0696 -0.0920  0.2241
  703SOL     OW 2809   2.742   1.280   1.038  0.3736 -0.2139 -0.1335
  703SOL    HW1 2810   2.703   1.262   0.951  3.1461  0.8512  1.2210
  703SOL    HW2 2811   2.743   1.189   1.074  0.1366  1.0796 -0.2863
  703SOL     MW 2812   2.737   1.266   1.031  0.7081  0.0973  0.0251
  704SOL     OW 2813   3.095   1.318   0.257  0.4225  0.1313 -0.2312
  704SOL    HW1 2814   3.035   1.267   0.205  2.0995 -0.2724 -2.1789
  704SOL    HW2 2815   3.099   1.279   0.353  0.5128 -1.1954  1.9426
  704SOL     MW 2816   3.088   1.306   0.263  0.6557 -0.0970 -0.2014
  705SOL     OW 2817   2.227   1.621   1.302  0.3031 -0.6944  0.0802
  705SOL    HW1 2818   2.130   1.661   1.295 -1.3395  2.0804  2.1139
  705SOL    HW2 2819   2.223   1.544   1.350 -0.9692 -0.5496 -0.6954
  705SOL     MW 2820   2.214   1.616   1.307 -0.0815 -0.3092  0.2462
  706SOL     OW 2821   2.958   1.234   0.691 -0.4894  0.0383  0.2118
  706SOL    HW1 2822   3.020   1.204   0.631 -1.3837  1.2568  0.5720
  706SOL    HW2 2823   2.949   1.325   0.666 -1.2492 -0.5024  0.5957
  706SOL     MW 2824   2.965   1.242   0.680 -0.7076  0.1277  0.3100
  707SOL     OW 2825   2.389   0.054   0.961  0.0086  0.0588  0.1833
  707SOL    HW1 2826   2.415   0.128   0.897  0.9194  1.4552 -2.2825
  707SOL    HW2 2827   2.295   0.049   0.954 -0.0882  1.7249  2.5155
  707SOL     MW 2828   2.380   0.063   0.952  0.1160  0.4629  0.1657
  708SOL     OW 2829   2.575   1.564   0.141  0.1187 -0.2752  0.2693
  708SOL    HW1 2830   2.608   1.478   0.162  1.4071 -0.0650 -1.7282
  708SOL    HW2 2831   2.503   1.566   0.074 -0.6828  0.7020  0.1180
  708SOL     MW 2832   2.570   1.553   0.135  0.1829 -0.1186 -0.0142
  709SOL     OW 2833   1.728   1.718   0.148 -0.0794 -0.2149 -0.3007
  709SOL    HW1 2834   1.654   1.728   0.085 -2.7527  1.5417 -1.8728
  709SOL    HW2 2835   1.694   1.689   0.230 -0.1643 -2.4790 -0.4581
  709SOL     MW 2836   1.714   1.716   0.150 -0.4433 -0.2818 -0.5289
  710SOL     OW 2837   2.164   1.170   1.167 -0.2212  0.0844  0.0623
  710SOL    HW1 2838   2.239   1.145   1.109 -1.6795 -0.9295  1.5999
  710SOL    HW2 2839   2.156   1.098   1.228 -0.4708 -0.3240 -0.0294
  710SOL     MW 2840   2.173   1.157   1.167 -0.4466 -0.1033  0.2531
  711SOL     OW 2841   2.334   0.131   1.756 -0.0558  0.0009 -0.2836
  711SOL    HW1 2842   2.424   0.101   1.793  0.4744  0.7235 -0.3389
  711SOL    HW2 2843   2.357   0.157   1.665  1.3327  1.9720 -1.6326
  711SOL     MW 2844   2.349   0.130   1.749  0.1973  0.3563 -0.4688
  712SOL     OW 2845   1.872   0.616   3.083  0.4142 -0.8904  0.2928
  712SOL    HW1 2846   1.841   0.682   3.021  0.7628  0.7418 -0.2739
  712SOL    HW2 2847   1.927   0.656   3.144 -0.1274  0.6247 -0.6216
  712SOL     MW 2848   1.876   0.630   3.083  0.3888 -0.4751  0.0974
  713SOL     OW 2849   2.564   0.798   1.096 -0.3505 -0.4548  0.0922
  713SOL    HW1 2850   2.573   0.704   1.127  1.3719  1.7670 -0.3246
  713SOL    HW2 2851   2.499   0.846   1.151 -0.8227 -0.6443  0.7147
  713SOL     MW 2852   2.557   0.792   1.107 -0.1856 -0.1867  0.1193
  714SOL     OW 2853   2.163   0.220   1.968 -0.0631 -0.2286  0.1632
  714SOL    HW1 2854   2.218   0.181   2.042  0.5891  0.3967 -2.3433
  714SOL    HW2 2855   2.228   0.218   1.901 -0.9891  0.4192  2.0429
  714SOL     MW 2856   2.179   0.215   1.969 -0.0992 -0.0606  0.0805
  715SOL     OW 2857   1.724   1.903   1.695  0.1773  0.1936 -0.8282
  715SOL    HW1 2858   1.808   1.895   1.655 -0.8764 -1.4524  0.2186
  715SOL    HW2 2859   1.706   1.809   1.717  1.9510 -2.7255 -0.7457
  715SOL     MW 2860   1.733   1.889   1.693  0.2723 -0.4087 -0.6792
  716SOL     OW 2861   2.377   0.567   0.756 -0.0709  0.0489  0.3925
  716SOL    HW1 2862   2.440   0.523   0.701 -0.2410 -0.5271  2.3406
  716SOL    HW2 2863   2.312   0.597   0.691  1.6140  1.6680 -2.2720
  716SOL     MW 2864   2.377   0.565   0.741  0.1289  0.1865  0.2980
  717SOL     OW 2865   2.861   1.432   2.903  0.1855 -0.3602 -0.2547
  717SOL    HW1 2866   2.959   1.442   2.918 -0.1366  0.3021 -0.5551
  717SOL    HW2 2867   2.822   1.502   2.959 -1.2982  1.7710  0.6252
  717SOL     MW 2868   2.869   1.442   2.912 -0.0527  0.0084 -0.1783
  718SOL     OW 2869   2.519   1.375   1.357  0.2264  0.1339 -0.5645
  718SOL    HW1 2870   2.527   1.422   1.446  0.3135  0.3128 -2.4027
  718SOL    HW2 2871   2.570   1.293   1.360  2.0796  0.4129  1.1577
  718SOL     MW 2872   2.527   1.370   1.369  0.4824  0.1943 -0.5798
  719SOL     OW 2873   2.212   1.340   0.602  0.6491 -0.3631  0.8320
  719SOL    HW1 2874   2.302   1.364   0.596 -0.4454  0.7882  1.1804
  719SOL    HW2 2875   2.193   1.346   0.696 -1.3806 -0.5035 -0.5284
  719SOL     MW 2876   2.221   1.344   0.614  0.2369 -0.2298  0.6984
  720SOL     OW 2877   2.920   1.167   0.120  0.5872 -0.2725  0.0278
  720SOL    HW1 2878   2.872   1.083   0.135 -0.0618  0.9106 -0.1627
  720SOL    HW2 2879   2.849   1.243   0.131  1.0471  3.4419 -2.1751
  720SOL     MW 2880   2.904   1.166   0.123  0.5623  0.3737 -0.2880
  721SOL     OW 2881   2.511   0.885   1.352 -0.2219  0.5004 -0.2433
  721SOL    HW1 2882   2.474   0.799   1.354 -3.1861  2.9464  0.6499
  721SOL    HW2 2883   2.592   0.895   1.404  2.3600  1.1630 -1.0446
  721SOL     MW 2884   2.517   0.875   1.359 -0.2723  0.9106 -0.2312
  722SOL     OW 2885   2.567   1.137   0.374 -0.3585 -0.1244 -0.1075
  722SOL    HW1 2886   2.509   1.206   0.407  2.4962 -0.3104 -1.1091
  722SOL    HW2 2887   2.639   1.128   0.438  2.5438 -1.6900  2.0924
  722SOL     MW 2888   2.569   1.145   0.387  0.4011 -0.3555  0.0506
  723SOL     OW 2889   2.232   1.404   1.649 -0.5222  0.3779  0.1939
  723SOL    HW1 2890   2.218   1.375   1.560 -3.3687 -0.3978  3.0651
  723SOL    HW2 2891   2.182   1.486   1.655 -2.8814 -0.2388  1.9044
  723SOL     MW 2892   2.224   1.411   1.638 -1.2091  0.1942  0.7984
  724SOL     OW 2893   2.525   0.413   0.577  0.1630  0.0052  0.5914
  724SOL    HW1 2894   2.514   0.335   0.638  0.4126  1.7744  2.5234
  724SOL    HW2 2895   2.622   0.416   0.558  0.2067 -1.2404 -0.6090
  724SOL     MW 2896   2.537   0.403   0.583  0.2017  0.0743  0.6879
  725SOL     OW 2897   2.567   0.542   1.139 -0.6073  0.2484 -0.1905
  725SOL    HW1 2898   2.591   0.524   1.229  1.6081 -1.6174  2.7210
  725SOL    HW2 2899   2.472   0.525   1.134  0.9048 -2.4210 -2.8233
  725SOL     MW 2900   2.558   0.538   1.150 -0.1155 -0.3500 -0.1537
  726SOL     OW 2901   2.580   2.439   0.561 -0.4609 -0.0913  0.4942
  726SOL    HW1 2902   2.528   2.491   0.501  0.1762  2.7900 -1.0135
  726SOL    HW2 2903   2.528   2.400   0.624 -1.6753  1.8770 -0.6384
  726SOL     MW 2904   2.567   2.441   0.562 -0.5371  0.5486  0.1458
  727SOL     OW 2905   2.938   0.253   1.573  0.4137 -0.0364 -0.1430
  727SOL    HW1 2906   2.944   0.311   1.496  2.0812 -1.4195  1.4423
  727SOL    HW2 2907   2.888   0.179   1.542 -1.2579  1.0358 -0.0799
  727SOL     MW 2908   2.932   0.251   1.559  0.4132 -0.0774  0.0745
  728SOL     OW 2909   2.814   1.158   2.974  0.0545 -0.2210 -0.5221
  728SOL    HW1 2910   2.814   1.251   2.945  3.4842  1.4104 -1.8363
  728SOL    HW2 2911   2.862   1.161   3.061 -2.0848 -0.2574  0.8006
  728SOL     MW 2912   2.820   1.171   2.981  0.2247 -0.0105 -0.5210
  729SOL     OW 2913   2.557   1.526   1.119  0.1853  0.0126 -0.1172
  729SOL    HW1 2914   2.543   1.460   1.183  0.0074  2.1384  0.7566
  729SOL    HW2 2915   2.631   1.494   1.070 -3.5237  2.8908 -1.4598
  729SOL     MW 2916   2.565   1.513   1.121 -0.3275  0.6728 -0.1791
  730SOL     OW 2917   2.122   1.122   0.275  0.3433 -0.0241 -0.5591
  730SOL    HW1 2918   2.206   1.097   0.238  0.8984  0.0903  2.2148
  730SOL    HW2 2919   2.116   1.218   0.284  1.0092  1.4127 -2.6976
  730SOL     MW 2920   2.133   1.131   0.271  0.5044  0.1806 -0.4753
  731SOL     OW 2921   2.820   1.860   2.873  0.4416  0.0527  0.3078
  731SOL    HW1 2922   2.757   1.897   2.801  2.3384 -1.1181  1.2111
  731SOL    HW2 2923   2.885   1.929   2.889  1.5918 -0.9074 -0.1713
  731SOL     MW 2924   2.820   1.874   2.866  0.8436 -0.2284  0.3638
  732SOL     OW 2925   2.238   0.907   1.325  0.3834  0.2888  0.1593
  732SOL    HW1 2926   2.216   0.870   1.408 -0.0519  0.9904  0.5888
  732SOL    HW2 2927   2.333   0.912   1.335 -2.5727  0.1221  4.1665
  732SOL     MW 2928   2.248   0.902   1.337 -0.0641  0.3593  0.7447
  733SOL     OW 2929   2.380   2.819   3.020  0.0610 -0.2408 -0.3974
  733SOL    HW1 2930   2.289   2.853   3.024  0.0921  1.2962 -0.3538
  733SOL    HW2 2931   2.360   2.727   3.020 -3.5365 -0.3661 -1.9123
  733SOL     MW 2932   2.365   2.811   3.020 -0.4096 -0.0546 -0.5915
  734SOL     OW 2933   1.505   0.351   2.466  0.1752 -0.0234  0.1038
  734SOL    HW1 2934   1.482   0.314   2.558 -0.8754 -0.4272  1.9847
  734SOL    HW2 2935   1.530   0.272   2.407  0.8379 -0.3222  0.6044
  734SOL     MW 2936   1.506   0.336   2.470  0.1240 -0.1161  0.4180
  735SOL     OW 2937   2.981   0.932   2.569  0.1274  0.2588 -0.4138
  735SOL    HW1 2938   2.975   0.838   2.592 -2.2447  0.2309 -1.1748
  735SOL    HW2 2939   3.034   0.983   2.632 -1.8621 -0.3200 -0.0100
  735SOL     MW 2940   2.988   0.926   2.580 -0.4480  0.1787 -0.4609
  736SOL     OW 2941   0.083   0.608   2.551 -0.1633 -0.2423 -0.2345
  736SOL    HW1 2942   0.153   0.652   2.504  1.9644  0.2865  1.0830
  736SOL    HW2 2943   0.065   0.529   2.496 -1.3402  1.4129 -0.5303
  736SOL     MW 2944   0.090   0.603   2.538 -0.0379  0.0458 -0.0997
  737SOL     OW 2945   2.914   0.677   2.615  0.3660  0.0906 -0.3786
  737SOL    HW1 2946   2.843   0.663   2.545  0.9176 -0.1356 -0.2282
  737SOL    HW2 2947   3.002   0.650   2.584 -0.2866  0.7412 -0.9116
  737SOL     MW 2948   2.916   0.671   2.602  0.3527  0.1466 -0.4291
  738SOL     OW 2949   0.184   0.528   1.954 -0.1478 -0.1889 -0.1429
  738SOL    HW1 2950   0.275   0.562   1.954  2.4814 -1.5942 -0.8655
  738SOL    HW2 2951   0.195   0.463   1.885  5.1837  2.6601 -0.3993
  738SOL     MW 2952   0.197   0.524   1.945  0.9026  0.0016 -0.2720
  739SOL     OW 2953   2.500   0.995   2.143 -0.5548  0.1406 -0.8324
  739SOL    HW1 2954   2.423   0.946   2.121  0.8091 -0.6535  0.2573
  739SOL    HW2 2955   2.539   1.030   2.063 -0.6133  1.3313  0.9078
  739SOL     MW 2956   2.495   0.993   2.130 -0.3826  0.1929 -0.4590
  740SOL     OW 2957   0.139   1.771   2.961  0.2484 -0.2113 -0.4070
  740SOL    HW1 2958   0.100   1.683   2.953 -0.7548 -1.6808  2.7398
  740SOL    HW2 2959   0.230   1.751   2.992  0.5163 -3.3362 -0.8761
  740SOL     MW 2960   0.146   1.756   2.964  0.1514 -0.8175 -0.0537
  741SOL     OW 2961   2.242   1.266   2.686  0.4048  0.6589  0.5584
  741SOL    HW1 2962   2.188   1.340   2.644 -1.7309 -0.2526  4.6259
  741SOL    HW2 2963   2.223   1.268   2.780  0.9355  1.7527  0.0885
  741SOL     MW 2964   2.232   1.276   2.693  0.1930  0.6830  1.0331
  742SOL     OW 2965   1.599   1.347   2.247 -0.5975 -0.5528 -0.6105
  742SOL    HW1 2966   1.568   1.260   2.221  0.4571 -0.5208 -1.3236
  742SOL    HW2 2967   1.603   1.341   2.343 -2.7878  0.9511  1.8820
  742SOL     MW 2968   1.596   1.335   2.256 -0.7473 -0.3502 -0.3757
  743SOL     OW 2969   2.520   1.226   2.741 -0.0653  0.1674  0.1569
  743SOL    HW1 2970   2.433   1.246   2.742  1.2051 -1.0748  2.5295
  743SOL    HW2 2971   2.541   1.160   2.810  0.8284 -2.8421  3.8924
  743SOL     MW 2972   2.511   1.220   2.750  0.2202 -0.3936  0.9628
  744SOL     OW 2973   2.759   0.996   1.808 -0.6923 -0.0832 -0.5720
  744SOL    HW1 2974   2.689   1.054   1.840 -0.3890 -0.1263 -0.9450
  744SOL    HW2 2975   2.735   0.977   1.713 -2.6843 -2.4989 -0.7298
  744SOL     MW 2976   2.747   1.002   1.799 -0.9151 -0.4076 -0.6420
  745SOL     OW 2977   1.765   0.415   2.467 -0.4333 -0.2635  0.6791
  745SOL    HW1 2978   1.783   0.420   2.372 -1.0346  1.9201  0.1861
  745SOL    HW2 2979   1.670   0.403   2.475 -0.1363 -0.8505 -1.0967
  745SOL     MW 2980   1.754   0.414   2.455 -0.4735 -0.0529  0.3797
  746SOL     OW 2981   1.497   1.453   1.677 -0.2624 -0.0945  0.8929
  746SOL    HW1 2982   1.538   1.535   1.700 -0.2894  0.0896 -1.1686
  746SOL    HW2 2983   1.484   1.409   1.765  0.1088  2.4635  0.2614
  746SOL     MW 2984   1.501   1.458   1.692 -0.2169  0.2673  0.5376
  747SOL     OW 2985   2.565   1.155   1.913  0.4084  0.6573  0.4614
  747SOL    HW1 2986   2.471   1.173   1.897  2.6287 -0.4428 -2.8636
  747SOL    HW2 2987   2.596   1.236   1.951 -2.6436  0.9176 -1.0241
  747SOL     MW 2988   2.557   1.168   1.916  0.2986  0.5465 -0.1733
  748SOL     OW 2989   0.076   3.058   1.876 -0.0667  0.5074 -0.7289
  748SOL    HW1 2990   0.159   3.035   1.839 -2.0912 -1.6494 -1.7579
  748SOL    HW2 2991   0.096   3.109   1.954  2.5127  2.8545 -0.3312
  748SOL     MW 2992   0.089   3.062   1.882  0.0065  0.5325 -0.8122
  749SOL     OW 2993   2.437   0.561   2.782 -0.8607 -0.3454 -0.2745
  749SOL    HW1 2994   2.443   0.648   2.737  1.9025  0.7695 -1.1307
  749SOL    HW2 2995   2.485   0.575   2.863  0.8296  0.4747  3.8133
  749SOL     MW 2996   2.444   0.574   2.787 -0.2731 -0.0901  0.1519
  750SOL     OW 2997   2.066   3.064   1.933 -1.0392  0.5297 -0.0516
  750SOL    HW1 2998   2.099   3.149   1.955 -0.3603 -1.7742 -3.2243
  750SOL    HW2 2999   2.144   2.997   1.952  1.9588 -0.1601  2.1125
  750SOL     MW 3000   2.081   3.066   1.938 -0.5540  0.1347 -0.1847
  751SOL     OW 3001   0.031   0.383   2.419  0.8283  0.7722  0.6922
  751SOL    HW1 3002  -0.054   0.396   2.383  0.4203 -3.0592  1.4352
  751SOL    HW2 3003   0.088   0.384   2.341 -4.4345 -0.6060 -1.3721
  751SOL     MW 3004   0.027   0.385   2.404  0.0801  0.0849  0.5178
  752SOL     OW 3005   2.140   0.894   2.749  0.2141  0.1616 -0.2345
  752SOL    HW1 3006   2.202   0.919   2.681  1.0684  0.9952  0.8607
  752SOL    HW2 3007   2.174   0.930   2.828 -0.7191 -0.5844 -1.2866
  752SOL     MW 3008   2.153   0.902   2.751  0.2037  0.1731 -0.2288
  753SOL     OW 3009   2.857   0.413   2.351 -0.5661 -0.3998 -0.0305
  753SOL    HW1 3010   2.795   0.341   2.366  0.8389 -1.5089  1.1595
  753SOL    HW2 3011   2.814   0.493   2.376  0.9782 -1.3258 -1.9302
  753SOL     MW 3012   2.844   0.414   2.356 -0.1770 -0.6683 -0.1242
  754SOL     OW 3013   2.235   3.015   2.598 -0.8113  0.2991 -0.1794
  754SOL    HW1 3014   2.268   3.005   2.505 -0.4510  1.1033 -0.7442
  754SOL    HW2 3015   2.308   2.980   2.654  0.7769  0.3658 -0.3147
  754SOL     MW 3016   2.249   3.009   2.593 -0.5542  0.4140 -0.2718
  755SOL     OW 3017   2.794   1.577   2.492  0.2322 -0.2323 -0.2218
  755SOL    HW1 3018   2.761   1.487   2.498  0.4292  0.2533  0.3957
  755SOL    HW2 3019   2.831   1.600   2.575 -2.5817  0.2948  0.0904
  755SOL     MW 3020   2.794   1.568   2.504 -0.1131 -0.0987 -0.0991
  756SOL     OW 3021   2.240   1.258   2.980 -0.3830 -0.2739 -0.3605
  756SOL    HW1 3022   2.310   1.321   2.987 -0.8275 -1.7627 -1.6626
  756SOL    HW2 3023   2.298   1.183   2.995 -2.4482 -1.1553  0.7973
  756SOL     MW 3024   2.257   1.257   2.983 -0.7142 -0.5866 -0.3795
  757SOL     OW 3025   2.176   0.951   1.641 -0.2499  0.4752 -0.2193
  757SOL    HW1 3026   2.171   0.857   1.629 -1.6248  0.4546 -0.4818
  757SOL    HW2 3027   2.107   0.977   1.585 -1.4460 -0.6495  1.7686
  757SOL     MW 3028   2.166   0.942   1.632 -0.5891  0.3241  0.0083
  758SOL     OW 3029   2.263   1.745   2.649 -0.2481 -0.5295  0.4035
  758SOL    HW1 3030   2.245   1.783   2.563 -1.7509 -2.6300  2.6698
  758SOL    HW2 3031   2.355   1.725   2.666  1.9675 -0.4194  0.9688
  758SOL     MW 3032   2.273   1.748   2.640 -0.1541 -0.7921  0.7771
  759SOL     OW 3033   1.546   1.406   2.792 -0.0056 -0.1807 -0.1083
  759SOL    HW1 3034   1.540   1.493   2.762  0.4281 -3.3309  0.3142
  759SOL    HW2 3035   1.643   1.389   2.791  0.2271 -3.7504 -3.8766
  759SOL     MW 3036   1.558   1.415   2.788  0.0823 -1.0673 -0.5497
  760SOL     OW 3037   2.690   1.990   2.672 -0.4351  0.3125 -0.0243
  760SOL    HW1 3038   2.642   1.919   2.639  1.7297  0.4684  1.7934
  760SOL    HW2 3039   2.778   1.995   2.625 -2.2310 -2.0886 -0.7574
  760SOL     MW 3040   2.695   1.981   2.662 -0.3864  0.0163  0.1188
  761SOL     OW 3041   2.142   0.415   2.466 -0.2640 -0.4030  0.4042
  761SOL    HW1 3042   2.065   0.355   2.443 -3.5406 -2.7006  0.7639
  761SOL    HW2 3043   2.119   0.433   2.560 -1.4761 -3.4211 -1.5427
  761SOL     MW 3044   2.129   0.409   2.476 -0.8562 -1.1044  0.1948
  762SOL     OW 3045   0.029   0.161   2.084 -0.0297 -0.0925 -0.6154
  762SOL    HW1 3046  -0.002   0.115   2.162  0.7668  1.6034 -0.0396
  762SOL    HW2 3047  -0.035   0.233   2.076 -0.4832  0.5144  2.7112
  762SOL     MW 3048   0.016   0.164   2.093  0.0156  0.2113 -0.1005
  763SOL     OW 3049   2.429   1.151   2.362 -0.5641  0.5340  0.1398
  763SOL    HW1 3050   2.461   1.102   2.281 -2.3560  1.7921 -0.1522
  763SOL    HW2 3051   2.504   1.199   2.399  1.3269  1.5434 -1.5760
  763SOL     MW 3052   2.443   1.151   2.356 -0.5510  0.8332 -0.1251
  764SOL     OW 3053   0.306   0.165   2.813 -0.2778  0.3643 -0.3495
  764SOL    HW1 3054   0.253   0.201   2.743 -1.6779 -2.7251  0.2190
  764SOL    HW2 3055   0.323   0.230   2.882  1.0276 -2.3563 -0.2592
  764SOL     MW 3056   0.301   0.178   2.813 -0.2903 -0.4023 -0.2626
  765SOL     OW 3057   2.736   0.150   2.313 -0.6506 -0.1307 -0.1552
  765SOL    HW1 3058   2.668   0.112   2.261  0.1741  1.2347  0.6102
  765SOL    HW2 3059   2.800   0.075   2.319  0.3105  0.5909  1.7913
  765SOL     MW 3060   2.736   0.135   2.307 -0.4150  0.1446  0.2026
  766SOL     OW 3061   1.852   3.011   2.110  0.4920  0.1786 -0.2846
  766SOL    HW1 3062   1.928   3.013   2.052  0.6203  1.7680  1.4235
  766SOL    HW2 3063   1.782   2.955   2.074 -1.2704  1.2475  1.1475
  766SOL     MW 3064   1.853   3.004   2.098  0.2764  0.5293  0.1297
  767SOL     OW 3065   2.675   0.609   1.868 -0.2290 -0.0902 -0.4088
  767SOL    HW1 3066   2.720   0.653   1.939 -2.0767 -0.7719 -1.3549
  767SOL    HW2 3067   2.585   0.631   1.884  0.1263  1.0323 -0.0093
  767SOL     MW 3068   2.669   0.618   1.879 -0.4259 -0.0320 -0.4809
  768SOL     OW 3069   0.016   1.520   2.926  0.1519  0.5772 -0.2782
  768SOL    HW1 3070   0.065   1.510   3.011  3.9533  0.1504 -2.2012
  768SOL    HW2 3071   0.056   1.461   2.860  1.1943  0.8837 -2.3124
  768SOL     MW 3072   0.028   1.511   2.928  0.7910  0.5613 -0.8004
  769SOL     OW 3073   2.366   0.626   2.433 -0.1550  0.4584 -0.4019
  769SOL    HW1 3074   2.322   0.555   2.475  0.8416  1.7173 -2.4519
  769SOL    HW2 3075   2.402   0.590   2.351  0.8202 -2.4507 -0.3590
  769SOL     MW 3076   2.365   0.612   2.428  0.1051  0.2407 -0.6668
  770SOL     OW 3077   0.045   1.617   2.567 -0.0727  0.2620  0.1647
  770SOL    HW1 3078  -0.037   1.644   2.612  0.6112  0.7098  0.8380
  770SOL    HW2 3079   0.078   1.541   2.613 -3.1594  1.2432 -1.4990
  770SOL     MW 3080   0.039   1.611   2.579 -0.3897  0.4505  0.0340
  771SOL     OW 3081   3.022   0.622   1.982  0.8288  0.2132  0.1390
  771SOL    HW1 3082   2.994   0.597   1.889  0.0457 -2.0484 -0.3361
  771SOL    HW2 3083   3.113   0.589   1.976 -2.0681  2.7915  3.6073
  771SOL     MW 3084   3.031   0.614   1.969  0.3433  0.2550  0.5339
  772SOL     OW 3085   0.030   0.010   2.334 -0.6875 -0.1852  0.3218
  772SOL    HW1 3086  -0.060  -0.017   2.354  0.0517 -0.7905 -1.6982
  772SOL    HW2 3087   0.069  -0.074   2.314 -1.1792 -0.3610  2.6774
  772SOL     MW 3088   0.023  -0.005   2.334 -0.6548 -0.2883  0.3661
  773SOL     OW 3089   2.407   2.901   2.761 -0.0466  0.0869  0.0769
  773SOL    HW1 3090   2.419   2.816   2.723  1.5183 -2.2555 -1.7479
  773SOL    HW2 3091   2.382   2.878   2.850  0.9208  0.4158 -0.3996
  773SOL     MW 3092   2.405   2.887   2.768  0.2875 -0.1788 -0.2267
  774SOL     OW 3093   2.302   1.176   1.790  0.1307 -0.0770 -0.0916
  774SOL    HW1 3094   2.265   1.259   1.751 -0.9087 -0.8503 -1.0833
  774SOL    HW2 3095   2.256   1.103   1.756 -1.0016  3.0565 -2.1687
  774SOL     MW 3096   2.291   1.177   1.780 -0.1559  0.2344 -0.4965
  775SOL     OW 3097   2.333   2.966   2.342 -0.0255 -0.0678  0.5402
  775SOL    HW1 3098   2.374   3.024   2.281 -2.5723 -1.1596  1.1853
  775SOL    HW2 3099   2.385   2.888   2.328  0.2738  0.2755 -2.7228
  775SOL     MW 3100   2.345   2.964   2.332 -0.3220 -0.1666  0.1948
  776SOL     OW 3101   0.118   1.509   0.089  0.1553  0.0619  0.0786
  776SOL    HW1 3102   0.206   1.467   0.076 -0.7364  0.0606 -0.0616
  776SOL    HW2 3103   0.071   1.449   0.144  2.0634 -3.2230  0.2787
  776SOL     MW 3104   0.123   1.496   0.094  0.2894 -0.3717  0.0865
  777SOL     OW 3105   3.011   1.106   1.718  0.1071 -0.1186  0.2653
  777SOL    HW1 3106   2.993   1.126   1.626 -0.0849  3.6035 -1.3107
  777SOL    HW2 3107   2.928   1.083   1.755  1.1841  2.3013 -0.6999
  777SOL     MW 3108   2.997   1.105   1.711  0.2238  0.6918 -0.0700
  778SOL     OW 3109   2.827   0.459   2.721  0.3937 -0.6579  0.5802
  778SOL    HW1 3110   2.777   0.469   2.807  0.2612 -1.1171 -0.5566
  778SOL    HW2 3111   2.854   0.553   2.688 -0.7643  1.6208  0.5197
  778SOL     MW 3112   2.824   0.473   2.728  0.2234 -0.4178  0.4222
  779SOL     OW 3113   2.235   0.549   2.189 -0.8268  0.1535 -0.1221
  779SOL    HW1 3114   2.242   0.638   2.211 -0.5909  0.3223 -2.1778
  779SOL    HW2 3115   2.209   0.499   2.269 -1.3185 -2.6895  1.8616
  779SOL     MW 3116   2.233   0.554   2.203 -0.8605 -0.1993 -0.1316
  780SOL     OW 3117   0.139   0.303   2.665 -0.5576 -0.2041 -0.3514
  780SOL    HW1 3118   0.088   0.317   2.744  2.6509 -0.0643 -0.5252
  780SOL    HW2 3119   0.085   0.321   2.592  0.3870 -4.6126 -0.2902
  780SOL     MW 3120   0.125   0.308   2.666 -0.0096 -0.7673 -0.3662
  781SOL     OW 3121   3.046   1.299   2.466 -0.5482  0.2298  0.1278
  781SOL    HW1 3122   3.020   1.371   2.408  1.2856  0.3495 -2.1661
  781SOL    HW2 3123   3.071   1.229   2.409 -1.1638 -0.8200 -0.2327
  781SOL     MW 3124   3.046   1.299   2.451 -0.3875  0.1071 -0.2224
  782SOL     OW 3125   0.656   1.587   0.014 -0.3654  0.1873 -0.0256
  782SOL    HW1 3126   0.570   1.582  -0.039  0.8517  2.4103 -1.0781
  782SOL    HW2 3127   0.644   1.670   0.062 -0.0570  3.3670  0.6809
  782SOL     MW 3128   0.643   1.597   0.013 -0.1641  0.9001 -0.0712
  783SOL     OW 3129   2.717   0.628   2.447  0.7587 -0.1266 -0.2168
  783SOL    HW1 3130   2.662   0.659   2.376 -2.1260 -1.2446  1.6514
  783SOL    HW2 3131   2.656   0.555   2.476  0.0835 -1.3098  0.0098
  783SOL     MW 3132   2.701   0.623   2.442  0.2890 -0.4302  0.0596
  784SOL     OW 3133   0.117   0.803   2.850 -0.0871 -0.0773 -0.3508
  784SOL    HW1 3134   0.034   0.857   2.839 -2.6039  2.6266 -0.7077
  784SOL    HW2 3135   0.181   0.834   2.785 -0.3438 -0.1850 -0.5835
  784SOL     MW 3136   0.114   0.814   2.840 -0.4531  0.2652 -0.4285
  785SOL     OW 3137   0.423   0.486   2.172 -0.2373 -0.0160 -0.1504
  785SOL    HW1 3138   0.444   0.541   2.091  1.3655  1.7055  2.5996
  785SOL    HW2 3139   0.335   0.442   2.158  2.1291 -1.3400  2.9272
  785SOL     MW 3140   0.414   0.487   2.160  0.2864  0.0364  0.6185
  786SOL     OW 3141   1.929   0.353   2.953 -0.0560 -0.0831  0.0987
  786SOL    HW1 3142   1.917   0.434   2.997  1.7929 -3.7674 -0.0065
  786SOL    HW2 3143   2.004   0.363   2.891 -0.8488 -0.1146 -4.2388
  786SOL     MW 3144   1.937   0.365   2.951  0.0833 -0.5734 -0.4875
  787SOL     OW 3145   2.477   0.115   2.949  0.2566  0.7254 -0.3918
  787SOL    HW1 3146   2.549   0.056   2.930 -3.1262  0.2010 -0.6106
  787SOL    HW2 3147   2.501   0.184   3.014 -0.7117  0.8982 -1.1104
  787SOL     MW 3148   2.489   0.116   2.955 -0.3175  0.6790 -0.5155
  788SOL     OW 3149   2.866   3.028   2.382  0.2014  0.0216 -0.7982
  788SOL    HW1 3150   2.812   2.995   2.451 -1.8684 -0.0995 -0.1316
  788SOL    HW2 3151   2.890   2.953   2.329  2.7279 -0.4995 -1.0217
  788SOL     MW 3152   2.862   3.014   2.384  0.2617 -0.0631 -0.7397
  789SOL     OW 3153   0.080   0.207   3.021 -0.3592  0.0670 -0.4651
  789SOL    HW1 3154   0.011   0.169   3.071  2.6273  0.7540  2.1103
  789SOL    HW2 3155   0.038   0.275   2.969 -0.1668  0.0625 -0.3267
  789SOL     MW 3156   0.065   0.211   3.021  0.0603  0.1570 -0.1071
  790SOL     OW 3157   0.009   1.051   2.343  0.0389 -0.2160  0.5260
  790SOL    HW1 3158  -0.028   0.997   2.413 -2.9126  0.1640  2.0130
  790SOL    HW2 3159  -0.061   1.053   2.275 -2.7296 -0.3877 -0.1336
  790SOL     MW 3160  -0.005   1.044   2.343 -0.7158 -0.1885  0.6352
  791SOL     OW 3161   2.614   0.408   2.593 -0.2469 -0.0945 -0.0991
  791SOL    HW1 3162   2.549   0.448   2.653  0.9998 -1.8982  1.5584
  791SOL    HW2 3163   2.697   0.424   2.643  1.2760 -1.4712  5.3258
  791SOL     MW 3164   2.617   0.415   2.607  0.1185 -0.5141  0.8354
  792SOL     OW 3165   2.341   0.231   2.423  0.2373  1.1151  0.1076
  792SOL    HW1 3166   2.272   0.302   2.424 -1.7144  0.7696 -1.3187
  792SOL    HW2 3167   2.370   0.202   2.509 -1.5269 -2.2972  0.5827
  792SOL     MW 3168   2.335   0.236   2.434 -0.2530  0.6193 -0.0179
  793SOL     OW 3169   1.967   1.208   1.956 -0.0344 -0.2800 -0.3208
  793SOL    HW1 3170   1.919   1.176   1.876  0.9736 -1.8696 -2.7498
  793SOL    HW2 3171   2.034   1.139   1.956 -2.0184  0.0924 -2.4105
  793SOL     MW 3172   1.970   1.194   1.945 -0.1632 -0.4406 -0.9170
  794SOL     OW 3173   1.409   2.368   0.119 -0.0850 -0.2065 -0.1155
  794SOL    HW1 3174   1.436   2.439   0.056  0.3395  3.5202 -1.7170
  794SOL    HW2 3175   1.483   2.368   0.184  1.4121 -1.0367 -0.9017
  794SOL     MW 3176   1.422   2.377   0.119  0.1686  0.1756 -0.4306
  795SOL     OW 3177   2.320   1.042   2.563  0.2448  0.0665  0.4101
  795SOL    HW1 3178   2.289   1.119   2.616 -0.6461 -1.3693  2.5304
  795SOL    HW2 3179   2.368   1.080   2.489  0.5707 -2.8242  0.0674
  795SOL     MW 3180   2.323   1.057   2.560  0.1703 -0.5043  0.6447
  796SOL     OW 3181   0.231   0.548   2.785  0.4881 -0.2553  0.3919
  796SOL    HW1 3182   0.191   0.620   2.842  0.6141  0.4831 -0.0630
  796SOL    HW2 3183   0.180   0.553   2.702 -1.4837  0.9390 -0.9800
  796SOL     MW 3184   0.219   0.559   2.782  0.2446 -0.0003  0.1509
  797SOL     OW 3185   2.626   0.116   2.593  0.2834 -0.9713  0.3172
  797SOL    HW1 3186   2.601   0.214   2.599  2.1616  1.6034  1.7289
  797SOL    HW2 3187   2.671   0.100   2.505  2.1104  1.6916 -2.9043
  797SOL     MW 3188   2.629   0.126   2.582  0.7723 -0.2802  0.0784
  798SOL     OW 3189   2.298   0.109   2.174  0.4917  0.1369  0.2629
  798SOL    HW1 3190   2.298   0.165   2.250 -4.5074  0.0519 -0.3276
  798SOL    HW2 3191   2.392   0.101   2.149  0.5783 -1.7126 -0.6178
  798SOL     MW 3192   2.311   0.115   2.181 -0.1565 -0.1183  0.0688
  799SOL     OW 3193   2.552   2.921   0.105 -0.1016  0.0660 -0.1817
  799SOL    HW1 3194   2.466   2.910   0.062 -0.2131  1.0085 -0.9136
  799SOL    HW2 3195   2.533   2.968   0.190 -0.3926  0.4877  0.4498
  799SOL     MW 3196   2.538   2.926   0.110 -0.1547  0.2460 -0.1950
  800SOL     OW 3197   1.951   3.092   1.696  0.4023 -0.5325  0.5003
  800SOL    HW1 3198   1.896   3.016   1.674  0.5975 -0.6641  0.1353
  800SOL    HW2 3199   1.986   3.068   1.781 -0.0910 -1.0578 -2.7156
  800SOL     MW 3200   1.948   3.079   1.704  0.3630 -0.6192  0.0278
  801SOL     OW 3201   2.815   1.268   2.600 -0.1373  0.2080 -0.1528
  801SOL    HW1 3202   2.802   1.177   2.618  0.6866  0.4008  0.9714
  801SOL    HW2 3203   2.901   1.272   2.556  2.1354 -0.5376  1.6581
  801SOL     MW 3204   2.825   1.257   2.596  0.2713  0.1351  0.2345
  802SOL     OW 3205   2.621   1.484   2.786  0.5567 -0.5097 -0.2004
  802SOL    HW1 3206   2.590   1.395   2.752  1.6354 -0.3501 -0.6393
  802SOL    HW2 3207   2.714   1.465   2.795 -2.5832 -3.1565  0.9050
  802SOL     MW 3208   2.629   1.470   2.783  0.2847 -0.8379 -0.1124
  803SOL     OW 3209   2.286   1.403   2.009  0.6302 -0.2430  0.1289
  803SOL    HW1 3210   2.260   1.383   2.100 -2.4695  3.0484 -1.3325
  803SOL    HW2 3211   2.271   1.329   1.949  3.1077  1.9286 -2.8294
  803SOL     MW 3212   2.280   1.390   2.013  0.5481  0.4778 -0.4543
  804SOL     OW 3213   2.251   0.081   0.058 -0.0891 -0.4151 -0.0951
  804SOL    HW1 3214   2.212   0.168   0.031 -0.7844 -1.8492  0.4512
  804SOL    HW2 3215   2.335   0.080   0.010 -0.0186 -4.2086  1.4622
  804SOL     MW 3216   2.257   0.092   0.048 -0.1716 -1.1048  0.1825
  805SOL     OW 3217   2.728   1.012   2.572 -0.0436  0.4968 -0.3811
  805SOL    HW1 3218   2.707   0.948   2.506  0.7872  0.8367 -0.6042
  805SOL    HW2 3219   2.823   0.986   2.588 -0.5832 -0.3675 -0.8263
  805SOL     MW 3220   2.738   1.000   2.565 -0.0052  0.4276 -0.4693
  806SOL     OW 3221   2.561   0.630   2.205  0.0540 -0.0786 -0.3047
  806SOL    HW1 3222   2.564   0.532   2.212 -0.3448 -1.1422 -0.2318
  806SOL    HW2 3223   2.504   0.652   2.132  0.6646 -1.7805 -1.2535
  806SOL     MW 3224   2.554   0.620   2.196  0.0820 -0.4435 -0.4203
  807SOL     OW 3225   0.068   1.165   2.043 -0.2213  0.4239 -0.5445
  807SOL    HW1 3226   0.118   1.084   2.049  1.4438 -0.6850 -3.2899
  807SOL    HW2 3227  -0.013   1.137   2.073 -0.7209 -2.3318 -0.4146
  807SOL     MW 3228   0.064   1.151   2.047 -0.0676 -0.0860 -0.8896
  808SOL     OW 3229   2.649   3.050   2.815 -0.6095  0.6568  0.0956
  808SOL    HW1 3230   2.579   2.980   2.810  0.6555 -1.5063 -1.3694
  808SOL    HW2 3231   2.637   3.103   2.740  1.1029 -0.4995 -0.8804
  808SOL     MW 3232   2.638   3.048   2.804 -0.2167  0.2188 -0.2265
  809SOL     OW 3233   2.601   1.375   2.483 -0.4461 -0.0325  0.1310
  809SOL    HW1 3234   2.653   1.311   2.532  1.9827 -1.2224  0.3055
  809SOL    HW2 3235   2.636   1.381   2.393  3.1703  0.8824  0.2423
  809SOL     MW 3236   2.613   1.367   2.478  0.3515 -0.0688  0.1687
  810SOL     OW 3237   2.229   1.320   2.267  0.0571 -0.4099 -0.8092
  810SOL    HW1 3238   2.292   1.255   2.298  0.7066 -1.9890 -1.7823
  810SOL    HW2 3239   2.156   1.328   2.330 -0.7457 -0.6466  1.1251
  810SOL     MW 3240   2.228   1.313   2.279  0.0369 -0.6495 -0.6824
  811SOL     OW 3241   1.545   0.141   2.295 -0.0851 -0.0064 -0.4601
  811SOL    HW1 3242   1.621   0.080   2.315  0.1278 -2.4103  0.6578
  811SOL    HW2 3243   1.527   0.136   2.199  1.8081  1.4967  0.1695
  811SOL     MW 3244   1.552   0.132   2.285  0.1928 -0.1253 -0.2296
  812SOL     OW 3245   1.440   2.790   1.984  0.0543  0.3468 -0.3881
  812SOL    HW1 3246   1.525   2.806   1.940 -1.4650 -0.9281 -0.7890
  812SOL    HW2 3247   1.470   2.780   2.073 -2.1837 -0.4196  0.7317
  812SOL     MW 3248   1.455   2.791   1.990 -0.4415  0.0775 -0.2932
  813SOL     OW 3249   1.923   0.704   2.248 -0.7900 -0.2185 -0.5754
  813SOL    HW1 3250   1.880   0.627   2.272  1.1582  3.2057  1.6595
  813SOL    HW2 3251   1.907   0.768   2.321 -1.4901 -0.3843  2.2400
  813SOL     MW 3252   1.916   0.703   2.261 -0.6253  0.2114  0.0909
  814SOL     OW 3253   2.688   1.244   1.644 -0.0765 -0.5249  0.1492
  814SOL    HW1 3254   2.610   1.203   1.668 -1.3396 -3.6746 -1.4786
  814SOL    HW2 3255   2.704   1.212   1.556 -1.0550 -0.0566 -2.1003
  814SOL     MW 3256   2.680   1.234   1.635 -0.3723 -0.8787 -0.3624
  815SOL     OW 3257   2.541   1.747   2.432 -0.5615  0.4571 -0.4461
  815SOL    HW1 3258   2.482   1.687   2.402  3.1711  1.5810  0.7318
  815SOL    HW2 3259   2.625   1.699   2.435 -0.3213 -2.8134  0.1178
  815SOL     MW 3260   2.544   1.732   2.429 -0.0373  0.1739 -0.2162
  816SOL     OW 3261   0.757   0.712   2.747  0.7020 -0.9612 -0.0498
  816SOL    HW1 3262   0.796   0.639   2.796  0.3409 -0.1099  0.6121
  816SOL    HW2 3263   0.667   0.686   2.770 -3.1977  0.2490  0.9301
  816SOL     MW 3264   0.750   0.699   2.756  0.1398 -0.6892  0.1668
  817SOL     OW 3265   3.018   1.218   1.455  0.4092 -0.0760  0.3204
  817SOL    HW1 3266   3.102   1.233   1.493  0.7627  1.4954 -1.8138
  817SOL    HW2 3267   3.005   1.302   1.403  2.1243  2.6142 -0.7740
  817SOL     MW 3268   3.027   1.231   1.453  0.6821  0.4863 -0.1056
  818SOL     OW 3269   1.879   1.060   2.702 -0.3075 -0.9097  0.0083
  818SOL    HW1 3270   1.855   1.015   2.615 -0.2447 -2.2604  1.5033
  818SOL    HW2 3271   1.943   1.002   2.741  0.5774  2.0819  1.5671
  818SOL     MW 3272   1.884   1.046   2.696 -0.1824 -0.6932  0.4112
  819SOL     OW 3273   1.951   0.214   2.457 -0.5276 -0.5691 -0.9190
  819SOL    HW1 3274   1.873   0.262   2.493  1.5659  1.4406 -2.0022
  819SOL    HW2 3275   2.014   0.198   2.529  1.9999 -0.5699 -0.4909
  819SOL     MW 3276   1.949   0.218   2.471  0.0821 -0.3041 -1.0054
  820SOL     OW 3277   2.536   1.746   2.691 -0.3344  0.6344 -0.1505
  820SOL    HW1 3278   2.569   1.658   2.718 -0.1989 -3.1500 -1.9986
  820SOL    HW2 3279   2.521   1.739   2.596  0.6033  1.4558  0.6274
  820SOL     MW 3280   2.539   1.734   2.682 -0.1928  0.2435 -0.2917
  821SOL     OW 3281   2.583   1.418   2.049 -0.2742 -0.1112  0.6223
  821SOL    HW1 3282   2.613   1.441   1.963 -2.8174 -1.6552  0.3136
  821SOL    HW2 3283   2.484   1.429   2.041 -1.3286 -0.0802 -1.8159
  821SOL     MW 3284   2.574   1.422   2.036 -0.7489 -0.3108  0.2598
  822SOL     OW 3285   2.743   2.656   1.401 -0.2370 -0.2627  0.1644
  822SOL    HW1 3286   2.769   2.645   1.491  1.1910  1.0329 -2.0841
  822SOL    HW2 3287   2.674   2.725   1.400 -0.1118 -0.1133 -0.5563
  822SOL     MW 3288   2.737   2.663   1.413 -0.0321 -0.0720 -0.2273
  823SOL     OW 3289   2.340   0.466   1.781 -0.6387 -0.0866  0.2834
  823SOL    HW1 3290   2.408   0.449   1.717 -3.6746 -1.9497  1.8793
  823SOL    HW2 3291   2.280   0.389   1.767  1.6809 -0.2516 -2.9911
  823SOL     MW 3292   2.341   0.454   1.771 -0.7332 -0.3542  0.0619
  824SOL     OW 3293   2.138   1.465   2.559 -0.0612  0.0674 -0.3942
  824SOL    HW1 3294   2.207   1.517   2.521 -1.0813  1.5598  1.1494
  824SOL    HW2 3295   2.096   1.523   2.625 -1.5331 -2.3648 -2.1958
  824SOL     MW 3296   2.142   1.480   2.563 -0.3900 -0.0566 -0.4283
  825SOL     OW 3297   1.854   2.529   0.309 -0.1314  0.1072  0.0578
  825SOL    HW1 3298   1.842   2.464   0.386  0.4923  0.4993  1.4960
  825SOL    HW2 3299   1.938   2.497   0.271 -0.5372  0.3429 -0.6332
  825SOL     MW 3300   1.863   2.516   0.314 -0.1027  0.1900  0.1564
  826SOL     OW 3301   1.865   2.385   0.524  0.2439 -0.4673 -0.0646
  826SOL    HW1 3302   1.835   2.302   0.567  1.1062 -3.2869 -1.1045
  826SOL    HW2 3303   1.847   2.459   0.586  3.4472 -2.0648  0.3949
  826SOL     MW 3304   1.859   2.384   0.538  0.7803 -1.0501 -0.1411
  827SOL     OW 3305   1.949   2.197   0.923 -0.0800  0.3751  0.0973
  827SOL    HW1 3306   1.889   2.262   0.882 -0.9069 -0.8865  3.4969
  827SOL    HW2 3307   1.890   2.140   0.967  2.9513  0.0439  0.6378
  827SOL     MW 3308   1.933   2.198   0.923  0.2109  0.1649  0.6171
  828SOL     OW 3309   0.058   2.582   0.606  0.3131  0.8235 -0.2389
  828SOL    HW1 3310   0.153   2.577   0.598 -1.3797  1.0318 -3.5313
  828SOL    HW2 3311   0.053   2.637   0.525  2.3328 -1.0104 -1.7666
  828SOL     MW 3312   0.070   2.589   0.594  0.3562  0.6090 -0.8749
  829SOL     OW 3313   2.957   2.963   1.141 -0.5189 -0.2116  0.0144
  829SOL    HW1 3314   2.863   2.942   1.122  0.0088  0.3741 -1.6577
  829SOL    HW2 3315   3.003   2.881   1.121 -0.0439 -1.4516 -1.7068
  829SOL     MW 3316   2.951   2.949   1.135 -0.3866 -0.2979 -0.4333
  830SOL     OW 3317   2.508   2.877   2.023 -0.4612  0.4738 -0.2513
  830SOL    HW1 3318   2.411   2.873   2.001 -1.5304  0.4676 -1.2795
  830SOL    HW2 3319   2.560   2.858   1.946 -1.2858 -2.3036  0.3607
  830SOL     MW 3320   2.502   2.874   2.010 -0.7111  0.1066 -0.3062
  831SOL     OW 3321   2.397   2.497   1.249  0.0877 -0.2962  0.1337
  831SOL    HW1 3322   2.368   2.443   1.330 -0.7649 -1.3107  0.7778
  831SOL    HW2 3323   2.474   2.449   1.211 -2.3330  0.2741  0.4572
  831SOL     MW 3324   2.403   2.483   1.255 -0.3442 -0.3548  0.2614
  832SOL     OW 3325   2.370   2.189   1.922  0.3883 -0.2293 -0.1188
  832SOL    HW1 3326   2.400   2.272   1.968  0.0356  0.7995  1.4493
  832SOL    HW2 3327   2.461   2.161   1.897 -0.9674 -1.1200 -1.2152
  832SOL     MW 3328   2.386   2.196   1.925  0.1629 -0.2111 -0.0566
  833SOL     OW 3329   1.759   2.413   0.876  0.1617 -0.4122 -0.4118
  833SOL    HW1 3330   1.667   2.400   0.904  1.5574 -1.5606 -1.9248
  833SOL    HW2 3331   1.779   2.470   0.941 -0.3096  1.2458 -2.6083
  833SOL     MW 3332   1.749   2.418   0.889  0.2837 -0.3450 -0.9012
  834SOL     OW 3333   2.133   2.490   0.593  0.2187  0.0770 -0.2899
  834SOL    HW1 3334   2.043   2.484   0.556 -2.0760  3.1491  1.3011
  834SOL    HW2 3335   2.178   2.460   0.517  2.9962 -2.2281  0.4069
  834SOL     MW 3336   2.127   2.485   0.578  0.2824  0.1782  0.0119
  835SOL     OW 3337   1.771   2.603   0.662  0.5474  0.2243  0.0710
  835SOL    HW1 3338   1.736   2.559   0.746 -1.8697 -0.9362 -0.7471
  835SOL    HW2 3339   1.840   2.659   0.688  0.7571  0.1462 -0.1664
  835SOL     MW 3340   1.775   2.605   0.677  0.2562  0.0609 -0.0683
  836SOL     OW 3341   1.893   2.195   1.611 -0.0663 -0.1179 -0.1681
  836SOL    HW1 3342   1.980   2.225   1.630 -1.1313  0.7905  0.6857
  836SOL    HW2 3343   1.839   2.271   1.636  2.7906  0.1169  2.7817
  836SOL     MW 3344   1.897   2.209   1.617  0.1701  0.0330  0.3338
  837SOL     OW 3345   2.101   0.148   0.721  0.7656  0.5229  0.3304
  837SOL    HW1 3346   2.016   0.186   0.693 -0.2912 -2.5593 -1.0963
  837SOL    HW2 3347   2.131   0.101   0.637 -1.0331 -1.2811 -1.4892
  837SOL     MW 3348   2.094   0.147   0.706  0.3888 -0.1218 -0.0979
  838SOL     OW 3349   2.941   2.094   0.939  0.3651  0.4050 -0.2037
  838SOL    HW1 3350   2.882   2.041   0.994  0.8169 -0.1027  0.9369
  838SOL    HW2 3351   2.995   2.030   0.894  0.2393 -0.2225  3.0588
  838SOL     MW 3352   2.940   2.079   0.940  0.4081  0.2552  0.3772
  839SOL     OW 3353   1.501   2.341   0.954  0.2302  0.6524 -0.2600
  839SOL    HW1 3354   1.495   2.426   0.997 -1.8069 -0.8791 -0.4905
  839SOL    HW2 3355   1.497   2.281   1.027 -1.4361 -0.6257 -0.9974
  839SOL     MW 3356   1.500   2.344   0.969 -0.2584  0.2817 -0.3877
  840SOL     OW 3357   2.357   2.101   2.420 -0.4472 -0.0947 -0.2771
  840SOL    HW1 3358   2.304   2.159   2.375  0.1176 -5.3886 -0.2146
  840SOL    HW2 3359   2.379   2.158   2.494  0.6462 -0.8943 -0.0096
  840SOL     MW 3360   2.353   2.116   2.423 -0.2284 -0.8987 -0.2336
  841SOL     OW 3361   2.077   2.493   0.134  0.1709  0.0992 -0.0112
  841SOL    HW1 3362   2.136   2.526   0.062  0.2198  0.5294  0.4252
  841SOL    HW2 3363   2.054   2.403   0.101 -0.2280 -1.0406 -0.1211
  841SOL     MW 3364   2.082   2.486   0.120  0.1247  0.0055  0.0319
  842SOL     OW 3365   2.574   2.028   1.549  0.5301 -1.1265  0.6788
  842SOL    HW1 3366   2.562   1.936   1.557 -0.1512  0.4710 -1.8439
  842SOL    HW2 3367   2.529   2.052   1.469 -0.1365  0.7051 -1.2873
  842SOL     MW 3368   2.566   2.019   1.539  0.3523 -0.6740  0.0866
  843SOL     OW 3369   2.640   2.771   1.788 -0.4383 -0.2091  0.5880
  843SOL    HW1 3370   2.716   2.741   1.728  1.9695 -2.5842 -3.4161
  843SOL    HW2 3371   2.564   2.708   1.770 -1.7920  2.1409  1.5840
  843SOL     MW 3372   2.640   2.759   1.778 -0.2992 -0.2124  0.1911
  844SOL     OW 3373   2.592   2.325   1.179  0.0310 -0.1896 -0.2254
  844SOL    HW1 3374   2.640   2.337   1.097 -2.3777 -2.1150  1.2166
  844SOL    HW2 3375   2.672   2.331   1.243 -0.3035  0.2823  0.2196
  844SOL     MW 3376   2.609   2.328   1.177 -0.3309 -0.3814  0.0236
  845SOL     OW 3377   2.848   2.490   0.284  0.2812 -0.0451 -0.4316
  845SOL    HW1 3378   2.801   2.409   0.303 -1.1852  2.1134  0.5610
  845SOL    HW2 3379   2.884   2.519   0.370 -2.1991 -1.4730  0.8692
  845SOL     MW 3380   2.847   2.483   0.298 -0.2395  0.0513 -0.1290
  846SOL     OW 3381   1.507   2.910   0.763  0.0322 -0.0117  0.3263
  846SOL    HW1 3382   1.587   2.915   0.813  2.2220  1.7031 -0.4143
  846SOL    HW2 3383   1.441   2.958   0.815 -0.8839  2.3135  2.3329
  846SOL     MW 3384   1.509   2.917   0.777  0.2003  0.5213  0.4933
  847SOL     OW 3385   2.597   1.936   0.164 -0.9397  0.0416 -0.3701
  847SOL    HW1 3386   2.667   1.868   0.192  0.0063 -2.7170 -0.3502
  847SOL    HW2 3387   2.524   1.880   0.126  1.5895 -0.4160  0.1047
  847SOL     MW 3388   2.597   1.920   0.163 -0.4812 -0.3828 -0.3049
  848SOL     OW 3389   2.460   2.112   1.310  0.7223  0.3098  0.4740
  848SOL    HW1 3390   2.512   2.176   1.254  3.5478 -0.7797  0.5399
  848SOL    HW2 3391   2.442   2.036   1.253  1.6712 -1.9822  0.5353
  848SOL     MW 3392   2.464   2.110   1.295  1.2203 -0.1363  0.4908
  849SOL     OW 3393   1.998   2.752   0.750 -0.1968 -0.3995  0.1023
  849SOL    HW1 3394   2.023   2.692   0.822  0.3837  3.2985 -1.0652
  849SOL    HW2 3395   2.079   2.753   0.702  1.4576 -5.0759 -1.4541
  849SOL     MW 3396   2.012   2.744   0.753  0.0980 -0.5286 -0.2571
  850SOL     OW 3397   2.202   1.965   1.705 -0.4559 -0.3625 -1.0055
  850SOL    HW1 3398   2.146   1.919   1.644  1.2565  1.0399 -0.9497
  850SOL    HW2 3399   2.181   2.059   1.690 -2.6270  1.2925  0.3222
  850SOL     MW 3400   2.191   1.971   1.695 -0.5164  0.0409 -0.8230
  851SOL     OW 3401   2.247   2.421   0.344 -0.2962 -0.3822 -0.2960
  851SOL    HW1 3402   2.191   2.443   0.262  0.9490  3.3422  0.1263
  851SOL    HW2 3403   2.334   2.470   0.340  1.4699  1.5792  1.7653
  851SOL     MW 3404   2.251   2.431   0.333  0.1011  0.3680  0.0317
  852SOL     OW 3405   2.342   2.167   0.227  0.2963  0.0404  0.3475
  852SOL    HW1 3406   2.314   2.241   0.286 -0.2163  1.4877  0.0228
  852SOL    HW2 3407   2.416   2.194   0.182  3.5426 -0.7588 -0.0366
  852SOL     MW 3408   2.348   2.180   0.229  0.6570  0.1259  0.2540
  853SOL     OW 3409   2.473   2.446   1.994  0.6900 -0.2733  0.5104
  853SOL    HW1 3410   2.475   2.492   1.912 -0.3975  0.0165  1.4313
  853SOL    HW2 3411   2.565   2.433   2.014  1.5382 -0.6253  2.3771
  853SOL     MW 3412   2.486   2.450   1.986  0.6584 -0.2815  0.8782
  854SOL     OW 3413   2.808   2.275   0.774 -0.2763 -0.0356  0.0260
  854SOL    HW1 3414   2.731   2.219   0.757 -1.3657 -0.6625  2.4008
  854SOL    HW2 3415   2.854   2.226   0.845  0.9809  1.4241 -0.0620
  854SOL     MW 3416   2.804   2.261   0.781 -0.2542  0.0743  0.3278
  855SOL     OW 3417   2.693   2.263   0.362  0.3221  0.0778 -0.2643
  855SOL    HW1 3418   2.656   2.299   0.446 -0.0509 -1.4833  0.1654
  855SOL    HW2 3419   2.745   2.187   0.375 -0.7145 -1.5203  1.0050
  855SOL     MW 3420   2.695   2.258   0.375  0.1361 -0.3390 -0.0401
  856SOL     OW 3421   2.209   1.913   0.197  0.2115 -0.0644 -0.1951
  856SOL    HW1 3422   2.109   1.912   0.205 -0.9590 -1.3071  1.3680
  856SOL    HW2 3423   2.250   2.001   0.211  0.7931  0.5706  0.5749
  856SOL     MW 3424   2.201   1.925   0.200  0.1338 -0.1446  0.1127
  857SOL     OW 3425   2.581   1.984   0.454 -0.1693 -0.4603 -0.5106
  857SOL    HW1 3426   2.616   2.064   0.405 -0.4221  1.3367  0.6767
  857SOL    HW2 3427   2.521   1.942   0.401 -0.3074 -1.2357  0.3226
  857SOL     MW 3428   2.578   1.989   0.441 -0.2209 -0.3255 -0.2440
  858SOL     OW 3429   2.841   2.656   1.643 -0.6624 -0.1167 -0.1515
  858SOL    HW1 3430   2.933   2.687   1.640  0.0611  2.1508 -1.6757
  858SOL    HW2 3431   2.843   2.588   1.711 -1.9267  0.5587  2.9375
  858SOL     MW 3432   2.854   2.652   1.652 -0.7337  0.2716  0.0550
  859SOL     OW 3433   2.104   2.542   0.879  0.2601 -0.2688  0.3148
  859SOL    HW1 3434   2.118   2.496   0.799  0.1894  3.2228 -0.4554
  859SOL    HW2 3435   2.194   2.568   0.901  2.0356  3.5438 -1.9783
  859SOL     MW 3436   2.118   2.539   0.871  0.4850  0.6949 -0.0894
  860SOL     OW 3437   2.629   2.590   0.133 -0.3297  0.3004  0.1147
  860SOL    HW1 3438   2.694   2.567   0.198 -1.6223 -1.3168 -1.0325
  860SOL    HW2 3439   2.671   2.651   0.075 -1.3432  1.3641  0.3851
  860SOL     MW 3440   2.643   2.595   0.134 -0.6340  0.2274 -0.0010
  861SOL     OW 3441   1.537   2.124   1.145  0.3343 -0.3082 -0.4920
  861SOL    HW1 3442   1.544   2.218   1.186  0.4867  1.0774 -0.3837
  861SOL    HW2 3443   1.505   2.064   1.206  1.0611  0.8226 -1.6816
  861SOL     MW 3444   1.534   2.128   1.159  0.4503  0.0238 -0.6347
  862SOL     OW 3445   2.424   1.777   1.559 -0.2524 -0.1872  0.0275
  862SOL    HW1 3446   2.400   1.826   1.640 -0.9873 -1.4619  2.2057
  862SOL    HW2 3447   2.373   1.814   1.489  0.6834 -0.0852 -3.4068
  862SOL     MW 3448   2.414   1.788   1.561 -0.2259 -0.3419 -0.1382
  863SOL     OW 3449   0.039   1.907   1.138 -1.0502  0.2619 -0.6084
  863SOL    HW1 3450   0.130   1.895   1.149 -1.7897 -0.3888 -1.5667
  863SOL    HW2 3451   0.003   1.977   1.199 -1.5651  0.8429  1.9621
  863SOL     MW 3452   0.047   1.915   1.148 -1.2157  0.2527 -0.3957
  864SOL     OW 3453   0.031   1.901   0.855 -0.1820  0.4161  0.1065
  864SOL    HW1 3454   0.016   1.898   0.952  1.2299  1.3118  0.5028
  864SOL    HW2 3455  -0.033   1.849   0.817  2.0893  3.7099 -0.3241
  864SOL     MW 3456   0.021   1.893   0.863  0.3040  0.9688  0.1020
  865SOL     OW 3457   2.615   2.160   0.019  0.2302  0.0220 -0.2410
  865SOL    HW1 3458   2.624   2.076   0.071  0.7148 -0.7956 -1.7140
  865SOL    HW2 3459   2.575   2.127  -0.061  2.0453 -0.1617 -0.6563
  865SOL     MW 3460   2.611   2.145   0.015  0.5336 -0.1101 -0.4902
  866SOL     OW 3461   2.674   2.310   1.608  0.5921  0.0160 -0.3840
  866SOL    HW1 3462   2.635   2.224   1.612 -0.2795  1.6149  0.1024
  866SOL    HW2 3463   2.739   2.303   1.534  0.8294 -0.8997  1.1705
  866SOL     MW 3464   2.678   2.298   1.599  0.5084  0.1061 -0.1147
  867SOL     OW 3465   0.010   2.662   1.795 -0.2304 -0.0974 -0.1334
  867SOL    HW1 3466   0.010   2.665   1.894 -1.6864  1.8092 -0.9596
  867SOL    HW2 3467  -0.007   2.749   1.766 -1.2691 -0.8051 -1.4438
  867SOL     MW 3468   0.008   2.674   1.804 -0.5595  0.0608 -0.4153
  868SOL     OW 3469   2.824   2.581   0.534  0.4833  0.0662 -0.1899
  868SOL    HW1 3470   2.745   2.527   0.552 -0.1482  2.0829 -0.5160
  868SOL    HW2 3471   2.788   2.661   0.504 -1.5429 -1.2922 -0.0644
  868SOL     MW 3472   2.809   2.585   0.532  0.1327  0.1530 -0.2164
  869SOL     OW 3473   1.995   2.387   1.113  0.2090  0.1082  0.7626
  869SOL    HW1 3474   2.039   2.443   1.048  0.1287 -1.3548 -1.3936
  869SOL    HW2 3475   2.000   2.305   1.055 -0.4419 -3.2937 -1.1009
  869SOL     MW 3476   2.001   2.384   1.097  0.1126 -0.5337  0.2323
  870SOL     OW 3477   2.154   0.033   0.460 -0.2546  0.3347  0.3825
  870SOL    HW1 3478   2.216   0.104   0.418  0.3900  1.4176  2.4810
  870SOL    HW2 3479   2.199  -0.053   0.435  1.4238  2.0689 -0.1351
  870SOL     MW 3480   2.168   0.031   0.452  0.0519  0.7064  0.5911
  871SOL     OW 3481   2.475   2.136   0.961 -0.4441 -0.2883 -0.6212
  871SOL    HW1 3482   2.411   2.077   0.920 -0.3623  0.4186 -0.5536
  871SOL    HW2 3483   2.427   2.204   1.014  0.8835 -0.5003  2.2425
  871SOL     MW 3484   2.460   2.137   0.962 -0.2581 -0.2230 -0.2345
  872SOL     OW 3485   2.044   2.562   1.436 -0.2699 -0.1986  0.0224
  872SOL    HW1 3486   2.021   2.589   1.528  1.4336  0.3379  0.9110
  872SOL    HW2 3487   1.984   2.488   1.410 -1.4665 -0.6169 -1.0633
  872SOL     MW 3488   2.033   2.556   1.444 -0.2030 -0.1830 -0.0036
  873SOL     OW 3489   2.908   2.063   1.932 -0.3281 -0.3243 -0.1219
  873SOL    HW1 3490   2.938   2.124   2.005  0.8193  1.2016 -0.1959
  873SOL    HW2 3491   2.963   2.058   1.849  3.5924  0.2334  0.9443
  873SOL     MW 3492   2.919   2.070   1.931  0.3405 -0.0494  0.0090
  874SOL     OW 3493   2.389   1.504   2.369  0.1456 -0.3224 -0.3017
  874SOL    HW1 3494   2.328   1.441   2.327  1.8463 -0.6886  1.4555
  874SOL    HW2 3495   2.464   1.456   2.407  3.4014  0.1096  1.9908
  874SOL     MW 3496   2.391   1.489   2.368  0.7996 -0.3137  0.2326
  875SOL     OW 3497   2.282   2.294   1.067 -0.3544  1.1499  0.3771
  875SOL    HW1 3498   2.281   2.338   0.980  3.3539 -0.7909  0.2578
  875SOL    HW2 3499   2.319   2.359   1.131 -0.8014 -1.6186  1.8173
  875SOL     MW 3500   2.287   2.308   1.064  0.0759  0.5285  0.5514
  876SOL     OW 3501   3.044   2.304   1.236  0.1194 -0.1483  0.1826
  876SOL    HW1 3502   3.079   2.319   1.141 -0.1190  0.8494 -1.1590
  876SOL    HW2 3503   3.082   2.378   1.288  3.6469 -0.1925  2.4978
  876SOL     MW 3504   3.054   2.316   1.230  0.5534 -0.0225  0.3111
  877SOL     OW 3505   3.087   2.737   0.382 -0.0729 -0.7809 -0.4294
  877SOL    HW1 3506   3.156   2.801   0.394  1.9063 -1.1159 -0.7894
  877SOL    HW2 3507   3.089   2.699   0.295  1.3428 -1.9843 -0.2205
  877SOL     MW 3508   3.096   2.740   0.372  0.3750 -0.9839 -0.4493
  878SOL     OW 3509   2.412   1.832   1.258 -0.0384  0.5529  0.3074
  878SOL    HW1 3510   2.361   1.755   1.277 -0.3377  1.1859  1.5750
  878SOL    HW2 3511   2.497   1.799   1.231  2.6127  1.7397 -0.0829
  878SOL     MW 3512   2.416   1.818   1.257  0.2719  0.7930  0.4232
  879SOL     OW 3513   2.676   2.435   0.945 -0.1928 -0.4470  0.4586
  879SOL    HW1 3514   2.742   2.487   0.988  0.6589 -1.2185  1.0633
  879SOL    HW2 3515   2.723   2.373   0.880 -0.5573 -1.9816  0.8390
  879SOL     MW 3516   2.691   2.433   0.942 -0.1285 -0.7513  0.5886
  880SOL     OW 3517   2.526   2.163   0.675 -0.3522 -0.1985  0.2103
  880SOL    HW1 3518   2.515   2.136   0.761 -1.2960  1.2082  1.1353
  880SOL    HW2 3519   2.502   2.090   0.616  0.2153 -0.6167 -2.1390
  880SOL     MW 3520   2.521   2.150   0.679 -0.4019 -0.0680  0.0224
  881SOL     OW 3521   2.954   2.659   0.771  0.2954 -0.0332  0.1950
  881SOL    HW1 3522   2.900   2.617   0.704 -1.9130 -1.9744  1.6837
  881SOL    HW2 3523   3.039   2.624   0.741  0.1062 -0.9736 -2.6563
  881SOL     MW 3524   2.958   2.649   0.758 -0.0209 -0.4134  0.0152
  882SOL     OW 3525   2.252   2.868   1.954  0.1938  0.2659 -0.0202
  882SOL    HW1 3526   2.225   2.849   1.861  2.2487 -1.0284 -1.9274
  882SOL    HW2 3527   2.195   2.807   2.008 -0.6424  0.0264 -0.9032
  882SOL     MW 3528   2.241   2.857   1.949  0.3546  0.0635 -0.3884
  883SOL     OW 3529   2.312   2.318   1.443 -0.3268 -0.0732  0.3757
  883SOL    HW1 3530   2.375   2.254   1.404  1.3162 -2.0979 -0.8404
  883SOL    HW2 3531   2.232   2.300   1.387  0.8725 -1.5712  0.2314
  883SOL     MW 3532   2.310   2.307   1.430  0.0482 -0.5380  0.1962
  884SOL     OW 3533   1.998   1.851   1.136 -0.0483  0.1981  0.5670
  884SOL    HW1 3534   1.915   1.896   1.123 -0.7827  1.3615  0.8530
  884SOL    HW2 3535   2.068   1.898   1.097 -1.4170 -1.8386 -1.3330
  884SOL     MW 3536   1.996   1.863   1.129 -0.3258  0.0829  0.3540
  885SOL     OW 3537   2.823   2.435   1.807 -0.1158  0.0602 -0.7155
  885SOL    HW1 3538   2.914   2.398   1.791  0.2838 -1.3781 -0.1923
  885SOL    HW2 3539   2.765   2.394   1.733 -1.1664  0.7520 -1.2034
  885SOL     MW 3540   2.827   2.425   1.795 -0.2017 -0.0383 -0.7108
  886SOL     OW 3541   2.800   2.371   1.350 -0.2318  0.2415  0.4651
  886SOL    HW1 3542   2.873   2.353   1.292 -0.9438  1.7445  0.1607
  886SOL    HW2 3543   2.781   2.466   1.339  1.6388  1.4247  1.3703
  886SOL     MW 3544   2.807   2.381   1.341 -0.0790  0.5959  0.5443
  887SOL     OW 3545   2.297   2.606   1.538 -0.2869 -0.0564 -0.2173
  887SOL    HW1 3546   2.301   2.672   1.460 -1.7652 -0.3782  0.1753
  887SOL    HW2 3547   2.224   2.550   1.507  0.7485 -1.2597 -4.4225
  887SOL     MW 3548   2.288   2.607   1.523 -0.3453 -0.2576 -0.7204
  888SOL     OW 3549   1.848   2.087   1.379 -0.4312  0.7146 -0.7704
  888SOL    HW1 3550   1.927   2.099   1.331 -0.0634  1.6405  2.1659
  888SOL    HW2 3551   1.861   2.109   1.472 -2.5313  1.7700  0.6924
  888SOL     MW 3552   1.860   2.092   1.385 -0.6598  0.9760 -0.1900
  889SOL     OW 3553   2.321   1.975   2.105  0.4256 -0.4857 -0.3733
  889SOL    HW1 3554   2.396   1.973   2.164 -0.8380  0.4991  1.1662
  889SOL    HW2 3555   2.326   2.055   2.053  0.7140  0.7123 -0.2888
  889SOL     MW 3556   2.332   1.985   2.106  0.2969 -0.1977 -0.1590
  890SOL     OW 3557   0.094   2.383   0.199  0.4197  0.5142 -0.5642
  890SOL    HW1 3558   0.041   2.459   0.179 -3.4671  0.5062  0.6392
  890SOL    HW2 3559   0.041   2.324   0.251  2.3911 -0.2295 -0.3642
  890SOL     MW 3560   0.080   2.385   0.203  0.1670  0.4150 -0.3791
  891SOL     OW 3561   2.983   2.060   1.300  0.1732 -0.0468  0.6153
  891SOL    HW1 3562   3.063   2.068   1.358 -0.4765 -0.1425  0.1628
  891SOL    HW2 3563   2.992   2.148   1.258  1.6551 -2.4749 -2.0049
  891SOL     MW 3564   2.994   2.073   1.302  0.2830 -0.3798  0.2099
  892SOL     OW 3565   2.434   2.363   2.851  0.3346 -0.2997 -0.2238
  892SOL    HW1 3566   2.439   2.280   2.894 -0.7607  1.3746  0.5196
  892SOL    HW2 3567   2.522   2.403   2.853 -1.8218  1.4995  1.2817
  892SOL     MW 3568   2.447   2.357   2.857 -0.0944  0.1586  0.0729
  893SOL     OW 3569   1.593   2.365   1.276  0.4494 -1.1489  0.3838
  893SOL    HW1 3570   1.529   2.419   1.329 -0.0780  0.4317  1.1814
  893SOL    HW2 3571   1.666   2.363   1.335  0.3944  0.6353 -1.4912
  893SOL     MW 3572   1.594   2.372   1.291  0.3726 -0.7050  0.2416
  894SOL     OW 3573   2.816   1.811   0.438  0.1446 -0.8714 -0.0173
  894SOL    HW1 3574   2.723   1.854   0.452 -4.1096  1.8625  2.7043
  894SOL    HW2 3575   2.825   1.775   0.352 -2.2909  1.7222  0.4661
  894SOL     MW 3576   2.805   1.812   0.429 -0.7381 -0.1685  0.4056
  895SOL     OW 3577   2.084   2.222   1.311  1.0660 -0.3570 -0.1511
  895SOL    HW1 3578   2.062   2.275   1.237 -0.5055 -0.7544  2.1786
  895SOL    HW2 3579   2.143   2.153   1.277 -1.7270  0.3660  0.3286
  895SOL     MW 3580   2.089   2.220   1.297  0.4902 -0.3141  0.2196
  896SOL     OW 3581   2.138   2.823   1.088 -0.0504 -0.2848 -0.0788
  896SOL    HW1 3582   2.206   2.835   1.151  1.7321  0.1229 -1.0508
  896SOL    HW2 3583   2.073   2.774   1.144  0.6038  2.3756 -0.5108
  896SOL     MW 3584   2.139   2.818   1.104  0.2711  0.1200 -0.2640
  897SOL     OW 3585   3.005   2.922   0.096  0.4004  0.2901  0.2686
  897SOL    HW1 3586   3.075   2.928   0.032 -1.2299 -2.0872  0.0297
  897SOL    HW2 3587   2.947   2.853   0.084  0.8821 -0.4250  0.8308
  897SOL     MW 3588   3.006   2.913   0.086  0.2489 -0.1179  0.3112
  898SOL     OW 3589   2.084   0.250   1.408 -0.2753  0.5080 -0.4654
  898SOL    HW1 3590   2.037   0.164   1.416 -0.6314 -1.6024 -0.1596
  898SOL    HW2 3591   2.068   0.274   1.317 -1.0221  2.7195 -0.2737
  898SOL     MW 3592   2.076   0.241   1.397 -0.4208  0.5213 -0.3998
  899SOL     OW 3593   2.909   2.891   0.647 -0.0638 -0.3930 -0.3481
  899SOL    HW1 3594   2.931   2.816   0.706  0.6337  0.4507 -1.2570
  899SOL    HW2 3595   2.822   2.931   0.667  0.4106  0.2679 -0.3620
  899SOL     MW 3596   2.900   2.887   0.658  0.0908 -0.1945 -0.4699
  900SOL     OW 3597   0.090   2.394   1.023 -0.1755  0.1523 -0.6992
  900SOL    HW1 3598   0.085   2.488   1.014 -1.5673  2.2694  0.4083
  900SOL    HW2 3599   0.107   2.364   0.933 -1.2454  0.1993 -1.4987
  900SOL     MW 3600   0.092   2.402   1.010 -0.5003  0.4378 -0.6586
  901SOL     OW 3601   1.804   2.859   1.682  0.4807  0.0270  0.5080
  901SOL    HW1 3602   1.858   2.782   1.676  2.0672  1.6039 -1.0127
  901SOL    HW2 3603   1.725   2.845   1.623 -0.7015  2.3090 -0.9041
  901SOL     MW 3604   1.800   2.847   1.673  0.5340  0.5362  0.1211
  902SOL     OW 3605   2.650   2.106   1.857  0.3024  0.5414  0.1414
  902SOL    HW1 3606   2.619   2.017   1.866  1.9834 -1.3787 -1.5377
  902SOL    HW2 3607   2.738   2.099   1.899  0.1935  2.4068 -0.7932
  902SOL     MW 3608   2.657   2.093   1.864  0.5098  0.5342 -0.2034
  903SOL     OW 3609   1.615   2.774   0.527 -0.1856 -0.0040 -0.1014
  903SOL    HW1 3610   1.673   2.709   0.578 -0.8477  1.5996  2.3528
  903SOL    HW2 3611   1.571   2.824   0.596 -0.6526  1.5070  0.9401
  903SOL     MW 3612   1.617   2.772   0.543 -0.3346  0.4069  0.3598
  904SOL     OW 3613   2.503   2.522   1.721  0.4317 -0.6417 -0.1187
  904SOL    HW1 3614   2.427   2.545   1.665  1.3019 -0.0160  1.1765
  904SOL    HW2 3615   2.551   2.462   1.669  0.0495  2.2761  0.7551
  904SOL     MW 3616   2.499   2.517   1.706  0.4961 -0.1742  0.1675
  905SOL     OW 3617   2.309   2.531   2.202 -0.1605  0.4361 -0.0211
  905SOL    HW1 3618   2.355   2.496   2.121 -0.1815 -0.8576 -0.8829
  905SOL    HW2 3619   2.268   2.446   2.246 -1.2794  1.4823 -1.7568
  905SOL     MW 3620   2.309   2.515   2.197 -0.3109  0.4034 -0.3638
  906SOL     OW 3621   2.405   2.509   0.898  0.0403 -0.0900  0.6866
  906SOL    HW1 3622   2.494   2.473   0.897  0.2846 -1.0647 -0.3823
  906SOL    HW2 3623   2.406   2.605   0.893 -2.1308  1.6024  0.7978
  906SOL     MW 3624   2.417   2.517   0.897 -0.2139  0.0047  0.5602
  907SOL     OW 3625   2.547   2.903   1.308 -0.1233 -0.7587  0.7054
  907SOL    HW1 3626   2.637   2.919   1.344 -1.2170  1.9616  0.0687
  907SOL    HW2 3627   2.577   2.856   1.223 -1.3526  1.1269 -0.0221
  907SOL     MW 3628   2.563   2.899   1.302 -0.4298 -0.1510  0.5254
  908SOL     OW 3629   2.766   2.368   0.001  0.2374 -0.2220  0.5580
  908SOL    HW1 3630   2.707   2.280  -0.002 -0.8886 -0.9097 -1.3019
  908SOL    HW2 3631   2.698   2.426   0.042 -1.4898  0.7084  0.9170
  908SOL     MW 3632   2.749   2.364   0.006 -0.1391 -0.1899  0.3600
  909SOL     OW 3633   1.595   0.176   1.152  0.5521 -0.0199  0.7042
  909SOL    HW1 3634   1.602   0.233   1.078 -3.3741  1.0287  0.7805
  909SOL    HW2 3635   1.614   0.236   1.220 -1.7450 -2.2411 -0.3718
  909SOL     MW 3636   1.598   0.192   1.152 -0.2690 -0.1746  0.5723
  910SOL     OW 3637   2.312   1.779   0.442  0.5510  0.5649  0.1898
  910SOL    HW1 3638   2.249   1.710   0.456 -0.3707 -0.1585 -0.0078
  910SOL    HW2 3639   2.283   1.823   0.358 -1.4405  1.0217  0.3596
  910SOL     MW 3640   2.300   1.776   0.433  0.1666  0.5297  0.1861
  911SOL     OW 3641   2.210   2.253   1.709  0.2780 -0.3417 -0.0032
  911SOL    HW1 3642   2.280   2.222   1.772  0.7004 -0.1465 -2.0250
  911SOL    HW2 3643   2.261   2.282   1.628 -0.7438 -0.3489 -0.2877
  911SOL     MW 3644   2.226   2.253   1.707  0.1989 -0.3169 -0.3075
  912SOL     OW 3645   2.840   1.936   1.517  0.0660 -0.6088 -0.4450
  912SOL    HW1 3646   2.879   1.988   1.440 -0.3485  2.1294 -2.2988
  912SOL    HW2 3647   2.753   1.974   1.516 -1.4923 -1.9138 -3.4264
  912SOL     MW 3648   2.834   1.948   1.506 -0.1943 -0.4197 -1.0829
  913SOL     OW 3649   2.572   2.989   0.368  0.4192  0.3282 -0.4242
  913SOL    HW1 3650   2.641   2.922   0.369  0.4296 -0.6103 -0.6743
  913SOL    HW2 3651   2.494   2.938   0.393 -0.8945 -0.7910 -1.9447
  913SOL     MW 3652   2.571   2.974   0.371  0.2473  0.0567 -0.6578
  914SOL     OW 3653   2.759   1.627   3.037  0.0511  0.7060 -0.1864
  914SOL    HW1 3654   2.763   1.709   2.993 -2.4403  2.1469  1.5008
  914SOL    HW2 3655   2.675   1.613   3.093 -0.8811  0.9789 -0.2672
  914SOL     MW 3656   2.748   1.636   3.039 -0.4006  0.9321  0.0255
  915SOL     OW 3657   1.812   0.259   0.176 -0.2435 -0.1580  0.3879
  915SOL    HW1 3658   1.865   0.190   0.211  2.3027  1.3012 -1.5707
  915SOL    HW2 3659   1.726   0.232   0.205  0.8320 -1.4918  1.7646
  915SOL     MW 3660   1.807   0.246   0.185  0.2343 -0.1414  0.3111
  916SOL     OW 3661   1.715   2.074   1.938 -0.2767 -0.4064 -0.3235
  916SOL    HW1 3662   1.772   2.153   1.924 -2.0137  1.1617  1.8201
  916SOL    HW2 3663   1.744   2.011   1.868  1.2477 -2.3380  0.6225
  916SOL     MW 3664   1.726   2.076   1.927 -0.3048 -0.4544  0.0841
  917SOL     OW 3665   2.425   2.321   2.582 -0.0579  0.2549 -0.4049
  917SOL    HW1 3666   2.420   2.325   2.681 -1.2771  1.7823 -0.4430
  917SOL    HW2 3667   2.516   2.330   2.553  0.3209 -1.2409  0.5415
  917SOL     MW 3668   2.436   2.323   2.591 -0.1688  0.2591 -0.2851
  918SOL     OW 3669   2.008   1.639   2.708 -0.3993 -0.1790 -0.1978
  918SOL    HW1 3670   1.956   1.677   2.633  2.6509 -0.8535 -0.6549
  918SOL    HW2 3671   2.093   1.687   2.697  1.5929  0.7268 -1.3576
  918SOL     MW 3672   2.013   1.651   2.697  0.2660 -0.1485 -0.4111
  919SOL     OW 3673   0.055   2.354   2.259 -0.0468 -0.0879 -0.4811
  919SOL    HW1 3674  -0.023   2.301   2.221 -2.6827 -0.0175 -0.9968
  919SOL    HW2 3675   0.115   2.334   2.181  1.7593 -1.5955  0.4591
  919SOL     MW 3676   0.053   2.345   2.243 -0.1563 -0.2775 -0.4251
  920SOL     OW 3677   2.759   2.784   3.099  0.3090 -0.5052  0.5005
  920SOL    HW1 3678   2.678   2.838   3.124  0.4027  0.7960 -0.3322
  920SOL    HW2 3679   2.757   2.794   2.996 -0.4703  2.6978 -1.0539
  920SOL     MW 3680   2.748   2.793   3.089  0.2185  0.0891  0.1855
  921SOL     OW 3681   2.425   2.634   2.697 -0.6765  0.6284  0.0428
  921SOL    HW1 3682   2.483   2.637   2.623 -4.7423 -3.5821 -0.4134
  921SOL    HW2 3683   2.426   2.539   2.719  0.7769 -0.4672  0.0882
  921SOL     MW 3684   2.433   2.622   2.690 -1.0212 -0.0717 -0.0114
  922SOL     OW 3685   2.005   2.776   0.309  0.0643 -0.1468 -0.7623
  922SOL    HW1 3686   1.984   2.779   0.215  0.2565  2.0200 -0.3940
  922SOL    HW2 3687   1.973   2.694   0.331 -0.8363 -0.1224 -1.0916
  922SOL     MW 3688   1.998   2.766   0.300 -0.0291  0.1423 -0.7572
  923SOL     OW 3689   2.213   2.794   1.715 -0.1961 -0.0986  0.2604
  923SOL    HW1 3690   2.261   2.722   1.667  0.9814 -0.8219  1.9369
  923SOL    HW2 3691   2.180   2.862   1.655 -1.7489 -1.4485 -2.4600
  923SOL     MW 3692   2.215   2.794   1.701 -0.2456 -0.3721  0.1226
  924SOL     OW 3693   1.192   2.692   2.561  0.1692 -0.2604 -0.3198
  924SOL    HW1 3694   1.253   2.751   2.508  0.8878  1.8156  0.3939
  924SOL    HW2 3695   1.245   2.610   2.583 -0.7985 -1.8582  2.4088
  924SOL     MW 3696   1.207   2.689   2.557  0.1363 -0.1973  0.1344
  925SOL     OW 3697   2.958   0.225   2.590 -0.0232 -0.0551  0.2460
  925SOL    HW1 3698   2.995   0.264   2.504 -1.4256  0.6170 -0.0572
  925SOL    HW2 3699   2.898   0.291   2.630 -2.8564 -0.4708  0.9363
  925SOL     MW 3700   2.955   0.239   2.584 -0.5821 -0.0213  0.2970
  926SOL     OW 3701   2.738   2.404   2.078 -0.0612 -0.2663  0.7747
  926SOL    HW1 3702   2.804   2.458   2.126  0.3587  2.3224 -0.9516
  926SOL    HW2 3703   2.770   2.414   1.987  1.5107  0.9814  1.8630
  926SOL     MW 3704   2.751   2.413   2.072  0.2016  0.2399  0.6905
  927SOL     OW 3705   2.326   0.191   0.299 -0.1060 -0.0332  0.1404
  927SOL    HW1 3706   2.419   0.211   0.314  1.2615  1.0609  1.3240
  927SOL    HW2 3707   2.316   0.143   0.214  0.1975 -0.0737 -3.2122
  927SOL     MW 3708   2.337   0.188   0.290  0.1145  0.1058 -0.1458
  928SOL     OW 3709   2.076   2.437   1.859 -0.1620  0.3013  0.2991
  928SOL    HW1 3710   2.135   2.382   1.806  0.4549  1.5122 -1.3869
  928SOL    HW2 3711   2.133   2.493   1.912 -0.8645 -0.0428 -0.4809
  928SOL     MW 3712   2.091   2.437   1.859 -0.1733  0.4157 -0.0263
  929SOL     OW 3713   2.665   2.361   2.429  0.0440 -0.0055 -0.0937
  929SOL    HW1 3714   2.728   2.356   2.360 -2.8314  2.4040  0.2863
  929SOL    HW2 3715   2.720   2.337   2.505  0.8550  1.4712 -3.4568
  929SOL     MW 3716   2.680   2.357   2.430 -0.2284  0.5073 -0.4873
  930SOL     OW 3717   2.008   2.857   2.679 -0.2501 -0.1457 -0.0281
  930SOL    HW1 3718   2.054   2.773   2.708  2.0593 -0.9869 -0.0326
  930SOL    HW2 3719   2.077   2.916   2.662 -1.5236  0.5668  1.5071
  930SOL     MW 3720   2.024   2.854   2.680 -0.1134 -0.1626  0.1738
  931SOL     OW 3721   2.961   2.802   2.266 -0.0169 -0.8955 -0.1234
  931SOL    HW1 3722   3.020   2.799   2.345  1.9995 -0.0674  0.3645
  931SOL    HW2 3723   3.016   2.799   2.193  0.9600  1.4199  2.9830
  931SOL     MW 3724   2.976   2.802   2.267  0.3780 -0.4808  0.3508
  932SOL     OW 3725   2.911   1.967   2.504  0.3191  0.4959 -0.6506
  932SOL    HW1 3726   3.002   1.998   2.520 -1.0270  0.2737 -0.9214
  932SOL    HW2 3727   2.888   1.980   2.409 -2.2376 -2.2261 -0.5703
  932SOL     MW 3728   2.920   1.973   2.493 -0.1958  0.1074 -0.6757
  933SOL     OW 3729   2.078   2.888   2.242  0.0843 -0.2128  0.4590
  933SOL    HW1 3730   2.167   2.921   2.256 -0.0257  0.9547  0.8806
  933SOL    HW2 3731   2.023   2.963   2.216 -1.0398 -0.1167 -1.8430
  933SOL     MW 3732   2.082   2.902   2.240 -0.0786 -0.0460  0.2109
  934SOL     OW 3733   1.996   2.725   2.434 -0.0183 -0.1584  0.0173
  934SOL    HW1 3734   2.020   2.768   2.517  0.1766  0.7451  0.2359
  934SOL    HW2 3735   2.007   2.796   2.370  0.2068  1.5398 -0.2424
  934SOL     MW 3736   2.001   2.740   2.437  0.0371  0.1849  0.0119
  935SOL     OW 3737   2.629   1.571   1.828  0.1452  0.5576  0.2311
  935SOL    HW1 3738   2.723   1.553   1.798  0.9980  2.0214  0.5790
  935SOL    HW2 3739   2.571   1.556   1.748 -2.0792 -0.3769 -2.9092
  935SOL     MW 3740   2.634   1.567   1.813 -0.0358  0.6275 -0.1374
  936SOL     OW 3741   3.020   2.256   3.072  0.4623  0.4143 -0.2381
  936SOL    HW1 3742   3.083   2.304   3.123 -1.7029  3.3694  1.2120
  936SOL    HW2 3743   2.933   2.300   3.067  1.0000 -0.7420 -0.8867
  936SOL     MW 3744   3.017   2.268   3.078  0.2475  0.6516 -0.1324
  937SOL     OW 3745   2.013   2.166   2.695 -0.3605  0.1133  0.2910
  937SOL    HW1 3746   2.092   2.110   2.715  1.5725 -3.4679  3.1096
  937SOL    HW2 3747   1.978   2.126   2.614 -1.0368  0.8058 -0.6088
  937SOL     MW 3748   2.019   2.153   2.687 -0.1947 -0.2678  0.5442
  938SOL     OW 3749   2.303   1.804   1.889  0.5751 -0.1867  0.5093
  938SOL    HW1 3750   2.275   1.874   1.820  0.0918  1.8997  1.0909
  938SOL    HW2 3751   2.295   1.839   1.977  1.9337  1.9614  0.4123
  938SOL     MW 3752   2.298   1.818   1.892  0.6906  0.3720  0.5733
  939SOL     OW 3753   2.835   1.990   2.245 -0.1655 -0.0866 -0.1754
  939SOL    HW1 3754   2.845   1.930   2.169 -1.4071 -0.4815 -1.3615
  939SOL    HW2 3755   2.741   2.005   2.252 -0.4065 -4.7569 -1.3519
  939SOL     MW 3756   2.824   1.984   2.236 -0.3611 -0.7549 -0.4871
  940SOL     OW 3757   2.317   0.163   2.689  0.5208  0.1051  0.4609
  940SOL    HW1 3758   2.293   0.073   2.659 -0.6897 -1.9985 -0.5883
  940SOL    HW2 3759   2.382   0.151   2.757 -1.3072  0.3105 -1.9897
  940SOL     MW 3760   2.323   0.149   2.694  0.1199 -0.1454 -0.0009
  941SOL     OW 3761   0.213   2.273   2.038 -0.5846 -0.0944 -0.1304
  941SOL    HW1 3762   0.313   2.263   2.056 -3.4359 -1.4230  0.8679
  941SOL    HW2 3763   0.191   2.192   2.010 -0.5392 -0.2325  1.3331
  941SOL     MW 3764   0.223   2.261   2.037 -0.9548 -0.2880  0.1944
  942SOL     OW 3765   2.932   2.233   2.158 -0.1262  0.2544 -0.6100
  942SOL    HW1 3766   2.847   2.284   2.132 -0.7859  1.0568  0.4229
  942SOL    HW2 3767   2.899   2.156   2.211  1.1960  1.2934 -1.2013
  942SOL     MW 3768   2.916   2.230   2.162 -0.0388  0.4974 -0.5518
  943SOL     OW 3769   0.370   2.009   2.326 -0.4231  0.1353  0.2152
  943SOL    HW1 3770   0.330   2.089   2.354  0.8033  0.6210  0.8664
  943SOL    HW2 3771   0.462   2.016   2.354 -2.6711  2.1928  2.1552
  943SOL     MW 3772   0.377   2.020   2.333 -0.5579  0.4709  0.5571
  944SOL     OW 3773   2.105   2.659   2.079 -0.2586  0.4788 -0.4641
  944SOL    HW1 3774   2.163   2.598   2.128 -0.5392  0.1417 -1.5170
  944SOL    HW2 3775   2.091   2.729   2.145 -0.1450 -0.7146  1.1634
  944SOL     MW 3776   2.111   2.660   2.094 -0.2806  0.2769 -0.3883
  945SOL     OW 3777   2.758   2.712   2.842 -0.5804  0.0984 -0.0732
  945SOL    HW1 3778   2.711   2.627   2.856  0.4227 -2.1970 -0.4903
  945SOL    HW2 3779   2.801   2.704   2.755 -0.5735  1.4338  0.1614
  945SOL     MW 3780   2.758   2.700   2.832 -0.4471 -0.0282 -0.0973
  946SOL     OW 3781   2.465   2.748   2.256  0.3951 -0.0932 -0.0600
  946SOL    HW1 3782   2.495   2.775   2.170 -2.3172  0.2255 -0.7382
  946SOL    HW2 3783   2.405   2.676   2.236  3.3783  1.7399 -2.3816
  946SOL     MW 3784   2.461   2.742   2.242  0.4308  0.1907 -0.4558
  947SOL     OW 3785   2.032   0.099   0.240  0.1281  0.1990  0.0570
  947SOL    HW1 3786   2.040   0.025   0.192 -1.7027  0.2541  0.8428
  947SOL    HW2 3787   2.067   0.075   0.333 -1.9508  0.6082 -1.6059
  947SOL     MW 3788   2.037   0.086   0.246 -0.3878  0.2603 -0.0587
  948SOL     OW 3789   1.793   3.037   2.671  0.2853 -0.6499  0.3294
  948SOL    HW1 3790   1.853   2.956   2.675 -3.2381 -1.1611 -0.7426
  948SOL    HW2 3791   1.773   3.054   2.574 -3.1246  0.6824 -0.9895
  948SOL     MW 3792   1.798   3.028   2.659 -0.6295 -0.5416  0.0139
  949SOL     OW 3793   2.546   1.975   2.266 -0.1442  0.0434 -0.4025
  949SOL    HW1 3794   2.556   1.899   2.321  0.6894 -0.6912  1.7759
  949SOL    HW2 3795   2.497   2.034   2.325 -0.9431 -1.3754 -0.9280
  949SOL     MW 3796   2.541   1.973   2.281 -0.1396 -0.2407 -0.1844
  950SOL     OW 3797   2.228   2.536   3.012 -0.3685 -0.0948 -0.5212
  950SOL    HW1 3798   2.279   2.465   2.969 -3.0499  0.0997 -0.7266
  950SOL    HW2 3799   2.151   2.561   2.949  0.8210  0.0237 -0.0148
  950SOL     MW 3800   2.224   2.530   2.998 -0.5653 -0.0535 -0.4815
  951SOL     OW 3801   2.950   2.119   2.836 -0.3840  0.1937 -0.1492
  951SOL    HW1 3802   3.010   2.168   2.898 -0.8648 -0.8324  0.0855
  951SOL    HW2 3803   3.008   2.116   2.758  1.0579  2.1154  0.9770
  951SOL     MW 3804   2.966   2.125   2.834 -0.2572  0.3119  0.0303
  952SOL     OW 3805   3.089   1.755   2.166  0.0084 -0.1141  0.2883
  952SOL    HW1 3806   3.009   1.769   2.119 -0.0185 -3.4712  2.0474
  952SOL    HW2 3807   3.164   1.798   2.128  0.4930 -2.2387  0.3651
  952SOL     MW 3808   3.089   1.763   2.155  0.0688 -0.8374  0.5306
  953SOL     OW 3809   1.934   1.796   2.925 -0.2888  0.5135  0.3539
  953SOL    HW1 3810   1.850   1.767   2.979 -0.0981 -0.3172  0.2798
  953SOL    HW2 3811   1.954   1.731   2.864 -0.5570 -1.0266  0.7468
  953SOL     MW 3812   1.926   1.784   2.924 -0.2990  0.2007  0.3960
  954SOL     OW 3813   2.498   2.056   2.879 -0.0337 -0.0606 -0.2485
  954SOL    HW1 3814   2.414   2.031   2.837  2.1857 -0.3431 -0.8389
  954SOL    HW2 3815   2.563   2.043   2.804 -0.1491 -3.0255  0.0793
  954SOL     MW 3816   2.496   2.051   2.864  0.2439 -0.4891 -0.2831
  955SOL     OW 3817   1.595   1.632   2.547  0.2601 -0.1799 -0.3153
  955SOL    HW1 3818   1.560   1.622   2.455 -0.4753  2.6511  3.8014
  955SOL    HW2 3819   1.672   1.683   2.544 -2.9476  0.0226  1.3658
  955SOL     MW 3820   1.600   1.638   2.534 -0.2601  0.2203  0.4497
  956SOL     OW 3821   2.688   2.445   2.846  0.6785 -0.3046  0.0566
  956SOL    HW1 3822   2.730   2.413   2.931  0.7793 -0.4786  1.6603
  956SOL    HW2 3823   2.726   2.390   2.778 -2.6797 -4.4102 -2.4236
  956SOL     MW 3824   2.698   2.433   2.848  0.2487 -0.8692 -0.0590
  957SOL     OW 3825   2.254   2.889   0.385  0.2641  0.1475  0.2050
  957SOL    HW1 3826   2.166   2.874   0.349  0.3093 -1.1560 -0.3554
  957SOL    HW2 3827   2.256   2.846   0.468  2.1558 -0.6004 -1.5764
  957SOL     MW 3828   2.243   2.881   0.391  0.5196 -0.1232 -0.1040
  958SOL     OW 3829   2.025   2.619   2.830  0.8259 -0.9665  0.2050
  958SOL    HW1 3830   1.982   2.545   2.797 -1.0332 -0.0388  0.1123
  958SOL    HW2 3831   1.948   2.656   2.874 -0.9109 -3.1181  0.8256
  958SOL     MW 3832   2.009   2.615   2.832  0.3515 -1.1280  0.2747
  959SOL     OW 3833   2.444   2.628   0.361 -0.2127  0.1996  0.6251
  959SOL    HW1 3834   2.484   2.620   0.271  1.3736  1.1065 -3.7853
  959SOL    HW2 3835   2.376   2.692   0.352  0.9939  3.5579  0.7847
  959SOL     MW 3836   2.440   2.635   0.348  0.1558  0.7623  0.0643
  960SOL     OW 3837   1.944   2.328   2.249  0.7616 -0.2938 -0.1334
  960SOL    HW1 3838   1.904   2.252   2.214 -1.0696  0.7452  1.2295
  960SOL    HW2 3839   1.883   2.347   2.321  0.2074  0.0531 -0.6880
  960SOL     MW 3840   1.931   2.321   2.254  0.4469 -0.1109 -0.0267
  961SOL     OW 3841   2.206   2.307   2.336  0.3351 -0.0724 -0.5770
  961SOL    HW1 3842   2.117   2.310   2.309  1.0274 -0.7606 -2.4053
  961SOL    HW2 3843   2.218   2.337   2.431  1.3072 -1.3507 -0.8888
  961SOL     MW 3844   2.196   2.312   2.345  0.5547 -0.3319 -0.8594
  962SOL     OW 3845   2.219   2.008   2.797  0.3232  0.5661 -0.0764
  962SOL    HW1 3846   2.190   1.988   2.887 -2.2138 -0.5406 -2.4366
  962SOL    HW2 3847   2.252   1.927   2.758 -1.2322  0.8005  0.2422
  962SOL     MW 3848   2.220   1.995   2.803 -0.2167  0.4510 -0.3458
  963SOL     OW 3849   1.850   2.598   1.999  0.4702  0.3343  0.1464
  963SOL    HW1 3850   1.949   2.588   2.019  2.6722 -1.2554  3.0218
  963SOL    HW2 3851   1.818   2.519   1.947 -2.6807  0.1113 -2.5128
  963SOL     MW 3852   1.859   2.586   1.995  0.3450  0.0951  0.1749
  964SOL     OW 3853   1.821   1.980   2.754 -0.6599 -0.2872  0.1603
  964SOL    HW1 3854   1.901   2.048   2.743  0.8316  1.8625 -1.9566
  964SOL    HW2 3855   1.857   1.905   2.799  1.8869 -0.6416 -2.0598
  964SOL     MW 3856   1.836   1.979   2.758 -0.1271 -0.0503 -0.4119
  965SOL     OW 3857   2.247   2.727   0.625  0.0351  0.0554 -0.1237
  965SOL    HW1 3858   2.213   2.632   0.616 -0.1336  1.4127  0.0259
  965SOL    HW2 3859   2.286   2.738   0.715  0.0548  2.9793 -0.9218
  965SOL     MW 3860   2.248   2.716   0.636  0.0154  0.6203 -0.2093
  966SOL     OW 3861   2.613   2.639   2.460 -0.0582 -0.2836  0.2736
  966SOL    HW1 3862   2.571   2.682   2.389  0.4719  1.0109  1.7378
  966SOL    HW2 3863   2.605   2.539   2.428 -0.4128 -2.8646 -0.8979
  966SOL     MW 3864   2.607   2.631   2.447 -0.0351 -0.4533  0.3122
  967SOL     OW 3865   2.919   3.010   2.898  0.0462 -0.1570 -0.1136
  967SOL    HW1 3866   2.937   2.929   2.938 -1.3406  1.0698  1.0504
  967SOL    HW2 3867   2.826   3.017   2.876 -0.9895 -0.8372 -0.5386
  967SOL     MW 3868   2.909   3.001   2.900 -0.2735 -0.0849 -0.0161
  968SOL     OW 3869   2.992   2.604   2.961 -0.0906 -0.0293 -0.1128
  968SOL    HW1 3870   2.907   2.640   2.923  0.1831  0.5260 -0.9579
  968SOL    HW2 3871   3.004   2.529   2.903  1.4899 -1.8795 -2.5081
  968SOL     MW 3872   2.982   2.599   2.949  0.1540 -0.2001 -0.5404
  969SOL     OW 3873   1.527   2.111   1.693  0.1767  0.0185  0.4688
  969SOL    HW1 3874   1.599   2.057   1.715 -0.1226  3.0431 -2.6589
  969SOL    HW2 3875   1.488   2.145   1.775 -0.4521 -2.1563 -1.0556
  969SOL     MW 3876   1.532   2.108   1.707  0.0543  0.1306 -0.1450
  970SOL     OW 3877   1.645   1.666   1.806 -0.2767  0.5619 -0.0245
  970SOL    HW1 3878   1.700   1.661   1.884  3.0025 -2.5617  0.6955
  970SOL    HW2 3879   1.574   1.733   1.826  0.8475 -0.2234 -1.5104
  970SOL     MW 3880   1.643   1.674   1.819  0.3043  0.0462 -0.1256
  971SOL     OW 3881   1.783   0.004   2.383  0.5313 -0.2262  0.1018
  971SOL    HW1 3882   1.832  -0.040   2.309 -1.9024  2.0074  0.6220
  971SOL    HW2 3883   1.841   0.092   2.377  0.0378  1.0646  2.8588
  971SOL     MW 3884   1.797   0.010   2.372  0.1451  0.2388  0.5342
  972SOL     OW 3885   0.273   2.830   2.449  0.1932  0.0142  0.0480
  972SOL    HW1 3886   0.323   2.766   2.500  1.4305  0.9829 -3.0732
  972SOL    HW2 3887   0.319   2.912   2.478 -2.2153 -1.6808  1.8733
  972SOL     MW 3888   0.286   2.832   2.459  0.0387 -0.0816 -0.1230
  973SOL     OW 3889   2.559   0.030   2.127 -0.6106  0.2430  0.4659
  973SOL    HW1 3890   2.549  -0.063   2.117 -0.5822  0.5225  1.6992
  973SOL    HW2 3891   2.565   0.046   2.033 -2.9106 -1.2563 -1.5505
  973SOL     MW 3892   2.558   0.020   2.113 -0.9103  0.0821  0.3626
  974SOL     OW 3893   2.060   0.262   2.721 -0.3070 -0.0912 -0.7240
  974SOL    HW1 3894   2.153   0.234   2.719  2.8295 -0.3980  0.8563
  974SOL    HW2 3895   2.019   0.180   2.762  0.3983 -0.1879 -0.6689
  974SOL     MW 3896   2.067   0.247   2.726  0.1999 -0.1444 -0.5082
  975SOL     OW 3897   2.187   2.517   2.536  0.0890 -0.0446  0.1523
  975SOL    HW1 3898   2.268   2.559   2.557  3.0365 -0.8716 -1.6964
  975SOL    HW2 3899   2.136   2.581   2.487  0.0871  0.4030  1.1562
  975SOL     MW 3900   2.191   2.531   2.532  0.4777 -0.0946  0.0408
  976SOL     OW 3901   0.269   0.382   1.713 -0.0605 -0.3553  0.1450
  976SOL    HW1 3902   0.334   0.320   1.757  2.8524 -3.5120 -1.5519
  976SOL    HW2 3903   0.206   0.320   1.680  1.6086 -0.7916 -3.8732
  976SOL     MW 3904   0.269   0.366   1.715  0.5440 -0.8294 -0.6090
  977SOL     OW 3905   1.727   2.712   2.476  0.2761 -0.2957 -0.1562
  977SOL    HW1 3906   1.704   2.621   2.460  0.4921  0.6469 -1.7961
  977SOL    HW2 3907   1.823   2.720   2.468  2.5029 -1.4453 -0.1020
  977SOL     MW 3908   1.737   2.701   2.473  0.5984 -0.3230 -0.3655
   3.10000   3.10000   3.10000
