977 TIP4P/2005f water molecules t=   1.46000 step= 1460
 3908
    1SOL     OW    1   0.360   0.876   0.068 -0.4638 -0.2123  0.4444
    1SOL    HW1    2   0.342   0.920  -0.014  2.5683  0.3944  2.0516
    1SOL    HW2    3   0.353   0.781   0.062  1.7017 -0.7728  1.3086
    1SOL     MW    4   0.356   0.869   0.057  0.2219 -0.2062  0.7705
    2SOL     OW    5   0.304   3.051   1.108 -0.5059 -0.0455 -0.3146
    2SOL    HW1    6   0.347   3.125   1.069  0.8969 -1.0369 -0.8195
    2SOL    HW2    7   0.212   3.074   1.113 -0.0400 -3.4453 -0.0529
    2SOL     MW    8   0.298   3.064   1.104 -0.2593 -0.6249 -0.3466
    3SOL     OW    9   2.641   0.334   0.969 -0.2884  0.6306 -0.3492
    3SOL    HW1   10   2.674   0.401   0.910 -0.5635 -3.0706  3.5585
    3SOL    HW2   11   2.638   0.372   1.052  0.4244  0.3345 -0.3890
    3SOL     MW   12   2.645   0.348   0.972 -0.2307  0.1032  0.1611
    4SOL     OW   13   3.069   1.728   0.543 -0.1840 -0.3434 -0.5727
    4SOL    HW1   14   3.022   1.783   0.479  0.5083  0.3208 -1.8210
    4SOL    HW2   15   3.145   1.695   0.499 -0.3985 -0.2927  0.3565
    4SOL     MW   16   3.073   1.731   0.529 -0.1210 -0.2491 -0.6148
    5SOL     OW   17   1.638   1.475   0.626  0.2292 -0.4966 -0.1997
    5SOL    HW1   18   1.674   1.424   0.697  1.9267  1.1420  3.1350
    5SOL    HW2   19   1.538   1.498   0.633 -3.2568 -0.1929 -0.7866
    5SOL     MW   20   1.630   1.471   0.636 -0.0068 -0.2403  0.1628
    6SOL     OW   21   0.793   1.423   0.601  0.1901  0.4660 -0.0080
    6SOL    HW1   22   0.698   1.432   0.593 -1.6858 -1.9706 -0.1308
    6SOL    HW2   23   0.818   1.341   0.638  0.2160  3.0291 -0.3039
    6SOL     MW   24   0.784   1.413   0.605 -0.0540  0.4827 -0.0633
    7SOL     OW   25   1.986   1.058   0.013 -0.2620 -0.2995  0.2224
    7SOL    HW1   26   2.053   1.123  -0.012  2.4052  2.1870 -0.7276
    7SOL    HW2   27   1.985   1.051   0.108 -2.6771 -0.4602 -0.1726
    7SOL     MW   28   1.995   1.066   0.022 -0.2288  0.0074  0.0449
    8SOL     OW   29   0.781   1.507   1.165  0.0950 -0.3418 -0.3227
    8SOL    HW1   30   0.880   1.512   1.171 -0.4414  1.8460 -3.1431
    8SOL    HW2   31   0.768   1.420   1.203  1.3945  0.9664  3.0127
    8SOL     MW   32   0.792   1.496   1.171  0.1957  0.1195 -0.2548
    9SOL     OW   33   1.025   0.461   1.327 -0.1730 -0.0344 -0.6796
    9SOL    HW1   34   0.976   0.398   1.270  2.2317  1.2409 -1.7407
    9SOL    HW2   35   1.031   0.434   1.419 -1.1231 -0.4892  1.1395
    9SOL     MW   36   1.019   0.449   1.332  0.0190  0.0738 -0.5796
   10SOL     OW   37   0.276   0.838   0.515  0.1105  1.1091  0.1557
   10SOL    HW1   38   0.369   0.867   0.507  1.2078 -3.5496  2.2036
   10SOL    HW2   39   0.256   0.855   0.608  1.5967  0.4525 -0.8643
   10SOL     MW   40   0.285   0.844   0.526  0.4514  0.4078  0.2913
   11SOL     OW   41   0.762   1.136   1.578 -0.1190 -0.1807 -0.3382
   11SOL    HW1   42   0.827   1.134   1.656  0.0383  0.8345  0.8555
   11SOL    HW2   43   0.792   1.081   1.501  0.0393 -2.7659 -2.0707
   11SOL     MW   44   0.774   1.128   1.578 -0.0774 -0.3879 -0.4093
   12SOL     OW   45   3.058   1.131   0.863  0.8105 -0.1713  0.0474
   12SOL    HW1   46   3.104   1.197   0.911  0.2557  1.2946  0.9934
   12SOL    HW2   47   3.014   1.174   0.784 -1.7542  1.8022 -1.7179
   12SOL     MW   48   3.058   1.145   0.859  0.3989  0.2825 -0.0607
   13SOL     OW   49   1.841   1.416   1.272  0.4163 -0.1158 -0.2582
   13SOL    HW1   50   1.896   1.376   1.211 -0.4605  2.0309  2.2256
   13SOL    HW2   51   1.852   1.512   1.257 -0.2184 -1.3719 -0.8122
   13SOL     MW   52   1.850   1.424   1.262  0.2169  0.0017 -0.0036
   14SOL     OW   53   0.567   0.329   1.864  0.1820  0.4592  0.6782
   14SOL    HW1   54   0.483   0.275   1.851 -1.3747 -0.4405  4.5548
   14SOL    HW2   55   0.609   0.346   1.778 -1.5429  1.4516  0.7731
   14SOL     MW   56   0.562   0.324   1.851 -0.2510  0.4714  1.2022
   15SOL     OW   57   1.994   0.364   1.061  0.0246  0.3240  0.3414
   15SOL    HW1   58   2.046   0.412   1.123 -0.9302  0.6127 -0.1712
   15SOL    HW2   59   2.038   0.366   0.975  0.0840  1.5356  1.2836
   15SOL     MW   60   2.006   0.370   1.058 -0.0935  0.5219  0.3981
   16SOL     OW   61   0.240   1.819   0.258  0.3819  0.1536 -0.6126
   16SOL    HW1   62   0.335   1.808   0.270 -0.6493  3.4802 -2.6143
   16SOL    HW2   63   0.231   1.914   0.280 -1.5091  1.8317 -2.2103
   16SOL     MW   64   0.251   1.830   0.262 -0.0037  0.8139 -1.0875
   17SOL     OW   65   1.076   0.902   1.412  0.1035  0.5631 -0.3391
   17SOL    HW1   66   1.113   0.878   1.502 -0.3961  3.0513  0.8517
   17SOL    HW2   67   0.982   0.879   1.412 -0.5642  2.5892  1.5846
   17SOL     MW   68   1.068   0.896   1.424 -0.0505  1.1587  0.0719
   18SOL     OW   69   0.127   1.591   0.352 -0.6650  0.2707  0.0187
   18SOL    HW1   70   0.179   1.672   0.343  2.9235  0.9640 -0.7735
   18SOL    HW2   71   0.112   1.568   0.256 -3.0099  0.9036 -3.6022
   18SOL     MW   72   0.132   1.598   0.338 -0.5009  0.4457 -0.5636
   19SOL     OW   73   0.088   1.383   0.937 -0.2949 -0.4162 -0.3454
   19SOL    HW1   74   0.130   1.405   0.853  1.1109  0.1750 -0.5800
   19SOL    HW2   75   0.007   1.434   0.932  2.6611 -1.9233 -0.4600
   19SOL     MW   76   0.083   1.392   0.925  0.2806 -0.5371 -0.3915
   20SOL     OW   77   0.430   2.163   1.233  0.1874 -0.0996  0.6846
   20SOL    HW1   78   0.381   2.080   1.212 -2.6722 -0.8152 -0.4136
   20SOL    HW2   79   0.407   2.173   1.326 -2.0697 -0.9962  0.2965
   20SOL     MW   80   0.420   2.153   1.242 -0.4877 -0.3123  0.4885
   21SOL     OW   81   0.528   0.888   0.429  0.7403 -0.0438  0.4145
   21SOL    HW1   82   0.590   0.835   0.476 -0.7352 -1.1469  1.7829
   21SOL    HW2   83   0.540   0.862   0.342  0.8572 -4.2544  1.3653
   21SOL     MW   84   0.538   0.877   0.424  0.5610 -0.7449  0.7205
   22SOL     OW   85   1.586   0.707   0.974  0.4957 -0.3878  0.6266
   22SOL    HW1   86   1.569   0.660   0.895 -2.7514 -0.8302 -0.4322
   22SOL    HW2   87   1.509   0.758   0.991 -0.5563  1.1431  1.2982
   22SOL     MW   88   1.574   0.708   0.966 -0.0715 -0.2442  0.5755
   23SOL     OW   89   3.079   0.719   0.696  0.3207  0.6275  0.3843
   23SOL    HW1   90   3.121   0.644   0.738  0.0572  2.3663  1.3949
   23SOL    HW2   91   3.141   0.790   0.723 -0.5193 -0.9875  2.0861
   23SOL     MW   92   3.093   0.718   0.705  0.1751  0.6438  0.7422
   24SOL     OW   93   2.090   2.197   0.005  0.3656  0.2137  1.0973
   24SOL    HW1   94   2.093   2.207   0.100 -3.6667  0.9226 -0.9336
   24SOL    HW2   95   2.125   2.109  -0.001  1.1704  1.6513  0.1933
   24SOL     MW   96   2.095   2.187   0.017 -0.0602  0.4969  0.7101
   25SOL     OW   97   0.231   1.339   0.421 -0.4576 -0.2434  0.0488
   25SOL    HW1   98   0.205   1.429   0.386 -1.0648  1.2953  0.5202
   25SOL    HW2   99   0.302   1.319   0.368 -1.8378 -1.2039  1.8843
   25SOL     MW  100   0.237   1.349   0.410 -0.7198 -0.1672  0.3532
   26SOL     OW  101   2.037   1.005   0.306 -0.3063 -0.1429  0.5307
   26SOL    HW1  102   1.968   1.033   0.366  2.3992  3.4252  0.0833
   26SOL    HW2  103   2.092   1.076   0.308 -2.0338 -4.9026 -0.0752
   26SOL     MW  104   2.035   1.018   0.314 -0.1773 -0.3002  0.3917
   27SOL     OW  105   1.864   1.359   0.171  0.1349 -0.6579 -0.7469
   27SOL    HW1  106   1.801   1.430   0.155  0.3437 -0.5451 -1.7509
   27SOL    HW2  107   1.911   1.385   0.252 -1.2991 -0.8111 -0.5218
   27SOL     MW  108   1.862   1.371   0.179 -0.0268 -0.6633 -0.8497
   28SOL     OW  109   0.458   0.965   2.003 -0.7273 -0.4014 -0.4545
   28SOL    HW1  110   0.505   0.946   2.084 -2.5558  2.5417 -0.8685
   28SOL    HW2  111   0.365   0.950   2.011  1.1226  2.3535  0.3684
   28SOL     MW  112   0.452   0.961   2.015 -0.7245  0.3504 -0.4006
   29SOL     OW  113   0.263   1.388   0.710  0.0185 -0.2802  0.5676
   29SOL    HW1  114   0.266   1.485   0.724  0.0047  2.7295 -0.4067
   29SOL    HW2  115   0.227   1.378   0.619  2.1947 -0.5675  0.4128
   29SOL     MW  116   0.259   1.399   0.700  0.3038  0.0790  0.4186
   30SOL     OW  117   0.804   1.243   1.233  0.1861 -0.1997  0.7734
   30SOL    HW1  118   0.710   1.246   1.258 -0.7276 -1.5042 -0.9597
   30SOL    HW2  119   0.855   1.211   1.304  2.8294  3.4594 -3.7334
   30SOL     MW  120   0.798   1.239   1.246  0.4143  0.1110 -0.0499
   31SOL     OW  121   0.461   0.287   0.143 -0.2128 -0.0036  0.0027
   31SOL    HW1  122   0.442   0.223   0.213 -0.4217  1.8563  1.2970
   31SOL    HW2  123   0.494   0.232   0.068 -1.7948 -0.3476 -0.3712
   31SOL     MW  124   0.463   0.271   0.142 -0.4491  0.1964  0.1241
   32SOL     OW  125   2.691   0.988   1.154  0.3804  0.3707 -0.0374
   32SOL    HW1  126   2.635   0.907   1.134 -2.3533 -0.4863  0.0512
   32SOL    HW2  127   2.775   0.967   1.120 -0.9057 -1.3499 -0.1440
   32SOL     MW  128   2.694   0.974   1.147 -0.1499  0.0306 -0.0398
   33SOL     OW  129   1.645   1.310   0.412  0.2187 -0.3990  0.1830
   33SOL    HW1  130   1.721   1.254   0.440  2.1009  0.7157  0.4730
   33SOL    HW2  131   1.642   1.370   0.486  1.2187 -0.3189 -1.2508
   33SOL     MW  132   1.654   1.311   0.425  0.5989 -0.2414  0.0321
   34SOL     OW  133   1.216   1.941   1.137 -0.1703 -0.3401  0.6626
   34SOL    HW1  134   1.136   1.989   1.125  3.3722 -1.2938 -1.3834
   34SOL    HW2  135   1.274   1.981   1.206  2.8493  0.0633  2.6340
   34SOL     MW  136   1.213   1.953   1.144  0.6955 -0.4127  0.6527
   35SOL     OW  137   0.317   0.159   1.828  0.4494 -0.0465  0.1608
   35SOL    HW1  138   0.358   0.103   1.894 -2.3941 -0.3516  0.9188
   35SOL    HW2  139   0.330   0.107   1.745 -2.2497 -1.0328  0.7162
   35SOL     MW  140   0.324   0.145   1.826 -0.2819 -0.2169  0.3341
   36SOL     OW  141   1.929   1.935   0.591  0.0288  0.4324 -0.1293
   36SOL    HW1  142   1.918   1.913   0.498 -0.8522 -0.6475 -0.8630
   36SOL    HW2  143   1.926   1.841   0.618  1.1797  1.7325 -0.4833
   36SOL     MW  144   1.927   1.920   0.582  0.0644  0.4615 -0.2728
   37SOL     OW  145   1.832   2.017   1.036  0.0931  0.4877  0.4811
   37SOL    HW1  146   1.762   1.984   0.979  3.4588 -1.4162 -3.3412
   37SOL    HW2  147   1.790   2.084   1.095  2.0842  1.9383  2.1718
   37SOL     MW  148   1.817   2.021   1.036  0.7999  0.4279  0.1999
   38SOL     OW  149   2.840   0.913   0.149  0.4869  0.7491  0.6667
   38SOL    HW1  150   2.852   0.923   0.245  2.1122 -0.7477 -1.0284
   38SOL    HW2  151   2.924   0.869   0.123  0.8286 -2.4777  3.7076
   38SOL     MW  152   2.853   0.909   0.158  0.7464  0.1259  0.8443
   39SOL     OW  153   1.475   0.583   0.740  0.6778  0.6164 -0.4090
   39SOL    HW1  154   1.431   0.505   0.773  0.9318  0.3365  1.6681
   39SOL    HW2  155   1.407   0.650   0.743 -2.9435 -0.4585  2.0728
   39SOL     MW  156   1.460   0.582   0.745  0.2336  0.4377  0.1925
   40SOL     OW  157   1.271   1.898   0.270  0.1676  0.5703  0.2800
   40SOL    HW1  158   1.292   1.810   0.289 -0.6702 -1.1433 -3.2168
   40SOL    HW2  159   1.223   1.943   0.342  0.5116 -0.6285  0.4539
   40SOL     MW  160   1.267   1.892   0.282  0.1025  0.1861 -0.1584
   41SOL     OW  161   0.574   0.531   1.620 -0.5165  0.4152 -0.1178
   41SOL    HW1  162   0.645   0.582   1.581  1.6374  0.1792 -0.3907
   41SOL    HW2  163   0.494   0.575   1.615 -2.7607  1.2609  0.6798
   41SOL     MW  164   0.573   0.544   1.614 -0.5284  0.4956 -0.0486
   42SOL     OW  165   1.273   3.009   1.939 -0.4437 -0.0260 -0.1038
   42SOL    HW1  166   1.193   2.982   1.986  0.4839 -0.7652 -1.5045
   42SOL    HW2  167   1.331   2.937   1.961 -0.8532 -0.0666  0.5100
   42SOL     MW  168   1.270   2.996   1.948 -0.3754 -0.1289 -0.2077
   43SOL     OW  169   1.498   0.139   1.687  0.0800 -0.1161  0.4696
   43SOL    HW1  170   1.576   0.119   1.632 -0.8930  0.6669 -2.4037
   43SOL    HW2  171   1.432   0.076   1.673  0.2799 -0.4275  1.9915
   43SOL     MW  172   1.500   0.128   1.678 -0.0220 -0.0539  0.2913
   44SOL     OW  173   1.280   0.745   1.064 -0.2432  0.5360 -0.4558
   44SOL    HW1  174   1.240   0.835   1.067  0.2146  2.6709  0.9282
   44SOL    HW2  175   1.291   0.738   1.159 -2.3098  0.5887  0.9771
   44SOL     MW  176   1.276   0.756   1.077 -0.4555  0.8246 -0.0841
   45SOL     OW  177   1.277   0.764   0.767 -0.0008  0.2534 -0.2617
   45SOL    HW1  178   1.238   0.763   0.853  0.6903 -0.1607  0.0714
   45SOL    HW2  179   1.194   0.746   0.706 -2.2124 -0.3242 -0.6778
   45SOL     MW  180   1.261   0.761   0.770 -0.2014  0.1225 -0.2726
   46SOL     OW  181   0.513   1.106   0.647 -0.3066 -0.6197 -0.1027
   46SOL    HW1  182   0.508   1.093   0.550  1.9968 -0.5084 -1.8443
   46SOL    HW2  183   0.581   1.174   0.655 -1.2309  2.3174  0.0162
   46SOL     MW  184   0.521   1.113   0.635 -0.1246 -0.2175 -0.3168
   47SOL     OW  185   0.161   1.971   1.958 -0.5536  0.0188  0.1620
   47SOL    HW1  186   0.119   1.917   1.894  0.2403 -1.3880 -1.3092
   47SOL    HW2  187   0.120   1.943   2.036 -2.8155  2.2444 -1.4901
   47SOL     MW  188   0.150   1.960   1.960 -0.7473  0.1268 -0.2501
   48SOL     OW  189   1.165   0.503   1.019  0.4161 -0.3835  0.3137
   48SOL    HW1  190   1.068   0.512   1.000 -0.6285  0.7554 -2.1578
   48SOL    HW2  191   1.201   0.589   1.046  0.1470  2.3334 -0.0785
   48SOL     MW  192   1.157   0.516   1.020  0.2428  0.1252 -0.0641
   49SOL     OW  193   1.689   0.631   1.545 -0.0084  0.3382  0.5358
   49SOL    HW1  194   1.715   0.599   1.631  0.3799  1.3122  0.3218
   49SOL    HW2  195   1.734   0.577   1.483  0.3110 -0.1978  1.8472
   49SOL     MW  196   1.699   0.620   1.548  0.0850  0.3960  0.6806
   50SOL     OW  197   1.266   1.218   0.591  0.5408  1.2175 -0.2034
   50SOL    HW1  198   1.200   1.202   0.664 -2.4542 -0.6140  1.7822
   50SOL    HW2  199   1.332   1.152   0.600 -1.8725  1.1849  3.1949
   50SOL     MW  200   1.266   1.207   0.601 -0.1728  0.9716  0.5070
   51SOL     OW  201   0.314   2.908   0.883 -0.3202 -0.0404 -0.6959
   51SOL    HW1  202   0.410   2.880   0.878  0.0059  1.1338 -0.9982
   51SOL    HW2  203   0.320   2.963   0.963 -0.3114 -0.5437  0.7906
   51SOL     MW  204   0.328   2.912   0.893 -0.2760  0.0481 -0.5397
   52SOL     OW  205   0.814   1.835   0.465  0.0910 -0.2223 -0.1759
   52SOL    HW1  206   0.764   1.920   0.471  0.4514 -0.1993 -0.6671
   52SOL    HW2  207   0.794   1.802   0.379 -0.5997  1.1990  0.3757
   52SOL     MW  208   0.805   1.842   0.455  0.0474 -0.0317 -0.1680
   53SOL     OW  209   0.436   2.156   0.488  0.2780  0.4399  0.4776
   53SOL    HW1  210   0.354   2.127   0.451  1.1458  0.0869 -1.6932
   53SOL    HW2  211   0.432   2.247   0.522 -0.1888 -0.3754 -0.6718
   53SOL     MW  212   0.424   2.164   0.488  0.3309  0.2857  0.0395
   54SOL     OW  213   2.062   0.950   0.762 -0.2471  0.4585 -0.5476
   54SOL    HW1  214   2.128   0.935   0.695  1.5964 -0.1984  1.0679
   54SOL    HW2  215   2.015   0.867   0.775  0.1820  1.1159 -1.0706
   54SOL     MW  216   2.064   0.937   0.755  0.0528  0.4585 -0.4034
   55SOL     OW  217   0.499   1.559   1.674 -0.4064 -0.1530  0.5012
   55SOL    HW1  218   0.442   1.597   1.608  1.7522 -1.2301  1.6382
   55SOL    HW2  219   0.529   1.481   1.625 -2.1342  1.1087  1.5143
   55SOL     MW  220   0.495   1.553   1.659 -0.3496 -0.1286  0.7849
   56SOL     OW  221   0.637   0.881   0.168  0.6283  0.0767  0.5362
   56SOL    HW1  222   0.677   0.967   0.184 -2.0494  2.6517 -0.1166
   56SOL    HW2  223   0.556   0.906   0.125  0.6230 -0.9430  0.7529
   56SOL     MW  224   0.632   0.895   0.165  0.2743  0.2819  0.4787
   57SOL     OW  225   1.150   1.245   1.167 -0.5450  0.5373 -0.2457
   57SOL    HW1  226   1.242   1.267   1.171  0.0148 -1.0553 -3.4811
   57SOL    HW2  227   1.104   1.235   1.252 -1.6265  1.0681  0.2852
   57SOL     MW  228   1.156   1.246   1.179 -0.6139  0.3972 -0.6025
   58SOL     OW  229   0.532   1.258   1.276 -0.8031  0.0941  0.0083
   58SOL    HW1  230   0.498   1.340   1.241 -0.1463  2.1269 -1.3084
   58SOL    HW2  231   0.516   1.254   1.370 -1.5499  1.3955 -1.7605
   58SOL     MW  232   0.526   1.268   1.284 -0.8150  0.5340 -0.3988
   59SOL     OW  233   1.468   1.668   0.327 -0.4271  0.0521  0.0517
   59SOL    HW1  234   1.521   1.715   0.385 -0.7987 -0.4020  1.1363
   59SOL    HW2  235   1.396   1.641   0.379 -0.0968  0.4136  0.6227
   59SOL     MW  236   1.465   1.670   0.342 -0.4325  0.0399  0.2701
   60SOL     OW  237   3.062   0.168   1.708 -0.6313  0.5463 -0.2103
   60SOL    HW1  238   2.983   0.206   1.754 -2.0384 -1.0159 -0.1934
   60SOL    HW2  239   3.094   0.101   1.768  2.8848 -2.8373  1.3606
   60SOL     MW  240   3.056   0.164   1.722 -0.3530 -0.1063 -0.0008
   61SOL     OW  241   1.977   1.381   3.021 -0.2139  0.2080  0.3526
   61SOL    HW1  242   1.932   1.353   3.109 -2.1466  1.7200 -0.6019
   61SOL    HW2  243   2.024   1.311   2.972  0.2384 -2.0245 -0.5898
   61SOL     MW  244   1.977   1.368   3.026 -0.4092  0.1130  0.1023
   62SOL     OW  245   0.539   1.739   0.555  0.1145 -0.1372  0.7106
   62SOL    HW1  246   0.631   1.742   0.564  0.5502 -0.1154  1.2920
   62SOL    HW2  247   0.524   1.649   0.538  2.6324  2.5071  2.0076
   62SOL     MW  248   0.549   1.727   0.554  0.5042  0.2146  0.9584
   63SOL     OW  249   1.722   0.658   0.651 -0.2439  0.1857  0.0409
   63SOL    HW1  250   1.714   0.746   0.609 -0.5317  0.4770 -1.8569
   63SOL    HW2  251   1.629   0.642   0.684 -0.5906  2.0557 -0.6708
   63SOL     MW  252   1.708   0.668   0.650 -0.3276  0.4709 -0.3034
   64SOL     OW  253   0.254   1.654   0.757 -0.5053 -0.5791 -0.0499
   64SOL    HW1  254   0.329   1.692   0.806 -1.7485  0.7355  0.9149
   64SOL    HW2  255   0.182   1.712   0.781  2.4013 -0.3511 -0.1760
   64SOL     MW  256   0.254   1.666   0.767 -0.2858 -0.3755  0.0608
   65SOL     OW  257   1.542   2.310   0.359 -0.5252 -0.0030 -0.4137
   65SOL    HW1  258   1.628   2.313   0.401 -1.0511  0.0421 -0.6791
   65SOL    HW2  259   1.487   2.368   0.416 -2.6905  2.7182  2.0277
   65SOL     MW  260   1.546   2.318   0.372 -0.8803  0.3620 -0.1266
   66SOL     OW  261   0.342   0.574   0.481 -0.0947  0.0084 -0.1298
   66SOL    HW1  262   0.393   0.564   0.400 -3.6072 -0.9037 -1.3959
   66SOL    HW2  263   0.333   0.675   0.494 -2.1227  0.8955 -1.3518
   66SOL     MW  264   0.348   0.586   0.472 -0.8257  0.0051 -0.4581
   67SOL     OW  265   1.472   0.083   1.962  0.0755 -0.3621 -0.2593
   67SOL    HW1  266   1.504   0.116   1.880  1.3119 -4.6335  0.3029
   67SOL    HW2  267   1.404   0.013   1.943 -1.3459 -0.9977 -0.6061
   67SOL     MW  268   1.468   0.078   1.949  0.0511 -1.0095 -0.2309
   68SOL     OW  269   0.771   3.096   2.977  0.3998 -0.2665  0.0390
   68SOL    HW1  270   0.793   3.162   2.914 -1.7989 -0.7857  0.5311
   68SOL    HW2  271   0.846   3.078   3.032 -2.2330  0.3683 -0.8694
   68SOL     MW  272   0.784   3.102   2.976 -0.2377 -0.2513 -0.0160
   69SOL     OW  273   0.951   0.194   1.960  0.1277  0.3688  0.1716
   69SOL    HW1  274   1.047   0.214   1.958 -0.1448 -1.7626 -4.1728
   69SOL    HW2  275   0.954   0.115   2.018  0.3855 -1.0248  1.4486
   69SOL     MW  276   0.964   0.186   1.968  0.1257 -0.0963 -0.2332
   70SOL     OW  277   0.480   1.706   1.073  0.1502  0.3986 -0.1026
   70SOL    HW1  278   0.546   1.766   1.102 -1.4606  1.0953 -2.6415
   70SOL    HW2  279   0.540   1.648   1.019  2.3526  3.1035 -0.6938
   70SOL     MW  280   0.496   1.706   1.070  0.2283  0.8474 -0.5156
   71SOL     OW  281   1.489   0.548   1.179 -0.5220 -0.1474  0.0076
   71SOL    HW1  282   1.492   0.610   1.250 -0.7321 -0.8367 -0.5970
   71SOL    HW2  283   1.531   0.587   1.101 -2.3512 -1.4996 -2.0400
   71SOL     MW  284   1.495   0.562   1.178 -0.7911 -0.4168 -0.3423
   72SOL     OW  285   0.751   1.863   1.018 -0.4975  0.0309  0.2483
   72SOL    HW1  286   0.719   1.925   0.954 -0.6279 -3.0928 -0.6001
   72SOL    HW2  287   0.787   1.793   0.964  1.4307 -2.4500  2.2800
   72SOL     MW  288   0.752   1.862   1.003 -0.2603 -0.7086  0.4044
   73SOL     OW  289   1.231   0.676   1.339  0.3756 -0.1528  0.3946
   73SOL    HW1  290   1.178   0.602   1.328 -2.3769 -0.9654 -0.2281
   73SOL    HW2  291   1.162   0.740   1.366 -1.9222 -0.4877 -0.7716
   73SOL     MW  292   1.215   0.675   1.341 -0.2907 -0.3042  0.1586
   74SOL     OW  293   2.888   0.218   1.054  0.1702 -0.7390 -0.1673
   74SOL    HW1  294   2.941   0.160   0.992  3.3357  0.1402 -0.2054
   74SOL    HW2  295   2.813   0.247   0.998 -1.7808 -2.8998 -0.4211
   74SOL     MW  296   2.885   0.214   1.039  0.3304 -0.9081 -0.2058
   75SOL     OW  297   1.588   1.329   0.111  0.4035  0.4250  0.3334
   75SOL    HW1  298   1.661   1.272   0.083 -1.2061  1.2617  0.2589
   75SOL    HW2  299   1.598   1.333   0.209 -1.4037 -1.2951 -0.7812
   75SOL     MW  300   1.599   1.322   0.120 -0.0473  0.3085  0.1765
   76SOL     OW  301   2.986   0.629   0.457 -0.5535  0.8648 -0.3498
   76SOL    HW1  302   3.013   0.653   0.548  1.0682  1.6774 -0.6302
   76SOL    HW2  303   3.057   0.574   0.420 -1.0278  3.0448  0.7913
   76SOL     MW  304   2.999   0.625   0.464 -0.4021  1.2596 -0.2362
   77SOL     OW  305   0.899   0.574   0.406 -0.4085  0.4683 -0.2443
   77SOL    HW1  306   0.863   0.580   0.319 -1.8249  2.1895 -0.0839
   77SOL    HW2  307   0.892   0.481   0.419 -1.5630  1.4355 -1.2215
   77SOL     MW  308   0.894   0.563   0.396 -0.7477  0.8230 -0.3521
   78SOL     OW  309   0.743   0.870   1.145 -0.6139 -0.4124  0.2548
   78SOL    HW1  310   0.778   0.950   1.093 -2.8051  2.5270 -1.4224
   78SOL    HW2  311   0.650   0.867   1.137 -0.8485  0.0062  0.5955
   78SOL     MW  312   0.736   0.880   1.137 -0.9340  0.0307  0.0785
   79SOL     OW  313   1.870   1.636   0.604 -0.3965 -0.5908 -0.7107
   79SOL    HW1  314   1.781   1.599   0.592 -3.4314 -1.3577  2.1411
   79SOL    HW2  315   1.886   1.631   0.698 -0.3543 -1.6697 -2.9016
   79SOL     MW  316   1.860   1.631   0.615 -0.7914 -0.8343 -0.6235
   80SOL     OW  317   0.068   0.966   0.376  0.2053  0.5129  0.0288
   80SOL    HW1  318  -0.013   0.920   0.371 -0.6257  2.7653 -1.5187
   80SOL    HW2  319   0.134   0.906   0.403  1.0952  0.3173 -1.2651
   80SOL     MW  320   0.066   0.952   0.379  0.2131  0.7843 -0.3461
   81SOL     OW  321   1.855   1.863   0.332 -0.2063 -0.7906  0.2873
   81SOL    HW1  322   1.825   1.777   0.308 -2.9964 -2.9349  0.6881
   81SOL    HW2  323   1.810   1.924   0.272 -1.2029 -1.1877 -0.2861
   81SOL     MW  324   1.845   1.859   0.321 -0.7059 -1.1259  0.2645
   82SOL     OW  325   0.873   1.029   0.512  0.3504 -0.1819  0.2499
   82SOL    HW1  326   0.852   1.045   0.419 -3.1694 -2.3849 -0.3042
   82SOL    HW2  327   0.845   0.938   0.539  0.2971 -0.4304  0.9609
   82SOL     MW  328   0.867   1.019   0.503 -0.1210 -0.5054  0.2706
   83SOL     OW  329   0.046   0.760   1.483 -0.3643  0.8817  0.1015
   83SOL    HW1  330   0.038   0.803   1.397  1.9093 -0.0884 -2.8869
   83SOL    HW2  331   0.129   0.715   1.477  1.3300 -1.2141 -0.1841
   83SOL     MW  332   0.056   0.760   1.471  0.1592  0.4772 -0.3304
   84SOL     OW  333   0.039   0.201   0.898 -0.1116 -0.1052  0.1118
   84SOL    HW1  334   0.016   0.290   0.935  1.0726  1.4945  0.6969
   84SOL    HW2  335   0.049   0.147   0.980  2.2241 -2.3146  0.8408
   84SOL     MW  336   0.037   0.206   0.914  0.3528 -0.1856  0.2852
   85SOL     OW  337   0.397   0.445   0.714  0.2228  0.3126  0.2758
   85SOL    HW1  338   0.376   0.474   0.628 -1.4040  0.6979  2.6070
   85SOL    HW2  339   0.362   0.356   0.730  2.6726  0.6425  0.5150
   85SOL     MW  340   0.390   0.437   0.705  0.3314  0.4070  0.6149
   86SOL     OW  341   1.195   0.247   1.146  0.4411  0.1728  0.0269
   86SOL    HW1  342   1.190   0.335   1.111  1.7420 -0.7308 -0.8141
   86SOL    HW2  343   1.275   0.255   1.195  0.1771  1.7702  2.5520
   86SOL     MW  344   1.205   0.260   1.148  0.5779  0.2644  0.2491
   87SOL     OW  345   1.050   1.500   1.207 -0.1362  0.4327 -0.2991
   87SOL    HW1  346   1.098   1.566   1.158 -1.9108 -0.7960  1.7010
   87SOL    HW2  347   1.091   1.418   1.178 -0.2187 -1.5753 -1.1038
   87SOL     MW  348   1.062   1.498   1.196 -0.3812  0.0057 -0.1414
   88SOL     OW  349   1.245   1.023   0.999  0.3298  0.0209  0.1690
   88SOL    HW1  350   1.332   1.056   0.986  0.0201  1.0637  0.5687
   88SOL    HW2  351   1.210   1.070   1.078 -0.4574 -0.8535  2.7016
   88SOL     MW  352   1.252   1.034   1.008  0.1851  0.0431  0.5559
   89SOL     OW  353   1.743   0.729   0.354  0.4877  0.1432 -0.9344
   89SOL    HW1  354   1.698   0.645   0.358 -1.0622  0.3663 -1.5025
   89SOL    HW2  355   1.839   0.705   0.352 -0.1852 -1.2631 -1.0331
   89SOL     MW  356   1.749   0.715   0.354  0.1944 -0.0129 -1.0224
   90SOL     OW  357   0.858   1.172   2.877  0.0041  1.0638  0.0716
   90SOL    HW1  358   0.869   1.075   2.885  0.4124  1.9557 -1.8269
   90SOL    HW2  359   0.881   1.196   2.969 -0.0923  0.7701 -0.9276
   90SOL     MW  360   0.863   1.162   2.891  0.0453  1.1427 -0.3107
   91SOL     OW  361   2.196   0.663   0.451 -0.5609  0.0337 -0.0237
   91SOL    HW1  362   2.273   0.687   0.387  2.3091  2.7756  1.5301
   91SOL    HW2  363   2.178   0.571   0.443  1.0178  2.2450  0.0199
   91SOL     MW  364   2.204   0.654   0.441  0.0261  0.6872  0.1871
   92SOL     OW  365   1.651   0.921   0.574 -0.0076  0.0091  0.3170
   92SOL    HW1  366   1.568   0.938   0.625  0.6253  0.6679 -0.1131
   92SOL    HW2  367   1.625   0.883   0.491 -1.7850  1.9555  1.8838
   92SOL     MW  368   1.637   0.919   0.570 -0.1586  0.3528  0.4670
   93SOL     OW  369   1.131   0.198   0.407 -0.2854 -0.2630  0.0999
   93SOL    HW1  370   1.043   0.197   0.433 -0.4419 -0.5505 -3.0747
   93SOL    HW2  371   1.136   0.262   0.334  0.2588  1.8777  1.2590
   93SOL     MW  372   1.120   0.207   0.401 -0.2342 -0.0185 -0.1660
   94SOL     OW  373   1.858   1.380   1.582 -0.5016  0.1190 -0.4824
   94SOL    HW1  374   1.866   1.381   1.487 -0.1603  0.2392 -2.6204
   94SOL    HW2  375   1.837   1.288   1.605  3.4430 -0.9715 -3.7930
   94SOL     MW  376   1.856   1.368   1.573  0.0639 -0.0090 -1.2013
   95SOL     OW  377   0.635   1.532   0.912  0.2122 -0.3072 -0.1028
   95SOL    HW1  378   0.710   1.505   0.966 -3.5838 -1.4063  0.4714
   95SOL    HW2  379   0.595   1.453   0.866  0.3707 -0.2376 -0.3674
   95SOL     MW  380   0.639   1.518   0.913 -0.2678 -0.4430 -0.0619
   96SOL     OW  381   1.329   1.862   1.730  0.0840 -0.5922  0.2499
   96SOL    HW1  382   1.236   1.880   1.744 -1.5214  3.7768 -2.2906
   96SOL    HW2  383   1.341   1.778   1.683  1.8208 -0.4428 -1.8671
   96SOL     MW  384   1.318   1.853   1.725  0.1013  0.0039 -0.3646
   97SOL     OW  385   1.107   1.458   0.876 -0.5147 -0.1202  0.6007
   97SOL    HW1  386   1.171   1.523   0.903 -0.4701  0.1024  1.2702
   97SOL    HW2  387   1.028   1.508   0.855 -1.9873  1.9452  0.9497
   97SOL     MW  388   1.105   1.473   0.877 -0.7031  0.1817  0.7351
   98SOL     OW  389   1.417   1.358   1.153 -0.5462  0.3631 -0.1324
   98SOL    HW1  390   1.453   1.405   1.232 -0.4158 -0.2689  1.7995
   98SOL    HW2  391   1.432   1.412   1.077 -0.2571 -3.5748 -0.3165
   98SOL     MW  392   1.424   1.371   1.153 -0.4909 -0.2398  0.0982
   99SOL     OW  393   1.440   0.283   1.263 -0.3199  0.2085 -0.1826
   99SOL    HW1  394   1.447   0.369   1.225 -1.7510 -1.3949  2.3351
   99SOL    HW2  395   1.444   0.301   1.354 -3.7964 -0.8385  0.1319
   99SOL     MW  396   1.441   0.297   1.270 -0.9674 -0.1412  0.1911
  100SOL     OW  397   1.021   1.165   1.386 -0.0260 -0.1295 -0.1395
  100SOL    HW1  398   1.047   1.191   1.476  1.1258 -0.2789  0.2621
  100SOL    HW2  399   1.055   1.074   1.374  0.9353 -1.8223 -0.9002
  100SOL     MW  400   1.029   1.156   1.397  0.2528 -0.3725 -0.1869
  101SOL     OW  401   0.547   1.178   0.359 -0.0079  0.0009  0.2414
  101SOL    HW1  402   0.510   1.137   0.281  3.2601  0.7140 -0.7923
  101SOL    HW2  403   0.635   1.153   0.339 -2.8549 -0.6232  0.8776
  101SOL     MW  404   0.554   1.169   0.346  0.0476  0.0126  0.1890
  102SOL     OW  405   2.889   0.653   1.052 -0.2764  0.3271  0.4134
  102SOL    HW1  406   2.913   0.749   1.041  0.7064  2.8041  0.3113
  102SOL    HW2  407   2.839   0.638   1.134  3.3257 -0.2397 -0.5568
  102SOL     MW  408   2.886   0.664   1.062  0.3285  0.5791  0.2719
  103SOL     OW  409   1.830   0.223   1.804 -0.0718  0.1450 -0.2717
  103SOL    HW1  410   1.825   0.133   1.780 -0.7041 -0.3629 -1.9474
  103SOL    HW2  411   1.835   0.227   1.900  0.8973  0.6778  0.9100
  103SOL     MW  412   1.830   0.212   1.814 -0.0274  0.1483 -0.3369
  104SOL     OW  413   0.103   1.524   1.606 -0.4629  0.1052  0.6449
  104SOL    HW1  414   0.151   1.453   1.644 -1.4472 -2.9253  2.1770
  104SOL    HW2  415   0.016   1.480   1.615  0.3773 -0.9969  1.0787
  104SOL     MW  416   0.098   1.509   1.612 -0.4819 -0.4401  0.9043
  105SOL     OW  417   3.083   1.221   0.404 -0.2279 -0.0146 -0.1143
  105SOL    HW1  418   3.096   1.128   0.376 -1.3337  0.5439 -0.0261
  105SOL    HW2  419   3.172   1.254   0.404  0.3417 -4.4679 -1.8799
  105SOL     MW  420   3.097   1.213   0.401 -0.2986 -0.5285 -0.3356
  106SOL     OW  421   0.756   0.411   0.899 -0.2459  0.0842 -0.0475
  106SOL    HW1  422   0.670   0.448   0.920 -0.4690 -1.7971  0.7970
  106SOL    HW2  423   0.785   0.465   0.825 -1.2857  1.4390 -1.6741
  106SOL     MW  424   0.749   0.423   0.892 -0.4125  0.0147 -0.1507
  107SOL     OW  425   0.814   2.112   2.898 -0.8367  0.1504  0.0883
  107SOL    HW1  426   0.724   2.136   2.880  1.6251  1.9040  1.0908
  107SOL    HW2  427   0.803   2.084   2.986 -1.5310  2.9733  0.1823
  107SOL     MW  428   0.801   2.111   2.907 -0.6035  0.7542  0.2330
  108SOL     OW  429   1.355   1.600   1.644 -0.1142 -0.2208  0.0459
  108SOL    HW1  430   1.292   1.564   1.572  1.1940  1.7169 -2.7285
  108SOL    HW2  431   1.437   1.557   1.648 -0.1231 -0.0890 -0.3992
  108SOL     MW  432   1.358   1.589   1.635  0.0572  0.0523 -0.3789
  109SOL     OW  433   2.015   0.708   0.253 -0.3154 -0.3457  0.2849
  109SOL    HW1  434   2.034   0.801   0.236  2.8406  0.6640 -0.7686
  109SOL    HW2  435   2.081   0.687   0.321  0.6119  0.9155  1.1079
  109SOL     MW  436   2.026   0.718   0.260  0.2234 -0.0460  0.2545
  110SOL     OW  437   0.413   1.936   0.712  0.2644  0.3140 -0.0011
  110SOL    HW1  438   0.446   1.872   0.652 -2.5496  2.1825 -3.4047
  110SOL    HW2  439   0.406   2.013   0.661  1.2100 -2.3495  2.3914
  110SOL     MW  440   0.416   1.937   0.698  0.0179  0.2091 -0.1345
  111SOL     OW  441   0.806   0.892   1.409  0.3736 -0.0788 -0.6438
  111SOL    HW1  442   0.768   0.876   1.323  3.4352 -0.3249 -0.9646
  111SOL    HW2  443   0.811   0.798   1.442 -0.3953  0.3592 -2.3578
  111SOL     MW  444   0.802   0.877   1.402  0.6761 -0.0535 -0.9123
  112SOL     OW  445   1.374   1.077   1.612 -0.7320 -0.4128 -0.2562
  112SOL    HW1  446   1.312   1.147   1.625  1.9064 -0.6771 -0.1774
  112SOL    HW2  447   1.326   0.994   1.624  0.0417 -0.6276 -0.6036
  112SOL     MW  448   1.360   1.076   1.616 -0.2818 -0.4760 -0.2916
  113SOL     OW  449   1.247   3.064   1.673  0.3157 -0.0327  0.0468
  113SOL    HW1  450   1.257   3.029   1.766 -1.0699 -0.6525  1.8681
  113SOL    HW2  451   1.229   2.994   1.608  0.8372  0.2227 -1.3991
  113SOL     MW  452   1.246   3.050   1.677  0.2017 -0.0808  0.0963
  114SOL     OW  453   0.262   2.880   1.874  0.0592 -0.1680  0.2475
  114SOL    HW1  454   0.313   2.907   1.945  2.1619 -0.8659 -1.7381
  114SOL    HW2  455   0.195   2.954   1.853 -1.4241  1.3854  0.7768
  114SOL     MW  456   0.260   2.894   1.881  0.1409 -0.0551  0.0554
  115SOL     OW  457   0.467   0.793   1.153  0.5170 -0.1235  0.6699
  115SOL    HW1  458   0.506   0.710   1.188  0.3664 -0.8127 -0.7939
  115SOL    HW2  459   0.413   0.816   1.230 -1.0474  0.0030 -3.6379
  115SOL     MW  460   0.465   0.785   1.168  0.2907 -0.1977 -0.0916
  116SOL     OW  461   0.823   1.099   1.008 -0.2263 -0.1285  0.1624
  116SOL    HW1  462   0.859   1.150   0.935 -0.2906  0.2622  0.1599
  116SOL    HW2  463   0.830   1.163   1.077  1.3977 -0.2322 -4.8375
  116SOL     MW  464   0.829   1.114   1.007 -0.0205 -0.0907 -0.4976
  117SOL     OW  465   1.121   1.190   0.805  0.1681  0.5558  0.3845
  117SOL    HW1  466   1.158   1.128   0.867  1.1552  1.5219  0.8322
  117SOL    HW2  467   1.146   1.282   0.846  2.9461 -1.0485  2.8454
  117SOL     MW  468   1.129   1.194   0.819  0.6649  0.4716  0.7682
  118SOL     OW  469   3.051   2.950   1.682 -0.2411 -0.6902  0.2752
  118SOL    HW1  470   3.097   2.948   1.763 -0.0729 -0.0955 -2.6451
  118SOL    HW2  471   2.961   2.968   1.706  2.0133 -2.8345 -1.8365
  118SOL     MW  472   3.045   2.952   1.695  0.0786 -0.8947 -0.3887
  119SOL     OW  473   0.414   1.512   1.263  0.1100 -0.0899  0.1215
  119SOL    HW1  474   0.433   1.567   1.188 -2.3203  2.4514  2.3915
  119SOL    HW2  475   0.325   1.483   1.244 -0.8776 -1.5892 -1.0433
  119SOL     MW  476   0.405   1.516   1.250 -0.3410  0.0475  0.2673
  120SOL     OW  477   0.221   0.773   1.010  0.6165  0.2371 -0.4432
  120SOL    HW1  478   0.168   0.830   1.065 -2.5422 -0.1903 -1.6153
  120SOL    HW2  479   0.308   0.766   1.048  0.2505 -5.0581  0.6454
  120SOL     MW  480   0.226   0.780   1.022  0.1514 -0.5179 -0.4542
  121SOL     OW  481   1.759   1.101   1.662  0.3393 -0.4460  0.3842
  121SOL    HW1  482   1.693   1.100   1.583 -0.5213  1.9606 -1.3250
  121SOL    HW2  483   1.819   1.036   1.633 -2.4660 -1.1490  0.3858
  121SOL     MW  484   1.758   1.092   1.648 -0.1444 -0.2212  0.1589
  122SOL     OW  485   0.176   0.553   0.822 -0.2952 -0.1236  0.3817
  122SOL    HW1  486   0.252   0.505   0.781 -0.3545  0.9767  1.6333
  122SOL    HW2  487   0.215   0.638   0.850  0.5266  1.4214 -1.0999
  122SOL     MW  488   0.191   0.558   0.821 -0.1946  0.2254  0.3513
  123SOL     OW  489   1.842   1.108   0.490  0.0656  0.4886  0.1770
  123SOL    HW1  490   1.780   1.062   0.547  2.0868  0.3453  1.7114
  123SOL    HW2  491   1.915   1.135   0.548 -0.1706 -2.3060  0.1113
  123SOL     MW  492   1.843   1.106   0.505  0.3011  0.1009  0.3708
  124SOL     OW  493   0.514   0.558   0.939  0.2982 -0.5895 -0.1277
  124SOL    HW1  494   0.468   0.526   0.859 -1.2563 -0.8388 -1.1271
  124SOL    HW2  495   0.560   0.640   0.920  0.8509 -0.2988  2.2731
  124SOL     MW  496   0.514   0.565   0.926  0.1660 -0.5840  0.0572
  125SOL     OW  497   0.738   1.770   1.736 -0.2091 -0.4422  0.5188
  125SOL    HW1  498   0.701   1.687   1.704  2.1798 -0.5590 -1.9022
  125SOL    HW2  499   0.669   1.843   1.742 -2.7004 -3.2501 -0.8134
  125SOL     MW  500   0.724   1.769   1.733 -0.2226 -0.8281  0.0236
  126SOL     OW  501   2.162   1.494   1.949 -0.0448 -0.2376  0.0102
  126SOL    HW1  502   2.239   1.554   1.958 -0.1020 -1.9562  0.7356
  126SOL    HW2  503   2.200   1.408   1.943 -1.8767  0.2357  1.0626
  126SOL     MW  504   2.177   1.491   1.950 -0.2941 -0.4019  0.2448
  127SOL     OW  505   0.581   0.869   1.781 -0.1350 -0.0208 -0.0060
  127SOL    HW1  506   0.656   0.813   1.810  1.9589 -0.0416 -1.3233
  127SOL    HW2  507   0.542   0.912   1.863 -1.4260 -0.4074 -0.4551
  127SOL     MW  508   0.586   0.867   1.795 -0.0291 -0.0746 -0.2391
  128SOL     OW  509   1.683   0.715   2.900  0.3007  0.0996  0.1247
  128SOL    HW1  510   1.719   0.680   2.815 -1.5388 -0.0355 -3.9726
  128SOL    HW2  511   1.667   0.804   2.870  2.8263  0.2322  0.4870
  128SOL     MW  512   1.685   0.722   2.885  0.3912  0.0993 -0.3681
  129SOL     OW  513   1.607   0.933   0.199 -0.1221  0.0571  0.5554
  129SOL    HW1  514   1.541   0.861   0.191 -0.6230 -1.0474 -1.5237
  129SOL    HW2  515   1.678   0.900   0.248  0.4624 -0.8555 -1.9569
  129SOL     MW  516   1.608   0.919   0.204 -0.1110 -0.2090 -0.0504
  130SOL     OW  517   0.764   1.413   0.306 -0.2844  0.0590  0.1068
  130SOL    HW1  518   0.788   1.419   0.404 -1.3513 -1.3490 -1.1100
  130SOL    HW2  519   0.851   1.413   0.260  0.6339  1.6522 -0.8503
  130SOL     MW  520   0.778   1.414   0.313 -0.3040  0.0835 -0.1800
  131SOL     OW  521   3.051   0.812   0.022  0.3587 -0.0607 -0.0321
  131SOL    HW1  522   3.042   0.872  -0.062  0.6190 -2.1648 -1.0970
  131SOL    HW2  523   3.143   0.783   0.036  3.1365  0.0368 -0.1401
  131SOL     MW  524   3.062   0.816   0.013  0.7595 -0.3255 -0.1869
  132SOL     OW  525   2.745   0.158   1.279 -0.2558 -0.1394 -0.2819
  132SOL    HW1  526   2.797   0.163   1.200  3.3205 -2.2400  0.3500
  132SOL    HW2  527   2.680   0.083   1.262  2.1364 -2.3646  0.4756
  132SOL     MW  528   2.744   0.149   1.266  0.5317 -0.7101 -0.0986
  133SOL     OW  529   1.041   0.148   1.685 -0.7694 -0.9565 -0.0292
  133SOL    HW1  530   1.108   0.080   1.703  0.6333 -2.6020 -1.4073
  133SOL    HW2  531   0.973   0.142   1.752 -0.2660  1.8386  1.1850
  133SOL     MW  532   1.041   0.138   1.696 -0.5179 -0.8048 -0.0508
  134SOL     OW  533   1.424   2.439   1.470  0.3530 -0.8994  0.7805
  134SOL    HW1  534   1.358   2.501   1.433 -1.1690  2.0639  2.7282
  134SOL    HW2  535   1.446   2.486   1.553  1.2571 -0.1286 -0.3106
  134SOL     MW  536   1.418   2.454   1.476  0.2715 -0.4067  0.8935
  135SOL     OW  537   3.052   0.982   2.884 -0.3507 -0.0646  0.6767
  135SOL    HW1  538   3.111   1.030   2.936  1.2151 -0.6115 -0.5846
  135SOL    HW2  539   2.967   1.035   2.881 -0.0953  1.8080 -0.4351
  135SOL     MW  540   3.048   0.995   2.891 -0.1104  0.1103  0.3636
  136SOL     OW  541   0.225   2.041   0.880 -0.1825 -0.2977  0.3920
  136SOL    HW1  542   0.146   1.983   0.864  1.3359 -0.2197 -0.2150
  136SOL    HW2  543   0.291   2.015   0.821  0.8615  0.1103  1.1652
  136SOL     MW  544   0.223   2.030   0.870  0.1556 -0.2336  0.4139
  137SOL     OW  545   0.687   2.065   0.533  0.2635  0.2533  0.1677
  137SOL    HW1  546   0.677   2.059   0.628 -2.4593  0.6478 -2.4055
  137SOL    HW2  547   0.595   2.090   0.503 -0.7306 -2.4490  0.2216
  137SOL     MW  548   0.673   2.067   0.541 -0.2269 -0.0512 -0.1647
  138SOL     OW  549   0.437   0.512   1.209 -0.4128  0.1483  0.0168
  138SOL    HW1  550   0.343   0.503   1.239 -0.6222  1.4719  0.7467
  138SOL    HW2  551   0.418   0.502   1.118 -0.4239  2.8574  2.0738
  138SOL     MW  552   0.422   0.510   1.201 -0.4419  0.6804  0.3845
  139SOL     OW  553   2.801   0.573   1.309 -0.3081  0.0837  0.6955
  139SOL    HW1  554   2.853   0.492   1.337 -1.0930 -1.6216  0.7983
  139SOL    HW2  555   2.811   0.637   1.383  2.8083  0.7638  1.6050
  139SOL     MW  556   2.809   0.571   1.322 -0.0005 -0.0516  0.8291
  140SOL     OW  557   0.870   0.480   2.004 -0.4257 -0.0964  0.1739
  140SOL    HW1  558   0.874   0.386   1.986 -1.3110  1.1248 -0.2968
  140SOL    HW2  559   0.840   0.476   2.098  0.3985  1.9706  0.6652
  140SOL     MW  560   0.867   0.467   2.014 -0.4337  0.3375  0.1766
  141SOL     OW  561   0.995   0.651   1.670 -0.2236 -0.3206 -0.3665
  141SOL    HW1  562   1.032   0.569   1.651  2.2273  1.5415  0.5681
  141SOL    HW2  563   1.077   0.704   1.672  0.7441  1.8491  0.5541
  141SOL     MW  564   1.011   0.647   1.668  0.2274  0.2114 -0.1218
  142SOL     OW  565   0.850   1.179   0.747  0.2652  0.4362 -0.5069
  142SOL    HW1  566   0.839   1.119   0.671 -3.8766 -1.3517  1.1432
  142SOL    HW2  567   0.944   1.175   0.769 -1.4474  1.4814  0.5379
  142SOL     MW  568   0.861   1.171   0.740 -0.5073  0.3382 -0.1513
  143SOL     OW  569   1.823   0.693   1.085  0.1203 -0.3928 -0.4778
  143SOL    HW1  570   1.870   0.715   1.004  0.5719  0.2189 -0.4625
  143SOL    HW2  571   1.730   0.693   1.052 -0.1119  5.9692 -0.2633
  143SOL     MW  572   1.817   0.696   1.070  0.1493  0.5273 -0.4475
  144SOL     OW  573   0.279   1.352   1.712 -0.2426 -0.2476 -0.1329
  144SOL    HW1  574   0.365   1.405   1.696  2.9844 -2.4497  0.9081
  144SOL    HW2  575   0.300   1.299   1.791 -0.1695  0.0666 -2.4597
  144SOL     MW  576   0.293   1.352   1.720  0.1928 -0.4967 -0.3026
  145SOL     OW  577   0.154   0.455   1.237 -0.5599 -0.4046 -0.8591
  145SOL    HW1  578   0.206   0.371   1.242  0.5526  2.3932 -0.2738
  145SOL    HW2  579   0.098   0.438   1.160  3.5675 -2.3130 -0.4332
  145SOL     MW  580   0.154   0.442   1.227  0.1314 -0.2872 -0.7257
  146SOL     OW  581   0.894   1.897   1.365 -0.1950 -0.3369 -0.3162
  146SOL    HW1  582   0.952   1.945   1.310 -1.0524  0.4579 -1.7346
  146SOL    HW2  583   0.818   1.875   1.308 -0.5542 -2.2726 -0.2980
  146SOL     MW  584   0.891   1.901   1.350 -0.3555 -0.4875 -0.5010
  147SOL     OW  585   0.434   0.510   2.945 -0.1289 -0.1273 -0.2846
  147SOL    HW1  586   0.361   0.545   3.000 -0.8429 -1.8484 -0.7455
  147SOL    HW2  587   0.405   0.545   2.860 -0.5520  1.7554 -0.0219
  147SOL     MW  588   0.421   0.519   2.941 -0.2789 -0.1060 -0.3108
  148SOL     OW  589   0.027   0.926   1.272 -0.1208  0.5076  0.2105
  148SOL    HW1  590   0.126   0.927   1.278  0.4317  3.6050  2.9505
  148SOL    HW2  591  -0.019   1.003   1.319  0.0278 -0.9301  2.1881
  148SOL     MW  592   0.034   0.936   1.279 -0.0283  0.7266  0.8329
  149SOL     OW  593   1.570   1.167   1.478 -0.0479  0.1627 -0.3344
  149SOL    HW1  594   1.492   1.139   1.532  3.0394  0.7501  1.3550
  149SOL    HW2  595   1.542   1.256   1.457 -1.0111 -1.3414  0.2121
  149SOL     MW  596   1.556   1.175   1.482  0.2324  0.0418 -0.0394
  150SOL     OW  597   1.730   1.363   0.877  0.3756 -0.0310  0.4366
  150SOL    HW1  598   1.798   1.299   0.893  0.5056 -0.5175 -0.4754
  150SOL    HW2  599   1.773   1.449   0.897 -0.0542  2.6593  0.4239
  150SOL     MW  600   1.745   1.366   0.882  0.3360  0.2598  0.3146
  151SOL     OW  601   1.691   1.834   0.800 -0.1788 -0.3629  0.2905
  151SOL    HW1  602   1.663   1.851   0.710 -1.4878 -0.1049 -0.5108
  151SOL    HW2  603   1.615   1.837   0.852  0.9239  0.4435  1.3784
  151SOL     MW  604   1.677   1.837   0.795 -0.2061 -0.2225  0.3283
  152SOL     OW  605   0.767   1.444   1.631 -0.2068  0.1725 -0.0872
  152SOL    HW1  606   0.760   1.494   1.547  1.7745  1.9786  0.7703
  152SOL    HW2  607   0.776   1.354   1.611 -2.7654  1.8767  1.4973
  152SOL     MW  608   0.767   1.439   1.617 -0.2830  0.6356  0.2350
  153SOL     OW  609   2.547   1.213   0.763  0.0643 -0.4979 -0.2677
  153SOL    HW1  610   2.634   1.185   0.736 -0.5126 -1.6768 -0.9199
  153SOL    HW2  611   2.490   1.132   0.757  0.2155  1.8806 -1.1518
  153SOL     MW  612   2.551   1.199   0.759  0.0081 -0.3396 -0.4704
  154SOL     OW  613   0.111   1.757   1.750 -0.2284 -0.2312  0.4957
  154SOL    HW1  614   0.084   1.683   1.700 -2.3157  3.3103  3.6357
  154SOL    HW2  615   0.195   1.743   1.796 -1.6650 -0.9423 -2.3573
  154SOL     MW  616   0.119   1.746   1.750 -0.6933  0.1423  0.5336
  155SOL     OW  617   1.181   0.740   0.321  0.0556 -0.2260 -0.2589
  155SOL    HW1  618   1.166   0.704   0.412  0.7475 -0.7320  2.1592
  155SOL    HW2  619   1.170   0.833   0.333  1.4349 -0.9589  1.5806
  155SOL     MW  620   1.178   0.748   0.334  0.3289 -0.3894  0.3029
  156SOL     OW  621   1.550   3.043   1.116  0.4413 -0.1196 -0.2234
  156SOL    HW1  622   1.628   3.086   1.156 -0.4284 -0.1601 -0.4094
  156SOL    HW2  623   1.588   2.959   1.091 -1.4548 -1.2891  0.8182
  156SOL     MW  624   1.565   3.037   1.118  0.0764 -0.2792 -0.1105
  157SOL     OW  625   1.379   1.162   0.090  0.1788 -0.3788 -0.0195
  157SOL    HW1  626   1.402   1.087   0.135  0.6545  2.8626  1.5758
  157SOL    HW2  627   1.464   1.199   0.103 -0.8753  1.8035 -0.5186
  157SOL     MW  628   1.394   1.157   0.098  0.1025  0.3368  0.1252
  158SOL     OW  629   0.446   1.701   2.287 -0.1687  0.3008  0.0728
  158SOL    HW1  630   0.453   1.741   2.200 -0.5379 -1.5235  0.2850
  158SOL    HW2  631   0.362   1.727   2.318 -0.3461  1.3287 -1.4209
  158SOL     MW  632   0.436   1.710   2.280 -0.2408  0.1957 -0.0963
  159SOL     OW  633   1.240   1.607   0.477 -0.5101 -0.5357  0.1830
  159SOL    HW1  634   1.191   1.592   0.395 -0.6941  0.3983 -0.9971
  159SOL    HW2  635   1.207   1.694   0.514  0.7247  1.3142  0.2230
  159SOL     MW  636   1.229   1.616   0.471 -0.3715 -0.1684  0.0326
  160SOL     OW  637   0.513   1.254   1.538  0.4833 -0.0718 -0.0982
  160SOL    HW1  638   0.439   1.215   1.581 -0.0344 -1.5852 -0.0750
  160SOL    HW2  639   0.593   1.198   1.553 -1.0981 -0.9664 -0.5203
  160SOL     MW  640   0.513   1.241   1.546  0.2063 -0.3895 -0.1508
  161SOL     OW  641   0.456   2.215   2.571  0.1303  0.8537  0.0492
  161SOL    HW1  642   0.367   2.227   2.588 -1.5881  1.1610  0.6145
  161SOL    HW2  643   0.466   2.136   2.509  3.1642 -2.1442 -0.2577
  161SOL     MW  644   0.445   2.206   2.565  0.3038  0.4987  0.0833
  162SOL     OW  645   1.059   1.834   1.829  0.6903  0.2581 -0.3110
  162SOL    HW1  646   1.063   1.925   1.836  1.7930 -0.4055 -0.2327
  162SOL    HW2  647   0.990   1.807   1.891 -1.3082 -0.0640 -3.3274
  162SOL     MW  648   1.051   1.842   1.838  0.5721  0.1281 -0.6987
  163SOL     OW  649   2.081   3.064   0.885  0.4867  0.2408 -0.2918
  163SOL    HW1  650   2.063   3.148   0.832  1.9397 -0.1168 -2.6572
  163SOL    HW2  651   2.024   3.001   0.842  0.4629 -0.6288  1.9424
  163SOL     MW  652   2.071   3.066   0.872  0.6753  0.0789 -0.3091
  164SOL     OW  653   0.314   0.203   0.801  0.0416  0.1569 -0.2778
  164SOL    HW1  654   0.220   0.218   0.820 -2.6942  0.5111 -0.5085
  164SOL    HW2  655   0.325   0.129   0.744 -0.7339  0.6448  1.3586
  164SOL     MW  656   0.303   0.195   0.796 -0.4216  0.2680 -0.0924
  165SOL     OW  657   1.198   1.323   0.343 -0.0848  0.2293 -0.4205
  165SOL    HW1  658   1.234   1.299   0.428 -1.2830 -1.7174  2.1327
  165SOL    HW2  659   1.205   1.247   0.285 -1.5265 -1.6097 -1.4402
  165SOL     MW  660   1.204   1.309   0.347 -0.4331 -0.2702 -0.2182
  166SOL     OW  661   0.533   1.124   1.012 -0.2275  0.2309 -0.1298
  166SOL    HW1  662   0.522   1.145   1.104  0.4808 -0.8052 -2.8975
  166SOL    HW2  663   0.633   1.108   1.010  0.1450  0.2341 -0.5402
  166SOL     MW  664   0.545   1.125   1.024 -0.0849  0.0946 -0.5491
  167SOL     OW  665   0.802   1.116   0.254 -0.2129  0.5647 -0.3108
  167SOL    HW1  666   0.800   1.216   0.256  2.3584 -1.0932  0.9047
  167SOL    HW2  667   0.874   1.091   0.194  1.0044 -0.4085  0.6894
  167SOL     MW  668   0.811   1.126   0.246  0.2869  0.2176 -0.0185
  168SOL     OW  669   1.765   1.672   3.044  0.5407  0.2668  0.0589
  168SOL    HW1  670   1.688   1.726   3.017 -0.6084  1.4075 -2.3937
  168SOL    HW2  671   1.739   1.579   3.024  1.4029 -1.6834 -0.6170
  168SOL     MW  672   1.751   1.667   3.038  0.5029  0.1600 -0.3539
  169SOL     OW  673   0.286   0.950   1.342 -0.1741 -0.2621  0.1696
  169SOL    HW1  674   0.311   0.952   1.437  3.2240 -3.4394  2.5537
  169SOL    HW2  675   0.305   1.038   1.310 -2.1432  2.0294  0.6243
  169SOL     MW  676   0.292   0.962   1.351  0.0144 -0.3790  0.5442
  170SOL     OW  677   1.169   1.498   1.450  0.3098 -0.3930 -0.3901
  170SOL    HW1  678   1.111   1.541   1.506  3.2231  0.7855 -2.9788
  170SOL    HW2  679   1.133   1.504   1.363  4.0791  0.1608  0.4063
  170SOL     MW  680   1.156   1.504   1.446  1.1915 -0.1645 -0.6266
  171SOL     OW  681   0.492   1.419   0.532  0.3875 -0.0004 -0.2418
  171SOL    HW1  682   0.428   1.386   0.603 -4.2193  1.3612  1.1948
  171SOL    HW2  683   0.496   1.351   0.466  1.2705  1.4545 -2.5352
  171SOL     MW  684   0.484   1.405   0.533 -0.1038  0.3712 -0.3549
  172SOL     OW  685   0.830   0.288   1.242 -0.8459 -0.5157 -0.3490
  172SOL    HW1  686   0.815   0.246   1.163 -1.6396 -2.3831  1.9247
  172SOL    HW2  687   0.869   0.221   1.297  0.6387 -1.1963  0.3483
  172SOL     MW  688   0.833   0.274   1.239 -0.7547 -0.8519  0.0430
  173SOL     OW  689   0.531   1.781   0.296  0.0294 -0.7343  0.1056
  173SOL    HW1  690   0.547   1.691   0.263 -0.5824  0.3591  2.4718
  173SOL    HW2  691   0.546   1.768   0.390 -0.5023  0.0292 -0.5667
  173SOL     MW  692   0.535   1.767   0.304 -0.1215 -0.4893  0.3291
  174SOL     OW  693   1.851   0.893   1.489  0.0048 -0.4221 -0.4364
  174SOL    HW1  694   1.784   0.824   1.504 -1.6845  0.1827  1.0575
  174SOL    HW2  695   1.820   0.932   1.405 -1.8762 -0.3522  0.2055
  174SOL     MW  696   1.838   0.889   1.480 -0.4663 -0.3330 -0.1546
  175SOL     OW  697   0.558   1.525   0.196  0.9755  0.2835 -0.4735
  175SOL    HW1  698   0.490   1.459   0.214  0.0981 -1.8195  0.2357
  175SOL    HW2  699   0.639   1.486   0.226 -2.3782  4.1627  1.5639
  175SOL     MW  700   0.559   1.511   0.202  0.4173  0.5179 -0.1111
  176SOL     OW  701   0.156   1.460   1.186  0.1974 -0.0239 -0.5924
  176SOL    HW1  702   0.127   1.430   1.092  0.7099  0.7748 -3.4737
  176SOL    HW2  703   0.083   1.435   1.249  0.2718  0.8355  2.5229
  176SOL     MW  704   0.142   1.453   1.182  0.2748  0.1949 -0.5615
  177SOL     OW  705   0.532   0.316   1.452 -0.8324  0.2087 -0.1225
  177SOL    HW1  706   0.586   0.349   1.378  0.5420 -0.1837 -0.0709
  177SOL    HW2  707   0.545   0.382   1.520 -1.0591 -2.4401  0.4688
  177SOL     MW  708   0.541   0.329   1.451 -0.6810 -0.1925 -0.0376
  178SOL     OW  709   3.093   0.507   2.999  0.3450 -0.4758 -0.3153
  178SOL    HW1  710   3.058   0.513   3.095 -1.3181 -1.1279 -0.6761
  178SOL    HW2  711   3.016   0.491   2.938 -0.6556 -0.1252  1.1421
  178SOL     MW  712   3.078   0.505   3.004 -0.0064 -0.5156 -0.1706
  179SOL     OW  713   1.554   1.424   1.380 -0.3960 -0.1034  0.1055
  179SOL    HW1  714   1.582   1.452   1.464 -1.0668  0.9278  0.3335
  179SOL    HW2  715   1.641   1.427   1.339 -0.9342 -1.3687  3.0008
  179SOL     MW  716   1.569   1.428   1.386 -0.5555 -0.1343  0.5176
  180SOL     OW  717   2.998   0.280   0.505  0.1130  0.0106  0.0614
  180SOL    HW1  718   2.968   0.266   0.409  2.0883 -1.6861 -0.6155
  180SOL    HW2  719   3.004   0.374   0.514  0.1126  2.3481 -1.1622
  180SOL     MW  720   2.995   0.290   0.493  0.3736  0.0952 -0.1893
  181SOL     OW  721   1.148   1.293   3.080 -0.0641 -0.4703 -0.0888
  181SOL    HW1  722   1.204   1.370   3.086  1.0786 -1.2809 -0.3411
  181SOL    HW2  723   1.169   1.267   2.990  1.7432 -0.6980  1.5213
  181SOL     MW  724   1.158   1.300   3.069  0.3252 -0.6073  0.0904
  182SOL     OW  725   0.378   1.001   1.616  0.2536 -0.2217 -0.0024
  182SOL    HW1  726   0.299   0.974   1.664 -2.1366  0.0035  0.6463
  182SOL    HW2  727   0.449   0.946   1.650 -0.5507  1.5577  1.1277
  182SOL     MW  728   0.377   0.990   1.627 -0.1679  0.0428  0.2323
  183SOL     OW  729   1.525   1.730   1.282  0.0934  0.2552  0.1703
  183SOL    HW1  730   1.617   1.713   1.285 -0.0313  0.3407 -0.3727
  183SOL    HW2  731   1.495   1.660   1.339 -1.9840  1.5566 -0.6861
  183SOL     MW  732   1.533   1.718   1.290 -0.1972  0.4381 -0.0143
  184SOL     OW  733   0.789   0.706   1.872  0.0192  0.1013 -0.7484
  184SOL    HW1  734   0.858   0.703   1.803  1.3485  0.5586  0.3387
  184SOL    HW2  735   0.807   0.633   1.931 -0.9969 -0.8735  0.7799
  184SOL     MW  736   0.800   0.696   1.871  0.0605  0.0330 -0.4033
  185SOL     OW  737   1.073   0.938   1.886 -0.5357 -0.1124 -0.1487
  185SOL    HW1  738   1.050   0.854   1.920  0.0925  0.6722 -0.2719
  185SOL    HW2  739   1.130   0.977   1.949  1.9689  0.2817 -2.5866
  185SOL     MW  740   1.078   0.932   1.899 -0.1224  0.0431 -0.4866
  186SOL     OW  741   0.304   1.641   1.475 -0.0355 -0.1503 -0.4207
  186SOL    HW1  742   0.339   1.593   1.398  2.6525  2.1444  0.8154
  186SOL    HW2  743   0.230   1.580   1.510 -0.8433  0.2870 -0.7327
  186SOL     MW  744   0.299   1.627   1.469  0.2126  0.2102 -0.2988
  187SOL     OW  745   1.511   0.742   1.364 -0.2105  0.2229  0.3375
  187SOL    HW1  746   1.560   0.707   1.437 -2.8012 -1.8089  0.5871
  187SOL    HW2  747   1.421   0.739   1.397 -0.6647  1.1762  0.9358
  187SOL     MW  748   1.505   0.737   1.378 -0.6122  0.0806  0.4493
  188SOL     OW  749   1.948   1.204   0.814  0.2554  0.4389  0.1265
  188SOL    HW1  750   1.927   1.172   0.908 -0.8202  1.1585 -0.2583
  188SOL    HW2  751   2.008   1.136   0.784 -1.0358  2.3643 -0.1778
  188SOL     MW  752   1.953   1.190   0.822 -0.0569  0.7879  0.0356
  189SOL     OW  753   0.691   0.760   0.839  0.4008 -0.1790 -0.2368
  189SOL    HW1  754   0.614   0.820   0.834 -2.0550  3.1545  1.1006
  189SOL    HW2  755   0.752   0.803   0.895  0.4503 -3.6155  0.6124
  189SOL     MW  756   0.689   0.774   0.845  0.0833 -0.1926  0.0517
  190SOL     OW  757   1.857   0.334   2.134  0.8194 -0.1549 -0.3057
  190SOL    HW1  758   1.876   0.279   2.209 -1.2530 -2.3972 -1.3259
  190SOL    HW2  759   1.942   0.371   2.107 -2.8926  1.2088 -0.8404
  190SOL     MW  760   1.870   0.331   2.140  0.0562 -0.2708 -0.5108
  191SOL     OW  761   1.522   1.003   1.246  0.1267  0.7331  0.6207
  191SOL    HW1  762   1.530   1.073   1.310  0.7533 -0.2704 -0.0580
  191SOL    HW2  763   1.522   0.927   1.304  0.5613 -0.5663 -0.3392
  191SOL     MW  764   1.523   1.003   1.262  0.2667  0.4293  0.4045
  192SOL     OW  765   0.539   2.122   2.859  0.3096  0.4223  0.6709
  192SOL    HW1  766   0.489   2.145   2.778 -2.8440 -0.3576  0.3897
  192SOL    HW2  767   0.549   2.028   2.853 -0.5949  2.1747  0.7985
  192SOL     MW  768   0.534   2.113   2.847 -0.2258  0.5506  0.6506
  193SOL     OW  769   0.874   1.608   0.779  0.1261 -0.4437  0.7433
  193SOL    HW1  770   0.792   1.594   0.812  0.1837  1.2753 -0.2393
  193SOL    HW2  771   0.855   1.550   0.700 -0.9229 -0.1901 -0.5736
  193SOL     MW  772   0.861   1.599   0.773 -0.0047 -0.1834  0.4399
  194SOL     OW  773   0.519   1.337   0.797 -0.5123 -0.2651  0.0957
  194SOL    HW1  774   0.520   1.263   0.857  0.1624 -0.4198 -0.5799
  194SOL    HW2  775   0.422   1.349   0.790 -0.0576 -0.4591 -0.2255
  194SOL     MW  776   0.506   1.329   0.804 -0.3633 -0.3111 -0.0358
  195SOL     OW  777   1.297   1.117   2.938  0.2321  0.0865 -0.0290
  195SOL    HW1  778   1.311   1.156   3.025 -0.6299 -0.9671 -0.8100
  195SOL    HW2  779   1.224   1.062   2.964 -1.0817 -0.6626 -0.1640
  195SOL     MW  780   1.289   1.115   2.953 -0.0550 -0.1514 -0.1499
  196SOL     OW  781   2.258   0.973   0.542 -0.1141 -0.1259  0.3570
  196SOL    HW1  782   2.284   0.938   0.457  3.8184 -1.2111 -1.5177
  196SOL    HW2  783   2.238   1.068   0.532  0.4590 -0.0142 -0.5789
  196SOL     MW  784   2.258   0.981   0.529  0.4804 -0.2543 -0.0139
  197SOL     OW  785   0.602   1.270   2.228 -0.6673 -0.0950 -0.1560
  197SOL    HW1  786   0.610   1.182   2.186 -0.5826  1.0245 -1.3533
  197SOL    HW2  787   0.676   1.326   2.203 -0.6816 -0.6996 -1.1723
  197SOL     MW  788   0.613   1.266   2.219 -0.6580 -0.0271 -0.4480
  198SOL     OW  789   2.932   1.452   1.007  0.3057 -0.0812  0.2645
  198SOL    HW1  790   2.898   1.535   0.977  1.5233 -0.8585 -1.0469
  198SOL    HW2  791   2.852   1.393   1.011 -2.6986 -0.2214  1.1163
  198SOL     MW  792   2.917   1.455   1.004  0.0700 -0.2023  0.2039
  199SOL     OW  793   0.734   1.327   1.873  0.4970 -0.3547 -0.6328
  199SOL    HW1  794   0.648   1.295   1.897  0.8602 -0.6417 -1.5304
  199SOL    HW2  795   0.723   1.407   1.817 -1.0457 -0.2003 -2.1818
  199SOL     MW  796   0.721   1.333   1.869  0.3414 -0.3722 -0.9556
  200SOL     OW  797   1.847   2.918   1.380 -0.8785  0.5841  0.1215
  200SOL    HW1  798   1.913   2.960   1.330  1.7972  0.1923  1.8200
  200SOL    HW2  799   1.781   2.988   1.383  2.4390 -3.5449  1.2478
  200SOL     MW  800   1.847   2.933   1.374 -0.0878 -0.0123  0.4942
  201SOL     OW  801   1.064   0.333   0.728  0.5628 -0.2742  0.0680
  201SOL    HW1  802   1.034   0.243   0.736  1.7779 -0.2951 -1.1627
  201SOL    HW2  803   1.149   0.319   0.782  0.4898 -0.2205  1.9572
  201SOL     MW  804   1.071   0.320   0.737  0.7135 -0.2698  0.1549
  202SOL     OW  805   1.469   1.794   0.975  0.0247  0.2661  0.2080
  202SOL    HW1  806   1.504   1.705   0.966  0.0383 -0.0540  0.1639
  202SOL    HW2  807   1.479   1.819   1.072 -0.1800  0.2224  1.5417
  202SOL     MW  808   1.475   1.786   0.987 -0.0005  0.2181  0.3782
  203SOL     OW  809   2.986   0.377   1.434 -0.3041 -0.5256 -0.7863
  203SOL    HW1  810   3.051   0.348   1.363  3.0282  1.0930 -0.8920
  203SOL    HW2  811   3.036   0.399   1.511  1.9520 -0.2687 -2.9927
  203SOL     MW  812   3.001   0.376   1.435  0.4332 -0.2782 -1.0914
  204SOL     OW  813   1.037   1.805   0.631  0.3976 -0.4662 -0.1364
  204SOL    HW1  814   1.001   1.735   0.690 -0.8900 -0.0648 -0.8845
  204SOL    HW2  815   0.968   1.829   0.569  1.5926  2.7646  0.5796
  204SOL     MW  816   1.023   1.799   0.630  0.3854  0.0131 -0.1407
  205SOL     OW  817   1.370   3.039   1.336 -0.9276 -0.3764  0.1879
  205SOL    HW1  818   1.406   3.037   1.247  1.0735  1.1280  2.0815
  205SOL    HW2  819   1.312   3.117   1.335 -2.4765 -0.3035 -1.5670
  205SOL     MW  820   1.367   3.049   1.324 -0.8679 -0.1683  0.2062
  206SOL     OW  821   0.460   3.068   1.351 -0.7524  0.0187  0.0174
  206SOL    HW1  822   0.425   3.065   1.260  0.2999 -2.7045 -1.3948
  206SOL    HW2  823   0.528   3.003   1.346 -0.5370  1.1176  1.9238
  206SOL     MW  824   0.464   3.059   1.338 -0.5852 -0.1956  0.0826
  207SOL     OW  825   0.877   1.709   0.191 -0.0370  0.2379 -0.5379
  207SOL    HW1  826   0.911   1.787   0.155 -1.3295 -0.5238  1.5001
  207SOL    HW2  827   0.952   1.655   0.187 -0.8580  0.3872 -1.7857
  207SOL     MW  828   0.891   1.712   0.186 -0.3158  0.1571 -0.4337
  208SOL     OW  829   0.726   1.604   1.419  0.1244 -0.4699  0.1270
  208SOL    HW1  830   0.812   1.623   1.459 -2.2961 -1.6486 -1.2117
  208SOL    HW2  831   0.740   1.588   1.320  1.8786  0.2763 -1.8258
  208SOL     MW  832   0.740   1.604   1.412  0.0364 -0.5269 -0.3073
  209SOL     OW  833   1.522   0.510   2.826  0.0541  0.3944  0.4110
  209SOL    HW1  834   1.554   0.596   2.865  1.9982  2.5056  0.7619
  209SOL    HW2  835   1.601   0.458   2.819 -0.6118 -1.7602  1.0697
  209SOL     MW  836   1.536   0.515   2.830  0.2227  0.3887  0.5442
  210SOL     OW  837   1.463   1.491   0.921 -0.0182  0.1936  0.1659
  210SOL    HW1  838   1.541   1.443   0.885  0.7434  2.1483  0.3344
  210SOL    HW2  839   1.404   1.496   0.840 -1.2772 -0.5539 -2.0740
  210SOL     MW  840   1.466   1.485   0.905 -0.0839  0.3529 -0.1074
  211SOL     OW  841   1.723   0.298   0.991 -0.1864 -0.1587 -0.0403
  211SOL    HW1  842   1.729   0.329   0.902  1.6956 -0.8372  1.4801
  211SOL    HW2  843   1.796   0.337   1.033  1.0869  0.3242 -1.2061
  211SOL     MW  844   1.733   0.308   0.985  0.2299 -0.1845  0.0065
  212SOL     OW  845   0.296   1.089   0.207  0.5803  0.3121  0.1854
  212SOL    HW1  846   0.228   1.071   0.271 -0.1306 -2.2839  0.3282
  212SOL    HW2  847   0.320   0.997   0.167  1.0628  1.1273 -2.0292
  212SOL     MW  848   0.290   1.075   0.210  0.5501  0.0771 -0.0880
  213SOL     OW  849   0.414   1.798   3.006 -0.8235  0.4212  0.1956
  213SOL    HW1  850   0.449   1.852   3.070 -0.2059 -0.8221 -0.3191
  213SOL    HW2  851   0.470   1.819   2.927 -0.7690 -0.6850  2.1774
  213SOL     MW  852   0.426   1.808   3.004 -0.7348  0.1112  0.3892
  214SOL     OW  853   0.620   0.315   2.132  0.4340 -0.0023 -0.0184
  214SOL    HW1  854   0.570   0.391   2.134  0.0370 -1.5676 -0.9688
  214SOL    HW2  855   0.620   0.310   2.034 -0.2770 -1.5408 -0.7709
  214SOL     MW  856   0.613   0.324   2.119  0.2878 -0.4118 -0.2431
  215SOL     OW  857   0.500   0.602   2.573 -0.0299 -0.7231  0.1226
  215SOL    HW1  858   0.483   0.655   2.497 -2.8422 -0.9899 -0.5038
  215SOL    HW2  859   0.411   0.585   2.615 -2.7458 -2.0196 -0.8088
  215SOL     MW  860   0.486   0.607   2.569 -0.7593 -0.9293 -0.0829
  216SOL     OW  861   2.974   3.051   2.705 -0.0530 -0.4023  0.1438
  216SOL    HW1  862   2.903   3.051   2.770 -1.4748  0.4193  0.1543
  216SOL    HW2  863   3.003   3.146   2.712  1.2683  2.8094 -0.4169
  216SOL     MW  864   2.969   3.064   2.715 -0.0662  0.1299  0.0712
  217SOL     OW  865   1.049   1.065   0.117 -0.4517 -0.0780  0.3700
  217SOL    HW1  866   1.065   0.988   0.050 -2.1337  0.1847 -0.8188
  217SOL    HW2  867   1.084   1.141   0.074 -2.5725  1.8750  2.5662
  217SOL     MW  868   1.056   1.065   0.102 -0.9534  0.2143  0.5029
  218SOL     OW  869   0.878   1.362   2.689  0.2310  0.4361  0.2956
  218SOL    HW1  870   0.878   1.294   2.757  2.6477 -2.1278  0.2533
  218SOL    HW2  871   0.972   1.381   2.665  1.5934  0.6412 -2.1993
  218SOL     MW  872   0.891   1.355   2.695  0.7296  0.1249 -0.0392
  219SOL     OW  873   1.056   0.371   2.636 -0.1919  0.7762 -0.1765
  219SOL    HW1  874   1.126   0.439   2.645 -1.4931 -2.4380  0.5724
  219SOL    HW2  875   0.979   0.425   2.633 -1.0022 -0.5918  0.9535
  219SOL     MW  876   1.055   0.387   2.637 -0.4705  0.1716  0.0714
  220SOL     OW  877   1.679   0.496   2.231  0.5844  0.6005  0.0944
  220SOL    HW1  878   1.611   0.539   2.171 -0.9781 -0.6672 -3.5084
  220SOL    HW2  879   1.744   0.438   2.184  2.3774  0.5437 -0.8844
  220SOL     MW  880   1.678   0.494   2.217  0.6148  0.4257 -0.5101
  221SOL     OW  881   0.339   1.280   2.908  0.5964  0.2456  0.0439
  221SOL    HW1  882   0.425   1.243   2.884  0.8663  1.7015  0.9289
  221SOL    HW2  883   0.340   1.366   2.861 -0.6129 -3.3929 -0.6145
  221SOL     MW  884   0.350   1.287   2.898  0.4725 -0.0424  0.0738
  222SOL     OW  885   0.512   0.918   2.695  0.0980  0.6424 -0.2137
  222SOL    HW1  886   0.453   0.952   2.633 -2.5178 -1.2118 -0.4036
  222SOL    HW2  887   0.477   0.826   2.694  0.1893 -0.4632  1.2374
  222SOL     MW  888   0.499   0.910   2.687 -0.2351  0.2519 -0.0473
  223SOL     OW  889   0.009   2.007   2.569 -0.4560  0.2832 -0.0665
  223SOL    HW1  890  -0.034   1.985   2.650 -1.0203  2.1811  0.0410
  223SOL    HW2  891   0.040   2.103   2.574 -0.2944 -0.0481  1.6913
  223SOL     MW  892   0.007   2.016   2.580 -0.5091  0.4899  0.1796
  224SOL     OW  893   1.456   0.738   2.511 -0.0248 -0.6043 -0.4939
  224SOL    HW1  894   1.450   0.760   2.604 -1.0180  1.3519 -2.6181
  224SOL    HW2  895   1.469   0.823   2.471 -1.7769  2.8471  0.7429
  224SOL     MW  896   1.457   0.752   2.518 -0.3870  0.1092 -0.6110
  225SOL     OW  897   2.948   1.433   2.306  0.4556 -0.1633 -0.6400
  225SOL    HW1  898   2.979   1.515   2.268 -0.2690 -1.0619 -1.1594
  225SOL    HW2  899   2.874   1.473   2.349  2.0026  2.3579  1.1877
  225SOL     MW  900   2.942   1.449   2.306  0.5641  0.0508 -0.4674
  226SOL     OW  901   0.400   1.499   2.749  0.1540  0.2458 -0.6269
  226SOL    HW1  902   0.484   1.519   2.788 -1.3470 -0.2651  1.1776
  226SOL    HW2  903   0.382   1.586   2.707  1.5000  2.5054 -2.1829
  226SOL     MW  904   0.409   1.513   2.749  0.1336  0.4765 -0.5941
  227SOL     OW  905   0.567   1.138   2.878  0.1855  0.1535  0.9176
  227SOL    HW1  906   0.652   1.171   2.847 -1.2307  1.8754 -1.7078
  227SOL    HW2  907   0.547   1.070   2.818 -0.9751  0.8615  3.2943
  227SOL     MW  908   0.576   1.134   2.866 -0.1545  0.4741  0.8848
  228SOL     OW  909   0.757   1.119   2.059 -0.1800  1.0125 -0.6609
  228SOL    HW1  910   0.756   1.198   2.003  2.0795 -0.4593 -0.0987
  228SOL    HW2  911   0.834   1.129   2.119 -0.1749  1.0985  0.8034
  228SOL     MW  912   0.767   1.131   2.060  0.1188  0.8296 -0.3935
  229SOL     OW  913   0.240   0.612   0.014  0.4203 -0.2563 -0.2007
  229SOL    HW1  914   0.168   0.574  -0.041 -3.4987 -1.1491 -0.4276
  229SOL    HW2  915   0.244   0.540   0.080  0.4525  0.0359  0.1213
  229SOL     MW  916   0.231   0.598   0.015 -0.0926 -0.3355 -0.1882
  230SOL     OW  917   1.802   1.354   1.991  0.2013 -0.2177 -0.8440
  230SOL    HW1  918   1.797   1.312   2.078 -1.1930 -1.4543  1.9254
  230SOL    HW2  919   1.883   1.329   1.955  1.6530  2.8736 -1.7364
  230SOL     MW  920   1.812   1.346   1.997  0.2089  0.0270 -0.5964
  231SOL     OW  921   2.732   1.270   2.208 -0.0409  0.6605 -0.0493
  231SOL    HW1  922   2.788   1.343   2.242  0.3679 -2.8477  1.5900
  231SOL    HW2  923   2.684   1.304   2.132 -0.0563  0.0411  1.8471
  231SOL     MW  924   2.733   1.284   2.202  0.0110  0.1159  0.4172
  232SOL     OW  925   2.287   0.794   1.987  0.2296  0.2332 -0.3902
  232SOL    HW1  926   2.205   0.804   1.934 -0.3712  1.4048 -0.7356
  232SOL    HW2  927   2.241   0.812   2.068 -1.4641  0.0713 -0.5591
  232SOL     MW  928   2.270   0.798   1.991 -0.0732  0.3664 -0.4580
  233SOL     OW  929   2.091   0.469   2.084  0.6430 -0.1095 -0.1020
  233SOL    HW1  930   2.165   0.415   2.057  1.9400 -0.1103  0.3657
  233SOL    HW2  931   2.125   0.542   2.124 -1.9326 -1.7753 -0.7005
  233SOL     MW  932   2.106   0.472   2.086  0.4743 -0.3294 -0.1193
  234SOL     OW  933   0.258   1.045   2.615 -0.0157 -0.1199 -0.3992
  234SOL    HW1  934   0.189   1.016   2.557 -0.3533 -0.7443 -1.8561
  234SOL    HW2  935   0.288   1.131   2.585  1.1303 -0.5871 -0.2393
  234SOL     MW  936   0.253   1.052   2.603  0.0910 -0.2639 -0.5703
  235SOL     OW  937   1.008   3.034   2.801  0.0824 -0.0735  0.1030
  235SOL    HW1  938   1.065   3.023   2.883  0.2735  0.4351 -0.1875
  235SOL    HW2  939   1.023   3.126   2.774  0.6056  0.6614  2.3073
  235SOL     MW  940   1.017   3.045   2.808  0.1766  0.0906  0.3555
  236SOL     OW  941   2.938   0.583   0.131 -0.3043  0.4538  0.4549
  236SOL    HW1  942   2.927   0.609   0.220  1.0685 -1.2324  0.5812
  236SOL    HW2  943   2.951   0.668   0.089 -0.5376  0.8487 -0.3740
  236SOL     MW  944   2.938   0.598   0.137 -0.1539  0.2834  0.3622
  237SOL     OW  945   1.952   1.064   2.173  0.5594 -0.7364  0.2548
  237SOL    HW1  946   1.890   1.064   2.099  0.6314  0.1564 -1.9313
  237SOL    HW2  947   2.002   0.980   2.170  1.0101  3.2702  0.0052
  237SOL     MW  948   1.951   1.053   2.163  0.6284 -0.0900 -0.0666
  238SOL     OW  949   1.087   1.765   2.965 -0.4610 -0.3887 -0.1281
  238SOL    HW1  950   1.045   1.725   2.892 -0.6044 -2.4715  1.3741
  238SOL    HW2  951   1.184   1.751   2.960  0.8647 -0.8753 -1.1328
  238SOL     MW  952   1.094   1.758   2.955 -0.3050 -0.7277 -0.0625
  239SOL     OW  953   1.181   1.300   2.275 -0.2190 -0.4306  0.1581
  239SOL    HW1  954   1.094   1.264   2.265  0.5887 -2.4040 -0.3798
  239SOL    HW2  955   1.218   1.263   2.357 -1.9948 -1.1126 -0.7590
  239SOL     MW  956   1.175   1.291   2.284 -0.3468 -0.7809 -0.0339
  240SOL     OW  957   0.599   0.884   2.220 -0.0364 -0.8355 -0.6739
  240SOL    HW1  958   0.619   0.943   2.302  2.5612  0.5926  0.1666
  240SOL    HW2  959   0.684   0.856   2.189 -0.3389  0.2670 -1.3611
  240SOL     MW  960   0.613   0.888   2.227  0.2664 -0.5016 -0.6537
  241SOL     OW  961   0.678   0.483   3.065  0.1484 -0.2954 -0.5099
  241SOL    HW1  962   0.698   0.565   3.116  0.1238  1.5908 -1.2231
  241SOL    HW2  963   0.593   0.497   3.027  1.6068  0.5892 -0.0106
  241SOL     MW  964   0.670   0.496   3.066  0.3376  0.0702 -0.5381
  242SOL     OW  965   1.508   1.695   2.267 -0.3790 -0.6856  0.1154
  242SOL    HW1  966   1.449   1.768   2.261  2.2609 -2.3278  0.9365
  242SOL    HW2  967   1.477   1.620   2.217  0.0052  2.0584 -0.3307
  242SOL     MW  968   1.496   1.695   2.260  0.0200 -0.5402  0.1649
  243SOL     OW  969   0.992   0.299   2.357 -0.2533  1.0190 -0.3962
  243SOL    HW1  970   1.061   0.237   2.332 -1.6353  2.3189  1.5501
  243SOL    HW2  971   1.029   0.338   2.439  3.2378  2.5308  1.2761
  243SOL     MW  972   1.006   0.296   2.364  0.0250  1.3900  0.0812
  244SOL     OW  973   0.139   0.790   2.371  0.3109 -0.2980  0.2022
  244SOL    HW1  974   0.091   0.873   2.360  1.4038 -3.3448 -0.5293
  244SOL    HW2  975   0.230   0.793   2.341  0.2302 -1.1122 -1.0959
  244SOL     MW  976   0.145   0.801   2.365  0.4445 -0.8074 -0.0656
  245SOL     OW  977   1.246   0.202   2.316  0.2872 -0.1397  0.5605
  245SOL    HW1  978   1.300   0.136   2.272  1.7046  0.0169 -0.6302
  245SOL    HW2  979   1.296   0.223   2.398 -0.4962  2.8330  2.2745
  245SOL     MW  980   1.260   0.196   2.321  0.3709  0.2732  0.6296
  246SOL     OW  981   1.206   1.125   2.050  0.2039 -0.4000 -0.2799
  246SOL    HW1  982   1.154   1.155   2.122  1.1715  0.4168 -3.5599
  246SOL    HW2  983   1.297   1.136   2.098  0.1128  1.0086  0.2828
  246SOL     MW  984   1.211   1.130   2.066  0.3196 -0.1064 -0.6384
  247SOL     OW  985   0.770   0.649   0.156  0.5502  0.2408  0.3372
  247SOL    HW1  986   0.748   0.740   0.138 -0.2161  1.8084 -0.4436
  247SOL    HW2  987   0.861   0.625   0.128 -1.9717 -0.7816 -2.0566
  247SOL     MW  988   0.779   0.658   0.150  0.1163  0.3128 -0.0817
  248SOL     OW  989   0.339   1.288   2.540 -0.2515 -0.0890 -0.3651
  248SOL    HW1  990   0.321   1.315   2.452  0.7608  1.9302  2.2885
  248SOL    HW2  991   0.381   1.365   2.578  1.4290  2.0103 -1.2423
  248SOL     MW  992   0.342   1.302   2.534  0.1038  0.4544 -0.1307
  249SOL     OW  993   3.016   1.908   2.840 -0.5302  0.2526  0.0963
  249SOL    HW1  994   2.960   1.842   2.880  1.0385 -0.4779  0.4860
  249SOL    HW2  995   3.101   1.870   2.853 -1.1555 -1.2012 -0.7670
  249SOL     MW  996   3.020   1.894   2.847 -0.4057 -0.0356  0.0338
  250SOL     OW  997   2.134   0.852   2.206 -0.4332 -0.0482 -0.2203
  250SOL    HW1  998   2.153   0.766   2.248  4.5282  4.5025 -1.5383
  250SOL    HW2  999   2.192   0.908   2.257 -2.2538 -1.3041  0.5632
  250SOL     MW 1000   2.144   0.848   2.218 -0.0188  0.3865 -0.2908
  251SOL     OW 1001   0.153   0.897   2.014  0.0998 -0.4197 -0.0010
  251SOL    HW1 1002   0.127   0.804   2.031 -1.5771 -2.2122  1.1082
  251SOL    HW2 1003   0.150   0.904   1.918  1.2054  2.5726  0.1807
  251SOL     MW 1004   0.149   0.885   2.003  0.0244 -0.2614  0.1693
  252SOL     OW 1005   1.642   0.990   2.820 -0.7212 -0.8235 -0.2447
  252SOL    HW1 1006   1.648   1.021   2.912  1.2173 -0.3662 -0.2285
  252SOL    HW2 1007   1.724   1.013   2.781  0.7569 -0.2586 -0.5443
  252SOL     MW 1008   1.654   0.997   2.827 -0.2704 -0.6887 -0.2821
  253SOL     OW 1009   1.148   1.701   2.445  0.4632 -0.0172  0.6129
  253SOL    HW1 1010   1.163   1.694   2.344  0.7433 -2.6529 -3.1246
  253SOL    HW2 1011   1.066   1.748   2.438  0.9412 -3.2756  0.1569
  253SOL     MW 1012   1.139   1.706   2.431  0.5632 -0.7949  0.0596
  254SOL     OW 1013   0.951   1.137   2.239  0.0895  0.0920 -0.0282
  254SOL    HW1 1014   0.943   1.045   2.226  3.3793 -0.7213 -0.1384
  254SOL    HW2 1015   0.904   1.158   2.321  1.3265 -1.0827  1.8346
  254SOL     MW 1016   0.943   1.127   2.248  0.6867 -0.1703  0.2031
  255SOL     OW 1017   0.884   2.571   2.167  0.0522  0.5606  0.5518
  255SOL    HW1 1018   0.792   2.526   2.177 -2.6621 -2.8777  0.2716
  255SOL    HW2 1019   0.947   2.510   2.193 -2.7874  1.0122  1.7923
  255SOL     MW 1020   0.880   2.557   2.172 -0.6805  0.1665  0.6785
  256SOL     OW 1021   1.211   2.769   2.993  0.1257  0.3832  0.2791
  256SOL    HW1 1022   1.150   2.720   2.939  0.1347  0.7339 -0.8475
  256SOL    HW2 1023   1.296   2.776   2.939  2.0874 -0.8155  0.1085
  256SOL     MW 1024   1.214   2.764   2.979  0.3857  0.2713  0.1079
  257SOL     OW 1025   0.036   1.904   0.068  0.2252 -0.0890  1.2716
  257SOL    HW1 1026   0.095   1.866   0.124 -3.1691  1.3075  1.5902
  257SOL    HW2 1027   0.072   1.873  -0.015  1.3623 -1.3200  2.2983
  257SOL     MW 1028   0.048   1.895   0.065 -0.0726 -0.0671  1.4491
  258SOL     OW 1029   0.702   0.972   2.468 -0.3499 -0.0988  0.4366
  258SOL    HW1 1030   0.711   1.063   2.476  1.3765 -2.5142 -2.2785
  258SOL    HW2 1031   0.662   0.951   2.546  0.6702  2.3633 -0.0912
  258SOL     MW 1032   0.698   0.981   2.480  0.0124 -0.0926  0.0088
  259SOL     OW 1033   0.804   0.481   2.272 -0.1880 -0.8567 -0.6660
  259SOL    HW1 1034   0.732   0.423   2.239 -0.6106  0.1416 -2.4639
  259SOL    HW2 1035   0.881   0.424   2.286 -0.8719  0.1930  0.5639
  259SOL     MW 1036   0.805   0.466   2.269 -0.3340 -0.5865 -0.7409
  260SOL     OW 1037   0.636   0.083   1.576  0.2140 -0.2297 -0.4006
  260SOL    HW1 1038   0.583   0.158   1.538  2.1002 -1.0994 -0.3971
  260SOL    HW2 1039   0.718   0.074   1.524 -0.3310 -3.5601 -0.3077
  260SOL     MW 1040   0.640   0.092   1.564  0.3910 -0.7838 -0.3879
  261SOL     OW 1041   1.106   0.674   1.965 -0.5075  0.0057 -0.1122
  261SOL    HW1 1042   1.122   0.689   2.064 -1.0376  2.0261  0.9784
  261SOL    HW2 1043   1.045   0.603   1.951  2.7844  0.3665  1.6101
  261SOL     MW 1044   1.100   0.667   1.976 -0.1431  0.3199  0.2589
  262SOL     OW 1045   1.133   0.343   0.178 -0.4487  0.5422 -0.8789
  262SOL    HW1 1046   1.228   0.338   0.144  2.2904 -0.2483 -1.5933
  262SOL    HW2 1047   1.089   0.277   0.119  0.4188  1.5028 -0.5716
  262SOL     MW 1048   1.140   0.333   0.166  0.0271  0.5647 -0.9326
  263SOL     OW 1049   0.361   0.008   2.470 -0.0069 -0.6901  0.6561
  263SOL    HW1 1050   0.297   0.071   2.501  0.6604 -2.8688  0.5975
  263SOL    HW2 1051   0.416   0.062   2.415 -2.1239  0.4893 -1.1797
  263SOL     MW 1052   0.360   0.023   2.467 -0.1982 -0.8220  0.4062
  264SOL     OW 1053   1.522   1.378   1.950 -0.2164  0.7570 -0.0358
  264SOL    HW1 1054   1.489   1.296   1.914 -2.9427  1.5025  0.0602
  264SOL    HW2 1055   1.613   1.356   1.984  1.4192 -0.2018  0.3445
  264SOL     MW 1056   1.530   1.365   1.950 -0.3603  0.7289  0.0270
  265SOL     OW 1057   0.727   2.758   2.303  0.2196  0.0538  0.0932
  265SOL    HW1 1058   0.787   2.685   2.289 -1.5027 -0.0779 -0.4791
  265SOL    HW2 1059   0.686   2.753   2.391 -0.6519 -1.6571 -1.2229
  265SOL     MW 1060   0.729   2.748   2.313 -0.1226 -0.1893 -0.1560
  266SOL     OW 1061   0.889   0.861   2.151 -0.3901  0.4670  0.0210
  266SOL    HW1 1062   0.835   0.889   2.079 -2.3036  0.7843  2.6878
  266SOL    HW2 1063   0.924   0.770   2.130 -0.0012  0.3079 -2.8911
  266SOL     MW 1064   0.886   0.852   2.139 -0.5913  0.4879 -0.0114
  267SOL     OW 1065   1.323   1.737   2.628  0.5295 -0.4834  0.0589
  267SOL    HW1 1066   1.397   1.696   2.588 -1.3744  1.7649 -1.5952
  267SOL    HW2 1067   1.247   1.725   2.566 -0.1310  0.5016 -1.1198
  267SOL     MW 1068   1.323   1.730   2.614  0.1911 -0.0568 -0.3148
  268SOL     OW 1069   0.117   0.928   1.750 -0.0530 -0.0804  0.5856
  268SOL    HW1 1070   0.085   1.016   1.728 -0.8651 -2.6365  0.6345
  268SOL    HW2 1071   0.093   0.870   1.672 -2.4667 -0.3866 -1.5780
  268SOL     MW 1072   0.110   0.932   1.737 -0.4786 -0.4581  0.3066
  269SOL     OW 1073   1.341   1.949   2.292 -0.3826 -0.3863 -0.0156
  269SOL    HW1 1074   1.380   2.023   2.332 -0.2828  1.5202  0.7336
  269SOL    HW2 1075   1.270   1.940   2.359  1.6260  0.0296  1.8736
  269SOL     MW 1076   1.336   1.958   2.306 -0.1044 -0.0799  0.3325
  270SOL     OW 1077   1.129   0.424   1.586 -0.4433  0.4517 -0.0654
  270SOL    HW1 1078   1.112   0.347   1.646  0.8555  0.6004  2.8318
  270SOL    HW2 1079   1.219   0.409   1.554  0.2783  2.9410  1.7711
  270SOL     MW 1080   1.139   0.412   1.590 -0.1767  0.7998  0.5592
  271SOL     OW 1081   0.831   0.091   2.467  0.0719  0.4613  0.3424
  271SOL    HW1 1082   0.892   0.017   2.473  1.6472  2.5566  1.6994
  271SOL    HW2 1083   0.885   0.156   2.417  3.4322  2.3769  0.6527
  271SOL     MW 1084   0.846   0.090   2.461  0.7231  0.9905  0.5624
  272SOL     OW 1085   1.447   2.829   2.837 -0.5747  0.2504 -0.1011
  272SOL    HW1 1086   1.426   2.817   2.744  1.2748 -0.4356  1.3148
  272SOL    HW2 1087   1.503   2.910   2.842 -1.3532 -1.1968 -2.2248
  272SOL     MW 1088   1.451   2.838   2.825 -0.4334 -0.0311 -0.1945
  273SOL     OW 1089   1.423   0.836   2.760 -0.2660 -0.6014  0.9466
  273SOL    HW1 1090   1.494   0.903   2.782  3.8553 -0.5570  0.1721
  273SOL    HW2 1091   1.344   0.880   2.746 -0.0205 -0.9622  0.1453
  273SOL     MW 1092   1.422   0.850   2.761  0.3101 -0.6431  0.7387
  274SOL     OW 1093   1.427   0.713   0.187 -0.0064 -0.6110 -0.1939
  274SOL    HW1 1094   1.469   0.628   0.215 -1.1149 -1.3002  0.4819
  274SOL    HW2 1095   1.349   0.727   0.238  2.2974  0.1598  0.1939
  274SOL     MW 1096   1.422   0.703   0.198  0.1513 -0.6002 -0.0536
  275SOL     OW 1097   1.762   0.511   1.784  0.3991 -0.1050 -0.4428
  275SOL    HW1 1098   1.831   0.546   1.838 -0.1595 -2.1222  0.0763
  275SOL    HW2 1099   1.762   0.412   1.784 -1.2860 -0.9762 -0.8761
  275SOL     MW 1100   1.771   0.502   1.791  0.1030 -0.4861 -0.4315
  276SOL     OW 1101   0.489   1.239   1.927 -0.3857 -1.0913  0.4340
  276SOL    HW1 1102   0.499   1.144   1.927  3.0202  2.1875 -1.1035
  276SOL    HW2 1103   0.412   1.254   1.986  0.7616  0.0481  1.0499
  276SOL     MW 1104   0.480   1.228   1.935  0.2151 -0.5084  0.3124
  277SOL     OW 1105   1.985   1.072   2.451  0.4553  0.2062 -0.3940
  277SOL    HW1 1106   2.017   1.163   2.448  2.8275 -0.0898 -0.5329
  277SOL    HW2 1107   1.951   1.066   2.361 -0.6597  2.3392  0.7719
  277SOL     MW 1108   1.985   1.083   2.439  0.6212  0.4486 -0.2585
  278SOL     OW 1109   1.414   0.668   1.766  0.8531 -0.0845 -0.2591
  278SOL    HW1 1110   1.367   0.592   1.807 -1.3100 -1.6757  3.5817
  278SOL    HW2 1111   1.499   0.665   1.801 -1.7552 -1.7364  0.1260
  278SOL     MW 1112   1.419   0.658   1.776  0.2236 -0.5124  0.2985
  279SOL     OW 1113   0.533   0.111   2.275  0.1417  0.3886 -0.5413
  279SOL    HW1 1114   0.620   0.080   2.294  0.3674  0.8291  0.2469
  279SOL    HW2 1115   0.553   0.191   2.231  1.5901 -2.1887 -0.6031
  279SOL     MW 1116   0.547   0.118   2.272  0.3625  0.1066 -0.4454
  280SOL     OW 1117   1.462   1.112   2.168 -0.2534  0.2370  0.4996
  280SOL    HW1 1118   1.504   1.033   2.129  0.6625  1.6009  0.6249
  280SOL    HW2 1119   1.439   1.076   2.259  1.7433 -1.2917  2.9827
  280SOL     MW 1120   1.464   1.097   2.175  0.1309  0.2152  0.8438
  281SOL     OW 1121   1.376   1.148   2.680  0.4609 -0.1744  0.2315
  281SOL    HW1 1122   1.454   1.207   2.667  1.5631  2.3965 -3.8989
  281SOL    HW2 1123   1.356   1.146   2.775 -0.1207 -0.2572 -0.5727
  281SOL     MW 1124   1.383   1.156   2.691  0.5296  0.1538 -0.4196
  282SOL     OW 1125   1.171   1.257   1.609  0.2836 -0.2350 -0.8368
  282SOL    HW1 1126   1.150   1.348   1.580  1.4025 -2.6148  2.6578
  282SOL    HW2 1127   1.100   1.240   1.677 -1.2068  1.2447 -1.2746
  282SOL     MW 1128   1.158   1.267   1.614  0.2346 -0.3538 -0.4334
  283SOL     OW 1129   0.878   1.336   0.003 -0.2551  0.3874  0.1435
  283SOL    HW1 1130   0.973   1.353   0.019  1.2523  2.3036  1.1778
  283SOL    HW2 1131   0.838   1.396  -0.059 -1.0699 -0.0051 -3.6900
  283SOL     MW 1132   0.885   1.346  -0.003 -0.1637  0.5884 -0.2258
  284SOL     OW 1133   0.407   0.734   2.329 -0.2126  0.4330 -0.8291
  284SOL    HW1 1134   0.480   0.789   2.300 -0.3912 -1.2404 -1.2835
  284SOL    HW2 1135   0.413   0.671   2.255 -2.2159 -0.1721 -0.5143
  284SOL     MW 1136   0.418   0.733   2.315 -0.5005  0.1324 -0.8475
  285SOL     OW 1137   0.880   0.905   2.846  0.4820 -0.2543  0.3934
  285SOL    HW1 1138   0.909   0.933   2.756  1.2100  0.1766  2.0861
  285SOL    HW2 1139   0.843   0.818   2.820 -1.9950 -1.1738 -1.5393
  285SOL     MW 1140   0.879   0.897   2.830  0.2512 -0.3188  0.3618
  286SOL     OW 1141   1.102   1.472   2.622 -0.2793 -0.4552  0.1137
  286SOL    HW1 1142   1.142   1.417   2.556 -0.2161  0.8966 -3.9630
  286SOL    HW2 1143   1.124   1.560   2.577 -2.6158 -0.0092  1.1653
  286SOL     MW 1144   1.110   1.476   2.607 -0.5792 -0.2180 -0.2854
  287SOL     OW 1145   1.204   1.039   0.344  0.0689  0.3650  0.7212
  287SOL    HW1 1146   1.167   1.103   0.408 -0.7986  0.5852  0.2501
  287SOL    HW2 1147   1.142   1.049   0.277  0.9965  0.4624  1.1070
  287SOL     MW 1148   1.191   1.049   0.343  0.0768  0.4069  0.7099
  288SOL     OW 1149   1.473   0.614   2.079  0.1379  0.0030  0.1941
  288SOL    HW1 1150   1.416   0.612   2.164 -2.3484  0.4525 -1.0150
  288SOL    HW2 1151   1.488   0.712   2.072  2.3735  3.7396  0.6750
  288SOL     MW 1152   1.468   0.626   2.089  0.1048  0.5554  0.0980
  289SOL     OW 1153   0.934   0.995   2.587 -0.7238 -0.1582  0.3460
  289SOL    HW1 1154   0.962   0.900   2.563  0.2249 -2.1810 -0.1800
  289SOL    HW2 1155   0.850   0.995   2.543 -0.4897  0.6805 -0.9680
  289SOL     MW 1156   0.927   0.982   2.578 -0.5678 -0.3144  0.1032
  290SOL     OW 1157   0.805   0.631   1.472  0.5066  0.8312 -0.1950
  290SOL    HW1 1158   0.848   0.563   1.419  0.0194 -0.5536  0.6504
  290SOL    HW2 1159   0.862   0.639   1.548  0.4735 -2.0386 -0.6587
  290SOL     MW 1160   0.818   0.623   1.475  0.4379  0.2699 -0.1447
  291SOL     OW 1161   0.185   0.372   0.143  0.3350 -0.0571  0.1351
  291SOL    HW1 1162   0.282   0.349   0.131  1.3787 -0.4011 -0.1381
  291SOL    HW2 1163   0.140   0.288   0.144  0.0920 -0.8134  0.2814
  291SOL     MW 1164   0.192   0.358   0.141  0.4407 -0.2022  0.1184
  292SOL     OW 1165   1.051   0.599   0.129  0.0434 -0.1993 -0.3200
  292SOL    HW1 1166   1.072   0.661   0.205  0.3664  1.5052  0.6784
  292SOL    HW2 1167   1.100   0.524   0.158  1.3649  1.8395  0.2088
  292SOL     MW 1168   1.060   0.597   0.143  0.2603  0.2946 -0.1185
  293SOL     OW 1169   0.123   0.176   2.513 -0.0691 -0.4067  0.5104
  293SOL    HW1 1170   0.082   0.113   2.451 -1.2416  0.1019 -0.9000
  293SOL    HW2 1171   0.048   0.202   2.561 -0.1910  1.6416  1.2922
  293SOL     MW 1172   0.108   0.171   2.511 -0.2399 -0.0693  0.4275
  294SOL     OW 1173   1.318   0.524   2.314 -0.6249 -0.2590  0.2900
  294SOL    HW1 1174   1.342   0.589   2.379  1.9019 -1.4230 -0.4629
  294SOL    HW2 1175   1.338   0.437   2.354  0.4785 -1.0656  1.1456
  294SOL     MW 1176   1.324   0.521   2.328 -0.1459 -0.5190  0.3036
  295SOL     OW 1177   0.861   0.542   2.520 -0.5671  0.2943 -0.2247
  295SOL    HW1 1178   0.814   0.530   2.437  0.6015  0.7175 -0.3848
  295SOL    HW2 1179   0.796   0.581   2.582  2.3509  1.3694 -0.2679
  295SOL     MW 1180   0.846   0.546   2.517 -0.0279  0.4920 -0.2516
  296SOL     OW 1181   1.226   0.216   2.037  0.1452 -0.5566  0.2367
  296SOL    HW1 1182   1.302   0.165   2.011  1.4029  3.2155  0.3695
  296SOL    HW2 1183   1.233   0.229   2.130  0.2631  1.2535  1.0902
  296SOL     MW 1184   1.237   0.211   2.046  0.3267  0.1799  0.3668
  297SOL     OW 1185   1.397   0.377   1.524  0.3868  0.0795  0.0428
  297SOL    HW1 1186   1.429   0.439   1.584  1.7631 -2.6422 -1.9775
  297SOL    HW2 1187   1.401   0.296   1.575  0.8471  1.8227  1.7937
  297SOL     MW 1188   1.402   0.374   1.539  0.6291 -0.0496  0.0072
  298SOL     OW 1189   1.596   0.900   2.071 -0.2241 -0.0297 -0.2277
  298SOL    HW1 1190   1.665   0.946   2.017  0.0725  0.1353  0.9001
  298SOL    HW2 1191   1.637   0.877   2.152 -1.3129  1.5636  2.6279
  298SOL     MW 1192   1.610   0.903   2.074 -0.3286  0.2023  0.2979
  299SOL     OW 1193   0.565   1.141   0.055 -0.3073  0.4550 -0.3540
  299SOL    HW1 1194   0.550   1.134  -0.040  0.4163 -1.2470  4.0182
  299SOL    HW2 1195   0.642   1.200   0.060  0.7377  0.9105  1.9388
  299SOL     MW 1196   0.573   1.148   0.043 -0.0739  0.2906  0.5254
  300SOL     OW 1197   1.171   1.153   2.508 -0.9171  0.6753 -0.2316
  300SOL    HW1 1198   1.108   1.087   2.532 -3.4727 -0.3253 -1.4939
  300SOL    HW2 1199   1.247   1.153   2.568 -2.0467 -0.6662 -0.4526
  300SOL     MW 1200   1.173   1.145   2.519 -1.4033  0.3663 -0.4273
  301SOL     OW 1201   1.410   0.997   0.719 -0.1223  0.4623  0.3494
  301SOL    HW1 1202   1.449   1.018   0.802 -0.4650  0.3991  0.8837
  301SOL    HW2 1203   1.345   0.933   0.742 -1.2101  0.2469  0.5750
  301SOL     MW 1204   1.407   0.991   0.733 -0.3110  0.4256  0.4497
  302SOL     OW 1205   0.206   1.548   2.042 -0.2727  0.4512 -0.1096
  302SOL    HW1 1206   0.232   1.459   2.030 -0.5267  1.5546 -1.9239
  302SOL    HW2 1207   0.116   1.558   2.070 -0.2093  0.0208  0.9207
  302SOL     MW 1208   0.198   1.537   2.044 -0.2979  0.5400 -0.2130
  303SOL     OW 1209   0.330   1.788   2.664  0.8706 -0.1787  0.4259
  303SOL    HW1 1210   0.286   1.772   2.580  1.9006  0.7220 -2.1380
  303SOL    HW2 1211   0.265   1.789   2.739 -0.8022 -2.0811  2.1862
  303SOL     MW 1212   0.315   1.786   2.663  0.7858 -0.3108  0.3198
  304SOL     OW 1213   0.506   2.026   2.356  0.4597  0.0256  0.7452
  304SOL    HW1 1214   0.557   2.108   2.345 -1.3350 -1.0673  1.7466
  304SOL    HW2 1215   0.571   1.956   2.377 -1.0531 -0.0793 -1.3499
  304SOL     MW 1216   0.521   2.027   2.358  0.0233 -0.1324  0.6009
  305SOL     OW 1217   1.110   0.676   0.570  0.5389  0.1588  0.2829
  305SOL    HW1 1218   1.015   0.659   0.550 -2.1874 -0.4671 -0.0587
  305SOL    HW2 1219   1.151   0.589   0.549  0.7580 -1.2224 -3.4008
  305SOL     MW 1220   1.103   0.662   0.564  0.2081 -0.1060 -0.2482
  306SOL     OW 1221   1.118   1.555   0.214 -0.5165 -0.0818  0.4116
  306SOL    HW1 1222   1.126   1.461   0.246  0.8516 -0.0960  1.8886
  306SOL    HW2 1223   1.201   1.550   0.169 -0.6412 -0.1626  0.4325
  306SOL     MW 1224   1.130   1.542   0.212 -0.3525 -0.0943  0.6093
  307SOL     OW 1225   1.339   0.433   1.891  0.5236  0.2748 -0.1223
  307SOL    HW1 1226   1.309   0.358   1.947  0.7387 -1.6777 -1.3309
  307SOL    HW2 1227   1.379   0.493   1.954 -0.2409  0.7335  1.3816
  307SOL     MW 1228   1.340   0.431   1.907  0.4511  0.0777 -0.0834
  308SOL     OW 1229   2.240   0.501   2.669  0.1692  0.1889 -0.1940
  308SOL    HW1 1230   2.331   0.526   2.680  0.3116  1.3854  0.3895
  308SOL    HW2 1231   2.193   0.589   2.666 -0.4512 -1.1372 -1.2142
  308SOL     MW 1232   2.245   0.516   2.670  0.1061  0.1718 -0.2516
  309SOL     OW 1233   0.477   0.570   0.231  0.0853  0.4815  0.0155
  309SOL    HW1 1234   0.573   0.579   0.235  0.6388  0.3156  3.9537
  309SOL    HW2 1235   0.471   0.478   0.213  1.8391  0.6195  0.2975
  309SOL     MW 1236   0.489   0.559   0.229  0.3897  0.4778  0.5723
  310SOL     OW 1237   0.483   0.645   1.919 -0.5087  0.1289 -0.1387
  310SOL    HW1 1238   0.549   0.578   1.878  3.7005 -0.5402  0.7203
  310SOL    HW2 1239   0.491   0.729   1.880 -1.7874 -1.2401  0.3744
  310SOL     MW 1240   0.493   0.647   1.908 -0.1221 -0.1400  0.0424
  311SOL     OW 1241   1.954   0.647   1.935  0.0017 -0.4078  0.7718
  311SOL    HW1 1242   1.891   0.665   2.005 -1.2656  3.7650 -0.2618
  311SOL    HW2 1243   2.011   0.569   1.967  1.9632 -2.0979 -1.5874
  311SOL     MW 1244   1.953   0.639   1.948  0.0933 -0.0802  0.3242
  312SOL     OW 1245   1.796   2.444   0.153 -0.2623 -0.1390 -0.4940
  312SOL    HW1 1246   1.806   2.423   0.244 -0.1437  0.8986 -1.8010
  312SOL    HW2 1247   1.721   2.501   0.158 -0.1229 -0.3993  0.3273
  312SOL     MW 1248   1.787   2.448   0.166 -0.2283 -0.0364 -0.5581
  313SOL     OW 1249   0.150   1.142   3.028  0.0230 -0.3509 -0.1174
  313SOL    HW1 1250   0.116   1.190   3.105 -0.7376  1.2122 -0.1263
  313SOL    HW2 1251   0.213   1.202   2.989 -3.0570 -1.2073  2.4322
  313SOL     MW 1252   0.154   1.156   3.033 -0.4837 -0.2576  0.2178
  314SOL     OW 1253   2.164   2.945   3.077 -0.1898 -0.8042  0.5931
  314SOL    HW1 1254   2.109   2.985   2.994 -1.3567 -3.5991  1.0143
  314SOL    HW2 1255   2.206   3.024   3.115  0.5878 -2.1217  0.7460
  314SOL     MW 1256   2.162   2.961   3.071 -0.2412 -1.3468  0.6689
  315SOL     OW 1257   1.543   1.823   2.967  0.1248  0.2603 -0.3681
  315SOL    HW1 1258   1.513   1.880   3.046 -0.6806 -2.3426 -0.8156
  315SOL    HW2 1259   1.586   1.884   2.905 -0.8767 -0.0034  1.2111
  315SOL     MW 1260   1.545   1.839   2.969 -0.1136 -0.1179 -0.2188
  316SOL     OW 1261   1.243   0.565   2.724 -0.0853  0.1405  0.0534
  316SOL    HW1 1262   1.338   0.577   2.722 -1.4135  0.4677 -0.0313
  316SOL    HW2 1263   1.214   0.568   2.818 -3.0349 -0.2568 -0.3214
  316SOL     MW 1264   1.252   0.567   2.736 -0.6497  0.1312 -0.0073
  317SOL     OW 1265   0.693   1.592   2.659 -0.3687  0.0660  0.2468
  317SOL    HW1 1266   0.751   1.518   2.660  0.7314 -0.0201  1.4658
  317SOL    HW2 1267   0.669   1.598   2.571 -2.6649 -0.2529  2.4414
  317SOL     MW 1268   0.698   1.583   2.648 -0.5265  0.0126  0.6972
  318SOL     OW 1269   1.337   0.350   2.951 -0.3277  0.1118 -0.1433
  318SOL    HW1 1270   1.245   0.383   2.937 -3.9269 -0.4482  0.9776
  318SOL    HW2 1271   1.398   0.412   2.907 -1.4964 -1.2706  3.3493
  318SOL     MW 1272   1.333   0.362   2.943 -0.9568 -0.1445  0.4654
  319SOL     OW 1273   0.867   0.360   2.908  0.6803  0.3393 -0.7029
  319SOL    HW1 1274   0.839   0.285   2.848 -0.9783  0.1101 -2.2570
  319SOL    HW2 1275   0.791   0.388   2.964 -4.6214 -1.8800  0.9248
  319SOL     MW 1276   0.853   0.353   2.907 -0.2380  0.0162 -0.6932
  320SOL     OW 1277   1.074   1.400   1.979  0.0884  0.2753 -0.2898
  320SOL    HW1 1278   1.122   1.321   2.006 -1.1616  1.8361  0.4490
  320SOL    HW2 1279   1.130   1.469   1.950 -1.2486 -0.3417 -2.4202
  320SOL     MW 1280   1.088   1.399   1.979 -0.2529  0.3998 -0.4734
  321SOL     OW 1281   1.114   0.915   2.997 -0.5269  0.1328 -0.1737
  321SOL    HW1 1282   1.044   0.900   2.935  1.0748  1.3227  2.8783
  321SOL    HW2 1283   1.185   0.848   2.990  1.2775 -0.0172  0.0266
  321SOL     MW 1284   1.114   0.904   2.988 -0.0775  0.2700  0.2554
  322SOL     OW 1285   1.210   0.844   1.656  0.5316  0.3197  0.3709
  322SOL    HW1 1286   1.283   0.782   1.674  2.8944  1.1697 -2.2499
  322SOL    HW2 1287   1.177   0.882   1.743 -0.2530  2.6697  3.1023
  322SOL     MW 1288   1.215   0.841   1.670  0.7399  0.7419  0.3855
  323SOL     OW 1289   1.243   1.625   1.889 -0.0329 -0.2066  0.1163
  323SOL    HW1 1290   1.272   1.593   1.802 -1.3896 -0.9049  0.5041
  323SOL    HW2 1291   1.189   1.699   1.865 -2.7265 -1.3323  1.6282
  323SOL     MW 1292   1.240   1.630   1.874 -0.5673 -0.4472  0.3670
  324SOL     OW 1293   1.486   1.002   2.415 -0.5166  0.1060  0.4878
  324SOL    HW1 1294   1.414   1.037   2.466 -1.0703 -1.2840 -2.2423
  324SOL    HW2 1295   1.570   1.040   2.445  1.7067 -0.2056  0.3274
  324SOL     MW 1296   1.488   1.012   2.426 -0.2963 -0.1185  0.1064
  325SOL     OW 1297   1.114   0.502   2.979 -0.0023  0.0314  0.0189
  325SOL    HW1 1298   1.091   0.538   3.068  0.0583 -1.5198 -0.6656
  325SOL    HW2 1299   1.038   0.454   2.953  0.5579  0.1371  0.8305
  325SOL     MW 1300   1.101   0.500   2.987  0.0796 -0.1593  0.0357
  326SOL     OW 1301   0.347   1.366   2.281  0.3081 -0.2127 -0.0357
  326SOL    HW1 1302   0.443   1.331   2.269  3.6122 -0.2481 -0.8473
  326SOL    HW2 1303   0.344   1.457   2.276  0.6717  0.0654  1.0461
  326SOL     MW 1304   0.359   1.373   2.278  0.7920 -0.1807 -0.0001
  327SOL     OW 1305   1.950   0.792   2.452  0.3641 -0.3108 -0.0203
  327SOL    HW1 1306   1.902   0.769   2.538  1.5296  1.6638 -0.3333
  327SOL    HW2 1307   1.942   0.888   2.450  0.9234  2.0293 -1.6273
  327SOL     MW 1308   1.943   0.802   2.463  0.5917  0.2585 -0.2736
  328SOL     OW 1309   0.239   1.258   2.041 -0.0467 -0.3618 -0.5080
  328SOL    HW1 1310   0.167   1.193   2.047  0.3720  0.0814  0.5103
  328SOL    HW2 1311   0.259   1.275   2.132 -0.4869 -0.3640  1.3308
  328SOL     MW 1312   0.232   1.252   2.054 -0.0495 -0.3036 -0.1310
  329SOL     OW 1313   0.081   0.165   1.344 -0.3547 -0.4600  0.0302
  329SOL    HW1 1314   0.087   0.132   1.435 -2.5827  0.2443  2.5061
  329SOL    HW2 1315   0.171   0.173   1.303  0.4659 -0.4272 -1.4511
  329SOL     MW 1316   0.094   0.162   1.351 -0.5404 -0.3627  0.1614
  330SOL     OW 1317   0.400   3.093   2.026  0.0453  0.2836 -0.1457
  330SOL    HW1 1318   0.486   3.075   2.063  0.3677  1.5205  1.1806
  330SOL    HW2 1319   0.341   3.043   2.083  0.4614 -3.9027 -0.0580
  330SOL     MW 1320   0.403   3.084   2.038  0.1428 -0.1056  0.0409
  331SOL     OW 1321   0.786   1.247   2.466  0.2862 -0.2072 -0.1282
  331SOL    HW1 1322   0.734   1.315   2.425  0.2150  0.8614  0.2127
  331SOL    HW2 1323   0.815   1.282   2.553 -0.3791 -1.4213  0.1117
  331SOL     MW 1324   0.783   1.260   2.472  0.1890 -0.2264 -0.0516
  332SOL     OW 1325   1.332   1.661   2.896 -0.2505 -0.3416  0.2134
  332SOL    HW1 1326   1.327   1.683   2.804  2.7639 -1.8063 -0.3593
  332SOL    HW2 1327   1.417   1.700   2.930  0.6256  2.2076  0.9087
  332SOL     MW 1328   1.343   1.669   2.888  0.2628 -0.1985  0.2296
  333SOL     OW 1329   1.711   1.401   2.915 -0.4490 -0.2274  0.3355
  333SOL    HW1 1330   1.812   1.406   2.934  2.1628 -0.0978  0.7597
  333SOL    HW2 1331   1.687   1.319   2.953  0.0823  0.7242 -0.2940
  333SOL     MW 1332   1.721   1.391   2.922 -0.0343 -0.0847  0.3084
  334SOL     OW 1333   1.255   3.059   2.648 -0.1587  0.3673  0.6580
  334SOL    HW1 1334   1.164   3.062   2.670 -1.9071  0.7160  1.2230
  334SOL    HW2 1335   1.290   3.130   2.711  0.1208  1.3956  1.9138
  334SOL     MW 1336   1.248   3.069   2.660 -0.3525  0.5490  0.8983
  335SOL     OW 1337   1.321   0.731   2.988  0.8283 -0.4983  0.0785
  335SOL    HW1 1338   1.378   0.694   3.061 -1.3436 -1.3531  0.8078
  335SOL    HW2 1339   1.390   0.746   2.925 -0.9576  2.5075 -0.0354
  335SOL     MW 1340   1.338   0.728   2.990  0.3061 -0.2145  0.1597
  336SOL     OW 1341   0.962   1.195   1.768  0.2622 -0.1493  0.1359
  336SOL    HW1 1342   0.920   1.258   1.818  0.9366 -1.8013 -0.3378
  336SOL    HW2 1343   0.973   1.120   1.828 -2.6909  0.2529 -0.3766
  336SOL     MW 1344   0.958   1.193   1.782 -0.0384 -0.3142  0.0057
  337SOL     OW 1345   0.576   1.861   2.795 -0.0384 -0.1159  0.2825
  337SOL    HW1 1346   0.534   1.829   2.717 -0.9902  2.0185  0.7640
  337SOL    HW2 1347   0.669   1.833   2.790 -2.2446 -1.3701 -0.4390
  337SOL     MW 1348   0.583   1.853   2.784 -0.4550  0.0002  0.2508
  338SOL     OW 1349   1.039   0.759   2.543 -0.5755 -0.2059 -0.6825
  338SOL    HW1 1350   0.975   0.685   2.526  1.7201  1.1588 -2.4410
  338SOL    HW2 1351   1.120   0.722   2.578  2.9118 -0.9446  1.8139
  338SOL     MW 1352   1.041   0.744   2.545  0.1875 -0.1233 -0.5851
  339SOL     OW 1353   1.456   1.116   1.863 -0.2649  0.1876  0.1290
  339SOL    HW1 1354   1.433   1.099   1.771  2.0782 -0.4719 -0.1390
  339SOL    HW2 1355   1.379   1.094   1.915 -0.4840  1.9131  0.0419
  339SOL     MW 1356   1.443   1.111   1.858  0.0153  0.3283  0.0822
  340SOL     OW 1357   1.331   1.504   0.038 -0.7745  0.3720 -0.0120
  340SOL    HW1 1358   1.328   1.530  -0.054 -2.4339 -1.1472  0.6972
  340SOL    HW2 1359   1.396   1.430   0.046  0.4640 -2.3539 -1.6219
  340SOL     MW 1360   1.340   1.498   0.027 -0.8300 -0.1881 -0.1309
  341SOL     OW 1361   0.030   1.359   2.760  0.0371 -0.3877  0.2434
  341SOL    HW1 1362   0.097   1.309   2.807  0.2573  1.4928  0.8484
  341SOL    HW2 1363   0.016   1.312   2.684  1.3113 -1.8848  2.7725
  341SOL     MW 1364   0.037   1.346   2.756  0.2343 -0.3371  0.6569
  342SOL     OW 1365   1.380   0.329   0.125  0.5921 -0.4654 -0.0529
  342SOL    HW1 1366   1.447   0.390   0.171  1.1469  0.7754  0.4247
  342SOL    HW2 1367   1.378   0.367   0.039  1.6808  0.6672  0.0108
  342SOL     MW 1368   1.389   0.342   0.120  0.8089 -0.1523  0.0185
  343SOL     OW 1369   0.301   0.295   2.223 -0.4051 -0.1637  0.4217
  343SOL    HW1 1370   0.373   0.229   2.232  1.3212 -2.3651 -0.9945
  343SOL    HW2 1371   0.241   0.257   2.160  3.5972  0.9369 -2.4526
  343SOL     MW 1372   0.303   0.281   2.216  0.3507 -0.3090 -0.1444
  344SOL     OW 1373   1.719   2.029   0.162  0.1300 -0.1293 -0.2363
  344SOL    HW1 1374   1.751   2.095   0.099 -0.9193  0.2575  1.1224
  344SOL    HW2 1375   1.630   2.027   0.163  0.5433 -0.1717 -3.1108
  344SOL     MW 1376   1.711   2.038   0.154  0.0460 -0.0839 -0.4363
  345SOL     OW 1377   0.686   1.564   2.367  0.5078 -0.0510 -0.0557
  345SOL    HW1 1378   0.601   1.599   2.327 -2.4833 -1.7634  0.5436
  345SOL    HW2 1379   0.756   1.569   2.303 -0.9829  3.1721 -1.3350
  345SOL     MW 1380   0.684   1.569   2.353 -0.0835  0.1483 -0.1454
  346SOL     OW 1381   1.714   1.107   3.060 -0.2374 -0.4091 -0.6209
  346SOL    HW1 1382   1.807   1.104   3.053 -2.4183 -0.8595 -0.4027
  346SOL    HW2 1383   1.690   1.055   3.141  0.8447  0.1674  0.9299
  346SOL     MW 1384   1.723   1.100   3.070 -0.3824 -0.3925 -0.3875
  347SOL     OW 1385   1.139   0.749   2.264 -0.0010 -0.2425 -0.2565
  347SOL    HW1 1386   1.200   0.678   2.287 -1.4342 -2.5351  2.5400
  347SOL    HW2 1387   1.093   0.764   2.352 -2.6630  0.1127  0.4451
  347SOL     MW 1388   1.141   0.742   2.279 -0.5413 -0.4981  0.2051
  348SOL     OW 1389   1.363   2.556   1.909  0.2608  0.3892 -0.1434
  348SOL    HW1 1390   1.341   2.489   1.980  0.7598 -1.6484  0.6687
  348SOL    HW2 1391   1.382   2.642   1.952 -2.1938 -0.4679  1.4307
  348SOL     MW 1392   1.363   2.559   1.924  0.0028  0.0073  0.1714
  349SOL     OW 1393   1.395   0.173   2.760 -0.4946  0.6639  0.3787
  349SOL    HW1 1394   1.373   0.228   2.834 -0.9007  0.0090 -0.7009
  349SOL    HW2 1395   1.461   0.113   2.800  0.4116 -0.2778 -2.5031
  349SOL     MW 1396   1.401   0.172   2.775 -0.4286  0.4532 -0.1440
  350SOL     OW 1397   1.828   0.653   2.659 -0.1369 -0.0112 -0.9263
  350SOL    HW1 1398   1.810   0.579   2.593  0.5742  3.9578 -1.1052
  350SOL    HW2 1399   1.884   0.610   2.721 -0.1745 -0.3122 -0.3166
  350SOL     MW 1400   1.833   0.638   2.659 -0.0480  0.4728 -0.8695
  351SOL     OW 1401   0.065   1.166   1.636 -0.0138 -0.6184 -0.0947
  351SOL    HW1 1402  -0.018   1.180   1.689 -3.8145  1.4375 -2.0253
  351SOL    HW2 1403   0.131   1.231   1.664 -0.8877 -2.3447 -1.8749
  351SOL     MW 1404   0.063   1.177   1.646 -0.6306 -0.5749 -0.5843
  352SOL     OW 1405   0.846   1.750   2.798  0.1931  0.4726  0.5522
  352SOL    HW1 1406   0.843   1.714   2.891  0.2722 -0.8835 -1.6543
  352SOL    HW2 1407   0.793   1.680   2.752  0.7078 -2.4984 -1.6162
  352SOL     MW 1408   0.839   1.736   2.804  0.2714 -0.0983 -0.0250
  353SOL     OW 1409   0.017   2.551   2.737 -0.2039  0.6257 -0.2375
  353SOL    HW1 1410   0.097   2.544   2.684 -0.5607 -1.0060  1.9430
  353SOL    HW2 1411  -0.002   2.644   2.742 -1.3831  1.2517 -1.3203
  353SOL     MW 1412   0.025   2.562   2.730 -0.4065  0.4930 -0.0927
  354SOL     OW 1413   0.328   2.457   0.849  0.8071 -0.2623  0.3055
  354SOL    HW1 1414   0.336   2.426   0.939 -0.5757 -2.3978 -3.1782
  354SOL    HW2 1415   0.261   2.391   0.824  1.9695 -1.0662  0.8276
  354SOL     MW 1416   0.320   2.444   0.857  0.7781 -0.6501 -0.0853
  355SOL     OW 1417   3.047   2.193   0.335 -0.6148 -0.9312  0.1453
  355SOL    HW1 1418   2.965   2.150   0.342  1.0257  2.6791  1.3265
  355SOL    HW2 1419   3.060   2.252   0.414  1.5908 -0.9094  0.2339
  355SOL     MW 1420   3.038   2.196   0.346 -0.1073 -0.4520  0.3128
  356SOL     OW 1421   0.825   2.784   0.953  0.3800  0.7262  0.6777
  356SOL    HW1 1422   0.884   2.825   0.886  0.1130 -0.1895 -1.5638
  356SOL    HW2 1423   0.733   2.795   0.927  0.9045 -0.0633  1.6381
  356SOL     MW 1424   0.821   2.791   0.941  0.4140  0.5012  0.5087
  357SOL     OW 1425   1.793   2.809   0.490  0.3496 -0.4389  0.0308
  357SOL    HW1 1426   1.794   2.740   0.556 -0.2136  1.4165  0.8359
  357SOL    HW2 1427   1.871   2.792   0.434  2.6238 -0.1450 -0.5917
  357SOL     MW 1428   1.804   2.798   0.491  0.5754 -0.1553  0.0549
  358SOL     OW 1429   0.447   0.171   1.029  0.0437  0.4770  0.5013
  358SOL    HW1 1430   0.543   0.150   1.012  0.6134  1.1271 -0.1283
  358SOL    HW2 1431   0.403   0.197   0.948 -0.9188  0.2554  1.6507
  358SOL     MW 1432   0.454   0.171   1.016 -0.0081  0.5336  0.5699
  359SOL     OW 1433   0.792   2.954   1.843  0.8033  0.7928 -0.1685
  359SOL    HW1 1434   0.785   2.866   1.879  1.9074  0.2962 -0.1640
  359SOL    HW2 1435   0.846   2.935   1.764  2.1452 -2.1982 -1.3546
  359SOL     MW 1436   0.798   2.940   1.837  1.1260  0.3327 -0.3244
  360SOL     OW 1437   0.556   2.753   0.866 -0.0809 -0.2107  0.1203
  360SOL    HW1 1438   0.580   2.734   0.775  1.0073  1.5056 -0.5518
  360SOL    HW2 1439   0.535   2.666   0.911 -1.9261 -2.1943 -2.4240
  360SOL     MW 1440   0.557   2.739   0.860 -0.1808 -0.2460 -0.3041
  361SOL     OW 1441   0.210   2.631   1.414 -0.1529  0.6099  0.3881
  361SOL    HW1 1442   0.168   2.712   1.444  2.1736  2.3706 -0.9847
  361SOL    HW2 1443   0.298   2.647   1.421 -0.5591 -0.4636  0.1498
  361SOL     MW 1444   0.216   2.644   1.419  0.1005  0.7006  0.1755
  362SOL     OW 1445   1.409   2.387   0.580 -0.6530  0.0828 -0.3791
  362SOL    HW1 1446   1.427   2.327   0.651 -0.0984 -1.0957 -3.5657
  362SOL    HW2 1447   1.456   2.475   0.595  1.4924 -0.4861  1.3308
  362SOL     MW 1448   1.418   2.391   0.591 -0.2968 -0.1477 -0.5739
  363SOL     OW 1449   0.314   3.059   0.642  0.0007 -0.3663 -0.2207
  363SOL    HW1 1450   0.297   3.013   0.724  1.8809 -1.4736  0.2303
  363SOL    HW2 1451   0.229   3.061   0.596  0.2386  0.8279  2.7390
  363SOL     MW 1452   0.300   3.053   0.647  0.2801 -0.3549  0.2293
  364SOL     OW 1453   0.775   0.248   0.158  0.0549  0.1237 -0.6485
  364SOL    HW1 1454   0.695   0.188   0.152 -0.5234  1.0816 -1.2390
  364SOL    HW2 1455   0.742   0.320   0.104  0.1333 -0.4697  0.4047
  364SOL     MW 1456   0.760   0.249   0.150 -0.0111  0.1718 -0.5875
  365SOL     OW 1457   0.960   2.031   1.119 -0.9088 -0.0184  0.1225
  365SOL    HW1 1458   0.907   2.109   1.125  1.7620 -1.0425  0.3582
  365SOL    HW2 1459   0.903   1.980   1.064  1.1249  3.3332  2.7568
  365SOL     MW 1460   0.945   2.034   1.112 -0.2881  0.2887  0.5011
  366SOL     OW 1461   2.952   2.657   0.951  0.3309  0.1242 -0.0544
  366SOL    HW1 1462   3.035   2.690   0.977  0.9407 -0.5756  0.9127
  366SOL    HW2 1463   2.953   2.680   0.852  0.6647 -0.3780 -0.6262
  366SOL     MW 1464   2.963   2.665   0.941  0.4554 -0.0344 -0.0022
  367SOL     OW 1465   1.224   2.967   0.921 -0.0678  0.5081  0.4372
  367SOL    HW1 1466   1.233   3.029   0.854 -2.3058 -0.8293  0.3801
  367SOL    HW2 1467   1.184   2.892   0.872 -0.2573  0.5779  2.3799
  367SOL     MW 1468   1.220   2.965   0.906 -0.3881  0.3408  0.6860
  368SOL     OW 1469   1.732   0.394   0.727  0.6160  0.1347 -0.3314
  368SOL    HW1 1470   1.779   0.339   0.670 -1.5283  2.6624  1.3101
  368SOL    HW2 1471   1.742   0.480   0.689 -1.2032 -0.6649 -0.3817
  368SOL     MW 1472   1.740   0.398   0.715  0.0931  0.3627 -0.1215
  369SOL     OW 1473   0.120   2.426   1.787  0.0211  0.3325  0.1501
  369SOL    HW1 1474   0.223   2.427   1.779 -0.0416 -0.9288 -0.1900
  369SOL    HW2 1475   0.086   2.516   1.801  3.0162  1.0615  0.1256
  369SOL     MW 1476   0.129   2.438   1.788  0.4080  0.2623  0.1020
  370SOL     OW 1477   0.741   0.154   0.962 -0.3618 -0.0420  0.3330
  370SOL    HW1 1478   0.776   0.243   0.943  0.4464  0.1186 -2.6136
  370SOL    HW2 1479   0.810   0.097   0.948  2.0570  0.0308  0.4692
  370SOL     MW 1480   0.755   0.159   0.958  0.0640 -0.0112 -0.0378
  371SOL     OW 1481   1.244   2.838   1.512 -0.6971 -0.1284  0.0686
  371SOL    HW1 1482   1.229   2.743   1.520  0.1444 -0.9110 -0.7586
  371SOL    HW2 1483   1.225   2.854   1.417 -1.5703  1.4010  1.2619
  371SOL     MW 1484   1.240   2.828   1.500 -0.7013 -0.0299  0.1169
  372SOL     OW 1485   0.819   2.308   0.496  0.0343 -0.1435  0.9745
  372SOL    HW1 1486   0.781   2.221   0.514  1.7642 -0.9903 -0.4034
  372SOL    HW2 1487   0.852   2.318   0.399  0.8125  0.1074 -2.2293
  372SOL     MW 1488   0.818   2.298   0.486  0.3652 -0.2222  0.3700
  373SOL     OW 1489   2.865   3.014   1.389  0.1989 -0.0179  0.1476
  373SOL    HW1 1490   2.925   2.963   1.329  0.3739 -3.0574 -1.1415
  373SOL    HW2 1491   2.853   3.105   1.354 -2.5484 -0.1788 -1.3855
  373SOL     MW 1492   2.871   3.020   1.376 -0.1405 -0.4402 -0.2248
  374SOL     OW 1493   1.530   0.493   0.270  0.4237 -0.3796 -0.3885
  374SOL    HW1 1494   1.621   0.462   0.261  0.7058  0.0508 -1.8461
  374SOL    HW2 1495   1.510   0.480   0.364 -0.7783 -0.5103  2.5469
  374SOL     MW 1496   1.539   0.487   0.281  0.3023 -0.3400 -0.1935
  375SOL     OW 1497   0.951   2.132   2.341 -0.5779  0.4802  0.4218
  375SOL    HW1 1498   1.033   2.113   2.382  1.1232  1.0328  0.6125
  375SOL    HW2 1499   0.944   2.050   2.284  2.9654 -2.3829  1.4313
  375SOL     MW 1500   0.961   2.118   2.339  0.1140  0.1753  0.5801
  376SOL     OW 1501   0.704   2.478   0.054 -0.2510  0.5446 -0.1122
  376SOL    HW1 1502   0.651   2.421   0.110  3.0037 -0.7120  0.0661
  376SOL    HW2 1503   0.733   2.427  -0.023  1.9191 -2.3038 -1.6890
  376SOL     MW 1504   0.700   2.463   0.051  0.4648  0.0030 -0.2967
  377SOL     OW 1505   1.256   2.096   0.916  0.0913 -0.1813 -0.2322
  377SOL    HW1 1506   1.169   2.083   0.877  0.5456  0.1041 -0.0256
  377SOL    HW2 1507   1.261   2.029   0.985 -0.2984 -0.7524  1.5134
  377SOL     MW 1508   1.245   2.085   0.920  0.0998 -0.2190  0.0254
  378SOL     OW 1509   0.923   2.897   1.595  0.2155  0.5466 -0.3769
  378SOL    HW1 1510   0.913   2.804   1.578 -0.1143  0.0807 -1.5443
  378SOL    HW2 1511   1.005   2.935   1.554  0.9099  2.0380  0.8173
  378SOL     MW 1512   0.932   2.890   1.587  0.2636  0.6819 -0.3734
  379SOL     OW 1513   1.117   1.651   2.162 -0.2525 -0.0736 -0.0749
  379SOL    HW1 1514   1.033   1.600   2.154 -1.8509  0.7153 -0.1669
  379SOL    HW2 1515   1.179   1.621   2.099 -1.2445  0.0192  0.5941
  379SOL     MW 1516   1.114   1.640   2.153 -0.5943  0.0428  0.0012
  380SOL     OW 1517   0.908   0.071   1.458 -0.0659 -0.3222 -0.3663
  380SOL    HW1 1518   0.940  -0.015   1.429  2.5752  1.0154  2.0617
  380SOL    HW2 1519   0.939   0.089   1.550  1.4173 -2.6123 -2.3462
  380SOL     MW 1520   0.916   0.062   1.466  0.4783 -0.4479 -0.3071
  381SOL     OW 1521   0.755   2.083   0.840  0.8500 -0.3061 -0.5490
  381SOL    HW1 1522   0.848   2.075   0.826 -0.1461 -1.0014  0.0821
  381SOL    HW2 1523   0.749   2.137   0.921  1.2014  2.1840  2.0095
  381SOL     MW 1524   0.766   2.089   0.849  0.7649 -0.0693 -0.1282
  382SOL     OW 1525   0.757   0.151   0.628  0.4211 -0.3598  0.5538
  382SOL    HW1 1526   0.710   0.192   0.698 -0.2570  2.6025 -0.6540
  382SOL    HW2 1527   0.728   0.059   0.630  0.8054  1.3258  2.2320
  382SOL     MW 1528   0.747   0.144   0.638  0.3824  0.2535  0.6159
  383SOL     OW 1529   0.563   0.045   0.281  0.3212  0.1572  0.0032
  383SOL    HW1 1530   0.613  -0.014   0.228 -2.2976 -2.3235  0.2959
  383SOL    HW2 1531   0.547   0.003   0.366  0.5305 -0.5955 -0.0455
  383SOL     MW 1532   0.567   0.032   0.285  0.0033 -0.2694  0.0354
  384SOL     OW 1533   0.757   2.972   0.599 -0.5901 -0.2891 -0.2957
  384SOL    HW1 1534   0.819   2.941   0.668  1.0627 -1.9171  0.6696
  384SOL    HW2 1535   0.699   2.897   0.587  2.6977  1.5603 -0.9269
  384SOL     MW 1536   0.758   2.958   0.607  0.0618 -0.2599 -0.2516
  385SOL     OW 1537   1.450   2.041   1.546  0.1613  0.1981  0.0478
  385SOL    HW1 1538   1.514   2.107   1.580  0.5991 -1.8471 -0.2461
  385SOL    HW2 1539   1.418   1.983   1.621 -0.1808  2.1789  0.8525
  385SOL     MW 1540   1.455   2.042   1.561  0.1739  0.1896  0.1152
  386SOL     OW 1541   1.299   0.351   0.847  0.5125  0.1592  0.0694
  386SOL    HW1 1542   1.258   0.406   0.915  0.9070 -0.0292 -0.8742
  386SOL    HW2 1543   1.350   0.283   0.896 -3.1489 -1.2909  1.6250
  386SOL     MW 1544   1.301   0.349   0.862  0.0814 -0.0569  0.1501
  387SOL     OW 1545   0.793   2.147   1.490 -0.4222 -0.4193 -0.0678
  387SOL    HW1 1546   0.867   2.200   1.464 -2.3338 -2.7850  2.3485
  387SOL    HW2 1547   0.823   2.066   1.450  0.0428  1.7416  0.8808
  387SOL     MW 1548   0.806   2.143   1.481 -0.6131 -0.4463  0.3761
  388SOL     OW 1549   1.522   2.748   1.293 -0.4962 -0.0327  0.8131
  388SOL    HW1 1550   1.442   2.796   1.301 -0.5637  0.4975  3.3490
  388SOL    HW2 1551   1.509   2.660   1.252 -0.7918  2.2037  2.0911
  388SOL     MW 1552   1.510   2.743   1.289 -0.5441  0.3323  1.3163
  389SOL     OW 1553   0.565   0.153   3.049  0.1130 -0.2900 -0.6097
  389SOL    HW1 1554   0.635   0.081   3.058  1.8611  0.5211  4.3051
  389SOL    HW2 1555   0.545   0.162   2.951  2.4250 -1.5343  1.2406
  389SOL     MW 1556   0.571   0.145   3.037  0.6487 -0.3472  0.2829
  390SOL     OW 1557   1.345   0.046   0.694  0.5733  0.1852  0.2036
  390SOL    HW1 1558   1.381   0.031   0.611 -1.5589  2.8218 -0.8016
  390SOL    HW2 1559   1.409   0.105   0.741  0.5788 -0.2843 -2.6885
  390SOL     MW 1560   1.358   0.052   0.689  0.2927  0.4712 -0.3106
  391SOL     OW 1561   0.405   2.185   1.494 -0.1525  0.2994 -0.3569
  391SOL    HW1 1562   0.375   2.098   1.520  0.1515 -0.0656  0.1007
  391SOL    HW2 1563   0.329   2.247   1.496 -0.7711  0.5508  0.0467
  391SOL     MW 1564   0.391   2.182   1.497 -0.1940  0.2844 -0.2433
  392SOL     OW 1565   2.068   2.229   0.289 -0.2511 -0.0818 -0.7363
  392SOL    HW1 1566   2.155   2.193   0.308  0.8549 -0.1299  2.5821
  392SOL    HW2 1567   2.027   2.248   0.369 -0.8373  1.6337 -2.2972
  392SOL     MW 1568   2.074   2.227   0.302 -0.1825  0.1382 -0.5044
  393SOL     OW 1569   0.298   2.932   2.834 -0.6284  0.3549  0.5712
  393SOL    HW1 1570   0.359   2.903   2.768 -0.7933  2.0336 -0.9530
  393SOL    HW2 1571   0.286   3.026   2.815 -0.1641  2.0843  1.3429
  393SOL     MW 1572   0.304   2.940   2.823 -0.5889  0.8046  0.4719
  394SOL     OW 1573   0.984   1.696   1.545  0.1513  0.3902  0.1979
  394SOL    HW1 1574   0.938   1.723   1.626 -0.5177  0.2320  1.9012
  394SOL    HW2 1575   0.960   1.764   1.486 -1.9347 -0.1072  4.8284
  394SOL     MW 1576   0.975   1.709   1.548 -0.2122  0.3037  1.0336
  395SOL     OW 1577   0.974   2.973   2.536 -0.1648 -0.4631 -0.0763
  395SOL    HW1 1578   0.967   3.002   2.628  1.4722  0.6287 -0.8276
  395SOL    HW2 1579   1.019   2.892   2.553 -1.2402 -0.9470  0.3705
  395SOL     MW 1580   0.979   2.966   2.550 -0.0907 -0.3829 -0.1165
  396SOL     OW 1581   0.704   1.875   2.438  0.1230  0.6611 -0.0865
  396SOL    HW1 1582   0.789   1.879   2.487  0.2872  1.2454  2.1129
  396SOL    HW2 1583   0.695   1.781   2.423  3.1198  0.2108  0.9640
  396SOL     MW 1584   0.714   1.863   2.442  0.5401  0.6788  0.3423
  397SOL     OW 1585   1.014   2.322   1.435 -0.1875  0.1327  0.0629
  397SOL    HW1 1586   1.018   2.342   1.338 -1.4848 -1.6788 -3.1827
  397SOL    HW2 1587   1.104   2.289   1.461 -0.0684 -0.6437 -0.5341
  397SOL     MW 1588   1.027   2.320   1.426 -0.3429 -0.2088 -0.4441
  398SOL     OW 1589   0.618   2.728   0.609 -0.5330  0.2374 -0.3479
  398SOL    HW1 1590   0.526   2.704   0.578 -0.9540 -2.8906  1.4882
  398SOL    HW2 1591   0.663   2.640   0.614  0.9800 -1.2608 -2.2580
  398SOL     MW 1592   0.612   2.713   0.605 -0.3889 -0.3730 -0.3577
  399SOL     OW 1593   0.220   2.094   0.342 -0.5438  0.1959 -0.4620
  399SOL    HW1 1594   0.134   2.128   0.340  2.4063 -2.3787  0.5721
  399SOL    HW2 1595   0.270   2.121   0.259  1.6990  0.7900 -0.4513
  399SOL     MW 1596   0.216   2.102   0.331  0.1413 -0.0654 -0.3241
  400SOL     OW 1597   0.564   1.990   0.089  0.0918 -0.5808  0.2340
  400SOL    HW1 1598   0.497   2.055   0.098  0.5128  0.6127  3.5458
  400SOL    HW2 1599   0.560   1.938   0.166 -0.1656 -0.7209 -2.6129
  400SOL     MW 1600   0.555   1.992   0.100  0.1134 -0.4418  0.2954
  401SOL     OW 1601   0.815   2.100   0.078  0.2030 -0.2128 -0.3110
  401SOL    HW1 1602   0.895   2.044   0.076  3.9422  3.0117  2.1164
  401SOL    HW2 1603   0.742   2.043   0.107 -0.6393  0.6179 -0.4059
  401SOL     MW 1604   0.816   2.085   0.082  0.5852  0.3223 -0.0033
  402SOL     OW 1605   0.566   2.977   1.716  0.0172  0.2680 -0.0470
  402SOL    HW1 1606   0.642   2.982   1.779 -1.5090 -1.0774 -0.3951
  402SOL    HW2 1607   0.585   3.061   1.667 -1.4767  0.3170 -0.7878
  402SOL     MW 1608   0.579   2.989   1.718 -0.3813  0.0969 -0.1906
  403SOL     OW 1609   0.090   0.486   0.367  0.5159  0.6061 -0.2266
  403SOL    HW1 1610   0.178   0.504   0.410  2.4541 -0.6775  1.7116
  403SOL    HW2 1611   0.110   0.434   0.291 -0.6847  0.9469  3.0048
  403SOL     MW 1612   0.104   0.481   0.363  0.6133  0.4817  0.4555
  404SOL     OW 1613   0.970   2.906   0.754  0.3113  0.1732  0.4049
  404SOL    HW1 1614   1.031   2.846   0.717  1.1021  1.4397  0.6413
  404SOL    HW2 1615   1.010   2.985   0.721 -1.9485 -0.2153 -0.0686
  404SOL     MW 1616   0.983   2.909   0.745  0.1175  0.2890  0.3736
  405SOL     OW 1617   0.497   2.460   1.526 -0.5963  0.4257 -0.0725
  405SOL    HW1 1618   0.489   2.529   1.461 -1.0371 -2.5253  0.9343
  405SOL    HW2 1619   0.526   2.393   1.470  3.3848  2.0030 -1.0836
  405SOL     MW 1620   0.500   2.460   1.510 -0.1292  0.2445 -0.0731
  406SOL     OW 1621   0.355   2.403   1.116  0.5930 -0.2714  0.6571
  406SOL    HW1 1622   0.254   2.408   1.111 -1.3937 -0.5761  3.5527
  406SOL    HW2 1623   0.387   2.324   1.164  3.3081  0.4851 -0.5007
  406SOL     MW 1624   0.346   2.394   1.122  0.6891 -0.2118  0.8864
  407SOL     OW 1625   0.073   2.672   1.159  0.0490 -0.3675 -0.2007
  407SOL    HW1 1626   0.121   2.666   1.244  0.4568 -0.8124  2.2250
  407SOL    HW2 1627   0.130   2.671   1.084 -0.7330  2.0451 -0.3026
  407SOL     MW 1628   0.087   2.671   1.160 -0.0004 -0.1079  0.1059
  408SOL     OW 1629   2.140   2.114   0.679 -0.8089 -0.1216  0.4403
  408SOL    HW1 1630   2.093   2.144   0.754  3.2711  0.3310 -0.9639
  408SOL    HW2 1631   2.077   2.053   0.646  0.3560  3.0374  0.6711
  408SOL     MW 1632   2.126   2.110   0.684 -0.1169  0.3549  0.2854
  409SOL     OW 1633   1.497   0.138   0.911  0.6673  0.0135 -0.6136
  409SOL    HW1 1634   1.580   0.190   0.929  2.4566  1.5207 -2.5845
  409SOL    HW2 1635   1.497   0.069   0.976 -0.3736  1.6304  2.1222
  409SOL     MW 1636   1.508   0.135   0.922  0.7661  0.4257 -0.5127
  410SOL     OW 1637   1.048   2.430   1.178 -0.2023  0.4844  0.1931
  410SOL    HW1 1638   1.003   2.463   1.097 -0.5355  2.2276 -0.7100
  410SOL    HW2 1639   1.127   2.392   1.131  0.9283  0.5152 -1.3970
  410SOL     MW 1640   1.053   2.429   1.161 -0.0971  0.7185 -0.1359
  411SOL     OW 1641   1.976   3.058   2.907  0.2387 -0.1528 -0.3801
  411SOL    HW1 1642   1.902   3.020   2.862 -0.2954 -0.6473  0.2348
  411SOL    HW2 1643   1.938   3.139   2.940  0.5795 -0.8423  2.0856
  411SOL     MW 1644   1.961   3.063   2.905  0.2132 -0.3091  0.0264
  412SOL     OW 1645   1.066   2.254   0.616  0.1608  0.7028 -0.3865
  412SOL    HW1 1646   1.111   2.316   0.670 -0.0494 -2.5511  0.5977
  412SOL    HW2 1647   0.985   2.291   0.586  0.3371 -0.3117 -0.5349
  412SOL     MW 1648   1.061   2.267   0.619  0.1564  0.1397 -0.2762
  413SOL     OW 1649   0.578   2.744   0.052  0.2241  1.0860  0.0308
  413SOL    HW1 1650   0.619   2.655   0.069 -2.1517 -3.6937 -1.0807
  413SOL    HW2 1651   0.593   2.763  -0.037  0.5751  0.8493  2.8523
  413SOL     MW 1652   0.586   2.735   0.043 -0.0430  0.4242  0.2564
  414SOL     OW 1653   2.040   2.993   1.180  0.2193 -0.2085 -0.4385
  414SOL    HW1 1654   2.058   3.091   1.197 -0.7319  0.3840  0.5136
  414SOL    HW2 1655   2.012   3.002   1.087  1.8132 -2.0626 -1.9256
  414SOL     MW 1656   2.039   3.007   1.170  0.3041 -0.3749 -0.5091
  415SOL     OW 1657   1.682   2.804   1.077 -1.1292  0.3726 -0.2085
  415SOL    HW1 1658   1.631   2.797   1.158  0.4241  0.5337  0.7437
  415SOL    HW2 1659   1.773   2.799   1.102 -1.3154 -1.4180 -0.3844
  415SOL     MW 1660   1.687   2.803   1.091 -0.9488  0.1576 -0.1061
  416SOL     OW 1661   0.563   1.827   1.426  0.2062 -1.2345  0.5423
  416SOL    HW1 1662   0.488   1.840   1.475  1.0667  0.5139 -0.3915
  416SOL    HW2 1663   0.599   1.743   1.442  2.1644 -0.9969 -0.7493
  416SOL     MW 1664   0.558   1.818   1.435  0.5781 -0.9725  0.2487
  417SOL     OW 1665   0.991   3.032   2.043 -0.3072  0.1675 -0.0141
  417SOL    HW1 1666   0.942   3.018   2.122  1.0422 -2.7649  0.7116
  417SOL    HW2 1667   0.930   3.019   1.969  2.9815  2.1698  2.2173
  417SOL     MW 1668   0.976   3.028   2.044  0.3048  0.0448  0.3761
  418SOL     OW 1669   0.737   2.958   0.160  0.2534  0.1560  0.3664
  418SOL    HW1 1670   0.813   2.926   0.107  1.4034 -0.4276  1.4185
  418SOL    HW2 1671   0.666   2.905   0.120 -2.2143  3.0869  0.9448
  418SOL     MW 1672   0.738   2.946   0.148  0.0795  0.4657  0.5816
  419SOL     OW 1673   0.516   2.685   1.361  0.0269  0.1418 -0.4436
  419SOL    HW1 1674   0.569   2.754   1.401  0.3598 -3.8055  2.1982
  419SOL    HW2 1675   0.592   2.643   1.324  1.8435 -1.0040  1.3536
  419SOL     MW 1676   0.533   2.689   1.361  0.3105 -0.5302  0.1421
  420SOL     OW 1677   0.770   2.223   1.081 -0.4334 -0.2390  0.3869
  420SOL    HW1 1678   0.712   2.248   1.156 -0.6233 -0.0961  0.2752
  420SOL    HW2 1679   0.784   2.314   1.039  0.5513  0.6872  0.2836
  420SOL     MW 1680   0.764   2.238   1.086 -0.3285 -0.0979  0.3586
  421SOL     OW 1681   2.948   0.167   3.094 -0.2345 -0.1082  0.3478
  421SOL    HW1 1682   2.882   0.143   3.030 -0.3064 -3.0644 -0.3927
  421SOL    HW2 1683   2.968   0.078   3.122 -1.5142 -0.1232 -0.1100
  421SOL     MW 1684   2.942   0.152   3.089 -0.4128 -0.5002  0.1897
  422SOL     OW 1685   0.813   2.484   0.948  0.1499  0.4445 -0.0222
  422SOL    HW1 1686   0.753   2.545   0.995 -0.6830  3.2339  0.3864
  422SOL    HW2 1687   0.845   2.531   0.871  1.5269 -0.2539  0.3169
  422SOL     MW 1688   0.810   2.498   0.944  0.2217  0.7204  0.0765
  423SOL     OW 1689   1.486   0.073   0.457 -0.2072 -0.3668 -0.2686
  423SOL    HW1 1690   1.498   0.063   0.361 -1.9136 -3.9139 -3.4549
  423SOL    HW2 1691   1.490   0.172   0.474 -1.3373  0.7907  1.4581
  423SOL     MW 1692   1.488   0.085   0.447 -0.5814 -0.6821 -0.4611
  424SOL     OW 1693   0.654   2.300   1.309  0.1483  0.3847  0.2805
  424SOL    HW1 1694   0.582   2.243   1.271  0.4261 -1.4221  0.6368
  424SOL    HW2 1695   0.691   2.246   1.380  0.1860 -1.9258 -2.3095
  424SOL     MW 1696   0.649   2.285   1.313  0.1899 -0.1585 -0.0142
  425SOL     OW 1697   1.715   2.759   2.057 -0.4275  0.3880 -0.2626
  425SOL    HW1 1698   1.733   2.775   1.965  0.9414  0.2754 -0.6988
  425SOL    HW2 1699   1.749   2.664   2.067  0.5555 -0.4070 -0.4760
  425SOL     MW 1700   1.721   2.748   2.046 -0.1172  0.2682 -0.3483
  426SOL     OW 1701   0.843   1.741   1.991  0.0914 -0.0166  0.2535
  426SOL    HW1 1702   0.776   1.781   1.942  0.1017  0.7479 -1.3302
  426SOL    HW2 1703   0.857   1.799   2.072  2.9802  3.5089  0.6273
  426SOL     MW 1704   0.836   1.754   1.995  0.4739  0.5494  0.0938
  427SOL     OW 1705   0.360   1.693   1.863  0.3871 -0.0940  0.5942
  427SOL    HW1 1706   0.416   1.630   1.821  1.7149 -0.8849 -0.2170
  427SOL    HW2 1707   0.302   1.650   1.931  0.7722  2.3014 -1.1734
  427SOL     MW 1708   0.360   1.679   1.866  0.6131  0.1177  0.2539
  428SOL     OW 1709   0.557   2.578   1.085 -0.4126 -0.4835  0.3411
  428SOL    HW1 1710   0.473   2.528   1.096 -1.5746  1.4183  4.5367
  428SOL    HW2 1711   0.547   2.665   1.125  1.1992  3.7850  2.3245
  428SOL     MW 1712   0.545   2.583   1.092 -0.3533  0.3306  1.1564
  429SOL     OW 1713   1.214   2.780   1.150  0.0382 -0.8078  0.0293
  429SOL    HW1 1714   1.123   2.763   1.162 -0.0185  0.9247  1.1010
  429SOL    HW2 1715   1.229   2.855   1.093  1.3230 -1.4905 -0.6853
  429SOL     MW 1716   1.204   2.787   1.144  0.2002 -0.6693  0.0764
  430SOL     OW 1717   1.155   2.719   0.693  0.5439 -0.2124  0.5186
  430SOL    HW1 1718   1.174   2.642   0.740  1.5202 -0.1569 -0.7087
  430SOL    HW2 1719   1.082   2.697   0.620 -0.3452  0.0679 -0.1731
  430SOL     MW 1720   1.148   2.706   0.690  0.5554 -0.1681  0.2654
  431SOL     OW 1721   0.320   1.948   1.116 -0.2892  0.6662  0.6449
  431SOL    HW1 1722   0.369   1.864   1.098  0.7606 -0.9027 -0.3972
  431SOL    HW2 1723   0.296   1.975   1.025  1.8229 -2.3805  0.5766
  431SOL     MW 1724   0.323   1.940   1.102  0.1280  0.0572  0.4984
  432SOL     OW 1725   0.047   0.012   1.112 -0.2591  0.3874  0.1443
  432SOL    HW1 1726   0.043   0.059   1.196  3.6429 -1.8968 -0.4544
  432SOL    HW2 1727  -0.007  -0.067   1.127 -1.2124 -0.7266  1.8206
  432SOL     MW 1728   0.039   0.008   1.125  0.1299 -0.0609  0.2865
  433SOL     OW 1729   0.667   2.882   1.484  0.4154  0.4724 -0.0791
  433SOL    HW1 1730   0.617   2.925   1.563 -2.1629  0.6586 -0.7841
  433SOL    HW2 1731   0.751   2.861   1.518  2.0694 -2.0991  0.7774
  433SOL     MW 1732   0.671   2.885   1.499  0.2934  0.1577 -0.0591
  434SOL     OW 1733   1.554   2.790   1.553  0.2255 -0.4310 -0.4937
  434SOL    HW1 1734   1.465   2.821   1.548  1.9504 -0.3429 -0.3146
  434SOL    HW2 1735   1.571   2.761   1.461 -1.0259  0.5758 -1.6196
  434SOL     MW 1736   1.545   2.790   1.540  0.2880 -0.2865 -0.6186
  435SOL     OW 1737   2.755   1.767   0.204 -0.0223 -0.0654  0.0471
  435SOL    HW1 1738   2.801   1.850   0.167  1.5606  0.3157  0.3581
  435SOL    HW2 1739   2.667   1.778   0.161  2.8148  0.3812 -0.8710
  435SOL     MW 1740   2.750   1.779   0.193  0.5609  0.0438 -0.0330
  436SOL     OW 1741   1.416   2.694   0.367  0.0075  0.2721 -0.0086
  436SOL    HW1 1742   1.450   2.672   0.455  0.1267 -0.0558  1.0354
  436SOL    HW2 1743   1.371   2.782   0.385 -0.0359  1.2263 -2.3259
  436SOL     MW 1744   1.415   2.703   0.381  0.0175  0.3547 -0.1766
  437SOL     OW 1745   1.035   2.956   1.324  0.8221  0.0842 -0.4236
  437SOL    HW1 1746   1.040   3.005   1.240  1.3269 -0.7235  0.5752
  437SOL    HW2 1747   1.000   2.867   1.311 -0.5973  1.8651  0.8301
  437SOL     MW 1748   1.031   2.951   1.311  0.7014  0.2126 -0.1264
  438SOL     OW 1749   0.841   2.680   1.906  0.8887  0.9662 -0.0465
  438SOL    HW1 1750   0.834   2.656   1.995  0.6976  2.6083  0.5358
  438SOL    HW2 1751   0.756   2.642   1.868 -0.4564  0.0693  3.0453
  438SOL     MW 1752   0.829   2.672   1.912  0.6860  1.0645  0.4383
  439SOL     OW 1753   1.163   2.101   0.406  0.1594 -0.3471  0.3292
  439SOL    HW1 1754   1.131   2.156   0.478 -0.5041  0.2328 -0.5311
  439SOL    HW2 1755   1.160   2.164   0.330  0.3239  1.0641  3.1240
  439SOL     MW 1756   1.158   2.117   0.406  0.0935 -0.0844  0.5844
  440SOL     OW 1757   1.702   2.954   3.065  1.0960 -0.2258  0.1266
  440SOL    HW1 1758   1.647   2.963   3.142 -0.5419  2.0290 -0.5166
  440SOL    HW2 1759   1.782   2.922   3.105  1.9718 -0.2056  2.0816
  440SOL     MW 1760   1.706   2.951   3.081  0.9954  0.0744  0.2996
  441SOL     OW 1761   0.361   2.659   0.510  0.0735 -0.3308 -0.0261
  441SOL    HW1 1762   0.358   2.608   0.422  3.2049  0.2223 -2.3057
  441SOL    HW2 1763   0.363   2.752   0.479 -0.5118 -3.4653  0.3001
  441SOL     MW 1764   0.361   2.664   0.494  0.4095 -0.6714 -0.2838
  442SOL     OW 1765   3.079   2.354   0.593 -0.0279 -0.6492  0.2783
  442SOL    HW1 1766   3.096   2.442   0.616  0.3306  1.5240  0.0484
  442SOL    HW2 1767   2.996   2.321   0.626  1.0675  1.7969 -1.8536
  442SOL     MW 1768   3.070   2.361   0.600  0.1639 -0.0397 -0.0333
  443SOL     OW 1769   1.519   1.746   1.946 -0.5789  0.0262 -0.8802
  443SOL    HW1 1770   1.484   1.776   1.860  2.6236  2.2958 -3.1048
  443SOL    HW2 1771   1.470   1.670   1.972  0.1601  0.7111 -0.6232
  443SOL     MW 1772   1.508   1.740   1.938 -0.0588  0.4160 -1.1398
  444SOL     OW 1773   0.932   2.599   1.575  0.0171 -0.0996 -0.1398
  444SOL    HW1 1774   1.003   2.556   1.622 -0.3512  1.8825  3.2809
  444SOL    HW2 1775   0.863   2.607   1.643  0.0909  1.2249  2.1544
  444SOL     MW 1776   0.933   2.595   1.590 -0.0217  0.3367  0.6142
  445SOL     OW 1777   1.198   0.166   1.397  0.2555 -0.0905  0.4282
  445SOL    HW1 1778   1.128   0.164   1.459  0.7496  0.7800  2.9437
  445SOL    HW2 1779   1.173   0.221   1.322  1.7004 -1.0406 -1.6234
  445SOL     MW 1780   1.186   0.173   1.395  0.5113 -0.1010  0.4894
  446SOL     OW 1781   2.797   2.858   1.030  0.0637 -0.1193 -0.0496
  446SOL    HW1 1782   2.733   2.883   0.957  1.2565 -0.6693 -2.8603
  446SOL    HW2 1783   2.840   2.781   0.989  1.9886  0.5890  1.5844
  446SOL     MW 1784   2.794   2.851   1.015  0.4751 -0.0984 -0.2049
  447SOL     OW 1785   0.021   1.982   1.629 -0.1457 -0.0603 -0.4249
  447SOL    HW1 1786   0.042   1.902   1.669 -1.6058  1.6007  0.5152
  447SOL    HW2 1787  -0.034   1.951   1.550 -0.3864 -0.8459 -1.8830
  447SOL     MW 1788   0.017   1.967   1.624 -0.3701  0.0552 -0.4932
  448SOL     OW 1789   1.768   2.438   1.673  0.1132  0.4142 -0.1776
  448SOL    HW1 1790   1.725   2.353   1.651  1.4771 -2.7704 -1.6950
  448SOL    HW2 1791   1.688   2.489   1.679  0.5926 -1.2959  0.0988
  448SOL     MW 1792   1.751   2.434   1.671  0.3564 -0.2316 -0.3413
  449SOL     OW 1793   0.907   2.911   0.385 -0.2971  0.9149 -0.2173
  449SOL    HW1 1794   0.833   2.913   0.326  0.9274  3.8039  0.8505
  449SOL    HW2 1795   0.870   2.950   0.466  0.5135 -4.3668 -0.4219
  449SOL     MW 1796   0.892   2.917   0.388 -0.0286  0.5992 -0.1034
  450SOL     OW 1797   1.191   2.437   0.750 -0.5067 -0.1745  0.6394
  450SOL    HW1 1798   1.215   2.401   0.835  1.4393 -0.0135  0.5315
  450SOL    HW2 1799   1.263   2.431   0.688 -0.4683 -1.0512 -0.7521
  450SOL     MW 1800   1.204   2.432   0.753 -0.2449 -0.2689  0.4416
  451SOL     OW 1801   0.601   2.000   1.693 -0.4933 -0.3219  0.5309
  451SOL    HW1 1802   0.662   2.064   1.735  1.5321  1.7868 -1.9840
  451SOL    HW2 1803   0.628   2.005   1.598  0.9133 -0.7171 -0.6410
  451SOL     MW 1804   0.613   2.009   1.686 -0.0405 -0.0958  0.0445
  452SOL     OW 1805   0.330   2.626   0.046  0.5872 -0.1056 -0.1301
  452SOL    HW1 1806   0.419   2.669   0.053 -2.6518 -2.0229 -2.0980
  452SOL    HW2 1807   0.266   2.699   0.016  1.4826  3.3837  0.7267
  452SOL     MW 1808   0.333   2.641   0.043  0.2780  0.1018 -0.2767
  453SOL     OW 1809   0.334   3.065   1.620 -0.1679  0.2374 -0.3935
  453SOL    HW1 1810   0.389   3.012   1.675 -2.1354  1.0084  0.8279
  453SOL    HW2 1811   0.395   3.089   1.545  1.6976  0.8824 -2.7351
  453SOL     MW 1812   0.349   3.061   1.617 -0.1814  0.4242 -0.5413
  454SOL     OW 1813   0.933   2.733   1.197 -0.1206  0.2520  0.0557
  454SOL    HW1 1814   0.906   2.651   1.228 -0.5723  0.8779  0.8059
  454SOL    HW2 1815   0.887   2.747   1.112 -1.8347  1.7301 -0.4948
  454SOL     MW 1816   0.923   2.724   1.190 -0.4064  0.5296  0.0821
  455SOL     OW 1817   1.656   2.879   0.257  0.1993 -0.2592  0.1117
  455SOL    HW1 1818   1.699   2.866   0.337 -0.1611  3.1874  0.7278
  455SOL    HW2 1819   1.639   2.797   0.215  0.8752  0.9910 -0.3333
  455SOL     MW 1820   1.659   2.867   0.262  0.2409  0.3605  0.1343
  456SOL     OW 1821   2.715   0.301   1.527  0.7725 -0.2139 -0.3208
  456SOL    HW1 1822   2.749   0.241   1.462  0.0109  1.0687  0.3276
  456SOL    HW2 1823   2.772   0.378   1.509 -2.9072 -0.1702 -2.1538
  456SOL     MW 1824   2.727   0.303   1.516  0.1865 -0.0389 -0.4771
  457SOL     OW 1825   0.791   1.596   3.031  0.0712  0.5085  0.2204
  457SOL    HW1 1826   0.713   1.543   3.001 -2.3100  2.3276  2.4209
  457SOL    HW2 1827   0.789   1.608   3.128 -1.6478  1.8505 -0.1517
  457SOL     MW 1828   0.781   1.591   3.040 -0.4698  0.9256  0.4616
  458SOL     OW 1829   1.356   1.463   0.687  0.0669 -0.1327  0.2308
  458SOL    HW1 1830   1.318   1.528   0.627 -0.4568  2.0312 -0.0925
  458SOL    HW2 1831   1.325   1.380   0.649  2.2485 -1.6098  0.9642
  458SOL     MW 1832   1.347   1.461   0.674  0.2857 -0.0421  0.2849
  459SOL     OW 1833   1.543   0.036   0.198 -0.1155  0.6016 -0.3168
  459SOL    HW1 1834   1.558  -0.052   0.233 -0.7896  1.2024  2.8286
  459SOL    HW2 1835   1.491   0.032   0.116  1.3030 -0.3360 -0.0442
  459SOL     MW 1836   1.538   0.024   0.192 -0.0172  0.5571  0.1342
  460SOL     OW 1837   1.800   2.170   0.648  0.2465  0.4233  0.5918
  460SOL    HW1 1838   1.710   2.154   0.681 -0.0688  0.9169  0.5882
  460SOL    HW2 1839   1.837   2.083   0.626 -0.0073  0.2341  3.4427
  460SOL     MW 1840   1.793   2.156   0.649  0.1714  0.4635  0.9675
  461SOL     OW 1841   0.466   2.433   0.621  0.1252  0.5195  0.1141
  461SOL    HW1 1842   0.440   2.515   0.588 -1.8417 -2.2730  0.7911
  461SOL    HW2 1843   0.443   2.443   0.713 -0.7301 -2.4241 -1.2771
  461SOL     MW 1844   0.459   2.445   0.629 -0.2472 -0.2373  0.0199
  462SOL     OW 1845   0.320   0.240   1.263  0.9238 -0.2473  0.7879
  462SOL    HW1 1846   0.374   0.210   1.186 -0.9155 -0.0706  0.5859
  462SOL    HW2 1847   0.395   0.269   1.318 -1.7088 -1.6458 -0.5716
  462SOL     MW 1848   0.337   0.240   1.260  0.3338 -0.4085  0.5819
  463SOL     OW 1849   1.004   0.068   0.697  0.1646 -0.0616  0.4580
  463SOL    HW1 1850   1.077   0.080   0.634 -1.6532 -1.7073  0.4215
  463SOL    HW2 1851   0.926   0.108   0.663  4.1589 -0.5456  1.4154
  463SOL     MW 1852   1.004   0.075   0.685  0.4518 -0.3426  0.5795
  464SOL     OW 1853   0.789   3.033   2.230  0.0301  0.2339 -0.2370
  464SOL    HW1 1854   0.754   2.948   2.259  0.5779  0.2011  1.6137
  464SOL    HW2 1855   0.820   3.075   2.305 -0.4817 -0.4370 -1.5387
  464SOL     MW 1856   0.789   3.027   2.244  0.0349  0.1410 -0.1646
  465SOL     OW 1857   0.862   0.294   0.415  0.0438  0.9196  0.0013
  465SOL    HW1 1858   0.810   0.246   0.481  2.5982  2.0574  1.2653
  465SOL    HW2 1859   0.818   0.288   0.326 -1.1769  0.0126 -3.5838
  465SOL     MW 1860   0.849   0.287   0.412  0.2197  0.9500 -0.3049
  466SOL     OW 1861   1.025   2.045   0.786  0.3422  0.3782 -0.7156
  466SOL    HW1 1862   1.028   1.962   0.744 -1.8113  0.9219  1.7755
  466SOL    HW2 1863   1.021   2.119   0.720  0.9888 -0.0503 -0.0107
  466SOL     MW 1864   1.025   2.044   0.772  0.1434  0.3934 -0.2940
  467SOL     OW 1865   1.251   2.345   1.012 -0.0642  0.5274  0.0195
  467SOL    HW1 1866   1.342   2.371   1.010 -0.1448  0.0677 -2.0797
  467SOL    HW2 1867   1.248   2.256   0.969  0.4591  0.0110 -1.7201
  467SOL     MW 1868   1.262   2.337   1.006 -0.0058  0.3986 -0.4870
  468SOL     OW 1869   0.482   2.666   1.910 -0.6994  0.3404 -0.1232
  468SOL    HW1 1870   0.486   2.580   1.862 -0.9386  0.3062 -2.2520
  468SOL    HW2 1871   0.402   2.704   1.879  1.3956  0.3357 -1.2240
  468SOL     MW 1872   0.472   2.660   1.899 -0.4545  0.3352 -0.5493
  469SOL     OW 1873   0.387   2.127   1.851  0.3257  0.4746  0.2619
  469SOL    HW1 1874   0.337   2.062   1.902 -2.7832 -0.5829 -0.8443
  469SOL    HW2 1875   0.458   2.077   1.805  0.3470  1.4932  2.0726
  469SOL     MW 1876   0.389   2.112   1.851 -0.0817  0.4695  0.3549
  470SOL     OW 1877   3.098   2.574   0.179 -0.0070 -0.2198 -0.2167
  470SOL    HW1 1878   3.007   2.567   0.223  1.0319 -0.9626  0.5942
  470SOL    HW2 1879   3.077   2.613   0.093 -1.3707  1.2562 -2.8928
  470SOL     MW 1880   3.083   2.578   0.173 -0.0499 -0.1231 -0.4628
  471SOL     OW 1881   1.200   2.574   1.387 -0.2428 -0.7089 -0.4325
  471SOL    HW1 1882   1.142   2.542   1.457 -3.0375 -0.5670  0.8017
  471SOL    HW2 1883   1.161   2.567   1.302 -2.0057  0.1676 -1.5960
  471SOL     MW 1884   1.187   2.569   1.385 -0.8442 -0.5745 -0.4232
  472SOL     OW 1885   2.788   2.079   0.351  0.0217 -0.2200  0.0380
  472SOL    HW1 1886   2.817   2.046   0.259  1.0846 -0.9148 -2.6133
  472SOL    HW2 1887   2.772   2.002   0.409  0.9642  0.0427  0.6914
  472SOL     MW 1888   2.790   2.065   0.346  0.2863 -0.2770 -0.2256
  473SOL     OW 1889   0.793   2.545   1.338 -0.1660 -0.3194  0.5300
  473SOL    HW1 1890   0.753   2.460   1.323 -1.7630 -0.8675  0.2520
  473SOL    HW2 1891   0.857   2.533   1.406  2.1914  0.2559 -1.3862
  473SOL     MW 1892   0.796   2.532   1.345 -0.0657 -0.3158  0.2405
  474SOL     OW 1893   0.741   2.259   1.776 -0.4561  0.8503 -0.1137
  474SOL    HW1 1894   0.826   2.290   1.816  0.4645  1.1825 -0.4036
  474SOL    HW2 1895   0.765   2.233   1.685  1.2578  0.3935 -2.9819
  474SOL     MW 1896   0.756   2.260   1.770 -0.1085  0.8338 -0.5304
  475SOL     OW 1897   1.620   3.071   1.436  0.5392  0.3636  0.3327
  475SOL    HW1 1898   1.535   3.074   1.396  1.0082  2.5588 -0.5720
  475SOL    HW2 1899   1.621   2.981   1.464  0.1021  1.2067 -2.1162
  475SOL     MW 1900   1.609   3.060   1.435  0.5434  0.7644 -0.1098
  476SOL     OW 1901   1.416   2.626   1.036  0.0124 -0.6325  0.4820
  476SOL    HW1 1902   1.332   2.664   1.058 -0.6745 -1.6114  1.4065
  476SOL    HW2 1903   1.457   2.682   0.971  2.1552 -0.4440  0.2879
  476SOL     MW 1904   1.411   2.638   1.031  0.2045 -0.7368  0.5784
  477SOL     OW 1905   0.764   2.516   0.652  0.0707  0.4480 -0.3947
  477SOL    HW1 1906   0.832   2.555   0.602  0.2331 -1.4324  0.8306
  477SOL    HW2 1907   0.756   2.437   0.590 -0.3591  0.4026 -1.7911
  477SOL     MW 1908   0.772   2.511   0.637  0.0355  0.1939 -0.4173
  478SOL     OW 1909   0.171   2.682   0.877 -0.4956  0.4974  0.0449
  478SOL    HW1 1910   0.222   2.764   0.861 -3.3246  0.0356 -2.3357
  478SOL    HW2 1911   0.235   2.614   0.846 -3.8192 -2.2583  1.5740
  478SOL     MW 1912   0.186   2.684   0.870 -1.3074  0.0729 -0.0675
  479SOL     OW 1913   1.467   1.984   1.276 -0.1025 -0.2198 -0.0828
  479SOL    HW1 1914   1.453   2.004   1.372 -1.6337 -0.6269  1.5780
  479SOL    HW2 1915   1.474   1.883   1.271 -0.1332 -2.3204 -2.1493
  479SOL     MW 1916   1.466   1.973   1.288 -0.3086 -0.5507 -0.1364
  480SOL     OW 1917   1.943   2.445   1.274  0.6520 -0.4031  0.4736
  480SOL    HW1 1918   1.921   2.357   1.308 -0.9222  0.1468 -0.5488
  480SOL    HW2 1919   1.984   2.434   1.191  1.7995  0.2554 -0.2508
  480SOL     MW 1920   1.945   2.432   1.268  0.5957 -0.2437  0.2431
  481SOL     OW 1921   1.049   3.097   1.100  0.0553  0.0680 -0.1298
  481SOL    HW1 1922   1.090   3.049   1.026 -0.6369 -1.4431 -0.6087
  481SOL    HW2 1923   1.104   3.176   1.112  1.4781  0.0961  2.4566
  481SOL     MW 1924   1.062   3.101   1.092  0.1517 -0.1276  0.1482
  482SOL     OW 1925   1.071   3.087   0.238  0.1974  0.6946  0.0534
  482SOL    HW1 1926   0.997   3.042   0.282 -1.3143 -1.5583  0.9038
  482SOL    HW2 1927   1.096   3.156   0.293 -0.3148 -0.4053  0.0151
  482SOL     MW 1928   1.065   3.090   0.251 -0.0696  0.2522  0.1605
  483SOL     OW 1929   0.398   2.909   0.438  0.3353 -0.0832 -0.5968
  483SOL    HW1 1930   0.343   2.941   0.365  0.8670 -0.3061 -2.6224
  483SOL    HW2 1931   0.379   2.968   0.514  2.5323 -0.8542 -0.0883
  483SOL     MW 1932   0.388   2.921   0.439  0.6953 -0.2144 -0.7970
  484SOL     OW 1933   1.895   1.891   1.487  0.2144  0.6961 -0.5716
  484SOL    HW1 1934   1.885   1.973   1.445 -0.2921 -0.6477  2.8588
  484SOL    HW2 1935   1.841   1.899   1.567  4.4136 -1.1658  1.0352
  484SOL     MW 1936   1.887   1.903   1.492  0.7016  0.2731  0.0930
  485SOL     OW 1937   0.513   2.335   0.206  0.3308 -0.0009  1.0042
  485SOL    HW1 1938   0.544   2.316   0.292 -1.2794 -2.2434 -2.1488
  485SOL    HW2 1939   0.444   2.405   0.224 -1.1636  1.4231  0.5322
  485SOL     MW 1940   0.508   2.342   0.220 -0.0788 -0.1089  0.5259
  486SOL     OW 1941   0.165   2.347   1.490 -0.4659 -0.3071 -0.3030
  486SOL    HW1 1942   0.184   2.432   1.456  2.6589 -0.9810  1.5984
  486SOL    HW2 1943   0.149   2.366   1.584  1.4031 -2.5647  0.2496
  486SOL     MW 1944   0.166   2.360   1.498  0.1930 -0.6939  0.0208
  487SOL     OW 1945   1.211   1.677   1.067  0.0832 -0.0347  0.3749
  487SOL    HW1 1946   1.216   1.765   1.109  0.2463 -3.5058 -0.7966
  487SOL    HW2 1947   1.297   1.679   1.031 -0.5428 -1.5540 -1.6375
  487SOL     MW 1948   1.223   1.689   1.067  0.0221 -0.6931 -0.0452
  488SOL     OW 1949   1.619   1.884   0.508  0.1316  0.1219  0.3538
  488SOL    HW1 1950   1.695   1.869   0.450  2.7300 -0.9846 -0.6372
  488SOL    HW2 1951   1.546   1.942   0.477 -0.5068  0.3593  0.9206
  488SOL     MW 1952   1.619   1.890   0.496  0.3902  0.0073  0.2978
  489SOL     OW 1953   0.745   0.783   0.545 -0.1759 -0.0254 -0.4449
  489SOL    HW1 1954   0.798   0.706   0.531  0.0386 -0.4771 -0.7602
  489SOL    HW2 1955   0.711   0.773   0.641 -1.1426  1.2818  0.2024
  489SOL     MW 1956   0.747   0.772   0.556 -0.2752  0.0875 -0.4011
  490SOL     OW 1957   1.418   2.083   0.461 -0.2751 -0.1524  0.2212
  490SOL    HW1 1958   1.478   2.160   0.442 -0.0797 -1.1338  0.5319
  490SOL    HW2 1959   1.325   2.102   0.448 -1.3626  2.3838  0.2418
  490SOL     MW 1960   1.414   2.095   0.457 -0.3928  0.0528  0.2649
  491SOL     OW 1961   1.292   2.959   0.377 -0.4420 -0.6865  0.5143
  491SOL    HW1 1962   1.348   3.027   0.408 -1.1665 -0.2728 -1.6821
  491SOL    HW2 1963   1.225   3.002   0.323 -0.6138  1.5286  0.1257
  491SOL     MW 1964   1.291   2.974   0.374 -0.5602 -0.3397  0.1733
  492SOL     OW 1965   1.500   2.144   0.734  0.2717 -0.1253 -0.4051
  492SOL    HW1 1966   1.455   2.108   0.658 -1.7692  0.3566  1.8502
  492SOL    HW2 1967   1.442   2.111   0.807  1.0318  0.2206 -2.2185
  492SOL     MW 1968   1.486   2.135   0.734  0.1027 -0.0161 -0.3468
  493SOL     OW 1969   0.188   3.011   0.299  0.0178 -0.2081  0.0630
  493SOL    HW1 1970   0.139   3.058   0.368  1.5629  1.3522 -0.5810
  493SOL    HW2 1971   0.189   3.083   0.230 -0.9403 -0.9359  0.2617
  493SOL     MW 1972   0.182   3.027   0.299  0.0953 -0.0983  0.0042
  494SOL     OW 1973   0.384   2.422   1.774  0.3254 -0.1684  0.2184
  494SOL    HW1 1974   0.412   2.330   1.782  0.7976  1.9859 -1.2324
  494SOL    HW2 1975   0.433   2.449   1.695  0.2017 -1.4289  1.1832
  494SOL     MW 1976   0.394   2.414   1.765  0.3714 -0.0505  0.1543
  495SOL     OW 1977   2.904   1.642   2.625 -0.3945 -0.1876 -0.5533
  495SOL    HW1 1978   2.893   1.728   2.574 -1.7096  3.1171  1.4365
  495SOL    HW2 1979   2.855   1.653   2.708 -0.3911  0.3324 -1.6555
  495SOL     MW 1980   2.896   1.654   2.629 -0.5676  0.3171 -0.4362
  496SOL     OW 1981   2.926   2.382   2.669 -0.1522  0.2895  0.2281
  496SOL    HW1 1982   2.946   2.305   2.727 -0.7108 -3.0436  2.8162
  496SOL    HW2 1983   2.994   2.450   2.687 -3.3137  2.0588  0.3810
  496SOL     MW 1984   2.937   2.381   2.679 -0.6430  0.0832  0.5897
  497SOL     OW 1985   1.620   2.241   2.632  0.4822 -0.1736 -0.9573
  497SOL    HW1 1986   1.571   2.211   2.551 -1.2344  0.2859 -0.2220
  497SOL    HW2 1987   1.614   2.172   2.699 -0.1289  2.2710 -1.1500
  497SOL     MW 1988   1.613   2.228   2.630  0.1751  0.2096 -0.8857
  498SOL     OW 1989   1.445   2.710   2.333 -0.4990 -0.0706  0.0353
  498SOL    HW1 1990   1.476   2.617   2.307  1.9463 -2.3723  0.7335
  498SOL    HW2 1991   1.533   2.747   2.357  0.1001 -0.1144 -2.3835
  498SOL     MW 1992   1.460   2.702   2.333 -0.0973 -0.3801 -0.1917
  499SOL     OW 1993   0.984   0.138   0.016  0.3265 -0.0565 -0.8606
  499SOL    HW1 1994   0.905   0.184   0.061  1.3026  0.1842 -0.5014
  499SOL    HW2 1995   1.040   0.102   0.088  2.9862  1.2161  1.2501
  499SOL     MW 1996   0.981   0.139   0.032  0.8062  0.1432 -0.5347
  500SOL     OW 1997   1.063   2.556   2.814 -0.4766 -0.2130 -0.5972
  500SOL    HW1 1998   1.109   2.508   2.888  0.5739 -0.8120  0.9060
  500SOL    HW2 1999   0.977   2.586   2.851 -0.3382  3.2151 -0.3130
  500SOL     MW 2000   1.058   2.553   2.829 -0.3198  0.1603 -0.3614
  501SOL     OW 2001   1.809   2.188   3.069  0.5492  0.2757 -0.1933
  501SOL    HW1 2002   1.792   2.282   3.098  1.7629  3.4970  1.1014
  501SOL    HW2 2003   1.901   2.188   3.067 -1.4951 -0.2075 -2.5840
  501SOL     MW 2004   1.819   2.200   3.072  0.4396  0.6370 -0.3379
  502SOL     OW 2005   0.148   2.796   3.056  0.2948  0.2835  0.2874
  502SOL    HW1 2006   0.073   2.747   3.018  1.9945 -2.0184  0.7653
  502SOL    HW2 2007   0.197   2.850   2.988  1.4702 -1.0970 -1.7881
  502SOL     MW 2008   0.144   2.797   3.042  0.6741 -0.2023  0.0766
  503SOL     OW 2009   1.115   2.778   2.146 -0.4337  0.0710  0.3118
  503SOL    HW1 2010   1.055   2.708   2.142 -0.4721  2.1546  0.9820
  503SOL    HW2 2011   1.071   2.854   2.104 -1.4483 -2.4396 -2.8767
  503SOL     MW 2012   1.101   2.779   2.140 -0.5726  0.0147 -0.0205
  504SOL     OW 2013   0.109   2.701   2.143 -0.3805  0.1570 -0.2246
  504SOL    HW1 2014   0.153   2.619   2.152 -0.1191  0.5424 -0.7479
  504SOL    HW2 2015   0.019   2.690   2.139  1.5662 -0.4886  2.5440
  504SOL     MW 2016   0.103   2.689   2.144 -0.0891  0.1227  0.0716
  505SOL     OW 2017   1.681   2.708   2.739  0.2305 -0.7258 -0.4683
  505SOL    HW1 2018   1.681   2.723   2.642  0.7389  1.5788 -2.8962
  505SOL    HW2 2019   1.589   2.714   2.764 -0.1155 -2.2785  2.4977
  505SOL     MW 2020   1.669   2.711   2.730  0.2519 -0.6266 -0.3973
  506SOL     OW 2021   1.578   3.080   2.833  0.3276 -0.5461 -0.1306
  506SOL    HW1 2022   1.619   3.072   2.922  0.0977  0.2970  0.7913
  506SOL    HW2 2023   1.644   3.039   2.776 -0.3842 -2.3517 -1.0672
  506SOL     MW 2024   1.592   3.074   2.837  0.2034 -0.6731 -0.1326
  507SOL     OW 2025   0.901   2.793   2.863  0.0364 -0.4454 -0.4761
  507SOL    HW1 2026   0.931   2.870   2.798 -1.1003  1.6870  2.3246
  507SOL    HW2 2027   0.807   2.807   2.878  0.5816 -2.3221  3.2604
  507SOL     MW 2028   0.893   2.805   2.856 -0.0416 -0.4117  0.3864
  508SOL     OW 2029   1.141   2.081   2.519  0.0836 -0.1263  0.1645
  508SOL    HW1 2030   1.229   2.063   2.558 -0.6767 -0.4478 -1.1167
  508SOL    HW2 2031   1.114   2.170   2.554 -0.2704 -0.9251 -0.3631
  508SOL     MW 2032   1.149   2.090   2.529 -0.0634 -0.2741 -0.0742
  509SOL     OW 2033   0.604   2.566   2.768 -0.8572 -0.4933  0.5855
  509SOL    HW1 2034   0.600   2.517   2.689  0.0028 -2.0284  0.2186
  509SOL    HW2 2035   0.540   2.528   2.825  0.4452 -1.6680 -0.4453
  509SOL     MW 2036   0.595   2.554   2.765 -0.5719 -0.8509  0.4011
  510SOL     OW 2037   1.514   2.541   1.686 -0.2657  0.1323  0.1698
  510SOL    HW1 2038   1.512   2.633   1.653 -0.5936  2.2521 -1.0703
  510SOL    HW2 2039   1.463   2.526   1.773  0.3120 -0.9890 -0.8119
  510SOL     MW 2040   1.507   2.551   1.693 -0.2328  0.2641 -0.1233
  511SOL     OW 2041   0.475   2.641   2.432  0.0173  0.2301  0.1747
  511SOL    HW1 2042   0.531   2.575   2.474  1.2069 -0.8700  2.4875
  511SOL    HW2 2043   0.477   2.660   2.337  0.1467  1.1476  0.6872
  511SOL     MW 2044   0.483   2.635   2.425  0.1914  0.2060  0.5474
  512SOL     OW 2045   1.065   2.003   2.812  0.4389  0.2830  0.0107
  512SOL    HW1 2046   0.968   2.005   2.816  0.6197 -1.7393 -1.3357
  512SOL    HW2 2047   1.090   1.925   2.866  1.0682 -1.0202  1.2005
  512SOL     MW 2048   1.056   1.993   2.820  0.5458 -0.1557 -0.0099
  513SOL     OW 2049   1.557   2.452   2.291 -0.5715  0.2068  0.7811
  513SOL    HW1 2050   1.625   2.484   2.229 -1.9870 -5.0971 -0.6626
  513SOL    HW2 2051   1.595   2.425   2.376 -0.4660 -2.2951  0.1039
  513SOL     MW 2052   1.571   2.453   2.294 -0.7443 -0.8231  0.5012
  514SOL     OW 2053   0.281   2.539   2.637 -0.0297  0.0625 -0.8428
  514SOL    HW1 2054   0.354   2.591   2.597 -0.0013 -0.3832 -1.9695
  514SOL    HW2 2055   0.309   2.523   2.728  1.3931  1.1934 -0.2489
  514SOL     MW 2056   0.294   2.544   2.644  0.1618  0.1529 -0.9131
  515SOL     OW 2057   1.119   2.117   1.791 -0.5194 -0.5416 -0.5950
  515SOL    HW1 2058   1.092   2.209   1.797 -1.0691  1.8095 -0.3702
  515SOL    HW2 2059   1.203   2.108   1.828 -1.8365 -2.5027 -1.5699
  515SOL     MW 2060   1.126   2.128   1.796 -0.7657 -0.4902 -0.6939
  516SOL     OW 2061   1.483   2.450   3.033 -0.1741  0.2258  0.0619
  516SOL    HW1 2062   1.541   2.431   2.962 -2.8179  1.0664  1.5129
  516SOL    HW2 2063   1.389   2.463   3.015  0.2851  1.8610  3.2938
  516SOL     MW 2064   1.478   2.449   3.022 -0.4623  0.5524  0.6798
  517SOL     OW 2065   0.615   2.460   2.157  0.6406 -0.5992  0.5129
  517SOL    HW1 2066   0.571   2.546   2.142 -0.4624  0.9659 -1.0870
  517SOL    HW2 2067   0.554   2.385   2.136  0.4651  2.6544 -2.1921
  517SOL     MW 2068   0.601   2.461   2.152  0.4719  0.0366 -0.0551
  518SOL     OW 2069   1.873   0.191   3.019  0.1700 -0.6783 -0.5669
  518SOL    HW1 2070   1.817   0.229   2.950  1.0939  0.0714 -0.4233
  518SOL    HW2 2071   1.815   0.201   3.099  1.6265 -2.2004  0.5367
  518SOL     MW 2072   1.858   0.197   3.020  0.4841 -0.7802 -0.4023
  519SOL     OW 2073   0.678   2.548   1.725  0.3150  0.2543 -0.1290
  519SOL    HW1 2074   0.705   2.463   1.753 -0.9865  1.9271 -2.4091
  519SOL    HW2 2075   0.621   2.530   1.649  1.4402 -2.1458 -3.4374
  519SOL     MW 2076   0.674   2.534   1.719  0.2917  0.1584 -0.8663
  520SOL     OW 2077   1.290   2.134   2.912  0.0715  0.2936 -0.0070
  520SOL    HW1 2078   1.209   2.095   2.867 -0.6194 -0.0426 -0.0145
  520SOL    HW2 2079   1.326   2.075   2.978  0.7415 -1.6636  1.1541
  520SOL     MW 2080   1.284   2.121   2.915  0.0687 -0.0090  0.1452
  521SOL     OW 2081   1.686   2.062   2.284  0.2523  0.4497 -0.0924
  521SOL    HW1 2082   1.699   2.116   2.201  0.4856  0.7672  0.0484
  521SOL    HW2 2083   1.695   1.969   2.254 -2.3540 -0.5663 -0.8216
  521SOL     MW 2084   1.689   2.057   2.269 -0.0608  0.3576 -0.1700
  522SOL     OW 2085   2.852   2.567   2.165 -0.2992  0.2114 -0.0004
  522SOL    HW1 2086   2.929   2.521   2.190  0.5822 -0.5481 -0.9977
  522SOL    HW2 2087   2.807   2.585   2.250 -0.7555 -0.3455  4.0067
  522SOL     MW 2088   2.856   2.564   2.180 -0.2431  0.0377  0.3967
  523SOL     OW 2089   0.870   1.527   2.150  0.2352  0.0348 -0.3401
  523SOL    HW1 2090   0.835   1.592   2.091  1.1112  0.7413 -1.0622
  523SOL    HW2 2091   0.924   1.468   2.093 -0.9916 -1.0131  1.2504
  523SOL     MW 2092   0.872   1.528   2.135  0.1889 -0.0103 -0.2255
  524SOL     OW 2093   0.828   2.405   2.935  1.2616  0.4391 -0.5690
  524SOL    HW1 2094   0.768   2.463   2.890  0.7602  1.2781  1.4648
  524SOL    HW2 2095   0.807   2.314   2.907 -0.1550  1.6224 -1.1421
  524SOL     MW 2096   0.818   2.401   2.925  1.0085  0.7059 -0.3762
  525SOL     OW 2097   0.396   2.260   2.112 -0.6593  0.0993  0.5680
  525SOL    HW1 2098   0.357   2.197   2.168 -0.8942 -1.6667 -0.2319
  525SOL    HW2 2099   0.393   2.216   2.025  0.5234 -1.2385  0.2281
  525SOL     MW 2100   0.391   2.246   2.108 -0.5342 -0.3102  0.4176
  526SOL     OW 2101   0.673   2.049   2.034  0.1515 -0.7356 -0.1247
  526SOL    HW1 2102   0.723   2.090   1.967  0.0469  0.4141 -1.6818
  526SOL    HW2 2103   0.640   2.123   2.093 -0.7427  2.2836 -0.9249
  526SOL     MW 2104   0.675   2.064   2.033  0.0197 -0.1856 -0.4357
  527SOL     OW 2105   1.339   1.987   2.001 -0.5704 -0.1014 -0.1656
  527SOL    HW1 2106   1.340   1.973   2.095 -0.4249 -1.4525 -0.4255
  527SOL    HW2 2107   1.386   1.914   1.955  1.7109  0.3122 -0.1682
  527SOL     MW 2108   1.346   1.975   2.007 -0.2502 -0.2251 -0.2002
  528SOL     OW 2109   0.625   2.877   2.909 -0.2575  0.0885 -0.0499
  528SOL    HW1 2110   0.675   2.951   2.942  1.1655 -1.3178 -0.7989
  528SOL    HW2 2111   0.594   2.895   2.823  1.2739 -2.7406  0.4749
  528SOL     MW 2112   0.628   2.889   2.902  0.1323 -0.4703 -0.0795
  529SOL     OW 2113   0.960   2.356   1.884 -0.3357  0.2060  0.3293
  529SOL    HW1 2114   0.954   2.349   1.980 -3.6781 -0.6585  1.5477
  529SOL    HW2 2115   1.010   2.442   1.868  2.4031  2.2553  2.1543
  529SOL     MW 2116   0.966   2.366   1.894 -0.4153  0.3623  0.7309
  530SOL     OW 2117   1.195   2.426   3.030 -0.1963 -0.3881  0.4869
  530SOL    HW1 2118   1.116   2.443   3.083  0.3080  0.0916 -3.4769
  530SOL    HW2 2119   1.204   2.333   3.048 -0.9037  0.7426 -2.2741
  530SOL     MW 2120   1.186   2.416   3.040 -0.2231 -0.1756 -0.4004
  531SOL     OW 2121   0.956   1.865   2.558 -0.3455 -0.2019 -0.0789
  531SOL    HW1 2122   1.012   1.940   2.570 -0.1121 -0.2038  1.0104
  531SOL    HW2 2123   0.927   1.835   2.640  1.7155  1.7586 -4.3489
  531SOL     MW 2124   0.959   1.871   2.570 -0.0428  0.0565 -0.4985
  532SOL     OW 2125   1.755   0.333   2.826 -0.1467  0.2601  0.2471
  532SOL    HW1 2126   1.754   0.271   2.752  0.4672 -0.7764  1.5272
  532SOL    HW2 2127   1.841   0.373   2.826  2.8963 -3.0722  1.3860
  532SOL     MW 2128   1.766   0.330   2.816  0.3358 -0.3163  0.5663
  533SOL     OW 2129   1.854   2.652   3.038 -0.4274 -0.1085 -0.2068
  533SOL    HW1 2130   1.848   2.574   3.096 -0.7734  1.9714 -2.7138
  533SOL    HW2 2131   1.764   2.673   3.011 -1.7740  1.0054  0.7678
  533SOL     MW 2132   1.841   2.645   3.042 -0.6507  0.3129 -0.4090
  534SOL     OW 2133   1.775   2.423   2.537  0.2401  0.4597 -0.3222
  534SOL    HW1 2134   1.738   2.337   2.574  1.9260 -3.7265 -0.7365
  534SOL    HW2 2135   1.848   2.452   2.593  0.5627 -0.6621 -2.2226
  534SOL     MW 2136   1.780   2.415   2.549  0.5051 -0.2406 -0.6276
  535SOL     OW 2137   1.909   2.406   1.922  0.2396  0.1784 -0.5502
  535SOL    HW1 2138   1.865   2.408   1.839  1.1555  1.2531  1.6723
  535SOL    HW2 2139   1.995   2.437   1.898  0.5643 -2.9742  0.4611
  535SOL     MW 2140   1.915   2.411   1.908  0.4033 -0.0958 -0.1236
  536SOL     OW 2141   0.501   1.817   2.058  0.8016  0.1742 -0.8146
  536SOL    HW1 2142   0.468   1.784   1.971 -0.6706  3.1952  0.1369
  536SOL    HW2 2143   0.555   1.892   2.032 -0.1523  2.0123 -2.3326
  536SOL     MW 2144   0.504   1.822   2.043  0.4815  0.8153 -0.8893
  537SOL     OW 2145   1.094   0.180   2.824  0.0455  0.0095  0.0737
  537SOL    HW1 2146   1.044   0.210   2.904 -0.8160  1.0898 -1.1696
  537SOL    HW2 2147   1.077   0.244   2.750 -1.0471 -0.2492 -0.8027
  537SOL     MW 2148   1.085   0.193   2.824 -0.2123  0.1179 -0.2060
  538SOL     OW 2149   1.404   0.090   3.076  0.4241  0.1809  0.4767
  538SOL    HW1 2150   1.373   0.179   3.108  0.5000 -0.0245  0.7560
  538SOL    HW2 2151   1.331   0.045   3.038  0.3855  0.4694 -1.0482
  538SOL     MW 2152   1.390   0.096   3.075  0.4290  0.1919  0.3123
  539SOL     OW 2153   0.748   2.814   2.583  0.4116  0.1963 -0.4523
  539SOL    HW1 2154   0.829   2.854   2.549  0.1385  0.3009 -1.3016
  539SOL    HW2 2155   0.767   2.763   2.663 -3.4742 -1.0606  2.4404
  539SOL     MW 2156   0.761   2.812   2.589 -0.1371  0.0443 -0.1827
  540SOL     OW 2157   0.360   2.524   2.901  0.2519 -0.2564  0.1868
  540SOL    HW1 2158   0.361   2.568   2.989 -0.7592 -1.4798  2.0695
  540SOL    HW2 2159   0.327   2.432   2.928 -3.8594 -2.2031  2.3046
  540SOL     MW 2160   0.356   2.517   2.916 -0.4239 -0.6747  0.7147
  541SOL     OW 2161   0.179   2.945   2.223  0.1820 -0.4144 -0.5281
  541SOL    HW1 2162   0.149   2.860   2.189  2.5474 -0.7667  1.3026
  541SOL    HW2 2163   0.228   2.913   2.302  0.0024 -2.4293 -1.7342
  541SOL     MW 2164   0.181   2.930   2.229  0.4704 -0.7267 -0.4457
  542SOL     OW 2165   1.069   2.306   2.676 -0.3987 -0.3380 -0.2035
  542SOL    HW1 2166   1.038   2.241   2.740 -0.3069 -0.4124 -0.6013
  542SOL    HW2 2167   1.076   2.387   2.726  0.9498 -0.0922  1.4179
  542SOL     MW 2168   1.066   2.308   2.691 -0.2087 -0.3154 -0.0421
  543SOL     OW 2169   1.693   2.439   2.838  0.7170  0.0564 -0.5894
  543SOL    HW1 2170   1.683   2.389   2.760  1.1702  0.4905 -2.5381
  543SOL    HW2 2171   1.705   2.528   2.808  1.0001  1.6879  0.5396
  543SOL     MW 2172   1.694   2.444   2.824  0.8141  0.3289 -0.6976
  544SOL     OW 2173   0.742   0.151   2.716  0.5043 -0.5729  0.7603
  544SOL    HW1 2174   0.654   0.164   2.698  1.1459 -1.5472 -1.9746
  544SOL    HW2 2175   0.773   0.141   2.626  0.5635  0.3032  1.9844
  544SOL     MW 2176   0.734   0.151   2.702  0.5967 -0.5859  0.5610
  545SOL     OW 2177   1.477   2.172   2.410 -0.2334  0.3952 -0.0732
  545SOL    HW1 2178   1.441   2.246   2.369  0.0147 -1.1820 -1.8161
  545SOL    HW2 2179   1.551   2.135   2.348  2.0268 -1.0704  0.1038
  545SOL     MW 2180   1.482   2.177   2.396  0.0976 -0.0062 -0.2798
  546SOL     OW 2181   2.884   2.001   0.124  0.6700  0.1167  0.4414
  546SOL    HW1 2182   2.849   2.077   0.070  1.1253  1.1520 -0.0486
  546SOL    HW2 2183   2.978   1.988   0.112  0.7024 -0.6002  2.5086
  546SOL     MW 2184   2.892   2.009   0.115  0.7343  0.1587  0.6495
  547SOL     OW 2185   0.156   0.113   0.096  0.4635 -0.3542  0.0323
  547SOL    HW1 2186   0.227   0.154   0.047 -2.7099 -0.2590  2.1425
  547SOL    HW2 2187   0.112   0.057   0.032 -1.2500  0.1562  0.4481
  547SOL     MW 2188   0.160   0.111   0.081 -0.1813 -0.2743  0.3656
  548SOL     OW 2189   0.326   2.513   0.292  0.4838 -0.2581 -0.3337
  548SOL    HW1 2190   0.343   2.561   0.217 -0.8277 -0.9578  2.5670
  548SOL    HW2 2191   0.248   2.450   0.278 -1.5141 -1.6200  0.3251
  548SOL     MW 2192   0.318   2.511   0.281  0.0472 -0.5301  0.1359
  549SOL     OW 2193   0.841   1.933   2.200  0.1544  0.2342 -0.0496
  549SOL    HW1 2194   0.774   1.987   2.158  0.2905  1.1121  2.2002
  549SOL    HW2 2195   0.803   1.910   2.283 -2.8012  1.2877  1.8924
  549SOL     MW 2196   0.827   1.937   2.206 -0.2176  0.4890  0.5035
  550SOL     OW 2197   1.823   1.749   2.543  0.3042  0.6015  0.4260
  550SOL    HW1 2198   1.827   1.765   2.448 -0.4121  2.5111 -2.4687
  550SOL    HW2 2199   1.832   1.833   2.588 -2.0181  0.5923  0.4340
  550SOL     MW 2200   1.825   1.762   2.536 -0.0967  0.8522  0.0451
  551SOL     OW 2201   0.891   2.287   0.245 -0.0955 -1.0074 -0.0356
  551SOL    HW1 2202   0.983   2.300   0.218  3.3068  0.5058  1.6668
  551SOL    HW2 2203   0.849   2.232   0.180 -1.8258 -0.4185 -0.7745
  551SOL     MW 2204   0.898   2.281   0.233  0.1251 -0.7301  0.0915
  552SOL     OW 2205   1.778   1.791   2.282  0.0723 -0.1174  0.4088
  552SOL    HW1 2206   1.697   1.757   2.243 -0.3519  0.5623  2.6182
  552SOL    HW2 2207   1.839   1.747   2.230 -0.0782 -3.2319  1.8906
  552SOL     MW 2208   1.775   1.781   2.270 -0.0035 -0.4387  0.8958
  553SOL     OW 2209   1.252   2.239   1.540 -0.3633  0.3507 -0.0670
  553SOL    HW1 2210   1.320   2.168   1.553 -0.4845  0.7397 -1.0870
  553SOL    HW2 2211   1.312   2.316   1.521 -1.4206 -2.4372  0.6342
  553SOL     MW 2212   1.269   2.240   1.539 -0.5188  0.0342 -0.1091
  554SOL     OW 2213   0.519   2.926   2.669 -0.5705  0.1133  0.1520
  554SOL    HW1 2214   0.500   2.995   2.602 -2.5086 -1.3164  0.8031
  554SOL    HW2 2215   0.603   2.884   2.637  0.1103  0.6213  1.8163
  554SOL     MW 2216   0.528   2.929   2.656 -0.7364 -0.0083  0.4575
  555SOL     OW 2217   0.621   2.443   2.533 -0.5492  0.0568  0.3873
  555SOL    HW1 2218   0.580   2.355   2.536 -1.8555  0.2746 -1.0914
  555SOL    HW2 2219   0.714   2.422   2.536  0.1614 -1.0385  1.0221
  555SOL     MW 2220   0.628   2.429   2.534 -0.6278 -0.0590  0.2760
  556SOL     OW 2221   1.046   1.912   0.108  0.7872  0.3017  0.0764
  556SOL    HW1 2222   1.066   1.842   0.041 -1.3044  2.0507  0.0728
  556SOL    HW2 2223   1.115   1.912   0.169  0.1661  1.6293  1.5023
  556SOL     MW 2224   1.058   1.903   0.107  0.4293  0.7076  0.2641
  557SOL     OW 2225   0.978   2.669   0.494 -0.4700  0.1704 -0.0122
  557SOL    HW1 2226   1.040   2.630   0.425  0.4333  0.1132  0.1718
  557SOL    HW2 2227   0.946   2.754   0.452  1.2061  3.3334  1.6601
  557SOL     MW 2228   0.982   2.675   0.479 -0.1297  0.5802  0.2327
  558SOL     OW 2229   0.218   2.288   2.972  0.5970 -0.0042  0.0974
  558SOL    HW1 2230   0.145   2.261   2.919 -0.1808 -1.2915 -0.8844
  558SOL    HW2 2231   0.184   2.327   3.059 -1.2078  0.9289  1.7205
  558SOL     MW 2232   0.204   2.290   2.977  0.2563 -0.0509  0.1820
  559SOL     OW 2233   1.030   2.322   2.165 -0.0248  0.5277 -0.3100
  559SOL    HW1 2234   1.124   2.320   2.143  0.1282  0.8761  1.2714
  559SOL    HW2 2235   1.019   2.243   2.218 -0.6737  2.0861 -1.2052
  559SOL     MW 2236   1.041   2.311   2.169 -0.0902  0.7793 -0.2194
  560SOL     OW 2237   1.943   2.859   0.098  0.4562 -0.3473  0.4327
  560SOL    HW1 2238   2.019   2.892   0.045  1.3463 -0.1828  1.7740
  560SOL    HW2 2239   1.905   2.784   0.047  1.0559 -2.6593 -0.4418
  560SOL     MW 2240   1.948   2.854   0.084  0.6528 -0.6306  0.4943
  561SOL     OW 2241   0.348   2.148   0.096 -0.2264 -0.1753 -0.0210
  561SOL    HW1 2242   0.306   2.205   0.034 -0.1956  1.8413  1.5567
  561SOL    HW2 2243   0.413   2.212   0.137  1.3673  1.2718 -2.7841
  561SOL     MW 2244   0.351   2.164   0.094 -0.0121  0.2817 -0.1774
  562SOL     OW 2245   0.695   2.215   2.262 -0.4204 -0.0944 -0.5531
  562SOL    HW1 2246   0.675   2.309   2.290 -1.4792 -1.9259 -0.0285
  562SOL    HW2 2247   0.781   2.188   2.291 -1.8831  1.1160  3.1811
  562SOL     MW 2248   0.704   2.224   2.269 -0.7531 -0.1764  0.0088
  563SOL     OW 2249   1.230   0.432   0.525 -0.3033  0.0989 -0.6347
  563SOL    HW1 2250   1.206   0.358   0.469  0.1574 -1.3929  1.0101
  563SOL    HW2 2251   1.167   0.415   0.595 -1.4795 -1.2621  2.3363
  563SOL     MW 2252   1.218   0.420   0.527 -0.3977 -0.2775 -0.0257
  564SOL     OW 2253   1.095   2.622   2.391 -0.9580 -0.7020  0.1111
  564SOL    HW1 2254   1.129   2.679   2.320 -2.8367  1.8755 -4.7987
  564SOL    HW2 2255   1.090   2.668   2.477 -0.8516 -2.2754 -1.6228
  564SOL     MW 2256   1.099   2.635   2.393 -1.1918 -0.5695 -0.7654
  565SOL     OW 2257   2.743   2.784   2.575  0.1172  0.9276 -0.5312
  565SOL    HW1 2258   2.796   2.832   2.511  1.2769 -0.0336 -0.7057
  565SOL    HW2 2259   2.728   2.702   2.530 -0.4361 -2.2443  0.0895
  565SOL     MW 2260   2.748   2.780   2.560  0.1972  0.3823 -0.4724
  566SOL     OW 2261   2.165   1.897   2.385  0.2702  0.2094 -1.0520
  566SOL    HW1 2262   2.179   1.875   2.293 -1.0801 -1.9305 -1.0515
  566SOL    HW2 2263   2.207   1.980   2.397 -0.2822  0.7041 -0.1279
  566SOL     MW 2264   2.172   1.905   2.374  0.0191 -0.0077 -0.9300
  567SOL     OW 2265   1.192   3.005   3.090  0.3573 -0.2739  1.0344
  567SOL    HW1 2266   1.172   3.007   3.184 -0.7915  0.1846 -1.3663
  567SOL    HW2 2267   1.221   2.911   3.066  3.1585  1.0926 -0.0467
  567SOL     MW 2268   1.193   2.993   3.099  0.5753 -0.0331  0.5750
  568SOL     OW 2269   1.609   2.053   2.823  0.0142 -0.4111  0.4435
  568SOL    HW1 2270   1.623   2.123   2.891 -0.1982  1.4472  0.2872
  568SOL    HW2 2271   1.692   2.029   2.781  2.2471 -3.4926  1.6524
  568SOL     MW 2272   1.622   2.059   2.826  0.2808 -0.5725  0.5824
  569SOL     OW 2273   0.128   2.310   2.463 -0.4907  0.3046 -0.2912
  569SOL    HW1 2274   0.056   2.337   2.403 -1.6549 -0.2663 -0.1407
  569SOL    HW2 2275   0.164   2.395   2.486 -1.5681  2.0373 -3.3303
  569SOL     MW 2276   0.123   2.325   2.458 -0.7865  0.4579 -0.6723
  570SOL     OW 2277   1.480   0.338   0.509 -0.0546  0.5042  0.2294
  570SOL    HW1 2278   1.396   0.371   0.538 -2.9669 -0.7202  0.2143
  570SOL    HW2 2279   1.540   0.374   0.575 -1.9745  1.3664  2.0676
  570SOL     MW 2280   1.477   0.347   0.521 -0.6921  0.4564  0.4699
  571SOL     OW 2281   1.331   2.347   2.134  0.3021 -0.0099  0.2716
  571SOL    HW1 2282   1.380   2.393   2.201 -1.7116 -0.0714  0.0988
  571SOL    HW2 2283   1.392   2.304   2.070 -1.6474 -3.1164 -0.4427
  571SOL     MW 2284   1.346   2.347   2.135 -0.2208 -0.4279  0.1546
  572SOL     OW 2285   0.965   2.565   0.070  0.2663  0.4613 -0.0973
  572SOL    HW1 2286   0.952   2.656   0.051 -2.6319 -2.9255  0.3229
  572SOL    HW2 2287   0.879   2.530   0.067  2.4941 -0.2774 -1.4666
  572SOL     MW 2288   0.952   2.573   0.067  0.1778 -0.0830 -0.2225
  573SOL     OW 2289   1.185   2.273   0.211  0.1840 -0.3745 -0.1484
  573SOL    HW1 2290   1.275   2.246   0.191 -0.0045  0.2102 -0.7488
  573SOL    HW2 2291   1.207   2.347   0.269 -3.9095  0.6347 -1.5080
  573SOL     MW 2292   1.200   2.279   0.216 -0.3810 -0.1642 -0.4070
  574SOL     OW 2293   1.131   2.535   0.287  0.2815  0.0830 -0.2342
  574SOL    HW1 2294   1.205   2.599   0.267 -1.6641 -1.6789 -0.3788
  574SOL    HW2 2295   1.068   2.530   0.212 -0.5969 -0.8335 -3.2642
  574SOL     MW 2296   1.133   2.543   0.274 -0.0911 -0.2704 -0.6530
  575SOL     OW 2297   3.032   2.229   1.722  0.0219 -0.1047 -0.5152
  575SOL    HW1 2298   3.057   2.139   1.691 -2.4250 -0.5333 -1.6769
  575SOL    HW2 2299   3.105   2.288   1.734 -0.9188  0.6912  0.4335
  575SOL     MW 2300   3.045   2.225   1.720 -0.4251 -0.0562 -0.5433
  576SOL     OW 2301   2.856   1.858   2.022 -0.0776  0.5211 -0.0708
  576SOL    HW1 2302   2.888   1.933   1.971 -1.4791 -2.7899 -1.2100
  576SOL    HW2 2303   2.772   1.854   1.979  1.9163  1.5910 -0.8231
  576SOL     MW 2304   2.849   1.867   2.010  0.0005  0.2254 -0.3204
  577SOL     OW 2305   2.067   0.249   0.095  0.1557  0.4829 -0.1890
  577SOL    HW1 2306   2.015   0.249   0.018  0.3460 -0.0231  1.7191
  577SOL    HW2 2307   2.046   0.174   0.144  0.2317  2.3626 -1.2795
  577SOL     MW 2308   2.057   0.239   0.092  0.1908  0.6641 -0.0812
  578SOL     OW 2309   1.928   2.057   2.474  0.2695  0.3930  0.1868
  578SOL    HW1 2310   1.837   2.043   2.438  3.2064 -0.2685  1.1458
  578SOL    HW2 2311   1.991   1.996   2.430  0.3347 -0.7671 -0.2771
  578SOL     MW 2312   1.925   2.048   2.464  0.6656  0.1527  0.2521
  579SOL     OW 2313   0.905   2.418   2.488  0.2934 -0.0850  0.3445
  579SOL    HW1 2314   0.950   2.365   2.551 -0.7356  2.1224 -1.7022
  579SOL    HW2 2315   0.990   2.454   2.440  0.9781  1.3603 -0.3496
  579SOL     MW 2316   0.922   2.415   2.490  0.2480  0.3970 -0.0171
  580SOL     OW 2317   0.939   2.842   0.016  0.1345 -0.1112 -0.0997
  580SOL    HW1 2318   1.033   2.861   0.027  0.3330 -0.1145  1.0427
  580SOL    HW2 2319   0.924   2.834  -0.077  1.3864 -1.0649 -0.5941
  580SOL     MW 2320   0.949   2.843   0.005  0.3259 -0.2375 -0.0142
  581SOL     OW 2321   1.168   2.484   1.704  0.3254 -0.8040  0.1709
  581SOL    HW1 2322   1.231   2.488   1.782  0.9092 -0.8329  2.9510
  581SOL    HW2 2323   1.177   2.399   1.666  1.5487  0.5048  2.8855
  581SOL     MW 2324   1.177   2.473   1.710  0.5638 -0.6352  0.8959
  582SOL     OW 2325   0.051   2.847   2.753 -0.4464  0.7896 -0.2664
  582SOL    HW1 2326   0.003   2.932   2.755 -0.4790 -0.4708 -2.8188
  582SOL    HW2 2327   0.146   2.865   2.751  1.0274 -0.3525  1.0095
  582SOL     MW 2328   0.057   2.861   2.753 -0.2562  0.4726 -0.4348
  583SOL     OW 2329   2.013   2.430   2.680  0.3251 -0.0810  0.1441
  583SOL    HW1 2330   2.077   2.438   2.607 -1.7342 -3.4033  0.0257
  583SOL    HW2 2331   2.008   2.339   2.699 -1.5811  0.7693 -0.2951
  583SOL     MW 2332   2.021   2.419   2.673 -0.1981 -0.4072  0.0706
  584SOL     OW 2333   0.068   1.897   2.198  0.3012 -0.1897 -0.6861
  584SOL    HW1 2334   0.086   1.822   2.263 -0.7380 -3.1392 -0.2482
  584SOL    HW2 2335   0.128   1.969   2.232  1.7328  1.4600 -0.9935
  584SOL     MW 2336   0.079   1.897   2.211  0.3530 -0.3612 -0.6688
  585SOL     OW 2337   1.579   2.635   0.135  0.1345  0.2875 -0.4632
  585SOL    HW1 2338   1.525   2.593   0.065 -0.3480 -2.1670 -0.5691
  585SOL    HW2 2339   1.510   2.652   0.196 -0.8718  1.9694 -1.5655
  585SOL     MW 2340   1.563   2.632   0.134 -0.0619  0.1856 -0.6226
  586SOL     OW 2341   1.391   2.796   2.578 -0.5448 -0.2241 -0.2474
  586SOL    HW1 2342   1.399   2.743   2.492  0.4880 -0.0837 -1.1560
  586SOL    HW2 2343   1.363   2.881   2.560  0.9433 -2.5894  2.2746
  586SOL     MW 2344   1.388   2.800   2.564 -0.2122 -0.5176 -0.0345
  587SOL     OW 2345   1.389   1.475   2.150  0.3121  0.1163  0.3960
  587SOL    HW1 2346   1.330   1.405   2.182 -0.9356 -1.1874 -0.5985
  587SOL    HW2 2347   1.427   1.435   2.069 -0.0013  0.1902  0.8033
  587SOL     MW 2348   1.386   1.461   2.144  0.1061 -0.0459  0.3185
  588SOL     OW 2349   1.377   2.017   2.631 -0.1969 -0.3640 -0.4554
  588SOL    HW1 2350   1.395   1.922   2.646 -0.8427 -3.3124 -1.1393
  588SOL    HW2 2351   1.389   2.058   2.718 -0.2733  0.4726 -0.8840
  588SOL     MW 2352   1.381   2.010   2.645 -0.2922 -0.6426 -0.6022
  589SOL     OW 2353   1.414   1.995   0.046 -0.5420 -0.7465  0.4589
  589SOL    HW1 2354   1.429   2.088   0.071  1.2640 -0.1243 -0.4070
  589SOL    HW2 2355   1.371   1.957   0.123 -0.5235  1.7350 -0.5305
  589SOL     MW 2356   1.410   2.002   0.059 -0.3013 -0.3370  0.2141
  590SOL     OW 2357   0.491   2.737   2.161 -0.0492 -0.6676 -0.4305
  590SOL    HW1 2358   0.488   2.712   2.064 -0.0023  0.5450 -0.4624
  590SOL    HW2 2359   0.585   2.763   2.174  0.6475 -3.1424  1.1003
  590SOL     MW 2360   0.503   2.737   2.150  0.0489 -0.8341 -0.2327
  591SOL     OW 2361   2.300   0.716   0.054  0.2486  0.5424  0.6113
  591SOL    HW1 2362   2.210   0.727   0.027 -3.1662  0.2916 -1.1821
  591SOL    HW2 2363   2.352   0.732  -0.030  1.4481  0.4725 -0.2142
  591SOL     MW 2364   2.295   0.719   0.039 -0.0437  0.5001  0.2658
  592SOL     OW 2365   1.751   2.911   0.785  0.3714 -0.1000  0.4760
  592SOL    HW1 2366   1.761   2.967   0.704  1.9081 -1.6412  0.0775
  592SOL    HW2 2367   1.811   2.840   0.774 -2.1960 -3.1749  0.8665
  592SOL     MW 2368   1.760   2.909   0.773  0.2354 -0.7091  0.4749
  593SOL     OW 2369   1.961   0.670   0.817  0.0739 -0.4385  0.0856
  593SOL    HW1 2370   1.874   0.683   0.772 -0.6298  2.0878  2.3609
  593SOL    HW2 2371   1.982   0.577   0.829 -0.0622 -0.0051 -2.1165
  593SOL     MW 2372   1.952   0.659   0.812 -0.0369 -0.0480  0.0952
  594SOL     OW 2373   2.774   1.063   1.395 -0.0402 -0.1299  0.0181
  594SOL    HW1 2374   2.866   1.062   1.387 -0.3275  0.0416  0.8298
  594SOL    HW2 2375   2.732   1.071   1.312 -0.3502 -1.4130  3.0166
  594SOL     MW 2376   2.780   1.064   1.383 -0.1190 -0.2765  0.5209
  595SOL     OW 2377   0.466   0.905   0.838 -0.0430 -0.0494  0.2819
  595SOL    HW1 2378   0.478   0.981   0.777  0.9730  0.2728  2.5271
  595SOL    HW2 2379   0.467   0.931   0.927 -3.6273 -1.3380  0.3990
  595SOL     MW 2380   0.468   0.918   0.841 -0.3818 -0.1769  0.5935
  596SOL     OW 2381   2.469   1.347   0.525 -0.1026 -0.0019 -0.0935
  596SOL    HW1 2382   2.549   1.394   0.500  2.4776  1.4473  1.7320
  596SOL    HW2 2383   2.489   1.308   0.609  0.3261  0.9349  2.3775
  596SOL     MW 2384   2.482   1.348   0.533  0.2944  0.3129  0.4734
  597SOL     OW 2385   2.206   0.671   1.604 -0.0997 -0.3098 -0.5328
  597SOL    HW1 2386   2.253   0.627   1.670  1.5682  1.9186 -1.8148
  597SOL    HW2 2387   2.127   0.610   1.579  0.3863 -0.4539 -1.0059
  597SOL     MW 2388   2.202   0.657   1.609  0.1845 -0.0348 -0.7644
  598SOL     OW 2389   2.596   1.040   2.868  0.4643 -0.3765 -0.3843
  598SOL    HW1 2390   2.586   0.967   2.806  0.9803 -3.8616  3.9539
  598SOL    HW2 2391   2.671   1.089   2.838 -0.1527  0.0606 -0.9525
  598SOL     MW 2392   2.605   1.037   2.855  0.4510 -0.7787  0.1131
  599SOL     OW 2393   2.956   0.432   2.141  0.1429 -0.0690  0.0099
  599SOL    HW1 2394   2.972   0.437   2.229 -2.3216  1.2386  0.1865
  599SOL    HW2 2395   3.011   0.500   2.104  0.0036 -0.9783 -0.0001
  599SOL     MW 2396   2.965   0.442   2.148 -0.2007 -0.0165  0.0318
  600SOL     OW 2397   1.857   1.620   0.907 -0.2688 -0.0163  0.0470
  600SOL    HW1 2398   1.916   1.648   0.975  0.1761 -0.6628 -0.4367
  600SOL    HW2 2399   1.799   1.697   0.897 -0.3963  2.4089  1.3384
  600SOL     MW 2400   1.857   1.634   0.915 -0.2269  0.2184  0.1536
  601SOL     OW 2401   2.547   0.720   0.810 -0.1330 -0.2509 -0.1467
  601SOL    HW1 2402   2.543   0.725   0.906  0.2915 -0.5461  0.6324
  601SOL    HW2 2403   2.473   0.659   0.779 -2.5343 -2.3351 -1.2766
  601SOL     MW 2404   2.537   0.713   0.818 -0.3938 -0.5648 -0.1930
  602SOL     OW 2405   2.312   1.918   0.787  0.1099  0.2432  0.0113
  602SOL    HW1 2406   2.269   1.835   0.759  0.2511 -0.9158  2.0286
  602SOL    HW2 2407   2.257   1.986   0.755 -0.7162 -2.7939  0.6829
  602SOL     MW 2408   2.299   1.916   0.779  0.0196 -0.3104  0.3661
  603SOL     OW 2409   2.965   1.342   1.981 -0.1818  0.0226  0.1480
  603SOL    HW1 2410   2.917   1.334   2.060 -0.3144 -0.9180 -1.7566
  603SOL    HW2 2411   3.012   1.256   1.998  1.1374 -0.9239 -0.8512
  603SOL     MW 2412   2.965   1.330   1.994 -0.0252 -0.2263 -0.2351
  604SOL     OW 2413   2.042   1.461   0.441  0.3291 -0.2491  0.1138
  604SOL    HW1 2414   2.067   1.380   0.489 -1.0517  0.2235 -1.0814
  604SOL    HW2 2415   1.981   1.509   0.506 -2.2817  0.7008  0.6305
  604SOL     MW 2416   2.037   1.456   0.456 -0.1975 -0.0614  0.0243
  605SOL     OW 2417   2.478   1.477   0.880 -0.3466 -0.5505 -0.1386
  605SOL    HW1 2418   2.502   1.543   0.812 -2.5270 -1.7859  0.2035
  605SOL    HW2 2419   2.481   1.390   0.834  0.6893  0.2071  1.1267
  605SOL     MW 2420   2.482   1.474   0.865 -0.4976 -0.6135  0.0735
  606SOL     OW 2421   2.599   1.816   1.920  0.4294 -0.2594 -0.6981
  606SOL    HW1 2422   2.506   1.805   1.940  1.0263  1.3090 -0.8273
  606SOL    HW2 2423   2.630   1.735   1.873  0.3540  1.0902  0.5040
  606SOL     MW 2424   2.591   1.804   1.916  0.4982  0.1256 -0.5565
  607SOL     OW 2425   2.388   1.001   3.053  0.0021  0.6558  0.3577
  607SOL    HW1 2426   2.464   1.026   3.006 -1.2881 -0.8265  1.3155
  607SOL    HW2 2427   2.409   0.989   3.146 -1.0361 -2.7317  0.0262
  607SOL     MW 2428   2.401   1.002   3.059 -0.3051  0.0133  0.4403
  608SOL     OW 2429   1.861   0.250   0.536  0.4063 -0.2590  0.2575
  608SOL    HW1 2430   1.861   0.301   0.454  0.2991 -1.8134 -0.7062
  608SOL    HW2 2431   1.831   0.169   0.498 -2.2986  1.2673 -0.7643
  608SOL     MW 2432   1.857   0.246   0.521  0.0353 -0.2627 -0.0045
  609SOL     OW 2433   2.135   1.917   3.033 -0.5445 -0.5456 -0.6876
  609SOL    HW1 2434   2.055   1.885   2.986  2.2400 -0.2926 -1.0198
  609SOL    HW2 2435   2.112   1.900   3.125 -0.6777  1.3749  1.9898
  609SOL     MW 2436   2.122   1.910   3.039 -0.1947 -0.2588 -0.3782
  610SOL     OW 2437   1.780   0.921   1.208 -0.1780 -0.0570  0.4296
  610SOL    HW1 2438   1.812   0.844   1.153  0.2495  1.7096  0.1430
  610SOL    HW2 2439   1.680   0.932   1.201  1.0972 -2.6484 -1.1085
  610SOL     MW 2440   1.771   0.912   1.200  0.0466 -0.1658  0.1889
  611SOL     OW 2441   2.464   1.668   0.670  0.9573 -0.0732 -0.6963
  611SOL    HW1 2442   2.536   1.647   0.614  1.3332 -1.8396 -1.1395
  611SOL    HW2 2443   2.395   1.610   0.640  0.4274  3.1749  1.4045
  611SOL     MW 2444   2.464   1.657   0.659  0.9369  0.1223 -0.4776
  612SOL     OW 2445   2.905   2.958   0.334  0.5279  0.3678  0.0946
  612SOL    HW1 2446   2.912   2.986   0.425 -0.7806 -1.7639 -2.1873
  612SOL    HW2 2447   2.978   2.907   0.306 -2.2667  0.5720 -0.8509
  612SOL     MW 2448   2.915   2.955   0.343 -0.0135  0.1135 -0.3312
  613SOL     OW 2449   1.520   1.077   0.970 -0.1217  0.8693  0.1693
  613SOL    HW1 2450   1.570   1.154   0.948  2.4680 -1.8303  0.7798
  613SOL    HW2 2451   1.518   1.071   1.069  3.4021 -0.2325  2.8214
  613SOL     MW 2452   1.526   1.086   0.980  0.6849  0.3677  0.5997
  614SOL     OW 2453   2.025   0.483   1.430  0.3031 -0.4084  0.2961
  614SOL    HW1 2454   2.016   0.420   1.496 -0.1739  0.7654 -0.6363
  614SOL    HW2 2455   1.935   0.487   1.394  0.6738 -0.5312  0.5260
  614SOL     MW 2456   2.012   0.475   1.434  0.2891 -0.2697  0.2034
  615SOL     OW 2457   2.409   0.714   0.295  0.4413  0.0149 -0.2536
  615SOL    HW1 2458   2.483   0.644   0.287  2.0203  1.4111 -0.4761
  615SOL    HW2 2459   2.359   0.692   0.215  1.0569 -2.1167 -0.4303
  615SOL     MW 2460   2.412   0.702   0.283  0.7309 -0.0821 -0.3063
  616SOL     OW 2461   2.496   0.438   1.613  0.3353 -0.3910 -0.0213
  616SOL    HW1 2462   2.570   0.380   1.600 -0.1003  1.0635  0.1208
  616SOL    HW2 2463   2.465   0.467   1.526 -3.2140  0.3318  0.1537
  616SOL     MW 2464   2.502   0.434   1.600 -0.1905 -0.1037  0.0206
  617SOL     OW 2465   2.867   0.610   1.810 -0.0494 -0.3777  1.0744
  617SOL    HW1 2466   2.797   0.622   1.873  3.0071  0.3729  1.8615
  617SOL    HW2 2467   2.875   0.515   1.800  0.5173 -2.3001 -0.5217
  617SOL     MW 2468   2.859   0.599   1.817  0.4286 -0.5323  0.9676
  618SOL     OW 2469   2.745   0.325   2.022 -0.0026 -0.3643 -0.0050
  618SOL    HW1 2470   2.705   0.417   2.012 -0.5286  2.0940  0.0946
  618SOL    HW2 2471   2.832   0.343   2.065  3.4440 -1.9586 -0.0258
  618SOL     MW 2472   2.751   0.339   2.026  0.3827 -0.2503  0.0054
  619SOL     OW 2473   2.640   0.725   0.105 -0.0576  0.1053  0.1578
  619SOL    HW1 2474   2.706   0.800   0.109  1.5204  2.2141 -0.0352
  619SOL    HW2 2475   2.652   0.675   0.183  1.0153 -0.0850 -1.2686
  619SOL     MW 2476   2.650   0.728   0.116  0.2921  0.3584 -0.0559
  620SOL     OW 2477   2.241   1.083   0.935 -0.0110  0.0356  0.0387
  620SOL    HW1 2478   2.328   1.056   0.906 -1.0388 -1.5886 -1.2428
  620SOL    HW2 2479   2.182   1.029   0.875  1.0138 -1.4344 -0.3907
  620SOL     MW 2480   2.244   1.072   0.924 -0.0114 -0.3726 -0.1870
  621SOL     OW 2481   1.476   2.214   1.931 -0.7367 -0.2039  0.2426
  621SOL    HW1 2482   1.435   2.129   1.960  2.0807  0.9869 -0.3385
  621SOL    HW2 2483   1.571   2.199   1.962 -0.6939  1.2279  1.0685
  621SOL     MW 2484   1.483   2.201   1.939 -0.3593  0.1421  0.2749
  622SOL     OW 2485   2.650   0.255   0.289 -0.1025 -0.5097 -0.2330
  622SOL    HW1 2486   2.743   0.278   0.255 -0.7905  1.8618 -2.5153
  622SOL    HW2 2487   2.656   0.162   0.300  0.4705  0.2494 -0.8069
  622SOL     MW 2488   2.663   0.246   0.286 -0.1177 -0.0967 -0.6099
  623SOL     OW 2489   2.396   2.765   0.892  0.2909  0.2665 -0.3239
  623SOL    HW1 2490   2.459   2.835   0.904 -2.0830 -2.7108  0.4586
  623SOL    HW2 2491   2.325   2.779   0.960 -3.7963  0.0129 -1.0954
  623SOL     MW 2492   2.395   2.776   0.902 -0.5616 -0.1598 -0.3224
  624SOL     OW 2493   2.170   1.597   3.040 -0.4130 -0.1675 -0.0707
  624SOL    HW1 2494   2.091   1.550   3.021  1.4530 -0.4371  1.7012
  624SOL    HW2 2495   2.155   1.687   3.017  3.2376  3.0316 -1.0872
  624SOL     MW 2496   2.157   1.602   3.034  0.3148  0.2190  0.0290
  625SOL     OW 2497   2.261   1.895   1.040  0.3392  0.0229 -0.1913
  625SOL    HW1 2498   2.328   1.842   1.081 -2.9789 -0.1121 -0.3780
  625SOL    HW2 2499   2.277   1.902   0.944 -0.6148 -2.4048 -1.2422
  625SOL     MW 2500   2.272   1.889   1.033 -0.2245 -0.3153 -0.3546
  626SOL     OW 2501   0.142   1.796   2.435 -0.9348 -0.2360 -0.5070
  626SOL    HW1 2502   0.108   1.732   2.493  0.3796 -1.5246 -1.7358
  626SOL    HW2 2503   0.098   1.877   2.468  0.8238  2.2932  0.8330
  626SOL     MW 2504   0.132   1.799   2.447 -0.5294 -0.0723 -0.4923
  627SOL     OW 2505   2.494   0.827   2.569 -0.4310  0.5109  0.5393
  627SOL    HW1 2506   2.409   0.873   2.574 -1.8150  0.4335 -1.0233
  627SOL    HW2 2507   2.489   0.769   2.488 -0.5282  0.2883 -0.4009
  627SOL     MW 2508   2.482   0.825   2.559 -0.6265  0.4713  0.2091
  628SOL     OW 2509   2.254   1.366   1.315  0.6494  0.2377 -0.5058
  628SOL    HW1 2510   2.227   1.287   1.277  2.1172 -0.8399  0.8877
  628SOL    HW2 2511   2.323   1.394   1.251 -0.1971  0.4816 -3.0795
  628SOL     MW 2512   2.260   1.360   1.302  0.7313  0.1277 -0.6615
  629SOL     OW 2513   1.765   0.517   1.288 -0.0736  0.5542 -0.0790
  629SOL    HW1 2514   1.793   0.579   1.213  3.4910 -0.4109 -0.6835
  629SOL    HW2 2515   1.680   0.498   1.254 -0.7301  2.4825 -0.4618
  629SOL     MW 2516   1.757   0.523   1.274  0.3101  0.6813 -0.2093
  630SOL     OW 2517   2.396   1.875   2.995  0.0158 -0.2885  0.3528
  630SOL    HW1 2518   2.434   1.961   2.965  0.6903  2.1356 -0.7175
  630SOL    HW2 2519   2.304   1.897   2.998  0.3572  0.4806 -1.6074
  630SOL     MW 2520   2.389   1.889   2.992  0.1499  0.1328 -0.0470
  631SOL     OW 2521   2.088   1.715   1.531  0.4512  0.3679 -0.0625
  631SOL    HW1 2522   2.073   1.637   1.586  0.4821 -0.2176 -1.7673
  631SOL    HW2 2523   2.008   1.768   1.523  1.7383 -1.4298  0.9389
  631SOL     MW 2524   2.075   1.712   1.537  0.6251  0.0535 -0.1553
  632SOL     OW 2525   0.274   1.936   1.502 -0.0243 -0.3076  0.0139
  632SOL    HW1 2526   0.185   1.951   1.540  2.7449 -1.4051 -1.0601
  632SOL    HW2 2527   0.283   1.848   1.468  0.6137 -0.3748  1.8113
  632SOL     MW 2528   0.263   1.926   1.502  0.4253 -0.4612  0.1093
  633SOL     OW 2529   2.637   0.535   0.308 -0.1643 -0.5165  0.7985
  633SOL    HW1 2530   2.656   0.544   0.404  1.2791  3.6875  0.5306
  633SOL    HW2 2531   2.649   0.442   0.297  1.6969  2.7053  2.6272
  633SOL     MW 2532   2.641   0.524   0.320  0.2717  0.4632  1.0044
  634SOL     OW 2533   2.669   3.033   0.625 -0.1456  0.0183  0.3894
  634SOL    HW1 2534   2.685   3.127   0.649 -0.9196 -0.1462 -1.5545
  634SOL    HW2 2535   2.618   3.036   0.544  1.6309  1.0273 -0.0091
  634SOL     MW 2536   2.665   3.046   0.618 -0.0133  0.1297  0.0803
  635SOL     OW 2537   2.629   0.103   1.896 -0.1177 -0.2706  0.0011
  635SOL    HW1 2538   2.684   0.073   1.820  1.6741 -0.0331  0.1619
  635SOL    HW2 2539   2.677   0.187   1.924 -0.3005 -1.3064 -1.0033
  635SOL     MW 2540   2.642   0.110   1.889  0.0946 -0.3759 -0.1102
  636SOL     OW 2541   2.731   1.604   0.881 -0.5117  0.9376 -0.0924
  636SOL    HW1 2542   2.675   1.532   0.916  0.0594 -0.7493  0.5316
  636SOL    HW2 2543   2.708   1.679   0.934 -4.5108 -1.8530 -0.4540
  636SOL     MW 2544   2.721   1.604   0.892 -0.9640  0.3468 -0.0578
  637SOL     OW 2545   2.881   1.531   0.639 -0.0695 -0.0415 -0.1940
  637SOL    HW1 2546   2.943   1.605   0.612 -0.0069  0.7531  2.4256
  637SOL    HW2 2547   2.839   1.563   0.718  1.5579 -0.2928  1.1340
  637SOL     MW 2548   2.884   1.545   0.646  0.1534  0.0302  0.3269
  638SOL     OW 2549   2.758   0.497   0.558  0.6579 -0.1295  0.9245
  638SOL    HW1 2550   2.835   0.545   0.532 -0.4731 -0.0091 -1.1135
  638SOL    HW2 2551   2.757   0.516   0.648 -1.3029  0.2005 -0.5630
  638SOL     MW 2552   2.768   0.506   0.566  0.2500 -0.0701  0.4593
  639SOL     OW 2553   1.762   3.093   0.532 -0.1652  0.0608  0.3661
  639SOL    HW1 2554   1.675   3.127   0.505  0.7148 -3.2295  0.4081
  639SOL    HW2 2555   1.768   2.999   0.505  2.9279  1.1678 -0.9806
  639SOL     MW 2556   1.751   3.085   0.525  0.3590 -0.2273  0.1939
  640SOL     OW 2557   0.346   1.334   0.100 -0.4988 -0.0210  0.4859
  640SOL    HW1 2558   0.385   1.320   0.014 -0.0833  0.2576  2.3522
  640SOL    HW2 2559   0.352   1.242   0.142 -0.6282 -1.1131 -2.6662
  640SOL     MW 2560   0.352   1.320   0.094 -0.4611 -0.1284  0.3162
  641SOL     OW 2561   2.156   0.414   0.369 -1.1766 -0.2280  0.3475
  641SOL    HW1 2562   2.194   0.410   0.281 -0.6694 -1.7718 -0.9962
  641SOL    HW2 2563   2.197   0.339   0.416 -1.0414  1.4401  0.6208
  641SOL     MW 2564   2.167   0.404   0.364 -1.0918 -0.2116  0.2063
  642SOL     OW 2565   0.071   0.051   0.527 -0.6675  0.7636  0.6838
  642SOL    HW1 2566   0.049   0.136   0.508  0.1837  1.1970 -1.3499
  642SOL    HW2 2567  -0.001   0.007   0.576 -0.1857 -0.1432  2.2899
  642SOL     MW 2568   0.059   0.056   0.531 -0.4916  0.7011  0.6274
  643SOL     OW 2569   2.064   0.316   1.672 -0.2443 -0.0704 -1.0342
  643SOL    HW1 2570   1.997   0.290   1.733  1.8711 -3.2364 -1.2718
  643SOL    HW2 2571   2.052   0.257   1.601  2.0099 -1.4984  0.0004
  643SOL     MW 2572   2.053   0.305   1.671  0.3322 -0.6765 -0.9290
  644SOL     OW 2573   2.681   1.889   0.992  0.1036  0.4690 -0.0935
  644SOL    HW1 2574   2.648   1.845   1.070 -1.1813 -2.1447  0.8587
  644SOL    HW2 2575   2.611   1.930   0.946  1.2656 -0.5631  1.4813
  644SOL     MW 2576   2.668   1.889   0.996  0.0874 -0.0120  0.2399
  645SOL     OW 2577   2.837   0.824   0.712  0.1686 -0.0085 -0.3486
  645SOL    HW1 2578   2.917   0.777   0.700  1.7445 -1.2643  0.4378
  645SOL    HW2 2579   2.777   0.779   0.776 -2.9522  1.0493 -0.0063
  645SOL     MW 2580   2.840   0.812   0.719 -0.0352 -0.0346 -0.1997
  646SOL     OW 2581   0.107   2.293   0.847  0.2784 -0.5329 -0.0634
  646SOL    HW1 2582   0.125   2.207   0.880  1.6726  0.1346  0.1392
  646SOL    HW2 2583   0.056   2.288   0.766  1.7913  0.8529  0.4619
  646SOL     MW 2584   0.103   2.281   0.841  0.6619 -0.2620  0.0326
  647SOL     OW 2585   2.714   0.511   3.018  0.2753  0.0583  0.2107
  647SOL    HW1 2586   2.666   0.438   3.051  0.2341 -1.3623 -1.5985
  647SOL    HW2 2587   2.738   0.556   3.098  0.8794  0.2917 -0.4830
  647SOL     MW 2588   2.711   0.507   3.033  0.3496 -0.0983 -0.1195
  648SOL     OW 2589   2.269   0.703   1.094 -0.4998 -0.4369 -0.0238
  648SOL    HW1 2590   2.220   0.640   1.152  0.3440 -2.9122  2.3035
  648SOL    HW2 2591   2.269   0.785   1.146 -0.1151  0.8637 -0.1952
  648SOL     MW 2592   2.263   0.706   1.108 -0.3377 -0.5919  0.2606
  649SOL     OW 2593   2.438   2.716   1.240  0.1358 -0.5413 -0.2548
  649SOL    HW1 2594   2.522   2.766   1.252  2.0947 -0.0604  1.3894
  649SOL    HW2 2595   2.463   2.644   1.181  0.9146  1.3464 -0.1210
  649SOL     MW 2596   2.453   2.713   1.234  0.4970 -0.2288 -0.0202
  650SOL     OW 2597   2.767   0.220   0.664 -0.1057  0.2776  0.2883
  650SOL    HW1 2598   2.739   0.309   0.677  0.2374  0.3392 -1.1501
  650SOL    HW2 2599   2.858   0.227   0.627  0.4953 -1.2306 -0.1369
  650SOL     MW 2600   2.776   0.232   0.661  0.0189  0.0867  0.0424
  651SOL     OW 2601   0.022   0.458   1.017  0.2968 -0.0307  0.3623
  651SOL    HW1 2602   0.089   0.501   0.961 -0.4869  0.8825  1.0600
  651SOL    HW2 2603  -0.040   0.534   1.040  1.2445  2.6412 -0.7820
  651SOL     MW 2604   0.022   0.474   1.013  0.3184  0.4423  0.3033
  652SOL     OW 2605   2.348   1.406   3.000  0.3974  0.0306  0.2141
  652SOL    HW1 2606   2.390   1.436   2.918 -0.0304 -1.7991 -1.2523
  652SOL    HW2 2607   2.283   1.477   3.021  1.8988 -1.8932 -1.3829
  652SOL     MW 2608   2.345   1.419   2.992  0.5391 -0.4646 -0.1901
  653SOL     OW 2609   1.809   0.394   0.300  0.6827 -0.4834 -0.1674
  653SOL    HW1 2610   1.805   0.306   0.267  1.4467 -0.8420  2.5338
  653SOL    HW2 2611   1.880   0.442   0.257  0.1379  0.5547 -1.6555
  653SOL     MW 2612   1.818   0.389   0.290  0.7116 -0.3937 -0.0073
  654SOL     OW 2613   2.422   0.960   0.754  0.3999  0.3896  0.2900
  654SOL    HW1 2614   2.356   0.950   0.678 -1.0799  1.0797  1.0924
  654SOL    HW2 2615   2.473   0.877   0.742  0.3907  0.9790  2.1936
  654SOL     MW 2616   2.420   0.948   0.742  0.2035  0.5585  0.6470
  655SOL     OW 2617   2.911   0.886   0.407 -0.1328 -0.3094  0.6820
  655SOL    HW1 2618   2.898   0.933   0.490 -0.0676 -0.4025  1.0626
  655SOL    HW2 2619   2.939   0.795   0.425  1.0757 -1.4089  0.8342
  655SOL     MW 2620   2.913   0.880   0.420  0.0353 -0.4667  0.7523
  656SOL     OW 2621   1.786   2.642   1.396  0.4480 -0.4313  0.6271
  656SOL    HW1 2622   1.789   2.737   1.380 -0.7298 -1.3022 -1.0638
  656SOL    HW2 2623   1.862   2.608   1.351 -0.1475 -1.9184 -2.3005
  656SOL     MW 2624   1.796   2.650   1.388  0.2141 -0.7424  0.0178
  657SOL     OW 2625   0.105   1.805   1.214 -0.4308  0.4930  0.7505
  657SOL    HW1 2626   0.191   1.838   1.192 -2.6016 -0.5090 -0.5589
  657SOL    HW2 2627   0.110   1.710   1.227 -3.6990  1.7458  0.9734
  657SOL     MW 2628   0.117   1.796   1.212 -1.1484  0.5261  0.6071
  658SOL     OW 2629   2.733   1.328   0.253  0.4434  0.0778 -0.4048
  658SOL    HW1 2630   2.692   1.248   0.292 -0.0127  4.3028 -0.2073
  658SOL    HW2 2631   2.738   1.391   0.328 -1.4898 -1.2821  3.3954
  658SOL     MW 2632   2.728   1.325   0.268  0.1282  0.4558  0.1226
  659SOL     OW 2633   2.188   1.531   1.017 -0.0514 -0.4678  0.0276
  659SOL    HW1 2634   2.262   1.493   1.071  1.7181  0.1573  1.3768
  659SOL    HW2 2635   2.174   1.621   1.055 -2.0849 -0.6028  0.8987
  659SOL     MW 2636   2.196   1.538   1.029 -0.0863 -0.4031  0.3206
  660SOL     OW 2637   2.087   1.457   1.689  0.3572  0.6030 -0.3028
  660SOL    HW1 2638   2.083   1.469   1.784  0.9520  1.0641  3.0220
  660SOL    HW2 2639   2.001   1.431   1.652 -1.0832 -1.2950  1.9725
  660SOL     MW 2640   2.075   1.455   1.697  0.2456  0.4134  0.4361
  661SOL     OW 2641   2.416   0.983   0.223 -0.1878  0.0392 -0.2334
  661SOL    HW1 2642   2.497   1.024   0.244  0.5196  0.7119 -0.0887
  661SOL    HW2 2643   2.434   0.887   0.244  0.4416 -4.0081  3.6287
  661SOL     MW 2644   2.429   0.976   0.229 -0.0114 -0.4061  0.2952
  662SOL     OW 2645   2.587   2.955   0.878 -0.0688  0.2955  0.2191
  662SOL    HW1 2646   2.532   3.028   0.905 -3.2033  0.8494 -1.0334
  662SOL    HW2 2647   2.612   2.977   0.783  2.0061  0.6166 -0.1569
  662SOL     MW 2648   2.583   2.968   0.869 -0.2086  0.4110  0.0042
  663SOL     OW 2649   2.681   1.530   0.443 -0.1667 -0.2061  0.3193
  663SOL    HW1 2650   2.666   1.610   0.393  0.7887 -1.9466 -0.3909
  663SOL    HW2 2651   2.759   1.556   0.496  1.9545  0.3646  1.0713
  663SOL     MW 2652   2.689   1.544   0.443  0.2392 -0.3604  0.3248
  664SOL     OW 2653   2.544   1.531   1.607  0.5377 -0.6875 -0.1342
  664SOL    HW1 2654   2.543   1.612   1.553 -2.5284 -3.6332 -0.7279
  664SOL    HW2 2655   2.458   1.500   1.611  0.1736 -2.2921  1.0628
  664SOL     MW 2656   2.533   1.537   1.600  0.0851 -1.2878 -0.0546
  665SOL     OW 2657   2.801   0.772   2.076  0.5025  0.2697  0.3211
  665SOL    HW1 2658   2.808   0.844   2.008 -0.8476  0.6796  1.7226
  665SOL    HW2 2659   2.889   0.728   2.076  1.3037 -0.5750 -2.5944
  665SOL     MW 2660   2.813   0.776   2.067  0.4301  0.2124  0.1213
  666SOL     OW 2661   2.751   3.032   1.700 -0.2901 -0.1914 -0.2758
  666SOL    HW1 2662   2.777   3.020   1.607  1.9952 -1.3969 -0.4576
  666SOL    HW2 2663   2.714   2.946   1.723 -3.7295 -0.1296  1.6615
  666SOL     MW 2664   2.749   3.019   1.691 -0.4423 -0.3423 -0.0442
  667SOL     OW 2665   2.003   2.696   1.764 -0.7470  0.2117 -0.4246
  667SOL    HW1 2666   2.031   2.673   1.855 -1.3033 -0.4489 -1.2435
  667SOL    HW2 2667   2.072   2.756   1.724  0.0639  1.3135  1.4569
  667SOL     MW 2668   2.016   2.701   1.771 -0.7134  0.2699 -0.2844
  668SOL     OW 2669   2.762   0.544   0.826 -0.3307 -0.3079  0.1061
  668SOL    HW1 2670   2.815   0.596   0.893  2.7266  1.1416  3.1277
  668SOL    HW2 2671   2.678   0.589   0.833 -0.1756 -4.6922  1.6418
  668SOL     MW 2672   2.758   0.557   0.836  0.0931 -0.6951  0.7074
  669SOL     OW 2673   0.167   0.935   0.750 -0.3667  0.6924 -0.9493
  669SOL    HW1 2674   0.109   0.984   0.802  1.3958  2.0292  0.7106
  669SOL    HW2 2675   0.246   0.946   0.801 -1.5916  1.8302 -1.3828
  669SOL     MW 2676   0.170   0.943   0.763 -0.2957  1.0189 -0.7875
  670SOL     OW 2677   2.898   0.317   0.204  0.4796 -0.3719 -0.4753
  670SOL    HW1 2678   2.920   0.267   0.122 -2.9301  2.6195 -3.2911
  670SOL    HW2 2679   2.923   0.411   0.182 -2.0500 -0.3497 -0.6793
  670SOL     MW 2680   2.904   0.323   0.190 -0.3041  0.0257 -0.8737
  671SOL     OW 2681   2.007   3.027   1.560  0.4103  0.0683 -0.2481
  671SOL    HW1 2682   1.957   2.987   1.489 -0.3807  1.2495  1.2262
  671SOL    HW2 2683   1.949   3.026   1.638  1.5450  2.0925 -0.4284
  671SOL     MW 2684   1.993   3.021   1.561  0.4557  0.4912 -0.0774
  672SOL     OW 2685   1.806   1.743   1.272 -0.1570  0.1108  0.0265
  672SOL    HW1 2686   1.831   1.813   1.333  2.7979  1.3078 -0.2393
  672SOL    HW2 2687   1.881   1.756   1.212 -0.9075  0.0779  0.0490
  672SOL     MW 2688   1.819   1.754   1.272  0.1338  0.2644 -0.0056
  673SOL     OW 2689   2.752   1.071   0.606 -0.6221  1.0126 -1.0947
  673SOL    HW1 2690   2.785   1.001   0.661  1.3137  1.2662 -1.8289
  673SOL    HW2 2691   2.825   1.137   0.600 -0.6187 -1.9505  0.8458
  673SOL     MW 2692   2.766   1.070   0.613 -0.3663  0.6551 -0.9355
  674SOL     OW 2693   2.471   0.009   1.262  0.5298  0.6402 -0.2759
  674SOL    HW1 2694   2.430  -0.012   1.176 -0.1486 -0.8169  0.6804
  674SOL    HW2 2695   2.511  -0.071   1.299 -1.2327  0.7242  1.2786
  674SOL     MW 2696   2.471  -0.004   1.255  0.2078  0.4590  0.0554
  675SOL     OW 2697   2.959   0.933   1.043  0.8377 -0.0812  0.2367
  675SOL    HW1 2698   3.028   0.939   1.108  0.4512  0.0388  1.2708
  675SOL    HW2 2699   2.988   0.996   0.973 -2.0239 -0.6020  1.7746
  675SOL     MW 2700   2.972   0.942   1.043  0.4091 -0.1341  0.5760
  676SOL     OW 2701   2.938   1.465   1.691 -0.7074  0.8004  0.0614
  676SOL    HW1 2702   2.879   1.395   1.661  0.7298 -0.4871 -1.4150
  676SOL    HW2 2703   2.950   1.422   1.773  1.7225 -1.2939  2.5164
  676SOL     MW 2704   2.932   1.450   1.698 -0.1972  0.3542  0.1905
  677SOL     OW 2705   2.372   0.544   2.046 -0.3684 -0.6397 -0.0370
  677SOL    HW1 2706   2.339   0.494   1.969  0.8085  1.5889 -0.4767
  677SOL    HW2 2707   2.348   0.638   2.026 -0.5684  0.4769 -2.3069
  677SOL     MW 2708   2.365   0.550   2.033 -0.2395 -0.1984 -0.3945
  678SOL     OW 2709   2.441   1.663   0.294 -1.1095  0.4323 -0.4265
  678SOL    HW1 2710   2.348   1.686   0.323 -0.2229  1.0401  0.3693
  678SOL    HW2 2711   2.447   1.564   0.269  0.6088 -1.3875 -0.5576
  678SOL     MW 2712   2.429   1.653   0.295 -0.7658  0.2724 -0.3388
  679SOL     OW 2713   2.244   0.442   1.253 -0.0851 -0.3186 -0.6694
  679SOL    HW1 2714   2.249   0.347   1.242  2.0548  0.1863 -0.8078
  679SOL    HW2 2715   2.175   0.439   1.324  4.1588 -1.2425  3.2892
  679SOL     MW 2716   2.235   0.429   1.261  0.7571 -0.3739 -0.1654
  680SOL     OW 2717   2.307   0.151   1.473 -0.0727 -0.4468 -0.3680
  680SOL    HW1 2718   2.216   0.147   1.452 -0.7747 -1.0773 -2.0016
  680SOL    HW2 2719   2.347   0.119   1.387 -0.5489 -0.7438  1.3683
  680SOL     MW 2720   2.300   0.146   1.459 -0.2282 -0.5692 -0.3544
  681SOL     OW 2721   0.230   0.543   1.492  0.3089 -0.0782  0.1968
  681SOL    HW1 2722   0.233   0.462   1.535 -1.5776 -0.6645 -0.4141
  681SOL    HW2 2723   0.193   0.518   1.402 -0.0725 -0.8020 -1.5455
  681SOL     MW 2724   0.226   0.529   1.486  0.0097 -0.2511 -0.1137
  682SOL     OW 2725   0.127   2.875   1.515 -0.5965  0.2049 -0.5830
  682SOL    HW1 2726   0.200   2.932   1.542  0.2485  0.7102  1.4924
  682SOL    HW2 2727   0.054   2.917   1.566 -0.7160 -1.9623 -0.5030
  682SOL     MW 2728   0.127   2.888   1.525 -0.5008 -0.0144 -0.2987
  683SOL     OW 2729   2.082   0.839   2.979 -0.5061  0.3089 -0.0536
  683SOL    HW1 2730   2.020   0.774   3.013  3.9972  0.2377  1.0174
  683SOL    HW2 2731   2.051   0.922   3.014 -1.2496  0.5720 -0.6680
  683SOL     MW 2732   2.070   0.841   2.988 -0.0100  0.3342  0.0066
  684SOL     OW 2733   2.169   1.690   0.688 -0.9193  0.2974 -0.1193
  684SOL    HW1 2734   2.157   1.689   0.589  1.3251 -0.2743  0.1707
  684SOL    HW2 2735   2.142   1.606   0.728 -1.3328 -0.4829  0.0928
  684SOL     MW 2736   2.164   1.679   0.680 -0.6777  0.1190 -0.0530
  685SOL     OW 2737   2.725   1.656   1.190  0.0912  0.0498 -0.2483
  685SOL    HW1 2738   2.757   1.679   1.276 -2.2015 -1.0852 -1.6460
  685SOL    HW2 2739   2.710   1.562   1.201  2.2780  1.1688  1.2064
  685SOL     MW 2740   2.727   1.647   1.203  0.0772  0.0477 -0.2408
  686SOL     OW 2741   2.876   0.705   1.539 -0.0974 -0.5895  1.1474
  686SOL    HW1 2742   2.876   0.654   1.623 -0.3139  1.3594  2.1494
  686SOL    HW2 2743   2.970   0.716   1.524  3.6301 -0.9508  0.8883
  686SOL     MW 2744   2.888   0.700   1.548  0.3658 -0.3800  1.2454
  687SOL     OW 2745   2.142   0.153   1.174  0.4556  0.4087 -0.0148
  687SOL    HW1 2746   2.220   0.135   1.118  0.7362  3.3470 -1.7332
  687SOL    HW2 2747   2.072   0.206   1.119 -1.6423  1.0052 -0.3481
  687SOL     MW 2748   2.143   0.158   1.159  0.2159  0.8750 -0.2855
  688SOL     OW 2749   2.386   0.609   1.422 -0.3264 -0.1679 -0.7131
  688SOL    HW1 2750   2.353   0.546   1.362 -0.9679  0.0106  1.0880
  688SOL    HW2 2751   2.311   0.631   1.478  2.6511 -1.8457  0.5306
  688SOL     MW 2752   2.372   0.603   1.422 -0.0182 -0.3657 -0.3114
  689SOL     OW 2753   2.459   0.754   2.961 -0.1404  0.7709 -0.4008
  689SOL    HW1 2754   2.458   0.839   3.005 -2.8023 -0.2071 -0.3920
  689SOL    HW2 2755   2.544   0.721   2.987  0.6311  1.0977 -2.3553
  689SOL     MW 2756   2.470   0.761   2.970 -0.3898  0.6849 -0.6575
  690SOL     OW 2757   2.040   0.897   1.885 -0.5699  0.5312  0.1602
  690SOL    HW1 2758   2.003   0.811   1.901  0.3398  2.6873  1.0445
  690SOL    HW2 2759   2.039   0.906   1.788  0.3511 -2.8532  1.1819
  690SOL     MW 2760   2.035   0.887   1.875 -0.3284  0.3691  0.4117
  691SOL     OW 2761   2.417   0.226   0.849  0.2404  0.5562  0.1219
  691SOL    HW1 2762   2.481   0.279   0.899  0.1895 -2.3344 -2.1173
  691SOL    HW2 2763   2.340   0.284   0.838 -0.3183  1.1584  2.1727
  691SOL     MW 2764   2.416   0.241   0.854  0.1599  0.2543  0.0971
  692SOL     OW 2765   2.882   1.599   1.412 -0.1635 -0.0748 -0.5561
  692SOL    HW1 2766   2.893   1.564   1.500 -0.3425 -0.3234 -2.7040
  692SOL    HW2 2767   2.892   1.694   1.422  1.3954 -1.2872  0.1379
  692SOL     MW 2768   2.885   1.607   1.425  0.0185 -0.2675 -0.7480
  693SOL     OW 2769   2.320   0.443   0.107 -0.1924 -0.3928 -0.1597
  693SOL    HW1 2770   2.250   0.392   0.064 -0.2285  0.2425 -2.1079
  693SOL    HW2 2771   2.310   0.533   0.077  2.2506 -1.5583  0.4293
  693SOL     MW 2772   2.309   0.448   0.098  0.1252 -0.4627 -0.3391
  694SOL     OW 2773   1.909   1.112   1.060 -0.1068  0.1416  0.4987
  694SOL    HW1 2774   1.997   1.120   1.114  0.5728 -0.7971  0.5507
  694SOL    HW2 2775   1.853   1.046   1.109 -2.3909 -2.7741 -0.6647
  694SOL     MW 2776   1.913   1.104   1.074 -0.3185 -0.3670  0.3520
  695SOL     OW 2777   2.991   1.374   1.292 -0.5919 -0.1831  0.3244
  695SOL    HW1 2778   2.974   1.392   1.201  0.2986 -0.2460 -2.1234
  695SOL    HW2 2779   2.966   1.466   1.332 -2.3773 -1.1000  1.6828
  695SOL     MW 2780   2.985   1.389   1.285 -0.7099 -0.3124  0.1807
  696SOL     OW 2781   2.099   1.446   0.758 -0.0896 -0.1406 -0.3349
  696SOL    HW1 2782   2.136   1.466   0.840  0.4997 -0.3976 -1.6074
  696SOL    HW2 2783   2.047   1.371   0.787  2.2437  1.3428 -0.7800
  696SOL     MW 2784   2.097   1.439   0.773  0.2960  0.0212 -0.5615
  697SOL     OW 2785   2.861   0.978   2.260  0.1230 -0.0609 -0.0247
  697SOL    HW1 2786   2.795   1.050   2.237  2.9067 -0.4098 -0.6385
  697SOL    HW2 2787   2.836   0.893   2.214  0.5678 -0.8209  0.3732
  697SOL     MW 2788   2.849   0.976   2.250  0.5490 -0.2072 -0.0532
  698SOL     OW 2789   2.561   0.296   0.012  0.6034 -0.9136  0.0760
  698SOL    HW1 2790   2.483   0.350   0.034  0.3378 -0.0549  0.5452
  698SOL    HW2 2791   2.604   0.287   0.104  0.4531  0.5571  1.8523
  698SOL     MW 2792   2.556   0.302   0.027  0.5486 -0.6063  0.3722
  699SOL     OW 2793   1.903   1.625   2.095  0.4957  0.5486 -0.2210
  699SOL    HW1 2794   1.876   1.543   2.063  3.4030 -1.8200  0.5363
  699SOL    HW2 2795   1.996   1.616   2.077  1.5738 -4.8613  2.8258
  699SOL     MW 2796   1.912   1.613   2.089  1.0215 -0.4777  0.2809
  700SOL     OW 2797   2.701   0.892   1.600  0.5962 -0.2093 -0.7030
  700SOL    HW1 2798   2.704   0.959   1.526  0.8619  0.3041 -0.2170
  700SOL    HW2 2799   2.777   0.831   1.581  0.5664 -1.3307 -0.9032
  700SOL     MW 2800   2.712   0.893   1.588  0.6274 -0.2896 -0.6653
  701SOL     OW 2801   1.689   1.166   2.501 -0.4509 -0.0934  0.1155
  701SOL    HW1 2802   1.782   1.157   2.500 -1.0355  2.0062  0.6062
  701SOL    HW2 2803   1.655   1.233   2.561 -0.6169 -0.2167 -2.3857
  701SOL     MW 2804   1.697   1.173   2.509 -0.5499  0.1674 -0.1498
  702SOL     OW 2805   2.143   0.413   0.838  0.5173  0.6445 -0.3467
  702SOL    HW1 2806   2.124   0.345   0.772  1.1771 -0.9764  0.6217
  702SOL    HW2 2807   2.198   0.477   0.796 -1.3118  0.4714  0.8700
  702SOL     MW 2808   2.148   0.412   0.824  0.3630  0.4078 -0.0584
  703SOL     OW 2809   2.727   1.247   0.997 -0.1143 -0.4018 -0.5604
  703SOL    HW1 2810   2.662   1.236   0.930  0.9607 -1.0096  0.3168
  703SOL    HW2 2811   2.727   1.162   1.042  1.5280  1.6939 -0.1202
  703SOL     MW 2812   2.718   1.234   0.994  0.2442 -0.2055 -0.3866
  704SOL     OW 2813   3.033   1.275   0.154  0.1793 -0.1135  0.3206
  704SOL    HW1 2814   2.951   1.234   0.129 -1.3611 -0.6776 -1.0699
  704SOL    HW2 2815   3.039   1.264   0.253  0.0649  1.3153  1.2158
  704SOL     MW 2816   3.023   1.268   0.164 -0.0390  0.0006  0.2552
  705SOL     OW 2817   2.144   1.614   1.282 -0.8773 -0.3901  0.2990
  705SOL    HW1 2818   2.092   1.633   1.365  0.1440  1.1391  0.1352
  705SOL    HW2 2819   2.162   1.524   1.289 -2.1143 -0.5145  0.6888
  705SOL     MW 2820   2.140   1.605   1.294 -0.9058 -0.2048  0.3288
  706SOL     OW 2821   2.935   1.259   0.628  0.2128 -0.0288  0.0718
  706SOL    HW1 2822   2.999   1.247   0.557  0.9059 -0.6874  1.2048
  706SOL    HW2 2823   2.946   1.359   0.645  2.2405 -1.9139 -3.0765
  706SOL     MW 2824   2.945   1.270   0.621  0.5718 -0.3644 -0.1941
  707SOL     OW 2825   2.339   0.024   1.007 -0.3145 -0.6017 -0.4058
  707SOL    HW1 2826   2.368   0.096   0.947  2.9608 -3.3418  1.2167
  707SOL    HW2 2827   2.262  -0.009   0.957  2.8225  0.3673 -1.8223
  707SOL     MW 2828   2.333   0.029   0.992  0.5315 -0.8354 -0.3786
  708SOL     OW 2829   2.448   1.396   0.178  0.4335 -0.2889 -0.6067
  708SOL    HW1 2830   2.544   1.381   0.164  0.5193 -1.2855  0.1342
  708SOL    HW2 2831   2.412   1.432   0.099  1.3398  2.2648  1.7035
  708SOL     MW 2832   2.456   1.399   0.166  0.5644 -0.0835 -0.2041
  709SOL     OW 2833   1.720   1.631   0.213 -0.5076  0.1160  0.2550
  709SOL    HW1 2834   1.735   1.667   0.125 -1.3279 -1.3433 -0.2836
  709SOL    HW2 2835   1.629   1.637   0.218  0.5351 -2.1359 -3.1009
  709SOL     MW 2836   1.710   1.636   0.202 -0.4783 -0.3737 -0.2588
  710SOL     OW 2837   2.142   1.167   1.162 -0.1586  0.5847 -0.2844
  710SOL    HW1 2838   2.176   1.143   1.072 -3.7353 -2.2372  0.6357
  710SOL    HW2 2839   2.193   1.099   1.212  1.9055 -1.1896  0.7245
  710SOL     MW 2840   2.153   1.155   1.157 -0.3582 -0.0217 -0.0299
  711SOL     OW 2841   2.345   0.107   1.791  0.5251  0.4964  0.6027
  711SOL    HW1 2842   2.435   0.118   1.816 -1.3677  0.0980 -1.2873
  711SOL    HW2 2843   2.342   0.112   1.694  1.3444  2.8830 -0.8099
  711SOL     MW 2844   2.357   0.109   1.782  0.3834  0.7587  0.1669
  712SOL     OW 2845   1.922   0.629   3.067 -0.7187 -0.1299  0.2415
  712SOL    HW1 2846   1.841   0.628   3.021 -0.6532 -2.1608 -1.0824
  712SOL    HW2 2847   1.909   0.653   3.159 -0.2199  0.6759 -2.4153
  712SOL     MW 2848   1.910   0.632   3.073 -0.6442 -0.2916 -0.2837
  713SOL     OW 2849   2.544   0.710   1.087  0.2401 -0.3133 -0.0614
  713SOL    HW1 2850   2.560   0.674   1.176  1.7926 -0.4254  1.5528
  713SOL    HW2 2851   2.452   0.717   1.087  2.2040  2.9859  1.7556
  713SOL     MW 2852   2.534   0.706   1.099  0.7040  0.1072  0.3913
  714SOL     OW 2853   2.197   0.188   1.999  0.2211  0.9645  0.0582
  714SOL    HW1 2854   2.253   0.160   2.074 -1.3355  0.5371 -0.3838
  714SOL    HW2 2855   2.249   0.169   1.914  0.5256 -1.4976 -1.6297
  714SOL     MW 2856   2.211   0.181   1.998  0.0559  0.5833 -0.2228
  715SOL     OW 2857   1.823   2.045   1.740 -0.2060  0.2945  0.2476
  715SOL    HW1 2858   1.902   2.084   1.712 -1.1731  0.1733  0.5598
  715SOL    HW2 2859   1.836   1.965   1.798 -0.6731 -0.7187  0.1668
  715SOL     MW 2860   1.835   2.040   1.744 -0.3952  0.1448  0.2781
  716SOL     OW 2861   2.327   0.546   0.656 -0.0940 -0.0759 -0.2060
  716SOL    HW1 2862   2.361   0.473   0.603 -0.8077  2.0856  0.7108
  716SOL    HW2 2863   2.291   0.602   0.581  1.1349 -1.2909 -3.1831
  716SOL     MW 2864   2.327   0.544   0.639 -0.0260  0.0490 -0.4778
  717SOL     OW 2865   2.813   1.645   2.894  0.2836 -0.2529  0.4372
  717SOL    HW1 2866   2.897   1.608   2.925  1.2762 -0.5896  0.6781
  717SOL    HW2 2867   2.766   1.716   2.954 -0.2159  0.6749 -2.8850
  717SOL     MW 2868   2.818   1.650   2.906  0.3486 -0.1749  0.0307
  718SOL     OW 2869   2.674   1.396   1.321  0.5002 -0.2347  0.2808
  718SOL    HW1 2870   2.681   1.412   1.415 -1.1456 -1.7463  1.5465
  718SOL    HW2 2871   2.743   1.339   1.297 -1.2745 -0.6011 -0.2406
  718SOL     MW 2872   2.684   1.391   1.330  0.0489 -0.4825  0.3790
  719SOL     OW 2873   2.182   1.235   0.572  0.1841  0.4043  0.0114
  719SOL    HW1 2874   2.262   1.267   0.531  0.7113  0.8636  1.8031
  719SOL    HW2 2875   2.153   1.305   0.643 -0.7008  0.4079  0.7976
  719SOL     MW 2876   2.189   1.249   0.576  0.1369  0.4654  0.3516
  720SOL     OW 2877   2.783   1.150   0.047 -0.2089  0.1227 -0.0976
  720SOL    HW1 2878   2.792   1.063   0.091  2.5976 -0.0931 -0.8217
  720SOL    HW2 2879   2.754   1.218   0.114 -1.8991 -0.7486 -1.4739
  720SOL     MW 2880   2.781   1.147   0.061 -0.0616 -0.0207 -0.3747
  721SOL     OW 2881   2.488   0.867   1.409  0.0519 -0.6627 -0.3118
  721SOL    HW1 2882   2.454   0.779   1.397  0.1921  0.8987 -1.4467
  721SOL    HW2 2883   2.532   0.856   1.486 -2.9158 -0.4283 -1.3116
  721SOL     MW 2884   2.489   0.854   1.417 -0.3212 -0.4258 -0.5934
  722SOL     OW 2885   2.609   1.119   0.370  0.0307 -0.0261  0.3135
  722SOL    HW1 2886   2.547   1.171   0.406  1.3307 -1.9437  1.1308
  722SOL    HW2 2887   2.649   1.076   0.449  0.3418  1.9430 -0.4530
  722SOL     MW 2888   2.606   1.120   0.385  0.2433 -0.0193  0.3202
  723SOL     OW 2889   2.323   1.365   1.593 -0.0912  0.1468 -0.1433
  723SOL    HW1 2890   2.308   1.345   1.500 -1.7695 -3.1025 -0.1714
  723SOL    HW2 2891   2.238   1.400   1.623 -1.2119 -4.0865 -0.5453
  723SOL     MW 2892   2.310   1.367   1.584 -0.4605 -0.8404 -0.2001
  724SOL     OW 2893   2.473   0.322   0.589  0.4570 -0.2576  0.1981
  724SOL    HW1 2894   2.461   0.263   0.662 -1.9950  0.5073  0.4272
  724SOL    HW2 2895   2.547   0.298   0.536  0.6505 -1.4356  0.0782
  724SOL     MW 2896   2.481   0.311   0.592  0.1590 -0.3121  0.2125
  725SOL     OW 2897   2.594   0.418   1.223 -0.2185  0.1417 -0.0081
  725SOL    HW1 2898   2.668   0.468   1.250 -0.6615  0.5977 -1.3087
  725SOL    HW2 2899   2.604   0.336   1.268  1.6088  0.6729 -1.7024
  725SOL     MW 2900   2.605   0.414   1.232 -0.0359  0.2719 -0.4033
  726SOL     OW 2901   2.525   2.512   0.534  0.3240  0.3263 -0.2239
  726SOL    HW1 2902   2.484   2.596   0.505 -0.5033  3.0289  3.5564
  726SOL    HW2 2903   2.496   2.496   0.626  1.0481  0.1121 -0.3980
  726SOL     MW 2904   2.516   2.521   0.542  0.3104  0.6546  0.2519
  727SOL     OW 2905   2.849   0.340   1.770 -0.0671  0.1880 -0.3691
  727SOL    HW1 2906   2.801   0.280   1.710 -0.3536 -3.6483  0.3572
  727SOL    HW2 2907   2.809   0.342   1.862  1.6309  0.4785 -0.1404
  727SOL     MW 2908   2.838   0.333   1.774  0.1192 -0.2798 -0.2431
  728SOL     OW 2909   2.846   1.153   2.856  0.2649  0.3511 -0.2043
  728SOL    HW1 2910   2.840   1.234   2.797 -0.1199 -0.2958  2.2930
  728SOL    HW2 2911   2.812   1.184   2.939 -0.7820  0.5284  0.7877
  728SOL     MW 2912   2.841   1.168   2.859  0.0760  0.2892  0.2561
  729SOL     OW 2913   2.443   1.463   1.166 -0.3499 -0.2756  0.0395
  729SOL    HW1 2914   2.508   1.439   1.232 -1.2944  0.0098 -1.2864
  729SOL    HW2 2915   2.482   1.453   1.077 -1.2858  1.8183 -1.0913
  729SOL     MW 2916   2.457   1.458   1.163 -0.5980  0.0383 -0.2846
  730SOL     OW 2917   2.254   1.184   0.293 -1.0584  0.2781  0.3689
  730SOL    HW1 2918   2.316   1.121   0.256  0.7072 -0.7459 -0.9061
  730SOL    HW2 2919   2.300   1.270   0.279 -0.0283  1.2639 -0.8006
  730SOL     MW 2920   2.268   1.187   0.287 -0.6895  0.2731  0.0463
  731SOL     OW 2921   2.792   2.069   2.870  0.1382  0.0472 -0.0118
  731SOL    HW1 2922   2.735   2.056   2.795 -2.0800  1.0648 -0.0551
  731SOL    HW2 2923   2.876   2.032   2.858 -1.2018 -0.6147 -0.0227
  731SOL     MW 2924   2.795   2.062   2.858 -0.3313  0.0941 -0.0189
  732SOL     OW 2925   2.230   0.939   1.331 -0.3985  0.7970 -0.5395
  732SOL    HW1 2926   2.202   0.935   1.422 -2.0433  3.0852  1.6704
  732SOL    HW2 2927   2.321   0.925   1.349 -0.2126  0.5738 -0.4236
  732SOL     MW 2928   2.238   0.937   1.346 -0.5910  1.0695 -0.2326
  733SOL     OW 2929   2.411   2.823   3.022 -0.9112  0.0449 -0.2165
  733SOL    HW1 2930   2.331   2.880   3.035 -1.4179 -2.2663  1.8110
  733SOL    HW2 2931   2.383   2.730   3.028  0.4595 -0.3247  0.6914
  733SOL     MW 2932   2.397   2.818   3.024 -0.7972 -0.3088  0.1708
  734SOL     OW 2933   1.515   0.281   2.536  0.5343 -0.5162 -0.2469
  734SOL    HW1 2934   1.472   0.237   2.611  0.8785 -0.2893  2.4231
  734SOL    HW2 2935   1.554   0.208   2.484 -1.0318 -0.0832 -1.4083
  734SOL     MW 2936   1.515   0.265   2.539  0.3731 -0.4292 -0.0478
  735SOL     OW 2937   2.937   0.912   2.649  0.1051  0.6562  0.6329
  735SOL    HW1 2938   2.943   0.815   2.632 -0.3477  1.5631 -1.8628
  735SOL    HW2 2939   2.979   0.934   2.734  0.0297  1.2326  0.1130
  735SOL     MW 2940   2.944   0.902   2.658  0.0354  0.8519  0.2350
  736SOL     OW 2941   0.080   0.633   2.577 -0.0069 -0.1706  0.2846
  736SOL    HW1 2942   0.095   0.702   2.506 -0.4088 -0.8297 -1.5162
  736SOL    HW2 2943   0.071   0.558   2.523 -0.9900 -0.1281  2.6235
  736SOL     MW 2944   0.081   0.632   2.560 -0.1897 -0.2519  0.3556
  737SOL     OW 2945   2.921   0.647   2.644  0.1702  0.1596 -0.0672
  737SOL    HW1 2946   2.881   0.600   2.573 -0.7186  0.3754 -0.8176
  737SOL    HW2 2947   3.013   0.645   2.623 -1.2461  2.1509 -0.0863
  737SOL     MW 2948   2.928   0.640   2.632 -0.1340  0.4508 -0.1687
  738SOL     OW 2949   0.209   0.596   1.915 -0.2857 -0.0578 -0.3817
  738SOL    HW1 2950   0.301   0.621   1.902  0.9744  0.4181 -0.8084
  738SOL    HW2 2951   0.196   0.517   1.859  1.6886 -1.5179  1.8973
  738SOL     MW 2952   0.220   0.589   1.906  0.1411 -0.1877 -0.1373
  739SOL     OW 2953   2.482   1.016   2.069 -0.3505 -0.0196  0.2169
  739SOL    HW1 2954   2.407   0.997   2.014  1.9390 -0.3314  1.8558
  739SOL    HW2 2955   2.547   1.032   2.005 -1.8816  0.4040 -1.0580
  739SOL     MW 2956   2.481   1.015   2.053 -0.2505 -0.0049  0.2649
  740SOL     OW 2957   0.155   1.797   2.919 -0.5301  0.8799  0.0508
  740SOL    HW1 2958   0.119   1.709   2.928  0.0655 -0.0248 -1.5522
  740SOL    HW2 2959   0.246   1.790   2.955 -2.9967 -0.6790  1.2181
  740SOL     MW 2960   0.162   1.785   2.925 -0.7770  0.5549 -0.0067
  741SOL     OW 2961   2.208   1.186   2.716  0.4871 -0.2717  0.0988
  741SOL    HW1 2962   2.147   1.240   2.669  0.3141 -1.4399  1.7266
  741SOL    HW2 2963   2.186   1.205   2.813 -0.3656 -0.1601 -0.0818
  741SOL     MW 2964   2.197   1.196   2.723  0.3517 -0.4111  0.2897
  742SOL     OW 2965   1.696   1.254   2.226  0.3614  0.1525  0.6305
  742SOL    HW1 2966   1.612   1.209   2.206 -0.8666 -0.5110  0.7081
  742SOL    HW2 2967   1.714   1.241   2.320  0.0122 -2.8222  0.2440
  742SOL     MW 2968   1.687   1.246   2.236  0.1533 -0.3275  0.5898
  743SOL     OW 2969   2.492   1.259   2.722  0.0711  0.1435 -0.3137
  743SOL    HW1 2970   2.429   1.232   2.663  0.8073  0.1496 -1.7238
  743SOL    HW2 2971   2.515   1.195   2.792  3.6835 -1.9951  0.9537
  743SOL     MW 2972   2.487   1.247   2.724  0.6449 -0.1379 -0.3325
  744SOL     OW 2973   2.786   0.926   1.845  0.4990  0.4445 -0.0972
  744SOL    HW1 2974   2.717   0.983   1.866 -0.6558  0.2806  1.6377
  744SOL    HW2 2975   2.782   0.915   1.749  0.4712 -1.2972  0.1831
  744SOL     MW 2976   2.776   0.932   1.835  0.3430  0.1931  0.1687
  745SOL     OW 2977   1.739   0.444   2.487 -0.3518  0.3624 -0.4217
  745SOL    HW1 2978   1.694   0.490   2.415 -0.5723 -0.7256 -0.4824
  745SOL    HW2 2979   1.662   0.411   2.535  0.0772  1.8440  0.4706
  745SOL     MW 2980   1.723   0.446   2.484 -0.3243  0.4143 -0.3120
  746SOL     OW 2981   1.606   1.464   1.653 -0.2174 -0.3350  0.2178
  746SOL    HW1 2982   1.694   1.424   1.639 -1.9860  1.1425 -1.6000
  746SOL    HW2 2983   1.573   1.428   1.735 -0.6522 -0.0500  1.7266
  746SOL     MW 2984   1.614   1.454   1.662 -0.5081 -0.1025  0.1770
  747SOL     OW 2985   2.579   1.127   1.802  0.2189 -0.5820 -0.2071
  747SOL    HW1 2986   2.492   1.099   1.762 -2.0933 -0.3026  2.5565
  747SOL    HW2 2987   2.565   1.215   1.836  0.8285  0.2491 -0.6737
  747SOL     MW 2988   2.565   1.135   1.801 -0.0057 -0.4355  0.0960
  748SOL     OW 2989   0.089  -0.001   1.914 -0.0722  0.0016  0.1949
  748SOL    HW1 2990   0.151   0.059   1.881 -1.0538 -1.2902 -0.2598
  748SOL    HW2 2991   0.090   0.027   2.006  1.3445  2.4649  3.3121
  748SOL     MW 2992   0.097   0.011   1.922 -0.0148  0.1562  0.5462
  749SOL     OW 2993   2.487   0.602   2.731  0.0272 -0.5260  0.2614
  749SOL    HW1 2994   2.491   0.677   2.668 -2.2349  1.3498  0.8273
  749SOL    HW2 2995   2.456   0.642   2.815 -2.3205 -0.6373 -1.7789
  749SOL     MW 2996   2.483   0.617   2.734 -0.5810 -0.2932  0.0669
  750SOL     OW 2997   2.058   3.054   1.963 -0.2042  0.5109 -0.0333
  750SOL    HW1 2998   2.099   3.137   1.980 -1.6758  0.3600  0.8005
  750SOL    HW2 2999   2.125   2.986   1.954  0.2725  0.3941 -0.6341
  750SOL     MW 3000   2.072   3.056   1.964 -0.3354  0.4756 -0.0026
  751SOL     OW 3001   0.076   0.399   2.371  0.4356  0.0209  0.2578
  751SOL    HW1 3002   0.106   0.322   2.423  1.9594  1.8258 -0.3080
  751SOL    HW2 3003   0.157   0.414   2.319  1.7245  0.2539 -0.8314
  751SOL     MW 3004   0.091   0.391   2.371  0.8067  0.2898  0.0394
  752SOL     OW 3005   2.133   0.751   2.715  0.1212 -0.0773  0.0137
  752SOL    HW1 3006   2.183   0.821   2.667 -0.9839  1.2460 -1.4968
  752SOL    HW2 3007   2.121   0.781   2.805  0.3896  2.4388 -0.8986
  752SOL     MW 3008   2.138   0.764   2.720  0.0108  0.4293 -0.3059
  753SOL     OW 3009   2.909   0.223   2.456 -0.1141  0.1059  0.0463
  753SOL    HW1 3010   2.877   0.168   2.384 -0.7401 -1.6248 -2.4279
  753SOL    HW2 3011   2.882   0.304   2.427 -1.0880 -1.2356 -0.0047
  753SOL     MW 3012   2.901   0.227   2.443 -0.3252 -0.2994 -0.2869
  754SOL     OW 3013   2.252   2.967   2.575 -0.6362 -0.1483 -0.0679
  754SOL    HW1 3014   2.247   2.952   2.482 -2.1730  0.2053 -0.7145
  754SOL    HW2 3015   2.315   2.910   2.629 -0.3855 -1.2965  2.0158
  754SOL     MW 3016   2.260   2.957   2.570 -0.8059 -0.2532  0.1217
  755SOL     OW 3017   2.745   1.510   2.468 -0.5840  0.4923  0.2339
  755SOL    HW1 3018   2.773   1.421   2.504 -0.1126 -1.3251  2.0791
  755SOL    HW2 3019   2.799   1.562   2.534  0.8669 -2.3883 -0.5459
  755SOL     MW 3020   2.756   1.505   2.481 -0.3303 -0.1276  0.3745
  756SOL     OW 3021   2.185   1.191   2.974 -0.1228 -0.5030 -0.3086
  756SOL    HW1 3022   2.236   1.271   3.011 -3.9940  0.8989  1.3468
  756SOL    HW2 3023   2.243   1.120   2.993  0.3706  0.1811 -1.0618
  756SOL     MW 3024   2.199   1.193   2.981 -0.5685 -0.2277 -0.1896
  757SOL     OW 3025   2.094   0.910   1.610  0.1506 -0.1241  0.6942
  757SOL    HW1 3026   2.139   0.822   1.604  1.8344  1.1742 -2.3389
  757SOL    HW2 3027   2.012   0.903   1.550  1.0505 -0.3636 -0.1827
  757SOL     MW 3028   2.089   0.897   1.601  0.4915  0.0156  0.1783
  758SOL     OW 3029   2.224   1.778   2.622 -0.1721  0.2185 -0.7452
  758SOL    HW1 3030   2.236   1.816   2.537 -1.2466 -0.7118  0.5902
  758SOL    HW2 3031   2.322   1.747   2.642  3.9375 -2.4496  1.0899
  758SOL     MW 3032   2.238   1.779   2.614  0.2283 -0.2562 -0.3269
  759SOL     OW 3033   1.558   1.355   2.660 -0.4731  0.1858 -0.0724
  759SOL    HW1 3034   1.548   1.440   2.616  0.8148 -0.0231  0.5544
  759SOL    HW2 3035   1.599   1.380   2.744 -0.7307  0.3828  2.2382
  759SOL     MW 3036   1.562   1.370   2.665 -0.3371  0.1842  0.3152
  760SOL     OW 3037   2.580   2.006   2.704 -0.4717 -0.1885 -0.0429
  760SOL    HW1 3038   2.536   1.926   2.683  0.9993 -1.0301 -1.4417
  760SOL    HW2 3039   2.571   2.074   2.633  3.3047 -1.1009  2.0096
  760SOL     MW 3040   2.573   2.005   2.692  0.2206 -0.4199  0.0434
  761SOL     OW 3041   2.184   0.362   2.425  0.2474 -0.2606  0.1430
  761SOL    HW1 3042   2.100   0.329   2.452 -1.9000 -0.6544 -0.9570
  761SOL    HW2 3043   2.216   0.401   2.508 -0.0307 -3.1217 -0.2367
  761SOL     MW 3044   2.177   0.363   2.439 -0.0726 -0.6901 -0.0522
  762SOL     OW 3045   0.058   0.195   2.133 -0.8056  0.1148 -0.3832
  762SOL    HW1 3046   0.030   0.144   2.205  1.1858 -0.0475  1.3551
  762SOL    HW2 3047   0.014   0.279   2.151 -0.8218 -0.5682 -0.1917
  762SOL     MW 3048   0.049   0.199   2.145 -0.5450  0.0032 -0.1286
  763SOL     OW 3049   2.347   1.020   2.352 -0.2109  0.2863 -0.3202
  763SOL    HW1 3050   2.426   0.967   2.332  1.6384 -0.1549  0.2654
  763SOL    HW2 3051   2.398   1.106   2.362 -2.1805 -1.0062  0.3837
  763SOL     MW 3052   2.364   1.025   2.350 -0.2267  0.0576 -0.1500
  764SOL     OW 3053   0.479   0.228   2.810  0.3462 -0.1734  0.1416
  764SOL    HW1 3054   0.400   0.201   2.773  2.1352 -2.3017 -1.3605
  764SOL    HW2 3055   0.461   0.311   2.864  1.3202  0.6209  1.0561
  764SOL     MW 3056   0.467   0.236   2.812  0.7107 -0.3494  0.0641
  765SOL     OW 3057   2.767   0.019   2.349 -0.3388 -0.3810  0.1573
  765SOL    HW1 3058   2.698   0.029   2.276 -0.9203 -3.8206  1.7113
  765SOL    HW2 3059   2.780  -0.077   2.355 -0.4510 -1.1665  0.4340
  765SOL     MW 3060   2.760   0.008   2.340 -0.4303 -0.9385  0.3989
  766SOL     OW 3061   1.859   2.979   2.157  0.1178 -0.0594  0.1746
  766SOL    HW1 3062   1.920   3.008   2.097  0.5498 -0.1213  2.8466
  766SOL    HW2 3063   1.801   2.914   2.114  0.4836 -2.5687  1.5148
  766SOL     MW 3064   1.860   2.974   2.143  0.2231 -0.3987  0.7040
  767SOL     OW 3065   2.642   0.565   1.988  0.6078 -0.5864  0.5124
  767SOL    HW1 3066   2.691   0.636   2.032  3.2027 -0.4572 -0.6836
  767SOL    HW2 3067   2.553   0.554   2.022  0.7576 -0.0636  3.1828
  767SOL     MW 3068   2.637   0.573   1.998  0.9699 -0.5004  0.7069
  768SOL     OW 3069   3.090   1.549   2.960 -0.3815  0.5505  0.3642
  768SOL    HW1 3070   3.124   1.516   3.048  2.2364 -0.4543  0.0427
  768SOL    HW2 3071   3.116   1.487   2.890 -2.2070  3.8543  3.8751
  768SOL     MW 3072   3.098   1.537   2.963 -0.2770  0.8538  0.7850
  769SOL     OW 3073   2.436   0.679   2.334 -0.6702  0.2101 -0.4276
  769SOL    HW1 3074   2.345   0.645   2.314  0.4898 -2.4175 -0.7669
  769SOL    HW2 3075   2.490   0.632   2.271 -0.6075 -0.9406 -2.5691
  769SOL     MW 3076   2.431   0.668   2.323 -0.5089 -0.2884 -0.7549
  770SOL     OW 3077   0.083   1.602   2.606 -0.4861 -0.2315 -0.1114
  770SOL    HW1 3078  -0.009   1.593   2.641  0.9062 -0.1639 -0.7253
  770SOL    HW2 3079   0.115   1.509   2.608 -0.9701 -1.1017  1.2883
  770SOL     MW 3080   0.075   1.589   2.611 -0.3663 -0.3374 -0.0077
  771SOL     OW 3081   3.052   0.672   2.021  0.1766  0.1163  0.1230
  771SOL    HW1 3082   2.989   0.683   1.949 -0.3233 -1.1171 -2.6086
  771SOL    HW2 3083   3.137   0.653   1.980 -3.0115 -0.8476  0.6583
  771SOL     MW 3084   3.055   0.671   2.006 -0.3100 -0.1736 -0.1668
  772SOL     OW 3085   3.095   0.014   2.325 -0.3901 -0.3090  0.2028
  772SOL    HW1 3086   3.010  -0.033   2.326 -2.5347  1.3653 -0.3949
  772SOL    HW2 3087   3.166  -0.055   2.301  2.3146  0.4850 -0.8783
  772SOL     MW 3088   3.093  -0.001   2.322 -0.3162  0.0167 -0.0187
  773SOL     OW 3089   2.444   2.836   2.739 -0.2437  0.3002  0.7731
  773SOL    HW1 3090   2.449   2.752   2.699 -1.4367  1.6037 -0.8872
  773SOL    HW2 3091   2.423   2.810   2.831  1.5282 -2.5211 -1.4170
  773SOL     MW 3092   2.442   2.821   2.746 -0.1673  0.1000  0.2651
  774SOL     OW 3093   2.295   1.082   1.750  0.0857 -0.3772 -0.0873
  774SOL    HW1 3094   2.284   1.148   1.683 -2.7226 -1.0533 -1.6039
  774SOL    HW2 3095   2.239   1.009   1.714 -1.5849 -3.6017 -0.7918
  774SOL     MW 3096   2.286   1.081   1.737 -0.5053 -0.8918 -0.3804
  775SOL     OW 3097   2.262   2.875   2.330  0.3781 -0.3155 -0.4119
  775SOL    HW1 3098   2.301   2.954   2.288 -0.6808 -0.5085 -1.5934
  775SOL    HW2 3099   2.330   2.805   2.305  0.0702  1.2066  0.4172
  775SOL     MW 3100   2.276   2.876   2.321  0.1978 -0.1401 -0.4584
  776SOL     OW 3101   0.109   1.482   0.097  0.3766  0.0531 -0.1738
  776SOL    HW1 3102   0.194   1.433   0.095 -4.5865  1.1263  1.6065
  776SOL    HW2 3103   0.046   1.406   0.105 -0.3543  0.8167 -0.7311
  776SOL     MW 3104   0.112   1.466   0.098 -0.3747  0.2954 -0.0124
  777SOL     OW 3105   2.932   1.155   1.775  0.2206  0.3605 -0.2061
  777SOL    HW1 3106   2.871   1.162   1.699 -2.1884  0.9442  0.4006
  777SOL    HW2 3107   2.884   1.087   1.825  2.3485 -0.1010 -0.5221
  777SOL     MW 3108   2.918   1.147   1.771  0.1835  0.3766 -0.1677
  778SOL     OW 3109   2.884   0.442   2.823  0.2277  0.8429 -0.3271
  778SOL    HW1 3110   2.812   0.463   2.893 -0.3699 -0.8112  1.6591
  778SOL    HW2 3111   2.879   0.519   2.766 -1.2799  1.4442 -0.7598
  778SOL     MW 3112   2.874   0.455   2.825 -0.0501  0.7040 -0.1222
  779SOL     OW 3113   2.175   0.616   2.348  0.4013 -0.0276  0.4535
  779SOL    HW1 3114   2.095   0.622   2.389 -2.5257 -3.2199 -1.3183
  779SOL    HW2 3115   2.177   0.518   2.345 -0.9551  1.2809 -0.3108
  779SOL     MW 3116   2.165   0.604   2.353 -0.1639 -0.2762  0.1189
  780SOL     OW 3117   0.225   0.093   2.757  0.0584  0.0229  0.6219
  780SOL    HW1 3118   0.164   0.128   2.822  1.7653  1.8193 -1.1469
  780SOL    HW2 3119   0.190   0.120   2.671 -1.2689 -0.9068 -0.1765
  780SOL     MW 3120   0.212   0.101   2.754  0.1084  0.1373  0.2832
  781SOL     OW 3121   3.063   1.288   2.509  0.4904  0.0337 -0.0137
  781SOL    HW1 3122   3.032   1.343   2.436 -0.3825  0.0761 -0.1317
  781SOL    HW2 3123   3.092   1.209   2.463 -1.3881 -2.5051 -0.4181
  781SOL     MW 3124   3.063   1.285   2.493  0.1274 -0.2957 -0.0826
  782SOL     OW 3125   0.530   1.520   2.995 -0.2084  0.7738 -0.1888
  782SOL    HW1 3126   0.483   1.606   2.991  1.0373  0.7340 -1.7347
  782SOL    HW2 3127   0.523   1.494   3.083 -1.9212 -1.7573 -1.2383
  782SOL     MW 3128   0.523   1.528   3.006 -0.2700  0.4346 -0.5313
  783SOL     OW 3129   2.786   0.490   2.476  0.3210 -0.4137  0.2894
  783SOL    HW1 3130   2.725   0.492   2.399  1.0951  1.8005  1.2752
  783SOL    HW2 3131   2.724   0.446   2.537 -0.3654  1.4179 -0.3986
  783SOL     MW 3132   2.770   0.484   2.474  0.3326  0.1201  0.3287
  784SOL     OW 3133   0.235   0.926   2.907 -0.4460 -0.5710  0.0854
  784SOL    HW1 3134   0.180   0.996   2.954 -1.8380  1.0264  2.9403
  784SOL    HW2 3135   0.240   0.960   2.813 -1.5528  0.7431 -0.3489
  784SOL     MW 3136   0.228   0.940   2.901 -0.7757 -0.1868  0.4048
  785SOL     OW 3137   0.449   0.523   2.174  0.2453  0.3867 -0.3191
  785SOL    HW1 3138   0.431   0.558   2.085 -1.5714 -0.5772  1.6313
  785SOL    HW2 3139   0.376   0.475   2.217  0.3677  0.1749 -0.5518
  785SOL     MW 3140   0.437   0.521   2.168  0.0217  0.2316 -0.0924
  786SOL     OW 3141   1.968   0.474   2.817  0.0925 -0.4142  0.6681
  786SOL    HW1 3142   1.978   0.487   2.917 -1.3433  3.0600  2.2580
  786SOL    HW2 3143   2.054   0.477   2.765  1.3247  1.8917  0.4070
  786SOL     MW 3144   1.981   0.476   2.823  0.0656  0.3484  0.8434
  787SOL     OW 3145   2.454   0.118   2.920 -0.0501 -0.1644 -0.6761
  787SOL    HW1 3146   2.499   0.058   2.857 -1.3746 -1.2742 -0.3790
  787SOL    HW2 3147   2.527   0.167   2.967  2.7154  0.5047  0.2136
  787SOL     MW 3148   2.470   0.117   2.918  0.1400 -0.2225 -0.5195
  788SOL     OW 3149   2.874   2.863   2.346  0.9907 -0.2249 -0.0438
  788SOL    HW1 3150   2.843   2.799   2.278 -0.3530 -0.4979  0.7340
  788SOL    HW2 3151   2.951   2.819   2.394 -0.0651 -0.5891 -3.4382
  788SOL     MW 3152   2.880   2.849   2.344  0.6741 -0.3089 -0.3891
  789SOL     OW 3153   0.090   0.238   2.938 -0.2421 -0.4234 -0.2274
  789SOL    HW1 3154   0.018   0.204   2.982  2.0304 -0.5144  3.3986
  789SOL    HW2 3155   0.084   0.331   2.941  0.8109 -0.0118  1.1716
  789SOL     MW 3156   0.080   0.246   2.944  0.1966 -0.3811  0.4356
  790SOL     OW 3157   0.010   1.022   2.434  0.7717  0.2461  0.2049
  790SOL    HW1 3158  -0.022   0.972   2.515 -0.4264 -0.9352  1.8572
  790SOL    HW2 3159  -0.061   1.023   2.372 -1.9792 -1.3187 -0.4294
  790SOL     MW 3160  -0.004   1.016   2.436  0.2507 -0.1162  0.3392
  791SOL     OW 3161   2.662   0.378   2.671  0.1114  0.7644  0.0803
  791SOL    HW1 3162   2.608   0.459   2.680  1.3736  0.9718 -0.7656
  791SOL    HW2 3163   2.731   0.401   2.736 -2.6237  0.8671  0.7461
  791SOL     MW 3164   2.664   0.392   2.681 -0.0830  0.8053  0.0565
  792SOL     OW 3165   2.443   0.226   2.357 -0.1612  0.3888 -0.2278
  792SOL    HW1 3166   2.370   0.264   2.407 -0.5506  3.2423 -0.2125
  792SOL    HW2 3167   2.505   0.204   2.433  0.1978  0.5912  2.3708
  792SOL     MW 3168   2.441   0.228   2.374 -0.1652  0.7920  0.1171
  793SOL     OW 3169   1.789   1.027   1.931 -0.4150 -0.2327 -1.1155
  793SOL    HW1 3170   1.749   1.045   1.848  2.8976 -0.0145 -0.4551
  793SOL    HW2 3171   1.870   0.973   1.913  0.9517 -2.1693 -1.3558
  793SOL     MW 3172   1.794   1.022   1.917  0.2024 -0.4594 -1.0601
  794SOL     OW 3173   1.455   2.245   0.112 -0.7257  0.1267 -0.3438
  794SOL    HW1 3174   1.459   2.322   0.048  0.7267  0.3419 -1.5288
  794SOL    HW2 3175   1.496   2.277   0.196 -0.1646 -1.3202  1.7321
  794SOL     MW 3176   1.461   2.259   0.115 -0.4600 -0.0358 -0.2263
  795SOL     OW 3177   2.268   0.959   2.606 -0.7494 -0.1780 -0.1455
  795SOL    HW1 3178   2.245   1.042   2.652  1.1007  0.8979  2.4476
  795SOL    HW2 3179   2.266   0.997   2.516  0.6908  0.7266  1.7386
  795SOL     MW 3180   2.265   0.975   2.600 -0.3152  0.0833  0.4452
  796SOL     OW 3181   0.302   0.674   2.754  0.8620  0.6569 -0.1845
  796SOL    HW1 3182   0.287   0.747   2.815  0.3986 -1.3729  1.2271
  796SOL    HW2 3183   0.217   0.648   2.709  2.7484 -0.4564 -0.3198
  796SOL     MW 3184   0.289   0.680   2.756  1.0497  0.2422 -0.0161
  797SOL     OW 3185   2.601   0.143   2.554  0.2679  0.3118 -0.6905
  797SOL    HW1 3186   2.636   0.223   2.600 -0.6754 -4.5511 -0.5641
  797SOL    HW2 3187   2.674   0.105   2.505 -1.0230  1.6675  0.6354
  797SOL     MW 3188   2.615   0.148   2.553 -0.0268 -0.1509 -0.4989
  798SOL     OW 3189   2.348   0.030   2.204  0.0486  0.3200  0.4177
  798SOL    HW1 3190   2.363   0.088   2.277 -0.1562 -5.0935 -1.8239
  798SOL    HW2 3191   2.433  -0.000   2.172  0.2234 -1.1600  0.9648
  798SOL     MW 3192   2.361   0.033   2.209  0.0446 -0.5895  0.1941
  799SOL     OW 3193   2.449   2.954   0.190 -0.1332 -0.1743  0.2799
  799SOL    HW1 3194   2.444   2.885   0.120 -1.8286  1.9259 -1.6478
  799SOL    HW2 3195   2.357   2.984   0.198  1.3222 -0.1261 -1.1438
  799SOL     MW 3196   2.436   2.949   0.182 -0.1649  0.1091 -0.1623
  800SOL     OW 3197   1.851   3.048   1.774  0.1963  0.1789 -0.1091
  800SOL    HW1 3198   1.790   2.974   1.800 -1.1108  2.1849  1.0583
  800SOL    HW2 3199   1.921   3.039   1.838  0.9916  2.8429  0.3370
  800SOL     MW 3200   1.852   3.037   1.786  0.1288  0.7951  0.1038
  801SOL     OW 3201   2.810   1.298   2.617 -0.2832 -0.1723  0.1215
  801SOL    HW1 3202   2.778   1.207   2.602 -0.0421  0.3839  0.3397
  801SOL    HW2 3203   2.910   1.301   2.604 -1.4325  0.4005 -1.2930
  801SOL     MW 3204   2.819   1.286   2.614 -0.4030 -0.0233 -0.0364
  802SOL     OW 3205   2.544   1.505   2.819 -0.0037 -0.1036  0.3331
  802SOL    HW1 3206   2.542   1.416   2.770 -3.3523 -0.4031 -0.5768
  802SOL    HW2 3207   2.627   1.524   2.849 -1.1145 -0.8839 -0.1016
  802SOL     MW 3208   2.555   1.496   2.816 -0.5921 -0.2461  0.1557
  803SOL     OW 3209   2.314   1.272   1.941 -0.3644  0.0510  0.1395
  803SOL    HW1 3210   2.290   1.239   2.027 -2.7282 -0.0714  0.2430
  803SOL    HW2 3211   2.293   1.205   1.879  0.3600  1.6255  1.2279
  803SOL     MW 3212   2.308   1.259   1.944 -0.5807  0.2426  0.2967
  804SOL     OW 3213   2.290   0.063   0.054  0.2494  0.3264 -0.2580
  804SOL    HW1 3214   2.221   0.126   0.053  0.2123 -1.1590 -0.6898
  804SOL    HW2 3215   2.337   0.088  -0.027  2.1528 -2.6304 -0.6883
  804SOL     MW 3216   2.287   0.075   0.043  0.4956 -0.2597 -0.3718
  805SOL     OW 3217   2.699   1.042   2.592  1.1378  0.3732  0.6612
  805SOL    HW1 3218   2.641   0.967   2.567  1.2475  2.0116 -1.0747
  805SOL    HW2 3219   2.779   0.994   2.614 -1.2237  1.4594  1.9202
  805SOL     MW 3220   2.702   1.026   2.592  0.8407  0.7326  0.5983
  806SOL     OW 3221   2.618   0.425   2.275  0.1057 -0.2423  0.2776
  806SOL    HW1 3222   2.549   0.357   2.305 -0.0797  0.9165 -2.6582
  806SOL    HW2 3223   2.648   0.390   2.194  1.4845 -2.4222  1.8066
  806SOL     MW 3224   2.613   0.411   2.268  0.2632 -0.3771  0.0920
  807SOL     OW 3225   3.083   1.102   2.120 -0.6238  0.1870  0.2662
  807SOL    HW1 3226   3.147   1.036   2.094  1.7423  3.1279 -2.1078
  807SOL    HW2 3227   3.009   1.055   2.148  0.3892  0.6655  0.4514
  807SOL     MW 3228   3.082   1.087   2.120 -0.1779  0.6382 -0.0226
  808SOL     OW 3229   2.625   3.063   2.765 -0.0038 -0.8594  0.4693
  808SOL    HW1 3230   2.575   2.987   2.747  1.1451  0.6865 -0.8136
  808SOL    HW2 3231   2.604   3.126   2.690  0.3722 -1.0722  2.1248
  808SOL     MW 3232   2.616   3.061   2.753  0.1974 -0.6835  0.5185
  809SOL     OW 3233   2.533   1.229   2.394 -0.8170 -0.3486 -0.1340
  809SOL    HW1 3234   2.594   1.193   2.456  1.9728 -0.7410  1.4110
  809SOL    HW2 3235   2.598   1.250   2.322 -0.5748  2.5424  2.0288
  809SOL     MW 3236   2.549   1.227   2.393 -0.4169 -0.0189  0.3552
  810SOL     OW 3237   2.192   1.192   2.207  0.2627 -0.6022  0.0860
  810SOL    HW1 3238   2.231   1.114   2.244 -0.6190 -1.2252 -1.4208
  810SOL    HW2 3239   2.104   1.168   2.190  3.3288 -1.8963  1.1849
  810SOL     MW 3240   2.185   1.179   2.210  0.5509 -0.8551  0.0322
  811SOL     OW 3241   1.542   0.099   2.282 -0.5934  0.7457  0.0873
  811SOL    HW1 3242   1.614   0.043   2.327  3.6365 -2.8307  0.7561
  811SOL    HW2 3243   1.559   0.097   2.192  0.4024 -0.3073 -1.0622
  811SOL     MW 3244   1.554   0.091   2.276  0.0961  0.1349  0.0239
  812SOL     OW 3245   1.432   2.792   2.042 -0.0200 -0.0989  0.0808
  812SOL    HW1 3246   1.522   2.771   2.073 -2.1824 -0.9027  0.8225
  812SOL    HW2 3247   1.368   2.775   2.112 -0.5682 -2.0008 -0.0564
  812SOL     MW 3248   1.435   2.787   2.056 -0.3776 -0.4559  0.1606
  813SOL     OW 3249   1.830   0.747   2.196  0.2192 -0.1712 -0.4524
  813SOL    HW1 3250   1.783   0.669   2.233  1.2846  2.1723  2.2171
  813SOL    HW2 3251   1.876   0.786   2.272  1.2076  0.7192 -0.7720
  813SOL     MW 3252   1.830   0.742   2.211  0.4902  0.2555 -0.1423
  814SOL     OW 3253   2.743   1.254   1.586 -0.1764  0.1081 -0.5394
  814SOL    HW1 3254   2.680   1.228   1.649  1.0175  0.1234  0.9616
  814SOL    HW2 3255   2.728   1.190   1.519 -0.2013 -0.1293 -0.1331
  814SOL     MW 3256   2.733   1.242   1.586 -0.0221  0.0788 -0.2878
  815SOL     OW 3257   2.488   1.667   2.401  0.2068  0.1882 -0.2961
  815SOL    HW1 3258   2.438   1.597   2.365 -2.6990 -0.6233  0.5484
  815SOL    HW2 3259   2.574   1.624   2.417  0.0472  0.4914  0.6947
  815SOL     MW 3260   2.493   1.652   2.399 -0.1977  0.1212 -0.0539
  816SOL     OW 3261   0.727   0.645   2.735 -0.6394 -0.4311  0.6813
  816SOL    HW1 3262   0.740   0.584   2.804 -0.3197 -0.8125 -1.9056
  816SOL    HW2 3263   0.634   0.626   2.711 -2.6579 -0.8514 -3.1985
  816SOL     MW 3264   0.716   0.635   2.741 -0.8636 -0.5369 -0.1719
  817SOL     OW 3265   3.041   1.126   1.392 -0.1146 -0.0888  0.5835
  817SOL    HW1 3266   3.091   1.140   1.470 -3.7244 -0.0642  0.7500
  817SOL    HW2 3267   3.019   1.213   1.354 -2.4143 -2.6335  2.8776
  817SOL     MW 3268   3.045   1.139   1.397 -0.8943 -0.4213  0.9082
  818SOL     OW 3269   1.909   1.026   2.722  0.4812 -0.1912  0.2167
  818SOL    HW1 3270   1.944   1.007   2.636 -0.6015 -3.0329  0.1582
  818SOL    HW2 3271   1.977   1.006   2.789 -0.7386 -0.4522  1.1299
  818SOL     MW 3272   1.922   1.021   2.719  0.1774 -0.6005  0.3294
  819SOL     OW 3273   1.875   0.203   2.415 -0.6800  0.6455 -0.1740
  819SOL    HW1 3274   1.813   0.272   2.429  0.6280  0.5117  1.1527
  819SOL    HW2 3275   1.911   0.186   2.509 -2.0824  1.5105  1.7510
  819SOL     MW 3276   1.871   0.210   2.429 -0.6924  0.7420  0.2550
  820SOL     OW 3277   2.495   1.732   2.669  0.3363 -0.2371  0.0466
  820SOL    HW1 3278   2.525   1.658   2.724  1.5078 -1.1863  2.1379
  820SOL    HW2 3279   2.482   1.698   2.583 -3.3843  2.7309  1.8395
  820SOL     MW 3280   2.497   1.718   2.665 -0.0001  0.0293  0.5591
  821SOL     OW 3281   2.589   1.364   1.966  0.1212  0.3347  0.9648
  821SOL    HW1 3282   2.605   1.454   1.931 -0.4650 -1.0464 -0.6015
  821SOL    HW2 3283   2.493   1.351   1.971  0.6469 -2.4532  0.4514
  821SOL     MW 3284   2.578   1.374   1.962  0.1132 -0.2154  0.6904
  822SOL     OW 3285   2.852   2.699   1.444  0.1851 -0.1862 -0.2027
  822SOL    HW1 3286   2.917   2.766   1.468 -1.8312 -1.3486 -1.8915
  822SOL    HW2 3287   2.781   2.743   1.398 -0.2144 -2.4892 -0.4689
  822SOL     MW 3288   2.851   2.714   1.441 -0.1336 -0.6434 -0.4606
  823SOL     OW 3289   2.284   0.478   1.771 -0.1504  0.2088  0.6314
  823SOL    HW1 3290   2.362   0.454   1.717  2.7356  0.5110 -0.1158
  823SOL    HW2 3291   2.223   0.402   1.764  2.1370 -0.2176  0.7027
  823SOL     MW 3292   2.287   0.465   1.763  0.5321  0.1924  0.5422
  824SOL     OW 3293   2.085   1.394   2.502  0.2239 -0.7733 -0.0546
  824SOL    HW1 3294   2.135   1.422   2.419  0.1793 -1.5381 -1.4864
  824SOL    HW2 3295   2.059   1.464   2.565 -0.3320 -1.8085 -0.2644
  824SOL     MW 3296   2.088   1.407   2.499  0.1447 -1.0108 -0.2712
  825SOL     OW 3297   2.140   2.512   0.388  0.6773 -0.7545 -0.0417
  825SOL    HW1 3298   2.146   2.450   0.316  0.0220  1.3799  0.9054
  825SOL    HW2 3299   2.196   2.466   0.448 -1.0554 -1.4606  4.2640
  825SOL     MW 3300   2.148   2.498   0.386  0.3622 -0.5660  0.6514
  826SOL     OW 3301   1.786   2.378   0.468 -0.1998  0.0683 -0.0086
  826SOL    HW1 3302   1.770   2.320   0.541  2.1264 -2.6623 -2.7844
  826SOL    HW2 3303   1.829   2.446   0.512 -1.3224 -0.0958  0.6372
  826SOL     MW 3304   1.790   2.379   0.484 -0.0410 -0.3136 -0.2896
  827SOL     OW 3305   1.936   2.240   0.890 -0.4580  0.1802  0.3036
  827SOL    HW1 3306   1.864   2.243   0.830  1.1031  3.9151 -0.4170
  827SOL    HW2 3307   1.920   2.163   0.940  0.4976  0.5699 -1.6455
  827SOL     MW 3308   1.925   2.230   0.888 -0.1260  0.7244 -0.0486
  828SOL     OW 3309   0.091   2.611   0.538 -0.3688  0.7834  0.5844
  828SOL    HW1 3310   0.187   2.621   0.527  1.6231 -0.9271  0.2111
  828SOL    HW2 3311   0.063   2.677   0.475  0.8467  1.4988 -1.8809
  828SOL     MW 3312   0.100   2.621   0.528  0.0544  0.6521  0.2098
  829SOL     OW 3313   3.013   2.889   1.199  0.2729 -0.0388 -0.4089
  829SOL    HW1 3314   2.941   2.873   1.146 -0.4726 -1.0162 -0.2611
  829SOL    HW2 3315   3.078   2.821   1.180 -0.1635  2.0175 -0.8864
  829SOL     MW 3316   3.012   2.878   1.190  0.1170  0.1036 -0.4524
  830SOL     OW 3317   2.547   2.804   2.016  0.3694 -0.1632 -0.0776
  830SOL    HW1 3318   2.450   2.830   2.019 -2.5101  0.3196 -0.3879
  830SOL    HW2 3319   2.575   2.794   1.925  0.4610  0.5536  1.6180
  830SOL     MW 3320   2.538   2.806   2.004  0.0016 -0.0049  0.1052
  831SOL     OW 3321   2.479   2.443   1.205  0.1252  0.2056 -0.2465
  831SOL    HW1 3322   2.445   2.392   1.275 -0.0488  2.2726  3.0733
  831SOL    HW2 3323   2.574   2.432   1.211  1.9680 -0.4378  0.4850
  831SOL     MW 3324   2.487   2.435   1.215  0.3454  0.3934  0.2880
  832SOL     OW 3325   2.411   2.108   1.793  0.7343  0.1956 -0.2131
  832SOL    HW1 3326   2.425   2.191   1.850  1.3968 -0.1627 -0.0634
  832SOL    HW2 3327   2.497   2.077   1.771 -1.2314  1.6710 -1.6589
  832SOL     MW 3328   2.424   2.115   1.798  0.5624  0.3430 -0.3841
  833SOL     OW 3329   1.749   2.561   0.930 -0.6921  0.3690 -0.0027
  833SOL    HW1 3330   1.685   2.501   0.940  2.4223  4.8675  1.3368
  833SOL    HW2 3331   1.738   2.639   0.985  0.6537 -1.1007 -0.1507
  833SOL     MW 3332   1.739   2.563   0.938 -0.1037  0.7686  0.1545
  834SOL     OW 3333   2.287   2.335   0.619 -0.1635 -0.0618  0.4376
  834SOL    HW1 3334   2.254   2.262   0.671  1.2599  0.3810  3.4788
  834SOL    HW2 3335   2.378   2.311   0.588  4.9255 -0.0086  2.0460
  834SOL     MW 3336   2.294   2.322   0.622  0.6957  0.0036  1.0511
  835SOL     OW 3337   1.852   2.584   0.657 -0.4812 -0.7695 -0.4193
  835SOL    HW1 3338   1.818   2.566   0.745  1.5007  1.2645  0.3318
  835SOL    HW2 3339   1.909   2.655   0.684 -1.0338  1.3541 -2.1243
  835SOL     MW 3340   1.855   2.591   0.672 -0.2926 -0.2209 -0.5452
  836SOL     OW 3341   2.047   2.192   1.639 -0.3813 -0.3175  0.3866
  836SOL    HW1 3342   2.122   2.134   1.604  0.7127  1.0932 -0.7053
  836SOL    HW2 3343   2.094   2.266   1.676  0.4962 -2.8391  1.1636
  836SOL     MW 3344   2.063   2.194   1.639 -0.1212 -0.4641  0.3451
  837SOL     OW 3345   2.077   0.205   0.697 -0.1602 -0.1313 -0.8527
  837SOL    HW1 3346   2.007   0.223   0.642  2.5432  0.7805  1.9260
  837SOL    HW2 3347   2.129   0.148   0.643 -1.2333  0.3823  2.1598
  837SOL     MW 3348   2.074   0.200   0.683  0.0549  0.0567 -0.0886
  838SOL     OW 3349   2.859   2.089   0.966 -0.0291  0.3637 -0.0166
  838SOL    HW1 3350   2.792   2.023   0.968  0.6656  0.8550 -1.1792
  838SOL    HW2 3351   2.893   2.094   1.054  0.2529 -2.6406 -1.2217
  838SOL     MW 3352   2.855   2.081   0.978  0.0998  0.0321 -0.3290
  839SOL     OW 3353   1.536   2.401   0.981 -0.1008  0.2847  0.3775
  839SOL    HW1 3354   1.504   2.472   1.031  2.8599 -0.6363 -0.6046
  839SOL    HW2 3355   1.565   2.335   1.043  0.2864  3.5500 -3.3850
  839SOL     MW 3356   1.536   2.401   0.996  0.3409  0.5940 -0.2485
  840SOL     OW 3357   2.299   2.113   2.432  0.8651 -0.3257  0.1791
  840SOL    HW1 3358   2.246   2.187   2.387  2.7324  1.9115 -0.5761
  840SOL    HW2 3359   2.359   2.171   2.483  3.4564  1.0577 -0.0840
  840SOL     MW 3360   2.300   2.130   2.432  1.4534  0.1520  0.0448
  841SOL     OW 3361   2.266   2.385   0.052  0.0334 -0.5976  0.1483
  841SOL    HW1 3362   2.272   2.461  -0.003 -0.2513 -0.2417 -2.0740
  841SOL    HW2 3363   2.197   2.329   0.013 -0.3249  0.0231  0.4455
  841SOL     MW 3364   2.258   2.388   0.039 -0.0514 -0.4688 -0.1057
  842SOL     OW 3365   2.659   1.992   1.418  0.2710  0.3396 -0.0153
  842SOL    HW1 3366   2.625   1.900   1.417  0.2772  1.4496  1.2032
  842SOL    HW2 3367   2.617   2.023   1.329 -3.8547 -2.8932 -3.4171
  842SOL     MW 3368   2.649   1.984   1.406 -0.2725  0.0595 -0.3033
  843SOL     OW 3369   2.649   2.772   1.773 -0.1728  0.1725 -0.4851
  843SOL    HW1 3370   2.735   2.731   1.782 -0.1851 -0.1021 -0.1530
  843SOL    HW2 3371   2.591   2.694   1.755 -0.9910  1.7842  0.8890
  843SOL     MW 3372   2.652   2.757   1.772 -0.2824  0.3489 -0.2600
  844SOL     OW 3373   2.731   2.326   1.154  0.6366 -0.2288  0.0543
  844SOL    HW1 3374   2.766   2.360   1.070  0.8264 -1.5915 -2.4163
  844SOL    HW2 3375   2.779   2.363   1.230 -0.7258 -0.6968 -3.6922
  844SOL     MW 3376   2.742   2.335   1.153  0.4819 -0.4703 -0.7660
  845SOL     OW 3377   2.859   2.601   0.307  0.3159 -0.0694 -0.7753
  845SOL    HW1 3378   2.836   2.512   0.341  1.5298  0.9326  2.0708
  845SOL    HW2 3379   2.853   2.665   0.384 -1.0859 -0.0265  1.4025
  845SOL     MW 3380   2.855   2.598   0.321  0.2911  0.0684 -0.1124
  846SOL     OW 3381   1.497   2.796   0.854 -0.4194  0.4016 -0.5354
  846SOL    HW1 3382   1.575   2.845   0.869 -1.3929  2.1697  0.4358
  846SOL    HW2 3383   1.424   2.853   0.842 -0.9106 -0.5608 -3.2548
  846SOL     MW 3384   1.497   2.810   0.854 -0.6127  0.5079 -0.7661
  847SOL     OW 3385   2.480   1.886   0.160 -0.2391 -0.0669  0.5463
  847SOL    HW1 3386   2.462   1.795   0.200  0.3331  1.1669 -0.2151
  847SOL    HW2 3387   2.426   1.876   0.080  1.3234  0.1737  1.0673
  847SOL     MW 3388   2.470   1.873   0.155  0.0426  0.1276  0.5146
  848SOL     OW 3389   2.580   2.116   1.206  0.2981  0.1686 -0.2261
  848SOL    HW1 3390   2.656   2.175   1.189  0.5633  2.0138  0.0224
  848SOL    HW2 3391   2.543   2.091   1.121  2.0416 -3.9804 -0.7999
  848SOL     MW 3392   2.585   2.120   1.192  0.5631 -0.1353 -0.2690
  849SOL     OW 3393   2.001   2.775   0.796 -0.1444  1.0957 -0.4331
  849SOL    HW1 3394   1.988   2.768   0.893  1.4888  0.1146  2.1912
  849SOL    HW2 3395   2.093   2.756   0.782 -2.7044  1.2592 -1.0405
  849SOL     MW 3396   2.011   2.771   0.807 -0.2667  0.9878 -0.1670
  850SOL     OW 3397   2.314   1.799   1.630  0.3855  0.1412 -0.2807
  850SOL    HW1 3398   2.245   1.750   1.580 -4.3637 -0.4677 -0.3341
  850SOL    HW2 3399   2.299   1.891   1.598  0.5542  0.0328 -0.7592
  850SOL     MW 3400   2.303   1.804   1.619 -0.2188  0.0465 -0.3509
  851SOL     OW 3401   2.370   2.353   0.323 -0.1090 -0.2624 -0.1281
  851SOL    HW1 3402   2.365   2.391   0.236 -0.1314 -0.5449  0.3772
  851SOL    HW2 3403   2.418   2.413   0.380  1.3270 -0.0809  2.2305
  851SOL     MW 3404   2.376   2.366   0.319  0.0775 -0.2758  0.2497
  852SOL     OW 3405   2.339   2.059   0.315  0.4167 -0.6774 -0.0504
  852SOL    HW1 3406   2.390   2.138   0.310 -1.1035 -0.1575 -1.0358
  852SOL    HW2 3407   2.372   1.995   0.251 -2.0973  0.9638  0.1798
  852SOL     MW 3408   2.350   2.061   0.306 -0.1156 -0.3922 -0.1500
  853SOL     OW 3409   2.464   2.352   1.918  0.5222 -0.1792 -0.3684
  853SOL    HW1 3410   2.465   2.422   1.853  0.9494 -1.3606  2.4409
  853SOL    HW2 3411   2.548   2.355   1.958 -1.0778  1.6336 -0.2236
  853SOL     MW 3412   2.475   2.362   1.914  0.3674 -0.0959  0.0213
  854SOL     OW 3413   2.858   2.221   0.710  0.0785 -0.3874 -0.4023
  854SOL    HW1 3414   2.771   2.190   0.680 -1.5684 -0.4488  1.2378
  854SOL    HW2 3415   2.882   2.167   0.787 -1.2870  0.0665 -0.5207
  854SOL     MW 3416   2.849   2.210   0.716 -0.3190 -0.3356 -0.2015
  855SOL     OW 3417   2.741   2.364   0.391  0.1798 -0.2185  0.6531
  855SOL    HW1 3418   2.691   2.364   0.468  2.1340 -0.7513  0.0414
  855SOL    HW2 3419   2.751   2.272   0.367  1.2057  0.0494 -0.1575
  855SOL     MW 3420   2.736   2.352   0.398  0.5730 -0.2534  0.4655
  856SOL     OW 3421   2.096   1.886   0.194 -0.1238 -0.0685  0.1940
  856SOL    HW1 3422   2.009   1.874   0.238  0.4682  1.7451  2.1859
  856SOL    HW2 3423   2.141   1.934   0.264 -1.0543 -1.6969  0.3975
  856SOL     MW 3424   2.090   1.891   0.209 -0.1685 -0.0440  0.4837
  857SOL     OW 3425   2.497   1.947   0.547 -0.0236 -0.3295 -0.1297
  857SOL    HW1 3426   2.439   1.979   0.476  0.8615  0.8501 -1.1459
  857SOL    HW2 3427   2.456   1.889   0.607 -0.5822 -1.7626 -0.8783
  857SOL     MW 3428   2.484   1.944   0.546  0.0195 -0.3629 -0.3626
  858SOL     OW 3429   2.914   2.657   1.791  0.5673 -0.1386  0.1845
  858SOL    HW1 3430   3.008   2.668   1.799  0.5327  0.5065 -1.1473
  858SOL    HW2 3431   2.897   2.560   1.782 -0.9129  0.9967 -2.7515
  858SOL     MW 3432   2.924   2.645   1.791  0.3674  0.0963 -0.3786
  859SOL     OW 3433   1.954   2.741   1.063 -0.7730  0.2467  0.2365
  859SOL    HW1 3434   1.926   2.650   1.062 -1.4744  1.7301  0.5103
  859SOL    HW2 3435   2.045   2.734   1.092 -0.2419  1.3562 -5.1548
  859SOL     MW 3436   1.962   2.728   1.066 -0.7955  0.5888 -0.4387
  860SOL     OW 3437   2.618   2.661   0.152 -0.9078  0.2778 -0.4547
  860SOL    HW1 3438   2.699   2.625   0.208  2.5488  0.0022  1.6197
  860SOL    HW2 3439   2.653   2.732   0.099  0.3379 -1.4853  0.5636
  860SOL     MW 3440   2.633   2.666   0.152 -0.2873  0.0088 -0.0466
  861SOL     OW 3441   1.643   2.191   1.156  0.0926 -0.7877  0.7112
  861SOL    HW1 3442   1.645   2.265   1.220 -1.2139  1.7358  0.7415
  861SOL    HW2 3443   1.597   2.117   1.200  0.9721 -2.8118 -0.7970
  861SOL     MW 3444   1.637   2.191   1.170  0.0363 -0.7218  0.5162
  862SOL     OW 3445   2.531   1.767   1.457 -0.0527  0.3929 -0.5966
  862SOL    HW1 3446   2.465   1.800   1.521 -0.0664 -2.2353  1.1798
  862SOL    HW2 3447   2.479   1.743   1.373  1.2767 -1.2489 -1.1731
  862SOL     MW 3448   2.515   1.768   1.454  0.1209 -0.1705 -0.4382
  863SOL     OW 3449   3.002   1.771   1.017  0.2975 -0.2414 -0.0236
  863SOL    HW1 3450   3.077   1.787   1.072  0.2091  0.1075 -0.1240
  863SOL    HW2 3451   2.938   1.842   1.026 -2.8400 -3.1758 -0.5849
  863SOL     MW 3452   3.004   1.782   1.026 -0.1281 -0.5826 -0.1109
  864SOL     OW 3453   0.041   1.845   0.795 -0.3405 -0.0356 -0.7634
  864SOL    HW1 3454  -0.024   1.825   0.861  1.3939  3.6905 -0.9513
  864SOL    HW2 3455   0.002   1.821   0.714 -1.5725 -1.3731  0.8091
  864SOL     MW 3456   0.027   1.839   0.793 -0.2742  0.2796 -0.5807
  865SOL     OW 3457   2.636   2.156   0.071  0.1958  0.1824 -0.0625
  865SOL    HW1 3458   2.634   2.065   0.090  0.4628  0.1154  0.4327
  865SOL    HW2 3459   2.588   2.145  -0.010 -0.8968 -1.3671  1.4166
  865SOL     MW 3460   2.629   2.142   0.062  0.0869 -0.0309  0.1980
  866SOL     OW 3461   2.627   2.362   1.566  0.3670  0.3155 -0.9560
  866SOL    HW1 3462   2.628   2.263   1.589  1.7881 -0.4544  0.5913
  866SOL    HW2 3463   2.700   2.371   1.510  1.1022 -1.7337  0.0720
  866SOL     MW 3464   2.637   2.350   1.561  0.6515 -0.0565 -0.6162
  867SOL     OW 3465   0.076   2.689   1.759  0.0402  0.2988  0.1045
  867SOL    HW1 3466   0.126   2.735   1.825 -1.1125 -2.0529  1.3082
  867SOL    HW2 3467   0.071   2.736   1.678  2.1267 -1.7223  2.6650
  867SOL     MW 3468   0.082   2.701   1.757  0.1634 -0.2781  0.6012
  868SOL     OW 3469   2.735   2.687   0.562  0.3484 -0.2755 -0.0255
  868SOL    HW1 3470   2.690   2.607   0.562  3.0129 -1.3444 -1.4113
  868SOL    HW2 3471   2.668   2.760   0.559 -0.3298  1.5188 -0.2380
  868SOL     MW 3472   2.720   2.686   0.562  0.6104 -0.1798 -0.2364
  869SOL     OW 3473   2.086   2.426   1.003 -0.5413  0.4440  0.3350
  869SOL    HW1 3474   2.165   2.438   0.952 -1.1454 -0.2185 -0.1309
  869SOL    HW2 3475   2.029   2.364   0.958  1.6393 -0.3895  0.4310
  869SOL     MW 3476   2.089   2.419   0.990 -0.3333  0.2466  0.2862
  870SOL     OW 3477   2.185   0.077   0.469 -0.0997 -0.6173  0.3331
  870SOL    HW1 3478   2.256   0.115   0.409  1.7217  0.4657 -1.9978
  870SOL    HW2 3479   2.209  -0.012   0.491  1.7129  1.3605 -2.9783
  870SOL     MW 3480   2.198   0.070   0.464  0.3798 -0.2135 -0.4114
  871SOL     OW 3481   2.498   2.103   0.885  0.4111  0.2046  0.2660
  871SOL    HW1 3482   2.430   2.046   0.841 -0.6324  0.0365 -2.8556
  871SOL    HW2 3483   2.449   2.176   0.924  0.2803 -2.2974  1.8032
  871SOL     MW 3484   2.483   2.105   0.884  0.2561 -0.1477  0.0570
  872SOL     OW 3485   2.064   2.573   1.502  0.2579  0.1469 -0.0616
  872SOL    HW1 3486   1.978   2.603   1.534  0.5401  2.4288 -0.8087
  872SOL    HW2 3487   2.041   2.544   1.417 -3.1839  1.3237 -1.0251
  872SOL     MW 3488   2.050   2.573   1.495 -0.1590  0.6033 -0.2873
  873SOL     OW 3489   2.832   2.081   1.883 -0.5156 -0.4618 -0.2900
  873SOL    HW1 3490   2.795   2.144   1.944  1.2909 -2.3060 -1.8611
  873SOL    HW2 3491   2.898   2.124   1.829  0.9630 -3.0753  1.0461
  873SOL     MW 3492   2.835   2.095   1.884 -0.0821 -1.0500 -0.3210
  874SOL     OW 3493   2.324   1.428   2.334 -0.2876 -0.2111 -0.1966
  874SOL    HW1 3494   2.277   1.370   2.273 -1.4795  1.2300 -1.8098
  874SOL    HW2 3495   2.377   1.369   2.385 -0.8080  0.0771 -1.4512
  874SOL     MW 3496   2.325   1.413   2.332 -0.5135  0.0171 -0.5750
  875SOL     OW 3497   2.362   2.339   0.973  0.1986  0.3489 -0.2829
  875SOL    HW1 3498   2.404   2.385   0.901 -0.6143 -0.8621  0.6576
  875SOL    HW2 3499   2.411   2.380   1.048 -0.0428  2.3583 -1.6937
  875SOL     MW 3500   2.374   2.351   0.974  0.0595  0.4542 -0.3449
  876SOL     OW 3501   3.063   2.249   1.270  0.3100  0.0943  0.2730
  876SOL    HW1 3502   3.108   2.306   1.210 -2.3861 -0.2700 -2.0338
  876SOL    HW2 3503   3.121   2.234   1.347  0.5568 -0.6136  0.8814
  876SOL     MW 3504   3.077   2.255   1.273 -0.0132 -0.0472  0.0489
  877SOL     OW 3505   0.024   2.791   0.326  0.8339 -0.1367  0.5425
  877SOL    HW1 3506   0.090   2.850   0.297  0.5153 -0.8331  1.3784
  877SOL    HW2 3507   0.034   2.720   0.261  1.2588  1.1889 -0.4269
  877SOL     MW 3508   0.034   2.790   0.313  0.8479 -0.0537  0.5249
  878SOL     OW 3509   2.411   1.733   1.225 -0.5441  0.1058 -0.5338
  878SOL    HW1 3510   2.321   1.714   1.253 -0.6823 -1.1698  0.7342
  878SOL    HW2 3511   2.444   1.654   1.183  1.5960  0.5860 -1.6456
  878SOL     MW 3512   2.404   1.720   1.223 -0.2800  0.0009 -0.5132
  879SOL     OW 3513   2.759   2.412   0.895 -0.3632  0.5039  0.2881
  879SOL    HW1 3514   2.823   2.484   0.912  1.3822  3.0290 -3.5580
  879SOL    HW2 3515   2.792   2.345   0.836 -0.7512 -0.0548 -0.9828
  879SOL     MW 3516   2.772   2.412   0.889 -0.1841  0.7633 -0.3871
  880SOL     OW 3517   2.564   2.198   0.643  0.3083  0.5404 -0.5695
  880SOL    HW1 3518   2.568   2.176   0.740  2.9919 -0.4561  0.7363
  880SOL    HW2 3519   2.543   2.108   0.601  0.0695 -5.0582 -1.5853
  880SOL     MW 3520   2.561   2.183   0.650  0.6309 -0.3298 -0.5312
  881SOL     OW 3521   2.985   2.751   0.686 -0.4521 -0.2499  0.0672
  881SOL    HW1 3522   2.900   2.726   0.655 -1.5701  2.1905 -2.5120
  881SOL    HW2 3523   3.058   2.711   0.633 -1.0477  1.1361 -0.0052
  881SOL     MW 3524   2.983   2.743   0.675 -0.6782  0.2550 -0.2827
  882SOL     OW 3525   2.279   2.855   1.972  0.4917 -0.4909 -0.0343
  882SOL    HW1 3526   2.287   2.880   1.879  0.6853  0.9988 -2.1278
  882SOL    HW2 3527   2.222   2.777   1.979  0.7960 -0.2477 -0.4181
  882SOL     MW 3528   2.273   2.848   1.961  0.5574 -0.2623 -0.3611
  883SOL     OW 3529   2.361   2.235   1.348 -0.0304  0.6461 -0.1902
  883SOL    HW1 3530   2.437   2.176   1.318  2.0776 -2.0507 -0.2431
  883SOL    HW2 3531   2.284   2.205   1.292 -2.5240  0.6225 -1.3028
  883SOL     MW 3532   2.361   2.223   1.337 -0.0813  0.2872 -0.3440
  884SOL     OW 3533   1.991   1.796   1.089 -0.3661  0.3396 -0.0225
  884SOL    HW1 3534   1.934   1.867   1.064 -2.4285 -0.4554  2.1778
  884SOL    HW2 3535   2.076   1.837   1.100 -0.1113  0.9534  1.3938
  884SOL     MW 3536   1.995   1.811   1.087 -0.6046  0.3157  0.4546
  885SOL     OW 3537   2.807   2.391   1.768  0.0681 -0.1670 -0.2062
  885SOL    HW1 3538   2.890   2.346   1.733 -0.4155 -0.7155  0.0218
  885SOL    HW2 3539   2.746   2.382   1.696  0.7077 -0.3307  0.4782
  885SOL     MW 3540   2.810   2.384   1.754  0.0887 -0.2610 -0.0858
  886SOL     OW 3541   2.855   2.388   1.398 -0.2347  0.0312  0.1925
  886SOL    HW1 3542   2.920   2.326   1.364 -1.6870 -2.1302 -1.6291
  886SOL    HW2 3543   2.884   2.480   1.407  0.3106 -0.1734  2.2742
  886SOL     MW 3544   2.868   2.392   1.395 -0.3544 -0.2810  0.2268
  887SOL     OW 3545   2.325   2.697   1.495  0.4187  0.1241 -0.0245
  887SOL    HW1 3546   2.357   2.695   1.401  2.3903 -3.5229  0.5909
  887SOL    HW2 3547   2.247   2.642   1.507  2.1726 -1.7872  1.6410
  887SOL     MW 3548   2.319   2.689   1.484  0.9103 -0.6092  0.2765
  888SOL     OW 3549   1.929   2.195   1.382  0.6360 -0.2352 -0.1347
  888SOL    HW1 3550   1.998   2.164   1.325 -0.8344  0.5059  0.6736
  888SOL    HW2 3551   1.967   2.212   1.471  2.3024  0.1357 -1.6849
  888SOL     MW 3552   1.943   2.193   1.386  0.6618 -0.0885 -0.2326
  889SOL     OW 3553   2.333   1.999   2.046 -0.3313 -0.4751  0.6056
  889SOL    HW1 3554   2.410   1.994   2.098 -2.2017  0.3653  1.3355
  889SOL    HW2 3555   2.364   2.034   1.961 -0.2632 -0.6675 -1.0669
  889SOL     MW 3556   2.347   2.003   2.042 -0.5691 -0.3896  0.4812
  890SOL     OW 3557   0.113   2.348   0.136 -0.5552 -0.0510 -0.3703
  890SOL    HW1 3558   0.077   2.439   0.145  1.3432  1.8472  0.1851
  890SOL    HW2 3559   0.074   2.305   0.211  1.3186 -0.0369 -1.1707
  890SOL     MW 3560   0.103   2.354   0.147 -0.0575  0.2013 -0.4026
  891SOL     OW 3561   2.989   1.994   1.212  0.0933  0.3295 -0.6552
  891SOL    HW1 3562   3.062   1.938   1.221 -1.6383 -0.2427  2.4258
  891SOL    HW2 3563   3.006   2.078   1.250 -0.2177 -3.3657  1.1183
  891SOL     MW 3564   3.001   1.998   1.218 -0.1762 -0.2335 -0.0147
  892SOL     OW 3565   2.459   2.373   2.792 -0.4929  0.2650  0.0068
  892SOL    HW1 3566   2.456   2.326   2.871  1.8759  0.7307  1.1240
  892SOL    HW2 3567   2.548   2.418   2.807  2.1663  0.7015  1.9995
  892SOL     MW 3568   2.470   2.372   2.804  0.1705  0.3841  0.4171
  893SOL     OW 3569   1.652   2.397   1.330  0.1786  0.1255  0.4927
  893SOL    HW1 3570   1.581   2.403   1.395  2.3273 -1.2939  0.2890
  893SOL    HW2 3571   1.708   2.474   1.335 -0.4245 -0.3743  1.7534
  893SOL     MW 3572   1.650   2.408   1.339  0.3825 -0.1277  0.6322
  894SOL     OW 3573   2.743   1.827   0.475  0.3613  0.0432  0.1347
  894SOL    HW1 3574   2.657   1.870   0.506 -0.8251  2.6228  1.6238
  894SOL    HW2 3575   2.735   1.831   0.377 -0.4095 -1.2270  3.7625
  894SOL     MW 3576   2.730   1.833   0.466  0.1030  0.2160  0.8098
  895SOL     OW 3577   2.159   2.175   1.164  0.6094  0.1759 -0.6159
  895SOL    HW1 3578   2.158   2.261   1.118  0.5042 -0.7915 -4.0681
  895SOL    HW2 3579   2.206   2.106   1.120 -0.8421 -1.9797 -0.5772
  895SOL     MW 3580   2.165   2.177   1.152  0.4040 -0.2362 -1.0662
  896SOL     OW 3581   2.229   2.825   1.081 -0.6883  0.0046  0.2850
  896SOL    HW1 3582   2.282   2.800   1.159 -0.9693  0.6787  2.1804
  896SOL    HW2 3583   2.172   2.898   1.119  1.4461  1.3677 -2.7066
  896SOL     MW 3584   2.228   2.831   1.096 -0.4437  0.2733  0.1404
  897SOL     OW 3585   3.093   3.029   3.069 -0.0312  0.0565  0.2675
  897SOL    HW1 3586   3.126   2.942   3.076 -0.5216 -1.5986  2.2716
  897SOL    HW2 3587   3.032   3.023   2.992 -1.9555  2.5118 -2.0626
  897SOL     MW 3588   3.090   3.016   3.060 -0.3498  0.1621  0.2245
  898SOL     OW 3589   2.038   0.158   1.437  0.3430 -0.0007  0.1933
  898SOL    HW1 3590   2.030   0.068   1.475  0.3163  0.3793  1.6384
  898SOL    HW2 3591   2.047   0.150   1.340  0.9433  0.8128  0.4423
  898SOL     MW 3592   2.038   0.145   1.429  0.4187  0.1568  0.4169
  899SOL     OW 3593   2.945   3.008   0.617 -1.0026  0.0208 -0.1559
  899SOL    HW1 3594   2.971   2.918   0.642  2.9081 -2.5097 -1.5193
  899SOL    HW2 3595   2.851   3.010   0.641 -0.6236 -1.0818  1.6372
  899SOL     MW 3596   2.936   2.996   0.623 -0.4366 -0.4586 -0.0992
  900SOL     OW 3597   0.074   2.409   1.091  0.3080 -0.1869 -0.4034
  900SOL    HW1 3598   0.049   2.502   1.107 -1.1847 -0.9718  1.7180
  900SOL    HW2 3599   0.055   2.381   1.000  2.2129  0.2473 -0.4357
  900SOL     MW 3600   0.068   2.418   1.081  0.3624 -0.2332 -0.1278
  901SOL     OW 3601   1.739   2.804   1.795  0.0270 -0.8352  0.0226
  901SOL    HW1 3602   1.823   2.760   1.777 -2.4905  3.1811  1.9935
  901SOL    HW2 3603   1.696   2.786   1.712  0.4588  2.6347 -1.0063
  901SOL     MW 3604   1.745   2.796   1.781 -0.2482  0.1525  0.1469
  902SOL     OW 3605   2.656   2.109   1.655  0.0183  0.0732 -1.0992
  902SOL    HW1 3606   2.656   2.063   1.565 -1.8485 -0.3191  0.4922
  902SOL    HW2 3607   2.733   2.084   1.713 -1.4734  0.4286  0.4544
  902SOL     MW 3608   2.666   2.100   1.651 -0.4248  0.0683 -0.6842
  903SOL     OW 3609   1.528   2.632   0.635 -0.4674  0.7520  0.2300
  903SOL    HW1 3610   1.622   2.611   0.635  0.8199  2.2226 -4.2745
  903SOL    HW2 3611   1.499   2.685   0.707 -0.3211 -0.4789 -2.2345
  903SOL     MW 3612   1.536   2.636   0.644 -0.2783  0.7836 -0.6895
  904SOL     OW 3613   2.476   2.555   1.724 -0.1830  0.3820 -0.0425
  904SOL    HW1 3614   2.433   2.610   1.654 -0.6910  0.6811  0.7509
  904SOL    HW2 3615   2.515   2.482   1.669 -3.4474  0.8624  0.7238
  904SOL     MW 3616   2.475   2.552   1.707 -0.6807  0.4848  0.1633
  905SOL     OW 3617   2.301   2.483   2.091 -0.5259  0.0346 -0.3465
  905SOL    HW1 3618   2.366   2.441   2.033  0.1962 -2.1161 -0.1661
  905SOL    HW2 3619   2.266   2.421   2.173 -2.1418  2.3200  3.0868
  905SOL     MW 3620   2.305   2.469   2.094 -0.6439  0.0524  0.1303
  906SOL     OW 3621   2.510   2.499   0.799 -0.6771 -0.2539 -0.3180
  906SOL    HW1 3622   2.598   2.472   0.831  2.3070  2.2127  2.0278
  906SOL    HW2 3623   2.502   2.588   0.830  1.0902 -0.1278  1.7660
  906SOL     MW 3624   2.520   2.507   0.807 -0.0502  0.0882  0.2664
  907SOL     OW 3625   2.670   2.882   1.274 -0.1106 -0.1751 -0.0505
  907SOL    HW1 3626   2.730   2.924   1.337  1.5139  2.1668 -1.5695
  907SOL    HW2 3627   2.705   2.893   1.184 -0.4658  2.2187  1.1073
  907SOL     MW 3628   2.683   2.889   1.270  0.0569  0.4498 -0.0982
  908SOL     OW 3629   2.740   2.423   0.008  0.3568  0.1889  0.6588
  908SOL    HW1 3630   2.698   2.337   0.037 -0.5364  0.1991  0.9737
  908SOL    HW2 3631   2.689   2.486   0.059 -0.1693 -0.1072  0.5822
  908SOL     MW 3632   2.728   2.420   0.019  0.1696  0.1512  0.6902
  909SOL     OW 3633   1.761   0.125   1.225 -0.2743  0.4414  0.3083
  909SOL    HW1 3634   1.727   0.197   1.174 -2.2693  1.5680 -1.0143
  909SOL    HW2 3635   1.701   0.110   1.303 -0.6243 -2.0392  1.0442
  909SOL     MW 3636   1.749   0.132   1.228 -0.5837  0.2627  0.2309
  910SOL     OW 3637   2.201   1.669   0.410 -0.4256 -0.5854 -0.4534
  910SOL    HW1 3638   2.146   1.588   0.413 -2.4333  0.1554 -0.4068
  910SOL    HW2 3639   2.158   1.736   0.358  1.7380 -0.3861  0.6141
  910SOL     MW 3640   2.188   1.667   0.403 -0.4050 -0.4614 -0.3064
  911SOL     OW 3641   2.297   2.054   1.559  0.0387  0.2728  0.1279
  911SOL    HW1 3642   2.346   2.067   1.642  0.4220 -1.1292 -0.0710
  911SOL    HW2 3643   2.328   2.129   1.500  0.4467  2.9206 -0.0214
  911SOL     MW 3644   2.307   2.065   1.562  0.1431  0.4371  0.0819
  912SOL     OW 3645   2.910   1.864   1.440  0.0436 -0.8145 -0.2400
  912SOL    HW1 3646   2.939   1.889   1.342 -0.3675 -0.9903 -1.3789
  912SOL    HW2 3647   2.839   1.922   1.460  3.7098  0.8771 -1.7885
  912SOL     MW 3648   2.905   1.875   1.430  0.4731 -0.6145 -0.5946
  913SOL     OW 3649   2.659   3.086   0.302  0.5529  0.0790 -0.6664
  913SOL    HW1 3650   2.740   3.040   0.302  2.4622  2.9701 -2.1811
  913SOL    HW2 3651   2.594   3.032   0.250 -0.3034  0.8141  0.4890
  913SOL     MW 3652   2.661   3.073   0.295  0.6918  0.5574 -0.7138
  914SOL     OW 3653   2.676   1.845   3.015 -0.1655 -0.4453 -1.0028
  914SOL    HW1 3654   2.705   1.900   2.941 -1.5681  2.0472 -1.4995
  914SOL    HW2 3655   2.584   1.829   3.003 -1.6747 -2.2491 -0.4309
  914SOL     MW 3656   2.667   1.850   3.004 -0.5497 -0.3544 -0.9929
  915SOL     OW 3657   1.775   0.165   0.167 -0.1133 -0.1256 -0.8476
  915SOL    HW1 3658   1.831   0.101   0.217  0.2815  1.1586 -1.9777
  915SOL    HW2 3659   1.686   0.125   0.162 -1.9272 -0.8251 -0.6112
  915SOL     MW 3660   1.770   0.152   0.173 -0.3005 -0.0484 -0.9656
  916SOL     OW 3661   1.733   2.176   2.034 -0.3850 -0.0353  0.7145
  916SOL    HW1 3662   1.774   2.263   2.033 -0.6028  0.0904  0.8017
  916SOL    HW2 3663   1.780   2.117   1.976  2.9861 -0.8639  2.0674
  916SOL     MW 3664   1.744   2.180   2.027  0.0311 -0.1280  0.9045
  917SOL     OW 3665   2.513   2.226   2.566 -0.6256  0.7168  0.2546
  917SOL    HW1 3666   2.489   2.286   2.637  2.1258 -0.9505  2.9152
  917SOL    HW2 3667   2.581   2.276   2.528 -0.6866 -0.0335  0.0038
  917SOL     MW 3668   2.519   2.240   2.570 -0.2706  0.3979  0.5725
  918SOL     OW 3669   2.028   1.611   2.678  0.2026  0.4332 -0.0575
  918SOL    HW1 3670   1.951   1.653   2.631 -0.4465  2.0312  0.8508
  918SOL    HW2 3671   2.103   1.671   2.660  0.5701  0.8455 -1.6094
  918SOL     MW 3672   2.028   1.624   2.669  0.1655  0.6984 -0.1424
  919SOL     OW 3673   3.075   2.403   2.252  0.6341 -0.3013 -0.5008
  919SOL    HW1 3674   3.012   2.331   2.237  1.4306 -1.5011 -1.2638
  919SOL    HW2 3675   3.139   2.398   2.169  0.1479 -0.6422 -1.5835
  919SOL     MW 3676   3.075   2.393   2.239  0.6750 -0.5046 -0.7443
  920SOL     OW 3677   2.703   2.842   3.042  0.2304 -0.0383  0.1870
  920SOL    HW1 3678   2.610   2.854   3.027 -0.0668 -1.5312 -1.9634
  920SOL    HW2 3679   2.750   2.790   2.980 -0.6575  0.2972  3.2632
  920SOL     MW 3680   2.697   2.837   3.032  0.0740 -0.1910  0.3091
  921SOL     OW 3681   2.424   2.583   2.615  0.1736 -0.1880  0.2550
  921SOL    HW1 3682   2.490   2.590   2.549  0.4928  0.4100  0.6676
  921SOL    HW2 3683   2.457   2.515   2.673  1.5284 -0.8814  1.4424
  921SOL     MW 3684   2.437   2.575   2.614  0.3945 -0.2006  0.4661
  922SOL     OW 3685   2.039   2.780   0.344  0.2111  0.0595  0.3941
  922SOL    HW1 3686   2.017   2.795   0.253  0.0470 -2.0046  0.7957
  922SOL    HW2 3687   2.073   2.689   0.349 -0.8509 -3.1397 -0.6721
  922SOL     MW 3688   2.041   2.770   0.333  0.0493 -0.6350  0.3064
  923SOL     OW 3689   2.193   2.860   1.674 -0.0446 -0.3680 -0.1323
  923SOL    HW1 3690   2.243   2.808   1.614 -1.3647  1.5038  0.3750
  923SOL    HW2 3691   2.146   2.918   1.616 -0.2690 -0.1857  0.9831
  923SOL     MW 3692   2.194   2.861   1.658 -0.2484 -0.0970  0.0818
  924SOL     OW 3693   1.116   2.756   2.628 -0.1259  0.2524  0.2203
  924SOL    HW1 3694   1.208   2.774   2.625 -0.6733 -4.1822 -0.0771
  924SOL    HW2 3695   1.101   2.681   2.687 -2.2898 -2.3655  2.0966
  924SOL     MW 3696   1.127   2.748   2.636 -0.4837 -0.6781  0.4286
  925SOL     OW 3697   3.005   0.232   2.695 -0.5333 -0.2353  0.2672
  925SOL    HW1 3698   2.951   0.232   2.611  1.2193  1.5365 -1.9977
  925SOL    HW2 3699   2.970   0.302   2.742 -0.0436  2.2937 -0.1245
  925SOL     MW 3700   2.994   0.241   2.690 -0.2375  0.3322 -0.0833
  926SOL     OW 3701   2.742   2.339   2.020  0.9356 -0.6829  0.1077
  926SOL    HW1 3702   2.771   2.423   2.062  0.2024  0.8444  1.2885
  926SOL    HW2 3703   2.766   2.337   1.925  0.6184  1.2530 -2.2428
  926SOL     MW 3704   2.749   2.350   2.013  0.7970 -0.2260 -0.0466
  927SOL     OW 3705   2.369   0.172   0.289  0.5653 -0.1201  0.1658
  927SOL    HW1 3706   2.459   0.210   0.288  1.3332 -1.0646 -0.1897
  927SOL    HW2 3707   2.359   0.145   0.192 -0.0379 -0.9996 -0.8602
  927SOL     MW 3708   2.380   0.174   0.276  0.5871 -0.3608 -0.0165
  928SOL     OW 3709   2.180   2.421   1.755  0.2262 -0.5320 -0.2036
  928SOL    HW1 3710   2.141   2.496   1.710 -2.3823  0.0099  0.1168
  928SOL    HW2 3711   2.269   2.446   1.751 -0.4805 -0.0444 -1.6830
  928SOL     MW 3712   2.187   2.434   1.748 -0.2112 -0.3962 -0.3565
  929SOL     OW 3713   2.730   2.367   2.479  0.3207  0.0169 -0.2251
  929SOL    HW1 3714   2.778   2.327   2.409 -1.0421 -0.3764 -2.6759
  929SOL    HW2 3715   2.803   2.382   2.538  0.6672 -0.6615  1.2332
  929SOL     MW 3716   2.746   2.364   2.477  0.1866 -0.1245 -0.3561
  930SOL     OW 3717   2.009   2.827   2.605  0.1771 -0.0741  0.2052
  930SOL    HW1 3718   2.043   2.771   2.683  0.2909 -1.9206  0.3330
  930SOL    HW2 3719   2.091   2.876   2.584  4.1200 -0.5254 -1.2708
  930SOL     MW 3720   2.025   2.826   2.613  0.7123 -0.3772  0.0273
  931SOL     OW 3721  -0.002   2.767   2.476  0.1147  0.3770  0.1577
  931SOL    HW1 3722   0.004   2.805   2.566  0.0623  1.4378 -2.3355
  931SOL    HW2 3723   0.086   2.762   2.450  2.3199  2.9376 -0.1650
  931SOL     MW 3724   0.010   2.772   2.484  0.3987  0.8548 -0.2138
  932SOL     OW 3725   2.892   1.861   2.485 -0.1576  0.1619  0.1964
  932SOL    HW1 3726   2.963   1.923   2.508  1.9652  0.2410 -0.5670
  932SOL    HW2 3727   2.854   1.895   2.401 -3.6068 -0.5589  0.3627
  932SOL     MW 3728   2.897   1.874   2.477 -0.3326  0.0772  0.1176
  933SOL     OW 3729   2.032   2.785   2.223  0.0399  0.0660  0.3983
  933SOL    HW1 3730   2.117   2.809   2.276 -2.1572  0.7014 -1.7329
  933SOL    HW2 3731   1.992   2.870   2.207 -0.9044 -0.5409 -0.4375
  933SOL     MW 3732   2.038   2.800   2.228 -0.3746  0.0698  0.0069
  934SOL     OW 3733   1.988   2.617   2.442 -0.4101 -0.5491 -0.1467
  934SOL    HW1 3734   1.995   2.698   2.491  3.5446  2.1299  0.2052
  934SOL    HW2 3735   1.973   2.648   2.353 -1.3910 -0.4242  2.3061
  934SOL     MW 3736   1.987   2.632   2.436 -0.0177 -0.1792  0.2234
  935SOL     OW 3737   2.696   1.585   1.814  0.8123 -0.0829 -0.2765
  935SOL    HW1 3738   2.785   1.563   1.789  0.0327  0.7758 -2.1808
  935SOL    HW2 3739   2.626   1.553   1.734 -3.4089 -0.3575 -1.5748
  935SOL     MW 3740   2.698   1.578   1.800  0.1525 -0.0058 -0.6990
  936SOL     OW 3741   2.982   2.283   3.094 -0.5861  0.0245 -0.6657
  936SOL    HW1 3742   3.063   2.290   3.150  1.2557 -1.6322  0.8146
  936SOL    HW2 3743   2.928   2.356   3.120  1.5388  1.0867  0.0040
  936SOL     MW 3744   2.985   2.293   3.104 -0.0627 -0.0540 -0.3821
  937SOL     OW 3745   2.020   2.166   2.695 -0.4617  0.7964 -0.2706
  937SOL    HW1 3746   2.110   2.131   2.705  0.9802 -1.0348  0.9317
  937SOL    HW2 3747   1.993   2.142   2.603  3.3055  1.2147  0.8486
  937SOL     MW 3748   2.029   2.158   2.684  0.2256  0.6100  0.0357
  938SOL     OW 3749   2.289   1.747   1.914  0.5329 -0.3159  0.4324
  938SOL    HW1 3750   2.288   1.772   1.822 -1.1904  0.5730  1.9149
  938SOL    HW2 3751   2.276   1.829   1.959  1.2137 -0.9994 -0.3021
  938SOL     MW 3752   2.287   1.762   1.908  0.3953 -0.2888  0.5311
  939SOL     OW 3753   2.802   1.968   2.255 -0.1775  0.1497 -0.3367
  939SOL    HW1 3754   2.819   1.917   2.171 -1.3377 -1.0570  1.0656
  939SOL    HW2 3755   2.709   1.959   2.274  3.2852 -1.8022  0.8886
  939SOL     MW 3756   2.792   1.961   2.247  0.1263 -0.2670  0.0100
  940SOL     OW 3757   2.256   0.149   2.679 -0.5971  0.3538 -0.3262
  940SOL    HW1 3758   2.255   0.057   2.647 -3.2252  1.9747 -1.5420
  940SOL    HW2 3759   2.317   0.143   2.754 -0.5538  0.8203  1.2345
  940SOL     MW 3760   2.264   0.136   2.685 -0.9381  0.6292 -0.2807
  941SOL     OW 3761   0.162   2.408   2.055  0.2488 -0.0318  0.2459
  941SOL    HW1 3762   0.243   2.358   2.068  3.0375 -3.0626 -3.0336
  941SOL    HW2 3763   0.147   2.416   1.962 -0.1764 -2.9178  1.8826
  941SOL     MW 3764   0.171   2.402   2.044  0.5606 -0.8125  0.0292
  942SOL     OW 3765   2.856   2.233   2.245  0.4157  0.4876 -0.2943
  942SOL    HW1 3766   2.818   2.261   2.162 -2.7145  0.2899  0.1151
  942SOL    HW2 3767   2.849   2.133   2.265 -0.6043 -3.2158  0.4262
  942SOL     MW 3768   2.850   2.224   2.237 -0.1319 -0.0271 -0.1452
  943SOL     OW 3769   0.238   2.110   2.288  0.3887 -0.1081 -0.2405
  943SOL    HW1 3770   0.187   2.171   2.340 -0.4078  1.6833  0.2134
  943SOL    HW2 3771   0.290   2.047   2.349 -1.3298 -1.5294 -0.6529
  943SOL     MW 3772   0.238   2.109   2.303  0.0568 -0.0592 -0.2350
  944SOL     OW 3773   2.111   2.633   2.001  0.4738 -0.0204  0.3595
  944SOL    HW1 3774   2.192   2.579   2.020 -1.4411 -0.3294 -0.8079
  944SOL    HW2 3775   2.091   2.671   2.085  1.6268 -0.8154  0.9382
  944SOL     MW 3776   2.119   2.631   2.015  0.3732 -0.1661  0.2818
  945SOL     OW 3777   2.818   2.719   2.835  0.9151 -0.2802 -0.9483
  945SOL    HW1 3778   2.777   2.634   2.819 -1.3769  3.7889  1.8110
  945SOL    HW2 3779   2.809   2.765   2.751  0.3877  1.6814 -0.6127
  945SOL     MW 3780   2.811   2.714   2.822  0.5431  0.5155 -0.5399
  946SOL     OW 3781   2.432   2.668   2.235  0.4324 -0.0162  0.1737
  946SOL    HW1 3782   2.498   2.706   2.161 -1.8466  1.4360  3.7034
  946SOL    HW2 3783   2.381   2.593   2.197 -1.5970  0.1409 -0.4234
  946SOL     MW 3784   2.434   2.663   2.220 -0.1360  0.1962  0.5607
  947SOL     OW 3785   2.006   0.014   0.257  0.5965  0.4455 -0.0721
  947SOL    HW1 3786   1.977  -0.082   0.256 -1.2881  1.7103 -1.6517
  947SOL    HW2 3787   2.044   0.026   0.342  0.0123  1.1147  0.5158
  947SOL     MW 3788   2.007   0.003   0.268  0.2708  0.7007 -0.2029
  948SOL     OW 3789   1.799   3.001   2.702  0.0525  0.1579 -0.0002
  948SOL    HW1 3790   1.854   2.922   2.683 -0.2543  0.9856 -0.9502
  948SOL    HW2 3791   1.782   3.020   2.609 -3.4133  0.0303 -1.6591
  948SOL     MW 3792   1.804   2.993   2.687 -0.4453  0.2503 -0.3444
  949SOL     OW 3793   2.505   1.964   2.308 -0.3387 -0.1745 -0.6798
  949SOL    HW1 3794   2.479   1.870   2.312 -0.1925  0.7688  0.5158
  949SOL    HW2 3795   2.427   2.015   2.332 -1.3119  0.7143 -0.4725
  949SOL     MW 3796   2.492   1.958   2.312 -0.4478  0.0672 -0.4947
  950SOL     OW 3797   2.289   2.584   2.934  0.0082  0.0921  0.0110
  950SOL    HW1 3798   2.323   2.525   2.866  1.4802  0.8575 -0.8597
  950SOL    HW2 3799   2.190   2.611   2.907  0.6360  0.0033 -0.2029
  950SOL     MW 3800   2.280   2.580   2.922  0.2852  0.1813 -0.1321
  951SOL     OW 3801   3.073   2.219   2.857  0.1089  0.3472  0.4448
  951SOL    HW1 3802   3.014   2.248   2.935 -0.9745 -2.2138 -1.3811
  951SOL    HW2 3803   3.091   2.129   2.877 -2.0206  0.0407  1.4628
  951SOL     MW 3804   3.067   2.211   2.870 -0.3150 -0.0312  0.3382
  952SOL     OW 3805   3.040   1.659   2.111 -0.3016  0.2320  0.4690
  952SOL    HW1 3806   2.970   1.690   2.055  0.1349 -1.2626  1.8163
  952SOL    HW2 3807   3.086   1.747   2.112 -1.4363  2.0811 -1.0902
  952SOL     MW 3808   3.037   1.675   2.104 -0.3937  0.2788  0.4410
  953SOL     OW 3809   1.959   1.781   2.897  0.2884 -0.3834  0.5728
  953SOL    HW1 3810   1.877   1.753   2.937 -0.8256  0.1752  0.8856
  953SOL    HW2 3811   1.991   1.699   2.846  2.7544  0.7084  2.5782
  953SOL     MW 3812   1.953   1.766   2.895  0.4668 -0.1656  0.8787
  954SOL     OW 3813   2.472   2.123   2.919 -0.0193  0.1570 -0.0275
  954SOL    HW1 3814   2.386   2.098   2.871 -1.3830 -1.2057 -1.7279
  954SOL    HW2 3815   2.531   2.097   2.857 -0.1904  1.1445  1.9362
  954SOL     MW 3816   2.469   2.116   2.905 -0.2218  0.1075  0.0072
  955SOL     OW 3817   1.551   1.610   2.531 -0.0699 -0.2038  0.3160
  955SOL    HW1 3818   1.536   1.596   2.435  1.2258 -3.8628 -0.9277
  955SOL    HW2 3819   1.643   1.649   2.542  0.8310 -0.5647  0.2381
  955SOL     MW 3820   1.561   1.613   2.520  0.2199 -0.7342  0.1416
  956SOL     OW 3821   2.711   2.466   2.826  0.1410  0.5257 -0.1260
  956SOL    HW1 3822   2.708   2.444   2.928 -1.6206 -0.9339  3.1219
  956SOL    HW2 3823   2.799   2.440   2.795  0.1880  0.8904 -2.9325
  956SOL     MW 3824   2.722   2.460   2.835 -0.0852  0.3812 -0.0677
  957SOL     OW 3825   2.262   2.912   0.477  0.1311 -0.6191  0.6947
  957SOL    HW1 3826   2.190   2.862   0.431 -1.9215  0.2047 -0.3479
  957SOL    HW2 3827   2.276   2.853   0.549  2.5499 -0.0666  0.6061
  957SOL     MW 3828   2.254   2.898   0.480  0.1794 -0.4375  0.5455
  958SOL     OW 3829   2.048   2.668   2.829  0.3872 -0.3531 -0.0977
  958SOL    HW1 3830   2.020   2.592   2.767 -1.5115  1.4622 -0.8752
  958SOL    HW2 3831   1.967   2.669   2.887 -0.0229  1.1389 -0.8286
  958SOL     MW 3832   2.033   2.658   2.828  0.0826  0.0833 -0.2967
  959SOL     OW 3833   2.514   2.799   0.456  0.1324  0.0603  0.2469
  959SOL    HW1 3834   2.553   2.803   0.369 -1.4419  0.4771  0.3786
  959SOL    HW2 3835   2.415   2.812   0.447 -1.4729 -1.6510  1.2560
  959SOL     MW 3836   2.506   2.801   0.444 -0.2872 -0.1105  0.3974
  960SOL     OW 3837   1.947   2.304   2.336  0.1469  0.7197  0.1624
  960SOL    HW1 3838   1.933   2.212   2.359 -1.2510  1.0656 -2.5863
  960SOL    HW2 3839   1.901   2.348   2.410 -0.0321  2.0581 -0.0033
  960SOL     MW 3840   1.939   2.298   2.349 -0.0612  0.9419 -0.2221
  961SOL     OW 3841   2.221   2.322   2.285 -0.0662 -0.3135  0.7062
  961SOL    HW1 3842   2.127   2.328   2.267  0.8958 -1.3263  0.0708
  961SOL    HW2 3843   2.233   2.376   2.360 -1.7424  0.1953 -1.3085
  961SOL     MW 3844   2.210   2.330   2.293 -0.1605 -0.3800  0.3566
  962SOL     OW 3845   2.235   2.038   2.787  0.4442  0.7555  1.0663
  962SOL    HW1 3846   2.189   2.015   2.868  1.3690 -3.7496  2.1236
  962SOL    HW2 3847   2.247   1.957   2.746  0.9806  3.9693  3.0486
  962SOL     MW 3848   2.231   2.024   2.792  0.6370  0.5851  1.4674
  963SOL     OW 3849   1.782   2.490   2.142  0.2164  0.8374  0.3915
  963SOL    HW1 3850   1.845   2.447   2.203  1.2907 -1.0689  0.3057
  963SOL    HW2 3851   1.825   2.465   2.058  1.1772 -2.3351  1.8643
  963SOL     MW 3852   1.796   2.481   2.139  0.4849  0.1673  0.5745
  964SOL     OW 3853   1.825   1.954   2.718 -0.1886 -1.1337  0.0014
  964SOL    HW1 3854   1.889   2.026   2.714  2.5463 -1.3881  1.5738
  964SOL    HW2 3855   1.866   1.891   2.788 -0.2646 -0.4723 -0.1373
  964SOL     MW 3856   1.839   1.955   2.726  0.1622 -1.0800  0.1905
  965SOL     OW 3857   2.243   2.710   0.683 -0.1616 -0.1766  0.2102
  965SOL    HW1 3858   2.246   2.616   0.672 -0.2206 -0.5149  1.7774
  965SOL    HW2 3859   2.295   2.723   0.766 -3.9490 -1.1889  1.1431
  965SOL     MW 3860   2.250   2.699   0.692 -0.6691 -0.3548  0.5401
  966SOL     OW 3861   2.673   2.604   2.375 -0.0098  0.1691 -0.5442
  966SOL    HW1 3862   2.593   2.629   2.331  0.9469 -0.7574  0.4034
  966SOL    HW2 3863   2.654   2.516   2.402  0.5391 -0.3190 -0.9038
  966SOL     MW 3864   2.660   2.595   2.372  0.1889 -0.0176 -0.4666
  967SOL     OW 3865   2.826   3.059   2.946 -0.0073 -0.4517  0.4501
  967SOL    HW1 3866   2.798   2.972   2.985  1.1008  1.8831  0.5078
  967SOL    HW2 3867   2.749   3.085   2.890  0.4328 -1.7236 -0.5933
  967SOL     MW 3868   2.813   3.051   2.943  0.1970 -0.3115  0.3201
  968SOL     OW 3869   3.035   2.632   3.006 -0.2497 -0.1299 -0.0364
  968SOL    HW1 3870   2.955   2.658   2.955 -1.5143  2.0430  0.4160
  968SOL    HW2 3871   3.082   2.582   2.939  0.6604 -0.3612  1.3607
  968SOL     MW 3872   3.031   2.629   2.990 -0.2965  0.1262  0.2076
  969SOL     OW 3873   1.609   2.207   1.694  0.1918  0.3262 -0.1005
  969SOL    HW1 3874   1.684   2.148   1.712 -0.0157 -0.0771 -1.6476
  969SOL    HW2 3875   1.571   2.218   1.786  0.9369 -1.2823 -1.1097
  969SOL     MW 3876   1.614   2.200   1.708  0.2627  0.0608 -0.4378
  970SOL     OW 3877   1.785   1.833   1.903  0.0342  0.1624 -0.0427
  970SOL    HW1 3878   1.820   1.775   1.969  1.6605 -1.3325 -0.3361
  970SOL    HW2 3879   1.702   1.784   1.896  2.1131 -1.5693  0.8824
  970SOL     MW 3880   1.779   1.819   1.911  0.5231 -0.2633  0.0407
  971SOL     OW 3881   1.780   3.044   2.409  0.1616 -0.6325 -0.1538
  971SOL    HW1 3882   1.816   3.008   2.323  1.5192 -2.8557  1.4844
  971SOL    HW2 3883   1.828   3.122   2.412 -1.9536 -2.4209  0.9753
  971SOL     MW 3884   1.791   3.050   2.398  0.0616 -1.1618  0.2113
  972SOL     OW 3885   0.265   2.850   2.457  0.4222 -0.6108 -0.1734
  972SOL    HW1 3886   0.337   2.790   2.438  1.5301 -3.1458 -0.8322
  972SOL    HW2 3887   0.313   2.939   2.475  1.7751  1.3747  2.9343
  972SOL     MW 3888   0.281   2.854   2.457  0.7469 -0.6833  0.1497
  973SOL     OW 3889   2.607   3.068   2.110 -0.3790 -0.4820  0.3880
  973SOL    HW1 3890   2.605   2.975   2.083 -0.4721  0.7801 -0.2612
  973SOL    HW2 3891   2.619   3.115   2.028 -0.5564 -0.8486  1.9627
  973SOL     MW 3892   2.609   3.062   2.096 -0.4147 -0.3638  0.5101
  974SOL     OW 3893   1.981   0.143   2.659 -0.1816 -0.1456 -0.7654
  974SOL    HW1 3894   2.077   0.155   2.680  0.3679 -0.3784 -2.1118
  974SOL    HW2 3895   1.961   0.059   2.704  0.0514 -0.1470 -2.5918
  974SOL     MW 3896   1.991   0.134   2.668 -0.0783 -0.1765 -1.1840
  975SOL     OW 3897   2.205   2.489   2.493  0.1004 -0.1348 -0.2529
  975SOL    HW1 3898   2.279   2.537   2.529 -0.6744 -1.3504  0.4950
  975SOL    HW2 3899   2.127   2.550   2.483  0.0643  1.7159  1.1510
  975SOL     MW 3900   2.204   2.503   2.497 -0.0066 -0.0510  0.0310
  976SOL     OW 3901   0.168   0.350   1.731  0.3301  0.2289 -0.6571
  976SOL    HW1 3902   0.236   0.295   1.764 -2.8144  2.2176  3.0520
  976SOL    HW2 3903   0.097   0.286   1.698  0.5906 -1.1687 -1.7733
  976SOL     MW 3904   0.168   0.334   1.731 -0.0504  0.3069 -0.3150
  977SOL     OW 3905   1.698   2.711   2.458  0.0813 -0.1511 -0.6516
  977SOL    HW1 3906   1.720   2.620   2.477  1.7726  1.3367 -1.9547
  977SOL    HW2 3907   1.789   2.742   2.457  1.5844 -0.2323  1.5467
  977SOL     MW 3908   1.713   2.703   2.460  0.5027  0.0345 -0.5335
   3.10000   3.10000   3.10000
