977 TIP4P/2005f water molecules t=   1.97000 step= 1970
 3908
    1SOL     OW    1   0.448   0.726   0.175 -0.0197  0.2906 -0.0494
    1SOL    HW1    2   0.376   0.696   0.119 -0.8718 -2.5914  0.7399
    1SOL    HW2    3   0.465   0.644   0.222  0.6271 -0.5594  1.2439
    1SOL     MW    4   0.441   0.711   0.174 -0.0468 -0.2018  0.2254
    2SOL     OW    5   0.276   2.976   1.147  0.2241  0.0057 -0.5334
    2SOL    HW1    6   0.328   3.057   1.142 -3.2358  1.4862  1.4782
    2SOL    HW2    7   0.193   3.011   1.115  0.8264  0.0659  0.6199
    2SOL     MW    8   0.272   2.991   1.142 -0.1530  0.2090 -0.1158
    3SOL     OW    9   2.691   0.352   0.865 -0.3879 -0.7456  0.1532
    3SOL    HW1   10   2.711   0.444   0.839  2.5006  0.9807  0.4249
    3SOL    HW2   11   2.678   0.362   0.959  1.7429  0.6612 -4.5504
    3SOL     MW   12   2.692   0.366   0.874  0.2743 -0.3322 -0.4315
    4SOL     OW   13   2.932   1.716   0.561 -0.0432 -0.7390  0.2353
    4SOL    HW1   14   2.877   1.793   0.547  0.5426 -1.3467  1.1257
    4SOL    HW2   15   3.001   1.706   0.483  1.8751 -1.7243  0.8965
    4SOL     MW   16   2.934   1.725   0.548  0.2872 -0.9492  0.4400
    5SOL     OW   17   1.615   1.473   0.630 -0.1857  0.6421  0.5569
    5SOL    HW1   18   1.645   1.431   0.713  0.2906 -1.7410  0.0958
    5SOL    HW2   19   1.524   1.500   0.630  3.0918 -0.1497 -0.2405
    5SOL     MW   20   1.607   1.471   0.641  0.3096  0.2232  0.3908
    6SOL     OW   21   0.755   1.441   0.628 -0.2391  0.1821  0.1145
    6SOL    HW1   22   0.681   1.408   0.581 -3.1963  0.2282  1.1070
    6SOL    HW2   23   0.777   1.357   0.666 -0.1166  1.8256  1.2641
    6SOL     MW   24   0.748   1.425   0.627 -0.6131  0.4050  0.3972
    7SOL     OW   25   1.981   1.022   0.054 -0.6711 -0.2598  0.1961
    7SOL    HW1   26   2.053   1.088   0.082 -0.4578  1.9331  1.0291
    7SOL    HW2   27   1.925   1.012   0.134 -3.1550 -2.1690  2.9305
    7SOL     MW   28   1.983   1.030   0.069 -0.9707 -0.2224  0.6668
    8SOL     OW   29   0.875   1.408   0.992  0.1204  0.3351 -0.1071
    8SOL    HW1   30   0.916   1.482   1.037  1.8429 -4.7519  2.7109
    8SOL    HW2   31   0.898   1.331   1.047  0.9685 -1.0684  1.7512
    8SOL     MW   32   0.883   1.407   1.005  0.4596 -0.5212  0.5099
    9SOL     OW   33   0.881   0.539   1.304  0.3642 -0.1369  0.1445
    9SOL    HW1   34   0.858   0.453   1.274  3.4706  0.6112  1.2049
    9SOL    HW2   35   0.942   0.523   1.374 -0.5976  3.0858  1.1065
    9SOL     MW   36   0.886   0.525   1.310  0.6472  0.3870  0.4113
   10SOL     OW   37   0.323   0.843   0.494  0.0571 -0.0378 -0.2493
   10SOL    HW1   38   0.410   0.886   0.493  1.2505  0.9489 -0.4907
   10SOL    HW2   39   0.280   0.875   0.572  0.4983  0.8663 -1.1248
   10SOL     MW   40   0.328   0.853   0.504  0.2728  0.2117 -0.3966
   11SOL     OW   41   0.729   1.088   1.450  0.1893 -0.6117  0.0949
   11SOL    HW1   42   0.798   1.097   1.516 -0.6340 -0.6699  0.2954
   11SOL    HW2   43   0.745   0.998   1.429 -0.5641  0.1787 -1.0948
   11SOL     MW   44   0.741   1.077   1.456 -0.0187 -0.5151 -0.0356
   12SOL     OW   45   3.096   1.078   0.904  0.3047  0.6159 -0.2857
   12SOL    HW1   46   3.110   1.168   0.925 -0.6748  0.5266  1.9382
   12SOL    HW2   47   3.105   1.088   0.810  0.6927  0.3444  1.1497
   12SOL     MW   48   3.099   1.091   0.894  0.2266  0.5683  0.1971
   13SOL     OW   49   1.874   1.409   1.291  0.2739 -0.3477 -0.2202
   13SOL    HW1   50   1.901   1.327   1.246 -1.1692 -1.5073  1.9649
   13SOL    HW2   51   1.947   1.466   1.270  2.8167 -1.4624  0.5457
   13SOL     MW   52   1.887   1.406   1.282  0.4190 -0.6477  0.1692
   14SOL     OW   53   0.564   0.246   1.868 -0.4645  0.0327 -0.1008
   14SOL    HW1   54   0.619   0.181   1.820 -3.5288 -0.4429  0.3403
   14SOL    HW2   55   0.546   0.317   1.807  1.8415 -0.4748  1.2486
   14SOL     MW   56   0.569   0.247   1.854 -0.5646 -0.0970  0.1354
   15SOL     OW   57   1.987   0.414   0.976 -0.2335 -0.4271  0.2770
   15SOL    HW1   58   2.015   0.493   1.021 -0.1760  3.0346 -1.6098
   15SOL    HW2   59   2.004   0.425   0.878 -1.5136  1.6435  0.4269
   15SOL     MW   60   1.993   0.426   0.969 -0.3948  0.3029  0.0478
   16SOL     OW   61   0.206   1.828   0.262 -0.1046 -0.3499  0.8681
   16SOL    HW1   62   0.303   1.799   0.268 -1.2935  2.1528  1.8799
   16SOL    HW2   63   0.213   1.915   0.309 -1.9186  2.3236 -0.2228
   16SOL     MW   64   0.220   1.836   0.269 -0.5008  0.3331  0.8577
   17SOL     OW   65   1.124   0.826   1.382 -0.0331 -0.5482 -0.4613
   17SOL    HW1   66   1.165   0.808   1.468 -0.0690 -0.3916  1.4901
   17SOL    HW2   67   1.032   0.809   1.382 -1.2210 -2.5058  1.6875
   17SOL     MW   68   1.117   0.821   1.393 -0.1946 -0.7858  0.0797
   18SOL     OW   69   0.010   1.668   0.352  0.2552  0.8515 -0.1640
   18SOL    HW1   70   0.068   1.740   0.332 -0.7874  0.6755 -1.1916
   18SOL    HW2   71  -0.012   1.626   0.270  1.9336  1.4332  0.2201
   18SOL     MW   72   0.015   1.672   0.339  0.3391  0.9050 -0.2489
   19SOL     OW   73   0.073   1.381   0.938 -0.6156 -0.4055 -0.1159
   19SOL    HW1   74   0.088   1.429   0.859  1.4050  0.8277  2.9743
   19SOL    HW2   75  -0.021   1.397   0.966 -2.9268  0.2121  0.1638
   19SOL     MW   76   0.063   1.390   0.931 -0.6540 -0.1613  0.3287
   20SOL     OW   77   0.466   2.127   1.262  0.4773  0.3270 -0.1570
   20SOL    HW1   78   0.432   2.034   1.252  1.9651 -0.3909  0.2615
   20SOL    HW2   79   0.431   2.159   1.347 -2.7082 -0.4772  2.7863
   20SOL     MW   80   0.457   2.119   1.272  0.2533  0.1262  0.2865
   21SOL     OW   81   0.589   0.947   0.461  0.3169  0.2153 -0.0758
   21SOL    HW1   82   0.643   0.889   0.516  3.9510  2.4182 -1.2183
   21SOL    HW2   83   0.649   0.965   0.391 -2.6500  0.1476  1.9831
   21SOL     MW   84   0.604   0.942   0.459  0.4049  0.4970  0.0451
   22SOL     OW   85   1.539   0.775   0.939 -0.1827  0.1037 -0.2847
   22SOL    HW1   86   1.512   0.728   0.863 -0.6253 -1.6908  1.4458
   22SOL    HW2   87   1.453   0.800   0.973  1.8470 -0.6541  0.8505
   22SOL     MW   88   1.524   0.772   0.934  0.0267 -0.2330  0.0934
   23SOL     OW   89   3.085   0.825   0.701 -0.5969 -0.1040  0.7017
   23SOL    HW1   90   3.140   0.759   0.751 -1.7385 -1.0510  0.7512
   23SOL    HW2   91   3.158   0.895   0.696  3.4424  1.5260 -1.9933
   23SOL     MW   92   3.102   0.826   0.707 -0.2146 -0.0139  0.3527
   24SOL     OW   93   2.022   2.176   0.025  0.1621 -0.2206 -0.3686
   24SOL    HW1   94   1.982   2.157   0.118  2.6598 -0.4555 -0.9192
   24SOL    HW2   95   2.022   2.085  -0.017  1.8783 -0.4438 -0.7399
   24SOL     MW   96   2.017   2.161   0.032  0.7181 -0.2811 -0.4903
   25SOL     OW   97   0.215   1.500   0.400 -0.0341  1.0723 -0.2299
   25SOL    HW1   98   0.156   1.561   0.371  1.4994 -1.5838 -1.0854
   25SOL    HW2   99   0.250   1.486   0.316  2.3266  2.9817 -1.8956
   25SOL     MW  100   0.212   1.506   0.385  0.4797  0.9738 -0.5625
   26SOL     OW  101   1.961   1.016   0.337  0.3716  0.4783  0.2790
   26SOL    HW1  102   1.904   1.056   0.404  1.0360  0.4143 -0.9643
   26SOL    HW2  103   2.014   1.089   0.297  0.3078 -1.8760 -1.0750
   26SOL     MW  104   1.960   1.031   0.340  0.4508  0.1592 -0.0637
   27SOL     OW  105   1.857   1.337   0.165  0.0294 -0.2201  0.6009
   27SOL    HW1  106   1.789   1.397   0.205 -1.6445  0.0564 -1.9560
   27SOL    HW2  107   1.939   1.358   0.212  0.2616 -0.3709  1.7023
   27SOL     MW  108   1.859   1.347   0.177 -0.1609 -0.2035  0.4089
   28SOL     OW  109   0.430   0.910   2.054 -0.2484 -0.3738 -0.3120
   28SOL    HW1  110   0.461   0.886   2.136  0.0576  0.5735 -0.8329
   28SOL    HW2  111   0.336   0.879   2.055 -2.9665 -0.4138  0.3410
   28SOL     MW  112   0.422   0.903   2.065 -0.5666 -0.2541 -0.2946
   29SOL     OW  113   0.192   1.442   0.689  0.3293 -0.1940 -0.1191
   29SOL    HW1  114   0.183   1.528   0.646  2.6287 -1.3962  0.0216
   29SOL    HW2  115   0.202   1.382   0.618 -1.5031 -0.0851 -0.6483
   29SOL     MW  116   0.192   1.446   0.674  0.3909 -0.3382 -0.1704
   30SOL     OW  117   0.729   1.252   1.238 -0.3036 -0.4469 -0.0743
   30SOL    HW1  118   0.636   1.229   1.237  0.0528  2.0087 -2.3660
   30SOL    HW2  119   0.757   1.209   1.325 -0.2746 -1.1981 -0.2037
   30SOL     MW  120   0.720   1.243   1.249 -0.2528 -0.2220 -0.3938
   31SOL     OW  121   0.439   0.257   0.198 -0.2878  0.1530  0.5390
   31SOL    HW1  122   0.482   0.192   0.249 -2.1418  3.0774  0.4345
   31SOL    HW2  123   0.435   0.217   0.109 -1.0895  0.0972  2.6549
   31SOL     MW  124   0.444   0.243   0.193 -0.6382  0.5315  0.8044
   32SOL     OW  125   2.718   0.973   1.052  0.1366 -0.4660  0.0862
   32SOL    HW1  126   2.716   0.882   1.029 -0.6466 -1.8325 -1.3361
   32SOL    HW2  127   2.767   0.986   1.132 -3.5380 -0.8493 -3.1792
   32SOL     MW  128   2.724   0.963   1.060 -0.4516 -0.6969 -0.5323
   33SOL     OW  129   1.635   1.340   0.400  0.3165  0.6214  0.1174
   33SOL    HW1  130   1.711   1.299   0.437 -0.1661 -0.3228  2.0892
   33SOL    HW2  131   1.623   1.419   0.456  2.0548  1.0628 -0.7039
   33SOL     MW  132   1.643   1.345   0.412  0.4822  0.5551  0.2692
   34SOL     OW  133   1.162   1.985   1.175  0.3504 -0.8255 -0.0575
   34SOL    HW1  134   1.072   1.999   1.204  0.1004  0.4608 -1.6338
   34SOL    HW2  135   1.224   1.988   1.254  1.2422  2.5661  2.9530
   34SOL     MW  136   1.158   1.987   1.189  0.4351 -0.2083  0.1317
   35SOL     OW  137   0.353   0.110   1.670 -0.2192 -0.2423 -0.1124
   35SOL    HW1  138   0.352   0.105   1.767 -2.8379  0.6249  0.4296
   35SOL    HW2  139   0.301   0.037   1.628  1.1341 -0.5288 -1.3997
   35SOL     MW  140   0.346   0.100   1.677 -0.3862 -0.1657 -0.2107
   36SOL     OW  141   1.925   2.014   0.607 -0.5541 -0.0778  0.2150
   36SOL    HW1  142   1.879   1.984   0.527 -2.1953  2.1341  0.1604
   36SOL    HW2  143   1.969   1.942   0.647 -0.4724  2.0344 -1.9627
   36SOL     MW  144   1.924   2.001   0.602 -0.7598  0.4928 -0.0795
   37SOL     OW  145   1.706   2.033   0.950 -0.2762 -0.3427  0.4023
   37SOL    HW1  146   1.658   1.962   0.906  0.9762 -0.8534  1.9371
   37SOL    HW2  147   1.638   2.083   0.996  0.0720 -2.2195 -0.6846
   37SOL     MW  148   1.691   2.030   0.950 -0.0650 -0.6577  0.4614
   38SOL     OW  149   2.842   0.983   0.080 -0.0052  0.1032  0.5525
   38SOL    HW1  150   2.917   0.979   0.135 -1.4094  0.1545 -0.2711
   38SOL    HW2  151   2.892   0.981  -0.007 -1.5505 -0.2062  1.7671
   38SOL     MW  152   2.859   0.982   0.076 -0.3943  0.0691  0.6041
   39SOL     OW  153   1.506   0.568   0.665 -0.7003 -0.3596 -0.2928
   39SOL    HW1  154   1.487   0.497   0.726 -0.4997  0.1959 -1.7624
   39SOL    HW2  155   1.428   0.616   0.665  1.3524 -1.9416  1.9133
   39SOL     MW  156   1.493   0.565   0.673 -0.4030 -0.4950 -0.1956
   40SOL     OW  157   1.261   1.866   0.228 -0.4740 -0.0999  0.0675
   40SOL    HW1  158   1.302   1.787   0.257 -0.3158  0.1204 -1.0070
   40SOL    HW2  159   1.245   1.915   0.311  0.7359  0.0657  0.7329
   40SOL     MW  160   1.264   1.862   0.243 -0.2935 -0.0490  0.0135
   41SOL     OW  161   0.488   0.503   1.539  0.8272  0.2180 -0.5814
   41SOL    HW1  162   0.545   0.582   1.517 -0.5934  1.1272  1.8211
   41SOL    HW2  163   0.400   0.536   1.517  0.2082 -1.7973 -0.2363
   41SOL     MW  164   0.484   0.518   1.533  0.5581  0.0721 -0.2189
   42SOL     OW  165   1.291   2.911   1.980  0.5881  0.6459 -0.1468
   42SOL    HW1  166   1.232   2.932   2.050 -0.6140  2.5810 -3.7022
   42SOL    HW2  167   1.358   2.861   2.030  0.4088 -1.8421  4.6813
   42SOL     MW  168   1.292   2.907   1.996  0.4058  0.5729  0.0211
   43SOL     OW  169   1.410   0.155   1.691  0.2684  0.4804 -0.1887
   43SOL    HW1  170   1.489   0.108   1.671  0.2748 -1.9691 -1.5265
   43SOL    HW2  171   1.331   0.104   1.682 -0.0610  1.1207  2.5983
   43SOL     MW  172   1.410   0.142   1.687  0.2258  0.2417  0.0025
   44SOL     OW  173   1.185   0.858   0.953  0.0223 -0.1311 -0.0983
   44SOL    HW1  174   1.185   0.948   0.985  0.8203 -1.5506  1.0300
   44SOL    HW2  175   1.131   0.809   1.019  0.6473 -0.1101  2.8099
   44SOL     MW  176   1.178   0.863   0.966  0.2100 -0.3156  0.4343
   45SOL     OW  177   1.297   0.788   0.700 -0.3658  0.2125 -0.5254
   45SOL    HW1  178   1.247   0.812   0.777 -1.0362 -1.4558  1.4494
   45SOL    HW2  179   1.227   0.741   0.643 -2.3848  0.1154  0.9374
   45SOL     MW  180   1.281   0.785   0.703 -0.7206 -0.0204 -0.0718
   46SOL     OW  181   0.447   1.133   0.697 -0.0194 -0.1316 -0.0704
   46SOL    HW1  182   0.504   1.155   0.624  2.0795  2.9832 -1.8452
   46SOL    HW2  183   0.423   1.225   0.736 -1.1088  0.4998 -1.2774
   46SOL     MW  184   0.451   1.148   0.693  0.1138  0.3627 -0.4638
   47SOL     OW  185   0.129   2.023   1.941 -0.1613  0.2807  0.3168
   47SOL    HW1  186   0.103   1.942   1.887  0.9753 -1.9165 -1.7378
   47SOL    HW2  187   0.156   1.985   2.021 -2.1437  0.0882  1.9992
   47SOL     MW  188   0.129   2.007   1.944 -0.2729 -0.0346  0.2677
   48SOL     OW  189   1.285   0.521   1.040 -0.1460  0.3427  0.2395
   48SOL    HW1  190   1.250   0.489   0.958  1.6515  2.5570  1.4300
   48SOL    HW2  191   1.222   0.580   1.079 -0.8793  0.1683  1.3787
   48SOL     MW  192   1.272   0.525   1.035 -0.0056  0.6118  0.5469
   49SOL     OW  193   1.776   0.701   1.529  0.5801  0.1116 -0.0518
   49SOL    HW1  194   1.829   0.657   1.595  1.9776 -1.3971 -1.4903
   49SOL    HW2  195   1.785   0.649   1.447  0.1370 -1.2230 -1.8441
   49SOL     MW  196   1.784   0.688   1.527  0.7060 -0.2636 -0.4781
   50SOL     OW  197   1.260   1.249   0.608 -1.0045  0.7577 -0.0965
   50SOL    HW1  198   1.195   1.264   0.686  2.1336 -1.9837  0.3623
   50SOL    HW2  199   1.321   1.178   0.636  1.1762  0.0312 -0.3969
   50SOL     MW  200   1.259   1.241   0.622 -0.3027  0.3001 -0.0756
   51SOL     OW  201   0.318   2.894   0.870 -0.0039 -0.1593  0.2489
   51SOL    HW1  202   0.404   2.850   0.876 -1.2900 -2.1417  0.8546
   51SOL    HW2  203   0.307   2.943   0.951 -0.7256 -0.8455  0.4090
   51SOL     MW  204   0.328   2.894   0.882 -0.2688 -0.5114  0.3499
   52SOL     OW  205   0.801   1.848   0.460 -0.1130  0.1723  0.3252
   52SOL    HW1  206   0.774   1.942   0.462 -1.5935  0.4331  0.9269
   52SOL    HW2  207   0.802   1.816   0.367  3.2091 -2.0958  0.1942
   52SOL     MW  208   0.798   1.856   0.448  0.1300 -0.0925  0.3873
   53SOL     OW  209   0.460   2.155   0.638 -0.5137  0.0038  0.0740
   53SOL    HW1  210   0.393   2.125   0.578  2.9494  0.4684 -1.0700
   53SOL    HW2  211   0.461   2.247   0.619 -1.9920 -0.2666  2.1512
   53SOL     MW  212   0.451   2.163   0.627 -0.2518  0.0294  0.1971
   54SOL     OW  213   2.021   0.970   0.678 -0.7979 -0.5902 -0.1565
   54SOL    HW1  214   2.110   0.957   0.651 -1.9452 -0.4123 -0.9217
   54SOL    HW2  215   1.996   0.880   0.674 -1.1252  0.1059  1.1908
   54SOL     MW  216   2.030   0.957   0.674 -0.9925 -0.4749 -0.0797
   55SOL     OW  217   0.427   1.534   1.734 -0.0070 -0.2227  0.2998
   55SOL    HW1  218   0.380   1.572   1.657 -0.5530 -0.0215  0.3118
   55SOL    HW2  219   0.500   1.481   1.702  1.2812 -0.5866 -0.9974
   55SOL     MW  220   0.430   1.532   1.720  0.0909 -0.2441  0.1302
   56SOL     OW  221   0.697   0.915   0.206 -0.2724 -0.6478  0.3514
   56SOL    HW1  222   0.689   0.998   0.152  2.1649 -2.0197 -0.5113
   56SOL    HW2  223   0.612   0.871   0.204  0.9259  2.1092 -0.6935
   56SOL     MW  224   0.685   0.920   0.198  0.2073 -0.4651  0.0997
   57SOL     OW  225   1.077   1.333   1.202  0.2268  0.1062 -0.1280
   57SOL    HW1  226   1.156   1.384   1.221 -2.3088 -0.4473 -0.3543
   57SOL    HW2  227   1.061   1.273   1.277  1.3734  0.1574  0.1150
   57SOL     MW  228   1.086   1.332   1.214  0.0435  0.0399 -0.1258
   58SOL     OW  229   0.421   1.236   1.301 -0.2909  0.2716 -0.3062
   58SOL    HW1  230   0.393   1.332   1.288  1.2907  0.2535 -1.9535
   58SOL    HW2  231   0.419   1.209   1.392  0.3349 -0.6705  1.1242
   58SOL     MW  232   0.417   1.245   1.312  0.0003  0.1449 -0.3348
   59SOL     OW  233   1.488   1.672   0.396  0.1084  0.4309  0.3169
   59SOL    HW1  234   1.535   1.743   0.427  0.7114 -0.6843  0.2525
   59SOL    HW2  235   1.403   1.680   0.443  2.8283  1.1763 -2.1707
   59SOL     MW  236   1.483   1.682   0.406  0.5468  0.3821 -0.0198
   60SOL     OW  237   3.044   0.152   1.596  0.0976  0.1817 -0.0545
   60SOL    HW1  238   2.955   0.190   1.610  1.7816 -1.6569 -1.6240
   60SOL    HW2  239   3.070   0.120   1.678 -1.7227 -1.1357 -2.4675
   60SOL     MW  240   3.036   0.153   1.608  0.0797 -0.2347 -0.5799
   61SOL     OW  241   1.981   1.381   3.022  0.1748  0.2573  0.3041
   61SOL    HW1  242   1.928   1.342   3.094 -0.6048  0.8228 -3.9092
   61SOL    HW2  243   2.037   1.311   2.984  3.8492 -1.2350  1.0124
   61SOL     MW  244   1.981   1.366   3.027  0.5568  0.1350 -0.1584
   62SOL     OW  245   0.536   1.805   0.523 -0.2912 -0.2210 -0.4791
   62SOL    HW1  246   0.633   1.807   0.516  2.5019 -0.2106 -1.6453
   62SOL    HW2  247   0.513   1.713   0.531 -0.7155 -0.0565  1.3050
   62SOL     MW  248   0.546   1.793   0.523  0.0214 -0.1979 -0.3976
   63SOL     OW  249   1.696   0.663   0.509 -0.3273 -0.3661 -0.2952
   63SOL    HW1  250   1.678   0.758   0.513 -0.4200 -0.5286 -2.1236
   63SOL    HW2  251   1.622   0.613   0.551  0.9038 -0.1365  1.5839
   63SOL     MW  252   1.684   0.669   0.515 -0.1771 -0.3573 -0.2885
   64SOL     OW  253   0.190   1.711   0.631 -0.0297  0.6264  0.0940
   64SOL    HW1  254   0.253   1.784   0.626 -0.1679  2.4041  0.6135
   64SOL    HW2  255   0.118   1.720   0.701 -1.7146 -2.5389  1.6845
   64SOL     MW  256   0.189   1.721   0.640 -0.2702  0.4433  0.3724
   65SOL     OW  257   1.567   2.329   0.398 -0.0303 -0.2923  0.2089
   65SOL    HW1  258   1.649   2.371   0.412 -1.9173 -0.3415 -1.9453
   65SOL    HW2  259   1.505   2.372   0.453 -0.2328  1.2529 -2.0699
   65SOL     MW  260   1.570   2.340   0.407 -0.3060 -0.0949 -0.3760
   66SOL     OW  261   0.392   0.586   0.524 -0.2893  0.3113 -0.0731
   66SOL    HW1  262   0.460   0.562   0.462 -3.0956 -1.3520 -0.4797
   66SOL    HW2  263   0.377   0.680   0.502 -0.1828  0.6017  0.4754
   66SOL     MW  264   0.399   0.595   0.513 -0.6455  0.1302 -0.0544
   67SOL     OW  265   1.356   0.101   1.943  0.1066  0.1552 -0.3705
   67SOL    HW1  266   1.386   0.129   1.856  2.4134 -0.2394  0.7568
   67SOL    HW2  267   1.350   0.009   1.930  2.0014  0.5656  0.2695
   67SOL     MW  268   1.359   0.093   1.930  0.6609  0.1573 -0.1373
   68SOL     OW  269   0.806   0.106   2.837  0.3693  0.4873  0.1610
   68SOL    HW1  270   0.786   0.192   2.804 -1.4794 -0.4970  0.4031
   68SOL    HW2  271   0.866   0.130   2.910  0.0135  1.2769  2.1120
   68SOL     MW  272   0.811   0.120   2.842  0.0785  0.4617  0.4503
   69SOL     OW  273   1.082   0.261   1.966 -0.1595  0.3286 -0.3097
   69SOL    HW1  274   1.179   0.259   1.985  0.6129 -0.1426  3.1354
   69SOL    HW2  275   1.044   0.191   2.031  0.1197  0.0627 -2.3444
   69SOL     MW  276   1.089   0.251   1.977 -0.0208  0.2313 -0.1236
   70SOL     OW  277   0.552   1.656   1.134  0.2654 -0.0728  0.5518
   70SOL    HW1  278   0.634   1.678   1.176 -0.5883 -1.7296 -0.6836
   70SOL    HW2  279   0.562   1.606   1.054 -1.2014  0.4451 -2.6247
   70SOL     MW  280   0.564   1.653   1.129 -0.0408 -0.2231 -0.0303
   71SOL     OW  281   1.564   0.649   1.229 -0.2835  0.2601  0.2764
   71SOL    HW1  282   1.509   0.716   1.272 -2.1460  2.5053  0.6925
   71SOL    HW2  283   1.590   0.686   1.149  0.3577  0.1032 -1.5445
   71SOL     MW  284   1.560   0.663   1.224 -0.4447  0.5357  0.0911
   72SOL     OW  285   0.783   1.819   1.088 -0.1214 -0.2534  0.0314
   72SOL    HW1  286   0.791   1.874   1.011  0.0401 -0.4039  0.2750
   72SOL    HW2  287   0.814   1.731   1.073  0.2772  0.2597 -0.1751
   72SOL     MW  288   0.788   1.815   1.076 -0.0475 -0.2056  0.0363
   73SOL     OW  289   1.086   0.691   1.143 -0.2460  1.0439  0.6428
   73SOL    HW1  290   1.015   0.629   1.164  2.3385 -1.6872  1.8544
   73SOL    HW2  291   1.108   0.737   1.232  1.2362 -0.1867  0.4594
   73SOL     MW  292   1.079   0.689   1.158  0.2906  0.5212  0.7785
   74SOL     OW  293   2.815   0.117   0.982 -0.0901  0.6085  0.0688
   74SOL    HW1  294   2.903   0.147   0.967 -0.2087  0.6371  0.9452
   74SOL    HW2  295   2.763   0.174   0.927  1.9077  0.7926  0.0533
   74SOL     MW  296   2.819   0.128   0.973  0.1578  0.6365  0.1824
   75SOL     OW  297   1.461   1.311   0.195  0.3695 -0.6735  0.2922
   75SOL    HW1  298   1.523   1.270   0.134 -2.4364  3.1513 -1.3214
   75SOL    HW2  299   1.510   1.337   0.273  0.3245  0.0969 -0.8673
   75SOL     MW  300   1.476   1.309   0.197 -0.0066 -0.0672 -0.0737
   76SOL     OW  301   3.019   0.677   0.444  0.2479  0.2184 -0.5644
   76SOL    HW1  302   3.022   0.711   0.535 -0.5764 -2.3543  0.0078
   76SOL    HW2  303   3.103   0.630   0.448 -1.3764 -0.0075 -0.5265
   76SOL     MW  304   3.031   0.676   0.457 -0.0752 -0.1508 -0.4839
   77SOL     OW  305   0.865   0.593   0.443  0.3002  0.6114 -0.0816
   77SOL    HW1  306   0.839   0.618   0.356  0.5407  0.3175  1.3129
   77SOL    HW2  307   0.842   0.496   0.461  1.6086 -0.7565 -0.3995
   77SOL     MW  308   0.859   0.584   0.434  0.5046  0.3922  0.0604
   78SOL     OW  309   0.755   0.865   1.111 -0.6962 -0.1764  0.2951
   78SOL    HW1  310   0.760   0.950   1.066 -1.0278  0.8872  0.0914
   78SOL    HW2  311   0.662   0.871   1.144 -0.6148 -1.9474 -1.1843
   78SOL     MW  312   0.743   0.877   1.110 -0.7292 -0.2697  0.0730
   79SOL     OW  313   1.932   1.501   0.595  0.4367  0.1025  0.6127
   79SOL    HW1  314   1.833   1.495   0.606 -1.1567  0.4917 -2.7657
   79SOL    HW2  315   1.970   1.430   0.649  0.0873  0.1378 -2.4748
   79SOL     MW  316   1.924   1.491   0.604  0.1804  0.1585 -0.2404
   80SOL     OW  317   0.231   0.989   0.272  0.1298 -0.4686 -0.7485
   80SOL    HW1  318   0.165   0.949   0.211 -0.4256 -0.8719 -1.5254
   80SOL    HW2  319   0.258   0.916   0.333 -0.2540 -2.1559 -2.3503
   80SOL     MW  320   0.226   0.975   0.272  0.0059 -0.7444 -1.0624
   81SOL     OW  321   1.762   1.823   0.259  0.0137  0.1788 -0.3058
   81SOL    HW1  322   1.726   1.729   0.236  1.3492  0.3576 -0.5626
   81SOL    HW2  323   1.708   1.891   0.218 -0.5290  1.3104 -0.9133
   81SOL     MW  324   1.750   1.820   0.250  0.1183  0.3517 -0.4198
   82SOL     OW  325   0.933   1.025   0.543 -0.4515  0.6433 -0.7249
   82SOL    HW1  326   0.895   1.075   0.465  0.1970 -1.9802 -1.8934
   82SOL    HW2  327   0.877   0.947   0.555  1.0470 -0.2160 -1.5208
   82SOL     MW  328   0.921   1.022   0.534 -0.1683  0.1838 -0.9841
   83SOL     OW  329   0.015   0.734   1.470 -0.0831  1.0038 -0.7395
   83SOL    HW1  330   0.016   0.801   1.401  2.1348  1.5854 -2.8343
   83SOL    HW2  331   0.073   0.663   1.439 -2.7210  0.1703 -2.1362
   83SOL     MW  332   0.023   0.734   1.457 -0.1385  0.9706 -1.2002
   84SOL     OW  333   0.000   0.192   0.927  0.0686 -0.5577 -0.3163
   84SOL    HW1  334   0.001   0.280   0.975  0.2124  0.3855  0.6011
   84SOL    HW2  335   0.040   0.124   0.985  2.0803 -2.9074 -0.0701
   84SOL     MW  336   0.006   0.194   0.941  0.3530 -0.7433 -0.1628
   85SOL     OW  337   0.385   0.465   0.765  0.9155  0.4675 -0.1503
   85SOL    HW1  338   0.400   0.492   0.671  2.1119  0.7907 -1.5179
   85SOL    HW2  339   0.329   0.385   0.760 -0.9177  0.0759 -1.3589
   85SOL     MW  340   0.380   0.458   0.752  0.8315  0.4585 -0.4902
   86SOL     OW  341   1.289   0.237   1.210 -0.0807 -0.4419 -0.1410
   86SOL    HW1  342   1.246   0.294   1.142 -1.5119 -0.2145 -0.1213
   86SOL    HW2  343   1.386   0.258   1.208  1.0799 -1.9607  0.2142
   86SOL     MW  344   1.297   0.247   1.201 -0.1164 -0.6123 -0.0915
   87SOL     OW  345   0.947   1.583   1.198 -0.3253 -0.2963  0.1742
   87SOL    HW1  346   1.003   1.643   1.141  0.3831 -1.6603  1.5059
   87SOL    HW2  347   0.999   1.504   1.194 -0.2752  0.2521  0.0913
   87SOL     MW  348   0.962   1.581   1.190 -0.2252 -0.4039  0.3389
   88SOL     OW  349   1.193   1.116   1.019  0.6734  0.0059  0.3493
   88SOL    HW1  350   1.284   1.128   1.010  1.0961 -0.6086  3.0914
   88SOL    HW2  351   1.168   1.171   1.093 -0.3480 -0.8852  0.8935
   88SOL     MW  352   1.202   1.125   1.027  0.5944 -0.1927  0.7829
   89SOL     OW  353   1.793   0.722   0.222 -0.1031 -0.4705  0.0493
   89SOL    HW1  354   1.742   0.674   0.288  0.4082 -2.3039  1.8956
   89SOL    HW2  355   1.877   0.745   0.275  0.0984  1.4576 -0.7045
   89SOL     MW  356   1.798   0.719   0.238 -0.0091 -0.4580  0.1935
   90SOL     OW  357   0.739   1.181   2.765 -0.7161 -0.1764 -0.2617
   90SOL    HW1  358   0.784   1.108   2.731 -4.1035 -2.4931  0.1858
   90SOL    HW2  359   0.774   1.201   2.850 -2.0923 -2.3436 -0.4633
   90SOL     MW  360   0.750   1.174   2.772 -1.3446 -0.7680 -0.2292
   91SOL     OW  361   2.240   0.625   0.535 -0.6578 -0.0226  0.3669
   91SOL    HW1  362   2.276   0.692   0.479 -0.6080 -1.1428  0.7622
   91SOL    HW2  363   2.263   0.551   0.481 -1.1658  2.0095 -1.3391
   91SOL     MW  364   2.248   0.624   0.521 -0.7183  0.0977  0.1940
   92SOL     OW  365   1.650   0.942   0.497 -0.2210  0.2636  0.2171
   92SOL    HW1  366   1.569   0.970   0.544 -1.1071 -0.4094 -1.1053
   92SOL    HW2  367   1.634   0.949   0.399 -0.0784  0.0934 -1.0711
   92SOL     MW  368   1.637   0.946   0.490 -0.3191  0.1524 -0.1273
   93SOL     OW  369   1.099   0.214   0.385  0.0414  0.0453 -0.3006
   93SOL    HW1  370   1.017   0.252   0.415 -0.3477 -0.7810  2.8023
   93SOL    HW2  371   1.121   0.275   0.313  2.6740 -0.4164 -0.5440
   93SOL     MW  372   1.091   0.227   0.379  0.3374 -0.1247  0.0767
   94SOL     OW  373   1.899   1.380   1.546 -0.0773 -0.2057 -0.7281
   94SOL    HW1  374   1.881   1.384   1.448 -1.9297  2.6135 -1.6171
   94SOL    HW2  375   1.843   1.302   1.583 -3.5897  0.1189  0.8519
   94SOL     MW  376   1.889   1.370   1.538 -0.7852  0.2091 -0.6369
   95SOL     OW  377   0.623   1.500   0.929  0.2427 -0.0030 -0.2125
   95SOL    HW1  378   0.696   1.438   0.929  2.2689 -1.8196 -0.8800
   95SOL    HW2  379   0.543   1.445   0.904  0.6658 -0.4197  0.5689
   95SOL     MW  380   0.622   1.484   0.925  0.5658 -0.2976 -0.1975
   96SOL     OW  381   1.301   1.824   1.736 -0.3631 -0.2693  0.7705
   96SOL    HW1  382   1.219   1.834   1.783 -1.4508  2.8252  0.5867
   96SOL    HW2  383   1.301   1.734   1.704 -1.1648 -2.0471  2.1648
   96SOL     MW  384   1.290   1.814   1.738 -0.6124 -0.0955  0.9302
   97SOL     OW  385   1.076   1.552   0.846  0.0626  0.1519  0.1881
   97SOL    HW1  386   1.099   1.620   0.906  0.3894 -1.9683 -0.6321
   97SOL    HW2  387   0.991   1.576   0.808  0.2173 -2.3912 -2.6529
   97SOL     MW  388   1.068   1.564   0.849  0.1261 -0.4633 -0.2950
   98SOL     OW  389   1.374   1.412   1.217  0.2780  0.2317  0.0845
   98SOL    HW1  390   1.434   1.419   1.285 -0.9059  0.6009  0.5860
   98SOL    HW2  391   1.427   1.378   1.144  0.3799  0.1313  0.2722
   98SOL     MW  392   1.389   1.409   1.216  0.1352  0.2672  0.1754
   99SOL     OW  393   1.550   0.343   1.292  0.0734  0.2317  0.0064
   99SOL    HW1  394   1.553   0.427   1.254 -0.3650 -2.2300 -0.8376
   99SOL    HW2  395   1.495   0.347   1.374  0.1696  2.9202 -1.0183
   99SOL     MW  396   1.543   0.355   1.298  0.0282  0.2616 -0.2401
  100SOL     OW  397   1.068   1.145   1.391 -0.2874 -0.8303 -0.4433
  100SOL    HW1  398   1.075   1.197   1.469 -0.3070  0.8776 -2.7628
  100SOL    HW2  399   1.089   1.056   1.417 -2.5966  2.1338  0.5748
  100SOL     MW  400   1.072   1.140   1.404 -0.5947 -0.2139 -0.6150
  101SOL     OW  401   0.558   1.249   0.473  0.1451  0.3737  0.1140
  101SOL    HW1  402   0.486   1.251   0.410 -1.6586 -2.3983 -1.4189
  101SOL    HW2  403   0.640   1.227   0.431 -0.1458  1.0680 -0.9165
  101SOL     MW  404   0.560   1.246   0.459 -0.1312  0.0996 -0.2242
  102SOL     OW  405   2.905   0.601   1.037  0.4021  0.0827 -0.5438
  102SOL    HW1  406   2.946   0.697   1.024 -1.3893 -0.1072 -2.1157
  102SOL    HW2  407   2.846   0.599   1.119 -0.6416 -0.3840 -1.0560
  102SOL     MW  408   2.902   0.614   1.046  0.0280 -0.0040 -0.8188
  103SOL     OW  409   1.891   0.269   1.787 -0.0512  0.3328  0.3591
  103SOL    HW1  410   1.866   0.186   1.752  0.2143 -0.3232  2.7945
  103SOL    HW2  411   1.863   0.266   1.877 -0.8262  2.3297 -1.6650
  103SOL     MW  412   1.884   0.258   1.795 -0.1184  0.5097  0.4134
  104SOL     OW  413   0.055   1.547   1.672  0.1982  0.1464  0.0869
  104SOL    HW1  414   0.107   1.467   1.676 -1.2500 -2.1802  0.8240
  104SOL    HW2  415  -0.031   1.518   1.689  2.0083 -1.0443 -0.3443
  104SOL     MW  416   0.051   1.532   1.675  0.2459 -0.3177  0.1272
  105SOL     OW  417   0.141   1.205   0.430  0.0822  0.0170  0.8944
  105SOL    HW1  418   0.151   1.121   0.383  1.4541  0.0434 -0.6213
  105SOL    HW2  419   0.210   1.264   0.403  0.5814  1.7707  1.1934
  105SOL     MW  420   0.151   1.202   0.420  0.3290  0.2519  0.7339
  106SOL     OW  421   0.857   0.237   0.874 -0.2514  0.3921  0.3622
  106SOL    HW1  422   0.809   0.322   0.865 -1.4032 -0.0378  2.8239
  106SOL    HW2  423   0.948   0.267   0.860  0.4003  1.6895 -1.3402
  106SOL     MW  424   0.863   0.252   0.871 -0.3174  0.5066  0.4624
  107SOL     OW  425   0.805   2.155   2.881  0.1419 -0.8647  0.0406
  107SOL    HW1  426   0.708   2.173   2.896 -2.0213 -3.7526  0.8911
  107SOL    HW2  427   0.840   2.112   2.963  3.5943  2.0607  2.9290
  107SOL     MW  428   0.797   2.152   2.894  0.3120 -0.8598  0.5339
  108SOL     OW  429   1.322   1.539   1.654 -0.3858  0.0436  0.7547
  108SOL    HW1  430   1.268   1.500   1.591  5.6134 -1.0128  0.0301
  108SOL    HW2  431   1.411   1.510   1.647 -1.2703 -1.4152 -1.8476
  108SOL     MW  432   1.327   1.530   1.644  0.2891 -0.2882  0.3157
  109SOL     OW  433   2.015   0.752   0.370  0.1713 -0.0197 -0.7089
  109SOL    HW1  434   2.005   0.846   0.369  1.8605 -1.4196  1.2338
  109SOL    HW2  435   2.034   0.725   0.458 -2.0674 -0.8689  0.6094
  109SOL     MW  436   2.016   0.761   0.381  0.0988 -0.3165 -0.2786
  110SOL     OW  437   0.391   1.905   0.730 -0.0206  0.4702 -1.0104
  110SOL    HW1  438   0.450   1.876   0.658 -0.9657 -1.1875  0.8039
  110SOL    HW2  439   0.413   1.995   0.739 -1.3619  0.1229 -1.5981
  110SOL     MW  440   0.402   1.913   0.721 -0.3222  0.2057 -0.8486
  111SOL     OW  441   0.852   0.849   1.369 -0.1792 -0.0957  0.1515
  111SOL    HW1  442   0.828   0.874   1.276  0.7275  0.3585 -1.8742
  111SOL    HW2  443   0.785   0.788   1.403 -0.3445 -2.1882 -0.6256
  111SOL     MW  444   0.840   0.844   1.361 -0.0814 -0.3119 -0.2183
  112SOL     OW  445   1.302   1.167   1.658 -0.2260  0.5350  0.2127
  112SOL    HW1  446   1.212   1.195   1.640 -3.3551  0.2448  0.6014
  112SOL    HW2  447   1.299   1.069   1.656 -1.2398 -0.3830 -1.6494
  112SOL     MW  448   1.290   1.157   1.655 -0.7726  0.3756  0.0183
  113SOL     OW  449   1.250   2.996   1.712 -0.0084  0.1766 -0.2229
  113SOL    HW1  450   1.235   2.941   1.792  2.2722  1.1276  2.2936
  113SOL    HW2  451   1.223   2.949   1.631  2.1260 -1.4590 -1.1196
  113SOL     MW  452   1.245   2.982   1.712  0.5741  0.0863 -0.0092
  114SOL     OW  453   0.331   2.884   1.848 -0.4010 -0.4048 -0.2707
  114SOL    HW1  454   0.398   2.946   1.820  0.1451 -0.5449 -0.9185
  114SOL    HW2  455   0.278   2.929   1.914  3.9725  2.5114 -1.1254
  114SOL     MW  456   0.333   2.898   1.853  0.2481 -0.0385 -0.4689
  115SOL     OW  457   0.494   0.863   1.168  0.0305 -0.2855 -0.2829
  115SOL    HW1  458   0.503   0.776   1.127  0.1925  0.3327 -0.3444
  115SOL    HW2  459   0.451   0.847   1.256 -1.1971 -0.0078 -2.2764
  115SOL     MW  460   0.489   0.850   1.174 -0.1101 -0.1673 -0.5540
  116SOL     OW  461   0.727   1.100   0.982  0.3817  0.1012 -0.3307
  116SOL    HW1  462   0.748   1.130   0.892  1.5299 -0.4354 -1.0013
  116SOL    HW2  463   0.732   1.174   1.046  1.6301  0.0611  2.6882
  116SOL     MW  464   0.730   1.114   0.978  0.6979  0.0251 -0.0209
  117SOL     OW  465   1.088   1.268   0.807 -0.4597  0.6381  0.1534
  117SOL    HW1  466   1.122   1.214   0.875  2.1071  0.8311 -1.0056
  117SOL    HW2  467   1.058   1.350   0.843  0.5940  0.1218 -0.0821
  117SOL     MW  468   1.089   1.271   0.821  0.0180  0.5954 -0.0306
  118SOL     OW  469   3.072   2.924   1.853 -0.5151 -0.4456  0.0092
  118SOL    HW1  470   3.078   2.993   1.919 -2.9587  1.4528  3.7573
  118SOL    HW2  471   2.991   2.954   1.805 -1.6435  0.6509  0.8544
  118SOL     MW  472   3.062   2.937   1.855 -0.9864 -0.0505  0.6152
  119SOL     OW  473   0.379   1.515   1.285  0.4851 -0.0189  0.1636
  119SOL    HW1  474   0.452   1.545   1.225  1.2998  0.3141 -0.2385
  119SOL    HW2  475   0.305   1.508   1.223  1.5170 -2.6792 -1.9152
  119SOL     MW  476   0.379   1.518   1.269  0.7287 -0.3259 -0.1637
  120SOL     OW  477   0.296   0.861   0.955 -0.1917 -0.7823  0.5927
  120SOL    HW1  478   0.292   0.876   1.048 -1.1965  1.7692 -1.4736
  120SOL    HW2  479   0.381   0.893   0.919  0.7180 -1.8644  1.0779
  120SOL     MW  480   0.307   0.867   0.963 -0.2043 -0.5884  0.3841
  121SOL     OW  481   1.757   1.150   1.623 -0.3093  0.1030  0.0054
  121SOL    HW1  482   1.672   1.164   1.580 -0.8252  1.1216 -1.0538
  121SOL    HW2  483   1.802   1.082   1.568  0.0645 -0.7941  2.0424
  121SOL     MW  484   1.752   1.143   1.610 -0.3280  0.1191  0.1344
  122SOL     OW  485   0.171   0.626   0.811  0.2740 -0.0337 -0.5001
  122SOL    HW1  486   0.249   0.571   0.774  3.0732  3.4313 -0.6047
  122SOL    HW2  487   0.219   0.694   0.856  0.7075  0.5317 -0.8843
  122SOL     MW  488   0.188   0.628   0.812  0.7005  0.4981 -0.5646
  123SOL     OW  489   1.824   1.127   0.557 -0.2625  0.1124 -0.4860
  123SOL    HW1  490   1.765   1.054   0.536 -0.2813 -0.7128  1.2682
  123SOL    HW2  491   1.887   1.086   0.622 -2.0510 -2.0895 -0.0621
  123SOL     MW  492   1.825   1.112   0.563 -0.5009 -0.2870 -0.1986
  124SOL     OW  493   0.680   0.482   0.810  0.1416 -0.1006  0.1978
  124SOL    HW1  494   0.592   0.484   0.779 -0.3600  1.0583 -1.5708
  124SOL    HW2  495   0.706   0.575   0.811  2.3400  0.7981 -0.8564
  124SOL     MW  496   0.672   0.494   0.806  0.3654  0.1709 -0.1746
  125SOL     OW  497   0.652   1.769   1.742 -0.3647 -0.1735  0.2769
  125SOL    HW1  498   0.672   1.728   1.660  0.0623 -0.1310  1.7517
  125SOL    HW2  499   0.619   1.862   1.724 -0.4498 -0.0763 -2.2938
  125SOL     MW  500   0.650   1.776   1.729 -0.3196 -0.1551  0.1323
  126SOL     OW  501   2.093   1.558   1.856 -0.3860  0.6350 -0.4971
  126SOL    HW1  502   2.137   1.647   1.843 -1.0140  1.1397 -0.5261
  126SOL    HW2  503   2.159   1.494   1.888 -0.5643  1.1493  1.7550
  126SOL     MW  504   2.108   1.561   1.858 -0.4924  0.7694 -0.2038
  127SOL     OW  505   0.548   0.790   1.846  0.2018  0.1096  0.1986
  127SOL    HW1  506   0.626   0.854   1.842  1.1186  0.9681  0.1553
  127SOL    HW2  507   0.489   0.819   1.919 -0.9437 -0.1556  2.0600
  127SOL     MW  508   0.550   0.803   1.855  0.1716  0.1879  0.4385
  128SOL     OW  509   1.745   0.734   2.865 -0.1459  0.0242  0.2238
  128SOL    HW1  510   1.792   0.712   2.783 -0.2066  0.4256  1.0173
  128SOL    HW2  511   1.732   0.830   2.869  0.9035  0.4251 -0.0678
  128SOL     MW  512   1.750   0.744   2.855 -0.0155  0.1301  0.2900
  129SOL     OW  513   1.632   0.950   0.177 -0.1561 -0.1579  0.6498
  129SOL    HW1  514   1.543   0.939   0.153  0.0751 -0.5583  1.5952
  129SOL    HW2  515   1.670   0.865   0.176  0.7188 -0.1015 -1.4120
  129SOL     MW  516   1.625   0.937   0.174 -0.0102 -0.2033  0.5025
  130SOL     OW  517   0.870   1.460   0.382 -0.0701 -0.0152  0.2518
  130SOL    HW1  518   0.860   1.467   0.479 -1.4019 -1.5014  2.3829
  130SOL    HW2  519   0.962   1.480   0.360  2.2177  2.0880 -1.2256
  130SOL     MW  520   0.881   1.464   0.392  0.0560  0.0662  0.3380
  131SOL     OW  521   0.050   0.838   0.055 -0.3154 -0.1217  0.4107
  131SOL    HW1  522   0.057   0.879  -0.028  1.1273 -1.3230  0.1407
  131SOL    HW2  523   0.095   0.751   0.039 -2.2288  1.0540  0.6423
  131SOL     MW  524   0.057   0.832   0.042 -0.3775 -0.1251  0.4056
  132SOL     OW  525   2.688   0.076   1.233 -0.2190  0.4129 -0.1733
  132SOL    HW1  526   2.727   0.102   1.148 -2.5878  0.2126 -0.9349
  132SOL    HW2  527   2.603   0.036   1.199  1.5514  1.6010 -1.5086
  132SOL     MW  528   2.682   0.074   1.218 -0.2980  0.5433 -0.4499
  133SOL     OW  529   1.088   0.138   1.728  0.2162  0.2136  0.4932
  133SOL    HW1  530   1.110   0.044   1.737 -0.1305 -0.8632  2.4445
  133SOL    HW2  531   1.086   0.181   1.814  0.0036 -0.5868 -1.3360
  133SOL     MW  532   1.090   0.132   1.740  0.1424 -0.0341  0.5093
  134SOL     OW  533   1.404   2.472   1.480 -0.3975 -0.2018 -0.1648
  134SOL    HW1  534   1.349   2.547   1.444 -0.2776 -0.0293 -0.9092
  134SOL    HW2  535   1.428   2.492   1.575  0.3399  1.7277  3.8012
  134SOL     MW  536   1.400   2.485   1.487 -0.2844  0.0755  0.2603
  135SOL     OW  537   2.978   1.006   2.919  0.0180 -0.1241 -0.2886
  135SOL    HW1  538   3.057   1.036   2.955 -2.7840 -2.3085 -1.2434
  135SOL    HW2  539   2.952   1.084   2.866 -0.8508 -0.3197 -0.4545
  135SOL     MW  540   2.985   1.020   2.917 -0.4663 -0.4381 -0.4364
  136SOL     OW  541   0.142   1.990   0.836  0.4773 -0.2474 -0.4990
  136SOL    HW1  542   0.067   1.935   0.849 -0.7443  1.9186  3.3449
  136SOL    HW2  543   0.206   1.934   0.798 -1.4034 -0.3626  0.5670
  136SOL     MW  544   0.141   1.976   0.833  0.0679  0.0232  0.1488
  137SOL     OW  545   0.737   2.100   0.632 -0.2212 -0.2686  0.3018
  137SOL    HW1  546   0.772   2.081   0.718 -0.1650  0.2784  1.5960
  137SOL    HW2  547   0.640   2.110   0.648  0.3484  0.5224 -0.4751
  137SOL     MW  548   0.729   2.099   0.645 -0.1386 -0.0921  0.3701
  138SOL     OW  549   0.524   0.617   1.036  0.1541 -0.5362 -0.5548
  138SOL    HW1  550   0.476   0.538   1.022 -1.8672 -0.1384  0.2209
  138SOL    HW2  551   0.603   0.610   0.995 -1.7793  0.4122  1.9910
  138SOL     MW  552   0.528   0.606   1.029 -0.3677 -0.3586 -0.1165
  139SOL     OW  553   2.816   0.477   1.318 -0.6588 -0.1594 -0.1736
  139SOL    HW1  554   2.917   0.464   1.319  0.2430  0.8905  1.0389
  139SOL    HW2  555   2.811   0.537   1.395  1.7117  0.6050 -1.6583
  139SOL     MW  556   2.828   0.483   1.328 -0.2271  0.0800 -0.2095
  140SOL     OW  557   0.882   0.483   1.958 -0.4396 -0.4393  0.4140
  140SOL    HW1  558   0.934   0.402   1.970  0.9863 -1.5615 -0.7533
  140SOL    HW2  559   0.837   0.497   2.035 -1.2697 -1.3227 -0.3532
  140SOL     MW  560   0.883   0.474   1.970 -0.3610 -0.7039  0.1588
  141SOL     OW  561   1.131   0.684   1.716 -0.0419  0.0501  0.0465
  141SOL    HW1  562   1.125   0.608   1.645 -2.2027 -1.5640  1.9990
  141SOL    HW2  563   1.204   0.655   1.773  2.5346 -0.6917  1.4064
  141SOL     MW  564   1.140   0.670   1.714  0.0130 -0.2607  0.4835
  142SOL     OW  565   0.818   1.203   0.723  0.2803  0.4739 -0.0012
  142SOL    HW1  566   0.857   1.142   0.664 -0.2770 -0.9864 -0.4879
  142SOL    HW2  567   0.899   1.241   0.764  1.5545 -1.5887  1.6683
  142SOL     MW  568   0.834   1.200   0.721  0.3749  0.0091  0.1548
  143SOL     OW  569   1.804   0.830   1.018 -0.2868  0.8073 -0.6322
  143SOL    HW1  570   1.865   0.773   0.982 -1.3599  1.2550  1.5757
  143SOL    HW2  571   1.721   0.803   0.980 -3.0252  2.0328 -1.4743
  143SOL     MW  572   1.801   0.819   1.008 -0.7897  1.0280 -0.4520
  144SOL     OW  573   0.238   1.338   1.751 -0.0974 -0.2497 -0.3071
  144SOL    HW1  574   0.312   1.393   1.757 -2.6922 -0.7362  3.6975
  144SOL    HW2  575   0.210   1.330   1.837 -0.4950  1.4616 -1.6908
  144SOL     MW  576   0.244   1.345   1.763 -0.4922 -0.0881  0.0387
  145SOL     OW  577   0.228   0.484   1.190  0.3899 -0.3968  0.1655
  145SOL    HW1  578   0.266   0.400   1.215  0.1585  1.2288  2.4182
  145SOL    HW2  579   0.176   0.472   1.107  0.7953  0.8346 -1.5650
  145SOL     MW  580   0.226   0.471   1.183  0.4129 -0.0199  0.2344
  146SOL     OW  581   0.802   1.968   1.553  0.1844 -0.2844 -0.5330
  146SOL    HW1  582   0.835   1.992   1.463 -1.6425 -1.2301  0.1079
  146SOL    HW2  583   0.752   1.891   1.524 -2.1984  0.7299  0.2232
  146SOL     MW  584   0.800   1.961   1.537 -0.3710 -0.2753 -0.3486
  147SOL     OW  585   0.388   0.516   3.007  0.0975 -0.1342 -0.5081
  147SOL    HW1  586   0.301   0.540   3.050 -0.1613  0.3356  1.4429
  147SOL    HW2  587   0.387   0.568   2.922 -0.6614  3.0768  1.1501
  147SOL     MW  588   0.376   0.526   3.002 -0.0368  0.3515 -0.0319
  148SOL     OW  589   0.046   0.910   1.269  0.1946  0.3721 -0.1171
  148SOL    HW1  590   0.139   0.903   1.300  2.7126 -1.1444  0.7735
  148SOL    HW2  591   0.021   1.001   1.284  0.1179 -1.6637 -0.2648
  148SOL     MW  592   0.055   0.921   1.275  0.5167 -0.0966 -0.0191
  149SOL     OW  593   1.532   1.184   1.455  0.7657 -0.4083 -0.0998
  149SOL    HW1  594   1.450   1.193   1.504 -2.7059  0.6906  2.1161
  149SOL    HW2  595   1.568   1.274   1.457  0.2896  0.9239 -0.2686
  149SOL     MW  596   1.526   1.197   1.462  0.2448 -0.0875  0.1703
  150SOL     OW  597   1.723   1.427   0.880 -0.1751 -0.2373 -0.3143
  150SOL    HW1  598   1.780   1.363   0.923  0.8983 -1.2199 -0.4368
  150SOL    HW2  599   1.768   1.514   0.892 -0.9903  0.9112 -0.4703
  150SOL     MW  600   1.736   1.430   0.887 -0.1410 -0.2154 -0.3510
  151SOL     OW  601   1.604   1.830   0.795 -0.1256 -0.2518 -0.4826
  151SOL    HW1  602   1.598   1.857   0.704 -3.0320  2.1751  2.6519
  151SOL    HW2  603   1.530   1.778   0.811  0.4581 -1.1180 -3.8808
  151SOL     MW  604   1.594   1.826   0.785 -0.4321 -0.0459 -0.5174
  152SOL     OW  605   0.638   1.379   1.628 -0.2031  0.0940  0.1396
  152SOL    HW1  606   0.696   1.423   1.561  0.3579  2.0416 -1.2672
  152SOL    HW2  607   0.575   1.318   1.586  4.2830  1.2907 -2.1390
  152SOL     MW  608   0.637   1.377   1.613  0.4628  0.5088 -0.3466
  153SOL     OW  609   2.626   1.233   0.717  0.2436 -0.0875 -0.0629
  153SOL    HW1  610   2.700   1.220   0.658 -1.4592  0.1247  1.2039
  153SOL    HW2  611   2.571   1.153   0.716 -1.0880  4.8254 -0.3211
  153SOL     MW  612   2.629   1.221   0.709 -0.1568  0.5887  0.0702
  154SOL     OW  613   0.151   1.801   1.782  0.6923  0.0201  0.1955
  154SOL    HW1  614   0.123   1.704   1.765 -0.9188 -2.0558  0.3990
  154SOL    HW2  615   0.241   1.781   1.805  0.8078  1.8513  0.0896
  154SOL     MW  616   0.159   1.785   1.783  0.4950 -0.0122  0.2084
  155SOL     OW  617   1.168   0.716   0.284 -0.0140  0.2947  0.0643
  155SOL    HW1  618   1.131   0.674   0.355  1.9348  1.2094 -1.8314
  155SOL    HW2  619   1.142   0.812   0.304 -1.2481  1.9170  1.5525
  155SOL     MW  620   1.159   0.723   0.296  0.0803  0.6294  0.0106
  156SOL     OW  621   1.574   3.089   1.115  0.3479 -0.3635 -0.2858
  156SOL    HW1  622   1.628   3.146   1.178  3.3589  1.9158  1.2368
  156SOL    HW2  623   1.603   3.002   1.134 -0.2940  1.0661  0.0081
  156SOL     MW  624   1.585   3.085   1.126  0.6605  0.1258 -0.0461
  157SOL     OW  625   1.287   1.096   0.169  0.3885 -0.3158  0.3406
  157SOL    HW1  626   1.285   1.039   0.247  0.2513  0.8089  1.9932
  157SOL    HW2  627   1.349   1.161   0.197  0.0490 -0.9916  1.4245
  157SOL     MW  628   1.295   1.097   0.183  0.3256 -0.2565  0.7017
  158SOL     OW  629   0.292   1.621   2.359 -0.4260 -0.4161 -0.1921
  158SOL    HW1  630   0.280   1.656   2.275 -3.8196 -2.3453  0.4830
  158SOL    HW2  631   0.214   1.662   2.395  1.7012  1.9063  1.7545
  158SOL     MW  632   0.280   1.631   2.353 -0.5931 -0.3642  0.1538
  159SOL     OW  633   1.231   1.726   0.487  0.0529 -0.0521 -0.2276
  159SOL    HW1  634   1.184   1.650   0.448 -2.3141 -0.6504  1.0393
  159SOL    HW2  635   1.168   1.773   0.547 -0.4284 -0.1175  2.6435
  159SOL     MW  636   1.217   1.722   0.490 -0.3229 -0.1397  0.3183
  160SOL     OW  637   0.497   1.172   1.551 -0.1801 -0.2219 -0.4259
  160SOL    HW1  638   0.451   1.128   1.621  3.2697 -1.1623 -1.2763
  160SOL    HW2  639   0.579   1.125   1.530  1.4095 -2.3929 -0.4921
  160SOL     MW  640   0.502   1.160   1.557  0.4848 -0.6324 -0.5469
  161SOL     OW  641   0.502   2.282   2.676  0.1151  0.7509  0.0369
  161SOL    HW1  642   0.416   2.319   2.659  2.2444 -2.9581 -2.6114
  161SOL    HW2  643   0.514   2.224   2.597  0.0054 -1.6572 -2.8074
  161SOL     MW  644   0.492   2.280   2.663  0.3816 -0.0562 -0.6878
  162SOL     OW  645   1.073   1.806   1.882  0.0076 -0.5970  0.5661
  162SOL    HW1  646   1.077   1.889   1.923  1.5402  1.3067 -2.2523
  162SOL    HW2  647   0.983   1.790   1.912 -0.9281  0.9836 -1.1832
  162SOL     MW  648   1.062   1.815   1.891  0.0863 -0.1373 -0.0366
  163SOL     OW  649   2.054   3.065   0.819 -0.3968  0.4719  0.4230
  163SOL    HW1  650   2.031   3.139   0.758 -2.1362 -0.4238  2.4489
  163SOL    HW2  651   2.010   2.987   0.792 -0.3038  2.8391  1.9153
  163SOL     MW  652   2.045   3.065   0.808 -0.6140  0.6661  0.8872
  164SOL     OW  653   0.256   0.232   0.801  0.2834  0.0244  0.3293
  164SOL    HW1  654   0.167   0.221   0.843 -0.0192  0.8444 -1.8626
  164SOL    HW2  655   0.281   0.157   0.744  1.6553 -2.7576  2.6044
  164SOL     MW  656   0.248   0.220   0.799  0.4245 -0.2344  0.3403
  165SOL     OW  657   1.109   1.260   0.317 -0.3337 -0.3820 -1.1322
  165SOL    HW1  658   1.148   1.226   0.400 -0.3615  0.1542  0.8340
  165SOL    HW2  659   1.147   1.196   0.266 -1.3366 -2.9441  2.2274
  165SOL     MW  660   1.119   1.247   0.321 -0.4697 -0.6493 -0.4295
  166SOL     OW  661   0.333   1.174   1.036  0.3591 -0.1484 -0.4116
  166SOL    HW1  662   0.350   1.208   1.127 -0.2655 -1.0035  0.1227
  166SOL    HW2  663   0.269   1.106   1.044 -1.5229 -0.4143 -0.5224
  166SOL     MW  664   0.326   1.169   1.049  0.0284 -0.2963 -0.3557
  167SOL     OW  665   0.800   1.185   0.364  0.6326  0.3685 -0.0723
  167SOL    HW1  666   0.852   1.264   0.376  2.7947  3.3973 -1.2211
  167SOL    HW2  667   0.825   1.165   0.273  2.4375  1.8264 -0.2678
  167SOL     MW  668   0.811   1.193   0.354  1.1560  0.9605 -0.2497
  168SOL     OW  669   1.711   1.654   3.054  0.5589 -0.0769 -0.3506
  168SOL    HW1  670   1.656   1.729   3.077  0.6307 -1.0123 -0.9740
  168SOL    HW2  671   1.664   1.587   3.000 -0.0221  0.7462 -0.9914
  168SOL     MW  672   1.697   1.655   3.050  0.4918 -0.0917 -0.5174
  169SOL     OW  673   0.285   0.857   1.373 -0.2632 -0.4465  1.3725
  169SOL    HW1  674   0.283   0.768   1.408 -2.2130  0.1486 -4.0591
  169SOL    HW2  675   0.311   0.908   1.447  0.3782 -0.1290  0.5196
  169SOL     MW  676   0.288   0.852   1.387 -0.4358 -0.3261  0.5433
  170SOL     OW  677   1.054   1.570   1.479 -0.5704  0.1443  0.5290
  170SOL    HW1  678   1.037   1.648   1.538  1.7810 -1.1884  0.3417
  170SOL    HW2  679   1.008   1.579   1.401  1.2462 -2.2685  1.5274
  170SOL     MW  680   1.046   1.582   1.476 -0.0205 -0.3498  0.6360
  171SOL     OW  681   0.458   1.544   0.524 -0.2210  0.5440  0.5141
  171SOL    HW1  682   0.372   1.533   0.474  1.6387  0.0091  0.2082
  171SOL    HW2  683   0.449   1.526   0.613 -3.4604 -0.0015  0.7027
  171SOL     MW  684   0.445   1.540   0.529 -0.4031  0.4014  0.4986
  172SOL     OW  685   0.788   0.287   1.290 -0.6443  0.1237 -0.6271
  172SOL    HW1  686   0.760   0.201   1.268  0.7352  1.6147  0.9206
  172SOL    HW2  687   0.855   0.268   1.358  0.7428 -2.8698  1.1229
  172SOL     MW  688   0.793   0.273   1.296 -0.2793 -0.0745 -0.1920
  173SOL     OW  689   0.475   1.767   0.270  0.0295  0.0310  0.0205
  173SOL    HW1  690   0.505   1.682   0.241 -0.2183  0.5389  0.4829
  173SOL    HW2  691   0.510   1.786   0.360 -1.6128  1.5387  0.3284
  173SOL     MW  692   0.483   1.759   0.278 -0.2199  0.2970  0.1221
  174SOL     OW  693   1.900   0.945   1.482 -0.6878  0.0693  0.5265
  174SOL    HW1  694   1.857   0.859   1.509 -4.1183 -1.2862  1.0938
  174SOL    HW2  695   1.875   0.968   1.391  0.4138  0.0749 -1.4983
  174SOL     MW  696   1.891   0.937   1.474 -0.9950 -0.1088  0.3342
  175SOL     OW  697   0.598   1.506   0.243 -0.3708  0.2576  0.1697
  175SOL    HW1  698   0.560   1.487   0.328  2.8933 -0.3975 -1.6747
  175SOL    HW2  699   0.683   1.546   0.250 -2.0833 -0.3658 -0.1312
  175SOL     MW  700   0.604   1.509   0.255 -0.1661  0.0889 -0.1133
  176SOL     OW  701   0.131   1.500   1.172 -0.6897 -0.3954 -0.6227
  176SOL    HW1  702   0.120   1.462   1.082  0.9473  0.0434  0.2816
  176SOL    HW2  703   0.053   1.478   1.214  1.3211  0.2909 -2.0531
  176SOL     MW  704   0.119   1.492   1.166 -0.2084 -0.2470 -0.6921
  177SOL     OW  705   0.541   0.253   1.445 -0.3804 -0.3022 -0.5678
  177SOL    HW1  706   0.624   0.263   1.404 -1.4292  1.2033 -0.0180
  177SOL    HW2  707   0.531   0.336   1.490  0.2687 -1.7206  0.4837
  177SOL     MW  708   0.551   0.265   1.446 -0.4332 -0.2907 -0.3565
  178SOL     OW  709   0.016   0.687   2.896  0.4754  0.6440 -0.3627
  178SOL    HW1  710  -0.033   0.651   2.823  0.7949  3.5004  1.8836
  178SOL    HW2  711   0.099   0.728   2.863 -1.9977 -2.9416  0.6058
  178SOL     MW  712   0.020   0.687   2.882  0.1913  0.5478  0.0614
  179SOL     OW  713   1.586   1.467   1.403  0.2024 -0.2293  0.2627
  179SOL    HW1  714   1.610   1.502   1.487 -2.4014  0.2199  1.8784
  179SOL    HW2  715   1.665   1.477   1.351 -2.4326  2.4929 -2.6618
  179SOL     MW  716   1.600   1.473   1.407 -0.4888  0.1891  0.0900
  180SOL     OW  717   0.010   0.214   0.399 -0.3257 -0.2077 -0.4388
  180SOL    HW1  718  -0.065   0.247   0.344 -3.0465 -0.8805  1.1435
  180SOL    HW2  719   0.002   0.269   0.473 -2.5105 -0.0097 -2.4898
  180SOL     MW  720  -0.001   0.226   0.402 -0.9729 -0.2703 -0.5007
  181SOL     OW  721   1.044   1.329   0.005 -0.5171  0.4387 -0.3224
  181SOL    HW1  722   1.076   1.416   0.008 -0.1924  1.1983  0.4454
  181SOL    HW2  723   1.118   1.284  -0.035  2.4804 -1.1344  1.1964
  181SOL     MW  724   1.058   1.335   0.000 -0.0788  0.3314 -0.0207
  182SOL     OW  725   0.385   0.964   1.714  0.6076  0.4619  0.5274
  182SOL    HW1  726   0.309   0.905   1.708  2.9953 -0.4188  0.3217
  182SOL    HW2  727   0.455   0.902   1.742  0.0290  0.9344 -1.5888
  182SOL     MW  728   0.384   0.948   1.717  0.8463  0.4080  0.2210
  183SOL     OW  729   1.526   1.733   1.241  0.4822 -0.1414 -0.1991
  183SOL    HW1  730   1.617   1.755   1.258  1.2558  0.1237 -1.1858
  183SOL    HW2  731   1.506   1.660   1.298 -1.8447 -1.4789  4.6566
  183SOL     MW  732   1.535   1.727   1.251  0.2773 -0.2829  0.3114
  184SOL     OW  733   0.858   0.637   1.720 -0.1211 -0.1573  0.4219
  184SOL    HW1  734   0.947   0.668   1.714 -1.4738  2.3330 -0.6550
  184SOL    HW2  735   0.854   0.575   1.792 -1.5239  0.1719  0.2376
  184SOL     MW  736   0.869   0.633   1.729 -0.4847  0.2147  0.2555
  185SOL     OW  737   1.082   0.955   1.830 -0.1668  0.3446 -0.2696
  185SOL    HW1  738   1.052   0.869   1.861 -2.6596 -2.1551 -0.4452
  185SOL    HW2  739   1.117   1.002   1.911  1.8412  1.3569 -0.8030
  185SOL     MW  740   1.083   0.949   1.845 -0.2308  0.1484 -0.3632
  186SOL     OW  741   0.270   1.639   1.526 -0.5087 -0.2681 -0.1956
  186SOL    HW1  742   0.304   1.594   1.452 -1.1623  0.1582  1.8391
  186SOL    HW2  743   0.185   1.600   1.552 -0.6537  0.1248  2.6559
  186SOL     MW  744   0.263   1.628   1.520 -0.6141 -0.1600  0.4491
  187SOL     OW  745   1.424   0.866   1.337  0.2057  0.0784 -0.5027
  187SOL    HW1  746   1.429   0.885   1.432  0.8453 -1.1646 -0.3107
  187SOL    HW2  747   1.338   0.834   1.331  0.2064  1.3426  0.0294
  187SOL     MW  748   1.413   0.864   1.349  0.2902  0.0812 -0.4071
  188SOL     OW  749   1.866   1.200   0.930  0.2064 -0.4886 -0.1668
  188SOL    HW1  750   1.909   1.188   1.015 -1.5091 -0.9306  0.8981
  188SOL    HW2  751   1.844   1.111   0.901 -1.1184 -0.0273  2.6013
  188SOL     MW  752   1.868   1.187   0.937 -0.1947 -0.4860  0.3389
  189SOL     OW  753   0.747   0.756   0.863 -0.0303 -0.1107  0.9569
  189SOL    HW1  754   0.662   0.799   0.850 -0.3206 -1.9250 -0.2898
  189SOL    HW2  755   0.774   0.786   0.947  0.5331  0.2632 -0.5162
  189SOL     MW  756   0.740   0.766   0.872  0.0058 -0.3007  0.5981
  190SOL     OW  757   1.844   0.328   2.069  0.0900  0.4591  0.5061
  190SOL    HW1  758   1.870   0.287   2.153 -0.7778 -1.1151  1.5761
  190SOL    HW2  759   1.906   0.402   2.049 -2.6021  0.0333  0.3522
  190SOL     MW  760   1.856   0.333   2.077 -0.3797  0.1952  0.6270
  191SOL     OW  761   1.512   1.086   1.195  0.6145  0.2764  0.0055
  191SOL    HW1  762   1.498   1.156   1.265 -1.3872  0.7606  0.7040
  191SOL    HW2  763   1.471   1.008   1.237 -1.7839 -2.4883 -1.6658
  191SOL     MW  764   1.505   1.085   1.210  0.0340 -0.0245 -0.1229
  192SOL     OW  765   0.534   2.204   2.931  0.0891 -0.3879  0.1583
  192SOL    HW1  766   0.532   2.237   2.839  1.9793 -1.0208  0.7971
  192SOL    HW2  767   0.515   2.113   2.916 -3.7313  1.7659 -0.2849
  192SOL     MW  768   0.531   2.197   2.917 -0.1656 -0.1872  0.1841
  193SOL     OW  769   0.840   1.648   0.776  0.5075 -0.9184 -0.2649
  193SOL    HW1  770   0.763   1.681   0.836 -0.8738  0.8344  3.5277
  193SOL    HW2  771   0.788   1.589   0.712 -2.3397  2.4958 -1.4347
  193SOL     MW  772   0.823   1.645   0.776 -0.0504 -0.2367  0.0812
  194SOL     OW  773   0.399   1.356   0.832 -0.3023 -0.0936  0.4289
  194SOL    HW1  774   0.356   1.296   0.899  1.0592  2.3480  0.1011
  194SOL    HW2  775   0.325   1.403   0.794  0.7963  2.8224  1.2937
  194SOL     MW  776   0.384   1.355   0.836  0.0223  0.6133  0.4997
  195SOL     OW  777   1.214   1.146   3.014  0.4671  0.1907 -0.4721
  195SOL    HW1  778   1.235   1.145   3.108 -2.1372 -1.5322  2.0669
  195SOL    HW2  779   1.159   1.066   3.013  0.5318  1.4342  1.3250
  195SOL     MW  780   1.210   1.135   3.026  0.1320  0.1275  0.1000
  196SOL     OW  781   2.271   0.967   0.538  0.4326 -0.2102  0.2284
  196SOL    HW1  782   2.319   0.951   0.456 -0.3467  2.4062  2.2815
  196SOL    HW2  783   2.242   1.059   0.524  1.7260 -1.7903  0.9068
  196SOL     MW  784   2.273   0.977   0.525  0.5005 -0.0734  0.5888
  197SOL     OW  785   0.656   1.240   2.239  0.4964 -0.1214  0.7552
  197SOL    HW1  786   0.687   1.196   2.159 -2.2637 -1.3902  2.4209
  197SOL    HW2  787   0.659   1.331   2.213  1.9784  1.0015 -0.5167
  197SOL     MW  788   0.661   1.246   2.225  0.3277 -0.1407  0.8071
  198SOL     OW  789   2.897   1.379   1.060 -0.1347 -0.1827  0.2908
  198SOL    HW1  790   2.892   1.456   1.009 -1.2380 -2.5458 -0.8683
  198SOL    HW2  791   2.826   1.315   1.025 -0.8224 -3.2461 -1.8688
  198SOL     MW  792   2.887   1.381   1.049 -0.3710 -0.8987 -0.1471
  199SOL     OW  793   0.659   1.192   1.835 -0.3546 -0.0787  0.6283
  199SOL    HW1  794   0.568   1.190   1.889  1.1561 -0.3773  1.6232
  199SOL    HW2  795   0.651   1.265   1.766  3.1970 -1.2833  4.2154
  199SOL     MW  796   0.646   1.202   1.833  0.3133 -0.2770  1.2328
  200SOL     OW  797   1.905   2.969   1.306  0.4839  0.5581  0.2304
  200SOL    HW1  798   1.949   2.978   1.216  1.3481 -0.4247 -0.3207
  200SOL    HW2  799   1.842   3.044   1.305  2.1589  2.2196  1.2417
  200SOL     MW  800   1.903   2.980   1.294  0.8189  0.6477  0.2911
  201SOL     OW  801   1.218   0.331   0.843  0.3473  0.2174 -0.2891
  201SOL    HW1  802   1.194   0.245   0.808  1.5160  1.5495 -0.3818
  201SOL    HW2  803   1.315   0.331   0.827 -0.4461 -1.4940 -1.2845
  201SOL     MW  804   1.227   0.319   0.836  0.3968  0.1673 -0.4327
  202SOL     OW  805   1.386   1.679   0.991 -0.1237  0.6831 -0.1616
  202SOL    HW1  806   1.400   1.586   0.972  2.4382 -1.2652 -2.8414
  202SOL    HW2  807   1.437   1.689   1.074  0.6118  1.6217  0.1643
  202SOL     MW  808   1.395   1.668   1.000  0.3114  0.5499 -0.4722
  203SOL     OW  809   3.081   0.442   1.322 -0.4867 -0.1056 -0.3265
  203SOL    HW1  810   3.080   0.343   1.336 -2.7504 -1.5108  0.6039
  203SOL    HW2  811   3.161   0.471   1.272 -1.9056  3.2547 -1.3405
  203SOL     MW  812   3.092   0.433   1.317 -0.9726  0.1524 -0.3375
  204SOL     OW  813   1.023   1.814   0.630 -0.5911  0.3749 -0.1653
  204SOL    HW1  814   0.971   1.753   0.685 -1.1210 -0.1827  2.4389
  204SOL    HW2  815   0.958   1.838   0.563  0.5426 -0.9892 -1.6064
  204SOL     MW  816   1.007   1.809   0.629 -0.5115  0.1213 -0.0118
  205SOL     OW  817   1.368   2.996   1.378 -0.4168  0.0708  0.0157
  205SOL    HW1  818   1.372   2.981   1.284  2.5453  0.5282 -2.0387
  205SOL    HW2  819   1.307   3.067   1.384 -1.8363 -0.6249  1.5653
  205SOL     MW  820   1.360   3.003   1.366 -0.2133  0.0393 -0.0509
  206SOL     OW  821   0.324   2.872   1.390 -0.2365 -0.1180  0.3972
  206SOL    HW1  822   0.317   2.912   1.302  1.7219 -0.1762  0.4708
  206SOL    HW2  823   0.416   2.881   1.410  0.3624  1.8491  1.2646
  206SOL     MW  824   0.336   2.879   1.381  0.1009  0.1339  0.5214
  207SOL     OW  825   0.827   1.704   0.223 -0.2853 -0.4368  0.0531
  207SOL    HW1  826   0.901   1.741   0.173 -0.1805  0.0983  0.4078
  207SOL    HW2  827   0.874   1.643   0.279 -1.3490  0.5295  1.4627
  207SOL     MW  828   0.843   1.701   0.224 -0.4118 -0.2387  0.2859
  208SOL     OW  829   0.751   1.509   1.367 -0.5654 -1.0170  0.0064
  208SOL    HW1  830   0.821   1.509   1.294 -0.1136  1.4632 -3.1850
  208SOL    HW2  831   0.703   1.432   1.342 -0.0325  4.3029 -1.6919
  208SOL     MW  832   0.754   1.499   1.354 -0.4355  0.0122 -0.6388
  209SOL     OW  833   1.599   0.475   2.808  0.4407 -0.4354 -0.2183
  209SOL    HW1  834   1.647   0.552   2.829  1.9520 -1.8760 -4.1001
  209SOL    HW2  835   1.662   0.403   2.823 -2.2650 -0.3401  2.6672
  209SOL     MW  836   1.614   0.476   2.813  0.2831 -0.6129 -0.3497
  210SOL     OW  837   1.444   1.414   0.906 -0.2218 -0.1372 -0.1525
  210SOL    HW1  838   1.544   1.416   0.900  1.0652 -0.6304  0.3695
  210SOL    HW2  839   1.411   1.430   0.815  1.5878 -2.1280 -1.8408
  210SOL     MW  840   1.453   1.417   0.893  0.1868 -0.4649 -0.3064
  211SOL     OW  841   1.754   0.307   0.863  0.1450 -1.8586 -0.1983
  211SOL    HW1  842   1.761   0.338   0.776 -2.5362 -1.6321  2.8675
  211SOL    HW2  843   1.826   0.328   0.925  1.5854  0.9721  2.5564
  211SOL     MW  844   1.764   0.314   0.860 -0.0187 -1.4552  0.5696
  212SOL     OW  845   0.403   1.190   0.222 -0.0873  0.1617  0.0768
  212SOL    HW1  846   0.352   1.112   0.233  0.6724 -0.9950 -0.6591
  212SOL    HW2  847   0.465   1.173   0.154  2.5302 -2.2229 -4.2855
  212SOL     MW  848   0.405   1.178   0.215  0.3583 -0.3055 -0.5958
  213SOL     OW  849   0.413   1.790   3.077  0.2588 -0.4976 -0.2172
  213SOL    HW1  850   0.430   1.843   3.157 -1.7249 -1.3356 -0.1881
  213SOL    HW2  851   0.474   1.838   3.014  2.8655  0.7808  2.6537
  213SOL     MW  852   0.424   1.803   3.080  0.3410 -0.4395  0.1654
  214SOL     OW  853   0.594   0.331   2.137  0.2070 -0.4957  0.4583
  214SOL    HW1  854   0.522   0.394   2.127 -1.7859  1.0063  1.3256
  214SOL    HW2  855   0.599   0.306   2.040  0.8882  1.1153  1.8457
  214SOL     MW  856   0.585   0.336   2.123  0.0339 -0.0850  0.7558
  215SOL     OW  857   0.604   0.588   2.514  0.8568  0.2209  0.4056
  215SOL    HW1  858   0.535   0.624   2.461  0.4163  0.2056 -1.3575
  215SOL    HW2  859   0.560   0.504   2.525 -1.4641 -0.8810  2.8317
  215SOL     MW  860   0.589   0.582   2.508  0.4925  0.0735  0.4931
  216SOL     OW  861   2.917   3.054   2.808 -1.1204 -0.2625 -0.2025
  216SOL    HW1  862   2.822   3.047   2.802  1.2757 -0.4081 -2.2034
  216SOL    HW2  863   2.936   3.130   2.756  0.6415  0.2609  3.1296
  216SOL     MW  864   2.907   3.063   2.800 -0.5718 -0.2127 -0.0268
  217SOL     OW  865   0.916   1.102   0.133  0.3863 -0.0914 -0.1112
  217SOL    HW1  866   0.922   1.040   0.062  1.3874  2.8281 -3.2763
  217SOL    HW2  867   0.975   1.177   0.105  0.1020 -0.3858 -0.8815
  217SOL     MW  868   0.924   1.104   0.120  0.4809  0.2550 -0.6304
  218SOL     OW  869   0.824   1.426   2.596 -0.2924  0.5079 -0.1969
  218SOL    HW1  870   0.788   1.366   2.665 -0.4301  0.9990  0.7322
  218SOL    HW2  871   0.915   1.446   2.635  0.9935  0.4971  0.4153
  218SOL     MW  872   0.831   1.421   2.610 -0.1409  0.5713  0.0065
  219SOL     OW  873   1.067   0.425   2.494 -0.6842 -0.3510 -0.2838
  219SOL    HW1  874   1.143   0.452   2.437  0.8313  0.0648 -2.1525
  219SOL    HW2  875   1.018   0.505   2.502 -0.5709 -0.1143  0.6618
  219SOL     MW  876   1.071   0.439   2.487 -0.4693 -0.2649 -0.4056
  220SOL     OW  877   1.643   0.493   2.183 -0.2581 -0.0004  0.0148
  220SOL    HW1  878   1.586   0.551   2.137  2.4264 -0.4866 -0.8571
  220SOL    HW2  879   1.677   0.430   2.120  0.5668 -1.7621  0.5697
  220SOL     MW  880   1.640   0.492   2.168  0.2049 -0.2970 -0.0270
  221SOL     OW  881   0.332   1.371   2.939 -0.3053  0.0299 -0.3898
  221SOL    HW1  882   0.389   1.299   2.918 -0.3264  2.0037  1.8953
  221SOL    HW2  883   0.381   1.439   2.891  2.0046  1.6954 -0.9785
  221SOL     MW  884   0.346   1.371   2.930 -0.0033  0.5101 -0.1659
  222SOL     OW  885   0.504   0.911   2.703  0.0394 -0.0344 -0.4477
  222SOL    HW1  886   0.423   0.905   2.652  1.2595  1.6940 -2.1372
  222SOL    HW2  887   0.535   0.824   2.726  0.0098  0.1026 -0.2860
  222SOL     MW  888   0.498   0.898   2.699  0.1965  0.2117 -0.6493
  223SOL     OW  889   3.031   2.059   2.565 -0.3536  0.1035 -0.1483
  223SOL    HW1  890   3.031   2.049   2.662  1.3647 -1.7041  0.0045
  223SOL    HW2  891   3.080   2.140   2.555  0.8865  1.2843  2.8925
  223SOL     MW  892   3.038   2.068   2.576  0.0367  0.0208  0.2731
  224SOL     OW  893   1.440   0.566   2.423 -0.0937 -0.4585  0.3087
  224SOL    HW1  894   1.504   0.511   2.475  3.4312  0.1351  0.7905
  224SOL    HW2  895   1.443   0.654   2.464  0.2884 -0.1642  0.8681
  224SOL     MW  896   1.449   0.570   2.436  0.4218 -0.3413  0.4461
  225SOL     OW  897   2.908   1.497   2.176  0.2158 -0.3839 -0.3186
  225SOL    HW1  898   2.955   1.577   2.156 -1.6887 -1.4833  1.2984
  225SOL    HW2  899   2.835   1.520   2.236 -1.6043  0.9729 -0.0783
  225SOL     MW  900   2.905   1.511   2.182 -0.2756 -0.3499 -0.0736
  226SOL     OW  901   0.439   1.550   2.754 -0.1373 -0.2217  0.3365
  226SOL    HW1  902   0.522   1.552   2.711 -0.3860 -1.4277  0.3635
  226SOL    HW2  903   0.391   1.626   2.724 -2.8753 -1.1379  0.1861
  226SOL     MW  904   0.443   1.560   2.745 -0.5314 -0.5017  0.3202
  227SOL     OW  905   0.501   1.152   2.879 -0.1573  0.3136  0.5462
  227SOL    HW1  906   0.586   1.182   2.837  1.6602  2.6888  0.8182
  227SOL    HW2  907   0.482   1.070   2.825  1.3719 -1.0722 -2.1880
  227SOL     MW  908   0.510   1.145   2.866  0.2842  0.4441  0.2213
  228SOL     OW  909   0.789   1.127   2.039 -0.1342  0.5106 -0.0477
  228SOL    HW1  910   0.739   1.152   1.959  0.0873 -1.9222  0.4230
  228SOL    HW2  911   0.873   1.176   2.037 -1.9299  1.5641  3.0214
  228SOL     MW  912   0.794   1.137   2.028 -0.3419  0.3286  0.4193
  229SOL     OW  913   0.138   0.576   0.037 -0.8879 -0.1275  0.1466
  229SOL    HW1  914   0.082   0.553  -0.041 -1.3370  1.9763  0.7408
  229SOL    HW2  915   0.149   0.492   0.082  1.6335 -1.9491 -1.2732
  229SOL     MW  916   0.132   0.562   0.032 -0.6145 -0.0902  0.0376
  230SOL     OW  917   1.731   1.393   2.190 -0.5506 -0.5171  0.3793
  230SOL    HW1  918   1.652   1.377   2.244 -2.0444  1.1586  2.5450
  230SOL    HW2  919   1.804   1.342   2.215 -1.3050  0.7979 -0.1695
  230SOL     MW  920   1.730   1.384   2.200 -0.8472 -0.1225  0.5927
  231SOL     OW  921   2.728   1.216   2.189  0.5181 -0.3206 -0.4301
  231SOL    HW1  922   2.775   1.295   2.161 -1.8873  1.1071 -0.7210
  231SOL    HW2  923   2.642   1.225   2.144  0.5585  1.6986  2.5862
  231SOL     MW  924   2.723   1.227   2.179  0.2061  0.1342 -0.0705
  232SOL     OW  925   2.281   0.873   2.006  0.1154 -0.6572 -0.5624
  232SOL    HW1  926   2.195   0.918   1.983 -2.4691  1.1869  3.2235
  232SOL    HW2  927   2.269   0.814   2.081 -1.1925  0.3291 -1.6125
  232SOL     MW  928   2.268   0.871   2.013 -0.3982 -0.2838 -0.2014
  233SOL     OW  929   2.108   0.458   2.022 -0.1644  0.2235 -0.4721
  233SOL    HW1  930   2.180   0.407   2.009 -0.8288 -1.4202  0.8238
  233SOL    HW2  931   2.109   0.460   2.119  1.7757 -1.5411  0.2790
  233SOL     MW  932   2.118   0.452   2.033  0.0039 -0.2262 -0.2021
  234SOL     OW  933   0.256   1.041   2.628 -0.5895 -0.2474 -0.1799
  234SOL    HW1  934   0.180   1.050   2.572  1.1310  4.0984  0.6877
  234SOL    HW2  935   0.297   1.122   2.622 -1.2621 -2.2208  0.3840
  234SOL     MW  936   0.252   1.053   2.620 -0.4513  0.0656  0.0089
  235SOL     OW  937   1.134   0.054   2.814  0.7641  0.2934 -0.2284
  235SOL    HW1  938   1.117   0.044   2.910  0.6303  1.2651  2.0592
  235SOL    HW2  939   1.096   0.143   2.802  0.8598 -0.9503 -1.5055
  235SOL     MW  940   1.127   0.065   2.825  0.7591  0.2575 -0.0951
  236SOL     OW  941   2.975   0.623   0.162  0.3905 -0.0967  0.4255
  236SOL    HW1  942   2.973   0.648   0.258  1.8280  1.8920  2.2058
  236SOL    HW2  943   3.035   0.687   0.118  0.4685 -2.9667 -0.3978
  236SOL     MW  944   2.983   0.634   0.169  0.5905 -0.2130  0.5518
  237SOL     OW  945   1.932   1.127   2.142 -0.1378 -0.0971  0.5884
  237SOL    HW1  946   1.860   1.070   2.121  4.2317  1.0558 -4.0129
  237SOL    HW2  947   2.011   1.081   2.127 -3.1023  2.4654 -1.6171
  237SOL     MW  948   1.933   1.113   2.137  0.0476  0.3931 -0.3097
  238SOL     OW  949   1.112   1.694   2.925  0.7099  0.0825  0.7758
  238SOL    HW1  950   1.101   1.609   2.869  0.9848 -1.5372  3.4167
  238SOL    HW2  951   1.199   1.694   2.958 -0.9526  0.6268  0.8214
  238SOL     MW  952   1.122   1.683   2.922  0.5268 -0.0594  1.1303
  239SOL     OW  953   1.193   1.292   2.398  0.5120  0.4385  0.2159
  239SOL    HW1  954   1.103   1.308   2.381 -0.1790 -0.5501  1.6776
  239SOL    HW2  955   1.205   1.289   2.493 -0.0998 -1.2867 -0.8284
  239SOL     MW  956   1.182   1.294   2.408  0.3401  0.0804  0.2710
  240SOL     OW  957   0.600   0.855   2.306 -0.1980  0.0980 -0.7939
  240SOL    HW1  958   0.646   0.890   2.389  1.4104 -0.6548 -1.1491
  240SOL    HW2  959   0.677   0.848   2.253 -1.0436  0.9490 -0.8798
  240SOL     MW  960   0.616   0.859   2.310 -0.0974  0.1109 -0.8521
  241SOL     OW  961   0.663   0.451  -0.002 -0.4508 -0.4498 -0.0896
  241SOL    HW1  962   0.700   0.532   0.047 -1.2235  1.1248 -0.1188
  241SOL    HW2  963   0.572   0.475  -0.019 -0.3559  2.6733 -0.1017
  241SOL     MW  964   0.656   0.465   0.003 -0.5402  0.1700 -0.0950
  242SOL     OW  965   1.485   1.616   2.289 -0.0140  0.4116  0.2876
  242SOL    HW1  966   1.426   1.682   2.325  0.6530 -0.6963  0.2266
  242SOL    HW2  967   1.420   1.568   2.239  0.0922  0.1574 -1.2084
  242SOL     MW  968   1.469   1.619   2.287  0.0880  0.2319  0.0822
  243SOL     OW  969   0.960   0.179   2.465  0.1765  0.1524  0.0808
  243SOL    HW1  970   1.041   0.132   2.441 -2.4776 -1.8794 -1.0361
  243SOL    HW2  971   0.989   0.265   2.477 -0.9545 -2.1591  1.8938
  243SOL     MW  972   0.974   0.184   2.463 -0.3229 -0.4207  0.1727
  244SOL     OW  973   0.099   0.741   2.350 -0.1660 -0.9547 -0.9116
  244SOL    HW1  974   0.065   0.825   2.378 -1.2175  1.3503 -2.8430
  244SOL    HW2  975   0.193   0.747   2.342  3.4858  0.0697 -1.3135
  244SOL     MW  976   0.107   0.753   2.353  0.1771 -0.5154 -1.2195
  245SOL     OW  977   1.209   0.108   2.389 -0.1814  0.0514 -0.1224
  245SOL    HW1  978   1.263   0.075   2.319  2.2591  0.0918 -0.2721
  245SOL    HW2  979   1.244   0.061   2.460 -0.5367  0.6688 -2.4877
  245SOL     MW  980   1.221   0.097   2.389  0.0937  0.1382 -0.4542
  246SOL     OW  981   1.171   1.058   2.109  0.5555 -0.6114  0.7753
  246SOL    HW1  982   1.113   1.045   2.182  0.0537 -1.7833  0.0930
  246SOL    HW2  983   1.257   1.039   2.147  0.4178 -1.7504  0.3620
  246SOL     MW  984   1.174   1.054   2.123  0.4711 -0.9163  0.6308
  247SOL     OW  985   0.769   0.655   0.154  0.4118  0.1711  0.1418
  247SOL    HW1  986   0.758   0.755   0.162 -0.1658  0.1604 -0.2257
  247SOL    HW2  987   0.862   0.642   0.124 -2.3601  2.0326  3.1926
  247SOL     MW  988   0.780   0.666   0.151 -0.0301  0.4153  0.4959
  248SOL     OW  989   0.364   1.303   2.598  0.0760 -0.3252 -0.1281
  248SOL    HW1  990   0.360   1.320   2.504 -1.3094  0.7412  0.4877
  248SOL    HW2  991   0.375   1.387   2.641 -0.7168  0.9640  0.1055
  248SOL     MW  992   0.365   1.317   2.591 -0.2114 -0.0144 -0.0160
  249SOL     OW  993   3.030   1.857   2.788  0.2059 -0.2152 -0.2675
  249SOL    HW1  994   2.954   1.808   2.819 -1.0469 -0.7944  3.3634
  249SOL    HW2  995   3.111   1.832   2.826 -0.7155  1.9956  0.7586
  249SOL     MW  996   3.031   1.848   2.797 -0.0809  0.0001  0.3469
  250SOL     OW  997   2.305   0.700   2.238  0.3345  0.1776  0.6908
  250SOL    HW1  998   2.229   0.638   2.250  0.3992 -3.7253 -1.2387
  250SOL    HW2  999   2.298   0.769   2.300  1.2193  3.2397  1.0998
  250SOL     MW 1000   2.294   0.701   2.248  0.4598  0.0667  0.4902
  251SOL     OW 1001   0.128   0.884   1.961 -0.5307 -0.6500 -0.4593
  251SOL    HW1 1002   0.080   0.806   1.989  1.6057  2.6282 -0.2131
  251SOL    HW2 1003   0.102   0.899   1.867 -0.7151  1.4937  0.5208
  251SOL     MW 1004   0.118   0.875   1.952 -0.2732  0.0654 -0.2975
  252SOL     OW 1005   1.742   1.010   2.910  0.4770 -0.5774 -0.1656
  252SOL    HW1 1006   1.753   1.080   2.975  0.2004  0.1958 -0.7077
  252SOL    HW2 1007   1.804   1.039   2.836  1.7355 -0.8767  1.7722
  252SOL     MW 1008   1.751   1.023   2.909  0.6066 -0.5149  0.0186
  253SOL     OW 1009   1.117   1.675   2.563 -0.4160  0.1146 -0.4220
  253SOL    HW1 1010   1.090   1.626   2.485 -3.9356  1.0564  0.1216
  253SOL    HW2 1011   1.051   1.745   2.554  0.0108 -3.9203  2.5514
  253SOL     MW 1012   1.105   1.678   2.551 -0.8240 -0.2935  0.0420
  254SOL     OW 1013   0.969   0.995   2.269 -0.2899 -0.9784 -0.4063
  254SOL    HW1 1014   0.927   0.919   2.235 -0.0058  2.1488  0.4488
  254SOL    HW2 1015   0.897   1.058   2.276 -0.6273 -0.4404 -0.0584
  254SOL     MW 1016   0.954   0.994   2.265 -0.2969 -0.4948 -0.2475
  255SOL     OW 1017   0.866   2.434   2.147  0.0296 -0.0415 -0.3802
  255SOL    HW1 1018   0.773   2.398   2.130  0.3609  0.8284 -0.6617
  255SOL    HW2 1019   0.925   2.353   2.165  2.3047  0.5652 -0.4014
  255SOL     MW 1020   0.861   2.418   2.147  0.3735  0.1533 -0.4201
  256SOL     OW 1021   1.321   2.792   3.068 -0.4223 -0.3373  0.3651
  256SOL    HW1 1022   1.366   2.736   3.129  1.8385 -2.4910 -2.3826
  256SOL    HW2 1023   1.375   2.778   2.985  2.2435  0.7928  1.2642
  256SOL     MW 1024   1.334   2.783   3.065  0.2277 -0.4723  0.1212
  257SOL     OW 1025   0.104   1.950   0.062  0.0632 -0.0576 -0.1105
  257SOL    HW1 1026   0.164   1.903   0.128 -1.7363 -0.6135  1.7085
  257SOL    HW2 1027   0.110   1.910  -0.027  1.1132  1.1517 -0.4988
  257SOL     MW 1028   0.113   1.939   0.059 -0.0357  0.0286  0.0783
  258SOL     OW 1029   0.713   0.962   2.522  0.3656 -0.1759  0.5390
  258SOL    HW1 1030   0.730   1.060   2.500 -1.8063 -1.0562  1.4689
  258SOL    HW2 1031   0.644   0.952   2.583 -0.9594  1.4105 -3.1669
  258SOL     MW 1032   0.707   0.974   2.527 -0.0958 -0.0827  0.1728
  259SOL     OW 1033   0.809   0.443   2.260  0.1416  0.6204 -0.0905
  259SOL    HW1 1034   0.726   0.409   2.229  1.0039  1.0561  0.5125
  259SOL    HW2 1035   0.853   0.361   2.287  0.0470 -1.8768 -0.6168
  259SOL     MW 1036   0.804   0.428   2.259  0.2429  0.3484 -0.0804
  260SOL     OW 1037   0.660   0.091   1.647  0.1465  0.1776  1.1793
  260SOL    HW1 1038   0.586   0.127   1.604  0.2777  0.0654 -1.3093
  260SOL    HW2 1039   0.735   0.114   1.595 -0.0100 -0.3979 -1.9641
  260SOL     MW 1040   0.660   0.099   1.635  0.1432  0.0869  0.4362
  261SOL     OW 1041   1.014   0.725   2.023  0.4588  0.8360  0.0771
  261SOL    HW1 1042   1.085   0.709   2.086 -1.2043  0.5634  2.3023
  261SOL    HW2 1043   0.975   0.640   1.990  0.9361 -3.1844  0.9773
  261SOL     MW 1044   1.018   0.712   2.027  0.3024  0.2696  0.4895
  262SOL     OW 1045   1.138   0.331   0.150 -0.4096  0.1204  0.1262
  262SOL    HW1 1046   1.230   0.350   0.123 -1.6737  2.1455  1.2493
  262SOL    HW2 1047   1.102   0.269   0.088  0.5305 -0.3699 -1.0164
  262SOL     MW 1048   1.145   0.325   0.138 -0.4524  0.3229  0.1236
  263SOL     OW 1049   0.358   0.025   2.455  0.2219  0.4327 -0.3502
  263SOL    HW1 1050   0.284   0.076   2.490  0.8388  1.0762  1.4242
  263SOL    HW2 1051   0.402   0.068   2.371  0.6632  1.7561 -1.4849
  263SOL     MW 1052   0.354   0.038   2.448  0.3615  0.6922 -0.2658
  264SOL     OW 1053   1.542   1.479   1.986  0.1634  0.2919  0.3631
  264SOL    HW1 1054   1.464   1.426   1.987  0.7369  0.2739 -0.8676
  264SOL    HW2 1055   1.612   1.426   2.028 -3.1004  1.2544  0.8426
  264SOL     MW 1056   1.541   1.465   1.992 -0.1915  0.4165  0.2640
  265SOL     OW 1057   0.703   2.779   2.323 -0.6676 -0.0877 -0.3726
  265SOL    HW1 1058   0.795   2.761   2.298  1.0590 -1.2143  0.4127
  265SOL    HW2 1059   0.717   2.775   2.418 -2.5736 -1.0580  1.3795
  265SOL     MW 1060   0.717   2.776   2.332 -0.6913 -0.3644 -0.0378
  266SOL     OW 1061   0.792   0.855   2.102  0.3987 -0.2504 -0.4586
  266SOL    HW1 1062   0.801   0.948   2.079 -0.7907 -1.8363 -1.2784
  266SOL    HW2 1063   0.869   0.809   2.060 -0.4623  0.5503 -0.8013
  266SOL     MW 1064   0.803   0.861   2.094  0.1282 -0.3540 -0.6120
  267SOL     OW 1065   1.338   1.754   2.705 -0.5240  0.5136 -0.5379
  267SOL    HW1 1066   1.392   1.687   2.663 -1.3273 -0.1127  0.7381
  267SOL    HW2 1067   1.246   1.739   2.671  0.7691  2.2920  1.0918
  267SOL     MW 1068   1.333   1.743   2.695 -0.4593  0.6656 -0.1545
  268SOL     OW 1069   0.088   0.883   1.686 -0.1077 -0.2192  0.3343
  268SOL    HW1 1070   0.003   0.923   1.714  1.9142  0.8413  2.2841
  268SOL    HW2 1071   0.072   0.811   1.617 -1.1225 -2.3549 -0.7517
  268SOL     MW 1072   0.075   0.879   1.681  0.0251 -0.3610  0.4482
  269SOL     OW 1073   1.316   1.801   2.392 -0.4235 -0.1246 -0.2955
  269SOL    HW1 1074   1.393   1.843   2.433 -1.0264 -1.9631  3.2790
  269SOL    HW2 1075   1.261   1.759   2.454 -0.8156  2.9160 -0.1658
  269SOL     MW 1076   1.319   1.801   2.406 -0.5548  0.0340  0.1932
  270SOL     OW 1077   1.111   0.482   1.530  0.3776 -0.4150 -0.6120
  270SOL    HW1 1078   1.062   0.418   1.581 -1.0997  1.0139  0.8691
  270SOL    HW2 1079   1.200   0.452   1.534 -2.4942  0.4012 -0.1741
  270SOL     MW 1080   1.116   0.469   1.537 -0.1962 -0.1188 -0.3588
  271SOL     OW 1081   0.713   0.108   2.542 -0.4089 -0.0167 -0.4373
  271SOL    HW1 1082   0.745   0.070   2.622  1.1663 -0.2137 -1.7076
  271SOL    HW2 1083   0.798   0.130   2.502 -0.5635 -1.9004  0.7431
  271SOL     MW 1084   0.728   0.106   2.547 -0.2215 -0.2912 -0.4492
  272SOL     OW 1085   1.476   2.792   2.848 -0.0920 -0.1448 -0.0871
  272SOL    HW1 1086   1.419   2.804   2.767 -3.5127  0.0858 -2.7117
  272SOL    HW2 1087   1.532   2.872   2.852 -0.6555 -1.2761  0.4935
  272SOL     MW 1088   1.476   2.804   2.838 -0.6176 -0.2636 -0.3568
  273SOL     OW 1089   1.425   0.797   2.840 -0.4252  0.4877  0.3441
  273SOL    HW1 1090   1.505   0.755   2.867  0.0314  1.6028 -0.0929
  273SOL    HW2 1091   1.443   0.888   2.819  1.5012 -0.6175  1.2429
  273SOL     MW 1092   1.438   0.804   2.841 -0.1108  0.4890  0.4050
  274SOL     OW 1093   1.423   0.699   0.167  0.5831  1.2135  0.1676
  274SOL    HW1 1094   1.484   0.624   0.179 -1.3226  0.8870 -0.9551
  274SOL    HW2 1095   1.339   0.676   0.222  0.6232  2.0156  1.1592
  274SOL     MW 1096   1.420   0.686   0.176  0.3370  1.2763  0.1503
  275SOL     OW 1097   1.898   0.545   1.710  0.2426 -0.2591 -0.0889
  275SOL    HW1 1098   1.943   0.590   1.779  2.5477 -3.1675  2.1909
  275SOL    HW2 1099   1.889   0.456   1.747 -0.3370 -1.7873 -2.1858
  275SOL     MW 1100   1.903   0.539   1.724  0.4703 -0.8444 -0.0648
  276SOL     OW 1101   0.439   1.158   1.954  0.3167 -0.3292 -0.2371
  276SOL    HW1 1102   0.429   1.068   1.983  1.6766  0.6706 -2.2419
  276SOL    HW2 1103   0.381   1.220   2.003 -0.4544 -0.2127  0.6115
  276SOL     MW 1104   0.430   1.154   1.964  0.3944 -0.1819 -0.3896
  277SOL     OW 1105   1.998   1.164   2.438  0.1599 -0.0010 -0.2100
  277SOL    HW1 1106   2.037   1.232   2.497  2.0979  0.3600  1.1909
  277SOL    HW2 1107   1.944   1.213   2.381  2.4577  0.8994 -0.6494
  277SOL     MW 1108   1.996   1.179   2.438  0.7188  0.1654 -0.0831
  278SOL     OW 1109   1.465   0.636   1.608  0.4422  0.4682  0.0260
  278SOL    HW1 1110   1.465   0.616   1.711  2.3787  0.8296  1.3251
  278SOL    HW2 1111   1.558   0.654   1.584  0.5867  1.9994  0.8282
  278SOL     MW 1112   1.478   0.636   1.618  0.7168  0.7179  0.3033
  279SOL     OW 1113   0.508   0.074   2.225 -0.2004  0.1932  0.6308
  279SOL    HW1 1114   0.597   0.022   2.223 -2.0140 -1.8190  0.0376
  279SOL    HW2 1115   0.541   0.159   2.202  0.1950 -1.1851 -0.3259
  279SOL     MW 1116   0.524   0.078   2.222 -0.3875 -0.2542  0.4263
  280SOL     OW 1117   1.443   0.995   2.251  0.4227  0.3632 -0.1432
  280SOL    HW1 1118   1.524   0.975   2.201  1.3008  1.2549  0.8149
  280SOL    HW2 1119   1.436   0.941   2.329  3.0909  0.2606  0.8952
  280SOL     MW 1120   1.453   0.985   2.254  0.8906  0.4673  0.1202
  281SOL     OW 1121   1.384   1.075   2.790 -0.0789  0.1560  0.7963
  281SOL    HW1 1122   1.435   1.153   2.780  1.0468  0.4245  0.4389
  281SOL    HW2 1123   1.336   1.097   2.867 -1.7676 -0.0699 -1.1934
  281SOL     MW 1124   1.384   1.088   2.799 -0.1532  0.1616  0.4866
  282SOL     OW 1125   1.067   1.313   1.617  0.2484 -0.1049  0.0840
  282SOL    HW1 1126   1.041   1.397   1.590 -1.8434 -0.1184  2.2667
  282SOL    HW2 1127   0.993   1.266   1.657 -0.4770 -2.1805 -1.2930
  282SOL     MW 1128   1.054   1.318   1.619 -0.1233 -0.3805  0.1903
  283SOL     OW 1129   0.787   1.301   3.011 -0.5203  0.2851  0.6821
  283SOL    HW1 1130   0.872   1.342   3.036 -0.4150 -0.0597  1.7378
  283SOL    HW2 1131   0.723   1.369   3.031 -2.0417 -3.4620  2.0683
  283SOL     MW 1132   0.789   1.315   3.017 -0.7071 -0.2548  1.0043
  284SOL     OW 1133   0.377   0.710   2.358 -0.2394  0.1189  0.0391
  284SOL    HW1 1134   0.457   0.773   2.352 -1.8209  2.9033 -1.6955
  284SOL    HW2 1135   0.382   0.661   2.277  1.9104  0.9301 -0.6065
  284SOL     MW 1136   0.388   0.712   2.346 -0.1644  0.5933 -0.2749
  285SOL     OW 1137   0.877   0.922   2.771  0.2478 -0.0839 -0.5221
  285SOL    HW1 1138   0.927   0.932   2.686 -1.2671  0.1522 -0.3550
  285SOL    HW2 1139   0.811   0.843   2.764 -2.3083 -0.3203  2.0854
  285SOL     MW 1140   0.875   0.912   2.759 -0.2894 -0.0840 -0.1560
  286SOL     OW 1141   1.056   1.501   2.741 -0.0052  0.3976 -0.3012
  286SOL    HW1 1142   1.120   1.435   2.731  0.6127  0.7132  0.7001
  286SOL    HW2 1143   1.075   1.565   2.669 -0.3871 -1.7514  2.7745
  286SOL     MW 1144   1.067   1.501   2.730  0.0260  0.1557  0.2367
  287SOL     OW 1145   1.099   0.964   0.331  0.0647  0.0156  0.1625
  287SOL    HW1 1146   1.037   0.975   0.400 -1.1434 -1.5201 -2.2731
  287SOL    HW2 1147   1.055   1.009   0.257  0.3620 -0.6352 -0.6493
  287SOL     MW 1148   1.085   0.971   0.330 -0.0555 -0.2729 -0.2660
  288SOL     OW 1149   1.502   0.725   2.088 -0.4695 -0.1148 -0.0816
  288SOL    HW1 1150   1.431   0.760   2.142  4.7264 -2.3750 -0.1444
  288SOL    HW2 1151   1.574   0.786   2.095  0.9889  1.0842 -2.3848
  288SOL     MW 1152   1.502   0.737   2.096  0.4085 -0.2548 -0.3938
  289SOL     OW 1153   1.035   1.022   2.566  0.4398 -0.0637 -0.0590
  289SOL    HW1 1154   1.082   0.945   2.527  4.1269 -0.1947  1.2265
  289SOL    HW2 1155   0.985   1.063   2.495 -1.9176  0.7066 -2.6529
  289SOL     MW 1156   1.035   1.017   2.552  0.6152  0.0206 -0.2316
  290SOL     OW 1157   0.695   0.658   1.469  0.2292 -0.0760  0.5449
  290SOL    HW1 1158   0.751   0.604   1.413  1.6435  2.8656  0.5959
  290SOL    HW2 1159   0.739   0.670   1.556 -3.0378 -2.7892 -0.7056
  290SOL     MW 1160   0.709   0.653   1.473 -0.0153 -0.0459  0.3866
  291SOL     OW 1161   0.161   0.349   0.206 -0.2358  0.4112  0.2430
  291SOL    HW1 1162   0.254   0.327   0.201  1.0510 -1.4513 -3.7164
  291SOL    HW2 1163   0.125   0.285   0.266 -0.1226 -0.2941 -0.8102
  291SOL     MW 1164   0.169   0.338   0.213 -0.0511  0.0724 -0.4184
  292SOL     OW 1165   1.029   0.602   0.089  0.0793  0.1387 -0.1243
  292SOL    HW1 1166   1.077   0.651   0.156 -0.2747 -1.6215 -0.2459
  292SOL    HW2 1167   1.062   0.509   0.108  1.2640  1.0689  2.5344
  292SOL     MW 1168   1.039   0.596   0.100  0.1889  0.0292  0.2104
  293SOL     OW 1169   0.081   0.130   2.504 -0.5315  0.3128 -0.4560
  293SOL    HW1 1170   0.074   0.060   2.438  1.7560 -0.6670 -1.1862
  293SOL    HW2 1171  -0.005   0.130   2.553  1.5190  2.0138 -1.3457
  293SOL     MW 1172   0.068   0.120   2.502  0.0409  0.4080 -0.6697
  294SOL     OW 1173   1.245   0.416   2.285  0.1076 -0.6650 -0.2793
  294SOL    HW1 1174   1.318   0.450   2.338 -2.3541 -1.3804 -0.8997
  294SOL    HW2 1175   1.240   0.328   2.325  2.2699 -2.4230 -1.4438
  294SOL     MW 1176   1.254   0.409   2.297  0.0681 -0.9914 -0.5148
  295SOL     OW 1177   0.903   0.645   2.464  0.1640 -0.6112 -0.5583
  295SOL    HW1 1178   0.848   0.585   2.413  0.9359  0.0815  0.4757
  295SOL    HW2 1179   0.837   0.697   2.505  1.6260  0.1005 -1.2177
  295SOL     MW 1180   0.887   0.644   2.463  0.4588 -0.4259 -0.5089
  296SOL     OW 1181   1.365   0.364   2.043 -0.4548 -0.3817  0.1609
  296SOL    HW1 1182   1.389   0.275   2.045 -0.0818 -1.6030  1.2440
  296SOL    HW2 1183   1.333   0.382   2.131  0.0023 -0.4210  0.5360
  296SOL     MW 1184   1.364   0.355   2.055 -0.3453 -0.5480  0.3533
  297SOL     OW 1185   1.353   0.370   1.539 -0.0180 -0.1986  0.1963
  297SOL    HW1 1186   1.410   0.443   1.563  1.0189 -1.7963 -2.2357
  297SOL    HW2 1187   1.358   0.296   1.603 -0.9746  3.5138  0.0112
  297SOL     MW 1188   1.361   0.369   1.551 -0.0074  0.0804 -0.1490
  298SOL     OW 1189   1.681   0.925   2.133  0.4239 -0.1670  0.1055
  298SOL    HW1 1190   1.700   0.966   2.046 -0.5552  1.2265 -1.9911
  298SOL    HW2 1191   1.748   0.856   2.149  0.8519 -1.1012  0.5215
  298SOL     MW 1192   1.692   0.922   2.124  0.3512 -0.1064 -0.1163
  299SOL     OW 1193   0.615   1.135   0.056 -0.2789 -0.2538 -0.2400
  299SOL    HW1 1194   0.570   1.108  -0.026 -0.8173  1.4160  1.5232
  299SOL    HW2 1195   0.687   1.196   0.037  0.7399 -0.0667  0.0254
  299SOL     MW 1196   0.619   1.139   0.042 -0.2155 -0.0088  0.0276
  300SOL     OW 1197   1.202   1.248   2.660 -0.0140  0.6159 -0.1572
  300SOL    HW1 1198   1.136   1.190   2.631  2.7107  2.0598 -1.1272
  300SOL    HW2 1199   1.262   1.187   2.700 -0.8729 -0.2947 -2.0264
  300SOL     MW 1200   1.201   1.233   2.662  0.2322  0.6863 -0.5318
  301SOL     OW 1201   1.427   1.026   0.658 -0.2183 -0.5891 -0.4959
  301SOL    HW1 1202   1.462   1.041   0.741  0.3571 -1.6054  0.1567
  301SOL    HW2 1203   1.369   0.953   0.677 -1.7659 -1.4757  1.8627
  301SOL     MW 1204   1.424   1.018   0.671 -0.3465 -0.8402 -0.0986
  302SOL     OW 1205   0.239   1.590   2.088  0.3022  0.2946  0.2890
  302SOL    HW1 1206   0.238   1.497   2.105 -0.9843 -0.6990  1.7818
  302SOL    HW2 1207   0.144   1.617   2.089  0.5237  0.5266 -0.1031
  302SOL     MW 1208   0.226   1.581   2.090  0.1617  0.1941  0.4342
  303SOL     OW 1209   0.321   1.824   2.693  0.8282  0.3910  0.2168
  303SOL    HW1 1210   0.278   1.858   2.612 -1.9484 -0.7827 -1.8513
  303SOL    HW2 1211   0.262   1.851   2.768  0.1745  2.7042 -1.0961
  303SOL     MW 1212   0.308   1.832   2.692  0.3756  0.5414 -0.2293
  304SOL     OW 1213   0.567   2.133   2.453  0.5507  0.2373  0.2214
  304SOL    HW1 1214   0.600   2.201   2.388 -1.5017 -0.7089  0.3748
  304SOL    HW2 1215   0.622   2.053   2.447 -1.6784 -1.1023 -1.0950
  304SOL     MW 1216   0.579   2.131   2.444 -0.0142 -0.0643  0.0680
  305SOL     OW 1217   1.125   0.605   0.524 -0.1131 -0.1554 -0.1366
  305SOL    HW1 1218   1.033   0.583   0.499  0.9953 -3.1873  0.4780
  305SOL    HW2 1219   1.186   0.520   0.522  4.1214 -1.0609  1.7183
  305SOL     MW 1220   1.121   0.591   0.521  0.5919 -0.6749  0.1892
  306SOL     OW 1221   1.131   1.533   0.308  0.3556  0.1439 -0.0789
  306SOL    HW1 1222   1.141   1.434   0.292 -2.4226  0.2196  0.3766
  306SOL    HW2 1223   1.186   1.560   0.231 -0.6842  1.9171 -0.6124
  306SOL     MW 1224   1.140   1.523   0.296 -0.1481  0.3879 -0.0892
  307SOL     OW 1225   1.415   0.586   1.875 -0.4388  1.1433 -0.1338
  307SOL    HW1 1226   1.406   0.508   1.934 -0.6112  1.4348 -0.1777
  307SOL    HW2 1227   1.438   0.661   1.932 -2.5061 -0.6300 -1.8438
  307SOL     MW 1228   1.417   0.586   1.890 -0.7343  0.9478 -0.3652
  308SOL     OW 1229   2.256   0.585   2.712 -0.1964 -0.0209 -0.2502
  308SOL    HW1 1230   2.348   0.589   2.742  1.6771 -0.6023 -0.1749
  308SOL    HW2 1231   2.222   0.675   2.710 -1.4012 -0.0733 -1.7537
  308SOL     MW 1232   2.263   0.597   2.715 -0.1082 -0.1045 -0.4386
  309SOL     OW 1233   0.562   0.514   0.296  0.3592 -1.0037 -0.0374
  309SOL    HW1 1234   0.647   0.544   0.256 -0.0463  4.7023  0.7667
  309SOL    HW2 1235   0.538   0.428   0.252 -2.3733 -3.1409  2.3575
  309SOL     MW 1236   0.570   0.507   0.285 -0.0549 -0.5329  0.3847
  310SOL     OW 1237   0.407   0.544   1.830  0.1700  0.4048  0.1667
  310SOL    HW1 1238   0.413   0.533   1.734  0.8274 -1.0679 -0.1484
  310SOL    HW2 1239   0.449   0.628   1.845  1.2352 -0.5892  1.8522
  310SOL     MW 1240   0.414   0.554   1.819  0.3973  0.0794  0.3475
  311SOL     OW 1241   2.003   0.691   1.921  0.2434 -0.6478  0.2503
  311SOL    HW1 1242   1.941   0.710   1.995  2.5124  2.8848  1.3598
  311SOL    HW2 1243   2.054   0.612   1.957  2.1433 -2.0256  1.0883
  311SOL     MW 1244   2.002   0.683   1.936  0.7934 -0.3635  0.5073
  312SOL     OW 1245   1.773   2.395   0.177  0.2240 -0.8501  0.5544
  312SOL    HW1 1246   1.797   2.404   0.271  1.3334 -2.2221  0.6698
  312SOL    HW2 1247   1.701   2.464   0.172  1.3394 -1.2026 -0.0403
  312SOL     MW 1248   1.767   2.405   0.188  0.5175 -1.0776  0.4911
  313SOL     OW 1249   0.065   1.163   3.043  0.1048  0.7589 -0.5049
  313SOL    HW1 1250   0.044   1.171   3.135 -0.1204  0.3842 -1.2530
  313SOL    HW2 1251   0.041   1.252   3.011 -0.2427 -0.8771 -0.1438
  313SOL     MW 1252   0.059   1.176   3.051  0.0293  0.4936 -0.5559
  314SOL     OW 1253   2.223   2.857   3.061 -0.3144 -0.2619 -0.0198
  314SOL    HW1 1254   2.132   2.875   3.027  3.6916  0.6911 -2.6153
  314SOL    HW2 1255   2.257   2.937   3.079 -2.1026 -3.1470  0.6967
  314SOL     MW 1256   2.215   2.870   3.059 -0.0218 -0.5168 -0.2677
  315SOL     OW 1257   1.509   1.857   3.030 -0.0623  0.0940  0.0111
  315SOL    HW1 1258   1.433   1.914   3.050 -2.3665  1.4031  1.5529
  315SOL    HW2 1259   1.550   1.901   2.961 -2.2016  0.3349  1.1198
  315SOL     MW 1260   1.505   1.870   3.024 -0.6486  0.2985  0.3608
  316SOL     OW 1261   1.222   0.690   2.690  0.1795 -0.1995 -0.0797
  316SOL    HW1 1262   1.300   0.723   2.731  2.8635  2.0783  0.0708
  316SOL    HW2 1263   1.175   0.635   2.750 -1.2492 -1.7871 -1.8865
  316SOL     MW 1264   1.226   0.687   2.703  0.3451 -0.1084 -0.2982
  317SOL     OW 1265   0.648   1.640   2.540  0.3069 -0.3342 -0.1903
  317SOL    HW1 1266   0.708   1.565   2.553 -0.7750 -1.4989  0.6028
  317SOL    HW2 1267   0.606   1.618   2.460 -4.1967 -1.0938 -1.1220
  317SOL     MW 1268   0.651   1.628   2.531 -0.4300 -0.5881 -0.2086
  318SOL     OW 1269   1.357   0.383   2.853 -0.4013 -0.6582  0.1727
  318SOL    HW1 1270   1.298   0.460   2.836 -1.6692  1.1901 -0.0784
  318SOL    HW2 1271   1.446   0.417   2.833 -1.9568 -2.1533  1.6648
  318SOL     MW 1272   1.361   0.397   2.848 -0.7738 -0.6116  0.3364
  319SOL     OW 1273   0.819   0.490   2.863 -0.6935  0.4621 -0.1301
  319SOL    HW1 1274   0.768   0.440   2.804  2.2034  0.2289  2.6883
  319SOL    HW2 1275   0.786   0.491   2.951 -0.5831  0.1966  1.0121
  319SOL     MW 1276   0.808   0.483   2.867 -0.2967  0.3963  0.3925
  320SOL     OW 1277   1.007   1.295   2.045  0.0868  0.6396  0.3738
  320SOL    HW1 1278   1.078   1.251   2.093 -0.0628  0.1644  0.6598
  320SOL    HW2 1279   1.049   1.337   1.968  1.4442  0.3127 -0.6875
  320SOL     MW 1280   1.022   1.295   2.041  0.2461  0.5338  0.2715
  321SOL     OW 1281   1.017   0.943   3.029  0.1266  0.0902  0.5368
  321SOL    HW1 1282   0.970   0.933   2.938  1.5430 -3.2431 -0.6722
  321SOL    HW2 1283   1.090   0.874   3.019 -2.5922 -4.5775 -2.8919
  321SOL     MW 1284   1.020   0.933   3.016 -0.0453 -0.9655 -0.0751
  322SOL     OW 1285   1.313   0.893   1.631 -0.1935  0.2714 -0.5563
  322SOL    HW1 1286   1.355   0.810   1.618 -1.2395  0.6822 -0.3300
  322SOL    HW2 1287   1.234   0.878   1.683  0.2938  1.9542  0.2482
  322SOL     MW 1288   1.309   0.880   1.636 -0.2673  0.5476 -0.4203
  323SOL     OW 1289   1.122   1.515   1.908  0.0594 -0.1462  0.0270
  323SOL    HW1 1290   1.197   1.484   1.860 -1.9269 -0.5262 -3.5366
  323SOL    HW2 1291   1.115   1.607   1.880 -1.9714 -0.7268  1.9562
  323SOL     MW 1292   1.131   1.523   1.898 -0.4706 -0.2729 -0.1886
  324SOL     OW 1293   1.423   0.833   2.476 -0.0896 -0.4084 -0.3800
  324SOL    HW1 1294   1.330   0.875   2.478 -0.2883 -1.4554 -1.7246
  324SOL    HW2 1295   1.467   0.895   2.531  1.1858 -2.0783  0.1191
  324SOL     MW 1296   1.417   0.847   2.484  0.0525 -0.7669 -0.4915
  325SOL     OW 1297   1.087   0.539   2.903  0.0017 -0.0180 -0.1279
  325SOL    HW1 1298   1.082   0.582   2.993 -4.2609  0.9594  0.7459
  325SOL    HW2 1299   0.998   0.518   2.875 -0.6665 -1.5335 -0.6714
  325SOL     MW 1300   1.075   0.542   2.911 -0.6489 -0.0890 -0.0843
  326SOL     OW 1301   0.390   1.353   2.344  0.2386  0.1094 -0.0194
  326SOL    HW1 1302   0.482   1.329   2.326 -1.6905 -2.3859 -0.6721
  326SOL    HW2 1303   0.380   1.443   2.368  1.5831  0.2495  0.5951
  326SOL     MW 1304   0.401   1.362   2.345  0.1615 -0.2013 -0.0245
  327SOL     OW 1305   1.955   0.736   2.422 -0.0312 -0.3468  0.0798
  327SOL    HW1 1306   1.925   0.709   2.510 -2.1666  0.2954  0.8564
  327SOL    HW2 1307   1.980   0.827   2.437  0.0775  1.1193 -1.3980
  327SOL     MW 1308   1.954   0.744   2.435 -0.2986 -0.0687 -0.0128
  328SOL     OW 1309   0.258   1.306   2.113 -0.5404 -0.2274  0.3621
  328SOL    HW1 1310   0.192   1.242   2.115  3.0940  0.1464  0.0463
  328SOL    HW2 1311   0.312   1.299   2.190  2.4442  0.0090 -1.9667
  328SOL     MW 1312   0.256   1.297   2.123  0.3329 -0.1469  0.0131
  329SOL     OW 1313   0.032   0.163   1.342  0.2413  0.3287 -0.0614
  329SOL    HW1 1314   0.003   0.139   1.438  0.9155  0.6458 -0.8971
  329SOL    HW2 1315   0.127   0.157   1.339  0.0999  2.2041  2.8032
  329SOL     MW 1316   0.041   0.159   1.354  0.3116  0.6180  0.2063
  330SOL     OW 1317   0.331   0.100   1.950 -0.0426 -0.0770 -0.4149
  330SOL    HW1 1318   0.422   0.131   1.939 -0.2233  0.2008 -1.1992
  330SOL    HW2 1319   0.346   0.033   2.017  3.1400  2.6871 -0.1461
  330SOL     MW 1320   0.345   0.095   1.957  0.3535  0.3244 -0.4829
  331SOL     OW 1321   0.821   1.199   2.440  0.6734 -0.4505  0.7147
  331SOL    HW1 1322   0.760   1.201   2.360 -1.6412  4.4963 -0.4976
  331SOL    HW2 1323   0.845   1.291   2.478 -1.2049 -0.2743 -3.6670
  331SOL     MW 1324   0.816   1.211   2.435  0.1202  0.2254 -0.0234
  332SOL     OW 1325   1.392   1.630   2.965  0.4405 -0.2113  0.5757
  332SOL    HW1 1326   1.370   1.650   2.874 -3.3225  2.1519  0.5293
  332SOL    HW2 1327   1.453   1.705   2.978  0.9605  0.5017 -1.0472
  332SOL     MW 1328   1.397   1.642   2.955  0.0126  0.1946  0.3555
  333SOL     OW 1329   1.709   1.415   2.907 -0.2392  1.0830  0.2998
  333SOL    HW1 1330   1.801   1.407   2.943  2.1524  0.8967 -2.0416
  333SOL    HW2 1331   1.669   1.331   2.939  0.1456  1.3580  0.5201
  333SOL     MW 1332   1.716   1.403   2.916  0.1271  1.0947  0.0200
  334SOL     OW 1333   1.295   3.048   2.608 -0.9913  0.3827 -0.2958
  334SOL    HW1 1334   1.227   3.069   2.675 -1.4057 -2.3896  5.0199
  334SOL    HW2 1335   1.365   3.105   2.644 -0.3170 -1.1675 -2.6116
  334SOL     MW 1336   1.295   3.058   2.622 -0.9570 -0.1876  0.1000
  335SOL     OW 1337   1.258   0.807   3.056  0.2163  0.1017  0.4864
  335SOL    HW1 1338   1.314   0.766   3.126 -3.0933  2.5256  1.1784
  335SOL    HW2 1339   1.316   0.802   2.972 -0.7900 -0.3336 -3.2222
  335SOL     MW 1340   1.273   0.801   3.054 -0.3532  0.3641  0.0884
  336SOL     OW 1341   0.880   1.119   1.676  0.6080 -0.0412 -0.9039
  336SOL    HW1 1342   0.807   1.132   1.734 -0.7610  1.2688 -0.1593
  336SOL    HW2 1343   0.934   1.047   1.721  1.8123 -2.2814 -0.9610
  336SOL     MW 1344   0.877   1.111   1.689  0.5862 -0.1639 -0.8132
  337SOL     OW 1345   0.524   1.923   2.862 -0.2428  0.0740 -0.3207
  337SOL    HW1 1346   0.468   1.875   2.801  0.6282 -1.3334 -0.2240
  337SOL    HW2 1347   0.609   1.880   2.852  0.4872 -1.3269  0.0531
  337SOL     MW 1348   0.528   1.911   2.852 -0.0316 -0.2965 -0.2586
  338SOL     OW 1349   1.137   0.795   2.454 -0.0734  0.4599 -0.1825
  338SOL    HW1 1350   1.049   0.752   2.441  2.5084  0.6245  0.8878
  338SOL    HW2 1351   1.170   0.758   2.541 -0.2831 -0.7039 -1.9404
  338SOL     MW 1352   1.129   0.784   2.464  0.2396  0.3281 -0.2732
  339SOL     OW 1353   1.307   1.253   1.973 -0.3257 -0.0257  0.3356
  339SOL    HW1 1354   1.303   1.235   1.879  2.1936  0.2570  0.9756
  339SOL    HW2 1355   1.294   1.172   2.017 -1.3230  0.6724 -0.6437
  339SOL     MW 1356   1.305   1.240   1.966 -0.1249  0.1037  0.2909
  340SOL     OW 1357   1.335   1.546   0.123 -0.4983  0.3134  0.3349
  340SOL    HW1 1358   1.367   1.562   0.027  1.2801 -2.2042 -0.1102
  340SOL    HW2 1359   1.382   1.468   0.153  0.6138  0.7207  2.8788
  340SOL     MW 1360   1.346   1.538   0.114 -0.1169  0.0349  0.6118
  341SOL     OW 1361   0.066   1.393   2.839 -0.3181 -0.2601 -0.0887
  341SOL    HW1 1362   0.160   1.399   2.877  2.4191  0.9322  1.0753
  341SOL    HW2 1363   0.067   1.443   2.757  1.4874  0.2651 -0.9222
  341SOL     MW 1364   0.079   1.400   2.833  0.2813 -0.0335 -0.0451
  342SOL     OW 1365   1.377   0.353   0.037  0.2549 -0.3442 -0.6348
  342SOL    HW1 1366   1.451   0.395   0.082  1.9683  0.5911  1.0105
  342SOL    HW2 1367   1.361   0.391  -0.048  0.3212  0.8849  0.5050
  342SOL     MW 1368   1.385   0.363   0.032  0.4897 -0.0586 -0.2673
  343SOL     OW 1369   0.250   0.295   2.102  0.3659  0.4367  0.7374
  343SOL    HW1 1370   0.285   0.218   2.057  1.2554 -0.9795  1.5299
  343SOL    HW2 1371   0.156   0.298   2.078 -1.3495  0.2194  3.2245
  343SOL     MW 1372   0.242   0.286   2.093  0.2569  0.2212  1.1701
  344SOL     OW 1373   1.662   2.090   0.180 -0.2928  0.4756  0.1917
  344SOL    HW1 1374   1.692   2.129   0.094 -1.9472  2.5163 -2.3251
  344SOL    HW2 1375   1.633   2.171   0.234  0.2115  4.4887  4.2732
  344SOL     MW 1376   1.662   2.106   0.175 -0.4446  1.2744  0.3981
  345SOL     OW 1377   0.604   1.583   2.269 -0.2529  0.3471 -0.4869
  345SOL    HW1 1378   0.539   1.614   2.210  0.5299 -1.8167 -0.6660
  345SOL    HW2 1379   0.682   1.569   2.218 -0.4820 -0.7028  2.2796
  345SOL     MW 1380   0.606   1.585   2.255 -0.1798 -0.0769 -0.1455
  346SOL     OW 1381   1.649   1.187   0.023 -0.1142 -0.1886 -0.3078
  346SOL    HW1 1382   1.730   1.208   0.065 -3.1271 -1.0108 -1.2422
  346SOL    HW2 1383   1.627   1.108   0.064  0.2930  0.7000  2.4315
  346SOL     MW 1384   1.657   1.180   0.034 -0.4580 -0.1798 -0.0697
  347SOL     OW 1385   1.239   0.741   2.203 -0.3533 -0.0290  0.1362
  347SOL    HW1 1386   1.270   0.656   2.236 -1.2985 -0.4358  1.4521
  347SOL    HW2 1387   1.196   0.782   2.276  1.0362  0.0333 -1.7630
  347SOL     MW 1388   1.238   0.735   2.217 -0.2947 -0.0744  0.0592
  348SOL     OW 1389   1.287   2.537   1.946  0.1512  0.1396  0.2436
  348SOL    HW1 1390   1.268   2.458   2.005  0.5660 -0.6216  2.0141
  348SOL    HW2 1391   1.335   2.600   1.992 -0.2602  1.8709  0.0935
  348SOL     MW 1392   1.291   2.535   1.960  0.1517  0.2676  0.4574
  349SOL     OW 1393   1.449   0.117   2.767  0.3708  0.1459  0.0543
  349SOL    HW1 1394   1.410   0.190   2.817 -0.0070 -1.0743 -4.4319
  349SOL    HW2 1395   1.484   0.057   2.835  1.6629 -0.4828  1.1143
  349SOL     MW 1396   1.448   0.119   2.783  0.4915 -0.0980 -0.3978
  350SOL     OW 1397   1.877   0.623   2.659 -0.2313  0.5207 -0.2568
  350SOL    HW1 1398   1.826   0.563   2.600 -1.2083 -2.2596 -1.6980
  350SOL    HW2 1399   1.943   0.564   2.709  0.5263 -1.7182 -0.7079
  350SOL     MW 1400   1.879   0.607   2.658 -0.2603 -0.1416 -0.5065
  351SOL     OW 1401   0.167   1.106   1.557  0.8397 -0.1484 -0.2395
  351SOL    HW1 1402   0.128   1.026   1.596  0.1343  0.4887  1.0219
  351SOL    HW2 1403   0.219   1.146   1.627 -0.0449 -2.3275  1.6231
  351SOL     MW 1404   0.169   1.101   1.571  0.6299 -0.3519  0.1727
  352SOL     OW 1405   0.768   1.788   2.814 -0.4049 -0.3208 -0.1007
  352SOL    HW1 1406   0.797   1.715   2.871 -0.2602 -2.7939 -2.7831
  352SOL    HW2 1407   0.754   1.749   2.730  1.0681  0.3502  0.0105
  352SOL     MW 1408   0.770   1.774   2.811 -0.1915 -0.5586 -0.4399
  353SOL     OW 1409   3.091   2.530   2.678  0.2147 -0.9287 -0.2645
  353SOL    HW1 1410   3.182   2.507   2.667 -0.0508 -0.2525 -0.3784
  353SOL    HW2 1411   3.069   2.594   2.607 -0.6086 -1.0832 -1.8974
  353SOL     MW 1412   3.100   2.535   2.667  0.0710 -0.8598 -0.4950
  354SOL     OW 1413   0.348   2.444   0.817 -0.2548  0.6636  0.0891
  354SOL    HW1 1414   0.371   2.402   0.904  1.2387 -2.6786  0.4106
  354SOL    HW2 1415   0.291   2.375   0.784  1.5819  0.7213 -1.6835
  354SOL     MW 1416   0.344   2.430   0.824  0.1846  0.2302 -0.1024
  355SOL     OW 1417   0.104   2.281   0.357 -0.4283  0.5665  0.1195
  355SOL    HW1 1418   0.046   2.210   0.367 -0.7701  1.4057 -3.1269
  355SOL    HW2 1419   0.086   2.324   0.440 -1.8645  3.5524  1.6906
  355SOL     MW 1420   0.094   2.277   0.369 -0.6629  1.0712 -0.1015
  356SOL     OW 1421   0.767   2.948   1.009  0.2498  0.0530  0.2182
  356SOL    HW1 1422   0.825   2.940   0.930  0.2532 -4.3502  0.9520
  356SOL    HW2 1423   0.697   2.889   0.999  0.6904  2.2780  0.6127
  356SOL     MW 1424   0.765   2.939   0.997  0.3084 -0.2343  0.3670
  357SOL     OW 1425   1.887   2.815   0.441  0.2645 -0.1284  0.3047
  357SOL    HW1 1426   1.852   2.786   0.524 -0.9603 -0.2997  0.3364
  357SOL    HW2 1427   1.958   2.754   0.419  1.1405  0.1837  0.7604
  357SOL     MW 1428   1.892   2.803   0.449  0.2185 -0.1099  0.3690
  358SOL     OW 1429   0.369   0.125   1.011 -0.1502  0.0450  0.2300
  358SOL    HW1 1430   0.466   0.137   0.990  0.9350  0.7460 -0.7104
  358SOL    HW2 1431   0.327   0.159   0.930  1.4092 -0.1735 -2.3601
  358SOL     MW 1432   0.377   0.131   0.998  0.1987  0.1087 -0.2358
  359SOL     OW 1433   0.888   2.946   1.915 -0.5916  0.2504 -0.0095
  359SOL    HW1 1434   0.863   2.868   1.970 -2.5064 -0.7821  0.6300
  359SOL    HW2 1435   0.888   2.919   1.821  0.0646  1.9396  2.6514
  359SOL     MW 1436   0.885   2.932   1.910 -0.7577  0.3371  0.4259
  360SOL     OW 1437   0.565   2.770   0.887  0.2408  0.5624 -0.2556
  360SOL    HW1 1438   0.612   2.725   0.817 -2.3424 -1.5609  1.1022
  360SOL    HW2 1439   0.569   2.701   0.953  1.5526 -0.4811  0.8682
  360SOL     MW 1440   0.571   2.755   0.887  0.0731  0.1446  0.0718
  361SOL     OW 1441   0.094   2.716   1.332 -0.3997 -0.2589 -0.4036
  361SOL    HW1 1442   0.045   2.776   1.395 -2.6326  1.1542  0.1417
  361SOL    HW2 1443   0.181   2.757   1.321  2.2212  0.9162  1.6332
  361SOL     MW 1444   0.099   2.730   1.339 -0.3485  0.0826 -0.0629
  362SOL     OW 1445   1.414   2.424   0.574 -0.1399  0.2336 -0.0315
  362SOL    HW1 1446   1.443   2.364   0.644  0.2871  1.4563  2.4916
  362SOL    HW2 1447   1.478   2.500   0.576  1.7614 -0.1100  0.1926
  362SOL     MW 1448   1.426   2.426   0.583  0.1673  0.3496  0.3310
  363SOL     OW 1449   0.342   3.086   0.659  0.0025 -0.1980 -0.0074
  363SOL    HW1 1450   0.337   3.015   0.719 -1.5887 -0.5838  1.4724
  363SOL    HW2 1451   0.269   3.085   0.601 -1.8977 -2.0244  2.7368
  363SOL     MW 1452   0.332   3.077   0.660 -0.4582 -0.4899  0.5499
  364SOL     OW 1453   0.789   0.262   0.137  0.1005  0.5022 -0.6527
  364SOL    HW1 1454   0.737   0.179   0.147 -0.1922 -1.7358  0.5946
  364SOL    HW2 1455   0.736   0.321   0.083  1.6552 -2.7327 -1.3174
  364SOL     MW 1456   0.775   0.259   0.131  0.2670 -0.2199 -0.5758
  365SOL     OW 1457   0.908   2.014   1.285  0.4812  0.2533 -0.3993
  365SOL    HW1 1458   0.917   2.102   1.235  1.4639  0.9006  0.8269
  365SOL    HW2 1459   0.851   1.956   1.229  1.4350  1.4867  2.8741
  365SOL     MW 1460   0.902   2.018   1.271  0.7367  0.5014  0.1944
  366SOL     OW 1461   2.867   2.635   0.955 -0.2625 -0.0674 -0.7706
  366SOL    HW1 1462   2.960   2.625   0.992 -1.6539  0.3988  1.2485
  366SOL    HW2 1463   2.889   2.661   0.866 -2.6927 -2.3422 -2.4241
  366SOL     MW 1464   2.882   2.637   0.948 -0.7667 -0.3060 -0.7223
  367SOL     OW 1465   1.308   3.069   0.993 -0.0020  0.4869 -0.2255
  367SOL    HW1 1466   1.379   3.108   1.038 -0.4138 -1.5877 -1.3113
  367SOL    HW2 1467   1.327   3.051   0.904 -0.0460 -2.0283  3.9551
  367SOL     MW 1468   1.320   3.072   0.988 -0.0621 -0.1187  0.1829
  368SOL     OW 1469   1.763   0.390   0.582  0.4293  0.6412 -0.1734
  368SOL    HW1 1470   1.816   0.346   0.521 -0.3412 -0.2277  0.5249
  368SOL    HW2 1471   1.759   0.479   0.549 -0.4323  3.6093 -1.7583
  368SOL     MW 1472   1.770   0.396   0.570  0.2140  0.9182 -0.2904
  369SOL     OW 1473   0.192   2.461   1.768 -0.1852  0.6269 -0.4323
  369SOL    HW1 1474   0.287   2.455   1.749 -1.2982  2.4515  0.8306
  369SOL    HW2 1475   0.176   2.551   1.741  0.3726 -0.0500  0.5198
  369SOL     MW 1476   0.202   2.472   1.762 -0.2584  0.7784 -0.1400
  370SOL     OW 1477   0.660   0.118   1.043 -0.0905 -0.4195 -0.2181
  370SOL    HW1 1478   0.732   0.181   1.029 -1.2919 -0.9930 -2.4845
  370SOL    HW2 1479   0.696   0.028   1.032 -1.9430 -2.5250  1.1224
  370SOL     MW 1480   0.674   0.114   1.039 -0.4935 -0.7729 -0.3403
  371SOL     OW 1481   1.105   2.897   1.478 -0.3255 -0.0598 -0.1016
  371SOL    HW1 1482   1.150   2.816   1.456  0.5922  1.4649  0.2336
  371SOL    HW2 1483   1.157   2.962   1.430  1.2131 -0.3945 -1.1189
  371SOL     MW 1484   1.118   2.895   1.469 -0.0014  0.0972 -0.1916
  372SOL     OW 1485   0.833   2.298   0.476  0.0470 -0.2803 -0.5487
  372SOL    HW1 1486   0.803   2.216   0.520  1.3768 -0.2004 -0.9252
  372SOL    HW2 1487   0.859   2.266   0.388  0.0047 -0.9889 -0.2491
  372SOL     MW 1488   0.832   2.283   0.470  0.2169 -0.3632 -0.5588
  373SOL     OW 1489   2.807   2.963   1.407  0.4743 -0.0323 -0.0901
  373SOL    HW1 1490   2.868   2.938   1.333 -0.6372  3.0228 -0.4713
  373SOL    HW2 1491   2.768   3.042   1.375  0.1453 -0.2088  2.6232
  373SOL     MW 1492   2.810   2.970   1.393  0.2842  0.3475  0.2176
  374SOL     OW 1493   1.554   0.444   0.203  0.3724  0.0003 -0.2253
  374SOL    HW1 1494   1.647   0.431   0.188 -0.0939  0.5884  2.0107
  374SOL    HW2 1495   1.543   0.414   0.288 -2.6449  0.7030  0.3908
  374SOL     MW 1496   1.565   0.438   0.212 -0.0872  0.1706  0.1510
  375SOL     OW 1497   1.096   1.996   2.189  0.0210 -0.4767  0.4952
  375SOL    HW1 1498   1.107   2.021   2.281 -1.6076 -1.0957 -1.5101
  375SOL    HW2 1499   1.000   1.975   2.184  1.7113 -0.4951 -0.6449
  375SOL     MW 1500   1.085   1.997   2.200  0.0292 -0.5608  0.0802
  376SOL     OW 1501   0.806   2.534   0.102  0.2425  0.3997  0.0950
  376SOL    HW1 1502   0.756   2.472   0.166 -0.5983 -3.7969  2.3456
  376SOL    HW2 1503   0.814   2.496   0.018 -0.2346 -0.7815 -0.3625
  376SOL     MW 1504   0.800   2.521   0.099  0.0686 -0.3098  0.3316
  377SOL     OW 1505   1.315   2.078   0.969  0.1060 -0.2917 -0.0356
  377SOL    HW1 1506   1.247   2.068   0.906 -0.1706 -1.2219 -0.7479
  377SOL    HW2 1507   1.270   2.034   1.050 -1.1190 -4.0698 -2.9419
  377SOL     MW 1508   1.300   2.071   0.972 -0.0921 -0.9129 -0.5131
  378SOL     OW 1509   0.861   2.871   1.650  0.1843  0.0935  0.9560
  378SOL    HW1 1510   0.871   2.778   1.663 -1.8098  0.9636 -2.3719
  378SOL    HW2 1511   0.944   2.888   1.596  2.4260  1.9732  1.8113
  378SOL     MW 1512   0.873   2.861   1.644  0.2169  0.4563  0.6297
  379SOL     OW 1513   1.036   1.531   2.343 -0.2761 -0.6153  0.1116
  379SOL    HW1 1514   0.956   1.547   2.290  0.4040  0.8041  0.0393
  379SOL    HW2 1515   1.111   1.504   2.297 -0.7784  2.9695  0.1844
  379SOL     MW 1516   1.035   1.530   2.330 -0.2526  0.0450  0.1117
  380SOL     OW 1517   0.917   0.192   1.505 -0.4015  0.4819 -0.7574
  380SOL    HW1 1518   0.908   0.115   1.446  0.9078 -1.2335  0.2581
  380SOL    HW2 1519   0.957   0.176   1.588  0.1684  1.6767 -0.5481
  380SOL     MW 1520   0.921   0.180   1.508 -0.1536  0.4132 -0.5958
  381SOL     OW 1521   0.824   2.037   0.902 -0.1095 -0.5836  0.5508
  381SOL    HW1 1522   0.916   2.057   0.900 -1.5018  0.0609 -1.3591
  381SOL    HW2 1523   0.796   2.088   0.976 -1.6527  0.3202  0.7029
  381SOL     MW 1524   0.832   2.047   0.911 -0.4968 -0.3793  0.3189
  382SOL     OW 1525   0.836   0.105   0.640  0.1072  0.8754  0.2633
  382SOL    HW1 1526   0.834   0.142   0.729 -1.2263 -1.8768  0.3564
  382SOL    HW2 1527   0.828   0.005   0.648  0.8385 -2.0114  0.2813
  382SOL     MW 1528   0.835   0.097   0.653  0.0277  0.1314  0.2780
  383SOL     OW 1529   0.666   0.032   0.225 -0.2380  0.2110 -0.6440
  383SOL    HW1 1530   0.680  -0.049   0.172 -0.3939 -0.8397 -1.1401
  383SOL    HW2 1531   0.610  -0.007   0.289  1.0390  0.5240 -4.3988
  383SOL     MW 1532   0.661   0.017   0.226 -0.0901  0.1137 -1.2048
  384SOL     OW 1533   0.816   2.930   0.666  0.7797 -0.0432  0.5268
  384SOL    HW1 1534   0.892   2.932   0.727 -1.5278 -0.7274  0.7542
  384SOL    HW2 1535   0.768   2.849   0.688  0.4241 -0.9130  0.4487
  384SOL     MW 1536   0.820   2.920   0.677  0.4283 -0.2482  0.5465
  385SOL     OW 1537   1.368   2.034   1.580  0.0826 -0.6497 -0.2386
  385SOL    HW1 1538   1.457   2.058   1.610  3.2295 -0.9284  0.3823
  385SOL    HW2 1539   1.334   1.970   1.644  1.8339 -1.9869  1.2893
  385SOL     MW 1540   1.375   2.029   1.592  0.7289 -0.8629  0.0449
  386SOL     OW 1541   1.501   0.407   0.896  0.3284 -0.0518  0.2261
  386SOL    HW1 1542   1.471   0.451   0.976  0.9338 -1.8803 -0.0823
  386SOL    HW2 1543   1.593   0.382   0.916 -0.7313  1.4153  1.6127
  386SOL     MW 1544   1.509   0.409   0.909  0.2685 -0.0995  0.3684
  387SOL     OW 1545   0.817   2.277   1.562  0.0539 -0.5559  0.4530
  387SOL    HW1 1546   0.900   2.275   1.499  2.3066 -0.9612 -0.4477
  387SOL    HW2 1547   0.815   2.185   1.588 -0.5434  2.4216 -0.8978
  387SOL     MW 1548   0.828   2.265   1.557  0.2723 -0.2165  0.1559
  388SOL     OW 1549   1.503   2.785   1.529 -0.0121  0.0755 -0.1887
  388SOL    HW1 1550   1.437   2.817   1.464 -0.7019  0.6816 -0.1425
  388SOL    HW2 1551   1.577   2.747   1.481 -0.9379 -0.5443 -2.5533
  388SOL     MW 1552   1.504   2.784   1.514 -0.2253  0.0737 -0.4946
  389SOL     OW 1553   0.405   0.120   3.063 -0.4667  0.5356  0.6665
  389SOL    HW1 1554   0.465   0.052   3.029  1.2712 -1.8020  0.3539
  389SOL    HW2 1555   0.415   0.182   2.988 -3.0698  0.1625 -0.7463
  389SOL     MW 1556   0.414   0.119   3.049 -0.5809  0.1779  0.4389
  390SOL     OW 1557   1.352   3.083   0.694  0.1483  0.3392  0.1048
  390SOL    HW1 1558   1.351   3.038   0.606  1.1813 -0.9024  2.4083
  390SOL    HW2 1559   1.437   3.114   0.696  0.6703  1.6832 -1.6997
  390SOL     MW 1560   1.363   3.081   0.682  0.3535  0.3527  0.1706
  391SOL     OW 1561   0.323   2.211   1.495  0.1388  1.3081 -0.5191
  391SOL    HW1 1562   0.348   2.212   1.587  2.3712 -1.9263 -0.8992
  391SOL    HW2 1563   0.274   2.296   1.476  1.1471  0.1316 -1.8857
  391SOL     MW 1564   0.320   2.222   1.505  0.5664  0.7261 -0.7495
  392SOL     OW 1565   1.940   2.105   0.284 -0.6682  0.3857 -0.2796
  392SOL    HW1 1566   1.977   2.195   0.312  1.0252 -0.1087 -0.4823
  392SOL    HW2 1567   1.845   2.109   0.279  1.0661  0.7809 -3.2793
  392SOL     MW 1568   1.933   2.118   0.287 -0.2159  0.3726 -0.7021
  393SOL     OW 1569   0.246   2.972   2.786 -0.1114  0.4153 -0.2825
  393SOL    HW1 1570   0.329   2.960   2.748 -0.6696  1.9330  0.0143
  393SOL    HW2 1571   0.253   3.051   2.840 -1.8054  1.0956 -2.5492
  393SOL     MW 1572   0.258   2.981   2.788 -0.4086  0.7053 -0.5424
  394SOL     OW 1573   0.969   1.758   1.633  0.2825 -0.1854  0.0566
  394SOL    HW1 1574   1.025   1.787   1.707  2.7869  0.4897  1.3577
  394SOL    HW2 1575   0.917   1.834   1.604 -1.2105 -0.2639 -1.3659
  394SOL     MW 1576   0.969   1.772   1.639  0.4160 -0.1067  0.0406
  395SOL     OW 1577   0.941   2.941   2.703 -0.2226 -0.2209 -0.0683
  395SOL    HW1 1578   1.004   3.017   2.708 -3.2653 -1.2855 -0.3064
  395SOL    HW2 1579   0.996   2.868   2.673  0.4437 -1.4010 -1.0810
  395SOL     MW 1580   0.957   2.941   2.699 -0.5361 -0.5171 -0.2333
  396SOL     OW 1581   0.731   1.886   2.439 -0.1149 -0.6447  0.8417
  396SOL    HW1 1582   0.819   1.888   2.481 -0.4830 -1.5429  3.0731
  396SOL    HW2 1583   0.693   1.800   2.459 -4.9307  0.4971 -1.6714
  396SOL     MW 1584   0.737   1.875   2.447 -0.7989 -0.6126  0.8046
  397SOL     OW 1585   1.055   2.321   1.421  0.0085  0.4769  0.4933
  397SOL    HW1 1586   1.094   2.331   1.335  0.5842 -3.0154  0.3947
  397SOL    HW2 1587   1.115   2.305   1.492 -1.2478  0.1241 -2.9205
  397SOL     MW 1588   1.068   2.320   1.419 -0.0813 -0.0304  0.0299
  398SOL     OW 1589   0.723   2.679   0.697 -0.0255 -0.9503  0.2772
  398SOL    HW1 1590   0.673   2.678   0.618  3.2647  0.5297  0.8718
  398SOL    HW2 1591   0.779   2.599   0.691 -2.6389 -1.3594  4.2088
  398SOL     MW 1592   0.724   2.669   0.686  0.0638 -0.8090  0.8744
  399SOL     OW 1593   0.324   2.109   0.361  0.7326  0.2567 -0.3269
  399SOL    HW1 1594   0.253   2.170   0.362 -0.2130 -0.3175 -0.0112
  399SOL    HW2 1595   0.385   2.139   0.298 -0.3702 -0.9824 -2.9903
  399SOL     MW 1596   0.322   2.121   0.353  0.4624  0.0175 -0.6367
  400SOL     OW 1597   0.617   1.956   0.151  0.7764  0.0833 -0.4090
  400SOL    HW1 1598   0.578   2.044   0.149  0.2390 -1.3555  1.2619
  400SOL    HW2 1599   0.573   1.890   0.205 -0.7080  1.0656  1.5135
  400SOL     MW 1600   0.606   1.959   0.158  0.5097  0.0231  0.0651
  401SOL     OW 1601   0.855   2.038   0.033  0.3907  0.5331  0.2437
  401SOL    HW1 1602   0.898   1.955   0.007  2.7609 -1.2484  0.3258
  401SOL    HW2 1603   0.774   2.009   0.081 -0.4532  1.0262  4.9058
  401SOL     MW 1604   0.850   2.023   0.036  0.5921  0.3631  0.8697
  402SOL     OW 1605   0.580   3.040   1.861  0.1667 -0.0435 -0.2233
  402SOL    HW1 1606   0.648   3.014   1.925  0.6163  2.8469  1.9752
  402SOL    HW2 1607   0.620   3.050   1.773 -4.0777 -4.7758 -0.3109
  402SOL     MW 1608   0.595   3.038   1.857 -0.3340 -0.2865  0.0552
  403SOL     OW 1609   0.142   0.510   0.448  0.0749  0.1640  0.1346
  403SOL    HW1 1610   0.222   0.557   0.467 -2.3934 -2.2571 -1.9890
  403SOL    HW2 1611   0.155   0.480   0.359  1.9619  0.5945 -0.9828
  403SOL     MW 1612   0.154   0.512   0.439 -0.0018 -0.0987 -0.2930
  404SOL     OW 1613   1.016   2.991   0.838  0.6422  0.1854  0.0859
  404SOL    HW1 1614   1.094   2.938   0.817  0.8034 -1.3363  3.0945
  404SOL    HW2 1615   1.047   3.085   0.817 -1.6885  2.4958  0.9366
  404SOL     MW 1616   1.031   2.996   0.833  0.3560  0.2895  0.5951
  405SOL     OW 1617   0.492   2.501   1.480 -0.4276 -0.3603 -0.5293
  405SOL    HW1 1618   0.481   2.565   1.413 -0.3491 -0.6689 -1.9682
  405SOL    HW2 1619   0.550   2.446   1.433 -0.2406  1.6461  0.7256
  405SOL     MW 1620   0.499   2.502   1.465 -0.3926 -0.1363 -0.5536
  406SOL     OW 1621   0.424   2.328   1.050  0.0411  0.3749  0.1078
  406SOL    HW1 1622   0.335   2.348   1.091 -1.5296 -0.2001 -2.2387
  406SOL    HW2 1623   0.452   2.252   1.098  2.9304  1.3152 -0.1268
  406SOL     MW 1624   0.416   2.320   1.062  0.2151  0.4231 -0.2327
  407SOL     OW 1625   0.017   2.622   1.057  0.2372  0.3900  0.1032
  407SOL    HW1 1626   0.061   2.650   1.137  1.9940  1.0867  0.9762
  407SOL    HW2 1627   0.084   2.638   0.987  0.5220 -1.0194 -0.3114
  407SOL     MW 1628   0.032   2.628   1.058  0.5066  0.2959  0.1637
  408SOL     OW 1629   2.102   2.210   0.726 -0.2890  0.1224  0.4240
  408SOL    HW1 1630   2.031   2.225   0.792 -0.0513 -3.1887  0.4254
  408SOL    HW2 1631   2.051   2.168   0.656  0.0402 -0.5477 -1.5756
  408SOL     MW 1632   2.086   2.207   0.726 -0.2142 -0.4029  0.1604
  409SOL     OW 1633   1.629   0.076   0.822 -0.1229  0.5776  0.1925
  409SOL    HW1 1634   1.676   0.162   0.829  2.9532 -1.4486  1.3448
  409SOL    HW2 1635   1.613   0.048   0.917 -1.7258  0.6074  0.2096
  409SOL     MW 1636   1.633   0.084   0.835  0.0715  0.3142  0.3468
  410SOL     OW 1637   1.102   2.468   1.184  0.0622  0.5079 -0.0486
  410SOL    HW1 1638   1.031   2.462   1.122 -1.3558  1.7706 -1.2744
  410SOL    HW2 1639   1.165   2.411   1.140 -1.4298  1.4216  1.8478
  410SOL     MW 1640   1.101   2.459   1.170 -0.3217  0.7950  0.0399
  411SOL     OW 1641   1.989   2.947   2.942  0.0749 -0.2136 -0.2528
  411SOL    HW1 1642   2.025   2.934   2.856 -2.5446 -1.3679  1.4046
  411SOL    HW2 1643   1.957   3.040   2.940 -0.0512 -0.2073  0.8494
  411SOL     MW 1644   1.989   2.958   2.930 -0.2873 -0.3651  0.1113
  412SOL     OW 1645   1.099   2.238   0.646  0.0101 -0.8450 -0.3440
  412SOL    HW1 1646   1.155   2.312   0.668 -1.3839 -0.0442 -0.2998
  412SOL    HW2 1647   1.008   2.271   0.631  1.0890 -3.4483 -0.2706
  412SOL     MW 1648   1.094   2.252   0.647 -0.0314 -1.0828 -0.3285
  413SOL     OW 1649   0.568   2.668   0.073 -0.4659 -0.5174 -0.2150
  413SOL    HW1 1650   0.653   2.633   0.103 -3.2775  1.8234  2.2699
  413SOL    HW2 1651   0.581   2.637  -0.017 -0.2980  2.1460 -2.0557
  413SOL     MW 1652   0.581   2.660   0.065 -0.8147  0.1428 -0.1300
  414SOL     OW 1653   2.080   3.033   1.091  0.1049  0.8287  0.2682
  414SOL    HW1 1654   2.159   3.080   1.090  1.1178 -2.2404 -0.7549
  414SOL    HW2 1655   2.042   3.045   1.004  1.3344 -1.1351 -0.2143
  414SOL     MW 1656   2.085   3.040   1.079  0.4008  0.1647  0.0696
  415SOL     OW 1657   1.653   2.841   1.205 -0.1863  0.2874  0.7065
  415SOL    HW1 1658   1.728   2.870   1.262 -1.0668 -0.6190  0.7293
  415SOL    HW2 1659   1.704   2.776   1.146  1.4791 -0.9500  0.5947
  415SOL     MW 1660   1.670   2.836   1.205 -0.0827  0.0045  0.6947
  416SOL     OW 1661   0.679   1.751   1.461 -0.4849  0.4208  0.9544
  416SOL    HW1 1662   0.592   1.769   1.423  3.0854 -0.1564  1.2951
  416SOL    HW2 1663   0.686   1.659   1.430 -2.2397 -1.9862  1.7106
  416SOL     MW 1664   0.669   1.741   1.452 -0.2454  0.0271  1.0991
  417SOL     OW 1665   0.938   0.075   2.100 -0.0434 -0.5663  0.5729
  417SOL    HW1 1666   0.871   0.062   2.168 -2.8231  0.7757  0.7683
  417SOL    HW2 1667   0.921   0.031   2.014 -0.0343  0.1866 -3.1973
  417SOL     MW 1668   0.927   0.068   2.098 -0.4089 -0.2899  0.1012
  418SOL     OW 1669   0.756   2.873   0.160  0.2215  0.2469 -0.5890
  418SOL    HW1 1670   0.828   2.827   0.117  0.5882  3.4871 -0.5369
  418SOL    HW2 1671   0.676   2.836   0.135  1.4388  3.5568 -2.4178
  418SOL     MW 1672   0.755   2.862   0.151  0.4305  1.1111 -0.8234
  419SOL     OW 1673   0.618   2.708   1.302 -0.4797  0.0165 -0.6235
  419SOL    HW1 1674   0.633   2.797   1.334  1.0499  1.2153 -2.3054
  419SOL    HW2 1675   0.693   2.665   1.332  0.1373  5.1283 -1.4470
  419SOL     MW 1676   0.630   2.714   1.310 -0.1964  0.8491 -0.9541
  420SOL     OW 1677   0.824   2.230   1.147 -0.0605  0.2494 -0.2295
  420SOL    HW1 1678   0.775   2.274   1.214 -1.5352 -0.0109 -3.0341
  420SOL    HW2 1679   0.861   2.297   1.092  1.0790  0.2844  0.3281
  420SOL     MW 1680   0.822   2.245   1.149 -0.1047  0.2197 -0.5260
  421SOL     OW 1681   2.916   0.128   0.046 -0.1239  0.0960 -0.5410
  421SOL    HW1 1682   2.825   0.105   0.026  2.3712 -0.9919 -1.1013
  421SOL    HW2 1683   2.954   0.054   0.014 -0.3650  0.2310  2.2040
  421SOL     MW 1684   2.909   0.115   0.039  0.1735 -0.0297 -0.2527
  422SOL     OW 1685   0.875   2.453   0.976 -0.0111 -0.0930  0.3352
  422SOL    HW1 1686   0.789   2.486   0.994 -1.5627 -0.5044  2.1154
  422SOL    HW2 1687   0.886   2.465   0.885 -2.6007 -0.5115 -0.0428
  422SOL     MW 1688   0.865   2.459   0.967 -0.5575 -0.2025  0.5202
  423SOL     OW 1689   1.574   0.066   0.463 -0.1818 -0.2254 -0.2853
  423SOL    HW1 1690   1.576   0.028   0.375 -1.6086  2.8179 -2.2621
  423SOL    HW2 1691   1.559   0.154   0.441 -0.2866 -0.5482  0.3951
  423SOL     MW 1692   1.572   0.072   0.449 -0.3839  0.1335 -0.4563
  424SOL     OW 1693   0.649   2.321   1.358 -0.5497  0.1849 -0.5703
  424SOL    HW1 1694   0.609   2.238   1.332  0.1997  0.3080  0.8901
  424SOL    HW2 1695   0.720   2.301   1.427 -0.1494 -0.7144  1.4862
  424SOL     MW 1696   0.653   2.307   1.364 -0.3980  0.0825 -0.1062
  425SOL     OW 1697   1.760   2.802   2.035  0.5404 -0.0972  0.0276
  425SOL    HW1 1698   1.750   2.796   1.939 -1.7261 -0.4537  0.7759
  425SOL    HW2 1699   1.800   2.720   2.068  0.1945 -1.6769  1.6746
  425SOL     MW 1700   1.764   2.790   2.027  0.1957 -0.3527  0.3437
  426SOL     OW 1701   0.805   1.758   1.954  0.0124  0.0373  0.6474
  426SOL    HW1 1702   0.755   1.754   1.865 -0.5680 -3.1855  2.1323
  426SOL    HW2 1703   0.758   1.802   2.025 -1.2935 -1.5593  3.4616
  426SOL     MW 1704   0.792   1.763   1.952 -0.2365 -0.5986  1.2146
  427SOL     OW 1705   0.389   1.767   1.889 -0.3577  0.1604  0.2410
  427SOL    HW1 1706   0.454   1.748   1.828  1.2853 -2.9505 -0.6074
  427SOL    HW2 1707   0.356   1.680   1.917 -0.8348 -0.2618  0.6935
  427SOL     MW 1708   0.393   1.753   1.884 -0.2038 -0.3057  0.1887
  428SOL     OW 1709   0.620   2.538   1.040 -0.8287 -0.1199 -0.0698
  428SOL    HW1 1710   0.560   2.464   1.033  1.6177 -2.3678 -0.2408
  428SOL    HW2 1711   0.649   2.536   1.134  1.5995  1.4195 -0.9892
  428SOL     MW 1712   0.616   2.528   1.051 -0.1855 -0.2134 -0.2137
  429SOL     OW 1713   1.255   2.816   1.072 -0.5518  0.0074  0.1094
  429SOL    HW1 1714   1.164   2.816   1.098 -0.1784 -1.1139  1.4890
  429SOL    HW2 1715   1.273   2.911   1.039  0.2069 -1.0813 -0.6896
  429SOL     MW 1716   1.245   2.829   1.071 -0.4024 -0.2842  0.1860
  430SOL     OW 1717   1.203   2.798   0.779  0.3597 -0.2277 -0.0477
  430SOL    HW1 1718   1.202   2.760   0.871 -2.4859 -2.8347 -0.5083
  430SOL    HW2 1719   1.144   2.740   0.725 -3.2091 -2.0332  1.0797
  430SOL     MW 1720   1.195   2.786   0.784 -0.4866 -0.8099  0.0402
  431SOL     OW 1721   0.365   1.873   1.105  0.3985 -0.1520 -0.3629
  431SOL    HW1 1722   0.442   1.815   1.118  1.2452  1.3642  0.6676
  431SOL    HW2 1723   0.346   1.898   1.017 -0.8390 -0.6039 -1.8854
  431SOL     MW 1724   0.372   1.869   1.095  0.3469 -0.0115 -0.4278
  432SOL     OW 1725   0.024   3.089   1.117 -0.3313 -0.5367 -0.5105
  432SOL    HW1 1726  -0.008   3.163   1.181  0.2943  1.0149  3.5045
  432SOL    HW2 1727  -0.042   3.022   1.111  3.5006  0.2369  2.9240
  432SOL     MW 1728   0.011   3.090   1.125  0.2568 -0.2299  0.4724
  433SOL     OW 1729   0.626   2.941   1.486 -0.3452  0.2894 -0.0757
  433SOL    HW1 1730   0.633   3.036   1.488 -0.2288  1.7072 -0.0260
  433SOL    HW2 1731   0.702   2.921   1.538 -2.4640  0.8420 -2.0314
  433SOL     MW 1732   0.637   2.951   1.493 -0.6094  0.5493 -0.3272
  434SOL     OW 1733   1.496   2.811   1.807  0.3771 -0.0316 -0.0466
  434SOL    HW1 1734   1.431   2.844   1.867  2.8279 -1.0770  0.9768
  434SOL    HW2 1735   1.477   2.843   1.722 -1.7809  2.2850  2.1411
  434SOL     MW 1736   1.485   2.819   1.804  0.4157  0.1362  0.3771
  435SOL     OW 1737   2.729   1.808   0.303  0.5774  0.4504  0.4933
  435SOL    HW1 1738   2.794   1.869   0.261  1.1641  4.6936  1.2837
  435SOL    HW2 1739   2.656   1.799   0.247 -0.2065 -1.1015  1.0960
  435SOL     MW 1740   2.728   1.815   0.290  0.5514  0.8055  0.6771
  436SOL     OW 1741   1.393   2.781   0.343  1.0479 -0.3650 -0.1303
  436SOL    HW1 1742   1.460   2.749   0.407 -2.5347  0.6074 -2.9796
  436SOL    HW2 1743   1.378   2.868   0.377  0.6249  0.4393 -0.4608
  436SOL     MW 1744   1.400   2.788   0.356  0.5194 -0.1306 -0.5498
  437SOL     OW 1745   0.877   3.096   1.309 -0.0254 -0.3630  0.2088
  437SOL    HW1 1746   0.936   3.127   1.236 -0.1264 -0.3460 -0.7241
  437SOL    HW2 1747   0.876   3.006   1.292 -1.0672  0.4948 -2.7377
  437SOL     MW 1748   0.885   3.088   1.297 -0.1762 -0.2476 -0.3031
  438SOL     OW 1749   0.833   2.689   2.039 -0.1922 -0.1476  0.5328
  438SOL    HW1 1750   0.864   2.602   2.074  0.3180  0.2856 -1.6197
  438SOL    HW2 1751   0.782   2.666   1.960 -3.4965  1.2245 -1.1289
  438SOL     MW 1752   0.830   2.674   2.033 -0.5609  0.0906  0.0295
  439SOL     OW 1753   1.189   2.082   0.402  0.8158  0.1297 -0.2887
  439SOL    HW1 1754   1.155   2.112   0.484  1.1402 -1.3259  0.6915
  439SOL    HW2 1755   1.191   2.161   0.350 -0.8488 -0.8314  2.1571
  439SOL     MW 1756   1.185   2.096   0.406  0.6390 -0.1892  0.1634
  440SOL     OW 1757   1.828   2.749   3.054  0.5328  0.1958  0.2416
  440SOL    HW1 1758   1.798   2.781   3.141  0.5340 -1.4642 -1.5959
  440SOL    HW2 1759   1.876   2.819   3.020  0.1011  1.1241  2.1016
  440SOL     MW 1760   1.831   2.762   3.061  0.4760  0.0993  0.2446
  441SOL     OW 1761   0.499   2.709   0.468 -0.2090  0.3887  0.2533
  441SOL    HW1 1762   0.445   2.682   0.390  2.8152 -1.2664  0.4275
  441SOL    HW2 1763   0.522   2.807   0.454 -0.0527  2.1086 -0.9829
  441SOL     MW 1764   0.495   2.718   0.456  0.2106  0.3972  0.1131
  442SOL     OW 1765   0.012   2.414   0.616 -0.3663 -0.8378 -0.3004
  442SOL    HW1 1766   0.027   2.499   0.586  0.5735 -0.5351  2.6028
  442SOL    HW2 1767  -0.079   2.401   0.642 -0.7648 -1.0056 -1.7501
  442SOL     MW 1768   0.002   2.423   0.616 -0.2948 -0.8200 -0.1086
  443SOL     OW 1769   1.473   1.761   1.937  0.0708 -0.5475  0.2400
  443SOL    HW1 1770   1.419   1.772   1.860 -0.5900 -0.6184  0.8912
  443SOL    HW2 1771   1.488   1.666   1.962 -2.3977  0.9557  1.2085
  443SOL     MW 1772   1.468   1.750   1.930 -0.3421 -0.3585  0.4537
  444SOL     OW 1773   0.872   2.584   1.634 -0.3809 -0.1708  0.0711
  444SOL    HW1 1774   0.953   2.544   1.665  0.2074  0.4130  0.3733
  444SOL    HW2 1775   0.803   2.553   1.695  0.7077  1.3910  1.6851
  444SOL     MW 1776   0.874   2.575   1.646 -0.1597  0.1123  0.3239
  445SOL     OW 1777   1.191   0.091   1.432  0.7161  0.0916  0.4212
  445SOL    HW1 1778   1.109   0.135   1.449  0.6790 -1.1540  0.1197
  445SOL    HW2 1779   1.237   0.145   1.368  3.2484 -0.1894  1.2309
  445SOL     MW 1780   1.186   0.104   1.426  1.0453 -0.1098  0.4882
  446SOL     OW 1781   2.678   2.804   1.050 -0.0698  0.0818 -0.5892
  446SOL    HW1 1782   2.643   2.867   0.983 -0.4435  2.0065 -1.8554
  446SOL    HW2 1783   2.741   2.745   1.009  0.0151 -3.0366  0.2904
  446SOL     MW 1784   2.682   2.805   1.036 -0.1079 -0.0757 -0.6402
  447SOL     OW 1785   0.061   1.962   1.584 -0.1100  0.0355  0.4444
  447SOL    HW1 1786   0.089   1.876   1.626 -0.1737 -1.3652 -0.9668
  447SOL    HW2 1787  -0.025   1.937   1.544 -3.5664 -1.8260 -0.9236
  447SOL     MW 1788   0.053   1.947   1.585 -0.5744 -0.3949  0.0777
  448SOL     OW 1789   1.724   2.375   1.680  1.0149 -0.0463  0.2083
  448SOL    HW1 1790   1.692   2.285   1.684 -0.9322  1.1266  1.5039
  448SOL    HW2 1791   1.636   2.421   1.680  2.5798  1.8414  0.5389
  448SOL     MW 1792   1.708   2.369   1.681  0.9645  0.3575  0.4229
  449SOL     OW 1793   0.928   2.909   0.377 -0.1840 -0.0387  0.3041
  449SOL    HW1 1794   0.869   2.877   0.306  0.1784  0.0662 -0.7647
  449SOL    HW2 1795   0.867   2.929   0.449 -0.0824  2.9420 -2.4830
  449SOL     MW 1796   0.912   2.907   0.377 -0.1228  0.3684 -0.2047
  450SOL     OW 1797   1.209   2.472   0.744  0.7617  0.7733 -0.0515
  450SOL    HW1 1798   1.247   2.455   0.830  0.3623 -2.2472  1.7618
  450SOL    HW2 1799   1.284   2.475   0.675  0.6634 -1.8173  1.2444
  450SOL     MW 1800   1.224   2.470   0.746  0.6960  0.0330  0.3588
  451SOL     OW 1801   0.562   2.025   1.671  1.0403  0.2761 -0.4148
  451SOL    HW1 1802   0.646   2.019   1.631  1.0981 -1.4947 -0.8539
  451SOL    HW2 1803   0.509   1.975   1.606 -0.6338  0.9481 -0.3752
  451SOL     MW 1804   0.566   2.018   1.657  0.8270  0.1312 -0.4675
  452SOL     OW 1805   0.308   2.638   0.005  0.3117 -0.1518 -0.1162
  452SOL    HW1 1806   0.401   2.658   0.020  1.0928  1.5529  0.9931
  452SOL    HW2 1807   0.285   2.717  -0.036  3.8870 -2.4948  1.1034
  452SOL     MW 1808   0.317   2.651   0.001  0.8865 -0.2360  0.1911
  453SOL     OW 1809   0.196   3.002   1.594  0.2441  0.4954  0.6624
  453SOL    HW1 1810   0.234   2.945   1.660 -1.5219 -3.5699 -2.7360
  453SOL    HW2 1811   0.234   2.965   1.513  0.1812  0.9871 -0.1903
  453SOL     MW 1812   0.206   2.990   1.592  0.0028  0.0239  0.1015
  454SOL     OW 1813   0.954   2.828   1.165  0.3976  0.4773 -0.0955
  454SOL    HW1 1814   0.928   2.737   1.191 -0.7249  3.1573  0.1088
  454SOL    HW2 1815   0.884   2.864   1.105  0.9045  0.8304 -1.4392
  454SOL     MW 1816   0.941   2.821   1.161  0.3164  0.8775 -0.2458
  455SOL     OW 1817   1.748   2.814   0.205 -0.4681  0.2983  0.3301
  455SOL    HW1 1818   1.808   2.820   0.278 -1.5971  0.6453 -2.6052
  455SOL    HW2 1819   1.703   2.731   0.223  0.4827  1.6140  1.0922
  455SOL     MW 1820   1.750   2.804   0.217 -0.4916  0.5177  0.0434
  456SOL     OW 1821   2.796   0.227   1.446  0.3067  0.0971 -0.2058
  456SOL    HW1 1822   2.752   0.161   1.392  1.6201 -1.4950 -2.2722
  456SOL    HW2 1823   2.798   0.307   1.393 -1.2210  0.3496  1.7638
  456SOL     MW 1824   2.791   0.229   1.432  0.2784 -0.0796 -0.2186
  457SOL     OW 1825   0.817   1.615   3.043 -0.2379 -0.5336  0.0367
  457SOL    HW1 1826   0.720   1.587   3.035 -1.4089 -0.6016 -0.5262
  457SOL    HW2 1827   0.828   1.640   3.134 -0.6498 -0.9023 -0.5935
  457SOL     MW 1828   0.806   1.615   3.054 -0.4467 -0.5912 -0.1208
  458SOL     OW 1829   1.334   1.516   0.688  0.3698 -0.0065  0.1720
  458SOL    HW1 1830   1.259   1.553   0.726 -0.5784  1.5755 -0.6156
  458SOL    HW2 1831   1.310   1.439   0.624  0.4384  0.6093 -4.0111
  458SOL     MW 1832   1.321   1.510   0.684  0.2537  0.2835 -0.4838
  459SOL     OW 1833   1.604   3.048   0.214 -0.0388 -0.2510 -0.6123
  459SOL    HW1 1834   1.629   2.959   0.203 -0.2941  0.6121  2.3421
  459SOL    HW2 1835   1.539   3.066   0.141  1.5728 -0.1839 -1.1040
  459SOL     MW 1836   1.599   3.039   0.203  0.1401 -0.1282 -0.2874
  460SOL     OW 1837   1.758   2.240   0.653 -0.5106  0.4562  0.1145
  460SOL    HW1 1838   1.669   2.230   0.674  1.2561 -1.7980 -3.2214
  460SOL    HW2 1839   1.789   2.151   0.649 -2.2149  3.0035 -0.1840
  460SOL     MW 1840   1.751   2.227   0.655 -0.5023  0.4948 -0.3650
  461SOL     OW 1841   0.468   2.415   0.559  0.4927 -0.3963  0.3693
  461SOL    HW1 1842   0.498   2.499   0.539  1.1886 -1.5906  0.3077
  461SOL    HW2 1843   0.444   2.424   0.651  2.4017 -1.8313  2.7560
  461SOL     MW 1844   0.469   2.427   0.569  0.8364 -0.7432  0.6761
  462SOL     OW 1845   0.338   0.244   1.277  0.3890  0.1324 -0.3438
  462SOL    HW1 1846   0.365   0.196   1.198 -0.4635  0.1553  1.5463
  462SOL    HW2 1847   0.406   0.221   1.336 -0.7180 -0.3664  0.5365
  462SOL     MW 1848   0.351   0.235   1.274  0.1304  0.0696  0.0217
  463SOL     OW 1849   1.115   0.115   0.729  0.1101  0.2750  0.0813
  463SOL    HW1 1850   1.195   0.078   0.693 -0.6448 -2.3488  1.2613
  463SOL    HW2 1851   1.052   0.111   0.656 -3.2850 -1.0345 -0.3155
  463SOL     MW 1852   1.117   0.110   0.715 -0.4374 -0.2440  0.1847
  464SOL     OW 1853   0.723   3.054   2.319  0.1149  0.8292  0.1654
  464SOL    HW1 1854   0.730   2.954   2.337 -3.9065  0.6563  2.9677
  464SOL    HW2 1855   0.710   3.092   2.402  1.7736 -0.9594  0.3070
  464SOL     MW 1856   0.723   3.046   2.332 -0.1968  0.5704  0.5538
  465SOL     OW 1857   0.867   0.329   0.416 -0.3103 -0.0682  0.8621
  465SOL    HW1 1858   0.824   0.251   0.459 -0.3906 -1.3325 -1.3455
  465SOL    HW2 1859   0.839   0.309   0.326  2.4202 -1.4171  1.7271
  465SOL     MW 1860   0.857   0.316   0.410  0.0394 -0.4130  0.6849
  466SOL     OW 1861   1.102   2.028   0.809 -0.7090 -0.7679 -0.2750
  466SOL    HW1 1862   1.095   1.973   0.723 -1.0401 -0.9453 -2.6377
  466SOL    HW2 1863   1.099   2.122   0.768  0.6643  2.4619  2.3332
  466SOL     MW 1864   1.100   2.033   0.793 -0.5715 -0.3652 -0.2426
  467SOL     OW 1865   1.299   2.328   1.062  0.1285  0.0181  0.5025
  467SOL    HW1 1866   1.387   2.372   1.070 -0.1328 -2.6537  2.5449
  467SOL    HW2 1867   1.314   2.239   1.022  1.9378  0.4066  0.0407
  467SOL     MW 1868   1.313   2.322   1.058  0.3328 -0.2832  0.7110
  468SOL     OW 1869   0.403   2.645   1.967 -0.4442 -0.7802 -0.1452
  468SOL    HW1 1870   0.426   2.594   1.896 -0.5990 -1.4808  0.3113
  468SOL    HW2 1871   0.375   2.730   1.919 -2.0292  3.0744 -2.8877
  468SOL     MW 1872   0.402   2.650   1.951 -0.6738 -0.3641 -0.4468
  469SOL     OW 1873   0.341   2.180   1.779  0.0420  0.2219  0.0524
  469SOL    HW1 1874   0.279   2.124   1.818  1.4476  0.8353 -0.4095
  469SOL    HW2 1875   0.418   2.119   1.767 -0.9759 -0.7791 -1.3719
  469SOL     MW 1876   0.343   2.165   1.782  0.0932  0.1708 -0.1965
  470SOL     OW 1877   3.050   2.604   0.118  0.5448  0.1205 -0.3506
  470SOL    HW1 1878   2.959   2.618   0.161 -0.8884 -1.0329  3.2804
  470SOL    HW2 1879   3.032   2.618   0.026  0.0389  1.3768 -0.1591
  470SOL     MW 1880   3.036   2.608   0.111  0.2890  0.1341  0.1537
  471SOL     OW 1881   1.244   2.680   1.380  0.2779 -0.0303  0.4769
  471SOL    HW1 1882   1.188   2.624   1.324 -2.4720  0.9093  3.1389
  471SOL    HW2 1883   1.319   2.696   1.321 -0.3330  3.7575  0.6606
  471SOL     MW 1884   1.246   2.675   1.365 -0.1655  0.5934  0.8523
  472SOL     OW 1885   2.978   2.122   0.378 -0.1898 -0.3066  0.6769
  472SOL    HW1 1886   2.949   2.063   0.309  0.1394 -2.5046  0.3864
  472SOL    HW2 1887   2.916   2.083   0.449 -0.7654  0.7767  0.3722
  472SOL     MW 1888   2.966   2.109   0.378 -0.2223 -0.4537  0.5984
  473SOL     OW 1889   0.884   2.586   1.359  0.2316  0.4428  0.2091
  473SOL    HW1 1890   0.955   2.520   1.362  0.8069  0.9845  1.8629
  473SOL    HW2 1891   0.875   2.618   1.452  0.6692 -0.4296 -1.4061
  473SOL     MW 1892   0.892   2.581   1.372  0.3652  0.3992  0.2142
  474SOL     OW 1893   0.798   2.253   1.856  0.3064  0.0839  0.5833
  474SOL    HW1 1894   0.895   2.266   1.870 -0.6947 -0.1002  1.7648
  474SOL    HW2 1895   0.782   2.260   1.758  1.0098 -2.5271 -2.9107
  474SOL     MW 1896   0.808   2.256   1.845  0.2671 -0.2849  0.2782
  475SOL     OW 1897   1.588   3.090   1.552  0.5352  0.3697  0.2739
  475SOL    HW1 1898   1.508   3.054   1.503 -0.9436 -1.7968 -0.8114
  475SOL    HW2 1899   1.648   3.019   1.574  0.4960 -0.9201 -0.9920
  475SOL     MW 1900   1.586   3.076   1.548  0.3349 -0.0863 -0.0363
  476SOL     OW 1901   1.451   2.678   1.204  1.0945  0.5920 -0.4053
  476SOL    HW1 1902   1.390   2.722   1.143  3.6323 -3.7036 -2.6121
  476SOL    HW2 1903   1.522   2.740   1.213 -0.7359  0.1392 -0.3953
  476SOL     MW 1904   1.452   2.692   1.197  1.1879 -0.0345 -0.6951
  477SOL     OW 1905   0.870   2.457   0.667  0.6190 -0.1040  0.8704
  477SOL    HW1 1906   0.950   2.505   0.640 -0.4770 -0.5114  0.3433
  477SOL    HW2 1907   0.853   2.400   0.592  1.0632  0.2324  0.7920
  477SOL     MW 1908   0.878   2.456   0.654  0.5330 -0.1134  0.7905
  478SOL     OW 1909   0.165   2.682   0.838 -0.7159  0.1325 -0.1553
  478SOL    HW1 1910   0.226   2.756   0.850  1.4405  0.6300 -0.1925
  478SOL    HW2 1911   0.220   2.606   0.822 -0.5280  1.8739 -0.2500
  478SOL     MW 1912   0.180   2.681   0.837 -0.4066  0.4279 -0.1727
  479SOL     OW 1913   1.401   1.982   1.301 -0.1143 -0.1571  0.1168
  479SOL    HW1 1914   1.377   1.989   1.395 -1.2604 -0.0422 -0.9164
  479SOL    HW2 1915   1.455   1.903   1.301 -1.6560  1.9129  0.6709
  479SOL     MW 1916   1.405   1.972   1.314 -0.4689  0.1311  0.0536
  480SOL     OW 1917   1.896   2.457   1.346 -0.1386  0.2402 -0.3357
  480SOL    HW1 1918   1.956   2.393   1.379  2.9548  0.3253  2.3688
  480SOL    HW2 1919   1.923   2.468   1.255 -0.1318 -2.5878  0.2535
  480SOL     MW 1920   1.908   2.450   1.338  0.2705 -0.1217  0.0989
  481SOL     OW 1921   1.070   0.066   1.103 -0.7085  0.0475 -0.0633
  481SOL    HW1 1922   1.053   0.002   1.031 -0.8672 -0.8274 -0.8624
  481SOL    HW2 1923   1.160   0.085   1.087  0.2393 -1.0986 -0.7934
  481SOL     MW 1924   1.079   0.060   1.091 -0.6044 -0.2192 -0.2650
  482SOL     OW 1925   1.110   3.084   0.256  1.0527 -0.7620  0.2444
  482SOL    HW1 1926   1.059   3.017   0.298 -1.5899  1.4364  1.3725
  482SOL    HW2 1927   1.080   3.165   0.303  0.2005 -1.3408  1.1798
  482SOL     MW 1928   1.100   3.086   0.267  0.5916 -0.5483  0.5166
  483SOL     OW 1929   0.512   3.016   0.408  0.1337 -0.4640 -0.4644
  483SOL    HW1 1930   0.436   2.999   0.355 -0.1390  1.2565 -0.4958
  483SOL    HW2 1931   0.485   3.017   0.500  1.7071  0.7923 -0.7921
  483SOL     MW 1932   0.499   3.014   0.413  0.3053 -0.0713 -0.5118
  484SOL     OW 1933   1.892   2.034   1.454 -0.0839  0.0929  0.2988
  484SOL    HW1 1934   1.922   2.126   1.462  2.4161 -1.0318  1.6127
  484SOL    HW2 1935   1.874   2.020   1.549 -0.9980 -1.5275  2.3854
  484SOL     MW 1936   1.893   2.045   1.468  0.1254 -0.2693  0.7475
  485SOL     OW 1937   0.621   2.416   0.247 -0.7621  0.0033 -0.0351
  485SOL    HW1 1938   0.634   2.384   0.334  1.5985 -1.3839 -3.5681
  485SOL    HW2 1939   0.549   2.483   0.252  0.5132  1.3455  1.6753
  485SOL     MW 1940   0.613   2.421   0.259 -0.2824 -0.0027 -0.2756
  486SOL     OW 1941   0.142   2.409   1.463 -0.3522  0.3823 -0.5088
  486SOL    HW1 1942   0.136   2.506   1.473 -2.4995  1.7148 -0.6505
  486SOL    HW2 1943   0.121   2.378   1.554  3.1569 -0.9750  0.9241
  486SOL     MW 1944   0.138   2.418   1.476 -0.1726  0.3791 -0.3384
  487SOL     OW 1945   1.129   1.735   1.059 -0.5018  0.6316  0.0046
  487SOL    HW1 1946   1.135   1.817   1.094 -0.5964 -1.9627 -0.6713
  487SOL    HW2 1947   1.221   1.712   1.039 -0.0449 -2.3479 -0.0288
  487SOL     MW 1948   1.142   1.743   1.061 -0.4540 -0.1038 -0.0890
  488SOL     OW 1949   1.636   1.885   0.483 -0.1176  0.2659 -0.1200
  488SOL    HW1 1950   1.680   1.851   0.397  0.2473  0.0676 -0.3307
  488SOL    HW2 1951   1.579   1.963   0.459 -1.6176 -0.7766  0.8526
  488SOL     MW 1952   1.634   1.891   0.469 -0.2674  0.1022 -0.0195
  489SOL     OW 1953   0.777   0.805   0.596  0.1084 -0.7630 -0.1685
  489SOL    HW1 1954   0.790   0.719   0.558 -1.7969  1.8593  0.8327
  489SOL    HW2 1955   0.795   0.798   0.694 -1.4918 -1.8124 -2.1916
  489SOL     MW 1956   0.781   0.793   0.604 -0.3541 -0.5555 -0.3033
  490SOL     OW 1957   1.466   2.086   0.454  0.5798 -0.1120  0.0612
  490SOL    HW1 1958   1.490   2.167   0.412 -1.1272 -1.1605  1.8982
  490SOL    HW2 1959   1.367   2.085   0.445 -0.9943 -0.7729 -1.6499
  490SOL     MW 1960   1.456   2.096   0.447  0.1469 -0.3375  0.0778
  491SOL     OW 1961   1.320   3.021   0.441 -0.3228 -0.1676 -0.4836
  491SOL    HW1 1962   1.414   3.058   0.428  1.7188  0.2245 -1.4016
  491SOL    HW2 1963   1.262   3.078   0.387 -1.3756  0.5377  1.3276
  491SOL     MW 1964   1.325   3.033   0.432 -0.1924 -0.0228 -0.3658
  492SOL     OW 1965   1.484   2.185   0.705  0.3850 -0.0318 -0.3092
  492SOL    HW1 1966   1.465   2.129   0.621 -0.6782 -0.4305 -1.7521
  492SOL    HW2 1967   1.460   2.125   0.773 -1.4763 -1.8450 -2.3470
  492SOL     MW 1968   1.479   2.170   0.703 -0.0009 -0.3236 -0.7685
  493SOL     OW 1969   0.289   2.970   0.264 -0.3827  0.0922  0.2311
  493SOL    HW1 1970   0.218   2.988   0.327  0.5922 -0.2698 -0.6738
  493SOL    HW2 1971   0.261   3.039   0.202  3.0677 -0.3039 -0.1082
  493SOL     MW 1972   0.276   2.981   0.265  0.2012 -0.0078  0.0670
  494SOL     OW 1973   0.445   2.453   1.742  0.2614  0.2242  0.3122
  494SOL    HW1 1974   0.449   2.355   1.738 -1.6472  0.3868 -1.2038
  494SOL    HW2 1975   0.472   2.493   1.648  0.7129  1.5423 -1.8816
  494SOL     MW 1976   0.449   2.445   1.729  0.0692  0.4196 -0.1773
  495SOL     OW 1977   2.819   1.750   2.571  0.2399 -0.2369  0.1054
  495SOL    HW1 1978   2.834   1.849   2.568  1.9503  1.3854  2.2379
  495SOL    HW2 1979   2.803   1.738   2.664  0.9898  1.6645 -3.5136
  495SOL     MW 1980   2.819   1.762   2.583  0.5645  0.2280 -0.0907
  496SOL     OW 1981   2.882   2.357   2.636  0.3675  0.3411 -0.2898
  496SOL    HW1 1982   2.923   2.286   2.677 -1.5795  1.3462  0.7692
  496SOL    HW2 1983   2.953   2.424   2.639 -1.2510  1.0503  2.6820
  496SOL     MW 1984   2.897   2.356   2.642 -0.1029  0.5673  0.2420
  497SOL     OW 1985   1.550   2.235   2.682 -0.1809  0.4455  0.0954
  497SOL    HW1 1986   1.511   2.205   2.601  3.1332 -0.4660  0.5513
  497SOL    HW2 1987   1.591   2.158   2.718 -1.0818  1.8049 -1.1702
  497SOL     MW 1988   1.550   2.221   2.676  0.1375  0.5046 -0.0114
  498SOL     OW 1989   1.454   2.659   2.366 -0.1594 -0.2951  0.5480
  498SOL    HW1 1990   1.438   2.564   2.348  1.0418  0.9690  1.2444
  498SOL    HW2 1991   1.544   2.661   2.393 -1.5999  2.0307  1.7023
  498SOL     MW 1992   1.464   2.647   2.367 -0.1910  0.1786  0.7922
  499SOL     OW 1993   0.986   0.166   3.065 -0.3650  0.8295 -0.4765
  499SOL    HW1 1994   0.929   0.188   3.138 -0.7726 -0.3882  1.0079
  499SOL    HW2 1995   1.013   0.078   3.081  2.1993 -0.4208  1.9851
  499SOL     MW 1996   0.982   0.158   3.077 -0.0805  0.5039  0.0441
  500SOL     OW 1997   1.007   2.529   2.776  0.1434 -0.1248  0.2549
  500SOL    HW1 1998   1.073   2.524   2.848  1.4400  1.3770 -0.4427
  500SOL    HW2 1999   0.920   2.519   2.821 -1.4587 -0.1409 -1.2059
  500SOL     MW 2000   1.004   2.527   2.791  0.1031  0.0712 -0.0298
  501SOL     OW 2001   1.753   2.182   3.053 -0.0914  0.1998 -0.5435
  501SOL    HW1 2002   1.719   2.269   3.023 -0.3990  0.1836 -1.8961
  501SOL    HW2 2003   1.842   2.199   3.067  0.2859 -0.2704  0.2330
  501SOL     MW 2004   1.760   2.196   3.051 -0.0822  0.1356 -0.6195
  502SOL     OW 2005   0.111   2.795   2.942 -0.1123 -0.2421  0.0450
  502SOL    HW1 2006   0.036   2.746   2.909 -1.9839  1.4865 -0.3761
  502SOL    HW2 2007   0.149   2.842   2.863 -3.6567 -2.4550 -1.1861
  502SOL     MW 2008   0.106   2.795   2.928 -0.8269 -0.3060 -0.1730
  503SOL     OW 2009   1.092   2.939   2.177  0.2845  0.1269  0.3538
  503SOL    HW1 2010   1.036   2.889   2.116  4.7425 -0.9100 -1.0820
  503SOL    HW2 2011   1.044   3.017   2.186  0.7158 -1.2544 -1.1332
  503SOL     MW 2012   1.078   2.943   2.170  0.9296 -0.1922 -0.0319
  504SOL     OW 2013   0.123   2.709   2.101 -0.5496  0.0611 -0.6519
  504SOL    HW1 2014   0.181   2.637   2.087  3.6607  1.4792  1.0036
  504SOL    HW2 2015   0.042   2.682   2.069 -1.6240  0.1089  0.6470
  504SOL     MW 2016   0.120   2.696   2.095 -0.1358  0.2545 -0.2621
  505SOL     OW 2017   1.718   2.678   2.713  0.1270 -0.3259 -0.0351
  505SOL    HW1 2018   1.713   2.688   2.620 -3.1666  0.7707  1.8112
  505SOL    HW2 2019   1.633   2.710   2.747  1.3066 -4.6924  3.5337
  505SOL     MW 2020   1.706   2.684   2.705 -0.1519 -0.7573  0.6794
  506SOL     OW 2021   1.684   3.021   2.863  0.6375  0.3425 -0.5577
  506SOL    HW1 2022   1.739   2.949   2.895  0.2061 -0.1570  0.2455
  506SOL    HW2 2023   1.721   3.040   2.776  1.2347  0.1852 -0.1343
  506SOL     MW 2024   1.696   3.014   2.856  0.6593  0.2559 -0.3959
  507SOL     OW 2025   0.788   2.872   2.922 -0.3534  0.4976 -0.1802
  507SOL    HW1 2026   0.835   2.910   2.844 -0.7238  0.5973 -2.6132
  507SOL    HW2 2027   0.712   2.921   2.941  1.4059 -0.9478 -2.2060
  507SOL     MW 2028   0.784   2.883   2.915 -0.1702  0.3200 -0.7685
  508SOL     OW 2029   1.119   2.072   2.436  0.3975 -0.2535  0.3014
  508SOL    HW1 2030   1.186   2.076   2.508  1.4201 -0.4318 -1.3266
  508SOL    HW2 2031   1.053   2.139   2.452  2.2950 -0.7270 -4.8699
  508SOL     MW 2032   1.119   2.082   2.448  0.7828 -0.3395 -0.5957
  509SOL     OW 2033   0.568   2.575   2.901 -0.0176  0.1564  0.1024
  509SOL    HW1 2034   0.619   2.601   2.823  0.8273  1.7948  0.8779
  509SOL    HW2 2035   0.488   2.552   2.858 -0.5641  0.7004  2.7933
  509SOL     MW 2036   0.564   2.575   2.885  0.0218  0.4444  0.5598
  510SOL     OW 2037   1.483   2.504   1.732  0.1621  0.0384  0.6642
  510SOL    HW1 2038   1.501   2.598   1.745 -0.2486  0.3643 -0.4868
  510SOL    HW2 2039   1.433   2.484   1.809 -1.0589  1.1647 -1.3845
  510SOL     MW 2040   1.479   2.514   1.744 -0.0532  0.2300  0.2421
  511SOL     OW 2041   0.423   2.627   2.491  0.3390  0.5221 -0.0334
  511SOL    HW1 2042   0.509   2.596   2.514 -0.7433 -0.7451 -0.0663
  511SOL    HW2 2043   0.424   2.641   2.389 -2.3497 -0.3019 -0.4640
  511SOL     MW 2044   0.434   2.625   2.481 -0.1586  0.2462 -0.0946
  512SOL     OW 2045   1.003   1.918   2.809  0.4725 -0.2794  0.2810
  512SOL    HW1 2046   0.912   1.885   2.818 -0.1764  1.7092  2.5529
  512SOL    HW2 2047   1.061   1.850   2.848  2.4240 -0.4306 -2.3877
  512SOL     MW 2048   0.998   1.904   2.816  0.6444 -0.0370  0.2287
  513SOL     OW 2049   1.488   2.394   2.366  0.7888 -0.3091  0.0404
  513SOL    HW1 2050   1.549   2.422   2.435  0.9493  1.2958  1.2228
  513SOL    HW2 2051   1.521   2.305   2.352 -0.5034 -1.9760 -1.1753
  513SOL     MW 2052   1.501   2.386   2.373  0.6395 -0.3173  0.0360
  514SOL     OW 2053   0.239   2.408   2.630 -0.0074  0.4023  0.7215
  514SOL    HW1 2054   0.284   2.475   2.579  2.7643 -0.6692  1.0771
  514SOL    HW2 2055   0.248   2.437   2.718  2.4945  0.2199 -0.6982
  514SOL     MW 2056   0.246   2.421   2.635  0.6884  0.2368  0.5811
  515SOL     OW 2057   1.198   2.050   1.923  0.3529 -0.1634  0.3139
  515SOL    HW1 2058   1.163   2.139   1.899 -1.9844  0.4056 -2.1552
  515SOL    HW2 2059   1.170   2.040   2.019 -1.7297 -0.3584  0.8094
  515SOL     MW 2060   1.189   2.060   1.933 -0.2303 -0.1141  0.0535
  516SOL     OW 2061   1.431   2.475   3.041 -0.1029 -0.0309  0.1016
  516SOL    HW1 2062   1.499   2.475   2.970  0.0669 -0.3127  1.6151
  516SOL    HW2 2063   1.347   2.498   2.997  2.1778  0.7702  0.0643
  516SOL     MW 2064   1.429   2.478   3.026  0.2204  0.0376  0.2964
  517SOL     OW 2065   0.591   2.412   2.080 -0.6130 -0.2262 -0.1101
  517SOL    HW1 2066   0.587   2.502   2.054  0.9734  2.2554 -1.1329
  517SOL    HW2 2067   0.505   2.370   2.049 -0.2150 -1.4618  2.5405
  517SOL     MW 2068   0.579   2.418   2.073 -0.3512 -0.0618  0.1047
  518SOL     OW 2069   1.910   0.095   3.014  0.4579  0.5936  0.2029
  518SOL    HW1 2070   1.841   0.146   2.966  3.7494  1.2332  0.1968
  518SOL    HW2 2071   1.874   0.084   3.106 -1.7967  0.6165 -0.5436
  518SOL     MW 2072   1.896   0.100   3.020  0.5947  0.6810  0.1036
  519SOL     OW 2073   0.703   2.520   1.846 -0.3508 -0.7448  0.3582
  519SOL    HW1 2074   0.746   2.428   1.862 -1.7021  2.4130  2.8409
  519SOL    HW2 2075   0.622   2.503   1.792  1.5900  1.6714  2.2199
  519SOL     MW 2076   0.698   2.506   1.841 -0.2731 -0.0093  0.9314
  520SOL     OW 2077   1.163   2.155   2.902 -0.1321 -0.3938  0.2290
  520SOL    HW1 2078   1.098   2.093   2.874  0.7808 -0.0359  0.1312
  520SOL    HW2 2079   1.219   2.120   2.970 -2.6834  1.4286 -0.8142
  520SOL     MW 2080   1.162   2.142   2.907 -0.3483 -0.1061  0.0785
  521SOL     OW 2081   1.788   1.963   2.240  0.1920 -0.9221  0.0282
  521SOL    HW1 2082   1.813   1.988   2.153  0.4875  1.0394  1.5910
  521SOL    HW2 2083   1.774   1.869   2.237 -2.5703  1.3657 -1.3545
  521SOL     MW 2084   1.790   1.954   2.228 -0.1335 -0.3614  0.0520
  522SOL     OW 2085   2.873   2.603   2.229 -0.3264  0.1480 -0.3783
  522SOL    HW1 2086   2.957   2.548   2.234 -0.4586  1.6617 -1.7869
  522SOL    HW2 2087   2.828   2.621   2.313  0.1823  0.5303 -0.2722
  522SOL     MW 2088   2.878   2.598   2.240 -0.2767  0.3981 -0.5502
  523SOL     OW 2089   0.827   1.518   2.096 -0.0637  0.4568  0.2015
  523SOL    HW1 2090   0.813   1.588   2.029 -1.6870 -2.0000 -0.9948
  523SOL    HW2 2091   0.897   1.465   2.059 -2.6950 -0.9844  0.3105
  523SOL     MW 2092   0.834   1.520   2.082 -0.6250 -0.0575  0.0580
  524SOL     OW 2093   0.810   2.421   2.944 -0.4502 -0.3072 -0.5456
  524SOL    HW1 2094   0.716   2.434   2.925 -2.9641  1.4021  2.0230
  524SOL    HW2 2095   0.838   2.330   2.947  1.0377  2.2542  1.2174
  524SOL     MW 2096   0.801   2.411   2.942 -0.5856  0.2562  0.0259
  525SOL     OW 2097   0.340   2.282   2.028  0.3014  0.8926  0.1871
  525SOL    HW1 2098   0.333   2.252   2.117 -2.2444  3.9139 -0.4148
  525SOL    HW2 2099   0.304   2.219   1.962  0.2691 -1.4932 -0.4670
  525SOL     MW 2100   0.334   2.270   2.031 -0.0387  0.9764  0.0214
  526SOL     OW 2101   0.658   2.126   2.066 -0.1157  0.1842 -0.8551
  526SOL    HW1 2102   0.719   2.140   1.991  1.1346 -0.0273  0.7990
  526SOL    HW2 2103   0.620   2.211   2.069  2.1513  0.9701 -2.3789
  526SOL     MW 2104   0.661   2.139   2.056  0.3484  0.2600 -0.8379
  527SOL     OW 2105   1.392   1.957   2.154 -0.3276 -0.7474 -0.3193
  527SOL    HW1 2106   1.312   1.925   2.198 -0.6577 -1.7116  2.2972
  527SOL    HW2 2107   1.420   1.888   2.097 -0.2208  0.1182  1.0272
  527SOL     MW 2108   1.385   1.943   2.153 -0.3570 -0.7604  0.2036
  528SOL     OW 2109   0.586   3.075   2.923  0.2784 -0.3580 -0.3036
  528SOL    HW1 2110   0.665   3.126   2.896  0.7102 -1.3299 -0.6782
  528SOL    HW2 2111   0.560   3.022   2.848 -2.7562  3.0003 -0.9491
  528SOL     MW 2112   0.593   3.075   2.909 -0.0650 -0.0432 -0.4382
  529SOL     OW 2113   1.049   2.298   1.938  0.5248 -0.1772 -0.1141
  529SOL    HW1 2114   1.059   2.323   2.032 -1.8732 -2.1683 -0.4490
  529SOL    HW2 2115   1.081   2.374   1.884 -2.1298  0.3792  0.0666
  529SOL     MW 2116   1.055   2.311   1.943 -0.1418 -0.3665 -0.1345
  530SOL     OW 2117   1.171   2.441   2.982  0.1474  0.1720 -0.4514
  530SOL    HW1 2118   1.125   2.453   3.069 -1.7001 -0.7909  0.5701
  530SOL    HW2 2119   1.164   2.346   2.964  0.4755 -0.3874 -1.3425
  530SOL     MW 2120   1.164   2.430   2.991 -0.0531 -0.0288 -0.4342
  531SOL     OW 2121   0.965   1.882   2.540  0.8131  0.0168 -0.3747
  531SOL    HW1 2122   1.030   1.938   2.501  0.7935  0.0789  2.1351
  531SOL    HW2 2123   0.978   1.908   2.635  3.4729  0.5702  2.7898
  531SOL     MW 2124   0.976   1.892   2.547  1.1614  0.0980  0.3740
  532SOL     OW 2125   1.802   0.244   2.820  0.0234  0.7635  0.3512
  532SOL    HW1 2126   1.761   0.226   2.740  1.6569  1.8847  2.4933
  532SOL    HW2 2127   1.894   0.242   2.794  0.3594  2.3771 -1.7285
  532SOL     MW 2128   1.809   0.241   2.806  0.2833  1.1243  0.3594
  533SOL     OW 2129   1.963   2.526   3.089 -0.3739  0.1323 -0.4480
  533SOL    HW1 2130   1.911   2.462   3.137  0.4999 -0.0801 -0.8752
  533SOL    HW2 2131   1.914   2.608   3.096 -1.2580  0.6794 -1.1495
  533SOL     MW 2132   1.950   2.528   3.096 -0.3752  0.1765 -0.5969
  534SOL     OW 2133   1.709   2.409   2.553  0.3507  0.5315  0.3992
  534SOL    HW1 2134   1.664   2.344   2.606  0.5473  0.4657  0.8572
  534SOL    HW2 2135   1.787   2.412   2.605  0.8925  2.3783 -0.5403
  534SOL     MW 2136   1.713   2.401   2.567  0.4481  0.7665  0.3357
  535SOL     OW 2137   1.873   2.320   1.904 -0.3520 -0.2757  0.7365
  535SOL    HW1 2138   1.829   2.353   1.819  3.7919 -1.7007  0.2004
  535SOL    HW2 2139   1.967   2.340   1.900 -2.4477 -0.3396  0.0415
  535SOL     MW 2140   1.879   2.327   1.892 -0.0818 -0.4722  0.5741
  536SOL     OW 2141   0.478   1.893   2.117 -0.1966  0.1804  0.3533
  536SOL    HW1 2142   0.466   1.849   2.033 -0.0101 -1.5886 -0.9693
  536SOL    HW2 2143   0.533   1.969   2.105 -0.6464  1.1058 -0.1910
  536SOL     MW 2144   0.484   1.897   2.105 -0.2313  0.0691  0.1070
  537SOL     OW 2145   1.042   0.299   2.761  0.1163 -0.1524 -0.4356
  537SOL    HW1 2146   1.076   0.354   2.828  0.1509  0.5968  1.7536
  537SOL    HW2 2147   1.062   0.331   2.676 -2.3327  1.7474 -1.7055
  537SOL     MW 2148   1.049   0.310   2.759 -0.2022  0.1971 -0.3143
  538SOL     OW 2149   1.435   0.075   0.014  0.3374  0.2854  0.0240
  538SOL    HW1 2150   1.420   0.167  -0.004  0.7950 -0.2651 -2.9716
  538SOL    HW2 2151   1.347   0.050  -0.000  1.8764  0.4593 -2.1617
  538SOL     MW 2152   1.422   0.084   0.010  0.6008  0.2357 -0.6597
  539SOL     OW 2153   0.712   2.840   2.585 -0.3010 -0.4895 -0.2205
  539SOL    HW1 2154   0.793   2.883   2.608 -0.9215 -0.4729  0.7460
  539SOL    HW2 2155   0.725   2.748   2.626 -0.1698 -3.5581 -1.7117
  539SOL     MW 2156   0.724   2.833   2.594 -0.3655 -0.8922 -0.2897
  540SOL     OW 2157   0.297   2.475   2.884 -0.1120  0.4459  0.5239
  540SOL    HW1 2158   0.272   2.524   2.960  0.2115  0.5707  0.8243
  540SOL    HW2 2159   0.303   2.384   2.912  1.2439  0.1305 -1.3251
  540SOL     MW 2160   0.295   2.469   2.897  0.1096  0.4208  0.3195
  541SOL     OW 2161   0.268   2.952   2.140 -0.4651  0.2207  0.8219
  541SOL    HW1 2162   0.207   2.879   2.153 -0.3789  0.2979  2.7963
  541SOL    HW2 2163   0.345   2.922   2.190  1.3227 -1.1607 -0.6158
  541SOL     MW 2164   0.270   2.939   2.149 -0.2178  0.0486  0.8927
  542SOL     OW 2165   0.940   2.263   2.668 -0.0926  0.4243  0.5201
  542SOL    HW1 2166   0.903   2.208   2.742  0.3263 -1.5388  1.7672
  542SOL    HW2 2167   0.962   2.343   2.714 -0.8111  1.1177 -1.5920
  542SOL     MW 2168   0.938   2.266   2.684 -0.1321  0.2568  0.4059
  543SOL     OW 2169   1.643   2.463   2.870  0.2072 -0.0671  0.4302
  543SOL    HW1 2170   1.618   2.399   2.797  2.4511 -0.9348 -1.2442
  543SOL    HW2 2171   1.687   2.535   2.824  3.0039 -1.8943 -0.1067
  543SOL     MW 2172   1.645   2.464   2.855  0.8722 -0.4226  0.1385
  544SOL     OW 2173   0.672   0.327   2.712  0.5655  0.1568 -0.7676
  544SOL    HW1 2174   0.594   0.317   2.760  0.9386  1.1884  1.0356
  544SOL    HW2 2175   0.666   0.268   2.639  3.1867  1.0631 -0.4186
  544SOL     MW 2176   0.661   0.318   2.709  0.9606  0.4125 -0.4836
  545SOL     OW 2177   1.542   2.111   2.392 -0.3128 -0.3602  0.2729
  545SOL    HW1 2178   1.496   2.055   2.333 -0.8684  1.9215 -1.9810
  545SOL    HW2 2179   1.639   2.099   2.371  2.4300  0.7340 -0.4160
  545SOL     MW 2180   1.548   2.102   2.381 -0.0242  0.0852 -0.1154
  546SOL     OW 2181   2.928   1.963   0.146  0.3965 -0.1203 -0.3339
  546SOL    HW1 2182   2.918   2.048   0.104 -0.5235 -1.6180  0.1544
  546SOL    HW2 2183   3.018   1.943   0.117  2.4687 -0.7827  0.9011
  546SOL     MW 2184   2.938   1.972   0.137  0.5485 -0.4053 -0.1065
  547SOL     OW 2185   0.172   0.070   0.103 -0.1450 -0.1768  0.4069
  547SOL    HW1 2186   0.249   0.072   0.041 -0.7123  0.1631 -0.6021
  547SOL    HW2 2187   0.114   0.017   0.055 -0.4696  1.8287 -0.3803
  547SOL     MW 2188   0.174   0.064   0.088 -0.2627  0.1326  0.1699
  548SOL     OW 2189   0.364   2.564   0.271 -0.2791 -0.7968  0.2950
  548SOL    HW1 2190   0.320   2.587   0.185 -0.9325  0.6107 -0.0365
  548SOL    HW2 2191   0.344   2.472   0.287 -0.6076  2.6202  0.8784
  548SOL     MW 2192   0.356   2.555   0.262 -0.4086 -0.1602  0.3282
  549SOL     OW 2193   0.816   1.947   2.171  0.0414  0.0305  0.6848
  549SOL    HW1 2194   0.773   2.025   2.133 -1.4187  1.4607 -0.8393
  549SOL    HW2 2195   0.787   1.929   2.260  0.0673 -1.8480 -0.1134
  549SOL     MW 2196   0.806   1.955   2.178 -0.1479 -0.0286  0.3784
  550SOL     OW 2197   1.773   1.655   2.507 -0.3254  0.4159 -0.3875
  550SOL    HW1 2198   1.772   1.678   2.409 -0.2628 -0.4756 -3.9185
  550SOL    HW2 2199   1.781   1.738   2.559 -0.7780 -1.4453  0.7130
  550SOL     MW 2200   1.774   1.669   2.501 -0.3769  0.0527 -0.7082
  551SOL     OW 2201   0.918   2.227   0.231  0.1033 -0.0438  0.4057
  551SOL    HW1 2202   1.004   2.262   0.230 -0.9992 -1.3529 -2.0894
  551SOL    HW2 2203   0.900   2.176   0.146  0.6948 -0.3637 -2.7081
  551SOL     MW 2204   0.927   2.225   0.219  0.0359 -0.2587 -0.3343
  552SOL     OW 2205   1.774   1.702   2.226 -0.0323  0.2656  0.5104
  552SOL    HW1 2206   1.697   1.640   2.210  0.1672 -1.6708 -2.0002
  552SOL    HW2 2207   1.828   1.657   2.157 -0.0441 -1.9651  1.0357
  552SOL     MW 2208   1.771   1.688   2.214 -0.0075 -0.2842  0.2484
  553SOL     OW 2209   1.264   2.263   1.620  0.0627 -0.0098 -0.0237
  553SOL    HW1 2210   1.284   2.174   1.597 -0.0933  1.0862  1.4341
  553SOL    HW2 2211   1.333   2.316   1.568 -1.4822  0.3223 -0.9615
  553SOL     MW 2212   1.276   2.258   1.610 -0.1618  0.1786  0.0449
  554SOL     OW 2213   0.498   2.995   2.670 -0.1986  0.3839  0.1952
  554SOL    HW1 2214   0.484   3.065   2.604 -1.2594  0.7055 -2.6446
  554SOL    HW2 2215   0.554   2.933   2.621 -2.4025  1.0554 -0.2755
  554SOL     MW 2216   0.503   2.996   2.655 -0.6294  0.5150 -0.2416
  555SOL     OW 2217   0.664   2.528   2.621  0.1049 -0.0474 -0.4169
  555SOL    HW1 2218   0.628   2.435   2.638 -0.7517 -2.7119 -0.7649
  555SOL    HW2 2219   0.738   2.516   2.563  0.2317  0.3669 -0.8134
  555SOL     MW 2220   0.669   2.514   2.616  0.0086 -0.3443 -0.5151
  556SOL     OW 2221   1.049   1.809   0.065 -0.0126  0.0092  0.1767
  556SOL    HW1 2222   1.085   1.769  -0.017  0.0384 -1.3757  0.3103
  556SOL    HW2 2223   1.120   1.836   0.121  0.1355 -3.6539 -0.7632
  556SOL     MW 2224   1.063   1.808   0.062  0.0136 -0.6568  0.0704
  557SOL     OW 2225   1.044   2.690   0.559 -0.0958 -0.3367 -0.2994
  557SOL    HW1 2226   1.107   2.648   0.504  0.8985  1.3989 -0.7031
  557SOL    HW2 2227   1.002   2.765   0.508 -2.5627  1.2566 -2.6987
  557SOL     MW 2228   1.046   2.694   0.545 -0.2901  0.1025 -0.6692
  558SOL     OW 2229   0.173   2.214   3.003 -0.4527  0.0286  0.0938
  558SOL    HW1 2230   0.125   2.130   3.010 -2.4356  0.2384 -0.8403
  558SOL    HW2 2231   0.148   2.265   3.087 -0.6573  0.7836  3.6878
  558SOL     MW 2232   0.163   2.209   3.015 -0.7413  0.1559  0.4447
  559SOL     OW 2233   1.079   2.270   2.221 -0.1102  0.2740 -0.9077
  559SOL    HW1 2234   1.171   2.295   2.215  1.6931 -0.4022 -0.3113
  559SOL    HW2 2235   1.079   2.174   2.208  0.2970 -0.5230  2.3508
  559SOL     MW 2236   1.091   2.261   2.219  0.1815  0.0796 -0.3991
  560SOL     OW 2237   2.152   2.644   0.158 -0.1811  0.0263  0.1396
  560SOL    HW1 2238   2.188   2.718   0.108 -2.0252  0.2396  1.9253
  560SOL    HW2 2239   2.097   2.595   0.096  1.1745 -0.7031  1.2805
  560SOL     MW 2240   2.149   2.647   0.143 -0.2455 -0.0418  0.5257
  561SOL     OW 2241   0.486   2.202   0.143 -0.5566 -0.1889 -0.0887
  561SOL    HW1 2242   0.436   2.254   0.080  1.2041 -1.3023 -2.5924
  561SOL    HW2 2243   0.547   2.274   0.172 -1.1224  1.7161 -0.6139
  561SOL     MW 2244   0.487   2.219   0.139 -0.3990 -0.0845 -0.4883
  562SOL     OW 2245   0.632   2.370   2.337 -0.3049  0.6176 -0.4122
  562SOL    HW1 2246   0.606   2.398   2.242 -2.2589  1.9758 -1.5156
  562SOL    HW2 2247   0.722   2.403   2.366 -1.3192 -1.1735  2.1994
  562SOL     MW 2248   0.640   2.378   2.328 -0.6965  0.5605 -0.2132
  563SOL     OW 2249   1.250   0.350   0.578 -0.1188 -0.0628 -0.3946
  563SOL    HW1 2250   1.178   0.299   0.546 -1.8254 -1.7349 -1.5266
  563SOL    HW2 2251   1.224   0.353   0.676  0.5737  2.1537  0.5419
  563SOL     MW 2252   1.237   0.344   0.587 -0.2526  0.0090 -0.4204
  564SOL     OW 2253   0.980   2.741   2.350  0.5924 -0.1842 -0.0064
  564SOL    HW1 2254   1.042   2.811   2.320  2.3177  0.5889 -2.4265
  564SOL    HW2 2255   1.004   2.723   2.451 -0.1481 -0.3396 -0.1828
  564SOL     MW 2256   0.991   2.748   2.359  0.7224 -0.1027 -0.3490
  565SOL     OW 2257   2.768   2.735   2.616  0.5909 -0.6190  0.0828
  565SOL    HW1 2258   2.779   2.824   2.583  0.1932  0.4476  0.9075
  565SOL    HW2 2259   2.747   2.679   2.537  0.5005 -2.5423 -4.6138
  565SOL     MW 2260   2.766   2.740   2.601  0.5265 -0.7321 -0.4281
  566SOL     OW 2261   2.166   1.897   2.338  0.1080 -0.0846 -0.5131
  566SOL    HW1 2262   2.171   1.849   2.259 -1.8554 -0.4322 -1.5574
  566SOL    HW2 2263   2.241   1.962   2.323 -0.9955 -0.4146 -1.4606
  566SOL     MW 2264   2.177   1.899   2.326 -0.2967 -0.1740 -0.7759
  567SOL     OW 2265   1.173   3.074   3.083 -0.0864 -0.2017 -0.2737
  567SOL    HW1 2266   1.160   3.061   3.178  0.0427  1.1437 -1.6839
  567SOL    HW2 2267   1.210   2.988   3.056 -0.1583 -3.0469  0.4915
  567SOL     MW 2268   1.176   3.061   3.092 -0.0789 -0.3996 -0.3588
  568SOL     OW 2269   1.649   2.030   2.845 -0.0967 -0.1026 -0.5059
  568SOL    HW1 2270   1.714   2.062   2.905  0.6470 -2.2801 -0.5491
  568SOL    HW2 2271   1.689   1.972   2.780 -1.6048  0.5883  0.6387
  568SOL     MW 2272   1.663   2.027   2.844 -0.1975 -0.2987 -0.3606
  569SOL     OW 2273   0.112   2.250   2.433 -0.7465 -0.4057  0.2097
  569SOL    HW1 2274   0.058   2.303   2.381 -1.0116  0.1918  3.7251
  569SOL    HW2 2275   0.159   2.303   2.499 -0.2089  3.1406 -5.0969
  569SOL     MW 2276   0.111   2.264   2.434 -0.7105  0.1410 -0.0266
  570SOL     OW 2277   1.513   0.330   0.454  0.0547  0.5913 -0.0179
  570SOL    HW1 2278   1.431   0.337   0.507  0.5108 -2.5555  0.1139
  570SOL    HW2 2279   1.588   0.348   0.517  0.6795  0.0716  0.1232
  570SOL     MW 2280   1.512   0.333   0.469  0.1973  0.1076  0.0181
  571SOL     OW 2281   1.313   2.315   2.131  0.1150 -0.4175 -0.0363
  571SOL    HW1 2282   1.354   2.339   2.216 -1.5245  0.5973  1.9113
  571SOL    HW2 2283   1.376   2.254   2.094 -1.9381  0.2076  0.8471
  571SOL     MW 2284   1.327   2.310   2.138 -0.3722 -0.2011  0.3372
  572SOL     OW 2285   1.075   2.572   0.124 -0.9061 -0.0982 -0.1031
  572SOL    HW1 2286   1.051   2.646   0.072  0.3907 -5.8887 -0.5568
  572SOL    HW2 2287   0.986   2.535   0.152 -1.0067 -3.1586  0.8305
  572SOL     MW 2288   1.060   2.577   0.121 -0.7483 -1.2660 -0.0398
  573SOL     OW 2289   1.172   2.329   0.279 -0.6000  0.0801 -0.4953
  573SOL    HW1 2290   1.250   2.345   0.222 -0.0449  0.8055 -3.0722
  573SOL    HW2 2291   1.172   2.410   0.332 -1.3126 -1.3088  0.5614
  573SOL     MW 2292   1.183   2.342   0.278 -0.6208 -0.0075 -0.6959
  574SOL     OW 2293   1.187   2.577   0.377  0.6906  0.1645 -0.3089
  574SOL    HW1 2294   1.253   2.645   0.376 -0.8931 -0.7199  0.3046
  574SOL    HW2 2295   1.142   2.596   0.298 -1.8730 -0.6893  2.6302
  574SOL     MW 2296   1.190   2.589   0.367  0.1434 -0.0648  0.1598
  575SOL     OW 2297   0.039   2.196   1.727 -0.1608 -0.2534  0.5545
  575SOL    HW1 2298   0.062   2.118   1.678 -0.1668 -1.5018  2.7502
  575SOL    HW2 2299   0.080   2.196   1.811 -0.7413 -1.2942  1.5339
  575SOL     MW 2300   0.047   2.186   1.732 -0.2382 -0.5554  0.9734
  576SOL     OW 2301   2.903   1.850   1.932 -0.0623 -0.5320  0.1179
  576SOL    HW1 2302   2.951   1.924   1.890  0.0553  1.0140  1.7684
  576SOL    HW2 2303   2.837   1.836   1.858  2.3530 -0.5447  1.6142
  576SOL     MW 2304   2.901   1.858   1.917  0.2719 -0.3297  0.5331
  577SOL     OW 2305   2.127   0.147   0.063  0.0372 -0.4762  0.1780
  577SOL    HW1 2306   2.058   0.151  -0.004 -1.8839 -0.6123 -0.9361
  577SOL    HW2 2307   2.092   0.087   0.133  1.0476 -0.0988 -1.8538
  577SOL     MW 2308   2.113   0.139   0.064 -0.0829 -0.4444 -0.2371
  578SOL     OW 2309   1.980   2.098   2.364  0.4912  0.1919  0.5123
  578SOL    HW1 2310   1.897   2.074   2.330 -0.2502 -0.8188 -3.5533
  578SOL    HW2 2311   2.039   2.015   2.346 -0.2564 -2.7650 -1.0093
  578SOL     MW 2312   1.977   2.084   2.357  0.2948 -0.3316 -0.2249
  579SOL     OW 2313   0.880   2.450   2.465 -0.2015 -0.0232  0.4101
  579SOL    HW1 2314   0.920   2.377   2.520  1.1866 -3.1604  2.7070
  579SOL    HW2 2315   0.943   2.473   2.394  2.8184 -0.7865  0.2799
  579SOL     MW 2316   0.894   2.444   2.463  0.3801 -0.5378  0.6960
  580SOL     OW 2317   0.978   2.809   3.101 -0.0609  0.2582  0.9904
  580SOL    HW1 2318   1.052   2.869   3.096  0.7903  0.0142 -3.6498
  580SOL    HW2 2319   0.906   2.825   3.020  0.3891 -3.1040 -1.4928
  580SOL     MW 2320   0.978   2.819   3.090  0.1108 -0.2176  0.0506
  581SOL     OW 2321   1.118   2.463   1.739  0.0849  0.6437 -0.3119
  581SOL    HW1 2322   1.168   2.525   1.796  0.6518  0.3299 -0.5665
  581SOL    HW2 2323   1.186   2.400   1.714  0.3183  0.4720 -0.6336
  581SOL     MW 2324   1.134   2.463   1.743  0.1905  0.5796 -0.3880
  582SOL     OW 2325   0.001   2.929   2.666  0.4530 -0.6487  0.0963
  582SOL    HW1 2326  -0.068   2.969   2.724  1.7283 -0.1976 -2.8753
  582SOL    HW2 2327   0.080   2.986   2.659  0.9672  1.9319 -1.3061
  582SOL     MW 2328   0.002   2.942   2.673  0.6891 -0.2487 -0.4808
  583SOL     OW 2329   1.967   2.379   2.666  0.0080  0.3026 -0.0524
  583SOL    HW1 2330   2.045   2.388   2.610  1.3723 -0.8917  2.9322
  583SOL    HW2 2331   1.941   2.284   2.651  1.0739 -2.3380  1.7004
  583SOL     MW 2332   1.974   2.368   2.657  0.3286 -0.2034  0.5726
  584SOL     OW 2333   0.209   1.878   2.177  0.0254  0.2918  0.0510
  584SOL    HW1 2334   0.224   1.902   2.269  1.4056 -0.4526 -3.3713
  584SOL    HW2 2335   0.302   1.870   2.152  1.5442  1.8929  1.2997
  584SOL     MW 2336   0.223   1.880   2.186  0.4079  0.4049 -0.2358
  585SOL     OW 2337   1.555   2.580   0.182  0.0498 -0.7777 -0.0492
  585SOL    HW1 2338   1.508   2.534   0.106 -0.8488 -0.7202  0.3555
  585SOL    HW2 2339   1.493   2.635   0.226  0.4554 -2.2520 -0.5586
  585SOL     MW 2340   1.541   2.581   0.178 -0.0152 -0.9646 -0.0630
  586SOL     OW 2341   1.359   2.778   2.596  0.7090  0.2178  0.2949
  586SOL    HW1 2342   1.401   2.732   2.523 -0.5061  2.9248  1.8520
  586SOL    HW2 2343   1.338   2.866   2.556  0.9319 -1.3563 -0.0679
  586SOL     MW 2344   1.362   2.783   2.581  0.5781  0.3673  0.4525
  587SOL     OW 2345   1.277   1.521   2.158 -0.4540 -0.2063  0.0145
  587SOL    HW1 2346   1.295   1.442   2.111 -0.6618  0.8689 -0.9350
  587SOL    HW2 2347   1.217   1.563   2.097 -3.3478 -0.4937 -1.5059
  587SOL     MW 2348   1.272   1.516   2.144 -0.8633 -0.1023 -0.3113
  588SOL     OW 2349   1.296   2.046   2.637  0.0280 -0.1719 -0.1370
  588SOL    HW1 2350   1.302   1.953   2.658  1.6384  1.3723 -0.9537
  588SOL    HW2 2351   1.287   2.090   2.720 -2.2747 -1.3336 -0.1076
  588SOL     MW 2352   1.296   2.039   2.651 -0.0634 -0.1214 -0.2409
  589SOL     OW 2353   1.319   2.056   0.014 -0.3319 -0.0873 -0.5971
  589SOL    HW1 2354   1.380   2.116   0.052 -1.8343  1.6932 -1.9636
  589SOL    HW2 2355   1.297   1.999   0.084  0.2203  0.6791  0.4621
  589SOL     MW 2356   1.324   2.056   0.028 -0.4572  0.2488 -0.6376
  590SOL     OW 2357   0.485   2.675   2.225  0.0411 -0.2772  0.5845
  590SOL    HW1 2358   0.456   2.659   2.129  0.5614  0.0550  0.2894
  590SOL    HW2 2359   0.585   2.703   2.233  0.7806  1.5009  0.8159
  590SOL     MW 2360   0.494   2.677   2.213  0.2073  0.0013  0.5761
  591SOL     OW 2361   2.210   0.661   0.175 -0.0999 -0.4938  0.3816
  591SOL    HW1 2362   2.155   0.677   0.245  2.4502 -0.0601 -0.0563
  591SOL    HW2 2363   2.174   0.711   0.103  1.1456 -2.1856 -0.5334
  591SOL     MW 2364   2.198   0.670   0.174  0.4009 -0.6598  0.2031
  592SOL     OW 2365   1.653   2.928   0.709 -0.0482  0.0918 -0.6742
  592SOL    HW1 2366   1.645   3.016   0.742  0.1556 -0.3959 -1.9331
  592SOL    HW2 2367   1.746   2.910   0.737  0.8225  1.4203 -0.5766
  592SOL     MW 2368   1.664   2.937   0.717  0.0936  0.2027 -0.8275
  593SOL     OW 2369   1.899   0.713   0.682  0.1909 -0.4223  0.2402
  593SOL    HW1 2370   1.826   0.702   0.625  2.3001  1.4530 -0.2937
  593SOL    HW2 2371   1.935   0.624   0.697 -2.3677  0.3677 -0.8209
  593SOL     MW 2372   1.894   0.700   0.676  0.1316 -0.0707  0.0297
  594SOL     OW 2373   2.834   1.113   1.367 -0.3861 -0.0706 -0.1429
  594SOL    HW1 2374   2.916   1.164   1.360  0.4529  1.9103  0.3477
  594SOL    HW2 2375   2.761   1.184   1.362  0.7333 -0.0404  0.6532
  594SOL     MW 2376   2.835   1.129   1.365 -0.1277  0.1947  0.0268
  595SOL     OW 2377   0.529   0.932   0.860 -0.1361 -0.0967  0.0078
  595SOL    HW1 2378   0.509   1.012   0.805  0.8697  2.0974  1.0607
  595SOL    HW2 2379   0.581   0.967   0.937 -1.2311 -0.2513 -0.6951
  595SOL     MW 2380   0.533   0.947   0.863 -0.1479  0.1724  0.0540
  596SOL     OW 2381   2.419   1.312   0.492 -0.3780 -0.3906 -0.3018
  596SOL    HW1 2382   2.405   1.390   0.436  0.0012  1.8773  1.6933
  596SOL    HW2 2383   2.447   1.354   0.573  1.0796  2.4592 -2.3412
  596SOL     MW 2384   2.421   1.328   0.496 -0.1357  0.2846 -0.3076
  597SOL     OW 2385   2.238   0.686   1.645 -0.5423  0.2239 -0.4900
  597SOL    HW1 2386   2.255   0.625   1.724  1.6755 -0.3595  1.3841
  597SOL    HW2 2387   2.173   0.651   1.591  2.1003  0.4431 -0.6145
  597SOL     MW 2388   2.232   0.674   1.648  0.0990  0.1758 -0.2591
  598SOL     OW 2389   2.594   0.998   2.865  0.6982  0.1825  0.1522
  598SOL    HW1 2390   2.584   0.943   2.786 -1.1714  0.1600  0.8135
  598SOL    HW2 2391   2.689   1.010   2.881  0.1827 -1.8079 -1.6927
  598SOL     MW 2392   2.605   0.993   2.857  0.3835 -0.0831 -0.0040
  599SOL     OW 2393   3.003   0.551   2.225  0.2782  0.9336  0.4143
  599SOL    HW1 2394   3.077   0.595   2.266 -2.1189 -2.3598  0.6623
  599SOL    HW2 2395   3.000   0.554   2.127  0.7921 -1.9560 -3.6599
  599SOL     MW 2396   3.013   0.557   2.218  0.0297  0.1178 -0.0905
  600SOL     OW 2397   1.842   1.661   0.845  0.3334 -0.7528 -0.2089
  600SOL    HW1 2398   1.871   1.699   0.930 -2.5789 -0.2686  0.6693
  600SOL    HW2 2399   1.769   1.717   0.820 -0.9205 -0.1123  0.7540
  600SOL     MW 2400   1.836   1.673   0.853 -0.2163 -0.6044  0.0340
  601SOL     OW 2401   2.538   0.780   0.857 -0.1962  0.0705 -0.0646
  601SOL    HW1 2402   2.548   0.776   0.957 -1.3120  0.9017  0.8981
  601SOL    HW2 2403   2.482   0.701   0.829 -2.3440 -0.7352 -1.4572
  601SOL     MW 2404   2.532   0.769   0.866 -0.6268  0.0739 -0.1213
  602SOL     OW 2405   2.247   1.970   0.779  0.4252  0.3364  0.1743
  602SOL    HW1 2406   2.192   1.910   0.739 -0.4479 -0.9327 -0.6450
  602SOL    HW2 2407   2.203   2.055   0.759  1.0647 -0.8325  2.2419
  602SOL     MW 2408   2.234   1.973   0.771  0.3944  0.0148  0.3390
  603SOL     OW 2409   3.030   1.331   1.986  0.1825 -0.3257  0.3438
  603SOL    HW1 2410   2.984   1.398   2.048  0.8627  0.0181  3.0155
  603SOL    HW2 2411   3.043   1.245   2.028 -2.0202 -0.0600 -0.4035
  603SOL     MW 2412   3.026   1.329   2.000 -0.0184 -0.2453  0.5977
  604SOL     OW 2413   2.029   1.365   0.358  0.1024 -0.0377  0.2752
  604SOL    HW1 2414   2.098   1.311   0.404  0.2981 -1.5963 -0.3407
  604SOL    HW2 2415   1.983   1.419   0.420  0.9897  2.0667  0.4141
  604SOL     MW 2416   2.032   1.365   0.373  0.2453  0.0343  0.2122
  605SOL     OW 2417   2.449   1.445   0.792  0.4754 -0.0873 -0.1693
  605SOL    HW1 2418   2.471   1.519   0.737 -0.7468  0.2352  0.5939
  605SOL    HW2 2419   2.533   1.398   0.793  1.0901  2.2842  0.5517
  605SOL     MW 2420   2.463   1.448   0.785  0.3952  0.2681  0.0265
  606SOL     OW 2421   2.684   1.805   1.763 -0.0527 -0.0276 -0.0295
  606SOL    HW1 2422   2.616   1.854   1.802  0.7167 -0.2008  1.9951
  606SOL    HW2 2423   2.674   1.716   1.790 -0.8342  0.8201 -2.8793
  606SOL     MW 2424   2.674   1.799   1.772 -0.0543  0.0614 -0.1384
  607SOL     OW 2425   2.396   1.039   3.078  0.0213  0.2466  0.0088
  607SOL    HW1 2426   2.471   1.000   3.026 -1.8216  2.8260 -1.8077
  607SOL    HW2 2427   2.417   1.049   3.174 -0.0358 -0.7548 -0.1428
  607SOL     MW 2428   2.408   1.035   3.084 -0.2294  0.4548 -0.2509
  608SOL     OW 2429   1.921   0.236   0.419  0.3754  0.4044 -0.3405
  608SOL    HW1 2430   1.888   0.258   0.335  2.0930 -2.1289 -0.2196
  608SOL    HW2 2431   1.914   0.137   0.428  1.0104  0.0475 -1.7618
  608SOL     MW 2432   1.916   0.226   0.409  0.6858  0.0231 -0.5121
  609SOL     OW 2433   2.091   1.914   3.069  0.0751 -0.4432 -0.0692
  609SOL    HW1 2434   2.064   1.841   3.015 -1.0354  0.4640 -1.6749
  609SOL    HW2 2435   2.071   1.887   3.161  0.8508  3.4601  0.3630
  609SOL     MW 2436   2.085   1.901   3.074  0.0309  0.1915 -0.2241
  610SOL     OW 2437   1.767   0.974   1.239 -0.5128  0.4704 -0.2124
  610SOL    HW1 2438   1.788   0.949   1.142  2.3187  1.0918 -2.5645
  610SOL    HW2 2439   1.691   1.026   1.246 -1.1134  0.8186 -1.0392
  610SOL     MW 2440   1.760   0.977   1.227 -0.2185  0.5983 -0.6318
  611SOL     OW 2441   2.482   1.673   0.565  0.6319 -0.0132  0.4964
  611SOL    HW1 2442   2.435   1.656   0.484 -0.2657  1.7896 -1.3938
  611SOL    HW2 2443   2.495   1.770   0.568  0.8096  0.8318  0.2766
  611SOL     MW 2444   2.477   1.684   0.555  0.5370  0.3362  0.2180
  612SOL     OW 2445   2.908   2.862   0.365  0.6746  0.7384 -0.5074
  612SOL    HW1 2446   2.911   2.872   0.458 -1.3311 -0.2970 -0.5199
  612SOL    HW2 2447   3.000   2.863   0.339 -0.8708  0.3031  2.1537
  612SOL     MW 2448   2.921   2.864   0.374  0.2061  0.5443 -0.1580
  613SOL     OW 2449   1.451   1.119   0.927 -0.1865 -0.1557 -0.0106
  613SOL    HW1 2450   1.447   1.217   0.930  0.7552  0.4496  0.9517
  613SOL    HW2 2451   1.504   1.099   1.006 -0.6743  0.4085 -2.5837
  613SOL     MW 2452   1.457   1.129   0.938 -0.1266 -0.0014 -0.2231
  614SOL     OW 2453   2.111   0.548   1.451  0.1987  0.6255  0.3969
  614SOL    HW1 2454   2.120   0.473   1.518  2.5077 -0.9928 -0.1676
  614SOL    HW2 2455   2.023   0.534   1.417  3.5308  0.9075  1.6245
  614SOL     MW 2456   2.101   0.537   1.455  0.9430  0.4492  0.4844
  615SOL     OW 2457   2.421   0.739   0.338  0.0300  0.2832 -0.2666
  615SOL    HW1 2458   2.514   0.702   0.339  1.6958 -0.1651  0.9906
  615SOL    HW2 2459   2.373   0.676   0.280 -0.8603 -1.4210 -0.2269
  615SOL     MW 2460   2.427   0.726   0.331  0.1323 -0.0008 -0.0955
  616SOL     OW 2461   2.561   0.369   1.664 -0.0665  0.0360  0.1534
  616SOL    HW1 2462   2.515   0.300   1.617  0.2264 -1.4754 -1.8926
  616SOL    HW2 2463   2.542   0.438   1.601  0.4764 -1.7504  0.7842
  616SOL     MW 2464   2.553   0.369   1.649  0.0438 -0.3991 -0.0334
  617SOL     OW 2465   2.819   0.601   1.783  0.3635  0.5287  0.5169
  617SOL    HW1 2466   2.750   0.626   1.848  0.3645  0.7568 -0.9031
  617SOL    HW2 2467   2.821   0.502   1.784  1.2440 -1.9867  0.3778
  617SOL     MW 2468   2.810   0.591   1.792  0.4798  0.2269  0.3112
  618SOL     OW 2469   2.861   0.200   1.996 -0.5318 -0.3437 -0.3393
  618SOL    HW1 2470   2.815   0.258   2.056  3.6340  3.7412 -0.2060
  618SOL    HW2 2471   2.949   0.201   2.032 -0.6431  3.2181  1.1869
  618SOL     MW 2472   2.866   0.208   2.008  0.0032  0.6652 -0.1204
  619SOL     OW 2473   2.735   0.726   0.038  0.0833  0.0788 -0.0363
  619SOL    HW1 2474   2.758   0.812   0.068 -0.2379  0.2518 -1.2313
  619SOL    HW2 2475   2.805   0.681   0.074  0.4200  1.2045 -0.5966
  619SOL     MW 2476   2.747   0.732   0.047  0.0854  0.2502 -0.2679
  620SOL     OW 2477   2.223   0.987   0.873 -0.1217 -0.3393  0.0396
  620SOL    HW1 2478   2.301   1.016   0.827  0.9849  3.9188  2.3487
  620SOL    HW2 2479   2.149   1.021   0.824  1.0028 -0.5302  0.4580
  620SOL     MW 2480   2.223   0.995   0.860  0.1727  0.1973  0.3995
  621SOL     OW 2481   1.510   2.164   2.001  0.2158 -0.2184 -0.0352
  621SOL    HW1 2482   1.456   2.086   1.995  2.2934 -1.1748 -2.1081
  621SOL    HW2 2483   1.602   2.140   2.004  0.0121 -0.2214 -1.9889
  621SOL     MW 2484   1.515   2.151   2.001  0.4631 -0.3450 -0.5665
  622SOL     OW 2485   2.628   0.300   0.196  0.0921  0.0455  0.2672
  622SOL    HW1 2486   2.720   0.305   0.208 -0.6093  0.6997  0.4610
  622SOL    HW2 2487   2.619   0.218   0.156  0.5803  1.3463 -0.2218
  622SOL     MW 2488   2.639   0.290   0.192  0.0640  0.3035  0.2282
  623SOL     OW 2489   2.337   2.728   0.812 -0.1772 -0.8664 -0.8800
  623SOL    HW1 2490   2.413   2.781   0.786  2.1471  0.5411  3.4960
  623SOL    HW2 2491   2.342   2.740   0.913  4.0279 -1.3894  2.0123
  623SOL     MW 2492   2.348   2.736   0.822  0.6843 -0.7497  0.0790
  624SOL     OW 2493   2.138   1.619   3.010  0.2679  0.5789 -0.1814
  624SOL    HW1 2494   2.071   1.549   3.013 -2.2444  1.6445  1.1682
  624SOL    HW2 2495   2.194   1.601   3.090 -0.4352  1.4097  1.4848
  624SOL     MW 2496   2.136   1.608   3.021 -0.1564  0.8291  0.2165
  625SOL     OW 2497   2.130   1.962   1.024  0.0353  0.2702 -0.0735
  625SOL    HW1 2498   2.184   1.893   1.056 -1.3724  1.0865  0.0474
  625SOL    HW2 2499   2.172   1.977   0.937  1.8987  3.2300  1.2137
  625SOL     MW 2500   2.142   1.955   1.017  0.0954  0.7685  0.1123
  626SOL     OW 2501   0.123   1.851   2.471 -0.0829  0.0684  0.1604
  626SOL    HW1 2502   0.060   1.785   2.506 -1.5262 -1.7531  0.4681
  626SOL    HW2 2503   0.056   1.922   2.470 -2.7434  1.4817 -0.0113
  626SOL     MW 2504   0.106   1.852   2.475 -0.6243  0.0145  0.1783
  627SOL     OW 2505   2.602   0.853   2.611 -0.5409  0.4554  0.6083
  627SOL    HW1 2506   2.508   0.874   2.596 -0.7328  0.9103  0.3836
  627SOL    HW2 2507   2.617   0.778   2.547 -0.5795 -0.0404 -2.1488
  627SOL     MW 2508   2.592   0.846   2.601 -0.5713  0.4500  0.2149
  628SOL     OW 2509   2.355   1.366   1.266  0.5573 -0.1076 -0.2560
  628SOL    HW1 2510   2.312   1.298   1.219 -2.3538  0.1068 -0.1570
  628SOL    HW2 2511   2.399   1.419   1.199 -0.8448  3.1358 -0.9179
  628SOL     MW 2512   2.355   1.364   1.251 -0.0118  0.3486 -0.3302
  629SOL     OW 2513   1.851   0.582   1.261  0.1981  0.0665 -0.3686
  629SOL    HW1 2514   1.907   0.632   1.201 -0.0689 -1.5560 -1.3150
  629SOL    HW2 2515   1.764   0.603   1.228  1.2058 -0.4008 -1.4659
  629SOL     MW 2516   1.847   0.591   1.249  0.2958 -0.2092 -0.6383
  630SOL     OW 2517   2.357   1.959   3.070 -0.2119 -0.3591  0.1783
  630SOL    HW1 2518   2.389   1.971   2.980 -0.6483  0.0882 -0.2071
  630SOL    HW2 2519   2.266   1.942   3.074  2.3756  2.1687  0.5358
  630SOL     MW 2520   2.349   1.958   3.059  0.0719  0.0335  0.1746
  631SOL     OW 2521   2.107   1.878   1.485  0.2002 -0.6418 -0.2088
  631SOL    HW1 2522   2.066   1.804   1.527 -0.5815  0.8634  3.7476
  631SOL    HW2 2523   2.031   1.938   1.470 -0.7868 -0.6291  2.0152
  631SOL     MW 2524   2.091   1.876   1.488 -0.0332 -0.4415  0.6066
  632SOL     OW 2525   0.385   1.891   1.467  0.1922  0.1631 -0.4263
  632SOL    HW1 2526   0.327   1.971   1.472 -1.1768  2.0350  0.9576
  632SOL    HW2 2527   0.343   1.809   1.500 -0.4352 -1.3415  1.0686
  632SOL     MW 2528   0.372   1.891   1.472 -0.0712  0.2116 -0.0465
  633SOL     OW 2529   2.649   0.571   0.360  0.6420 -0.2978 -0.3899
  633SOL    HW1 2530   2.708   0.572   0.438 -1.7437 -0.4273  2.8055
  633SOL    HW2 2531   2.635   0.478   0.338 -2.5641 -1.7170  1.4616
  633SOL     MW 2532   2.655   0.559   0.368 -0.0958 -0.5021  0.2760
  634SOL     OW 2533   2.753   0.023   0.634  0.4661  0.2358 -0.2120
  634SOL    HW1 2534   2.765   0.120   0.628  0.8519  1.5053  0.8752
  634SOL    HW2 2535   2.713  -0.003   0.552  1.6633  0.1601  0.0205
  634SOL     MW 2536   2.750   0.032   0.622  0.6750  0.3934 -0.0379
  635SOL     OW 2537   2.678   0.048   1.807  0.5870 -0.2577 -0.1380
  635SOL    HW1 2538   2.740  -0.006   1.760 -0.5263 -2.5674 -3.6245
  635SOL    HW2 2539   2.727   0.105   1.863 -0.7266 -0.3615  0.6975
  635SOL     MW 2540   2.693   0.049   1.808  0.2668 -0.5761 -0.4878
  636SOL     OW 2541   2.702   1.631   0.734  0.2848 -0.0064  0.0843
  636SOL    HW1 2542   2.639   1.647   0.661 -2.0828  1.1326  0.9412
  636SOL    HW2 2543   2.680   1.706   0.791 -0.7969 -0.2591  0.7243
  636SOL     MW 2544   2.691   1.643   0.732 -0.1703  0.1105  0.2818
  637SOL     OW 2545   2.957   1.461   0.689 -0.0894  0.9031 -0.3338
  637SOL    HW1 2546   3.016   1.530   0.667  0.6731  2.4006 -0.0789
  637SOL    HW2 2547   2.876   1.508   0.707 -1.5108  0.0899 -1.1395
  637SOL     MW 2548   2.954   1.476   0.689 -0.1763  0.9934 -0.4065
  638SOL     OW 2549   2.823   0.535   0.562  0.0152  0.3922  0.1842
  638SOL    HW1 2550   2.899   0.577   0.521 -0.4432 -1.1557  1.3475
  638SOL    HW2 2551   2.832   0.568   0.653 -1.6349 -0.1880 -0.2063
  638SOL     MW 2552   2.834   0.545   0.569 -0.2630  0.1114  0.2861
  639SOL     OW 2553   1.857   3.084   0.484  0.1048 -0.6173 -0.3579
  639SOL    HW1 2554   1.773   3.106   0.513  3.5180  1.3214 -2.4345
  639SOL    HW2 2555   1.867   2.992   0.463  2.4113  0.6274  1.2636
  639SOL     MW 2556   1.848   3.075   0.485  0.8594 -0.1973 -0.4179
  640SOL     OW 2557   0.302   1.426   0.106  0.0282 -0.6283 -0.1869
  640SOL    HW1 2558   0.327   1.415   0.011 -1.8723 -2.7587  2.3178
  640SOL    HW2 2559   0.322   1.339   0.134 -1.2794  2.1841 -0.6325
  640SOL     MW 2560   0.308   1.413   0.097 -0.3951 -0.5383  0.0848
  641SOL     OW 2561   2.368   0.403   0.414  0.2237  0.3858 -0.0610
  641SOL    HW1 2562   2.367   0.349   0.335  0.6430 -0.9835 -1.5177
  641SOL    HW2 2563   2.405   0.345   0.481  0.4289 -0.6926  1.3925
  641SOL     MW 2564   2.373   0.388   0.412  0.3061  0.0628 -0.0615
  642SOL     OW 2565   0.108   3.058   0.490  0.1806  0.1187  0.4697
  642SOL    HW1 2566   0.080   3.145   0.453 -1.7037 -2.1867 -0.1983
  642SOL    HW2 2567   0.030   3.018   0.526 -0.9645  2.5443  2.4141
  642SOL     MW 2568   0.094   3.065   0.490 -0.2191  0.1346  0.6381
  643SOL     OW 2569   2.149   0.341   1.641  0.0518  0.1628 -0.0895
  643SOL    HW1 2570   2.084   0.349   1.714  0.7671  1.5679 -0.7725
  643SOL    HW2 2571   2.105   0.279   1.584 -1.7754  1.0156  0.1601
  643SOL     MW 2572   2.135   0.334   1.643 -0.0949  0.4607 -0.1467
  644SOL     OW 2573   2.686   1.886   0.942  0.0310 -0.3072  0.1029
  644SOL    HW1 2574   2.660   1.851   1.022 -0.2319  0.2401 -3.3234
  644SOL    HW2 2575   2.630   1.961   0.932 -0.0421 -1.6153 -2.6305
  644SOL     MW 2576   2.675   1.891   0.951 -0.0133 -0.4076 -0.7098
  645SOL     OW 2577   2.818   0.962   0.789 -0.3102 -0.9444 -0.0227
  645SOL    HW1 2578   2.904   0.922   0.783  0.5091  2.3623 -3.1121
  645SOL    HW2 2579   2.798   0.964   0.881 -1.7986 -0.1072 -0.3832
  645SOL     MW 2580   2.827   0.957   0.800 -0.3985 -0.3976 -0.4779
  646SOL     OW 2581   0.111   2.269   0.864 -0.2212 -0.1757 -0.6848
  646SOL    HW1 2582   0.113   2.180   0.858 -3.5696  0.5490  0.7035
  646SOL    HW2 2583   0.058   2.291   0.785 -0.1536 -1.7849 -1.2024
  646SOL     MW 2584   0.105   2.260   0.853 -0.6540 -0.2924 -0.5699
  647SOL     OW 2585   2.773   0.420   3.029 -0.8819 -0.2191  0.6751
  647SOL    HW1 2586   2.692   0.399   3.068  0.7010 -2.5857  0.0210
  647SOL    HW2 2587   2.788   0.512   3.035 -2.0334 -1.0634  0.4950
  647SOL     MW 2588   2.765   0.429   3.035 -0.8250 -0.6427  0.5650
  648SOL     OW 2589   2.073   0.636   1.093 -0.3736  0.2896 -0.3104
  648SOL    HW1 2590   2.147   0.594   1.139 -0.6919 -0.7350 -1.0332
  648SOL    HW2 2591   2.105   0.721   1.056 -0.6805  1.9285  1.0832
  648SOL     MW 2592   2.087   0.642   1.094 -0.4561  0.3707 -0.2219
  649SOL     OW 2593   2.399   2.641   1.290  0.0469  0.4922  0.1482
  649SOL    HW1 2594   2.484   2.673   1.322 -0.0716 -1.9031  0.2154
  649SOL    HW2 2595   2.411   2.547   1.263 -1.4367 -1.4162  0.7960
  649SOL     MW 2596   2.412   2.633   1.291 -0.1645 -0.0756  0.2425
  650SOL     OW 2597   2.779   0.266   0.533  0.5493 -0.2352  0.1318
  650SOL    HW1 2598   2.809   0.357   0.552 -2.3704  0.1979 -0.4107
  650SOL    HW2 2599   2.812   0.250   0.444 -0.6325 -1.9630 -0.4276
  650SOL     MW 2600   2.787   0.276   0.523  0.0082 -0.4060 -0.0135
  651SOL     OW 2601   0.039   0.455   1.007  0.5020  0.0505  0.2486
  651SOL    HW1 2602   0.076   0.515   0.939  2.8601  2.3418 -0.4947
  651SOL    HW2 2603  -0.047   0.499   1.036 -2.5736  0.7473  0.0424
  651SOL     MW 2604   0.032   0.469   1.002  0.4073  0.4447  0.1233
  652SOL     OW 2605   2.347   1.421   2.903  0.7173  0.1259  0.4163
  652SOL    HW1 2606   2.409   1.452   2.838 -1.5176  1.1337 -0.0797
  652SOL    HW2 2607   2.271   1.477   2.890  0.1790  1.9551  0.2187
  652SOL     MW 2608   2.345   1.433   2.893  0.3514  0.5002  0.3248
  653SOL     OW 2609   1.827   0.392   0.173 -0.5584 -0.0868 -0.7047
  653SOL    HW1 2610   1.809   0.302   0.144  0.0030  0.9329 -0.1635
  653SOL    HW2 2611   1.849   0.452   0.099 -0.2083  1.1556 -0.8333
  653SOL     MW 2612   1.827   0.388   0.160 -0.4381  0.2116 -0.6502
  654SOL     OW 2613   2.463   1.029   0.719  0.1728  0.5149 -0.3432
  654SOL    HW1 2614   2.404   0.990   0.647 -1.3345  0.1296 -1.5048
  654SOL    HW2 2615   2.527   0.959   0.757  1.6277 -0.0343 -2.0221
  654SOL     MW 2616   2.464   1.015   0.714  0.1659  0.3916 -0.7180
  655SOL     OW 2617   3.019   0.940   0.344  1.0082 -0.2323  0.3397
  655SOL    HW1 2618   2.965   0.975   0.414  0.6098  0.4994  2.0724
  655SOL    HW2 2619   3.031   0.848   0.373 -0.6094  0.3699  1.7797
  655SOL     MW 2620   3.014   0.932   0.357  0.7422 -0.0563  0.7583
  656SOL     OW 2621   1.741   2.662   1.423  0.2405 -0.0450 -0.1983
  656SOL    HW1 2622   1.820   2.661   1.475 -2.1918  0.2185  2.5566
  656SOL    HW2 2623   1.746   2.579   1.376  0.9460  0.1688 -1.9499
  656SOL     MW 2624   1.752   2.651   1.424  0.0126  0.0180 -0.0659
  657SOL     OW 2625   0.104   1.801   1.136 -0.1480  0.4124  0.3265
  657SOL    HW1 2626   0.187   1.852   1.126  0.4947  1.2538 -2.5832
  657SOL    HW2 2627   0.124   1.717   1.177  1.3298  0.5497  2.6296
  657SOL     MW 2628   0.118   1.797   1.140  0.1318  0.5415  0.2465
  658SOL     OW 2629   2.611   1.356   0.200 -0.0405  0.7619 -0.0611
  658SOL    HW1 2630   2.595   1.285   0.268 -1.4013 -0.6142  0.1916
  658SOL    HW2 2631   2.658   1.422   0.250 -0.8747 -0.0916 -3.6670
  658SOL     MW 2632   2.615   1.355   0.215 -0.3301  0.4677 -0.5035
  659SOL     OW 2633   2.158   1.437   0.993  0.5976  0.3541 -0.7663
  659SOL    HW1 2634   2.216   1.409   1.069  1.3948  2.5074  1.6338
  659SOL    HW2 2635   2.106   1.515   1.020  0.5352  0.5039 -0.9128
  659SOL     MW 2636   2.159   1.444   1.006  0.6945  0.6580 -0.4689
  660SOL     OW 2637   2.053   1.588   1.572 -0.0306 -0.3310  0.0429
  660SOL    HW1 2638   2.065   1.585   1.666 -0.4622  0.0676 -0.1018
  660SOL    HW2 2639   1.974   1.527   1.548 -1.5645 -0.2176  0.4499
  660SOL     MW 2640   2.044   1.579   1.581 -0.2899 -0.2635  0.0775
  661SOL     OW 2641   2.393   1.015   0.264 -0.2703  0.2624 -0.8121
  661SOL    HW1 2642   2.472   1.062   0.291  1.8260  2.5070  0.4349
  661SOL    HW2 2643   2.413   0.921   0.269  1.5961 -2.3667 -2.2642
  661SOL     MW 2644   2.406   1.009   0.268  0.2526  0.2117 -0.8392
  662SOL     OW 2645   2.534   2.987   0.784  0.2884 -0.4144  0.3707
  662SOL    HW1 2646   2.466   3.053   0.793  1.2957  0.1309 -3.1695
  662SOL    HW2 2647   2.606   3.028   0.730  1.8323 -0.4731 -0.8531
  662SOL     MW 2648   2.535   3.001   0.778  0.6250 -0.3502 -0.2579
  663SOL     OW 2649   2.753   1.539   0.390  0.1895  0.1561 -0.1804
  663SOL    HW1 2650   2.753   1.619   0.340  1.1408 -1.9983  0.4578
  663SOL    HW2 2651   2.799   1.568   0.466  0.4253 -2.0552 -5.0092
  663SOL     MW 2652   2.759   1.554   0.393  0.3462 -0.4199 -0.7333
  664SOL     OW 2653   2.518   1.514   1.594 -0.3387  0.6585  0.1196
  664SOL    HW1 2654   2.504   1.606   1.569 -1.8523  1.3319  1.5822
  664SOL    HW2 2655   2.445   1.466   1.555 -0.1747 -1.0060  0.3612
  664SOL     MW 2656   2.507   1.520   1.585 -0.5168  0.5278  0.3445
  665SOL     OW 2657   2.837   0.793   2.184 -0.6734 -0.0042  0.1758
  665SOL    HW1 2658   2.825   0.826   2.096 -2.6014  2.4317  1.6716
  665SOL    HW2 2659   2.912   0.727   2.191  0.2185  2.2528 -1.2541
  665SOL     MW 2660   2.845   0.788   2.174 -0.8101  0.6150  0.1845
  666SOL     OW 2661   2.839   2.959   1.689  0.7467  0.1053  0.1471
  666SOL    HW1 2662   2.825   2.970   1.595 -1.3668 -0.6203  1.4155
  666SOL    HW2 2663   2.787   2.874   1.711 -1.5698 -2.3779 -0.5689
  666SOL     MW 2664   2.830   2.950   1.680  0.1622 -0.3180  0.2200
  667SOL     OW 2665   1.969   2.683   1.723 -0.1683 -0.2523 -0.0168
  667SOL    HW1 2666   1.982   2.662   1.819 -0.2950 -2.5475 -1.3860
  667SOL    HW2 2667   2.052   2.736   1.704 -2.2810 -1.7692  1.9478
  667SOL     MW 2668   1.981   2.687   1.733 -0.4638 -0.7553  0.0618
  668SOL     OW 2669   2.753   0.605   0.808  0.3716  0.0415  0.0026
  668SOL    HW1 2670   2.802   0.609   0.891 -0.6591  1.8344  0.5000
  668SOL    HW2 2671   2.695   0.678   0.818  2.0199  1.8611  1.1279
  668SOL     MW 2672   2.752   0.615   0.820  0.4531  0.5181  0.2167
  669SOL     OW 2673   0.226   0.979   0.729  0.6690  0.1247  0.2364
  669SOL    HW1 2674   0.237   0.946   0.823 -0.2262  0.4269 -0.1645
  669SOL    HW2 2675   0.306   1.037   0.721 -0.9468 -1.9045 -1.6715
  669SOL     MW 2676   0.238   0.983   0.740  0.3377 -0.1031 -0.0682
  670SOL     OW 2677   2.928   0.331   0.231  0.0462 -0.0464 -0.4982
  670SOL    HW1 2678   2.937   0.264   0.154 -1.6157 -0.1424  0.7776
  670SOL    HW2 2679   2.966   0.411   0.196  1.0947 -2.5389  1.1069
  670SOL     MW 2680   2.934   0.333   0.216 -0.0348 -0.3879 -0.1181
  671SOL     OW 2681   2.074   3.024   1.515 -0.3029 -0.7038 -0.2915
  671SOL    HW1 2682   2.021   3.001   1.438  1.3793  0.8866 -1.1065
  671SOL    HW2 2683   2.017   3.049   1.587  0.5134 -0.5805 -0.9255
  671SOL     MW 2684   2.060   3.024   1.514  0.0268 -0.4777 -0.4827
  672SOL     OW 2685   1.791   1.818   1.294 -0.1673 -0.2564  0.0665
  672SOL    HW1 2686   1.808   1.911   1.328 -1.5179 -1.3187  0.4620
  672SOL    HW2 2687   1.824   1.827   1.208  0.5044  0.4920  0.1013
  672SOL     MW 2688   1.798   1.832   1.287 -0.2569 -0.2978  0.1233
  673SOL     OW 2689   2.821   1.085   0.546 -0.0529 -0.3678  0.3976
  673SOL    HW1 2690   2.801   1.041   0.625 -3.7369 -0.5829  1.5979
  673SOL    HW2 2691   2.907   1.120   0.566 -0.7979  0.1899 -2.0165
  673SOL     MW 2692   2.830   1.083   0.559 -0.6372 -0.3226  0.2375
  674SOL     OW 2693   2.468   3.047   1.140 -0.1823  0.2447 -0.6517
  674SOL    HW1 2694   2.418   3.086   1.065  0.9687  2.1788  0.7801
  674SOL    HW2 2695   2.501   2.960   1.105 -0.3514 -1.1414 -1.1897
  674SOL     MW 2696   2.466   3.041   1.126 -0.0528  0.3170 -0.5337
  675SOL     OW 2697   3.025   0.832   1.035  0.4347 -0.0399 -0.0681
  675SOL    HW1 2698   3.051   0.867   1.125 -4.8413 -0.3258  2.8697
  675SOL    HW2 2699   3.042   0.918   0.985  0.5888  2.2920 -2.8430
  675SOL     MW 2700   3.031   0.848   1.040 -0.2411  0.2301 -0.0466
  676SOL     OW 2701   2.907   1.391   1.761  0.1971  0.0273  0.2418
  676SOL    HW1 2702   2.875   1.312   1.722 -0.7856 -1.3558 -0.7896
  676SOL    HW2 2703   2.962   1.365   1.830 -0.7431  3.8861 -0.6931
  676SOL     MW 2704   2.910   1.377   1.765 -0.0566  0.3540 -0.0177
  677SOL     OW 2705   2.484   0.716   1.900 -0.4769 -0.2176  0.7066
  677SOL    HW1 2706   2.428   0.648   1.854 -0.0403 -2.1581 -1.3415
  677SOL    HW2 2707   2.419   0.784   1.933 -1.8729 -2.9140 -2.6266
  677SOL     MW 2708   2.468   0.716   1.898 -0.6035 -0.8294 -0.0034
  678SOL     OW 2709   2.377   1.559   0.318 -0.5422 -0.0482 -0.0219
  678SOL    HW1 2710   2.289   1.572   0.353  0.5456 -1.3422  0.5968
  678SOL    HW2 2711   2.370   1.511   0.231 -1.0610  0.9587  0.2105
  678SOL     MW 2712   2.365   1.554   0.311 -0.4671 -0.0860  0.0904
  679SOL     OW 2713   2.286   0.476   1.261  0.2162  0.2443  0.4217
  679SOL    HW1 2714   2.262   0.392   1.221 -0.7089  2.1905  0.6800
  679SOL    HW2 2715   2.219   0.486   1.326 -0.9959  0.3749 -0.9618
  679SOL     MW 2716   2.274   0.466   1.264 -0.0658  0.5183  0.2732
  680SOL     OW 2717   2.396   0.193   1.494 -0.2430  0.6281 -0.0180
  680SOL    HW1 2718   2.309   0.200   1.464  2.3714 -0.6720 -0.8930
  680SOL    HW2 2719   2.419   0.096   1.491 -0.1592 -2.5712  0.7749
  680SOL     MW 2720   2.387   0.181   1.490  0.1130  0.0344 -0.0289
  681SOL     OW 2721   0.228   0.577   1.438 -0.0510 -0.6195 -0.1252
  681SOL    HW1 2722   0.175   0.509   1.465  0.5963  0.3765 -2.8614
  681SOL    HW2 2723   0.251   0.558   1.340  1.6199  0.7088 -1.2063
  681SOL     MW 2724   0.224   0.565   1.429  0.2549 -0.3128 -0.6288
  682SOL     OW 2725   3.055   2.849   1.550  0.3717  0.5747 -0.1037
  682SOL    HW1 2726   3.133   2.908   1.549  1.7498 -5.1888 -3.4347
  682SOL    HW2 2727   2.995   2.879   1.619 -0.3299 -0.8510  0.9891
  682SOL     MW 2728   3.057   2.861   1.559  0.4609 -0.3739 -0.3990
  683SOL     OW 2729   2.124   0.768   3.035 -0.3350 -0.4009  0.1010
  683SOL    HW1 2730   2.058   0.697   3.023  2.1297 -0.0004 -0.4951
  683SOL    HW2 2731   2.082   0.857   3.060  2.0321  3.1208 -1.3218
  683SOL     MW 2732   2.110   0.770   3.036  0.3025  0.1166 -0.1654
  684SOL     OW 2733   2.042   1.785   0.677 -0.0215  0.3456 -0.0955
  684SOL    HW1 2734   2.067   1.736   0.595 -1.0068 -1.1211  1.5326
  684SOL    HW2 2735   1.976   1.727   0.722 -0.6898 -1.6659 -0.3499
  684SOL     MW 2736   2.036   1.771   0.672 -0.2397 -0.1133  0.0858
  685SOL     OW 2737   2.614   1.730   1.147  0.1548 -0.5504  0.1876
  685SOL    HW1 2738   2.662   1.698   1.221 -2.1277 -0.3781  1.7480
  685SOL    HW2 2739   2.569   1.656   1.113 -1.4957  0.1395 -2.3343
  685SOL     MW 2740   2.614   1.716   1.152 -0.3641 -0.4367  0.0607
  686SOL     OW 2741   2.865   0.643   1.524  0.1626 -0.0597 -0.7049
  686SOL    HW1 2742   2.860   0.621   1.616 -0.3425  1.4449  1.9274
  686SOL    HW2 2743   2.954   0.681   1.516 -1.5693  1.5012  0.3330
  686SOL     MW 2744   2.876   0.645   1.535 -0.1326  0.3447 -0.2207
  687SOL     OW 2745   2.192   0.238   1.157  0.0525  0.2170  0.5953
  687SOL    HW1 2746   2.267   0.209   1.102  0.4570 -0.0586  0.4747
  687SOL    HW2 2747   2.114   0.266   1.115 -0.8079 -0.6705  1.6119
  687SOL     MW 2748   2.191   0.238   1.144 -0.0077  0.0636  0.7135
  688SOL     OW 2749   2.436   0.582   1.485 -0.4080 -0.1984 -0.4795
  688SOL    HW1 2750   2.393   0.540   1.410 -2.4408  0.9163 -1.9528
  688SOL    HW2 2751   2.361   0.614   1.541 -0.6317  2.1759 -0.5427
  688SOL     MW 2752   2.421   0.581   1.483 -0.7058  0.2619 -0.6822
  689SOL     OW 2753   2.465   0.732   2.999 -0.7516 -0.9068 -0.1349
  689SOL    HW1 2754   2.386   0.744   3.051 -0.7693 -0.9236  0.9144
  689SOL    HW2 2755   2.536   0.762   3.057  1.6659  1.7686 -1.4940
  689SOL     MW 2756   2.464   0.738   3.014 -0.4350 -0.5560 -0.1758
  690SOL     OW 2757   2.053   0.963   1.853  0.3165 -0.0928  0.3802
  690SOL    HW1 2758   2.035   0.869   1.853  0.0595 -1.6706 -0.3259
  690SOL    HW2 2759   2.097   0.989   1.776  0.3218 -2.0043  2.1784
  690SOL     MW 2760   2.056   0.954   1.843  0.2833 -0.5531  0.5243
  691SOL     OW 2761   2.430   0.283   0.865  0.0300  0.0140 -0.6796
  691SOL    HW1 2762   2.529   0.285   0.868 -1.8152  0.5336  1.3328
  691SOL    HW2 2763   2.400   0.375   0.846 -3.2120  1.7417 -2.1958
  691SOL     MW 2764   2.439   0.295   0.863 -0.6412  0.3105 -0.6141
  692SOL     OW 2765   2.766   1.657   1.378  0.3224 -0.1664 -0.2129
  692SOL    HW1 2766   2.739   1.643   1.466  2.2842  4.9186 -0.8816
  692SOL    HW2 2767   2.834   1.721   1.387  0.6595  1.6294  0.5854
  692SOL     MW 2768   2.772   1.663   1.391  0.6257  0.7415 -0.1958
  693SOL     OW 2769   2.197   0.418   3.083 -0.0735  0.3771  0.2810
  693SOL    HW1 2770   2.178   0.334   3.122 -1.3361 -2.8774  0.0049
  693SOL    HW2 2771   2.141   0.483   3.124 -0.5169 -0.6445 -1.7027
  693SOL     MW 2772   2.187   0.416   3.093 -0.2986 -0.1871 -0.0171
  694SOL     OW 2773   1.961   1.173   1.175 -0.4117 -0.1914 -0.0507
  694SOL    HW1 2774   2.059   1.152   1.161 -0.2752  1.4106 -2.5957
  694SOL    HW2 2775   1.923   1.083   1.190  1.3675 -0.4609 -0.3878
  694SOL     MW 2776   1.969   1.158   1.175 -0.1590 -0.0156 -0.4309
  695SOL     OW 2777   2.938   1.414   1.329  0.7633 -0.2105  0.3542
  695SOL    HW1 2778   2.927   1.390   1.233  2.1171 -1.5957 -1.4453
  695SOL    HW2 2779   2.890   1.490   1.353 -1.4933 -3.1504  1.3306
  695SOL     MW 2780   2.931   1.421   1.320  0.6442 -0.7812  0.2456
  696SOL     OW 2781   2.069   1.320   0.754  0.4773  0.3404  0.8576
  696SOL    HW1 2782   2.101   1.357   0.839 -0.6538 -2.5995  2.6054
  696SOL    HW2 2783   1.988   1.281   0.790 -0.5315 -1.9044 -0.4866
  696SOL     MW 2784   2.062   1.320   0.770  0.1949 -0.3437  0.9109
  697SOL     OW 2785   2.918   1.035   2.264 -0.2463 -0.2138  0.1716
  697SOL    HW1 2786   2.839   1.092   2.237 -0.6912  0.5903  0.0156
  697SOL    HW2 2787   2.880   0.947   2.248  1.7148  1.7361 -0.4715
  697SOL     MW 2788   2.903   1.031   2.258 -0.0462  0.1495  0.0662
  698SOL     OW 2789   2.485   0.373   3.068 -0.5604  0.5945  0.1382
  698SOL    HW1 2790   2.404   0.416   3.076  2.6794 -1.2825 -3.4175
  698SOL    HW2 2791   2.524   0.361   3.158  0.4135  0.6185  0.8501
  698SOL     MW 2792   2.479   0.377   3.081 -0.0045  0.3500 -0.2370
  699SOL     OW 2793   1.869   1.544   1.996  0.4861 -0.3875  0.1669
  699SOL    HW1 2794   1.861   1.469   2.053 -1.1587  1.4657 -0.9621
  699SOL    HW2 2795   1.961   1.559   1.964  2.2333 -1.2226 -1.8889
  699SOL     MW 2796   1.880   1.536   1.999  0.4996 -0.2532 -0.2533
  700SOL     OW 2797   2.731   0.890   1.564  0.1150 -0.1234 -0.7390
  700SOL    HW1 2798   2.787   0.930   1.503 -1.3571  0.7329  0.5951
  700SOL    HW2 2799   2.756   0.799   1.566 -0.8082 -1.0250 -0.6809
  700SOL     MW 2800   2.741   0.883   1.556 -0.2011 -0.1294 -0.5553
  701SOL     OW 2801   1.649   1.059   2.554  0.4678 -0.0266  0.0262
  701SOL    HW1 2802   1.731   1.023   2.589 -2.2533  2.0532 -0.5235
  701SOL    HW2 2803   1.605   1.098   2.626  1.3029 -2.0444 -2.6140
  701SOL     MW 2804   1.654   1.059   2.568  0.2190 -0.0184 -0.3947
  702SOL     OW 2805   2.085   0.488   0.721  0.1147 -0.6430  0.1181
  702SOL    HW1 2806   2.093   0.403   0.682 -1.2020  1.3293  1.7532
  702SOL    HW2 2807   2.146   0.541   0.664 -1.1635  2.6662  1.4021
  702SOL     MW 2808   2.094   0.484   0.709 -0.2276  0.0538  0.5033
  703SOL     OW 2809   2.657   1.244   1.012  0.0977  0.3054 -0.1391
  703SOL    HW1 2810   2.647   1.236   0.917 -1.1838  0.0142 -0.2745
  703SOL    HW2 2811   2.660   1.155   1.047  2.2661  1.0853 -1.0536
  703SOL     MW 2812   2.656   1.231   1.004  0.2147  0.3699 -0.2776
  704SOL     OW 2813   3.080   1.259   0.202 -0.0401 -0.2965 -0.0450
  704SOL    HW1 2814   2.990   1.281   0.210  1.7328  0.7890 -2.2433
  704SOL    HW2 2815   3.123   1.244   0.288 -3.5494 -0.0846  0.2950
  704SOL     MW 2816   3.074   1.260   0.214 -0.2692 -0.1253 -0.2901
  705SOL     OW 2817   2.041   1.644   1.298 -0.4881  0.6006 -0.5675
  705SOL    HW1 2818   1.966   1.712   1.313 -1.8842  0.9956 -0.0958
  705SOL    HW2 2819   2.064   1.621   1.389  0.6932 -2.7126  1.2451
  705SOL     MW 2820   2.034   1.650   1.312 -0.5164  0.2156 -0.2661
  706SOL     OW 2821   3.051   1.202   0.636  0.0151  0.0585 -0.1244
  706SOL    HW1 2822   3.124   1.196   0.569  4.4387 -0.9865  1.6759
  706SOL    HW2 2823   3.032   1.292   0.661 -0.5846  0.0531 -0.7619
  706SOL     MW 2824   3.058   1.213   0.631  0.5197 -0.0801  0.0290
  707SOL     OW 2825   2.322   0.044   0.944 -0.2747  0.1391  0.0114
  707SOL    HW1 2826   2.346   0.128   0.896 -2.5726  0.6856 -1.8815
  707SOL    HW2 2827   2.250   0.005   0.904 -0.9787 -2.5874  0.5769
  707SOL     MW 2828   2.316   0.050   0.932 -0.6708 -0.1486 -0.1637
  708SOL     OW 2829   2.382   1.423   0.071 -0.1508  0.0853  0.3839
  708SOL    HW1 2830   2.466   1.399   0.110  0.6346 -0.2813 -1.6116
  708SOL    HW2 2831   2.394   1.431  -0.024 -0.6442  0.0136 -0.7789
  708SOL     MW 2832   2.395   1.421   0.064 -0.1123  0.0275 -0.0328
  709SOL     OW 2833   1.670   1.571   0.212 -0.3206 -0.4739 -0.4807
  709SOL    HW1 2834   1.665   1.577   0.114 -0.0839 -1.8485 -1.4436
  709SOL    HW2 2835   1.578   1.567   0.252 -0.3466 -0.9403 -2.0524
  709SOL     MW 2836   1.657   1.571   0.204 -0.2928 -0.7168 -0.8151
  710SOL     OW 2837   2.227   1.121   1.140 -0.7311 -0.1664  0.0641
  710SOL    HW1 2838   2.259   1.075   1.063  1.1880 -2.5219  0.2993
  710SOL    HW2 2839   2.265   1.072   1.214  0.4716 -2.9581 -0.5546
  710SOL     MW 2840   2.236   1.108   1.139 -0.3192 -0.8455  0.0135
  711SOL     OW 2841   2.380   0.115   1.758 -0.1935  0.1886  0.3104
  711SOL    HW1 2842   2.477   0.098   1.754 -1.9171 -0.2403 -1.8588
  711SOL    HW2 2843   2.373   0.153   1.671  2.0884 -1.7993 -0.3109
  711SOL     MW 2844   2.392   0.118   1.746 -0.1198 -0.1303 -0.0578
  712SOL     OW 2845   1.888   0.641   3.071  0.1743  0.0706  0.2295
  712SOL    HW1 2846   1.847   0.675   2.993 -1.1814  0.9029  1.3010
  712SOL    HW2 2847   1.858   0.690   3.153  1.9299  0.3658 -1.5085
  712SOL     MW 2848   1.878   0.652   3.071  0.2271  0.2193  0.1416
  713SOL     OW 2849   2.589   0.709   1.114 -0.0464  0.0873  0.3421
  713SOL    HW1 2850   2.585   0.617   1.123 -0.7269  0.3079  0.4517
  713SOL    HW2 2851   2.568   0.738   1.204 -0.5789  0.8813 -0.1091
  713SOL     MW 2852   2.585   0.700   1.127 -0.2065  0.2212  0.2970
  714SOL     OW 2853   2.277   0.206   1.984  0.1115 -0.0136  0.3031
  714SOL    HW1 2854   2.305   0.172   2.070  0.3937  0.0852  0.1374
  714SOL    HW2 2855   2.317   0.160   1.907  2.8943  3.8473  0.5531
  714SOL     MW 2856   2.286   0.196   1.985  0.5159  0.5088  0.3142
  715SOL     OW 2857   1.841   1.977   1.715  0.3335  0.0283  0.0178
  715SOL    HW1 2858   1.935   1.988   1.748  0.4222 -0.2554  1.0140
  715SOL    HW2 2859   1.818   1.892   1.750 -0.9302 -0.2315  0.0120
  715SOL     MW 2860   1.851   1.967   1.724  0.1784 -0.0434  0.1485
  716SOL     OW 2861   2.434   0.543   0.734  0.0778 -0.2511 -0.0461
  716SOL    HW1 2862   2.498   0.532   0.671 -2.4357  2.2071  1.0836
  716SOL    HW2 2863   2.362   0.553   0.678 -0.9647  1.0514  0.2063
  716SOL     MW 2864   2.433   0.543   0.718 -0.3914  0.2451  0.1363
  717SOL     OW 2865   2.774   1.666   2.824  0.1534  0.0956  0.4624
  717SOL    HW1 2866   2.854   1.626   2.857  0.2264  1.0481 -1.1276
  717SOL    HW2 2867   2.723   1.667   2.900 -0.4483  0.5667  1.0899
  717SOL     MW 2868   2.778   1.661   2.838  0.0837  0.2834  0.3354
  718SOL     OW 2869   2.661   1.312   1.368  0.2907  0.3272  0.4720
  718SOL    HW1 2870   2.570   1.298   1.328  0.5006 -1.5561  0.3905
  718SOL    HW2 2871   2.657   1.397   1.410 -1.8130  0.4819  3.1516
  718SOL     MW 2872   2.649   1.321   1.368  0.0408  0.0991  0.8148
  719SOL     OW 2873   2.180   1.212   0.527  0.3334 -0.3471 -0.5040
  719SOL    HW1 2874   2.271   1.247   0.515 -0.7712 -0.1881  1.7648
  719SOL    HW2 2875   2.147   1.256   0.615 -2.9726 -2.9449  1.3036
  719SOL     MW 2876   2.187   1.222   0.537 -0.2485 -0.6688  0.0338
  720SOL     OW 2877   2.812   1.248   0.049 -0.4817 -0.0617  0.4573
  720SOL    HW1 2878   2.813   1.148   0.065  0.0571 -1.2462  1.3810
  720SOL    HW2 2879   2.736   1.276   0.101 -2.5632 -0.6543  0.4646
  720SOL     MW 2880   2.802   1.238   0.058 -0.6852 -0.2962  0.5801
  721SOL     OW 2881   2.542   0.800   1.360 -0.2047 -0.4757  0.0193
  721SOL    HW1 2882   2.513   0.717   1.402 -0.4667  0.1699  1.6101
  721SOL    HW2 2883   2.594   0.827   1.435  1.6222  0.1719  3.0866
  721SOL     MW 2884   2.545   0.792   1.376  0.0018 -0.3051  0.6339
  722SOL     OW 2885   2.613   1.144   0.377  0.4351  0.2971  0.3090
  722SOL    HW1 2886   2.567   1.190   0.447  2.9251  0.6646  0.6706
  722SOL    HW2 2887   2.685   1.096   0.417  1.5943  1.6901 -0.4685
  722SOL     MW 2888   2.617   1.144   0.391  0.9166  0.5294  0.2542
  723SOL     OW 2889   2.265   1.384   1.549 -0.0308  0.9933 -0.4064
  723SOL    HW1 2890   2.251   1.367   1.456 -3.0166  0.4875  0.5084
  723SOL    HW2 2891   2.180   1.414   1.572  2.5632 -0.5061  0.2431
  723SOL     MW 2892   2.252   1.385   1.540 -0.0825  0.7287 -0.2000
  724SOL     OW 2893   2.438   0.216   0.603  0.1847 -0.5079  0.0160
  724SOL    HW1 2894   2.415   0.213   0.696 -0.2357 -1.2356  1.6922
  724SOL    HW2 2895   2.526   0.254   0.608 -0.2107 -1.7611  2.3487
  724SOL     MW 2896   2.447   0.220   0.616  0.0771 -0.7693  0.5450
  725SOL     OW 2897   2.625   0.385   1.139 -0.0716 -0.0417 -0.5242
  725SOL    HW1 2898   2.686   0.423   1.201 -1.6389 -1.4653 -2.5834
  725SOL    HW2 2899   2.602   0.303   1.180 -0.0823 -0.5156  1.9663
  725SOL     MW 2900   2.630   0.379   1.153 -0.2798 -0.2921 -0.4673
  726SOL     OW 2901   2.454   2.459   0.425 -0.4393 -0.0936 -0.1896
  726SOL    HW1 2902   2.491   2.545   0.406 -1.9668 -1.2095 -0.2251
  726SOL    HW2 2903   2.369   2.476   0.460 -1.8049  0.7006  2.6879
  726SOL     MW 2904   2.448   2.473   0.427 -0.8210 -0.1361  0.1854
  727SOL     OW 2905   2.844   0.308   1.743 -0.2589 -0.0969  0.0763
  727SOL    HW1 2906   2.753   0.313   1.714 -1.7628 -0.6468  0.1032
  727SOL    HW2 2907   2.842   0.272   1.835 -1.6284 -2.0583  3.6217
  727SOL     MW 2908   2.832   0.304   1.751 -0.6380 -0.4282  0.5476
  728SOL     OW 2909   2.801   1.233   2.873  0.1920  0.5409  0.4089
  728SOL    HW1 2910   2.865   1.303   2.857 -2.5535 -0.4170 -1.0605
  728SOL    HW2 2911   2.776   1.248   2.963  0.3385 -0.9239 -0.9248
  728SOL     MW 2912   2.806   1.245   2.883 -0.1509  0.2212  0.0391
  729SOL     OW 2913   2.502   1.499   1.053 -1.0724 -0.2374  0.0204
  729SOL    HW1 2914   2.573   1.433   1.054 -2.4662 -2.0795  0.6812
  729SOL    HW2 2915   2.472   1.495   0.960 -0.5852  2.4206 -0.5285
  729SOL     MW 2916   2.508   1.490   1.041 -1.1920 -0.1298  0.0351
  730SOL     OW 2917   2.166   1.161   0.200  0.2968  0.0584 -0.1239
  730SOL    HW1 2918   2.249   1.111   0.223  1.5275 -0.8905  1.1432
  730SOL    HW2 2919   2.199   1.245   0.166  1.4168  2.1113  1.2930
  730SOL     MW 2920   2.181   1.166   0.199  0.6070  0.2040  0.2302
  731SOL     OW 2921   2.786   1.972   2.942  0.3316  0.1638  0.6594
  731SOL    HW1 2922   2.741   1.969   2.855 -0.5886 -0.1656 -2.0331
  731SOL    HW2 2923   2.877   2.002   2.933  1.4324 -0.8246 -1.1814
  731SOL     MW 2924   2.792   1.976   2.929  0.3554 -0.0101  0.0613
  732SOL     OW 2925   2.335   0.997   1.332 -0.0906 -0.0019  0.2007
  732SOL    HW1 2926   2.275   0.958   1.393  0.3595  3.0321 -2.2260
  732SOL    HW2 2927   2.410   0.938   1.320 -0.1907  0.5433  1.2703
  732SOL     MW 2928   2.337   0.984   1.338 -0.0444  0.4704  0.0216
  733SOL     OW 2929   2.407   2.687   2.974  0.4456 -0.1209 -0.2954
  733SOL    HW1 2930   2.338   2.754   3.001 -1.5072 -0.3483 -0.4533
  733SOL    HW2 2931   2.347   2.616   2.970 -0.1952  2.1373  0.5185
  733SOL     MW 2932   2.390   2.686   2.977  0.1034  0.1470 -0.2088
  734SOL     OW 2933   1.532   0.257   2.539  0.2755 -0.3172  0.3180
  734SOL    HW1 2934   1.506   0.227   2.626  0.6030 -0.8563  1.3398
  734SOL    HW2 2935   1.468   0.212   2.489  1.9867 -0.5360  0.3265
  734SOL     MW 2936   1.520   0.247   2.544  0.5445 -0.4172  0.4539
  735SOL     OW 2937   3.036   0.878   2.655  0.0219  0.1971 -0.5430
  735SOL    HW1 2938   3.043   0.783   2.660  2.3362 -0.7780  2.4238
  735SOL    HW2 2939   3.031   0.908   2.745 -2.9254  2.6568 -0.7752
  735SOL     MW 2940   3.036   0.870   2.667 -0.0616  0.3930 -0.1822
  736SOL     OW 2941   0.159   0.582   2.556  0.4928 -0.0982  0.4300
  736SOL    HW1 2942   0.131   0.650   2.494 -1.1105  0.7445 -0.7294
  736SOL    HW2 2943   0.228   0.528   2.514  0.3283  0.2994  0.4245
  736SOL     MW 2944   0.164   0.583   2.542  0.2595  0.0655  0.2763
  737SOL     OW 2945   2.993   0.590   2.645  0.2868  0.7875  0.4810
  737SOL    HW1 2946   2.929   0.614   2.576 -0.6824  0.2754 -0.1336
  737SOL    HW2 2947   3.081   0.573   2.609 -1.8683  0.9652  0.3289
  737SOL     MW 2948   2.996   0.591   2.631 -0.1255  0.7434  0.3798
  738SOL     OW 2949   0.142   0.434   1.860  0.3667  0.8683 -0.6417
  738SOL    HW1 2950   0.231   0.441   1.889 -0.8568 -1.0090 -0.2125
  738SOL    HW2 2951   0.138   0.396   1.767  0.0927 -1.5732  1.0458
  738SOL     MW 2952   0.154   0.430   1.851  0.1691  0.2985 -0.3625
  739SOL     OW 2953   2.501   0.958   2.119  0.1865  0.1675  0.7195
  739SOL    HW1 2954   2.419   0.925   2.081 -2.2710  0.5239  1.1245
  739SOL    HW2 2955   2.578   0.951   2.065  0.1408 -3.3632 -0.5660
  739SOL     MW 2956   2.501   0.953   2.106 -0.1438 -0.2513  0.6033
  740SOL     OW 2957   0.192   1.804   2.942 -0.2791 -0.5939  0.2528
  740SOL    HW1 2958   0.194   1.718   2.970  0.9570  1.4249 -0.6109
  740SOL    HW2 2959   0.266   1.850   2.992  1.1894  1.6175  0.3109
  740SOL     MW 2960   0.202   1.799   2.952  0.0777 -0.0358  0.1465
  741SOL     OW 2961   2.302   1.185   2.706 -0.0077 -0.1252 -0.0928
  741SOL    HW1 2962   2.245   1.250   2.656  0.2009  2.7096 -0.3685
  741SOL    HW2 2963   2.264   1.180   2.796 -0.5981 -0.2275 -1.6095
  741SOL     MW 2964   2.289   1.193   2.711 -0.0581  0.2353 -0.3293
  742SOL     OW 2965   1.529   1.264   2.388  0.1942  0.7050  0.3012
  742SOL    HW1 2966   1.432   1.254   2.380 -1.3882  3.2562 -2.8403
  742SOL    HW2 2967   1.566   1.176   2.395 -1.1083  0.0960  1.8759
  742SOL     MW 2968   1.521   1.251   2.388 -0.1864  0.9613  0.0945
  743SOL     OW 2969   2.565   1.241   2.684  0.2201  0.7276 -0.2809
  743SOL    HW1 2970   2.474   1.228   2.732 -0.0978  2.0942  1.7456
  743SOL    HW2 2971   2.620   1.177   2.732 -0.5406  0.5546 -1.0037
  743SOL     MW 2972   2.560   1.230   2.697  0.0778  0.8851 -0.1089
  744SOL     OW 2973   2.704   0.917   1.912  0.9714  0.5912 -0.7830
  744SOL    HW1 2974   2.660   1.001   1.882 -0.9383 -0.2935 -2.9119
  744SOL    HW2 2975   2.665   0.853   1.852  0.4231 -2.5201  1.4098
  744SOL     MW 2976   2.693   0.919   1.900  0.6471  0.0640 -0.7745
  745SOL     OW 2977   1.725   0.448   2.469  0.0565 -0.3331 -0.1890
  745SOL    HW1 2978   1.706   0.486   2.384 -1.8516  0.4682  0.0532
  745SOL    HW2 2979   1.668   0.368   2.470 -0.9357 -0.8057 -2.3959
  745SOL     MW 2980   1.715   0.443   2.458 -0.3262 -0.2898 -0.4482
  746SOL     OW 2981   1.613   1.560   1.682  0.3665  0.5793  0.2249
  746SOL    HW1 2982   1.656   1.644   1.695 -2.6938 -0.8074 -1.0750
  746SOL    HW2 2983   1.632   1.519   1.769 -0.5039  2.5116  0.6868
  746SOL     MW 2984   1.622   1.566   1.695 -0.1521  0.6513  0.1143
  747SOL     OW 2985   2.563   1.125   1.804 -0.6739  0.6977 -0.2745
  747SOL    HW1 2986   2.487   1.122   1.743 -2.6153  0.3339 -0.2193
  747SOL    HW2 2987   2.552   1.200   1.854  1.5937 -0.7342  1.2478
  747SOL     MW 2988   2.551   1.134   1.802 -0.6309  0.4608 -0.0664
  748SOL     OW 2989   0.070   0.126   1.851 -0.0216 -0.2163 -0.0004
  748SOL    HW1 2990   0.158   0.088   1.848  1.9031 -0.9170 -2.8869
  748SOL    HW2 2991   0.088   0.217   1.858 -0.9317 -0.4779  0.7231
  748SOL     MW 2992   0.084   0.133   1.852  0.1123 -0.3432 -0.2858
  749SOL     OW 2993   2.555   0.611   2.783 -0.7938  0.8761 -0.4561
  749SOL    HW1 2994   2.577   0.697   2.741  0.1734  0.5673 -1.0515
  749SOL    HW2 2995   2.523   0.643   2.870 -0.0964 -0.5920 -1.4294
  749SOL     MW 2996   2.554   0.627   2.789 -0.5742  0.6416 -0.6631
  750SOL     OW 2997   2.080   3.091   1.941  0.9927 -0.1524 -0.0369
  750SOL    HW1 2998   2.127   3.176   1.935 -0.9630  1.4927  0.0405
  750SOL    HW2 2999   2.144   3.024   1.911  2.0789 -0.4132 -2.3234
  750SOL     MW 3000   2.095   3.094   1.937  0.8780  0.0303 -0.3283
  751SOL     OW 3001   0.276   0.343   2.371 -0.3523 -0.1942 -0.1205
  751SOL    HW1 3002   0.236   0.283   2.437 -1.0749  0.5898 -2.1113
  751SOL    HW2 3003   0.263   0.306   2.279  0.2753 -4.6904  0.2254
  751SOL     MW 3004   0.269   0.330   2.368 -0.3648 -0.6840 -0.3376
  752SOL     OW 3005   2.131   0.832   2.723 -0.3524  0.1726 -0.6430
  752SOL    HW1 3006   2.207   0.859   2.668  2.2501  0.5237 -0.8026
  752SOL    HW2 3007   2.156   0.840   2.817  1.8685  0.3982  0.4695
  752SOL     MW 3008   2.144   0.837   2.728  0.2840  0.2487 -0.5173
  753SOL     OW 3009   2.775   0.112   2.435 -0.5586  0.1055 -0.3390
  753SOL    HW1 3010   2.780   0.015   2.420  1.8013  2.3383 -1.0090
  753SOL    HW2 3011   2.771   0.147   2.348  0.3521  0.5862  0.6898
  753SOL     MW 3012   2.775   0.104   2.422 -0.1271  0.4635 -0.2916
  754SOL     OW 3013   2.276   2.948   2.636 -0.5813  0.0693 -0.1816
  754SOL    HW1 3014   2.277   2.952   2.537  1.5040  4.1619  0.7492
  754SOL    HW2 3015   2.360   2.911   2.660 -0.0725  0.5071  3.6061
  754SOL     MW 3016   2.287   2.944   2.626 -0.2391  0.6670  0.4409
  755SOL     OW 3017   2.732   1.553   2.432 -0.2999 -0.1911 -0.2228
  755SOL    HW1 3018   2.762   1.476   2.483  1.6396 -1.4807  1.3051
  755SOL    HW2 3019   2.763   1.635   2.476 -3.8223 -0.9450 -2.1673
  755SOL     MW 3020   2.740   1.553   2.444 -0.5087 -0.4607 -0.2778
  756SOL     OW 3021   2.197   1.197   2.957 -0.0104 -0.0295 -0.7633
  756SOL    HW1 3022   2.272   1.263   2.948 -1.2723  3.1861  1.2394
  756SOL    HW2 3023   2.237   1.124   3.006  0.8530  1.5858  0.0759
  756SOL     MW 3024   2.212   1.196   2.962 -0.0630  0.6079 -0.3883
  757SOL     OW 3025   2.164   0.954   1.568 -0.0986  0.2732  0.0164
  757SOL    HW1 3026   2.190   0.874   1.619  0.6158  1.7454  0.1054
  757SOL    HW2 3027   2.069   0.938   1.540 -2.4777 -0.1405  0.4055
  757SOL     MW 3028   2.155   0.941   1.571 -0.3183  0.4129  0.0795
  758SOL     OW 3029   2.195   1.775   2.607 -0.2284 -0.4569 -0.1687
  758SOL    HW1 3030   2.195   1.812   2.515 -2.1529 -2.4941 -2.5071
  758SOL    HW2 3031   2.284   1.753   2.619 -1.9994 -0.6260 -0.7143
  758SOL     MW 3032   2.207   1.777   2.596 -0.7160 -0.7480 -0.5492
  759SOL     OW 3033   1.557   1.283   2.700 -0.1608 -1.0386 -0.5339
  759SOL    HW1 3034   1.530   1.327   2.618 -2.4801 -2.1937  0.0819
  759SOL    HW2 3035   1.617   1.349   2.746  0.4728 -0.4967 -0.4357
  759SOL     MW 3036   1.561   1.297   2.695 -0.3832 -1.1195 -0.4397
  760SOL     OW 3037   2.672   1.957   2.697 -0.1457  0.0469  0.1239
  760SOL    HW1 3038   2.635   1.863   2.689 -0.1074  0.9266  1.3403
  760SOL    HW2 3039   2.703   1.976   2.609  1.2163 -2.2622 -0.8868
  760SOL     MW 3040   2.672   1.947   2.685  0.0391 -0.1417  0.1511
  761SOL     OW 3041   2.215   0.367   2.537 -0.0478 -0.2566 -0.3563
  761SOL    HW1 3042   2.133   0.329   2.568 -3.0405  0.6417  0.8362
  761SOL    HW2 3043   2.242   0.436   2.596 -0.6787 -3.5648  1.4021
  761SOL     MW 3044   2.207   0.371   2.549 -0.5259 -0.5746  0.0331
  762SOL     OW 3045   3.075   0.277   2.136 -0.1713  0.3161 -0.3952
  762SOL    HW1 3046   3.067   0.196   2.190 -2.6417  0.3013 -0.1620
  762SOL    HW2 3047   3.039   0.347   2.190 -0.2182  1.6177  1.0587
  762SOL     MW 3048   3.069   0.275   2.150 -0.5034  0.4859 -0.1726
  763SOL     OW 3049   2.374   1.026   2.336 -0.2747  0.2098  0.2186
  763SOL    HW1 3050   2.418   1.006   2.255  0.8150  0.2403  2.9483
  763SOL    HW2 3051   2.427   1.092   2.376  1.5298 -2.7274 -1.4608
  763SOL     MW 3052   2.387   1.032   2.331  0.1071 -0.1737  0.3572
  764SOL     OW 3053   0.424   0.302   2.855 -0.5207  0.4907 -0.0235
  764SOL    HW1 3054   0.340   0.265   2.819 -0.2041  0.1623  0.7183
  764SOL    HW2 3055   0.412   0.368   2.924 -0.7449  0.3328 -1.0364
  764SOL     MW 3056   0.412   0.306   2.860 -0.5085  0.4266 -0.0593
  765SOL     OW 3057   2.736   2.950   2.384  0.3074 -0.3892 -0.2744
  765SOL    HW1 3058   2.688   2.963   2.302 -0.5973 -0.6624 -1.4081
  765SOL    HW2 3059   2.816   2.909   2.354 -0.6700 -1.5330  0.8026
  765SOL     MW 3060   2.741   2.946   2.370  0.0590 -0.5762 -0.2819
  766SOL     OW 3061   1.910   2.997   2.141 -0.4980 -0.3051 -0.3432
  766SOL    HW1 3062   1.958   3.054   2.078  1.8306  2.3674  0.5744
  766SOL    HW2 3063   1.857   2.943   2.092  0.3863  0.4474 -1.3320
  766SOL     MW 3064   1.910   2.998   2.126 -0.0741  0.1468 -0.3526
  767SOL     OW 3065   2.661   0.599   2.076  0.4282 -0.4167 -0.0160
  767SOL    HW1 3066   2.699   0.669   2.127 -0.7163  0.6146 -1.6742
  767SOL    HW2 3067   2.592   0.648   2.026  1.0077  0.7516  1.1346
  767SOL     MW 3068   2.657   0.615   2.076  0.3537 -0.1265 -0.0830
  768SOL     OW 3069   2.977   1.558   2.958  0.1538  0.1917  0.2266
  768SOL    HW1 3070   2.996   1.558   3.057 -1.4137  1.7303  1.7600
  768SOL    HW2 3071   3.045   1.510   2.925 -3.0376 -0.4393 -0.8402
  768SOL     MW 3072   2.989   1.552   2.967 -0.4741  0.3114  0.2882
  769SOL     OW 3073   2.532   0.629   2.435  0.4238 -0.1377  0.3161
  769SOL    HW1 3074   2.466   0.642   2.370  4.4670  2.4856  0.9054
  769SOL    HW2 3075   2.621   0.613   2.400 -1.3440 -2.8128  0.6878
  769SOL     MW 3076   2.535   0.628   2.421  0.7240 -0.1446  0.4429
  770SOL     OW 3077   3.058   1.610   2.514  0.0930  0.1750 -0.3197
  770SOL    HW1 3078   2.989   1.651   2.567  3.2525 -1.9934  2.2508
  770SOL    HW2 3079   3.030   1.518   2.499 -1.0234 -3.5312  0.6583
  770SOL     MW 3080   3.046   1.603   2.519  0.3626 -0.6001  0.1485
  771SOL     OW 3081   3.063   0.623   1.954 -0.3144  0.4642 -0.6498
  771SOL    HW1 3082   3.013   0.670   1.890 -1.5569 -1.0219 -1.0306
  771SOL    HW2 3083   3.129   0.564   1.920  0.1798  3.5998  0.7059
  771SOL     MW 3084   3.065   0.621   1.941 -0.4131  0.6819 -0.5212
  772SOL     OW 3085   0.027   3.087   2.255  0.1166 -0.0949 -0.3956
  772SOL    HW1 3086  -0.027   3.009   2.266 -0.6615 -1.0329 -1.6705
  772SOL    HW2 3087   0.116   3.046   2.231  0.6574 -0.8041 -3.0867
  772SOL     MW 3088   0.032   3.071   2.253  0.0853 -0.3122 -0.9189
  773SOL     OW 3089   2.503   2.795   2.736 -0.1662 -0.2657 -0.6915
  773SOL    HW1 3090   2.479   2.726   2.673 -0.2133  1.9227 -0.1505
  773SOL    HW2 3091   2.490   2.749   2.818  0.9641  2.3898 -1.7283
  773SOL     MW 3092   2.498   2.780   2.738 -0.0233  0.3734 -0.7570
  774SOL     OW 3093   2.319   1.155   1.713  0.3882  0.0915 -0.5894
  774SOL    HW1 3094   2.306   1.237   1.661  0.1621  1.1550  1.4075
  774SOL    HW2 3095   2.294   1.082   1.657 -0.1170 -0.3004  1.3892
  774SOL     MW 3096   2.314   1.156   1.699  0.2917  0.1801 -0.0649
  775SOL     OW 3097   2.311   2.926   2.351  0.5044  0.0765 -0.3022
  775SOL    HW1 3098   2.320   3.009   2.304 -1.7404 -1.8633 -1.7196
  775SOL    HW2 3099   2.350   2.859   2.301 -0.8285 -1.4299 -1.4884
  775SOL     MW 3100   2.317   2.928   2.338  0.0323 -0.3782 -0.6457
  776SOL     OW 3101   0.025   1.502   0.091  0.0134 -0.8611 -0.0495
  776SOL    HW1 3102   0.124   1.477   0.078  2.4297  0.2628  0.6355
  776SOL    HW2 3103   0.007   1.421   0.148  1.8947  1.7337  0.4571
  776SOL     MW 3104   0.036   1.488   0.097  0.5804 -0.3704  0.1077
  777SOL     OW 3105   2.960   1.000   1.788 -0.2052  0.5486 -0.0767
  777SOL    HW1 3106   2.925   1.065   1.733  3.5486  0.1620  0.8939
  777SOL    HW2 3107   2.897   0.989   1.855  2.2671  1.3042 -0.9040
  777SOL     MW 3108   2.947   1.007   1.790  0.6162  0.5973 -0.0578
  778SOL     OW 3109   2.909   0.368   2.790  0.2642 -0.2423 -0.2799
  778SOL    HW1 3110   2.871   0.372   2.878  4.0623 -0.8346  0.9669
  778SOL    HW2 3111   2.946   0.459   2.771  0.2559  2.8103 -0.5164
  778SOL     MW 3112   2.909   0.380   2.799  0.7642  0.0823 -0.1466
  779SOL     OW 3113   2.097   0.514   2.310  0.3379 -0.2256 -0.5204
  779SOL    HW1 3114   2.047   0.575   2.364  2.0453 -0.9736  0.8110
  779SOL    HW2 3115   2.105   0.449   2.378 -3.8163  1.4430 -0.0274
  779SOL     MW 3116   2.092   0.514   2.326  0.0151 -0.1042 -0.2797
  780SOL     OW 3117   0.208   0.160   2.795 -0.0338  0.4318  0.0548
  780SOL    HW1 3118   0.144   0.191   2.863 -0.3295  1.6025  0.9915
  780SOL    HW2 3119   0.169   0.159   2.711  1.7828  1.4439  0.6650
  780SOL     MW 3120   0.194   0.164   2.793  0.1669  0.7198  0.2589
  781SOL     OW 3121   3.059   1.337   2.369  0.6902  0.0140 -0.0466
  781SOL    HW1 3122   3.026   1.404   2.311 -1.4692 -2.4698  2.6155
  781SOL    HW2 3123   3.134   1.299   2.331 -2.5589  0.2714 -0.6748
  781SOL     MW 3124   3.064   1.341   2.357 -0.0234 -0.2797  0.2217
  782SOL     OW 3125   0.550   1.519   3.073 -0.4189  0.3583  0.0960
  782SOL    HW1 3126   0.488   1.593   3.072  0.5960 -0.9930  2.0704
  782SOL    HW2 3127   0.553   1.500   3.168  1.8462 -1.2155 -3.0017
  782SOL     MW 3128   0.542   1.527   3.086  0.0138 -0.0277 -0.0522
  783SOL     OW 3129   2.803   0.585   2.454 -0.7125  0.1951  0.0505
  783SOL    HW1 3130   2.860   0.588   2.376  0.9344  0.2161 -0.2283
  783SOL    HW2 3131   2.771   0.498   2.493  1.1653  0.4059  1.0349
  783SOL     MW 3132   2.806   0.574   2.449 -0.2475  0.2257  0.1436
  784SOL     OW 3133   0.210   0.913   2.857 -0.1946 -0.2076 -0.4294
  784SOL    HW1 3134   0.242   0.987   2.909 -0.0916 -2.6537 -2.2126
  784SOL    HW2 3135   0.213   0.954   2.775  1.2410  0.8561  3.5205
  784SOL     MW 3136   0.215   0.928   2.853  0.0084 -0.3900 -0.1435
  785SOL     OW 3137   0.355   0.551   2.125  0.5007  0.1328 -0.1262
  785SOL    HW1 3138   0.356   0.583   2.033  0.0922  0.8791 -0.4513
  785SOL    HW2 3139   0.326   0.464   2.139  3.2870  1.4056  0.6736
  785SOL     MW 3140   0.351   0.544   2.115  0.8144  0.3992 -0.0635
  786SOL     OW 3141   2.043   0.460   2.824  0.5002 -0.2519 -0.1013
  786SOL    HW1 3142   2.063   0.414   2.905 -0.0574 -1.2242  0.8798
  786SOL    HW2 3143   2.128   0.516   2.795  1.1064  0.3398 -1.1639
  786SOL     MW 3144   2.057   0.461   2.831  0.5066 -0.3021 -0.1120
  787SOL     OW 3145   2.483   0.145   2.895  0.3818 -0.1577 -0.2636
  787SOL    HW1 3146   2.533   0.156   2.812 -0.2541 -0.7538 -0.6344
  787SOL    HW2 3147   2.488   0.233   2.941  0.7866  0.9030 -0.4002
  787SOL     MW 3148   2.490   0.158   2.890  0.3513 -0.0964 -0.3305
  788SOL     OW 3149   2.977   2.875   2.298  0.1947 -0.7358  0.3022
  788SOL    HW1 3150   2.950   2.803   2.242 -1.2834  1.3337 -0.4379
  788SOL    HW2 3151   3.023   2.821   2.355  0.0124  0.9454 -1.1777
  788SOL     MW 3152   2.980   2.858   2.298 -0.0243 -0.2409  0.0093
  789SOL     OW 3153   0.079   0.280   3.030  0.2897 -0.0080 -0.4152
  789SOL    HW1 3154  -0.005   0.236   3.036  0.3628 -0.9714  0.0480
  789SOL    HW2 3155   0.109   0.272   3.116  0.7244 -1.4552  0.1783
  789SOL     MW 3156   0.072   0.273   3.042  0.3567 -0.3261 -0.2758
  790SOL     OW 3157   0.037   1.020   2.458  0.4554 -0.4947  0.3697
  790SOL    HW1 3158  -0.009   0.966   2.527  1.1340 -0.0422  0.9294
  790SOL    HW2 3159  -0.031   1.064   2.412 -0.9885  1.0834  2.0512
  790SOL     MW 3160   0.022   1.019   2.461  0.3544 -0.2268  0.6654
  791SOL     OW 3161   2.685   0.420   2.646 -0.4648  0.1754  0.5522
  791SOL    HW1 3162   2.635   0.479   2.706  0.5601 -0.5448 -0.8611
  791SOL    HW2 3163   2.759   0.392   2.698 -1.9369  0.9074 -0.4209
  791SOL     MW 3164   2.688   0.424   2.660 -0.5238  0.1770  0.2374
  792SOL     OW 3165   2.459   0.264   2.375  0.4778 -0.0927  0.3673
  792SOL    HW1 3166   2.384   0.306   2.421  4.1806 -0.0826  1.7120
  792SOL    HW2 3167   2.511   0.236   2.452  0.1843  1.8436  3.1589
  792SOL     MW 3168   2.456   0.266   2.391  0.9276  0.1641  0.9130
  793SOL     OW 3169   1.758   1.014   1.873  0.4622  0.3203 -0.3484
  793SOL    HW1 3170   1.739   1.085   1.804  2.6839  0.1136 -0.6874
  793SOL    HW2 3171   1.855   1.021   1.877 -2.0661 -2.0659 -1.2150
  793SOL     MW 3172   1.768   1.024   1.864  0.4217 -0.0218 -0.5074
  794SOL     OW 3173   1.419   2.301   0.153 -0.1388  0.0451 -0.2183
  794SOL    HW1 3174   1.416   2.368   0.080 -0.3772 -0.5244  0.6258
  794SOL    HW2 3175   1.464   2.344   0.228 -0.0090 -1.5959  2.0346
  794SOL     MW 3176   1.424   2.315   0.154 -0.1531 -0.2466  0.1903
  795SOL     OW 3177   2.341   0.931   2.586 -0.3429 -0.2635  0.3742
  795SOL    HW1 3178   2.337   0.999   2.653  1.0247  0.4497 -0.0072
  795SOL    HW2 3179   2.353   0.972   2.498  0.0986 -0.1172  1.0817
  795SOL     MW 3180   2.342   0.946   2.584 -0.1042 -0.1501  0.4173
  796SOL     OW 3181   0.278   0.666   2.773 -0.2989  0.4309  0.1031
  796SOL    HW1 3182   0.264   0.760   2.779  3.1409 -0.0708 -1.4530
  796SOL    HW2 3183   0.248   0.644   2.684  0.3043  0.3789  0.3448
  796SOL     MW 3184   0.272   0.675   2.762  0.2346  0.3579 -0.0703
  797SOL     OW 3185   2.581   0.162   2.606 -0.2298 -0.0256 -0.1341
  797SOL    HW1 3186   2.620   0.244   2.632  1.3942  2.1611  1.0506
  797SOL    HW2 3187   2.650   0.120   2.549  0.0036 -0.6316  1.5724
  797SOL     MW 3188   2.595   0.167   2.602  0.0153  0.1830  0.2474
  798SOL     OW 3189   2.336   0.063   2.225 -0.2301 -0.2275 -0.0708
  798SOL    HW1 3190   2.369   0.142   2.276 -0.0014  0.8347 -1.1652
  798SOL    HW2 3191   2.420   0.028   2.190  0.3682  1.3176 -0.0281
  798SOL     MW 3192   2.352   0.069   2.227 -0.1210  0.1165 -0.2096
  799SOL     OW 3193   2.523   2.879   0.200 -0.2907 -0.1814  0.5365
  799SOL    HW1 3194   2.576   2.854   0.124  0.8213 -0.3315  0.5225
  799SOL    HW2 3195   2.455   2.935   0.157  0.2369  1.0016 -0.1992
  799SOL     MW 3196   2.521   2.883   0.184 -0.0744 -0.0452  0.4376
  800SOL     OW 3197   1.899   3.086   1.727 -0.3459  0.1769 -0.0867
  800SOL    HW1 3198   1.836   3.013   1.747  1.3461 -0.6171  2.4951
  800SOL    HW2 3199   1.953   3.080   1.803 -2.1898 -0.7877  0.7861
  800SOL     MW 3200   1.898   3.076   1.739 -0.3659 -0.0551  0.3691
  801SOL     OW 3201   2.848   1.313   2.558  0.2454 -0.5217 -0.4915
  801SOL    HW1 3202   2.820   1.227   2.585  0.3688  0.4464 -0.2849
  801SOL    HW2 3203   2.914   1.299   2.486 -1.0258 -0.9665 -1.2678
  801SOL     MW 3204   2.853   1.300   2.552  0.0939 -0.4527 -0.5667
  802SOL     OW 3205   2.570   1.511   2.756 -0.1927 -0.2765 -0.1400
  802SOL    HW1 3206   2.585   1.414   2.746 -2.3656 -0.7207 -0.2731
  802SOL    HW2 3207   2.658   1.563   2.763  2.7803 -0.9781  1.2572
  802SOL     MW 3208   2.583   1.505   2.755 -0.0871 -0.4277  0.0268
  803SOL     OW 3209   2.254   1.331   1.968  0.5717  0.2299  0.3739
  803SOL    HW1 3210   2.217   1.285   2.050  0.3234 -1.2670 -0.8180
  803SOL    HW2 3211   2.251   1.264   1.900 -1.4848 -0.3151  0.8904
  803SOL     MW 3212   2.248   1.316   1.970  0.2676 -0.0395  0.2848
  804SOL     OW 3213   2.369   3.086   0.053 -0.2812  0.2091  0.2452
  804SOL    HW1 3214   2.292   3.154   0.044  0.4423 -0.1545 -1.2960
  804SOL    HW2 3215   2.442   3.123   0.005 -1.1709  3.6343  0.7842
  804SOL     MW 3216   2.369   3.100   0.046 -0.3031  0.6130  0.1130
  805SOL     OW 3217   2.796   1.033   2.634 -0.4119  0.0715  0.2818
  805SOL    HW1 3218   2.720   0.977   2.605 -0.2611 -1.4111 -1.1389
  805SOL    HW2 3219   2.877   0.981   2.617 -0.8582 -1.6376  0.4209
  805SOL     MW 3220   2.797   1.019   2.628 -0.4509 -0.3497  0.1127
  806SOL     OW 3221   2.659   0.329   2.191  0.5929 -0.0559  0.0330
  806SOL    HW1 3222   2.577   0.322   2.246  0.3496 -1.4432  1.8501
  806SOL    HW2 3223   2.650   0.415   2.152 -1.5432  2.3217 -1.6129
  806SOL     MW 3224   2.647   0.339   2.193  0.2789  0.0747  0.0556
  807SOL     OW 3225   0.058   1.090   2.121 -0.2095 -0.5199 -0.2541
  807SOL    HW1 3226   0.096   1.022   2.065  1.1981 -1.1664  1.0791
  807SOL    HW2 3227  -0.018   1.046   2.160 -2.6912 -0.9263 -1.4469
  807SOL     MW 3228   0.053   1.075   2.119 -0.3512 -0.6588 -0.2356
  808SOL     OW 3229   2.653   3.042   2.756  0.1400 -0.7852 -0.6403
  808SOL    HW1 3230   2.590   2.971   2.744  0.3994 -1.1371 -1.7736
  808SOL    HW2 3231   2.635   3.108   2.687  0.3284 -0.3373 -2.2714
  808SOL     MW 3232   2.643   3.041   2.745  0.1991 -0.7726 -1.0050
  809SOL     OW 3233   2.547   1.240   2.412  0.4166  0.1687  0.0733
  809SOL    HW1 3234   2.591   1.246   2.492  0.6136 -0.2842  1.1052
  809SOL    HW2 3235   2.606   1.251   2.340  0.2109  2.8206 -0.8857
  809SOL     MW 3236   2.560   1.242   2.413  0.4154  0.4589  0.0829
  810SOL     OW 3237   2.203   1.241   2.250 -0.3160 -0.1165  0.0741
  810SOL    HW1 3238   2.267   1.171   2.284  0.2391 -0.9571  2.1639
  810SOL    HW2 3239   2.121   1.212   2.293  0.6179  0.0111  0.9191
  810SOL     MW 3240   2.201   1.228   2.260 -0.1196 -0.2106  0.4613
  811SOL     OW 3241   1.488   0.059   2.248  0.0828 -0.0465  0.6605
  811SOL    HW1 3242   1.567   0.012   2.275 -0.9197  0.1546  0.7220
  811SOL    HW2 3243   1.467   0.059   2.159  0.1135  0.2013 -0.6088
  811SOL     MW 3244   1.495   0.053   2.239 -0.0454  0.0127  0.5011
  812SOL     OW 3245   1.486   2.741   2.105  0.1896 -0.4012  0.0200
  812SOL    HW1 3246   1.574   2.748   2.075  0.8986 -0.6933 -0.0992
  812SOL    HW2 3247   1.486   2.718   2.197 -1.3962  0.8476  0.2953
  812SOL     MW 3248   1.497   2.739   2.113  0.0739 -0.2750  0.0406
  813SOL     OW 3249   1.851   0.712   2.146 -0.1558  0.5735  0.6428
  813SOL    HW1 3250   1.785   0.642   2.133 -2.4100 -0.0895 -0.1852
  813SOL    HW2 3251   1.871   0.732   2.240 -0.7733  3.5959 -0.2992
  813SOL     MW 3252   1.845   0.705   2.156 -0.5347  0.8848  0.4093
  814SOL     OW 3253   2.812   1.172   1.650  0.0399 -0.0538  0.7492
  814SOL    HW1 3254   2.722   1.148   1.677 -1.5802  2.0735  0.8573
  814SOL    HW2 3255   2.802   1.164   1.559 -0.8179  1.4653  2.7056
  814SOL     MW 3256   2.798   1.168   1.642 -0.2871  0.4273  1.0216
  815SOL     OW 3257   2.493   1.671   2.363 -0.4345 -0.2298 -0.1939
  815SOL    HW1 3258   2.428   1.599   2.354  0.6247  3.1463 -1.2990
  815SOL    HW2 3259   2.583   1.638   2.393  2.6381  2.3574  3.0974
  815SOL     MW 3260   2.496   1.657   2.366  0.1107  0.5570  0.0945
  816SOL     OW 3261   0.691   0.723   2.763  0.5204  0.4122  0.4733
  816SOL    HW1 3262   0.738   0.662   2.823  2.7402  0.0554  1.3033
  816SOL    HW2 3263   0.694   0.666   2.681  2.8424  0.3363  0.6776
  816SOL     MW 3264   0.698   0.707   2.760  1.1196  0.3551  0.6097
  817SOL     OW 3265   0.005   1.187   1.334  0.7936  0.0105  0.2671
  817SOL    HW1 3266   0.060   1.174   1.409 -0.7413 -0.1385 -1.0090
  817SOL    HW2 3267  -0.017   1.282   1.322 -3.1419  1.6445 -0.6061
  817SOL     MW 3268   0.010   1.198   1.342  0.0718  0.2064 -0.0165
  818SOL     OW 3269   1.916   1.024   2.667  0.0244  0.0506 -0.0232
  818SOL    HW1 3270   1.941   1.072   2.583  0.4974  0.1665 -1.9931
  818SOL    HW2 3271   1.992   0.967   2.688  0.9076 -1.2278 -1.6453
  818SOL     MW 3272   1.929   1.023   2.658  0.2034 -0.1027 -0.4971
  819SOL     OW 3273   1.970   0.181   2.329  0.4126 -0.2197 -0.0312
  819SOL    HW1 3274   2.047   0.130   2.292  2.5905 -0.4854 -1.0579
  819SOL    HW2 3275   1.987   0.178   2.425 -2.9437 -1.3289 -0.7548
  819SOL     MW 3276   1.982   0.174   2.336  0.2571 -0.4011 -0.2621
  820SOL     OW 3277   2.474   1.742   2.632 -0.0148 -0.0946 -0.0893
  820SOL    HW1 3278   2.508   1.665   2.681 -0.5513  1.1095  0.9591
  820SOL    HW2 3279   2.477   1.716   2.541 -0.6266 -1.8574  1.2129
  820SOL     MW 3280   2.479   1.729   2.627 -0.1663 -0.1683  0.2208
  821SOL     OW 3281   2.524   1.325   2.005  0.1153 -0.3871 -0.1670
  821SOL    HW1 3282   2.562   1.401   1.964  1.5705 -0.2029  0.0864
  821SOL    HW2 3283   2.424   1.338   2.013 -0.5400  0.6601 -1.5107
  821SOL     MW 3284   2.516   1.336   2.000  0.2209 -0.2247 -0.3109
  822SOL     OW 3285   2.899   2.624   1.430 -0.4071  0.3507 -0.2492
  822SOL    HW1 3286   2.815   2.652   1.393  0.8422 -1.4226  0.6248
  822SOL    HW2 3287   2.938   2.703   1.461 -0.9509 -2.6021  0.8087
  822SOL     MW 3288   2.893   2.638   1.430 -0.3140 -0.2728  0.0057
  823SOL     OW 3289   2.365   0.477   1.822 -0.0661 -0.5728  0.3903
  823SOL    HW1 3290   2.434   0.434   1.769 -0.2624 -0.5215 -1.3452
  823SOL    HW2 3291   2.291   0.410   1.816 -0.7388  0.2926  1.2460
  823SOL     MW 3292   2.364   0.462   1.814 -0.1807 -0.4519  0.2742
  824SOL     OW 3293   2.135   1.359   2.561  0.9572  0.3224 -0.2587
  824SOL    HW1 3294   2.209   1.409   2.527 -2.1177 -0.8051  3.1109
  824SOL    HW2 3295   2.089   1.434   2.601  2.9850  1.2540 -0.1842
  824SOL     MW 3296   2.139   1.376   2.562  0.8190  0.2965  0.1957
  825SOL     OW 3297   2.084   2.324   0.364 -0.1949  0.5164 -0.2763
  825SOL    HW1 3298   2.117   2.337   0.278 -1.5980 -0.2224 -0.8766
  825SOL    HW2 3299   2.159   2.313   0.417  0.5341  0.8023 -0.9485
  825SOL     MW 3300   2.098   2.324   0.360 -0.2838  0.4567 -0.4442
  826SOL     OW 3301   1.825   2.445   0.456  0.8427 -0.3100  0.1279
  826SOL    HW1 3302   1.816   2.379   0.522  1.2989  0.6897  0.9267
  826SOL    HW2 3303   1.913   2.478   0.462  2.2271  0.2645  0.8783
  826SOL     MW 3304   1.835   2.441   0.465  1.0856 -0.1023  0.3323
  827SOL     OW 3305   1.878   2.241   0.902 -0.4685  0.1905  0.1737
  827SOL    HW1 3306   1.830   2.251   0.818 -3.8624 -0.0072  2.6084
  827SOL    HW2 3307   1.838   2.159   0.941  1.3257 -1.5707  0.5220
  827SOL     MW 3308   1.867   2.232   0.896 -0.6796 -0.0679  0.5409
  828SOL     OW 3309   0.056   2.675   0.519 -0.0620  0.4843  0.1770
  828SOL    HW1 3310   0.117   2.716   0.583  0.9089 -1.2257  0.9744
  828SOL    HW2 3311   0.077   2.708   0.434 -0.6368 -0.1128  1.1619
  828SOL     MW 3312   0.067   2.685   0.516 -0.0097  0.1799  0.4121
  829SOL     OW 3313   2.932   2.897   1.139 -0.7187  0.4524 -0.5109
  829SOL    HW1 3314   2.836   2.892   1.119  1.5954 -1.2777  0.1933
  829SOL    HW2 3315   2.966   2.810   1.103 -0.7481 -0.1039  1.0912
  829SOL     MW 3316   2.924   2.885   1.132 -0.4173  0.1507 -0.2066
  830SOL     OW 3317   2.516   2.870   2.013 -0.2355  0.7136  0.2180
  830SOL    HW1 3318   2.438   2.907   1.957  0.3381 -0.1397 -1.7399
  830SOL    HW2 3319   2.581   2.831   1.951  1.6255  0.8553 -0.3351
  830SOL     MW 3320   2.514   2.870   1.997  0.0857  0.6197 -0.1133
  831SOL     OW 3321   2.445   2.397   1.183  0.1633 -0.5637 -0.1211
  831SOL    HW1 3322   2.450   2.323   1.248 -2.0585 -4.2290  2.3627
  831SOL    HW2 3323   2.539   2.410   1.169  0.3517  1.5269  0.9338
  831SOL     MW 3324   2.458   2.389   1.190 -0.1050 -0.7715  0.3458
  832SOL     OW 3325   2.406   2.132   1.887  0.1872 -0.6568 -0.0891
  832SOL    HW1 3326   2.419   2.228   1.906  0.6739  0.2885 -1.6044
  832SOL    HW2 3327   2.478   2.109   1.830  0.5893 -0.1623 -4.2543
  832SOL     MW 3328   2.417   2.142   1.882  0.3045 -0.4668 -0.8386
  833SOL     OW 3329   1.621   2.500   0.839  0.0160  0.3530  0.5819
  833SOL    HW1 3330   1.584   2.453   0.916  1.5475  1.2436 -0.9776
  833SOL    HW2 3331   1.567   2.579   0.836  0.7314  0.0689 -1.8326
  833SOL     MW 3332   1.609   2.504   0.849  0.3125  0.4330  0.0575
  834SOL     OW 3333   2.231   2.426   0.621  0.5164  0.3258  0.1073
  834SOL    HW1 3334   2.204   2.334   0.632 -0.0959  1.0528 -0.5074
  834SOL    HW2 3335   2.317   2.426   0.676 -3.4070  1.7481  0.2396
  834SOL     MW 3336   2.239   2.414   0.630 -0.0821  0.6094  0.0436
  835SOL     OW 3337   1.872   2.625   0.705  0.9123 -0.0421 -0.0069
  835SOL    HW1 3338   1.811   2.567   0.756 -1.0635 -3.0970  2.9607
  835SOL    HW2 3339   1.952   2.622   0.748 -1.4865  0.3203  1.9225
  835SOL     MW 3340   1.875   2.617   0.717  0.3351 -0.3973  0.6392
  836SOL     OW 3341   2.070   2.074   1.820 -0.1484  0.3918  0.4169
  836SOL    HW1 3342   2.136   2.013   1.852  0.5170  1.9142  0.2074
  836SOL    HW2 3343   2.118   2.157   1.825  2.1320  0.3308  0.0997
  836SOL     MW 3344   2.085   2.077   1.825  0.2403  0.5846  0.3474
  837SOL     OW 3345   2.082   0.187   0.642  0.3603 -0.1052 -0.7214
  837SOL    HW1 3346   2.011   0.197   0.581  0.7903 -0.3632 -1.4620
  837SOL    HW2 3347   2.147   0.141   0.591 -1.4833  0.8649 -0.6562
  837SOL     MW 3348   2.081   0.182   0.627  0.1738 -0.0112 -0.8105
  838SOL     OW 3349   2.930   2.056   0.955 -1.0265 -0.0240  0.3692
  838SOL    HW1 3350   2.848   2.004   0.940 -0.1932  1.5853  1.2283
  838SOL    HW2 3351   2.966   2.023   1.039  1.4703  2.5738  0.7802
  838SOL     MW 3352   2.924   2.045   0.964 -0.5871  0.5311  0.5367
  839SOL     OW 3353   1.536   2.453   1.090  0.5834  0.4027  0.0631
  839SOL    HW1 3354   1.510   2.525   1.157  2.8646 -1.5431  0.7723
  839SOL    HW2 3355   1.556   2.375   1.144  4.8445 -3.5698  0.8322
  839SOL     MW 3356   1.536   2.452   1.106  1.4466 -0.3782  0.2582
  840SOL     OW 3357   2.362   2.096   2.323 -0.1140 -0.3395 -0.0979
  840SOL    HW1 3358   2.304   2.175   2.305  0.8487  2.7231  0.5125
  840SOL    HW2 3359   2.410   2.130   2.401 -1.4874  0.0174 -0.5588
  840SOL     MW 3360   2.361   2.111   2.331 -0.1682  0.1117 -0.0782
  841SOL     OW 3361   2.222   2.332   0.103 -0.8844 -0.1304  0.0399
  841SOL    HW1 3362   2.238   2.389   0.026  1.2213 -0.7878 -2.2186
  841SOL    HW2 3363   2.149   2.278   0.067  0.3495 -0.4786 -1.4225
  841SOL     MW 3364   2.215   2.333   0.088 -0.4438 -0.2631 -0.4510
  842SOL     OW 3365   2.688   1.969   1.494  0.8355 -0.0544 -0.2286
  842SOL    HW1 3366   2.644   1.882   1.484 -0.1068  0.4967  0.9152
  842SOL    HW2 3367   2.683   2.016   1.412 -0.0593  0.0821 -1.1920
  842SOL     MW 3368   2.682   1.963   1.482  0.5932  0.0363 -0.2048
  843SOL     OW 3369   2.724   2.749   1.820  0.9051 -0.1737  0.0232
  843SOL    HW1 3370   2.802   2.711   1.856  1.5789 -1.5548  1.3330
  843SOL    HW2 3371   2.695   2.676   1.761  0.2392  2.1040  1.3303
  843SOL     MW 3372   2.730   2.734   1.817  0.9061 -0.0554  0.3685
  844SOL     OW 3373   2.700   2.361   1.126  0.2785 -0.2222  0.4622
  844SOL    HW1 3374   2.723   2.403   1.040 -0.3136 -1.0739 -0.8905
  844SOL    HW2 3375   2.771   2.371   1.183  0.2085  0.9668 -0.0222
  844SOL     MW 3376   2.713   2.368   1.122  0.1911 -0.1777  0.2198
  845SOL     OW 3377   2.817   2.616   0.248  0.0025  0.1483 -0.6987
  845SOL    HW1 3378   2.853   2.540   0.301  1.9609 -1.6203  1.2241
  845SOL    HW2 3379   2.834   2.694   0.304 -2.5813  3.0742 -0.3031
  845SOL     MW 3380   2.824   2.616   0.263 -0.0800  0.3010 -0.3928
  846SOL     OW 3381   1.470   2.744   0.779  0.5847  0.3130 -0.2341
  846SOL    HW1 3382   1.522   2.823   0.770 -1.0184  1.4100  0.5500
  846SOL    HW2 3383   1.376   2.771   0.778  1.5521 -0.1939  1.5974
  846SOL     MW 3384   1.465   2.758   0.778  0.5008  0.3909  0.1110
  847SOL     OW 3385   2.427   1.827   0.230 -0.0932  0.0927 -0.0579
  847SOL    HW1 3386   2.411   1.732   0.233  1.4151 -3.6371 -0.1935
  847SOL    HW2 3387   2.373   1.868   0.157 -1.1952  2.3380 -3.2845
  847SOL     MW 3388   2.418   1.820   0.221 -0.0396 -0.1032 -0.5015
  848SOL     OW 3389   2.718   2.106   1.231 -0.5847  0.0675  0.2606
  848SOL    HW1 3390   2.719   2.191   1.176  1.1474 -1.0285 -5.6620
  848SOL    HW2 3391   2.807   2.090   1.256  0.4435 -0.3444  0.0516
  848SOL     MW 3392   2.730   2.115   1.227 -0.2205 -0.1315 -0.5484
  849SOL     OW 3393   1.866   2.855   0.836  0.5072  0.1665  0.1020
  849SOL    HW1 3394   1.829   2.826   0.922 -2.1846  0.5905  1.6613
  849SOL    HW2 3395   1.858   2.774   0.775 -2.1911 -0.0186 -0.3902
  849SOL     MW 3396   1.860   2.841   0.840 -0.2040  0.1980  0.2428
  850SOL     OW 3397   2.327   1.920   1.617  0.1959 -0.4855  0.3793
  850SOL    HW1 3398   2.238   1.902   1.579 -0.7457 -0.1615  2.0135
  850SOL    HW2 3399   2.330   2.017   1.606  0.7388  0.2716  0.0054
  850SOL     MW 3400   2.316   1.930   1.611  0.1433 -0.3428  0.5456
  851SOL     OW 3401   2.582   2.234   0.377 -0.9693 -0.4327 -0.2485
  851SOL    HW1 3402   2.553   2.213   0.289  0.4640  1.3943 -1.5945
  851SOL    HW2 3403   2.543   2.317   0.404  1.6263  2.8241 -1.8481
  851SOL     MW 3404   2.573   2.242   0.369 -0.4378  0.2381 -0.6372
  852SOL     OW 3405   2.349   2.054   0.394  0.1111  0.3615 -0.0188
  852SOL    HW1 3406   2.411   2.112   0.354  0.2081  0.7440 -1.6939
  852SOL    HW2 3407   2.373   1.966   0.353  0.8464  0.9715  0.2118
  852SOL     MW 3408   2.360   2.050   0.383  0.2209  0.4925 -0.2094
  853SOL     OW 3409   2.510   2.389   1.927  0.1220  0.3210  0.3626
  853SOL    HW1 3410   2.544   2.422   1.842 -0.1722  1.7874 -0.9055
  853SOL    HW2 3411   2.587   2.394   1.984  0.5229 -0.8654  1.3914
  853SOL     MW 3412   2.525   2.394   1.923  0.1361  0.3579  0.3310
  854SOL     OW 3413   2.886   2.285   0.744  0.5288  0.0181  0.1307
  854SOL    HW1 3414   2.819   2.221   0.709 -0.0849  1.6369  0.5784
  854SOL    HW2 3415   2.918   2.237   0.824 -0.8568  1.7123 -0.7737
  854SOL     MW 3416   2.881   2.270   0.750  0.2650  0.4552  0.0704
  855SOL     OW 3417   2.821   2.379   0.412  0.1344 -0.2634 -0.0857
  855SOL    HW1 3418   2.737   2.341   0.387  0.6449 -1.9806  0.9439
  855SOL    HW2 3419   2.884   2.312   0.391  0.7034  0.7991 -0.1025
  855SOL     MW 3420   2.818   2.365   0.406  0.2768 -0.3498  0.0479
  856SOL     OW 3421   2.057   1.832   0.247 -0.2612 -0.0975 -0.1412
  856SOL    HW1 3422   1.964   1.815   0.262  1.4864 -2.5339 -1.2823
  856SOL    HW2 3423   2.070   1.919   0.286  1.4360 -1.3358  0.3546
  856SOL     MW 3424   2.047   1.842   0.254  0.1933 -0.5823 -0.2263
  857SOL     OW 3425   2.468   1.968   0.601 -0.2738  0.0134  0.5299
  857SOL    HW1 3426   2.420   2.013   0.533 -2.8186 -0.0721  3.3244
  857SOL    HW2 3427   2.400   1.943   0.663 -2.9947 -0.7604  1.0452
  857SOL     MW 3428   2.452   1.971   0.600 -0.9685 -0.1000  0.9666
  858SOL     OW 3429   2.978   2.678   1.921  0.2564 -0.1800  0.3178
  858SOL    HW1 3430   3.016   2.767   1.900 -2.4167  2.7014  0.1773
  858SOL    HW2 3431   2.998   2.618   1.848 -2.6240  0.2793  0.7946
  858SOL     MW 3432   2.986   2.682   1.909 -0.4763  0.2607  0.3622
  859SOL     OW 3433   1.775   2.655   1.048 -0.2484  0.2757  0.2911
  859SOL    HW1 3434   1.697   2.620   1.001 -2.8063 -0.0644 -1.5282
  859SOL    HW2 3435   1.837   2.584   1.053  1.5629 -0.9036  2.0691
  859SOL     MW 3436   1.773   2.641   1.042 -0.3469  0.0752  0.2857
  860SOL     OW 3437   2.647   2.552   0.041 -0.1349  0.3568 -0.4326
  860SOL    HW1 3438   2.670   2.595   0.122  1.5013 -1.0771 -1.7565
  860SOL    HW2 3439   2.666   2.624  -0.017 -1.7912 -2.4371 -0.0514
  860SOL     MW 3440   2.653   2.567   0.044 -0.1375 -0.2010 -0.5570
  861SOL     OW 3441   1.564   2.195   1.166 -0.3271 -0.0802 -0.4149
  861SOL    HW1 3442   1.607   2.220   1.251  0.2962 -0.4869  0.3765
  861SOL    HW2 3443   1.492   2.135   1.184  0.3067  0.6442  0.7818
  861SOL     MW 3444   1.560   2.191   1.179 -0.1613 -0.0383 -0.1526
  862SOL     OW 3445   2.509   1.768   1.449  0.3115 -0.1592 -0.3950
  862SOL    HW1 3446   2.432   1.810   1.498  0.7343  2.4820 -0.3480
  862SOL    HW2 3447   2.489   1.742   1.357  0.3412 -2.6745  0.2929
  862SOL     MW 3448   2.496   1.770   1.443  0.3712 -0.1426 -0.2981
  863SOL     OW 3449   2.886   1.638   0.969 -0.1001  0.4838 -0.2764
  863SOL    HW1 3450   2.841   1.678   1.040  0.6901  0.5554 -0.4943
  863SOL    HW2 3451   2.827   1.651   0.896  0.6955  2.6461  1.5360
  863SOL     MW 3452   2.872   1.645   0.969  0.1091  0.7786 -0.0661
  864SOL     OW 3453   3.056   1.774   0.790  0.0647 -0.1661  0.2493
  864SOL    HW1 3454   3.005   1.747   0.864 -0.3156  1.5479  0.2025
  864SOL    HW2 3455   2.989   1.799   0.726  0.4598 -1.3807  1.1295
  864SOL     MW 3456   3.041   1.774   0.791  0.0666 -0.1002  0.3593
  865SOL     OW 3457   2.448   2.172   0.109 -0.7549  0.4697  0.0007
  865SOL    HW1 3458   2.417   2.096   0.062 -1.7878  0.0643 -0.9694
  865SOL    HW2 3459   2.370   2.228   0.090 -3.9071  0.9587  1.6182
  865SOL     MW 3460   2.434   2.170   0.101 -1.3071  0.4808  0.0861
  866SOL     OW 3461   2.718   2.330   1.533 -0.1400  0.3808  0.5326
  866SOL    HW1 3462   2.710   2.245   1.570  1.6233 -1.8031  2.0347
  866SOL    HW2 3463   2.771   2.314   1.450  0.6442 -0.9877 -1.2647
  866SOL     MW 3464   2.724   2.317   1.527  0.1961 -0.0879  0.4937
  867SOL     OW 3465   0.122   2.718   1.696 -0.4791  0.0170  0.1989
  867SOL    HW1 3466   0.114   2.778   1.765 -1.4024 -0.9749 -0.7346
  867SOL    HW2 3467   0.054   2.736   1.631  0.6573  3.3487 -2.2139
  867SOL     MW 3468   0.112   2.728   1.696 -0.4510  0.3257 -0.2426
  868SOL     OW 3469   2.735   2.583   0.564 -0.2376 -0.1691  0.2710
  868SOL    HW1 3470   2.767   2.511   0.509  0.4221 -1.1626 -0.9874
  868SOL    HW2 3471   2.671   2.626   0.513 -1.1045 -0.5984  0.8734
  868SOL     MW 3472   2.731   2.579   0.550 -0.2649 -0.3568  0.1844
  869SOL     OW 3473   1.959   2.457   1.067  0.5212 -0.8016  0.7931
  869SOL    HW1 3474   2.001   2.490   0.988 -1.5213  0.2180 -1.4804
  869SOL    HW2 3475   1.896   2.392   1.038 -0.2754  0.7724 -0.9687
  869SOL     MW 3476   1.957   2.453   1.053  0.1466 -0.4594  0.2607
  870SOL     OW 3477   2.175   3.089   0.460  0.2128 -0.7177 -0.0274
  870SOL    HW1 3478   2.245   3.139   0.424  2.3246 -0.0373 -1.4181
  870SOL    HW2 3479   2.222   3.011   0.488  0.4890  2.3107 -1.0866
  870SOL     MW 3480   2.190   3.085   0.459  0.5279 -0.2283 -0.3506
  871SOL     OW 3481   2.482   2.060   0.912  0.3515  0.3350  0.0460
  871SOL    HW1 3482   2.396   2.019   0.891  2.5502  1.1585 -0.2463
  871SOL    HW2 3483   2.439   2.138   0.955  1.3683 -1.2801 -0.7942
  871SOL     MW 3484   2.465   2.065   0.915  0.7757  0.2306 -0.1034
  872SOL     OW 3485   2.103   2.479   1.618 -0.5767  0.2795  0.0837
  872SOL    HW1 3486   2.031   2.537   1.647 -0.4234 -0.7469  0.8552
  872SOL    HW2 3487   2.059   2.406   1.572 -0.0408 -1.9181  1.4518
  872SOL     MW 3488   2.088   2.477   1.615 -0.4857 -0.1459  0.3660
  873SOL     OW 3489   2.875   2.106   1.833  0.0653 -0.1043  0.0375
  873SOL    HW1 3490   2.854   2.158   1.911 -0.5233 -0.0144  0.1003
  873SOL    HW2 3491   2.960   2.128   1.800  0.2926  0.6241 -0.8433
  873SOL     MW 3492   2.884   2.115   1.839  0.0177  0.0036 -0.0705
  874SOL     OW 3493   2.343   1.441   2.385  0.0433  0.5598  0.5752
  874SOL    HW1 3494   2.304   1.379   2.313  0.6713  1.6826 -0.2244
  874SOL    HW2 3495   2.415   1.391   2.423 -1.5755  2.6419 -1.2558
  874SOL     MW 3496   2.347   1.426   2.381 -0.0875  0.9827  0.2281
  875SOL     OW 3497   2.322   2.285   0.991 -0.4959 -0.4178 -0.2382
  875SOL    HW1 3498   2.334   2.344   0.918  0.1986  0.4218  1.0737
  875SOL    HW2 3499   2.371   2.326   1.061 -0.8889 -1.2127 -2.1037
  875SOL     MW 3500   2.330   2.298   0.991 -0.4561 -0.4119 -0.3112
  876SOL     OW 3501   0.045   2.192   1.286 -0.1059  0.2236  0.0803
  876SOL    HW1 3502   0.104   2.242   1.229  2.8506 -0.6626 -0.3814
  876SOL    HW2 3503   0.075   2.211   1.377 -0.1435 -3.7319 -0.5438
  876SOL     MW 3504   0.057   2.201   1.291  0.2793 -0.4152 -0.0630
  877SOL     OW 3505   0.080   2.801   0.267  0.3759 -0.1411 -0.1807
  877SOL    HW1 3506   0.159   2.852   0.260 -2.4267 -1.1312 -0.6045
  877SOL    HW2 3507   0.084   2.734   0.198  1.2267  2.1127  1.1479
  877SOL     MW 3508   0.091   2.799   0.257  0.1184  0.0256 -0.0613
  878SOL     OW 3509   2.264   1.750   1.160  0.2153  0.2230  0.6545
  878SOL    HW1 3510   2.203   1.730   1.235  0.5498  0.7679 -1.7157
  878SOL    HW2 3511   2.322   1.690   1.124 -0.8670 -0.4958 -0.7882
  878SOL     MW 3512   2.264   1.740   1.165  0.1166  0.2001  0.1514
  879SOL     OW 3513   2.687   2.459   0.868 -0.4068 -0.1395  0.0445
  879SOL    HW1 3514   2.761   2.524   0.877 -1.7715  0.6197 -0.5580
  879SOL    HW2 3515   2.718   2.395   0.804  1.5449  1.5567 -0.9844
  879SOL     MW 3516   2.701   2.459   0.861 -0.3294  0.1845 -0.1708
  880SOL     OW 3517   2.634   2.175   0.694  0.5027 -0.0520 -0.8068
  880SOL    HW1 3518   2.561   2.120   0.725 -0.9963 -3.6645  1.5490
  880SOL    HW2 3519   2.601   2.204   0.612  0.7667 -0.4360  2.5350
  880SOL     MW 3520   2.620   2.171   0.687  0.3398 -0.5793 -0.0550
  881SOL     OW 3521   2.945   2.680   0.710 -0.6941 -0.3344  0.6404
  881SOL    HW1 3522   2.866   2.644   0.671  1.3024 -0.5757  1.5498
  881SOL    HW2 3523   3.012   2.666   0.639  1.0135 -0.1064 -2.7777
  881SOL     MW 3524   2.943   2.674   0.695 -0.2053 -0.3361  0.3094
  882SOL     OW 3525   2.274   2.903   1.899  0.1222 -0.0488 -0.1092
  882SOL    HW1 3526   2.262   2.888   1.805 -0.2808  1.1138 -1.0653
  882SOL    HW2 3527   2.242   2.828   1.945  3.1856 -1.6828  2.2942
  882SOL     MW 3528   2.268   2.891   1.893  0.4732 -0.1110  0.0818
  883SOL     OW 3529   2.422   2.182   1.337 -0.0328  0.0069  0.4267
  883SOL    HW1 3530   2.509   2.151   1.314  1.4746 -0.3311  0.5790
  883SOL    HW2 3531   2.364   2.130   1.279 -0.6846  0.6149  0.0165
  883SOL     MW 3532   2.426   2.171   1.326  0.0801  0.0425  0.3927
  884SOL     OW 3533   1.891   1.837   1.029  0.2721  0.3131  0.1388
  884SOL    HW1 3534   1.818   1.910   1.013 -1.9802  1.2427 -1.1222
  884SOL    HW2 3535   1.978   1.882   1.024  0.5055  1.0187 -2.6301
  884SOL     MW 3536   1.893   1.853   1.026  0.0058  0.5288 -0.3929
  885SOL     OW 3537   2.907   2.461   1.724  0.1439 -0.1808  0.3985
  885SOL    HW1 3538   2.977   2.400   1.723 -1.5711  0.6674 -0.6015
  885SOL    HW2 3539   2.853   2.436   1.650 -0.1299  0.0594 -1.0771
  885SOL     MW 3540   2.909   2.450   1.714 -0.1185 -0.0372  0.0719
  886SOL     OW 3541   2.915   2.365   1.324  0.6330 -0.3465  0.9466
  886SOL    HW1 3542   2.994   2.308   1.320  0.7292 -0.3033 -2.3403
  886SOL    HW2 3543   2.947   2.456   1.335 -1.2329 -1.4658 -1.9398
  886SOL     MW 3544   2.929   2.370   1.325  0.3995 -0.4885  0.1321
  887SOL     OW 3545   2.338   2.589   1.555  0.7208 -0.4592 -0.3350
  887SOL    HW1 3546   2.352   2.600   1.460 -0.1295 -1.6529  0.5330
  887SOL    HW2 3547   2.255   2.545   1.563  1.4718  1.4885  0.4918
  887SOL     MW 3548   2.329   2.585   1.544  0.7077 -0.3597 -0.1114
  888SOL     OW 3549   2.062   2.261   1.463  0.1437  0.4728  0.0504
  888SOL    HW1 3550   2.096   2.236   1.378 -0.2628  1.6509 -1.3422
  888SOL    HW2 3551   2.135   2.246   1.515  0.0076  0.5029  0.2229
  888SOL     MW 3552   2.076   2.255   1.459  0.0721  0.6322 -0.1106
  889SOL     OW 3553   2.301   1.937   2.056  0.3044  0.3581 -0.3091
  889SOL    HW1 3554   2.378   1.917   2.106  0.7648  1.5969 -0.8859
  889SOL    HW2 3555   2.325   2.011   1.994 -1.2399 -1.0705 -1.2625
  889SOL     MW 3556   2.314   1.944   2.054  0.1614  0.3330 -0.5110
  890SOL     OW 3557   0.048   2.355   0.100 -0.0146  0.0305 -0.4015
  890SOL    HW1 3558   0.011   2.443   0.093  1.7766  1.2184 -1.1128
  890SOL    HW2 3559   0.071   2.345   0.192 -0.2665  1.0568  0.6888
  890SOL     MW 3560   0.046   2.365   0.111  0.1885  0.3226 -0.3515
  891SOL     OW 3561   3.003   1.966   1.211  0.3422  0.2266  0.1831
  891SOL    HW1 3562   3.079   1.909   1.187 -0.1587 -0.4570  0.0450
  891SOL    HW2 3563   3.059   2.047   1.228 -1.7290 -0.0185 -0.2391
  891SOL     MW 3564   3.021   1.969   1.210  0.0029  0.1041  0.1092
  892SOL     OW 3565   2.424   2.343   2.757  0.1979  0.2287  0.2933
  892SOL    HW1 3566   2.408   2.248   2.785 -0.9035 -2.0312  0.3518
  892SOL    HW2 3567   2.511   2.369   2.790 -3.0259  2.3416  2.6743
  892SOL     MW 3568   2.433   2.334   2.765 -0.3728  0.2093  0.6152
  893SOL     OW 3569   1.634   2.355   1.378 -0.1594  0.1693 -0.0851
  893SOL    HW1 3570   1.584   2.425   1.420  1.1263  2.5657  2.1561
  893SOL    HW2 3571   1.720   2.377   1.412 -0.3404  1.5570  0.1169
  893SOL     MW 3572   1.639   2.367   1.388 -0.0137  0.6686  0.2372
  894SOL     OW 3573   2.794   1.981   0.536 -0.0835  0.2046  0.2775
  894SOL    HW1 3574   2.714   2.021   0.584 -0.2488  0.4760 -1.7499
  894SOL    HW2 3575   2.757   1.938   0.457 -0.0975  1.5456 -2.1311
  894SOL     MW 3576   2.778   1.981   0.532 -0.1072  0.4174 -0.3078
  895SOL     OW 3577   2.172   2.170   1.215 -0.3866 -0.1427  0.2599
  895SOL    HW1 3578   2.175   2.231   1.146 -1.1068 -1.1532  1.9779
  895SOL    HW2 3579   2.159   2.085   1.162 -3.3870 -0.6105  1.7842
  895SOL     MW 3580   2.171   2.167   1.199 -0.8775 -0.3377  0.6877
  896SOL     OW 3581   2.356   2.818   1.081 -0.1441  0.0699  0.2770
  896SOL    HW1 3582   2.335   2.735   1.129 -0.0839 -0.2133  0.8685
  896SOL    HW2 3583   2.349   2.882   1.149  0.3110 -0.1105 -1.0274
  896SOL     MW 3584   2.352   2.815   1.097 -0.0761  0.0087  0.1830
  897SOL     OW 3585   0.008   3.046   3.014 -0.1855 -0.6400 -0.2607
  897SOL    HW1 3586   0.042   2.953   3.013 -1.5432  1.3668  0.7940
  897SOL    HW2 3587  -0.035   3.056   2.930 -1.1015  0.5806  3.8315
  897SOL     MW 3588   0.007   3.035   3.003 -0.4855 -0.2142  0.4184
  898SOL     OW 3589   2.135   0.168   1.422 -0.0862  0.1455 -0.7807
  898SOL    HW1 3590   2.121   0.073   1.455 -1.4158  0.2983  2.3839
  898SOL    HW2 3591   2.141   0.173   1.324  1.5397  1.0500  0.7149
  898SOL     MW 3592   2.134   0.156   1.414 -0.0471  0.2850 -0.1659
  899SOL     OW 3593   2.975   2.956   0.630 -0.8382  0.1563 -0.2185
  899SOL    HW1 3594   2.946   2.884   0.685 -0.2030  3.9681 -0.3080
  899SOL    HW2 3595   2.905   3.016   0.640  1.0856 -3.0587 -0.2577
  899SOL     MW 3596   2.962   2.955   0.639 -0.5005  0.2350 -0.2355
  900SOL     OW 3597   0.136   2.391   1.081 -0.1622  0.1454 -0.3657
  900SOL    HW1 3598   0.083   2.473   1.077 -1.4567  0.4593  2.2638
  900SOL    HW2 3599   0.118   2.341   0.999 -1.0332  0.1299 -0.8953
  900SOL     MW 3600   0.127   2.395   1.070 -0.4479  0.1848 -0.0886
  901SOL     OW 3601   1.764   2.863   1.761 -0.3106  0.1130  0.0059
  901SOL    HW1 3602   1.834   2.802   1.743  3.3749 -0.9106  1.1868
  901SOL    HW2 3603   1.669   2.827   1.761 -0.7476 -1.5643 -1.5338
  901SOL     MW 3604   1.761   2.850   1.759  0.1180 -0.2433 -0.0414
  902SOL     OW 3605   2.633   2.105   1.708  0.0846  0.8280  0.3927
  902SOL    HW1 3606   2.659   2.037   1.644  0.7081 -0.1974 -2.1204
  902SOL    HW2 3607   2.702   2.101   1.775 -1.0531  1.4358  1.9676
  902SOL     MW 3608   2.646   2.096   1.708  0.0168  0.7729  0.2689
  903SOL     OW 3609   1.579   2.639   0.534  0.7160 -0.3512 -0.2306
  903SOL    HW1 3610   1.670   2.614   0.544  1.0692 -0.9557 -0.6020
  903SOL    HW2 3611   1.563   2.698   0.613 -3.4044  1.9622  2.6381
  903SOL     MW 3612   1.589   2.643   0.546  0.2190 -0.1257  0.0989
  904SOL     OW 3613   2.584   2.527   1.686  0.7983 -0.3475  0.1697
  904SOL    HW1 3614   2.503   2.558   1.646 -2.4812 -0.9217  1.4832
  904SOL    HW2 3615   2.606   2.452   1.633 -0.7121 -0.1378 -0.5277
  904SOL     MW 3616   2.576   2.521   1.674  0.1663 -0.3956  0.2510
  905SOL     OW 3617   2.326   2.515   2.061 -0.3862 -0.2585  0.1737
  905SOL    HW1 3618   2.398   2.479   2.007 -0.2913  0.7576 -0.7767
  905SOL    HW2 3619   2.295   2.439   2.113 -0.6733 -1.7319 -1.3248
  905SOL     MW 3620   2.331   2.500   2.061 -0.4115 -0.3188 -0.1494
  906SOL     OW 3621   2.429   2.474   0.812  0.7962  0.7569 -0.6577
  906SOL    HW1 3622   2.519   2.468   0.853  0.4982  1.7515  2.1199
  906SOL    HW2 3623   2.401   2.566   0.813 -1.9282 -2.0440  0.7094
  906SOL     MW 3624   2.438   2.485   0.817  0.3974  0.5186 -0.1109
  907SOL     OW 3625   2.647   2.747   1.315 -0.2814 -0.3273  0.4456
  907SOL    HW1 3626   2.686   2.826   1.347 -4.1989 -2.3227 -2.1194
  907SOL    HW2 3627   2.651   2.762   1.222  0.6985  1.2791 -1.6391
  907SOL     MW 3628   2.652   2.759   1.307 -0.6690 -0.3787 -0.1679
  908SOL     OW 3629   2.677   2.291   3.069 -0.4367 -0.0746  0.0967
  908SOL    HW1 3630   2.604   2.247   3.087  2.7139 -0.1231  0.2540
  908SOL    HW2 3631   2.661   2.388   3.098 -0.0197 -0.3737  0.7352
  908SOL     MW 3632   2.666   2.298   3.075  0.0340 -0.1205  0.2017
  909SOL     OW 3633   1.707   0.095   1.339 -0.1899 -0.1443  0.5927
  909SOL    HW1 3634   1.718   0.188   1.324 -0.6465  0.5505  1.7689
  909SOL    HW2 3635   1.668   0.081   1.425  3.4998 -0.3522 -0.8262
  909SOL     MW 3636   1.703   0.106   1.349  0.2367 -0.0800  0.5607
  910SOL     OW 3637   2.159   1.660   0.458  0.1996  0.4749 -0.6334
  910SOL    HW1 3638   2.092   1.588   0.465 -2.5169  0.7879 -0.5604
  910SOL    HW2 3639   2.130   1.719   0.387  1.1523 -0.5261  2.4734
  910SOL     MW 3640   2.146   1.658   0.449 -0.0331  0.3841 -0.2139
  911SOL     OW 3641   2.314   2.195   1.616 -1.3385  0.4768  0.1013
  911SOL    HW1 3642   2.376   2.166   1.684 -1.5632 -2.2484  1.0839
  911SOL    HW2 3643   2.362   2.201   1.540  0.4904  1.1652  0.1954
  911SOL     MW 3644   2.329   2.192   1.615 -1.1268  0.2081  0.2433
  912SOL     OW 3645   2.939   1.871   1.455  0.3677  0.3364  0.0296
  912SOL    HW1 3646   2.959   1.918   1.367 -1.3246  2.3387 -1.1218
  912SOL    HW2 3647   2.846   1.894   1.480  1.1383  1.9802  2.9056
  912SOL     MW 3648   2.929   1.880   1.446  0.2461  0.8175  0.2571
  913SOL     OW 3649   2.706   3.067   0.358  0.1239 -0.5703  0.7155
  913SOL    HW1 3650   2.781   3.013   0.328  0.1852 -2.3176  1.2376
  913SOL    HW2 3651   2.635   3.015   0.330 -0.3097 -1.6175 -0.2318
  913SOL     MW 3652   2.706   3.053   0.350  0.0748 -0.9390  0.6594
  914SOL     OW 3653   2.640   1.790   3.086 -0.2110  0.3895  0.3005
  914SOL    HW1 3654   2.686   1.852   3.028  0.0383 -2.8878 -0.9367
  914SOL    HW2 3655   2.558   1.837   3.107 -2.2058 -0.5227  2.4711
  914SOL     MW 3656   2.635   1.804   3.081 -0.4413 -0.1632  0.4236
  915SOL     OW 3657   1.811   0.102   0.180 -0.3040  0.7153 -0.3454
  915SOL    HW1 3658   1.872   0.034   0.223  3.9531  0.4763 -0.2818
  915SOL    HW2 3659   1.730   0.052   0.180 -1.4491  1.5419 -0.8438
  915SOL     MW 3660   1.808   0.087   0.185  0.1066  0.7928 -0.4027
  916SOL     OW 3661   1.785   2.073   1.977 -0.1444 -0.6565  0.1807
  916SOL    HW1 3662   1.817   2.166   1.980 -0.3398 -1.2312  1.9432
  916SOL    HW2 3663   1.812   2.054   1.890 -0.1723  2.7263 -0.3289
  916SOL     MW 3664   1.793   2.083   1.966 -0.1739 -0.2860  0.3460
  917SOL     OW 3665   2.500   2.202   2.529 -0.2325 -0.2696 -0.0325
  917SOL    HW1 3666   2.466   2.255   2.607 -1.9404 -1.2395  2.0296
  917SOL    HW2 3667   2.557   2.266   2.488 -0.3344  4.4683  0.3778
  917SOL     MW 3668   2.503   2.218   2.534 -0.4713  0.2275  0.2937
  918SOL     OW 3669   2.021   1.588   2.674 -0.2323 -0.1983 -0.1518
  918SOL    HW1 3670   1.947   1.596   2.610  1.0029 -0.3693 -0.8470
  918SOL    HW2 3671   2.087   1.653   2.650 -2.3167 -2.9820 -1.6332
  918SOL     MW 3672   2.020   1.598   2.662 -0.3443 -0.5882 -0.4390
  919SOL     OW 3673   3.044   2.376   2.227 -0.3052 -0.5856  0.0533
  919SOL    HW1 3674   2.973   2.319   2.201  0.4038 -1.8550 -2.8233
  919SOL    HW2 3675   3.103   2.376   2.150  0.7735  1.3098 -0.8200
  919SOL     MW 3676   3.043   2.368   2.213 -0.0693 -0.5030 -0.4414
  920SOL     OW 3677   2.625   2.863   3.041  0.6294 -0.5396  0.2290
  920SOL    HW1 3678   2.559   2.806   3.008  0.3426  1.5001  0.2813
  920SOL    HW2 3679   2.703   2.828   2.993 -0.3905 -2.4084  0.2748
  920SOL     MW 3680   2.627   2.851   3.030  0.4570 -0.5170  0.2419
  921SOL     OW 3681   2.397   2.596   2.560  0.1275 -0.0388 -0.3945
  921SOL    HW1 3682   2.468   2.568   2.499 -0.4295 -1.0357 -2.0012
  921SOL    HW2 3683   2.411   2.548   2.640 -1.8186 -1.6248  1.1499
  921SOL     MW 3684   2.408   2.586   2.563 -0.2028 -0.3796 -0.4027
  922SOL     OW 3685   2.132   2.652   0.430  0.1478  0.0979  0.0622
  922SOL    HW1 3686   2.149   2.631   0.336  2.4581 -5.7114  3.1914
  922SOL    HW2 3687   2.145   2.566   0.469 -0.0555 -2.9745  2.0582
  922SOL     MW 3688   2.136   2.638   0.423  0.4258 -1.0739  0.7384
  923SOL     OW 3689   2.189   2.809   1.649 -0.5303 -0.1598  0.2429
  923SOL    HW1 3690   2.253   2.743   1.609 -1.8217 -0.1573  0.0276
  923SOL    HW2 3691   2.144   2.853   1.575  1.5897 -0.6424  0.2559
  923SOL     MW 3692   2.191   2.806   1.634 -0.4210 -0.2231  0.2162
  924SOL     OW 3693   1.085   2.724   2.613  0.0954  0.3886  0.2467
  924SOL    HW1 3694   1.182   2.732   2.616  0.8790  0.9048 -0.6050
  924SOL    HW2 3695   1.062   2.650   2.669 -2.1785 -2.7852 -0.1084
  924SOL     MW 3696   1.095   2.715   2.621 -0.1012  0.0380  0.0875
  925SOL     OW 3697   2.954   0.158   2.633  0.2147  0.4172  0.2531
  925SOL    HW1 3698   2.889   0.166   2.562 -1.8883  1.5173 -0.2786
  925SOL    HW2 3699   2.945   0.235   2.692  1.7478 -0.9957 -1.2695
  925SOL     MW 3700   2.944   0.169   2.632  0.1395  0.3760 -0.0180
  926SOL     OW 3701   2.788   2.425   1.988 -0.0761  0.5625  0.4253
  926SOL    HW1 3702   2.819   2.500   2.052  0.6981  0.3698  3.0573
  926SOL    HW2 3703   2.833   2.443   1.905  0.6295  0.6147  0.2812
  926SOL     MW 3704   2.798   2.437   1.985  0.1192  0.5440  0.7536
  927SOL     OW 3705   2.372   0.122   0.307  0.4518 -0.0637  0.1748
  927SOL    HW1 3706   2.456   0.111   0.352 -0.6623  0.6356  0.7026
  927SOL    HW2 3707   2.382   0.077   0.225 -2.0383  0.7443 -0.7007
  927SOL     MW 3708   2.385   0.114   0.302 -0.0237  0.1352  0.1290
  928SOL     OW 3709   2.161   2.353   1.849 -0.7299  0.0818 -0.2182
  928SOL    HW1 3710   2.158   2.424   1.783  4.3871  2.2917  1.7495
  928SOL    HW2 3711   2.224   2.376   1.914 -3.3264  0.4373 -0.3464
  928SOL     MW 3712   2.169   2.366   1.849 -0.3973  0.4203  0.0245
  929SOL     OW 3713   2.692   2.355   2.431 -0.0359 -0.3094 -0.2290
  929SOL    HW1 3714   2.736   2.327   2.350  3.5886  1.3802  0.5310
  929SOL    HW2 3715   2.768   2.364   2.493 -0.3597  0.7753  3.3315
  929SOL     MW 3716   2.708   2.352   2.428  0.3996  0.0566  0.3411
  930SOL     OW 3717   2.045   2.820   2.684 -0.1973  0.1960 -0.4081
  930SOL    HW1 3718   2.049   2.756   2.755 -1.0549  1.9648 -1.2838
  930SOL    HW2 3719   2.130   2.867   2.674 -0.6590  1.2760 -0.9008
  930SOL     MW 3720   2.057   2.818   2.692 -0.3714  0.5719 -0.5886
  931SOL     OW 3721   0.029   2.726   2.487 -0.2575 -0.4567  0.2909
  931SOL    HW1 3722   0.013   2.786   2.558  2.4904 -1.1453  3.2482
  931SOL    HW2 3723   0.117   2.749   2.463 -1.8403  0.7167  0.6087
  931SOL     MW 3724   0.039   2.737   2.493 -0.1038 -0.3927  0.7230
  932SOL     OW 3725   2.782   2.012   2.446  0.9095 -0.1989 -0.2452
  932SOL    HW1 3726   2.868   2.047   2.461  0.1485 -1.9280 -1.5704
  932SOL    HW2 3727   2.769   1.995   2.352  2.0843 -0.0980 -0.9815
  932SOL     MW 3728   2.792   2.015   2.435  0.9641 -0.4137 -0.5172
  933SOL     OW 3729   2.081   2.805   2.254 -0.4937  0.5457  0.1482
  933SOL    HW1 3730   2.159   2.839   2.302  2.3290 -2.0977  0.1726
  933SOL    HW2 3731   2.044   2.884   2.212  3.4455 -1.0444  0.2438
  933SOL     MW 3732   2.086   2.820   2.255  0.3984 -0.0129  0.1640
  934SOL     OW 3733   1.990   2.660   2.470 -0.1735  0.1610  0.0944
  934SOL    HW1 3734   2.017   2.720   2.534  2.7448  0.0464  0.8212
  934SOL    HW2 3735   2.008   2.702   2.389 -4.5417 -0.1133  1.8535
  934SOL     MW 3736   1.996   2.673   2.468 -0.3648  0.1097  0.4224
  935SOL     OW 3737   2.666   1.530   1.821  0.2230 -0.1696 -0.0697
  935SOL    HW1 3738   2.746   1.485   1.791 -0.2906 -0.0107  0.6710
  935SOL    HW2 3739   2.605   1.526   1.747  1.5679 -0.0366  1.0538
  935SOL     MW 3740   2.669   1.524   1.807  0.3327 -0.1311  0.1763
  936SOL     OW 3741   2.928   2.198   0.007  0.4109 -0.2238 -0.6429
  936SOL    HW1 3742   2.980   2.274   0.033 -2.6912 -2.6726 -4.0516
  936SOL    HW2 3743   2.834   2.221  -0.008 -2.2900 -3.3714 -1.0733
  936SOL     MW 3744   2.922   2.211   0.009 -0.3547 -0.9622 -1.1494
  937SOL     OW 3745   1.939   2.114   2.623 -0.6358 -0.2277 -0.2614
  937SOL    HW1 3746   2.020   2.108   2.677 -1.8222 -1.5572  1.1092
  937SOL    HW2 3747   1.964   2.103   2.532 -0.8401 -0.7432 -1.6469
  937SOL     MW 3748   1.953   2.112   2.618 -0.8193 -0.4711 -0.2634
  938SOL     OW 3749   2.211   1.807   1.839 -0.0896 -0.5516 -0.0799
  938SOL    HW1 3750   2.260   1.842   1.770  0.8448 -2.3154  0.7888
  938SOL    HW2 3751   2.268   1.829   1.915 -4.6066 -0.2728 -1.6340
  938SOL     MW 3752   2.225   1.814   1.840 -0.5623 -0.7475 -0.1703
  939SOL     OW 3753   2.752   2.006   2.085 -0.2342  0.4836 -0.5501
  939SOL    HW1 3754   2.815   1.959   2.026 -1.0826  0.1113 -0.6660
  939SOL    HW2 3755   2.686   1.945   2.111  1.0481 -0.8582 -0.0115
  939SOL     MW 3756   2.752   1.992   2.081 -0.1769  0.2574 -0.4943
  940SOL     OW 3757   2.211   0.084   2.780  0.4068 -0.2754 -0.2493
  940SOL    HW1 3758   2.257   0.013   2.731 -2.6050 -0.0362  3.1915
  940SOL    HW2 3759   2.268   0.126   2.841 -1.6796  0.1719  1.2083
  940SOL     MW 3760   2.224   0.080   2.782 -0.2658 -0.1849  0.3970
  941SOL     OW 3761   0.090   2.399   2.007  0.2613 -0.9843 -0.3586
  941SOL    HW1 3762   0.181   2.363   2.024 -1.6353  0.2245  0.5045
  941SOL    HW2 3763   0.108   2.447   1.922  1.6425  1.6853 -1.7659
  941SOL     MW 3764   0.105   2.400   1.998  0.1933 -0.4726 -0.4304
  942SOL     OW 3765   2.824   2.238   2.180  0.6480 -0.1156  0.0375
  942SOL    HW1 3766   2.797   2.302   2.105  2.4583 -2.3784  1.7264
  942SOL    HW2 3767   2.800   2.141   2.152 -1.5387  2.2476 -1.4864
  942SOL     MW 3768   2.817   2.234   2.167  0.5983 -0.1023  0.0593
  943SOL     OW 3769   0.351   2.198   2.274  0.0199 -0.4094  0.4631
  943SOL    HW1 3770   0.269   2.208   2.325 -1.3237  0.5563  1.1433
  943SOL    HW2 3771   0.419   2.165   2.332  0.0651  0.6283  0.3249
  943SOL     MW 3772   0.349   2.195   2.289 -0.1514 -0.1450  0.5346
  944SOL     OW 3773   2.119   2.666   1.985 -0.4990  0.4478  0.2049
  944SOL    HW1 3774   2.185   2.601   2.004 -0.6305 -2.4159 -0.3376
  944SOL    HW2 3775   2.077   2.683   2.069  2.5626 -3.0546 -1.1202
  944SOL     MW 3776   2.122   2.660   1.999 -0.1124 -0.3921 -0.0415
  945SOL     OW 3777   2.743   2.667   2.875 -0.2001 -0.1507 -0.0252
  945SOL    HW1 3778   2.714   2.564   2.858  1.0675 -3.8829 -1.4508
  945SOL    HW2 3779   2.744   2.703   2.782  2.1886 -0.3783 -0.7055
  945SOL     MW 3780   2.740   2.658   2.860  0.2824 -0.6731 -0.3030
  946SOL     OW 3781   2.471   2.696   2.214 -0.2815 -0.1001 -0.2999
  946SOL    HW1 3782   2.485   2.763   2.137  0.2550 -1.5903  2.9629
  946SOL    HW2 3783   2.408   2.627   2.174  1.7715  0.9273 -0.4768
  946SOL     MW 3784   2.465   2.695   2.199  0.0602 -0.1612  0.1072
  947SOL     OW 3785   2.037   3.057   0.237  0.7398 -0.4502  1.2160
  947SOL    HW1 3786   2.072   2.974   0.206  1.7735  3.3589 -0.0978
  947SOL    HW2 3787   2.088   3.065   0.320 -0.7356  3.4684  2.8058
  947SOL     MW 3788   2.048   3.047   0.244  0.6815  0.5694  1.2524
  948SOL     OW 3789   1.835   3.025   2.628  0.2878 -0.0421  0.1591
  948SOL    HW1 3790   1.880   2.940   2.629  1.1054  1.2360  0.5447
  948SOL    HW2 3791   1.796   3.021   2.539 -0.3543 -0.7285 -0.2072
  948SOL     MW 3792   1.836   3.013   2.616  0.3110  0.0359  0.1616
  949SOL     OW 3793   2.538   1.882   2.211  0.0432 -0.0933  0.4217
  949SOL    HW1 3794   2.524   1.799   2.263  0.2996 -0.0342  0.2605
  949SOL    HW2 3795   2.504   1.952   2.267  0.0989  0.4790 -0.5218
  949SOL     MW 3796   2.532   1.881   2.225  0.0844 -0.0100  0.2760
  950SOL     OW 3797   2.255   2.442   2.957 -0.0506  0.3377  0.0374
  950SOL    HW1 3798   2.310   2.399   2.893 -0.2485  0.4799 -0.9403
  950SOL    HW2 3799   2.179   2.474   2.902  0.3039  2.1763 -0.2254
  950SOL     MW 3800   2.252   2.441   2.941 -0.0299  0.5991 -0.1263
  951SOL     OW 3801   3.042   2.213   2.848 -0.1678 -0.1766 -0.2569
  951SOL    HW1 3802   2.997   2.198   2.929  0.3847 -1.2082  1.0140
  951SOL    HW2 3803   3.113   2.265   2.876 -0.1609 -1.9564 -1.7477
  951SOL     MW 3804   3.046   2.218   2.863 -0.0940 -0.5476 -0.2859
  952SOL     OW 3805   3.081   1.700   2.097  0.2710 -0.4978 -0.4423
  952SOL    HW1 3806   3.048   1.753   2.020  0.2256  0.7151 -0.0014
  952SOL    HW2 3807   3.113   1.768   2.158 -0.7693 -0.8875  0.4286
  952SOL     MW 3808   3.081   1.716   2.095  0.1277 -0.3892 -0.2693
  953SOL     OW 3809   1.873   1.760   2.842 -0.4262 -0.4403  0.5480
  953SOL    HW1 3810   1.834   1.716   2.916  0.7553  1.3921 -0.1584
  953SOL    HW2 3811   1.909   1.692   2.783 -1.0605  0.6140 -2.5707
  953SOL     MW 3812   1.873   1.745   2.844 -0.3540 -0.0594  0.0433
  954SOL     OW 3813   2.432   2.077   2.801  0.4976 -0.5480  0.1359
  954SOL    HW1 3814   2.351   2.041   2.766  1.8254 -0.2729 -2.9559
  954SOL    HW2 3815   2.505   2.036   2.752  0.2801  2.4863  0.5450
  954SOL     MW 3816   2.431   2.067   2.790  0.6441 -0.1113 -0.2181
  955SOL     OW 3817   1.498   1.551   2.558  0.4149  0.0717 -0.4755
  955SOL    HW1 3818   1.489   1.565   2.468 -4.8339  1.3556 -0.4369
  955SOL    HW2 3819   1.589   1.571   2.574 -2.3198  0.5335  0.3743
  955SOL     MW 3820   1.509   1.556   2.548 -0.6385  0.3020 -0.3583
  956SOL     OW 3821   2.683   2.412   2.826 -0.1389  0.2673  0.1022
  956SOL    HW1 3822   2.707   2.371   2.913  0.7894  2.3521  0.8298
  956SOL    HW2 3823   2.745   2.385   2.755 -2.4094  1.2540 -1.0749
  956SOL     MW 3824   2.694   2.403   2.828 -0.3160  0.6726  0.0429
  957SOL     OW 3825   2.278   2.855   0.525 -0.3087  0.5144  0.2714
  957SOL    HW1 3826   2.222   2.779   0.496  0.1844 -0.5446 -0.2127
  957SOL    HW2 3827   2.273   2.851   0.622  2.2956  3.0587  4.6224
  957SOL     MW 3828   2.270   2.845   0.534  0.1000  0.7104  0.7816
  958SOL     OW 3829   2.044   2.594   2.842 -0.5024 -0.8604 -0.0413
  958SOL    HW1 3830   2.004   2.530   2.787  0.8395  2.7618 -0.9119
  958SOL    HW2 3831   2.002   2.584   2.928  3.0322  0.1781  0.8358
  958SOL     MW 3832   2.033   2.584   2.846  0.1410 -0.2454 -0.0404
  959SOL     OW 3833   2.522   2.736   0.458  0.1092 -0.6348  0.1785
  959SOL    HW1 3834   2.539   2.801   0.390  1.7195 -3.0672  1.3372
  959SOL    HW2 3835   2.445   2.767   0.502 -1.1840 -1.6706  0.3432
  959SOL     MW 3836   2.514   2.748   0.455  0.1511 -1.0924  0.3531
  960SOL     OW 3837   1.865   2.354   2.321 -0.2648 -0.4069 -0.1701
  960SOL    HW1 3838   1.894   2.267   2.355  1.0498 -0.4983 -0.1888
  960SOL    HW2 3839   1.795   2.389   2.382 -3.1871  2.1352  1.0645
  960SOL     MW 3840   1.860   2.347   2.334 -0.4770 -0.0835 -0.0097
  961SOL     OW 3841   2.202   2.313   2.240  0.1088 -0.2776 -0.3749
  961SOL    HW1 3842   2.116   2.274   2.218 -1.2297 -0.2555 -0.4942
  961SOL    HW2 3843   2.174   2.356   2.328  0.2281 -2.6112  1.4497
  961SOL     MW 3844   2.187   2.313   2.248 -0.0521 -0.5826 -0.1499
  962SOL     OW 3845   2.169   2.014   2.782  0.4095 -0.9399  0.0367
  962SOL    HW1 3846   2.136   1.986   2.869  1.0618 -1.6210  2.5157
  962SOL    HW2 3847   2.188   1.941   2.724  0.5580 -0.0356  4.4171
  962SOL     MW 3848   2.167   2.000   2.786  0.5152 -0.9105  0.9417
  963SOL     OW 3849   1.831   2.549   2.085 -0.0978  0.0582 -0.0718
  963SOL    HW1 3850   1.857   2.500   2.164 -0.5275 -0.6463 -0.7954
  963SOL    HW2 3851   1.830   2.482   2.018 -0.0667  0.3643 -0.5333
  963SOL     MW 3852   1.835   2.534   2.087 -0.1504  0.0057 -0.2282
  964SOL     OW 3853   1.763   1.902   2.642  0.0474  0.5452  0.1808
  964SOL    HW1 3854   1.820   1.976   2.639 -3.6806  1.8425  1.2347
  964SOL    HW2 3855   1.801   1.838   2.707  2.4591  0.0507 -0.4564
  964SOL     MW 3856   1.776   1.903   2.650 -0.1263  0.6511  0.2357
  965SOL     OW 3857   2.121   2.568   0.826 -0.0525  0.1243 -1.4621
  965SOL    HW1 3858   2.148   2.505   0.757 -0.9152  0.4319 -1.7931
  965SOL    HW2 3859   2.177   2.645   0.817 -1.3422  2.5375  0.5191
  965SOL     MW 3860   2.132   2.570   0.816 -0.3365  0.4833 -1.2444
  966SOL     OW 3861   2.643   2.625   2.410 -0.2967 -0.0454  0.1605
  966SOL    HW1 3862   2.577   2.655   2.343  2.0581  0.8149  1.0582
  966SOL    HW2 3863   2.669   2.536   2.385 -2.2404  0.1152 -0.9807
  966SOL     MW 3864   2.638   2.618   2.398 -0.2425  0.0893  0.1283
  967SOL     OW 3865   2.644   0.043   3.101 -0.3995  0.0643 -0.3635
  967SOL    HW1 3866   2.634  -0.051   3.103  3.1699  3.0473 -2.2058
  967SOL    HW2 3867   2.599   0.067   3.017  2.5735 -0.5825  0.2884
  967SOL     MW 3868   2.637   0.034   3.090  0.4637  0.3725 -0.5206
  968SOL     OW 3869   2.999   2.590   2.937 -0.1061 -0.7705  0.2595
  968SOL    HW1 3870   2.915   2.630   2.902 -1.6038  3.7158  0.6512
  968SOL    HW2 3871   3.032   2.526   2.870  0.1438 -2.3160 -1.8550
  968SOL     MW 3872   2.992   2.587   2.923 -0.2708 -0.3825  0.0322
  969SOL     OW 3873   1.593   2.135   1.728 -0.3251  0.6040  0.1416
  969SOL    HW1 3874   1.663   2.073   1.729  0.3348  2.4673  0.6757
  969SOL    HW2 3875   1.569   2.149   1.818  0.8948  2.5060 -3.5309
  969SOL     MW 3876   1.599   2.129   1.740 -0.0771  1.1008 -0.2725
  970SOL     OW 3877   1.723   1.753   1.833 -0.2468 -0.1621 -0.5804
  970SOL    HW1 3878   1.775   1.689   1.883 -0.5130 -1.2824 -1.0781
  970SOL    HW2 3879   1.637   1.764   1.875  0.2158 -2.4933 -3.3202
  970SOL     MW 3880   1.718   1.746   1.846 -0.2209 -0.6175 -1.0075
  971SOL     OW 3881   1.772   3.078   2.354 -0.3290 -0.5653 -0.0216
  971SOL    HW1 3882   1.817   3.046   2.273 -0.3639  0.1935 -0.0060
  971SOL    HW2 3883   1.824   3.152   2.372 -0.1231 -0.9118  0.2388
  971SOL     MW 3884   1.785   3.083   2.346 -0.3064 -0.5109  0.0148
  972SOL     OW 3885   0.263   2.874   2.435 -0.4954  0.2114  0.0645
  972SOL    HW1 3886   0.333   2.819   2.466  0.4792 -0.3516 -0.2868
  972SOL    HW2 3887   0.300   2.963   2.439 -2.4018 -1.1436 -2.3507
  972SOL     MW 3888   0.277   2.878   2.439 -0.6183 -0.0416 -0.3005
  973SOL     OW 3889   2.615   3.083   2.153 -0.2335  0.6027  0.1953
  973SOL    HW1 3890   2.580   3.009   2.096  0.3738  1.3890 -1.8893
  973SOL    HW2 3891   2.695   3.117   2.115 -0.2790  4.1776 -1.1660
  973SOL     MW 3892   2.621   3.078   2.140 -0.1594  1.1781 -0.2593
  974SOL     OW 3893   2.003   0.162   2.606  0.1092  0.0764  0.1873
  974SOL    HW1 3894   2.078   0.131   2.667  0.3873  2.0298 -0.8358
  974SOL    HW2 3895   1.933   0.095   2.614 -0.3471  0.6270  2.5099
  974SOL     MW 3896   2.004   0.149   2.615  0.0857  0.4068  0.3587
  975SOL     OW 3897   2.154   2.436   2.478 -0.1696  0.4284 -0.6888
  975SOL    HW1 3898   2.243   2.475   2.500  0.5029  0.8290  0.6947
  975SOL    HW2 3899   2.088   2.503   2.470  2.1692 -1.1723  2.1050
  975SOL     MW 3900   2.157   2.450   2.480  0.2277  0.2700 -0.1377
  976SOL     OW 3901   0.164   0.350   1.601  0.2360 -0.0980 -0.3133
  976SOL    HW1 3902   0.240   0.293   1.615 -1.7234 -1.9123  0.8361
  976SOL    HW2 3903   0.090   0.286   1.608  1.2902  1.2362  0.1920
  976SOL     MW 3904   0.164   0.334   1.604  0.1166 -0.1613 -0.0950
  977SOL     OW 3905   1.715   2.744   2.419 -0.7492 -0.0631  0.5690
  977SOL    HW1 3906   1.808   2.708   2.423  1.5887  0.8290 -1.4075
  977SOL    HW2 3907   1.718   2.812   2.356 -1.2007 -1.7056 -0.5015
  977SOL     MW 3908   1.728   2.748   2.411 -0.5003 -0.1621  0.1670
   3.10000   3.10000   3.10000
