977 TIP4P/2005f water molecules t=   0.04000 step= 40
 3908
    1SOL     OW    1   0.196   0.769   3.088 -0.5408  0.2661 -0.4607
    1SOL    HW1    2   0.175   0.787   2.993 -1.1558  2.1052  0.1776
    1SOL    HW2    3   0.207   0.672   3.095  3.2630  0.1036  2.7167
    1SOL     MW    4   0.195   0.759   3.077 -0.1201  0.4873  0.0427
    2SOL     OW    5   0.338   3.040   1.095  0.3896 -0.0449 -0.2106
    2SOL    HW1    6   0.396   3.117   1.086 -0.5680  0.0886  1.1319
    2SOL    HW2    7   0.248   3.071   1.123  0.1840  2.5771  0.0799
    2SOL     MW    8   0.334   3.055   1.097  0.2361  0.3186  0.0049
    3SOL     OW    9   2.767   0.367   0.886 -0.3364  0.2845 -0.2226
    3SOL    HW1   10   2.737   0.444   0.836  0.7450 -1.9427 -2.2030
    3SOL    HW2   11   2.750   0.387   0.983 -1.6674 -0.0119  3.1902
    3SOL     MW   12   2.761   0.380   0.892 -0.3693 -0.0485 -0.0336
    4SOL     OW   13   3.091   1.675   0.731  0.1912  0.4842 -0.1598
    4SOL    HW1   14   3.035   1.744   0.687 -1.3691 -1.7940  0.0580
    4SOL    HW2   15   3.141   1.638   0.659  0.7975 -1.6647  0.3896
    4SOL     MW   16   3.090   1.679   0.715  0.0653 -0.0999 -0.0586
    5SOL     OW   17   1.670   1.436   0.548  0.0225  0.2407 -0.0239
    5SOL    HW1   18   1.750   1.402   0.601  1.2454 -1.2924  0.1457
    5SOL    HW2   19   1.600   1.401   0.595  2.1086  0.8943 -2.8116
    5SOL     MW   20   1.672   1.427   0.561  0.4591  0.1246 -0.3694
    6SOL     OW   21   0.829   1.357   0.571  0.1426 -0.5752 -0.0412
    6SOL    HW1   22   0.740   1.361   0.615  1.0676 -0.6668 -1.8866
    6SOL    HW2   23   0.879   1.284   0.617  0.3162 -0.6651 -0.1790
    6SOL     MW   24   0.824   1.348   0.583  0.2875 -0.5991 -0.3029
    7SOL     OW   25   1.986   1.063   3.021  0.0336 -0.0766  0.6575
    7SOL    HW1   26   2.024   1.125   2.957 -1.2756 -1.9270 -2.3671
    7SOL    HW2   27   2.016   1.080   3.108 -0.7110  2.7200  2.5465
    7SOL     MW   28   1.995   1.073   3.024 -0.2374  0.0482  0.5077
    8SOL     OW   29   1.010   1.317   1.058  0.3322  0.4595  0.0698
    8SOL    HW1   30   1.095   1.292   1.077 -0.5697 -0.8361 -2.9697
    8SOL    HW2   31   0.959   1.241   1.071  4.0385  0.2766 -0.3537
    8SOL     MW   32   1.015   1.303   1.062  0.7022  0.2644 -0.3871
    9SOL     OW   33   0.995   0.482   1.461  0.1883  0.1749 -0.3065
    9SOL    HW1   34   0.968   0.389   1.464  0.6328 -0.2274 -2.5956
    9SOL    HW2   35   1.069   0.476   1.520 -2.2302  0.0494 -0.1691
    9SOL     MW   36   1.001   0.469   1.469 -0.0721  0.1052 -0.5904
   10SOL     OW   37   0.303   0.858   0.431  0.0755 -0.3705 -0.3452
   10SOL    HW1   38   0.401   0.883   0.422 -1.1515  0.3180  0.4852
   10SOL    HW2   39   0.270   0.922   0.496 -0.5469  2.5010 -2.0892
   10SOL     MW   40   0.311   0.870   0.438 -0.1685  0.0992 -0.4657
   11SOL     OW   41   0.925   1.072   1.581  0.2395  0.3239 -0.4350
   11SOL    HW1   42   0.940   1.093   1.677  1.0800  0.1336  0.6927
   11SOL    HW2   43   0.835   1.027   1.583 -3.3699  0.2310 -1.7505
   11SOL     MW   44   0.915   1.069   1.594 -0.1258  0.2866 -0.4598
   12SOL     OW   45   3.046   1.031   0.868 -0.0267  0.0288  0.3811
   12SOL    HW1   46   3.064   1.112   0.918  2.4216  2.6393 -1.0722
   12SOL    HW2   47   3.023   1.067   0.786 -4.4797 -0.4008 -1.6747
   12SOL     MW   48   3.045   1.047   0.864 -0.2912  0.3166 -0.0819
   13SOL     OW   49   1.925   1.382   1.441 -0.0091  0.2769  0.0583
   13SOL    HW1   50   1.966   1.353   1.361  1.9433 -0.9749  0.2053
   13SOL    HW2   51   1.910   1.476   1.415 -1.7678 -0.1203  0.6427
   13SOL     MW   52   1.929   1.390   1.427  0.0165  0.0594  0.1548
   14SOL     OW   53   0.618   0.373   1.775 -0.1886  0.3655  0.0019
   14SOL    HW1   54   0.627   0.286   1.738  2.5545  0.1834 -2.1839
   14SOL    HW2   55   0.699   0.389   1.829  0.3969  0.8860  1.6520
   14SOL     MW   56   0.630   0.364   1.777  0.2506  0.4101 -0.0688
   15SOL     OW   57   1.992   0.580   0.954  0.2653 -0.4637 -0.7493
   15SOL    HW1   58   2.019   0.570   1.046  0.5449  1.5459  0.4254
   15SOL    HW2   59   2.074   0.568   0.907  0.7990 -4.3389  1.2996
   15SOL     MW   60   2.007   0.577   0.960  0.3726 -0.7098 -0.3239
   16SOL     OW   61   0.137   1.757   0.293 -0.2504  0.4419 -0.6803
   16SOL    HW1   62   0.221   1.718   0.304 -0.2633 -1.3355 -0.2560
   16SOL    HW2   63   0.153   1.846   0.322 -0.0666 -1.2570  0.2371
   16SOL     MW   64   0.150   1.763   0.298 -0.2279 -0.0168 -0.5033
   17SOL     OW   65   1.158   0.794   1.450  0.6158 -0.5903  0.2664
   17SOL    HW1   66   1.161   0.815   1.544 -0.5500  0.0832  2.1932
   17SOL    HW2   67   1.074   0.751   1.443 -2.1372  2.9841 -2.0379
   17SOL     MW   68   1.147   0.791   1.461  0.0988 -0.0298  0.2166
   18SOL     OW   69   3.090   1.540   0.380  0.3230  0.3491  0.4333
   18SOL    HW1   70   3.125   1.611   0.324 -0.1674  0.5648 -1.9434
   18SOL    HW2   71   3.088   1.465   0.320  0.6943  2.1923  0.6813
   18SOL     MW   72   3.095   1.539   0.365  0.3073  0.6207  0.1525
   19SOL     OW   73   0.041   1.276   1.033  0.5331 -0.8491  0.1099
   19SOL    HW1   74   0.107   1.325   0.982 -2.2786  2.0535  1.1485
   19SOL    HW2   75  -0.033   1.342   1.034 -0.2115 -2.9021 -1.4594
   19SOL     MW   76   0.040   1.291   1.026  0.0639 -0.7370  0.0399
   20SOL     OW   77   0.474   2.172   1.280  0.6407 -0.0764  0.5132
   20SOL    HW1   78   0.427   2.125   1.206 -0.1922  0.3064 -1.6972
   20SOL    HW2   79   0.402   2.197   1.339 -1.1682  0.6845 -0.4765
   20SOL     MW   80   0.459   2.169   1.278  0.2921  0.0745  0.0910
   21SOL     OW   81   0.576   0.880   0.363  0.1464  0.0064  0.3944
   21SOL    HW1   82   0.622   0.806   0.392 -0.4073  0.5642 -0.3851
   21SOL    HW2   83   0.546   0.857   0.269  1.0068 -0.5373 -0.6877
   21SOL     MW   84   0.578   0.867   0.354  0.1869  0.0083  0.1488
   22SOL     OW   85   1.601   0.627   1.143  0.1502 -0.1857  0.2632
   22SOL    HW1   86   1.635   0.584   1.061 -0.8076  1.0575  1.7980
   22SOL    HW2   87   1.526   0.683   1.121 -1.7872  2.4481 -0.6823
   22SOL     MW   88   1.596   0.629   1.129 -0.2318  0.3258  0.3410
   23SOL     OW   89   3.084   0.694   0.655  0.0856  0.4153  0.1741
   23SOL    HW1   90   3.130   0.616   0.671  1.7564  1.2463 -1.4807
   23SOL    HW2   91   3.154   0.754   0.673 -3.1996 -0.7090  2.5962
   23SOL     MW   92   3.100   0.692   0.660 -0.1274  0.3766  0.2753
   24SOL     OW   93   2.050   2.225   3.071  0.6001  0.0834  0.3683
   24SOL    HW1   94   2.042   2.209   3.165  2.8647 -0.9167  0.0383
   24SOL    HW2   95   2.086   2.142   3.044  2.8278 -0.4342 -1.9265
   24SOL     MW   96   2.053   2.212   3.080  1.1928 -0.1168  0.0220
   25SOL     OW   97   0.169   1.495   0.575 -0.0946 -0.3109 -0.0134
   25SOL    HW1   98   0.096   1.523   0.521  0.9424  0.0740 -2.0257
   25SOL    HW2   99   0.246   1.486   0.511 -1.9878 -3.2455 -0.5371
   25SOL     MW  100   0.169   1.497   0.559 -0.2075 -0.6473 -0.3480
   26SOL     OW  101   1.984   1.032   0.389 -0.3818 -0.1872  0.0935
   26SOL    HW1  102   1.886   1.037   0.396  1.4309 -0.7909  1.4154
   26SOL    HW2  103   2.012   1.059   0.297 -0.6802 -1.3236 -0.9788
   26SOL     MW  104   1.975   1.036   0.378 -0.1820 -0.4168  0.1264
   27SOL     OW  105   2.017   1.394   0.243 -0.3372  0.5394 -0.4121
   27SOL    HW1  106   1.934   1.356   0.269  0.3174  1.6999  0.4704
   27SOL    HW2  107   2.043   1.443   0.324  1.8814  3.2473 -0.1946
   27SOL     MW  108   2.009   1.396   0.257  0.0419  1.0498 -0.2670
   28SOL     OW  109   0.283   0.965   1.920  0.6892 -0.2620 -0.0288
   28SOL    HW1  110   0.229   0.897   1.949  2.6782  3.2292 -2.6336
   28SOL    HW2  111   0.355   0.923   1.870  2.2854 -0.4084  0.8295
   28SOL     MW  112   0.286   0.950   1.917  1.1622  0.1793 -0.2592
   29SOL     OW  113   0.249   1.418   0.888  0.6148  0.4562  0.6905
   29SOL    HW1  114   0.233   1.508   0.922 -0.8333 -2.5604  0.7151
   29SOL    HW2  115   0.244   1.440   0.790  1.2745  1.0076  0.9585
   29SOL     MW  116   0.246   1.433   0.880  0.5108  0.1309  0.7291
   30SOL     OW  117   0.891   1.037   1.153  0.3694 -0.6780 -0.5444
   30SOL    HW1  118   0.803   1.049   1.184  1.9368  1.9330  1.0416
   30SOL    HW2  119   0.936   1.067   1.231 -1.1530 -2.1343 -0.2681
   30SOL     MW  120   0.886   1.042   1.167  0.3753 -0.5256 -0.2987
   31SOL     OW  121   0.507   0.242   0.147 -0.2767  0.3956  0.1211
   31SOL    HW1  122   0.498   0.187   0.229  2.0356  0.9698  0.0859
   31SOL    HW2  123   0.485   0.170   0.080  0.6418  0.6073 -2.9542
   31SOL     MW  124   0.503   0.225   0.149  0.1495  0.4993 -0.2893
   32SOL     OW  125   2.696   1.033   1.155  0.1215 -0.0424  0.6016
   32SOL    HW1  126   2.644   0.951   1.175 -0.6896  1.1679 -1.3345
   32SOL    HW2  127   2.786   0.990   1.142  0.1811 -0.2444 -2.2787
   32SOL     MW  128   2.701   1.017   1.156  0.0224  0.0906 -0.0339
   33SOL     OW  129   1.781   1.281   0.333  0.4267 -0.0628 -0.2652
   33SOL    HW1  130   1.761   1.201   0.378  0.2764 -0.9901 -0.5410
   33SOL    HW2  131   1.739   1.348   0.394  1.5875 -2.1264  0.1243
   33SOL     MW  132   1.773   1.279   0.347  0.5600 -0.4574 -0.2502
   34SOL     OW  133   1.278   1.851   1.101  0.1192  0.0953 -0.3693
   34SOL    HW1  134   1.196   1.897   1.113 -0.2048  0.7962  4.0378
   34SOL    HW2  135   1.333   1.889   1.167 -1.0468 -0.2891 -1.1097
   34SOL     MW  136   1.275   1.862   1.111 -0.0774  0.1370  0.1145
   35SOL     OW  137   0.353   0.077   1.886  0.2731 -0.4384 -0.6809
   35SOL    HW1  138   0.393   0.034   1.960  2.7209  0.3967  1.8031
   35SOL    HW2  139   0.369   0.024   1.808  0.4396  0.2174  0.4553
   35SOL     MW  140   0.361   0.064   1.885  0.6180 -0.2417 -0.2032
   36SOL     OW  141   1.817   1.924   0.470 -0.0066 -0.2904  0.1833
   36SOL    HW1  142   1.841   1.921   0.375  0.1777 -1.3514 -0.3188
   36SOL    HW2  143   1.841   1.832   0.489  2.3203  2.3156 -2.5471
   36SOL     MW  144   1.823   1.912   0.460  0.3247 -0.0865 -0.2432
   37SOL     OW  145   1.828   1.973   0.951 -0.0890  0.0208 -0.5974
   37SOL    HW1  146   1.765   1.945   0.887  1.9241  4.2339  2.6485
   37SOL    HW2  147   1.772   2.024   1.011 -2.3518  1.1192  2.6108
   37SOL     MW  148   1.812   1.976   0.950 -0.1219  0.7216  0.2541
   38SOL     OW  149   2.815   0.910   0.288  0.4135  0.3928 -0.6142
   38SOL    HW1  150   2.851   0.924   0.378 -2.2022 -0.5681 -2.2292
   38SOL    HW2  151   2.890   0.883   0.232  0.0766  1.2531 -1.0104
   38SOL     MW  152   2.830   0.908   0.292  0.0240  0.3796 -0.8795
   39SOL     OW  153   1.439   0.639   0.796  0.2473  0.3016 -0.5337
   39SOL    HW1  154   1.402   0.556   0.817  2.8228  2.5375  1.6899
   39SOL    HW2  155   1.440   0.670   0.885  0.9746  1.5844 -2.2744
   39SOL     MW  156   1.434   0.632   0.810  0.6831  0.7659 -0.4700
   40SOL     OW  157   1.299   1.905   0.224 -0.2769  0.0972  0.4748
   40SOL    HW1  158   1.262   1.831   0.275  1.3586  0.3021 -0.3643
   40SOL    HW2  159   1.336   1.947   0.300 -0.0859  0.3071  0.8319
   40SOL     MW  160   1.299   1.901   0.241 -0.0359  0.1519  0.4112
   41SOL     OW  161   0.586   0.570   1.557 -0.2932 -0.8173 -0.1983
   41SOL    HW1  162   0.661   0.622   1.589  4.0102  1.5559  0.5901
   41SOL    HW2  163   0.579   0.506   1.624 -0.8533  2.2889 -0.2146
   41SOL     MW  164   0.595   0.568   1.570  0.2007 -0.0944 -0.0964
   42SOL     OW  165   1.388   3.058   2.000  0.3413 -0.5705 -0.1804
   42SOL    HW1  166   1.292   3.051   1.995  2.9921 -0.2419  0.2495
   42SOL    HW2  167   1.410   2.966   2.026  1.0589  1.4934  2.2020
   42SOL     MW  168   1.378   3.045   2.003  0.7857 -0.2549  0.1907
   43SOL     OW  169   1.582   0.167   1.580 -0.0763 -0.1958 -0.1650
   43SOL    HW1  170   1.618   0.111   1.507 -2.4348 -2.7210  1.7816
   43SOL    HW2  171   1.518   0.111   1.629 -2.4990 -1.4429  2.8718
   43SOL     MW  172   1.578   0.152   1.577 -0.7071 -0.6935  0.4925
   44SOL     OW  173   1.342   0.744   1.073 -0.4194 -0.2969  0.5442
   44SOL    HW1  174   1.322   0.834   1.045  0.7299  1.2383  2.0001
   44SOL    HW2  175   1.342   0.735   1.169 -1.1315 -0.9552  0.4997
   44SOL     MW  176   1.340   0.755   1.082 -0.3617 -0.1812  0.7304
   45SOL     OW  177   1.001   0.840   0.797  0.1818 -0.3973  0.2517
   45SOL    HW1  178   0.983   0.751   0.833 -1.0674 -0.7829 -2.1977
   45SOL    HW2  179   0.993   0.829   0.693  0.2312  0.3860  1.0090
   45SOL     MW  180   0.998   0.827   0.788  0.0235 -0.3448  0.0284
   46SOL     OW  181   0.640   1.114   0.611 -0.3050  0.7656 -1.2203
   46SOL    HW1  182   0.648   1.131   0.518  2.1199  0.5215  2.3454
   46SOL    HW2  183   0.704   1.040   0.625 -0.1054 -0.5629 -1.7966
   46SOL     MW  184   0.650   1.106   0.601  0.0413  0.5581 -0.8259
   47SOL     OW  185   0.058   1.820   1.810  0.2472  1.0467 -0.4857
   47SOL    HW1  186   0.152   1.810   1.796  1.7381  1.8669 -0.0528
   47SOL    HW2  187   0.052   1.792   1.903  1.0289  2.5619  2.0891
   47SOL     MW  188   0.069   1.815   1.821  0.5470  1.3548 -0.0888
   48SOL     OW  189   1.049   0.625   0.996 -0.3946 -0.0691  1.1103
   48SOL    HW1  190   1.026   0.683   1.071  0.2297 -0.8436 -0.8278
   48SOL    HW2  191   1.147   0.639   0.978  2.3607  0.8795 -0.5214
   48SOL     MW  192   1.059   0.635   1.004  0.0513 -0.0461  0.6393
   49SOL     OW  193   1.884   0.724   1.585 -0.2258  0.9006 -0.0300
   49SOL    HW1  194   1.815   0.713   1.646 -1.5531  0.7131 -0.7864
   49SOL    HW2  195   1.930   0.641   1.575 -0.8703 -0.2612  0.6687
   49SOL     MW  196   1.881   0.711   1.592 -0.4860  0.7226 -0.0376
   50SOL     OW  197   1.286   1.032   0.572 -0.4920 -0.4207  0.5726
   50SOL    HW1  198   1.248   1.070   0.651  0.3048  0.8550 -2.2476
   50SOL    HW2  199   1.305   0.949   0.603  1.1675  3.0366 -1.1622
   50SOL     MW  200   1.284   1.026   0.587 -0.1679  0.2037 -0.0284
   51SOL     OW  201   0.292   2.905   0.875 -0.3170  0.0159 -0.1194
   51SOL    HW1  202   0.378   2.859   0.889 -2.8887 -1.7236  0.0086
   51SOL    HW2  203   0.295   2.968   0.953 -1.3444 -1.3559  0.0006
   51SOL     MW  204   0.304   2.907   0.887 -0.7918 -0.3946 -0.0866
   52SOL     OW  205   0.819   1.884   0.479  0.3654 -0.0883 -0.1995
   52SOL    HW1  206   0.748   1.939   0.521  1.5714  3.1797 -0.8909
   52SOL    HW2  207   0.809   1.882   0.387  2.2106  1.4182  1.1797
   52SOL     MW  208   0.808   1.891   0.472  0.7680  0.5417 -0.1088
   53SOL     OW  209   0.399   2.053   0.636  0.0948 -0.0583 -0.6804
   53SOL    HW1  210   0.363   2.022   0.551 -0.4721 -0.8009  2.5197
   53SOL    HW2  211   0.373   2.145   0.632 -0.1236 -5.4394  0.0278
   53SOL     MW  212   0.390   2.061   0.624 -0.0088 -0.8662 -0.1647
   54SOL     OW  213   2.183   0.849   0.853 -0.1965 -0.0319  0.0109
   54SOL    HW1  214   2.188   0.812   0.768 -0.0054 -0.7803  1.4157
   54SOL    HW2  215   2.088   0.859   0.868 -1.5794  2.0013 -0.6347
   54SOL     MW  216   2.171   0.846   0.844 -0.3537  0.1376  0.1110
   55SOL     OW  217   0.519   1.453   1.531  0.4317 -0.2357  0.0175
   55SOL    HW1  218   0.525   1.510   1.452  0.1923  0.8762 -0.5504
   55SOL    HW2  219   0.603   1.398   1.517  0.1403 -0.7316 -1.2818
   55SOL     MW  220   0.531   1.453   1.519  0.3617 -0.1544 -0.2288
   56SOL     OW  221   0.478   0.813   0.108 -0.1145 -0.2720  0.3086
   56SOL    HW1  222   0.521   0.861   0.042  0.6845  0.3043  1.2097
   56SOL    HW2  223   0.391   0.798   0.071 -0.5751 -1.2062  0.3357
   56SOL     MW  224   0.472   0.817   0.094 -0.0698 -0.3192  0.4311
   57SOL     OW  225   1.254   1.217   1.175  0.1574  0.1624 -0.2706
   57SOL    HW1  226   1.349   1.229   1.183 -1.4824  1.6529  1.2795
   57SOL    HW2  227   1.234   1.153   1.248  1.6888 -1.8145 -0.9579
   57SOL     MW  228   1.264   1.210   1.186  0.1431  0.0982 -0.1568
   58SOL     OW  229   0.660   1.089   1.278 -0.3587 -0.3090 -0.2064
   58SOL    HW1  230   0.571   1.134   1.265 -2.4413 -0.2597  2.7990
   58SOL    HW2  231   0.650   1.033   1.355  1.4297 -1.4834 -1.1104
   58SOL     MW  232   0.647   1.087   1.286 -0.3975 -0.4575  0.0708
   59SOL     OW  233   1.574   1.600   0.324 -0.0462 -0.2859 -0.2781
   59SOL    HW1  234   1.586   1.548   0.403 -0.0054 -1.7014 -4.2173
   59SOL    HW2  235   1.511   1.664   0.361  0.5945 -0.2170 -0.5113
   59SOL     MW  236   1.567   1.602   0.339  0.0437 -0.4636 -0.8286
   60SOL     OW  237   0.044   0.141   1.696  0.1861  0.0505  0.2559
   60SOL    HW1  238  -0.043   0.182   1.707  0.5263  0.8220  3.7505
   60SOL    HW2  239   0.028   0.048   1.705 -0.4108  0.1183  3.2307
   60SOL     MW  240   0.030   0.134   1.698  0.1522  0.1613  1.1095
   61SOL     OW  241   2.022   1.480   3.039 -0.6595 -0.1645  0.5463
   61SOL    HW1  242   2.048   1.502   3.132  1.4452 -0.0071 -1.1853
   61SOL    HW2  243   2.048   1.392   3.035 -0.7017  3.4198  2.5637
   61SOL     MW  244   2.029   1.471   3.051 -0.3874  0.3292  0.5840
   62SOL     OW  245   0.588   1.620   0.542  0.2233  0.0422  0.2118
   62SOL    HW1  246   0.653   1.597   0.467 -0.6879  0.2148  0.1432
   62SOL    HW2  247   0.564   1.538   0.596 -1.1840 -1.9175 -0.4772
   62SOL     MW  248   0.593   1.606   0.539 -0.0826 -0.1936  0.1118
   63SOL     OW  249   1.701   0.785   0.743  0.6445  0.3126  0.2401
   63SOL    HW1  250   1.703   0.790   0.648  1.3158 -2.4604  0.5580
   63SOL    HW2  251   1.622   0.742   0.779  0.3480 -1.4678 -1.3696
   63SOL     MW  252   1.691   0.780   0.735  0.6939 -0.2882  0.0697
   64SOL     OW  253   0.248   1.685   0.955  0.5689 -0.2434 -0.0359
   64SOL    HW1  254   0.327   1.698   0.900  2.6285 -1.2112 -0.9984
   64SOL    HW2  255   0.184   1.750   0.931 -0.8329 -0.0311  0.6676
   64SOL     MW  256   0.250   1.695   0.944  0.6557 -0.3431 -0.0701
   65SOL     OW  257   1.589   2.262   0.318 -1.2238 -0.9979  0.5840
   65SOL    HW1  258   1.633   2.248   0.234  2.1153 -0.2218 -0.8899
   65SOL    HW2  259   1.614   2.354   0.350  1.1464  0.8418  2.0713
   65SOL     MW  260   1.598   2.272   0.311 -0.4705 -0.6528  0.5858
   66SOL     OW  261   0.304   0.608   0.542 -0.6857  0.3830  0.3936
   66SOL    HW1  262   0.365   0.560   0.482 -2.7320  1.0124  1.6278
   66SOL    HW2  263   0.300   0.703   0.523  1.0408 -2.1602 -0.4679
   66SOL     MW  264   0.312   0.614   0.532 -0.7279  0.1305  0.4428
   67SOL     OW  265   1.520   0.210   2.008  0.5391  0.1951  0.0664
   67SOL    HW1  266   1.559   0.237   1.930 -0.0012 -0.5541  1.2163
   67SOL    HW2  267   1.507   0.118   1.993  0.2761  1.6364 -1.0924
   67SOL     MW  268   1.524   0.201   1.996  0.4331  0.2864  0.0652
   68SOL     OW  269   0.758   0.067   2.994 -0.3475 -0.2133 -0.3062
   68SOL    HW1  270   0.739   0.088   2.898 -1.5414 -1.8216 -1.9002
   68SOL    HW2  271   0.743   0.152   3.037  1.6636 -2.9951  2.6233
   68SOL     MW  272   0.753   0.081   2.987 -0.2397 -0.7925 -0.1300
   69SOL     OW  273   1.026   0.172   1.967  0.5139  0.0265 -0.4394
   69SOL    HW1  274   1.106   0.219   1.998 -2.3267  0.3462  0.6561
   69SOL    HW2  275   1.048   0.078   1.961 -2.1146 -1.2966  0.5391
   69SOL     MW  276   1.040   0.166   1.970 -0.2077 -0.1059 -0.1658
   70SOL     OW  277   0.585   1.826   1.148  0.3351 -0.0110  0.3369
   70SOL    HW1  278   0.584   1.737   1.184  1.9256  2.0283  3.6719
   70SOL    HW2  279   0.673   1.839   1.102 -2.0386  0.8835  0.4319
   70SOL     MW  280   0.597   1.816   1.147  0.2318  0.3761  0.7895
   71SOL     OW  281   1.828   0.641   1.323 -0.1195  0.4789  0.1937
   71SOL    HW1  282   1.809   0.664   1.411 -1.2158  1.3752  1.0221
   71SOL    HW2  283   1.745   0.628   1.279  1.5153  1.0707 -1.2432
   71SOL     MW  284   1.814   0.642   1.329 -0.0484  0.6753  0.1134
   72SOL     OW  285   0.830   1.829   1.019 -0.2845 -0.3947 -0.1806
   72SOL    HW1  286   0.821   1.890   0.946  0.3070  2.4445 -0.2484
   72SOL    HW2  287   0.844   1.741   0.978  0.6557  0.8734 -0.3528
   72SOL     MW  288   0.831   1.825   1.004 -0.0824  0.1472 -0.2123
   73SOL     OW  289   1.322   0.607   1.319  0.7002  0.0300 -0.1060
   73SOL    HW1  290   1.255   0.544   1.285  2.7070 -1.8823 -0.6280
   73SOL    HW2  291   1.270   0.663   1.379  0.5992 -2.3428  1.6511
   73SOL     MW  292   1.306   0.606   1.323  0.9516 -0.5354  0.0570
   74SOL     OW  293   2.794   0.089   1.031 -0.1649  0.3878 -0.3361
   74SOL    HW1  294   2.747   0.071   0.954  1.7162  0.9268  1.6169
   74SOL    HW2  295   2.887   0.094   1.008 -0.0850  0.9529 -0.2259
   74SOL     MW  296   2.800   0.087   1.018  0.0938  0.5335 -0.0638
   75SOL     OW  297   1.647   1.283   0.085  0.7855  0.5396  0.2079
   75SOL    HW1  298   1.684   1.285   0.179 -0.9171  0.8131 -0.6738
   75SOL    HW2  299   1.662   1.188   0.055  0.2625  0.5113  1.5791
   75SOL     MW  300   1.654   1.271   0.094  0.4919  0.5719  0.2725
   76SOL     OW  301   2.938   0.628   0.446  0.2308 -0.0774  1.2110
   76SOL    HW1  302   2.980   0.650   0.535 -1.2870  2.4803 -0.2469
   76SOL    HW2  303   3.015   0.599   0.392 -0.4119  2.9123 -1.9865
   76SOL     MW  304   2.954   0.627   0.451 -0.0543  0.6545  0.5967
   77SOL     OW  305   0.920   0.488   0.519  0.4546  0.0055  0.1677
   77SOL    HW1  306   0.881   0.564   0.472 -0.5079  0.4070 -1.5334
   77SOL    HW2  307   0.836   0.438   0.517 -0.0644 -1.1613 -2.1753
   77SOL     MW  308   0.904   0.491   0.512  0.2591 -0.0955 -0.3659
   78SOL     OW  309   0.906   0.747   1.210 -0.5635 -0.0384 -0.1524
   78SOL    HW1  310   0.863   0.674   1.259 -0.0821 -0.1535 -0.0827
   78SOL    HW2  311   0.873   0.832   1.235 -1.6550 -0.0525 -2.1641
   78SOL     MW  312   0.896   0.749   1.220 -0.6440 -0.0554 -0.4087
   79SOL     OW  313   1.860   1.651   0.569 -0.1259  0.0765  0.4354
   79SOL    HW1  314   1.787   1.595   0.531 -0.3559 -4.4592  2.3633
   79SOL    HW2  315   1.857   1.638   0.664  2.0802 -0.6892  3.0220
   79SOL     MW  316   1.850   1.642   0.576  0.1348 -0.6230  1.0310
   80SOL     OW  317   0.159   1.083   0.290  0.4255 -0.3901 -0.4971
   80SOL    HW1  318   0.075   1.039   0.301 -2.4454 -0.7961  2.6691
   80SOL    HW2  319   0.224   1.031   0.332  0.7894  1.9256 -1.0475
   80SOL     MW  320   0.157   1.071   0.297  0.0947 -0.1381 -0.1520
   81SOL     OW  321   1.897   1.900   0.209  0.3025 -0.0664  0.0953
   81SOL    HW1  322   1.846   1.819   0.186  1.2290 -0.2724 -1.3107
   81SOL    HW2  323   1.882   1.964   0.144  1.0567 -0.9005  3.7937
   81SOL     MW  324   1.888   1.898   0.198  0.5243 -0.2036  0.3978
   82SOL     OW  325   0.891   0.858   0.547 -1.0634  0.0676 -0.1356
   82SOL    HW1  326   0.957   0.880   0.480 -0.5998 -0.5297 -0.4398
   82SOL    HW2  327   0.824   0.815   0.491 -2.7784 -0.7573  0.3230
   82SOL     MW  328   0.891   0.855   0.530 -1.2285 -0.1201 -0.1152
   83SOL     OW  329   0.066   0.579   1.362  0.2292  0.1646  0.1041
   83SOL    HW1  330   0.105   0.664   1.335  0.3533  0.0735 -0.4180
   83SOL    HW2  331   0.146   0.535   1.380 -1.8908 -2.3417 -0.3670
   83SOL     MW  332   0.082   0.585   1.361 -0.0341 -0.1781 -0.0270
   84SOL     OW  333   0.068   0.289   1.066 -0.7011 -0.2203  0.2868
   84SOL    HW1  334   0.030   0.277   0.978 -0.1104 -2.6007  2.0772
   84SOL    HW2  335   0.062   0.203   1.109  2.2480 -0.5593 -0.9561
   84SOL     MW  336   0.062   0.276   1.060 -0.2340 -0.5791  0.3590
   85SOL     OW  337   0.481   0.404   0.708 -0.2531 -0.1894  0.4135
   85SOL    HW1  338   0.418   0.456   0.656 -3.0108  0.9784 -2.0934
   85SOL    HW2  339   0.426   0.353   0.771  0.8916 -2.3624  3.2268
   85SOL     MW  340   0.465   0.404   0.710 -0.4659 -0.3220  0.4539
   86SOL     OW  341   1.132   0.456   1.206  0.2440 -0.3062  0.4105
   86SOL    HW1  342   1.089   0.495   1.124  1.3874  0.0808 -0.2343
   86SOL    HW2  343   1.059   0.448   1.270 -2.0122 -0.6498 -0.8697
   86SOL     MW  344   1.117   0.460   1.204  0.0972 -0.3005  0.1565
   87SOL     OW  345   1.252   1.449   1.367  0.4125 -0.9674  0.0029
   87SOL    HW1  346   1.263   1.498   1.282 -0.4597 -1.1253 -0.0802
   87SOL    HW2  347   1.254   1.358   1.334 -0.3714 -1.4813 -1.8863
   87SOL     MW  348   1.254   1.444   1.351  0.1940 -1.0560 -0.2573
   88SOL     OW  349   1.346   1.014   0.997  0.1467  0.2252  0.5357
   88SOL    HW1  350   1.429   0.999   1.033 -0.4562 -0.5461 -2.1832
   88SOL    HW2  351   1.306   1.055   1.070  1.9913  0.5545 -1.4345
   88SOL     MW  352   1.351   1.018   1.011  0.3106  0.1669 -0.0830
   89SOL     OW  353   1.821   0.575   0.317  0.2417 -0.7481 -0.4362
   89SOL    HW1  354   1.865   0.498   0.355 -0.6060 -0.7213 -1.2763
   89SOL    HW2  355   1.875   0.606   0.239  0.0176 -0.6589 -1.9245
   89SOL     MW  356   1.834   0.569   0.311  0.1002 -0.7328 -0.7434
   90SOL     OW  357   0.784   1.236   2.842 -0.3909  0.5980 -0.0895
   90SOL    HW1  358   0.805   1.149   2.810 -0.1426 -1.8692  1.4576
   90SOL    HW2  359   0.851   1.262   2.897 -1.6622 -1.7351 -2.2101
   90SOL     MW  360   0.796   1.228   2.845 -0.5259 -0.0353 -0.1652
   91SOL     OW  361   1.935   0.781   0.475  0.7900 -0.0538 -0.2558
   91SOL    HW1  362   1.943   0.868   0.424 -1.8876 -2.3116 -0.9674
   91SOL    HW2  363   1.902   0.724   0.405  0.0288 -1.3977 -1.4701
   91SOL     MW  364   1.932   0.785   0.459  0.3363 -0.5290 -0.5099
   92SOL     OW  365   1.642   0.769   0.457  0.7273 -0.2361  0.0061
   92SOL    HW1  366   1.545   0.755   0.469 -0.0507 -1.3546  1.4057
   92SOL    HW2  367   1.669   0.693   0.407 -1.4039 -2.0973 -2.5129
   92SOL     MW  368   1.632   0.757   0.452  0.3434 -0.6293 -0.1416
   93SOL     OW  369   0.994   0.234   0.392 -0.2152 -0.2741 -0.0056
   93SOL    HW1  370   1.001   0.325   0.412 -1.2147 -1.0821  0.9466
   93SOL    HW2  371   0.912   0.214   0.343 -0.8379 -1.0591  1.2617
   93SOL     MW  372   0.984   0.243   0.388 -0.4292 -0.4843  0.2872
   94SOL     OW  373   1.974   1.301   1.693 -0.2591 -0.3263  0.2609
   94SOL    HW1  374   1.934   1.306   1.609 -0.8623 -1.2337 -1.5699
   94SOL    HW2  375   1.921   1.240   1.736  0.3190  1.7896 -2.1782
   94SOL     MW  376   1.962   1.293   1.688 -0.2624 -0.1669 -0.3025
   95SOL     OW  377   0.927   1.567   1.011 -0.2524  0.3304 -0.0773
   95SOL    HW1  378   0.953   1.477   1.028 -0.6905  0.7787 -0.0848
   95SOL    HW2  379   1.000   1.618   1.031 -1.1738 -2.7106 -0.9951
   95SOL     MW  380   0.940   1.562   1.016 -0.4318 -0.0117 -0.1993
   96SOL     OW  381   1.308   1.807   1.713 -0.7124 -0.5867 -0.0754
   96SOL    HW1  382   1.217   1.774   1.717 -3.3102 -0.2932 -0.2191
   96SOL    HW2  383   1.350   1.739   1.656 -1.4996 -0.0434  0.1201
   96SOL     MW  384   1.302   1.793   1.706 -1.1590 -0.4763 -0.0685
   97SOL     OW  385   1.214   1.443   0.869 -0.4321  0.4680  0.0001
   97SOL    HW1  386   1.237   1.487   0.953 -0.1378 -1.4637 -1.5595
   97SOL    HW2  387   1.136   1.495   0.827 -1.5084  2.4230  0.4998
   97SOL     MW  388   1.207   1.456   0.875 -0.5353  0.4711 -0.1397
   98SOL     OW  389   1.546   1.271   1.151  0.0122  0.1449  0.6646
   98SOL    HW1  390   1.565   1.361   1.181 -2.6540  1.1178  0.1602
   98SOL    HW2  391   1.565   1.272   1.058 -2.4809  1.1910  0.5062
   98SOL     MW  392   1.551   1.283   1.143 -0.6685  0.4113  0.5772
   99SOL     OW  393   1.436   0.372   1.201  0.4208  0.5076 -0.0525
   99SOL    HW1  394   1.481   0.452   1.192  0.1494  0.7070 -0.6502
   99SOL    HW2  395   1.386   0.395   1.282 -1.7959 -0.1919  2.0695
   99SOL     MW  396   1.435   0.386   1.210  0.0925  0.4416  0.1486
  100SOL     OW  397   1.083   1.054   1.359  0.4056  0.2285 -0.2414
  100SOL    HW1  398   1.021   1.052   1.440  1.4797  0.4195 -0.0145
  100SOL    HW2  399   1.112   0.964   1.356  0.7818  2.6473  0.0207
  100SOL     MW  400   1.079   1.042   1.369  0.5970  0.5728 -0.1769
  101SOL     OW  401   0.649   1.148   0.356  0.4295  0.4982 -0.1341
  101SOL    HW1  402   0.624   1.049   0.342 -1.5543  0.0681  0.5730
  101SOL    HW2  403   0.683   1.182   0.274  0.4393 -1.9941  0.6219
  101SOL     MW  404   0.650   1.139   0.343  0.1691  0.1127  0.0589
  102SOL     OW  405   2.906   0.658   0.932  0.5201 -0.6756 -0.1976
  102SOL    HW1  406   2.983   0.681   0.887  1.0697  1.8134 -1.0120
  102SOL    HW2  407   2.934   0.636   1.023  0.3915 -0.7439  1.2003
  102SOL     MW  408   2.920   0.658   0.938  0.5756 -0.3562 -0.1206
  103SOL     OW  409   1.704   0.350   1.766 -0.7843 -0.0311 -0.1283
  103SOL    HW1  410   1.698   0.270   1.712  0.7194  1.9295 -0.7237
  103SOL    HW2  411   1.780   0.336   1.837 -0.4686  1.6870  0.4739
  103SOL     MW  412   1.713   0.337   1.768 -0.5442  0.4543 -0.1274
  104SOL     OW  413   0.092   1.811   1.479  0.2583  0.1006  0.4191
  104SOL    HW1  414   0.183   1.793   1.462 -1.7954  1.4906 -0.7339
  104SOL    HW2  415   0.061   1.752   1.538  0.8057  1.2333 -1.1004
  104SOL     MW  416   0.100   1.800   1.485  0.0596  0.4335  0.0665
  105SOL     OW  417   0.130   1.207   0.541  0.1349 -0.5856  0.1371
  105SOL    HW1  418   0.140   1.174   0.455 -2.5877 -1.6494  2.1621
  105SOL    HW2  419   0.154   1.303   0.546  3.0757 -1.0749 -0.1938
  105SOL     MW  420   0.135   1.216   0.531  0.1637 -0.7905  0.3606
  106SOL     OW  421   0.832   0.319   0.919  0.7023 -0.4939 -0.3046
  106SOL    HW1  422   0.775   0.399   0.910 -4.3094  1.1100 -0.9920
  106SOL    HW2  423   0.902   0.325   0.858  1.2687  0.2057  1.5531
  106SOL     MW  424   0.834   0.330   0.910  0.1158 -0.1900 -0.1502
  107SOL     OW  425   0.794   2.201   3.068 -0.3661 -0.3711  0.2607
  107SOL    HW1  426   0.747   2.135   3.018  2.2119  1.7562 -0.3999
  107SOL    HW2  427   0.868   2.163   3.115  2.8074 -0.9107  0.0475
  107SOL     MW  428   0.797   2.187   3.067  0.3927 -0.1616  0.1454
  108SOL     OW  429   1.383   1.571   1.578  0.3373  0.5467 -0.1703
  108SOL    HW1  430   1.340   1.535   1.507  0.3721  1.5576 -0.3940
  108SOL    HW2  431   1.426   1.502   1.625 -0.4876 -0.3258 -3.4021
  108SOL     MW  432   1.383   1.557   1.575  0.2331  0.5649 -0.6262
  109SOL     OW  433   1.963   0.758   0.172  0.4675  0.3647  0.3651
  109SOL    HW1  434   1.935   0.808   0.091 -1.3247 -1.0172 -0.5319
  109SOL    HW2  435   2.055   0.779   0.182 -1.3295  2.5379 -2.2741
  109SOL     MW  436   1.971   0.767   0.163 -0.0060  0.4691 -0.1014
  110SOL     OW  437   0.454   1.797   0.746 -0.2983 -0.0390 -0.0883
  110SOL    HW1  438   0.497   1.755   0.666 -0.3210 -2.0507 -2.7486
  110SOL    HW2  439   0.423   1.882   0.720 -0.4887 -1.2820 -0.2791
  110SOL     MW  440   0.455   1.803   0.732 -0.3265 -0.4684 -0.4644
  111SOL     OW  441   0.695   0.912   1.494 -0.0708  0.0300 -0.0574
  111SOL    HW1  442   0.758   0.835   1.507  0.4801  0.2039 -0.4544
  111SOL    HW2  443   0.621   0.899   1.555 -1.2362  2.1991 -1.8075
  111SOL     MW  444   0.694   0.900   1.504 -0.1519  0.3392 -0.3407
  112SOL     OW  445   1.302   1.147   1.604 -0.3098 -0.1694 -0.5944
  112SOL    HW1  446   1.251   1.221   1.652  0.6143  0.9031 -0.3699
  112SOL    HW2  447   1.265   1.067   1.636  3.2534  1.1072  1.9724
  112SOL     MW  448   1.290   1.146   1.615  0.2823  0.1406 -0.2261
  113SOL     OW  449   1.350   0.034   1.694  0.2968  0.4324  0.3233
  113SOL    HW1  450   1.376  -0.009   1.773  1.5852 -0.1709 -0.8462
  113SOL    HW2  451   1.339  -0.023   1.622  3.2695 -0.1940  2.4807
  113SOL     MW  452   1.352   0.021   1.695  0.8590  0.2701  0.4537
  114SOL     OW  453   0.447   2.793   1.848 -0.1846  0.5552 -0.1969
  114SOL    HW1  454   0.449   2.857   1.919  3.6309  1.3992  0.3885
  114SOL    HW2  455   0.463   2.840   1.768 -1.0594  2.0058 -0.4041
  114SOL     MW  456   0.449   2.807   1.847  0.2034  0.8580 -0.1470
  115SOL     OW  457   0.371   0.840   1.050 -0.0239  0.3043  0.1368
  115SOL    HW1  458   0.412   0.763   1.084  0.4005  0.8187  0.3036
  115SOL    HW2  459   0.362   0.905   1.125  0.0150  1.0185 -1.4599
  115SOL     MW  460   0.375   0.838   1.064  0.0372  0.4664 -0.0519
  116SOL     OW  461   0.777   0.965   0.912 -0.5177 -0.3275  0.0133
  116SOL    HW1  462   0.868   0.961   0.874  1.3902  1.7474 -0.1898
  116SOL    HW2  463   0.811   0.982   1.001  3.5837 -2.8956  1.4412
  116SOL     MW  464   0.794   0.967   0.919  0.2752 -0.3926  0.1749
  117SOL     OW  465   1.218   1.180   0.800  0.1127  0.3555 -0.5365
  117SOL    HW1  466   1.264   1.125   0.863  0.1482 -1.4529  1.9079
  117SOL    HW2  467   1.202   1.259   0.853  1.0693  2.3564 -0.1206
  117SOL     MW  468   1.222   1.183   0.815  0.2436  0.3809 -0.1591
  118SOL     OW  469   3.099   2.978   1.723  0.1869 -0.2210  0.2803
  118SOL    HW1  470   3.126   2.987   1.820  2.7307  0.3315  2.3802
  118SOL    HW2  471   3.002   2.954   1.731 -0.5875 -1.6813 -1.2252
  118SOL     MW  472   3.090   2.976   1.737  0.4204 -0.3408  0.3587
  119SOL     OW  473   0.490   1.294   1.228 -0.4079 -0.2867  0.3398
  119SOL    HW1  474   0.502   1.313   1.129  1.5878 -2.9648 -0.5326
  119SOL    HW2  475   0.392   1.278   1.240 -2.1836  0.3216  0.4646
  119SOL     MW  476   0.479   1.295   1.216 -0.3789 -0.5598  0.2411
  120SOL     OW  477   0.184   0.599   0.963 -0.2278 -0.0861 -0.0105
  120SOL    HW1  478   0.243   0.564   1.034 -0.6727 -1.2278 -2.1521
  120SOL    HW2  479   0.187   0.696   0.966  1.3953 -1.3112 -0.3283
  120SOL     MW  480   0.192   0.607   0.973 -0.0723 -0.3984 -0.3350
  121SOL     OW  481   1.795   1.040   1.786  0.3011 -0.0167 -0.4964
  121SOL    HW1  482   1.746   1.023   1.710 -2.1270  1.8268 -0.6956
  121SOL    HW2  483   1.826   0.953   1.819  4.5359 -0.9733  1.7674
  121SOL     MW  484   1.793   1.026   1.781  0.5395  0.1003 -0.2240
  122SOL     OW  485   0.131   0.481   0.721 -0.5655 -0.2917 -0.2587
  122SOL    HW1  486   0.195   0.526   0.659 -0.3372  3.3372  1.1284
  122SOL    HW2  487   0.170   0.513   0.806 -3.3287  0.1736  1.1960
  122SOL     MW  488   0.144   0.491   0.724 -0.8999  0.2485  0.1163
  123SOL     OW  489   1.723   1.043   0.470  0.1561 -0.2726 -0.1669
  123SOL    HW1  490   1.697   0.952   0.465  1.5475  0.4573  1.2806
  123SOL    HW2  491   1.777   1.064   0.550 -1.7683  0.7393  0.7771
  123SOL     MW  492   1.727   1.034   0.480  0.0858 -0.0428  0.1487
  124SOL     OW  493   0.630   0.535   0.901  0.4228  0.0530 -0.4803
  124SOL    HW1  494   0.571   0.488   0.843  1.0909 -1.3323 -1.0196
  124SOL    HW2  495   0.626   0.624   0.862 -0.2996 -0.2210 -1.9245
  124SOL     MW  496   0.622   0.540   0.888  0.4156 -0.1659 -0.7420
  125SOL     OW  497   0.637   1.638   1.695 -0.6294  0.0588 -0.0197
  125SOL    HW1  498   0.572   1.597   1.643  1.4905 -1.2576  0.1932
  125SOL    HW2  499   0.617   1.735   1.696 -1.2183  1.8775 -0.0499
  125SOL     MW  500   0.626   1.645   1.688 -0.4274  0.1251  0.0044
  126SOL     OW  501   2.127   1.605   2.051  0.0442  0.3515 -0.2500
  126SOL    HW1  502   2.189   1.667   2.023  0.1851 -0.3032  0.3911
  126SOL    HW2  503   2.185   1.540   2.083  1.3980  0.2702 -1.0984
  126SOL     MW  504   2.143   1.604   2.051  0.2414  0.2544 -0.2773
  127SOL     OW  505   0.640   0.680   1.859 -0.2804  0.1865  0.0811
  127SOL    HW1  506   0.693   0.601   1.881  0.0227 -3.0351  2.2915
  127SOL    HW2  507   0.657   0.749   1.927 -0.8688  0.8313  2.0862
  127SOL     MW  508   0.649   0.678   1.871 -0.3180 -0.1535  0.6373
  128SOL     OW  509   1.733   0.730   2.811 -0.2175 -0.0012 -0.2152
  128SOL    HW1  510   1.783   0.706   2.732 -0.8767 -0.3434  3.5603
  128SOL    HW2  511   1.731   0.825   2.790  0.3539  0.0573 -0.3008
  128SOL     MW  512   1.739   0.740   2.798 -0.2291 -0.0386  0.2716
  129SOL     OW  513   1.619   0.844   0.196 -0.3709  0.1260  0.4054
  129SOL    HW1  514   1.539   0.800   0.182  2.7321 -0.2884  2.0040
  129SOL    HW2  515   1.647   0.834   0.287 -1.9919  3.3719  2.6078
  129SOL     MW  516   1.612   0.837   0.206 -0.1754  0.4996  0.9069
  130SOL     OW  517   0.747   1.520   0.351  0.0999  0.4645 -0.2361
  130SOL    HW1  518   0.779   1.443   0.407  0.1293  0.5843 -0.8547
  130SOL    HW2  519   0.833   1.557   0.328 -1.7918 -1.3347  1.5213
  130SOL     MW  520   0.762   1.515   0.355 -0.1458  0.2429 -0.0859
  131SOL     OW  521   3.024   0.831   0.083 -0.1583 -1.2969  0.1132
  131SOL    HW1  522   3.000   0.895   0.007 -1.5597 -0.1602 -3.9765
  131SOL    HW2  523   3.121   0.829   0.074 -0.5960  1.5548 -0.2790
  131SOL     MW  524   3.034   0.839   0.072 -0.4009 -0.7707 -0.4781
  132SOL     OW  525   2.702   0.112   1.293 -0.6538  0.0795 -0.2834
  132SOL    HW1  526   2.737   0.093   1.203  0.4444 -0.8259  0.1671
  132SOL    HW2  527   2.603   0.100   1.291 -0.6864  0.2366 -0.2120
  132SOL     MW  528   2.693   0.108   1.281 -0.5132 -0.0192 -0.2145
  133SOL     OW  529   1.086   0.224   1.692 -0.1598  0.1044 -0.0380
  133SOL    HW1  530   1.170   0.180   1.684 -1.6483  0.5637  1.7649
  133SOL    HW2  531   1.062   0.215   1.781  1.3437 -0.5870  0.7143
  133SOL     MW  532   1.094   0.217   1.703 -0.1578  0.0738  0.2991
  134SOL     OW  533   1.387   2.524   1.482  0.4478 -0.3946 -0.4699
  134SOL    HW1  534   1.334   2.597   1.456  0.4373 -2.6050  2.1754
  134SOL    HW2  535   1.433   2.567   1.558  0.5188 -0.8877  0.3919
  134SOL     MW  536   1.386   2.540   1.489  0.4558 -0.7513 -0.0072
  135SOL     OW  537   2.997   1.029   3.000  0.1960 -0.0473 -0.3511
  135SOL    HW1  538   3.071   1.083   2.997 -0.9778 -0.2302  0.5018
  135SOL    HW2  539   2.933   1.098   3.011  1.3486 -0.1382  0.3100
  135SOL     MW  540   2.999   1.045   3.001  0.1932 -0.0834 -0.1513
  136SOL     OW  541   0.219   2.086   0.875  1.1648 -0.2594  0.7408
  136SOL    HW1  542   0.138   2.037   0.859  1.4564 -0.3679 -0.1421
  136SOL    HW2  543   0.283   2.049   0.807  0.3831 -0.2208  3.9053
  136SOL     MW  544   0.217   2.074   0.864  1.1001 -0.2686  1.0418
  137SOL     OW  545   0.667   2.071   0.602 -0.2716  0.0203  0.2926
  137SOL    HW1  546   0.713   2.054   0.682 -2.0245  1.9200 -0.4651
  137SOL    HW2  547   0.577   2.091   0.633 -2.0340  2.7459  0.1683
  137SOL     MW  548   0.661   2.071   0.616 -0.7354  0.6305  0.1762
  138SOL     OW  549   0.472   0.588   1.126  0.1820  0.0042 -0.3871
  138SOL    HW1  550   0.417   0.512   1.137  1.6133  0.1616  0.1056
  138SOL    HW2  551   0.526   0.561   1.053 -2.5322 -0.5177 -0.0420
  138SOL     MW  552   0.472   0.575   1.118  0.0128 -0.0439 -0.2766
  139SOL     OW  553   2.703   0.542   1.388  0.3097  0.3742  0.2055
  139SOL    HW1  554   2.741   0.448   1.373  0.2845  0.3724  1.3589
  139SOL    HW2  555   2.771   0.597   1.423  0.6226 -0.5020 -0.9764
  139SOL     MW  556   2.717   0.537   1.391  0.3477  0.2584  0.2018
  140SOL     OW  557   0.887   0.280   2.169  0.0460  0.4857  0.7376
  140SOL    HW1  558   0.927   0.220   2.099  1.6094 -2.7894 -3.1985
  140SOL    HW2  559   0.943   0.263   2.244 -3.6250  2.6384  3.0041
  140SOL     MW  560   0.900   0.270   2.170 -0.2321  0.3376  0.5173
  141SOL     OW  561   1.052   0.682   1.762 -0.1795 -0.4203  0.0550
  141SOL    HW1  562   1.114   0.621   1.718  0.8817  0.4013 -3.1071
  141SOL    HW2  563   1.107   0.758   1.778  0.4569  0.6475  1.5635
  141SOL     MW  564   1.067   0.684   1.759  0.0445 -0.1710 -0.1632
  142SOL     OW  565   0.943   1.140   0.723  0.2443  0.1540 -0.3193
  142SOL    HW1  566   0.964   1.065   0.664  1.4737 -2.8774 -1.8458
  142SOL    HW2  567   1.029   1.140   0.767  1.4397 -0.5971 -0.5274
  142SOL     MW  568   0.957   1.130   0.721  0.5642 -0.3451 -0.5482
  143SOL     OW  569   1.896   0.894   1.193  0.2920 -0.0895  0.2779
  143SOL    HW1  570   1.884   0.857   1.103  0.7364 -0.0291 -1.7000
  143SOL    HW2  571   1.908   0.817   1.252  0.4110 -3.4281 -0.4328
  143SOL     MW  572   1.896   0.879   1.189  0.3663 -0.5220 -0.0769
  144SOL     OW  573   0.169   1.261   1.546 -0.5504 -0.4848 -0.3793
  144SOL    HW1  574   0.255   1.217   1.548  0.7252 -1.5327  0.9751
  144SOL    HW2  575   0.135   1.269   1.635  0.5792  2.7406  0.1859
  144SOL     MW  576   0.176   1.257   1.558 -0.2330 -0.1975 -0.1260
  145SOL     OW  577   0.296   0.395   1.151  0.0490  0.6667 -0.0290
  145SOL    HW1  578   0.326   0.334   1.215 -0.2757  1.8535  0.1557
  145SOL    HW2  579   0.214   0.357   1.120  0.6539  1.3828 -0.0933
  145SOL     MW  580   0.289   0.382   1.155  0.0859  0.9177 -0.0131
  146SOL     OW  581   0.872   1.941   1.363 -0.5139 -0.3319  0.2237
  146SOL    HW1  582   0.937   1.964   1.299  1.4561  1.9750 -2.3531
  146SOL    HW2  583   0.789   1.976   1.341  1.5002  0.1160  0.3333
  146SOL     MW  584   0.870   1.949   1.352  0.0117  0.0316 -0.1018
  147SOL     OW  585   0.481   0.438   2.853 -0.0953 -0.3677 -0.0281
  147SOL    HW1  586   0.393   0.461   2.880  0.2810  0.9587  1.2692
  147SOL    HW2  587   0.524   0.521   2.831 -3.9928  0.1630 -0.1115
  147SOL     MW  588   0.475   0.452   2.854 -0.5599 -0.1227  0.1320
  148SOL     OW  589   0.081   0.872   1.289 -0.1544  0.6211  0.2514
  148SOL    HW1  590   0.177   0.877   1.288  0.9716  1.0691  1.8316
  148SOL    HW2  591   0.060   0.920   1.370 -1.1509 -1.1182 -1.0502
  148SOL     MW  592   0.090   0.879   1.299 -0.1373  0.4508  0.2881
  149SOL     OW  593   1.432   1.129   1.377 -0.1593 -0.6435  0.2810
  149SOL    HW1  594   1.386   1.153   1.457 -0.5383  0.0999 -1.8250
  149SOL    HW2  595   1.501   1.195   1.371  0.7502 -1.1615 -1.8859
  149SOL     MW  596   1.435   1.141   1.387 -0.0893 -0.6137 -0.2828
  150SOL     OW  597   1.852   1.333   0.716 -0.0678  0.7586 -0.5831
  150SOL    HW1  598   1.868   1.240   0.714  1.4359 -0.1177 -1.4178
  150SOL    HW2  599   1.914   1.370   0.782 -0.6263 -1.6648  0.2549
  150SOL     MW  600   1.862   1.326   0.724  0.0569  0.3232 -0.5827
  151SOL     OW  601   1.609   1.801   0.836 -0.1516  0.0416 -0.3591
  151SOL    HW1  602   1.543   1.782   0.762 -2.5592  0.4230 -0.5230
  151SOL    HW2  603   1.570   1.747   0.904  2.5588  0.7027  0.7727
  151SOL     MW  604   1.595   1.791   0.835 -0.1117  0.1791 -0.2314
  152SOL     OW  605   0.741   1.324   1.441  0.4058  0.2535  0.7263
  152SOL    HW1  606   0.750   1.257   1.368 -0.6942  0.2209  0.0784
  152SOL    HW2  607   0.825   1.339   1.480  2.0819  0.2711  2.0079
  152SOL     MW  608   0.753   1.317   1.437  0.4818  0.2515  0.8099
  153SOL     OW  609   2.620   1.204   0.741 -0.0435  0.6351 -0.3083
  153SOL    HW1  610   2.672   1.192   0.663  2.5595  2.9773 -2.9570
  153SOL    HW2  611   2.576   1.117   0.738 -0.0625  3.3784  2.3223
  153SOL     MW  612   2.621   1.191   0.730  0.2974  1.3061 -0.3107
  154SOL     OW  613   0.323   1.752   1.726 -0.3763 -0.2338 -0.4376
  154SOL    HW1  614   0.363   1.757   1.641  3.1734 -0.4138 -0.5613
  154SOL    HW2  615   0.359   1.675   1.780 -0.5343 -1.1362  2.0706
  154SOL     MW  616   0.333   1.742   1.722  0.0712 -0.3766 -0.1230
  155SOL     OW  617   1.097   0.712   0.240 -0.2788  0.3254  0.6851
  155SOL    HW1  618   1.142   0.645   0.288 -0.5142  1.1811  0.6142
  155SOL    HW2  619   1.098   0.795   0.288  0.5907  1.8342 -0.8232
  155SOL     MW  620   1.103   0.714   0.253 -0.1951  0.6373  0.4768
  156SOL     OW  621   1.602   3.035   0.995 -0.2497 -0.1896 -0.1736
  156SOL    HW1  622   1.667   3.101   1.021 -0.9185  0.9001  1.9017
  156SOL    HW2  623   1.613   2.971   1.070  0.4592  0.4274  1.5037
  156SOL     MW  624   1.612   3.035   1.009 -0.2444  0.0356  0.3215
  157SOL     OW  625   1.359   1.211   0.097  0.5301  0.1253 -0.1091
  157SOL    HW1  626   1.384   1.184   0.184  3.8903  0.2811  0.0849
  157SOL    HW2  627   1.440   1.264   0.079  1.5860 -2.6866 -0.9687
  157SOL     MW  628   1.373   1.215   0.106  1.1128 -0.2251 -0.1969
  158SOL     OW  629   0.379   1.584   2.234  0.4565  0.3128  0.2693
  158SOL    HW1  630   0.393   1.608   2.143 -0.3599  5.2435  0.0037
  158SOL    HW2  631   0.289   1.588   2.265 -0.4765  0.0302  2.2354
  158SOL     MW  632   0.369   1.588   2.226  0.2257  0.9261  0.4937
  159SOL     OW  633   1.257   1.706   0.405 -0.1634 -0.3262 -0.3265
  159SOL    HW1  634   1.231   1.627   0.349 -0.8140 -0.8534  0.7169
  159SOL    HW2  635   1.177   1.721   0.464 -2.1850  2.7899  0.3242
  159SOL     MW  636   1.243   1.697   0.405 -0.5160  0.0153 -0.1030
  160SOL     OW  637   0.401   1.086   1.531  0.6511 -0.4014  0.6772
  160SOL    HW1  638   0.398   1.031   1.610 -0.5312 -2.0243 -0.3399
  160SOL    HW2  639   0.454   1.167   1.549 -0.7954  0.6144 -0.2904
  160SOL     MW  640   0.408   1.089   1.544  0.3042 -0.4815  0.4153
  161SOL     OW  641   0.524   2.147   2.656  0.1719 -0.1415 -0.0480
  161SOL    HW1  642   0.448   2.170   2.721 -2.6048 -2.0727  0.6989
  161SOL    HW2  643   0.502   2.077   2.598  2.6172  2.6608  1.6353
  161SOL     MW  644   0.511   2.141   2.657  0.1282 -0.0266  0.2727
  162SOL     OW  645   1.021   1.751   1.837 -0.2288 -0.7721  0.0307
  162SOL    HW1  646   1.045   1.838   1.854  1.3956 -0.8874 -2.5495
  162SOL    HW2  647   0.932   1.736   1.854  0.0909  2.7196  0.5351
  162SOL     MW  648   1.012   1.761   1.842  0.0277 -0.3266 -0.2432
  163SOL     OW  649   2.158   0.162   0.999  0.0074 -0.0826 -0.0417
  163SOL    HW1  650   2.170   0.206   0.908  0.1799  2.2846 -0.2525
  163SOL    HW2  651   2.109   0.086   0.982 -1.7210  4.0248 -0.1249
  163SOL     MW  652   2.153   0.158   0.984 -0.1979  0.7716 -0.0805
  164SOL     OW  653   0.309   0.245   0.852  0.0221 -0.3951 -0.2179
  164SOL    HW1  654   0.234   0.219   0.894  0.4691 -0.1900  1.9134
  164SOL    HW2  655   0.316   0.177   0.782 -2.7254 -1.5040 -0.9951
  164SOL     MW  656   0.300   0.233   0.848 -0.2814 -0.5143 -0.0392
  165SOL     OW  657   1.396   1.188   0.380 -0.2032  0.0059  0.1292
  165SOL    HW1  658   1.342   1.130   0.436  0.0583  0.5557 -2.1053
  165SOL    HW2  659   1.481   1.168   0.413  1.0939  1.9155  1.1060
  165SOL     MW  660   1.400   1.178   0.392  0.0024  0.3304 -0.0367
  166SOL     OW  661   0.516   1.053   0.963  0.1926  0.8785  0.5051
  166SOL    HW1  662   0.479   0.970   1.000  1.9474 -0.1024  0.4894
  166SOL    HW2  663   0.606   1.028   0.937  3.4120  3.2532  0.2251
  166SOL     MW  664   0.523   1.039   0.964  0.8489  1.0624  0.4661
  167SOL     OW  665   0.954   1.174   0.355  0.0799 -0.8930 -0.0014
  167SOL    HW1  666   0.909   1.241   0.396 -0.7092 -1.0074  2.1634
  167SOL    HW2  667   0.993   1.204   0.270  2.7870  1.5414 -2.5429
  167SOL     MW  668   0.953   1.187   0.350  0.3329 -0.5869 -0.0511
  168SOL     OW  669   1.682   1.742   2.920  0.0359  0.2644  0.3124
  168SOL    HW1  670   1.646   1.822   2.965 -0.5512  0.8308  1.4487
  168SOL    HW2  671   1.699   1.682   2.991 -2.6966 -2.6335 -3.2205
  168SOL     MW  672   1.680   1.745   2.935 -0.4021 -0.0432 -0.0038
  169SOL     OW  673   0.337   1.005   1.280 -0.1098 -0.1104  0.3046
  169SOL    HW1  674   0.372   1.027   1.365 -2.1007 -4.0031 -0.9444
  169SOL    HW2  675   0.273   1.080   1.261 -0.1431  1.9514 -3.8044
  169SOL     MW  676   0.333   1.018   1.289 -0.3769 -0.3520 -0.4023
  170SOL     OW  677   1.021   1.468   1.537  0.0656 -0.4497  0.0088
  170SOL    HW1  678   0.962   1.545   1.534 -0.2614 -1.2300 -1.0729
  170SOL    HW2  679   1.086   1.468   1.469  1.3722  0.2199  5.6552
  170SOL     MW  680   1.022   1.478   1.528  0.1949 -0.4643  0.6111
  171SOL     OW  681   0.567   1.365   0.693 -0.3976  0.5483  0.2419
  171SOL    HW1  682   0.567   1.388   0.789 -0.9259 -1.5169 -1.0039
  171SOL    HW2  683   0.581   1.270   0.685 -0.7966 -0.8938  0.9366
  171SOL     MW  684   0.569   1.356   0.705 -0.5200  0.0856  0.1692
  172SOL     OW  685   0.837   0.285   1.184  0.2662 -0.2477  0.6728
  172SOL    HW1  686   0.843   0.302   1.091 -0.7399  0.8148  2.1407
  172SOL    HW2  687   0.762   0.332   1.219  0.5557 -1.5530  2.5080
  172SOL     MW  688   0.828   0.294   1.176  0.1716 -0.2798  1.1086
  173SOL     OW  689   0.390   1.630   0.361  0.7733 -0.2278 -0.1388
  173SOL    HW1  690   0.393   1.535   0.355 -0.8047  0.4435  2.1706
  173SOL    HW2  691   0.453   1.653   0.432  0.2190 -1.0933  1.8325
  173SOL     MW  692   0.399   1.621   0.369  0.4920 -0.2535  0.4260
  174SOL     OW  693   2.044   0.929   1.471 -0.2883  0.7130 -0.1191
  174SOL    HW1  694   1.982   0.865   1.517 -0.2971 -1.4163  1.2535
  174SOL    HW2  695   1.984   0.996   1.446  0.3155  3.7906  1.3072
  174SOL     MW  696   2.028   0.929   1.474 -0.2098  0.8381  0.2502
  175SOL     OW  697   0.373   1.368   0.393 -0.1553 -0.0313 -0.3606
  175SOL    HW1  698   0.386   1.362   0.298  1.8547 -0.3300  1.5689
  175SOL    HW2  699   0.438   1.312   0.425 -1.1866  2.2065 -0.5993
  175SOL     MW  700   0.384   1.359   0.385 -0.0262  0.2246 -0.1375
  176SOL     OW  701   0.213   1.248   1.243  0.2796 -0.4340  0.3615
  176SOL    HW1  702   0.142   1.249   1.178  3.3065 -2.0321  0.1046
  176SOL    HW2  703   0.174   1.280   1.318  2.7638 -1.9656 -1.7975
  176SOL     MW  704   0.199   1.252   1.244  1.0067 -0.8470  0.0428
  177SOL     OW  705   0.616   0.431   1.281  0.4077 -0.0598 -0.0397
  177SOL    HW1  706   0.562   0.486   1.220  1.6938 -0.5414  1.5893
  177SOL    HW2  707   0.615   0.478   1.365  3.1461  0.3293 -0.2724
  177SOL     MW  708   0.609   0.445   1.284  0.9387 -0.0720  0.1445
  178SOL     OW  709   3.104   0.436   3.044 -0.4544  0.2446 -0.2333
  178SOL    HW1  710   3.051   0.484   3.113  0.0714 -2.0221 -0.8782
  178SOL    HW2  711   3.063   0.459   2.966 -0.7148 -1.0527  2.4536
  178SOL     MW  712   3.092   0.446   3.043 -0.4194 -0.2256  0.0361
  179SOL     OW  713   1.632   1.328   1.485 -0.0264  0.0601  0.2475
  179SOL    HW1  714   1.641   1.332   1.583  0.9251  1.0721  1.7343
  179SOL    HW2  715   1.724   1.317   1.447 -0.4428 -1.4309 -0.6155
  179SOL     MW  716   1.645   1.327   1.493  0.0442 -0.0031  0.3298
  180SOL     OW  717   2.967   0.292   0.502  0.4440  0.5221 -0.1469
  180SOL    HW1  718   2.925   0.296   0.417  1.9874 -1.5226  0.7631
  180SOL    HW2  719   3.033   0.359   0.493 -0.5767 -2.8077 -1.4913
  180SOL     MW  720   2.970   0.301   0.489  0.5129 -0.1870 -0.2042
  181SOL     OW  721   1.136   1.354   3.044  0.0334  0.3227 -0.1178
  181SOL    HW1  722   1.188   1.360   3.121 -1.7497  0.4954 -1.1117
  181SOL    HW2  723   1.194   1.329   2.970  1.0991  0.3963  0.4598
  181SOL     MW  724   1.151   1.351   3.044 -0.0612  0.3552 -0.1727
  182SOL     OW  725   0.447   0.874   1.723  0.2978 -0.4429  0.0340
  182SOL    HW1  726   0.362   0.832   1.716  2.8539 -2.2058 -1.6948
  182SOL    HW2  727   0.508   0.814   1.757 -2.9325 -1.2782 -1.2624
  182SOL     MW  728   0.444   0.860   1.726  0.2089 -0.7857 -0.3651
  183SOL     OW  729   1.578   1.520   1.306 -0.3066 -0.0601 -0.5586
  183SOL    HW1  730   1.601   1.597   1.355  0.6610 -2.4634 -0.8867
  183SOL    HW2  731   1.586   1.442   1.373  0.7685  0.0337 -0.8781
  183SOL     MW  732   1.582   1.520   1.321 -0.0371 -0.3648 -0.6440
  184SOL     OW  733   0.823   0.466   1.935 -0.6382  0.4110  0.4060
  184SOL    HW1  734   0.887   0.532   1.920  0.2757 -2.9288  2.4699
  184SOL    HW2  735   0.838   0.436   2.021  1.2072  2.1925 -2.1843
  184SOL     MW  736   0.833   0.471   1.945 -0.2741  0.2054  0.3366
  185SOL     OW  737   1.106   0.935   1.968  0.6237 -0.8217 -0.3944
  185SOL    HW1  738   1.083   0.852   2.009  1.3844  0.0404 -1.7512
  185SOL    HW2  739   1.148   0.995   2.032  0.3848  1.1151  2.3668
  185SOL     MW  740   1.109   0.932   1.982  0.6925 -0.4524 -0.2091
  186SOL     OW  741   0.368   1.783   1.454 -0.3608 -0.0365  0.1496
  186SOL    HW1  742   0.444   1.826   1.422 -0.7499 -3.6242 -1.8541
  186SOL    HW2  743   0.335   1.723   1.387  0.8703  0.7586 -3.3024
  186SOL     MW  744   0.374   1.781   1.441 -0.2497 -0.4050 -0.5702
  187SOL     OW  745   1.514   0.739   1.493  0.0815 -0.1335  0.0035
  187SOL    HW1  746   1.456   0.745   1.569 -0.6843 -1.2186  0.5837
  187SOL    HW2  747   1.455   0.700   1.432  0.5379  1.0460  1.9890
  187SOL     MW  748   1.498   0.735   1.495  0.0407 -0.1210  0.3420
  188SOL     OW  749   1.914   1.070   0.699  0.2117  0.4303  0.0601
  188SOL    HW1  750   1.908   1.003   0.769  0.3192  1.4709  0.7738
  188SOL    HW2  751   2.007   1.078   0.677 -1.3134 -2.8094  0.8130
  188SOL     MW  752   1.926   1.063   0.706  0.0247  0.1402  0.2536
  189SOL     OW  753   0.629   0.784   0.727 -0.1309 -0.1405  0.6364
  189SOL    HW1  754   0.560   0.849   0.731  1.1344 -0.2350  0.7934
  189SOL    HW2  755   0.708   0.810   0.778  3.4230  3.8152  0.1900
  189SOL     MW  756   0.631   0.796   0.734  0.5049  0.3689  0.5982
  190SOL     OW  757   1.895   0.342   1.941 -0.5866  0.0338 -0.1343
  190SOL    HW1  758   1.975   0.290   1.926 -2.0372  0.2610  4.2977
  190SOL    HW2  759   1.935   0.434   1.929 -0.0852  1.8756  3.1147
  190SOL     MW  760   1.911   0.348   1.937 -0.7118  0.3068  0.8791
  191SOL     OW  761   1.631   0.985   1.500 -0.1647  0.0411 -0.4404
  191SOL    HW1  762   1.563   1.036   1.469  0.9849 -2.1298  0.4088
  191SOL    HW2  763   1.609   0.895   1.474  0.5110  1.3839 -0.5682
  191SOL     MW  764   1.619   0.980   1.493  0.0761 -0.0681 -0.3452
  192SOL     OW  765   0.675   2.046   2.865  0.3506 -0.1725  0.0584
  192SOL    HW1  766   0.628   2.077   2.783 -0.9358  1.9113 -0.2966
  192SOL    HW2  767   0.667   1.950   2.876  0.2644 -1.7197  1.9335
  192SOL     MW  768   0.668   2.038   2.856  0.1695 -0.1017  0.2590
  193SOL     OW  769   0.989   1.548   0.752  0.3029 -0.4346  0.5489
  193SOL    HW1  770   0.949   1.542   0.836  0.7842 -1.4175 -0.9371
  193SOL    HW2  771   0.950   1.470   0.703  0.2930 -0.9499 -1.6357
  193SOL     MW  772   0.979   1.537   0.757  0.3651 -0.6323  0.0646
  194SOL     OW  773   0.515   1.352   0.958 -0.6316  0.7466 -0.1627
  194SOL    HW1  774   0.514   1.255   0.959  2.6404 -2.9154  0.3465
  194SOL    HW2  775   0.428   1.372   0.921 -0.8040  1.1010 -3.1114
  194SOL     MW  776   0.503   1.342   0.953 -0.2226  0.3102 -0.4846
  195SOL     OW  777   1.284   1.140   2.911  0.6207  0.5376 -0.3873
  195SOL    HW1  778   1.324   1.157   2.998 -0.8534 -2.3990  0.0329
  195SOL    HW2  779   1.203   1.091   2.936  1.2232  0.1379 -0.4430
  195SOL     MW  780   1.279   1.136   2.926  0.5057  0.0974 -0.3392
  196SOL     OW  781   2.188   1.081   0.587  0.5250  0.5987  0.6224
  196SOL    HW1  782   2.139   1.089   0.503  0.6743  0.6895 -2.6993
  196SOL    HW2  783   2.222   1.171   0.602  0.6966  0.1753 -0.3566
  196SOL     MW  784   2.186   1.094   0.578  0.5673  0.5548  0.0550
  197SOL     OW  785   0.537   1.163   1.972 -0.3005  0.2366 -0.7761
  197SOL    HW1  786   0.571   1.070   1.982 -0.1521  1.8809 -0.8887
  197SOL    HW2  787   0.520   1.172   1.882  0.0565 -2.2647  3.0490
  197SOL     MW  788   0.539   1.152   1.961 -0.2338  0.1236 -0.2863
  198SOL     OW  789   2.914   1.431   1.104  0.4124 -0.5391  0.3586
  198SOL    HW1  790   2.900   1.517   1.060 -0.4206 -1.4816  0.4255
  198SOL    HW2  791   2.846   1.375   1.073 -1.7058  4.5856 -3.0182
  198SOL     MW  792   2.903   1.435   1.094  0.0230  0.0127 -0.0781
  199SOL     OW  793   0.418   1.290   1.739  0.3938  0.0089 -0.2343
  199SOL    HW1  794   0.327   1.300   1.765 -0.7284 -0.7237 -2.7244
  199SOL    HW2  795   0.437   1.368   1.681 -2.9264 -2.2838  2.0890
  199SOL     MW  796   0.409   1.302   1.735 -0.1924 -0.3903 -0.2563
  200SOL     OW  797   1.939   2.998   1.254 -0.2208 -0.2055  0.4914
  200SOL    HW1  798   1.962   3.004   1.160  3.6944  2.9220  0.2284
  200SOL    HW2  799   1.862   3.052   1.262  0.0160 -1.1357 -1.6706
  200SOL     MW  800   1.932   3.006   1.242  0.3270  0.0844  0.1714
  201SOL     OW  801   1.042   0.302   0.748  0.2237 -0.2329  0.5399
  201SOL    HW1  802   1.067   0.216   0.726 -3.8544  1.6588 -0.4383
  201SOL    HW2  803   1.019   0.342   0.667 -1.4263  1.0536 -0.3316
  201SOL     MW  804   1.042   0.296   0.734 -0.5321  0.1865  0.2958
  202SOL     OW  805   1.539   1.598   1.007  0.5725  0.0541  0.3206
  202SOL    HW1  806   1.563   1.530   0.941 -0.2616  1.3439 -0.6872
  202SOL    HW2  807   1.564   1.553   1.089  1.2582 -1.5898 -0.7277
  202SOL     MW  808   1.546   1.583   1.009  0.5530  0.0074  0.0493
  203SOL     OW  809   2.968   0.451   1.190  0.5647  0.5476  0.7227
  203SOL    HW1  810   2.997   0.385   1.119 -1.4885 -3.6635 -0.2879
  203SOL    HW2  811   3.045   0.497   1.219  3.6448  0.8639  1.4490
  203SOL     MW  812   2.982   0.448   1.184  0.7002  0.0337  0.6852
  204SOL     OW  813   1.054   1.784   0.564 -0.3651  0.0814 -0.2052
  204SOL    HW1  814   1.028   1.722   0.633 -0.5424 -2.0022  0.3036
  204SOL    HW2  815   0.971   1.821   0.532  0.0301 -0.2253 -0.0822
  204SOL     MW  816   1.040   1.781   0.569 -0.3363 -0.2340 -0.1218
  205SOL     OW  817   1.466   0.097   1.213  0.0518 -0.6396  0.0151
  205SOL    HW1  818   1.442   0.072   1.121  2.8683  1.2120 -0.9598
  205SOL    HW2  819   1.450   0.192   1.222 -4.4546 -1.9616 -1.8389
  205SOL     MW  820   1.461   0.106   1.202 -0.1712 -0.5698 -0.3581
  206SOL     OW  821   0.455   3.063   1.357  0.9707  0.3241  0.3687
  206SOL    HW1  822   0.423   3.025   1.274  0.9014  1.6547  1.9723
  206SOL    HW2  823   0.537   3.011   1.381  2.0337  0.7647  0.1974
  206SOL     MW  824   0.462   3.051   1.349  1.1018  0.5578  0.5577
  207SOL     OW  825   0.990   1.590   0.245  0.6798  0.3984 -0.2687
  207SOL    HW1  826   1.014   1.683   0.231 -1.4496 -2.7601  0.3450
  207SOL    HW2  827   1.070   1.541   0.252  0.6025 -1.6075 -0.3732
  207SOL     MW  828   1.004   1.596   0.245  0.3887 -0.2830 -0.2015
  208SOL     OW  829   0.596   1.587   1.317  0.0992 -0.7887  0.1663
  208SOL    HW1  830   0.686   1.589   1.336 -0.9633  1.4893 -0.3397
  208SOL    HW2  831   0.580   1.491   1.292  0.3220  0.3563 -0.7282
  208SOL     MW  832   0.606   1.575   1.316 -0.0116 -0.3371 -0.0185
  209SOL     OW  833   1.503   0.560   2.793  0.1208 -0.2291  0.2347
  209SOL    HW1  834   1.582   0.616   2.795 -0.9353 -0.5766  0.9474
  209SOL    HW2  835   1.548   0.474   2.772 -1.4149 -0.7061 -0.4594
  209SOL     MW  836   1.519   0.556   2.790 -0.2212 -0.3379  0.2372
  210SOL     OW  837   1.612   1.362   0.862  0.5323 -0.8459  0.2120
  210SOL    HW1  838   1.696   1.348   0.817  0.0992  0.6753 -0.0583
  210SOL    HW2  839   1.538   1.338   0.807  2.4636 -1.0220 -1.2650
  210SOL     MW  840   1.614   1.357   0.849  0.7300 -0.6684 -0.0186
  211SOL     OW  841   1.748   0.487   0.958 -0.5547  0.5259  0.0688
  211SOL    HW1  842   1.739   0.445   0.863  0.1078 -0.8091 -0.1597
  211SOL    HW2  843   1.841   0.514   0.965 -0.6307  0.7789 -0.4486
  211SOL     MW  844   1.759   0.485   0.946 -0.4773  0.3831 -0.0296
  212SOL     OW  845   0.321   1.131   0.044  0.1198  0.2660 -0.0356
  212SOL    HW1  846   0.276   1.081   0.116 -1.3172 -2.4965  0.5222
  212SOL    HW2  847   0.399   1.072   0.025 -1.5461 -2.6123 -0.7747
  212SOL     MW  848   0.326   1.117   0.051 -0.2896 -0.4782 -0.0596
  213SOL     OW  849   0.527   1.694   3.070 -0.2638  0.5400 -0.2106
  213SOL    HW1  850   0.554   1.740   3.156 -2.5147  2.4107 -2.2998
  213SOL    HW2  851   0.593   1.721   2.999  0.4842  2.0528 -0.4144
  213SOL     MW  852   0.540   1.704   3.072 -0.4621  0.9864 -0.5131
  214SOL     OW  853   0.628   0.234   2.286 -0.7364 -0.0788 -0.1759
  214SOL    HW1  854   0.569   0.286   2.223 -1.7154  0.5547 -1.2649
  214SOL    HW2  855   0.721   0.257   2.261  2.0645 -0.2521  1.4363
  214SOL     MW  856   0.633   0.244   2.274 -0.4960 -0.0181 -0.1068
  215SOL     OW  857   0.472   0.685   2.623  0.5448  0.1237 -0.0035
  215SOL    HW1  858   0.487   0.672   2.531 -0.1821  1.5735  0.3281
  215SOL    HW2  859   0.393   0.631   2.641 -2.2830  3.4846  0.2481
  215SOL     MW  860   0.463   0.676   2.613  0.0758  0.7584  0.0734
  216SOL     OW  861   3.046  -0.001   2.839  0.4848  0.1687  0.3404
  216SOL    HW1  862   2.955  -0.011   2.874  1.8800 -3.3402 -1.9100
  216SOL    HW2  863   3.057   0.078   2.779  2.0338  0.2976 -0.9127
  216SOL     MW  864   3.035   0.008   2.836  0.8733 -0.2773 -0.1219
  217SOL     OW  865   0.984   1.172   0.074 -0.3392 -0.2573  0.1391
  217SOL    HW1  866   0.995   1.091   0.027 -0.9553 -1.5187  1.9104
  217SOL    HW2  867   1.028   1.234   0.018  2.1023 -1.5672 -3.9254
  217SOL     MW  868   0.991   1.170   0.061 -0.0984 -0.5966 -0.1635
  218SOL     OW  869   0.924   1.313   2.500  0.0521  0.3982 -0.3327
  218SOL    HW1  870   0.972   1.241   2.468 -1.6551 -2.3361  0.5313
  218SOL    HW2  871   0.989   1.388   2.517  2.4440  1.0462  0.6165
  218SOL     MW  872   0.939   1.313   2.498  0.1424  0.1230 -0.0934
  219SOL     OW  873   1.026   0.374   2.599  0.2009 -0.0955 -1.0758
  219SOL    HW1  874   1.096   0.426   2.638  2.0893 -2.8278  0.0741
  219SOL    HW2  875   0.945   0.403   2.647 -1.9949  0.7347 -1.6562
  219SOL     MW  876   1.025   0.385   2.610  0.1603 -0.3464 -1.0007
  220SOL     OW  877   1.723   0.555   2.180  0.3424 -0.0847 -0.2325
  220SOL    HW1  878   1.630   0.562   2.153  4.5292  1.5553 -0.6490
  220SOL    HW2  879   1.741   0.463   2.177  3.1423  2.2295  1.0429
  220SOL     MW  880   1.714   0.544   2.176  1.2642  0.4371 -0.1191
  221SOL     OW  881   0.385   1.397   2.916  0.0607  0.2514 -0.0839
  221SOL    HW1  882   0.445   1.327   2.893  0.5794  1.1122  3.9407
  221SOL    HW2  883   0.401   1.450   2.838 -1.2812  3.6819  0.7224
  221SOL     MW  884   0.395   1.395   2.902 -0.0479  0.8176  0.5535
  222SOL     OW  885   0.382   0.947   2.697  0.6856 -0.9460 -1.1471
  222SOL    HW1  886   0.311   0.951   2.634  2.0455 -0.5609  0.3538
  222SOL    HW2  887   0.422   0.869   2.662 -2.5654  2.0458 -1.4422
  222SOL     MW  888   0.378   0.937   2.684  0.4361 -0.5005 -0.9880
  223SOL     OW  889   3.046   2.020   2.665 -0.4169 -0.4244  0.2149
  223SOL    HW1  890   3.123   1.966   2.661  0.6208 -1.2993  2.5038
  223SOL    HW2  891   3.061   2.104   2.615  1.2572  0.4487  0.3104
  223SOL     MW  892   3.058   2.024   2.658 -0.0591 -0.4246  0.5295
  224SOL     OW  893   1.549   0.802   2.541 -0.3468 -0.0940  0.9862
  224SOL    HW1  894   1.492   0.775   2.605  2.5557 -0.0958  1.4846
  224SOL    HW2  895   1.540   0.896   2.550 -0.3742 -0.8606  0.1111
  224SOL     MW  896   1.540   0.811   2.550  0.0326 -0.1954  0.9365
  225SOL     OW  897   2.988   1.520   2.263 -0.0137 -0.1553 -0.1547
  225SOL    HW1  898   3.011   1.581   2.185 -2.3270  0.3167 -3.3343
  225SOL    HW2  899   2.914   1.565   2.303 -4.1874 -2.8151 -0.0919
  225SOL     MW  900   2.981   1.534   2.258 -0.8696 -0.4440 -0.5660
  226SOL     OW  901   0.420   1.534   2.671  0.2385  0.3120  0.1412
  226SOL    HW1  902   0.495   1.493   2.630 -2.0630  2.1550  0.4584
  226SOL    HW2  903   0.417   1.624   2.652  0.4616 -0.9463 -1.4939
  226SOL     MW  904   0.429   1.540   2.663 -0.0357  0.3892 -0.0327
  227SOL     OW  905   0.490   1.166   2.802 -1.5002  0.4378  0.0169
  227SOL    HW1  906   0.576   1.184   2.766 -0.2696 -2.7514  0.9583
  227SOL    HW2  907   0.444   1.104   2.747  3.1507  1.1114  2.8371
  227SOL     MW  908   0.495   1.161   2.790 -0.7242  0.1059  0.5132
  228SOL     OW  909   0.671   0.927   1.985  0.2068  0.0517  0.1908
  228SOL    HW1  910   0.755   0.963   1.994 -1.7025 -0.0387 -2.2042
  228SOL    HW2  911   0.638   0.897   2.076  0.2631  1.6048  0.9018
  228SOL     MW  912   0.678   0.928   1.998 -0.0377  0.2447 -0.0314
  229SOL     OW  913   0.261   0.497   3.065  0.1640 -0.6049  0.0246
  229SOL    HW1  914   0.165   0.463   3.036 -1.1345 -1.8984 -1.7260
  229SOL    HW2  915   0.268   0.473   3.160 -0.4863 -0.4490  1.5072
  229SOL     MW  916   0.249   0.489   3.073 -0.0931 -0.7550 -0.0108
  230SOL     OW  917   1.698   1.396   2.104 -0.3542 -0.2533 -0.1519
  230SOL    HW1  918   1.670   1.387   2.191  0.4568 -2.1979  1.1493
  230SOL    HW2  919   1.751   1.313   2.087  1.3738  0.5048 -1.6913
  230SOL     MW  920   1.701   1.383   2.113 -0.0192 -0.4099 -0.1833
  231SOL     OW  921   2.837   1.317   2.196  0.0014 -0.5042 -0.0483
  231SOL    HW1  922   2.901   1.383   2.218 -3.0497  1.8658 -2.6009
  231SOL    HW2  923   2.755   1.351   2.152 -2.9801 -1.0243 -2.2719
  231SOL     MW  924   2.835   1.330   2.193 -0.7945 -0.2601 -0.6785
  232SOL     OW  925   2.278   1.035   2.121  0.2911 -0.0877 -0.7570
  232SOL    HW1  926   2.217   1.039   2.056  0.3164 -2.5362  0.0280
  232SOL    HW2  927   2.260   0.949   2.167  0.5895  0.8381  2.6177
  232SOL     MW  928   2.267   1.024   2.118  0.3338 -0.2886 -0.2082
  233SOL     OW  929   2.028   0.596   1.882  0.0767 -0.1293  0.2736
  233SOL    HW1  930   2.051   0.647   1.802 -2.5450  1.2457 -1.5667
  233SOL    HW2  931   2.107   0.576   1.931  0.8449 -0.6400 -2.1464
  233SOL     MW  932   2.041   0.600   1.878 -0.1678 -0.0153 -0.2885
  234SOL     OW  933   0.213   0.949   2.494  0.1154  0.2088  0.1298
  234SOL    HW1  934   0.117   0.949   2.484 -0.3299  3.4444  1.7707
  234SOL    HW2  935   0.230   1.045   2.470 -0.5584  1.5839 -2.4277
  234SOL     MW  936   0.203   0.962   2.490 -0.0322  0.8172  0.0088
  235SOL     OW  937   0.985   3.049   2.785 -0.0877  0.1564  0.2145
  235SOL    HW1  938   0.990   2.980   2.852 -0.2008 -0.8323 -0.5391
  235SOL    HW2  939   0.988   3.128   2.845  0.2717 -0.3957  1.2558
  235SOL     MW  940   0.986   3.050   2.802 -0.0552 -0.0469  0.2524
  236SOL     OW  941   2.942   0.564   0.124  0.3423 -0.4932 -0.0953
  236SOL    HW1  942   2.883   0.597   0.053 -0.1369  0.1789 -2.4487
  236SOL    HW2  943   2.964   0.643   0.158  1.4247 -0.5700 -1.2408
  236SOL     MW  944   2.937   0.579   0.119  0.4219 -0.4147 -0.5570
  237SOL     OW  945   1.766   0.924   2.186 -0.4047 -0.5607  0.0470
  237SOL    HW1  946   1.805   1.011   2.163 -1.2853 -1.5099  0.1097
  237SOL    HW2  947   1.802   0.912   2.272 -1.6687 -1.6974  0.7264
  237SOL     MW  948   1.776   0.934   2.195 -0.6877 -0.8359  0.1449
  238SOL     OW  949   1.033   1.773   2.959  0.1465 -0.0489  0.1192
  238SOL    HW1  950   0.992   1.686   2.954  0.0685 -1.5415  0.7164
  238SOL    HW2  951   1.125   1.758   2.948 -1.4917 -0.9263 -0.4452
  238SOL     MW  952   1.040   1.759   2.957 -0.0799 -0.3616  0.1236
  239SOL     OW  953   1.285   1.442   2.360 -0.4127  0.1172 -0.5229
  239SOL    HW1  954   1.252   1.443   2.449  0.5603 -1.6328  1.2124
  239SOL    HW2  955   1.383   1.428   2.359 -1.1131 -1.2345  2.6723
  239SOL     MW  956   1.293   1.440   2.371 -0.3767 -0.2921  0.1276
  240SOL     OW  957   0.586   0.828   2.230 -0.0555  0.3469  0.1054
  240SOL    HW1  958   0.563   0.907   2.280 -1.5886 -0.7529  0.0284
  240SOL    HW2  959   0.682   0.813   2.248  2.2332  2.6243 -1.7189
  240SOL     MW  960   0.596   0.836   2.239  0.0442  0.5023 -0.1454
  241SOL     OW  961   0.654   0.330   3.019 -0.0307  0.0944 -0.0612
  241SOL    HW1  962   0.604   0.351   3.100 -0.8961  2.2823  0.7426
  241SOL    HW2  963   0.587   0.362   2.957 -2.6302 -0.7055 -0.1573
  241SOL     MW  964   0.638   0.337   3.021 -0.4879  0.2776  0.0322
  242SOL     OW  965   1.447   1.723   2.273 -0.6755 -1.1036  0.5115
  242SOL    HW1  966   1.410   1.799   2.325  0.0525 -2.3635  1.0573
  242SOL    HW2  967   1.384   1.679   2.219 -0.9525  0.9286 -1.5638
  242SOL     MW  968   1.434   1.727   2.273 -0.6160 -1.0017  0.3097
  243SOL     OW  969   1.066   0.219   2.375 -0.1043 -0.5686 -0.1404
  243SOL    HW1  970   1.156   0.196   2.358  0.1147  1.7988  4.3305
  243SOL    HW2  971   1.064   0.264   2.460 -1.5383  1.3533  0.8672
  243SOL     MW  972   1.078   0.222   2.384 -0.2646 -0.0027  0.5825
  244SOL     OW  973   0.221   0.753   2.310  0.7459 -0.0606  0.2311
  244SOL    HW1  974   0.229   0.827   2.368  0.6087  0.3273  1.9633
  244SOL    HW2  975   0.310   0.709   2.307 -0.9511  1.9720  0.2282
  244SOL     MW  976   0.234   0.757   2.318  0.5039  0.2588  0.4593
  245SOL     OW  977   1.343   0.137   2.315 -0.2172 -0.2723  0.2139
  245SOL    HW1  978   1.317   0.047   2.321  1.0360  0.1881  0.9544
  245SOL    HW2  979   1.438   0.141   2.327  1.4724  3.0354 -2.3480
  245SOL     MW  980   1.352   0.125   2.317  0.1710  0.2249 -0.0264
  246SOL     OW  981   1.150   1.143   2.172 -0.1278  0.0935  0.2604
  246SOL    HW1  982   1.096   1.096   2.237  1.8843  3.2420 -1.0394
  246SOL    HW2  983   1.237   1.150   2.216  0.7057  0.4561 -0.5837
  246SOL     MW  984   1.155   1.137   2.187  0.2477  0.5567 -0.0225
  247SOL     OW  985   0.621   0.575   0.125  0.3382  0.2430 -0.0608
  247SOL    HW1  986   0.593   0.664   0.128  2.5494 -0.2623  2.4387
  247SOL    HW2  987   0.701   0.566   0.075 -0.6729  1.7967 -2.8186
  247SOL     MW  988   0.628   0.585   0.119  0.4965  0.3813 -0.0949
  248SOL     OW  989   0.337   1.210   2.402  0.6654 -0.1460  0.2529
  248SOL    HW1  990   0.378   1.278   2.349  1.9032 -1.5981  2.1183
  248SOL    HW2  991   0.315   1.253   2.481 -0.6630 -1.4585  1.3683
  248SOL     MW  992   0.339   1.225   2.405  0.6535 -0.5108  0.6462
  249SOL     OW  993   0.144   1.836   2.705 -0.4190  0.2595 -0.2255
  249SOL    HW1  994   0.079   1.764   2.675 -1.1807 -2.3580  1.4996
  249SOL    HW2  995   0.168   1.819   2.799  0.7001 -2.9363  0.4725
  249SOL     MW  996   0.138   1.825   2.714 -0.3719 -0.5075  0.0942
  250SOL     OW  997   2.184   0.854   2.306  0.0167  0.3347 -0.1688
  250SOL    HW1  998   2.239   0.775   2.305  1.3404  2.2882  0.3284
  250SOL    HW2  999   2.224   0.914   2.376  1.0229  0.6273 -0.5933
  250SOL     MW 1000   2.196   0.851   2.316  0.3241  0.6310 -0.1592
  251SOL     OW 1001   0.075   0.810   2.091  0.1887 -0.0786 -0.2263
  251SOL    HW1 1002   0.105   0.807   2.184 -1.8995  1.9988 -0.9687
  251SOL    HW2 1003   0.097   0.721   2.060  3.3272  3.6284 -0.9020
  251SOL     MW 1004   0.082   0.798   2.099  0.3272  0.6846 -0.4134
  252SOL     OW 1005   1.702   1.002   2.792 -0.1455  0.0781 -0.1144
  252SOL    HW1 1006   1.696   1.030   2.883  1.9225  1.2778 -1.1346
  252SOL    HW2 1007   1.787   1.031   2.757 -1.4933 -3.3420 -2.4025
  252SOL     MW 1008   1.713   1.010   2.799 -0.0505 -0.2149 -0.5509
  253SOL     OW 1009   1.149   1.738   2.546 -0.2626  0.3535  0.5213
  253SOL    HW1 1010   1.171   1.759   2.456  0.3104 -0.3228  1.4794
  253SOL    HW2 1011   1.063   1.785   2.570 -0.7202  0.3650  2.3255
  253SOL     MW 1012   1.141   1.747   2.537 -0.2474  0.2658  0.8857
  254SOL     OW 1013   0.967   1.045   2.343 -0.4124  0.6822 -0.2188
  254SOL    HW1 1014   0.937   0.966   2.296 -2.4245 -1.8087 -0.1174
  254SOL    HW2 1015   0.892   1.102   2.320  2.3799  2.4267  0.6294
  254SOL     MW 1016   0.953   1.042   2.334 -0.3094  0.5837 -0.0935
  255SOL     OW 1017   0.711   2.280   2.316 -0.0501  0.6459 -0.6850
  255SOL    HW1 1018   0.618   2.278   2.316  1.5353 -0.0096  1.8593
  255SOL    HW2 1019   0.747   2.325   2.389 -0.9669  1.9916 -0.7819
  255SOL     MW 1020   0.703   2.285   2.326  0.0381  0.7370 -0.3621
  256SOL     OW 1021   1.208   2.860   2.978 -0.1532  0.2254 -0.0230
  256SOL    HW1 1022   1.256   2.783   2.945 -0.5897 -0.3098 -1.8991
  256SOL    HW2 1023   1.245   2.920   2.909 -0.6177 -0.3043 -0.3156
  256SOL     MW 1024   1.219   2.858   2.965 -0.2721  0.0849 -0.3092
  257SOL     OW 1025   0.138   1.858   0.014 -0.3531 -0.2596 -0.1567
  257SOL    HW1 1026   0.150   1.814   0.097  1.6985 -3.4931  1.4839
  257SOL    HW2 1027   0.175   1.797  -0.048  0.4516  2.0829 -0.0544
  257SOL     MW 1028   0.144   1.844   0.017  0.0238 -0.3772  0.0732
  258SOL     OW 1029   0.544   1.049   2.371 -0.2973 -0.2123  0.7087
  258SOL    HW1 1030   0.582   1.106   2.306 -1.3766  0.2724  1.2366
  258SOL    HW2 1031   0.451   1.082   2.384 -0.4605 -0.9919 -0.7878
  258SOL     MW 1032   0.537   1.061   2.364 -0.4612 -0.2512  0.5809
  259SOL     OW 1033   0.606   0.376   2.534  0.1376 -0.2911  0.3606
  259SOL    HW1 1034   0.513   0.379   2.578 -3.0388  0.9260 -0.4454
  259SOL    HW2 1035   0.605   0.322   2.453  0.4953 -0.8600 -0.8556
  259SOL     MW 1036   0.594   0.369   2.529 -0.2343 -0.2056  0.0938
  260SOL     OW 1037   0.595   0.159   1.605 -0.1084 -0.1401  0.0618
  260SOL    HW1 1038   0.523   0.216   1.570  1.0033 -1.6638 -1.2532
  260SOL    HW2 1039   0.663   0.152   1.535 -1.2867  0.3544 -4.0638
  260SOL     MW 1040   0.595   0.166   1.591 -0.1172 -0.2759 -0.6560
  261SOL     OW 1041   1.040   0.660   2.090 -0.0767  0.2130 -0.1771
  261SOL    HW1 1042   1.085   0.659   2.180 -0.4001  1.3058  1.9367
  261SOL    HW2 1043   1.108   0.619   2.035 -1.0822 -0.5637 -1.2181
  261SOL     MW 1044   1.055   0.654   2.094 -0.2520  0.2547 -0.0355
  262SOL     OW 1045   1.153   0.401   0.133 -0.2228  0.0270  0.4807
  262SOL    HW1 1046   1.193   0.316   0.141 -0.6772 -1.0414 -2.1460
  262SOL    HW2 1047   1.219   0.445   0.073  0.3154 -0.7982 -1.4743
  262SOL     MW 1048   1.167   0.396   0.126 -0.2117 -0.2228 -0.1238
  263SOL     OW 1049   0.408   3.007   2.461  0.0153 -1.1868  0.4679
  263SOL    HW1 1050   0.353   3.083   2.448 -1.3090 -1.3568  1.4872
  263SOL    HW2 1051   0.483   3.014   2.403 -2.0158  2.2494  1.9708
  263SOL     MW 1052   0.411   3.018   2.452 -0.4274 -0.7558  0.8007
  264SOL     OW 1053   1.448   1.338   1.984  0.5485 -0.4981 -0.0347
  264SOL    HW1 1054   1.398   1.397   2.034  3.9422 -1.3909  0.6219
  264SOL    HW2 1055   1.530   1.352   2.034  1.2179  0.0637  1.1756
  264SOL     MW 1056   1.452   1.347   1.997  1.0845 -0.5418  0.2116
  265SOL     OW 1057   0.754   2.756   2.205 -0.1202  0.3236  0.0295
  265SOL    HW1 1058   0.760   2.663   2.171  1.9769  0.3905  0.6456
  265SOL    HW2 1059   0.699   2.757   2.286 -1.9520  0.9483  0.5137
  265SOL     MW 1060   0.748   2.744   2.211 -0.0852  0.4148  0.1747
  266SOL     OW 1061   0.870   0.783   2.280  0.8139  0.1983  0.2253
  266SOL    HW1 1062   0.921   0.737   2.218 -3.3197 -0.9546  1.5290
  266SOL    HW2 1063   0.851   0.713   2.344  1.9643 -0.4313  1.4234
  266SOL     MW 1064   0.874   0.768   2.280  0.4203 -0.0369  0.5554
  267SOL     OW 1065   1.377   1.799   2.693  0.1220  0.9126 -0.2388
  267SOL    HW1 1066   1.440   1.726   2.675 -0.9918 -4.5561  2.0534
  267SOL    HW2 1067   1.295   1.773   2.664  1.5721 -0.9375  0.6606
  267SOL     MW 1068   1.375   1.786   2.687  0.1664 -0.0530  0.1823
  268SOL     OW 1069   0.198   0.772   1.674 -0.4006  0.0833 -0.3673
  268SOL    HW1 1070   0.133   0.832   1.626 -0.6676  2.1975 -1.2613
  268SOL    HW2 1071   0.206   0.683   1.628  0.1028 -3.3362 -0.0611
  268SOL     MW 1072   0.191   0.768   1.662 -0.3694 -0.0889 -0.4448
  269SOL     OW 1073   1.355   1.951   2.454  0.5970  0.0350 -0.2101
  269SOL    HW1 1074   1.385   1.911   2.535  0.2051 -1.5506 -1.6775
  269SOL    HW2 1075   1.295   2.021   2.478  1.5264 -0.2106  0.4627
  269SOL     MW 1076   1.351   1.955   2.468  0.6679 -0.2066 -0.3149
  270SOL     OW 1077   1.198   0.482   1.651  0.1466  0.3822  0.0282
  270SOL    HW1 1078   1.183   0.398   1.687  0.3858  0.0296 -0.4107
  270SOL    HW2 1079   1.290   0.469   1.607 -0.3972  0.5419  0.2149
  270SOL     MW 1080   1.208   0.469   1.650  0.1065  0.3568 -0.0051
  271SOL     OW 1081   0.913   0.014   2.482 -0.2376  0.1271 -0.7564
  271SOL    HW1 1082   0.976  -0.026   2.536  1.0480 -2.0924 -4.3512
  271SOL    HW2 1083   0.956   0.098   2.454 -1.6847 -0.9417 -1.4455
  271SOL     MW 1084   0.927   0.020   2.486 -0.2589 -0.3068 -1.3216
  272SOL     OW 1085   1.354   2.988   2.772 -0.0410  0.5780 -0.3162
  272SOL    HW1 1086   1.288   3.042   2.725  3.2423 -1.7605  0.3414
  272SOL    HW2 1087   1.377   3.055   2.844 -2.4723 -0.1346 -0.1096
  272SOL     MW 1088   1.349   3.004   2.775  0.0714  0.1754 -0.2022
  273SOL     OW 1089   1.426   0.926   2.802  0.1469  0.0407 -0.6718
  273SOL    HW1 1090   1.518   0.952   2.791  0.1167  1.1418 -1.6961
  273SOL    HW2 1091   1.370   1.008   2.822  3.3955 -0.0318  0.5387
  273SOL     MW 1092   1.430   0.941   2.803  0.5716  0.1764 -0.6472
  274SOL     OW 1093   1.354   0.720   0.121  0.2578 -0.0477  0.0028
  274SOL    HW1 1094   1.372   0.632   0.143 -1.9479  1.3290 -0.2170
  274SOL    HW2 1095   1.263   0.732   0.159  0.4878  1.4161 -0.8145
  274SOL     MW 1096   1.345   0.710   0.129 -0.0029  0.3271 -0.1341
  275SOL     OW 1097   1.675   0.613   1.768  0.2312  0.4617  0.2191
  275SOL    HW1 1098   1.731   0.660   1.836  0.0464  2.2391 -0.8082
  275SOL    HW2 1099   1.674   0.516   1.795 -0.5203 -1.1906 -0.5532
  275SOL     MW 1100   1.682   0.607   1.781  0.1076  0.4782 -0.0183
  276SOL     OW 1101   0.149   1.181   1.829  0.4987 -0.1651  0.0264
  276SOL    HW1 1102   0.201   1.104   1.871  1.4015 -0.8364 -1.1437
  276SOL    HW2 1103   0.061   1.139   1.805  0.1372  2.1540 -0.3617
  276SOL     MW 1104   0.145   1.165   1.831  0.5701  0.0523 -0.1792
  277SOL     OW 1105   1.903   1.363   2.719 -0.0910  0.3333  0.2996
  277SOL    HW1 1106   1.923   1.450   2.701 -0.4347 -1.3014  0.5064
  277SOL    HW2 1107   1.953   1.304   2.671 -0.9724  2.0735  2.4962
  277SOL     MW 1108   1.912   1.367   2.710 -0.2527  0.3472  0.6167
  278SOL     OW 1109   1.405   0.724   1.761  0.7927  0.1590  0.1166
  278SOL    HW1 1110   1.364   0.649   1.809 -0.8336 -0.6354 -0.4094
  278SOL    HW2 1111   1.502   0.711   1.771 -0.1059  4.8090 -0.9105
  278SOL     MW 1112   1.412   0.713   1.768  0.4596  0.6677 -0.0883
  279SOL     OW 1113   0.599   3.028   2.260 -0.4337  0.0760  0.0789
  279SOL    HW1 1114   0.684   2.987   2.269 -1.6975 -2.1036  2.1011
  279SOL    HW2 1115   0.628   3.122   2.250  2.0228 -0.1266  0.7698
  279SOL     MW 1116   0.614   3.035   2.260 -0.2763 -0.2383  0.4368
  280SOL     OW 1117   1.425   1.156   2.277  0.2705  0.3776 -1.0265
  280SOL    HW1 1118   1.443   1.085   2.219 -0.5620  2.9530 -1.0856
  280SOL    HW2 1119   1.424   1.124   2.368  0.0755 -1.8943 -1.2478
  280SOL     MW 1120   1.427   1.143   2.282  0.1349  0.4177 -1.0635
  281SOL     OW 1121   1.323   1.356   2.735 -0.0378  0.2705  1.0209
  281SOL    HW1 1122   1.415   1.377   2.754  1.6469 -1.8726 -0.4692
  281SOL    HW2 1123   1.316   1.265   2.767  0.9003 -1.2151  2.2505
  281SOL     MW 1124   1.334   1.347   2.741  0.3082 -0.2083  0.9866
  282SOL     OW 1125   1.160   1.329   1.728 -0.1770  0.2421 -0.1667
  282SOL    HW1 1126   1.107   1.379   1.671  0.1524 -2.7840  0.5854
  282SOL    HW2 1127   1.092   1.275   1.772 -1.2876  1.9966 -0.8009
  282SOL     MW 1128   1.144   1.328   1.726 -0.2801  0.0743 -0.1511
  283SOL     OW 1129   0.711   1.205   0.082 -0.2851 -0.1281 -0.0091
  283SOL    HW1 1130   0.810   1.187   0.092  1.5276 -3.5189  1.9519
  283SOL    HW2 1131   0.712   1.300   0.078  1.1270 -1.2473  0.9376
  283SOL     MW 1132   0.724   1.215   0.083  0.1404 -0.7231  0.3745
  284SOL     OW 1133   0.465   0.629   2.358 -0.6100 -0.6921  0.4591
  284SOL    HW1 1134   0.519   0.701   2.315 -1.2364 -0.8981 -0.8647
  284SOL    HW2 1135   0.472   0.548   2.310  2.0277  0.6594  1.5416
  284SOL     MW 1136   0.473   0.628   2.346 -0.3446 -0.5409  0.4273
  285SOL     OW 1137   0.844   0.927   2.789  0.2089 -0.7306 -0.0220
  285SOL    HW1 1138   0.810   0.943   2.699  1.1771 -1.6037  0.1187
  285SOL    HW2 1139   0.802   0.843   2.807  0.4065  3.7155 -4.1807
  285SOL     MW 1140   0.834   0.918   2.779  0.3627 -0.2592 -0.5522
  286SOL     OW 1141   1.130   1.469   2.575  0.1875 -0.0519  0.0011
  286SOL    HW1 1142   1.192   1.440   2.649  0.7625 -0.9023  1.4053
  286SOL    HW2 1143   1.124   1.572   2.582  0.8386 -0.6484 -3.6237
  286SOL     MW 1144   1.137   1.479   2.586  0.3493 -0.2428 -0.2919
  287SOL     OW 1145   1.099   0.944   0.384  0.2958  0.3609 -0.0825
  287SOL    HW1 1146   1.168   0.970   0.447 -3.0453  0.8296  1.5391
  287SOL    HW2 1147   1.060   1.034   0.367 -0.0871 -1.1873 -0.3394
  287SOL     MW 1148   1.103   0.960   0.390 -0.1955  0.2184  0.0976
  288SOL     OW 1149   1.474   0.641   2.131 -0.1890  0.6978  0.3389
  288SOL    HW1 1150   1.435   0.627   2.222  0.8771 -1.7254  1.7763
  288SOL    HW2 1151   1.457   0.736   2.115  0.8102  1.6468  1.0240
  288SOL     MW 1152   1.467   0.652   2.141  0.0835  0.5033  0.6190
  289SOL     OW 1153   0.772   0.962   2.535  0.8967  0.8869  0.1157
  289SOL    HW1 1154   0.850   0.960   2.478  1.8411  0.0260 -3.7900
  289SOL    HW2 1155   0.695   0.999   2.486 -1.5585  0.2584 -6.3563
  289SOL     MW 1156   0.772   0.967   2.521  0.6973  0.6904 -1.2536
  290SOL     OW 1157   0.852   0.692   1.565 -0.5945  0.7658 -0.1081
  290SOL    HW1 1158   0.893   0.610   1.530  2.8095  1.1462  0.3670
  290SOL    HW2 1159   0.910   0.699   1.642  1.2543  0.9945 -1.4208
  290SOL     MW 1160   0.865   0.682   1.570  0.0985  0.8461 -0.2186
  291SOL     OW 1161   0.263   0.367   0.224  0.0117  0.2189 -0.1786
  291SOL    HW1 1162   0.360   0.353   0.218 -2.2793  0.3429  0.1031
  291SOL    HW2 1163   0.223   0.292   0.184  0.8771  0.4190  0.8298
  291SOL     MW 1164   0.271   0.355   0.218 -0.1764  0.2616 -0.0084
  292SOL     OW 1165   0.913   0.539   0.086  0.0256  0.2518  0.4716
  292SOL    HW1 1166   0.952   0.612   0.135 -0.4325 -0.3326 -0.0024
  292SOL    HW2 1167   0.977   0.470   0.106  0.6042  2.6245 -0.4456
  292SOL     MW 1168   0.927   0.539   0.095  0.0415  0.4877  0.2881
  293SOL     OW 1169   0.230   0.112   2.426  0.1248  0.1700 -0.5619
  293SOL    HW1 1170   0.139   0.089   2.396 -0.6160 -0.4474  0.2051
  293SOL    HW2 1171   0.214   0.168   2.500  1.4797 -3.2782  4.4202
  293SOL     MW 1172   0.216   0.116   2.432  0.2059 -0.3664  0.1966
  294SOL     OW 1173   1.435   0.599   2.405  0.2230  0.1128  0.3326
  294SOL    HW1 1174   1.483   0.677   2.441  2.5340 -1.7081  0.3483
  294SOL    HW2 1175   1.469   0.511   2.434 -0.5380  2.4337  1.0506
  294SOL     MW 1176   1.446   0.598   2.414  0.4275  0.1788  0.4294
  295SOL     OW 1177   0.809   0.585   2.444 -0.7174  0.0764  0.8005
  295SOL    HW1 1178   0.732   0.532   2.442  2.5620 -2.9780 -0.7921
  295SOL    HW2 1179   0.796   0.648   2.511  2.4739 -2.9862 -2.2263
  295SOL     MW 1180   0.797   0.586   2.452  0.1364 -0.7307  0.1910
  296SOL     OW 1181   1.266   0.278   2.043 -0.7525  0.2246 -0.0346
  296SOL    HW1 1182   1.360   0.277   2.024 -1.7391 -1.2290  2.1208
  296SOL    HW2 1183   1.272   0.236   2.126  3.6389 -0.2259 -0.7442
  296SOL     MW 1184   1.279   0.272   2.051 -0.3032 -0.0266  0.1561
  297SOL     OW 1185   1.444   0.443   1.540 -0.2408  0.0288 -0.2852
  297SOL    HW1 1186   1.509   0.514   1.535 -2.6509  0.0445  0.0978
  297SOL    HW2 1187   1.490   0.355   1.560  1.6970  2.9100  0.1231
  297SOL     MW 1188   1.459   0.441   1.542 -0.3031  0.4111 -0.1808
  298SOL     OW 1189   1.504   0.959   2.108  0.2979  0.2074 -0.0719
  298SOL    HW1 1190   1.485   0.989   2.018 -0.2690  0.7673  0.6558
  298SOL    HW2 1191   1.596   0.939   2.123  1.4605  1.3441 -0.2384
  298SOL     MW 1192   1.514   0.960   2.098  0.3765  0.4313  0.0022
  299SOL     OW 1193   0.574   1.000   3.031 -1.0117 -0.3232 -0.9353
  299SOL    HW1 1194   0.635   1.074   3.043  1.2494  2.4490  0.1911
  299SOL    HW2 1195   0.515   1.021   2.959  1.9923 -2.0038  1.8132
  299SOL     MW 1196   0.574   1.012   3.023 -0.3170 -0.1792 -0.4240
  300SOL     OW 1197   1.188   1.037   2.551 -0.4418  0.0408  0.0680
  300SOL    HW1 1198   1.126   1.057   2.476 -2.0752 -0.9755  1.5164
  300SOL    HW2 1199   1.162   0.962   2.597  1.8653  0.9728  0.9385
  300SOL     MW 1200   1.177   1.030   2.547 -0.3529  0.0297  0.3740
  301SOL     OW 1201   1.374   0.720   0.527  0.0648  0.0372 -0.0892
  301SOL    HW1 1202   1.395   0.698   0.620 -0.5221 -0.7257  1.5852
  301SOL    HW2 1203   1.293   0.665   0.498  1.4249 -0.5502  2.6508
  301SOL     MW 1204   1.366   0.710   0.535  0.1668 -0.1410  0.4932
  302SOL     OW 1205   0.130   1.472   1.995  0.4511  0.9984 -0.8251
  302SOL    HW1 1206   0.102   1.411   2.065 -0.1748 -1.3267 -2.3589
  302SOL    HW2 1207   0.064   1.545   1.993 -0.8187  0.2565 -0.6864
  302SOL     MW 1208   0.117   1.473   2.004  0.2010  0.5937 -1.0091
  303SOL     OW 1209   0.460   1.807   2.666 -0.5553  0.2841  0.3430
  303SOL    HW1 1210   0.461   1.875   2.596  0.5070  0.5805 -1.9412
  303SOL    HW2 1211   0.369   1.824   2.694 -1.4583 -0.5277  0.2394
  303SOL     MW 1212   0.448   1.818   2.660 -0.5343  0.2161  0.0279
  304SOL     OW 1213   0.500   1.951   2.426  0.6135  0.2878 -0.4756
  304SOL    HW1 1214   0.496   2.040   2.386 -1.2069  0.0682 -0.3857
  304SOL    HW2 1215   0.570   1.904   2.387  0.0175 -1.2229  2.3684
  304SOL     MW 1216   0.509   1.957   2.416  0.2947  0.0595 -0.0885
  305SOL     OW 1217   1.179   0.552   0.460  0.2488 -0.6471 -0.1986
  305SOL    HW1 1218   1.100   0.530   0.499 -0.4983  0.1013  2.2831
  305SOL    HW2 1219   1.229   0.469   0.475  0.0599  0.4345 -0.6057
  305SOL     MW 1220   1.175   0.538   0.467  0.1253 -0.4056  0.0751
  306SOL     OW 1221   1.220   1.445   0.269 -0.1992 -0.1838  0.1341
  306SOL    HW1 1222   1.253   1.364   0.306 -2.0163 -3.4049 -1.3700
  306SOL    HW2 1223   1.282   1.462   0.190 -0.0712 -1.9590  0.7454
  306SOL     MW 1224   1.233   1.436   0.264 -0.4221 -0.8430  0.0163
  307SOL     OW 1225   1.308   0.535   1.947  0.4153  0.2834  0.3061
  307SOL    HW1 1226   1.270   0.449   1.970  1.8667 -1.8740 -0.0988
  307SOL    HW2 1227   1.376   0.555   2.011  0.0776 -1.2910  2.1910
  307SOL     MW 1228   1.312   0.526   1.958  0.5623 -0.2090  0.5013
  308SOL     OW 1229   2.120   0.562   2.756  0.7474  0.0694  0.2898
  308SOL    HW1 1230   2.083   0.463   2.768  0.4676 -0.9275 -1.0084
  308SOL    HW2 1231   2.219   0.563   2.754  1.0071  0.6109  1.5029
  308SOL     MW 1232   2.128   0.549   2.757  0.7447  0.0093  0.2785
  309SOL     OW 1233   0.536   0.495   0.370 -0.2497  0.3017 -0.2104
  309SOL    HW1 1234   0.602   0.427   0.394 -1.3285  0.0456  0.3304
  309SOL    HW2 1235   0.555   0.510   0.278  2.0701 -0.5929  1.8367
  309SOL     MW 1236   0.547   0.488   0.361 -0.0860  0.1499  0.1311
  310SOL     OW 1237   0.400   0.517   1.900 -0.2177  0.1834  0.2499
  310SOL    HW1 1238   0.447   0.450   1.852  0.3342 -0.8105 -2.6537
  310SOL    HW2 1239   0.455   0.587   1.873  1.9926 -2.1807 -0.6080
  310SOL     MW 1240   0.414   0.518   1.890  0.1467 -0.2596 -0.2464
  311SOL     OW 1241   1.829   0.791   1.928 -0.4703 -0.8499  0.2647
  311SOL    HW1 1242   1.794   0.803   2.016 -0.0863 -0.4658 -0.1372
  311SOL    HW2 1243   1.893   0.731   1.937 -0.6850  0.8423 -0.2249
  311SOL     MW 1244   1.833   0.785   1.941 -0.4479 -0.5759  0.1471
  312SOL     OW 1245   1.753   2.656   0.005  0.3573 -0.1692 -0.5004
  312SOL    HW1 1246   1.797   2.669   0.088 -2.7517 -1.1703  1.9349
  312SOL    HW2 1247   1.671   2.609   0.028  1.0792  2.9358 -1.8532
  312SOL     MW 1248   1.748   2.652   0.019  0.0424  0.1084 -0.3576
  313SOL     OW 1249   0.149   1.167   2.890 -0.3320  0.3118  0.6848
  313SOL    HW1 1250   0.218   1.205   2.953  0.9444  0.6340 -0.3290
  313SOL    HW2 1251   0.175   1.179   2.797 -0.2154 -1.0409 -1.1820
  313SOL     MW 1252   0.162   1.174   2.886 -0.1482  0.1758  0.3048
  314SOL     OW 1253   2.133   3.019   2.984  0.0015  0.2346 -0.4757
  314SOL    HW1 1254   2.059   3.058   2.931  0.5608  2.6050  1.6156
  314SOL    HW2 1255   2.154   3.102   3.042  2.5759  3.5328  1.7359
  314SOL     MW 1256   2.126   3.035   2.985  0.4150  0.9825  0.0920
  315SOL     OW 1257   1.572   1.991   3.011  0.2110  0.1554 -0.1764
  315SOL    HW1 1258   1.485   2.018   3.052 -0.0301  0.4261 -0.4646
  315SOL    HW2 1259   1.597   2.031   2.926 -2.8104 -2.0337  0.9636
  315SOL     MW 1260   1.564   1.999   3.006 -0.2195 -0.0977 -0.0640
  316SOL     OW 1261   1.207   0.607   2.723 -0.0148  0.4777 -0.7279
  316SOL    HW1 1262   1.284   0.567   2.683  0.4271  0.9198 -1.2970
  316SOL    HW2 1263   1.242   0.655   2.799  1.9661 -0.1927  1.1361
  316SOL     MW 1264   1.221   0.608   2.728  0.3048  0.4476 -0.5571
  317SOL     OW 1265   0.681   1.355   2.619 -0.0186 -0.5559 -0.7500
  317SOL    HW1 1266   0.718   1.328   2.703 -1.1084  3.5253 -1.3319
  317SOL    HW2 1267   0.760   1.334   2.560  1.3903 -2.7374 -1.3701
  317SOL     MW 1268   0.696   1.349   2.622  0.0235 -0.3052 -0.9086
  318SOL     OW 1269   1.309   0.448   2.969 -0.4529 -0.2083 -0.6797
  318SOL    HW1 1270   1.238   0.481   2.914  1.9670  0.2282 -0.1522
  318SOL    HW2 1271   1.389   0.476   2.917 -0.2133  1.4090 -0.4629
  318SOL     MW 1272   1.310   0.456   2.955 -0.1020  0.0627 -0.5815
  319SOL     OW 1273   0.784   0.416   2.751 -0.1769  0.1096 -0.4193
  319SOL    HW1 1274   0.755   0.353   2.688 -2.1250  0.8587 -0.2602
  319SOL    HW2 1275   0.732   0.384   2.824 -0.1851  1.2269 -0.4291
  319SOL     MW 1276   0.773   0.403   2.752 -0.4350  0.3558 -0.3996
  320SOL     OW 1277   1.005   1.326   2.053 -0.1997 -0.6233 -0.3322
  320SOL    HW1 1278   1.073   1.274   2.094  1.2952 -2.2932 -1.3501
  320SOL    HW2 1279   1.054   1.390   2.001 -1.0183  0.6543  0.7754
  320SOL     MW 1280   1.021   1.328   2.051 -0.1105 -0.6751 -0.3203
  321SOL     OW 1281   1.052   0.988   2.965  0.8132  0.4538  0.6279
  321SOL    HW1 1282   0.964   0.973   2.906  1.4741  0.3725  0.2333
  321SOL    HW2 1283   1.097   0.902   2.958 -1.2798 -1.7165 -0.4995
  321SOL     MW 1284   1.047   0.975   2.956  0.6242  0.1567  0.4271
  322SOL     OW 1285   1.202   0.913   1.708  0.4431  0.4191 -0.3472
  322SOL    HW1 1286   1.282   0.852   1.720  0.2999 -0.2497  0.8554
  322SOL    HW2 1287   1.179   0.947   1.793  0.1587 -0.2854  0.5651
  322SOL     MW 1288   1.210   0.909   1.721  0.3867  0.2379 -0.0682
  323SOL     OW 1289   1.167   1.514   1.920  0.6524 -0.1937 -0.0000
  323SOL    HW1 1290   1.175   1.459   1.837  1.2868  1.0916  1.6881
  323SOL    HW2 1291   1.118   1.597   1.908 -1.6810 -0.8589 -2.6054
  323SOL     MW 1292   1.161   1.518   1.908  0.4282 -0.1119 -0.1211
  324SOL     OW 1293   1.472   1.065   2.554  0.2000 -0.4595  0.4319
  324SOL    HW1 1294   1.400   1.049   2.608  3.9640  1.3412 -2.1193
  324SOL    HW2 1295   1.520   1.132   2.601 -2.1660  2.6192 -1.1391
  324SOL     MW 1296   1.469   1.071   2.567  0.3844  0.1843 -0.1120
  325SOL     OW 1297   0.996   0.436   2.933 -0.2864 -0.0378 -0.8182
  325SOL    HW1 1298   0.956   0.487   3.015 -1.0467  0.7593  0.6977
  325SOL    HW2 1299   0.925   0.442   2.863 -2.5739  3.0479 -0.0609
  325SOL     MW 1300   0.982   0.444   2.935 -0.6885  0.4745 -0.5183
  326SOL     OW 1301   0.428   1.320   2.163 -0.4701  0.7284  0.3346
  326SOL    HW1 1302   0.460   1.291   2.077  0.1060  1.6765  0.6079
  326SOL    HW2 1303   0.414   1.411   2.148  0.3925 -0.9721 -3.5415
  326SOL     MW 1304   0.430   1.328   2.149 -0.2803  0.6292 -0.1408
  327SOL     OW 1305   1.907   0.884   2.423 -0.4396 -1.2048  0.2033
  327SOL    HW1 1306   1.915   0.835   2.504 -0.8805  2.3498  0.8493
  327SOL    HW2 1307   1.999   0.889   2.384 -1.6140  0.1140 -1.7220
  327SOL     MW 1308   1.920   0.878   2.428 -0.6527 -0.5618  0.0345
  328SOL     OW 1309   0.119   1.233   2.148  0.2105  0.1705  0.6691
  328SOL    HW1 1310   0.135   1.202   2.056 -0.7714 -0.5418  0.9235
  328SOL    HW2 1311   0.204   1.229   2.198 -0.7625  0.0085  0.2728
  328SOL     MW 1312   0.133   1.228   2.142 -0.0474  0.0551  0.6504
  329SOL     OW 1313   0.121   0.153   1.445 -0.1739  0.1271 -0.8061
  329SOL    HW1 1314   0.061   0.164   1.525 -1.6404  1.5155  0.2786
  329SOL    HW2 1315   0.193   0.219   1.465 -2.6682  1.3104 -0.7265
  329SOL     MW 1316   0.122   0.163   1.458 -0.6965  0.4664 -0.6525
  330SOL     OW 1317   0.411   2.977   2.053 -0.2034 -0.2251 -0.2651
  330SOL    HW1 1318   0.488   2.957   2.112 -1.7725  0.9609  0.5226
  330SOL    HW2 1319   0.336   2.956   2.112  0.3013  2.2633  1.0735
  330SOL     MW 1320   0.411   2.972   2.069 -0.3438  0.2597  0.0154
  331SOL     OW 1321   0.726   1.188   2.193  0.4036 -0.0560  0.4926
  331SOL    HW1 1322   0.686   1.214   2.106 -1.2044 -3.3967 -0.9335
  331SOL    HW2 1323   0.748   1.269   2.238  0.7223 -1.4167  1.3787
  331SOL     MW 1324   0.724   1.202   2.188  0.2335 -0.6763  0.4213
  332SOL     OW 1325   1.349   1.759   2.972  0.0734 -0.0022 -0.2666
  332SOL    HW1 1326   1.384   1.757   2.881  0.1958  1.7444 -3.8852
  332SOL    HW2 1327   1.378   1.847   2.995  4.6377 -1.2112 -0.4235
  332SOL     MW 1328   1.357   1.771   2.963  0.6918  0.0688 -0.7647
  333SOL     OW 1329   1.744   1.480   3.045 -0.2405 -0.1662  0.2531
  333SOL    HW1 1330   1.824   1.436   3.015  1.5684 -1.6446 -0.1264
  333SOL    HW2 1331   1.690   1.414   3.092 -1.8144  1.7201  1.9216
  333SOL     MW 1332   1.747   1.466   3.047 -0.2095 -0.1124  0.4232
  334SOL     OW 1333   1.200   0.021   2.601 -0.0963 -0.0993 -0.0100
  334SOL    HW1 1334   1.125   0.005   2.659 -1.9078 -0.6216 -0.4198
  334SOL    HW2 1335   1.219   0.115   2.616 -2.7115 -0.4266 -1.6638
  334SOL     MW 1336   1.193   0.031   2.611 -0.6804 -0.2114 -0.2823
  335SOL     OW 1337   1.252   0.784   2.943  0.2158  0.1010 -0.2477
  335SOL    HW1 1338   1.295   0.729   3.015 -0.5547 -1.3203 -0.5529
  335SOL    HW2 1339   1.323   0.829   2.890  0.6752  2.1617 -0.4016
  335SOL     MW 1340   1.267   0.783   2.946  0.1747  0.1854 -0.3083
  336SOL     OW 1341   0.971   1.143   1.841 -0.5475 -0.7807  0.0910
  336SOL    HW1 1342   0.961   1.204   1.916 -1.3232 -0.9447  2.6316
  336SOL    HW2 1343   1.014   1.066   1.879 -2.0427  3.1709  1.9859
  336SOL     MW 1344   0.975   1.141   1.856 -0.8471 -0.2810  0.6762
  337SOL     OW 1345   0.655   1.771   2.852 -0.1912 -0.7754  0.0609
  337SOL    HW1 1346   0.576   1.796   2.799 -0.7164 -0.2712 -1.7873
  337SOL    HW2 1347   0.699   1.710   2.803  1.9563  4.0490  0.8224
  337SOL     MW 1348   0.650   1.767   2.839  0.0228 -0.0724 -0.0825
  338SOL     OW 1349   1.052   0.802   2.611  0.0742  0.4869 -0.5385
  338SOL    HW1 1350   0.983   0.831   2.678 -4.0527  3.5407 -1.0388
  338SOL    HW2 1351   1.113   0.747   2.661 -1.5977  0.2605 -1.2534
  338SOL     MW 1352   1.051   0.798   2.626 -0.6909  0.8599 -0.6989
  339SOL     OW 1353   1.406   1.079   1.880 -0.2014  0.2994 -0.3727
  339SOL    HW1 1354   1.395   1.098   1.788  0.7710 -1.4549  0.5395
  339SOL    HW2 1355   1.404   1.166   1.913 -1.1190  3.4157 -1.6487
  339SOL     MW 1356   1.404   1.093   1.872 -0.1942  0.4791 -0.4207
  340SOL     OW 1357   1.394   1.508   0.061 -0.3696  0.2005  0.3184
  340SOL    HW1 1358   1.373   1.566  -0.010 -0.1699 -1.9263  2.3331
  340SOL    HW2 1359   1.485   1.529   0.078  0.0339 -1.0761  0.5743
  340SOL     MW 1360   1.403   1.519   0.053 -0.2900 -0.2485  0.6180
  341SOL     OW 1361   0.225   1.308   2.657  0.3220 -1.0186 -0.3430
  341SOL    HW1 1362   0.285   1.370   2.689 -1.4565  0.4421 -1.8778
  341SOL    HW2 1363   0.157   1.358   2.612 -1.7729 -2.3397  3.7387
  341SOL     MW 1364   0.224   1.323   2.655 -0.1890 -1.0002 -0.0070
  342SOL     OW 1365   1.407   0.259   0.061 -0.0639 -0.4498  0.4354
  342SOL    HW1 1366   1.451   0.337   0.097  0.7456 -1.5970 -0.4122
  342SOL    HW2 1367   1.383   0.298  -0.020  0.4464 -0.0167  1.9047
  342SOL     MW 1368   1.410   0.275   0.055  0.1102 -0.5440  0.5174
  343SOL     OW 1369   0.248   0.301   2.243 -0.0121 -0.3367  0.8060
  343SOL    HW1 1370   0.273   0.224   2.288  0.3992  0.7213  0.5966
  343SOL    HW2 1371   0.172   0.272   2.192 -1.5665  0.1986  0.7622
  343SOL     MW 1372   0.241   0.287   2.242 -0.1630 -0.1265  0.7726
  344SOL     OW 1373   1.703   2.175   0.069 -0.3076  0.1931 -0.2188
  344SOL    HW1 1374   1.730   2.251   0.006  2.5746  0.3465  1.3777
  344SOL    HW2 1375   1.655   2.111   0.018 -2.1608 -0.0813  1.0488
  344SOL     MW 1376   1.700   2.177   0.054 -0.1718  0.1771  0.1591
  345SOL     OW 1377   0.639   1.560   2.345  0.3729 -0.1640  0.3908
  345SOL    HW1 1378   0.544   1.572   2.324 -1.1825  1.9592  1.9641
  345SOL    HW2 1379   0.686   1.532   2.259  0.6491  0.1624 -1.1209
  345SOL     MW 1380   0.633   1.558   2.331  0.2041  0.1592  0.3989
  346SOL     OW 1381   1.688   1.013   3.085 -0.4776 -0.3118  0.3202
  346SOL    HW1 1382   1.783   1.028   3.093 -0.0288  0.2106  1.5871
  346SOL    HW2 1383   1.665   0.957   3.159 -3.5632  1.3556 -1.5796
  346SOL     MW 1384   1.698   1.007   3.096 -0.8255 -0.0229  0.2367
  347SOL     OW 1385   1.138   0.671   2.334  0.3283 -0.3947 -0.0585
  347SOL    HW1 1386   1.200   0.607   2.361  0.6126 -0.2785 -0.1555
  347SOL    HW2 1387   1.118   0.728   2.408  0.0867  3.1767  2.6710
  347SOL     MW 1388   1.143   0.670   2.347  0.3340  0.0919  0.2888
  348SOL     OW 1389   1.307   2.642   1.877 -0.1653  0.7524  0.4769
  348SOL    HW1 1390   1.354   2.560   1.895 -0.3496 -2.8007  1.9572
  348SOL    HW2 1391   1.352   2.707   1.926  0.1738  0.8602 -0.4618
  348SOL     MW 1392   1.319   2.640   1.886 -0.1449  0.2978  0.5484
  349SOL     OW 1393   1.317   0.260   2.685 -0.2207 -0.6124 -0.3482
  349SOL    HW1 1394   1.273   0.285   2.766  0.0115 -0.5956  1.1085
  349SOL    HW2 1395   1.398   0.215   2.714  1.2612 -0.8534 -0.1331
  349SOL     MW 1396   1.322   0.258   2.700  0.0054 -0.6420 -0.1276
  350SOL     OW 1397   1.920   0.698   2.620 -0.4027  0.4411  0.3608
  350SOL    HW1 1398   1.893   0.612   2.585 -3.6101  1.8628  0.0844
  350SOL    HW2 1399   1.992   0.663   2.676 -0.3870 -1.7934  0.2216
  350SOL     MW 1400   1.926   0.682   2.623 -0.8238  0.3339  0.3059
  351SOL     OW 1401   0.088   0.979   1.535 -0.3795  0.3312  0.4603
  351SOL    HW1 1402   0.010   1.023   1.582  1.5265  0.4778  1.0467
  351SOL    HW2 1403   0.164   1.042   1.541  0.0081  2.0209 -0.8712
  351SOL     MW 1404   0.087   0.993   1.542 -0.0769  0.5735  0.3620
  352SOL     OW 1405   0.824   1.594   2.709  0.2062 -0.0442  0.3817
  352SOL    HW1 1406   0.836   1.544   2.790  0.3701  1.3483 -0.3457
  352SOL    HW2 1407   0.766   1.542   2.657  1.1466 -0.0171  0.7529
  352SOL     MW 1408   0.818   1.580   2.713  0.3519  0.1431  0.3347
  353SOL     OW 1409   3.045   2.451   2.785 -0.0046 -0.0393 -0.1623
  353SOL    HW1 1410   3.122   2.437   2.735 -3.5280  0.5218  3.1203
  353SOL    HW2 1411   3.000   2.528   2.748 -0.5113 -0.9489 -1.6176
  353SOL     MW 1412   3.049   2.460   2.774 -0.5363 -0.0853  0.0788
  354SOL     OW 1413   0.306   2.475   0.876  0.4766  0.0589  0.3029
  354SOL    HW1 1414   0.367   2.439   0.945  3.0149 -1.7130  1.7735
  354SOL    HW2 1415   0.232   2.409   0.865  2.1805 -0.8467  1.6329
  354SOL     MW 1416   0.304   2.461   0.883  1.0363 -0.2944  0.6724
  355SOL     OW 1417   0.056   2.241   0.349  0.5467  0.7169  0.3785
  355SOL    HW1 1418  -0.014   2.177   0.365 -0.9301 -1.6684 -2.6945
  355SOL    HW2 1419   0.059   2.295   0.426  1.4462  1.3269 -0.6884
  355SOL     MW 1420   0.047   2.239   0.361  0.4705  0.4827 -0.1677
  356SOL     OW 1421   0.733   2.928   1.000  0.3650  0.1963 -0.8166
  356SOL    HW1 1422   0.807   2.893   0.953 -0.3016 -0.4520 -1.7192
  356SOL    HW2 1423   0.659   2.874   0.972 -1.9310 -0.7998 -0.9773
  356SOL     MW 1424   0.733   2.917   0.990 -0.0259 -0.0206 -0.9569
  357SOL     OW 1425   1.774   3.002   0.386 -0.3167  0.2028  0.0181
  357SOL    HW1 1426   1.749   2.923   0.441 -0.8209 -2.4190  0.5819
  357SOL    HW2 1427   1.857   2.979   0.358 -0.2929  1.1892 -0.5813
  357SOL     MW 1428   1.782   2.989   0.390 -0.3801 -0.0130  0.0134
  358SOL     OW 1429   0.492   0.145   1.012  0.0164 -0.2130  0.2478
  358SOL    HW1 1430   0.567   0.116   0.966  0.9801 -0.2429  1.6566
  358SOL    HW2 1431   0.426   0.180   0.948 -0.1379 -0.2587 -0.6024
  358SOL     MW 1432   0.493   0.146   0.997  0.1232 -0.2230  0.3215
  359SOL     OW 1433   0.892   2.742   1.928  0.2904 -0.3903 -0.4011
  359SOL    HW1 1434   0.885   2.722   2.025  1.1678 -2.7138  2.7107
  359SOL    HW2 1435   0.952   2.674   1.896 -3.4489 -0.3375  2.0336
  359SOL     MW 1436   0.899   2.730   1.937 -0.0872 -0.6899  0.3307
  360SOL     OW 1437   0.522   2.754   0.944 -0.3119 -0.7896  0.1172
  360SOL    HW1 1438   0.520   2.705   0.863 -1.4985  0.2205  2.5244
  360SOL    HW2 1439   0.533   2.683   1.008  0.3428 -0.2661 -1.7134
  360SOL     MW 1440   0.523   2.738   0.942 -0.3821 -0.5872  0.1933
  361SOL     OW 1441   0.177   2.723   1.371  0.2320  0.4767  0.3522
  361SOL    HW1 1442   0.193   2.799   1.413 -2.6351 -1.0037 -1.2840
  361SOL    HW2 1443   0.264   2.698   1.347  0.1185  2.1830 -2.4648
  361SOL     MW 1444   0.191   2.730   1.373 -0.1612  0.5065 -0.2354
  362SOL     OW 1445   1.453   2.431   0.621 -0.3702 -0.5450  0.3310
  362SOL    HW1 1446   1.450   2.345   0.659  0.3045 -0.9123 -0.4833
  362SOL    HW2 1447   1.452   2.497   0.690  1.2405 -1.0405 -1.8106
  362SOL     MW 1448   1.453   2.429   0.635 -0.0687 -0.6588 -0.0590
  363SOL     OW 1449   0.285   3.103   0.693  0.1420 -0.4791  0.3811
  363SOL    HW1 1450   0.295   3.035   0.771  4.1052 -0.5767  2.2340
  363SOL    HW2 1451   0.191   3.105   0.668 -0.2869 -0.7829  0.8540
  363SOL     MW 1452   0.274   3.095   0.700  0.6083 -0.5321  0.6879
  364SOL     OW 1453   0.753   0.167   0.247  0.2570 -0.5082 -0.1251
  364SOL    HW1 1454   0.717   0.077   0.232 -1.1361 -0.0919  1.3815
  364SOL    HW2 1455   0.685   0.227   0.220 -0.3966 -2.4295 -0.2287
  364SOL     MW 1456   0.740   0.163   0.241 -0.0130 -0.7067  0.0600
  365SOL     OW 1457   1.034   2.001   1.141  0.2463  0.5776 -0.0820
  365SOL    HW1 1458   1.033   2.093   1.123  2.1939  0.3671  1.0930
  365SOL    HW2 1459   0.958   1.973   1.086 -1.1355 -4.4307 -0.9330
  365SOL     MW 1460   1.024   2.009   1.131  0.3209 -0.1110 -0.0392
  366SOL     OW 1461   2.860   2.623   0.993 -0.2391 -0.2860 -0.0224
  366SOL    HW1 1462   2.920   2.636   1.066 -1.2636 -2.0184 -4.2081
  366SOL    HW2 1463   2.907   2.654   0.914 -0.3472  0.8316 -0.4717
  366SOL     MW 1464   2.874   2.629   0.992 -0.3886 -0.3671 -0.6340
  367SOL     OW 1465   1.249   2.932   0.808 -0.4178  0.1336  1.1348
  367SOL    HW1 1466   1.169   2.979   0.819  0.2738 -0.5057 -2.3491
  367SOL    HW2 1467   1.221   2.843   0.777  3.0810  2.4591 -1.6019
  367SOL     MW 1468   1.234   2.926   0.805  0.1351  0.3561  0.3141
  368SOL     OW 1469   1.728   0.471   0.673 -0.0894 -0.2693 -0.4575
  368SOL    HW1 1470   1.808   0.418   0.678  1.7730  1.5849 -2.2076
  368SOL    HW2 1471   1.753   0.556   0.683 -0.3496 -2.2807 -0.3156
  368SOL     MW 1472   1.742   0.475   0.675  0.1220 -0.2901 -0.6697
  369SOL     OW 1473   0.129   2.459   1.732 -0.1439 -0.0199  0.2019
  369SOL    HW1 1474   0.221   2.429   1.753  0.1064 -0.9508  0.7835
  369SOL    HW2 1475   0.120   2.557   1.748 -1.7906 -1.6335  0.6784
  369SOL     MW 1476   0.140   2.468   1.737 -0.3281 -0.3556  0.3415
  370SOL     OW 1477   0.734   0.075   0.876  0.3014  0.6840 -0.3858
  370SOL    HW1 1478   0.776   0.158   0.907  0.2194  0.6385  1.5657
  370SOL    HW2 1479   0.761   0.000   0.940  1.7526  0.4724 -0.8508
  370SOL     MW 1480   0.743   0.076   0.889  0.4820  0.6500 -0.1896
  371SOL     OW 1481   1.387   2.980   1.439  0.2884 -0.3172  0.3940
  371SOL    HW1 1482   1.320   2.908   1.424 -6.5906  1.4168 -2.4993
  371SOL    HW2 1483   1.377   3.048   1.368  1.0432 -1.7691 -1.7578
  371SOL     MW 1484   1.377   2.980   1.428 -0.5197 -0.2800 -0.2716
  372SOL     OW 1485   0.771   2.300   0.472 -0.1241 -0.1810 -0.3414
  372SOL    HW1 1486   0.701   2.240   0.481  2.1383  0.0183 -0.9347
  372SOL    HW2 1487   0.813   2.292   0.385 -2.0367 -1.8918 -0.7204
  372SOL     MW 1488   0.767   2.291   0.462 -0.0780 -0.3804 -0.4697
  373SOL     OW 1489   2.829   2.965   1.437 -0.3459  0.0222  0.0819
  373SOL    HW1 1490   2.872   2.972   1.347  2.7206  0.0356 -1.9821
  373SOL    HW2 1491   2.764   3.036   1.420  1.6511  1.0363  0.3416
  373SOL     MW 1492   2.827   2.975   1.423  0.3222  0.1578 -0.1562
  374SOL     OW 1493   1.526   0.463   0.196 -0.3766  0.6237  0.5075
  374SOL    HW1 1494   1.587   0.515   0.153 -0.7908 -0.8599  0.0525
  374SOL    HW2 1495   1.553   0.447   0.287  0.4132 -2.6236  3.6909
  374SOL     MW 1496   1.538   0.468   0.203 -0.3271 -0.0005  0.8675
  375SOL     OW 1497   1.104   2.108   2.256  0.1445 -0.0326 -0.3819
  375SOL    HW1 1498   1.117   2.147   2.342  0.8635  0.8333 -0.2662
  375SOL    HW2 1499   1.084   2.015   2.261 -0.4832 -0.7500  2.3399
  375SOL     MW 1500   1.103   2.101   2.268  0.1566 -0.0130 -0.0075
  376SOL     OW 1501   0.663   2.542   0.124 -0.1082 -0.4589  0.1322
  376SOL    HW1 1502   0.729   2.493   0.170 -1.3431  1.3703  1.4274
  376SOL    HW2 1503   0.600   2.476   0.091 -1.1250 -2.7908  0.8504
  376SOL     MW 1504   0.663   2.527   0.126 -0.4053 -0.5253  0.3979
  377SOL     OW 1505   1.298   2.037   0.906 -0.0096  0.3434  0.2404
  377SOL    HW1 1506   1.221   2.011   0.858 -1.4459 -0.9856  2.0014
  377SOL    HW2 1507   1.307   1.968   0.969  0.9596  0.1207 -3.8313
  377SOL     MW 1508   1.289   2.025   0.908 -0.0712  0.1387 -0.0645
  378SOL     OW 1509   0.977   2.866   1.489  0.2267 -0.0564  0.1735
  378SOL    HW1 1510   0.945   2.775   1.506 -0.5544 -0.0620  0.6265
  378SOL    HW2 1511   0.959   2.873   1.395  1.0627  1.0231 -1.4222
  378SOL     MW 1512   0.970   2.855   1.479  0.2340  0.0853  0.0227
  379SOL     OW 1513   1.072   1.840   2.259 -0.2859 -0.0080 -0.1973
  379SOL    HW1 1514   0.984   1.808   2.288 -1.6803 -0.9240 -0.9099
  379SOL    HW2 1515   1.105   1.756   2.217  0.0049  1.5720 -1.5986
  379SOL     MW 1516   1.064   1.825   2.257 -0.4315  0.0796 -0.4762
  380SOL     OW 1517   0.930   0.212   1.472  0.0161  0.3592 -0.3204
  380SOL    HW1 1518   0.943   0.145   1.408 -1.0463  1.4597  1.7387
  380SOL    HW2 1519   0.971   0.193   1.554  0.3021 -1.2617  0.1031
  380SOL     MW 1520   0.937   0.201   1.475 -0.0864  0.2906  0.0071
  381SOL     OW 1521   0.827   1.992   0.816  0.7557 -0.2861  0.1630
  381SOL    HW1 1522   0.918   1.993   0.781 -0.1517  1.2276  2.3215
  381SOL    HW2 1523   0.841   2.077   0.868 -0.5690  0.9429  1.7853
  381SOL     MW 1524   0.841   2.004   0.818  0.4612  0.0758  0.6619
  382SOL     OW 1525   0.647   0.036   0.615 -0.3312  0.2706 -0.2075
  382SOL    HW1 1526   0.681   0.040   0.700  1.8925  1.6365  0.4398
  382SOL    HW2 1527   0.648  -0.056   0.586  1.1090 -0.8809  0.8939
  382SOL     MW 1528   0.652   0.024   0.622  0.1522  0.2989  0.0232
  383SOL     OW 1529   0.516   0.055   0.382  0.2772 -0.5264  0.1572
  383SOL    HW1 1530   0.561   0.070   0.466  1.2612 -0.0527 -0.5452
  383SOL    HW2 1531   0.458  -0.026   0.399 -3.7771 -2.5636 -0.4127
  383SOL     MW 1532   0.514   0.046   0.396 -0.1279 -0.7327 -0.0106
  384SOL     OW 1533   0.651   2.841   0.545 -0.1228 -0.3598 -0.2670
  384SOL    HW1 1534   0.622   2.783   0.616  0.4140 -0.5542  0.5673
  384SOL    HW2 1535   0.563   2.850   0.499 -2.9766  1.1596  1.3015
  384SOL     MW 1536   0.636   2.835   0.549 -0.4285 -0.1850  0.0500
  385SOL     OW 1537   1.342   2.035   1.559 -0.0063  0.3690  0.2331
  385SOL    HW1 1538   1.412   2.075   1.612 -3.6709  3.0140 -0.2608
  385SOL    HW2 1539   1.299   1.968   1.623 -3.3004 -0.0032 -1.1982
  385SOL     MW 1540   1.346   2.031   1.574 -0.9244  0.6689 -0.0209
  386SOL     OW 1541   1.270   0.410   0.926 -0.3179  0.3411  0.8132
  386SOL    HW1 1542   1.201   0.351   0.882 -1.2920 -1.5720 -0.8124
  386SOL    HW2 1543   1.235   0.417   1.014 -0.7243 -0.0980  0.0403
  386SOL     MW 1544   1.257   0.403   0.932 -0.5000  0.0308  0.4967
  387SOL     OW 1545   0.860   2.218   1.478 -0.1281  0.3186 -0.3376
  387SOL    HW1 1546   0.927   2.270   1.443 -1.2161  2.3340 -1.4453
  387SOL    HW2 1547   0.870   2.129   1.439  0.7716  1.2463 -0.4487
  387SOL     MW 1548   0.870   2.213   1.468 -0.1529  0.7069 -0.4984
  388SOL     OW 1549   1.593   2.845   1.238 -0.5939 -0.3319 -0.2814
  388SOL    HW1 1550   1.499   2.850   1.214 -0.7390 -1.2316  0.6467
  388SOL    HW2 1551   1.634   2.777   1.177 -0.9543  3.2828 -0.1287
  388SOL     MW 1552   1.586   2.837   1.227 -0.6606  0.0263 -0.1388
  389SOL     OW 1553   0.492   0.051   3.040 -0.3940  0.1913  0.4594
  389SOL    HW1 1554   0.591   0.035   3.045  0.6334 -0.4096  1.1636
  389SOL    HW2 1555   0.460  -0.044   3.048 -1.9289  0.7568  1.6739
  389SOL     MW 1556   0.501   0.036   3.042 -0.4610  0.1866  0.7126
  390SOL     OW 1557   1.379   0.118   0.657 -0.7429 -0.0737 -0.3363
  390SOL    HW1 1558   1.466   0.110   0.623  0.3269  2.0637  1.5695
  390SOL    HW2 1559   1.377   0.086   0.748  1.1916  1.2522  0.1797
  390SOL     MW 1560   1.390   0.113   0.665 -0.3465  0.3833 -0.0167
  391SOL     OW 1561   0.298   2.266   1.465 -0.7038  0.4814 -0.0144
  391SOL    HW1 1562   0.252   2.194   1.507  2.2838  2.1577  0.7416
  391SOL    HW2 1563   0.234   2.334   1.467  1.7483 -1.4545 -2.6647
  391SOL     MW 1564   0.284   2.266   1.471  0.0139  0.4472 -0.2644
  392SOL     OW 1565   2.058   2.201   0.245  0.0277 -0.5279  0.3398
  392SOL    HW1 1566   2.005   2.274   0.276 -0.0476 -3.6598  1.0844
  392SOL    HW2 1567   2.091   2.160   0.323 -3.5903  0.9413 -1.1014
  392SOL     MW 1568   2.055   2.205   0.259 -0.4596 -0.7472  0.2479
  393SOL     OW 1569   0.193   2.983   2.926 -0.2992  0.6690  0.1527
  393SOL    HW1 1570   0.255   3.047   2.896 -2.3133 -1.4756  0.9617
  393SOL    HW2 1571   0.113   3.018   2.897  1.7135 -0.0368  2.5161
  393SOL     MW 1572   0.191   2.996   2.919 -0.2994  0.2929  0.5713
  394SOL     OW 1573   0.854   1.665   1.495 -0.2326  0.3438 -0.3258
  394SOL    HW1 1574   0.789   1.667   1.567 -3.1857 -0.3046  3.5022
  394SOL    HW2 1575   0.851   1.756   1.459  2.2225 -2.6067  0.3774
  394SOL     MW 1576   0.845   1.677   1.500 -0.2983 -0.1310  0.2721
  395SOL     OW 1577   0.903   2.823   2.624  0.5029  0.0727  0.1143
  395SOL    HW1 1578   0.913   2.915   2.650 -1.7912  1.4044 -0.2108
  395SOL    HW2 1579   0.983   2.795   2.564  2.2597 -1.7404  0.8815
  395SOL     MW 1580   0.915   2.832   2.620  0.4320  0.0092  0.1726
  396SOL     OW 1581   0.750   1.805   2.365 -0.1485  0.4788 -0.2625
  396SOL    HW1 1582   0.785   1.818   2.459  2.6587  0.1178  1.6519
  396SOL    HW2 1583   0.722   1.713   2.365 -0.0466  1.4123  0.7032
  396SOL     MW 1584   0.751   1.795   2.377  0.2353  0.5543  0.1175
  397SOL     OW 1585   1.044   2.347   1.272 -0.5003  0.3129 -0.0301
  397SOL    HW1 1586   1.067   2.407   1.201  0.1346 -1.0560  0.7901
  397SOL    HW2 1587   1.115   2.343   1.329  0.4090 -0.3190 -0.8384
  397SOL     MW 1588   1.056   2.354   1.270 -0.2966  0.0489 -0.0285
  398SOL     OW 1589   0.566   2.609   0.698  0.0190 -0.2859 -0.0286
  398SOL    HW1 1590   0.495   2.577   0.641  3.4269  0.3437  0.4005
  398SOL    HW2 1591   0.653   2.578   0.656  1.0830 -0.3258 -2.8998
  398SOL     MW 1592   0.568   2.600   0.685  0.6091 -0.2081 -0.3508
  399SOL     OW 1593   0.215   2.010   0.369  0.2944  0.5275 -0.6574
  399SOL    HW1 1594   0.159   2.089   0.366 -0.0174 -2.5672  0.1245
  399SOL    HW2 1595   0.290   2.034   0.297  3.9249 -0.5780 -0.6201
  399SOL     MW 1596   0.217   2.024   0.359  0.7323 -0.0267 -0.5494
  400SOL     OW 1597   0.559   1.815   0.227  0.1091 -0.0211 -0.3142
  400SOL    HW1 1598   0.527   1.905   0.208  0.0609  0.2889  0.3685
  400SOL    HW2 1599   0.492   1.763   0.274  2.9259 -1.2339 -0.4797
  400SOL     MW 1600   0.546   1.820   0.230  0.4744 -0.1402 -0.2460
  401SOL     OW 1601   1.001   2.113   0.122  0.2280  0.1964 -0.2699
  401SOL    HW1 1602   1.011   2.019   0.107 -2.3247  0.8785 -0.8120
  401SOL    HW2 1603   1.022   2.132   0.213  1.7501 -2.3117 -2.6747
  401SOL     MW 1604   1.005   2.103   0.132  0.0920 -0.0445 -0.6587
  402SOL     OW 1605   0.699   2.667   1.753 -0.3776  0.1970 -0.3277
  402SOL    HW1 1606   0.612   2.699   1.782  0.8386  0.9986 -0.0652
  402SOL    HW2 1607   0.764   2.699   1.818 -1.7797 -2.6142 -2.2587
  402SOL     MW 1608   0.696   2.675   1.765 -0.4021 -0.0682 -0.5478
  403SOL     OW 1609   0.085   0.548   0.327 -0.3011  0.4575  0.0399
  403SOL    HW1 1610   0.146   0.600   0.379 -0.1302 -2.4460  0.7676
  403SOL    HW2 1611   0.140   0.468   0.298  0.0140  0.7972 -1.6365
  403SOL     MW 1612   0.100   0.545   0.330 -0.2369  0.1192 -0.0852
  404SOL     OW 1613   0.959   2.879   0.865  0.1033  0.8769  0.4128
  404SOL    HW1 1614   0.991   2.802   0.812  1.1166  1.0052  1.4400
  404SOL    HW2 1615   0.961   2.955   0.809  0.3258 -0.4420 -0.7041
  404SOL     MW 1616   0.964   2.879   0.850  0.2663  0.7198  0.4010
  405SOL     OW 1617   0.449   2.482   1.589  0.0509 -0.6060  0.0288
  405SOL    HW1 1618   0.454   2.560   1.525 -0.3290  0.0430 -1.3177
  405SOL    HW2 1619   0.427   2.410   1.540 -1.4564  1.9871  2.0789
  405SOL     MW 1620   0.447   2.483   1.574 -0.1981 -0.1783  0.1217
  406SOL     OW 1621   0.387   2.392   1.134  0.1555  0.1736  0.3422
  406SOL    HW1 1622   0.291   2.407   1.142  1.1501 -0.3964  2.5824
  406SOL    HW2 1623   0.415   2.313   1.174  0.0642  3.9886 -0.0558
  406SOL     MW 1624   0.378   2.384   1.140  0.2747  0.6017  0.5853
  407SOL     OW 1625   3.067   2.742   1.161 -0.1317 -0.0077 -0.1333
  407SOL    HW1 1626   3.127   2.735   1.238  0.6506 -1.0817  3.0870
  407SOL    HW2 1627   3.127   2.730   1.088 -0.2186  0.3946 -0.8508
  407SOL     MW 1628   3.083   2.740   1.161 -0.0399 -0.0964  0.1969
  408SOL     OW 1629   2.102   2.014   0.482  0.0477  0.4698  0.9453
  408SOL    HW1 1630   2.121   2.061   0.563  2.0455  0.9052  0.3921
  408SOL    HW2 1631   2.014   1.989   0.478 -0.1304  0.1922 -0.5859
  408SOL     MW 1632   2.093   2.017   0.492  0.2878  0.4906  0.6703
  409SOL     OW 1633   1.421   0.160   0.954 -0.0489 -0.0341 -0.0474
  409SOL    HW1 1634   1.416   0.244   0.910  1.1950 -0.3642  0.8538
  409SOL    HW2 1635   1.507   0.120   0.952  3.0718  0.5478  0.0046
  409SOL     MW 1636   1.431   0.166   0.948  0.5270 -0.0008  0.0783
  410SOL     OW 1637   1.072   2.518   1.053 -0.3882  0.2769 -0.1717
  410SOL    HW1 1638   0.978   2.533   1.025  0.8301 -0.4130  0.1844
  410SOL    HW2 1639   1.109   2.463   0.987  1.6865 -0.2554  0.8953
  410SOL     MW 1640   1.065   2.513   1.040  0.0463  0.1156  0.0161
  411SOL     OW 1641   1.937   0.087   2.871 -0.1718 -0.2317  0.5369
  411SOL    HW1 1642   1.875   0.071   2.803 -0.6093  0.9675  2.4527
  411SOL    HW2 1643   1.884   0.134   2.933 -1.5827  1.0309 -2.2040
  411SOL     MW 1644   1.922   0.091   2.870 -0.4157  0.0931  0.4280
  412SOL     OW 1645   1.008   2.230   0.600  0.3353 -0.0021 -0.1538
  412SOL    HW1 1646   1.053   2.313   0.619 -2.1235 -2.5877 -1.9677
  412SOL    HW2 1647   0.918   2.257   0.573 -0.7721  0.5119 -1.7253
  412SOL     MW 1648   1.002   2.245   0.599 -0.1352 -0.2755 -0.6005
  413SOL     OW 1649   0.514   2.806   0.048  0.4096 -0.0930 -0.4758
  413SOL    HW1 1650   0.574   2.731   0.065 -0.2841 -3.6326 -0.4846
  413SOL    HW2 1651   0.544   2.830  -0.041 -0.7687  1.2964  1.6107
  413SOL     MW 1652   0.526   2.799   0.039  0.1626 -0.3767 -0.2017
  414SOL     OW 1653   2.023   3.008   0.994 -0.5407 -0.1764  0.3375
  414SOL    HW1 1654   1.963   2.980   0.922  2.6497  1.2320 -0.5145
  414SOL    HW2 1655   2.092   2.939   0.991  1.6361 -0.1844  0.1309
  414SOL     MW 1656   2.024   2.995   0.984  0.1675  0.0084  0.1978
  415SOL     OW 1657   1.734   2.659   1.112 -0.2073  0.3359 -0.0509
  415SOL    HW1 1658   1.703   2.601   1.185  1.4305  0.1846  1.9405
  415SOL    HW2 1659   1.828   2.681   1.137 -2.0631  1.5817 -1.0556
  415SOL     MW 1660   1.742   2.655   1.125 -0.2361  0.4803  0.0793
  416SOL     OW 1661   0.579   1.950   1.379 -0.6293 -0.5880  0.0505
  416SOL    HW1 1662   0.535   2.035   1.356  1.3997  0.2526  1.7852
  416SOL    HW2 1663   0.590   1.908   1.294  0.2932  1.4653 -0.5611
  416SOL     MW 1664   0.575   1.955   1.365 -0.2399 -0.2062  0.1987
  417SOL     OW 1665   1.042   2.975   2.041  0.1668 -0.0053 -0.1799
  417SOL    HW1 1666   0.978   2.975   2.116  1.1691 -0.5459  0.4024
  417SOL    HW2 1667   1.001   2.914   1.982  0.9676  0.0703  0.7751
  417SOL     MW 1668   1.028   2.967   2.043  0.4047 -0.0667  0.0230
  418SOL     OW 1669   0.719   2.982   0.160 -0.2318 -0.0187  0.1691
  418SOL    HW1 1670   0.784   2.951   0.096  1.6090 -1.6577  1.4100
  418SOL    HW2 1671   0.637   2.939   0.133 -0.7277  1.3798  1.0534
  418SOL     MW 1672   0.717   2.972   0.148 -0.0544 -0.0505  0.4495
  419SOL     OW 1673   0.465   2.702   1.404 -0.0299 -0.0947  0.0421
  419SOL    HW1 1674   0.501   2.787   1.425 -2.4369 -3.1135 -0.2116
  419SOL    HW2 1675   0.508   2.673   1.323  0.9088 -1.5739  2.8507
  419SOL     MW 1676   0.476   2.709   1.396 -0.2236 -0.6882  0.3792
  420SOL     OW 1677   0.904   2.219   0.950  0.7067 -0.4121 -0.0296
  420SOL    HW1 1678   0.831   2.209   1.017 -1.4509  2.1444 -4.5437
  420SOL    HW2 1679   0.885   2.302   0.904 -1.3926 -0.2716  0.9350
  420SOL     MW 1680   0.892   2.229   0.952  0.1450 -0.0563 -0.4979
  421SOL     OW 1681   2.948   0.076   0.123 -0.1359  0.1114 -0.6959
  421SOL    HW1 1682   2.918   0.063   0.037 -4.3194 -2.5704  0.2493
  421SOL    HW2 1683   2.973  -0.009   0.159 -1.7443  2.2702  2.8184
  421SOL     MW 1684   2.947   0.063   0.117 -0.9001  0.0424 -0.1075
  422SOL     OW 1685   0.827   2.499   0.916  0.1053  0.3804 -0.0102
  422SOL    HW1 1686   0.743   2.500   0.966 -0.4433 -0.3271  1.0467
  422SOL    HW2 1687   0.800   2.521   0.823 -2.5656 -2.3229 -4.3650
  422SOL     MW 1688   0.813   2.502   0.911 -0.3195 -0.0696 -0.4453
  423SOL     OW 1689   1.623   0.085   0.523  0.1413  0.1904 -0.2883
  423SOL    HW1 1690   1.639   0.030   0.448 -1.2162  2.1279 -1.1944
  423SOL    HW2 1691   1.601   0.172   0.486 -1.0741 -0.9312 -0.2678
  423SOL     MW 1692   1.622   0.089   0.508 -0.1982  0.2981 -0.4052
  424SOL     OW 1693   0.750   2.180   1.175 -0.2176 -0.1863  0.0102
  424SOL    HW1 1694   0.652   2.161   1.186 -2.1030 -1.9055  1.3800
  424SOL    HW2 1695   0.787   2.224   1.259  1.0555  0.3861  0.9653
  424SOL     MW 1696   0.742   2.183   1.188 -0.2984 -0.3376  0.3169
  425SOL     OW 1697   1.763   2.798   2.061  0.1194  0.0278 -0.1584
  425SOL    HW1 1698   1.745   2.800   1.966  0.2230  1.2749  1.1401
  425SOL    HW2 1699   1.744   2.706   2.089 -1.0533 -1.2670 -0.4159
  425SOL     MW 1700   1.758   2.786   2.052 -0.0217  0.0215 -0.0210
  426SOL     OW 1701   0.776   1.646   1.922 -0.3634 -0.0908 -0.3474
  426SOL    HW1 1702   0.731   1.627   1.832  0.0901 -0.3940  0.1539
  426SOL    HW2 1703   0.716   1.704   1.971 -2.3763 -2.1386 -0.1860
  426SOL     MW 1704   0.762   1.651   1.916 -0.5691 -0.4010 -0.2600
  427SOL     OW 1705   0.393   1.538   1.930 -0.1250  0.2491 -0.8227
  427SOL    HW1 1706   0.438   1.459   1.882  0.7562 -0.7697 -2.1271
  427SOL    HW2 1707   0.301   1.516   1.943 -0.4311  2.3685 -2.9026
  427SOL     MW 1708   0.387   1.525   1.926 -0.0491  0.3943 -1.2692
  428SOL     OW 1709   0.589   2.599   1.156 -0.2014  0.0670 -0.0178
  428SOL    HW1 1710   0.670   2.568   1.201 -0.3241  0.5136 -1.2121
  428SOL    HW2 1711   0.522   2.533   1.170  1.0475  0.2829  0.3387
  428SOL     MW 1712   0.591   2.586   1.164 -0.0528  0.1544 -0.1283
  429SOL     OW 1713   1.385   2.840   1.039  0.1162 -0.4042  0.1168
  429SOL    HW1 1714   1.300   2.821   1.088 -0.1472  0.1925  0.0021
  429SOL    HW2 1715   1.354   2.886   0.961  1.3895 -2.4695  0.3671
  429SOL     MW 1716   1.370   2.844   1.035  0.2495 -0.5979  0.1347
  430SOL     OW 1717   1.108   2.720   0.701  0.1563  0.2189  0.0236
  430SOL    HW1 1718   1.126   2.627   0.695  1.7453  2.6429 -1.0389
  430SOL    HW2 1719   1.048   2.728   0.629  2.8267 -1.3279  2.0339
  430SOL     MW 1720   1.103   2.709   0.691  0.7183  0.3346  0.1487
  431SOL     OW 1721   0.394   2.027   1.067 -0.6223  0.3855  0.1049
  431SOL    HW1 1722   0.434   1.936   1.071  1.5938 -0.9874  1.1609
  431SOL    HW2 1723   0.333   2.046   0.997  0.9364  0.6175  1.8190
  431SOL     MW 1724   0.391   2.018   1.058 -0.1243  0.2350  0.4704
  432SOL     OW 1725   0.061   0.049   1.196  0.0161  0.4088 -0.3376
  432SOL    HW1 1726   0.068   0.084   1.292  2.5061 -1.7646 -1.0530
  432SOL    HW2 1727  -0.021  -0.011   1.196  2.4757 -0.4570  0.7647
  432SOL     MW 1728   0.051   0.046   1.209  0.6691  0.0078 -0.2866
  433SOL     OW 1729   0.675   2.910   1.440  0.1006  0.1508  0.3706
  433SOL    HW1 1730   0.732   2.907   1.516 -2.8728 -2.6182 -1.9094
  433SOL    HW2 1731   0.729   2.906   1.360 -2.1194  1.4444  0.3346
  433SOL     MW 1732   0.689   2.909   1.439 -0.5846 -0.0439  0.0650
  434SOL     OW 1733   1.627   2.874   1.518 -0.0655 -0.0725  0.0486
  434SOL    HW1 1734   1.555   2.936   1.508  1.4611  1.1908 -0.3965
  434SOL    HW2 1735   1.628   2.829   1.429  0.2692 -1.6692 -1.0575
  434SOL     MW 1736   1.618   2.876   1.505  0.1801 -0.1165 -0.1560
  435SOL     OW 1737   2.820   1.796   0.297  0.0866  0.0864 -0.1237
  435SOL    HW1 1738   2.874   1.856   0.246  0.0363  0.4774 -0.4120
  435SOL    HW2 1739   2.792   1.735   0.225 -0.6983  0.8535 -1.3432
  435SOL     MW 1740   2.823   1.796   0.281 -0.0236  0.2392 -0.3227
  436SOL     OW 1741   1.489   2.791   0.324  0.2446  0.3488 -0.2337
  436SOL    HW1 1742   1.563   2.754   0.377  0.4682 -1.7327 -0.3390
  436SOL    HW2 1743   1.454   2.861   0.384 -0.8893  0.0997 -0.0230
  436SOL     MW 1744   1.494   2.795   0.339  0.1245  0.0413 -0.2198
  437SOL     OW 1745   0.866   2.877   1.236 -0.4185  0.6420  0.1326
  437SOL    HW1 1746   0.910   2.968   1.220  1.1714 -0.4314 -0.2232
  437SOL    HW2 1747   0.813   2.882   1.157 -1.9277 -1.2289 -1.5893
  437SOL     MW 1748   0.865   2.889   1.223 -0.4079  0.2536 -0.1415
  438SOL     OW 1749   0.815   2.484   2.088 -0.0761  0.4879 -0.6373
  438SOL    HW1 1750   0.793   2.426   2.166  1.3116 -0.2802 -0.3380
  438SOL    HW2 1751   0.741   2.454   2.037  1.9594 -0.8132  0.4773
  438SOL     MW 1752   0.802   2.473   2.092  0.3755  0.2149 -0.4507
  439SOL     OW 1753   1.123   2.183   0.363 -0.2378 -0.1022 -0.3556
  439SOL    HW1 1754   1.092   2.192   0.458  1.8366  1.1633 -1.3330
  439SOL    HW2 1755   1.124   2.269   0.321  1.1782  1.1262 -1.3291
  439SOL     MW 1756   1.119   2.196   0.370  0.2227  0.2268 -0.6130
  440SOL     OW 1757   1.627   3.073   2.969 -0.0637 -0.3078  0.2892
  440SOL    HW1 1758   1.596   3.049   3.057  0.0004 -0.3500 -0.6548
  440SOL    HW2 1759   1.683   3.001   2.939  1.7658  0.6350  0.4882
  440SOL     MW 1760   1.630   3.060   2.977  0.1861 -0.1890  0.1909
  441SOL     OW 1761   0.365   2.653   0.501 -0.2052 -0.3303 -0.2249
  441SOL    HW1 1762   0.333   2.608   0.419 -0.1412  2.8655  0.5041
  441SOL    HW2 1763   0.376   2.739   0.475 -0.7615 -0.9007 -0.6072
  441SOL     MW 1764   0.362   2.658   0.487 -0.2702  0.0161 -0.1792
  442SOL     OW 1765   3.098   2.375   0.631  0.2737 -0.2578 -0.1732
  442SOL    HW1 1766   3.126   2.468   0.611  0.0525  1.3901 -2.9964
  442SOL    HW2 1767   3.001   2.370   0.631  0.1917 -1.6898 -0.2328
  442SOL     MW 1768   3.089   2.387   0.628  0.2337 -0.2293 -0.5536
  443SOL     OW 1769   1.404   1.687   1.925  0.5977  0.1067 -0.3508
  443SOL    HW1 1770   1.369   1.750   1.867 -0.3923 -1.7509  2.5494
  443SOL    HW2 1771   1.345   1.619   1.918  1.8167  2.0249 -0.8910
  443SOL     MW 1772   1.391   1.686   1.916  0.6279  0.1147 -0.0394
  444SOL     OW 1773   0.893   2.617   1.554 -0.3468 -0.2407  0.3130
  444SOL    HW1 1774   0.956   2.573   1.604  1.0136 -0.4748 -0.0598
  444SOL    HW2 1775   0.818   2.613   1.608  4.3618 -0.8105  0.1492
  444SOL     MW 1776   0.891   2.611   1.567  0.4539 -0.3468  0.2422
  445SOL     OW 1777   0.955   0.052   1.233 -0.4563  0.9289  0.5344
  445SOL    HW1 1778   0.893   0.128   1.202  0.6777  0.3699 -0.5046
  445SOL    HW2 1779   1.031   0.068   1.179 -2.1725 -0.1961 -2.7794
  445SOL     MW 1780   0.957   0.064   1.222 -0.5331  0.7067 -0.0399
  446SOL     OW 1781   2.730   2.851   1.062  0.0403 -0.3685  0.0474
  446SOL    HW1 1782   2.700   2.891   0.978 -1.9691 -0.4022  0.5916
  446SOL    HW2 1783   2.763   2.762   1.035  1.1805  0.2476 -1.5474
  446SOL     MW 1784   2.730   2.845   1.048 -0.0744 -0.2916 -0.0912
  447SOL     OW 1785   3.019   2.011   1.703  0.0932 -0.2731 -0.4678
  447SOL    HW1 1786   3.074   1.939   1.740 -1.1317  0.4472 -0.6367
  447SOL    HW2 1787   2.971   1.970   1.629 -0.1742  1.3183 -1.7009
  447SOL     MW 1788   3.020   1.996   1.698 -0.1037  0.0319 -0.6528
  448SOL     OW 1789   1.682   2.378   1.681  0.0123  0.0876 -0.0277
  448SOL    HW1 1790   1.641   2.289   1.697  0.0296  0.8342 -0.3988
  448SOL    HW2 1791   1.610   2.440   1.688  0.0577  1.5764  0.1012
  448SOL     MW 1792   1.667   2.375   1.684  0.0206  0.3825 -0.0597
  449SOL     OW 1793   0.858   2.859   0.383  0.1010  0.2494  0.7311
  449SOL    HW1 1794   0.805   2.852   0.300 -1.5560  4.0070 -0.2234
  449SOL    HW2 1795   0.794   2.852   0.455  1.2643 -0.4887  0.7451
  449SOL     MW 1796   0.842   2.857   0.382  0.0359  0.6478  0.6071
  450SOL     OW 1797   1.169   2.439   0.660  0.5537 -0.4415 -0.5976
  450SOL    HW1 1798   1.195   2.421   0.747  1.4093 -1.6012 -0.1371
  450SOL    HW2 1799   1.253   2.468   0.623  2.7469  0.5750  0.5362
  450SOL     MW 1800   1.183   2.440   0.667  0.9559 -0.4604 -0.3873
  451SOL     OW 1801   0.633   1.910   1.664  0.3563  0.5233 -0.1065
  451SOL    HW1 1802   0.712   1.955   1.695  0.0717 -2.0864 -3.3078
  451SOL    HW2 1803   0.628   1.919   1.567 -1.8124  1.5474 -0.0566
  451SOL     MW 1804   0.643   1.917   1.655  0.0326  0.3141 -0.5223
  452SOL     OW 1805   0.313   2.637   0.008  0.5137 -0.0798  0.6178
  452SOL    HW1 1806   0.373   2.717   0.008 -1.7748  0.9532  0.1230
  452SOL    HW2 1807   0.316   2.617  -0.086  0.7010  1.7654  0.8949
  452SOL     MW 1808   0.321   2.645  -0.004  0.2365  0.3000  0.5890
  453SOL     OW 1809   0.414   3.038   1.675 -0.8448 -0.3231 -0.3399
  453SOL    HW1 1810   0.473   3.098   1.623  2.0874 -0.6225 -1.4251
  453SOL    HW2 1811   0.337   3.010   1.623  0.2465 -1.7707  0.8129
  453SOL     MW 1812   0.412   3.042   1.661 -0.3139 -0.5536 -0.3310
  454SOL     OW 1813   1.155   2.763   1.162  0.0295 -0.0580 -0.0568
  454SOL    HW1 1814   1.149   2.683   1.105  1.7873 -0.8180 -0.5208
  454SOL    HW2 1815   1.066   2.798   1.158  1.5740 -0.1616 -1.0566
  454SOL     MW 1816   1.142   2.757   1.154  0.4652 -0.1719 -0.2499
  455SOL     OW 1817   1.606   2.936   0.123  0.3504  0.0469  0.5302
  455SOL    HW1 1818   1.693   2.908   0.146 -0.0914 -1.1560  0.0715
  455SOL    HW2 1819   1.558   2.887   0.185  0.2971 -1.2976 -0.2410
  455SOL     MW 1820   1.611   2.926   0.134  0.2851 -0.2892  0.3679
  456SOL     OW 1821   2.836   0.317   1.383  0.2243 -0.3506 -0.2564
  456SOL    HW1 1822   2.801   0.239   1.343 -0.9410  1.2393 -0.6003
  456SOL    HW2 1823   2.887   0.362   1.306 -3.1910  3.1204  2.1167
  456SOL     MW 1824   2.838   0.313   1.367 -0.3801  0.3171  0.0113
  457SOL     OW 1825   0.917   1.493   2.955  0.2981  0.7619 -0.1301
  457SOL    HW1 1826   0.855   1.474   3.031  0.4266 -1.2442  1.6407
  457SOL    HW2 1827   1.000   1.458   2.977 -0.8600 -1.3553 -0.6832
  457SOL     MW 1828   0.920   1.486   2.968  0.1622  0.2179  0.0305
  458SOL     OW 1829   1.435   1.324   0.667 -0.0165  0.1972 -0.4234
  458SOL    HW1 1830   1.354   1.327   0.728 -1.8704 -0.1500  2.7266
  458SOL    HW2 1831   1.401   1.274   0.596 -1.3465 -0.8294  1.0313
  458SOL     MW 1832   1.420   1.318   0.666 -0.4366  0.0159  0.1842
  459SOL     OW 1833   1.616   0.120   0.192 -0.4662 -0.1760  0.3404
  459SOL    HW1 1834   1.613   0.024   0.209  0.4164  1.0167 -1.3148
  459SOL    HW2 1835   1.530   0.157   0.185 -1.1486 -0.9447 -0.2317
  459SOL     MW 1836   1.605   0.112   0.193 -0.4398 -0.1201  0.0465
  460SOL     OW 1837   1.757   2.148   0.617 -0.3506  0.3563  0.2513
  460SOL    HW1 1838   1.662   2.154   0.627  1.3630 -0.1319  0.6393
  460SOL    HW2 1839   1.798   2.074   0.572  1.3465 -1.0765  1.2197
  460SOL     MW 1840   1.750   2.139   0.613  0.0994  0.1029  0.4302
  461SOL     OW 1841   0.354   2.310   0.629  0.1927 -0.2980  0.1594
  461SOL    HW1 1842   0.305   2.338   0.554 -0.5018  0.1520  4.9069
  461SOL    HW2 1843   0.341   2.368   0.704  1.7397  2.0698 -1.2275
  461SOL     MW 1844   0.346   2.322   0.629  0.3052  0.0738  0.6028
  462SOL     OW 1845   0.421   0.248   1.362 -0.4074 -0.2936  0.2156
  462SOL    HW1 1846   0.448   0.157   1.351 -0.6820  2.6929  0.7425
  462SOL    HW2 1847   0.496   0.306   1.323  0.7493  0.7577 -2.9670
  462SOL     MW 1848   0.435   0.244   1.356 -0.2910  0.2392 -0.1348
  463SOL     OW 1849   0.976   3.089   0.695 -0.2996 -0.5080 -0.4795
  463SOL    HW1 1850   0.994   3.073   0.599 -0.1336 -2.7559 -0.8392
  463SOL    HW2 1851   0.894   3.139   0.690 -1.5588  1.8872 -0.9419
  463SOL     MW 1852   0.968   3.093   0.682 -0.4438 -0.4886 -0.5879
  464SOL     OW 1853   0.868   3.001   2.252 -0.1627  0.1194 -0.1586
  464SOL    HW1 1854   0.849   2.905   2.247  1.5205 -4.4348 -0.7881
  464SOL    HW2 1855   0.900   3.023   2.341  0.2175 -1.7680 -0.8635
  464SOL     MW 1856   0.869   2.991   2.263  0.1096 -0.7305 -0.3346
  465SOL     OW 1857   0.710   0.322   0.470  0.0683 -0.6123  0.2429
  465SOL    HW1 1858   0.657   0.291   0.543 -1.7293 -2.3655 -0.1618
  465SOL    HW2 1859   0.735   0.247   0.410  0.7498  0.5745 -1.9710
  465SOL     MW 1860   0.707   0.308   0.472 -0.0790 -0.6870 -0.1026
  466SOL     OW 1861   1.083   2.003   0.722  0.0834  0.2522  0.5758
  466SOL    HW1 1862   1.085   1.937   0.655 -0.6016  1.4309  2.1532
  466SOL    HW2 1863   1.060   2.082   0.676  2.3953  0.8530 -0.5988
  466SOL     MW 1864   1.080   2.005   0.707  0.2980  0.4869  0.6289
  467SOL     OW 1865   1.247   2.343   0.894  0.0275  0.6386 -0.5237
  467SOL    HW1 1866   1.329   2.341   0.950 -1.9627 -2.2678  4.2632
  467SOL    HW2 1867   1.221   2.254   0.891  3.3672  2.6801  0.2086
  467SOL     MW 1868   1.254   2.331   0.901  0.2056  0.5245  0.2045
  468SOL     OW 1869   0.330   2.599   2.005  0.0791  0.5277  0.8477
  468SOL    HW1 1870   0.335   2.514   1.956  1.2701  1.2010 -0.2138
  468SOL    HW2 1871   0.374   2.653   1.937  1.8175 -3.1179 -0.3451
  468SOL     MW 1872   0.336   2.595   1.989  0.4656  0.1355  0.5503
  469SOL     OW 1873   0.394   2.091   1.741  0.4954 -0.1744  0.1417
  469SOL    HW1 1874   0.314   2.061   1.695  0.2735 -1.6400  3.2335
  469SOL    HW2 1875   0.457   2.026   1.709 -0.4531 -1.0973 -1.2063
  469SOL     MW 1876   0.392   2.079   1.730  0.3410 -0.4895  0.3718
  470SOL     OW 1877   0.008   2.581   0.217 -0.0719  0.6545 -0.5680
  470SOL    HW1 1878  -0.070   2.558   0.264  2.3549 -1.3791  0.8068
  470SOL    HW2 1879  -0.018   2.560   0.129 -0.9866  0.4449  1.9742
  470SOL     MW 1880  -0.006   2.575   0.211  0.1276  0.3586 -0.0512
  471SOL     OW 1881   1.237   2.752   1.416  0.1713 -0.1014  0.4025
  471SOL    HW1 1882   1.154   2.768   1.464 -0.2305  0.1836  3.4904
  471SOL    HW2 1883   1.206   2.762   1.327 -1.1583 -0.7391 -0.7902
  471SOL     MW 1884   1.222   2.756   1.411 -0.0571 -0.1480  0.6525
  472SOL     OW 1885   2.957   2.067   0.407 -0.2286  0.6227 -0.4250
  472SOL    HW1 1886   2.971   2.042   0.313 -0.7331  1.1211  0.5165
  472SOL    HW2 1887   2.962   1.995   0.469 -0.7188 -0.7887 -0.0197
  472SOL     MW 1888   2.959   2.054   0.403 -0.3598  0.5022 -0.2473
  473SOL     OW 1889   0.834   2.505   1.293  0.0434 -0.1889  0.2189
  473SOL    HW1 1890   0.895   2.432   1.291 -0.1471 -2.2449  1.7776
  473SOL    HW2 1891   0.856   2.557   1.369  0.7304  0.8704 -0.0108
  473SOL     MW 1892   0.845   2.502   1.303  0.1089 -0.3204  0.3943
  474SOL     OW 1893   0.841   2.081   1.726  0.2807  0.8131  0.2433
  474SOL    HW1 1894   0.932   2.081   1.751 -2.8957 -0.4011 -2.5604
  474SOL    HW2 1895   0.835   2.152   1.662 -0.2214  1.3134 -0.5395
  474SOL     MW 1896   0.852   2.090   1.721 -0.2046  0.7189 -0.2299
  475SOL     OW 1897   1.698   0.025   1.312 -0.7960 -0.2406  0.5115
  475SOL    HW1 1898   1.608   0.039   1.270 -0.4795 -1.4665  0.2156
  475SOL    HW2 1899   1.691  -0.064   1.342 -0.1631  0.8422  0.0006
  475SOL     MW 1900   1.685   0.015   1.310 -0.6707 -0.2595  0.4050
  476SOL     OW 1901   1.437   2.618   0.850  0.8347 -0.1897 -0.3064
  476SOL    HW1 1902   1.444   2.649   0.934  0.8469 -0.2569 -0.3552
  476SOL    HW2 1903   1.456   2.700   0.801 -3.3951  2.6959 -1.1849
  476SOL     MW 1904   1.440   2.633   0.854  0.2782  0.1821 -0.4287
  477SOL     OW 1905   0.814   2.538   0.624  0.5462  0.4993 -0.5369
  477SOL    HW1 1906   0.880   2.575   0.574  1.0246 -3.1617 -1.3612
  477SOL    HW2 1907   0.795   2.454   0.574  2.8364 -0.1858  0.0755
  477SOL     MW 1908   0.820   2.531   0.611  0.9115 -0.0741 -0.5649
  478SOL     OW 1909   0.144   2.702   0.961  0.1164 -0.2780  0.6139
  478SOL    HW1 1910   0.186   2.781   0.932  2.4697 -0.0849  1.1374
  478SOL    HW2 1911   0.173   2.631   0.902  2.1464  0.4220  1.4876
  478SOL     MW 1912   0.153   2.703   0.949  0.6947 -0.1602  0.7982
  479SOL     OW 1913   1.470   1.941   1.319 -0.1033 -0.2066 -0.0777
  479SOL    HW1 1914   1.423   1.974   1.398  0.9783  1.0676 -1.6882
  479SOL    HW2 1915   1.534   1.883   1.366  0.6158  1.6666  0.5599
  479SOL     MW 1916   1.472   1.938   1.336  0.1343  0.2087 -0.2061
  480SOL     OW 1917   1.855   2.420   1.350  0.3083  0.1567  0.4727
  480SOL    HW1 1918   1.864   2.346   1.411 -0.8348  3.6745  1.5523
  480SOL    HW2 1919   1.888   2.388   1.264 -0.7827  0.2696  1.5061
  480SOL     MW 1920   1.861   2.406   1.347  0.0136  0.6357  0.7515
  481SOL     OW 1921   1.170   0.167   1.088  0.0917 -0.4027 -0.2980
  481SOL    HW1 1922   1.256   0.150   1.050 -0.2328  1.7274 -0.3252
  481SOL    HW2 1923   1.175   0.255   1.125 -0.8999  2.0304 -0.3742
  481SOL     MW 1924   1.182   0.176   1.088 -0.0819  0.1994 -0.3117
  482SOL     OW 1925   1.062   3.040   0.422 -0.0741 -0.4419  0.3365
  482SOL    HW1 1926   1.009   2.976   0.378 -1.6459  1.5461  0.1875
  482SOL    HW2 1927   1.023   3.124   0.393  1.1589  1.0599  2.3528
  482SOL     MW 1928   1.049   3.043   0.413 -0.1188  0.0185  0.5829
  483SOL     OW 1929   0.386   2.925   0.489  0.1363  0.0693 -0.3797
  483SOL    HW1 1930   0.325   2.956   0.427 -1.7984 -3.2587 -0.7155
  483SOL    HW2 1931   0.351   2.964   0.569  1.4829  0.2532 -2.4667
  483SOL     MW 1932   0.374   2.934   0.491  0.0587 -0.3455 -0.6993
  484SOL     OW 1933   1.702   1.806   1.435 -0.2924  0.3810  0.4659
  484SOL    HW1 1934   1.758   1.885   1.419 -1.9718  1.8489 -0.4020
  484SOL    HW2 1935   1.697   1.803   1.533  1.0341 -0.6279  1.0537
  484SOL     MW 1936   1.709   1.816   1.445 -0.3389  0.4415  0.4289
  485SOL     OW 1937   0.385   2.324   0.336  0.5315  0.3557 -0.5670
  485SOL    HW1 1938   0.464   2.354   0.379 -0.2942  1.1379  1.1519
  485SOL    HW2 1939   0.327   2.400   0.307  4.0085  0.2581  2.0855
  485SOL     MW 1940   0.388   2.338   0.337  0.8813  0.4461  0.0098
  486SOL     OW 1941   0.109   2.467   1.471 -0.1057 -0.0293  0.1403
  486SOL    HW1 1942   0.107   2.557   1.437 -0.9613  0.1792 -0.2122
  486SOL    HW2 1943   0.139   2.481   1.566 -0.4689 -1.0810  4.3519
  486SOL     MW 1944   0.113   2.481   1.479 -0.2665 -0.1406  0.6495
  487SOL     OW 1945   1.282   1.559   1.105  0.5025 -0.6965  0.2393
  487SOL    HW1 1946   1.254   1.650   1.111  0.9868 -0.9128 -0.2734
  487SOL    HW2 1947   1.372   1.577   1.066  2.8559  0.5673  0.8739
  487SOL     MW 1948   1.290   1.573   1.101  0.8769 -0.5583  0.2554
  488SOL     OW 1949   1.449   1.780   0.597 -0.7120  0.1509 -0.3710
  488SOL    HW1 1950   1.466   1.871   0.578  0.0951 -0.0569  1.8749
  488SOL    HW2 1951   1.379   1.750   0.542  1.1428 -0.1910  0.5708
  488SOL     MW 1952   1.442   1.788   0.587 -0.3608  0.0784  0.0496
  489SOL     OW 1953   0.711   0.672   0.472  0.1125  0.1182 -0.2397
  489SOL    HW1 1954   0.637   0.619   0.436 -0.7595  0.0472  1.1887
  489SOL    HW2 1955   0.681   0.688   0.566 -0.0117 -2.6209  0.2610
  489SOL     MW 1956   0.698   0.667   0.479 -0.0189 -0.2525  0.0148
  490SOL     OW 1957   1.368   2.064   0.424 -0.4132  0.3718 -0.0904
  490SOL    HW1 1958   1.445   2.105   0.390  0.3242 -0.4167 -0.5094
  490SOL    HW2 1959   1.290   2.116   0.395 -1.2646 -3.1683 -0.2508
  490SOL     MW 1960   1.368   2.076   0.416 -0.4282 -0.1993 -0.1669
  491SOL     OW 1961   1.338   3.016   0.425 -0.3218 -0.3837 -0.5587
  491SOL    HW1 1962   1.376   3.078   0.488 -1.3037 -0.8516  1.6238
  491SOL    HW2 1963   1.253   3.056   0.431 -2.5760  2.4756 -0.4666
  491SOL     MW 1964   1.332   3.030   0.434 -0.7488 -0.0682 -0.2586
  492SOL     OW 1965   1.451   2.151   0.698  0.2506  0.2022  0.2963
  492SOL    HW1 1966   1.413   2.123   0.618  2.4627 -0.5254  0.9049
  492SOL    HW2 1967   1.404   2.112   0.764  0.1762 -0.9483  0.4131
  492SOL     MW 1968   1.440   2.143   0.696  0.5327 -0.0456  0.3920
  493SOL     OW 1969   0.195   3.013   0.312  0.3892  0.5953  0.6021
  493SOL    HW1 1970   0.139   3.078   0.338  1.9253 -2.1035 -0.2362
  493SOL    HW2 1971   0.182   2.985   0.224  0.8566 -0.4636  0.3522
  493SOL     MW 1972   0.186   3.018   0.304  0.6536  0.0995  0.4586
  494SOL     OW 1973   0.371   2.374   1.819  0.3860 -0.7629  0.3150
  494SOL    HW1 1974   0.383   2.275   1.822  2.9716 -1.6269  1.2899
  494SOL    HW2 1975   0.412   2.412   1.733  0.9926 -0.5570 -2.7912
  494SOL     MW 1976   0.378   2.366   1.808  0.8072 -0.8497  0.0338
  495SOL     OW 1977   2.821   1.629   2.676 -0.3164  0.1405 -0.1810
  495SOL    HW1 1978   2.806   1.691   2.747  0.6113  1.5103  0.1101
  495SOL    HW2 1979   2.825   1.542   2.720  0.3232  0.6588 -1.3855
  495SOL     MW 1980   2.819   1.626   2.691 -0.1096  0.3896 -0.3015
  496SOL     OW 1981   2.831   2.299   2.749  0.0454  0.0054  0.1529
  496SOL    HW1 1982   2.848   2.226   2.804  3.2348 -0.9065  1.5992
  496SOL    HW2 1983   2.916   2.343   2.756  0.9502  1.8327  0.2886
  496SOL     MW 1984   2.844   2.295   2.757  0.5856  0.1262  0.3616
  497SOL     OW 1985   1.474   2.431   2.588 -0.3509  0.4318 -0.0414
  497SOL    HW1 1986   1.491   2.373   2.514 -0.8079 -1.9629 -2.0384
  497SOL    HW2 1987   1.439   2.370   2.654 -0.3659 -0.1910 -2.8067
  497SOL     MW 1988   1.472   2.415   2.587 -0.4132  0.0336 -0.6697
  498SOL     OW 1989   1.488   2.727   2.321 -0.0725  0.0191 -0.2591
  498SOL    HW1 1990   1.446   2.655   2.368  1.0360 -0.3053 -0.4350
  498SOL    HW2 1991   1.534   2.775   2.387  0.1349  1.2616 -1.9048
  498SOL     MW 1992   1.488   2.724   2.336  0.1011  0.1402 -0.4994
  499SOL     OW 1993   0.969   0.045   0.096 -0.3696  0.7664  0.3400
  499SOL    HW1 1994   0.894   0.082   0.140  0.4353  1.1193 -1.4490
  499SOL    HW2 1995   0.945  -0.035   0.054 -0.1414 -0.1860  1.9820
  499SOL     MW 1996   0.956   0.039   0.096 -0.2333  0.6873  0.3206
  500SOL     OW 1997   1.025   2.539   2.728  0.4288 -0.1930  0.1366
  500SOL    HW1 1998   1.094   2.488   2.778  0.7925  0.5778  0.4782
  500SOL    HW2 1999   0.983   2.604   2.784  1.1148  0.3464  1.0350
  500SOL     MW 2000   1.029   2.541   2.742  0.5673 -0.0202  0.3002
  501SOL     OW 2001   1.804   2.315   2.958 -0.2453 -0.4364 -0.5757
  501SOL    HW1 2002   1.824   2.408   2.974  0.9013 -0.0597 -0.4514
  501SOL    HW2 2003   1.888   2.273   2.980 -0.3507 -0.2350 -1.7901
  501SOL     MW 2004   1.818   2.322   2.963 -0.1079 -0.3601 -0.7196
  502SOL     OW 2005   0.326   2.737   2.836  0.4852  0.0394  0.7551
  502SOL    HW1 2006   0.332   2.733   2.741 -0.4431  0.1426 -1.6530
  502SOL    HW2 2007   0.285   2.821   2.860  1.0435 -0.0104  2.2873
  502SOL     MW 2008   0.321   2.747   2.827  0.4364  0.0465  0.6395
  503SOL     OW 2009   1.108   2.476   2.074 -0.0015 -0.0622 -0.0020
  503SOL    HW1 2010   1.116   2.519   1.992  0.7309 -0.7447 -0.7409
  503SOL    HW2 2011   1.015   2.463   2.077  1.0725 -2.5814  0.3651
  503SOL     MW 2012   1.097   2.480   2.063  0.2368 -0.4846 -0.0510
  504SOL     OW 2013   0.071   2.617   2.181 -0.2413  0.4440  0.4093
  504SOL    HW1 2014   0.085   2.561   2.102 -0.8947  1.2637 -1.5640
  504SOL    HW2 2015   0.062   2.555   2.247 -1.3171 -1.5575 -0.5534
  504SOL     MW 2016   0.072   2.601   2.179 -0.4694  0.2881  0.0219
  505SOL     OW 2017   1.598   2.854   2.719 -0.3448 -0.1484  0.8607
  505SOL    HW1 2018   1.644   2.889   2.640 -0.4620 -0.4493 -1.8737
  505SOL    HW2 2019   1.522   2.914   2.726 -1.6497 -3.4068  0.3442
  505SOL     MW 2020   1.594   2.866   2.710 -0.5325 -0.6180  0.4318
  506SOL     OW 2021   1.551   0.129   2.765  0.1383  0.2374  0.4965
  506SOL    HW1 2022   1.566   0.087   2.845 -1.1545 -1.8215 -1.2658
  506SOL    HW2 2023   1.616   0.093   2.697  3.3738  1.0138 -0.0669
  506SOL     MW 2024   1.562   0.119   2.766  0.3946  0.0682  0.1897
  507SOL     OW 2025   0.799   2.703   2.840 -0.2844 -0.2580 -0.4131
  507SOL    HW1 2026   0.815   2.733   2.747  0.1988 -1.1149 -0.1698
  507SOL    HW2 2027   0.711   2.675   2.845  1.2096  2.0133 -0.2997
  507SOL     MW 2028   0.789   2.703   2.828 -0.0235 -0.0714 -0.3660
  508SOL     OW 2029   1.193   2.153   2.551  0.2343  0.0162 -0.3032
  508SOL    HW1 2030   1.266   2.180   2.606  1.3530 -1.2899  2.2815
  508SOL    HW2 2031   1.117   2.169   2.607 -0.6961  1.3395  0.4615
  508SOL     MW 2032   1.193   2.159   2.566  0.2592  0.0185  0.1387
  509SOL     OW 2033   0.545   2.595   2.875 -0.0524 -0.6048 -0.3079
  509SOL    HW1 2034   0.550   2.542   2.796  0.9899  0.2688  2.2248
  509SOL    HW2 2035   0.494   2.678   2.849  1.6750 -0.9232 -2.4309
  509SOL     MW 2036   0.539   2.599   2.861  0.3131 -0.5315 -0.2538
  510SOL     OW 2037   1.522   2.642   1.683 -0.0779  0.0229 -1.3329
  510SOL    HW1 2038   1.558   2.728   1.656 -2.7982 -1.0900 -2.5099
  510SOL    HW2 2039   1.449   2.649   1.746 -0.8159  0.0533 -0.9570
  510SOL     MW 2040   1.517   2.655   1.688 -0.5342 -0.1199 -1.4386
  511SOL     OW 2041   0.390   2.594   2.515  0.1468 -0.0463  0.0025
  511SOL    HW1 2042   0.460   2.549   2.558  2.2039  1.0232  1.2515
  511SOL    HW2 2043   0.400   2.570   2.421  1.5876 -2.0772 -0.1676
  511SOL     MW 2044   0.401   2.585   2.508  0.6083 -0.1732  0.1448
  512SOL     OW 2045   0.932   1.996   2.806  0.1404 -0.1650 -0.0042
  512SOL    HW1 2046   0.840   2.021   2.829 -0.7127 -1.8665 -0.1754
  512SOL    HW2 2047   0.951   1.916   2.862 -1.9926  0.8207  1.6570
  512SOL     MW 2048   0.922   1.989   2.816 -0.2536 -0.2594  0.1924
  513SOL     OW 2049   1.476   2.407   2.218  0.6370 -0.1616  0.5953
  513SOL    HW1 2050   1.569   2.433   2.198  1.3331 -0.5327 -1.2624
  513SOL    HW2 2051   1.489   2.334   2.278 -2.9719 -1.1137 -0.5337
  513SOL     MW 2052   1.490   2.400   2.223  0.2527 -0.3362  0.2012
  514SOL     OW 2053   0.208   2.382   2.651  0.5039 -0.2821  0.6767
  514SOL    HW1 2054   0.249   2.467   2.645  0.9455  0.1591 -0.8482
  514SOL    HW2 2055   0.262   2.342   2.721 -0.4642 -0.8947  1.2117
  514SOL     MW 2056   0.220   2.388   2.659  0.4344 -0.3047  0.5461
  515SOL     OW 2057   1.072   2.014   1.901  0.0304  0.2125  0.1300
  515SOL    HW1 2058   1.045   2.089   1.938  1.3337 -0.3527 -1.1460
  515SOL    HW2 2059   1.150   1.995   1.951  0.7955 -0.2749 -1.7917
  515SOL     MW 2060   1.079   2.021   1.912  0.3033  0.0737 -0.2919
  516SOL     OW 2061   1.338   2.623   2.904  0.5491  0.1357  0.1388
  516SOL    HW1 2062   1.352   2.622   2.812  0.0189  2.1406  1.9848
  516SOL    HW2 2063   1.265   2.559   2.921  1.7589  1.1641 -1.8683
  516SOL     MW 2064   1.330   2.614   2.894  0.6388  0.5359  0.1175
  517SOL     OW 2065   0.439   2.268   2.322 -0.0012 -0.1412 -0.0545
  517SOL    HW1 2066   0.420   2.362   2.317 -0.9825  1.7880 -0.2466
  517SOL    HW2 2067   0.401   2.230   2.238  0.1080 -1.7473  0.7061
  517SOL     MW 2068   0.431   2.275   2.310 -0.1163 -0.0986  0.0205
  518SOL     OW 2069   1.757   0.200   3.025 -0.4603 -0.0088  0.2312
  518SOL    HW1 2070   1.768   0.206   3.117  0.8935 -2.2421 -0.7579
  518SOL    HW2 2071   1.702   0.126   3.006  0.0906 -4.1282 -2.2389
  518SOL     MW 2072   1.751   0.191   3.035 -0.2090 -0.8470 -0.2252
  519SOL     OW 2073   0.605   2.353   1.989 -0.1989 -0.6209 -0.2445
  519SOL    HW1 2074   0.625   2.261   1.969  1.3400  0.0061 -3.5117
  519SOL    HW2 2075   0.556   2.396   1.914 -0.3713 -2.1459 -0.9020
  519SOL     MW 2076   0.601   2.346   1.977 -0.0186 -0.7394 -0.7623
  520SOL     OW 2077   1.127   2.150   2.898  0.3711 -0.6333 -0.3633
  520SOL    HW1 2078   1.060   2.092   2.854  0.3367 -0.0463  1.5584
  520SOL    HW2 2079   1.175   2.083   2.947 -1.2811  0.9660 -0.5732
  520SOL     MW 2080   1.124   2.133   2.899  0.1485 -0.3449 -0.1375
  521SOL     OW 2081   1.698   2.107   2.182 -0.0722 -0.9094  0.3301
  521SOL    HW1 2082   1.765   2.124   2.114 -2.6100  1.4411  1.9608
  521SOL    HW2 2083   1.696   2.010   2.203 -0.5984  0.7470  3.1985
  521SOL     MW 2084   1.707   2.097   2.176 -0.4765 -0.3807  0.9237
  522SOL     OW 2085   2.838   2.554   2.156  0.7432  0.2583  0.3960
  522SOL    HW1 2086   2.888   2.502   2.217 -2.7513 -0.7967 -2.5307
  522SOL    HW2 2087   2.907   2.613   2.126 -3.0070  0.7089  0.5038
  522SOL     MW 2088   2.854   2.555   2.160 -0.2127  0.1786  0.0241
  523SOL     OW 2089   0.802   1.497   2.136  0.5436 -0.1219 -0.1029
  523SOL    HW1 2090   0.790   1.543   2.051  1.6061 -0.1871 -1.7628
  523SOL    HW2 2091   0.878   1.439   2.126 -1.0474  0.1398  1.1555
  523SOL     MW 2092   0.810   1.496   2.124  0.4739 -0.0960 -0.1559
  524SOL     OW 2093   0.561   2.365   3.047  1.0666  0.5065  0.6297
  524SOL    HW1 2094   0.577   2.441   2.992 -1.6164 -0.7403  1.9615
  524SOL    HW2 2095   0.641   2.322   3.069 -3.7714  2.8173 -2.0354
  524SOL     MW 2096   0.573   2.369   3.043  0.0743  0.6469  0.4538
  525SOL     OW 2097   0.301   2.165   2.127  0.2426  0.3064 -0.3952
  525SOL    HW1 2098   0.243   2.122   2.197 -0.4664 -0.1376 -3.8119
  525SOL    HW2 2099   0.335   2.094   2.070 -0.0457 -0.5326  1.6855
  525SOL     MW 2100   0.298   2.150   2.129  0.1110  0.1372 -0.5715
  526SOL     OW 2101   0.660   2.099   1.938 -0.7961  0.1780  0.4509
  526SOL    HW1 2102   0.689   2.100   1.853  2.1850 -0.7514 -1.6161
  526SOL    HW2 2103   0.741   2.115   1.984  2.7295 -0.9056  0.3096
  526SOL     MW 2104   0.675   2.101   1.933  0.0624 -0.0876  0.1596
  527SOL     OW 2105   1.268   1.913   2.059 -0.1242  0.1188  0.5329
  527SOL    HW1 2106   1.258   1.900   2.156 -0.9910 -0.4039  0.2426
  527SOL    HW2 2107   1.322   1.839   2.037  0.0864  4.8036 -1.6181
  527SOL     MW 2108   1.274   1.901   2.069 -0.2108  0.6679  0.2108
  528SOL     OW 2109   0.619   2.903   2.933 -0.2066  0.2538  0.8468
  528SOL    HW1 2110   0.691   2.960   2.925 -2.5631 -0.0507 -0.8618
  528SOL    HW2 2111   0.601   2.883   2.844  2.1633 -0.9615  0.5410
  528SOL     MW 2112   0.626   2.908   2.920 -0.2048  0.0533  0.5810
  529SOL     OW 2113   1.111   2.286   1.775 -0.1392  0.7794 -0.0724
  529SOL    HW1 2114   1.155   2.224   1.835 -1.5659  2.5515  4.9914
  529SOL    HW2 2115   1.156   2.301   1.692  1.7228  1.4413  0.2204
  529SOL     MW 2116   1.123   2.280   1.772 -0.0817  1.1006  0.6343
  530SOL     OW 2117   1.126   2.404   2.949 -0.3889 -0.0231 -0.0400
  530SOL    HW1 2118   1.065   2.428   3.015  1.9725 -0.6783  0.0419
  530SOL    HW2 2119   1.129   2.306   2.942  0.5337 -1.3450 -0.2990
  530SOL     MW 2120   1.118   2.394   2.957  0.0444 -0.2839 -0.0634
  531SOL     OW 2121   0.892   1.830   2.605 -0.2597 -0.1748  0.0807
  531SOL    HW1 2122   0.894   1.893   2.686  0.7421 -1.0088 -0.0470
  531SOL    HW2 2123   0.872   1.742   2.648 -0.5606  1.8029  1.3094
  531SOL     MW 2124   0.890   1.827   2.621 -0.1672 -0.0239  0.2260
  532SOL     OW 2125   1.715   0.365   2.777  0.5483  0.0910  0.4621
  532SOL    HW1 2126   1.660   0.293   2.751 -1.6921 -1.2151  1.2780
  532SOL    HW2 2127   1.732   0.349   2.868 -0.7680  0.3573 -0.6446
  532SOL     MW 2128   1.710   0.353   2.785  0.0790 -0.0462  0.4238
  533SOL     OW 2129   1.791   2.851   2.935  0.3834 -0.4703 -0.5798
  533SOL    HW1 2130   1.756   2.778   2.991 -0.0333 -0.1970 -1.8493
  533SOL    HW2 2131   1.737   2.834   2.858  0.3057  1.1544  1.2726
  533SOL     MW 2132   1.779   2.839   2.932  0.3182 -0.2199 -0.5029
  534SOL     OW 2133   1.770   2.542   2.509  0.4949 -0.1045 -0.0517
  534SOL    HW1 2134   1.682   2.498   2.528 -3.7635 -0.4442 -1.3695
  534SOL    HW2 2135   1.808   2.536   2.593  1.7719 -0.9389 -2.4618
  534SOL     MW 2136   1.764   2.535   2.523  0.1015 -0.2594 -0.5436
  535SOL     OW 2137   1.810   2.374   1.932 -0.4707  0.3816 -0.2563
  535SOL    HW1 2138   1.771   2.393   1.846 -0.5946  1.3027  1.5130
  535SOL    HW2 2139   1.903   2.388   1.920  0.7411 -0.0211 -0.5228
  535SOL     MW 2140   1.817   2.378   1.919 -0.3272  0.4500 -0.0580
  536SOL     OW 2141   0.383   1.946   1.995 -0.1510 -0.4272 -0.2082
  536SOL    HW1 2142   0.395   1.971   1.900  0.0125 -2.2853 -1.4124
  536SOL    HW2 2143   0.471   1.924   2.026  1.0756 -1.0596 -1.6166
  536SOL     MW 2144   0.396   1.947   1.987  0.0324 -0.7558 -0.5529
  537SOL     OW 2145   1.039   0.160   2.959 -1.3495  0.0451  0.1469
  537SOL    HW1 2146   1.004   0.124   3.039 -1.0650  0.8091  1.2911
  537SOL    HW2 2147   1.025   0.257   2.954  1.6440 -2.5024 -0.1375
  537SOL     MW 2148   1.033   0.168   2.969 -0.9170 -0.1902  0.2603
  538SOL     OW 2149   1.327   0.100   2.969 -0.0907 -0.2600  0.2120
  538SOL    HW1 2150   1.238   0.120   2.964  1.0505 -2.3049 -0.7184
  538SOL    HW2 2151   1.364   0.129   3.050 -1.5045  0.5337 -3.0510
  538SOL     MW 2152   1.320   0.106   2.979 -0.1267 -0.4250 -0.3412
  539SOL     OW 2153   0.701   2.739   2.470 -0.5879  0.0718 -0.2889
  539SOL    HW1 2154   0.783   2.792   2.499  0.1048  0.3823 -1.9579
  539SOL    HW2 2155   0.730   2.645   2.485 -0.1372 -0.5745  1.4502
  539SOL     MW 2156   0.715   2.733   2.476 -0.4370  0.0275 -0.2797
  540SOL     OW 2157   0.371   2.264   2.847  0.5352 -0.4629 -0.0916
  540SOL    HW1 2158   0.430   2.304   2.909  0.7179  0.5763  0.3175
  540SOL    HW2 2159   0.326   2.206   2.907  0.0075  1.1577 -1.4387
  540SOL     MW 2160   0.373   2.262   2.863  0.4897 -0.1119 -0.2153
  541SOL     OW 2161   0.151   2.873   2.267  0.4321  0.0831 -0.4684
  541SOL    HW1 2162   0.158   2.781   2.239 -0.8225 -0.7845  0.4169
  541SOL    HW2 2163   0.180   2.862   2.356 -0.7905  2.9159 -1.5812
  541SOL     MW 2164   0.155   2.860   2.275  0.1053  0.3424 -0.4984
  542SOL     OW 2165   0.856   2.335   2.798 -0.2420  0.0906 -0.6553
  542SOL    HW1 2166   0.857   2.287   2.883 -0.5461  4.4421 -2.4298
  542SOL    HW2 2167   0.946   2.372   2.795 -1.6977  0.9152  0.0386
  542SOL     MW 2168   0.868   2.334   2.809 -0.4742  0.7736 -0.7979
  543SOL     OW 2169   1.361   2.665   2.600 -0.0475 -0.1684  0.3454
  543SOL    HW1 2170   1.408   2.581   2.601  1.6726 -0.6001  0.1787
  543SOL    HW2 2171   1.428   2.734   2.616 -0.3790 -0.1807  0.0735
  543SOL     MW 2172   1.376   2.663   2.602  0.1357 -0.2270  0.2876
  544SOL     OW 2173   0.669   0.090   2.702  0.0439  0.3765 -0.0289
  544SOL    HW1 2174   0.580   0.072   2.707  1.2025  0.1298 -0.4448
  544SOL    HW2 2175   0.707   0.068   2.612  1.0090  0.7724 -1.1582
  544SOL     MW 2176   0.662   0.085   2.691  0.3241  0.3962 -0.2328
  545SOL     OW 2177   1.532   2.189   2.403  0.5647 -0.2156  0.0698
  545SOL    HW1 2178   1.467   2.125   2.423 -0.0985 -1.9022 -1.2573
  545SOL    HW2 2179   1.591   2.159   2.339 -1.4612 -0.0573 -3.3023
  545SOL     MW 2180   1.531   2.177   2.397  0.2099 -0.4172 -0.5502
  546SOL     OW 2181   2.992   1.976   0.162  0.3145  0.5397 -0.3133
  546SOL    HW1 2182   2.942   2.050   0.113 -3.9173  0.6141 -1.6376
  546SOL    HW2 2183   3.046   1.938   0.095 -1.0076  1.8695  0.4162
  546SOL     MW 2184   2.993   1.981   0.146 -0.4183  0.7249 -0.3918
  547SOL     OW 2185   0.140   2.882   0.078  0.5362  0.0974  0.2167
  547SOL    HW1 2186   0.162   2.916  -0.010 -1.1507  1.1810 -0.5794
  547SOL    HW2 2187   0.178   2.796   0.073  0.7433 -1.0442 -0.0926
  547SOL     MW 2188   0.148   2.875   0.065  0.3410  0.0898  0.0709
  548SOL     OW 2189   0.265   2.545   0.269  0.3479 -0.0173 -0.0194
  548SOL    HW1 2190   0.298   2.562   0.179  0.7446  1.5485 -2.6470
  548SOL    HW2 2191   0.168   2.536   0.255  1.7892  0.0989 -1.4662
  548SOL     MW 2192   0.257   2.546   0.256  0.5904  0.2046 -0.5570
  549SOL     OW 2193   0.678   1.846   2.116  1.1020 -0.1796  0.6412
  549SOL    HW1 2194   0.721   1.927   2.073 -1.7569  0.1858 -2.6185
  549SOL    HW2 2195   0.703   1.834   2.207  1.9928 -2.0692 -2.9354
  549SOL     MW 2196   0.687   1.855   2.122  0.8424 -0.3807 -0.2608
  550SOL     OW 2197   1.751   1.811   2.477  0.2427 -0.2967  0.1007
  550SOL    HW1 2198   1.739   1.840   2.387  0.6825  0.1172 -2.4319
  550SOL    HW2 2199   1.762   1.886   2.538  1.9670  0.1677  3.4976
  550SOL     MW 2200   1.751   1.825   2.473  0.5282 -0.1808  0.2147
  551SOL     OW 2201   0.864   2.374   0.205  0.3818 -0.2665 -0.2555
  551SOL    HW1 2202   0.950   2.411   0.198  0.4847 -2.5402  1.1509
  551SOL    HW2 2203   0.859   2.320   0.130 -2.2039 -0.2525  2.3253
  551SOL     MW 2204   0.875   2.372   0.194  0.0542 -0.5647  0.2706
  552SOL     OW 2205   1.681   1.813   2.203 -0.0108 -0.0859  0.2909
  552SOL    HW1 2206   1.593   1.775   2.233 -1.2990 -0.5942 -0.2560
  552SOL    HW2 2207   1.719   1.762   2.131 -2.6533 -1.8516 -0.5206
  552SOL     MW 2208   1.674   1.801   2.197 -0.5294 -0.3859  0.1117
  553SOL     OW 2209   1.240   2.285   1.541  0.3316  0.5325 -0.0204
  553SOL    HW1 2210   1.285   2.200   1.524 -0.4514  1.4337 -1.7566
  553SOL    HW2 2211   1.303   2.358   1.536  1.2858 -1.6562  1.3101
  553SOL     MW 2212   1.254   2.284   1.538  0.3542  0.3626 -0.0739
  554SOL     OW 2213   0.542   2.886   2.677  0.2152 -0.3614  0.8825
  554SOL    HW1 2214   0.486   2.959   2.645  1.1327  2.1792  0.3712
  554SOL    HW2 2215   0.570   2.845   2.595 -0.8416 -0.2111 -0.5882
  554SOL     MW 2216   0.538   2.890   2.662  0.1968 -0.0064  0.6210
  555SOL     OW 2217   0.595   2.424   2.650  0.5121  0.0712 -0.1173
  555SOL    HW1 2218   0.560   2.334   2.629  0.1736 -0.8301  0.3168
  555SOL    HW2 2219   0.674   2.408   2.598  1.1343 -0.3677 -2.8410
  555SOL     MW 2220   0.601   2.410   2.640  0.5496 -0.1057 -0.4194
  556SOL     OW 2221   1.045   1.840   0.123  0.4840  0.1130  0.1930
  556SOL    HW1 2222   1.046   1.811   0.033  1.2304  1.2448 -1.6953
  556SOL    HW2 2223   1.130   1.879   0.144 -2.1023  2.8578 -2.0804
  556SOL     MW 2224   1.056   1.842   0.114  0.2413  0.6245 -0.3561
  557SOL     OW 2225   0.992   2.640   0.446 -0.3101 -0.4491 -0.2051
  557SOL    HW1 2226   1.079   2.651   0.403  0.9583  0.6934  1.7338
  557SOL    HW2 2227   0.942   2.716   0.418 -0.8161  0.5880 -2.3068
  557SOL     MW 2228   0.997   2.651   0.437 -0.2095 -0.1615 -0.2266
  558SOL     OW 2229   0.265   2.116   3.076  0.1729  0.2446  0.0810
  558SOL    HW1 2230   0.236   2.024   3.097  0.9183 -0.5097  0.1911
  558SOL    HW2 2231   0.200   2.178   3.133 -2.7757  2.3743 -0.9056
  558SOL     MW 2232   0.253   2.112   3.086 -0.1178  0.4261 -0.0346
  559SOL     OW 2233   1.235   2.223   2.028  0.3994  0.1856 -0.0713
  559SOL    HW1 2234   1.198   2.310   2.045  0.5387  3.3606 -1.7003
  559SOL    HW2 2235   1.202   2.174   2.103 -1.8563  1.6562 -0.2218
  559SOL     MW 2236   1.225   2.228   2.040  0.1202  0.7985 -0.3061
  560SOL     OW 2237   1.929   2.936   0.055  0.1358  0.3374 -0.0857
  560SOL    HW1 2238   2.004   2.947  -0.001 -0.4990  0.7429 -2.3655
  560SOL    HW2 2239   1.855   2.917  -0.003 -1.1553 -0.3303 -1.7184
  560SOL     MW 2240   1.929   2.935   0.040 -0.1183  0.3028 -0.6019
  561SOL     OW 2241   0.414   2.072   0.194  0.6467 -0.1987 -0.4699
  561SOL    HW1 2242   0.377   2.089   0.107 -1.4940  0.8294 -2.3275
  561SOL    HW2 2243   0.428   2.168   0.226  2.5836 -1.7289 -0.1971
  561SOL     MW 2244   0.411   2.087   0.187  0.6198 -0.2649 -0.6790
  562SOL     OW 2245   0.859   2.118   2.131 -0.3278 -0.0472  0.0437
  562SOL    HW1 2246   0.818   2.142   2.214  4.0549  1.1989  2.3852
  562SOL    HW2 2247   0.949   2.096   2.160  2.7183 -2.7401  1.1683
  562SOL     MW 2248   0.866   2.119   2.146  0.6523 -0.2381  0.5010
  563SOL     OW 2249   1.281   0.293   0.468  0.2655  0.2672  0.4408
  563SOL    HW1 2250   1.198   0.255   0.438 -3.3185  0.6257 -0.8484
  563SOL    HW2 2251   1.308   0.220   0.524 -1.1379  2.3302  0.0661
  563SOL     MW 2252   1.274   0.278   0.471 -0.3925  0.5867  0.2212
  564SOL     OW 2253   1.027   2.536   2.339 -0.6969  0.1598  0.5613
  564SOL    HW1 2254   1.081   2.523   2.259 -0.3673  3.2804  0.1183
  564SOL    HW2 2255   1.055   2.619   2.373 -0.2809 -2.3487 -3.2755
  564SOL     MW 2256   1.038   2.545   2.333 -0.5985  0.2406 -0.0034
  565SOL     OW 2257   2.915   2.654   2.671  0.4443  0.1193  0.9307
  565SOL    HW1 2258   2.957   2.735   2.654 -0.8427 -0.7488  0.3119
  565SOL    HW2 2259   2.871   2.619   2.598 -0.3409 -0.9882 -0.1619
  565SOL     MW 2260   2.915   2.660   2.659  0.1709 -0.1414  0.7049
  566SOL     OW 2261   2.161   2.102   2.343 -0.2904 -0.3455 -0.4266
  566SOL    HW1 2262   2.184   2.085   2.251 -0.0179 -1.9334  0.8435
  566SOL    HW2 2263   2.235   2.153   2.377 -1.8919  1.4566 -0.4738
  566SOL     MW 2264   2.174   2.107   2.335 -0.4657 -0.3173 -0.2652
  567SOL     OW 2265   1.117   2.875   0.161  0.3564  0.0770 -0.4641
  567SOL    HW1 2266   1.106   2.957   0.202  0.0553 -0.2490 -1.2357
  567SOL    HW2 2267   1.164   2.898   0.083  1.2819  2.7792 -1.6195
  567SOL     MW 2268   1.122   2.889   0.156  0.4388  0.3905 -0.7184
  568SOL     OW 2269   1.642   2.145   2.792 -0.3385  0.0506 -0.2955
  568SOL    HW1 2270   1.670   2.227   2.834 -0.2168 -1.2623 -1.7717
  568SOL    HW2 2271   1.711   2.124   2.730  2.4244  0.3767  1.4846
  568SOL     MW 2272   1.655   2.153   2.789  0.0421 -0.0796 -0.2554
  569SOL     OW 2273   0.036   2.224   2.509 -0.3025  0.5895  0.1226
  569SOL    HW1 2274  -0.023   2.275   2.465 -0.3273 -0.1271 -1.1951
  569SOL    HW2 2275   0.092   2.281   2.559 -0.9879 -1.3297 -0.0885
  569SOL     MW 2276   0.036   2.238   2.510 -0.3962  0.2418 -0.0791
  570SOL     OW 2277   1.561   0.342   0.457 -0.1511 -0.2661  0.0360
  570SOL    HW1 2278   1.467   0.337   0.483 -1.8184  1.9509  0.7401
  570SOL    HW2 2279   1.616   0.378   0.524  0.6075  0.1780  0.6173
  570SOL     MW 2280   1.556   0.346   0.469 -0.2710  0.0850  0.2056
  571SOL     OW 2281   1.445   2.427   1.953 -0.2812  0.5211  0.5770
  571SOL    HW1 2282   1.445   2.442   2.049  0.7387  1.2146 -1.8715
  571SOL    HW2 2283   1.463   2.337   1.933  0.7241 -0.2038  0.9368
  571SOL     MW 2284   1.448   2.417   1.963 -0.0140  0.5169  0.3014
  572SOL     OW 2285   0.905   2.546   3.042  0.4904 -0.3751  0.0844
  572SOL    HW1 2286   0.837   2.575   2.977 -2.3617  1.3806  0.5292
  572SOL    HW2 2287   0.859   2.554   3.126 -0.6761 -1.1658 -0.7762
  572SOL     MW 2288   0.890   2.551   3.045 -0.0398 -0.2478  0.0295
  573SOL     OW 2289   1.142   2.409   0.208  0.3512  0.5996 -0.0753
  573SOL    HW1 2290   1.203   2.365   0.150 -1.5014  1.6980  1.5675
  573SOL    HW2 2291   1.186   2.493   0.230  0.2574  3.0228 -0.1868
  573SOL     MW 2292   1.156   2.414   0.203  0.0944  1.0642  0.1267
  574SOL     OW 2293   1.233   2.665   0.286  0.4833 -0.9190 -0.3186
  574SOL    HW1 2294   1.311   2.707   0.320 -1.3390  1.2237 -2.1743
  574SOL    HW2 2295   1.187   2.726   0.229 -0.8717 -1.0392  0.2964
  574SOL     MW 2296   1.237   2.678   0.283  0.0641 -0.6522 -0.4823
  575SOL     OW 2297   3.082   2.256   1.852 -0.0284  0.1828 -0.9296
  575SOL    HW1 2298   3.083   2.170   1.817  2.6785  2.6855 -1.8354
  575SOL    HW2 2299   3.137   2.310   1.794  2.1029 -0.7345  0.3072
  575SOL     MW 2300   3.090   2.252   1.840  0.6100  0.3920 -0.8859
  576SOL     OW 2301   2.751   1.846   2.076  0.7680  0.0394 -0.4309
  576SOL    HW1 2302   2.797   1.875   2.000 -1.2847 -1.7180  1.2026
  576SOL    HW2 2303   2.659   1.846   2.050  0.2308 -0.5453 -0.3548
  576SOL     MW 2304   2.745   1.850   2.062  0.4263 -0.2696 -0.2054
  577SOL     OW 2305   2.054   0.353   0.076  0.0191 -0.1169 -0.1083
  577SOL    HW1 2306   2.005   0.419   0.031  2.7088 -0.1366  1.3317
  577SOL    HW2 2307   1.987   0.304   0.131 -1.0478 -1.2583  4.2765
  577SOL     MW 2308   2.038   0.355   0.078  0.2332 -0.2701  0.6602
  578SOL     OW 2309   1.914   2.199   2.373  0.7850  0.1501 -0.1489
  578SOL    HW1 2310   1.850   2.179   2.310 -0.6747 -1.8361  2.3904
  578SOL    HW2 2311   1.995   2.146   2.339  0.8959  0.3280 -1.8537
  578SOL     MW 2312   1.916   2.189   2.360  0.6070 -0.0885 -0.0388
  579SOL     OW 2313   0.820   2.501   2.501 -0.1659  0.3098 -0.3011
  579SOL    HW1 2314   0.872   2.512   2.578 -0.0598 -1.1998 -2.6580
  579SOL    HW2 2315   0.891   2.507   2.428  0.3966 -1.1763 -0.3242
  579SOL     MW 2316   0.837   2.503   2.501 -0.0777 -0.0855 -0.6152
  580SOL     OW 2317   0.894   2.869   3.059 -0.8201 -0.3779 -0.1861
  580SOL    HW1 2318   0.976   2.814   3.078 -0.8568 -0.7981 -0.1532
  580SOL    HW2 2319   0.850   2.829   2.980 -0.9123 -1.3875  0.0417
  580SOL     MW 2320   0.899   2.857   3.051 -0.8371 -0.5666 -0.1517
  581SOL     OW 2321   1.061   2.553   1.765  0.2720 -0.2193 -0.2198
  581SOL    HW1 2322   1.156   2.575   1.758  0.1999  2.5331 -0.8050
  581SOL    HW2 2323   1.050   2.451   1.767 -1.6939 -0.1182  4.1097
  581SOL     MW 2324   1.072   2.542   1.764  0.0031  0.1572  0.2742
  582SOL     OW 2325   3.088   2.887   2.635  0.6306  0.1815  0.0985
  582SOL    HW1 2326   3.077   2.943   2.711 -0.8950 -0.6119 -1.5589
  582SOL    HW2 2327   3.185   2.877   2.616 -0.0622 -1.9196  1.2602
  582SOL     MW 2328   3.100   2.893   2.643  0.3379 -0.2004  0.0331
  583SOL     OW 2329   1.941   2.512   2.732 -0.1623 -0.5231 -0.3649
  583SOL    HW1 2330   2.021   2.541   2.681  3.9213  1.8982 -0.2574
  583SOL    HW2 2331   1.937   2.416   2.712 -0.6723 -0.6655  0.9673
  583SOL     MW 2332   1.951   2.503   2.723  0.3092 -0.2224 -0.1749
  584SOL     OW 2333   0.171   1.837   2.114 -0.1899 -0.2606 -0.2790
  584SOL    HW1 2334   0.242   1.879   2.061 -2.2341  0.3382  0.2909
  584SOL    HW2 2335   0.163   1.893   2.190  1.7267  0.2617 -0.6327
  584SOL     MW 2336   0.179   1.850   2.117 -0.2067 -0.1127 -0.2505
  585SOL     OW 2337   1.459   2.548   0.076 -0.7321  0.0899 -0.6905
  585SOL    HW1 2338   1.419   2.601   0.011 -0.7455 -5.1118  1.1739
  585SOL    HW2 2339   1.453   2.607   0.158 -1.9516  2.0920 -0.2814
  585SOL     MW 2340   1.453   2.563   0.078 -0.8948 -0.3322 -0.3905
  586SOL     OW 2341   1.259   2.966   2.329  0.1194  0.0662 -0.2680
  586SOL    HW1 2342   1.328   2.919   2.286 -1.1317  3.7640  0.2315
  586SOL    HW2 2343   1.271   2.975   2.424  0.7160  0.5942 -0.3233
  586SOL     MW 2344   1.269   2.961   2.336  0.0330  0.6238 -0.2094
  587SOL     OW 2345   1.196   1.616   2.176  0.5335 -0.1816  0.0741
  587SOL    HW1 2346   1.213   1.542   2.236 -2.0081 -1.1034 -3.9053
  587SOL    HW2 2347   1.179   1.579   2.084 -0.5491  0.3489 -2.1949
  587SOL     MW 2348   1.196   1.601   2.171  0.0553 -0.2332 -0.7503
  588SOL     OW 2349   1.376   2.217   2.739  0.3948  0.0282  0.3925
  588SOL    HW1 2350   1.467   2.194   2.760 -0.8076  0.5633 -0.7136
  588SOL    HW2 2351   1.340   2.148   2.802 -0.5075 -2.7549  5.3662
  588SOL     MW 2352   1.383   2.205   2.750  0.1171 -0.2684  0.9028
  589SOL     OW 2353   1.319   2.043   0.005 -0.3299  0.1965  0.1674
  589SOL    HW1 2354   1.340   2.131   0.041  3.7263  1.7734  1.5624
  589SOL    HW2 2355   1.294   1.991   0.079 -0.1517  0.5882 -1.3892
  589SOL     MW 2356   1.319   2.048   0.019  0.2288  0.4563  0.1461
  590SOL     OW 2357   0.450   2.546   2.242  0.2026  0.4700 -0.2005
  590SOL    HW1 2358   0.392   2.571   2.165  0.5300 -1.2727 -1.6843
  590SOL    HW2 2359   0.530   2.509   2.207  0.0784 -0.3319  1.5481
  590SOL     MW 2360   0.453   2.544   2.227  0.2294  0.1342 -0.1656
  591SOL     OW 2361   2.222   0.677   3.018 -0.1033 -0.1159 -0.2425
  591SOL    HW1 2362   2.153   0.660   2.951 -2.7436 -0.9107 -2.7119
  591SOL    HW2 2363   2.305   0.668   2.969 -1.7501  1.4216 -1.7816
  591SOL     MW 2364   2.224   0.674   3.003 -0.6690 -0.0179 -0.7714
  592SOL     OW 2365   1.860   2.878   0.816 -0.9526 -0.0309  0.0782
  592SOL    HW1 2366   1.860   2.951   0.749 -1.4434  3.4531 -0.7716
  592SOL    HW2 2367   1.943   2.834   0.810 -1.5816  2.6988 -0.7035
  592SOL     MW 2368   1.871   2.882   0.806 -1.1003  0.7890 -0.1370
  593SOL     OW 2369   1.911   0.837   0.906  0.2856  0.5163 -0.1664
  593SOL    HW1 2370   1.826   0.818   0.869  1.1794 -3.4286  1.8243
  593SOL    HW2 2371   1.944   0.746   0.930 -1.0054 -1.0039  0.2873
  593SOL     MW 2372   1.904   0.822   0.905  0.2332 -0.2048  0.1561
  594SOL     OW 2373   2.773   1.104   1.415  0.0060 -0.0213 -0.8154
  594SOL    HW1 2374   2.852   1.150   1.399 -1.7830  0.6040 -1.3202
  594SOL    HW2 2375   2.740   1.079   1.326 -1.7180  1.8880 -1.9882
  594SOL     MW 2376   2.779   1.106   1.401 -0.4575  0.3131 -1.0368
  595SOL     OW 2377   0.418   0.995   0.715 -0.3345  0.1351  0.9080
  595SOL    HW1 2378   0.496   1.044   0.667  2.4540  2.5360 -2.7272
  595SOL    HW2 2379   0.425   1.036   0.808  0.6094 -0.6637  0.1290
  595SOL     MW 2380   0.429   1.007   0.721  0.1580  0.3465  0.3256
  596SOL     OW 2381   2.422   1.343   0.609 -0.6224 -0.1677  0.4526
  596SOL    HW1 2382   2.467   1.426   0.584  0.8412 -0.7205  0.1751
  596SOL    HW2 2383   2.492   1.286   0.652  0.8041  1.6803  0.4173
  596SOL     MW 2384   2.437   1.347   0.612 -0.2411  0.0032  0.4113
  597SOL     OW 2385   2.299   0.667   1.709 -0.2139  0.4239  0.0368
  597SOL    HW1 2386   2.328   0.595   1.767  1.9513 -3.4587  1.6476
  597SOL    HW2 2387   2.323   0.630   1.622 -3.7819  1.7216 -1.3222
  597SOL     MW 2388   2.306   0.652   1.705 -0.3990  0.0829  0.0700
  598SOL     OW 2389   2.617   1.020   2.804  0.0838 -0.9216 -0.0816
  598SOL    HW1 2390   2.662   0.949   2.757  1.8650  0.4483 -0.1066
  598SOL    HW2 2391   2.684   1.069   2.843 -1.2663  2.2613 -1.7273
  598SOL     MW 2392   2.631   1.017   2.803  0.1407 -0.3209 -0.3020
  599SOL     OW 2393   2.905   0.368   2.093  0.1912  0.1520 -0.1397
  599SOL    HW1 2394   2.900   0.369   2.187  2.2105  1.1222 -1.1163
  599SOL    HW2 2395   2.961   0.439   2.061  0.8768 -1.1218 -1.7837
  599SOL     MW 2396   2.912   0.377   2.101  0.5481  0.1119 -0.4854
  600SOL     OW 2397   1.849   1.626   0.864  0.2138 -0.5042  0.0280
  600SOL    HW1 2398   1.865   1.624   0.963  0.0628  1.6011 -0.1032
  600SOL    HW2 2399   1.768   1.670   0.854  0.7605  0.6534  0.1262
  600SOL     MW 2400   1.840   1.631   0.876  0.2660 -0.0737  0.0237
  601SOL     OW 2401   2.455   0.728   0.885 -0.0820  0.1586  0.5170
  601SOL    HW1 2402   2.504   0.770   0.959 -0.2620  2.2384 -0.9811
  601SOL    HW2 2403   2.357   0.712   0.903 -0.1518  1.8035 -2.9800
  601SOL     MW 2404   2.448   0.732   0.897 -0.1150  0.6500 -0.1420
  602SOL     OW 2405   2.278   1.935   0.738 -0.6197 -0.3301 -0.3564
  602SOL    HW1 2406   2.226   1.854   0.759  0.1595  0.7910 -0.7044
  602SOL    HW2 2407   2.266   1.942   0.643 -0.4925 -0.2448 -3.0738
  602SOL     MW 2408   2.270   1.925   0.728 -0.5001 -0.1709 -0.7608
  603SOL     OW 2409   3.014   1.361   1.844 -0.0549 -0.3957 -0.0433
  603SOL    HW1 2410   3.086   1.367   1.904 -2.6591 -2.8969  1.7249
  603SOL    HW2 2411   3.013   1.282   1.796 -0.5402  0.0613 -0.3186
  603SOL     MW 2412   3.024   1.351   1.846 -0.4625 -0.6654  0.1537
  604SOL     OW 2413   2.083   1.520   0.483 -0.9486 -0.3238  0.5344
  604SOL    HW1 2414   2.098   1.457   0.553 -0.1189 -1.4100 -0.4612
  604SOL    HW2 2415   2.022   1.582   0.519 -3.2986  0.3133  0.8831
  604SOL     MW 2416   2.077   1.520   0.497 -1.1492 -0.3831  0.4490
  605SOL     OW 2417   2.667   1.548   0.818  0.1777 -0.3926 -0.3395
  605SOL    HW1 2418   2.635   1.615   0.755  0.4029  1.9347 -1.9890
  605SOL    HW2 2419   2.604   1.521   0.884 -2.9350 -1.2750  0.3649
  605SOL     MW 2420   2.655   1.554   0.818 -0.2032 -0.2020 -0.4642
  606SOL     OW 2421   2.540   1.829   1.891 -0.3089 -0.2100 -0.0782
  606SOL    HW1 2422   2.463   1.823   1.947  0.3374  1.5730  2.4478
  606SOL    HW2 2423   2.569   1.748   1.848 -0.7815  0.4601 -1.5971
  606SOL     MW 2424   2.534   1.817   1.893 -0.2860  0.1137  0.0547
  607SOL     OW 2425   2.393   1.044   2.967 -0.2866 -0.2588  0.5474
  607SOL    HW1 2426   2.483   1.053   2.926  0.4035  1.2733 -1.1519
  607SOL    HW2 2427   2.400   1.028   3.058  2.7571  0.1664 -2.2110
  607SOL     MW 2428   2.406   1.043   2.974  0.2060 -0.0006 -0.0408
  608SOL     OW 2429   1.905   0.278   0.674 -0.0133 -0.9251 -0.4410
  608SOL    HW1 2430   1.934   0.307   0.587 -3.4780  2.7799  0.9815
  608SOL    HW2 2431   1.897   0.180   0.673  0.3522 -0.2816  1.3910
  608SOL     MW 2432   1.908   0.269   0.662 -0.4222 -0.3514 -0.0116
  609SOL     OW 2433   2.117   1.957   3.004  0.1620 -0.1043 -0.1163
  609SOL    HW1 2434   2.038   1.909   3.026 -0.6331  1.9653 -0.6955
  609SOL    HW2 2435   2.181   1.930   3.067  0.7560  0.0489 -1.6324
  609SOL     MW 2436   2.115   1.947   3.016  0.1354  0.1890 -0.3927
  610SOL     OW 2437   1.835   1.077   1.376  0.2128 -0.1821  0.1712
  610SOL    HW1 2438   1.856   1.005   1.316  0.0409  0.0885  1.7514
  610SOL    HW2 2439   1.757   1.042   1.431 -0.5553  0.7287  0.6610
  610SOL     MW 2440   1.828   1.063   1.375  0.0888 -0.0263  0.4443
  611SOL     OW 2441   2.526   1.809   0.732 -0.4739 -0.8157 -0.1872
  611SOL    HW1 2442   2.449   1.853   0.773 -3.1241  1.4999  0.3966
  611SOL    HW2 2443   2.513   1.790   0.637  0.3882 -0.5778 -0.4528
  611SOL     MW 2444   2.514   1.812   0.725 -0.7098 -0.4788 -0.1452
  612SOL     OW 2445   2.765   2.786   0.379  0.1594 -0.2766  0.2484
  612SOL    HW1 2446   2.841   2.829   0.422 -2.9598 -0.7107  2.0230
  612SOL    HW2 2447   2.789   2.788   0.288  0.1412  0.5394  0.9114
  612SOL     MW 2448   2.778   2.792   0.373 -0.2546 -0.2262  0.5701
  613SOL     OW 2449   1.640   1.001   1.101  0.1184 -0.0884  0.2409
  613SOL    HW1 2450   1.626   1.081   1.153 -0.3164  0.3331 -3.0344
  613SOL    HW2 2451   1.726   0.971   1.127 -1.1608  0.4847  0.8807
  613SOL     MW 2452   1.650   1.008   1.112 -0.1078  0.0428 -0.1068
  614SOL     OW 2453   2.035   0.509   1.516 -0.9738  0.1996  0.0391
  614SOL    HW1 2454   2.080   0.430   1.555  0.8467 -0.1468 -2.0580
  614SOL    HW2 2455   2.069   0.515   1.429 -0.8771  0.6458  1.6441
  614SOL     MW 2456   2.046   0.499   1.510 -0.7208  0.2127 -0.0259
  615SOL     OW 2457   2.241   0.798   0.184 -0.3100 -0.5724 -0.0333
  615SOL    HW1 2458   2.322   0.753   0.210  1.6194  0.3498  0.2431
  615SOL    HW2 2459   2.219   0.763   0.093  0.1542 -2.1309  0.0858
  615SOL     MW 2460   2.249   0.788   0.175  0.0058 -0.6564  0.0189
  616SOL     OW 2461   2.624   0.363   1.626  0.3794 -0.3109  0.4158
  616SOL    HW1 2462   2.562   0.296   1.606  0.7784 -0.0590  1.5863
  616SOL    HW2 2463   2.628   0.419   1.551 -0.2015  0.3778  0.2916
  616SOL     MW 2464   2.617   0.362   1.613  0.3554 -0.1868  0.5539
  617SOL     OW 2465   2.907   0.565   1.753  0.5251  0.0289 -0.4298
  617SOL    HW1 2466   2.826   0.591   1.793  0.7149  2.6220  1.2935
  617SOL    HW2 2467   2.903   0.473   1.722  0.4156  1.2334 -0.5715
  617SOL     MW 2468   2.896   0.556   1.754  0.5357  0.5299 -0.2211
  618SOL     OW 2469   2.667   0.352   1.934  0.2763  0.3868 -0.3491
  618SOL    HW1 2470   2.676   0.445   1.908 -0.2561  2.0730  1.1008
  618SOL    HW2 2471   2.748   0.348   1.988 -1.6720 -1.1911  1.1342
  618SOL     MW 2472   2.679   0.364   1.937 -0.0510  0.4011  0.0379
  619SOL     OW 2473   2.568   0.791   0.155 -0.0762  0.7000  0.1547
  619SOL    HW1 2474   2.656   0.817   0.189  0.4117 -1.1539 -0.2997
  619SOL    HW2 2475   2.531   0.743   0.228  0.2889 -0.4668 -0.1343
  619SOL     MW 2476   2.575   0.788   0.169  0.0364  0.3015  0.0566
  620SOL     OW 2477   2.295   1.140   0.933 -0.1251  0.2364  0.6499
  620SOL    HW1 2478   2.363   1.125   0.867  0.4375  1.4416 -1.5304
  620SOL    HW2 2479   2.232   1.084   0.897 -0.3251  0.2694 -0.5541
  620SOL     MW 2480   2.296   1.130   0.920 -0.0773  0.3998  0.2034
  621SOL     OW 2481   1.501   2.162   1.973  0.5329 -0.2384  0.3391
  621SOL    HW1 2482   1.417   2.177   2.014  0.9229 -2.0111 -0.0310
  621SOL    HW2 2483   1.568   2.126   2.034  1.8275 -0.2230 -1.4243
  621SOL     MW 2484   1.499   2.159   1.986  0.7552 -0.4703  0.0576
  622SOL     OW 2485   2.629   0.228   0.095  0.1205  0.0129 -0.0302
  622SOL    HW1 2486   2.709   0.260   0.134  0.4487  1.1278  1.3149
  622SOL    HW2 2487   2.640   0.134   0.068 -1.8702  0.1051  0.2726
  622SOL     MW 2488   2.641   0.220   0.096 -0.0989  0.1721  0.1872
  623SOL     OW 2489   2.425   2.766   0.834 -0.3284 -0.1898 -0.1672
  623SOL    HW1 2490   2.484   2.843   0.841  2.3213  0.4163  0.7888
  623SOL    HW2 2491   2.354   2.794   0.892  0.2846  0.1860 -1.8218
  623SOL     MW 2492   2.423   2.780   0.842  0.1021 -0.0603 -0.2594
  624SOL     OW 2493   2.208   1.627   2.897  0.0690 -0.3022  0.2575
  624SOL    HW1 2494   2.135   1.574   2.935 -1.9509  2.5627  1.9531
  624SOL    HW2 2495   2.170   1.715   2.878  1.4435  1.7168  1.8860
  624SOL     MW 2496   2.194   1.632   2.899 -0.0161  0.3422  0.6961
  625SOL     OW 2497   2.219   1.942   1.082 -0.0460  0.0260  0.7504
  625SOL    HW1 2498   2.288   1.897   1.130 -0.3681 -1.4162 -1.6356
  625SOL    HW2 2499   2.252   1.962   0.997 -0.8394 -2.2907 -1.0632
  625SOL     MW 2500   2.233   1.939   1.077 -0.1932 -0.4699  0.1963
  626SOL     OW 2501   0.107   1.576   2.417 -0.1525  0.3028  0.2825
  626SOL    HW1 2502   0.035   1.565   2.355  0.8108 -0.5923  2.3618
  626SOL    HW2 2503   0.058   1.567   2.502 -0.9080  2.0350  0.2140
  626SOL     MW 2504   0.091   1.574   2.420 -0.1251  0.4132  0.5478
  627SOL     OW 2505   2.444   0.809   2.593 -0.0168  0.5503 -0.3978
  627SOL    HW1 2506   2.398   0.895   2.575  0.1332  2.5814 -0.0750
  627SOL    HW2 2507   2.431   0.764   2.508  0.1658  1.8378  0.2218
  627SOL     MW 2508   2.436   0.814   2.579  0.0271  0.9882 -0.2735
  628SOL     OW 2509   2.313   1.385   1.350  0.2766 -0.1777  0.0854
  628SOL    HW1 2510   2.282   1.311   1.289  1.1632  0.5316 -0.2755
  628SOL    HW2 2511   2.408   1.401   1.330 -2.0229  0.2509 -1.0166
  628SOL     MW 2512   2.322   1.377   1.339  0.0901 -0.0276 -0.1076
  629SOL     OW 2513   2.048   0.542   1.226 -0.2131  0.4599 -0.1383
  629SOL    HW1 2514   2.102   0.620   1.221 -0.1556 -1.9521 -0.3524
  629SOL    HW2 2515   1.969   0.566   1.279 -0.1294  2.0280  2.3442
  629SOL     MW 2516   2.045   0.555   1.232 -0.1945  0.3486  0.1610
  630SOL     OW 2517   2.490   1.831   3.087  0.2930  0.3469  0.7295
  630SOL    HW1 2518   2.447   1.862   3.007 -0.5343  1.2887  0.6529
  630SOL    HW2 2519   2.438   1.781   3.140  0.1149 -2.0509 -1.8242
  630SOL     MW 2520   2.478   1.829   3.083  0.1604  0.1548  0.3825
  631SOL     OW 2521   1.980   1.786   1.623  0.0926 -0.7681 -0.0793
  631SOL    HW1 2522   1.985   1.703   1.681 -2.6717 -0.4478 -1.0678
  631SOL    HW2 2523   1.977   1.752   1.532 -0.9898  0.3042  2.7424
  631SOL     MW 2524   1.980   1.771   1.618 -0.4150 -0.5844  0.1626
  632SOL     OW 2525   0.166   2.066   1.592  0.0719  0.4395  0.1623
  632SOL    HW1 2526   0.081   2.068   1.645  2.7038  1.4142  1.0113
  632SOL    HW2 2527   0.176   1.968   1.575 -0.8873  0.6847  0.7492
  632SOL     MW 2528   0.156   2.053   1.597  0.2926  0.6005  0.3518
  633SOL     OW 2529   2.429   0.694   0.357 -0.0897 -0.3023 -0.3374
  633SOL    HW1 2530   2.504   0.719   0.417  1.6449  0.6693 -0.8028
  633SOL    HW2 2531   2.400   0.604   0.379  0.9525  3.4416 -1.9160
  633SOL     MW 2532   2.435   0.685   0.368  0.2767  0.3199 -0.6070
  634SOL     OW 2533   2.598   3.086   0.604  0.6334  0.1565  0.4904
  634SOL    HW1 2534   2.635   3.173   0.615  1.9120 -0.5105  2.2510
  634SOL    HW2 2535   2.571   3.079   0.509  1.1986  2.3962 -0.6420
  634SOL     MW 2536   2.599   3.096   0.593  0.8767  0.3640  0.5733
  635SOL     OW 2537   2.625   0.085   1.842  0.4950  0.2259 -0.4775
  635SOL    HW1 2538   2.699   0.043   1.788 -0.2904 -0.2676 -2.3225
  635SOL    HW2 2539   2.651   0.178   1.857 -1.8228  2.0845  2.1424
  635SOL     MW 2540   2.638   0.092   1.837  0.0855  0.4060 -0.3753
  636SOL     OW 2541   2.929   1.682   1.013 -0.6357  0.3388  0.5958
  636SOL    HW1 2542   2.849   1.713   0.962  0.2174 -0.2753 -0.0054
  636SOL    HW2 2543   2.951   1.750   1.079 -0.0367  0.1734 -1.5912
  636SOL     MW 2544   2.921   1.695   1.015 -0.4441  0.2359  0.2279
  637SOL     OW 2545   2.894   1.478   0.696  0.7947  0.5534  0.2941
  637SOL    HW1 2546   2.961   1.539   0.723 -1.9029  0.4287  1.0213
  637SOL    HW2 2547   2.814   1.507   0.745 -1.8913  0.0499 -1.0224
  637SOL     MW 2548   2.893   1.490   0.706  0.0844  0.4705  0.2164
  638SOL     OW 2549   2.661   0.692   0.483  0.0847 -0.0470 -0.1704
  638SOL    HW1 2550   2.744   0.667   0.439  0.0140 -1.6965 -0.4034
  638SOL    HW2 2551   2.660   0.642   0.564  0.5269 -1.2996 -1.0373
  638SOL     MW 2552   2.672   0.682   0.488  0.1337 -0.4299 -0.3155
  639SOL     OW 2553   1.920   3.091   0.635 -0.0514 -0.4656 -0.3047
  639SOL    HW1 2554   1.834   3.111   0.598 -1.6885 -0.3446  4.2004
  639SOL    HW2 2555   1.976   3.098   0.561  0.9442  0.3056 -1.3027
  639SOL     MW 2556   1.916   3.095   0.620 -0.1360 -0.3479  0.1580
  640SOL     OW 2557   0.385   1.399   0.116 -0.0805 -0.5135  0.1440
  640SOL    HW1 2558   0.406   1.437   0.031  1.9181 -2.4427 -1.5526
  640SOL    HW2 2559   0.367   1.304   0.092  1.9687 -1.3428  2.3502
  640SOL     MW 2560   0.386   1.391   0.102  0.4536 -0.8775  0.2113
  641SOL     OW 2561   2.296   0.450   0.393  0.3917  0.5713 -0.8058
  641SOL    HW1 2562   2.339   0.436   0.311  1.9095  1.2821  0.7082
  641SOL    HW2 2563   2.353   0.412   0.462  1.4073 -0.8058  2.0368
  641SOL     MW 2564   2.309   0.443   0.392  0.7260  0.4834 -0.2310
  642SOL     OW 2565   3.087   0.036   0.478 -0.0894 -0.1191  0.3035
  642SOL    HW1 2566   3.065   0.128   0.487  0.9559  0.0478 -1.2625
  642SOL    HW2 2567   3.005  -0.007   0.502 -0.3119  1.0983 -2.6748
  642SOL     MW 2568   3.074   0.043   0.482  0.0192  0.0635 -0.2961
  643SOL     OW 2569   2.101   0.267   1.659 -0.7671  0.1736 -0.5358
  643SOL    HW1 2570   2.173   0.224   1.703 -1.2548  1.4699  0.3773
  643SOL    HW2 2571   2.082   0.213   1.585  0.4052  1.2097  1.6511
  643SOL     MW 2572   2.108   0.254   1.655 -0.6767  0.4814 -0.1268
  644SOL     OW 2573   2.738   1.840   0.910 -0.0347 -0.3211 -0.1095
  644SOL    HW1 2574   2.715   1.823   1.001 -1.2521 -1.8968  1.7008
  644SOL    HW2 2575   2.665   1.822   0.851  1.7179  0.0242 -0.5197
  644SOL     MW 2576   2.725   1.835   0.914  0.0359 -0.4835  0.0752
  645SOL     OW 2577   2.766   0.910   0.594 -0.2494 -0.1003  0.6365
  645SOL    HW1 2578   2.823   0.878   0.667 -0.1257  1.4988  1.6823
  645SOL    HW2 2579   2.719   0.835   0.554 -0.8158  0.7164  0.8884
  645SOL     MW 2580   2.768   0.896   0.599 -0.3078  0.2185  0.8077
  646SOL     OW 2581   0.076   2.333   0.881  0.1936  0.1841  0.0139
  646SOL    HW1 2582   0.104   2.241   0.890  0.0201 -1.4249 -1.8484
  646SOL    HW2 2583   0.047   2.350   0.778 -0.0849 -1.7358  1.2466
  646SOL     MW 2584   0.076   2.323   0.868  0.1340 -0.2815 -0.0691
  647SOL     OW 2585   2.752   0.585   3.015 -0.4699  0.3966  0.0696
  647SOL    HW1 2586   2.673   0.540   3.012  1.6864  1.4383 -0.9827
  647SOL    HW2 2587   2.727   0.679   2.992  0.0684  4.5966 -1.2927
  647SOL     MW 2588   2.738   0.592   3.012 -0.1144  1.0882 -0.2490
  648SOL     OW 2589   2.218   0.739   1.100  0.1956 -0.0493 -0.3910
  648SOL    HW1 2590   2.196   0.784   1.020  0.2150  0.4481  3.3211
  648SOL    HW2 2591   2.227   0.805   1.171  2.2228  0.8711 -2.6371
  648SOL     MW 2592   2.216   0.754   1.099  0.4656  0.1377 -0.1976
  649SOL     OW 2593   2.366   2.692   1.203  0.1261 -0.3364 -0.0067
  649SOL    HW1 2594   2.439   2.748   1.221 -1.1263  2.1453 -0.4154
  649SOL    HW2 2595   2.395   2.602   1.191 -2.2329 -1.7242  0.7156
  649SOL     MW 2596   2.379   2.688   1.204 -0.3504 -0.1921  0.0347
  650SOL     OW 2597   2.738   0.231   0.640 -0.1629 -0.0393 -0.1475
  650SOL    HW1 2598   2.748   0.262   0.732 -0.7653  1.3180 -0.9410
  650SOL    HW2 2599   2.816   0.250   0.589 -1.3751 -0.8736  1.5225
  650SOL     MW 2600   2.749   0.238   0.645 -0.4023  0.0297 -0.0318
  651SOL     OW 2601   3.042   0.280   0.819  0.3556  0.3144  0.0391
  651SOL    HW1 2602   3.098   0.338   0.770 -1.1335  0.4778 -0.6725
  651SOL    HW2 2603   2.951   0.318   0.812 -1.0090  1.1218 -0.4680
  651SOL     MW 2604   3.037   0.293   0.812 -0.0209  0.4425 -0.1217
  652SOL     OW 2605   2.404   1.462   2.976 -0.1643 -0.8397  0.1898
  652SOL    HW1 2606   2.491   1.478   2.939 -0.5092  0.7897  0.5778
  652SOL    HW2 2607   2.352   1.538   2.946 -0.7448  0.7215 -2.0203
  652SOL     MW 2608   2.409   1.474   2.967 -0.2864 -0.4187 -0.0506
  653SOL     OW 2609   1.991   0.365   0.420 -0.4770  0.0124  0.0476
  653SOL    HW1 2610   1.976   0.311   0.338  0.0856  0.5974 -0.9714
  653SOL    HW2 2611   2.085   0.383   0.425 -2.0413  0.6831 -2.9221
  653SOL     MW 2612   2.001   0.360   0.410 -0.6092  0.1781 -0.4786
  654SOL     OW 2613   2.455   0.993   0.754  0.0172 -0.6480 -0.3021
  654SOL    HW1 2614   2.378   0.977   0.697  1.0119 -0.0856 -0.3866
  654SOL    HW2 2615   2.455   0.920   0.814  2.4801 -1.0328 -0.4454
  654SOL     MW 2616   2.445   0.981   0.754  0.4734 -0.6246 -0.3322
  655SOL     OW 2617   3.065   0.937   0.438  0.1734 -0.2060  0.3343
  655SOL    HW1 2618   3.086   0.972   0.525  0.8366 -0.7185 -1.1823
  655SOL    HW2 2619   3.100   0.848   0.429 -1.8971 -2.1074 -1.4365
  655SOL     MW 2620   3.072   0.930   0.448 -0.0123 -0.5245 -0.0994
  656SOL     OW 2621   1.968   2.728   1.239  0.1039 -0.0884 -0.3539
  656SOL    HW1 2622   1.954   2.824   1.239  2.2980 -1.5056  1.3300
  656SOL    HW2 2623   1.995   2.701   1.328 -0.5163  2.5267 -1.2468
  656SOL     MW 2624   1.970   2.737   1.251  0.3116  0.0697 -0.2495
  657SOL     OW 2625   0.220   1.644   1.279 -0.2437 -0.3179  0.3195
  657SOL    HW1 2626   0.149   1.579   1.281 -0.9014 -1.5876  0.4273
  657SOL    HW2 2627   0.234   1.658   1.187 -1.6767 -0.8945  2.0188
  657SOL     MW 2628   0.213   1.637   1.267 -0.5195 -0.5615  0.5579
  658SOL     OW 2629   2.659   1.347   0.266  0.2754  0.4099  0.4693
  658SOL    HW1 2630   2.620   1.262   0.287  0.4707  1.0666 -0.4226
  658SOL    HW2 2631   2.703   1.382   0.347  0.6991  1.3623 -1.6053
  658SOL     MW 2632   2.660   1.340   0.279  0.3571  0.6222  0.0779
  659SOL     OW 2633   2.220   1.543   1.015 -0.1523  0.6315 -0.5194
  659SOL    HW1 2634   2.310   1.504   1.006  1.6869 -2.0770 -0.9555
  659SOL    HW2 2635   2.211   1.572   1.101  0.2588 -1.4883  2.3111
  659SOL     MW 2636   2.231   1.541   1.026  0.1446 -0.0055 -0.2035
  660SOL     OW 2637   2.018   1.553   1.785  0.1457 -0.1863 -0.2494
  660SOL    HW1 2638   2.069   1.536   1.858  1.3199 -0.2707  0.0602
  660SOL    HW2 2639   1.999   1.465   1.767  0.0924  3.1405 -0.8140
  660SOL     MW 2640   2.022   1.539   1.792  0.2936  0.2415 -0.2830
  661SOL     OW 2641   2.321   1.070   0.161 -0.2849  0.0770 -0.5450
  661SOL    HW1 2642   2.369   1.106   0.236  1.8676  2.5036  0.0253
  661SOL    HW2 2643   2.313   0.976   0.179 -4.8201  0.9667 -1.1894
  661SOL     MW 2644   2.326   1.063   0.174 -0.5993  0.5145 -0.5548
  662SOL     OW 2645   2.596   2.994   0.859 -0.3766 -0.1707 -0.3856
  662SOL    HW1 2646   2.545   3.049   0.915 -1.3714  1.1089 -3.5211
  662SOL    HW2 2647   2.589   3.038   0.771 -2.8127 -2.2417 -1.3358
  662SOL     MW 2648   2.588   3.007   0.855 -0.8292 -0.2751 -0.9247
  663SOL     OW 2649   2.814   1.511   0.435  0.2577  0.3787 -0.7686
  663SOL    HW1 2650   2.878   1.561   0.393 -3.3454 -1.4603  0.0461
  663SOL    HW2 2651   2.839   1.516   0.523 -0.7573  1.1238 -2.3819
  663SOL     MW 2652   2.826   1.519   0.441 -0.3516  0.2344 -0.8740
  664SOL     OW 2653   2.473   1.563   1.644 -0.3805  0.1354  0.0184
  664SOL    HW1 2654   2.465   1.651   1.606 -1.8048  0.7252 -0.1501
  664SOL    HW2 2655   2.380   1.527   1.651  0.0448  3.1151 -0.2560
  664SOL     MW 2656   2.460   1.570   1.640 -0.5123  0.6064 -0.0400
  665SOL     OW 2657   2.865   0.822   2.044 -0.0191  0.0719 -0.8462
  665SOL    HW1 2658   2.850   0.884   1.969 -0.1644  0.3743 -0.7858
  665SOL    HW2 2659   2.959   0.803   2.034  1.8646 -1.8088 -0.6284
  665SOL     MW 2660   2.875   0.828   2.033  0.2103 -0.1363 -0.8095
  666SOL     OW 2661   2.789   3.034   1.687 -0.0722  0.4210 -0.5062
  666SOL    HW1 2662   2.831   3.020   1.599  0.1311 -1.0991 -1.7825
  666SOL    HW2 2663   2.732   2.958   1.703  0.9735 -1.3323  0.6695
  666SOL     MW 2664   2.787   3.022   1.677  0.0926 -0.0109 -0.5195
  667SOL     OW 2665   1.972   2.660   1.768 -0.2199 -0.0156 -0.3108
  667SOL    HW1 2666   1.999   2.566   1.778 -0.6550  1.6627  0.6226
  667SOL    HW2 2667   2.052   2.714   1.749 -3.4111  1.1850 -3.9664
  667SOL     MW 2668   1.986   2.655   1.767 -0.6983  0.3642 -0.6700
  668SOL     OW 2669   2.673   0.605   0.755  0.1301  0.5529  0.2725
  668SOL    HW1 2670   2.726   0.642   0.821  0.5354 -3.5744 -0.4608
  668SOL    HW2 2671   2.587   0.618   0.798  0.7446 -0.2815 -1.8214
  668SOL     MW 2672   2.669   0.611   0.770  0.2646 -0.1018 -0.1005
  669SOL     OW 2673   0.165   0.879   0.731 -0.3742  0.1608 -0.0132
  669SOL    HW1 2674   0.116   0.940   0.781 -1.2151  1.5350 -0.9513
  669SOL    HW2 2675   0.257   0.909   0.737 -2.6319 -2.4165 -2.5808
  669SOL     MW 2676   0.171   0.891   0.738 -0.7830  0.0021 -0.4757
  670SOL     OW 2677   2.883   0.330   0.234  0.4441  0.0156  0.1215
  670SOL    HW1 2678   2.939   0.258   0.201 -0.5128  0.5952 -3.7187
  670SOL    HW2 2679   2.908   0.417   0.197 -1.4591  0.1608  0.7189
  670SOL     MW 2680   2.894   0.332   0.225  0.0668  0.1112 -0.3064
  671SOL     OW 2681   2.192   3.039   1.594 -0.3182  0.9280  0.3353
  671SOL    HW1 2682   2.176   3.102   1.519  0.6424  1.2470 -2.8517
  671SOL    HW2 2683   2.107   3.040   1.638  2.3420  3.7634 -2.9053
  671SOL     MW 2684   2.179   3.047   1.590  0.1596  1.3442 -0.5128
  672SOL     OW 2685   1.919   1.650   1.366 -0.1875  0.3895 -0.1820
  672SOL    HW1 2686   1.839   1.699   1.393  0.2525  1.9977 -0.2089
  672SOL    HW2 2687   1.936   1.683   1.280 -0.4948 -0.0540 -2.8264
  672SOL     MW 2688   1.910   1.661   1.358 -0.1700  0.5432 -0.5345
  673SOL     OW 2689   2.770   1.158   0.482  0.4380  0.2811 -0.8626
  673SOL    HW1 2690   2.774   1.067   0.511 -0.5244  0.2157  3.8810
  673SOL    HW2 2691   2.855   1.184   0.517  0.3820 -0.0257  2.6371
  673SOL     MW 2692   2.782   1.150   0.490  0.3037  0.2320  0.2251
  674SOL     OW 2693   2.440   0.071   1.279 -0.4453 -0.1880  0.2878
  674SOL    HW1 2694   2.404   0.094   1.193 -0.7519  3.1183  1.1110
  674SOL    HW2 2695   2.461  -0.021   1.273 -0.1229 -0.0557 -1.3222
  674SOL     MW 2696   2.438   0.062   1.267 -0.4432  0.2657  0.1840
  675SOL     OW 2697   2.943   0.914   1.112 -0.4763  0.8491 -0.3439
  675SOL    HW1 2698   3.019   0.926   1.174  1.2427  0.3421 -1.0237
  675SOL    HW2 2699   2.972   0.964   1.033  2.9582  4.0416 -2.0567
  675SOL     MW 2700   2.957   0.922   1.110  0.2036  1.2035 -0.6596
  676SOL     OW 2701   2.881   1.514   1.669 -0.1396  0.1510  0.1386
  676SOL    HW1 2702   2.818   1.444   1.646 -1.8105  1.5648  1.5910
  676SOL    HW2 2703   2.935   1.466   1.729  1.6133  3.7494 -0.6900
  676SOL     MW 2704   2.880   1.498   1.674 -0.1288  0.8123  0.2209
  677SOL     OW 2705   2.482   0.832   1.829 -0.2757  0.0056  0.0306
  677SOL    HW1 2706   2.419   0.773   1.777  1.3449 -0.9433  1.4311
  677SOL    HW2 2707   2.496   0.899   1.766  1.1441  0.0487  3.9873
  677SOL     MW 2708   2.476   0.833   1.813  0.1255 -0.1139  0.7374
  678SOL     OW 2709   2.528   1.574   0.525 -0.4031 -0.3914  0.2025
  678SOL    HW1 2710   2.448   1.616   0.484 -0.5764 -0.6999  2.3306
  678SOL    HW2 2711   2.604   1.595   0.471  2.2373 -1.6025  1.8973
  678SOL     MW 2712   2.528   1.583   0.512 -0.0776 -0.5919  0.7069
  679SOL     OW 2713   2.370   0.541   1.229 -0.0133 -0.1252  0.1716
  679SOL    HW1 2714   2.332   0.452   1.218 -1.7078 -0.6623 -4.2123
  679SOL    HW2 2715   2.336   0.598   1.159 -0.9395  2.1892  3.0076
  679SOL     MW 2716   2.361   0.537   1.218 -0.3591  0.1093 -0.0326
  680SOL     OW 2717   2.410   0.217   1.529  0.2854 -0.3691 -0.0762
  680SOL    HW1 2718   2.359   0.174   1.601 -1.9131  2.0114 -2.3924
  680SOL    HW2 2719   2.402   0.157   1.451  0.0944 -0.3138  0.9416
  680SOL     MW 2720   2.402   0.204   1.528 -0.0298 -0.0477 -0.2475
  681SOL     OW 2721   0.322   0.517   1.514 -0.1252 -0.1464  0.1411
  681SOL    HW1 2722   0.328   0.432   1.560  2.0185 -3.6100  1.4691
  681SOL    HW2 2723   0.412   0.548   1.508 -1.8097  2.0853  2.7098
  681SOL     MW 2724   0.334   0.510   1.520 -0.0646 -0.3090  0.6552
  682SOL     OW 2725   0.206   2.971   1.530 -0.0186  0.2149  0.0048
  682SOL    HW1 2726   0.209   3.059   1.490  3.2641  4.4595 -1.8001
  682SOL    HW2 2727   0.124   2.972   1.586 -1.7214  1.0640 -1.2051
  682SOL     MW 2728   0.195   2.982   1.532  0.1898  0.8869 -0.3930
  683SOL     OW 2729   1.939   0.797   2.988 -0.1379 -0.5749  0.4915
  683SOL    HW1 2730   1.875   0.774   2.917  0.2394 -2.3838 -1.8321
  683SOL    HW2 2731   1.962   0.891   2.980  1.1015  0.4959  0.4924
  683SOL     MW 2732   1.934   0.806   2.978  0.0754 -0.6723  0.1851
  684SOL     OW 2733   2.107   1.740   0.816 -0.0348 -0.1772 -0.3778
  684SOL    HW1 2734   2.015   1.722   0.838 -0.8034  1.7840  0.9859
  684SOL    HW2 2735   2.161   1.677   0.864  0.6981  0.1459  1.5816
  684SOL     MW 2736   2.102   1.729   0.825 -0.0395  0.1242  0.0606
  685SOL     OW 2737   2.671   1.748   1.173 -0.3619 -0.0866  0.2079
  685SOL    HW1 2738   2.736   1.774   1.232 -0.6698 -0.8888  0.0294
  685SOL    HW2 2739   2.673   1.651   1.182 -1.9325 -0.1385  2.0973
  685SOL     MW 2740   2.680   1.739   1.182 -0.6098 -0.1993  0.4336
  686SOL     OW 2741   2.883   0.692   1.513  0.9486  0.2423  0.3947
  686SOL    HW1 2742   2.886   0.647   1.600  1.4279 -0.0437 -1.1126
  686SOL    HW2 2743   2.944   0.632   1.468 -1.6009 -2.5335 -0.0608
  686SOL     MW 2744   2.891   0.678   1.518  0.6755 -0.1617  0.1357
  687SOL     OW 2745   2.211   0.314   1.204  0.0324  0.6546  0.6063
  687SOL    HW1 2746   2.202   0.253   1.128  0.9328 -1.2836 -0.5242
  687SOL    HW2 2747   2.131   0.369   1.201  0.4346 -0.2156  0.8870
  687SOL     MW 2748   2.199   0.313   1.193  0.2043  0.2841  0.4941
  688SOL     OW 2749   2.361   0.519   1.497 -0.0613  0.4509 -0.1146
  688SOL    HW1 2750   2.371   0.425   1.520 -0.3067 -0.7842 -2.2826
  688SOL    HW2 2751   2.353   0.532   1.401 -0.6459  0.7450  1.7629
  688SOL     MW 2752   2.361   0.508   1.488 -0.1708  0.3268 -0.1529
  689SOL     OW 2753   2.558   0.782   2.979  0.5738  0.0156  0.0408
  689SOL    HW1 2754   2.546   0.881   2.982  2.1080  1.2169 -2.2146
  689SOL    HW2 2755   2.563   0.762   3.072 -1.1354  0.6007 -2.9432
  689SOL     MW 2756   2.557   0.793   2.992  0.5507  0.2513 -0.6505
  690SOL     OW 2757   2.081   1.005   1.944 -0.4001  0.7809  0.1762
  690SOL    HW1 2758   2.001   0.955   1.941 -0.8997  0.0992  0.6645
  690SOL    HW2 2759   2.108   1.007   1.852 -1.3383 -1.1574  1.1595
  690SOL     MW 2760   2.074   0.999   1.931 -0.5898  0.4352  0.3704
  691SOL     OW 2761   2.467   0.380   0.875 -0.0447  0.1278 -0.2790
  691SOL    HW1 2762   2.520   0.420   0.941  0.5130 -2.4085 -2.1424
  691SOL    HW2 2763   2.396   0.443   0.867  0.1934  0.2870 -3.4395
  691SOL     MW 2764   2.464   0.394   0.882  0.0603 -0.1858 -0.9419
  692SOL     OW 2765   2.811   1.657   1.444  0.1573  0.5866 -0.7940
  692SOL    HW1 2766   2.834   1.632   1.527  3.9818  0.7570 -1.2747
  692SOL    HW2 2767   2.805   1.750   1.457  1.0137 -2.0087 -0.6586
  692SOL     MW 2768   2.813   1.666   1.457  0.7749  0.2667 -0.8396
  693SOL     OW 2769   2.284   0.494   0.087  0.4572 -0.4171  0.1417
  693SOL    HW1 2770   2.208   0.437   0.103  2.5148  0.4913  0.8876
  693SOL    HW2 2771   2.269   0.564   0.023 -1.1971  2.8718  1.2181
  693SOL     MW 2772   2.272   0.496   0.081  0.5104  0.1367  0.3821
  694SOL     OW 2773   1.964   1.271   1.193  0.2112  0.0152  0.0965
  694SOL    HW1 2774   2.055   1.236   1.177  1.6661 -0.8645 -2.5370
  694SOL    HW2 2775   1.923   1.195   1.233  0.0181 -0.3179  1.3491
  694SOL     MW 2776   1.970   1.257   1.196  0.3776 -0.1448 -0.0857
  695SOL     OW 2777   3.053   1.496   1.304 -0.1236 -0.1799  0.7289
  695SOL    HW1 2778   3.002   1.461   1.226 -0.8396  1.8027 -1.4839
  695SOL    HW2 2779   3.002   1.563   1.346 -2.7601  0.3431 -0.7870
  695SOL     MW 2780   3.040   1.501   1.299 -0.5659  0.1507  0.2369
  696SOL     OW 2781   2.030   1.367   0.943 -0.2972 -0.3143  0.5237
  696SOL    HW1 2782   2.103   1.428   0.969  0.9531  0.1560 -0.2164
  696SOL    HW2 2783   2.011   1.310   1.020 -0.8963 -0.4400 -1.3740
  696SOL     MW 2784   2.037   1.368   0.957 -0.2113 -0.2689  0.1756
  697SOL     OW 2785   2.881   1.031   2.268 -0.3338 -0.3858  0.1104
  697SOL    HW1 2786   2.856   1.113   2.234 -1.3261 -2.7927 -0.4768
  697SOL    HW2 2787   2.877   0.971   2.197 -0.5893 -0.9539 -0.2251
  697SOL     MW 2788   2.878   1.034   2.254 -0.4984 -0.7783 -0.0114
  698SOL     OW 2789   2.521   0.410   3.006 -0.1326 -0.6015  0.0454
  698SOL    HW1 2790   2.438   0.411   3.057 -1.0134  1.8148 -1.5193
  698SOL    HW2 2791   2.581   0.346   3.043  1.7230 -2.4257  1.6615
  698SOL     MW 2792   2.518   0.402   3.018 -0.0040 -0.5234  0.0522
  699SOL     OW 2793   1.823   1.642   2.039  0.2485  0.1206 -0.2520
  699SOL    HW1 2794   1.796   1.552   2.070  0.5629 -0.6437 -1.3949
  699SOL    HW2 2795   1.916   1.655   2.058  0.2710 -1.3551  1.5549
  699SOL     MW 2796   1.832   1.632   2.046  0.2929 -0.1749 -0.1644
  700SOL     OW 2797   2.694   0.878   1.533  0.1717 -0.1894 -0.1071
  700SOL    HW1 2798   2.725   0.959   1.487  3.2828  1.2181 -0.2806
  700SOL    HW2 2799   2.751   0.804   1.509 -2.3345  0.3933  1.1335
  700SOL     MW 2800   2.705   0.879   1.524  0.2515  0.0732  0.0337
  701SOL     OW 2801   1.666   1.301   2.574  0.3346  0.2465 -0.5339
  701SOL    HW1 2802   1.746   1.280   2.624  1.4698 -0.9468  0.8212
  701SOL    HW2 2803   1.621   1.359   2.637 -1.3198 -1.0748  0.4586
  701SOL     MW 2804   1.671   1.305   2.589  0.2661 -0.0852 -0.2241
  702SOL     OW 2805   2.229   0.522   0.804 -0.1152 -0.4650 -0.7612
  702SOL    HW1 2806   2.209   0.437   0.776  0.0315  0.0194 -2.1717
  702SOL    HW2 2807   2.240   0.570   0.727  2.0926 -0.2387  1.8524
  702SOL     MW 2808   2.228   0.517   0.790  0.1954 -0.3712 -0.6025
  703SOL     OW 2809   2.682   1.266   0.995  0.4594  0.6520 -0.1029
  703SOL    HW1 2810   2.660   1.246   0.899 -4.0472 -0.1157 -0.7282
  703SOL    HW2 2811   2.671   1.181   1.041 -1.5925  0.7653 -1.2564
  703SOL     MW 2812   2.678   1.252   0.988 -0.4059  0.5656 -0.3376
  704SOL     OW 2813   3.099   1.316   0.197 -0.1956 -0.4914  0.3742
  704SOL    HW1 2814   3.009   1.282   0.197 -1.8739 -0.5456  1.4152
  704SOL    HW2 2815   3.147   1.242   0.218 -1.2513  1.0326 -1.4259
  704SOL     MW 2816   3.094   1.302   0.200 -0.5564 -0.2975  0.2740
  705SOL     OW 2817   2.230   1.629   1.291  0.1955 -0.3095  0.6956
  705SOL    HW1 2818   2.154   1.635   1.348  1.5695 -1.3900  2.0956
  705SOL    HW2 2819   2.269   1.545   1.301  1.6464  0.8593  3.2460
  705SOL     MW 2820   2.225   1.619   1.300  0.5682 -0.2978  1.2168
  706SOL     OW 2821   2.987   1.220   0.645  0.3420  0.3162 -0.7980
  706SOL    HW1 2822   3.075   1.230   0.606  0.5182 -0.1062  1.7349
  706SOL    HW2 2823   2.942   1.311   0.664 -3.0684  1.9641  1.9281
  706SOL     MW 2824   2.992   1.233   0.642 -0.0847  0.4779 -0.1041
  707SOL     OW 2825   2.422   0.103   0.984  0.8464 -0.0657  0.8096
  707SOL    HW1 2826   2.455   0.185   0.954 -2.5343  0.7281 -0.3957
  707SOL    HW2 2827   2.325   0.111   0.978  1.3945 -1.0457  0.1649
  707SOL     MW 2828   2.414   0.115   0.979  0.4727 -0.0903  0.5655
  708SOL     OW 2829   2.515   1.550   0.126  0.2942 -0.2771 -0.0409
  708SOL    HW1 2830   2.572   1.487   0.181 -0.2261 -1.3546  1.9214
  708SOL    HW2 2831   2.451   1.503   0.083  0.7988 -1.3079 -0.1716
  708SOL     MW 2832   2.514   1.535   0.127  0.2921 -0.5552  0.2008
  709SOL     OW 2833   1.761   1.681   0.137  0.6276  0.2529 -0.0698
  709SOL    HW1 2834   1.765   1.616   0.071 -0.7058  1.2525  1.7751
  709SOL    HW2 2835   1.707   1.643   0.210 -1.9728 -0.0205 -0.3023
  709SOL     MW 2836   1.755   1.667   0.138  0.1085  0.3487  0.1430
  710SOL     OW 2837   2.223   1.176   1.189 -0.0336  0.3904 -0.3107
  710SOL    HW1 2838   2.254   1.177   1.099  1.5602  1.0281  1.4756
  710SOL    HW2 2839   2.235   1.086   1.221 -2.2207 -3.5825 -0.0495
  710SOL     MW 2840   2.229   1.164   1.181 -0.1118 -0.0497 -0.0406
  711SOL     OW 2841   2.318   0.121   1.774  0.1442  0.4300 -0.6695
  711SOL    HW1 2842   2.408   0.084   1.773 -1.3567 -0.4911 -2.4415
  711SOL    HW2 2843   2.267   0.046   1.746 -6.2708 -2.3224 -0.1251
  711SOL     MW 2844   2.323   0.106   1.770 -0.9002 -0.0547 -0.8315
  712SOL     OW 2845   1.629   0.643   0.004 -1.0063  0.1481 -0.4266
  712SOL    HW1 2846   1.586   0.646  -0.080  2.0377  2.9606 -1.2201
  712SOL    HW2 2847   1.664   0.731   0.024 -5.7257  0.5137  0.9608
  712SOL     MW 2848   1.628   0.655  -0.004 -1.2274  0.5674 -0.3482
  713SOL     OW 2849   2.565   0.772   1.142  0.5036  0.0004 -0.3650
  713SOL    HW1 2850   2.591   0.682   1.157  1.5120 -1.2981  3.5025
  713SOL    HW2 2851   2.519   0.790   1.229  1.2660  0.3033  0.3365
  713SOL     MW 2852   2.563   0.763   1.156  0.7373 -0.1309  0.2378
  714SOL     OW 2853   2.253   0.162   2.047 -0.0139 -0.2841 -0.5730
  714SOL    HW1 2854   2.322   0.155   2.113 -0.0440 -1.3407 -1.6493
  714SOL    HW2 2855   2.304   0.168   1.963  1.3385  1.4755 -0.7886
  714SOL     MW 2856   2.269   0.162   2.044  0.1606 -0.1914 -0.7434
  715SOL     OW 2857   1.739   1.899   1.697  0.1141  0.9115  0.1636
  715SOL    HW1 2858   1.828   1.859   1.681  0.2201 -3.7774  1.0127
  715SOL    HW2 2859   1.694   1.822   1.739  0.6857 -0.2975  2.6937
  715SOL     MW 2860   1.744   1.884   1.700  0.2035  0.1333  0.6095
  716SOL     OW 2861   2.203   0.729   0.572 -0.4758 -0.1036 -0.4160
  716SOL    HW1 2862   2.260   0.725   0.492 -2.4610  0.5407 -1.3357
  716SOL    HW2 2863   2.116   0.731   0.529  1.1212 -0.4023 -0.9099
  716SOL     MW 2864   2.199   0.729   0.556 -0.5270 -0.0580 -0.6025
  717SOL     OW 2865   2.899   1.413   2.988  0.2808  0.3325 -0.1958
  717SOL    HW1 2866   2.992   1.438   2.977 -0.1515 -1.8501 -0.1406
  717SOL    HW2 2867   2.859   1.488   3.037 -2.1835  2.0498  0.7019
  717SOL     MW 2868   2.906   1.426   2.993 -0.1014  0.2711 -0.0701
  718SOL     OW 2869   2.579   1.498   1.259 -0.7216 -0.0776  0.3120
  718SOL    HW1 2870   2.601   1.539   1.349  1.4079  0.0854  0.5698
  718SOL    HW2 2871   2.643   1.430   1.254  1.2369 -0.2365  1.0025
  718SOL     MW 2872   2.590   1.495   1.270 -0.1822 -0.0771  0.4371
  719SOL     OW 2873   2.167   1.333   0.698  0.1614 -0.8733 -0.6087
  719SOL    HW1 2874   2.259   1.361   0.704 -0.8832 -0.5674  1.3854
  719SOL    HW2 2875   2.135   1.308   0.786  2.1701  1.4578 -0.4610
  719SOL     MW 2876   2.175   1.333   0.711  0.2886 -0.5254 -0.3261
  720SOL     OW 2877   2.869   1.182   0.165  0.6277 -0.4587 -0.2051
  720SOL    HW1 2878   2.849   1.089   0.196 -2.1730 -0.0783 -1.5191
  720SOL    HW2 2879   2.804   1.230   0.209 -0.9619  0.8510 -2.2446
  720SOL     MW 2880   2.858   1.176   0.175  0.0484 -0.2357 -0.6476
  721SOL     OW 2881   2.452   0.798   1.433  0.2009 -0.2731 -0.0264
  721SOL    HW1 2882   2.437   0.703   1.450 -1.5071 -1.7180 -2.8622
  721SOL    HW2 2883   2.547   0.797   1.468 -0.5567 -0.1415 -1.0147
  721SOL     MW 2884   2.463   0.785   1.440 -0.1244 -0.4464 -0.5310
  722SOL     OW 2885   2.475   1.146   0.360  0.6699  0.2500 -0.7084
  722SOL    HW1 2886   2.462   1.211   0.425  0.2208 -0.2639  1.2586
  722SOL    HW2 2887   2.531   1.080   0.396 -2.2395  0.7824  0.0505
  722SOL     MW 2888   2.480   1.146   0.373  0.2267  0.2524 -0.3487
  723SOL     OW 2889   2.256   1.371   1.647 -0.3003  0.2888 -0.0609
  723SOL    HW1 2890   2.289   1.342   1.563  1.3999  1.9497  0.4812
  723SOL    HW2 2891   2.160   1.376   1.636 -1.0497 -0.1069  1.2116
  723SOL     MW 2892   2.248   1.368   1.635 -0.1749  0.4557  0.1785
  724SOL     OW 2893   2.495   0.360   0.595  0.5845  0.0139  0.1431
  724SOL    HW1 2894   2.480   0.376   0.687  0.9522  0.8852 -1.9943
  724SOL    HW2 2895   2.587   0.336   0.588 -1.7536 -1.1891 -0.5519
  724SOL     MW 2896   2.505   0.359   0.606  0.3245 -0.0299 -0.2306
  725SOL     OW 2897   2.628   0.478   1.121  0.2515  0.3286  0.2862
  725SOL    HW1 2898   2.685   0.502   1.198  2.6688  0.5691  2.1603
  725SOL    HW2 2899   2.544   0.447   1.148  0.8764 -0.4504  0.1138
  725SOL     MW 2900   2.624   0.477   1.135  0.6529  0.2576  0.5107
  726SOL     OW 2901   2.570   2.382   0.521 -0.0200  0.2144  0.3941
  726SOL    HW1 2902   2.555   2.462   0.469 -0.9437 -0.0316  0.9948
  726SOL    HW2 2903   2.498   2.387   0.581  2.3546  0.0739 -1.9176
  726SOL     MW 2904   2.558   2.393   0.522  0.1714  0.1634  0.1683
  727SOL     OW 2905   2.905   0.301   1.665 -0.6241 -0.1870 -0.0148
  727SOL    HW1 2906   2.883   0.321   1.576  1.6915 -2.8705 -2.5461
  727SOL    HW2 2907   2.822   0.275   1.710 -0.0363 -2.1474 -1.1719
  727SOL     MW 2908   2.891   0.300   1.659 -0.2410 -0.7997 -0.5015
  728SOL     OW 2909   2.770   1.181   2.996  0.2544 -0.4960  0.5738
  728SOL    HW1 2910   2.813   1.264   2.992 -1.3516 -1.0719 -1.5106
  728SOL    HW2 2911   2.718   1.174   3.067  1.6137 -0.8740 -3.0301
  728SOL     MW 2912   2.769   1.191   3.005  0.2219 -0.6219 -0.1767
  729SOL     OW 2913   2.471   1.451   0.981 -0.1434  0.2412  0.1613
  729SOL    HW1 2914   2.496   1.485   1.066 -0.9846 -1.0915 -2.4671
  729SOL    HW2 2915   2.512   1.362   0.988 -0.9653  0.2785 -1.4396
  729SOL     MW 2916   2.480   1.444   0.993 -0.3628  0.0702 -0.3967
  730SOL     OW 2917   2.062   1.147   0.167  0.7462  0.6094  0.3245
  730SOL    HW1 2918   2.160   1.125   0.173  0.0719 -0.6762  0.6748
  730SOL    HW2 2919   2.060   1.237   0.206 -1.1610  0.6956 -0.2228
  730SOL     MW 2920   2.075   1.156   0.173  0.4056  0.4512  0.2985
  731SOL     OW 2921   2.771   1.806   2.889  0.2845 -0.3772 -0.4129
  731SOL    HW1 2922   2.706   1.844   2.831 -0.1598 -0.1446 -0.9954
  731SOL    HW2 2923   2.817   1.888   2.905  2.3001 -0.3644 -0.1399
  731SOL     MW 2924   2.769   1.822   2.883  0.4918 -0.3448 -0.4537
  732SOL     OW 2925   2.247   0.907   1.311 -0.9472  0.4885 -0.1209
  732SOL    HW1 2926   2.170   0.917   1.374  0.3182 -3.4011  0.1116
  732SOL    HW2 2927   2.333   0.875   1.364  0.6998  0.4162  1.0955
  732SOL     MW 2928   2.248   0.904   1.327 -0.5630 -0.0342  0.0703
  733SOL     OW 2929   2.380   2.878   3.052  0.4021 -0.3988  0.1457
  733SOL    HW1 2930   2.299   2.923   3.060 -0.0142  0.2754 -0.2494
  733SOL    HW2 2931   2.354   2.785   3.048  2.8812 -1.4369 -2.3269
  733SOL     MW 2932   2.366   2.871   3.053  0.6743 -0.4468 -0.2326
  734SOL     OW 2933   1.524   0.343   2.513 -0.4905  0.8232  0.3967
  734SOL    HW1 2934   1.435   0.321   2.533 -1.1644  2.0493  2.0631
  734SOL    HW2 2935   1.550   0.294   2.425  1.2528 -1.0307  0.9784
  734SOL     MW 2936   1.515   0.334   2.504 -0.3494  0.7404  0.6933
  735SOL     OW 2937   2.996   0.893   2.748  0.3390 -0.4427 -0.0522
  735SOL    HW1 2938   2.912   0.855   2.734 -0.5368  0.7203  3.6370
  735SOL    HW2 2939   2.985   0.951   2.819 -1.0296  1.2005 -0.6912
  735SOL     MW 2940   2.984   0.896   2.755  0.0429 -0.0725  0.3502
  736SOL     OW 2941   0.047   0.631   2.504  0.0795  0.5719 -0.0665
  736SOL    HW1 2942   0.084   0.694   2.440 -3.5807 -1.0257 -4.1003
  736SOL    HW2 2943   0.043   0.551   2.451 -0.4487  1.1032  0.0757
  736SOL     MW 2944   0.051   0.629   2.489 -0.4731  0.4312 -0.5800
  737SOL     OW 2945   2.874   0.603   2.567 -0.2881  0.4548 -0.3817
  737SOL    HW1 2946   2.824   0.571   2.490 -1.5288  1.8058  0.4166
  737SOL    HW2 2947   2.949   0.649   2.525  0.4137 -0.2274 -1.6222
  737SOL     MW 2948   2.878   0.605   2.551 -0.3592  0.5431 -0.4401
  738SOL     OW 2949   0.154   0.387   1.906 -0.0892 -0.0836 -0.0782
  738SOL    HW1 2950   0.231   0.435   1.904 -2.4658 -0.9688 -0.7811
  738SOL    HW2 2951   0.177   0.325   1.840  1.1527  1.2894 -1.4658
  738SOL     MW 2952   0.167   0.385   1.897 -0.2390 -0.0192 -0.3540
  739SOL     OW 2953   2.542   1.022   2.174  0.6081  0.1447  0.3766
  739SOL    HW1 2954   2.456   1.004   2.140  0.2506 -0.8280 -0.0576
  739SOL    HW2 2955   2.580   1.072   2.102  1.7271 -0.6765  0.8919
  739SOL     MW 2956   2.536   1.026   2.160  0.7086 -0.0920  0.3873
  740SOL     OW 2957   0.291   1.705   2.923  0.1941 -0.0885  0.0946
  740SOL    HW1 2958   0.253   1.617   2.912  1.4152 -0.3953  0.4615
  740SOL    HW2 2959   0.366   1.690   2.984 -0.7100 -0.3492 -0.1915
  740SOL     MW 2960   0.296   1.691   2.930  0.2359 -0.1634  0.1053
  741SOL     OW 2961   2.214   1.268   2.626  0.1274 -0.2497  0.3145
  741SOL    HW1 2962   2.216   1.344   2.567 -0.5663 -1.1792  0.1555
  741SOL    HW2 2963   2.215   1.312   2.707 -3.8813 -1.1355 -2.3016
  741SOL     MW 2964   2.214   1.284   2.629 -0.4930 -0.4892 -0.0516
  742SOL     OW 2965   1.546   1.393   2.346  0.5005 -0.6129  0.3820
  742SOL    HW1 2966   1.523   1.310   2.312 -3.2495  0.0669  0.3634
  742SOL    HW2 2967   1.589   1.362   2.432 -0.8228 -2.1661  0.2190
  742SOL     MW 2968   1.549   1.378   2.353 -0.1689 -0.7281  0.3580
  743SOL     OW 2969   2.509   1.232   2.679 -0.1855 -0.9867  0.3605
  743SOL    HW1 2970   2.413   1.227   2.669 -0.7175 -0.9739  0.7409
  743SOL    HW2 2971   2.535   1.146   2.709  1.1812  2.5604 -1.3322
  743SOL     MW 2972   2.500   1.220   2.682 -0.0754 -0.5170  0.1874
  744SOL     OW 2973   2.790   0.969   1.799 -0.3222 -0.3186  0.2462
  744SOL    HW1 2974   2.720   1.029   1.833  1.8442  3.5189  1.3522
  744SOL    HW2 2975   2.755   0.927   1.716 -0.7773 -2.4931 -0.7612
  744SOL     MW 2976   2.776   0.971   1.793 -0.0964 -0.0992  0.2592
  745SOL     OW 2977   1.830   0.473   2.473 -0.6604 -0.2419  0.2747
  745SOL    HW1 2978   1.818   0.544   2.402 -2.1251  2.4228 -2.4268
  745SOL    HW2 2979   1.737   0.464   2.492 -0.8580 -0.6341 -1.5380
  745SOL     MW 2980   1.816   0.481   2.466 -0.8797  0.0579 -0.3209
  746SOL     OW 2981   1.575   1.433   1.739  0.2412  0.0320 -0.3123
  746SOL    HW1 2982   1.617   1.510   1.776  5.6069  0.9725  0.2666
  746SOL    HW2 2983   1.545   1.375   1.811  1.2249  1.5900 -1.3485
  746SOL     MW 2984   1.577   1.435   1.753  1.0790  0.3616 -0.3726
  747SOL     OW 2985   2.597   1.156   1.949 -0.3635 -0.0758 -0.1940
  747SOL    HW1 2986   2.514   1.164   1.896 -0.4709  0.2246 -0.0182
  747SOL    HW2 2987   2.614   1.248   1.990 -2.4374  0.0721 -1.6326
  747SOL     MW 2988   2.588   1.169   1.948 -0.6513 -0.0167 -0.3606
  748SOL     OW 2989   0.137   2.988   1.962 -0.2351  0.5699  0.1150
  748SOL    HW1 2990   0.192   3.060   1.968  0.9719 -1.1716 -1.4054
  748SOL    HW2 2991   0.097   2.955   2.045 -0.8876  0.4035 -0.1016
  748SOL     MW 2992   0.139   2.993   1.974 -0.1619  0.3182 -0.1142
  749SOL     OW 2993   2.397   0.649   2.801 -0.0361 -0.2269 -0.0702
  749SOL    HW1 2994   2.373   0.714   2.742  1.8860 -4.1472  3.1874
  749SOL    HW2 2995   2.466   0.692   2.856 -0.8265 -0.7740 -0.4151
  749SOL     MW 2996   2.403   0.663   2.800  0.1133 -0.8163  0.3141
  750SOL     OW 2997   2.050   3.059   1.988  0.0230  0.1008  0.2154
  750SOL    HW1 2998   2.104   3.134   2.028 -0.3794 -1.2845 -0.5692
  750SOL    HW2 2999   2.114   2.992   1.953  0.6841  0.5765 -0.6382
  750SOL     MW 3000   2.066   3.060   1.989  0.0571 -0.0192 -0.0008
  751SOL     OW 3001   0.026   0.377   2.414  0.2873  0.0624  0.6802
  751SOL    HW1 3002  -0.053   0.337   2.378 -0.1745  1.8877 -1.9506
  751SOL    HW2 3003   0.101   0.358   2.351 -2.3440 -3.5847  0.7236
  751SOL     MW 3004   0.026   0.369   2.401 -0.1208 -0.1780  0.3388
  752SOL     OW 3005   2.157   0.962   2.777  0.1582  0.0415 -0.0069
  752SOL    HW1 3006   2.234   0.980   2.826 -2.5051 -1.2867  0.9740
  752SOL    HW2 3007   2.141   0.870   2.793  0.0373  1.3303  0.8408
  752SOL     MW 3008   2.165   0.953   2.786 -0.2092  0.0363  0.2343
  753SOL     OW 3009   2.865   0.294   2.360 -0.5497 -0.3152 -0.7103
  753SOL    HW1 3010   2.841   0.197   2.350 -1.1211 -1.9766 -2.4618
  753SOL    HW2 3011   2.780   0.335   2.338  2.1357 -0.5923 -0.5021
  753SOL     MW 3012   2.850   0.287   2.356 -0.2708 -0.5710 -0.9139
  754SOL     OW 3013   2.263   3.002   2.635 -1.0947 -0.0676 -0.2679
  754SOL    HW1 3014   2.300   2.982   2.548 -2.0029  2.1364 -0.4620
  754SOL    HW2 3015   2.323   2.964   2.702  1.3805  0.6079 -2.2408
  754SOL     MW 3016   2.276   2.995   2.633 -0.8880  0.3123 -0.5538
  755SOL     OW 3017   2.773   1.631   2.406  0.2366 -0.4751 -0.6560
  755SOL    HW1 3018   2.748   1.538   2.401  0.9218 -2.3053 -1.4591
  755SOL    HW2 3019   2.781   1.649   2.504  0.2760 -0.7038 -1.5074
  755SOL     MW 3020   2.771   1.621   2.418  0.3322 -0.7468 -0.8743
  756SOL     OW 3021   2.217   1.257   2.959 -0.0607 -0.4161  0.2784
  756SOL    HW1 3022   2.285   1.321   2.947 -1.5236 -0.0363  0.5067
  756SOL    HW2 3023   2.266   1.177   2.983  0.5226 -1.4963  1.1502
  756SOL     MW 3024   2.232   1.255   2.960 -0.1768 -0.5085  0.4236
  757SOL     OW 3025   2.207   0.972   1.689 -0.5853  0.0705  0.1482
  757SOL    HW1 3026   2.241   0.885   1.689 -1.5113  0.7019  0.5857
  757SOL    HW2 3027   2.164   0.972   1.602 -0.1981 -0.7251  0.2579
  757SOL     MW 3028   2.206   0.961   1.678 -0.6564  0.0489  0.2204
  758SOL     OW 3029   2.159   1.854   2.489  0.4742 -0.5850  0.8344
  758SOL    HW1 3030   2.181   1.930   2.434  0.1114  1.2513  0.2256
  758SOL    HW2 3031   2.242   1.809   2.494 -0.0882  2.2946 -1.0324
  758SOL     MW 3032   2.173   1.858   2.482  0.3522  0.0372  0.5078
  759SOL     OW 3033   1.581   1.455   2.795  0.1612  0.2255  0.4970
  759SOL    HW1 3034   1.601   1.541   2.751  0.9899  4.9686 -0.4459
  759SOL    HW2 3035   1.647   1.451   2.867  0.6458 -3.0895  0.5791
  759SOL     MW 3036   1.592   1.466   2.799  0.3345  0.4139  0.3835
  760SOL     OW 3037   2.592   1.906   2.711 -0.1661  0.5022 -0.0200
  760SOL    HW1 3038   2.530   1.842   2.681  0.2315  2.5763  0.5109
  760SOL    HW2 3039   2.664   1.924   2.649  0.1843 -0.8029  0.6662
  760SOL     MW 3040   2.594   1.900   2.699 -0.0674  0.6037  0.1406
  761SOL     OW 3041   2.327   0.430   2.355 -0.0044  0.2231  0.6329
  761SOL    HW1 3042   2.251   0.379   2.384  1.1056  0.4146 -1.2072
  761SOL    HW2 3043   2.376   0.453   2.438 -2.0956 -2.9625 -0.6943
  761SOL     MW 3044   2.323   0.427   2.370 -0.1339 -0.1720  0.2150
  762SOL     OW 3045   0.013   0.185   2.140 -0.3338  0.0684 -0.0096
  762SOL    HW1 3046  -0.006   0.115   2.205  1.0078 -0.8592  0.5062
  762SOL    HW2 3047  -0.065   0.202   2.089  1.2503 -0.9067 -0.2529
  762SOL     MW 3048   0.000   0.178   2.142  0.0522 -0.1826  0.0264
  763SOL     OW 3049   2.455   1.190   2.382 -0.1805  0.3784  0.6217
  763SOL    HW1 3050   2.519   1.140   2.332  1.0784 -1.8699  2.4161
  763SOL    HW2 3051   2.511   1.235   2.448 -2.3980 -0.1319 -2.5636
  763SOL     MW 3052   2.471   1.190   2.384 -0.3070  0.0145  0.4381
  764SOL     OW 3053   0.402   0.040   2.784 -0.1440  0.2247 -0.2203
  764SOL    HW1 3054   0.343   0.109   2.758 -0.8991 -2.6134  0.3759
  764SOL    HW2 3055   0.437   0.064   2.871 -1.4914 -0.7588  2.5838
  764SOL     MW 3056   0.399   0.052   2.792 -0.4214 -0.2795  0.2284
  765SOL     OW 3057   2.777   0.034   2.350 -0.1274 -0.0045 -0.4330
  765SOL    HW1 3058   2.739   0.025   2.262  0.0531  0.4645  2.2667
  765SOL    HW2 3059   2.765  -0.051   2.392 -1.2726  0.8968 -1.0043
  765SOL     MW 3060   2.770   0.022   2.344 -0.2547  0.1763 -0.1522
  766SOL     OW 3061   1.919   2.960   2.229  0.0066  0.8124 -0.1774
  766SOL    HW1 3062   1.970   2.997   2.154  0.2573 -2.4930 -1.2676
  766SOL    HW2 3063   1.844   2.906   2.178  2.9240 -1.2001 -2.1774
  766SOL     MW 3064   1.916   2.958   2.212  0.4246  0.1108 -0.5851
  767SOL     OW 3065   2.657   0.633   1.895 -0.4626 -0.0474  0.0121
  767SOL    HW1 3066   2.638   0.639   1.991 -1.3654  0.0614 -0.7573
  767SOL    HW2 3067   2.604   0.708   1.865  0.5303 -0.5027 -2.1827
  767SOL     MW 3068   2.648   0.643   1.904 -0.4507 -0.0931 -0.3790
  768SOL     OW 3069   0.058   1.454   2.897  0.4545  0.0763  0.2320
  768SOL    HW1 3070   0.097   1.461   2.984  1.5074  1.6509  2.4839
  768SOL    HW2 3071   0.078   1.363   2.863 -0.6164  0.9998 -2.1796
  768SOL     MW 3072   0.066   1.443   2.904  0.4521  0.4059  0.2109
  769SOL     OW 3073   2.396   0.699   2.352 -0.3318  0.2602  0.1244
  769SOL    HW1 3074   2.369   0.603   2.337 -1.9146  0.7492  2.2283
  769SOL    HW2 3075   2.457   0.718   2.287  0.1358 -2.1280  0.1207
  769SOL     MW 3076   2.400   0.689   2.342 -0.4789  0.0096  0.4015
  770SOL     OW 3077   3.083   1.632   2.655  0.0372 -0.6293 -0.2185
  770SOL    HW1 3078   2.989   1.651   2.656  0.2772 -2.3695 -0.4763
  770SOL    HW2 3079   3.108   1.566   2.724  0.1363 -3.0711 -1.1997
  770SOL     MW 3080   3.074   1.626   2.664  0.0819 -1.1811 -0.3820
  771SOL     OW 3081   3.067   0.562   1.988  0.0499  0.0495  0.3586
  771SOL    HW1 3082   3.020   0.558   1.903  1.0137 -2.0221 -0.9783
  771SOL    HW2 3083   3.140   0.502   1.997  0.9161  2.2917  0.2191
  771SOL     MW 3084   3.070   0.553   1.978  0.2914  0.0720  0.1638
  772SOL     OW 3085   0.007   3.098   2.343 -0.3434  0.7272  0.2696
  772SOL    HW1 3086  -0.074   3.049   2.367  1.4633  1.3473 -2.1815
  772SOL    HW2 3087   0.067   3.031   2.295 -0.3907 -1.4956 -1.8666
  772SOL     MW 3088   0.005   3.082   2.340 -0.1112  0.5157 -0.3356
  773SOL     OW 3089   2.475   2.914   2.780  0.2410  0.2210 -0.3657
  773SOL    HW1 3090   2.515   2.834   2.748 -0.1228 -0.7804 -1.3077
  773SOL    HW2 3091   2.454   2.886   2.869 -2.6185 -3.3803 -0.6624
  773SOL     MW 3092   2.478   2.900   2.787 -0.1843 -0.3863 -0.5291
  774SOL     OW 3093   2.382   1.177   1.792  0.5247 -0.1266 -0.4142
  774SOL    HW1 3094   2.335   1.231   1.733  0.1861 -0.3520 -0.8869
  774SOL    HW2 3095   2.321   1.097   1.785  0.6832 -0.7994  0.2371
  774SOL     MW 3096   2.368   1.173   1.783  0.5010 -0.2451 -0.3906
  775SOL     OW 3097   2.344   2.881   2.386 -0.4475 -0.0880  0.2209
  775SOL    HW1 3098   2.370   2.955   2.331  1.0355 -0.0617 -0.2087
  775SOL    HW2 3099   2.416   2.826   2.374 -2.0486 -0.4058  2.4748
  775SOL     MW 3100   2.357   2.883   2.377 -0.4631 -0.1265  0.4616
  776SOL     OW 3101   0.135   1.502   0.041 -0.0742  0.3817  0.5216
  776SOL    HW1 3102   0.229   1.491   0.064  0.2242  0.7014 -0.6208
  776SOL    HW2 3103   0.094   1.422   0.084 -0.3503 -3.2041 -0.4664
  776SOL     MW 3104   0.142   1.490   0.050 -0.0713 -0.0492  0.2406
  777SOL     OW 3105   3.009   1.117   1.674 -0.5057 -0.1020 -0.0937
  777SOL    HW1 3106   2.972   1.182   1.605  1.1406  5.9809 -3.5337
  777SOL    HW2 3107   2.938   1.086   1.730 -0.9001  0.2479 -1.2308
  777SOL     MW 3108   2.995   1.121   1.672 -0.3406  0.7467 -0.6976
  778SOL     OW 3109   2.942   0.498   2.807  0.1814  0.1360  0.7945
  778SOL    HW1 3110   2.868   0.507   2.869 -2.1990  0.8227  2.3837
  778SOL    HW2 3111   2.918   0.545   2.726 -1.2140 -3.2444 -0.4691
  778SOL     MW 3112   2.929   0.505   2.804 -0.3168 -0.2194  0.8375
  779SOL     OW 3113   2.208   0.558   2.103  0.2665 -0.2960 -0.1403
  779SOL    HW1 3114   2.132   0.605   2.150  1.3900  1.0103  1.2741
  779SOL    HW2 3115   2.247   0.508   2.178 -1.9003  0.3145 -1.1048
  779SOL     MW 3116   2.203   0.558   2.119  0.1288 -0.0431 -0.0810
  780SOL     OW 3117   0.237   0.237   2.719  0.0286  0.4330  0.1777
  780SOL    HW1 3118   0.144   0.222   2.730 -5.2056  1.1115 -0.8148
  780SOL    HW2 3119   0.256   0.323   2.748 -1.6354 -1.0324  0.7912
  780SOL     MW 3120   0.228   0.246   2.725 -0.8816  0.3292  0.1277
  781SOL     OW 3121   0.007   1.208   2.439 -0.3150 -0.3236 -0.2109
  781SOL    HW1 3122   0.030   1.228   2.350  0.6725  0.5538 -1.1239
  781SOL    HW2 3123  -0.013   1.115   2.439  2.4028  1.6438 -0.2398
  781SOL     MW 3124   0.008   1.198   2.427  0.1739  0.0518 -0.3351
  782SOL     OW 3125   0.725   1.482   0.062  0.6162  0.0513 -0.3691
  782SOL    HW1 3126   0.658   1.543   0.042  0.8192  1.6458 -2.1846
  782SOL    HW2 3127   0.744   1.503   0.156 -1.3007 -0.1799  1.4626
  782SOL     MW 3128   0.718   1.492   0.072  0.3900  0.2311 -0.3669
  783SOL     OW 3129   2.708   0.548   2.359  0.0668 -0.3704 -0.0989
  783SOL    HW1 3130   2.692   0.631   2.319  1.3598 -2.4819  1.4169
  783SOL    HW2 3131   2.623   0.528   2.395  1.7417  0.6897 -0.7680
  783SOL     MW 3132   2.695   0.556   2.359  0.4584 -0.5091  0.0128
  784SOL     OW 3133   0.134   0.803   2.831 -0.0764  0.0588  0.3934
  784SOL    HW1 3134   0.050   0.826   2.795 -1.2051  0.5772 -1.4685
  784SOL    HW2 3135   0.172   0.888   2.829 -1.2784  0.3808  0.0541
  784SOL     MW 3136   0.128   0.817   2.826 -0.3839  0.1697  0.1030
  785SOL     OW 3137   0.476   0.425   2.153 -0.4755  0.5916 -0.0243
  785SOL    HW1 3138   0.469   0.464   2.060 -0.9037 -0.7518  0.7284
  785SOL    HW2 3139   0.391   0.377   2.165  0.8470 -1.2271 -0.6743
  785SOL     MW 3140   0.464   0.424   2.142 -0.3575  0.1744 -0.0107
  786SOL     OW 3141   1.871   0.507   3.035  0.1664  0.4104 -0.1066
  786SOL    HW1 3142   1.888   0.563   2.966 -1.7166  0.5716 -2.4496
  786SOL    HW2 3143   1.804   0.555   3.078  1.8003  0.9069  3.8154
  786SOL     MW 3144   1.865   0.521   3.031  0.1336  0.4972  0.1018
  787SOL     OW 3145   2.377   0.195   2.917  0.4470  0.1987  0.0229
  787SOL    HW1 3146   2.459   0.134   2.893  0.9044 -1.5156  0.3022
  787SOL    HW2 3147   2.420   0.281   2.940  0.0103  1.3249  0.2522
  787SOL     MW 3148   2.394   0.198   2.917  0.4497  0.1211  0.0900
  788SOL     OW 3149   2.917   2.880   2.390  0.0600  0.0129  0.0892
  788SOL    HW1 3150   2.980   2.847   2.450 -1.0471 -0.1038 -1.4915
  788SOL    HW2 3151   2.939   2.842   2.302  2.1152 -1.2417 -1.5540
  788SOL     MW 3152   2.928   2.871   2.386  0.1851 -0.1680 -0.3362
  789SOL     OW 3153   0.092   0.194   0.087  0.3964 -0.0781 -0.6682
  789SOL    HW1 3154   0.012   0.145   0.089 -2.1694 -0.1042  2.7408
  789SOL    HW2 3155   0.092   0.258   0.016  1.1404  0.4703  0.6625
  789SOL     MW 3156   0.081   0.196   0.078  0.1560 -0.0092 -0.0429
  790SOL     OW 3157   3.044   0.937   2.480  0.1125  0.1415  0.2287
  790SOL    HW1 3158   3.024   0.908   2.570  1.9844  0.2062 -3.0591
  790SOL    HW2 3159   2.973   0.943   2.415 -1.5894 -1.7208 -0.7715
  790SOL     MW 3160   3.032   0.934   2.483  0.1349 -0.0957 -0.3370
  791SOL     OW 3161   2.494   0.498   2.574  0.3653  0.6485  0.2024
  791SOL    HW1 3162   2.471   0.528   2.663  0.8913 -2.2455 -0.1702
  791SOL    HW2 3163   2.535   0.410   2.589  0.2492  0.3573  0.8383
  791SOL     MW 3164   2.496   0.490   2.588  0.4194  0.2283  0.2371
  792SOL     OW 3165   2.499   0.223   2.441 -0.2140 -0.0164  0.1655
  792SOL    HW1 3166   2.458   0.302   2.404 -3.1299  0.5956  1.9863
  792SOL    HW2 3167   2.447   0.192   2.515  0.0898 -1.1819  0.8422
  792SOL     MW 3168   2.487   0.229   2.446 -0.5586 -0.0894  0.4950
  793SOL     OW 3169   1.852   1.152   2.052 -0.0659 -0.5607 -0.0207
  793SOL    HW1 3170   1.815   1.110   1.970  0.7473  1.5906  1.9560
  793SOL    HW2 3171   1.948   1.144   2.051 -1.7791 -1.7720 -0.3020
  793SOL     MW 3172   1.860   1.145   2.041 -0.1847 -0.4367  0.2030
  794SOL     OW 3173   1.385   2.288   0.121 -0.0351  0.2889 -0.1927
  794SOL    HW1 3174   1.417   2.373   0.087 -1.4141 -1.7692  0.1634
  794SOL    HW2 3175   1.435   2.284   0.199 -5.6504 -0.7195 -1.1551
  794SOL     MW 3176   1.396   2.299   0.127 -0.9579 -0.1157 -0.2727
  795SOL     OW 3177   2.274   1.010   2.502  0.0092  0.3864  0.2164
  795SOL    HW1 3178   2.250   1.059   2.584  1.6301 -0.3982  1.4631
  795SOL    HW2 3179   2.343   1.072   2.453  0.2646  2.4886 -1.9134
  795SOL     MW 3180   2.280   1.025   2.506  0.2567  0.5602  0.0999
  796SOL     OW 3181   0.241   0.574   2.679  0.7813  0.4118 -0.4373
  796SOL    HW1 3182   0.217   0.636   2.744 -0.7095 -1.0288  0.0294
  796SOL    HW2 3183   0.167   0.577   2.621  0.3348  0.1078 -0.2470
  796SOL     MW 3184   0.228   0.582   2.680  0.5257  0.1816 -0.3506
  797SOL     OW 3185   2.779   0.216   2.652 -0.4483  0.1173  0.5140
  797SOL    HW1 3186   2.771   0.224   2.556 -0.3037 -1.6717 -2.0170
  797SOL    HW2 3187   2.866   0.248   2.681  0.7515 -2.2218 -0.0348
  797SOL     MW 3188   2.789   0.222   2.643 -0.2709 -0.4274  0.1076
  798SOL     OW 3189   2.421   0.040   2.244 -0.3583 -0.6808  0.5865
  798SOL    HW1 3190   2.465   0.103   2.312  1.8791  1.0386 -2.0743
  798SOL    HW2 3191   2.498  -0.002   2.202 -0.9381 -0.0621  3.5758
  798SOL     MW 3192   2.437   0.043   2.247 -0.1396 -0.3723  0.6299
  799SOL     OW 3193   2.590   2.985   0.068 -0.3670  0.4687  0.2479
  799SOL    HW1 3194   2.509   2.958   0.023 -1.4267 -2.0246  1.6129
  799SOL    HW2 3195   2.572   2.973   0.166 -0.5614 -0.3705 -1.0149
  799SOL     MW 3196   2.577   2.980   0.075 -0.5325  0.0290  0.2614
  800SOL     OW 3197   1.945   3.010   1.754  0.1104 -0.3666 -0.1895
  800SOL    HW1 3198   1.863   2.960   1.778 -0.7029 -1.1439  3.9489
  800SOL    HW2 3199   1.977   3.055   1.832 -1.5436 -2.3884 -0.7519
  800SOL     MW 3200   1.939   3.009   1.768 -0.2151 -0.7359  0.2823
  801SOL     OW 3201   2.899   1.279   2.590 -0.1391 -0.3358 -0.3936
  801SOL    HW1 3202   2.891   1.186   2.616 -2.0796  0.0567 -1.1450
  801SOL    HW2 3203   2.974   1.267   2.530 -0.7856 -0.3289 -2.6975
  801SOL     MW 3204   2.908   1.265   2.586 -0.4805 -0.2831 -0.7967
  802SOL     OW 3205   2.631   1.439   2.828  0.2920 -0.5894  0.1618
  802SOL    HW1 3206   2.600   1.366   2.764 -0.9162 -0.9915  1.7818
  802SOL    HW2 3207   2.708   1.400   2.864 -2.4567 -0.9418 -2.7418
  802SOL     MW 3208   2.637   1.424   2.825 -0.2300 -0.6889 -0.0076
  803SOL     OW 3209   2.360   1.398   1.984 -0.4455  0.2517  0.2335
  803SOL    HW1 3210   2.307   1.360   2.053 -0.0694 -0.7606  2.1729
  803SOL    HW2 3211   2.353   1.340   1.909 -0.6440  0.3847 -0.7981
  803SOL     MW 3212   2.352   1.386   1.983 -0.4221  0.1357  0.3533
  804SOL     OW 3213   2.228   0.135   0.035  0.6697 -0.2401  0.4841
  804SOL    HW1 3214   2.165   0.203   0.035  2.2411 -3.1289  0.1059
  804SOL    HW2 3215   2.274   0.148  -0.048 -2.6434  0.8873  1.7505
  804SOL     MW 3216   2.226   0.146   0.024  0.4399 -0.4725  0.6013
  805SOL     OW 3217   2.733   0.811   2.673 -0.2059  0.2887 -0.1766
  805SOL    HW1 3218   2.643   0.804   2.643 -0.3915 -1.9909 -0.7010
  805SOL    HW2 3219   2.763   0.728   2.652 -1.6205 -0.1281 -1.2763
  805SOL     MW 3220   2.725   0.799   2.667 -0.4170 -0.0671 -0.3909
  806SOL     OW 3221   2.626   0.770   2.190  0.5398 -0.3624  0.1839
  806SOL    HW1 3222   2.712   0.784   2.156  0.6974 -1.1753  1.0613
  806SOL    HW2 3223   2.595   0.864   2.187  0.1456  0.4137  0.2829
  806SOL     MW 3224   2.633   0.784   2.185  0.5085 -0.3673  0.3127
  807SOL     OW 3225   3.046   1.053   1.994  0.0975  0.2044  0.3413
  807SOL    HW1 3226   3.103   0.992   2.040  1.5323  2.3624  0.9995
  807SOL    HW2 3227   3.046   1.126   2.046  0.1527 -3.1581  2.2166
  807SOL     MW 3228   3.053   1.055   2.007  0.2941  0.0455  0.6756
  808SOL     OW 3229   2.603   0.072   2.825  0.0340  0.0697 -0.1479
  808SOL    HW1 3230   2.558   0.017   2.759 -3.1701 -0.4312 -0.5141
  808SOL    HW2 3231   2.655   0.130   2.770  1.7861  2.5811 -0.8518
  808SOL     MW 3232   2.604   0.073   2.809 -0.1576  0.3350 -0.2891
  809SOL     OW 3233   2.691   1.358   2.424  0.2148 -0.4145  0.9247
  809SOL    HW1 3234   2.752   1.350   2.499  0.0811 -0.2520 -1.3629
  809SOL    HW2 3235   2.740   1.337   2.344  1.5424  2.2958  2.2028
  809SOL     MW 3236   2.706   1.354   2.423  0.3723 -0.0355  0.7915
  810SOL     OW 3237   2.240   1.288   2.195  0.1021  0.4912  0.5168
  810SOL    HW1 3238   2.280   1.310   2.279 -1.8423  1.9014  0.8846
  810SOL    HW2 3239   2.251   1.193   2.184  1.8908  0.8988 -3.4975
  810SOL     MW 3240   2.247   1.278   2.204  0.0816  0.7311  0.0357
  811SOL     OW 3241   1.609   0.228   2.288  0.1213 -0.4654 -0.4034
  811SOL    HW1 3242   1.700   0.226   2.320  2.6028 -0.7916 -0.1067
  811SOL    HW2 3243   1.616   0.222   2.187  1.4019  0.5549 -2.9834
  811SOL     MW 3244   1.622   0.227   2.279  0.6177 -0.3738 -0.7046
  812SOL     OW 3245   1.466   2.798   2.057  0.0382  0.2127 -0.2016
  812SOL    HW1 3246   1.562   2.795   2.047 -1.1855 -1.0209  2.0789
  812SOL    HW2 3247   1.457   2.768   2.150 -2.9561  1.4449  1.2311
  812SOL     MW 3248   1.477   2.793   2.068 -0.5183  0.2125  0.2884
  813SOL     OW 3249   1.999   0.636   2.250 -0.1636 -0.2867  0.0638
  813SOL    HW1 3250   1.919   0.624   2.191 -2.8293  1.8470 -1.2581
  813SOL    HW2 3251   1.987   0.722   2.297 -0.4615  2.8623  0.9124
  813SOL     MW 3252   1.987   0.646   2.248 -0.5546  0.4103  0.0014
  814SOL     OW 3253   2.718   1.297   1.641 -0.3767 -0.0988  0.2810
  814SOL    HW1 3254   2.716   1.225   1.708  0.5956 -1.8953 -1.2987
  814SOL    HW2 3255   2.653   1.271   1.578  1.6326  1.0827 -1.3851
  814SOL     MW 3256   2.709   1.285   1.642  0.0167 -0.1799 -0.1473
  815SOL     OW 3257   2.548   1.782   2.347 -0.5125  0.3736  0.6316
  815SOL    HW1 3258   2.493   1.698   2.321  1.2002 -0.2837 -0.4270
  815SOL    HW2 3259   2.640   1.747   2.344 -0.0741  0.1002  0.9823
  815SOL     MW 3260   2.553   1.767   2.343 -0.2287  0.2508  0.5382
  816SOL     OW 3261   0.702   0.675   2.771 -0.4066  0.2082 -0.0262
  816SOL    HW1 3262   0.739   0.587   2.743 -2.1022 -0.2663  3.0742
  816SOL    HW2 3263   0.634   0.677   2.714  1.5213  0.1929  1.1010
  816SOL     MW 3264   0.698   0.664   2.760 -0.3760  0.1436  0.5316
  817SOL     OW 3265   3.004   1.260   1.454 -0.3321  0.0513  0.1285
  817SOL    HW1 3266   3.100   1.244   1.481  1.9935 -0.3153  3.6710
  817SOL    HW2 3267   3.013   1.350   1.423  1.3431  0.4144 -0.6288
  817SOL     MW 3268   3.018   1.270   1.453  0.1958  0.0509  0.4959
  818SOL     OW 3269   1.916   1.071   2.637  0.1125 -0.2703  0.3039
  818SOL    HW1 3270   1.910   1.042   2.547 -0.9544 -1.9076 -2.6228
  818SOL    HW2 3271   2.007   1.053   2.678  0.4191 -3.2377  1.5201
  818SOL     MW 3272   1.927   1.065   2.631  0.0122 -0.8779  0.0782
  819SOL     OW 3273   2.083   0.309   2.403 -0.6488  0.3290  0.2633
  819SOL    HW1 3274   2.012   0.371   2.391 -1.5452 -0.3780 -0.6277
  819SOL    HW2 3275   2.088   0.295   2.491 -0.2879  1.0683  0.0356
  819SOL     MW 3276   2.074   0.315   2.413 -0.7194  0.3332  0.1157
  820SOL     OW 3277   2.476   1.665   2.580  0.1768  0.1272  0.6874
  820SOL    HW1 3278   2.539   1.598   2.594 -0.4949 -0.2750 -0.4019
  820SOL    HW2 3279   2.516   1.723   2.516  1.3135 -0.3923  0.5107
  820SOL     MW 3280   2.489   1.664   2.573  0.2381  0.0056  0.5204
  821SOL     OW 3281   2.615   1.420   2.066  0.9304 -0.9987 -0.3772
  821SOL    HW1 3282   2.632   1.489   1.998 -2.9147 -0.5435  1.7953
  821SOL    HW2 3283   2.515   1.414   2.054 -1.1543 -1.5266 -0.3652
  821SOL     MW 3284   2.604   1.428   2.055  0.1481 -1.0083 -0.0890
  822SOL     OW 3285   2.957   2.740   1.516 -0.1215 -0.0945 -0.0337
  822SOL    HW1 3286   2.956   2.729   1.616  2.0164 -0.0845  1.9969
  822SOL    HW2 3287   2.921   2.827   1.498  1.1174 -2.6569 -1.2521
  822SOL     MW 3288   2.952   2.750   1.527  0.3240 -0.4312  0.0735
  823SOL     OW 3289   2.372   0.480   1.886  0.1611 -0.3000  0.1501
  823SOL    HW1 3290   2.435   0.415   1.891  1.6232 -0.6967 -2.2609
  823SOL    HW2 3291   2.342   0.507   1.972  0.0138 -0.7991 -0.3266
  823SOL     MW 3292   2.377   0.475   1.898  0.3346 -0.4182 -0.2309
  824SOL     OW 3293   2.248   1.546   2.484  0.5613  0.1680  0.3743
  824SOL    HW1 3294   2.324   1.590   2.521 -0.4992 -0.3486 -0.2482
  824SOL    HW2 3295   2.167   1.565   2.535 -1.7631 -0.8092  0.2222
  824SOL     MW 3296   2.247   1.554   2.495  0.1147 -0.0291  0.2721
  825SOL     OW 3297   1.893   2.622   0.233  0.0669  0.1072 -0.3072
  825SOL    HW1 3298   1.866   2.566   0.313  0.0472  1.8412  1.1304
  825SOL    HW2 3299   1.949   2.566   0.189 -2.3567  3.3142 -0.8347
  825SOL     MW 3300   1.897   2.607   0.238 -0.2555  0.7591 -0.1872
  826SOL     OW 3301   1.865   2.374   0.376 -0.2543 -0.7801  0.4511
  826SOL    HW1 3302   1.800   2.304   0.383  0.1447 -1.4207  0.0675
  826SOL    HW2 3303   1.862   2.399   0.465  1.6975 -0.9406 -2.8162
  826SOL     MW 3304   1.856   2.368   0.389  0.0558 -0.8858 -0.0306
  827SOL     OW 3305   1.988   2.170   0.793 -0.0010  0.6539 -0.7421
  827SOL    HW1 3306   1.909   2.154   0.737 -1.2505  0.5461 -1.8500
  827SOL    HW2 3307   1.965   2.127   0.876 -1.3117 -1.1799  2.4093
  827SOL     MW 3308   1.975   2.162   0.796 -0.3388  0.3977 -0.4725
  828SOL     OW 3309   0.078   2.648   0.647 -0.6923 -0.1198 -0.7405
  828SOL    HW1 3310   0.175   2.647   0.642 -0.7987 -0.6707 -0.1916
  828SOL    HW2 3311   0.044   2.704   0.575 -0.5393 -0.8341 -0.3102
  828SOL     MW 3312   0.087   2.655   0.637 -0.6861 -0.2867 -0.6113
  829SOL     OW 3313   2.945   2.988   1.179  0.1395  0.2541  0.0606
  829SOL    HW1 3314   2.866   2.974   1.117  3.0356  0.1385 -0.8562
  829SOL    HW2 3315   2.980   2.892   1.180  0.7480 -1.6659 -2.0879
  829SOL     MW 3316   2.939   2.974   1.171  0.6019 -0.0144 -0.3439
  830SOL     OW 3317   2.536   2.831   1.987 -0.0152 -0.0525  0.2167
  830SOL    HW1 3318   2.446   2.832   1.953 -1.3715 -0.4959  2.9181
  830SOL    HW2 3319   2.595   2.804   1.915 -0.8164 -1.2617 -2.8544
  830SOL     MW 3320   2.532   2.828   1.973 -0.2999 -0.2705  0.1679
  831SOL     OW 3321   2.439   2.411   1.208 -0.3214 -0.1842  0.3682
  831SOL    HW1 3322   2.406   2.366   1.285 -0.5159 -0.3836 -3.4980
  831SOL    HW2 3323   2.535   2.389   1.198 -0.0439  2.2651 -1.2613
  831SOL     MW 3324   2.448   2.402   1.217 -0.3104  0.1126 -0.3569
  832SOL     OW 3325   2.310   2.213   1.865  0.0186  0.1582 -0.3840
  832SOL    HW1 3326   2.352   2.301   1.858 -3.4267 -2.2380  0.1565
  832SOL    HW2 3327   2.383   2.160   1.831 -0.3080  0.0505  0.2616
  832SOL     MW 3328   2.325   2.218   1.859 -0.4791 -0.1721 -0.2275
  833SOL     OW 3329   1.733   2.501   0.882 -0.1757  0.8535 -0.1817
  833SOL    HW1 3330   1.644   2.463   0.869  0.9474 -0.9501  1.4435
  833SOL    HW2 3331   1.735   2.569   0.951 -0.9821 -1.7163 -2.1937
  833SOL     MW 3332   1.722   2.505   0.889 -0.1340  0.2764 -0.2327
  834SOL     OW 3333   2.175   2.446   0.541 -0.8672 -0.2774 -0.0239
  834SOL    HW1 3334   2.107   2.393   0.578 -1.8779  0.7916  2.5122
  834SOL    HW2 3335   2.215   2.408   0.462 -1.2540 -0.5039 -2.3324
  834SOL     MW 3336   2.171   2.434   0.536 -1.0516 -0.1662  0.0061
  835SOL     OW 3337   1.829   2.560   0.633 -0.1437  0.2440  0.3185
  835SOL    HW1 3338   1.776   2.529   0.699 -0.7303 -1.0568  1.7724
  835SOL    HW2 3339   1.902   2.600   0.680  1.6830 -0.6286  1.0438
  835SOL     MW 3340   1.832   2.561   0.648  0.0199 -0.0427  0.6060
  836SOL     OW 3341   1.893   2.241   1.547  0.1579 -0.1245 -0.6430
  836SOL    HW1 3342   1.972   2.217   1.592  0.1045 -1.6302  1.2132
  836SOL    HW2 3343   1.834   2.286   1.614 -0.6779 -2.3275  1.3504
  836SOL     MW 3344   1.895   2.243   1.562  0.0406 -0.6138 -0.1351
  837SOL     OW 3345   2.180   0.256   0.739 -0.2354 -0.4937  0.0333
  837SOL    HW1 3346   2.081   0.276   0.732 -1.0344  0.0895  2.5772
  837SOL    HW2 3347   2.194   0.179   0.679  0.0783 -1.5576 -1.5869
  837SOL     MW 3348   2.169   0.249   0.730 -0.2995 -0.5571  0.1552
  838SOL     OW 3349   2.934   2.064   0.921  0.5087  0.6307  0.4013
  838SOL    HW1 3350   2.844   2.019   0.926 -0.9446  0.6544  0.6314
  838SOL    HW2 3351   2.990   1.989   0.941 -2.0105 -1.6052  1.7190
  838SOL     MW 3352   2.929   2.048   0.924 -0.0154  0.3388  0.6055
  839SOL     OW 3353   1.523   2.325   1.055 -0.0683  0.3592 -0.2262
  839SOL    HW1 3354   1.532   2.373   1.140 -1.4429 -1.5169  0.6004
  839SOL    HW2 3355   1.585   2.252   1.072 -0.7459 -2.6723  2.1834
  839SOL     MW 3356   1.533   2.321   1.069 -0.3391 -0.2883  0.2008
  840SOL     OW 3357   2.389   2.229   2.459  0.1067  0.4568 -0.7952
  840SOL    HW1 3358   2.384   2.306   2.404 -0.5184 -1.3961  2.5554
  840SOL    HW2 3359   2.336   2.255   2.533  0.9879  1.9349  0.7572
  840SOL     MW 3360   2.382   2.243   2.462  0.1405  0.4073 -0.1483
  841SOL     OW 3361   2.140   2.495   0.118 -0.9127  0.2604 -0.0535
  841SOL    HW1 3362   2.185   2.550   0.053 -0.6517 -0.9470 -1.1456
  841SOL    HW2 3363   2.117   2.423   0.059 -1.9522 -1.0224 -0.7807
  841SOL     MW 3364   2.143   2.493   0.102 -1.0154 -0.0682 -0.2935
  842SOL     OW 3365   2.655   2.107   1.569  0.4031 -0.1626  0.2036
  842SOL    HW1 3366   2.617   2.077   1.652  2.0905  0.6611 -0.8683
  842SOL    HW2 3367   2.591   2.065   1.507  0.4351 -0.8753  1.1501
  842SOL     MW 3368   2.642   2.098   1.572  0.6300 -0.1479  0.1870
  843SOL     OW 3369   2.667   2.765   1.753 -0.2873 -0.5472  0.4064
  843SOL    HW1 3370   2.755   2.731   1.770 -1.4525  0.2505 -0.2130
  843SOL    HW2 3371   2.634   2.707   1.675  0.1785  0.9678 -0.8298
  843SOL     MW 3372   2.674   2.753   1.745 -0.3796 -0.2421  0.1616
  844SOL     OW 3373   2.686   2.305   1.219  0.4052  0.0409  0.9710
  844SOL    HW1 3374   2.681   2.315   1.122 -0.3236  2.7379  1.1004
  844SOL    HW2 3375   2.736   2.381   1.251  3.1336  3.2070  2.6702
  844SOL     MW 3376   2.692   2.317   1.210  0.6690  0.8145  1.2123
  845SOL     OW 3377   2.874   2.472   0.341 -0.0519  0.0437  0.1199
  845SOL    HW1 3378   2.832   2.386   0.361  0.5204 -1.0478 -2.3686
  845SOL    HW2 3379   2.851   2.535   0.410 -0.9978 -0.6181  0.3442
  845SOL     MW 3380   2.865   2.469   0.353 -0.1012 -0.1876 -0.1788
  846SOL     OW 3381   1.508   2.875   0.746 -0.2100 -0.0827  0.5233
  846SOL    HW1 3382   1.560   2.919   0.811  1.3432  1.0615 -0.6029
  846SOL    HW2 3383   1.430   2.931   0.723  0.0685  0.4216  0.2105
  846SOL     MW 3384   1.505   2.888   0.752  0.0317  0.1348  0.3334
  847SOL     OW 3385   2.637   1.974   0.149 -0.5815 -0.0472  0.2189
  847SOL    HW1 3386   2.633   1.918   0.224 -1.4641  1.7782 -0.1813
  847SOL    HW2 3387   2.592   1.924   0.077 -0.2126 -2.1286 -2.3206
  847SOL     MW 3388   2.631   1.960   0.149 -0.6493 -0.0810 -0.1689
  848SOL     OW 3389   2.495   2.074   1.291  0.4414 -0.1390 -0.5193
  848SOL    HW1 3390   2.535   2.129   1.226  1.3820 -1.7632 -0.1991
  848SOL    HW2 3391   2.476   1.986   1.247 -1.2056 -1.3132  0.6138
  848SOL     MW 3392   2.498   2.070   1.277  0.3482 -0.5082 -0.3276
  849SOL     OW 3393   2.056   2.670   0.786  0.1324 -0.0595 -0.3554
  849SOL    HW1 3394   2.070   2.583   0.812 -2.8440  0.9371 -2.5434
  849SOL    HW2 3395   2.121   2.684   0.715 -0.2194  2.1648 -1.0674
  849SOL     MW 3396   2.066   2.660   0.780 -0.3067  0.3655 -0.7380
  850SOL     OW 3397   2.219   1.879   1.706 -0.0533  0.5844  0.5465
  850SOL    HW1 3398   2.138   1.836   1.678  0.8015  0.8351 -1.8342
  850SOL    HW2 3399   2.194   1.966   1.678 -0.5501 -0.6974 -2.9513
  850SOL     MW 3400   2.205   1.885   1.698 -0.0061  0.4484 -0.2291
  851SOL     OW 3401   2.287   2.386   0.311 -0.2861  0.2030  0.0514
  851SOL    HW1 3402   2.231   2.404   0.233  1.8710 -2.6536  1.0160
  851SOL    HW2 3403   2.356   2.462   0.305  1.0027 -0.4496  0.8961
  851SOL     MW 3404   2.289   2.398   0.300  0.1686 -0.2600  0.2901
  852SOL     OW 3405   2.327   2.103   0.282  0.2447 -0.0107  0.1078
  852SOL    HW1 3406   2.301   2.196   0.305 -0.5006  1.3766  2.4433
  852SOL    HW2 3407   2.389   2.117   0.210  1.0407  2.0546  0.4370
  852SOL     MW 3408   2.332   2.117   0.275  0.2514  0.4448  0.4594
  853SOL     OW 3409   2.437   2.432   1.860 -0.4185 -0.6020  0.1199
  853SOL    HW1 3410   2.463   2.482   1.781 -3.1083 -1.1563 -2.2541
  853SOL    HW2 3411   2.522   2.419   1.902 -3.0000  1.2944 -1.0627
  853SOL     MW 3412   2.452   2.437   1.855 -1.1140 -0.4249 -0.3494
  854SOL     OW 3413   2.810   2.256   0.768 -0.0043 -0.2374 -0.6949
  854SOL    HW1 3414   2.765   2.195   0.710 -0.7480 -1.2717  1.4778
  854SOL    HW2 3415   2.866   2.193   0.819 -1.0194  1.4901  3.1720
  854SOL     MW 3416   2.811   2.240   0.767 -0.2364 -0.1459  0.1019
  855SOL     OW 3417   2.730   2.241   0.371 -0.6825  0.1251  0.2786
  855SOL    HW1 3418   2.675   2.274   0.440 -0.2599  0.8698 -3.1742
  855SOL    HW2 3419   2.797   2.189   0.414 -0.3714  2.0067  2.3089
  855SOL     MW 3420   2.732   2.238   0.385 -0.5857  0.4716  0.0909
  856SOL     OW 3421   2.173   1.862   0.210  0.3010  0.3697 -0.2196
  856SOL    HW1 3422   2.076   1.856   0.218 -0.7139  0.9440  0.3766
  856SOL    HW2 3423   2.187   1.947   0.250 -1.5160 -1.3418  0.2541
  856SOL     MW 3424   2.162   1.872   0.216 -0.0726  0.2196 -0.0784
  857SOL     OW 3425   2.466   1.906   0.444  0.2162 -0.3516 -0.0461
  857SOL    HW1 3426   2.435   1.989   0.413 -1.0329  0.2688 -1.3666
  857SOL    HW2 3427   2.404   1.843   0.399 -2.2884  0.2051  1.1990
  857SOL     MW 3428   2.453   1.908   0.434 -0.2791 -0.1963 -0.0561
  858SOL     OW 3429   2.931   2.687   1.810 -0.1490 -0.2052 -0.6589
  858SOL    HW1 3430   3.028   2.675   1.823  0.0095 -0.9977  0.6476
  858SOL    HW2 3431   2.907   2.600   1.785  2.1358 -2.9059  4.8968
  858SOL     MW 3432   2.941   2.674   1.808  0.1734 -0.6661  0.2465
  859SOL     OW 3433   2.057   2.419   0.881 -0.2332  0.0934 -0.0821
  859SOL    HW1 3434   2.019   2.337   0.848  2.1175 -1.9452 -1.5993
  859SOL    HW2 3435   2.151   2.407   0.896 -2.6525  0.0309  0.3274
  859SOL     MW 3436   2.065   2.407   0.879 -0.2422 -0.1839 -0.2283
  860SOL     OW 3437   2.684   2.564   0.169 -0.3864  0.0256 -0.3457
  860SOL    HW1 3438   2.747   2.529   0.228 -0.5032 -0.6630 -1.7474
  860SOL    HW2 3439   2.723   2.653   0.141 -1.9388  2.6145  0.3377
  860SOL     MW 3440   2.698   2.571   0.173 -0.6067  0.2763 -0.4405
  861SOL     OW 3441   1.653   2.123   1.170 -0.7901 -0.0584  0.2126
  861SOL    HW1 3442   1.715   2.106   1.243  0.9471 -1.5144  0.1046
  861SOL    HW2 3443   1.590   2.048   1.184  0.9768 -1.6099 -0.9241
  861SOL     MW 3444   1.653   2.111   1.182 -0.3277 -0.4552  0.0484
  862SOL     OW 3445   2.434   1.863   1.534  0.2094 -0.0021  0.3692
  862SOL    HW1 3446   2.351   1.859   1.591  0.6548 -0.1198  1.1927
  862SOL    HW2 3447   2.416   1.877   1.442  0.7708  0.4687  1.7047
  862SOL     MW 3448   2.421   1.864   1.529  0.3423  0.0445  0.6541
  863SOL     OW 3449   3.014   1.820   1.222 -0.5312 -0.0153  0.3843
  863SOL    HW1 3450   3.056   1.748   1.265  0.9868  1.3977 -0.0368
  863SOL    HW2 3451   3.031   1.883   1.289 -0.9329 -2.9378 -0.9948
  863SOL     MW 3452   3.022   1.819   1.237 -0.3839 -0.2145  0.1468
  864SOL     OW 3453   0.032   1.860   0.922 -0.0669 -0.1499 -0.2540
  864SOL    HW1 3454   0.013   1.813   1.002  4.4517  0.6913 -1.0638
  864SOL    HW2 3455   0.009   1.796   0.857 -1.6600 -1.3594  0.4732
  864SOL     MW 3456   0.026   1.845   0.924  0.3191 -0.1985 -0.2649
  865SOL     OW 3457   2.479   2.159   0.039 -0.1627  0.3339 -0.6429
  865SOL    HW1 3458   2.536   2.088   0.093 -2.2330 -2.4147  1.4984
  865SOL    HW2 3459   2.470   2.120  -0.046  2.8874 -0.2845  2.4467
  865SOL     MW 3460   2.486   2.144   0.035 -0.0334 -0.1103  0.0473
  866SOL     OW 3461   2.699   2.390   1.525  0.3358 -0.9950 -0.0445
  866SOL    HW1 3462   2.679   2.303   1.490 -1.1296  0.4498  0.2706
  866SOL    HW2 3463   2.753   2.436   1.458 -0.2684 -1.5612  0.3433
  866SOL     MW 3464   2.704   2.384   1.511  0.0627 -0.8791  0.0482
  867SOL     OW 3465   0.108   2.690   1.863 -0.2223  0.0619 -0.5622
  867SOL    HW1 3466   0.181   2.673   1.916 -2.7403  0.7310  0.0694
  867SOL    HW2 3467   0.148   2.773   1.830 -0.1599 -0.0887  0.7170
  867SOL     MW 3468   0.123   2.699   1.865 -0.5463  0.1303 -0.3101
  868SOL     OW 3469   2.775   2.599   0.603 -0.2641 -0.7415  0.2759
  868SOL    HW1 3470   2.726   2.530   0.638 -1.6665  0.5168 -1.4548
  868SOL    HW2 3471   2.720   2.644   0.539  1.5136 -0.5120  2.0150
  868SOL     MW 3472   2.761   2.596   0.599 -0.2146 -0.5452  0.2770
  869SOL     OW 3473   1.903   2.311   1.083  0.0669 -0.4227  0.2028
  869SOL    HW1 3474   1.966   2.360   1.030 -1.6103  0.4599  0.7069
  869SOL    HW2 3475   1.822   2.326   1.044 -0.0084  3.3054  2.7215
  869SOL     MW 3476   1.900   2.320   1.071 -0.1643  0.1857  0.6016
  870SOL     OW 3477   2.314   0.111   0.529  0.2317  0.0626  0.2408
  870SOL    HW1 3478   2.329   0.105   0.437 -1.7159 -1.8255 -2.0768
  870SOL    HW2 3479   2.370   0.182   0.561  0.4503 -1.3729  0.8824
  870SOL     MW 3480   2.323   0.120   0.521  0.0036 -0.3759  0.0197
  871SOL     OW 3481   2.442   2.175   0.776  0.2572 -0.3617  0.0608
  871SOL    HW1 3482   2.394   2.105   0.751  0.8728  1.8618  1.0262
  871SOL    HW2 3483   2.402   2.212   0.856  1.9211  0.8037  1.7930
  871SOL     MW 3484   2.431   2.171   0.784  0.5579  0.0855  0.4167
  872SOL     OW 3485   2.044   2.569   1.469 -0.4905  0.3897 -0.3930
  872SOL    HW1 3486   2.012   2.607   1.550  1.3958 -0.0123  0.4170
  872SOL    HW2 3487   1.974   2.516   1.424 -1.6781 -1.9761 -0.4619
  872SOL     MW 3488   2.030   2.567   1.474 -0.3983  0.0245 -0.2952
  873SOL     OW 3489   2.837   2.045   1.881  0.4281 -0.7373 -0.1939
  873SOL    HW1 3490   2.877   2.109   1.948 -2.6044 -0.4565  1.0611
  873SOL    HW2 3491   2.900   2.026   1.810 -0.7927 -0.5481  0.5201
  873SOL     MW 3492   2.850   2.051   1.881 -0.1331 -0.6752  0.0659
  874SOL     OW 3493   2.418   1.554   2.276  0.2270 -0.4570  0.1210
  874SOL    HW1 3494   2.359   1.528   2.349  1.3770  2.0905 -1.6932
  874SOL    HW2 3495   2.483   1.481   2.265  2.3289  1.0667 -0.7701
  874SOL     MW 3496   2.419   1.541   2.284  0.6561  0.0801 -0.2359
  875SOL     OW 3497   2.326   2.375   0.959  0.2218  0.5184  0.2406
  875SOL    HW1 3498   2.398   2.406   0.893  1.7853 -1.4619 -2.0673
  875SOL    HW2 3499   2.356   2.406   1.044  3.8180 -0.8993 -0.0352
  875SOL     MW 3500   2.339   2.383   0.962  0.9026  0.0701 -0.1003
  876SOL     OW 3501   3.038   2.332   1.317  0.1540 -0.4383  0.3286
  876SOL    HW1 3502   3.059   2.364   1.232 -0.3620 -0.4394  0.1654
  876SOL    HW2 3503   3.096   2.386   1.381  1.0101 -1.8318  0.6613
  876SOL     MW 3504   3.049   2.343   1.314  0.1989 -0.6223  0.3509
  877SOL     OW 3505   3.086   2.809   0.433 -0.2052  0.0090 -0.2692
  877SOL    HW1 3506   3.079   2.904   0.421  1.1819 -1.0789 -1.7476
  877SOL    HW2 3507   3.104   2.769   0.349 -0.6004 -1.2354 -0.5611
  877SOL     MW 3508   3.087   2.817   0.420 -0.0743 -0.2987 -0.5028
  878SOL     OW 3509   2.410   1.831   1.235  0.2446  0.7659  0.0966
  878SOL    HW1 3510   2.348   1.764   1.279 -1.0571 -1.1902  0.4739
  878SOL    HW2 3511   2.490   1.790   1.196 -2.6563 -1.1253  1.3896
  878SOL     MW 3512   2.413   1.817   1.236 -0.3099  0.2583  0.3170
  879SOL     OW 3513   2.697   2.406   0.961  0.0478  0.3369 -0.1159
  879SOL    HW1 3514   2.750   2.482   0.982  0.5006 -0.5543 -1.1658
  879SOL    HW2 3515   2.751   2.347   0.907  0.4036  0.0854  2.6986
  879SOL     MW 3516   2.711   2.408   0.957  0.1545  0.1861  0.1170
  880SOL     OW 3517   2.716   2.039   0.597 -0.0362 -0.2315  0.4660
  880SOL    HW1 3518   2.633   1.991   0.623 -1.5273 -2.1963  1.4969
  880SOL    HW2 3519   2.693   2.072   0.512 -0.4754 -1.4516 -1.2158
  880SOL     MW 3520   2.702   2.037   0.589 -0.2909 -0.6517  0.3801
  881SOL     OW 3521   2.922   2.761   0.768  0.0094 -0.2230 -0.3148
  881SOL    HW1 3522   2.852   2.715   0.712 -1.6596 -0.1423  0.0348
  881SOL    HW2 3523   3.009   2.716   0.744  0.3356 -0.2193 -0.3864
  881SOL     MW 3524   2.925   2.749   0.758 -0.1678 -0.2118 -0.2781
  882SOL     OW 3525   2.262   2.867   1.898  0.5834 -0.7477 -0.8266
  882SOL    HW1 3526   2.240   2.830   1.813  0.7874 -1.4593 -0.6662
  882SOL    HW2 3527   2.231   2.797   1.952  1.1030 -1.6087  0.4376
  882SOL     MW 3528   2.255   2.853   1.894  0.6789 -0.9552 -0.6387
  883SOL     OW 3529   2.291   2.211   1.388 -0.5027 -0.3656 -0.2979
  883SOL    HW1 3530   2.361   2.148   1.348  0.5473  1.3958 -1.4869
  883SOL    HW2 3531   2.213   2.198   1.332 -2.6006  1.2601 -4.0833
  883SOL     MW 3532   2.290   2.201   1.375 -0.6409  0.0813 -0.9542
  884SOL     OW 3533   1.974   1.764   1.110  0.1946  0.1890 -0.3245
  884SOL    HW1 3534   1.901   1.824   1.072  1.7194  0.0750 -0.2093
  884SOL    HW2 3535   2.054   1.816   1.100 -0.9912  2.3363  2.6951
  884SOL     MW 3536   1.975   1.779   1.104  0.2393  0.4573  0.0891
  885SOL     OW 3537   2.844   2.439   1.747 -0.2635 -0.2839  0.3897
  885SOL    HW1 3538   2.911   2.377   1.756 -1.4196  2.3296  1.3643
  885SOL    HW2 3539   2.806   2.422   1.665  2.6162 -1.2073  1.1298
  885SOL     MW 3540   2.848   2.429   1.738 -0.0361 -0.0609  0.6160
  886SOL     OW 3541   2.856   2.508   1.333  0.1160  0.7412 -0.1786
  886SOL    HW1 3542   2.924   2.433   1.338 -1.1043 -0.0768 -0.2960
  886SOL    HW2 3543   2.909   2.583   1.362 -1.8596 -0.9345  0.2997
  886SOL     MW 3544   2.872   2.508   1.338 -0.3057  0.4122 -0.1309
  887SOL     OW 3545   2.333   2.617   1.470  0.1343 -0.0012 -0.4691
  887SOL    HW1 3546   2.337   2.636   1.376  0.3358 -2.1850 -0.0986
  887SOL    HW2 3547   2.242   2.585   1.475 -0.5175  1.5579  1.6698
  887SOL     MW 3548   2.322   2.616   1.458  0.0749 -0.0836 -0.1380
  888SOL     OW 3549   1.843   2.032   1.383 -0.2907  0.2805  0.4264
  888SOL    HW1 3550   1.914   2.043   1.312  0.3644 -1.3965  1.1450
  888SOL    HW2 3551   1.869   2.106   1.446  1.3914  2.5427 -1.7585
  888SOL     MW 3552   1.856   2.044   1.382  0.0177  0.3577  0.2330
  889SOL     OW 3553   2.269   2.082   2.099  0.0254  0.3160  0.5085
  889SOL    HW1 3554   2.354   2.062   2.144  0.6899 -1.0864 -0.9147
  889SOL    HW2 3555   2.283   2.129   2.014 -1.1859 -3.3737 -0.9883
  889SOL     MW 3556   2.282   2.086   2.094 -0.0468 -0.3559  0.1233
  890SOL     OW 3557   0.102   2.296   0.095  0.1484  0.1678 -0.1878
  890SOL    HW1 3558   0.031   2.344   0.056 -1.5351 -0.4245  0.1761
  890SOL    HW2 3559   0.071   2.274   0.186  0.1722  2.1814 -0.1772
  890SOL     MW 3560   0.089   2.299   0.102 -0.0706  0.3553 -0.1384
  891SOL     OW 3561   3.069   2.072   1.371 -0.0576 -0.3047 -0.5246
  891SOL    HW1 3562   3.130   2.087   1.440 -1.9231 -0.4501 -0.3453
  891SOL    HW2 3563   3.056   2.166   1.344 -0.0745 -2.3131  1.9053
  891SOL     MW 3564   3.076   2.086   1.376 -0.3059 -0.5888 -0.1803
  892SOL     OW 3565   2.345   2.348   2.900 -0.1356  0.0071  0.6632
  892SOL    HW1 3566   2.339   2.257   2.932 -0.4117  2.0758  1.6824
  892SOL    HW2 3567   2.438   2.355   2.875 -0.2023  1.0863  2.9835
  892SOL     MW 3568   2.356   2.337   2.901 -0.1808  0.4224  1.1038
  893SOL     OW 3569   1.573   2.488   1.286  0.0240  0.4526 -0.1936
  893SOL    HW1 3570   1.498   2.489   1.355 -4.0940  1.4691  1.2091
  893SOL    HW2 3571   1.647   2.448   1.330  1.2094 -0.9380  1.6829
  893SOL     MW 3572   1.573   2.483   1.301 -0.3629  0.4032  0.2390
  894SOL     OW 3573   2.902   1.821   0.558 -0.0823 -0.1528 -0.4737
  894SOL    HW1 3574   2.835   1.883   0.591 -5.0889  1.4221  2.3553
  894SOL    HW2 3575   2.864   1.799   0.468  1.9485  1.7458  1.2357
  894SOL     MW 3576   2.888   1.826   0.551 -0.4749  0.3055  0.1251
  895SOL     OW 3577   2.064   2.132   1.218  0.3617  0.2077 -0.1498
  895SOL    HW1 3578   2.019   2.199   1.163 -0.4842  0.0362  2.0286
  895SOL    HW2 3579   2.108   2.066   1.162 -0.0803 -0.9861  0.4244
  895SOL     MW 3580   2.064   2.132   1.203  0.1918  0.0276  0.2134
  896SOL     OW 3581   2.199   2.805   0.977 -0.6260 -0.1560  0.4499
  896SOL    HW1 3582   2.222   2.763   1.059  1.6808  2.2891  1.4757
  896SOL    HW2 3583   2.156   2.748   0.919  1.6801  1.0122  3.1172
  896SOL     MW 3584   2.196   2.792   0.980 -0.0173  0.3207  0.9372
  897SOL     OW 3585   2.995   2.916   0.182  0.0625  0.6911  0.2807
  897SOL    HW1 3586   3.081   2.906   0.134 -0.7077 -0.3174  2.0822
  897SOL    HW2 3587   2.926   2.878   0.121 -3.1867  0.9723 -0.3641
  897SOL     MW 3588   2.997   2.910   0.168 -0.4678  0.5951  0.4333
  898SOL     OW 3589   2.075   0.130   1.380  0.1222  0.0497  0.2551
  898SOL    HW1 3590   2.002   0.078   1.346 -0.5424  0.8122  0.1603
  898SOL    HW2 3591   2.104   0.184   1.309  1.1484  3.2278  0.3759
  898SOL     MW 3592   2.070   0.131   1.366  0.1699  0.5696  0.2585
  899SOL     OW 3593   2.866   2.975   0.577 -0.0471 -0.6709  0.4127
  899SOL    HW1 3594   2.882   2.906   0.643 -0.1190  0.6536  0.0301
  899SOL    HW2 3595   2.779   3.007   0.591  1.4368  1.4552 -1.4843
  899SOL     MW 3596   2.857   2.970   0.587  0.1392 -0.2156  0.1120
  900SOL     OW 3597   0.121   2.463   1.129  0.1893 -0.4431  0.0373
  900SOL    HW1 3598   0.144   2.550   1.096 -0.1319 -1.0274  0.7153
  900SOL    HW2 3599   0.096   2.408   1.052  1.5036 -1.4294  1.7109
  900SOL     MW 3600   0.120   2.467   1.114  0.3203 -0.6503  0.3475
  901SOL     OW 3601   1.725   2.841   1.778 -0.1365 -0.1896  0.2642
  901SOL    HW1 3602   1.796   2.778   1.750 -1.1092 -0.6581 -2.1997
  901SOL    HW2 3603   1.702   2.870   1.689 -0.4304  0.2544 -2.2636
  901SOL     MW 3604   1.732   2.837   1.762 -0.3037 -0.1928 -0.3944
  902SOL     OW 3605   2.555   2.085   1.814  0.5538  0.3382 -0.2243
  902SOL    HW1 3606   2.546   1.993   1.860 -1.1397 -0.1785  0.2930
  902SOL    HW2 3607   2.647   2.102   1.845  1.1877 -0.5732 -0.0174
  902SOL     MW 3608   2.566   2.075   1.824  0.4140  0.1498 -0.1287
  903SOL     OW 3609   1.679   2.787   0.529  0.0307  0.0923 -0.4629
  903SOL    HW1 3610   1.732   2.714   0.567 -1.6652  3.2557 -1.9850
  903SOL    HW2 3611   1.627   2.819   0.602 -0.3559 -0.9793 -1.9003
  903SOL     MW 3612   1.679   2.781   0.544 -0.2441  0.3683 -0.8533
  904SOL     OW 3613   2.534   2.558   1.638 -0.0719 -0.2050  0.0949
  904SOL    HW1 3614   2.452   2.572   1.590 -0.4975 -0.9630 -1.4296
  904SOL    HW2 3615   2.584   2.490   1.591 -2.9960 -2.1277  0.0459
  904SOL     MW 3616   2.529   2.551   1.626 -0.5139 -0.5587 -0.1127
  905SOL     OW 3617   2.405   2.551   2.112 -0.0093  0.1454 -0.2452
  905SOL    HW1 3618   2.433   2.523   2.024 -1.2726 -1.9033 -0.0555
  905SOL    HW2 3619   2.356   2.486   2.168 -0.8760 -0.0922  0.5861
  905SOL     MW 3620   2.402   2.539   2.108 -0.2903 -0.1562 -0.1105
  906SOL     OW 3621   2.504   2.509   0.798  0.6582  0.0131 -0.3930
  906SOL    HW1 3622   2.575   2.491   0.860  0.1341  1.3177 -1.0647
  906SOL    HW2 3623   2.477   2.601   0.819 -0.8604  2.7503 -0.7579
  906SOL     MW 3624   2.510   2.519   0.809  0.3886  0.5463 -0.5298
  907SOL     OW 3625   2.539   2.909   1.253  0.5358 -0.4517  0.2356
  907SOL    HW1 3626   2.574   2.882   1.335  0.3623  0.4414 -0.5939
  907SOL    HW2 3627   2.601   2.888   1.185  0.3514  0.2522 -1.0784
  907SOL     MW 3628   2.552   2.903   1.255  0.4886 -0.2410 -0.0472
  908SOL     OW 3629   2.649   2.357  -0.004  0.5137  0.2752 -0.1482
  908SOL    HW1 3630   2.586   2.286   0.031  0.6760 -0.5312  0.9167
  908SOL    HW2 3631   2.654   2.428   0.070 -0.4394 -0.9183  4.1615
  908SOL     MW 3632   2.641   2.357   0.010  0.4094  0.0114  0.5609
  909SOL     OW 3633   1.763   0.164   1.040 -0.4756  0.1937 -0.4603
  909SOL    HW1 3634   1.768   0.253   1.013  0.0600 -0.7686  1.5089
  909SOL    HW2 3635   1.747   0.167   1.134 -0.8172  0.2108 -0.1627
  909SOL     MW 3636   1.762   0.176   1.049 -0.4500  0.0690 -0.1612
  910SOL     OW 3637   2.290   1.671   0.405 -0.0169  0.2705  0.2742
  910SOL    HW1 3638   2.230   1.613   0.449 -1.6113 -0.2404  0.6959
  910SOL    HW2 3639   2.236   1.715   0.341  0.2365 -1.6722 -1.1453
  910SOL     MW 3640   2.275   1.669   0.402 -0.1938 -0.0532  0.1426
  911SOL     OW 3641   2.151   2.131   1.635 -0.2166  0.2892 -0.3436
  911SOL    HW1 3642   2.188   2.171   1.714  0.7595  1.7823 -1.0497
  911SOL    HW2 3643   2.201   2.163   1.559  0.9323  1.8452  0.6674
  911SOL     MW 3644   2.162   2.140   1.635  0.0638  0.6915 -0.3034
  912SOL     OW 3645   2.847   1.922   1.507  0.1309 -0.0868  0.3262
  912SOL    HW1 3646   2.895   1.971   1.440 -1.9064 -1.6233 -0.9772
  912SOL    HW2 3647   2.768   1.974   1.525  0.9707 -0.9880 -0.5258
  912SOL     MW 3648   2.843   1.935   1.501 -0.0271 -0.4084  0.0418
  913SOL     OW 3649   2.573   2.957   0.332 -0.2178 -0.7377  0.0858
  913SOL    HW1 3650   2.634   2.888   0.352 -1.1979  1.2517 -1.6998
  913SOL    HW2 3651   2.488   2.915   0.327  1.1430  0.1259  0.6417
  913SOL     MW 3652   2.570   2.943   0.334 -0.1676 -0.3613 -0.0764
  914SOL     OW 3653   2.804   1.653   0.018  0.1226 -0.2139  0.0944
  914SOL    HW1 3654   2.801   1.705  -0.068  0.7211 -0.6658  0.7236
  914SOL    HW2 3655   2.717   1.636   0.036  0.3239 -1.4285 -0.5873
  914SOL     MW 3656   2.792   1.658   0.009  0.2281 -0.4338  0.0874
  915SOL     OW 3657   1.916   0.175   0.252 -0.3859  0.2450 -0.8208
  915SOL    HW1 3658   1.969   0.097   0.275 -0.9961 -0.0475 -1.6834
  915SOL    HW2 3659   1.824   0.145   0.261  0.2730 -0.1370  0.1175
  915SOL     MW 3660   1.911   0.161   0.256 -0.3795  0.1560 -0.8108
  916SOL     OW 3661   1.860   2.081   1.988 -0.4159  0.3507  0.0554
  916SOL    HW1 3662   1.842   2.161   1.945  1.2564 -1.5034 -2.6922
  916SOL    HW2 3663   1.845   2.011   1.926 -1.1680  1.1009 -1.9236
  916SOL     MW 3664   1.856   2.082   1.974 -0.2945  0.2051 -0.5682
  917SOL     OW 3665   2.231   2.330   2.647 -0.4300  0.4699 -0.1488
  917SOL    HW1 3666   2.271   2.339   2.738  1.3744  0.1623  2.0994
  917SOL    HW2 3667   2.264   2.418   2.609 -0.9615  1.0710  0.0514
  917SOL     MW 3668   2.241   2.342   2.654 -0.2620  0.5086  0.1743
  918SOL     OW 3669   1.978   1.670   2.584 -0.1298  0.0585  0.8303
  918SOL    HW1 3670   1.907   1.672   2.517 -2.1735  0.4792 -1.5925
  918SOL    HW2 3671   2.041   1.732   2.544  0.7082 -2.4356  1.2670
  918SOL     MW 3672   1.977   1.679   2.570 -0.2889 -0.2150  0.5683
  919SOL     OW 3673   3.005   2.369   2.308 -0.2444  0.0716 -0.5281
  919SOL    HW1 3674   2.953   2.298   2.258  0.7916 -1.0324 -0.4773
  919SOL    HW2 3675   3.077   2.359   2.243 -0.3358  1.1234 -0.0468
  919SOL     MW 3676   3.008   2.359   2.293 -0.1197  0.0647 -0.4579
  920SOL     OW 3677   2.776   2.798   0.089 -0.2781  0.7983 -0.4950
  920SOL    HW1 3678   2.706   2.865   0.078 -1.7773 -1.6463  0.1090
  920SOL    HW2 3679   2.784   2.757   0.001  0.3685  0.1271  0.2941
  920SOL     MW 3680   2.768   2.801   0.076 -0.3906  0.3872 -0.3112
  921SOL     OW 3681   2.575   2.645   2.683  0.1387 -0.1458  0.6746
  921SOL    HW1 3682   2.636   2.635   2.611 -1.2159  4.4039  0.6115
  921SOL    HW2 3683   2.604   2.576   2.744 -4.1295 -0.0631 -2.1281
  921SOL     MW 3684   2.587   2.635   2.681 -0.6032  0.4654  0.2965
  922SOL     OW 3685   2.067   2.874   0.274 -1.0467 -0.0523  0.3002
  922SOL    HW1 3686   2.030   2.885   0.185 -0.8936 -2.1379  1.0237
  922SOL    HW2 3687   2.037   2.792   0.299  3.6608  0.4582  0.8766
  922SOL     MW 3688   2.058   2.865   0.265 -0.4054 -0.2601  0.4717
  923SOL     OW 3689   2.180   2.780   1.660 -0.5952 -0.0421 -0.8776
  923SOL    HW1 3690   2.226   2.738   1.584 -0.7744  2.4968 -1.0850
  923SOL    HW2 3691   2.190   2.870   1.636 -0.3513 -0.9876 -1.1765
  923SOL     MW 3692   2.187   2.786   1.647 -0.5866  0.1682 -0.9444
  924SOL     OW 3693   1.121   2.768   2.473  0.3510 -0.4669 -0.0606
  924SOL    HW1 3694   1.150   2.830   2.404  0.3023 -0.1040  0.4904
  924SOL    HW2 3695   1.197   2.729   2.514 -0.7898 -1.0527 -1.2326
  924SOL     MW 3696   1.135   2.771   2.469  0.1941 -0.4963 -0.1425
  925SOL     OW 3697   3.056   0.277   2.681 -0.0700 -0.1112 -0.2532
  925SOL    HW1 3698   3.074   0.305   2.592 -1.1267  0.8136 -2.4206
  925SOL    HW2 3699   3.021   0.350   2.735  0.0322  0.8785  0.3159
  925SOL     MW 3700   3.053   0.291   2.676 -0.1959  0.1414 -0.4641
  926SOL     OW 3701   2.689   2.385   1.970 -0.0899 -0.2191  0.6985
  926SOL    HW1 3702   2.737   2.448   2.025  0.1817  3.8846  2.2385
  926SOL    HW2 3703   2.726   2.381   1.878  2.5523  1.3764  1.0969
  926SOL     MW 3704   2.700   2.393   1.965  0.2946  0.5329  0.9542
  927SOL     OW 3705   2.391   0.179   0.264 -0.2832 -0.6809  0.2419
  927SOL    HW1 3706   2.477   0.205   0.232 -1.2469  0.7748 -1.0671
  927SOL    HW2 3707   2.331   0.157   0.186 -0.8013  2.0961  2.6575
  927SOL     MW 3708   2.394   0.180   0.249 -0.4787 -0.1224  0.3879
  928SOL     OW 3709   2.095   2.438   1.865 -0.4621  0.6402 -0.7080
  928SOL    HW1 3710   2.173   2.375   1.877  0.1811 -0.8388  1.6727
  928SOL    HW2 3711   2.111   2.516   1.922  1.1355  0.2890  0.8537
  928SOL     MW 3712   2.108   2.440   1.874 -0.1664  0.3987 -0.1879
  929SOL     OW 3713   2.701   2.313   2.496  0.5369 -0.0662 -0.2058
  929SOL    HW1 3714   2.627   2.258   2.480 -0.2159  0.6361  1.0616
  929SOL    HW2 3715   2.746   2.288   2.580 -0.6320 -0.7228 -0.3567
  929SOL     MW 3716   2.697   2.302   2.505  0.2834 -0.0602 -0.0585
  930SOL     OW 3717   2.011   2.912   2.717  0.6087 -0.5746 -0.5311
  930SOL    HW1 3718   2.019   2.867   2.804 -0.0864 -1.2060 -0.6546
  930SOL    HW2 3719   2.096   2.961   2.704 -1.7141 -1.0082 -1.2382
  930SOL     MW 3720   2.024   2.913   2.727  0.2106 -0.7151 -0.6407
  931SOL     OW 3721   2.978   2.797   2.077 -0.4977  0.4371  0.9893
  931SOL    HW1 3722   3.053   2.746   2.093  0.2046  3.0051 -1.4072
  931SOL    HW2 3723   2.940   2.768   1.992  1.0343  0.8137 -0.8737
  931SOL     MW 3724   2.983   2.787   2.068 -0.2029  0.8256  0.4273
  932SOL     OW 3725   2.795   1.953   2.538  0.6331 -0.5052  0.7821
  932SOL    HW1 3726   2.886   1.965   2.559  1.8176  1.5033 -3.7233
  932SOL    HW2 3727   2.792   1.974   2.445 -0.5069 -2.4684 -1.3999
  932SOL     MW 3728   2.807   1.958   2.528  0.6389 -0.4992 -0.1002
  933SOL     OW 3729   2.106   2.766   2.270 -0.1090  0.7727 -0.0882
  933SOL    HW1 3730   2.195   2.799   2.292  0.0768 -0.5069 -1.2474
  933SOL    HW2 3731   2.045   2.839   2.259  1.4222  0.4228 -0.0565
  933SOL     MW 3732   2.110   2.780   2.271  0.1176  0.5577 -0.2370
  934SOL     OW 3733   2.079   2.714   2.549 -0.2554  0.3470  0.0374
  934SOL    HW1 3734   2.047   2.790   2.599  1.2613 -2.2690 -1.9218
  934SOL    HW2 3735   2.082   2.744   2.456  1.9813 -0.7721 -3.2533
  934SOL     MW 3736   2.075   2.728   2.543  0.2398 -0.1458 -0.6553
  935SOL     OW 3737   2.655   1.569   1.854  0.0222  0.0040 -0.3299
  935SOL    HW1 3738   2.743   1.565   1.814  1.5920 -0.3236 -2.0036
  935SOL    HW2 3739   2.581   1.543   1.785  0.8615  0.6188 -1.9695
  935SOL     MW 3740   2.657   1.565   1.840  0.3401  0.0419 -0.7670
  936SOL     OW 3741   2.891   2.196   0.028 -0.1899 -0.2965 -0.2167
  936SOL    HW1 3742   2.891   2.278   0.082 -1.4552  0.8692 -0.0282
  936SOL    HW2 3743   2.803   2.208  -0.009  0.7295  1.2282 -1.9013
  936SOL     MW 3744   2.880   2.209   0.030 -0.2355  0.0585 -0.4141
  937SOL     OW 3745   1.968   2.276   2.621 -0.0070 -0.0914 -0.0299
  937SOL    HW1 3746   2.063   2.264   2.632  1.4525 -1.7558  0.6735
  937SOL    HW2 3747   1.945   2.256   2.525  2.6439  0.1220  0.0246
  937SOL     MW 3748   1.977   2.272   2.610  0.5353 -0.2829  0.0701
  938SOL     OW 3749   2.277   1.839   1.975  0.0995  0.1815  0.0664
  938SOL    HW1 3750   2.256   1.843   1.885  1.1835 -0.6484  0.7218
  938SOL    HW2 3751   2.254   1.917   2.028 -0.6422 -0.2307  2.8632
  938SOL     MW 3752   2.271   1.850   1.970  0.1447  0.0176  0.5219
  939SOL     OW 3753   2.751   2.029   2.275  0.5997  0.3182 -0.0663
  939SOL    HW1 3754   2.767   1.975   2.195  0.2734  1.1869  1.5229
  939SOL    HW2 3755   2.656   2.040   2.268 -2.9806  0.5392  0.7681
  939SOL     MW 3756   2.741   2.023   2.263  0.0842  0.4620  0.2535
  940SOL     OW 3757   2.324   0.179   2.640 -0.4071 -0.4044  0.0029
  940SOL    HW1 3758   2.281   0.093   2.637  1.0431  3.2851  2.0482
  940SOL    HW2 3759   2.342   0.189   2.735  0.5326  0.4036  1.2875
  940SOL     MW 3760   2.321   0.169   2.652 -0.0918  0.1890  0.4422
  941SOL     OW 3761   0.106   2.345   2.096 -0.1671 -0.1559 -0.1404
  941SOL    HW1 3762   0.177   2.297   2.114 -3.4169  1.6001 -1.6794
  941SOL    HW2 3763   0.077   2.309   2.010  0.8830  0.4198 -2.0983
  941SOL     MW 3764   0.111   2.334   2.087 -0.4573  0.1518 -0.6018
  942SOL     OW 3765   2.862   2.217   2.099  0.7611  0.4700 -0.2912
  942SOL    HW1 3766   2.797   2.269   2.053 -1.5646  0.8338 -1.1218
  942SOL    HW2 3767   2.811   2.161   2.158  1.2606 -0.4315  0.1786
  942SOL     MW 3768   2.847   2.217   2.101  0.5202  0.3990 -0.3388
  943SOL     OW 3769   0.184   2.038   2.327  0.6440 -0.1497  0.0892
  943SOL    HW1 3770   0.121   2.086   2.380  0.7708 -1.8850 -1.6723
  943SOL    HW2 3771   0.262   2.032   2.378 -0.8902 -0.2389 -0.0065
  943SOL     MW 3772   0.186   2.043   2.341  0.4583 -0.3904 -0.1559
  944SOL     OW 3773   2.168   2.637   2.027 -0.6155  0.2007 -0.3046
  944SOL    HW1 3774   2.261   2.610   2.053 -1.5563 -1.1928 -2.2258
  944SOL    HW2 3775   2.141   2.673   2.114  0.4451 -0.7778 -0.5800
  944SOL     MW 3776   2.177   2.639   2.042 -0.5997 -0.1123 -0.5944
  945SOL     OW 3777   2.797   2.632   2.959 -0.5933 -0.1108 -0.3151
  945SOL    HW1 3778   2.709   2.598   2.933  0.5512 -1.3465 -3.3319
  945SOL    HW2 3779   2.843   2.622   2.871 -0.2907 -1.6046  1.5554
  945SOL     MW 3780   2.791   2.626   2.944 -0.4023 -0.4709 -0.4664
  946SOL     OW 3781   2.552   2.728   2.280  0.2195 -0.4240  0.3130
  946SOL    HW1 3782   2.609   2.775   2.226 -0.5668 -2.9676  0.6435
  946SOL    HW2 3783   2.500   2.676   2.212  0.1315  1.8585  1.1208
  946SOL     MW 3784   2.552   2.727   2.264  0.1042 -0.4584  0.4632
  947SOL     OW 3785   2.089   3.091   0.426 -0.1556  0.4082  0.3530
  947SOL    HW1 3786   2.107   3.028   0.355  0.7750  1.2376 -0.5648
  947SOL    HW2 3787   2.171   3.123   0.460 -3.5868 -0.7457 -1.7125
  947SOL     MW 3788   2.102   3.087   0.421 -0.4855  0.3654 -0.0406
  948SOL     OW 3789   1.823   3.082   2.628  0.1998 -0.0945  0.0930
  948SOL    HW1 3790   1.890   3.017   2.632  3.2971 -0.4460  2.3788
  948SOL    HW2 3791   1.851   3.128   2.549 -0.7616  0.6333 -0.9136
  948SOL     MW 3792   1.835   3.079   2.618  0.4816 -0.0448  0.2618
  949SOL     OW 3793   2.472   2.013   2.258  0.3278 -0.3497  0.1539
  949SOL    HW1 3794   2.491   1.922   2.288  0.6843 -1.3502  1.1132
  949SOL    HW2 3795   2.459   2.062   2.340  0.0530 -0.6758  1.4110
  949SOL     MW 3796   2.473   2.008   2.273  0.3385 -0.5247  0.4463
  950SOL     OW 3797   2.285   2.610   3.007 -0.0361 -0.3536  0.3498
  950SOL    HW1 3798   2.300   2.530   2.963 -2.1977  0.3360 -0.0895
  950SOL    HW2 3799   2.200   2.636   2.963  0.3025 -1.8015 -0.6387
  950SOL     MW 3800   2.275   2.603   2.995 -0.2766 -0.4536  0.1614
  951SOL     OW 3801   2.881   2.059   2.879  0.0209  0.3427  0.1983
  951SOL    HW1 3802   2.929   2.092   2.953 -0.9988 -0.2486 -2.0569
  951SOL    HW2 3803   2.953   2.038   2.807  0.4551  1.5647 -1.9378
  951SOL     MW 3804   2.897   2.060   2.879 -0.0564  0.4259 -0.3811
  952SOL     OW 3805   3.048   1.688   2.071 -0.0813 -0.8318  0.8417
  952SOL    HW1 3806   2.958   1.721   2.071  0.6795  0.3215 -1.7001
  952SOL    HW2 3807   3.112   1.750   2.114  1.5780 -1.9414 -0.5019
  952SOL     MW 3808   3.044   1.700   2.077  0.2380 -0.8261  0.3290
  953SOL     OW 3809   1.930   1.810   2.813  0.1022  0.6287 -0.5815
  953SOL    HW1 3810   1.843   1.798   2.848 -1.3964  0.7332 -2.3053
  953SOL    HW2 3811   1.942   1.757   2.737  0.1858 -1.3355 -0.1360
  953SOL     MW 3812   1.920   1.802   2.808 -0.0845  0.3834 -0.7502
  954SOL     OW 3813   2.414   2.052   2.901  0.1290  0.1278  0.7990
  954SOL    HW1 3814   2.328   2.031   2.854  0.5632  0.3816  0.1058
  954SOL    HW2 3815   2.477   2.025   2.830 -0.1190 -0.8855  0.0756
  954SOL     MW 3816   2.411   2.046   2.885  0.1536  0.0276  0.6121
  955SOL     OW 3817   1.580   1.611   2.556  0.2469 -0.0869  0.2773
  955SOL    HW1 3818   1.530   1.592   2.475  1.4906 -0.5003 -0.5872
  955SOL    HW2 3819   1.653   1.665   2.513 -0.2461 -3.0561  0.2299
  955SOL     MW 3820   1.583   1.616   2.539  0.3459 -0.5332  0.1570
  956SOL     OW 3821   2.614   2.451   2.851  0.1498 -0.9996  0.1327
  956SOL    HW1 3822   2.626   2.414   2.941 -1.0114  2.5625 -3.7945
  956SOL    HW2 3823   2.677   2.402   2.794 -0.6499 -2.1328  0.5156
  956SOL     MW 3824   2.623   2.440   2.855 -0.1089 -0.6791 -0.3349
  957SOL     OW 3825   2.329   2.800   0.347 -0.2769  0.1246  0.5586
  957SOL    HW1 3826   2.249   2.844   0.324 -2.6744  1.9870  3.1054
  957SOL    HW2 3827   2.302   2.771   0.436 -0.3262  0.9794 -0.1253
  957SOL     MW 3828   2.315   2.802   0.355 -0.5997  0.4831  0.8043
  958SOL     OW 3829   2.031   2.712   2.916 -0.4998 -0.1580  0.1402
  958SOL    HW1 3830   1.997   2.642   2.855 -1.4860 -0.7782  2.4473
  958SOL    HW2 3831   1.950   2.754   2.942  2.3773  2.9263  1.0178
  958SOL     MW 3832   2.016   2.708   2.911 -0.2503  0.1671  0.5604
  959SOL     OW 3833   2.479   2.582   0.344 -0.0272  0.0324 -0.0246
  959SOL    HW1 3834   2.542   2.577   0.271  0.7269 -0.0580  0.7551
  959SOL    HW2 3835   2.426   2.663   0.322 -0.7252  3.2044  2.5130
  959SOL     MW 3836   2.480   2.592   0.331 -0.0198  0.4390  0.4131
  960SOL     OW 3837   1.966   2.476   2.339  0.0401 -0.3857 -0.1081
  960SOL    HW1 3838   1.955   2.379   2.357 -0.0016 -0.7127 -6.4545
  960SOL    HW2 3839   1.902   2.520   2.402  1.1564 -0.8498  0.7017
  960SOL     MW 3840   1.956   2.469   2.349  0.1819 -0.4901 -0.8386
  961SOL     OW 3841   2.249   2.454   2.328 -0.1486  0.2465 -0.1397
  961SOL    HW1 3842   2.153   2.457   2.321 -1.7403  0.3451  1.4247
  961SOL    HW2 3843   2.278   2.504   2.408 -2.3139  1.0479  1.6595
  961SOL     MW 3844   2.240   2.461   2.337 -0.6443  0.3652  0.3041
  962SOL     OW 3845   2.180   2.000   2.729 -0.0688  0.3283  0.3038
  962SOL    HW1 3846   2.124   1.968   2.795  2.4673  0.6632  1.6118
  962SOL    HW2 3847   2.146   1.963   2.644 -0.5015  1.1676  0.6134
  962SOL     MW 3848   2.168   1.991   2.726  0.2087  0.4833  0.5172
  963SOL     OW 3849   1.757   2.533   2.150 -0.7389 -0.4296  0.5203
  963SOL    HW1 3850   1.827   2.521   2.210  0.8316  1.4577  2.2226
  963SOL    HW2 3851   1.777   2.477   2.065 -1.9924 -0.9497 -2.2717
  963SOL     MW 3852   1.769   2.524   2.146 -0.6971 -0.2492  0.3765
  964SOL     OW 3853   1.846   2.029   2.658  0.2770  0.2425  0.0095
  964SOL    HW1 3854   1.897   2.113   2.650 -0.7532  0.6223 -0.9626
  964SOL    HW2 3855   1.895   1.994   2.728 -1.9239 -0.0513 -2.6065
  964SOL     MW 3856   1.859   2.035   2.666 -0.1493  0.2538 -0.4639
  965SOL     OW 3857   2.244   2.706   0.597 -0.1222  0.0954  0.1546
  965SOL    HW1 3858   2.217   2.613   0.582  0.8464 -1.7442  1.2655
  965SOL    HW2 3859   2.322   2.708   0.656 -1.9711  0.7026 -0.0787
  965SOL     MW 3860   2.251   2.694   0.603 -0.2383 -0.0672  0.2704
  966SOL     OW 3861   2.735   2.587   2.452 -0.3447  0.3465 -0.1928
  966SOL    HW1 3862   2.684   2.602   2.372 -0.1378 -2.6839 -2.2436
  966SOL    HW2 3863   2.739   2.494   2.457  0.0003  0.7163  2.3229
  966SOL     MW 3864   2.729   2.577   2.443 -0.2719 -0.0045 -0.1315
  967SOL     OW 3865   2.814   3.096   3.001  0.4075 -0.4455 -0.4683
  967SOL    HW1 3866   2.786   3.039   3.072  0.5220  0.1187 -0.1443
  967SOL    HW2 3867   2.732   3.120   2.957 -0.2906 -0.2281  1.8242
  967SOL     MW 3868   2.800   3.091   3.004  0.3305 -0.3423 -0.1231
  968SOL     OW 3869   3.007   2.474   3.080  0.4910  0.0205 -0.9934
  968SOL    HW1 3870   2.934   2.535   3.054  2.4424 -1.1894  0.7184
  968SOL    HW2 3871   3.046   2.456   2.993 -0.1280  2.3074 -0.8910
  968SOL     MW 3872   3.002   2.479   3.065  0.6668  0.1626 -0.7540
  969SOL     OW 3873   1.567   2.141   1.718 -0.6918  0.1316 -0.1470
  969SOL    HW1 3874   1.605   2.058   1.723 -2.7321 -1.0290 -0.3461
  969SOL    HW2 3875   1.534   2.153   1.807 -1.2849 -2.4281  1.5310
  969SOL     MW 3876   1.568   2.132   1.731 -1.0392 -0.3593  0.0481
  970SOL     OW 3877   1.660   1.683   1.817  0.0085 -0.1149 -0.2421
  970SOL    HW1 3878   1.716   1.666   1.894 -1.0005 -1.5143  0.9362
  970SOL    HW2 3879   1.568   1.689   1.850  1.1045  0.3137  2.1316
  970SOL     MW 3880   1.655   1.681   1.832  0.0200 -0.2429  0.2265
  971SOL     OW 3881   1.881   0.115   2.396  0.4901 -0.5553 -0.5547
  971SOL    HW1 3882   1.890   0.044   2.325 -0.9119 -2.4514 -3.1312
  971SOL    HW2 3883   1.964   0.164   2.389 -1.2938 -0.2595  0.3538
  971SOL     MW 3884   1.893   0.113   2.386  0.0697 -0.7664 -0.7748
  972SOL     OW 3885   0.246   2.818   2.537  0.4408 -0.1934  0.0100
  972SOL    HW1 3886   0.296   2.728   2.532 -1.3603 -2.2876 -2.4725
  972SOL    HW2 3887   0.294   2.899   2.508 -0.6433  3.3129 -0.6393
  972SOL     MW 3888   0.259   2.817   2.532  0.0601 -0.0071 -0.4032
  973SOL     OW 3889   2.654   3.055   2.122 -0.1872  0.0190  0.0410
  973SOL    HW1 3890   2.594   2.991   2.082  0.1969 -0.3521 -0.7113
  973SOL    HW2 3891   2.672   3.099   2.038  2.2730  2.6860 -1.8815
  973SOL     MW 3892   2.648   3.052   2.106  0.1881  0.3219 -0.3119
  974SOL     OW 3893   1.980   0.315   2.692  0.5302 -0.0766 -0.0942
  974SOL    HW1 3894   1.963   0.244   2.755  0.9923 -0.3552  0.1434
  974SOL    HW2 3895   1.892   0.352   2.669  2.4247  0.7195  0.1759
  974SOL     MW 3896   1.966   0.310   2.697  0.8411 -0.0083 -0.0272
  975SOL     OW 3897   2.335   2.565   2.560 -0.7622 -0.2449  0.4262
  975SOL    HW1 3898   2.412   2.583   2.619  1.9976  0.7788 -1.1128
  975SOL    HW2 3899   2.278   2.646   2.561  2.1405  1.4902 -1.0083
  975SOL     MW 3900   2.338   2.578   2.568 -0.0151  0.1191  0.0339
  976SOL     OW 3901   0.286   0.264   1.686 -0.2068 -0.3859  0.1922
  976SOL    HW1 3902   0.332   0.228   1.760  1.1584  0.3180  0.5859
  976SOL    HW2 3903   0.200   0.214   1.676 -2.6262 -1.1893  1.5589
  976SOL     MW 3904   0.281   0.253   1.695 -0.3459 -0.3990  0.4245
  977SOL     OW 3905   1.727   2.826   2.457  0.1187 -0.5952  0.2934
  977SOL    HW1 3906   1.754   2.736   2.455 -2.3401  0.4989  0.9325
  977SOL    HW2 3907   1.810   2.867   2.434 -0.8670  1.1021 -0.1192
  977SOL     MW 3908   1.741   2.820   2.454 -0.3358 -0.2269  0.3233
   3.10000   3.10000   3.10000
