977 TIP4P/2005f water molecules t=   1.74000 step= 1740
 3908
    1SOL     OW    1   0.405   0.784   0.108  0.5382  0.2482 -0.0689
    1SOL    HW1    2   0.338   0.777   0.044  0.9021 -2.9063 -1.0613
    1SOL    HW2    3   0.399   0.694   0.142 -1.9386  2.3100 -0.2027
    1SOL     MW    4   0.396   0.771   0.104  0.2594  0.1040 -0.2175
    2SOL     OW    5   0.312   3.019   1.084 -0.0175  0.1101  0.6550
    2SOL    HW1    6   0.355   3.109   1.074 -0.4911  0.8696 -1.9384
    2SOL    HW2    7   0.219   3.036   1.111 -0.4192 -1.0366 -1.2133
    2SOL     MW    8   0.305   3.033   1.086 -0.1330  0.0590  0.0663
    3SOL     OW    9   2.679   0.341   0.984  0.1072  1.0407 -0.0123
    3SOL    HW1   10   2.716   0.422   0.941 -0.4793 -1.7468  2.5975
    3SOL    HW2   11   2.657   0.370   1.081  2.1080 -1.0199 -0.3378
    3SOL     MW   12   2.681   0.356   0.991  0.2938  0.4010  0.2891
    4SOL     OW   13   2.942   1.700   0.510 -0.6045 -0.4121  0.4751
    4SOL    HW1   14   2.872   1.771   0.513  0.3026  0.5028  0.6403
    4SOL    HW2   15   3.003   1.732   0.443  2.0315 -0.9091  1.1700
    4SOL     MW   16   2.941   1.714   0.501 -0.1370 -0.3569  0.5886
    5SOL     OW   17   1.599   1.405   0.619  0.3263 -0.0459  0.1457
    5SOL    HW1   18   1.657   1.413   0.701  3.9477  1.7484 -0.2056
    5SOL    HW2   19   1.517   1.438   0.646  0.3697  0.8007 -1.7370
    5SOL     MW   20   1.596   1.411   0.633  0.8099  0.3025 -0.1491
    6SOL     OW   21   0.785   1.432   0.603  0.5748 -0.0324  0.1438
    6SOL    HW1   22   0.690   1.410   0.580  1.5097 -2.6871 -0.7111
    6SOL    HW2   23   0.818   1.356   0.656 -0.0587  0.2874 -0.8655
    6SOL     MW   24   0.777   1.419   0.607  0.6146 -0.3405 -0.1022
    7SOL     OW   25   1.953   1.048   0.012  0.1772 -1.0001  0.1812
    7SOL    HW1   26   2.006   1.121  -0.012  2.0746  0.2194 -1.6598
    7SOL    HW2   27   1.967   1.052   0.114 -2.0419 -2.4086  2.6183
    7SOL     MW   28   1.962   1.058   0.022  0.1348 -1.0251  0.2598
    8SOL     OW   29   0.801   1.455   1.053  0.3534 -0.6476 -0.3051
    8SOL    HW1   30   0.886   1.483   1.066 -0.5874  1.8277  0.4884
    8SOL    HW2   31   0.792   1.388   1.123  0.1813 -0.2081 -2.4698
    8SOL     MW   32   0.811   1.450   1.064  0.2066 -0.2630 -0.4860
    9SOL     OW   33   0.921   0.518   1.311  0.0370  0.1087  0.0068
    9SOL    HW1   34   0.862   0.451   1.264 -0.5404 -0.7565 -0.8713
    9SOL    HW2   35   0.977   0.473   1.373  0.9915 -0.8896 -0.3806
    9SOL     MW   36   0.921   0.503   1.313  0.0867 -0.1371 -0.1602
   10SOL     OW   37   0.294   0.821   0.483  0.1747 -0.3217 -0.3652
   10SOL    HW1   38   0.382   0.862   0.466  0.0399 -0.3267  2.1009
   10SOL    HW2   39   0.243   0.875   0.551 -0.5411 -1.1619  3.1584
   10SOL     MW   40   0.298   0.833   0.490  0.0625 -0.4332  0.4251
   11SOL     OW   41   0.774   1.133   1.480 -0.1218  0.1357 -0.5596
   11SOL    HW1   42   0.810   1.130   1.570 -1.4964 -2.2182 -0.7764
   11SOL    HW2   43   0.812   1.047   1.444  2.4343 -0.8842  0.2511
   11SOL     MW   44   0.784   1.121   1.487  0.0341 -0.3094 -0.4813
   12SOL     OW   45   0.049   1.077   0.913  0.5254 -0.2326  0.4292
   12SOL    HW1   46   0.096   1.158   0.942  1.1622 -1.5058 -1.4223
   12SOL    HW2   47  -0.009   1.119   0.847 -0.3012  1.7776 -2.4174
   12SOL     MW   48   0.048   1.093   0.908  0.5003 -0.1354 -0.1907
   13SOL     OW   49   1.816   1.404   1.304  0.0249  0.1794 -0.1503
   13SOL    HW1   50   1.825   1.321   1.258  0.5949  0.9743  0.8145
   13SOL    HW2   51   1.907   1.430   1.296  0.0561 -1.9117 -1.0991
   13SOL     MW   52   1.829   1.397   1.297  0.1042  0.0084 -0.1482
   14SOL     OW   53   0.566   0.322   1.806  0.9849 -0.3099  0.9034
   14SOL    HW1   54   0.498   0.259   1.783 -2.0466 -0.4048 -0.0305
   14SOL    HW2   55   0.634   0.300   1.746 -1.0516  0.0541  1.2488
   14SOL     MW   56   0.566   0.311   1.795  0.3163 -0.2744  0.8258
   15SOL     OW   57   2.008   0.429   0.982  0.4174  0.5123 -0.4689
   15SOL    HW1   58   2.019   0.510   1.033 -0.0761 -0.6575  0.0940
   15SOL    HW2   59   2.044   0.437   0.895 -0.1969 -1.4718  1.3396
   15SOL     MW   60   2.015   0.441   0.978  0.2713  0.0961 -0.1560
   16SOL     OW   61   0.266   1.816   0.278  0.3716  0.1215 -0.2180
   16SOL    HW1   62   0.347   1.774   0.303 -2.6612  0.3568 -0.4480
   16SOL    HW2   63   0.274   1.906   0.308 -1.7769  0.3889  0.4809
   16SOL     MW   64   0.277   1.822   0.286 -0.3120  0.1878 -0.1562
   17SOL     OW   65   1.120   0.856   1.412 -0.5050  0.1468  0.0379
   17SOL    HW1   66   1.140   0.849   1.509  1.5852 -1.5952 -1.6057
   17SOL    HW2   67   1.019   0.856   1.406 -0.1738 -0.5634  1.1460
   17SOL     MW   68   1.109   0.855   1.424 -0.1855 -0.1767 -0.0328
   18SOL     OW   69   0.044   1.646   0.345 -0.4429  0.1294  0.4832
   18SOL    HW1   70   0.107   1.706   0.300 -0.4332 -0.4221  1.0419
   18SOL    HW2   71   0.015   1.608   0.264  0.3336  0.3226 -0.8506
   18SOL     MW   72   0.049   1.649   0.328 -0.3392  0.0821  0.3810
   19SOL     OW   73   0.110   1.338   0.981  0.1924  0.6065  0.3637
   19SOL    HW1   74   0.119   1.393   0.904 -2.4404 -2.0967 -2.1712
   19SOL    HW2   75   0.015   1.339   1.003 -0.7962  2.9370  2.4682
   19SOL     MW   76   0.099   1.345   0.974 -0.2854  0.5573  0.3069
   20SOL     OW   77   0.442   2.117   1.261  0.2395  0.2409  0.1646
   20SOL    HW1   78   0.401   2.054   1.200  1.2061  3.3277 -3.1543
   20SOL    HW2   79   0.391   2.112   1.347  0.8042 -3.4099  1.8025
   20SOL     MW   80   0.430   2.108   1.264  0.4415  0.1665 -0.0572
   21SOL     OW   81   0.557   0.893   0.416 -0.1523  0.5964  0.2779
   21SOL    HW1   82   0.631   0.851   0.455  2.6312 -4.0619 -0.2096
   21SOL    HW2   83   0.592   0.924   0.330 -0.5390  1.0501  1.3871
   21SOL     MW   84   0.571   0.892   0.410  0.1639  0.0417  0.3599
   22SOL     OW   85   1.548   0.709   1.025 -0.2344  0.0824 -0.0529
   22SOL    HW1   86   1.571   0.701   0.935  0.6593  2.4929  0.8155
   22SOL    HW2   87   1.480   0.776   1.031  2.5129 -0.3599  1.0204
   22SOL     MW   88   1.542   0.717   1.014  0.2460  0.3421  0.2033
   23SOL     OW   89   3.049   0.813   0.741 -0.2976  0.0478 -0.4709
   23SOL    HW1   90   3.098   0.749   0.797  2.3242  2.2860  0.2348
   23SOL    HW2   91   3.110   0.883   0.718  2.0272 -0.1336 -0.6499
   23SOL     MW   92   3.064   0.814   0.745  0.3551  0.3192 -0.4014
   24SOL     OW   93   2.076   2.152   0.078  0.0125 -0.9820 -0.0277
   24SOL    HW1   94   2.026   2.164   0.163  1.9204 -0.4170  2.9194
   24SOL    HW2   95   2.065   2.066   0.034 -1.6500 -0.0119 -0.2178
   24SOL     MW   96   2.068   2.142   0.083  0.0449 -0.7795  0.3361
   25SOL     OW   97   0.218   1.438   0.417  0.2137  0.0577 -0.0418
   25SOL    HW1   98   0.164   1.524   0.414  1.4924 -2.8592 -1.2329
   25SOL    HW2   99   0.258   1.442   0.330  3.0769  0.6223 -1.3524
   25SOL     MW  100   0.216   1.450   0.405  0.7602 -0.2527 -0.3719
   26SOL     OW  101   2.006   1.064   0.271  0.1330 -0.2202 -0.1616
   26SOL    HW1  102   1.974   1.092   0.358 -0.1753 -0.1911 -0.4341
   26SOL    HW2  103   2.081   1.126   0.252 -2.3416  2.9707  1.4051
   26SOL     MW  104   2.012   1.076   0.280 -0.2342  0.2046  0.0091
   27SOL     OW  105   1.853   1.366   0.118  0.0327 -0.1041  0.3727
   27SOL    HW1  106   1.815   1.454   0.126 -0.5830 -0.0969 -0.0450
   27SOL    HW2  107   1.907   1.346   0.192 -1.0713  0.6072 -0.2125
   27SOL     MW  108   1.855   1.375   0.129 -0.1942 -0.0093  0.2404
   28SOL     OW  109   0.421   0.932   2.053  0.4552  0.1179  0.4559
   28SOL    HW1  110   0.476   0.927   2.133  1.4005 -0.6067  2.7173
   28SOL    HW2  111   0.324   0.915   2.062 -0.7907  0.9336  0.6087
   28SOL     MW  112   0.415   0.929   2.064  0.4155  0.1299  0.7744
   29SOL     OW  113   0.173   1.433   0.729 -0.4463  0.0875 -0.5114
   29SOL    HW1  114   0.210   1.526   0.721  0.3575 -0.2552 -0.3621
   29SOL    HW2  115   0.122   1.426   0.650 -2.8002 -1.2682  0.1301
   29SOL     MW  116   0.171   1.445   0.718 -0.6508 -0.1366 -0.4071
   30SOL     OW  117   0.723   1.278   1.236  0.8563  0.0156  0.4453
   30SOL    HW1  118   0.636   1.246   1.265  0.6810  2.0865 -0.9409
   30SOL    HW2  119   0.783   1.258   1.308 -1.6489 -0.2411 -1.5575
   30SOL     MW  120   0.720   1.271   1.250  0.5027  0.2549 -0.0019
   31SOL     OW  121   0.508   0.256   0.226  0.0705 -0.9927  0.1233
   31SOL    HW1  122   0.539   0.174   0.272 -0.1511 -0.6387 -2.3809
   31SOL    HW2  123   0.520   0.240   0.131 -2.0170  1.5728  1.7581
   31SOL     MW  124   0.513   0.243   0.219 -0.2342 -0.6075  0.0086
   32SOL     OW  125   2.707   0.963   1.070  0.0038  0.5072 -0.0534
   32SOL    HW1  126   2.662   0.877   1.102  0.3306 -2.3281  1.7407
   32SOL    HW2  127   2.802   0.940   1.068  2.2572  0.8439 -1.4744
   32SOL     MW  128   2.714   0.949   1.074  0.3442  0.1775 -0.0041
   33SOL     OW  129   1.606   1.240   0.408 -0.5254  0.0282  0.0349
   33SOL    HW1  130   1.686   1.201   0.440  2.9085  1.2921 -1.7424
   33SOL    HW2  131   1.590   1.301   0.480 -0.2634 -2.1073  2.3598
   33SOL     MW  132   1.614   1.243   0.422 -0.0378 -0.0868  0.1072
   34SOL     OW  133   1.152   1.979   1.148 -0.5352 -0.3276  0.2167
   34SOL    HW1  134   1.081   1.975   1.208  1.0708 -1.6847 -0.5896
   34SOL    HW2  135   1.230   1.985   1.203 -1.5968 -0.4876 -3.7225
   34SOL     MW  136   1.153   1.979   1.163 -0.4634 -0.5278 -0.4094
   35SOL     OW  137   0.348   0.140   1.729 -0.5058 -0.0941 -1.1221
   35SOL    HW1  138   0.377   0.083   1.802  0.5764 -0.7018 -0.9231
   35SOL    HW2  139   0.336   0.077   1.654 -0.3072 -2.2451 -2.2192
   35SOL     MW  140   0.350   0.124   1.729 -0.3368 -0.4581 -1.2406
   36SOL     OW  141   1.918   1.988   0.605 -0.1663  0.5333 -0.0695
   36SOL    HW1  142   1.927   1.976   0.513  0.9433  0.4586  2.2877
   36SOL    HW2  143   1.972   1.909   0.621  1.6690  0.5541  2.0112
   36SOL     MW  144   1.926   1.976   0.595  0.2223  0.5262  0.5161
   37SOL     OW  145   1.796   2.089   0.994 -0.4518  0.0014 -0.3285
   37SOL    HW1  146   1.736   2.037   0.937  1.1695 -2.6016 -1.6508
   37SOL    HW2  147   1.742   2.113   1.065 -0.9909 -2.0145 -3.3221
   37SOL     MW  148   1.781   2.085   0.996 -0.3090 -0.6080 -0.8980
   38SOL     OW  149   2.798   0.962   0.034 -0.0905 -0.0159 -0.4437
   38SOL    HW1  150   2.825   0.963   0.126 -2.8658 -2.2963 -0.8755
   38SOL    HW2  151   2.884   0.951  -0.017  2.2110  1.6412 -0.9349
   38SOL     MW  152   2.813   0.961   0.040 -0.1530 -0.0982 -0.5655
   39SOL     OW  153   1.520   0.666   0.740 -0.6120  0.0205 -0.2555
   39SOL    HW1  154   1.498   0.588   0.799 -0.9591  1.5492  1.8170
   39SOL    HW2  155   1.442   0.717   0.734  0.1741 -1.6873 -0.3832
   39SOL     MW  156   1.507   0.662   0.747 -0.5540 -0.0031  0.0011
   40SOL     OW  157   1.255   1.884   0.242  0.2125 -0.0038  0.4665
   40SOL    HW1  158   1.320   1.823   0.284 -1.2454 -3.2989 -1.3574
   40SOL    HW2  159   1.205   1.928   0.314 -0.8731 -0.8401  0.4516
   40SOL     MW  160   1.257   1.882   0.257 -0.1231 -0.5489  0.2239
   41SOL     OW  161   0.505   0.533   1.534  0.3464 -1.1714  0.5831
   41SOL    HW1  162   0.584   0.581   1.497  3.9924 -0.9462 -3.3481
   41SOL    HW2  163   0.435   0.601   1.527 -0.7795 -1.8266  2.6837
   41SOL     MW  164   0.506   0.548   1.528  0.6789 -1.2282  0.3416
   42SOL     OW  165   1.221   2.919   1.996  0.1359 -0.4359  0.1973
   42SOL    HW1  166   1.138   2.877   2.026 -0.2275 -3.8467  1.2855
   42SOL    HW2  167   1.283   2.855   2.027  0.9188 -0.5055  0.2695
   42SOL     MW  168   1.218   2.905   2.004  0.1912 -0.8951  0.3504
   43SOL     OW  169   1.410   0.097   1.697 -0.0231 -0.0528  0.2126
   43SOL    HW1  170   1.471   0.049   1.634  1.6376 -0.0850 -0.8274
   43SOL    HW2  171   1.330   0.034   1.699 -2.4136  2.2223 -0.1383
   43SOL     MW  172   1.407   0.083   1.689 -0.1194  0.2431  0.0291
   44SOL     OW  173   1.232   0.822   1.001 -0.1716  0.6778 -1.1368
   44SOL    HW1  174   1.193   0.908   0.987 -0.0478  1.5847  0.4564
   44SOL    HW2  175   1.182   0.780   1.076  2.2327 -0.5317 -0.7014
   44SOL     MW  176   1.220   0.828   1.009  0.1619  0.6379 -0.8692
   45SOL     OW  177   1.307   0.832   0.722  0.4374 -0.5022 -0.0344
   45SOL    HW1  178   1.259   0.837   0.804 -1.7617 -3.3269 -0.6438
   45SOL    HW2  179   1.242   0.777   0.672 -1.6398 -1.3060  0.7358
   45SOL     MW  180   1.292   0.825   0.726 -0.1268 -0.9809 -0.0132
   46SOL     OW  181   0.435   1.129   0.664 -0.2957 -0.1807  0.2033
   46SOL    HW1  182   0.476   1.136   0.576  0.0790 -0.2378  0.5094
   46SOL    HW2  183   0.413   1.214   0.697  0.2181  0.1307  0.0704
   46SOL     MW  184   0.437   1.141   0.657 -0.1784 -0.1471  0.2262
   47SOL     OW  185   0.095   2.005   1.913 -0.0624 -0.7505  0.8953
   47SOL    HW1  186   0.081   1.929   1.855 -0.6685  0.4909  1.9607
   47SOL    HW2  187   0.124   1.971   1.992 -1.1834  1.3270 -1.4784
   47SOL     MW  188   0.097   1.991   1.916 -0.2903 -0.3126  0.7227
   48SOL     OW  189   1.217   0.501   1.004  0.0376 -0.0575 -0.0920
   48SOL    HW1  190   1.196   0.465   0.920  0.3820 -1.5041 -0.5876
   48SOL    HW2  191   1.170   0.583   1.006  1.5782  1.1414  1.7235
   48SOL     MW  192   1.208   0.507   0.993  0.2863 -0.0902  0.0822
   49SOL     OW  193   1.684   0.698   1.563 -0.0030  0.4996 -0.5262
   49SOL    HW1  194   1.727   0.661   1.638 -0.8285  0.2701 -0.6707
   49SOL    HW2  195   1.735   0.676   1.488 -0.2867 -0.3182  0.5706
   49SOL     MW  196   1.696   0.690   1.563 -0.1494  0.3614 -0.4006
   50SOL     OW  197   1.311   1.214   0.626  0.4125  0.0715  0.4942
   50SOL    HW1  198   1.239   1.220   0.700 -0.9478 -0.8779  1.3605
   50SOL    HW2  199   1.381   1.147   0.662  1.3619 -0.5574 -0.1613
   50SOL     MW  200   1.311   1.206   0.641  0.3583 -0.1368  0.5220
   51SOL     OW  201   0.342   2.895   0.854  0.8037 -0.3400  0.3784
   51SOL    HW1  202   0.430   2.869   0.876  0.3564 -0.6445 -0.9797
   51SOL    HW2  203   0.317   2.947   0.937 -3.2474  0.3624 -3.0252
   51SOL     MW  204   0.350   2.898   0.868  0.2102 -0.2875 -0.2498
   52SOL     OW  205   0.788   1.825   0.484  0.0060  0.0515 -0.0163
   52SOL    HW1  206   0.777   1.922   0.482  1.6293  1.1683 -0.8637
   52SOL    HW2  207   0.814   1.798   0.396 -1.3022  0.1621  0.6730
   52SOL     MW  208   0.790   1.835   0.472  0.0476  0.2134 -0.0372
   53SOL     OW  209   0.482   2.136   0.590 -0.5860  0.2929 -0.3744
   53SOL    HW1  210   0.449   2.110   0.497  0.7999  0.1482 -0.8846
   53SOL    HW2  211   0.463   2.227   0.600  2.0082  1.0585 -1.2379
   53SOL     MW  212   0.475   2.145   0.579 -0.0609  0.3748 -0.5557
   54SOL     OW  213   2.029   0.971   0.741 -0.3450 -0.0874 -0.1301
   54SOL    HW1  214   2.099   0.948   0.681  1.4282 -0.8041  2.6377
   54SOL    HW2  215   2.007   0.893   0.790 -2.5104  0.7254 -2.0329
   54SOL     MW  216   2.036   0.958   0.739 -0.3968 -0.0747 -0.0160
   55SOL     OW  217   0.433   1.533   1.720 -0.1903  0.2400 -0.0633
   55SOL    HW1  218   0.380   1.567   1.648  0.8781  0.1053 -1.4758
   55SOL    HW2  219   0.523   1.512   1.685 -0.7286  1.4598  1.1874
   55SOL     MW  220   0.438   1.534   1.706 -0.1204  0.3832 -0.0847
   56SOL     OW  221   0.631   0.910   0.134 -0.5509 -0.3636 -0.0377
   56SOL    HW1  222   0.626   0.985   0.078 -1.5355 -3.5642 -2.7341
   56SOL    HW2  223   0.538   0.881   0.125  0.3801 -1.0261  1.4146
   56SOL     MW  224   0.618   0.916   0.126 -0.5580 -0.8733 -0.2019
   57SOL     OW  225   1.096   1.283   1.145  0.1602  0.1830 -0.1776
   57SOL    HW1  226   1.186   1.321   1.160  0.2567 -1.7552 -0.8748
   57SOL    HW2  227   1.074   1.234   1.231  0.2736 -0.3811  0.3389
   57SOL     MW  228   1.105   1.282   1.158  0.1879 -0.1471 -0.2014
   58SOL     OW  229   0.442   1.280   1.297 -0.6775  0.2553 -0.0729
   58SOL    HW1  230   0.400   1.368   1.291 -1.1955  0.0176  0.4863
   58SOL    HW2  231   0.445   1.246   1.390 -1.0120  1.1051 -1.9988
   58SOL     MW  232   0.437   1.287   1.309 -0.7900  0.3360 -0.2532
   59SOL     OW  233   1.433   1.683   0.380 -0.2028  0.1007 -0.4553
   59SOL    HW1  234   1.500   1.709   0.434 -1.2960  0.3717 -1.3254
   59SOL    HW2  235   1.361   1.686   0.450 -2.3138  0.3602  1.9764
   59SOL     MW  236   1.432   1.687   0.396 -0.6256  0.1707 -0.2493
   60SOL     OW  237   3.097   0.188   1.639 -0.1480  0.0377  0.3292
   60SOL    HW1  238   3.013   0.227   1.656  0.7395 -0.9828 -0.7512
   60SOL    HW2  239   3.121   0.138   1.725  0.4823 -1.8326  0.7631
   60SOL     MW  240   3.089   0.187   1.653  0.0523 -0.3437  0.2439
   61SOL     OW  241   1.969   1.341   2.975  0.5229  0.0241 -0.4614
   61SOL    HW1  242   1.931   1.329   3.066  1.2080  0.0605 -1.4767
   61SOL    HW2  243   2.040   1.277   2.951  0.1395  0.7458  0.4666
   61SOL     MW  244   1.973   1.331   2.984  0.5627  0.1241 -0.4729
   62SOL     OW  245   0.575   1.711   0.667 -0.4398  0.3584  0.3585
   62SOL    HW1  246   0.666   1.727   0.646 -1.0357 -0.0512 -2.0489
   62SOL    HW2  247   0.558   1.620   0.646  0.3701  0.2983 -2.2174
   62SOL     MW  248   0.585   1.701   0.662 -0.4116  0.2964 -0.2990
   63SOL     OW  249   1.737   0.718   0.597  0.8716  0.2481 -0.9798
   63SOL    HW1  250   1.705   0.788   0.534 -0.4326  0.2198 -1.2100
   63SOL    HW2  251   1.654   0.701   0.653 -0.7107  1.4457 -1.4317
   63SOL     MW  252   1.721   0.725   0.596  0.4907  0.4024 -1.0698
   64SOL     OW  253   0.277   1.692   0.693 -0.0201  0.4766 -0.4265
   64SOL    HW1  254   0.339   1.761   0.670 -0.0392 -0.0583 -0.2550
   64SOL    HW2  255   0.187   1.717   0.712 -2.5865  1.4537 -0.2957
   64SOL     MW  256   0.273   1.705   0.693 -0.3612  0.5349 -0.3866
   65SOL     OW  257   1.487   2.293   0.391 -0.0452  0.0077  0.0246
   65SOL    HW1  258   1.569   2.340   0.405 -3.3306  3.1319  1.2954
   65SOL    HW2  259   1.429   2.337   0.462  1.4896 -1.5369  2.3177
   65SOL     MW  260   1.490   2.305   0.402 -0.2762  0.2161  0.4948
   66SOL     OW  261   0.384   0.584   0.520 -0.1600 -0.3755  0.5146
   66SOL    HW1  262   0.460   0.584   0.459  1.4191 -0.3636  0.7748
   66SOL    HW2  263   0.357   0.674   0.531  2.5730 -3.5724  1.1903
   66SOL     MW  264   0.390   0.596   0.513  0.4090 -0.7957  0.6380
   67SOL     OW  265   1.410   0.060   1.966 -0.5835  0.1122 -0.1396
   67SOL    HW1  266   1.409   0.084   1.872 -4.0783  1.9920 -0.8721
   67SOL    HW2  267   1.337  -0.007   1.971 -1.9093 -0.5804  0.4082
   67SOL     MW  268   1.400   0.055   1.954 -1.2195  0.2688 -0.1640
   68SOL     OW  269   0.762   0.083   2.931 -0.0925  0.2659 -0.4964
   68SOL    HW1  270   0.744   0.109   2.843  0.4790  0.3794  1.4470
   68SOL    HW2  271   0.839   0.141   2.952  1.4169  2.7921 -3.4209
   68SOL     MW  272   0.770   0.094   2.922  0.1821  0.6142 -0.6258
   69SOL     OW  273   1.089   0.285   1.959 -0.3171  0.6325  0.3986
   69SOL    HW1  274   1.178   0.324   1.980  1.5776  2.2526  1.1629
   69SOL    HW2  275   1.055   0.245   2.038  1.3175 -1.5630 -0.1329
   69SOL     MW  276   1.097   0.285   1.973  0.1486  0.5565  0.4294
   70SOL     OW  277   0.519   1.736   1.107  0.3612  0.1513  0.1676
   70SOL    HW1  278   0.579   1.799   1.146  2.3800 -0.0823  2.0543
   70SOL    HW2  279   0.559   1.685   1.032  0.8983 -1.0740  1.2393
   70SOL     MW  280   0.532   1.737   1.102  0.6984 -0.0412  0.5579
   71SOL     OW  281   1.544   0.562   1.279  0.1677  0.5247  0.1058
   71SOL    HW1  282   1.494   0.635   1.333  0.2774  1.3112  0.4008
   71SOL    HW2  283   1.547   0.608   1.195  1.1795  2.1160  0.4640
   71SOL     MW  284   1.538   0.578   1.275  0.3156  0.8384  0.1920
   72SOL     OW  285   0.792   1.819   1.008 -0.4533 -0.0265  0.1973
   72SOL    HW1  286   0.814   1.897   0.952  2.1068 -1.0167  0.1193
   72SOL    HW2  287   0.825   1.756   0.942 -1.7027 -2.6011  1.5592
   72SOL     MW  288   0.800   1.821   0.992 -0.2803 -0.4969  0.3667
   73SOL     OW  289   1.115   0.699   1.206 -0.7841 -0.0069 -0.4573
   73SOL    HW1  290   1.032   0.651   1.225  0.5777 -0.2653 -3.9907
   73SOL    HW2  291   1.122   0.756   1.289  2.7968  2.3880  1.0464
   73SOL     MW  292   1.105   0.700   1.219 -0.1320  0.2750 -0.7251
   74SOL     OW  293   2.775   0.077   0.975  0.4288 -0.5524 -0.0446
   74SOL    HW1  294   2.857   0.043   0.942 -0.8790  0.3307 -0.9733
   74SOL    HW2  295   2.771   0.171   0.971 -0.3953 -2.3603 -0.6681
   74SOL     MW  296   2.785   0.085   0.970  0.1475 -0.6744 -0.2494
   75SOL     OW  297   1.514   1.330   0.177  0.0148 -0.7473  0.5994
   75SOL    HW1  298   1.574   1.293   0.111 -0.9201  0.0121 -1.2486
   75SOL    HW2  299   1.557   1.298   0.264 -0.7868 -2.8600 -0.6678
   75SOL     MW  300   1.528   1.321   0.180 -0.2143 -0.9259  0.1884
   76SOL     OW  301   3.032   0.690   0.458  0.2371 -0.1151 -0.8192
   76SOL    HW1  302   3.053   0.741   0.544  0.4097  1.3366  0.4621
   76SOL    HW2  303   3.110   0.640   0.435 -0.5736  2.3831 -0.0922
   76SOL     MW  304   3.045   0.690   0.467  0.1529  0.4060 -0.5542
   77SOL     OW  305   0.835   0.623   0.441  0.4717  0.4218 -0.1178
   77SOL    HW1  306   0.841   0.640   0.345 -1.5228 -0.3070 -0.5696
   77SOL    HW2  307   0.811   0.526   0.445  1.0766 -1.0860 -2.5023
   77SOL     MW  308   0.832   0.612   0.429  0.2884  0.1267 -0.4920
   78SOL     OW  309   0.785   0.867   1.083  0.7405 -0.1788 -0.3212
   78SOL    HW1  310   0.775   0.953   1.051 -1.0767  1.1018  0.7047
   78SOL    HW2  311   0.694   0.851   1.120  3.3654  0.2676  3.1232
   78SOL     MW  312   0.772   0.876   1.084  0.8471  0.0490  0.2686
   79SOL     OW  313   1.852   1.503   0.540  0.1751  0.2902  0.3006
   79SOL    HW1  314   1.761   1.471   0.550 -1.1650 -0.9200 -1.6374
   79SOL    HW2  315   1.895   1.509   0.625 -0.5160 -1.4152 -2.0735
   79SOL     MW  316   1.845   1.500   0.552 -0.0929 -0.0945 -0.2683
   80SOL     OW  317   0.177   0.974   0.290  0.7112 -0.0215 -0.0896
   80SOL    HW1  318   0.150   0.911   0.224  0.1172 -1.9910 -0.3431
   80SOL    HW2  319   0.212   0.917   0.360  1.9490  1.4304 -0.6077
   80SOL     MW  320   0.178   0.958   0.290  0.7962 -0.0898 -0.1914
   81SOL     OW  321   1.841   1.882   0.363  0.2638 -0.2804 -0.1356
   81SOL    HW1  322   1.821   1.799   0.325 -0.0386  0.3077  3.0548
   81SOL    HW2  323   1.800   1.949   0.295 -1.2737  3.9871 -0.0477
   81SOL     MW  324   1.833   1.880   0.349  0.0210  0.3603  0.2969
   82SOL     OW  325   0.965   1.038   0.555 -0.1152 -0.1831 -0.1452
   82SOL    HW1  326   0.925   1.097   0.490  0.0512  1.0169  0.2983
   82SOL    HW2  327   0.903   0.974   0.584 -0.0674  3.0306  0.8428
   82SOL     MW  328   0.952   1.037   0.550 -0.0869  0.3992  0.0437
   83SOL     OW  329   0.028   0.744   1.574 -0.4005 -0.3749  0.0420
   83SOL    HW1  330   0.034   0.806   1.486  0.7594  1.0028  0.0422
   83SOL    HW2  331   0.114   0.694   1.558  1.7569  0.2963 -1.6794
   83SOL     MW  332   0.040   0.745   1.560  0.0372 -0.1045 -0.1851
   84SOL     OW  333   0.020   0.178   0.926 -0.5679  0.0919 -0.2867
   84SOL    HW1  334   0.002   0.258   0.976  1.4166  0.0231 -0.2584
   84SOL    HW2  335   0.036   0.117   1.000 -0.0776  2.1223 -2.4028
   84SOL     MW  336   0.020   0.181   0.942 -0.2414  0.3507 -0.5622
   85SOL     OW  337   0.335   0.498   0.777  0.2983  0.0254  0.2611
   85SOL    HW1  338   0.361   0.514   0.687  1.0707  0.2820  1.4905
   85SOL    HW2  339   0.320   0.404   0.798 -2.0013  2.5900 -0.6118
   85SOL     MW  340   0.336   0.488   0.768  0.0968  0.3976  0.3081
   86SOL     OW  341   1.261   0.280   1.165  0.9731  0.3433  0.4150
   86SOL    HW1  342   1.254   0.365   1.119  2.0770 -1.5937  0.3411
   86SOL    HW2  343   1.349   0.278   1.204 -0.4109  2.7624  1.5940
   86SOL     MW  344   1.272   0.291   1.164  0.9362  0.4069  0.5608
   87SOL     OW  345   1.030   1.546   1.169 -0.1114  0.0155 -0.0238
   87SOL    HW1  346   1.098   1.607   1.136 -1.1246  4.7433  1.6748
   87SOL    HW2  347   1.053   1.458   1.142  0.7896 -0.0686 -2.6363
   87SOL     MW  348   1.042   1.543   1.161 -0.1262  0.6282 -0.1444
   88SOL     OW  349   1.170   1.084   0.982 -0.6264  0.3342 -0.3443
   88SOL    HW1  350   1.267   1.097   0.989 -1.0141 -0.0170  0.7908
   88SOL    HW2  351   1.129   1.147   1.045 -3.1856 -0.2684  1.6004
   88SOL     MW  352   1.177   1.094   0.991 -1.0152  0.2083  0.0621
   89SOL     OW  353   1.772   0.689   0.215  0.0179 -0.0379  0.4645
   89SOL    HW1  354   1.715   0.618   0.243 -0.7556 -1.4524 -2.0584
   89SOL    HW2  355   1.848   0.681   0.270  0.7290 -1.1161 -1.1956
   89SOL     MW  356   1.775   0.679   0.226  0.0097 -0.3668 -0.0874
   90SOL     OW  357   0.786   1.220   2.852  0.1300 -0.2901 -0.0781
   90SOL    HW1  358   0.847   1.158   2.884 -0.1699  2.1766  0.9467
   90SOL    HW2  359   0.781   1.291   2.916 -0.4833 -1.8883 -1.3309
   90SOL     MW  360   0.793   1.222   2.864  0.0095 -0.1755 -0.1082
   91SOL     OW  361   2.232   0.621   0.498  0.5129  0.2539  0.7265
   91SOL    HW1  362   2.289   0.683   0.444 -0.8360 -1.1789 -1.5205
   91SOL    HW2  363   2.232   0.539   0.441  1.5020  0.1002  0.8377
   91SOL     MW  364   2.239   0.619   0.483  0.4654  0.0446  0.4447
   92SOL     OW  365   1.637   0.957   0.508 -0.0880 -0.0171 -0.2499
   92SOL    HW1  366   1.592   0.970   0.591  2.4552 -2.3824 -1.6656
   92SOL    HW2  367   1.589   0.987   0.434  0.0813 -2.9272 -1.9465
   92SOL     MW  368   1.625   0.963   0.509  0.2699 -0.7131 -0.6606
   93SOL     OW  369   1.077   0.276   0.375  0.2745 -0.6740 -0.0290
   93SOL    HW1  370   0.997   0.322   0.390  0.9209  1.3582 -0.1968
   93SOL    HW2  371   1.112   0.302   0.286  0.1944  1.8265  0.2996
   93SOL     MW  372   1.071   0.286   0.366  0.3492 -0.0759 -0.0078
   94SOL     OW  373   1.885   1.375   1.601 -0.9157 -0.6111  0.0900
   94SOL    HW1  374   1.867   1.373   1.507  0.3924 -4.0541  2.8898
   94SOL    HW2  375   1.860   1.280   1.621 -0.5504 -0.8500  0.9365
   94SOL     MW  376   1.879   1.362   1.592 -0.6949 -1.0969  0.5711
   95SOL     OW  377   0.589   1.553   0.919 -0.1913 -0.1963 -0.1331
   95SOL    HW1  378   0.668   1.510   0.968 -0.1601  1.5918 -0.9213
   95SOL    HW2  379   0.527   1.482   0.906 -2.2454  0.8302 -1.0478
   95SOL     MW  380   0.591   1.538   0.924 -0.4582  0.1751 -0.3577
   96SOL     OW  381   1.323   1.858   1.683  0.2756 -0.0722 -0.1187
   96SOL    HW1  382   1.236   1.859   1.735 -2.0659 -1.5431 -0.9867
   96SOL    HW2  383   1.323   1.778   1.629 -0.9654 -1.5558  1.5151
   96SOL     MW  384   1.312   1.848   1.683 -0.1970 -0.4620 -0.0176
   97SOL     OW  385   1.103   1.570   0.833  0.5329  0.0177 -0.1648
   97SOL    HW1  386   1.150   1.640   0.886 -0.9831  0.9162  1.3287
   97SOL    HW2  387   1.012   1.573   0.870 -0.8404  0.0290  1.6259
   97SOL     MW  388   1.097   1.579   0.845  0.1517  0.1377  0.2685
   98SOL     OW  389   1.337   1.406   1.210  0.2822 -0.0922  0.7823
   98SOL    HW1  390   1.403   1.428   1.274 -1.1087 -1.4399 -1.1981
   98SOL    HW2  391   1.383   1.414   1.123  2.4939  2.4600 -0.3334
   98SOL     MW  392   1.352   1.410   1.207  0.3905  0.0667  0.3738
   99SOL     OW  393   1.512   0.302   1.342  0.1910  0.1720 -0.1072
   99SOL    HW1  394   1.521   0.393   1.305  1.0891 -2.3164 -0.4268
   99SOL    HW2  395   1.461   0.322   1.430 -1.2946 -0.9413  0.1957
   99SOL     MW  396   1.506   0.317   1.348  0.1135 -0.3032 -0.1094
  100SOL     OW  397   1.052   1.155   1.382  0.0351  0.3857  0.2824
  100SOL    HW1  398   1.095   1.201   1.458 -0.8051  0.0018  2.3113
  100SOL    HW2  399   1.099   1.069   1.365  1.7540  2.3918 -0.0931
  100SOL     MW  400   1.064   1.150   1.390  0.1511  0.5997  0.5006
  101SOL     OW  401   0.547   1.228   0.420  0.2502  0.4180  0.4231
  101SOL    HW1  402   0.490   1.188   0.353 -1.5566 -2.6971 -1.8552
  101SOL    HW2  403   0.629   1.181   0.406  2.1040  0.8922 -0.3521
  101SOL     MW  404   0.550   1.216   0.409  0.2564  0.0696  0.0202
  102SOL     OW  405   2.952   0.607   1.104 -0.3453 -0.2505 -0.0097
  102SOL    HW1  406   2.989   0.690   1.099  0.0592 -1.9474  0.4430
  102SOL    HW2  407   2.926   0.611   1.197  1.4753 -1.8602 -1.7532
  102SOL     MW  408   2.954   0.619   1.116 -0.0518 -0.6867 -0.1800
  103SOL     OW  409   1.855   0.253   1.776 -0.1941  0.0177 -0.2597
  103SOL    HW1  410   1.848   0.159   1.762  1.3868  1.7138 -0.3185
  103SOL    HW2  411   1.861   0.260   1.875 -0.1460  1.6466 -0.3807
  103SOL     MW  412   1.855   0.242   1.787  0.0208  0.4564 -0.2835
  104SOL     OW  413   0.048   1.539   1.681  0.0668 -0.4380  0.6217
  104SOL    HW1  414   0.088   1.447   1.698 -0.2730  2.6217 -0.4818
  104SOL    HW2  415  -0.043   1.518   1.668  1.9166  1.4106 -1.7352
  104SOL     MW  416   0.041   1.524   1.681  0.2660  0.2096  0.1652
  105SOL     OW  417   0.035   1.227   0.412  0.7754 -0.0733  0.0179
  105SOL    HW1  418   0.095   1.156   0.393  0.9749  0.7121  1.7870
  105SOL    HW2  419   0.080   1.312   0.406 -0.0574 -1.9510  2.6895
  105SOL     MW  420   0.049   1.229   0.409  0.6918 -0.2174  0.6038
  106SOL     OW  421   0.786   0.275   0.832 -0.0125 -0.7078 -0.0960
  106SOL    HW1  422   0.715   0.330   0.870 -0.2581  2.3967 -1.1385
  106SOL    HW2  423   0.862   0.335   0.830  2.5848 -0.6199  2.2999
  106SOL     MW  424   0.786   0.290   0.837  0.2977 -0.2866  0.0826
  107SOL     OW  425   0.796   2.212   2.893 -0.6426  0.1960 -0.1489
  107SOL    HW1  426   0.698   2.206   2.890 -3.4711 -0.6716  0.2640
  107SOL    HW2  427   0.814   2.169   2.980  0.9399 -0.1725 -0.4628
  107SOL     MW  428   0.785   2.206   2.904 -0.8070  0.0329 -0.1358
  108SOL     OW  429   1.338   1.570   1.631 -0.3011  0.2289  0.3277
  108SOL    HW1  430   1.296   1.553   1.546 -4.7730 -1.2474 -0.7109
  108SOL    HW2  431   1.432   1.535   1.645  0.2749  1.3106 -1.9936
  108SOL     MW  432   1.345   1.563   1.621 -0.8151  0.1768 -0.1156
  109SOL     OW  433   2.035   0.763   0.349 -0.0065  0.2048  0.1537
  109SOL    HW1  434   2.022   0.856   0.359 -0.9855 -2.4342 -2.8302
  109SOL    HW2  435   2.095   0.735   0.420  1.8653  2.0391  0.7043
  109SOL     MW  436   2.041   0.771   0.360  0.1113  0.0987 -0.1674
  110SOL     OW  437   0.420   1.937   0.739  0.0921 -0.2839  0.3998
  110SOL    HW1  438   0.497   1.880   0.738  2.3759 -0.2053 -2.6079
  110SOL    HW2  439   0.446   2.014   0.679 -2.4412 -3.6813 -2.0076
  110SOL     MW  440   0.433   1.940   0.731  0.0592 -0.7218 -0.3146
  111SOL     OW  441   0.862   0.877   1.348 -0.2405  0.2282  0.0453
  111SOL    HW1  442   0.844   0.875   1.255  0.9426  0.7226  0.2238
  111SOL    HW2  443   0.824   0.803   1.390 -0.6454  1.6832 -1.6924
  111SOL     MW  444   0.855   0.867   1.341 -0.1378  0.4854 -0.1604
  112SOL     OW  445   1.401   1.112   1.606 -0.1629  0.5695  0.3586
  112SOL    HW1  446   1.335   1.180   1.607 -1.0152 -1.3736 -0.9036
  112SOL    HW2  447   1.358   1.028   1.630  0.6773  0.0771 -2.2212
  112SOL     MW  448   1.387   1.110   1.609 -0.1645  0.2482 -0.1483
  113SOL     OW  449   1.231   3.003   1.725 -0.1671 -0.3024 -0.2943
  113SOL    HW1  450   1.203   2.964   1.810  2.5060 -1.0416 -0.2432
  113SOL    HW2  451   1.199   2.958   1.649 -1.5679  0.1378 -0.3752
  113SOL     MW  452   1.223   2.992   1.726  0.0008 -0.3418 -0.2982
  114SOL     OW  453   0.358   2.870   1.768  0.8830 -0.1384  0.2420
  114SOL    HW1  454   0.447   2.927   1.769  2.6583  1.2643  1.8325
  114SOL    HW2  455   0.309   2.902   1.848  0.1550  1.3471  0.3617
  114SOL     MW  456   0.363   2.882   1.779  1.0212  0.2426  0.4676
  115SOL     OW  457   0.550   0.841   1.181  0.0488 -0.3192 -0.0810
  115SOL    HW1  458   0.517   0.755   1.164  1.3846 -0.9200 -0.4458
  115SOL    HW2  459   0.469   0.900   1.193 -0.5269  1.4233 -3.2187
  115SOL     MW  460   0.535   0.837   1.180  0.1491 -0.1686 -0.5432
  116SOL     OW  461   0.698   1.124   0.960 -0.4568 -0.3378  0.5775
  116SOL    HW1  462   0.732   1.150   0.867 -1.2415  3.7702 -0.3492
  116SOL    HW2  463   0.741   1.191   1.016  0.8548  2.1908  0.5373
  116SOL     MW  464   0.708   1.137   0.955 -0.3873  0.5378  0.4499
  117SOL     OW  465   1.124   1.301   0.802 -0.2848  0.2525 -0.2062
  117SOL    HW1  466   1.117   1.267   0.894 -0.4114  0.0298  2.8508
  117SOL    HW2  467   1.101   1.401   0.813 -2.2677  0.6202  0.0506
  117SOL     MW  468   1.120   1.310   0.816 -0.5631  0.2716  0.2311
  118SOL     OW  469   3.067   2.930   1.805  0.4149 -0.3828 -0.1849
  118SOL    HW1  470   3.098   3.000   1.860  2.6019  0.0100 -0.7467
  118SOL    HW2  471   2.976   2.947   1.772  0.6208 -0.1135 -0.9375
  118SOL     MW  472   3.059   2.942   1.808  0.7306 -0.2954 -0.3583
  119SOL     OW  473   0.369   1.544   1.265 -0.1347 -0.0009  0.9850
  119SOL    HW1  474   0.417   1.616   1.215 -1.1168 -2.7971 -1.6948
  119SOL    HW2  475   0.283   1.544   1.223  0.9990  1.2463  0.0928
  119SOL     MW  476   0.364   1.554   1.253 -0.1147 -0.2053  0.5137
  120SOL     OW  477   0.272   0.832   0.991 -0.1205  0.3815 -0.3172
  120SOL    HW1  478   0.244   0.921   1.007 -0.1503 -0.2656 -0.5751
  120SOL    HW2  479   0.346   0.846   0.931  0.7123  0.3212  0.3039
  120SOL     MW  480   0.278   0.846   0.985 -0.0146  0.2881 -0.2693
  121SOL     OW  481   1.783   1.121   1.610  0.2269  0.1916  0.1349
  121SOL    HW1  482   1.713   1.128   1.543  0.2956  0.1342  0.2559
  121SOL    HW2  483   1.852   1.075   1.567 -1.1570  1.4741 -3.1917
  121SOL     MW  484   1.783   1.115   1.595  0.0534  0.3533 -0.2880
  122SOL     OW  485   0.110   0.656   0.865  0.8321  0.3578  0.9103
  122SOL    HW1  486   0.189   0.624   0.825  0.4843  1.3800  0.1027
  122SOL    HW2  487   0.154   0.727   0.907  0.6951 -2.6035 -0.2160
  122SOL     MW  488   0.126   0.661   0.865  0.7681  0.1020  0.6552
  123SOL     OW  489   1.868   1.101   0.534  0.0674  0.1671  0.2629
  123SOL    HW1  490   1.809   1.024   0.528  0.8059 -0.4336  0.5798
  123SOL    HW2  491   1.928   1.077   0.603 -0.5418 -0.7313 -1.3362
  123SOL     MW  492   1.868   1.088   0.542  0.0845 -0.0307  0.0937
  124SOL     OW  493   0.608   0.465   0.942 -0.0834  0.2028 -0.5814
  124SOL    HW1  494   0.523   0.483   0.897 -1.0843 -1.0361 -1.1570
  124SOL    HW2  495   0.667   0.539   0.915 -2.0573  2.9934  1.2273
  124SOL     MW  496   0.605   0.477   0.932 -0.4759  0.4075 -0.4187
  125SOL     OW  497   0.677   1.697   1.749 -0.1858 -0.1792 -0.7225
  125SOL    HW1  498   0.684   1.650   1.665 -0.1243 -1.8093 -0.3197
  125SOL    HW2  499   0.622   1.771   1.726  1.4020 -2.0593  2.0417
  125SOL     MW  500   0.671   1.701   1.735  0.0318 -0.6423 -0.3047
  126SOL     OW  501   2.116   1.543   1.916 -0.3136  0.0166  0.2451
  126SOL    HW1  502   2.174   1.614   1.896 -0.4680 -2.5436 -3.3325
  126SOL    HW2  503   2.168   1.465   1.923 -0.3629  0.3449 -0.0301
  126SOL     MW  504   2.130   1.542   1.914 -0.3404 -0.2779 -0.2632
  127SOL     OW  505   0.513   0.779   1.813 -0.4483 -0.3402  0.1766
  127SOL    HW1  506   0.601   0.738   1.835 -1.6982 -0.6736 -1.7233
  127SOL    HW2  507   0.483   0.821   1.892 -1.2546  1.1681  3.3510
  127SOL     MW  508   0.521   0.779   1.826 -0.7196 -0.1852  0.3448
  128SOL     OW  509   1.732   0.737   2.886 -0.2686  0.3402 -0.0408
  128SOL    HW1  510   1.774   0.719   2.805  1.7069 -2.2282 -0.2365
  128SOL    HW2  511   1.734   0.830   2.896 -2.0775  0.7874 -1.5892
  128SOL     MW  512   1.738   0.747   2.877 -0.2466  0.0604 -0.2709
  129SOL     OW  513   1.565   0.860   0.184 -0.2418  0.2511 -0.1948
  129SOL    HW1  514   1.522   0.795   0.132  0.6875 -0.9379 -0.9410
  129SOL    HW2  515   1.648   0.816   0.198  1.8015  0.7977 -0.0818
  129SOL     MW  516   1.570   0.845   0.179  0.1504  0.1664 -0.2783
  130SOL     OW  517   0.829   1.465   0.347 -0.4562 -0.2411  0.3273
  130SOL    HW1  518   0.804   1.477   0.436  2.7626 -0.8024 -0.7022
  130SOL    HW2  519   0.927   1.476   0.343  2.7117  1.0157  1.2024
  130SOL     MW  520   0.838   1.468   0.358  0.3865 -0.1494  0.3069
  131SOL     OW  521   0.070   0.800   0.123 -0.0287 -0.4775  0.2700
  131SOL    HW1  522   0.030   0.841   0.048 -0.3023  2.0779 -2.0764
  131SOL    HW2  523   0.125   0.729   0.089  0.7336 -1.0321  0.6482
  131SOL     MW  524   0.072   0.796   0.108  0.0358 -0.2135  0.0103
  132SOL     OW  525   2.738   0.085   1.246 -0.7884 -0.0548  0.1754
  132SOL    HW1  526   2.762   0.094   1.156  0.7284 -0.8116  0.0930
  132SOL    HW2  527   2.649   0.053   1.221 -0.3397 -1.0091 -2.8455
  132SOL     MW  528   2.729   0.082   1.231 -0.5291 -0.2805 -0.2340
  133SOL     OW  529   1.031   0.114   1.691  0.3960 -0.4731  0.7747
  133SOL    HW1  530   1.095   0.044   1.709 -0.5525  0.3068  2.0987
  133SOL    HW2  531   1.022   0.155   1.776 -0.0430  0.8021  2.1739
  133SOL     MW  532   1.038   0.110   1.704  0.2129 -0.2020  1.1340
  134SOL     OW  533   1.399   2.479   1.449  0.2663 -0.0225  0.0837
  134SOL    HW1  534   1.336   2.555   1.445 -4.2842 -0.4383 -0.2530
  134SOL    HW2  535   1.458   2.505   1.512 -2.0864  0.8077 -2.5382
  134SOL     MW  536   1.398   2.492   1.456 -0.6445  0.0322 -0.3066
  135SOL     OW  537   3.024   0.983   2.963  0.0289  0.1446  0.0964
  135SOL    HW1  538   3.112   1.028   2.971 -1.4571  1.6302  1.7727
  135SOL    HW2  539   2.959   1.041   2.912 -1.0715 -1.5055 -0.4231
  135SOL     MW  540   3.027   0.996   2.957 -0.3124  0.1229  0.2490
  136SOL     OW  541   0.170   1.980   0.881 -0.8076  0.3367  0.3347
  136SOL    HW1  542   0.125   1.914   0.832  2.3246  0.6790 -1.5486
  136SOL    HW2  543   0.257   1.979   0.831 -0.2527 -0.7984 -0.3120
  136SOL     MW  544   0.176   1.971   0.868 -0.3211  0.2321  0.0009
  137SOL     OW  545   0.744   2.072   0.596 -0.1352  0.0754  0.0152
  137SOL    HW1  546   0.764   2.055   0.691 -0.4042 -2.5757  1.4416
  137SOL    HW2  547   0.654   2.110   0.594  2.0107  2.1463  0.6265
  137SOL     MW  548   0.735   2.074   0.608  0.1125 -0.0011  0.2841
  138SOL     OW  549   0.465   0.585   1.146  0.0007  0.1794 -0.9651
  138SOL    HW1  550   0.381   0.551   1.156  0.8946  0.5367  0.4177
  138SOL    HW2  551   0.514   0.517   1.101 -0.8147  2.7177  0.0210
  138SOL     MW  552   0.461   0.572   1.141  0.0111  0.5614 -0.6525
  139SOL     OW  553   2.845   0.535   1.365  0.1072  0.0166  0.0502
  139SOL    HW1  554   2.930   0.488   1.349  0.4377 -0.9796  2.2924
  139SOL    HW2  555   2.858   0.573   1.453 -2.3359 -2.4227  0.7670
  139SOL     MW  556   2.858   0.534   1.374 -0.1715 -0.4367  0.4406
  140SOL     OW  557   0.880   0.462   1.948  0.5167 -0.0104  0.1408
  140SOL    HW1  558   0.963   0.410   1.956 -1.3828 -2.1759 -0.3206
  140SOL    HW2  559   0.842   0.449   2.034  0.3967 -0.4719  2.1106
  140SOL     MW  560   0.886   0.454   1.960  0.2502 -0.3570  0.3398
  141SOL     OW  561   1.075   0.621   1.665  0.5960  0.1383  0.4209
  141SOL    HW1  562   1.086   0.529   1.640 -0.1593  0.7656 -2.0342
  141SOL    HW2  563   1.158   0.667   1.667  4.0053  0.0854  2.3616
  141SOL     MW  564   1.087   0.615   1.662  0.9462  0.2141  0.3530
  142SOL     OW  565   0.866   1.216   0.739  0.3263  0.0260 -0.1774
  142SOL    HW1  566   0.887   1.137   0.682 -2.0221  1.0334 -0.9548
  142SOL    HW2  567   0.950   1.256   0.769 -0.4764  2.2657  1.4809
  142SOL     MW  568   0.880   1.211   0.736 -0.0895  0.4544 -0.0612
  143SOL     OW  569   1.830   0.724   1.028  0.0864 -0.2641  0.2023
  143SOL    HW1  570   1.866   0.721   0.943 -0.8294 -1.6708 -0.6094
  143SOL    HW2  571   1.738   0.737   1.021  0.7822 -0.1066 -1.2436
  143SOL     MW  572   1.823   0.726   1.016  0.0573 -0.4289 -0.0955
  144SOL     OW  573   0.240   1.319   1.726 -0.4811  0.0833 -0.0930
  144SOL    HW1  574   0.329   1.361   1.713 -1.1515 -1.2306  1.5528
  144SOL    HW2  575   0.270   1.257   1.789 -1.1037  1.9527 -0.3539
  144SOL     MW  576   0.256   1.316   1.732 -0.6517  0.1566  0.0897
  145SOL     OW  577   0.221   0.491   1.206  0.9514  0.1795 -0.5330
  145SOL    HW1  578   0.269   0.418   1.246  0.8155 -0.4510 -2.5291
  145SOL    HW2  579   0.169   0.460   1.134 -0.8698 -0.5351 -1.1408
  145SOL     MW  580   0.221   0.477   1.202  0.6931  0.0020 -0.8766
  146SOL     OW  581   0.776   1.945   1.507 -0.0012  0.7231  0.6602
  146SOL    HW1  582   0.789   1.967   1.409  0.9839 -0.3528  0.2505
  146SOL    HW2  583   0.710   1.870   1.505 -0.5260  0.3066 -0.2150
  146SOL     MW  584   0.769   1.938   1.494  0.0595  0.5262  0.4907
  147SOL     OW  585   0.473   0.499   2.937 -0.2900  0.0157  0.7169
  147SOL    HW1  586   0.389   0.509   2.987  0.2670  4.8536  0.4711
  147SOL    HW2  587   0.465   0.574   2.880  1.6129 -0.5280  0.1724
  147SOL     MW  588   0.461   0.511   2.936  0.0346  0.5823  0.6126
  148SOL     OW  589   0.050   0.919   1.372 -0.4145 -0.1261 -0.1295
  148SOL    HW1  590   0.147   0.927   1.354  1.3727 -1.8854 -0.1297
  148SOL    HW2  591   0.018   1.006   1.361  0.8071  0.7431 -0.5201
  148SOL     MW  592   0.059   0.932   1.368 -0.0175 -0.2436 -0.1811
  149SOL     OW  593   1.593   1.184   1.389 -0.8587 -0.1729  0.6947
  149SOL    HW1  594   1.512   1.181   1.444  2.1545  1.1158 -2.7208
  149SOL    HW2  595   1.589   1.269   1.344 -0.4233  0.3271  0.9711
  149SOL     MW  596   1.581   1.195   1.390 -0.4037  0.0631  0.2805
  150SOL     OW  597   1.727   1.467   0.855 -0.1675  0.0522 -0.5999
  150SOL    HW1  598   1.791   1.406   0.890 -1.7807 -2.8080  1.7966
  150SOL    HW2  599   1.771   1.553   0.851 -1.5596  1.5957 -2.3285
  150SOL     MW  600   1.742   1.470   0.859 -0.5640 -0.1215 -0.5118
  151SOL     OW  601   1.625   1.885   0.828 -0.6542 -0.0278 -0.0944
  151SOL    HW1  602   1.603   1.860   0.737  1.2477  0.1510  0.9253
  151SOL    HW2  603   1.565   1.842   0.891 -1.4644  1.1884  0.5018
  151SOL     MW  604   1.614   1.876   0.824 -0.5102  0.1563  0.1188
  152SOL     OW  605   0.648   1.419   1.562 -0.0031 -0.3984  0.2150
  152SOL    HW1  606   0.712   1.456   1.498  1.2882  3.2427 -1.3223
  152SOL    HW2  607   0.615   1.331   1.539 -0.5827  1.2745  0.8482
  152SOL     MW  608   0.652   1.413   1.550  0.0908  0.3027  0.0957
  153SOL     OW  609   2.580   1.225   0.719  0.3311  0.5446  0.0066
  153SOL    HW1  610   2.656   1.184   0.684  0.0110  1.5271 -0.9077
  153SOL    HW2  611   2.518   1.149   0.719 -4.2668 -0.1339 -0.4157
  153SOL     MW  612   2.582   1.210   0.714 -0.3178  0.5847 -0.1698
  154SOL     OW  613   0.118   1.780   1.774  0.0503 -0.2848 -0.4749
  154SOL    HW1  614   0.096   1.685   1.747  0.1907  2.3685 -0.0711
  154SOL    HW2  615   0.195   1.760   1.832  0.9320 -4.0756 -0.3973
  154SOL     MW  616   0.125   1.765   1.778  0.1852 -0.4349 -0.4114
  155SOL     OW  617   1.221   0.700   0.295 -0.1359 -0.4488  0.3304
  155SOL    HW1  618   1.215   0.668   0.382  1.4571  2.5630 -2.7956
  155SOL    HW2  619   1.202   0.797   0.305 -1.6290  1.7391  0.2364
  155SOL     MW  620   1.217   0.709   0.308 -0.1227  0.2372 -0.0945
  156SOL     OW  621   1.561   0.005   1.075  0.2125 -0.0253 -0.2467
  156SOL    HW1  622   1.625   0.037   1.131 -0.6541 -0.9042 -0.6703
  156SOL    HW2  623   1.588  -0.086   1.057  1.0898  0.2452  1.8099
  156SOL     MW  624   1.573  -0.003   1.080  0.2139 -0.1056 -0.0313
  157SOL     OW  625   1.320   1.129   0.196 -0.1766 -0.3443 -0.0078
  157SOL    HW1  626   1.347   1.053   0.240 -1.3310  2.2285  0.1093
  157SOL    HW2  627   1.392   1.192   0.186  0.7885  2.6030  1.1099
  157SOL     MW  628   1.333   1.127   0.201 -0.2016  0.3840  0.1551
  158SOL     OW  629   0.384   1.651   2.238 -0.2306 -0.6810  0.6453
  158SOL    HW1  630   0.434   1.725   2.205  0.0224  0.7905  1.2840
  158SOL    HW2  631   0.307   1.644   2.176 -0.2838  2.7128  0.1199
  158SOL     MW  632   0.380   1.660   2.226 -0.2042 -0.0391  0.6602
  159SOL     OW  633   1.194   1.671   0.538 -0.1269  0.7300 -0.1803
  159SOL    HW1  634   1.162   1.640   0.452  1.7133  1.8465 -0.4444
  159SOL    HW2  635   1.125   1.730   0.575  1.4598  2.7364 -2.7070
  159SOL     MW  636   1.181   1.675   0.532  0.3252  1.1420 -0.5485
  160SOL     OW  637   0.505   1.135   1.532 -0.0527 -0.8047  0.5340
  160SOL    HW1  638   0.481   1.045   1.548 -2.6148  1.3570 -2.9193
  160SOL    HW2  639   0.601   1.130   1.521  1.1067  2.7829  1.3437
  160SOL     MW  640   0.514   1.123   1.533 -0.2378 -0.0461  0.1852
  161SOL     OW  641   0.460   2.271   2.684  0.2877  0.5981 -0.0924
  161SOL    HW1  642   0.368   2.281   2.655  2.8155  0.6620  2.5765
  161SOL    HW2  643   0.484   2.182   2.659 -0.0568  0.0249 -1.0508
  161SOL     MW  644   0.451   2.261   2.677  0.5758  0.5309  0.1333
  162SOL     OW  645   1.093   1.819   1.793  0.0300  0.3252  0.6153
  162SOL    HW1  646   1.075   1.901   1.849  0.0569  0.4187 -1.7592
  162SOL    HW2  647   1.065   1.752   1.854 -1.3175 -1.3833  1.7106
  162SOL     MW  648   1.087   1.821   1.809 -0.1443  0.1121  0.4465
  163SOL     OW  649   2.129   3.083   0.828  0.1433 -0.6023 -0.8280
  163SOL    HW1  650   2.120   3.160   0.772  0.5323  2.7373  0.3559
  163SOL    HW2  651   2.071   3.015   0.788 -0.1545  1.4383  1.2402
  163SOL     MW  652   2.120   3.084   0.815  0.1553  0.1076 -0.3990
  164SOL     OW  653   0.287   0.225   0.862  0.2163 -0.3544  0.5411
  164SOL    HW1  654   0.193   0.215   0.890  0.4251  0.0618 -0.9070
  164SOL    HW2  655   0.290   0.158   0.793 -0.7127  0.2464 -0.1134
  164SOL     MW  656   0.275   0.215   0.856  0.1213 -0.2202  0.2637
  165SOL     OW  657   1.182   1.317   0.400 -0.5090 -0.2377 -0.2491
  165SOL    HW1  658   1.240   1.284   0.480 -0.3661 -2.4378  2.1892
  165SOL    HW2  659   1.206   1.257   0.334  1.1372  2.9060 -2.3054
  165SOL     MW  660   1.193   1.305   0.402 -0.2730 -0.1132 -0.1987
  166SOL     OW  661   0.419   1.162   1.041 -0.5661 -0.1581 -0.2801
  166SOL    HW1  662   0.417   1.192   1.132 -5.2322 -0.3907 -0.9496
  166SOL    HW2  663   0.518   1.163   1.021  1.0022  0.5131 -1.9160
  166SOL     MW  664   0.432   1.166   1.050 -0.9748 -0.1002 -0.5843
  167SOL     OW  665   0.831   1.164   0.356  0.3359 -0.2860  0.4583
  167SOL    HW1  666   0.863   1.256   0.355  2.2931  1.3803  4.5130
  167SOL    HW2  667   0.871   1.109   0.286  1.6914  1.0393 -0.1530
  167SOL     MW  668   0.841   1.169   0.347  0.7730  0.1087  0.9126
  168SOL     OW  669   1.713   1.646   3.039  0.6179 -0.2102 -0.3196
  168SOL    HW1  670   1.644   1.715   3.021  2.8986  2.0798 -0.1379
  168SOL    HW2  671   1.681   1.559   3.007 -1.9542  0.2838  0.8281
  168SOL     MW  672   1.699   1.643   3.033  0.5795  0.1571 -0.1442
  169SOL     OW  673   0.328   0.971   1.326 -0.3982 -0.4159  0.4230
  169SOL    HW1  674   0.359   0.936   1.404  0.1212 -0.3397  0.1179
  169SOL    HW2  675   0.343   1.063   1.341 -1.4268  1.5892  0.3496
  169SOL     MW  676   0.334   0.979   1.338 -0.4654 -0.1413  0.3731
  170SOL     OW  677   1.131   1.508   1.469 -0.3769  0.2719 -0.0779
  170SOL    HW1  678   1.099   1.593   1.500 -0.4985 -0.4435 -4.1791
  170SOL    HW2  679   1.094   1.509   1.380  0.6587  0.0085 -1.4302
  170SOL     MW  680   1.122   1.519   1.462 -0.2563  0.1428 -0.7974
  171SOL     OW  681   0.506   1.452   0.562 -0.5624  0.3268 -0.5480
  171SOL    HW1  682   0.404   1.454   0.561 -1.7962  0.7096  1.7805
  171SOL    HW2  683   0.507   1.364   0.509 -0.8929 -1.9901 -1.4213
  171SOL     MW  684   0.493   1.441   0.555 -0.7688  0.0716 -0.3560
  172SOL     OW  685   0.748   0.301   1.304 -0.2476 -0.1257  0.4611
  172SOL    HW1  686   0.744   0.259   1.221 -1.1144  0.8637 -0.2515
  172SOL    HW2  687   0.799   0.244   1.374  4.6952  0.2623  0.5701
  172SOL     MW  688   0.754   0.288   1.302  0.2902  0.0560  0.3815
  173SOL     OW  689   0.527   1.736   0.341 -0.8215  0.6346 -0.0945
  173SOL    HW1  690   0.544   1.649   0.328 -1.9938  3.3803  1.5538
  173SOL    HW2  691   0.577   1.763   0.415 -3.2642  2.9609  0.7972
  173SOL     MW  692   0.536   1.728   0.349 -1.2985  1.3038  0.2407
  174SOL     OW  693   1.897   0.933   1.469 -0.1015 -0.0355 -0.1897
  174SOL    HW1  694   1.815   0.898   1.494  0.8353  0.3810  1.1215
  174SOL    HW2  695   1.896   0.938   1.374 -1.6708  0.9059  1.4092
  174SOL     MW  696   1.886   0.929   1.460 -0.1850  0.1436  0.1942
  175SOL     OW  697   0.573   1.468   0.197  0.3145 -0.1946  0.6288
  175SOL    HW1  698   0.556   1.376   0.188 -0.8819 -0.2881 -1.3735
  175SOL    HW2  699   0.654   1.459   0.243  2.4318 -1.4883  0.6583
  175SOL     MW  700   0.582   1.454   0.202  0.4360 -0.3776  0.3685
  176SOL     OW  701   0.085   1.514   1.179  0.1538 -0.3388  0.0594
  176SOL    HW1  702   0.095   1.447   1.106 -0.4694  1.0065 -2.6961
  176SOL    HW2  703  -0.005   1.504   1.217 -1.6503  0.2595  0.3660
  176SOL     MW  704   0.074   1.504   1.175 -0.1665 -0.0823 -0.2637
  177SOL     OW  705   0.507   0.275   1.415  0.0499 -0.2266 -0.0391
  177SOL    HW1  706   0.593   0.294   1.369 -0.2524  0.7994  1.0050
  177SOL    HW2  707   0.478   0.359   1.465  2.3094  1.5018 -1.1861
  177SOL     MW  708   0.514   0.289   1.415  0.3081  0.1368 -0.0527
  178SOL     OW  709   3.063   0.541   3.002 -0.0347  0.3763 -0.6158
  178SOL    HW1  710   2.971   0.520   3.043 -0.3020 -1.0824 -0.4598
  178SOL    HW2  711   3.066   0.507   2.917 -2.9749  1.4527 -0.0766
  178SOL     MW  712   3.051   0.534   2.996 -0.4579  0.3258 -0.5241
  179SOL     OW  713   1.555   1.485   1.379  0.1618  0.2459 -1.1182
  179SOL    HW1  714   1.547   1.471   1.475 -1.5262  0.9780  0.3738
  179SOL    HW2  715   1.651   1.472   1.352 -0.4709  0.9397  2.0938
  179SOL     MW  716   1.567   1.481   1.388 -0.1444  0.4341 -0.4975
  180SOL     OW  717   0.019   0.240   0.418  0.3335 -0.1416 -0.0215
  180SOL    HW1  718  -0.072   0.254   0.387 -3.9043 -0.4028 -0.7535
  180SOL    HW2  719   0.059   0.326   0.445  0.1992 -0.8726  1.5563
  180SOL     MW  720   0.012   0.253   0.418 -0.2434 -0.2725  0.0901
  181SOL     OW  721   1.087   1.336   0.009 -0.2090 -0.3489 -0.0308
  181SOL    HW1  722   1.160   1.398   0.034  1.8856 -1.4835 -0.1381
  181SOL    HW2  723   1.119   1.293  -0.070  0.6680  4.0323  1.1428
  181SOL     MW  724   1.101   1.338   0.002  0.1831  0.0795  0.1099
  182SOL     OW  725   0.368   0.907   1.583 -0.0146 -0.7644  0.0320
  182SOL    HW1  726   0.292   0.921   1.638 -3.6213  0.0203 -2.0760
  182SOL    HW2  727   0.442   0.881   1.634 -0.8496  1.5624 -1.0611
  182SOL     MW  728   0.367   0.905   1.597 -0.6006 -0.3538 -0.3903
  183SOL     OW  729   1.578   1.755   1.272  0.3221 -0.2626  0.1390
  183SOL    HW1  730   1.671   1.757   1.266 -1.6335 -0.5029 -2.6370
  183SOL    HW2  731   1.564   1.668   1.316 -0.8977 -1.8079 -0.3360
  183SOL     MW  732   1.589   1.744   1.277 -0.0969 -0.4982 -0.2900
  184SOL     OW  733   0.822   0.632   1.768 -0.1181 -0.5103 -0.3719
  184SOL    HW1  734   0.912   0.649   1.728  0.7092 -0.6499 -0.9633
  184SOL    HW2  735   0.842   0.574   1.845 -2.0248  0.3265  0.3007
  184SOL     MW  736   0.837   0.627   1.773 -0.2605 -0.4183 -0.3612
  185SOL     OW  737   1.132   0.961   1.869 -0.3781  0.2536 -0.1280
  185SOL    HW1  738   1.092   0.880   1.909 -1.9419 -2.1925 -0.8653
  185SOL    HW2  739   1.167   1.015   1.944  1.5817 -0.5302  0.1731
  185SOL     MW  740   1.132   0.958   1.884 -0.3259 -0.1726 -0.1855
  186SOL     OW  741   0.264   1.602   1.518  0.0854 -0.2813 -0.1021
  186SOL    HW1  742   0.281   1.597   1.421  1.8656 -1.8567 -0.1289
  186SOL    HW2  743   0.177   1.565   1.546 -0.4171 -0.4933  0.0480
  186SOL     MW  744   0.255   1.597   1.509  0.2540 -0.5171 -0.0858
  187SOL     OW  745   1.394   0.790   1.352  0.7900  0.1708 -0.8750
  187SOL    HW1  746   1.386   0.817   1.442 -0.3525 -1.4513 -1.2671
  187SOL    HW2  747   1.304   0.772   1.331  0.8909  0.6390  1.6519
  187SOL     MW  748   1.381   0.791   1.361  0.6526  0.0186 -0.5934
  188SOL     OW  749   1.872   1.229   0.926 -0.5475  0.0249  0.3331
  188SOL    HW1  750   1.887   1.215   1.023 -0.0989 -0.1007  1.6295
  188SOL    HW2  751   1.885   1.148   0.875 -1.0787 -2.2612  0.3937
  188SOL     MW  752   1.876   1.216   0.932 -0.5584 -0.2933  0.5122
  189SOL     OW  753   0.704   0.708   0.885  0.2122  0.4834 -0.2964
  189SOL    HW1  754   0.635   0.769   0.875 -1.1335 -0.4479 -1.6181
  189SOL    HW2  755   0.743   0.741   0.964  1.1434 -1.2471 -0.5937
  189SOL     MW  756   0.700   0.721   0.895  0.1575  0.1322 -0.5100
  190SOL     OW  757   1.880   0.276   2.051  0.2964 -0.5821  0.0512
  190SOL    HW1  758   1.872   0.232   2.132  2.0096  2.1571 -2.3189
  190SOL    HW2  759   1.954   0.344   2.055  0.4242  2.6533 -0.5305
  190SOL     MW  760   1.888   0.279   2.062  0.5393  0.2062 -0.3383
  191SOL     OW  761   1.561   0.970   1.222 -0.1023  0.6027  0.5220
  191SOL    HW1  762   1.573   1.050   1.277 -1.2290  0.8896 -1.0566
  191SOL    HW2  763   1.512   0.905   1.272  2.1182  0.0468 -0.2329
  191SOL     MW  764   1.557   0.972   1.236  0.0420  0.5672  0.2141
  192SOL     OW  765   0.515   2.172   2.952  0.7622 -0.0292 -0.4050
  192SOL    HW1  766   0.473   2.233   2.890 -1.9832 -2.1375 -0.6005
  192SOL    HW2  767   0.487   2.090   2.914 -3.6718 -1.3904  3.6254
  192SOL     MW  768   0.506   2.169   2.939 -0.1850 -0.4870  0.1010
  193SOL     OW  769   0.835   1.623   0.804  0.1674 -0.5295 -0.2841
  193SOL    HW1  770   0.738   1.625   0.834 -6.1487 -0.9528 -1.4947
  193SOL    HW2  771   0.843   1.571   0.723  0.4007  0.8431  1.4484
  193SOL     MW  772   0.824   1.616   0.797 -0.6352 -0.4043 -0.2153
  194SOL     OW  773   0.419   1.349   0.851 -0.0560  0.0723  0.4986
  194SOL    HW1  774   0.389   1.284   0.920 -3.6994 -1.6371  3.0617
  194SOL    HW2  775   0.340   1.395   0.818 -1.2050  0.8298  0.7891
  194SOL     MW  776   0.404   1.347   0.856 -0.6883 -0.0533  0.8751
  195SOL     OW  777   1.204   1.110   3.015 -0.5394  0.5495 -0.0773
  195SOL    HW1  778   1.225   1.140   3.105 -1.0466  0.5581  1.9070
  195SOL    HW2  779   1.166   1.022   3.024  1.0567 -2.1001  3.7488
  195SOL     MW  780   1.202   1.102   3.028 -0.3957  0.2010  0.6894
  196SOL     OW  781   2.239   1.022   0.509 -0.2008  0.5308 -0.2613
  196SOL    HW1  782   2.267   1.021   0.412  1.7373 -2.5801 -0.4163
  196SOL    HW2  783   2.211   1.109   0.524  1.3265 -1.1847  0.1506
  196SOL     MW  784   2.239   1.033   0.498  0.2564 -0.1060 -0.2274
  197SOL     OW  785   0.613   1.342   2.155  0.0491  0.1854 -0.1290
  197SOL    HW1  786   0.634   1.252   2.128  0.4937  0.6739 -0.7208
  197SOL    HW2  787   0.688   1.397   2.134 -0.4909  3.2702 -0.6005
  197SOL     MW  788   0.626   1.337   2.149  0.0365  0.6568 -0.2693
  198SOL     OW  789   2.940   1.387   1.020 -0.2523 -0.1803  0.0630
  198SOL    HW1  790   2.943   1.465   0.959  2.0861 -0.5947 -1.6531
  198SOL    HW2  791   2.858   1.344   0.992  2.4639  1.5727  2.1050
  198SOL     MW  792   2.930   1.392   1.008  0.4146 -0.0037  0.1060
  199SOL     OW  793   0.662   1.261   1.826  0.4256 -0.4453  0.0193
  199SOL    HW1  794   0.571   1.252   1.856 -1.5245 -0.8740  0.9604
  199SOL    HW2  795   0.669   1.343   1.779  0.7749  1.9504 -1.5521
  199SOL     MW  796   0.651   1.270   1.823  0.2144 -0.1858 -0.0639
  200SOL     OW  797   1.849   2.969   1.292 -0.4605  0.4840  0.0837
  200SOL    HW1  798   1.904   2.975   1.207  2.2540  1.1200 -1.4204
  200SOL    HW2  799   1.803   3.046   1.296  3.6695 -1.5020 -1.0015
  200SOL     MW  800   1.850   2.980   1.282  0.4425  0.3059 -0.2580
  201SOL     OW  801   1.197   0.291   0.817 -0.1028 -0.1716  0.1337
  201SOL    HW1  802   1.153   0.209   0.829 -0.0296 -0.5296 -1.7077
  201SOL    HW2  803   1.286   0.264   0.835  1.2672  3.2273 -3.8695
  201SOL     MW  804   1.203   0.276   0.821  0.0876  0.2296 -0.6374
  202SOL     OW  805   1.483   1.734   1.025 -0.5373  0.0975  0.2448
  202SOL    HW1  806   1.490   1.646   1.008 -0.3248  1.2648  2.4382
  202SOL    HW2  807   1.532   1.754   1.108  2.0145  0.9175  0.2316
  202SOL     MW  808   1.490   1.725   1.034 -0.1726  0.3597  0.5325
  203SOL     OW  809   3.052   0.355   1.309  0.7466  0.4485  0.0947
  203SOL    HW1  810   3.062   0.271   1.365  2.3038  0.3439  2.3268
  203SOL    HW2  811   3.136   0.366   1.264  0.4150 -0.6475 -0.5192
  203SOL     MW  812   3.064   0.345   1.310  0.9083  0.2901  0.3082
  204SOL     OW  813   0.987   1.821   0.664  0.2567  0.1527 -0.0020
  204SOL    HW1  814   0.970   1.732   0.692  1.5107  1.3002 -1.6652
  204SOL    HW2  815   0.927   1.834   0.591  1.1157  0.9560 -2.2874
  204SOL     MW  816   0.977   1.811   0.658  0.5355  0.4101 -0.5230
  205SOL     OW  817   1.413   3.033   1.320 -0.3876 -0.3194 -0.4510
  205SOL    HW1  818   1.437   3.075   1.237  0.6008 -1.6741 -0.0863
  205SOL    HW2  819   1.338   3.082   1.354 -1.4645 -1.9028 -1.3581
  205SOL     MW  820   1.407   3.045   1.313 -0.3993 -0.7071 -0.5225
  206SOL     OW  821   0.372   2.928   1.332 -0.3470  0.2558 -0.0147
  206SOL    HW1  822   0.353   2.949   1.240  0.5663  1.9123 -1.3253
  206SOL    HW2  823   0.465   2.952   1.346  0.8812 -2.9692  0.0105
  206SOL     MW  824   0.382   2.934   1.322 -0.0644  0.0489 -0.1843
  207SOL     OW  825   0.894   1.742   0.225 -0.1607  0.1634 -0.3839
  207SOL    HW1  826   0.953   1.803   0.185  2.3328  0.5421  1.2218
  207SOL    HW2  827   0.957   1.675   0.261  2.7899  2.6572  0.7078
  207SOL     MW  828   0.910   1.742   0.225  0.5576  0.5424 -0.0280
  208SOL     OW  829   0.781   1.548   1.325 -0.0961 -0.3259 -0.3634
  208SOL    HW1  830   0.852   1.603   1.293  2.4183  2.8382  1.6348
  208SOL    HW2  831   0.748   1.501   1.247  0.1394 -2.3785  1.6021
  208SOL     MW  832   0.786   1.549   1.310  0.2667 -0.1792  0.1595
  209SOL     OW  833   1.612   0.483   2.832  0.6528 -0.2970 -0.2448
  209SOL    HW1  834   1.674   0.556   2.831  0.8411  0.7999 -0.9925
  209SOL    HW2  835   1.671   0.409   2.821 -1.0874  0.1657  1.3504
  209SOL     MW  836   1.628   0.483   2.830  0.4480 -0.0912 -0.1330
  210SOL     OW  837   1.481   1.427   0.969  0.5210 -0.4322  0.8409
  210SOL    HW1  838   1.571   1.421   0.940 -0.0220 -2.4773 -0.5689
  210SOL    HW2  839   1.428   1.440   0.888  0.1791  1.4257  0.5461
  210SOL     MW  840   1.486   1.428   0.954  0.4042 -0.4569  0.6160
  211SOL     OW  841   1.743   0.454   0.903  0.1297  0.7838  0.0423
  211SOL    HW1  842   1.749   0.442   0.802  0.9638 -1.7417 -0.0536
  211SOL    HW2  843   1.830   0.414   0.928  0.4375 -2.1803  2.6818
  211SOL     MW  844   1.755   0.447   0.893  0.2804  0.0595  0.3779
  212SOL     OW  845   0.364   1.169   0.215 -0.4121  0.5987 -0.3469
  212SOL    HW1  846   0.299   1.105   0.235  1.0696  0.8905 -2.3162
  212SOL    HW2  847   0.423   1.147   0.146  0.4357  1.5867 -1.3910
  212SOL     MW  848   0.363   1.158   0.209 -0.1047  0.7676 -0.7445
  213SOL     OW  849   0.373   1.840   3.011  0.0515 -0.3325  0.2567
  213SOL    HW1  850   0.420   1.888   3.086  1.1982 -1.3060  1.1190
  213SOL    HW2  851   0.425   1.869   2.932  1.5857  1.3380 -1.5914
  213SOL     MW  852   0.386   1.850   3.010  0.4052 -0.2406  0.1267
  214SOL     OW  853   0.606   0.346   2.105 -0.2814 -0.2752 -0.4135
  214SOL    HW1  854   0.536   0.411   2.135  2.4434 -0.2328 -2.9823
  214SOL    HW2  855   0.597   0.357   2.011 -6.1892 -2.8545 -0.5396
  214SOL     MW  856   0.596   0.356   2.096 -0.7014 -0.6099 -0.7691
  215SOL     OW  857   0.517   0.525   2.517  0.4634 -0.4875  0.2887
  215SOL    HW1  858   0.475   0.592   2.464 -0.9189  2.5765  0.8618
  215SOL    HW2  859   0.460   0.480   2.579  2.3226  1.1500  1.6327
  215SOL     MW  860   0.504   0.528   2.518  0.5263  0.1328  0.5417
  216SOL     OW  861   2.889   3.091   2.772  0.3741  0.6710  0.3311
  216SOL    HW1  862   2.810   3.093   2.827 -0.2237 -4.3194 -0.2538
  216SOL    HW2  863   2.894   3.178   2.737 -1.2870 -2.6219  2.0997
  216SOL     MW  864   2.879   3.103   2.774  0.0760 -0.4219  0.4873
  217SOL     OW  865   0.986   1.084   0.125 -0.6602  0.2993  0.0488
  217SOL    HW1  866   0.982   1.003   0.077 -2.1833 -0.8349  0.5915
  217SOL    HW2  867   1.017   1.156   0.073 -1.3127 -3.4504  0.7903
  217SOL     MW  868   0.989   1.083   0.112 -0.9473 -0.3451  0.2182
  218SOL     OW  869   0.850   1.358   2.606 -0.1101  0.5368 -0.1326
  218SOL    HW1  870   0.827   1.312   2.687 -1.8488  0.7912 -2.1068
  218SOL    HW2  871   0.937   1.391   2.627  0.1979 -0.7120 -2.7542
  218SOL     MW  872   0.859   1.357   2.619 -0.2989  0.4056 -0.7390
  219SOL     OW  873   1.056   0.453   2.601 -0.1671 -0.1890 -0.0965
  219SOL    HW1  874   1.119   0.522   2.624  1.7586  1.9555 -0.6788
  219SOL    HW2  875   0.971   0.500   2.588  1.6192 -0.8458  0.8419
  219SOL     MW  876   1.053   0.468   2.602  0.3226  0.0073 -0.0495
  220SOL     OW  877   1.717   0.503   2.202 -0.3027  0.4840 -0.0439
  220SOL    HW1  878   1.627   0.533   2.183  0.9928  1.4011  0.1058
  220SOL    HW2  879   1.737   0.428   2.143  0.0351  0.4389 -1.0781
  220SOL     MW  880   1.708   0.498   2.191 -0.0872  0.5991 -0.1606
  221SOL     OW  881   0.391   1.383   2.927 -0.3069  0.1525 -0.3650
  221SOL    HW1  882   0.436   1.298   2.920  1.0121  0.2633  0.8608
  221SOL    HW2  883   0.463   1.444   2.962  2.6354 -0.5783  1.6515
  221SOL     MW  884   0.407   1.380   2.931  0.2553  0.0707  0.0628
  222SOL     OW  885   0.523   0.932   2.720  0.2515 -0.1363  0.1281
  222SOL    HW1  886   0.441   0.902   2.683  0.8021 -0.3656  1.3586
  222SOL    HW2  887   0.578   0.851   2.721  0.1317 -3.4420 -2.7010
  222SOL     MW  888   0.519   0.917   2.715  0.3084 -0.6027 -0.0828
  223SOL     OW  889   3.092   2.041   2.544  0.1656  0.2164 -0.1031
  223SOL    HW1  890   3.077   2.050   2.639 -1.6087 -0.0107  1.1003
  223SOL    HW2  891   3.141   2.119   2.515 -2.3182 -0.3423  0.0404
  223SOL     MW  892   3.096   2.052   2.553 -0.3962  0.1127  0.0746
  224SOL     OW  893   1.461   0.697   2.445  0.1391 -0.1424  0.1380
  224SOL    HW1  894   1.551   0.675   2.453  1.8158  0.0457  0.6072
  224SOL    HW2  895   1.439   0.786   2.481 -1.7212 -1.0792 -2.0585
  224SOL     MW  896   1.470   0.706   2.451  0.1148 -0.2412 -0.0899
  225SOL     OW  897   2.955   1.489   2.250 -0.3272  0.0562 -0.6031
  225SOL    HW1  898   3.001   1.572   2.229  1.0221  2.1612  2.8552
  225SOL    HW2  899   2.893   1.527   2.312  1.5249  1.7840  0.9027
  225SOL     MW  900   2.953   1.505   2.256  0.0952  0.5619  0.0518
  226SOL     OW  901   0.429   1.548   2.682  0.2111  0.3220  0.4005
  226SOL    HW1  902   0.525   1.545   2.674  0.3261  2.7478 -2.1789
  226SOL    HW2  903   0.396   1.640   2.697  0.5470  1.2816 -0.7086
  226SOL     MW  904   0.437   1.560   2.683  0.2706  0.7687 -0.0861
  227SOL     OW  905   0.523   1.135   2.927 -0.7823  0.2835 -0.1070
  227SOL    HW1  906   0.613   1.145   2.887 -2.1222 -0.0845  0.2703
  227SOL    HW2  907   0.497   1.054   2.876 -1.1412  2.7800  0.7049
  227SOL     MW  908   0.532   1.126   2.915 -1.0064  0.5643  0.0499
  228SOL     OW  909   0.743   1.110   2.050  0.3224 -0.1044 -0.6204
  228SOL    HW1  910   0.743   1.167   1.975 -2.4063 -0.6466  2.0866
  228SOL    HW2  911   0.820   1.141   2.101 -2.8574  2.5296  1.3266
  228SOL     MW  912   0.753   1.122   2.047 -0.4571  0.1716 -0.0064
  229SOL     OW  913   0.206   0.565   0.008 -0.1289  0.0795  0.6718
  229SOL    HW1  914   0.114   0.565  -0.027  2.8522 -0.4269  0.8278
  229SOL    HW2  915   0.208   0.496   0.078 -2.3321  0.8330  0.5834
  229SOL     MW  916   0.194   0.556   0.013 -0.0263  0.1121  0.6807
  230SOL     OW  917   1.732   1.374   2.046 -0.7911  0.2630  0.2346
  230SOL    HW1  918   1.692   1.344   2.125 -0.9069 -1.2626 -0.4426
  230SOL    HW2  919   1.801   1.309   2.043 -1.3842  2.0105  3.7661
  230SOL     MW  920   1.736   1.362   2.056 -0.8847  0.2923  0.6112
  231SOL     OW  921   2.732   1.257   2.237  0.2527  0.5138 -0.3557
  231SOL    HW1  922   2.785   1.338   2.252  1.8073  1.3511  1.8905
  231SOL    HW2  923   2.692   1.261   2.150 -2.6153 -0.5288 -2.2145
  231SOL     MW  924   2.734   1.268   2.228  0.0794  0.4867 -0.3046
  232SOL     OW  925   2.293   0.892   1.934 -0.0504  0.0765  0.0865
  232SOL    HW1  926   2.210   0.915   1.901 -0.8763  2.9762  1.9798
  232SOL    HW2  927   2.265   0.843   2.011  1.5058  0.6398  2.7482
  232SOL     MW  928   2.278   0.889   1.940  0.0460  0.5334  0.6875
  233SOL     OW  929   2.098   0.419   2.048 -0.4819  0.0130 -0.4540
  233SOL    HW1  930   2.167   0.349   2.026  2.8235 -4.2458 -1.4563
  233SOL    HW2  931   2.112   0.449   2.141  0.0736 -0.7352 -1.3558
  233SOL     MW  932   2.109   0.414   2.057  0.0275 -0.6477 -0.7052
  234SOL     OW  933   0.241   1.064   2.669  0.0731  0.0923  0.0193
  234SOL    HW1  934   0.167   1.043   2.612  1.1053 -2.1085  2.3319
  234SOL    HW2  935   0.272   1.147   2.625  0.7701 -1.2357  1.8728
  234SOL     MW  936   0.235   1.072   2.656  0.3013 -0.3733  0.5690
  235SOL     OW  937   1.142   3.071   2.831 -0.0433  0.8535  0.5066
  235SOL    HW1  938   1.222   3.049   2.880  0.0278  1.6355 -0.9349
  235SOL    HW2  939   1.127   3.170   2.820 -2.5692  2.1266  3.1155
  235SOL     MW  940   1.151   3.081   2.836 -0.3672  1.1247  0.6606
  236SOL     OW  941   2.981   0.601   0.220  0.1572 -0.5087 -0.2701
  236SOL    HW1  942   2.997   0.620   0.314  1.7944  0.5719 -0.2080
  236SOL    HW2  943   3.046   0.666   0.192  0.5619  2.5741  0.7092
  236SOL     MW  944   2.991   0.612   0.229  0.4266  0.0407 -0.1327
  237SOL     OW  945   1.896   1.066   2.134 -0.5311 -0.4883 -0.5312
  237SOL    HW1  946   1.813   1.081   2.182  3.0765 -0.4353  0.7740
  237SOL    HW2  947   1.872   1.020   2.059 -0.3222 -1.5872 -1.7571
  237SOL     MW  948   1.882   1.061   2.131 -0.0275 -0.6263 -0.5207
  238SOL     OW  949   1.075   1.723   2.938 -0.3458 -0.3855 -0.2230
  238SOL    HW1  950   0.994   1.677   2.940  1.6330 -1.4416  1.5369
  238SOL    HW2  951   1.149   1.664   2.919  2.7622  3.7005 -0.2658
  238SOL     MW  952   1.074   1.709   2.936  0.3254  0.0142  0.0036
  239SOL     OW  953   1.194   1.319   2.354 -0.3422 -0.1628  0.0785
  239SOL    HW1  954   1.127   1.285   2.298 -0.2925  1.3772 -1.9340
  239SOL    HW2  955   1.178   1.266   2.431 -0.1659  2.4224  0.0806
  239SOL     MW  956   1.183   1.307   2.357 -0.3124  0.3815 -0.1868
  240SOL     OW  957   0.574   0.880   2.279 -0.0544 -0.1430 -0.1701
  240SOL    HW1  958   0.600   0.939   2.350 -0.1360  3.2449  0.7629
  240SOL    HW2  959   0.657   0.863   2.235  2.9788 -1.2742 -0.6793
  240SOL     MW  960   0.588   0.885   2.282  0.3351  0.1547 -0.1142
  241SOL     OW  961   0.695   0.436   3.097  0.2333  0.2447 -0.0289
  241SOL    HW1  962   0.706   0.510   3.157  0.7145  0.7175 -0.8000
  241SOL    HW2  963   0.603   0.439   3.056  1.9963 -2.4913  1.6974
  241SOL     MW  964   0.684   0.446   3.099  0.5294 -0.0539  0.0971
  242SOL     OW  965   1.505   1.644   2.304  0.2135 -1.0016  0.1163
  242SOL    HW1  966   1.452   1.719   2.312  0.6882 -0.0116 -0.2954
  242SOL    HW2  967   1.456   1.572   2.270 -0.3341  1.4375 -2.9990
  242SOL     MW  968   1.492   1.645   2.300  0.2039 -0.5491 -0.3490
  243SOL     OW  969   1.021   0.313   2.369  0.0315 -1.2431 -0.0183
  243SOL    HW1  970   1.110   0.275   2.362 -0.2877  1.5927  1.8370
  243SOL    HW2  971   1.036   0.378   2.442  0.4539 -1.1503  2.4606
  243SOL     MW  972   1.035   0.317   2.377  0.0451 -0.8567  0.5535
  244SOL     OW  973   0.105   0.767   2.370 -0.3585  0.5295 -0.3414
  244SOL    HW1  974   0.079   0.857   2.386 -1.0085  1.9545  3.1232
  244SOL    HW2  975   0.196   0.758   2.347 -3.8521 -0.9274  0.1367
  244SOL     MW  976   0.113   0.777   2.369 -0.9052  0.5253  0.1788
  245SOL     OW  977   1.261   0.165   2.425 -0.7296 -0.5375  0.8111
  245SOL    HW1  978   1.291   0.128   2.335 -2.2082 -1.6145 -0.6470
  245SOL    HW2  979   1.281   0.099   2.493  1.2473  2.1248  0.1134
  245SOL     MW  980   1.268   0.151   2.422 -0.6638 -0.3284  0.5266
  246SOL     OW  981   1.217   1.145   2.097  0.1446  0.1264  0.2629
  246SOL    HW1  982   1.147   1.120   2.164 -0.9218  1.4217  3.1819
  246SOL    HW2  983   1.293   1.088   2.121  1.8876 -1.3219  0.6772
  246SOL     MW  984   1.218   1.134   2.109  0.2339  0.1062  0.7027
  247SOL     OW  985   0.765   0.674   0.183  0.0746  0.0900  0.4432
  247SOL    HW1  986   0.724   0.765   0.174 -1.3438  0.2265  2.0538
  247SOL    HW2  987   0.854   0.680   0.141  2.2020  0.1497 -1.0697
  247SOL     MW  988   0.771   0.687   0.176  0.1681  0.1159  0.4561
  248SOL     OW  989   0.303   1.340   2.580 -0.0812 -0.3694  0.5948
  248SOL    HW1  990   0.337   1.346   2.490 -0.3837  0.6023  2.7651
  248SOL    HW2  991   0.355   1.405   2.626 -1.1986 -0.8936  0.5858
  248SOL     MW  992   0.315   1.349   2.574 -0.2685 -0.3104  0.8800
  249SOL     OW  993   3.023   1.929   2.785  0.5670 -0.5399 -0.1245
  249SOL    HW1  994   3.000   1.848   2.742 -0.1249 -0.6636 -1.5410
  249SOL    HW2  995   3.105   1.910   2.830 -0.3654 -0.3219  0.6010
  249SOL     MW  996   3.031   1.916   2.786  0.3527 -0.5275 -0.2157
  250SOL     OW  997   2.240   0.773   2.171  0.4189 -0.3560 -0.3649
  250SOL    HW1  998   2.187   0.701   2.217 -2.2599 -0.8537  0.9437
  250SOL    HW2  999   2.247   0.833   2.241 -0.8327 -0.3011  0.0057
  250SOL     MW 1000   2.234   0.771   2.186 -0.0997 -0.4144 -0.1434
  251SOL     OW 1001   0.152   0.882   2.039  0.0760 -0.2313 -0.1044
  251SOL    HW1 1002   0.103   0.808   2.052  0.8287  0.8600  0.2092
  251SOL    HW2 1003   0.152   0.890   1.941  0.8336 -1.9964  1.2043
  251SOL     MW 1004   0.146   0.873   2.027  0.2753 -0.3202  0.1096
  252SOL     OW 1005   1.717   0.993   2.877  0.2873  0.3872  0.0569
  252SOL    HW1 1006   1.730   1.052   2.950 -1.2487  0.5006  0.1257
  252SOL    HW2 1007   1.796   0.980   2.815  2.0610  3.5660  2.5268
  252SOL     MW 1008   1.729   0.999   2.878  0.3187  0.8216  0.3919
  253SOL     OW 1009   1.149   1.700   2.507 -0.2356 -0.2486  0.6028
  253SOL    HW1 1010   1.136   1.666   2.414 -1.8888 -1.2566 -0.0515
  253SOL    HW2 1011   1.060   1.744   2.522  1.0722 -2.2024 -0.9447
  253SOL     MW 1012   1.136   1.702   2.497 -0.2812 -0.6394  0.3123
  254SOL     OW 1013   0.973   1.127   2.220 -0.1970 -0.5588  0.5055
  254SOL    HW1 1014   0.939   1.037   2.221  2.3793 -1.3749  0.5162
  254SOL    HW2 1015   0.924   1.174   2.295 -0.7916  1.2412  2.6818
  254SOL     MW 1016   0.962   1.122   2.230  0.0645 -0.4289  0.7940
  255SOL     OW 1017   0.847   2.546   2.152  0.3042 -0.1618 -0.0287
  255SOL    HW1 1018   0.773   2.481   2.141  3.1563 -2.6609 -0.5526
  255SOL    HW2 1019   0.915   2.487   2.175 -3.5167 -2.1290 -1.5210
  255SOL     MW 1020   0.846   2.529   2.153  0.1764 -0.7511 -0.2947
  256SOL     OW 1021   1.300   2.791   3.042  0.3868 -0.0060  0.7740
  256SOL    HW1 1022   1.323   2.709   3.087  1.6532 -0.2742 -0.1538
  256SOL    HW2 1023   1.333   2.788   2.950 -0.6522  0.2577 -0.6770
  256SOL     MW 1024   1.307   2.779   3.036  0.4168 -0.0066  0.4601
  257SOL     OW 1025   0.035   1.905   0.092 -0.3114  0.6518 -0.3108
  257SOL    HW1 1026   0.124   1.918   0.133 -1.3935  1.4318 -2.2754
  257SOL    HW2 1027   0.059   1.866   0.010  2.2437 -2.2529  1.9642
  257SOL     MW 1028   0.050   1.902   0.086 -0.1170  0.3714 -0.2698
  258SOL     OW 1029   0.678   1.014   2.509  0.2572 -0.0985  0.5568
  258SOL    HW1 1030   0.668   1.109   2.490  2.3276  2.7517 -1.0467
  258SOL    HW2 1031   0.605   0.997   2.563 -0.3737  2.3754 -0.1733
  258SOL     MW 1032   0.667   1.024   2.513  0.4471  0.6040  0.2489
  259SOL     OW 1033   0.807   0.456   2.246  0.1239  0.6612  0.5494
  259SOL    HW1 1034   0.727   0.421   2.194  0.6042  0.5817  0.4858
  259SOL    HW2 1035   0.878   0.393   2.263  0.9917  0.9047 -0.5169
  259SOL     MW 1036   0.806   0.443   2.241  0.3018  0.6829  0.4003
  260SOL     OW 1037   0.647   0.106   1.597  0.0639 -0.8197  0.1765
  260SOL    HW1 1038   0.602   0.167   1.544 -2.0422 -3.9402  2.0663
  260SOL    HW2 1039   0.731   0.088   1.551  1.1569  1.4168  1.7679
  260SOL     MW 1040   0.652   0.112   1.584 -0.0697 -0.9364  0.6358
  261SOL     OW 1041   1.032   0.735   2.018 -0.5603  0.1423  0.6046
  261SOL    HW1 1042   1.085   0.697   2.085 -0.6880 -0.5109 -3.3917
  261SOL    HW2 1043   1.002   0.659   1.972  0.8185  0.1225  1.5056
  261SOL     MW 1044   1.035   0.720   2.021 -0.3953  0.0535  0.1962
  262SOL     OW 1045   1.138   0.338   0.116 -0.7838 -0.1060  0.4328
  262SOL    HW1 1046   1.238   0.357   0.108 -0.0509  2.1570  0.0324
  262SOL    HW2 1047   1.113   0.267   0.054  0.3001 -0.6135  1.3021
  262SOL     MW 1048   1.148   0.331   0.107 -0.5441  0.1256  0.4946
  263SOL     OW 1049   0.413   0.009   2.512  0.3627 -0.7581 -0.5957
  263SOL    HW1 1050   0.345   0.074   2.519  0.8267  1.5749 -0.3263
  263SOL    HW2 1051   0.464   0.050   2.445 -1.1116  0.9546 -2.0424
  263SOL     MW 1052   0.411   0.023   2.504  0.2294 -0.2243 -0.7511
  264SOL     OW 1053   1.539   1.491   1.897  0.1884 -0.5578  0.4693
  264SOL    HW1 1054   1.477   1.418   1.894 -0.7054  0.6353  1.0168
  264SOL    HW2 1055   1.614   1.453   1.956  1.7793 -2.6654 -1.2454
  264SOL     MW 1056   1.541   1.477   1.904  0.2804 -0.6784  0.3153
  265SOL     OW 1057   0.728   2.814   2.296  0.0468 -0.3306 -0.0954
  265SOL    HW1 1058   0.819   2.816   2.270 -0.6958  1.4892 -0.8205
  265SOL    HW2 1059   0.734   2.774   2.386  2.5511  0.3030 -0.2883
  265SOL     MW 1060   0.741   2.809   2.305  0.2792 -0.0069 -0.2165
  266SOL     OW 1061   0.832   0.875   2.136 -0.0040 -0.4232  0.0700
  266SOL    HW1 1062   0.808   0.946   2.075 -0.1416  0.1330 -1.3882
  266SOL    HW2 1063   0.903   0.808   2.094  1.7089 -1.9302  1.1578
  266SOL     MW 1064   0.838   0.876   2.122  0.2039 -0.5486  0.0212
  267SOL     OW 1065   1.399   1.700   2.645 -0.1034  0.6692  0.0491
  267SOL    HW1 1066   1.473   1.639   2.615  1.2666 -0.1461  0.5986
  267SOL    HW2 1067   1.322   1.678   2.596  0.0136 -1.7258 -0.9119
  267SOL     MW 1068   1.398   1.689   2.634  0.0928  0.2456 -0.0052
  268SOL     OW 1069   0.125   0.892   1.764  0.3318  0.1854 -0.0065
  268SOL    HW1 1070   0.050   0.944   1.793  0.8063 -1.3557 -0.0706
  268SOL    HW2 1071   0.093   0.837   1.688 -2.1401  1.9573 -3.2940
  268SOL     MW 1072   0.111   0.892   1.758  0.0683  0.2159 -0.4487
  269SOL     OW 1073   1.358   1.881   2.331  0.3071  0.3455  0.5110
  269SOL    HW1 1074   1.396   1.965   2.344  0.9138 -0.1508 -0.9155
  269SOL    HW2 1075   1.277   1.868   2.379 -0.7673 -1.0414  1.3404
  269SOL     MW 1076   1.353   1.890   2.339  0.2454  0.0970  0.4322
  270SOL     OW 1077   1.097   0.382   1.518 -0.2002  0.9113 -0.3275
  270SOL    HW1 1078   1.063   0.301   1.554 -1.9451  1.6055  0.2043
  270SOL    HW2 1079   1.193   0.372   1.524 -2.5483  1.7282  1.0850
  270SOL     MW 1080   1.105   0.370   1.523 -0.7402  1.1107 -0.0710
  271SOL     OW 1081   0.888   0.085   2.493 -0.2142  0.0157  0.3820
  271SOL    HW1 1082   0.942   0.028   2.544 -2.5432 -1.4157 -0.3332
  271SOL    HW2 1083   0.948   0.160   2.486 -2.4480  0.1080  0.0445
  271SOL     MW 1084   0.903   0.088   2.499 -0.8162 -0.1610  0.2431
  272SOL     OW 1085   1.464   2.766   2.790  0.1388 -0.2532 -0.3646
  272SOL    HW1 1086   1.416   2.772   2.711 -0.3213  0.3373  2.3261
  272SOL    HW2 1087   1.507   2.855   2.796 -1.4396  0.5120 -0.3905
  272SOL     MW 1088   1.463   2.778   2.780 -0.1302 -0.0743 -0.0130
  273SOL     OW 1089   1.475   0.821   2.813  0.3881 -0.0463  0.2304
  273SOL    HW1 1090   1.525   0.744   2.839  1.3567 -1.8101  1.5503
  273SOL    HW2 1091   1.535   0.891   2.843 -1.1979 -1.2716  1.0111
  273SOL     MW 1092   1.490   0.820   2.820  0.3067 -0.4407  0.5076
  274SOL     OW 1093   1.428   0.630   0.121 -0.9520 -0.0121 -0.0940
  274SOL    HW1 1094   1.495   0.593   0.178  0.5806  2.7341  0.4026
  274SOL    HW2 1095   1.362   0.654   0.191  0.8008  1.6154  1.1969
  274SOL     MW 1096   1.428   0.628   0.138 -0.5186  0.5649  0.1419
  275SOL     OW 1097   1.836   0.554   1.735  0.2300  0.2473 -0.0380
  275SOL    HW1 1098   1.888   0.595   1.811  2.7505 -1.0836 -0.2269
  275SOL    HW2 1099   1.838   0.456   1.751 -0.9381 -0.1562 -1.3373
  275SOL     MW 1100   1.843   0.547   1.747  0.4084  0.0185 -0.2343
  276SOL     OW 1101   0.382   1.192   1.933 -0.5295 -0.4681 -0.2039
  276SOL    HW1 1102   0.391   1.104   1.976  1.5779 -1.6036  1.0321
  276SOL    HW2 1103   0.333   1.252   1.993 -0.5478 -0.0726  3.4523
  276SOL     MW 1104   0.377   1.188   1.947 -0.2539 -0.5657  0.4416
  277SOL     OW 1105   2.008   1.128   2.484  0.0689 -0.2870  0.4355
  277SOL    HW1 1106   2.032   1.213   2.524  2.1302  1.8546  0.3933
  277SOL    HW2 1107   1.920   1.137   2.449  0.3365 -0.3952  3.5353
  277SOL     MW 1108   2.000   1.140   2.485  0.3762 -0.0187  0.8390
  278SOL     OW 1109   1.436   0.609   1.654  0.5311 -0.0893 -0.6717
  278SOL    HW1 1110   1.455   0.567   1.747  0.1594 -1.0106 -1.4939
  278SOL    HW2 1111   1.526   0.627   1.619  2.6707  2.5676  0.9950
  278SOL     MW 1112   1.450   0.606   1.661  0.7644  0.1397 -0.5602
  279SOL     OW 1113   0.517   0.119   2.249  0.2643  0.3487 -0.0519
  279SOL    HW1 1114   0.612   0.084   2.257  0.9763  0.3551  1.0485
  279SOL    HW2 1115   0.528   0.211   2.227 -1.9960  0.9313 -1.6050
  279SOL     MW 1116   0.531   0.126   2.247  0.0600  0.4264 -0.1116
  280SOL     OW 1117   1.425   1.024   2.220 -0.4159 -0.4736  0.0243
  280SOL    HW1 1118   1.489   0.961   2.186  1.4330 -0.6163 -0.9945
  280SOL    HW2 1119   1.385   0.977   2.292 -1.2230 -1.5703 -1.2374
  280SOL     MW 1120   1.428   1.010   2.225 -0.2785 -0.6371 -0.2766
  281SOL     OW 1121   1.315   1.102   2.757  0.6379 -0.3641  0.1052
  281SOL    HW1 1122   1.392   1.161   2.744  1.2595 -1.6469  1.1446
  281SOL    HW2 1123   1.276   1.125   2.844 -0.5706 -0.7743  1.0225
  281SOL     MW 1124   1.320   1.113   2.767  0.5605 -0.5875  0.3634
  282SOL     OW 1125   1.167   1.292   1.635 -0.4244 -0.2108  0.2815
  282SOL    HW1 1126   1.165   1.371   1.589  1.2028  1.5181 -1.6273
  282SOL    HW2 1127   1.085   1.282   1.688  0.2502  1.7907 -0.7805
  282SOL     MW 1128   1.156   1.301   1.636 -0.1207  0.2814 -0.1105
  283SOL     OW 1129   0.803   1.389   3.081 -0.1223 -0.2258 -0.7060
  283SOL    HW1 1130   0.894   1.368   3.102  0.7069  1.4790 -0.1812
  283SOL    HW2 1131   0.793   1.485   3.093  0.3230  1.0899  2.3441
  283SOL     MW 1132   0.813   1.399   3.085  0.0459  0.1727 -0.2344
  284SOL     OW 1133   0.367   0.684   2.338 -0.0971  0.3975  0.0326
  284SOL    HW1 1134   0.431   0.754   2.318  0.8349  0.7405  0.4220
  284SOL    HW2 1135   0.379   0.601   2.292  0.4480 -0.5953  1.5682
  284SOL     MW 1136   0.377   0.683   2.330  0.0978  0.3118  0.2866
  285SOL     OW 1137   0.875   0.832   2.851 -0.1845  0.0297 -0.1235
  285SOL    HW1 1138   0.898   0.859   2.763 -0.3040  0.9797  0.1120
  285SOL    HW2 1139   0.800   0.777   2.829  0.9949  2.0815  0.7241
  285SOL     MW 1140   0.868   0.828   2.836 -0.0447  0.4258  0.0194
  286SOL     OW 1141   1.085   1.484   2.694 -0.2705  0.3403  0.3186
  286SOL    HW1 1142   1.170   1.446   2.688  1.2713 -0.5074  0.5209
  286SOL    HW2 1143   1.066   1.528   2.606  0.1283 -0.9327 -1.4502
  286SOL     MW 1144   1.094   1.485   2.681 -0.0144  0.0605  0.1119
  287SOL     OW 1145   1.142   0.955   0.341 -0.1556 -0.5866 -0.2318
  287SOL    HW1 1146   1.109   1.015   0.413 -0.2167  1.8687  1.6924
  287SOL    HW2 1147   1.092   0.988   0.263 -0.9354 -0.2062  1.3570
  287SOL     MW 1148   1.131   0.967   0.340 -0.2665 -0.2125  0.2317
  288SOL     OW 1149   1.493   0.663   2.126 -0.1530  0.1353 -0.4919
  288SOL    HW1 1150   1.449   0.678   2.206  0.9168  1.2641  2.6113
  288SOL    HW2 1151   1.546   0.747   2.114 -0.2698  2.4863  0.6253
  288SOL     MW 1152   1.494   0.676   2.135 -0.0272  0.5944  0.0649
  289SOL     OW 1153   0.934   0.957   2.609 -0.1978  0.1200 -0.4239
  289SOL    HW1 1154   0.974   0.899   2.549 -0.5520 -0.6589  0.7877
  289SOL    HW2 1155   0.842   0.971   2.570  3.1632  0.6562  2.4989
  289SOL     MW 1156   0.927   0.951   2.596  0.1989  0.0880  0.1216
  290SOL     OW 1157   0.749   0.644   1.507 -0.4701  0.3671  0.2655
  290SOL    HW1 1158   0.812   0.584   1.471  0.2522  1.7771  0.2016
  290SOL    HW2 1159   0.760   0.636   1.601  0.8087 -1.0547 -0.9763
  290SOL     MW 1160   0.759   0.635   1.515 -0.2061  0.3655  0.0932
  291SOL     OW 1161   0.239   0.318   0.185 -0.0454  0.5347  0.4877
  291SOL    HW1 1162   0.334   0.312   0.208  0.3346  0.5474 -1.6429
  291SOL    HW2 1163   0.210   0.228   0.161  0.1113 -1.0411 -0.0681
  291SOL     MW 1164   0.248   0.306   0.185  0.0254  0.3285  0.1332
  292SOL     OW 1165   1.017   0.583   0.098  0.3230 -1.3109  0.0477
  292SOL    HW1 1166   1.094   0.627   0.141  0.1150  1.2628 -1.5212
  292SOL    HW2 1167   1.035   0.493   0.120  0.1650 -0.9691  0.6041
  292SOL     MW 1168   1.029   0.577   0.107  0.2747 -0.9262 -0.0859
  293SOL     OW 1169   0.122   0.082   2.559  0.6120  0.2505 -0.8017
  293SOL    HW1 1170   0.113   0.053   2.472 -0.4040  1.7484  0.0359
  293SOL    HW2 1171   0.034   0.119   2.589 -0.2160 -3.0735  1.0253
  293SOL     MW 1172   0.109   0.083   2.552  0.3687  0.0096 -0.4501
  294SOL     OW 1173   1.337   0.452   2.357 -0.1974 -0.0952 -0.0973
  294SOL    HW1 1174   1.369   0.525   2.416 -0.9630  1.9693  0.8574
  294SOL    HW2 1175   1.359   0.367   2.401  0.1955  0.7917  1.6392
  294SOL     MW 1176   1.344   0.451   2.371 -0.2465  0.2942  0.2577
  295SOL     OW 1177   0.853   0.601   2.465 -0.4120  0.0932 -1.2516
  295SOL    HW1 1178   0.830   0.565   2.378  0.2078 -0.9789  0.6481
  295SOL    HW2 1179   0.769   0.624   2.500  1.6478  0.2512 -0.7345
  295SOL     MW 1180   0.839   0.599   2.458 -0.0584 -0.0274 -0.9327
  296SOL     OW 1181   1.345   0.303   2.074  0.4445  0.1028 -0.3731
  296SOL    HW1 1182   1.374   0.214   2.049 -0.5344  0.6716  0.4488
  296SOL    HW2 1183   1.356   0.318   2.169  2.8683  3.7851  0.5351
  296SOL     MW 1184   1.350   0.293   2.083  0.6351  0.6637 -0.1448
  297SOL     OW 1185   1.360   0.338   1.557  0.0612  0.0477 -0.8609
  297SOL    HW1 1186   1.394   0.421   1.593 -0.6253  2.3234  0.3258
  297SOL    HW2 1187   1.403   0.265   1.602  3.7996  1.7692 -2.6094
  297SOL     MW 1188   1.370   0.339   1.568  0.4639  0.5751 -0.9351
  298SOL     OW 1189   1.635   0.882   2.066  0.9472  0.8494  0.5342
  298SOL    HW1 1190   1.661   0.929   1.982 -0.5351 -3.4933  1.9769
  298SOL    HW2 1191   1.716   0.844   2.099 -1.2700  1.8878  0.5289
  298SOL     MW 1192   1.649   0.883   2.059  0.4591  0.4134  0.7238
  299SOL     OW 1193   0.633   1.182   0.051  0.4121  0.0863 -0.4111
  299SOL    HW1 1194   0.587   1.167  -0.042 -2.3828 -0.4919 -0.8349
  299SOL    HW2 1195   0.712   1.241   0.043  2.9967 -1.3274  1.4052
  299SOL     MW 1196   0.637   1.188   0.038  0.3844 -0.1765 -0.2274
  300SOL     OW 1197   1.112   1.148   2.549  0.8616  0.7483 -0.2118
  300SOL    HW1 1198   1.050   1.074   2.576 -0.8452  1.7198  0.6430
  300SOL    HW2 1199   1.185   1.134   2.614 -1.4798 -0.3888  1.0766
  300SOL     MW 1200   1.113   1.136   2.561  0.3275  0.7265  0.0709
  301SOL     OW 1201   1.509   1.014   0.763  0.2824 -0.7039 -0.1298
  301SOL    HW1 1202   1.509   1.043   0.855  0.2953  0.2240  0.4491
  301SOL    HW2 1203   1.431   0.954   0.763 -1.0267 -1.4647  0.9348
  301SOL     MW 1204   1.499   1.010   0.775  0.1113 -0.6818  0.0870
  302SOL     OW 1205   0.222   1.594   2.045  0.0554  0.2525 -0.2402
  302SOL    HW1 1206   0.225   1.499   2.051  1.0396  2.7143  2.1286
  302SOL    HW2 1207   0.136   1.630   2.048  1.7490  3.6229  0.4056
  302SOL     MW 1208   0.211   1.586   2.046  0.4087  1.0220  0.1576
  303SOL     OW 1209   0.269   1.770   2.716 -0.9029  0.3926  0.2380
  303SOL    HW1 1210   0.239   1.786   2.628  1.9401 -0.7911 -2.2315
  303SOL    HW2 1211   0.191   1.769   2.775 -2.2380  0.3691  1.4512
  303SOL     MW 1212   0.255   1.772   2.712 -0.7040  0.2333  0.0722
  304SOL     OW 1213   0.529   2.061   2.465 -0.4693  0.1088 -0.0071
  304SOL    HW1 1214   0.584   2.123   2.412  2.2937  0.8138 -1.1471
  304SOL    HW2 1215   0.540   1.978   2.417  3.6742 -0.6309  1.5048
  304SOL     MW 1216   0.538   2.059   2.452  0.4419  0.1042  0.0420
  305SOL     OW 1217   1.160   0.642   0.549 -0.0932 -0.1592  0.2826
  305SOL    HW1 1218   1.066   0.635   0.529  2.3305 -0.1590 -1.1788
  305SOL    HW2 1219   1.194   0.555   0.551  0.6539 -2.9461 -1.7539
  305SOL     MW 1220   1.152   0.630   0.547  0.3251 -0.5268 -0.1789
  306SOL     OW 1221   1.104   1.551   0.306  0.4178  0.2987 -0.1103
  306SOL    HW1 1222   1.127   1.462   0.330  1.0614 -0.0651 -0.5690
  306SOL    HW2 1223   1.159   1.560   0.229  1.1802 -0.5673 -0.7917
  306SOL     MW 1224   1.114   1.541   0.299  0.6033  0.1365 -0.2607
  307SOL     OW 1225   1.454   0.507   1.916  0.0435  0.0208 -0.0736
  307SOL    HW1 1226   1.439   0.428   1.967  2.0036  0.5500  0.7245
  307SOL    HW2 1227   1.471   0.574   1.986  1.1711  0.2327 -0.1066
  307SOL     MW 1228   1.454   0.506   1.932  0.4509  0.1185  0.0273
  308SOL     OW 1229   2.258   0.554   2.752 -0.1042  0.4506  0.2746
  308SOL    HW1 1230   2.355   0.570   2.738 -0.2554  3.8940 -2.1758
  308SOL    HW2 1231   2.222   0.641   2.741 -0.7676  0.2236  2.0524
  308SOL     MW 1232   2.266   0.568   2.749 -0.2117  0.8750  0.1858
  309SOL     OW 1233   0.506   0.547   0.256 -0.6037 -0.0925  0.4335
  309SOL    HW1 1234   0.595   0.573   0.236 -0.4736  0.1297  1.0124
  309SOL    HW2 1235   0.523   0.454   0.262  4.6328  0.6543 -1.3567
  309SOL     MW 1236   0.520   0.538   0.254  0.1044  0.0353  0.2737
  310SOL     OW 1237   0.394   0.536   1.856 -0.4691  0.0464 -0.2458
  310SOL    HW1 1238   0.456   0.465   1.834 -0.4307  0.0731 -0.8797
  310SOL    HW2 1239   0.436   0.624   1.831 -0.6430  3.0200 -1.3441
  310SOL     MW 1240   0.408   0.538   1.850 -0.4870  0.4423 -0.4743
  311SOL     OW 1241   1.981   0.642   1.943  0.3482  0.1822 -0.4204
  311SOL    HW1 1242   1.921   0.665   2.011  1.3286 -0.5866 -1.1699
  311SOL    HW2 1243   2.035   0.564   1.978  1.6207  1.8864 -0.1174
  311SOL     MW 1244   1.980   0.635   1.957  0.6454  0.3056 -0.4793
  312SOL     OW 1245   1.710   2.467   0.153  0.2441  0.2924 -0.2433
  312SOL    HW1 1246   1.722   2.435   0.243 -0.3360  1.0399  1.8023
  312SOL    HW2 1247   1.654   2.541   0.160  1.1358 -0.3923  2.2309
  312SOL     MW 1248   1.704   2.472   0.166  0.2852  0.3007  0.3530
  313SOL     OW 1249   0.155   1.156   3.030  0.4771  0.3338 -0.5443
  313SOL    HW1 1250   0.094   1.174   3.105  0.4666 -0.2207 -0.6228
  313SOL    HW2 1251   0.147   1.219   2.953  0.2552  0.9270 -1.5814
  313SOL     MW 1252   0.146   1.167   3.029  0.4465  0.3389 -0.6915
  314SOL     OW 1253   2.178   2.902   0.021  0.1185 -0.2801 -0.4199
  314SOL    HW1 1254   2.111   2.919  -0.055 -1.3014 -1.8666  0.3180
  314SOL    HW2 1255   2.232   2.971   0.015 -4.0392 -2.6546 -0.8185
  314SOL     MW 1256   2.176   2.913   0.010 -0.6174 -0.8027 -0.3752
  315SOL     OW 1257   1.542   1.845   3.011  0.1391 -0.0210 -0.0003
  315SOL    HW1 1258   1.486   1.904   3.061 -0.5014 -0.9173  1.7197
  315SOL    HW2 1259   1.580   1.907   2.942 -0.6088 -1.1267 -1.2723
  315SOL     MW 1260   1.540   1.861   3.009 -0.0441 -0.2852  0.0588
  316SOL     OW 1261   1.207   0.670   2.685  0.0031  0.7380  0.0362
  316SOL    HW1 1262   1.284   0.728   2.708  1.7620  0.9994  0.9048
  316SOL    HW2 1263   1.172   0.639   2.773  2.7641  2.0261 -1.0064
  316SOL     MW 1264   1.213   0.674   2.700  0.5994  0.9425  0.0132
  317SOL     OW 1265   0.705   1.584   2.630  0.7258  0.3892 -0.4505
  317SOL    HW1 1266   0.763   1.503   2.622  1.0085 -3.6404 -3.8121
  317SOL    HW2 1267   0.681   1.600   2.539 -2.4253 -2.5883  3.8149
  317SOL     MW 1268   0.710   1.575   2.617  0.3473 -0.5353 -0.3312
  318SOL     OW 1269   1.369   0.387   2.886 -0.4404  0.2043 -0.1537
  318SOL    HW1 1270   1.308   0.447   2.850  2.3632  0.8356  0.9034
  318SOL    HW2 1271   1.460   0.420   2.874  1.2241 -0.7453 -2.2588
  318SOL     MW 1272   1.373   0.400   2.880  0.1491  0.1623 -0.2920
  319SOL     OW 1273   0.785   0.504   2.832  0.1305  0.5870  0.6593
  319SOL    HW1 1274   0.782   0.419   2.778  1.2851  0.8159 -3.9166
  319SOL    HW2 1275   0.755   0.475   2.913 -0.5326  1.2127 -2.6782
  319SOL     MW 1276   0.781   0.489   2.835  0.1954  0.6998 -0.3848
  320SOL     OW 1277   1.026   1.332   1.991 -0.3660  0.1565 -0.3747
  320SOL    HW1 1278   1.101   1.277   2.009  1.8843 -0.2596 -0.5384
  320SOL    HW2 1279   1.066   1.410   1.947 -2.8352  2.3602  1.4281
  320SOL     MW 1280   1.041   1.335   1.987 -0.3949  0.3924 -0.1585
  321SOL     OW 1281   1.045   0.891   3.046 -0.2328  0.7082 -0.1440
  321SOL    HW1 1282   0.967   0.863   2.994 -1.4205 -0.7603  0.1103
  321SOL    HW2 1283   1.094   0.806   3.045 -3.0738 -0.0109 -0.3227
  321SOL     MW 1284   1.042   0.876   3.039 -0.7643  0.4196 -0.1340
  322SOL     OW 1285   1.267   0.864   1.657  0.5108  0.0583 -0.1081
  322SOL    HW1 1286   1.323   0.796   1.690  1.7169  0.7864 -0.6864
  322SOL    HW2 1287   1.225   0.907   1.733  2.0124 -1.1893  0.2596
  322SOL     MW 1288   1.269   0.861   1.671  0.8681 -0.0102 -0.1359
  323SOL     OW 1289   1.201   1.521   1.899 -0.2400 -0.0647 -0.1173
  323SOL    HW1 1290   1.237   1.554   1.817 -0.8333 -0.8607 -0.4281
  323SOL    HW2 1291   1.206   1.590   1.965 -0.1079 -0.8925 -0.5398
  323SOL     MW 1292   1.207   1.535   1.897 -0.3008 -0.2790 -0.2141
  324SOL     OW 1293   1.437   0.953   2.521  0.2214 -0.6671  0.1205
  324SOL    HW1 1294   1.410   0.972   2.603  2.9662 -0.7447 -1.3119
  324SOL    HW2 1295   1.509   1.014   2.512 -1.2652 -2.5195 -3.6734
  324SOL     MW 1296   1.443   0.964   2.530  0.3874 -0.9218 -0.5691
  325SOL     OW 1297   1.065   0.534   2.916  0.6580  0.0147 -0.0929
  325SOL    HW1 1298   1.051   0.545   3.010  0.4838  0.5656  1.6818
  325SOL    HW2 1299   0.974   0.523   2.877 -0.1395 -1.2740 -0.3633
  325SOL     MW 1300   1.051   0.534   2.923  0.5298 -0.0826  0.1056
  326SOL     OW 1301   0.396   1.388   2.326  0.3871 -0.0762  0.0385
  326SOL    HW1 1302   0.477   1.361   2.282  2.8825  1.9101  1.5243
  326SOL    HW2 1303   0.397   1.488   2.305  2.0879  2.8671 -0.3428
  326SOL     MW 1304   0.407   1.398   2.318  0.9407  0.5742  0.1842
  327SOL     OW 1305   1.983   0.774   2.435 -0.3624 -0.4506  0.5473
  327SOL    HW1 1306   1.968   0.757   2.526  0.9805  2.4131  0.4517
  327SOL    HW2 1307   2.028   0.855   2.437 -0.0263 -0.4111 -1.6983
  327SOL     MW 1308   1.987   0.782   2.448 -0.1409 -0.0675  0.2384
  328SOL     OW 1309   0.215   1.332   2.114  0.0640 -0.2237 -0.1436
  328SOL    HW1 1310   0.134   1.280   2.134  0.3752  0.9017  3.5307
  328SOL    HW2 1311   0.253   1.336   2.200 -0.1855  2.5160  1.8995
  328SOL     MW 1312   0.209   1.325   2.128  0.0721  0.2862  0.6108
  329SOL     OW 1313   0.060   0.099   1.361  0.2437  0.1557 -0.0243
  329SOL    HW1 1314   0.045   0.061   1.452 -1.9381 -2.7088  2.2330
  329SOL    HW2 1315   0.152   0.130   1.354 -1.5902  0.3786 -0.9177
  329SOL     MW 1316   0.070   0.098   1.372 -0.2861 -0.1928  0.1556
  330SOL     OW 1317   0.379   0.054   2.004 -0.1166 -0.2633 -0.2766
  330SOL    HW1 1318   0.455   0.061   2.063 -0.8336  0.2517  0.9146
  330SOL    HW2 1319   0.318  -0.010   2.045 -2.2034  1.1259 -3.4661
  330SOL     MW 1320   0.381   0.046   2.017 -0.4865 -0.0121 -0.5403
  331SOL     OW 1321   0.771   1.244   2.366  0.4601 -0.6752  0.1766
  331SOL    HW1 1322   0.737   1.323   2.325 -2.8369  1.1400 -3.9293
  331SOL    HW2 1323   0.804   1.280   2.449 -0.0150 -0.9015 -1.3953
  331SOL     MW 1324   0.771   1.260   2.372 -0.0376 -0.4655 -0.5725
  332SOL     OW 1325   1.351   1.651   2.926 -0.1171 -0.0551 -0.2725
  332SOL    HW1 1326   1.362   1.652   2.826  0.1334  0.8304 -1.2145
  332SOL    HW2 1327   1.373   1.740   2.944 -2.1617 -1.2095  1.7830
  332SOL     MW 1328   1.355   1.663   2.915 -0.3538 -0.0906 -0.1256
  333SOL     OW 1329   1.693   1.368   2.928  0.4397  0.2964  0.2426
  333SOL    HW1 1330   1.781   1.334   2.940  0.6279  2.5949  0.6444
  333SOL    HW2 1331   1.637   1.302   2.978 -0.4649  0.0231  0.9397
  333SOL     MW 1332   1.698   1.355   2.936  0.3451  0.5636  0.3876
  334SOL     OW 1333   1.347   3.095   2.606 -0.0283 -0.2487 -0.3503
  334SOL    HW1 1334   1.275   3.075   2.671  0.5161  0.8134 -0.1410
  334SOL    HW2 1335   1.407   3.141   2.662 -1.4001 -0.1338 -1.1570
  334SOL     MW 1336   1.345   3.099   2.622 -0.1375 -0.0934 -0.4291
  335SOL     OW 1337   1.276   0.727   3.001  0.2327  0.3220 -0.0915
  335SOL    HW1 1338   1.323   0.726   3.090  1.3600  0.3306 -2.1856
  335SOL    HW2 1339   1.328   0.789   2.956 -2.1857 -1.9616  1.6270
  335SOL     MW 1340   1.289   0.735   3.007  0.0623  0.0218 -0.1411
  336SOL     OW 1341   0.917   1.165   1.719  0.1205 -0.0506 -0.1259
  336SOL    HW1 1342   0.826   1.174   1.759 -2.4437 -1.5249  2.1627
  336SOL    HW2 1343   0.962   1.110   1.778 -1.3265  0.6801  1.6597
  336SOL     MW 1344   0.911   1.159   1.732 -0.4087 -0.1487  0.4116
  337SOL     OW 1345   0.494   1.962   2.785  0.1025  0.2301 -0.0164
  337SOL    HW1 1346   0.428   1.903   2.748 -1.3131  0.0415  0.7694
  337SOL    HW2 1347   0.582   1.923   2.765 -1.1680 -1.2998  3.0992
  337SOL     MW 1348   0.496   1.949   2.778 -0.2519  0.0033  0.4984
  338SOL     OW 1349   1.053   0.772   2.456  0.2881 -0.6305 -0.1787
  338SOL    HW1 1350   0.972   0.712   2.447  0.8139  0.3619  0.5312
  338SOL    HW2 1351   1.109   0.738   2.523 -0.0653 -0.0352  1.2403
  338SOL     MW 1352   1.050   0.759   2.464  0.3109 -0.4210  0.1022
  339SOL     OW 1353   1.406   1.267   1.919 -0.2262  0.7538  0.1089
  339SOL    HW1 1354   1.364   1.230   1.839 -0.8580  0.5503 -0.3031
  339SOL    HW2 1355   1.376   1.207   1.988  2.6111  0.7459  2.4737
  339SOL     MW 1356   1.396   1.254   1.917  0.0648  0.7259  0.3666
  340SOL     OW 1357   1.291   1.487   0.070  0.4246  0.6413  0.1494
  340SOL    HW1 1358   1.324   1.521  -0.015 -3.8491  0.2922  0.9347
  340SOL    HW2 1359   1.364   1.445   0.114  2.2237 -2.6531 -0.7774
  340SOL     MW 1360   1.305   1.486   0.064  0.0981  0.1605  0.1307
  341SOL     OW 1361   0.143   1.366   2.814  0.5840  0.0034  0.9424
  341SOL    HW1 1362   0.233   1.385   2.831 -1.8226  0.3213 -0.1560
  341SOL    HW2 1363   0.135   1.332   2.723 -0.9361  0.8631  1.0306
  341SOL     MW 1364   0.153   1.364   2.805  0.0659  0.1588  0.8091
  342SOL     OW 1365   1.404   0.329   0.066 -0.0414 -0.5984 -0.2979
  342SOL    HW1 1366   1.480   0.373   0.092 -2.9302  1.2977 -1.4571
  342SOL    HW2 1367   1.383   0.374  -0.016  0.8578  1.9019 -0.8252
  342SOL     MW 1368   1.412   0.341   0.059 -0.3039 -0.0184 -0.5204
  343SOL     OW 1369   0.225   0.230   2.154 -0.5450  0.3099  0.4907
  343SOL    HW1 1370   0.288   0.175   2.109 -0.0051 -0.5499 -1.4235
  343SOL    HW2 1371   0.138   0.204   2.129  0.8029  0.2467  0.1494
  343SOL     MW 1372   0.222   0.219   2.145 -0.2959  0.1881  0.1931
  344SOL     OW 1373   1.712   1.994   0.165  0.4066  0.4710  0.4407
  344SOL    HW1 1374   1.729   2.033   0.080 -2.5704 -1.2750  2.8910
  344SOL    HW2 1375   1.653   1.911   0.141  0.2664  0.0991  0.9136
  344SOL     MW 1376   1.707   1.988   0.150 -0.0047  0.1915  0.8264
  345SOL     OW 1377   0.673   1.629   2.352 -0.5653 -0.5634 -0.6527
  345SOL    HW1 1378   0.587   1.626   2.315  0.0801  1.0038 -1.6285
  345SOL    HW2 1379   0.736   1.617   2.277 -0.0293  1.3448  0.5156
  345SOL     MW 1380   0.670   1.627   2.337 -0.4094 -0.1048 -0.6273
  346SOL     OW 1381   1.667   1.138   0.038  0.2224  0.8707 -0.0164
  346SOL    HW1 1382   1.742   1.128   0.096 -0.3886 -2.9672  1.8327
  346SOL    HW2 1383   1.619   1.061   0.074  2.3899  1.3991  2.1722
  346SOL     MW 1384   1.670   1.127   0.050  0.4278  0.4341  0.5163
  347SOL     OW 1385   1.172   0.612   2.211  0.0824  0.3015 -0.0208
  347SOL    HW1 1386   1.222   0.540   2.256  1.1190 -2.3810  0.2220
  347SOL    HW2 1387   1.136   0.649   2.291  1.2754 -0.6428 -0.0726
  347SOL     MW 1388   1.174   0.607   2.228  0.3766 -0.1770  0.0044
  348SOL     OW 1389   1.333   2.549   1.920 -0.5741  0.4435  0.4764
  348SOL    HW1 1390   1.342   2.495   2.008 -0.5172  1.1517 -0.4881
  348SOL    HW2 1391   1.323   2.632   1.954  1.8871 -1.7924 -1.3728
  348SOL     MW 1392   1.333   2.552   1.936 -0.2419  0.2419  0.1051
  349SOL     OW 1393   1.477   0.158   2.788  0.2496 -0.1009 -0.2767
  349SOL    HW1 1394   1.425   0.224   2.837 -0.7887  1.8629  0.1762
  349SOL    HW2 1395   1.513   0.109   2.862 -0.6071  4.2627  1.1790
  349SOL     MW 1396   1.475   0.161   2.804 -0.0005  0.7339 -0.0249
  350SOL     OW 1397   1.833   0.639   2.647  0.4812 -0.7496  0.2786
  350SOL    HW1 1398   1.781   0.571   2.605  3.1247 -0.7371  1.3149
  350SOL    HW2 1399   1.900   0.581   2.691  2.4394  2.9035 -1.5910
  350SOL     MW 1400   1.835   0.622   2.647  1.0884 -0.2660  0.1687
  351SOL     OW 1401   0.081   1.173   1.567 -0.0523  0.5567 -0.2031
  351SOL    HW1 1402   0.067   1.098   1.625  0.3635 -1.9389 -3.2479
  351SOL    HW2 1403   0.133   1.237   1.615  0.1201  2.1732 -1.4564
  351SOL     MW 1404   0.086   1.172   1.581  0.0253  0.4407 -0.7702
  352SOL     OW 1405   0.739   1.846   2.782 -0.4121  0.5190 -0.0511
  352SOL    HW1 1406   0.739   1.813   2.870  1.0849  2.4011 -0.5566
  352SOL    HW2 1407   0.759   1.766   2.734 -1.0164 -2.5417 -0.3926
  352SOL     MW 1408   0.742   1.831   2.787 -0.2943  0.3635 -0.1629
  353SOL     OW 1409   3.095   2.597   2.629 -0.3366  0.2380 -0.1385
  353SOL    HW1 1410   3.170   2.542   2.610 -1.1001  1.6166 -1.0203
  353SOL    HW2 1411   3.082   2.646   2.548 -1.0212 -0.5018 -0.0044
  353SOL     MW 1412   3.103   2.597   2.615 -0.5276  0.3223 -0.2372
  354SOL     OW 1413   0.371   2.415   0.833 -0.4612 -0.3385 -0.0784
  354SOL    HW1 1414   0.409   2.398   0.918  0.3084  0.4359  0.5761
  354SOL    HW2 1415   0.308   2.345   0.825  2.8711  2.7933 -0.6658
  354SOL     MW 1416   0.367   2.404   0.843  0.0800  0.1769 -0.0696
  355SOL     OW 1417   0.076   2.227   0.406  0.4041  0.2266  0.3416
  355SOL    HW1 1418   0.006   2.161   0.381  1.3314 -0.1101  0.9877
  355SOL    HW2 1419   0.069   2.264   0.494  1.0175  1.7082 -1.8185
  355SOL     MW 1420   0.066   2.223   0.415  0.6073  0.3777  0.1419
  356SOL     OW 1421   0.750   2.955   1.053  0.3241 -0.5145 -0.0648
  356SOL    HW1 1422   0.819   2.967   0.985 -1.4187 -0.2286 -0.4552
  356SOL    HW2 1423   0.694   2.883   1.022  0.8397 -2.8907 -0.1226
  356SOL     MW 1424   0.752   2.947   1.040  0.1622 -0.7903 -0.1239
  357SOL     OW 1425   1.852   2.795   0.442  0.2983 -0.4812  0.0818
  357SOL    HW1 1426   1.838   2.798   0.535  1.8066 -0.5388 -0.0783
  357SOL    HW2 1427   1.927   2.732   0.435 -1.3762  0.5494 -3.2184
  357SOL     MW 1428   1.860   2.787   0.453  0.2764 -0.3528 -0.3748
  358SOL     OW 1429   0.434   0.145   1.058 -0.6189 -0.0618 -0.3397
  358SOL    HW1 1430   0.533   0.129   1.049  0.5919 -0.1464 -2.1008
  358SOL    HW2 1431   0.402   0.185   0.974 -2.2813  0.2008 -0.3403
  358SOL     MW 1432   0.443   0.148   1.045 -0.6785 -0.0383 -0.5722
  359SOL     OW 1433   0.888   2.986   1.852 -0.4802 -0.0279 -0.0021
  359SOL    HW1 1434   0.877   2.890   1.855 -1.6347 -3.9186 -2.3402
  359SOL    HW2 1435   0.877   3.000   1.762  1.6749  1.4788  2.1393
  359SOL     MW 1436   0.885   2.975   1.841 -0.3482 -0.3424 -0.0281
  360SOL     OW 1437   0.591   2.795   0.913  0.2102  0.0061 -0.0916
  360SOL    HW1 1438   0.593   2.786   0.819 -0.7599 -0.9694  0.8122
  360SOL    HW2 1439   0.574   2.702   0.944 -0.3742  0.0740  1.5841
  360SOL     MW 1440   0.589   2.782   0.905  0.0051 -0.1136  0.2488
  361SOL     OW 1441   0.213   2.694   1.368 -0.3181 -0.2410  0.7446
  361SOL    HW1 1442   0.151   2.734   1.423 -2.6146 -2.4693  0.2969
  361SOL    HW2 1443   0.291   2.757   1.357  1.3115 -2.3156  1.6663
  361SOL     MW 1444   0.215   2.707   1.374 -0.4061 -0.8087  0.8071
  362SOL     OW 1445   1.374   2.415   0.612 -0.0085 -0.1276  0.1568
  362SOL    HW1 1446   1.425   2.356   0.672  1.4127 -1.1793  1.2238
  362SOL    HW2 1447   1.420   2.498   0.613 -0.8392  1.1966 -0.1608
  362SOL     MW 1448   1.387   2.418   0.620  0.0694 -0.0916  0.2557
  363SOL     OW 1449   0.298   0.013   0.696  0.2284  0.6157  0.3096
  363SOL    HW1 1450   0.307  -0.071   0.748 -0.8158 -0.5640  1.6455
  363SOL    HW2 1451   0.225  -0.002   0.636 -1.1710 -1.0289  1.5588
  363SOL     MW 1452   0.290  -0.000   0.695 -0.0940  0.2430  0.6507
  364SOL     OW 1453   0.803   0.191   0.128  0.1491 -0.2257  0.0992
  364SOL    HW1 1454   0.748   0.132   0.183  1.3771  2.1426  1.7620
  364SOL    HW2 1455   0.759   0.272   0.121 -0.4820  0.0800 -0.0145
  364SOL     MW 1456   0.790   0.194   0.135  0.2279  0.1271  0.3036
  365SOL     OW 1457   0.879   2.017   1.250  0.1454  0.2570  0.8279
  365SOL    HW1 1458   0.905   2.106   1.235 -2.0232  2.2043  0.4380
  365SOL    HW2 1459   0.826   1.995   1.177  2.1695  0.0918  3.6310
  365SOL     MW 1460   0.876   2.026   1.239  0.1264  0.4921  1.1463
  366SOL     OW 1461   2.927   2.657   0.934 -0.3285  0.3191  0.0372
  366SOL    HW1 1462   3.012   2.628   0.962 -3.0473  0.8034 -3.6489
  366SOL    HW2 1463   2.945   2.707   0.851  1.1820 -1.6129  0.4467
  366SOL     MW 1464   2.940   2.660   0.927 -0.4879  0.1281 -0.3951
  367SOL     OW 1465   1.238   3.001   1.003  0.6882  0.0608  0.1242
  367SOL    HW1 1466   1.325   3.033   1.016  2.1196  1.3628  2.6934
  367SOL    HW2 1467   1.231   2.949   0.916 -1.0679  1.7173 -1.7402
  367SOL     MW 1468   1.249   2.998   0.993  0.6454  0.4511  0.2172
  368SOL     OW 1469   1.708   0.449   0.623 -0.4543  0.0148 -0.4731
  368SOL    HW1 1470   1.779   0.401   0.585  0.2697  2.3774 -0.5900
  368SOL    HW2 1471   1.724   0.545   0.604 -0.9232  0.0976  0.6710
  368SOL     MW 1472   1.720   0.455   0.615 -0.4206  0.3374 -0.3376
  369SOL     OW 1473   0.140   2.373   1.739 -0.4380 -0.6312 -0.0720
  369SOL    HW1 1474   0.228   2.392   1.754 -0.2674  0.5626  0.0869
  369SOL    HW2 1475   0.092   2.457   1.739 -0.7324  0.0027  0.9420
  369SOL     MW 1476   0.145   2.387   1.741 -0.4543 -0.3901  0.0828
  370SOL     OW 1477   0.682   0.117   1.044  0.0467  0.0673 -0.1092
  370SOL    HW1 1478   0.739   0.166   0.982 -0.1744  1.1607  2.2353
  370SOL    HW2 1479   0.735   0.030   1.050  2.8987 -0.7177  1.7878
  370SOL     MW 1480   0.697   0.112   1.037  0.3938  0.1079  0.4505
  371SOL     OW 1481   1.150   2.898   1.469 -0.5449  0.6030  0.1470
  371SOL    HW1 1482   1.176   2.822   1.413  0.7877 -1.6225  1.0728
  371SOL    HW2 1483   1.121   2.972   1.417 -1.2907 -1.7336 -2.2857
  371SOL     MW 1484   1.150   2.898   1.455 -0.4675  0.0011 -0.0518
  372SOL     OW 1485   0.810   2.338   0.464 -0.1801 -0.4512 -0.6935
  372SOL    HW1 1486   0.803   2.263   0.526  2.3264  0.6378  0.6079
  372SOL    HW2 1487   0.841   2.303   0.379 -0.1871  1.8311 -1.2544
  372SOL     MW 1488   0.813   2.324   0.461  0.1497 -0.0064 -0.5958
  373SOL     OW 1489   2.859   3.006   1.420 -0.3921 -0.0580  0.3032
  373SOL    HW1 1490   2.932   2.970   1.370  0.3067  0.8410 -1.4779
  373SOL    HW2 1491   2.819   3.065   1.365  2.6652 -0.0102  2.5818
  373SOL     MW 1492   2.863   3.009   1.406  0.1035  0.0670  0.3688
  374SOL     OW 1493   1.599   0.484   0.275 -0.2097  0.5684 -0.2286
  374SOL    HW1 1494   1.680   0.436   0.268  0.6871 -2.0612 -0.7411
  374SOL    HW2 1495   1.563   0.450   0.355  2.0365  0.2246  0.3668
  374SOL     MW 1496   1.605   0.473   0.285  0.2050  0.1761 -0.2176
  375SOL     OW 1497   1.059   2.090   2.259  0.6079 -0.7779 -0.4792
  375SOL    HW1 1498   1.083   2.063   2.344  0.6215  0.2350 -0.5590
  375SOL    HW2 1499   0.999   2.030   2.218 -0.3566  0.5875  0.1856
  375SOL     MW 1500   1.054   2.079   2.264  0.4824 -0.4641 -0.4020
  376SOL     OW 1501   0.810   2.520   0.122  0.3987  0.4618 -0.2656
  376SOL    HW1 1502   0.757   2.454   0.164  0.6298 -0.9199  1.5015
  376SOL    HW2 1503   0.799   2.514   0.024 -0.2351  0.1047 -1.3237
  376SOL     MW 1504   0.802   2.510   0.115  0.3455  0.2324 -0.1720
  377SOL     OW 1505   1.368   2.063   0.919  0.2169  0.3339 -0.0997
  377SOL    HW1 1506   1.285   2.036   0.883 -0.3718 -0.7104 -1.6024
  377SOL    HW2 1507   1.358   2.067   1.009  0.5210  0.7974 -2.5093
  377SOL     MW 1508   1.356   2.060   0.926  0.1793  0.2572 -0.6159
  378SOL     OW 1509   0.881   2.858   1.549  0.0262  0.1573  0.4978
  378SOL    HW1 1510   0.914   2.779   1.590 -1.3959 -2.7734  5.0916
  378SOL    HW2 1511   0.969   2.883   1.507  1.4673  5.6651 -0.6333
  378SOL     MW 1512   0.897   2.851   1.549  0.0287  0.4973  0.9546
  379SOL     OW 1513   1.076   1.585   2.273 -0.2214 -0.5835  0.6503
  379SOL    HW1 1514   1.032   1.580   2.189 -0.7382 -1.9754 -0.7625
  379SOL    HW2 1515   1.158   1.539   2.254  1.2012  1.9297  2.3134
  379SOL     MW 1516   1.081   1.579   2.259 -0.1019 -0.4355  0.6833
  380SOL     OW 1517   0.876   0.117   1.463 -0.7538  0.4008  0.2596
  380SOL    HW1 1518   0.893   0.052   1.396 -0.6916  1.5354  2.7808
  380SOL    HW2 1519   0.951   0.105   1.528  0.3128  1.7445 -1.1996
  380SOL     MW 1520   0.888   0.107   1.463 -0.6049  0.7278  0.3997
  381SOL     OW 1521   0.829   2.061   0.853  0.3379  0.1354  0.1052
  381SOL    HW1 1522   0.927   2.053   0.849  2.6964 -0.4545 -1.6699
  381SOL    HW2 1523   0.814   2.137   0.914  1.3546 -0.8744 -0.6185
  381SOL     MW 1524   0.840   2.070   0.861  0.7832 -0.0757 -0.2245
  382SOL     OW 1525   0.845   0.150   0.578  0.0923  0.0893 -0.8727
  382SOL    HW1 1526   0.814   0.175   0.667  0.3461  0.0099  1.6262
  382SOL    HW2 1527   0.777   0.086   0.552  1.6488  0.4222  2.8121
  382SOL     MW 1528   0.832   0.145   0.586  0.3311  0.1228 -0.0568
  383SOL     OW 1529   0.645   0.012   0.314  0.2989 -0.2938 -0.2055
  383SOL    HW1 1530   0.676  -0.066   0.268 -1.6338  0.5683 -0.6893
  383SOL    HW2 1531   0.574  -0.032   0.358  1.6981  1.2161 -1.6393
  383SOL     MW 1532   0.640  -0.004   0.314  0.2285  0.0192 -0.4585
  384SOL     OW 1533   0.760   2.980   0.626  0.2104 -0.2155 -0.1975
  384SOL    HW1 1534   0.804   3.005   0.706 -2.2466 -1.8563 -3.2447
  384SOL    HW2 1535   0.693   2.911   0.651  1.2245  0.3818  2.4718
  384SOL     MW 1536   0.757   2.974   0.640  0.0200 -0.3532 -0.2474
  385SOL     OW 1537   1.339   2.079   1.522  0.2684 -0.5349  0.1352
  385SOL    HW1 1538   1.418   2.115   1.560  1.2614 -0.6099 -1.8784
  385SOL    HW2 1539   1.321   2.002   1.579 -2.3834 -0.8142 -1.9110
  385SOL     MW 1540   1.347   2.073   1.535  0.0495 -0.5817 -0.4005
  386SOL     OW 1541   1.474   0.446   0.891  0.3264 -0.1101 -0.4643
  386SOL    HW1 1542   1.401   0.475   0.948 -0.1944  2.4137 -1.9467
  386SOL    HW2 1543   1.563   0.444   0.928 -0.8165 -0.3044 -0.8128
  386SOL     MW 1544   1.476   0.450   0.903  0.1069  0.1973 -0.7059
  387SOL     OW 1545   0.789   2.216   1.595  0.1224 -0.0254 -0.3144
  387SOL    HW1 1546   0.853   2.267   1.555 -0.6919 -1.2910  1.3382
  387SOL    HW2 1547   0.819   2.124   1.585 -3.2882  1.8693 -0.8863
  387SOL     MW 1548   0.801   2.210   1.588 -0.4350  0.0576 -0.1718
  388SOL     OW 1549   1.470   2.756   1.417 -0.4064  0.7439  0.1658
  388SOL    HW1 1550   1.438   2.833   1.366  1.3610 -0.2803  1.5016
  388SOL    HW2 1551   1.477   2.682   1.353 -0.0009 -0.8758  2.0054
  388SOL     MW 1552   1.466   2.756   1.401 -0.1197  0.3951  0.5848
  389SOL     OW 1553   0.484   0.138   3.059 -0.4167 -0.0999 -0.1614
  389SOL    HW1 1554   0.575   0.104   3.055 -0.4857  0.4869  2.4854
  389SOL    HW2 1555   0.466   0.175   2.968  0.7976  1.1363 -2.7548
  389SOL     MW 1556   0.494   0.138   3.047 -0.2656  0.1407 -0.1544
  390SOL     OW 1557   1.364   0.028   0.748  0.0456 -0.1335 -0.5499
  390SOL    HW1 1558   1.392   0.016   0.656 -1.7774 -0.2362  0.9331
  390SOL    HW2 1559   1.432   0.078   0.796  1.6404 -0.4412  2.3785
  390SOL     MW 1560   1.377   0.033   0.742  0.0155 -0.1876  0.0321
  391SOL     OW 1561   0.325   2.190   1.509 -0.2914 -0.0221  0.2158
  391SOL    HW1 1562   0.327   2.177   1.600 -1.7715 -1.4850 -2.1383
  391SOL    HW2 1563   0.297   2.282   1.486 -1.6697  0.7626 -0.0206
  391SOL     MW 1564   0.322   2.200   1.518 -0.6686 -0.1116 -0.1260
  392SOL     OW 1565   1.951   2.196   0.309 -0.4068 -0.8250 -0.1425
  392SOL    HW1 1566   2.009   2.269   0.334 -0.1774 -1.9367 -1.3861
  392SOL    HW2 1567   1.866   2.235   0.299 -1.6918 -0.3423 -0.2045
  392SOL     MW 1568   1.948   2.211   0.311 -0.5461 -0.9080 -0.3148
  393SOL     OW 1569   0.243   2.952   2.860 -0.1526 -0.2856 -0.2368
  393SOL    HW1 1570   0.337   2.943   2.839  1.7029 -0.5807 -2.2101
  393SOL    HW2 1571   0.234   3.048   2.863 -1.6861 -0.6020 -0.0728
  393SOL     MW 1572   0.254   2.964   2.858 -0.1101 -0.3663 -0.4755
  394SOL     OW 1573   1.041   1.790   1.519 -0.1231  0.3258  0.5372
  394SOL    HW1 1574   1.051   1.796   1.618 -1.2364 -1.8031  0.2084
  394SOL    HW2 1575   0.954   1.834   1.510 -2.5519 -0.4640  1.4254
  394SOL     MW 1576   1.031   1.797   1.531 -0.5905 -0.0593  0.6110
  395SOL     OW 1577   0.935   2.936   2.711  0.6731 -0.5600 -0.2489
  395SOL    HW1 1578   1.005   3.003   2.754  0.9944  0.8880 -1.1151
  395SOL    HW2 1579   0.996   2.870   2.666  3.5681  0.2680  0.0240
  395SOL     MW 1580   0.952   2.936   2.711  1.0974 -0.2597 -0.3272
  396SOL     OW 1581   0.763   1.914   2.368 -0.3237  0.1185 -0.1537
  396SOL    HW1 1582   0.829   1.902   2.438  1.2286 -1.4506  1.4047
  396SOL    HW2 1583   0.730   1.827   2.376 -0.1325 -0.0109  2.4841
  396SOL     MW 1584   0.768   1.901   2.378 -0.0936 -0.1056  0.3999
  397SOL     OW 1585   0.994   2.312   1.392  0.2414 -0.1268  0.1224
  397SOL    HW1 1586   1.033   2.328   1.309 -0.4938 -0.2337 -0.1446
  397SOL    HW2 1587   1.076   2.303   1.443  4.8934 -0.1268 -2.4463
  397SOL     MW 1588   1.010   2.313   1.388  0.7582 -0.1409 -0.2518
  398SOL     OW 1589   0.631   2.728   0.661 -0.0878  0.2170  0.1917
  398SOL    HW1 1590   0.578   2.699   0.590 -0.8313  2.8529  0.6236
  398SOL    HW2 1591   0.701   2.658   0.671  2.9037  1.9042  0.3145
  398SOL     MW 1592   0.633   2.715   0.653  0.2088  0.7874  0.2649
  399SOL     OW 1593   0.345   2.092   0.369  0.3120 -0.2790  0.5311
  399SOL    HW1 1594   0.262   2.141   0.370  1.2302  0.1541  0.4159
  399SOL    HW2 1595   0.391   2.120   0.285  2.2803 -0.0660 -0.9472
  399SOL     MW 1596   0.340   2.102   0.358  0.6929 -0.1937  0.3209
  400SOL     OW 1597   0.593   1.924   0.075 -0.2981  0.5454  0.0210
  400SOL    HW1 1598   0.561   2.015   0.114 -1.0616  0.1823  1.6952
  400SOL    HW2 1599   0.593   1.866   0.150  0.7272  2.1475  0.8923
  400SOL     MW 1600   0.589   1.928   0.090 -0.2636  0.7089  0.3569
  401SOL     OW 1601   0.847   2.070   0.016  0.6750 -0.5774 -0.1743
  401SOL    HW1 1602   0.925   2.010   0.005  0.0956  0.2751 -1.7369
  401SOL    HW2 1603   0.763   2.017   0.005 -0.3478 -1.3157 -0.0818
  401SOL     MW 1604   0.847   2.055   0.013  0.4636 -0.5623 -0.3683
  402SOL     OW 1605   0.576   3.019   1.765  0.8146  0.1748  0.1898
  402SOL    HW1 1606   0.645   3.021   1.827  0.2604 -0.4984  0.3230
  402SOL    HW2 1607   0.591   3.100   1.715  0.1752  1.4238  0.2395
  402SOL     MW 1608   0.587   3.030   1.767  0.6571  0.2508  0.2140
  403SOL     OW 1609   0.158   0.521   0.392  0.1080 -0.3246 -0.2566
  403SOL    HW1 1610   0.242   0.550   0.433  1.9845 -0.9674  1.2383
  403SOL    HW2 1611   0.189   0.458   0.334 -1.7479 -1.5580 -0.6568
  403SOL     MW 1612   0.173   0.517   0.390  0.1107 -0.5722 -0.1121
  404SOL     OW 1613   0.922   2.955   0.846 -0.4141  0.3376 -0.1807
  404SOL    HW1 1614   0.979   2.879   0.841 -0.3475 -1.4471  0.7101
  404SOL    HW2 1615   0.967   3.031   0.813 -0.2800 -0.6964  1.9947
  404SOL     MW 1616   0.935   2.955   0.841 -0.3876 -0.0343  0.2239
  405SOL     OW 1617   0.518   2.468   1.505  0.2157  0.2194  0.0187
  405SOL    HW1 1618   0.543   2.549   1.465  0.1199  0.4608 -4.4747
  405SOL    HW2 1619   0.550   2.394   1.448  2.2150 -1.9184  0.2819
  405SOL     MW 1620   0.525   2.469   1.492  0.4669 -0.0308 -0.5394
  406SOL     OW 1621   0.424   2.359   1.113  0.8620 -0.0971 -0.1875
  406SOL    HW1 1622   0.328   2.364   1.128 -0.0877 -1.0803 -1.7607
  406SOL    HW2 1623   0.439   2.271   1.146 -0.1146  0.3470 -3.4635
  406SOL     MW 1624   0.414   2.348   1.120  0.6078 -0.1682 -0.8273
  407SOL     OW 1625   0.048   2.639   1.149 -0.3698 -0.5380 -0.8461
  407SOL    HW1 1626   0.086   2.643   1.233 -0.0512  3.0156 -2.8553
  407SOL    HW2 1627   0.116   2.669   1.090 -0.1440 -0.3696  0.5968
  407SOL     MW 1628   0.062   2.644   1.152 -0.2979 -0.0470 -0.9208
  408SOL     OW 1629   2.127   2.135   0.742  0.3577  0.2711 -0.7672
  408SOL    HW1 1630   2.057   2.187   0.797 -1.4351 -0.6676  2.0487
  408SOL    HW2 1631   2.081   2.100   0.657 -0.6149 -0.3047 -2.2478
  408SOL     MW 1632   2.112   2.137   0.738 -0.0071  0.0713 -0.5910
  409SOL     OW 1633   1.626   0.107   0.830  0.0707 -0.4013  0.1029
  409SOL    HW1 1634   1.671   0.193   0.825 -1.4430  0.4094 -1.1765
  409SOL    HW2 1635   1.610   0.083   0.922 -0.9247 -3.3521 -0.7262
  409SOL     MW 1636   1.630   0.115   0.842 -0.2604 -0.6837 -0.1753
  410SOL     OW 1637   1.089   2.417   1.147  0.3817 -0.1336  0.1173
  410SOL    HW1 1638   1.022   2.460   1.092  0.8120  3.1092  2.0157
  410SOL    HW2 1639   1.147   2.377   1.088 -1.9673  0.0078 -1.2615
  410SOL     MW 1640   1.088   2.417   1.132  0.1286  0.3129  0.1859
  411SOL     OW 1641   2.003   2.949   2.916 -0.1985 -0.2496  0.3873
  411SOL    HW1 1642   2.016   2.922   2.826  1.0353  2.0819 -0.1716
  411SOL    HW2 1643   1.968   3.038   2.917 -1.2904 -1.7498 -0.3282
  411SOL     MW 1644   2.000   2.957   2.904 -0.1798 -0.1400  0.2191
  412SOL     OW 1645   1.058   2.240   0.612  0.0341  0.9327  0.7524
  412SOL    HW1 1646   1.062   2.322   0.665  0.7606 -0.8724  2.6833
  412SOL    HW2 1647   1.025   2.276   0.525  0.3025  1.0960 -0.7438
  412SOL     MW 1648   1.054   2.256   0.607  0.1653  0.7161  0.8098
  413SOL     OW 1649   0.616   2.710   0.056  0.5553 -0.2222 -0.5498
  413SOL    HW1 1650   0.687   2.649   0.098 -0.0789  2.4114  1.8964
  413SOL    HW2 1651   0.599   2.673  -0.032 -1.6895 -1.8624 -1.1310
  413SOL     MW 1652   0.623   2.697   0.050  0.1754 -0.0911 -0.3037
  414SOL     OW 1653   2.000   3.028   1.079  0.3682 -0.1899  0.3536
  414SOL    HW1 1654   2.034   3.114   1.097 -0.3048  0.3899 -0.0969
  414SOL    HW2 1655   2.042   3.020   0.990 -0.3249  1.1507  0.4005
  414SOL     MW 1656   2.010   3.038   1.070  0.1880  0.0635  0.3004
  415SOL     OW 1657   1.612   2.836   1.114  0.2907  0.6747 -0.0272
  415SOL    HW1 1658   1.660   2.859   1.196  0.3784 -2.1070  1.1374
  415SOL    HW2 1659   1.674   2.796   1.054 -0.9196  1.7211  0.0637
  415SOL     MW 1660   1.627   2.834   1.117  0.1426  0.4458  0.1385
  416SOL     OW 1661   0.631   1.728   1.471 -0.1058  0.7821 -0.4310
  416SOL    HW1 1662   0.546   1.687   1.441  1.3549  0.2230 -2.0683
  416SOL    HW2 1663   0.697   1.672   1.433  3.2986  2.6723  1.0326
  416SOL     MW 1664   0.629   1.716   1.462  0.5361  0.9578 -0.4539
  417SOL     OW 1665   0.958   0.032   2.094 -0.1999  0.7344 -0.5442
  417SOL    HW1 1666   0.887   0.026   2.164 -1.0067  1.3156 -0.5762
  417SOL    HW2 1667   0.916   0.007   2.015 -0.3423 -2.2377  2.6434
  417SOL     MW 1668   0.943   0.028   2.092 -0.3251  0.4190 -0.1279
  418SOL     OW 1669   0.730   2.918   0.164  0.1832 -0.7526  0.5579
  418SOL    HW1 1670   0.803   2.925   0.102  0.5159  0.4005  1.6841
  418SOL    HW2 1671   0.676   2.847   0.117 -0.1647 -0.5835 -0.6399
  418SOL     MW 1672   0.733   2.910   0.150  0.1812 -0.5782  0.5484
  419SOL     OW 1673   0.606   2.672   1.349  0.3608  0.1025 -0.0972
  419SOL    HW1 1674   0.615   2.764   1.386  0.2148  0.0546  1.0468
  419SOL    HW2 1675   0.680   2.624   1.382  0.3583  0.4358  3.1431
  419SOL     MW 1676   0.617   2.678   1.358  0.3412  0.1401  0.4813
  420SOL     OW 1677   0.790   2.238   1.062 -0.2061  0.2552  1.0982
  420SOL    HW1 1678   0.726   2.260   1.134 -1.1271  1.3298  0.1829
  420SOL    HW2 1679   0.816   2.325   1.028  0.0505 -1.9569  2.2700
  420SOL     MW 1680   0.785   2.253   1.067 -0.2938  0.1051  1.1320
  421SOL     OW 1681   2.896   0.184   0.065 -0.1871  0.0581  0.3204
  421SOL    HW1 1682   2.831   0.118   0.043 -0.2357  0.1701  1.6455
  421SOL    HW2 1683   2.979   0.156   0.028 -0.2201 -3.1457  0.9415
  421SOL     MW 1684   2.898   0.172   0.057 -0.1979 -0.3498  0.5772
  422SOL     OW 1685   0.890   2.497   0.970  0.1713 -0.1703 -0.4619
  422SOL    HW1 1686   0.806   2.532   0.987  2.1353 -1.2679  0.1601
  422SOL    HW2 1687   0.894   2.495   0.877 -2.5023 -1.7842  1.2535
  422SOL     MW 1688   0.879   2.502   0.960  0.0777 -0.5281 -0.1535
  423SOL     OW 1689   1.485   0.051   0.479  0.6096 -0.2394  0.4535
  423SOL    HW1 1690   1.508   0.021   0.390 -1.5819 -0.9297 -2.6368
  423SOL    HW2 1691   1.469   0.144   0.478 -0.2702 -2.6602 -1.7576
  423SOL     MW 1692   1.486   0.060   0.467  0.2044 -0.6499 -0.2460
  424SOL     OW 1693   0.651   2.269   1.340  0.1984 -0.1786 -0.5873
  424SOL    HW1 1694   0.575   2.215   1.334 -0.2199  2.3119 -2.0670
  424SOL    HW2 1695   0.697   2.246   1.418  1.0026  1.7131 -1.8834
  424SOL     MW 1696   0.647   2.259   1.350  0.2493  0.3996 -0.9535
  425SOL     OW 1697   1.691   2.795   2.032  0.1085  0.0655  0.3616
  425SOL    HW1 1698   1.718   2.823   1.943  0.6739  2.6941 -0.0729
  425SOL    HW2 1699   1.737   2.713   2.044 -1.8931 -0.7170 -2.2321
  425SOL     MW 1700   1.701   2.788   2.022 -0.0810  0.3091 -0.0380
  426SOL     OW 1701   0.884   1.706   1.962  0.3418 -0.1895 -0.0182
  426SOL    HW1 1702   0.817   1.707   1.892 -0.8565 -2.3622 -1.2876
  426SOL    HW2 1703   0.871   1.786   2.016 -1.2743 -2.1751 -2.6257
  426SOL     MW 1704   0.873   1.716   1.960 -0.0296 -0.7382 -0.5297
  427SOL     OW 1705   0.390   1.734   1.902 -0.1744  0.3511 -0.1993
  427SOL    HW1 1706   0.419   1.669   1.843 -0.9738  2.2222  3.9898
  427SOL    HW2 1707   0.327   1.684   1.955 -2.2671  0.0665 -0.5036
  427SOL     MW 1708   0.386   1.719   1.902 -0.5560  0.5604  0.3133
  428SOL     OW 1709   0.601   2.567   1.100  0.6348 -0.2316  0.2264
  428SOL    HW1 1710   0.528   2.501   1.102 -2.9509 -0.3181 -2.7464
  428SOL    HW2 1711   0.592   2.606   1.187  2.0033 -0.9808 -1.9017
  428SOL     MW 1712   0.590   2.564   1.112  0.3422 -0.3419 -0.4466
  429SOL     OW 1713   1.164   2.728   1.082  0.5211  0.4791 -0.2531
  429SOL    HW1 1714   1.080   2.756   1.114 -0.9702 -0.0346 -2.0163
  429SOL    HW2 1715   1.202   2.814   1.072  2.7314  0.0304 -0.5355
  429SOL     MW 1716   1.158   2.743   1.085  0.6160  0.3521 -0.5230
  430SOL     OW 1717   1.163   2.785   0.796 -0.0486  0.5172  0.5564
  430SOL    HW1 1718   1.144   2.705   0.850  1.3226 -0.4590  4.4637
  430SOL    HW2 1719   1.123   2.756   0.716 -0.8879  1.4073  2.8948
  430SOL     MW 1720   1.155   2.770   0.792  0.0216  0.5058  1.3805
  431SOL     OW 1721   0.321   1.920   1.104  0.3560  0.1744 -0.1964
  431SOL    HW1 1722   0.376   1.844   1.085 -0.0568 -4.7338 -0.2115
  431SOL    HW2 1723   0.280   1.946   1.019  3.3639 -0.2886 -1.5224
  431SOL     MW 1724   0.323   1.913   1.090  0.6984 -0.5343 -0.3733
  432SOL     OW 1725   0.052   3.071   1.118 -0.4118 -0.2704 -0.5553
  432SOL    HW1 1726   0.041   3.134   1.194  1.3200 -1.3634  4.8377
  432SOL    HW2 1727  -0.011   3.004   1.134  2.3826  1.1005  2.0455
  432SOL     MW 1728   0.043   3.071   1.130  0.1854 -0.2337  0.4994
  433SOL     OW 1729   0.629   2.937   1.474 -0.1767  0.2671  0.2965
  433SOL    HW1 1730   0.585   2.940   1.559  0.4416 -0.2296 -0.2267
  433SOL    HW2 1731   0.732   2.918   1.488  3.6941 -2.5025  0.7884
  433SOL     MW 1732   0.637   2.935   1.487  0.4156 -0.1638  0.2924
  434SOL     OW 1733   1.521   2.823   1.674 -0.1906 -0.0430  1.5473
  434SOL    HW1 1734   1.444   2.866   1.707  1.8610  1.5543  0.6622
  434SOL    HW2 1735   1.491   2.795   1.585 -0.6744 -0.3201  3.1453
  434SOL     MW 1736   1.507   2.825   1.667  0.0163  0.1312  1.6414
  435SOL     OW 1737   2.727   1.734   0.215 -0.5910  0.0181  0.4018
  435SOL    HW1 1738   2.788   1.782   0.154  1.1525  0.4272 -1.2981
  435SOL    HW2 1739   2.646   1.776   0.192 -1.8720  2.9399 -0.6881
  435SOL     MW 1740   2.724   1.746   0.204 -0.5300  0.4575  0.0337
  436SOL     OW 1741   1.324   2.715   0.324  0.3709 -0.1072  0.5199
  436SOL    HW1 1742   1.377   2.680   0.394  1.5435  0.1654  2.1263
  436SOL    HW2 1743   1.296   2.801   0.355 -4.4210 -1.7369  0.3282
  436SOL     MW 1744   1.327   2.722   0.338 -0.1066 -0.2862  0.7066
  437SOL     OW 1745   0.984   3.046   1.287 -0.6306  0.1622  0.0746
  437SOL    HW1 1746   0.996   3.107   1.212 -3.5125 -1.5463  0.5142
  437SOL    HW2 1747   0.941   2.964   1.253  0.0202 -2.4997  0.5059
  437SOL     MW 1748   0.980   3.043   1.273 -0.9249 -0.4144  0.1895
  438SOL     OW 1749   0.900   2.711   1.940 -0.0557  0.3216  1.1695
  438SOL    HW1 1750   0.888   2.645   2.017 -2.0294 -1.5046 -0.8406
  438SOL    HW2 1751   0.849   2.664   1.872  0.1489 -2.9446 -0.9880
  438SOL     MW 1752   0.892   2.696   1.941 -0.2891 -0.3503  0.6196
  439SOL     OW 1753   1.193   2.078   0.432 -0.0168 -0.3033 -0.5589
  439SOL    HW1 1754   1.127   2.116   0.496  2.2103 -0.2942  0.8614
  439SOL    HW2 1755   1.199   2.142   0.356 -1.6779 -0.8615 -0.2341
  439SOL     MW 1756   1.185   2.091   0.431  0.0579 -0.3758 -0.3286
  440SOL     OW 1757   1.747   2.887   3.010  0.1568 -1.1117 -0.2057
  440SOL    HW1 1758   1.747   2.922   3.098 -0.7585 -0.8384 -1.1735
  440SOL    HW2 1759   1.833   2.900   2.973  2.0600 -1.0225 -0.7600
  440SOL     MW 1760   1.758   2.893   3.017  0.2871 -1.0639 -0.4065
  441SOL     OW 1761   0.491   2.656   0.425  0.6553  0.2945 -0.1880
  441SOL    HW1 1762   0.455   2.610   0.345  0.6879  2.7244 -0.3024
  441SOL    HW2 1763   0.472   2.751   0.402  2.6222  3.2960  0.3120
  441SOL     MW 1764   0.484   2.663   0.412  0.9191  1.0111 -0.1371
  442SOL     OW 1765   0.025   2.340   0.633 -0.0483 -0.1173 -0.1021
  442SOL    HW1 1766   0.033   2.430   0.593  2.1004  0.9344 -1.2798
  442SOL    HW2 1767  -0.064   2.321   0.658  1.8913  0.7993 -1.0152
  442SOL     MW 1768   0.015   2.349   0.631  0.4911  0.1424 -0.3780
  443SOL     OW 1769   1.474   1.756   1.925 -0.2288 -0.1128  0.3981
  443SOL    HW1 1770   1.428   1.755   1.845 -0.5262 -1.3754  3.5422
  443SOL    HW2 1771   1.497   1.664   1.938  0.8288  2.3338  0.2210
  443SOL     MW 1772   1.471   1.743   1.916 -0.1285  0.0434  0.7896
  444SOL     OW 1773   0.966   2.583   1.611 -0.4422 -0.0153  0.0241
  444SOL    HW1 1774   1.015   2.522   1.665  0.2849  0.4632 -0.8861
  444SOL    HW2 1775   0.878   2.572   1.654 -0.4676  2.0835  2.6379
  444SOL     MW 1776   0.961   2.574   1.624 -0.3496  0.3248  0.2489
  445SOL     OW 1777   1.234   0.097   1.408 -0.4444 -1.0012  0.0756
  445SOL    HW1 1778   1.294   0.140   1.470 -1.7907 -1.5412  1.6733
  445SOL    HW2 1779   1.215   0.172   1.351  2.2849 -1.6885 -0.2651
  445SOL     MW 1780   1.239   0.112   1.408 -0.2619 -1.1632  0.2414
  446SOL     OW 1781   2.785   2.873   1.044 -0.2905  0.0832  0.2150
  446SOL    HW1 1782   2.724   2.908   0.976  0.3088 -1.6530  0.6945
  446SOL    HW2 1783   2.802   2.787   1.014 -1.6042  1.5655  0.3037
  446SOL     MW 1784   2.779   2.866   1.031 -0.3848  0.0497  0.2899
  447SOL     OW 1785   0.020   1.929   1.556 -0.2505 -0.3124  0.1198
  447SOL    HW1 1786   0.038   1.877   1.637 -1.5533  1.7320 -0.1904
  447SOL    HW2 1787  -0.060   1.884   1.516 -0.0380  0.3451 -0.4741
  447SOL     MW 1788   0.012   1.916   1.561 -0.3944  0.0441  0.0005
  448SOL     OW 1789   1.720   2.368   1.664  0.2459 -0.7607 -0.0923
  448SOL    HW1 1790   1.662   2.297   1.676 -1.6688 -1.1854 -0.1064
  448SOL    HW2 1791   1.671   2.442   1.697 -3.2142 -1.2918 -0.2978
  448SOL     MW 1792   1.706   2.369   1.670 -0.4632 -0.8868 -0.1212
  449SOL     OW 1793   0.908   2.956   0.395  0.4429 -0.2768 -0.2471
  449SOL    HW1 1794   0.854   2.909   0.332 -0.0503  0.2502 -1.2210
  449SOL    HW2 1795   0.855   2.977   0.473  2.5628 -1.3634  1.1435
  449SOL     MW 1796   0.894   2.953   0.397  0.6575 -0.3506 -0.1921
  450SOL     OW 1797   1.139   2.481   0.785 -0.2675 -0.3530 -0.0524
  450SOL    HW1 1798   1.199   2.433   0.854  0.7695 -1.5691 -2.4933
  450SOL    HW2 1799   1.205   2.475   0.713  0.9174 -1.2915 -0.0364
  450SOL     MW 1800   1.156   2.474   0.784  0.0256 -0.6373 -0.3723
  451SOL     OW 1801   0.535   1.960   1.687  0.6790  0.7769  0.4340
  451SOL    HW1 1802   0.616   1.980   1.634  2.0385  1.7061 -0.7806
  451SOL    HW2 1803   0.462   1.939   1.624 -1.0254  3.6246 -2.4093
  451SOL     MW 1804   0.536   1.959   1.672  0.6335  1.2752 -0.1014
  452SOL     OW 1805   0.358   2.644   0.014  0.6978  0.1663 -0.3836
  452SOL    HW1 1806   0.448   2.657   0.045 -0.4906 -0.8280  3.4930
  452SOL    HW2 1807   0.297   2.720   0.016  0.1367  1.3941 -0.2433
  452SOL     MW 1808   0.362   2.656   0.019  0.4669  0.1971  0.1464
  453SOL     OW 1809   0.257   3.022   1.568 -0.7111 -0.0550 -0.1615
  453SOL    HW1 1810   0.301   2.973   1.637  2.0564  0.0995 -2.0014
  453SOL    HW2 1811   0.288   2.997   1.479 -0.7738 -2.0619 -0.7266
  453SOL     MW 1812   0.267   3.012   1.565 -0.3543 -0.2994 -0.4788
  454SOL     OW 1813   0.912   2.772   1.215 -0.8004  0.0183 -0.3443
  454SOL    HW1 1814   0.917   2.685   1.260 -1.0986  2.7442 -1.9531
  454SOL    HW2 1815   0.821   2.790   1.193 -0.6809  0.8085 -0.8170
  454SOL     MW 1816   0.901   2.763   1.218 -0.8240  0.4822 -0.6190
  455SOL     OW 1817   1.791   2.865   0.191  0.4305 -0.0974  0.0744
  455SOL    HW1 1818   1.814   2.834   0.278 -0.1224  1.2057  0.2994
  455SOL    HW2 1819   1.733   2.793   0.156 -0.3863  0.0608 -3.6050
  455SOL     MW 1820   1.787   2.852   0.198  0.2498  0.0954 -0.3814
  456SOL     OW 1821   2.765   0.269   1.459 -0.2047 -0.0676 -0.0821
  456SOL    HW1 1822   2.770   0.202   1.390 -0.8554  1.7426  0.0519
  456SOL    HW2 1823   2.808   0.350   1.426  1.6917  1.5228  0.2784
  456SOL     MW 1824   2.772   0.271   1.446 -0.0404  0.3811 -0.0169
  457SOL     OW 1825   0.798   1.660   3.024 -0.1689 -0.6595  0.1895
  457SOL    HW1 1826   0.706   1.641   3.041  1.1280 -0.7886 -1.9092
  457SOL    HW2 1827   0.840   1.697   3.104  1.8957 -1.2443 -0.6312
  457SOL     MW 1828   0.791   1.662   3.037  0.2746 -0.7537 -0.1957
  458SOL     OW 1829   1.353   1.479   0.704 -0.7239 -0.3300 -0.3847
  458SOL    HW1 1830   1.301   1.539   0.653  1.8362 -2.2790  1.8885
  458SOL    HW2 1831   1.309   1.395   0.690 -1.9716  0.1115 -1.6048
  458SOL     MW 1832   1.340   1.476   0.695 -0.5508 -0.5289 -0.2458
  459SOL     OW 1833   1.635   3.084   0.245 -0.0161 -0.0842 -0.3586
  459SOL    HW1 1834   1.679   2.997   0.233 -0.4947 -0.8392  2.1137
  459SOL    HW2 1835   1.571   3.091   0.176 -0.9810 -2.5264  0.6038
  459SOL     MW 1836   1.633   3.073   0.234 -0.2066 -0.5061  0.0946
  460SOL     OW 1837   1.787   2.226   0.633  0.3428 -0.2490 -0.5718
  460SOL    HW1 1838   1.705   2.235   0.684  2.6124 -0.1673 -0.2912
  460SOL    HW2 1839   1.819   2.132   0.641  0.9894  0.0918 -1.7331
  460SOL     MW 1840   1.780   2.215   0.641  0.7276 -0.1932 -0.6880
  461SOL     OW 1841   0.406   2.420   0.578 -0.2361 -0.4299 -0.4143
  461SOL    HW1 1842   0.429   2.511   0.547 -2.0400  0.4048 -2.3343
  461SOL    HW2 1843   0.378   2.430   0.672 -0.5235  0.7098 -2.5407
  461SOL     MW 1844   0.405   2.434   0.586 -0.5121 -0.1694 -0.9482
  462SOL     OW 1845   0.294   0.237   1.266  0.1797  0.1303  0.0203
  462SOL    HW1 1846   0.344   0.214   1.188 -0.2607  2.0363 -1.3438
  462SOL    HW2 1847   0.373   0.250   1.318 -0.8127 -0.0393 -0.6660
  462SOL     MW 1848   0.311   0.235   1.263 -0.0093  0.3594 -0.2502
  463SOL     OW 1849   1.079   0.052   0.764  0.0488 -0.2232 -0.0538
  463SOL    HW1 1850   1.167   0.016   0.742  0.9357  1.0856  0.4165
  463SOL    HW2 1851   1.038   0.097   0.691  1.2033  0.5750 -2.2933
  463SOL     MW 1852   1.085   0.053   0.751  0.3182  0.0548 -0.2872
  464SOL     OW 1853   0.757   3.092   2.254 -0.6955 -0.5677  0.2252
  464SOL    HW1 1854   0.732   2.999   2.268  0.2406 -0.6728 -1.6174
  464SOL    HW2 1855   0.764   3.137   2.342  0.6342 -0.9538 -0.9097
  464SOL     MW 1856   0.755   3.086   2.268 -0.3965 -0.6325 -0.1676
  465SOL     OW 1857   0.808   0.355   0.409  0.2236 -0.8299 -0.2254
  465SOL    HW1 1858   0.814   0.276   0.465  3.1066 -0.4667  1.5052
  465SOL    HW2 1859   0.756   0.313   0.336  1.2025 -1.0871 -0.5003
  465SOL     MW 1860   0.802   0.339   0.407  0.7331 -0.8159 -0.0334
  466SOL     OW 1861   1.094   2.035   0.811  0.0771  0.0473  0.0933
  466SOL    HW1 1862   1.057   1.970   0.757  1.0590  3.2907  1.5598
  466SOL    HW2 1863   1.092   2.115   0.755 -2.5701 -2.1064 -0.6686
  466SOL     MW 1864   1.089   2.037   0.796 -0.1426  0.1911  0.1863
  467SOL     OW 1865   1.304   2.344   0.940 -0.4614  0.6760 -0.4674
  467SOL    HW1 1866   1.377   2.376   0.996 -2.0651  0.2739  0.6738
  467SOL    HW2 1867   1.302   2.250   0.943 -0.1120  0.5667  2.4972
  467SOL     MW 1868   1.314   2.336   0.948 -0.6269  0.6085  0.0743
  468SOL     OW 1869   0.509   2.697   1.893  0.3031  0.1629  0.9192
  468SOL    HW1 1870   0.471   2.635   1.827  0.8044  3.1629 -4.7916
  468SOL    HW2 1871   0.451   2.776   1.857  2.4943 -0.0881 -3.0087
  468SOL     MW 1872   0.496   2.699   1.880  0.6583  0.5256 -0.3526
  469SOL     OW 1873   0.332   2.100   1.835 -0.2078  0.1577 -0.3068
  469SOL    HW1 1874   0.250   2.047   1.838 -0.8162  2.2124 -1.0116
  469SOL    HW2 1875   0.401   2.042   1.796 -0.2935  2.0935 -1.9718
  469SOL     MW 1876   0.330   2.086   1.830 -0.2994  0.6842 -0.6195
  470SOL     OW 1877   3.057   2.583   0.096 -0.0954 -0.3039 -0.1117
  470SOL    HW1 1878   2.964   2.592   0.123  0.4545 -0.3588 -0.6256
  470SOL    HW2 1879   3.065   2.598   0.002  1.1214 -1.3496  1.1235
  470SOL     MW 1880   3.046   2.586   0.087  0.1377 -0.4491 -0.0165
  471SOL     OW 1881   1.174   2.620   1.372 -0.1811  0.3918 -0.4550
  471SOL    HW1 1882   1.115   2.551   1.400  1.3484 -0.7513  1.2588
  471SOL    HW2 1883   1.193   2.587   1.282 -0.9084  0.4782 -0.7916
  471SOL     MW 1884   1.169   2.606   1.364 -0.0753  0.2524 -0.2733
  472SOL     OW 1885   2.918   2.111   0.337  1.1997  0.3890 -0.2214
  472SOL    HW1 1886   2.920   2.066   0.252  2.3605 -1.9157  0.1201
  472SOL    HW2 1887   2.853   2.068   0.392 -1.6760  0.5675  1.6222
  472SOL     MW 1888   2.910   2.099   0.333  0.9734  0.1085  0.0669
  473SOL     OW 1889   0.842   2.533   1.381  0.4014 -0.3491 -1.2256
  473SOL    HW1 1890   0.885   2.449   1.359  1.8062  0.2056 -2.8086
  473SOL    HW2 1891   0.890   2.555   1.465 -2.5324  0.6782 -0.0128
  473SOL     MW 1892   0.854   2.525   1.389  0.1997 -0.1404 -1.2744
  474SOL     OW 1893   0.654   2.306   1.826 -0.1317 -0.5941  0.3979
  474SOL    HW1 1894   0.734   2.296   1.877 -1.0389  2.3297  0.9995
  474SOL    HW2 1895   0.689   2.278   1.744 -0.3516  0.9119  3.5915
  474SOL     MW 1896   0.669   2.301   1.822 -0.2804 -0.0096  0.8986
  475SOL     OW 1897   1.582   3.072   1.531 -0.1004 -0.0376  0.7465
  475SOL    HW1 1898   1.525   3.055   1.456  2.7550  0.1574 -0.0541
  475SOL    HW2 1899   1.587   3.006   1.598 -1.4484  0.3409 -0.0248
  475SOL     MW 1900   1.575   3.061   1.530  0.0985  0.0381  0.5391
  476SOL     OW 1901   1.446   2.625   1.176 -0.3338 -0.6030  0.0479
  476SOL    HW1 1902   1.366   2.631   1.127  2.6003  1.9425  0.4487
  476SOL    HW2 1903   1.507   2.697   1.154  0.7933  0.3864 -1.4636
  476SOL     MW 1904   1.444   2.635   1.167  0.2020 -0.1366 -0.0987
  477SOL     OW 1905   0.830   2.541   0.662  0.0394  0.0042  0.8063
  477SOL    HW1 1906   0.885   2.607   0.626  0.5181 -1.9425  1.0605
  477SOL    HW2 1907   0.805   2.485   0.593 -0.6524  0.2996  1.3444
  477SOL     MW 1908   0.834   2.542   0.648  0.0113 -0.2137  0.9108
  478SOL     OW 1909   0.220   2.620   0.943  0.5447 -0.1196 -0.5209
  478SOL    HW1 1910   0.266   2.703   0.917 -0.2259 -1.1957 -1.2794
  478SOL    HW2 1911   0.267   2.547   0.904 -1.2589 -0.5816  1.5510
  478SOL     MW 1912   0.232   2.621   0.934  0.2051 -0.3225 -0.3476
  479SOL     OW 1913   1.403   2.001   1.266  0.5882 -0.3304  0.1662
  479SOL    HW1 1914   1.392   2.032   1.359 -2.5059  1.9627 -1.8662
  479SOL    HW2 1915   1.428   1.910   1.277 -0.7790  1.2122  0.8587
  479SOL     MW 1916   1.405   1.993   1.280 -0.0004  0.1757 -0.0106
  480SOL     OW 1917   2.015   2.434   1.338 -0.1523 -0.3792  0.5133
  480SOL    HW1 1918   2.015   2.349   1.379  2.3543  0.8103  1.2486
  480SOL    HW2 1919   1.979   2.422   1.245 -0.0450 -1.2293 -3.0655
  480SOL     MW 1920   2.010   2.421   1.331  0.1926 -0.3344  0.1381
  481SOL     OW 1921   1.043   0.111   1.077  0.1528  0.0384 -0.1793
  481SOL    HW1 1922   1.089   0.034   1.041 -1.9955  0.1502 -2.6167
  481SOL    HW2 1923   1.111   0.173   1.100  0.7212  0.0838 -1.7528
  481SOL     MW 1924   1.058   0.109   1.075 -0.0557  0.0592 -0.7085
  482SOL     OW 1925   1.068   0.026   0.276 -0.3146  0.6469 -0.1705
  482SOL    HW1 1926   0.996  -0.025   0.327 -0.4098 -1.1215  0.9894
  482SOL    HW2 1927   1.060   0.116   0.320 -0.2147  1.2723  3.6028
  482SOL     MW 1928   1.057   0.031   0.288 -0.3140  0.4961  0.4804
  483SOL     OW 1929   0.420   3.005   0.449  0.2926  0.0018  0.2498
  483SOL    HW1 1930   0.337   2.990   0.403 -1.6217  0.9937 -0.2000
  483SOL    HW2 1931   0.400   3.034   0.535 -1.5916 -0.2753  2.8428
  483SOL     MW 1932   0.407   3.007   0.454 -0.2086  0.0961  0.5326
  484SOL     OW 1933   1.845   1.991   1.466 -0.3210  0.6260 -1.1633
  484SOL    HW1 1934   1.884   2.075   1.454 -2.2336 -0.9942  0.9533
  484SOL    HW2 1935   1.819   1.987   1.560 -0.1644  2.6109  0.6603
  484SOL     MW 1936   1.847   2.002   1.477 -0.5527  0.6741 -0.6434
  485SOL     OW 1937   0.583   2.394   0.252  0.6203  0.3607  0.3009
  485SOL    HW1 1938   0.608   2.374   0.340 -0.9630 -1.3091  1.7348
  485SOL    HW2 1939   0.489   2.424   0.262 -0.5319 -2.7072  1.2219
  485SOL     MW 1940   0.574   2.395   0.265  0.2593 -0.2644  0.6116
  486SOL     OW 1941   0.196   2.415   1.468  0.2375 -0.0676 -1.2243
  486SOL    HW1 1942   0.218   2.505   1.435 -1.4785  0.4572  0.3910
  486SOL    HW2 1943   0.167   2.420   1.558 -0.7861  0.2747 -3.0292
  486SOL     MW 1944   0.195   2.428   1.476 -0.1239  0.0468 -1.2493
  487SOL     OW 1945   1.209   1.737   1.021  0.1488  0.5532  0.0406
  487SOL    HW1 1946   1.186   1.825   1.065 -1.6547  3.2998  1.3375
  487SOL    HW2 1947   1.301   1.750   0.996  0.5289 -0.2950 -2.4897
  487SOL     MW 1948   1.218   1.750   1.023 -0.0390  0.8036 -0.1221
  488SOL     OW 1949   1.596   1.811   0.560  0.1574 -0.2246  0.6082
  488SOL    HW1 1950   1.679   1.819   0.509 -1.4688  1.6580 -1.5344
  488SOL    HW2 1951   1.543   1.893   0.541 -0.1164  0.3804 -0.6222
  488SOL     MW 1952   1.600   1.823   0.550 -0.0933  0.1036  0.1632
  489SOL     OW 1953   0.796   0.832   0.615 -0.0964  0.0324  0.3007
  489SOL    HW1 1954   0.817   0.747   0.570 -0.4403  0.0832  0.4821
  489SOL    HW2 1955   0.739   0.806   0.687 -1.0957  1.2329  0.8502
  489SOL     MW 1956   0.791   0.817   0.618 -0.2736  0.1975  0.3971
  490SOL     OW 1957   1.467   2.045   0.521 -0.7990  0.2589  0.2870
  490SOL    HW1 1958   1.502   2.115   0.459  0.5712  2.0448 -0.1422
  490SOL    HW2 1959   1.374   2.049   0.508  1.3510 -0.9268  0.8538
  490SOL     MW 1960   1.459   2.055   0.511 -0.3346  0.3381  0.3051
  491SOL     OW 1961   1.261   2.969   0.425 -0.3017  0.3203 -0.2405
  491SOL    HW1 1962   1.312   3.046   0.468 -1.6412  0.8098  1.2231
  491SOL    HW2 1963   1.190   3.012   0.379 -0.6023  2.3553 -0.7845
  491SOL     MW 1964   1.258   2.985   0.424 -0.5181  0.6534 -0.1192
  492SOL     OW 1965   1.527   2.229   0.758 -0.4163  0.0729  0.2291
  492SOL    HW1 1966   1.504   2.175   0.685  0.6306  0.8570 -0.6809
  492SOL    HW2 1967   1.480   2.187   0.826 -1.2459  0.9037  0.4774
  492SOL     MW 1968   1.517   2.217   0.757 -0.3876  0.2860  0.1418
  493SOL     OW 1969   0.188   2.986   0.300  0.5515 -0.4375 -0.3087
  493SOL    HW1 1970   0.152   3.037   0.377 -0.8651 -2.7530  0.1996
  493SOL    HW2 1971   0.213   3.044   0.233  2.0325 -0.5635 -2.4242
  493SOL     MW 1972   0.186   3.001   0.302  0.5600 -0.7596 -0.5208
  494SOL     OW 1973   0.409   2.458   1.763  0.2033 -0.3349  0.3380
  494SOL    HW1 1974   0.463   2.396   1.809  1.0338  2.5659 -0.2529
  494SOL    HW2 1975   0.446   2.460   1.674 -1.6524 -0.1658  1.9817
  494SOL     MW 1976   0.421   2.450   1.757  0.0680  0.0701  0.4769
  495SOL     OW 1977   2.841   1.744   2.575 -0.1444  0.2133 -0.1747
  495SOL    HW1 1978   2.836   1.840   2.550  0.4856  3.2355 -0.8047
  495SOL    HW2 1979   2.835   1.717   2.674 -0.2905  0.3818  0.0325
  495SOL     MW 1980   2.840   1.753   2.585 -0.0805  0.6343 -0.2305
  496SOL     OW 1981   2.933   2.369   2.669 -0.1583 -0.1948  0.1206
  496SOL    HW1 1982   2.963   2.309   2.736 -3.1832  2.3596  0.3556
  496SOL    HW2 1983   2.992   2.445   2.665  0.7189 -0.6189 -3.4863
  496SOL     MW 1984   2.945   2.371   2.677 -0.4417  0.0863 -0.3243
  497SOL     OW 1985   1.571   2.194   2.637 -0.3881 -0.0323  0.6694
  497SOL    HW1 1986   1.480   2.158   2.646 -2.3143  0.9337  0.1013
  497SOL    HW2 1987   1.611   2.144   2.710 -0.0073  0.0739  0.6646
  497SOL     MW 1988   1.564   2.183   2.647 -0.5920  0.1091  0.5938
  498SOL     OW 1989   1.485   2.694   2.384  0.2987  0.0295 -0.0392
  498SOL    HW1 1990   1.468   2.602   2.405  1.8591 -0.4165 -0.7178
  498SOL    HW2 1991   1.579   2.703   2.390  2.2571  1.2882  1.9149
  498SOL     MW 1992   1.495   2.683   2.387  0.7629  0.1367  0.1291
  499SOL     OW 1993   1.008   0.166   3.044 -0.2439 -0.0799  0.4113
  499SOL    HW1 1994   0.944   0.168   3.113 -0.4603 -1.4742 -4.7672
  499SOL    HW2 1995   1.031   0.077   3.040 -1.9418  2.4564 -0.5062
  499SOL     MW 1996   1.003   0.155   3.053 -0.4964  0.0708 -0.3930
  500SOL     OW 1997   1.054   2.495   2.747 -0.6035  0.2149  0.1479
  500SOL    HW1 1998   1.114   2.443   2.805 -0.0687  0.5971  1.1309
  500SOL    HW2 1999   1.003   2.528   2.818  0.3092 -0.9549  1.2981
  500SOL     MW 2000   1.055   2.493   2.764 -0.4125  0.1110  0.4293
  501SOL     OW 2001   1.783   2.200   3.085 -0.0714  0.0810  0.1499
  501SOL    HW1 2002   1.730   2.274   3.111  0.6376  0.6755  1.7387
  501SOL    HW2 2003   1.870   2.233   3.072 -2.8576  1.0575 -3.1507
  501SOL     MW 2004   1.787   2.214   3.087 -0.3455  0.2883 -0.0759
  502SOL     OW 2005   0.150   2.809   3.059 -0.2732  0.0088 -0.3158
  502SOL    HW1 2006   0.080   2.757   3.021  0.8066  0.4563  2.5322
  502SOL    HW2 2007   0.186   2.859   2.977  0.4642  2.8963  0.2218
  502SOL     MW 2008   0.146   2.809   3.043 -0.0335  0.4488  0.1309
  503SOL     OW 2009   0.978   2.856   2.166 -0.5183  0.1300 -0.0223
  503SOL    HW1 2010   0.952   2.817   2.085  4.1085  0.5144  1.3786
  503SOL    HW2 2011   0.982   2.953   2.157  2.3068 -4.5474 -1.8658
  503SOL     MW 2012   0.975   2.864   2.154  0.4649 -0.4364 -0.0807
  504SOL     OW 2013   0.039   2.744   2.152  0.0604  0.3435  0.1707
  504SOL    HW1 2014   0.084   2.663   2.124  0.4491 -2.1088 -1.3865
  504SOL    HW2 2015   0.041   2.729   2.251 -1.5659  1.3661  3.4146
  504SOL     MW 2016   0.045   2.731   2.161 -0.1029  0.1549  0.3933
  505SOL     OW 2017   1.709   2.721   2.667  0.3715  0.4024 -0.3532
  505SOL    HW1 2018   1.721   2.753   2.580  0.2071  2.9451  2.0416
  505SOL    HW2 2019   1.615   2.737   2.687  0.7658  0.2749  1.9334
  505SOL     MW 2020   1.698   2.728   2.658  0.4019  0.7211  0.2644
  506SOL     OW 2021   1.608   3.018   2.810 -0.0501 -0.2330  0.1018
  506SOL    HW1 2022   1.646   2.981   2.891  0.7862  0.0302  0.0831
  506SOL    HW2 2023   1.685   3.012   2.751 -0.6043 -0.0943 -0.4794
  506SOL     MW 2024   1.623   3.012   2.813 -0.0129 -0.1799  0.0227
  507SOL     OW 2025   0.842   2.739   2.867 -0.3604  0.2170  0.4677
  507SOL    HW1 2026   0.891   2.797   2.809 -2.8958 -3.1234  2.5969
  507SOL    HW2 2027   0.762   2.785   2.891  1.9403 -0.8855  0.4534
  507SOL     MW 2028   0.838   2.753   2.862 -0.3914 -0.3692  0.7467
  508SOL     OW 2029   1.126   2.039   2.537 -0.0365 -0.5401  0.2400
  508SOL    HW1 2030   1.207   2.037   2.590 -1.9173  2.3567  0.4623
  508SOL    HW2 2031   1.081   2.122   2.558  1.6562 -0.3068 -2.9256
  508SOL     MW 2032   1.131   2.050   2.547 -0.0613 -0.1271 -0.1483
  509SOL     OW 2033   0.607   2.553   2.940 -0.3176 -0.0398 -0.2185
  509SOL    HW1 2034   0.628   2.576   2.855 -2.2760 -2.0362 -0.3125
  509SOL    HW2 2035   0.518   2.521   2.940 -1.0368 -1.1647 -0.9309
  509SOL     MW 2036   0.598   2.552   2.929 -0.6709 -0.4516 -0.3249
  510SOL     OW 2037   1.512   2.565   1.726 -0.2970 -0.2827  0.0320
  510SOL    HW1 2038   1.515   2.658   1.709  0.4393  0.4598 -1.3200
  510SOL    HW2 2039   1.443   2.550   1.790  1.7867  2.6786  0.3360
  510SOL     MW 2040   1.504   2.575   1.732  0.0750  0.2060 -0.1062
  511SOL     OW 2041   0.383   2.613   2.433 -0.3062  0.1221  0.4532
  511SOL    HW1 2042   0.474   2.607   2.462 -2.4661 -1.9136 -1.2571
  511SOL    HW2 2043   0.410   2.605   2.337 -1.7234  2.5575  0.0078
  511SOL     MW 2044   0.398   2.611   2.424 -0.7782  0.1749  0.1687
  512SOL     OW 2045   1.019   1.982   2.825  0.3477  0.3454  0.3165
  512SOL    HW1 2046   0.923   1.991   2.834 -0.1179 -0.8783  0.1512
  512SOL    HW2 2047   1.033   1.889   2.839  1.4269  0.6437 -0.8325
  512SOL     MW 2048   1.008   1.971   2.828  0.4287  0.2233  0.1431
  513SOL     OW 2049   1.442   2.398   2.395 -0.0232  0.1133  0.2730
  513SOL    HW1 2050   1.535   2.401   2.369  2.0971 -1.8911 -1.4800
  513SOL    HW2 2051   1.433   2.316   2.440 -1.0238 -0.5062 -0.3960
  513SOL     MW 2052   1.453   2.388   2.397  0.1245 -0.2329 -0.0466
  514SOL     OW 2053   0.242   2.438   2.615 -0.3828 -0.2889 -0.2139
  514SOL    HW1 2054   0.295   2.506   2.576  3.0672 -0.3144  1.0312
  514SOL    HW2 2055   0.254   2.453   2.713 -0.0455 -1.5314 -0.4916
  514SOL     MW 2056   0.250   2.449   2.623  0.1169 -0.4562 -0.0863
  515SOL     OW 2057   1.096   2.030   1.963  0.1626 -0.1328 -0.2389
  515SOL    HW1 2058   1.056   2.116   1.951  1.9037 -3.1913 -0.1644
  515SOL    HW2 2059   1.159   2.041   2.037  3.8258 -0.1368 -0.2292
  515SOL     MW 2060   1.099   2.043   1.971  0.8757 -0.5369 -0.2278
  516SOL     OW 2061   1.465   2.525   3.070  0.1291  0.2427 -0.5714
  516SOL    HW1 2062   1.548   2.505   3.021 -0.7355 -0.0302  1.3532
  516SOL    HW2 2063   1.396   2.479   3.016 -3.8514 -1.0471 -1.2292
  516SOL     MW 2064   1.467   2.517   3.056 -0.5101  0.0365 -0.4042
  517SOL     OW 2065   0.600   2.406   2.134 -0.2127  0.3968 -0.0834
  517SOL    HW1 2066   0.571   2.492   2.164 -0.6252 -3.8024 -1.4479
  517SOL    HW2 2067   0.517   2.375   2.106 -0.6871 -1.3697 -2.0122
  517SOL     MW 2068   0.585   2.413   2.134 -0.3297 -0.3903 -0.5179
  518SOL     OW 2069   1.894   0.091   2.950 -0.4013  0.0216  0.3936
  518SOL    HW1 2070   1.853   0.159   2.895  1.6617 -0.6982 -1.6557
  518SOL    HW2 2071   1.853   0.093   3.039  1.1915 -0.0265  1.4996
  518SOL     MW 2072   1.883   0.100   2.954  0.0811 -0.0797  0.2692
  519SOL     OW 2073   0.745   2.576   1.758 -0.0361  0.2642 -0.0015
  519SOL    HW1 2074   0.704   2.492   1.749 -2.5625 -2.9033  3.2199
  519SOL    HW2 2075   0.673   2.632   1.780 -0.8682 -0.2109 -0.3206
  519SOL     MW 2076   0.730   2.572   1.759 -0.4792 -0.2164  0.3814
  520SOL     OW 2077   1.241   2.116   2.926 -0.6916  0.2351 -0.6413
  520SOL    HW1 2078   1.157   2.076   2.900 -0.9143  1.0912 -0.9133
  520SOL    HW2 2079   1.277   2.072   3.000 -1.6773  1.6075 -1.5480
  520SOL     MW 2080   1.235   2.105   2.932 -0.8510  0.5291 -0.7968
  521SOL     OW 2081   1.731   2.035   2.233  0.0276 -0.2034 -0.4193
  521SOL    HW1 2082   1.763   2.059   2.146  2.8460  0.0274  0.3850
  521SOL    HW2 2083   1.741   1.943   2.228  0.6293  0.3649 -0.5476
  521SOL     MW 2084   1.736   2.026   2.221  0.4789 -0.0980 -0.3301
  522SOL     OW 2085   2.825   2.548   2.175 -0.2063  0.4954  0.3689
  522SOL    HW1 2086   2.898   2.542   2.230 -1.8756 -0.0821 -2.1413
  522SOL    HW2 2087   2.760   2.559   2.240 -0.4174  0.6322 -1.1587
  522SOL     MW 2088   2.826   2.549   2.191 -0.4544  0.4373 -0.1639
  523SOL     OW 2089   0.855   1.485   2.119 -0.6727 -0.0057  0.2631
  523SOL    HW1 2090   0.861   1.570   2.070  0.0635 -1.3110 -0.1674
  523SOL    HW2 2091   0.921   1.425   2.073  1.0904 -0.0116  1.5550
  523SOL     MW 2092   0.865   1.488   2.106 -0.3430 -0.1787  0.3768
  524SOL     OW 2093   0.883   2.471   2.959 -0.1537  0.0187  0.5049
  524SOL    HW1 2094   0.815   2.534   2.924 -2.0791 -0.3861  0.8805
  524SOL    HW2 2095   0.851   2.389   2.924 -1.6760  0.9519  0.3873
  524SOL     MW 2096   0.870   2.469   2.950 -0.6086  0.0884  0.5389
  525SOL     OW 2097   0.352   2.265   2.072  0.2466  0.4973 -0.5150
  525SOL    HW1 2098   0.350   2.215   2.162  0.0194  2.2899  2.2165
  525SOL    HW2 2099   0.337   2.194   2.002 -0.5064 -0.8672  0.7507
  525SOL     MW 2100   0.349   2.249   2.075  0.1173  0.5538  0.0124
  526SOL     OW 2101   0.644   2.086   2.036 -0.1379  0.5915  0.4984
  526SOL    HW1 2102   0.611   2.133   1.961  1.4542 -1.0751  1.4459
  526SOL    HW2 2103   0.597   2.112   2.112  1.7473  0.8235  1.4697
  526SOL     MW 2104   0.633   2.096   2.036  0.3209  0.4022  0.7516
  527SOL     OW 2105   1.371   1.960   2.048  0.6538 -0.0212  0.5996
  527SOL    HW1 2106   1.366   1.969   2.141  2.0210  0.1003  1.6098
  527SOL    HW2 2107   1.409   1.873   2.021  2.5340  0.9116 -0.1230
  527SOL     MW 2108   1.375   1.950   2.057  1.0823  0.1179  0.6376
  528SOL     OW 2109   0.651   2.927   2.940 -0.1036  0.4170  0.6766
  528SOL    HW1 2110   0.695   3.010   2.936  0.2918 -1.3687 -1.3956
  528SOL    HW2 2111   0.603   2.926   2.859  0.4197 -1.9206 -0.4263
  528SOL     MW 2112   0.650   2.938   2.929  0.0176 -0.1270  0.2577
  529SOL     OW 2113   0.941   2.264   1.933  0.4860 -0.2558  0.3329
  529SOL    HW1 2114   0.987   2.282   2.016 -0.3833  2.0935  1.4129
  529SOL    HW2 2115   0.992   2.321   1.878 -1.1698 -0.3245  3.4509
  529SOL     MW 2116   0.954   2.274   1.937  0.1528  0.0451  0.8868
  530SOL     OW 2117   1.224   2.415   2.986  0.4513 -0.2143 -0.2438
  530SOL    HW1 2118   1.154   2.446   3.052  1.9651 -1.8266 -0.3132
  530SOL    HW2 2119   1.217   2.320   2.990  0.3104  0.9824  2.0452
  530SOL     MW 2120   1.214   2.406   2.995  0.6325 -0.2692  0.0490
  531SOL     OW 2121   0.924   1.854   2.562 -0.3471 -0.1455 -0.1544
  531SOL    HW1 2122   0.993   1.916   2.576  1.2460  0.3449  1.4384
  531SOL    HW2 2123   0.868   1.858   2.643  4.1987  2.0819 -1.3065
  531SOL     MW 2124   0.926   1.862   2.575  0.4629  0.2131 -0.0963
  532SOL     OW 2125   1.783   0.275   2.768 -0.3028 -0.4513  0.0214
  532SOL    HW1 2126   1.703   0.223   2.741 -2.8718 -2.4977  3.0588
  532SOL    HW2 2127   1.849   0.245   2.697 -0.7165 -1.9283 -0.0948
  532SOL     MW 2128   1.781   0.264   2.755 -0.6963 -0.9162  0.4068
  533SOL     OW 2129   1.895   2.623   3.082  0.6083 -0.9220  0.7258
  533SOL    HW1 2130   1.842   2.560   3.135 -0.1731 -0.3091  1.9863
  533SOL    HW2 2131   1.843   2.699   3.057  0.7073  2.4999 -3.8891
  533SOL     MW 2132   1.881   2.625   3.086  0.5183 -0.3897  0.2832
  534SOL     OW 2133   1.730   2.384   2.477 -0.7427 -0.1486 -0.2487
  534SOL    HW1 2134   1.675   2.311   2.516  2.4797 -1.5787  0.5295
  534SOL    HW2 2135   1.798   2.396   2.547  0.8740  1.4038  1.1280
  534SOL     MW 2136   1.731   2.376   2.491 -0.1042 -0.1325  0.0356
  535SOL     OW 2137   1.889   2.414   1.879  0.4315  0.1187 -0.8351
  535SOL    HW1 2138   1.843   2.400   1.796 -0.7358 -1.8284 -0.6537
  535SOL    HW2 2139   1.981   2.386   1.881 -0.0885  0.8535  0.8973
  535SOL     MW 2140   1.895   2.409   1.869  0.2089 -0.0413 -0.5826
  536SOL     OW 2141   0.527   1.858   2.099 -0.7927  0.0019  0.4405
  536SOL    HW1 2142   0.484   1.817   2.020  1.9335 -1.0841  1.1553
  536SOL    HW2 2143   0.567   1.939   2.060 -3.7965 -2.6984  0.0289
  536SOL     MW 2144   0.527   1.864   2.083 -0.8293 -0.4977  0.4805
  537SOL     OW 2145   1.080   0.236   2.782  0.0717  0.4622  0.1082
  537SOL    HW1 2146   1.075   0.275   2.869 -0.8572  0.0922 -2.0691
  537SOL    HW2 2147   1.079   0.314   2.718 -1.1906  1.6136 -0.5507
  537SOL     MW 2148   1.079   0.252   2.785 -0.2174  0.5653 -0.2660
  538SOL     OW 2149   1.437   0.063   0.050 -0.3612 -0.0510  0.3858
  538SOL    HW1 2150   1.439   0.159   0.039  1.3288 -0.1037 -1.3905
  538SOL    HW2 2151   1.352   0.026   0.038 -2.2538 -0.9119  2.7762
  538SOL     MW 2152   1.426   0.071   0.047 -0.3879 -0.1716  0.4668
  539SOL     OW 2153   0.681   2.794   2.568 -0.2970 -0.2438  0.1539
  539SOL    HW1 2154   0.734   2.854   2.619 -1.0376 -0.6908  2.5569
  539SOL    HW2 2155   0.703   2.711   2.615  2.0276 -0.6236  2.6062
  539SOL     MW 2156   0.691   2.791   2.581 -0.0880 -0.3529  0.7945
  540SOL     OW 2157   0.245   2.475   2.904  0.0141 -0.0241 -0.0384
  540SOL    HW1 2158   0.286   2.552   2.952  2.0128 -1.0233  0.4483
  540SOL    HW2 2159   0.251   2.395   2.964 -0.2281 -0.2829 -1.9065
  540SOL     MW 2160   0.251   2.474   2.918  0.2458 -0.1901 -0.2206
  541SOL     OW 2161   0.230   2.937   2.127  0.4515  0.2926  0.3757
  541SOL    HW1 2162   0.169   2.865   2.114  2.0684  1.1527 -0.4374
  541SOL    HW2 2163   0.281   2.902   2.204  2.3651 -1.3290  1.9059
  541SOL     MW 2164   0.229   2.922   2.136  0.9173  0.1921  0.4703
  542SOL     OW 2165   0.992   2.260   2.612 -0.3269 -0.0964 -0.8609
  542SOL    HW1 2166   0.927   2.225   2.673  1.1816  1.1342 -0.4503
  542SOL    HW2 2167   1.027   2.342   2.660  0.2089  0.7042  0.2755
  542SOL     MW 2168   0.988   2.266   2.626 -0.0571  0.1716 -0.6568
  543SOL     OW 2169   1.620   2.445   2.800 -0.5563 -0.3328  0.1163
  543SOL    HW1 2170   1.603   2.352   2.767  1.3653 -0.3898  0.4026
  543SOL    HW2 2171   1.671   2.502   2.745 -1.7547  0.3266  0.9637
  543SOL     MW 2172   1.624   2.440   2.788 -0.4609 -0.2533  0.2659
  544SOL     OW 2173   0.712   0.265   2.697 -0.2365  0.6718  0.2249
  544SOL    HW1 2174   0.615   0.256   2.704  0.6188 -1.8748  0.2438
  544SOL    HW2 2175   0.740   0.198   2.635 -2.1536  1.9122  0.3126
  544SOL     MW 2176   0.703   0.255   2.690 -0.3766  0.4995  0.2390
  545SOL     OW 2177   1.487   2.126   2.324 -0.1172  0.0037  0.1622
  545SOL    HW1 2178   1.464   2.141   2.231 -1.1409 -0.9383 -0.4716
  545SOL    HW2 2179   1.586   2.111   2.308  0.6745  0.9480 -0.5005
  545SOL     MW 2180   1.497   2.126   2.309 -0.1478  0.0040 -0.0088
  546SOL     OW 2181   2.872   1.964   0.101  0.3083 -0.7189  0.5040
  546SOL    HW1 2182   2.862   2.043   0.050  3.4255 -0.3894 -0.0434
  546SOL    HW2 2183   2.967   1.935   0.094 -1.3979  1.3671 -1.3256
  546SOL     MW 2184   2.883   1.970   0.093  0.4945 -0.4002  0.1903
  547SOL     OW 2185   0.221   0.059   0.081 -0.2049  0.2782  0.0487
  547SOL    HW1 2186   0.291   0.039   0.025  0.2264  0.8776 -0.5749
  547SOL    HW2 2187   0.144   0.011   0.046  0.2439 -2.9935  0.8084
  547SOL     MW 2188   0.220   0.050   0.069 -0.0888 -0.0743  0.0667
  548SOL     OW 2189   0.314   2.474   0.211 -0.0250  0.7138  0.3532
  548SOL    HW1 2190   0.321   2.545   0.143 -3.4428  1.8178  0.5387
  548SOL    HW2 2191   0.231   2.434   0.190  4.0435  1.2193  0.6295
  548SOL     MW 2192   0.304   2.478   0.199  0.0608  0.9262  0.4141
  549SOL     OW 2193   0.866   1.919   2.117 -0.0625  0.2524 -0.8043
  549SOL    HW1 2194   0.816   1.987   2.074 -0.1833 -2.9798  1.2267
  549SOL    HW2 2195   0.825   1.917   2.203 -1.2560  1.5294  1.7319
  549SOL     MW 2196   0.854   1.927   2.123 -0.2359 -0.0055 -0.2017
  550SOL     OW 2197   1.912   1.728   2.511 -0.0936 -0.5564 -0.2349
  550SOL    HW1 2198   1.877   1.753   2.424 -0.8982 -1.7403  1.1797
  550SOL    HW2 2199   1.854   1.780   2.569  0.6332 -1.4337 -2.1783
  550SOL     MW 2200   1.900   1.738   2.507 -0.1038 -0.8283 -0.3046
  551SOL     OW 2201   0.899   2.216   0.247  0.5323 -0.1194 -0.6031
  551SOL    HW1 2202   0.993   2.220   0.230 -1.9556  1.2194  3.5352
  551SOL    HW2 2203   0.859   2.159   0.186 -1.0786 -0.0466  0.0148
  551SOL     MW 2204   0.906   2.209   0.237 -0.0085  0.0669  0.0244
  552SOL     OW 2205   1.736   1.754   2.264 -0.1163 -1.0434 -0.7191
  552SOL    HW1 2206   1.655   1.717   2.272 -0.4210  0.0114 -1.5863
  552SOL    HW2 2207   1.783   1.691   2.207  1.4147  0.6701  1.3512
  552SOL     MW 2208   1.732   1.741   2.258  0.0455 -0.6781 -0.5604
  553SOL     OW 2209   1.210   2.314   1.540  0.1407  0.5444 -0.0184
  553SOL    HW1 2210   1.251   2.224   1.536  0.7475  0.4249 -0.9322
  553SOL    HW2 2211   1.276   2.369   1.500  0.5096 -0.3864 -0.3869
  553SOL     MW 2212   1.224   2.310   1.534  0.2694  0.4058 -0.1876
  554SOL     OW 2213   0.487   2.915   2.715 -0.1066  0.7054 -0.3715
  554SOL    HW1 2214   0.498   2.997   2.670  0.4273 -2.6130 -0.7823
  554SOL    HW2 2215   0.537   2.856   2.658  1.0061  0.5414  0.4149
  554SOL     MW 2216   0.495   2.918   2.702  0.1107  0.2459 -0.3219
  555SOL     OW 2217   0.582   2.496   2.611  0.7488  0.6983  0.5481
  555SOL    HW1 2218   0.545   2.406   2.636  1.1421 -0.4983  0.4132
  555SOL    HW2 2219   0.672   2.470   2.587 -1.7012  1.9989 -0.1683
  555SOL     MW 2220   0.589   2.480   2.611  0.4774  0.7120  0.4358
  556SOL     OW 2221   1.066   1.881   0.052  0.0501 -0.4707  0.4550
  556SOL    HW1 2222   1.097   1.822  -0.015 -0.0742  0.4283 -0.2926
  556SOL    HW2 2223   1.130   1.876   0.119  0.9706 -1.7940 -1.2533
  556SOL     MW 2224   1.079   1.872   0.052  0.1551 -0.5267  0.1310
  557SOL     OW 2225   1.038   2.728   0.541  0.5217  0.1792  0.2186
  557SOL    HW1 2226   1.084   2.659   0.489 -3.3064  0.7285  1.4596
  557SOL    HW2 2227   1.021   2.799   0.476 -1.3818  0.9623  1.2802
  557SOL     MW 2228   1.042   2.728   0.526 -0.2345  0.3550  0.5224
  558SOL     OW 2229   0.193   2.221   3.049  0.4327  0.0017  0.0241
  558SOL    HW1 2230   0.111   2.227   3.000 -2.0931 -0.6642  0.8659
  558SOL    HW2 2231   0.165   2.233   3.138  0.2289  1.4654  2.1626
  558SOL     MW 2232   0.178   2.224   3.055  0.0725  0.1070  0.4173
  559SOL     OW 2233   1.067   2.360   2.149  0.3179  0.1988  0.7660
  559SOL    HW1 2234   1.160   2.369   2.149 -0.2699  0.7064  2.2772
  559SOL    HW2 2235   1.051   2.286   2.213  0.6692 -0.9810 -1.3421
  559SOL     MW 2236   1.077   2.351   2.158  0.2867  0.1101  0.6872
  560SOL     OW 2237   2.110   2.670   0.159  0.8248 -0.1326  0.5216
  560SOL    HW1 2238   2.156   2.752   0.127 -1.0666  0.0818 -1.7032
  560SOL    HW2 2239   2.038   2.669   0.096  1.1220 -1.8660  0.7666
  560SOL     MW 2240   2.107   2.681   0.146  0.6145 -0.3330  0.2604
  561SOL     OW 2241   0.502   2.169   0.135  0.0466  0.1578  1.4624
  561SOL    HW1 2242   0.508   2.181   0.039  0.1856 -2.3341  1.8021
  561SOL    HW2 2243   0.534   2.253   0.180 -1.1361 -0.2640 -0.4844
  561SOL     MW 2244   0.507   2.182   0.128 -0.0911 -0.2266  1.2504
  562SOL     OW 2245   0.691   2.249   2.360  0.2842  0.7128  0.5436
  562SOL    HW1 2246   0.683   2.297   2.279  2.3001 -0.1445  1.3239
  562SOL    HW2 2247   0.738   2.326   2.394 -1.4696  4.5400 -0.1902
  562SOL     MW 2248   0.696   2.266   2.353  0.3188  1.1046  0.5498
  563SOL     OW 2249   1.235   0.381   0.563 -0.2866  0.5475  0.2764
  563SOL    HW1 2250   1.165   0.348   0.510 -0.8981 -0.5496  1.8018
  563SOL    HW2 2251   1.214   0.356   0.656 -2.2010 -1.8304  5.1045
  563SOL     MW 2252   1.223   0.374   0.569 -0.6199  0.0890  1.1147
  564SOL     OW 2253   1.025   2.648   2.358  0.0224  0.5184  0.3795
  564SOL    HW1 2254   1.027   2.730   2.302 -0.3559  2.9952 -0.2145
  564SOL    HW2 2255   1.050   2.688   2.441 -0.6537  1.0708 -1.0910
  564SOL     MW 2256   1.029   2.664   2.362 -0.1167  0.9181  0.1071
  565SOL     OW 2257   2.762   2.841   2.550 -0.0783 -0.3376  0.4560
  565SOL    HW1 2258   2.775   2.906   2.481 -0.3677 -0.3416  0.2057
  565SOL    HW2 2259   2.722   2.771   2.492  0.2064 -0.6061  0.5126
  565SOL     MW 2260   2.759   2.841   2.533 -0.0789 -0.3736  0.4304
  566SOL     OW 2261   2.190   1.959   2.354  0.1184 -0.1279  0.0017
  566SOL    HW1 2262   2.180   1.914   2.274  3.0892  2.9145  0.2240
  566SOL    HW2 2263   2.278   1.996   2.358 -2.5316  0.0438  0.3028
  566SOL     MW 2264   2.200   1.958   2.344  0.1607  0.2962  0.0708
  567SOL     OW 2265   1.198   3.015   0.045 -0.5162  0.6014 -0.1767
  567SOL    HW1 2266   1.156   3.029   0.130  0.1935  2.2632 -1.1927
  567SOL    HW2 2267   1.253   2.933   0.039  0.5835 -1.6148  0.0943
  567SOL     MW 2268   1.200   3.006   0.056 -0.2774  0.5283 -0.2750
  568SOL     OW 2269   1.659   2.051   2.859 -0.2665 -0.2698 -0.7085
  568SOL    HW1 2270   1.716   2.119   2.909  0.4859  0.3960 -1.3602
  568SOL    HW2 2271   1.716   1.982   2.812 -0.3330 -0.9118 -1.6987
  568SOL     MW 2272   1.674   2.051   2.860 -0.1760 -0.2667 -0.9251
  569SOL     OW 2273   0.117   2.261   2.438 -0.3767 -0.2644  0.2253
  569SOL    HW1 2274   0.034   2.308   2.412 -0.0848 -3.0792 -1.7251
  569SOL    HW2 2275   0.153   2.327   2.497 -1.5063  0.8254 -4.9410
  569SOL     MW 2276   0.110   2.276   2.442 -0.4873 -0.4920 -0.7136
  570SOL     OW 2277   1.484   0.341   0.486  0.3497 -0.3657 -0.7444
  570SOL    HW1 2278   1.398   0.348   0.524 -0.1286  1.5978  1.9865
  570SOL    HW2 2279   1.543   0.381   0.548 -2.3050  0.7385 -2.2654
  570SOL     MW 2280   1.481   0.347   0.499 -0.0637  0.0391 -0.5848
  571SOL     OW 2281   1.339   2.383   2.141 -0.3041 -0.1083 -0.0047
  571SOL    HW1 2282   1.354   2.373   2.239  1.5484  0.5829 -0.2707
  571SOL    HW2 2283   1.405   2.323   2.101  0.4023  1.6610  0.3075
  571SOL     MW 2284   1.350   2.373   2.148  0.0335  0.2163  0.0014
  572SOL     OW 2285   1.066   2.566   0.079 -0.0569 -0.0391  0.0607
  572SOL    HW1 2286   1.064   2.669   0.071  0.1867  3.6083 -0.3508
  572SOL    HW2 2287   0.970   2.545   0.071  1.0108  1.2839  0.7252
  572SOL     MW 2288   1.053   2.577   0.077  0.1162  0.6167  0.0941
  573SOL     OW 2289   1.172   2.255   0.222  0.7016  0.3339  0.4202
  573SOL    HW1 2290   1.243   2.274   0.162  1.4526  2.0066  2.0030
  573SOL    HW2 2291   1.163   2.333   0.282  0.7070  1.3601 -0.0199
  573SOL     MW 2292   1.180   2.268   0.222  0.8014  0.6900  0.5710
  574SOL     OW 2293   1.145   2.502   0.329  0.1748 -0.0246  0.3726
  574SOL    HW1 2294   1.219   2.565   0.322  3.4167  1.8885 -0.8715
  574SOL    HW2 2295   1.104   2.506   0.238  3.2687 -0.9213  2.7304
  574SOL     MW 2296   1.149   2.511   0.316  1.0108  0.1095  0.5195
  575SOL     OW 2297   3.068   2.190   1.642  0.0707  0.6755 -0.1222
  575SOL    HW1 2298   3.086   2.102   1.608  0.1919  1.8207 -3.5102
  575SOL    HW2 2299   3.151   2.232   1.663  1.6296 -1.0533  0.7462
  575SOL     MW 2300   3.081   2.184   1.640  0.2924  0.5985 -0.4546
  576SOL     OW 2301   2.867   1.880   1.966  0.2161  0.0015 -0.2688
  576SOL    HW1 2302   2.874   1.958   1.912 -0.7976 -1.0481 -0.6638
  576SOL    HW2 2303   2.808   1.810   1.922 -2.0664 -2.4811 -0.9254
  576SOL     MW 2304   2.861   1.881   1.953 -0.2188 -0.4646 -0.4075
  577SOL     OW 2305   2.114   0.170   0.001 -0.0802 -0.7874  0.2794
  577SOL    HW1 2306   2.051   0.145  -0.069 -2.9860 -1.5278  0.2624
  577SOL    HW2 2307   2.071   0.149   0.083  0.3074 -1.1877 -3.3812
  577SOL     MW 2308   2.100   0.164   0.003 -0.4125 -0.9379 -0.2059
  578SOL     OW 2309   1.973   2.139   2.380  0.3858  0.3753  0.1880
  578SOL    HW1 2310   1.894   2.085   2.373  2.0400  0.0790 -0.7176
  578SOL    HW2 2311   2.037   2.075   2.342 -1.4500  0.0581 -1.7825
  578SOL     MW 2312   1.971   2.124   2.374  0.3618  0.2944 -0.1914
  579SOL     OW 2313   0.847   2.447   2.465 -0.3312 -0.1521 -0.1105
  579SOL    HW1 2314   0.909   2.388   2.500 -0.8153 -0.3657  0.2606
  579SOL    HW2 2315   0.909   2.510   2.428 -2.9041  1.1123 -2.0904
  579SOL     MW 2316   0.864   2.448   2.465 -0.7345 -0.0134 -0.3227
  580SOL     OW 2317   0.967   2.854   3.081  0.0766  0.3699  0.0063
  580SOL    HW1 2318   1.045   2.894   3.039  1.0767 -1.8210 -1.6306
  580SOL    HW2 2319   0.930   2.805   3.008  1.3601  1.5171 -1.3613
  580SOL     MW 2320   0.972   2.853   3.066  0.3779  0.2322 -0.3901
  581SOL     OW 2321   1.123   2.434   1.768  0.0465  0.3535  0.1449
  581SOL    HW1 2322   1.188   2.469   1.826  0.1836  0.1302  2.3241
  581SOL    HW2 2323   1.163   2.379   1.702  0.7417 -0.7767 -1.8242
  581SOL     MW 2324   1.137   2.431   1.767  0.1563  0.1749  0.1726
  582SOL     OW 2325   3.097   2.917   2.660 -0.2986  0.7263 -0.2889
  582SOL    HW1 2326   3.013   2.958   2.686  1.1127 -1.5647  1.3015
  582SOL    HW2 2327   3.163   2.980   2.679 -1.4632  0.8808  0.4707
  582SOL     MW 2328   3.095   2.931   2.666 -0.2660  0.4444  0.0211
  583SOL     OW 2329   1.971   2.396   2.618 -0.0596  0.5732  0.0673
  583SOL    HW1 2330   2.041   2.433   2.562 -2.1844  0.8212 -0.0194
  583SOL    HW2 2331   1.976   2.303   2.618  0.9384 -0.1645  0.9695
  583SOL     MW 2332   1.981   2.389   2.610 -0.2083  0.5086  0.1749
  584SOL     OW 2333   0.148   1.889   2.197  0.5738 -0.1312  0.0764
  584SOL    HW1 2334   0.177   1.838   2.272 -2.5610 -0.7724 -2.0874
  584SOL    HW2 2335   0.194   1.971   2.221 -1.2670  2.3675  0.1976
  584SOL     MW 2336   0.158   1.893   2.210 -0.0827  0.1139 -0.1931
  585SOL     OW 2337   1.556   2.709   0.167 -0.4370  0.0635  0.3213
  585SOL    HW1 2338   1.511   2.687   0.087  2.1223  0.7180  0.0152
  585SOL    HW2 2339   1.482   2.729   0.229 -1.6924  0.9159 -1.6641
  585SOL     MW 2340   1.540   2.708   0.164 -0.2650  0.2623  0.0189
  586SOL     OW 2341   1.338   2.814   2.567  0.1673 -0.3462 -0.3037
  586SOL    HW1 2342   1.396   2.764   2.501 -0.4661 -0.8745 -1.9006
  586SOL    HW2 2343   1.352   2.907   2.565  1.5104  2.8851 -0.4061
  586SOL     MW 2344   1.348   2.819   2.558  0.2609  0.0104 -0.5279
  587SOL     OW 2345   1.346   1.450   2.168 -0.2793 -0.2190  0.1565
  587SOL    HW1 2346   1.312   1.394   2.236  2.0076  0.4596  0.6540
  587SOL    HW2 2347   1.343   1.404   2.088 -0.1010 -3.5884  0.4180
  587SOL     MW 2348   1.341   1.437   2.167  0.0459 -0.5740  0.2566
  588SOL     OW 2349   1.358   2.005   2.696 -0.1639  0.2777  0.4302
  588SOL    HW1 2350   1.403   1.918   2.684  1.1905 -0.1553  0.9448
  588SOL    HW2 2351   1.356   2.027   2.788 -1.9900 -0.9165  1.8594
  588SOL     MW 2352   1.364   1.996   2.707 -0.2261  0.0630  0.6867
  589SOL     OW 2353   1.409   2.031   0.054 -0.8724  0.1532  0.0361
  589SOL    HW1 2354   1.429   2.129   0.076 -1.6416  1.8318  0.5849
  589SOL    HW2 2355   1.358   1.994   0.126  2.3118  0.0174  1.2431
  589SOL     MW 2356   1.405   2.039   0.066 -0.5538  0.3567  0.2678
  590SOL     OW 2357   0.536   2.660   2.180 -0.0186  0.0322 -0.2667
  590SOL    HW1 2358   0.525   2.690   2.091 -1.3703  0.9676 -1.8669
  590SOL    HW2 2359   0.604   2.721   2.211 -0.5142  1.1833 -0.7805
  590SOL     MW 2360   0.543   2.672   2.172 -0.2623  0.3075 -0.5456
  591SOL     OW 2361   2.228   0.685   0.135 -0.2447 -0.3166  0.2941
  591SOL    HW1 2362   2.161   0.716   0.204 -3.5792  2.1550  3.2578
  591SOL    HW2 2363   2.203   0.716   0.051  0.2799  0.2097  1.8019
  591SOL     MW 2364   2.216   0.693   0.133 -0.6154  0.0790  0.8841
  592SOL     OW 2365   1.665   2.935   0.821 -0.3050 -0.2120 -0.4609
  592SOL    HW1 2366   1.659   3.023   0.792 -0.7075 -0.8335  1.9972
  592SOL    HW2 2367   1.760   2.927   0.828  1.0961 -0.8042  3.0812
  592SOL     MW 2368   1.677   2.945   0.818 -0.1732 -0.3722  0.3308
  593SOL     OW 2369   1.940   0.711   0.780 -0.2768  0.4495 -0.7546
  593SOL    HW1 2370   1.873   0.726   0.706 -3.3626  1.7810 -0.4417
  593SOL    HW2 2371   1.997   0.637   0.752 -0.8196 -1.8604  0.8679
  593SOL     MW 2372   1.939   0.703   0.767 -0.7556  0.3204 -0.4992
  594SOL     OW 2373   2.796   1.029   1.418  0.5379 -0.5371 -0.1415
  594SOL    HW1 2374   2.871   1.081   1.391  0.0881  0.3854  2.6446
  594SOL    HW2 2375   2.772   0.996   1.329 -1.3124 -0.8196  0.4176
  594SOL     MW 2376   2.802   1.031   1.403  0.2344 -0.4527  0.2999
  595SOL     OW 2377   0.515   0.920   0.837  0.3763 -0.4271 -0.1016
  595SOL    HW1 2378   0.499   0.973   0.762 -1.3823  0.9761  1.0477
  595SOL    HW2 2379   0.560   0.991   0.889  2.3136  1.9709 -0.2280
  595SOL     MW 2380   0.519   0.936   0.834  0.3999  0.0744  0.0334
  596SOL     OW 2381   2.465   1.367   0.495  0.1144  0.2298 -0.0285
  596SOL    HW1 2382   2.459   1.452   0.453 -0.7190 -0.1593  1.9479
  596SOL    HW2 2383   2.533   1.366   0.563 -0.0740  2.8804  1.2443
  596SOL     MW 2384   2.473   1.378   0.499 -0.0204  0.5281  0.4002
  597SOL     OW 2385   2.255   0.621   1.572 -0.1111  0.3317  0.5642
  597SOL    HW1 2386   2.273   0.560   1.642  1.3745 -1.0497 -3.8725
  597SOL    HW2 2387   2.165   0.587   1.538 -2.8159  1.0523 -0.7306
  597SOL     MW 2388   2.245   0.608   1.577 -0.2720  0.2445 -0.1921
  598SOL     OW 2389   2.595   1.038   2.900 -0.0637 -0.2844 -0.1853
  598SOL    HW1 2390   2.623   0.948   2.887  2.1227  1.0307  1.5525
  598SOL    HW2 2391   2.677   1.080   2.880 -3.1766  2.5621  0.8265
  598SOL     MW 2392   2.609   1.032   2.896 -0.1859  0.2647  0.1774
  599SOL     OW 2393   3.085   0.434   2.268  0.1812  0.8420  0.2323
  599SOL    HW1 2394   3.138   0.480   2.323  1.3065 -0.6921  1.8702
  599SOL    HW2 2395   3.074   0.485   2.187 -1.2076  2.0888 -1.1836
  599SOL     MW 2396   3.090   0.447   2.265  0.1464  0.8041  0.2616
  600SOL     OW 2397   1.844   1.719   0.828 -0.2582 -0.0949  0.3030
  600SOL    HW1 2398   1.884   1.759   0.904 -0.0832  1.2793 -2.7751
  600SOL    HW2 2399   1.762   1.772   0.817 -0.1935 -0.2033 -0.2801
  600SOL     MW 2400   1.838   1.731   0.836 -0.2265  0.0721 -0.1801
  601SOL     OW 2401   2.555   0.745   0.829  0.0788  0.7967  0.3280
  601SOL    HW1 2402   2.520   0.733   0.915  1.2276 -1.3911 -1.6166
  601SOL    HW2 2403   2.517   0.676   0.774 -2.4810 -0.9100  0.1112
  601SOL     MW 2404   2.545   0.734   0.833 -0.1074  0.2828  0.0428
  602SOL     OW 2405   2.257   1.893   0.753  0.2762 -0.0019  0.3667
  602SOL    HW1 2406   2.186   1.831   0.714 -2.7003 -1.8273  0.4626
  602SOL    HW2 2407   2.220   1.978   0.756 -1.7228  1.2013 -0.0960
  602SOL     MW 2408   2.243   1.896   0.748 -0.3803 -0.0840  0.3183
  603SOL     OW 2409   2.972   1.380   1.957  0.4088 -0.4777  0.1634
  603SOL    HW1 2410   2.965   1.415   2.049  2.6479 -0.6241 -0.2061
  603SOL    HW2 2411   3.025   1.305   1.956 -1.4401  1.6953  2.7870
  603SOL     MW 2412   2.978   1.375   1.969  0.4603 -0.2103  0.4608
  604SOL     OW 2413   2.026   1.366   0.381  0.1449 -0.3518 -0.4257
  604SOL    HW1 2414   2.092   1.332   0.447  0.1917 -0.3595 -1.5119
  604SOL    HW2 2415   1.951   1.398   0.431 -1.2169  0.7433 -2.8614
  604SOL     MW 2416   2.025   1.366   0.396 -0.0286 -0.2084 -0.8904
  605SOL     OW 2417   2.421   1.445   0.799  0.3417 -0.0860 -0.2416
  605SOL    HW1 2418   2.409   1.511   0.733 -0.7529 -0.6623  0.5745
  605SOL    HW2 2419   2.474   1.373   0.765  0.6919 -0.8206 -0.7414
  605SOL     MW 2420   2.426   1.444   0.786  0.2435 -0.2589 -0.1999
  606SOL     OW 2421   2.676   1.736   1.805  0.7908  0.3412  0.0829
  606SOL    HW1 2422   2.613   1.800   1.772  0.8632  0.9311  0.3374
  606SOL    HW2 2423   2.636   1.641   1.810 -1.4750 -0.6373  0.6670
  606SOL     MW 2424   2.663   1.732   1.801  0.5014  0.2899  0.1936
  607SOL     OW 2425   2.383   0.974   3.066  0.2028 -0.6315  0.3229
  607SOL    HW1 2426   2.464   1.005   3.022 -0.9126  0.4992 -1.0146
  607SOL    HW2 2427   2.384   0.974   3.166 -0.0035  1.0429 -0.5334
  607SOL     MW 2428   2.393   0.978   3.073  0.0284 -0.2614  0.0334
  608SOL     OW 2429   1.869   0.243   0.527 -0.1563  0.2802 -0.4837
  608SOL    HW1 2430   1.886   0.254   0.438  2.3523  0.8319 -0.0503
  608SOL    HW2 2431   1.823   0.154   0.536 -1.7953 -0.4711  1.7552
  608SOL     MW 2432   1.865   0.233   0.517 -0.0416  0.2539 -0.1311
  609SOL     OW 2433   2.121   1.879   3.076  0.0504 -0.1202 -0.5561
  609SOL    HW1 2434   2.063   1.821   3.021 -0.8446  1.1560 -0.3597
  609SOL    HW2 2435   2.108   1.863   3.169  1.5687  0.7272 -0.0816
  609SOL     MW 2436   2.112   1.869   3.081  0.1327  0.1600 -0.4676
  610SOL     OW 2437   1.840   0.925   1.221 -0.2841  0.6016  0.3846
  610SOL    HW1 2438   1.858   0.865   1.149  0.2326  1.1448  2.3073
  610SOL    HW2 2439   1.738   0.916   1.232  0.2301 -1.7865  1.2011
  610SOL     MW 2440   1.829   0.916   1.213 -0.1481  0.3582  0.7460
  611SOL     OW 2441   2.477   1.647   0.615 -0.3978 -0.0034  0.3114
  611SOL    HW1 2442   2.512   1.631   0.525 -2.8306  1.6259  0.1166
  611SOL    HW2 2443   2.454   1.737   0.610  1.6340  1.2420 -2.7868
  611SOL     MW 2444   2.479   1.657   0.603 -0.4507  0.3759 -0.1231
  612SOL     OW 2445   2.913   2.932   0.344 -1.0461 -0.2560 -0.0722
  612SOL    HW1 2446   2.924   2.949   0.437 -0.3065  0.1321  2.6326
  612SOL    HW2 2447   2.990   2.880   0.311 -0.0589 -1.3019 -1.6326
  612SOL     MW 2448   2.924   2.927   0.352 -0.8183 -0.3428  0.0788
  613SOL     OW 2449   1.445   1.118   1.006 -0.2701 -0.4675 -0.0774
  613SOL    HW1 2450   1.501   1.195   0.999 -0.0495  0.7087 -1.2690
  613SOL    HW2 2451   1.457   1.069   1.087 -2.7282 -1.2713 -0.3390
  613SOL     MW 2452   1.454   1.122   1.016 -0.5653 -0.4184 -0.2691
  614SOL     OW 2453   2.032   0.465   1.387 -0.1047  0.2761 -0.0531
  614SOL    HW1 2454   2.003   0.418   1.464 -0.5764 -1.0355  2.6474
  614SOL    HW2 2455   1.957   0.519   1.373 -0.3032 -0.6701 -1.2401
  614SOL     MW 2456   2.018   0.466   1.396 -0.1931 -0.0218  0.1466
  615SOL     OW 2457   2.416   0.737   0.328  0.3608  0.0156  0.2951
  615SOL    HW1 2458   2.486   0.671   0.342 -0.5673 -1.4589  2.9735
  615SOL    HW2 2459   2.372   0.713   0.244 -0.1701 -2.3643 -2.9545
  615SOL     MW 2460   2.420   0.725   0.319  0.1683 -0.4930  0.2198
  616SOL     OW 2461   2.570   0.419   1.608  0.4470 -0.2081 -0.0117
  616SOL    HW1 2462   2.620   0.365   1.550  0.5988 -0.2914 -0.4508
  616SOL    HW2 2463   2.562   0.508   1.575  0.3913  0.5409  3.2929
  616SOL     MW 2464   2.575   0.424   1.596  0.4597 -0.1203  0.3664
  617SOL     OW 2465   2.837   0.544   1.876 -0.5387 -0.0684 -0.0910
  617SOL    HW1 2466   2.770   0.552   1.943  0.1048  1.0688 -1.8499
  617SOL    HW2 2467   2.825   0.461   1.838  0.5215 -0.5034  0.0326
  617SOL     MW 2468   2.827   0.534   1.879 -0.3139  0.0243 -0.3068
  618SOL     OW 2469   2.796   0.234   2.003  0.2426  0.5368  0.0842
  618SOL    HW1 2470   2.742   0.289   2.069 -1.7888  2.7131 -0.0997
  618SOL    HW2 2471   2.879   0.224   2.057  2.6393  1.0128  0.4427
  618SOL     MW 2472   2.799   0.240   2.019  0.2908  0.8867  0.1072
  619SOL     OW 2473   2.704   0.701   0.089 -0.3175  0.4751 -0.0302
  619SOL    HW1 2474   2.741   0.783   0.066  2.1821 -1.5297 -3.1006
  619SOL    HW2 2475   2.750   0.673   0.170 -1.0287 -0.7443 -0.6271
  619SOL     MW 2476   2.715   0.708   0.097 -0.0816  0.0497 -0.5140
  620SOL     OW 2477   2.225   1.039   0.948  0.3866 -0.1887 -0.0849
  620SOL    HW1 2478   2.304   1.015   0.899  0.6602  0.7198  0.7401
  620SOL    HW2 2479   2.146   1.024   0.899  0.3613 -0.9845 -0.9505
  620SOL     MW 2480   2.225   1.034   0.935  0.4193 -0.1738 -0.0902
  621SOL     OW 2481   1.509   2.215   2.012  0.0403 -0.3206 -0.0700
  621SOL    HW1 2482   1.458   2.133   2.004 -0.1608  2.7792  2.1991
  621SOL    HW2 2483   1.603   2.190   2.019 -1.3590 -1.7408  2.9613
  621SOL     MW 2484   1.515   2.201   2.012 -0.1709 -0.0990  0.6293
  622SOL     OW 2485   2.637   0.283   0.213  0.6115  0.3483  0.0542
  622SOL    HW1 2486   2.721   0.334   0.233  1.4124 -0.6460  0.8368
  622SOL    HW2 2487   2.681   0.197   0.215 -2.1531  0.9274 -0.1606
  622SOL     MW 2488   2.654   0.278   0.216  0.3524  0.2935  0.1291
  623SOL     OW 2489   2.364   2.759   0.827  0.2669 -0.1065 -0.1789
  623SOL    HW1 2490   2.423   2.827   0.807  1.2421  1.0217 -0.8364
  623SOL    HW2 2491   2.318   2.795   0.909 -0.4078  1.7715 -0.6298
  623SOL     MW 2492   2.366   2.773   0.835  0.3066  0.2901 -0.3251
  624SOL     OW 2493   2.140   1.539   3.067 -0.7980  0.4267 -0.0200
  624SOL    HW1 2494   2.082   1.471   3.048  1.6578  1.5004 -1.4120
  624SOL    HW2 2495   2.098   1.621   3.035 -1.6614  3.5945 -0.6887
  624SOL     MW 2496   2.127   1.541   3.060 -0.5879  0.9864 -0.2919
  625SOL     OW 2497   2.180   1.874   1.017 -0.1478 -1.1016  0.0108
  625SOL    HW1 2498   2.224   1.803   1.062 -0.5655 -1.0260 -2.0397
  625SOL    HW2 2499   2.215   1.882   0.926 -2.4175 -1.3953 -2.1408
  625SOL     MW 2500   2.190   1.866   1.011 -0.5024 -1.1304 -0.5436
  626SOL     OW 2501   0.201   1.838   2.466  0.1938  0.1946  0.1919
  626SOL    HW1 2502   0.146   1.763   2.480 -2.0557  4.3111 -1.5718
  626SOL    HW2 2503   0.144   1.914   2.490 -3.1799  0.1974 -1.1252
  626SOL     MW 2504   0.186   1.838   2.471 -0.5481  0.7381 -0.2146
  627SOL     OW 2505   2.598   0.803   2.577  0.6285  0.0953 -0.3380
  627SOL    HW1 2506   2.515   0.857   2.570 -1.5248 -0.1127 -2.6640
  627SOL    HW2 2507   2.582   0.736   2.510  1.7715 -1.3283  0.7863
  627SOL     MW 2508   2.585   0.801   2.567  0.4952 -0.1200 -0.4965
  628SOL     OW 2509   2.332   1.404   1.305  0.1924  1.1879  0.0831
  628SOL    HW1 2510   2.332   1.330   1.247  2.4887  2.5989  0.5942
  628SOL    HW2 2511   2.368   1.473   1.250  2.2115  1.0641  0.1763
  628SOL     MW 2512   2.336   1.403   1.290  0.7618  1.3577  0.1628
  629SOL     OW 2513   1.818   0.621   1.317 -0.1006  0.2107  0.1696
  629SOL    HW1 2514   1.825   0.674   1.241 -0.2331  1.2225  1.2341
  629SOL    HW2 2515   1.729   0.585   1.318  1.5253 -1.0501 -0.1246
  629SOL     MW 2516   1.807   0.623   1.307  0.0964  0.1779  0.2712
  630SOL     OW 2517   2.412   1.892   3.058 -0.0479 -0.0441  0.4652
  630SOL    HW1 2518   2.401   1.972   3.012 -2.4973  1.3037  1.9111
  630SOL    HW2 2519   2.319   1.865   3.049 -1.2396  3.4843  0.9122
  630SOL     MW 2520   2.398   1.899   3.051 -0.5283  0.5992  0.7149
  631SOL     OW 2521   2.087   1.833   1.498  0.0735  0.3631 -0.1798
  631SOL    HW1 2522   2.074   1.747   1.535 -0.2115 -1.1622 -0.3279
  631SOL    HW2 2523   2.013   1.887   1.526 -1.4028 -2.1194 -0.0749
  631SOL     MW 2524   2.076   1.829   1.506 -0.1589 -0.1657 -0.1855
  632SOL     OW 2525   0.323   1.872   1.524  0.0780 -0.3048 -0.7612
  632SOL    HW1 2526   0.258   1.930   1.504  2.2996  0.2985 -0.6197
  632SOL    HW2 2527   0.286   1.787   1.531  2.4987 -0.6027 -1.6817
  632SOL     MW 2528   0.310   1.869   1.522  0.6905 -0.2645 -0.8640
  633SOL     OW 2529   2.576   0.515   0.381 -0.0641 -0.1096 -0.6990
  633SOL    HW1 2530   2.656   0.533   0.431 -1.6069  1.1653 -1.3023
  633SOL    HW2 2531   2.596   0.435   0.337  1.1340  2.3821  0.9822
  633SOL     MW 2532   2.589   0.507   0.382 -0.1096  0.3874 -0.5568
  634SOL     OW 2533   2.650   3.080   0.597  0.6134 -0.2414 -0.4347
  634SOL    HW1 2534   2.704   3.159   0.594  1.9300 -0.0810  0.6092
  634SOL    HW2 2535   2.668   3.027   0.522  0.7767 -1.2484  0.3357
  634SOL     MW 2536   2.659   3.083   0.587  0.8087 -0.3531 -0.1953
  635SOL     OW 2537   2.639   0.055   1.883 -0.1744 -0.6959 -0.5872
  635SOL    HW1 2538   2.704   0.014   1.815  1.5956  2.4868  1.6345
  635SOL    HW2 2539   2.683   0.126   1.926 -3.8636  1.7390 -0.1196
  635SOL     MW 2540   2.653   0.059   1.880 -0.4276  0.0453 -0.2324
  636SOL     OW 2541   2.695   1.703   0.743  0.3905 -0.2816  0.2378
  636SOL    HW1 2542   2.615   1.692   0.689  1.3124 -0.3289 -2.0027
  636SOL    HW2 2543   2.683   1.767   0.812 -0.3609 -0.1865 -0.6315
  636SOL     MW 2544   2.683   1.710   0.745  0.4130 -0.2753 -0.1725
  637SOL     OW 2545   2.861   1.489   0.688  0.4935  0.1972  0.0625
  637SOL    HW1 2546   2.915   1.546   0.632  0.4406  0.6685  0.0660
  637SOL    HW2 2547   2.795   1.557   0.722 -0.9133 -0.8392 -1.0531
  637SOL     MW 2548   2.859   1.505   0.685  0.3009  0.1226 -0.0842
  638SOL     OW 2549   2.825   0.528   0.544  0.6753  0.6202 -0.5075
  638SOL    HW1 2550   2.905   0.563   0.515 -0.5954 -2.2275 -1.1644
  638SOL    HW2 2551   2.798   0.566   0.627  0.8675 -1.5937 -1.6616
  638SOL     MW 2552   2.832   0.537   0.551  0.5330 -0.0477 -0.7465
  639SOL     OW 2553   1.780   3.064   0.546  0.3733  0.0503  0.0037
  639SOL    HW1 2554   1.690   3.096   0.545  3.1847 -0.4065  1.9483
  639SOL    HW2 2555   1.773   3.002   0.478  4.6235  1.4503  0.6226
  639SOL     MW 2556   1.767   3.060   0.537  1.3050  0.1747  0.3419
  640SOL     OW 2557   0.286   1.430   0.094  0.0363  0.0004 -0.1739
  640SOL    HW1 2558   0.282   1.406  -0.000 -3.0600  1.4021  2.5036
  640SOL    HW2 2559   0.301   1.346   0.137  1.4955 -0.6912 -0.7645
  640SOL     MW 2560   0.287   1.416   0.087 -0.1797  0.0941  0.1015
  641SOL     OW 2561   2.232   0.332   0.413  0.4619 -0.1406  0.1616
  641SOL    HW1 2562   2.276   0.285   0.342 -0.0152 -2.9316 -0.8343
  641SOL    HW2 2563   2.290   0.314   0.483 -0.8619  1.2195 -1.7292
  641SOL     MW 2564   2.245   0.323   0.413  0.2243 -0.3294 -0.2193
  642SOL     OW 2565   0.085   0.006   0.526 -0.4840 -0.6855 -0.9703
  642SOL    HW1 2566   0.069   0.100   0.504  0.5118  0.1465  0.6761
  642SOL    HW2 2567   0.010  -0.019   0.581  0.4458  4.3130  1.9647
  642SOL     MW 2568   0.073   0.015   0.530 -0.2300  0.0838 -0.3659
  643SOL     OW 2569   2.102   0.309   1.663  0.3037 -0.1170  0.1968
  643SOL    HW1 2570   2.019   0.278   1.702  0.7401 -1.4741 -0.1699
  643SOL    HW2 2571   2.129   0.243   1.597  2.2390 -1.0592 -1.3681
  643SOL     MW 2572   2.095   0.296   1.660  0.6166 -0.4203 -0.0580
  644SOL     OW 2573   2.647   1.891   0.960  0.7692 -0.3315 -0.4364
  644SOL    HW1 2574   2.616   1.847   1.040  1.8042 -0.0460  0.2390
  644SOL    HW2 2575   2.596   1.970   0.935  0.2842  1.2842 -0.1157
  644SOL     MW 2576   2.636   1.895   0.967  0.8418 -0.0807 -0.3049
  645SOL     OW 2577   2.786   0.903   0.763 -0.0571  0.5456  0.4935
  645SOL    HW1 2578   2.880   0.874   0.766  0.0459  1.4127  0.7589
  645SOL    HW2 2579   2.743   0.857   0.838 -1.4807  2.0868  2.2104
  645SOL     MW 2580   2.793   0.893   0.773 -0.2313  0.8633  0.7550
  646SOL     OW 2581   0.164   2.258   0.863 -0.0958  0.2951 -0.0682
  646SOL    HW1 2582   0.157   2.154   0.874 -2.9455  0.6416  0.7838
  646SOL    HW2 2583   0.130   2.283   0.779  0.9084  0.1530  0.9243
  646SOL     MW 2584   0.158   2.247   0.853 -0.3393  0.3221  0.1752
  647SOL     OW 2585   2.784   0.531   2.990  0.3179 -0.2700 -0.3364
  647SOL    HW1 2586   2.714   0.477   3.027 -1.1042 -2.0279  1.0236
  647SOL    HW2 2587   2.775   0.602   3.053  0.6658 -0.7994 -1.9477
  647SOL     MW 2588   2.773   0.533   3.003  0.1761 -0.5718 -0.3695
  648SOL     OW 2589   2.209   0.640   1.134 -0.6388 -0.2759 -0.0388
  648SOL    HW1 2590   2.252   0.571   1.186 -2.8524  2.9534  0.0722
  648SOL    HW2 2591   2.194   0.709   1.195 -1.3665  0.3009 -0.1040
  648SOL     MW 2592   2.213   0.640   1.149 -1.0269  0.2262 -0.0327
  649SOL     OW 2593   2.393   2.705   1.290  0.0404  0.2145  0.7482
  649SOL    HW1 2594   2.480   2.738   1.311 -0.8595 -2.4164  1.5889
  649SOL    HW2 2595   2.410   2.615   1.254 -1.2514 -0.8341 -0.4849
  649SOL     MW 2596   2.407   2.698   1.288 -0.2488 -0.2710  0.6964
  650SOL     OW 2597   2.745   0.261   0.548 -0.5880 -0.0962 -0.6509
  650SOL    HW1 2598   2.805   0.333   0.564 -1.2692 -0.9117 -0.4653
  650SOL    HW2 2599   2.748   0.256   0.453  1.3400 -0.5985  0.1034
  650SOL     MW 2600   2.753   0.270   0.538 -0.4235 -0.2701 -0.5269
  651SOL     OW 2601   0.048   0.437   1.011 -0.1408 -0.0773 -0.7168
  651SOL    HW1 2602   0.081   0.507   0.951 -0.8307 -0.4367  0.4997
  651SOL    HW2 2603  -0.023   0.488   1.060  0.4140  2.8061  1.7674
  651SOL     MW 2604   0.043   0.453   1.010 -0.1586  0.2557 -0.2285
  652SOL     OW 2605   2.395   1.444   3.002  0.3678  0.0803 -0.5333
  652SOL    HW1 2606   2.452   1.459   2.926  2.3660  3.2970  0.9822
  652SOL    HW2 2607   2.314   1.498   3.000 -1.7381 -0.5312 -1.9200
  652SOL     MW 2608   2.392   1.453   2.992  0.3536  0.4240 -0.5163
  653SOL     OW 2609   1.833   0.342   0.248  0.4565 -0.0793 -0.5421
  653SOL    HW1 2610   1.804   0.269   0.192 -0.4372  2.5457 -0.5026
  653SOL    HW2 2611   1.917   0.363   0.207  0.5266  0.6352 -0.2962
  653SOL     MW 2612   1.840   0.335   0.235  0.3478  0.3613 -0.5045
  654SOL     OW 2613   2.437   1.000   0.769 -0.2370 -0.0590 -0.2229
  654SOL    HW1 2614   2.384   0.963   0.694 -0.4142 -0.6891 -3.6510
  654SOL    HW2 2615   2.500   0.922   0.782  0.9502 -2.3829 -0.6979
  654SOL     MW 2616   2.438   0.985   0.760 -0.1037 -0.4487 -0.7379
  655SOL     OW 2617   2.883   0.914   0.296 -0.1398  0.2831 -0.5445
  655SOL    HW1 2618   2.860   0.966   0.371  1.4565 -0.3668  1.1238
  655SOL    HW2 2619   2.956   0.858   0.322 -0.6051 -0.6670 -1.6489
  655SOL     MW 2620   2.889   0.913   0.309  0.0094  0.0720 -0.4701
  656SOL     OW 2621   1.802   2.644   1.416 -0.3267 -0.0287  0.1726
  656SOL    HW1 2622   1.839   2.727   1.390 -1.1549 -0.0074 -1.9490
  656SOL    HW2 2623   1.870   2.578   1.404 -0.3831  1.1310  0.1188
  656SOL     MW 2624   1.816   2.646   1.411 -0.4435  0.1271 -0.1144
  657SOL     OW 2625   0.079   1.781   1.139 -0.6247 -0.2603 -0.6862
  657SOL    HW1 2626   0.160   1.829   1.135 -2.1370 -1.4055  1.4761
  657SOL    HW2 2627   0.108   1.693   1.157 -1.2148  0.7693  3.4855
  657SOL     MW 2628   0.094   1.775   1.141 -0.9021 -0.2755  0.1495
  658SOL     OW 2629   2.659   1.373   0.229 -0.2407 -0.2583 -0.0292
  658SOL    HW1 2630   2.649   1.294   0.280  2.0414 -2.4013  1.0489
  658SOL    HW2 2631   2.672   1.435   0.301 -0.0762  0.3171  0.3646
  658SOL     MW 2632   2.660   1.371   0.245  0.0821 -0.4651  0.1650
  659SOL     OW 2633   2.136   1.444   1.028 -0.3522 -0.5647 -0.1522
  659SOL    HW1 2634   2.141   1.356   1.054 -0.5512  0.9034  0.5268
  659SOL    HW2 2635   2.106   1.490   1.107 -1.9430  0.3867  1.6567
  659SOL     MW 2636   2.133   1.439   1.042 -0.5884 -0.2455  0.1760
  660SOL     OW 2637   2.094   1.543   1.610  0.5472  0.0718 -0.5676
  660SOL    HW1 2638   2.090   1.554   1.706 -1.7117  2.0538 -1.6953
  660SOL    HW2 2639   2.014   1.484   1.609  0.5680 -1.8707  2.4548
  660SOL     MW 2640   2.083   1.537   1.623  0.2519  0.0770 -0.3176
  661SOL     OW 2641   2.402   0.984   0.254  0.3067  0.3243 -0.2379
  661SOL    HW1 2642   2.475   1.040   0.288  1.4277 -1.6118 -0.8805
  661SOL    HW2 2643   2.415   0.890   0.276  1.3348 -1.2208  2.6436
  661SOL     MW 2644   2.413   0.979   0.261  0.5902 -0.1350  0.0575
  662SOL     OW 2645   2.575   2.962   0.840 -0.7436  0.3077 -0.6604
  662SOL    HW1 2646   2.535   3.036   0.881  1.4798  0.0349  1.1704
  662SOL    HW2 2647   2.598   2.999   0.752  1.0858 -1.3090  2.5183
  662SOL     MW 2648   2.573   2.977   0.834 -0.2089  0.0584  0.0005
  663SOL     OW 2649   2.709   1.557   0.408 -0.0380 -0.2284 -0.2847
  663SOL    HW1 2650   2.715   1.626   0.339 -0.4906 -0.8638 -2.5908
  663SOL    HW2 2651   2.791   1.564   0.449  3.0412 -1.2810 -0.3760
  663SOL     MW 2652   2.720   1.567   0.404  0.3085 -0.4511 -0.6010
  664SOL     OW 2653   2.549   1.468   1.525 -0.0653 -0.6296  0.2094
  664SOL    HW1 2654   2.493   1.544   1.494  1.6191  1.0922  0.0319
  664SOL    HW2 2655   2.485   1.400   1.536  1.4775  0.4746 -0.0982
  664SOL     MW 2656   2.533   1.469   1.522  0.3605 -0.2567  0.1454
  665SOL     OW 2657   2.845   0.820   2.094  0.4552 -0.6291  0.2376
  665SOL    HW1 2658   2.795   0.825   2.008 -1.4662  0.2568  1.4278
  665SOL    HW2 2659   2.930   0.778   2.082  0.7256 -0.7081  0.8929
  665SOL     MW 2660   2.849   0.815   2.081  0.2374 -0.5227  0.4811
  666SOL     OW 2661   2.778   3.011   1.697  0.4674 -0.3391  0.1255
  666SOL    HW1 2662   2.809   3.019   1.606 -1.0833  0.5035 -2.0129
  666SOL    HW2 2663   2.733   2.928   1.708 -0.6285 -1.3524 -1.3587
  666SOL     MW 2664   2.777   3.001   1.687  0.1182 -0.3616 -0.3525
  667SOL     OW 2665   1.995   2.746   1.730 -0.0889  0.0248 -0.0600
  667SOL    HW1 2666   2.026   2.717   1.815  0.8602 -0.4102 -4.2336
  667SOL    HW2 2667   2.058   2.816   1.698 -3.4567  1.7604 -1.4114
  667SOL     MW 2668   2.007   2.752   1.737 -0.4080  0.1964 -0.7889
  668SOL     OW 2669   2.772   0.566   0.840  0.2821 -0.3910 -0.2055
  668SOL    HW1 2670   2.844   0.584   0.898 -3.7753 -1.1952 -1.1094
  668SOL    HW2 2671   2.704   0.632   0.843 -0.9106 -0.3088  1.1419
  668SOL     MW 2672   2.772   0.577   0.848 -0.4106 -0.4863 -0.1470
  669SOL     OW 2673   0.196   0.981   0.687 -0.3967  0.1275 -0.0869
  669SOL    HW1 2674   0.172   0.998   0.777 -0.2472  1.7196 -1.7885
  669SOL    HW2 2675   0.265   1.055   0.672  0.5392 -0.4378  1.7774
  669SOL     MW 2676   0.202   0.993   0.697 -0.2535  0.2630 -0.0654
  670SOL     OW 2677   2.883   0.350   0.274 -0.1802  0.2345  0.4462
  670SOL    HW1 2678   2.898   0.296   0.194  1.9541  1.5456 -0.8954
  670SOL    HW2 2679   2.893   0.440   0.238  1.2204  2.1367 -0.9956
  670SOL     MW 2680   2.886   0.355   0.259  0.2862  0.6584  0.0789
  671SOL     OW 2681   2.019   3.037   1.492  0.6718  0.2772 -0.3333
  671SOL    HW1 2682   1.946   3.008   1.431 -2.7071  0.9887  0.1049
  671SOL    HW2 2683   1.982   3.081   1.569 -1.2639 -1.8532  1.1405
  671SOL     MW 2684   2.004   3.039   1.494 -0.0294  0.0900 -0.0811
  672SOL     OW 2685   1.861   1.764   1.293 -1.1017  0.1677  0.5713
  672SOL    HW1 2686   1.858   1.844   1.345  0.8871 -1.6384 -2.3326
  672SOL    HW2 2687   1.875   1.793   1.199 -0.5470  0.6635 -3.7185
  672SOL     MW 2688   1.863   1.779   1.288 -0.7661 -0.0052 -0.3778
  673SOL     OW 2689   2.796   1.062   0.570  0.0974  0.0157 -0.5490
  673SOL    HW1 2690   2.798   1.001   0.643  1.7889  0.7532  0.6879
  673SOL    HW2 2691   2.857   1.124   0.596  0.4486  0.1659 -0.6156
  673SOL     MW 2692   2.804   1.062   0.583  0.3669  0.1328 -0.3946
  674SOL     OW 2693   2.463   3.102   1.229  0.5304  0.0129 -0.8084
  674SOL    HW1 2694   2.450   3.093   1.132 -1.9285 -1.9419  0.5282
  674SOL    HW2 2695   2.422   3.019   1.260 -1.4429  0.4316  0.5496
  674SOL     MW 2696   2.456   3.090   1.220 -0.0544 -0.1898 -0.4529
  675SOL     OW 2697   3.020   0.895   1.090 -0.1641  0.0347  0.0085
  675SOL    HW1 2698   3.077   0.893   1.168  0.0299 -2.5350 -0.9682
  675SOL    HW2 2699   3.045   0.980   1.041 -2.8494 -0.7049 -0.7584
  675SOL     MW 2700   3.030   0.906   1.093 -0.4928 -0.4019 -0.2216
  676SOL     OW 2701   2.886   1.456   1.695 -0.2235  0.5198  0.1118
  676SOL    HW1 2702   2.854   1.365   1.672  1.8343  1.5918  0.7268
  676SOL    HW2 2703   2.924   1.449   1.782 -0.9310 -0.9815 -3.9571
  676SOL     MW 2704   2.887   1.443   1.704 -0.0454  0.4632 -0.3439
  677SOL     OW 2705   2.470   0.638   1.938  0.4005  0.8402 -0.6365
  677SOL    HW1 2706   2.419   0.569   1.886  2.8633  0.6008 -1.2977
  677SOL    HW2 2707   2.412   0.719   1.931 -2.1123 -0.3481  3.1901
  677SOL     MW 2708   2.456   0.639   1.930  0.3939  0.6518 -0.2188
  678SOL     OW 2709   2.396   1.587   0.323 -0.0767 -0.3695 -0.2115
  678SOL    HW1 2710   2.303   1.612   0.313 -1.1541 -0.3471  0.4974
  678SOL    HW2 2711   2.405   1.514   0.256 -0.4465  1.0728 -0.2580
  678SOL     MW 2712   2.385   1.581   0.313 -0.2676 -0.1763 -0.1241
  679SOL     OW 2713   2.269   0.416   1.270  0.2201 -0.1045  0.3049
  679SOL    HW1 2714   2.256   0.345   1.209  2.4816  1.7950  0.1843
  679SOL    HW2 2715   2.178   0.446   1.299  2.8858  1.9131  2.1192
  679SOL     MW 2716   2.256   0.410   1.266  0.8702  0.4123  0.5283
  680SOL     OW 2717   2.480   0.112   1.503 -0.0988  0.4825 -0.2453
  680SOL    HW1 2718   2.382   0.123   1.497  1.0370 -1.1362 -0.6665
  680SOL    HW2 2719   2.495   0.097   1.406  0.9087 -1.7783 -3.0386
  680SOL     MW 2720   2.469   0.111   1.489  0.1840 -0.0294 -0.6694
  681SOL     OW 2721   0.232   0.611   1.473 -0.8104  1.0486  0.0216
  681SOL    HW1 2722   0.212   0.520   1.493  1.9261 -0.4852 -0.4236
  681SOL    HW2 2723   0.260   0.609   1.378 -0.5222 -2.5247  0.0466
  681SOL     MW 2724   0.233   0.599   1.463 -0.4113  0.3748 -0.0339
  682SOL     OW 2725   0.039   2.854   1.540 -1.2317  0.3834  0.0876
  682SOL    HW1 2726   0.112   2.919   1.551  1.2772 -2.1508 -1.6396
  682SOL    HW2 2727   0.004   2.878   1.626 -2.2281  4.6555  1.5453
  682SOL     MW 2728   0.044   2.866   1.553 -1.0321  0.6127  0.0520
  683SOL     OW 2729   2.076   0.817   3.007 -0.0584  0.3997  0.1873
  683SOL    HW1 2730   2.022   0.739   2.999  0.2762 -0.7765  1.9111
  683SOL    HW2 2731   2.014   0.887   3.044  1.4822  3.5159 -0.1152
  683SOL     MW 2732   2.060   0.816   3.011  0.1890  0.6556  0.3748
  684SOL     OW 2733   2.051   1.755   0.659 -0.0964  0.0959 -0.1054
  684SOL    HW1 2734   2.045   1.706   0.575  1.3093  0.5754  0.9192
  684SOL    HW2 2735   1.967   1.747   0.713  0.6021  0.0233 -0.4310
  684SOL     MW 2736   2.039   1.748   0.655  0.1812  0.1496 -0.0132
  685SOL     OW 2737   2.682   1.718   1.187  0.0327  0.4213  0.0490
  685SOL    HW1 2738   2.717   1.700   1.270 -2.2875  0.4885  0.5848
  685SOL    HW2 2739   2.632   1.645   1.157 -0.8099  1.1983  1.7132
  685SOL     MW 2740   2.680   1.706   1.194 -0.3846  0.5327  0.3393
  686SOL     OW 2741   2.869   0.665   1.614 -0.4089 -0.1751 -0.0541
  686SOL    HW1 2742   2.858   0.643   1.702 -1.7473  0.7723 -0.5254
  686SOL    HW2 2743   2.967   0.690   1.601 -0.1444  1.3571 -0.1501
  686SOL     MW 2744   2.880   0.666   1.624 -0.5506  0.1520 -0.1290
  687SOL     OW 2745   2.103   0.185   1.146 -0.2852 -0.7003 -0.5043
  687SOL    HW1 2746   2.182   0.176   1.092  0.9943 -3.5578 -1.5012
  687SOL    HW2 2747   2.047   0.239   1.089 -0.6560  0.7938  3.0830
  687SOL     MW 2748   2.106   0.191   1.131 -0.1653 -0.8802 -0.1625
  688SOL     OW 2749   2.469   0.593   1.415  0.6746  0.1631 -0.5887
  688SOL    HW1 2750   2.462   0.514   1.363 -1.3324 -0.8141  1.0308
  688SOL    HW2 2751   2.388   0.604   1.472  1.0302  0.7877  0.6676
  688SOL     MW 2752   2.457   0.584   1.416  0.4567  0.1166 -0.2093
  689SOL     OW 2753   2.513   0.738   2.990 -0.0698  0.1636  0.3876
  689SOL    HW1 2754   2.452   0.812   3.006  1.5762  1.4755  1.1924
  689SOL    HW2 2755   2.566   0.715   3.071 -0.4287 -0.1395  2.6699
  689SOL     MW 2756   2.512   0.745   3.003  0.1000  0.2967  0.7949
  690SOL     OW 2757   2.037   0.891   1.839  0.4571  0.0840  0.2864
  690SOL    HW1 2758   2.028   0.808   1.889  0.1631  1.2033  1.9264
  690SOL    HW2 2759   2.075   0.874   1.752 -1.8726 -1.5180  1.8240
  690SOL     MW 2760   2.041   0.878   1.834  0.1109  0.0203  0.7056
  691SOL     OW 2761   2.427   0.301   0.880  0.3239 -0.2153  0.0409
  691SOL    HW1 2762   2.515   0.324   0.911 -0.7271 -0.2224 -2.4577
  691SOL    HW2 2763   2.381   0.379   0.847 -0.7176  1.5010 -0.1637
  691SOL     MW 2764   2.432   0.314   0.880  0.0478  0.0102 -0.3158
  692SOL     OW 2765   2.830   1.612   1.419 -0.4331  0.3239 -0.4166
  692SOL    HW1 2766   2.832   1.571   1.502 -1.6434 -0.8803 -2.1503
  692SOL    HW2 2767   2.878   1.695   1.431 -0.9805 -1.1202 -2.3525
  692SOL     MW 2768   2.837   1.618   1.432 -0.6650 -0.0256 -0.9008
  693SOL     OW 2769   2.325   0.401   0.009 -0.4228  0.3374 -0.3174
  693SOL    HW1 2770   2.263   0.337   0.013  1.4072  2.2490 -1.8699
  693SOL    HW2 2771   2.299   0.477   0.066 -0.7352  0.2808  2.3298
  693SOL     MW 2772   2.314   0.403   0.017 -0.2226  0.5822 -0.1730
  694SOL     OW 2773   1.909   1.190   1.194  0.4599 -0.0239  0.4927
  694SOL    HW1 2774   2.002   1.199   1.185  0.7469 -2.1389 -1.9380
  694SOL    HW2 2775   1.893   1.094   1.198  1.5035  3.5613  1.4109
  694SOL     MW 2776   1.919   1.179   1.193  0.6354  0.1701  0.2932
  695SOL     OW 2777   2.933   1.390   1.293 -0.7013  0.1220  0.2493
  695SOL    HW1 2778   2.928   1.403   1.203 -0.9538 -0.8845  1.5269
  695SOL    HW2 2779   2.897   1.469   1.338  0.9828 -1.4745  0.8398
  695SOL     MW 2780   2.928   1.402   1.287 -0.5124 -0.2215  0.4958
  696SOL     OW 2781   2.015   1.427   0.765  0.0787  0.3179 -0.7866
  696SOL    HW1 2782   2.091   1.449   0.821  1.9956 -2.4466  0.9924
  696SOL    HW2 2783   1.975   1.358   0.819  1.6560 -0.7340 -1.4390
  696SOL     MW 2784   2.020   1.420   0.779  0.5398 -0.1857 -0.6379
  697SOL     OW 2785   2.938   1.064   2.220 -0.2581 -0.0336 -0.6088
  697SOL    HW1 2786   2.865   1.127   2.240 -1.8524  1.9625  0.6958
  697SOL    HW2 2787   2.901   0.988   2.181  0.1055 -0.8466  0.9527
  697SOL     MW 2788   2.923   1.062   2.217 -0.4205  0.1225 -0.2307
  698SOL     OW 2789   2.595   0.350   3.061 -0.3836  0.7419  0.1678
  698SOL    HW1 2790   2.519   0.404   3.064  0.7485  0.6097 -1.5258
  698SOL    HW2 2791   2.603   0.323   3.155 -1.8167  1.8322 -1.6061
  698SOL     MW 2792   2.586   0.353   3.074 -0.4233  0.8683 -0.2897
  699SOL     OW 2793   1.890   1.609   2.062 -0.3130  0.0612 -0.2825
  699SOL    HW1 2794   1.839   1.534   2.036 -3.2545  1.8534 -3.0605
  699SOL    HW2 2795   1.970   1.623   2.008 -0.0453 -1.6976 -0.5318
  699SOL     MW 2796   1.894   1.601   2.051 -0.6658  0.0656 -0.6819
  700SOL     OW 2797   2.668   0.860   1.598  0.0109  0.4852 -0.2800
  700SOL    HW1 2798   2.728   0.931   1.570  3.5588 -0.2674  0.4560
  700SOL    HW2 2799   2.734   0.793   1.603  1.1924  1.6417  2.2290
  700SOL     MW 2800   2.685   0.860   1.595  0.6349  0.5385  0.1481
  701SOL     OW 2801   1.691   1.093   2.512 -0.4314 -0.4785  0.1815
  701SOL    HW1 2802   1.726   1.015   2.558  0.6364 -3.4589 -1.0651
  701SOL    HW2 2803   1.658   1.158   2.572  1.4872  0.2408  0.6019
  701SOL     MW 2804   1.691   1.091   2.526 -0.0374 -0.7768  0.0725
  702SOL     OW 2805   2.081   0.471   0.693 -0.5267 -0.0807 -0.8774
  702SOL    HW1 2806   2.100   0.377   0.667  0.1346  0.1215  1.4497
  702SOL    HW2 2807   2.102   0.523   0.616  2.0351 -0.0057  0.9275
  702SOL     MW 2808   2.086   0.465   0.679 -0.1015 -0.0441 -0.3322
  703SOL     OW 2809   2.710   1.263   0.962 -0.2405  0.1085  0.3452
  703SOL    HW1 2810   2.666   1.248   0.878 -1.7976 -0.9378  2.0354
  703SOL    HW2 2811   2.697   1.179   0.999  0.8224 -0.1020 -2.2467
  703SOL     MW 2812   2.703   1.250   0.956 -0.3057 -0.0573  0.2262
  704SOL     OW 2813   3.080   1.259   0.127  0.0923  0.1088  0.6485
  704SOL    HW1 2814   2.986   1.256   0.112 -1.2423 -0.5046 -0.1913
  704SOL    HW2 2815   3.090   1.208   0.207 -2.1634 -0.1788 -0.5934
  704SOL     MW 2816   3.069   1.252   0.135 -0.3814 -0.0101  0.3739
  705SOL     OW 2817   2.047   1.549   1.300 -0.3913  0.2021 -0.0803
  705SOL    HW1 2818   1.998   1.631   1.304  2.3284  0.1594 -0.3833
  705SOL    HW2 2819   2.075   1.526   1.387  0.3039  1.4956  1.0279
  705SOL     MW 2820   2.044   1.556   1.312  0.0593  0.3672  0.0259
  706SOL     OW 2821   3.004   1.225   0.700 -0.1673 -0.1232  0.2413
  706SOL    HW1 2822   3.051   1.220   0.614  3.1129 -0.6054  2.9056
  706SOL    HW2 2823   2.960   1.312   0.708 -2.5177 -0.1621  0.0334
  706SOL     MW 2824   3.005   1.236   0.689 -0.0446 -0.1920  0.5654
  707SOL     OW 2825   2.360   0.036   0.973 -0.1565 -0.0656  0.2108
  707SOL    HW1 2826   2.390   0.125   0.943  0.3267  3.5984  1.9229
  707SOL    HW2 2827   2.291   0.007   0.907  1.0789  1.2011 -0.6734
  707SOL     MW 2828   2.355   0.044   0.960  0.0702  0.5849  0.3200
  708SOL     OW 2829   2.392   1.374   0.160 -0.6012 -0.1789 -0.7882
  708SOL    HW1 2830   2.486   1.370   0.174 -1.9185  1.8202  0.9207
  708SOL    HW2 2831   2.380   1.419   0.074 -0.3740 -1.8350  0.4036
  708SOL     MW 2832   2.403   1.379   0.151 -0.7450 -0.1337 -0.4055
  709SOL     OW 2833   1.733   1.647   0.203 -0.5811 -0.2177 -0.2008
  709SOL    HW1 2834   1.711   1.651   0.108 -1.3018 -2.2596 -1.1436
  709SOL    HW2 2835   1.658   1.607   0.242  1.3048  1.3027 -1.9423
  709SOL     MW 2836   1.720   1.642   0.196 -0.4274 -0.2865 -0.5550
  710SOL     OW 2837   2.179   1.172   1.188 -0.3039 -0.0231 -0.5229
  710SOL    HW1 2838   2.215   1.119   1.110 -0.4044 -0.1484 -0.0206
  710SOL    HW2 2839   2.201   1.108   1.262  0.0282  0.0623  3.8039
  710SOL     MW 2840   2.187   1.156   1.188 -0.2733 -0.0284  0.1143
  711SOL     OW 2841   2.397   0.127   1.777  0.2063 -0.6674  0.4585
  711SOL    HW1 2842   2.470   0.070   1.810 -1.9041 -1.5385  0.3147
  711SOL    HW2 2843   2.436   0.160   1.692 -2.6949  1.4212 -0.5835
  711SOL     MW 2844   2.411   0.124   1.770 -0.4550 -0.5068  0.3020
  712SOL     OW 2845   1.890   0.601   3.092 -0.0567 -0.2104 -0.4388
  712SOL    HW1 2846   1.831   0.637   3.024  1.8198 -0.2412  2.9837
  712SOL    HW2 2847   1.854   0.635   3.176 -1.7450  0.9634  0.3434
  712SOL     MW 2848   1.877   0.610   3.094 -0.0318 -0.0596  0.1159
  713SOL     OW 2849   2.524   0.684   1.095  0.3746 -0.1626  0.6451
  713SOL    HW1 2850   2.535   0.593   1.114  1.3630  2.8578 -1.3787
  713SOL    HW2 2851   2.497   0.730   1.171 -0.6975 -1.6771  0.2415
  713SOL     MW 2852   2.522   0.678   1.108  0.3636  0.0361  0.3248
  714SOL     OW 2853   2.221   0.172   1.999  0.0567  0.9336  0.6437
  714SOL    HW1 2854   2.285   0.128   2.050  2.2838  1.0000 -1.9515
  714SOL    HW2 2855   2.274   0.186   1.922 -1.5066 -0.0548 -1.3186
  714SOL     MW 2856   2.236   0.168   1.995  0.1443  0.8120  0.0424
  715SOL     OW 2857   1.818   2.012   1.739  0.4995 -0.2908 -0.2922
  715SOL    HW1 2858   1.909   2.031   1.756 -2.1721 -0.0661 -1.0878
  715SOL    HW2 2859   1.803   1.935   1.802  1.5539 -3.6867 -1.8739
  715SOL     MW 2860   1.828   2.005   1.749  0.2861 -0.7092 -0.6059
  716SOL     OW 2861   2.425   0.564   0.673  0.3481  0.2459  0.3053
  716SOL    HW1 2862   2.460   0.478   0.639  0.9156 -2.7759  0.3841
  716SOL    HW2 2863   2.360   0.591   0.613  1.4186 -0.6674  2.9711
  716SOL     MW 2864   2.421   0.556   0.661  0.5642 -0.2733  0.6674
  717SOL     OW 2865   2.833   1.616   2.826 -0.3902  0.3028 -0.0933
  717SOL    HW1 2866   2.919   1.598   2.863  0.8577  1.5438  1.3134
  717SOL    HW2 2867   2.778   1.664   2.896  2.1189 -0.8670  2.1843
  717SOL     MW 2868   2.837   1.620   2.840  0.1055  0.3122  0.3928
  718SOL     OW 2869   2.648   1.345   1.266  0.2789  0.0457 -0.2169
  718SOL    HW1 2870   2.623   1.368   1.357 -0.1591  1.6935  2.0926
  718SOL    HW2 2871   2.743   1.339   1.260  2.2585 -1.0989  2.0023
  718SOL     MW 2872   2.657   1.347   1.277  0.4823  0.1121  0.3806
  719SOL     OW 2873   2.204   1.296   0.568  0.1592 -0.2950 -0.0708
  719SOL    HW1 2874   2.296   1.313   0.550 -0.1737 -1.6845 -1.7651
  719SOL    HW2 2875   2.164   1.350   0.635 -4.3972 -1.8963 -2.4972
  719SOL     MW 2876   2.211   1.305   0.575 -0.4859 -0.6896 -0.6145
  720SOL     OW 2877   2.817   1.273   0.025 -0.3941  0.5141 -0.1740
  720SOL    HW1 2878   2.761   1.196   0.031 -1.7356  0.1327  1.6611
  720SOL    HW2 2879   2.767   1.337   0.074 -2.3134  0.6776 -0.3352
  720SOL     MW 2880   2.803   1.271   0.032 -0.8243  0.4853  0.0468
  721SOL     OW 2881   2.534   0.841   1.368  0.5196 -0.2975 -0.1002
  721SOL    HW1 2882   2.501   0.746   1.374 -1.5745 -1.0155  2.3248
  721SOL    HW2 2883   2.590   0.842   1.453  2.6783 -0.9545 -1.7274
  721SOL     MW 2884   2.537   0.829   1.380  0.5281 -0.4789  0.0051
  722SOL     OW 2885   2.583   1.136   0.377 -0.4632 -0.0736 -0.1514
  722SOL    HW1 2886   2.548   1.208   0.430 -0.0923  0.4161 -1.9027
  722SOL    HW2 2887   2.640   1.092   0.438  2.5517  3.3841  1.2849
  722SOL     MW 2888   2.586   1.140   0.392 -0.0165  0.4472 -0.1930
  723SOL     OW 2889   2.268   1.355   1.545 -0.2756  0.1516 -0.1971
  723SOL    HW1 2890   2.278   1.368   1.450  1.8154  0.2001  1.5812
  723SOL    HW2 2891   2.194   1.419   1.559 -0.6550  3.6878 -0.3195
  723SOL     MW 2892   2.260   1.365   1.535 -0.0498  0.6246  0.0214
  724SOL     OW 2893   2.494   0.310   0.610 -0.0382 -0.6709  0.0268
  724SOL    HW1 2894   2.495   0.291   0.704 -1.3684  2.4270 -0.1360
  724SOL    HW2 2895   2.585   0.304   0.582  0.5004 -0.0761  0.9186
  724SOL     MW 2896   2.506   0.307   0.619 -0.1426 -0.1837  0.1229
  725SOL     OW 2897   2.613   0.420   1.240 -0.1822  0.0958 -0.4405
  725SOL    HW1 2898   2.696   0.456   1.281 -1.2335 -0.2557 -2.0579
  725SOL    HW2 2899   2.601   0.335   1.280 -0.5262 -1.0573 -0.1808
  725SOL     MW 2900   2.622   0.414   1.251 -0.3663 -0.1027 -0.6196
  726SOL     OW 2901   2.495   2.510   0.456  0.0819  0.1151 -0.3184
  726SOL    HW1 2902   2.487   2.596   0.411 -0.7141 -0.1076 -1.5066
  726SOL    HW2 2903   2.493   2.519   0.556  0.0270  0.1302  0.8637
  726SOL     MW 2904   2.494   2.522   0.463 -0.0304  0.0877 -0.3192
  727SOL     OW 2905   2.870   0.291   1.729 -0.0353  0.1355  0.4301
  727SOL    HW1 2906   2.808   0.258   1.665  1.4449 -1.0314 -0.3913
  727SOL    HW2 2907   2.839   0.264   1.809  1.5128  0.5424 -1.2901
  727SOL     MW 2908   2.858   0.283   1.731  0.3642  0.0352  0.0947
  728SOL     OW 2909   2.843   1.174   2.853 -0.1703 -0.1104 -0.0178
  728SOL    HW1 2910   2.846   1.221   2.770  1.4517 -1.7100  2.8229
  728SOL    HW2 2911   2.837   1.245   2.918  0.4409  0.3175  0.5781
  728SOL     MW 2912   2.842   1.189   2.851  0.1244 -0.2650  0.4356
  729SOL     OW 2913   2.514   1.514   1.110  0.2259  0.4478 -0.5088
  729SOL    HW1 2914   2.567   1.434   1.133 -2.8661 -2.1140 -0.9128
  729SOL    HW2 2915   2.509   1.509   1.016 -1.3488 -3.1642  0.9864
  729SOL     MW 2916   2.521   1.502   1.101 -0.3899 -0.3668 -0.3648
  730SOL     OW 2917   2.224   1.168   0.189  0.0122  0.6437 -0.0197
  730SOL    HW1 2918   2.287   1.101   0.206 -1.4960  0.5200  0.6279
  730SOL    HW2 2919   2.272   1.254   0.195  2.9258 -0.2421 -1.8867
  730SOL     MW 2920   2.239   1.170   0.192  0.1976  0.5105 -0.1806
  731SOL     OW 2921   2.754   2.061   2.877  0.0692 -0.4410  0.0065
  731SOL    HW1 2922   2.676   2.034   2.828  0.5622 -0.9873  3.3768
  731SOL    HW2 2923   2.824   2.017   2.825  3.6848  2.6890  1.7048
  731SOL     MW 2924   2.753   2.052   2.864  0.6113 -0.1001  0.6752
  732SOL     OW 2925   2.272   0.979   1.368  0.7987 -0.4668  0.2241
  732SOL    HW1 2926   2.236   0.973   1.461 -0.1866 -0.1551 -0.8391
  732SOL    HW2 2927   2.350   0.929   1.377 -1.3929 -2.5338  1.7044
  732SOL     MW 2928   2.277   0.972   1.382  0.3795 -0.6984  0.2791
  733SOL     OW 2929   2.390   2.763   3.006 -0.1266 -0.6499 -0.2353
  733SOL    HW1 2930   2.302   2.793   3.030  1.0340 -1.6113 -1.3068
  733SOL    HW2 2931   2.379   2.665   3.027  1.9121 -1.4361 -1.1631
  733SOL     MW 2932   2.377   2.754   3.012  0.2955 -0.8804 -0.4991
  734SOL     OW 2933   1.533   0.276   2.536 -0.3020  0.3681 -0.3510
  734SOL    HW1 2934   1.508   0.234   2.617 -3.1354 -0.8151 -2.0795
  734SOL    HW2 2935   1.549   0.202   2.481 -2.1501  0.7595 -0.3301
  734SOL     MW 2936   1.532   0.261   2.539 -0.9197  0.2636 -0.5763
  735SOL     OW 2937   2.985   0.913   2.694  0.3106 -0.8586 -0.5581
  735SOL    HW1 2938   2.975   0.814   2.688 -1.7024 -2.9155 -0.3481
  735SOL    HW2 2939   3.021   0.930   2.782 -0.1698 -0.1688 -0.9946
  735SOL     MW 2940   2.989   0.902   2.705 -0.0184 -1.0390 -0.5879
  736SOL     OW 2941   0.137   0.577   2.573  0.1156 -0.4829 -0.4862
  736SOL    HW1 2942   0.114   0.648   2.503 -0.3560  0.7929 -0.0833
  736SOL    HW2 2943   0.176   0.503   2.528 -2.2893  0.3506  1.0502
  736SOL     MW 2944   0.139   0.576   2.558 -0.2639 -0.2046 -0.2303
  737SOL     OW 2945   2.976   0.645   2.661 -0.2013 -0.5868  0.6246
  737SOL    HW1 2946   2.922   0.626   2.579 -0.6731  0.2519 -1.0408
  737SOL    HW2 2947   3.061   0.620   2.641 -1.8037 -0.2714  1.7101
  737SOL     MW 2948   2.980   0.639   2.647 -0.4750 -0.4345  0.5480
  738SOL     OW 2949   0.117   0.465   1.873 -0.0339 -0.3231 -0.0868
  738SOL    HW1 2950   0.207   0.500   1.873 -0.4363  0.3295 -0.4918
  738SOL    HW2 2951   0.093   0.482   1.779 -0.5348 -1.2328  0.1496
  738SOL     MW 2952   0.125   0.472   1.861 -0.1531 -0.3570 -0.1090
  739SOL     OW 2953   2.468   0.992   2.121 -0.1863 -0.4729  0.1793
  739SOL    HW1 2954   2.422   0.959   2.048  1.8543  1.7988  2.5529
  739SOL    HW2 2955   2.536   1.048   2.091 -1.7289  1.2362  2.0055
  739SOL     MW 2956   2.471   0.995   2.107 -0.1206  0.0523  0.7335
  740SOL     OW 2957   0.120   1.812   2.924  0.4632 -0.3073  0.1266
  740SOL    HW1 2958   0.084   1.720   2.932  0.7857 -2.3715 -1.6373
  740SOL    HW2 2959   0.207   1.818   2.963 -1.3783 -0.5095  0.5189
  740SOL     MW 2960   0.127   1.801   2.930  0.2628 -0.6063 -0.0543
  741SOL     OW 2961   2.190   1.137   2.709 -0.4376  0.4794 -0.1259
  741SOL    HW1 2962   2.170   1.223   2.680 -0.6989 -3.7209  0.9692
  741SOL    HW2 2963   2.188   1.149   2.808  0.9439 -0.1135 -0.9933
  741SOL     MW 2964   2.187   1.150   2.718 -0.2898 -0.1530 -0.0958
  742SOL     OW 2965   1.629   1.228   2.263 -0.7548  0.0283  0.1884
  742SOL    HW1 2966   1.540   1.207   2.236  0.5296  1.3067 -0.4680
  742SOL    HW2 2967   1.632   1.176   2.342 -3.8271  2.9393  0.0529
  742SOL     MW 2968   1.618   1.218   2.270 -0.9907  0.5811  0.0839
  743SOL     OW 2969   2.495   1.240   2.715  0.1851 -0.0381  0.4155
  743SOL    HW1 2970   2.408   1.227   2.692  0.0654  1.0620  0.1746
  743SOL    HW2 2971   2.512   1.175   2.787  0.2038 -0.6866  2.2075
  743SOL     MW 2972   2.485   1.230   2.722  0.1717  0.0215  0.6202
  744SOL     OW 2973   2.683   0.862   1.897 -0.8812 -0.1652  0.2382
  744SOL    HW1 2974   2.663   0.954   1.876  1.6985 -0.0568  0.9823
  744SOL    HW2 2975   2.664   0.817   1.818 -1.1391  1.8603  0.4705
  744SOL     MW 2976   2.678   0.868   1.884 -0.5749  0.1164  0.3670
  745SOL     OW 2977   1.678   0.493   2.474 -0.4133 -0.0749  0.8123
  745SOL    HW1 2978   1.652   0.486   2.379 -1.2275 -0.7087 -0.6375
  745SOL    HW2 2979   1.626   0.426   2.519 -0.8488 -0.9581 -0.4511
  745SOL     MW 2980   1.668   0.483   2.467 -0.5782 -0.2751  0.4543
  746SOL     OW 2981   1.626   1.436   1.655  0.5638  0.1311  0.4330
  746SOL    HW1 2982   1.718   1.416   1.668  0.5075 -0.8673  0.3236
  746SOL    HW2 2983   1.609   1.473   1.745  4.6013 -0.9814 -0.9210
  746SOL     MW 2984   1.636   1.438   1.668  1.0891 -0.1474  0.2399
  747SOL     OW 2985   2.629   1.133   1.819 -0.2643 -0.4678 -0.1098
  747SOL    HW1 2986   2.542   1.144   1.771 -0.9926 -0.1464  0.2229
  747SOL    HW2 2987   2.612   1.191   1.897 -2.6121 -2.0494  1.1736
  747SOL     MW 2988   2.616   1.142   1.823 -0.6702 -0.6341  0.1034
  748SOL     OW 2989   0.053   0.081   1.901 -0.1203  0.5131  0.2167
  748SOL    HW1 2990   0.110   0.160   1.902  1.7039  3.1061 -0.0795
  748SOL    HW2 2991  -0.013   0.093   1.974  1.8473  0.0958  0.3276
  748SOL     MW 2992   0.052   0.093   1.910  0.3800  0.8001  0.1923
  749SOL     OW 2993   2.530   0.626   2.746  0.5293 -0.6438  0.6233
  749SOL    HW1 2994   2.550   0.706   2.693 -1.5735 -2.2595  0.3675
  749SOL    HW2 2995   2.522   0.649   2.843  1.2744  1.3772 -0.3622
  749SOL     MW 2996   2.532   0.639   2.751  0.3502 -0.5903  0.4595
  750SOL     OW 2997   2.033   3.077   1.992 -0.3243 -0.1351 -0.1338
  750SOL    HW1 2998   2.075   3.162   2.004 -1.6907 -0.5504  0.4005
  750SOL    HW2 2999   2.105   3.012   1.971 -1.6871  0.6158  0.3427
  750SOL     MW 3000   2.048   3.079   1.991 -0.6844 -0.0908 -0.0004
  751SOL     OW 3001   0.234   0.301   2.444  1.2690 -0.0110 -0.3736
  751SOL    HW1 3002   0.186   0.234   2.494  2.5456  2.2681 -0.1654
  751SOL    HW2 3003   0.218   0.268   2.356  0.2424 -0.3613 -1.2824
  751SOL     MW 3004   0.225   0.288   2.439  1.3020  0.2435 -0.4660
  752SOL     OW 3005   2.128   0.803   2.726  0.3071 -0.1071 -0.3813
  752SOL    HW1 3006   2.197   0.849   2.675  0.8905 -0.8030 -0.7327
  752SOL    HW2 3007   2.153   0.827   2.817 -1.1558  3.4397 -0.2452
  752SOL     MW 3008   2.140   0.813   2.732  0.1910  0.2691 -0.4097
  753SOL     OW 3009   2.836   0.193   2.389 -0.6670  0.3057  0.6094
  753SOL    HW1 3010   2.817   0.102   2.357  0.0318 -1.7940 -0.4369
  753SOL    HW2 3011   2.789   0.252   2.332 -0.2556 -1.4032 -1.6557
  753SOL     MW 3012   2.827   0.189   2.377 -0.5205 -0.1968  0.1725
  754SOL     OW 3013   2.227   2.962   2.586 -0.2478 -0.3805  0.0307
  754SOL    HW1 3014   2.259   2.935   2.499  1.7797  1.0482  0.1640
  754SOL    HW2 3015   2.290   2.933   2.655 -0.6844 -4.4267 -0.1920
  754SOL     MW 3016   2.240   2.955   2.584 -0.0379 -0.7258  0.0189
  755SOL     OW 3017   2.720   1.535   2.430  0.1902 -0.0402 -1.1405
  755SOL    HW1 3018   2.735   1.448   2.469 -0.7317 -0.6316 -0.1757
  755SOL    HW2 3019   2.758   1.602   2.495  3.9278 -0.8903  0.2131
  755SOL     MW 3020   2.727   1.532   2.444  0.5617 -0.2304 -0.8346
  756SOL     OW 3021   2.206   1.210   2.969 -0.0308 -0.3706 -0.2321
  756SOL    HW1 3022   2.274   1.277   2.961 -1.3332 -1.3729 -0.2653
  756SOL    HW2 3023   2.243   1.156   3.040 -1.1851  1.0424 -1.9273
  756SOL     MW 3024   2.220   1.212   2.978 -0.3550 -0.3164 -0.4601
  757SOL     OW 3025   2.167   0.894   1.604  0.5527  0.1383 -0.2091
  757SOL    HW1 3026   2.206   0.810   1.592 -1.1986  0.8616  0.1725
  757SOL    HW2 3027   2.079   0.874   1.565 -2.6457 -0.3092 -1.0038
  757SOL     MW 3028   2.160   0.880   1.597 -0.1004  0.1747 -0.2636
  758SOL     OW 3029   2.200   1.865   2.613 -0.3640 -0.0215  0.2911
  758SOL    HW1 3030   2.197   1.891   2.524  1.3124  0.6899  2.9285
  758SOL    HW2 3031   2.287   1.829   2.625 -1.0314 -0.1641 -0.5945
  758SOL     MW 3032   2.211   1.863   2.603 -0.2309  0.0536  0.5222
  759SOL     OW 3033   1.536   1.272   2.694 -0.3357  0.3352  0.0763
  759SOL    HW1 3034   1.537   1.344   2.624 -1.0910 -1.0095  1.2218
  759SOL    HW2 3035   1.601   1.310   2.757 -0.1810  2.1064 -0.0665
  759SOL     MW 3036   1.545   1.287   2.693 -0.4150  0.3915  0.2086
  760SOL     OW 3037   2.505   1.981   2.734  0.2035  0.2285 -0.1841
  760SOL    HW1 3038   2.500   1.892   2.695 -0.8005 -2.1096  1.2579
  760SOL    HW2 3039   2.521   2.041   2.661 -0.6981  3.8785  1.5469
  760SOL     MW 3040   2.506   1.977   2.719 -0.0479  0.4016  0.2345
  761SOL     OW 3041   2.156   0.404   2.537  0.3614  0.5091  0.7896
  761SOL    HW1 3042   2.116   0.330   2.589 -2.5267 -2.0395 -0.7828
  761SOL    HW2 3043   2.167   0.471   2.611 -0.7328  1.8142  0.0992
  761SOL     MW 3044   2.152   0.403   2.554 -0.1641  0.3450  0.4911
  762SOL     OW 3045   3.034   0.196   2.149  0.7730 -0.0817  0.1259
  762SOL    HW1 3046   3.049   0.128   2.211  0.3667 -0.4056 -2.2561
  762SOL    HW2 3047   3.066   0.274   2.207 -1.3362 -0.4851  2.9905
  762SOL     MW 3048   3.040   0.197   2.165  0.4411 -0.1777  0.1896
  763SOL     OW 3049   2.329   1.029   2.340  0.2111 -0.4256 -0.5291
  763SOL    HW1 3050   2.355   1.015   2.248 -0.0085  2.5117 -0.9076
  763SOL    HW2 3051   2.396   1.098   2.375  3.8546  0.5190  2.4791
  763SOL     MW 3052   2.341   1.036   2.332  0.6629  0.0866 -0.1822
  764SOL     OW 3053   0.457   0.262   2.812 -0.3282  0.5871  0.0767
  764SOL    HW1 3054   0.372   0.217   2.826  1.0157 -0.5457  3.1945
  764SOL    HW2 3055   0.458   0.349   2.853  0.3073 -0.1458  2.1200
  764SOL     MW 3056   0.446   0.268   2.820 -0.0671  0.3409  0.7576
  765SOL     OW 3057   2.744   3.040   2.360 -0.2453 -0.8527  0.0458
  765SOL    HW1 3058   2.673   3.001   2.313  1.2826  0.5949 -0.0230
  765SOL    HW2 3059   2.824   2.995   2.320 -0.3952 -2.8490 -0.2831
  765SOL     MW 3060   2.745   3.029   2.349 -0.0635 -0.9251 -0.0067
  766SOL     OW 3061   1.872   2.956   2.179 -0.0328 -0.6324  0.1527
  766SOL    HW1 3062   1.925   3.008   2.116 -1.2393  2.7693  0.1744
  766SOL    HW2 3063   1.810   2.900   2.132  0.1411  0.4921 -0.1003
  766SOL     MW 3064   1.871   2.956   2.165 -0.1691 -0.0352  0.1222
  767SOL     OW 3065   2.693   0.569   2.097 -0.0484  0.1297 -0.0617
  767SOL    HW1 3066   2.752   0.646   2.107 -0.1496  0.2976  0.2075
  767SOL    HW2 3067   2.628   0.613   2.039 -3.0212 -2.6292 -1.4742
  767SOL     MW 3068   2.692   0.585   2.091 -0.4539 -0.2122 -0.2126
  768SOL     OW 3069   3.083   1.552   2.913 -0.1454 -0.5138 -1.1271
  768SOL    HW1 3070   3.092   1.537   3.012 -1.7921 -1.7902  4.3131
  768SOL    HW2 3071   3.133   1.477   2.866 -2.5979  1.9147  0.3740
  768SOL     MW 3072   3.091   1.540   2.920 -0.6862 -0.3618 -0.2112
  769SOL     OW 3073   2.468   0.695   2.368  0.2030 -0.1146 -0.0870
  769SOL    HW1 3074   2.394   0.634   2.364  0.9790  1.2726  1.5548
  769SOL    HW2 3075   2.538   0.668   2.310  1.6937  0.5613  1.2740
  769SOL     MW 3076   2.468   0.683   2.360  0.5021  0.1576  0.3092
  770SOL     OW 3077   3.099   1.636   2.567  0.5036  0.0541 -0.1069
  770SOL    HW1 3078   3.005   1.616   2.549 -4.9359  1.0058 -0.9004
  770SOL    HW2 3079   3.149   1.558   2.585 -4.1067 -1.2748 -2.5235
  770SOL     MW 3080   3.093   1.623   2.567 -0.8223  0.0043 -0.5304
  771SOL     OW 3081   3.058   0.600   2.051 -0.0792  0.0419 -0.7641
  771SOL    HW1 3082   2.983   0.586   1.988 -0.7485  1.8428 -3.2263
  771SOL    HW2 3083   3.129   0.556   1.992 -0.2183 -2.4951 -2.4964
  771SOL     MW 3084   3.057   0.592   2.035 -0.1859 -0.0553 -1.3175
  772SOL     OW 3085   0.061   0.017   2.298 -0.2663 -0.1710 -0.0445
  772SOL    HW1 3086   0.005  -0.057   2.293  1.7209 -1.5848  0.7760
  772SOL    HW2 3087   0.138  -0.015   2.250  0.1871 -0.1474  2.1149
  772SOL     MW 3088   0.063   0.003   2.291  0.0557 -0.3544  0.3487
  773SOL     OW 3089   2.426   2.858   2.747  0.3148 -0.2111 -0.1724
  773SOL    HW1 3090   2.444   2.775   2.704  1.0010 -0.8979 -0.5924
  773SOL    HW2 3091   2.417   2.837   2.839  1.3449 -0.6419  2.1082
  773SOL     MW 3092   2.427   2.844   2.753  0.5413 -0.3585  0.0731
  774SOL     OW 3093   2.357   1.156   1.733  0.4957 -0.0395  0.3324
  774SOL    HW1 3094   2.326   1.216   1.666  1.4923 -1.0563 -1.1197
  774SOL    HW2 3095   2.305   1.080   1.710 -0.2046 -2.5821 -0.3053
  774SOL     MW 3096   2.346   1.154   1.721  0.5348 -0.5091  0.0567
  775SOL     OW 3097   2.330   2.904   2.327 -0.3023  0.6083  0.0338
  775SOL    HW1 3098   2.362   2.972   2.262  0.7297  1.0127 -1.4472
  775SOL    HW2 3099   2.372   2.828   2.296  0.9193  2.5754  2.2866
  775SOL     MW 3100   2.340   2.903   2.314 -0.0050  0.9212  0.1356
  776SOL     OW 3101   0.032   1.518   0.101  0.4324  0.2052  0.0541
  776SOL    HW1 3102   0.125   1.518   0.105  0.1231  2.1563  0.5297
  776SOL    HW2 3103   0.013   1.427   0.121 -0.9479  2.5551 -0.1388
  776SOL     MW 3104   0.042   1.506   0.104  0.2095  0.7727  0.0914
  777SOL     OW 3105   2.976   1.014   1.750 -0.0204 -0.7212 -0.0583
  777SOL    HW1 3106   2.934   1.085   1.691 -2.5761  1.6967  1.8920
  777SOL    HW2 3107   2.897   0.974   1.785 -1.0735 -0.4786  0.4035
  777SOL     MW 3108   2.960   1.018   1.747 -0.4966 -0.3702  0.2600
  778SOL     OW 3109   2.888   0.415   2.767  0.0654 -0.3619  0.1962
  778SOL    HW1 3110   2.837   0.456   2.842  0.7519  0.4129 -0.0074
  778SOL    HW2 3111   2.913   0.495   2.722 -1.7853 -1.4998  0.2323
  778SOL     MW 3112   2.885   0.431   2.771 -0.0882 -0.4098  0.1741
  779SOL     OW 3113   2.115   0.566   2.314 -0.2307 -0.3421  0.2112
  779SOL    HW1 3114   2.070   0.626   2.364  1.7072 -2.2429  0.3121
  779SOL    HW2 3115   2.149   0.507   2.374 -0.4951  1.4636 -3.5816
  779SOL     MW 3116   2.113   0.566   2.329 -0.0099 -0.3547 -0.2759
  780SOL     OW 3117   0.207   0.129   2.833 -0.6669 -0.2514  0.2465
  780SOL    HW1 3118   0.124   0.154   2.872 -2.0498 -0.7509 -0.2793
  780SOL    HW2 3119   0.178   0.130   2.739 -1.1544 -0.1352 -0.4366
  780SOL     MW 3120   0.192   0.132   2.826 -0.9137 -0.3020  0.0870
  781SOL     OW 3121   3.065   1.350   2.492 -0.3527  0.3919 -0.6521
  781SOL    HW1 3122   3.046   1.378   2.404  0.5143  0.3823 -1.6782
  781SOL    HW2 3123   3.116   1.275   2.481  2.1235  0.7832  1.9869
  781SOL     MW 3124   3.069   1.344   2.479  0.0884  0.4422 -0.4393
  782SOL     OW 3125   0.512   1.610   3.049  0.1694 -0.9287 -0.2444
  782SOL    HW1 3126   0.446   1.680   3.050 -0.0599 -0.1768  0.7199
  782SOL    HW2 3127   0.512   1.547   3.130  0.0063 -0.1099  1.0407
  782SOL     MW 3128   0.503   1.611   3.060  0.1176 -0.7214  0.0524
  783SOL     OW 3129   2.783   0.557   2.473 -0.1708  0.1618 -0.5870
  783SOL    HW1 3130   2.792   0.516   2.386  2.9524  0.2291  1.0540
  783SOL    HW2 3131   2.725   0.499   2.519  2.4603  0.4504  0.9575
  783SOL     MW 3132   2.776   0.544   2.467  0.5884  0.2088 -0.1667
  784SOL     OW 3133   0.235   0.918   2.916 -0.6800  0.3538 -0.6094
  784SOL    HW1 3134   0.222   0.996   2.980  0.7054  1.2986  3.7711
  784SOL    HW2 3135   0.246   0.945   2.827 -0.3303 -0.9039  2.2972
  784SOL     MW 3136   0.235   0.932   2.913 -0.4510  0.3125  0.3520
  785SOL     OW 3137   0.358   0.476   2.114 -0.6083 -0.3320 -0.5862
  785SOL    HW1 3138   0.362   0.488   2.017  0.9790  1.7692  1.4979
  785SOL    HW2 3139   0.296   0.404   2.123  1.9861  1.5283  0.9692
  785SOL     MW 3140   0.350   0.468   2.102 -0.0566  0.1907 -0.1060
  786SOL     OW 3141   1.977   0.493   2.853  0.7078  0.5404 -0.5852
  786SOL    HW1 3142   1.944   0.470   2.940 -2.9242 -0.2344 -0.6562
  786SOL    HW2 3143   2.070   0.496   2.860 -2.1347  1.8619 -0.9260
  786SOL     MW 3144   1.985   0.491   2.866 -0.1465  0.6125 -0.6395
  787SOL     OW 3145   2.434   0.191   2.905  0.5781  0.2806  0.3897
  787SOL    HW1 3146   2.498   0.137   2.865  1.0650  0.5222  0.5697
  787SOL    HW2 3147   2.488   0.257   2.942 -0.5212 -0.2199 -0.9303
  787SOL     MW 3148   2.450   0.193   2.905  0.4973  0.2464  0.2393
  788SOL     OW 3149   2.963   2.917   2.283 -0.0937  0.0782 -0.1985
  788SOL    HW1 3150   3.007   2.884   2.202 -1.3042  1.3395  0.7758
  788SOL    HW2 3151   3.006   2.859   2.347  0.4360  0.2289  1.0175
  788SOL     MW 3152   2.975   2.905   2.280 -0.1835  0.2645  0.0905
  789SOL     OW 3153   0.021   0.238   3.024 -0.4867  0.2260  0.2254
  789SOL    HW1 3154  -0.071   0.265   3.016  1.9715  1.5534  0.9754
  789SOL    HW2 3155   0.058   0.298   3.088 -0.6913  1.0560  2.1311
  789SOL     MW 3156   0.014   0.250   3.032 -0.1894  0.5106  0.5758
  790SOL     OW 3157   0.015   1.057   2.479 -0.0138  0.4467  0.7128
  790SOL    HW1 3158  -0.042   1.018   2.541  1.7474 -0.7951  1.2719
  790SOL    HW2 3159  -0.036   1.064   2.399  2.3855 -1.9087  0.2628
  790SOL     MW 3160   0.001   1.053   2.476  0.5352 -0.0279  0.7272
  791SOL     OW 3161   2.648   0.394   2.633  0.1418 -0.2004 -0.0214
  791SOL    HW1 3162   2.609   0.462   2.681  1.6675 -0.3142 -0.7497
  791SOL    HW2 3163   2.723   0.380   2.689  0.1035  0.1358 -1.5235
  791SOL     MW 3164   2.653   0.401   2.647  0.3381 -0.1711 -0.3157
  792SOL     OW 3165   2.396   0.236   2.390  0.6888 -0.0279  0.0456
  792SOL    HW1 3166   2.329   0.268   2.448  3.8129  0.1201 -1.6785
  792SOL    HW2 3167   2.463   0.200   2.446 -0.7890 -2.8681 -1.6957
  792SOL     MW 3168   2.396   0.235   2.405  0.9060 -0.3831 -0.4116
  793SOL     OW 3169   1.748   1.025   1.861 -0.2374  0.4776 -0.3229
  793SOL    HW1 3170   1.720   1.075   1.790 -1.9775  2.7030  0.3336
  793SOL    HW2 3171   1.810   0.964   1.827  0.2365  3.2768 -1.8439
  793SOL     MW 3172   1.753   1.023   1.847 -0.4044  1.1405 -0.4369
  794SOL     OW 3173   1.415   2.286   0.125 -0.2513 -0.0169 -0.2223
  794SOL    HW1 3174   1.451   2.369   0.088 -0.0909  2.4516  1.0720
  794SOL    HW2 3175   1.438   2.281   0.218 -0.5400 -1.7508 -0.7966
  794SOL     MW 3176   1.423   2.296   0.132 -0.2682  0.0800 -0.1273
  795SOL     OW 3177   2.347   0.929   2.590  0.5051  0.0061  0.1585
  795SOL    HW1 3178   2.315   1.008   2.632  2.6535 -0.8148 -1.7032
  795SOL    HW2 3179   2.343   0.945   2.495 -0.5382  0.7092 -0.1813
  795SOL     MW 3180   2.342   0.942   2.583  0.6509 -0.0094 -0.1320
  796SOL     OW 3181   0.316   0.681   2.768  0.1941  0.1582  0.2633
  796SOL    HW1 3182   0.292   0.746   2.835 -1.4325 -0.3276 -0.5665
  796SOL    HW2 3183   0.243   0.657   2.715  0.0093  1.2845  0.8357
  796SOL     MW 3184   0.303   0.686   2.770 -0.0449  0.2427  0.2293
  797SOL     OW 3185   2.592   0.125   2.565 -0.1529  0.1824 -0.1250
  797SOL    HW1 3186   2.612   0.221   2.588 -0.4845  3.8621 -1.4975
  797SOL    HW2 3187   2.657   0.102   2.499 -0.9886  1.7899 -0.3736
  797SOL     MW 3188   2.603   0.134   2.559 -0.3069  0.8800 -0.3389
  798SOL     OW 3189   2.382   0.045   2.182  0.2498 -0.4469  0.1695
  798SOL    HW1 3190   2.381   0.116   2.248  1.9517  0.2666  0.5013
  798SOL    HW2 3191   2.471   0.008   2.161 -0.5510 -0.7902  0.1377
  798SOL     MW 3192   2.393   0.049   2.188  0.3687 -0.3980  0.2091
  799SOL     OW 3193   2.488   2.932   0.197  0.4274  0.3876  0.1364
  799SOL    HW1 3194   2.542   2.888   0.130 -1.7266 -1.2306  0.7334
  799SOL    HW2 3195   2.433   2.990   0.149  1.3895 -0.9911 -3.0388
  799SOL     MW 3196   2.488   2.934   0.182  0.2701 -0.0078 -0.2037
  800SOL     OW 3197   1.906   3.100   1.752  0.1957 -0.0761 -0.8465
  800SOL    HW1 3198   1.857   3.017   1.741  3.0084 -1.0590 -0.4778
  800SOL    HW2 3199   1.950   3.091   1.841 -0.2667  0.2395 -0.0770
  800SOL     MW 3200   1.905   3.088   1.762  0.5058 -0.1641 -0.6963
  801SOL     OW 3201   2.811   1.284   2.580  0.3781  0.0174  0.7357
  801SOL    HW1 3202   2.777   1.202   2.536 -0.1758 -0.6925  0.3524
  801SOL    HW2 3203   2.905   1.292   2.558  0.0318  2.0002 -2.6976
  801SOL     MW 3204   2.819   1.274   2.571  0.2593  0.1853  0.2322
  802SOL     OW 3205   2.556   1.503   2.774  0.0556 -0.3642  0.1544
  802SOL    HW1 3206   2.553   1.409   2.754  1.1583 -1.3694  0.9990
  802SOL    HW2 3207   2.646   1.530   2.785 -2.1686 -1.6577  1.7769
  802SOL     MW 3208   2.567   1.494   2.773 -0.0924 -0.6675  0.4799
  803SOL     OW 3209   2.297   1.303   1.967 -0.4239  0.3339 -0.0895
  803SOL    HW1 3210   2.265   1.264   2.047  1.4956  0.0725  1.6400
  803SOL    HW2 3211   2.296   1.238   1.896 -1.7897  1.2387  0.8828
  803SOL     MW 3212   2.293   1.290   1.968 -0.3508  0.4188  0.2669
  804SOL     OW 3213   2.350   0.050   0.041 -0.1698 -0.1201  0.2345
  804SOL    HW1 3214   2.263   0.095   0.035  0.5137 -0.6993 -0.3936
  804SOL    HW2 3215   2.407   0.087  -0.030  0.5851  0.1302  0.1416
  804SOL     MW 3216   2.346   0.061   0.031  0.0200 -0.1635  0.1394
  805SOL     OW 3217   2.767   1.021   2.531 -0.1537 -0.2869 -0.0413
  805SOL    HW1 3218   2.691   0.963   2.542  0.4864  0.0463 -0.0165
  805SOL    HW2 3219   2.834   0.979   2.592  2.9833  0.6314 -1.4193
  805SOL     MW 3220   2.766   1.007   2.540  0.3446 -0.1218 -0.2198
  806SOL     OW 3221   2.683   0.350   2.232  0.0550 -0.3440 -0.3838
  806SOL    HW1 3222   2.591   0.342   2.257  0.6606 -1.7158 -2.1667
  806SOL    HW2 3223   2.702   0.426   2.177 -1.8133  1.8325  2.5961
  806SOL     MW 3224   2.673   0.359   2.228 -0.1116 -0.2378 -0.2259
  807SOL     OW 3225   0.024   1.152   2.058  0.0531  0.3379  0.4975
  807SOL    HW1 3226   0.068   1.066   2.061  1.3071  1.3169  1.1203
  807SOL    HW2 3227  -0.055   1.143   2.115 -1.7755 -2.6804  0.7922
  807SOL     MW 3228   0.019   1.140   2.066 -0.0227  0.0688  0.6185
  808SOL     OW 3229   2.577   3.086   2.801  0.1547  0.2853  0.0010
  808SOL    HW1 3230   2.505   3.020   2.785  1.4825 -1.7818 -0.5865
  808SOL    HW2 3231   2.584   3.123   2.711 -1.8189 -2.0224  2.0788
  808SOL     MW 3232   2.568   3.082   2.787  0.0695 -0.2919  0.1977
  809SOL     OW 3233   2.491   1.242   2.412  0.0656 -0.3699 -0.0197
  809SOL    HW1 3234   2.528   1.258   2.496 -1.9288  1.7426 -2.3677
  809SOL    HW2 3235   2.572   1.228   2.367  1.5933  1.1976 -0.6624
  809SOL     MW 3236   2.506   1.242   2.417  0.0040  0.1156 -0.4143
  810SOL     OW 3237   2.165   1.187   2.169 -0.2420 -0.1447 -0.3044
  810SOL    HW1 3238   2.213   1.116   2.206  1.5123  1.2796 -0.1590
  810SOL    HW2 3239   2.073   1.155   2.164 -1.1082 -1.0823  0.8006
  810SOL     MW 3240   2.159   1.174   2.173 -0.1249 -0.0805 -0.1394
  811SOL     OW 3241   1.487   0.106   2.251  0.4742 -0.0548 -0.0133
  811SOL    HW1 3242   1.544   0.032   2.282  2.4904 -2.5657 -1.7189
  811SOL    HW2 3243   1.452   0.059   2.168  3.2684 -0.5243 -0.9065
  811SOL     MW 3244   1.490   0.090   2.244  1.1089 -0.4480 -0.3562
  812SOL     OW 3245   1.419   2.773   2.113  0.8150 -0.0025  0.3334
  812SOL    HW1 3246   1.516   2.761   2.091  0.0959  0.6852  2.4018
  812SOL    HW2 3247   1.403   2.725   2.195 -0.1269 -2.4710 -1.6111
  812SOL     MW 3248   1.430   2.765   2.121  0.5959 -0.2375  0.3497
  813SOL     OW 3249   1.852   0.760   2.165 -0.2095 -0.1348 -0.3205
  813SOL    HW1 3250   1.820   0.683   2.210 -1.4278  0.7643  0.9425
  813SOL    HW2 3251   1.925   0.792   2.223  0.4620 -1.8293  2.9440
  813SOL     MW 3252   1.857   0.754   2.178 -0.2816 -0.2398  0.2769
  814SOL     OW 3253   2.794   1.203   1.616 -0.0163 -0.2482 -0.0823
  814SOL    HW1 3254   2.741   1.182   1.700  0.3619  2.9231  1.9927
  814SOL    HW2 3255   2.762   1.141   1.550  1.5992 -3.3226  2.0331
  814SOL     MW 3256   2.783   1.192   1.618  0.2467 -0.2354  0.4706
  815SOL     OW 3257   2.469   1.638   2.341  0.1741 -0.2242  0.1403
  815SOL    HW1 3258   2.410   1.562   2.321  0.1360 -3.1588 -3.0300
  815SOL    HW2 3259   2.556   1.609   2.345 -2.2604 -0.3299  1.4327
  815SOL     MW 3260   2.473   1.624   2.339 -0.1521 -0.6254 -0.1075
  816SOL     OW 3261   0.662   0.678   2.683 -0.4505 -0.9550 -0.6264
  816SOL    HW1 3262   0.711   0.615   2.736 -0.6964  1.6685 -0.8266
  816SOL    HW2 3263   0.607   0.615   2.629  2.9873  0.1660 -2.1320
  816SOL     MW 3264   0.661   0.662   2.683 -0.0294 -0.4609 -0.8515
  817SOL     OW 3265   3.008   1.150   1.352  0.2190 -0.3229 -0.4997
  817SOL    HW1 3266   3.056   1.168   1.432 -1.9916  3.5283 -0.6012
  817SOL    HW2 3267   2.958   1.235   1.340 -0.0201  3.4264  0.2866
  817SOL     MW 3268   3.008   1.164   1.361 -0.1042  0.6799 -0.4093
  818SOL     OW 3269   1.914   0.966   2.684 -0.2231 -0.2280  0.1465
  818SOL    HW1 3270   1.977   1.014   2.630 -0.5053  2.9359 -1.2911
  818SOL    HW2 3271   1.962   0.890   2.716 -0.0387  0.6262  0.9094
  818SOL     MW 3272   1.928   0.962   2.681 -0.2360  0.3021  0.0575
  819SOL     OW 3273   1.865   0.260   2.335  0.9490 -0.5335 -0.1376
  819SOL    HW1 3274   1.845   0.354   2.358  1.1673  2.0481 -0.8425
  819SOL    HW2 3275   1.911   0.225   2.410 -0.0770  2.1433 -0.6291
  819SOL     MW 3276   1.868   0.268   2.348  0.8424  0.1603 -0.2954
  820SOL     OW 3277   2.486   1.744   2.611  0.1147  0.6856 -0.2865
  820SOL    HW1 3278   2.516   1.664   2.653 -2.1071 -2.5580  0.3332
  820SOL    HW2 3279   2.511   1.750   2.516  1.3441 -3.5561 -1.0300
  820SOL     MW 3280   2.493   1.734   2.604 -0.0162 -0.3020 -0.3028
  821SOL     OW 3281   2.578   1.331   1.991  0.1298 -0.0012 -0.2329
  821SOL    HW1 3282   2.609   1.396   1.923 -0.3348  0.1684 -0.1225
  821SOL    HW2 3283   2.486   1.333   1.982  0.9486  0.1213 -0.1540
  821SOL     MW 3284   2.570   1.340   1.981  0.1766  0.0373 -0.2079
  822SOL     OW 3285   2.922   2.661   1.414  0.1453 -0.5725  0.7809
  822SOL    HW1 3286   2.839   2.705   1.403 -0.0858 -2.4447  0.9429
  822SOL    HW2 3287   2.982   2.727   1.438 -0.3792  1.4770  0.2705
  822SOL     MW 3288   2.919   2.675   1.416  0.0456 -0.5491  0.7349
  823SOL     OW 3289   2.335   0.461   1.754  0.3127  0.6121  0.4665
  823SOL    HW1 3290   2.413   0.436   1.699  2.9997  1.3899  3.5501
  823SOL    HW2 3291   2.269   0.388   1.737 -0.8707 -0.5689  1.4373
  823SOL     MW 3292   2.336   0.448   1.745  0.5111  0.5589  1.0014
  824SOL     OW 3293   2.116   1.376   2.590 -0.0409 -0.0949  0.5154
  824SOL    HW1 3294   2.154   1.398   2.503  0.2405  0.2661 -1.2263
  824SOL    HW2 3295   2.070   1.458   2.625 -2.4047 -0.8734  0.9781
  824SOL     MW 3296   2.115   1.389   2.583 -0.3157 -0.1499  0.3466
  825SOL     OW 3297   2.132   2.398   0.358  0.0050 -0.1082 -0.2697
  825SOL    HW1 3298   2.197   2.363   0.290  0.1273 -0.7944 -3.4966
  825SOL    HW2 3299   2.180   2.391   0.438 -2.4992 -0.6720 -0.5306
  825SOL     MW 3300   2.147   2.392   0.359 -0.3093 -0.2731 -0.7299
  826SOL     OW 3301   1.741   2.389   0.419  0.0633  0.0459  0.0982
  826SOL    HW1 3302   1.768   2.320   0.487  0.4094 -1.9577  0.6545
  826SOL    HW2 3303   1.754   2.467   0.475 -2.0037  2.9819  0.2073
  826SOL     MW 3304   1.746   2.390   0.435 -0.1637  0.1689  0.1860
  827SOL     OW 3305   1.935   2.280   0.861 -0.2427 -0.1189 -0.1118
  827SOL    HW1 3306   1.885   2.290   0.775 -0.5010  0.9516 -0.2578
  827SOL    HW2 3307   1.909   2.199   0.909  0.0028 -2.7199  1.8026
  827SOL     MW 3308   1.925   2.270   0.856 -0.2444 -0.3208  0.1215
  828SOL     OW 3309   0.076   2.605   0.553  0.6366  0.3038 -0.0482
  828SOL    HW1 3310   0.171   2.596   0.542  2.3064  1.8970  0.1402
  828SOL    HW2 3311   0.053   2.662   0.474  0.1754 -3.4165 -1.9551
  828SOL     MW 3312   0.085   2.611   0.541  0.7961  0.0231 -0.2750
  829SOL     OW 3313   2.985   2.878   1.200 -0.3902 -0.5528 -0.4835
  829SOL    HW1 3314   2.915   2.888   1.138  2.2836 -1.1558  1.2888
  829SOL    HW2 3315   3.016   2.792   1.177  1.7713  2.4157 -1.5358
  829SOL     MW 3316   2.980   2.868   1.189  0.2477 -0.2407 -0.3885
  830SOL     OW 3317   2.513   2.780   1.998  0.7453  0.1510  0.2930
  830SOL    HW1 3318   2.430   2.806   1.957 -4.1212  1.6374 -0.2315
  830SOL    HW2 3319   2.576   2.799   1.930 -0.5040 -0.5122  0.5677
  830SOL     MW 3320   2.510   2.786   1.983 -0.0616  0.2596  0.2600
  831SOL     OW 3321   2.461   2.426   1.233  0.2453 -0.1793  0.2672
  831SOL    HW1 3322   2.430   2.334   1.256 -0.7385 -0.0433  2.4598
  831SOL    HW2 3323   2.550   2.399   1.212  0.3061 -2.3866  1.9042
  831SOL     MW 3324   2.468   2.410   1.233  0.1235 -0.4526  0.7725
  832SOL     OW 3325   2.431   2.121   1.913  0.1632 -0.2707 -0.2770
  832SOL    HW1 3326   2.473   2.205   1.933 -0.3165  3.4391  1.5965
  832SOL    HW2 3327   2.473   2.101   1.831  0.7193 -0.7094  1.7640
  832SOL     MW 3328   2.442   2.129   1.905  0.1733  0.1609  0.2395
  833SOL     OW 3329   1.628   2.522   0.826  0.1158 -0.8230 -0.7073
  833SOL    HW1 3330   1.603   2.452   0.893 -0.5365  4.4103  1.9995
  833SOL    HW2 3331   1.549   2.584   0.840 -1.2140  0.0035 -1.6541
  833SOL     MW 3332   1.614   2.521   0.837 -0.1457 -0.0235 -0.4751
  834SOL     OW 3333   2.246   2.375   0.654 -0.6422  0.4827  0.0596
  834SOL    HW1 3334   2.235   2.278   0.678 -0.8784 -0.2711  1.2103
  834SOL    HW2 3335   2.336   2.399   0.667  2.1788 -0.4077 -0.3242
  834SOL     MW 3336   2.257   2.365   0.659 -0.3011  0.2658  0.1608
  835SOL     OW 3337   1.820   2.540   0.629  1.4305  0.5773  0.9065
  835SOL    HW1 3338   1.773   2.501   0.696 -0.2565  0.2663  0.5761
  835SOL    HW2 3339   1.907   2.539   0.670  0.9979  4.7072  0.0241
  835SOL     MW 3340   1.825   2.535   0.644  1.1508  1.0812  0.7465
  836SOL     OW 3341   2.094   2.075   1.731 -0.2742 -0.4423  0.6410
  836SOL    HW1 3342   2.175   2.029   1.734  0.5637 -0.0187 -0.1273
  836SOL    HW2 3343   2.118   2.166   1.756 -0.5728 -1.2237  2.5119
  836SOL     MW 3344   2.108   2.081   1.735 -0.2030 -0.4895  0.7865
  837SOL     OW 3345   2.112   0.174   0.621  0.3670  0.0561  0.2148
  837SOL    HW1 3346   2.023   0.188   0.599  4.8022  0.2488  2.4919
  837SOL    HW2 3347   2.155   0.121   0.554 -0.0470 -0.7047  1.8161
  837SOL     MW 3348   2.106   0.168   0.609  0.8975 -0.0188  0.7265
  838SOL     OW 3349   2.919   2.060   0.901  0.3447  0.2020  0.3584
  838SOL    HW1 3350   2.858   1.987   0.879  0.1895 -1.7708 -0.8375
  838SOL    HW2 3351   2.975   2.036   0.976  1.0828 -0.8094 -2.8248
  838SOL     MW 3352   2.919   2.047   0.908  0.4216 -0.1917 -0.2194
  839SOL     OW 3353   1.527   2.391   1.064 -0.2225 -0.2138  0.9716
  839SOL    HW1 3354   1.518   2.472   1.111  0.5393  0.3111 -0.8784
  839SOL    HW2 3355   1.590   2.323   1.110 -1.9391  1.6876 -0.6493
  839SOL     MW 3356   1.535   2.393   1.076 -0.3485  0.1063  0.5136
  840SOL     OW 3357   2.431   2.110   2.323 -0.2056  0.0046 -0.1689
  840SOL    HW1 3358   2.376   2.191   2.309  0.6680  1.0865 -0.9263
  840SOL    HW2 3359   2.473   2.134   2.409 -1.1227  0.8995  1.2733
  840SOL     MW 3360   2.429   2.124   2.332 -0.2113  0.2654 -0.0786
  841SOL     OW 3361   2.324   2.296   0.119 -0.3830  0.1029  0.0039
  841SOL    HW1 3362   2.327   2.363   0.048 -0.1810  1.9287  0.8681
  841SOL    HW2 3363   2.248   2.241   0.104 -0.0625  0.7626 -1.9723
  841SOL     MW 3364   2.315   2.298   0.107 -0.3140  0.4309 -0.1428
  842SOL     OW 3365   2.644   1.927   1.472  0.5126  0.2881  0.3704
  842SOL    HW1 3366   2.609   1.839   1.482  1.3026 -0.9620  0.5285
  842SOL    HW2 3367   2.622   1.955   1.381  0.4134  1.3646  1.8916
  842SOL     MW 3368   2.636   1.919   1.461  0.6037  0.2652  0.5919
  843SOL     OW 3369   2.653   2.779   1.762 -0.0118  0.0488  0.0338
  843SOL    HW1 3370   2.737   2.738   1.780  2.4807  2.0107  1.8423
  843SOL    HW2 3371   2.598   2.704   1.726 -1.7252 -0.2109  0.1879
  843SOL     MW 3372   2.657   2.764   1.760  0.0910  0.2734  0.2927
  844SOL     OW 3373   2.690   2.332   1.086 -0.5907  0.0815 -0.4083
  844SOL    HW1 3374   2.723   2.365   1.003  2.0803  0.3271  1.2725
  844SOL    HW2 3375   2.756   2.371   1.145 -0.5935  0.4856 -0.6334
  844SOL     MW 3376   2.703   2.342   1.083 -0.2387  0.1672 -0.2163
  845SOL     OW 3377   2.856   2.604   0.286 -0.3875  0.1852 -0.4337
  845SOL    HW1 3378   2.837   2.526   0.343 -1.0729  3.0709 -1.3698
  845SOL    HW2 3379   2.845   2.673   0.350  0.2152  0.8414  1.5047
  845SOL     MW 3380   2.852   2.603   0.302 -0.3984  0.6525 -0.3015
  846SOL     OW 3381   1.464   2.751   0.785 -0.2720 -0.3485 -0.3964
  846SOL    HW1 3382   1.538   2.813   0.800 -0.0905 -0.3913 -1.5045
  846SOL    HW2 3383   1.387   2.802   0.800 -0.2687 -0.0663  1.0164
  846SOL     MW 3384   1.463   2.766   0.789 -0.2476 -0.3169 -0.3562
  847SOL     OW 3385   2.459   1.841   0.220 -0.1978 -0.2557 -0.1098
  847SOL    HW1 3386   2.429   1.748   0.247 -1.9357 -1.9623 -0.0979
  847SOL    HW2 3387   2.424   1.861   0.122 -2.8831 -0.9986 -0.3921
  847SOL     MW 3388   2.451   1.831   0.211 -0.7814 -0.5789 -0.1455
  848SOL     OW 3389   2.679   2.050   1.201 -0.2186 -0.0513  0.3506
  848SOL    HW1 3390   2.679   2.129   1.146  2.0031 -2.3143 -0.6756
  848SOL    HW2 3391   2.732   1.990   1.151  0.8723  3.1322 -3.0562
  848SOL     MW 3392   2.686   2.052   1.187  0.2185  0.0701 -0.2343
  849SOL     OW 3393   1.947   2.844   0.824 -0.2193 -0.0566  0.2676
  849SOL    HW1 3394   1.884   2.816   0.890 -0.8249 -0.3950  1.0090
  849SOL    HW2 3395   1.972   2.752   0.796  2.2285 -0.5726 -2.8059
  849SOL     MW 3396   1.942   2.828   0.829  0.0237 -0.1693 -0.0401
  850SOL     OW 3397   2.323   1.921   1.620  0.3532  0.5077  0.0294
  850SOL    HW1 3398   2.233   1.891   1.589  1.6237  2.1077 -2.5232
  850SOL    HW2 3399   2.337   2.012   1.577  0.4340  3.3658 -1.0327
  850SOL     MW 3400   2.313   1.929   1.610  0.5315  1.0959 -0.4475
  851SOL     OW 3401   2.516   2.207   0.386  0.8997 -0.4472  0.3140
  851SOL    HW1 3402   2.550   2.183   0.294  1.2848  0.8562 -2.1363
  851SOL    HW2 3403   2.512   2.300   0.400 -1.1024 -2.0852  0.5107
  851SOL     MW 3404   2.520   2.216   0.375  0.6864 -0.4913  0.0167
  852SOL     OW 3405   2.278   1.996   0.352 -0.0756 -0.3137 -0.2301
  852SOL    HW1 3406   2.327   2.078   0.363  0.8584  0.7917 -1.3538
  852SOL    HW2 3407   2.334   1.928   0.308 -3.9267 -0.1433 -2.3672
  852SOL     MW 3408   2.292   1.998   0.348 -0.4605 -0.1454 -0.6603
  853SOL     OW 3409   2.532   2.371   1.912  0.0970  0.0250 -0.2612
  853SOL    HW1 3410   2.531   2.423   1.831 -0.3070  1.8064 -0.0395
  853SOL    HW2 3411   2.629   2.384   1.936 -1.8400  2.0976 -1.9875
  853SOL     MW 3412   2.545   2.380   1.905 -0.2119  0.5335 -0.4597
  854SOL     OW 3413   2.888   2.268   0.733 -0.8181 -0.7468  0.2426
  854SOL    HW1 3414   2.809   2.233   0.696  1.8408 -0.1543 -2.5049
  854SOL    HW2 3415   2.923   2.188   0.781 -0.2463 -2.5615 -0.4873
  854SOL     MW 3416   2.882   2.253   0.734 -0.3919 -0.9080 -0.2162
  855SOL     OW 3417   2.791   2.385   0.427  0.1609 -0.3144  0.1713
  855SOL    HW1 3418   2.698   2.389   0.441  1.1174  0.8224 -2.2818
  855SOL    HW2 3419   2.810   2.301   0.390  0.4460  1.5114  0.5517
  855SOL     MW 3420   2.781   2.374   0.424  0.3247  0.0765 -0.1022
  856SOL     OW 3421   2.070   1.865   0.241  0.7291  0.0408  0.2368
  856SOL    HW1 3422   1.982   1.877   0.281  1.1901  2.3437  0.9817
  856SOL    HW2 3423   2.127   1.930   0.282  0.5038  0.8470  0.7779
  856SOL     MW 3424   2.066   1.875   0.251  0.7602  0.4510  0.4065
  857SOL     OW 3425   2.465   1.937   0.584 -0.1462 -0.5767 -0.1529
  857SOL    HW1 3426   2.421   1.961   0.499  0.7395  0.4757  0.9113
  857SOL    HW2 3427   2.394   1.917   0.655 -1.7557 -0.3308  1.9197
  857SOL     MW 3428   2.450   1.937   0.582 -0.2417 -0.4054  0.2610
  858SOL     OW 3429   2.894   2.699   1.797  0.4388 -0.2595  0.3614
  858SOL    HW1 3430   2.976   2.728   1.830 -0.4488  1.9765 -0.6917
  858SOL    HW2 3431   2.919   2.626   1.744  0.6136  2.2067  0.4236
  858SOL     MW 3432   2.908   2.693   1.794  0.3447  0.3609  0.2307
  859SOL     OW 3433   1.792   2.677   0.970 -0.8498 -0.4325 -0.4280
  859SOL    HW1 3434   1.734   2.620   0.918 -1.6702 -2.7836 -0.5792
  859SOL    HW2 3435   1.849   2.609   1.006  1.2668 -2.6684  4.1321
  859SOL     MW 3436   1.792   2.661   0.968 -0.6788 -1.0377  0.1537
  860SOL     OW 3437   2.620   2.581   0.142  0.3546 -0.0309 -0.2927
  860SOL    HW1 3438   2.694   2.590   0.205 -0.1107  0.0969 -2.7857
  860SOL    HW2 3439   2.624   2.665   0.091  0.6024  2.9085 -0.5100
  860SOL     MW 3440   2.630   2.593   0.144  0.3259  0.3738 -0.6503
  861SOL     OW 3441   1.617   2.145   1.191 -0.3693  0.0931 -0.5743
  861SOL    HW1 3442   1.658   2.156   1.274  0.3152  1.0119  0.7571
  861SOL    HW2 3443   1.537   2.098   1.219 -0.7372 -0.2194  1.2639
  861SOL     MW 3444   1.612   2.141   1.205 -0.3275  0.1731 -0.1561
  862SOL     OW 3445   2.416   1.715   1.426 -0.5476 -0.0250  0.1491
  862SOL    HW1 3446   2.395   1.776   1.491 -0.6062 -0.0454 -2.3490
  862SOL    HW2 3447   2.398   1.754   1.342  0.6723 -0.5925 -0.4495
  862SOL     MW 3448   2.411   1.728   1.423 -0.3944 -0.1026 -0.2595
  863SOL     OW 3449   2.946   1.716   0.974 -0.5518 -0.0277 -0.0133
  863SOL    HW1 3450   2.989   1.760   1.047 -4.9863  1.2099  0.9664
  863SOL    HW2 3451   2.857   1.749   0.968 -1.6071 -0.6118 -1.1040
  863SOL     MW 3452   2.940   1.726   0.983 -1.2761  0.0585 -0.0279
  864SOL     OW 3453   0.022   1.763   0.762 -0.2006 -0.2272  0.2163
  864SOL    HW1 3454  -0.036   1.736   0.837  2.8737 -0.6460  2.4078
  864SOL    HW2 3455  -0.020   1.745   0.679 -0.1046 -2.2960 -1.5247
  864SOL     MW 3456   0.008   1.757   0.761  0.2177 -0.5554  0.2758
  865SOL     OW 3457   2.560   2.148   0.121 -0.5563 -0.6658  0.4786
  865SOL    HW1 3458   2.571   2.082   0.057  1.6116  2.0097  1.4214
  865SOL    HW2 3459   2.469   2.189   0.128  1.8711  0.1313  0.0920
  865SOL     MW 3460   2.549   2.144   0.113  0.0500 -0.2076  0.5520
  866SOL     OW 3461   2.714   2.349   1.527  0.5338  0.1190 -0.1908
  866SOL    HW1 3462   2.694   2.260   1.552  2.2446 -2.8635  0.4318
  866SOL    HW2 3463   2.769   2.347   1.445 -0.9962 -0.9050 -0.7135
  866SOL     MW 3464   2.719   2.337   1.520  0.5576 -0.4096 -0.1777
  867SOL     OW 3465   0.100   2.658   1.734  0.2721  0.5161  0.1955
  867SOL    HW1 3466   0.187   2.685   1.763 -0.7937 -0.3649 -0.3540
  867SOL    HW2 3467   0.085   2.724   1.662  0.4297 -0.2760 -2.1505
  867SOL     MW 3468   0.110   2.671   1.728  0.1523  0.2953 -0.1865
  868SOL     OW 3469   2.736   2.692   0.579 -0.0669 -0.2701  0.6590
  868SOL    HW1 3470   2.743   2.593   0.558  0.2757 -0.2259  0.9096
  868SOL    HW2 3471   2.666   2.730   0.524  0.4030 -0.1626 -2.6389
  868SOL     MW 3472   2.728   2.684   0.569  0.0403 -0.2501  0.2570
  869SOL     OW 3473   1.985   2.468   1.052 -1.0874 -0.0583  0.4973
  869SOL    HW1 3474   2.060   2.522   1.025 -0.2124  0.6959 -1.1945
  869SOL    HW2 3475   1.961   2.405   0.985 -0.0850 -0.8157 -1.1874
  869SOL     MW 3476   1.992   2.467   1.039 -0.8397 -0.0587  0.0518
  870SOL     OW 3477   2.226   3.076   0.466 -0.3405  0.1654 -0.6559
  870SOL    HW1 3478   2.301   3.122   0.431  0.9642  1.7959  2.1635
  870SOL    HW2 3479   2.250   2.989   0.500 -2.4845 -3.0854 -0.5270
  870SOL     MW 3480   2.239   3.071   0.466 -0.4513 -0.0484 -0.2669
  871SOL     OW 3481   2.478   2.100   0.908 -0.3384 -0.2447  0.3079
  871SOL    HW1 3482   2.393   2.071   0.884 -0.1655  2.4810  0.9076
  871SOL    HW2 3483   2.478   2.186   0.947  1.5601 -0.3475  1.4430
  871SOL     MW 3484   2.466   2.107   0.910 -0.0651  0.1014  0.5368
  872SOL     OW 3485   2.120   2.528   1.619 -0.2438 -0.3450  1.1772
  872SOL    HW1 3486   2.061   2.604   1.631  0.8135  0.8140 -1.3861
  872SOL    HW2 3487   2.108   2.483   1.530  1.7437 -1.3683 -0.4619
  872SOL     MW 3488   2.111   2.532   1.609  0.1579 -0.3271  0.6228
  873SOL     OW 3489   2.866   2.162   1.818  0.0353  0.5478  0.3264
  873SOL    HW1 3490   2.869   2.249   1.857 -2.0856 -0.7845 -1.2166
  873SOL    HW2 3491   2.940   2.161   1.753  0.7670 -2.4012  1.3235
  873SOL     MW 3492   2.876   2.174   1.814 -0.1480 -0.0171  0.2543
  874SOL     OW 3493   2.254   1.407   2.329  0.2884  0.7877  0.0471
  874SOL    HW1 3494   2.206   1.363   2.255  1.1436 -0.9806 -0.2531
  874SOL    HW2 3495   2.323   1.348   2.343  2.1807 -1.0766  0.1544
  874SOL     MW 3496   2.257   1.394   2.321  0.6509  0.3084  0.0216
  875SOL     OW 3497   2.387   2.361   0.953 -0.0590 -0.5304  0.0642
  875SOL    HW1 3498   2.425   2.402   0.876  0.7582  0.7661  1.8283
  875SOL    HW2 3499   2.408   2.417   1.033 -0.5290  1.4164  1.9448
  875SOL     MW 3500   2.395   2.374   0.954 -0.0132 -0.1025  0.5451
  876SOL     OW 3501   3.073   2.242   1.311  0.1157 -0.3660  0.5346
  876SOL    HW1 3502   3.164   2.267   1.293 -0.3501 -1.4535 -0.8831
  876SOL    HW2 3503   3.076   2.208   1.398  1.6551  0.4631  2.4217
  876SOL     MW 3504   3.085   2.241   1.320  0.2574 -0.4001  0.5965
  877SOL     OW 3505   0.014   2.740   0.318 -0.0225  0.4568 -0.0974
  877SOL    HW1 3506   0.086   2.788   0.286 -0.7433  0.8321 -1.8595
  877SOL    HW2 3507  -0.002   2.682   0.239  0.0076  0.1711 -2.5305
  877SOL     MW 3508   0.022   2.739   0.304 -0.1136  0.4686 -0.6509
  878SOL     OW 3509   2.259   1.666   1.159  0.0457 -0.0544 -0.1961
  878SOL    HW1 3510   2.204   1.627   1.243  0.0693 -0.4326  1.3428
  878SOL    HW2 3511   2.277   1.587   1.106 -0.4526 -2.4588 -0.6889
  878SOL     MW 3512   2.254   1.650   1.163 -0.0169 -0.4216 -0.0580
  879SOL     OW 3513   2.730   2.479   0.846  0.3055  0.0972  0.4173
  879SOL    HW1 3514   2.781   2.546   0.892  0.4612 -0.1707 -2.2020
  879SOL    HW2 3515   2.794   2.408   0.813 -1.5139  0.7405 -0.0608
  879SOL     MW 3516   2.746   2.479   0.848  0.0860  0.1467  0.0087
  880SOL     OW 3517   2.597   2.215   0.677  0.6744 -0.0650  0.6810
  880SOL    HW1 3518   2.557   2.171   0.752  2.5012 -0.3168 -2.4928
  880SOL    HW2 3519   2.537   2.189   0.602 -2.6932  2.5620 -2.4689
  880SOL     MW 3520   2.584   2.206   0.677  0.4711  0.2484 -0.1533
  881SOL     OW 3521   2.987   2.771   0.708  0.0947 -0.5828  0.2134
  881SOL    HW1 3522   2.904   2.747   0.660  0.7404  1.2527  1.2510
  881SOL    HW2 3523   3.047   2.702   0.674 -2.9721  0.5486  1.3694
  881SOL     MW 3524   2.984   2.759   0.697 -0.2247 -0.1913  0.5028
  882SOL     OW 3525   2.234   2.904   1.938 -0.5609 -0.0046 -0.0053
  882SOL    HW1 3526   2.246   2.913   1.841  1.3011  1.1392  0.1646
  882SOL    HW2 3527   2.206   2.816   1.950  0.9743  0.2764 -1.0844
  882SOL     MW 3528   2.232   2.894   1.927 -0.1127  0.1834 -0.1253
  883SOL     OW 3529   2.457   2.147   1.301  0.8205 -0.0955 -0.2299
  883SOL    HW1 3530   2.527   2.097   1.257  1.5770 -2.5777 -0.8968
  883SOL    HW2 3531   2.376   2.123   1.248 -2.4937  0.3741  1.6280
  883SOL     MW 3532   2.456   2.137   1.288  0.4830 -0.3610 -0.0727
  884SOL     OW 3533   1.916   1.847   1.049 -0.2119  0.5158 -0.2190
  884SOL    HW1 3534   1.895   1.936   1.019  0.5119 -0.8129 -0.0163
  884SOL    HW2 3535   2.013   1.847   1.042 -0.1648  2.1201 -1.7016
  884SOL     MW 3536   1.926   1.859   1.044 -0.1102  0.5521 -0.3879
  885SOL     OW 3537   2.932   2.428   1.682  0.5388 -0.1404 -0.0111
  885SOL    HW1 3538   2.988   2.356   1.661  2.1095  0.0250  0.1699
  885SOL    HW2 3539   2.856   2.418   1.622 -2.4049  1.0882 -1.5784
  885SOL     MW 3540   2.929   2.417   1.671  0.3577  0.0436 -0.1940
  886SOL     OW 3541   2.887   2.427   1.267 -0.5955 -0.3579 -0.2729
  886SOL    HW1 3542   2.958   2.368   1.272  0.1769  2.8141 -2.1276
  886SOL    HW2 3543   2.910   2.510   1.318  1.5418  1.4277  1.5424
  886SOL     MW 3544   2.899   2.430   1.274 -0.2116  0.2962 -0.2781
  887SOL     OW 3545   2.322   2.699   1.565 -0.3747 -0.4676  0.1002
  887SOL    HW1 3546   2.343   2.689   1.468  4.0546 -1.9623 -0.0492
  887SOL    HW2 3547   2.259   2.628   1.591 -2.1842 -0.1059  1.2956
  887SOL     MW 3548   2.316   2.689   1.556 -0.0290 -0.6171  0.2382
  888SOL     OW 3549   2.047   2.164   1.415 -0.1165  0.3115  0.1619
  888SOL    HW1 3550   2.081   2.142   1.329  0.0086  0.2164  0.4406
  888SOL    HW2 3551   2.123   2.167   1.477  0.4823 -1.3568  2.1382
  888SOL     MW 3552   2.062   2.162   1.412 -0.0210  0.0788  0.4594
  889SOL     OW 3553   2.290   1.896   2.070 -0.1177 -0.2130  0.8268
  889SOL    HW1 3554   2.387   1.876   2.089  1.0234 -1.4757 -1.8782
  889SOL    HW2 3555   2.292   1.991   2.049  2.5513 -0.0081  2.8736
  889SOL     MW 3556   2.303   1.906   2.070  0.3850 -0.3525  0.7399
  890SOL     OW 3557   0.052   2.348   0.164  0.2343  0.0337 -0.2606
  890SOL    HW1 3558   0.023   2.443   0.148 -1.4878  0.0424 -0.1898
  890SOL    HW2 3559   0.058   2.340   0.255  0.6921 -1.0026 -4.0670
  890SOL     MW 3560   0.049   2.359   0.174  0.0675 -0.1018 -0.7535
  891SOL     OW 3561   3.003   1.996   1.167 -0.4096 -0.7282 -0.3737
  891SOL    HW1 3562   3.068   1.930   1.174  2.6296  0.9060  1.0004
  891SOL    HW2 3563   3.050   2.072   1.211  1.8065 -1.0293  0.8282
  891SOL     MW 3564   3.018   1.997   1.174  0.2838 -0.5523 -0.0338
  892SOL     OW 3565   2.480   2.370   2.790 -0.0160 -0.3997 -0.1589
  892SOL    HW1 3566   2.454   2.292   2.834 -1.5487  1.8581 -3.0133
  892SOL    HW2 3567   2.573   2.394   2.817  0.7804 -0.2745  1.9698
  892SOL     MW 3568   2.489   2.363   2.799 -0.1132 -0.0853 -0.2547
  893SOL     OW 3569   1.636   2.334   1.392 -0.2564  0.3338  0.6717
  893SOL    HW1 3570   1.553   2.390   1.383 -0.5388 -0.6996  0.0240
  893SOL    HW2 3571   1.684   2.366   1.467 -0.2453 -0.8950  0.8403
  893SOL     MW 3572   1.631   2.346   1.400 -0.2922  0.0354  0.6085
  894SOL     OW 3573   2.761   1.930   0.474 -0.3877  1.0227  0.1417
  894SOL    HW1 3574   2.689   1.936   0.532  3.3593  0.9707 -0.4524
  894SOL    HW2 3575   2.730   1.891   0.393 -0.7778 -0.2963 -1.3828
  894SOL     MW 3576   2.748   1.926   0.471  0.0552  0.8418 -0.1378
  895SOL     OW 3577   2.248   2.111   1.122 -0.2340  0.6502  0.3388
  895SOL    HW1 3578   2.249   2.181   1.058  1.6344 -0.4715  2.2346
  895SOL    HW2 3579   2.224   2.030   1.081 -1.7751 -0.5694  0.6258
  895SOL     MW 3580   2.245   2.109   1.108 -0.1908  0.3413  0.6268
  896SOL     OW 3581   2.225   2.804   1.066 -0.0229  0.6178  0.3212
  896SOL    HW1 3582   2.289   2.784   1.136 -0.5841  0.1017 -0.9858
  896SOL    HW2 3583   2.167   2.866   1.108  0.1116  0.4433 -1.2119
  896SOL     MW 3584   2.226   2.809   1.081 -0.0792  0.5267 -0.0535
  897SOL     OW 3585   3.093   3.033   3.105  0.2081  0.6334 -0.1435
  897SOL    HW1 3586   3.140   2.945   3.095  3.8165 -1.3801 -1.7989
  897SOL    HW2 3587   3.065   3.055   3.012 -0.7327  0.5010 -0.8804
  897SOL     MW 3588   3.095   3.024   3.091  0.5601  0.3502 -0.4591
  898SOL     OW 3589   2.194   0.152   1.457  0.2418  0.5948 -0.0462
  898SOL    HW1 3590   2.134   0.079   1.439  0.4042 -1.3475  0.9149
  898SOL    HW2 3591   2.186   0.206   1.382  1.1329 -1.9357  1.3376
  898SOL     MW 3592   2.185   0.149   1.444  0.3808  0.0047  0.2632
  899SOL     OW 3593   2.940   3.032   0.627  0.9102  0.3490 -0.0426
  899SOL    HW1 3594   2.977   2.951   0.660 -0.3197  1.4967  2.1239
  899SOL    HW2 3595   2.848   3.040   0.656  1.5303 -2.9696 -0.5167
  899SOL     MW 3596   2.932   3.023   0.635  0.8297  0.0625  0.1807
  900SOL     OW 3597   0.157   2.390   1.106  0.2094  0.6427  0.6129
  900SOL    HW1 3598   0.139   2.485   1.112  1.2068  1.6574 -0.3050
  900SOL    HW2 3599   0.166   2.362   1.013  1.5438 -1.2986  0.1388
  900SOL     MW 3600   0.156   2.399   1.095  0.5171  0.5205  0.4293
  901SOL     OW 3601   1.772   2.874   1.783  0.5165 -0.7155 -0.0977
  901SOL    HW1 3602   1.851   2.824   1.755 -1.9518  3.9912  0.5374
  901SOL    HW2 3603   1.696   2.826   1.755  0.3776 -1.1878  1.6132
  901SOL     MW 3604   1.772   2.861   1.775  0.1725 -0.1568  0.2118
  902SOL     OW 3605   2.638   2.106   1.685 -0.6632 -0.0899  0.2891
  902SOL    HW1 3606   2.661   2.040   1.618 -0.5416 -1.8823  2.5322
  902SOL    HW2 3607   2.716   2.127   1.739 -0.2982  2.3242  0.7145
  902SOL     MW 3608   2.651   2.100   1.683 -0.5990 -0.0079  0.6412
  903SOL     OW 3609   1.512   2.646   0.538 -0.0463  0.0847 -0.3333
  903SOL    HW1 3610   1.603   2.662   0.527 -0.0026 -0.2690  0.7749
  903SOL    HW2 3611   1.505   2.704   0.616 -0.1627  0.8205  3.2020
  903SOL     MW 3612   1.523   2.655   0.547 -0.0559  0.1352  0.2793
  904SOL     OW 3613   2.517   2.542   1.680  0.1389 -0.0086 -0.5150
  904SOL    HW1 3614   2.444   2.582   1.626 -0.4745  0.9858 -0.0189
  904SOL    HW2 3615   2.576   2.500   1.615  1.9793 -2.5065 -1.3019
  904SOL     MW 3616   2.515   2.541   1.665  0.3008 -0.2070 -0.5534
  905SOL     OW 3617   2.333   2.480   2.091 -0.3546  0.0211  0.2610
  905SOL    HW1 3618   2.411   2.439   2.047  2.0991 -1.3079  0.5060
  905SOL    HW2 3619   2.291   2.424   2.166 -0.0670 -0.1212 -1.5433
  905SOL     MW 3620   2.338   2.467   2.095  0.0071 -0.1730  0.0552
  906SOL     OW 3621   2.477   2.528   0.718 -0.4332  0.0643 -0.2069
  906SOL    HW1 3622   2.564   2.540   0.751 -2.5644  0.6191 -1.6116
  906SOL    HW2 3623   2.438   2.614   0.730 -0.7319 -0.4318  1.0767
  906SOL     MW 3624   2.483   2.541   0.724 -0.7538  0.0720 -0.2229
  907SOL     OW 3625   2.660   2.798   1.304  0.1780 -0.3853 -0.0837
  907SOL    HW1 3626   2.693   2.875   1.354 -0.5726 -3.0108  1.8265
  907SOL    HW2 3627   2.684   2.821   1.218 -0.6242 -2.8629 -0.2546
  907SOL     MW 3628   2.668   2.811   1.299 -0.0269 -1.0586  0.1458
  908SOL     OW 3629   2.683   2.363   3.086 -0.1085 -0.5997 -0.6459
  908SOL    HW1 3630   2.625   2.289   3.110  0.6029  1.6509  0.2348
  908SOL    HW2 3631   2.671   2.448   3.142  1.0439  1.4518  0.3391
  908SOL     MW 3632   2.674   2.365   3.096  0.1374 -0.0321 -0.3997
  909SOL     OW 3633   1.702   0.104   1.316  0.5104  0.2340 -0.1973
  909SOL    HW1 3634   1.647   0.189   1.319  2.2564  2.0296 -0.1711
  909SOL    HW2 3635   1.678   0.073   1.406  0.1956  1.1289 -1.2310
  909SOL     MW 3636   1.691   0.111   1.328  0.6992  0.5890 -0.3302
  910SOL     OW 3637   2.134   1.634   0.396 -0.0125 -0.4512  0.5323
  910SOL    HW1 3638   2.093   1.542   0.396  3.4378 -0.3746 -0.2084
  910SOL    HW2 3639   2.089   1.688   0.328 -0.5295  0.9105  0.4001
  910SOL     MW 3640   2.123   1.629   0.387  0.3746 -0.2614  0.4171
  911SOL     OW 3641   2.386   2.178   1.560  0.4541  0.2069 -0.2120
  911SOL    HW1 3642   2.458   2.164   1.622  4.1643  0.9711  1.3354
  911SOL    HW2 3643   2.429   2.188   1.471 -0.0806  1.7081  0.7825
  911SOL     MW 3644   2.402   2.177   1.556  0.8731  0.5058  0.1233
  912SOL     OW 3645   2.920   1.864   1.384 -0.5433  0.0369  0.6391
  912SOL    HW1 3646   2.957   1.901   1.304  2.9988 -3.1415 -1.7408
  912SOL    HW2 3647   2.842   1.902   1.413  1.8981  1.0326 -0.0434
  912SOL     MW 3648   2.914   1.874   1.377  0.2462 -0.2511  0.2350
  913SOL     OW 3649   2.703   0.023   0.261  0.2992 -0.3479  0.3178
  913SOL    HW1 3650   2.781  -0.031   0.274  2.3057  1.2675  0.2449
  913SOL    HW2 3651   2.638  -0.046   0.247  0.4097  2.9961  1.2823
  913SOL     MW 3652   2.705   0.007   0.261  0.5785  0.3064  0.4354
  914SOL     OW 3653   2.681   1.800   2.965 -0.7315 -0.0573  0.6962
  914SOL    HW1 3654   2.720   1.884   2.948 -1.3769  0.1506  0.8992
  914SOL    HW2 3655   2.595   1.821   3.003  1.4824 -0.9987  1.3386
  914SOL     MW 3656   2.674   1.814   2.968 -0.5246 -0.1541  0.8077
  915SOL     OW 3657   1.803   0.106   0.101  0.0079 -0.1191  0.1759
  915SOL    HW1 3658   1.880   0.074   0.150  0.9317 -1.4027  0.3007
  915SOL    HW2 3659   1.730   0.068   0.149  2.1246  0.7435 -2.0411
  915SOL     MW 3660   1.803   0.097   0.114  0.4090 -0.1747 -0.1001
  916SOL     OW 3661   1.783   2.148   1.977  0.2231  0.1849  0.2026
  916SOL    HW1 3662   1.822   2.235   1.978 -0.1221 -3.0454  0.6516
  916SOL    HW2 3663   1.801   2.103   1.892 -1.4545  0.1151 -0.6591
  916SOL     MW 3664   1.790   2.154   1.966 -0.0438 -0.2505  0.1481
  917SOL     OW 3665   2.543   2.183   2.570 -0.2454 -0.3992 -0.4883
  917SOL    HW1 3666   2.522   2.250   2.632  1.1664 -2.3924 -1.2984
  917SOL    HW2 3667   2.619   2.211   2.526 -0.6888 -0.1941 -2.7018
  917SOL     MW 3668   2.550   2.195   2.572 -0.1177 -0.6351 -0.8872
  918SOL     OW 3669   2.044   1.604   2.710 -0.3468  0.3436  1.2400
  918SOL    HW1 3670   1.993   1.651   2.648  0.8344  1.1441  2.1031
  918SOL    HW2 3671   2.129   1.632   2.690 -0.5486  0.8799  0.6381
  918SOL     MW 3672   2.048   1.614   2.699 -0.2176  0.5200  1.2745
  919SOL     OW 3673   3.044   2.421   2.299  0.3087 -0.3767  0.3482
  919SOL    HW1 3674   2.991   2.353   2.250 -2.8911 -1.3746  2.3375
  919SOL    HW2 3675   3.116   2.439   2.244 -0.6654 -0.8967  0.9436
  919SOL     MW 3676   3.047   2.414   2.285 -0.2420 -0.5770  0.6892
  920SOL     OW 3677   2.642   2.821   3.096  0.3519  0.7126  0.3197
  920SOL    HW1 3678   2.560   2.792   3.057  0.7001  0.0096  0.7912
  920SOL    HW2 3679   2.706   2.814   3.025 -1.8405 -3.1979  2.7123
  920SOL     MW 3680   2.639   2.816   3.081  0.1086  0.1039  0.6976
  921SOL     OW 3681   2.440   2.598   2.622 -0.3010 -0.0780 -0.5557
  921SOL    HW1 3682   2.522   2.607   2.575 -2.1848 -0.3644 -4.0062
  921SOL    HW2 3683   2.437   2.529   2.689 -0.1149  0.0821 -0.1468
  921SOL     MW 3684   2.450   2.590   2.625 -0.5250 -0.0947 -0.9570
  922SOL     OW 3685   2.078   2.659   0.424 -0.1414 -0.0448  0.0007
  922SOL    HW1 3686   2.086   2.668   0.326  0.8751  2.0386  1.0152
  922SOL    HW2 3687   2.084   2.564   0.427 -0.0306  4.5720  1.9053
  922SOL     MW 3688   2.080   2.647   0.411  0.0074  0.8392  0.3859
  923SOL     OW 3689   2.200   2.918   1.663  0.1092  0.0339 -0.0621
  923SOL    HW1 3690   2.255   2.847   1.621 -0.1396  0.3351  1.2317
  923SOL    HW2 3691   2.170   2.964   1.584 -2.2454 -0.7358  0.3203
  923SOL     MW 3692   2.203   2.914   1.647 -0.2343 -0.0279  0.1591
  924SOL     OW 3693   1.094   2.736   2.617 -0.2567  0.2983 -0.4926
  924SOL    HW1 3694   1.184   2.764   2.598 -0.4856 -1.0117 -0.1201
  924SOL    HW2 3695   1.088   2.645   2.645 -0.6542 -0.9396  1.0063
  924SOL     MW 3696   1.105   2.728   2.618 -0.3394 -0.0379 -0.2457
  925SOL     OW 3697   2.996   0.206   2.616 -0.3628 -0.9079 -0.4351
  925SOL    HW1 3698   2.957   0.197   2.530 -1.5952  0.7214 -0.2854
  925SOL    HW2 3699   2.949   0.273   2.671 -0.7177  2.3109  0.9031
  925SOL     MW 3700   2.985   0.214   2.612 -0.5722 -0.2683 -0.2388
  926SOL     OW 3701   2.797   2.403   1.967  0.3514 -0.0343 -0.1811
  926SOL    HW1 3702   2.824   2.459   2.048  0.4167 -0.5087 -1.2741
  926SOL    HW2 3703   2.845   2.448   1.896 -1.3619  1.0622  1.2508
  926SOL     MW 3704   2.807   2.416   1.968  0.1340  0.0478 -0.1364
  927SOL     OW 3705   2.409   0.112   0.304 -0.2295 -0.4855  0.2690
  927SOL    HW1 3706   2.507   0.110   0.306 -0.7420 -2.2092 -0.3619
  927SOL    HW2 3707   2.393   0.104   0.204 -1.1688 -0.6654 -0.2418
  927SOL     MW 3708   2.420   0.111   0.291 -0.4210 -0.7367  0.1184
  928SOL     OW 3709   2.152   2.332   1.820 -0.0849 -0.1875  0.3340
  928SOL    HW1 3710   2.151   2.412   1.763 -2.0174  0.0309  0.8221
  928SOL    HW2 3711   2.238   2.319   1.864  0.1916  2.6892 -1.4910
  928SOL     MW 3712   2.163   2.341   1.818 -0.3034  0.2209  0.1576
  929SOL     OW 3713   2.761   2.348   2.427  0.0654  0.0289 -0.4919
  929SOL    HW1 3714   2.792   2.277   2.361 -1.1947 -0.5449  0.0746
  929SOL    HW2 3715   2.828   2.352   2.499  0.7792  3.5997  3.4307
  929SOL     MW 3716   2.774   2.339   2.428 -0.0067  0.4243  0.1004
  930SOL     OW 3717   2.006   2.816   2.670  0.1562  0.5837 -0.0806
  930SOL    HW1 3718   2.011   2.741   2.728  2.5895 -0.2516  0.9561
  930SOL    HW2 3719   2.096   2.835   2.649  0.7031 -3.3889 -1.7456
  930SOL     MW 3720   2.018   2.809   2.675  0.5494 -0.0507 -0.1635
  931SOL     OW 3721   0.051   2.800   2.435  0.3299 -0.4117  0.1188
  931SOL    HW1 3722   0.036   2.843   2.520  0.7672  3.2136  1.8343
  931SOL    HW2 3723   0.141   2.828   2.411 -1.1776 -1.6733  0.3770
  931SOL     MW 3724   0.061   2.810   2.443  0.1887 -0.0999  0.3792
  932SOL     OW 3725   2.782   1.991   2.501 -0.3772  0.6648 -0.3959
  932SOL    HW1 3726   2.870   2.030   2.500 -0.3642 -1.5214 -2.4939
  932SOL    HW2 3727   2.771   1.973   2.408 -3.1950  0.5472 -0.0981
  932SOL     MW 3728   2.792   1.994   2.488 -0.7473  0.3608 -0.6334
  933SOL     OW 3729   2.096   2.801   2.216  0.0830  0.0369  0.2497
  933SOL    HW1 3730   2.174   2.846   2.229  1.4863 -0.4766  0.3645
  933SOL    HW2 3731   2.031   2.861   2.204  0.4748  0.9763 -1.0190
  933SOL     MW 3732   2.098   2.814   2.216  0.3198  0.0931  0.0975
  934SOL     OW 3733   2.018   2.670   2.435  0.0773  0.0100  0.1630
  934SOL    HW1 3734   1.988   2.731   2.495  0.2120 -2.3286  0.4485
  934SOL    HW2 3735   2.057   2.723   2.355 -0.2740  2.0406  0.2392
  934SOL     MW 3736   2.019   2.685   2.432  0.0487 -0.0306  0.2108
  935SOL     OW 3737   2.637   1.473   1.778 -0.1075 -0.1585 -0.2195
  935SOL    HW1 3738   2.734   1.469   1.762  0.2263 -0.2329 -0.5445
  935SOL    HW2 3739   2.591   1.462   1.690  0.8723 -4.1323  1.4491
  935SOL     MW 3740   2.644   1.471   1.764  0.0659 -0.6926 -0.0422
  936SOL     OW 3741   2.932   2.231   0.038 -0.5234 -0.0360  0.2757
  936SOL    HW1 3742   2.992   2.278   0.089 -3.0676 -1.8665  0.0602
  936SOL    HW2 3743   2.847   2.260   0.063  2.9683 -0.4172  3.3454
  936SOL     MW 3744   2.929   2.241   0.048 -0.3984 -0.3278  0.6523
  937SOL     OW 3745   1.947   2.114   2.648 -0.0182 -0.7246 -0.5347
  937SOL    HW1 3746   2.020   2.104   2.708 -1.5319 -0.4199 -0.2423
  937SOL    HW2 3747   1.975   2.102   2.558 -0.3928 -0.7374  1.6860
  937SOL     MW 3748   1.960   2.111   2.644 -0.2674 -0.6861 -0.2031
  938SOL     OW 3749   2.279   1.755   1.849 -0.3546  0.8811  0.1288
  938SOL    HW1 3750   2.317   1.817   1.782 -0.2686  0.1587  0.0543
  938SOL    HW2 3751   2.291   1.816   1.930 -0.3788 -0.3912  2.4179
  938SOL     MW 3752   2.286   1.771   1.851 -0.3464  0.6179  0.4210
  939SOL     OW 3753   2.755   1.967   2.217  0.0600  0.1654 -0.5958
  939SOL    HW1 3754   2.810   1.925   2.146  0.6092  0.7753 -2.3265
  939SOL    HW2 3755   2.668   1.924   2.193 -0.0703  0.2275 -0.1472
  939SOL     MW 3756   2.751   1.956   2.204  0.1153  0.2541 -0.7650
  940SOL     OW 3757   2.159   0.123   2.768 -0.3006 -0.1977  0.3138
  940SOL    HW1 3758   2.195   0.053   2.706  1.7530 -0.8890 -0.5796
  940SOL    HW2 3759   2.238   0.140   2.818 -0.4719  1.7004  0.4818
  940SOL     MW 3760   2.174   0.116   2.766 -0.0523 -0.0385  0.2181
  941SOL     OW 3761   0.114   2.458   2.043 -0.2979 -0.2023  0.6731
  941SOL    HW1 3762   0.202   2.423   2.037  2.1244  1.9487 -2.0722
  941SOL    HW2 3763   0.090   2.424   1.961  0.1910  0.3779  2.3281
  941SOL     MW 3764   0.122   2.449   2.031  0.0862  0.1581  0.5292
  942SOL     OW 3765   2.835   2.214   2.216 -0.3810  0.1593  0.0106
  942SOL    HW1 3766   2.814   2.232   2.127 -1.3309  0.2771 -0.1695
  942SOL    HW2 3767   2.796   2.120   2.212  0.6337 -2.7431 -0.3354
  942SOL     MW 3768   2.827   2.204   2.204 -0.3724 -0.2081 -0.0588
  943SOL     OW 3769   0.316   2.136   2.298  0.2459 -0.0940 -0.3441
  943SOL    HW1 3770   0.241   2.184   2.340  2.2471 -1.8118 -1.5271
  943SOL    HW2 3771   0.365   2.098   2.370  1.2228 -0.2704 -2.3692
  943SOL     MW 3772   0.313   2.137   2.313  0.6388 -0.3439 -0.7674
  944SOL     OW 3773   2.132   2.636   1.969  0.1897  0.0769  0.1116
  944SOL    HW1 3774   2.177   2.555   1.999  2.1172  0.2636 -0.1434
  944SOL    HW2 3775   2.093   2.661   2.046  1.1614 -0.5833  0.4789
  944SOL     MW 3776   2.133   2.629   1.983  0.5722  0.0144  0.1264
  945SOL     OW 3777   2.778   2.741   2.839 -0.6146 -0.3420  0.0629
  945SOL    HW1 3778   2.751   2.648   2.827 -1.0750 -2.6294  1.4724
  945SOL    HW2 3779   2.791   2.779   2.753  0.4448 -0.1783  3.9828
  945SOL     MW 3780   2.776   2.733   2.826 -0.5355 -0.6222  0.7661
  946SOL     OW 3781   2.476   2.672   2.236  0.3046  0.1942  0.2775
  946SOL    HW1 3782   2.496   2.716   2.154 -0.8280  2.2258 -2.2408
  946SOL    HW2 3783   2.412   2.613   2.206 -1.3732  2.4721  0.9615
  946SOL     MW 3784   2.470   2.670   2.221 -0.0662  0.7628  0.0355
  947SOL     OW 3785   2.050   3.104   0.236  0.4324 -0.1717  0.3844
  947SOL    HW1 3786   2.047   3.020   0.198 -0.4392  3.2057  1.3756
  947SOL    HW2 3787   2.090   3.078   0.324 -1.7188 -1.8325 -0.7935
  947SOL     MW 3788   2.055   3.089   0.243  0.0336  0.0548  0.3598
  948SOL     OW 3789   1.798   3.018   2.612  0.1755  0.5593 -0.3617
  948SOL    HW1 3790   1.845   2.933   2.625  1.0435  2.7795 -0.5288
  948SOL    HW2 3791   1.781   3.019   2.517  0.4100 -0.2385 -0.3344
  948SOL     MW 3792   1.802   3.007   2.601  0.3209  0.7470 -0.3802
  949SOL     OW 3793   2.519   1.862   2.195  0.1894  0.5272  0.0166
  949SOL    HW1 3794   2.501   1.791   2.256  1.0471 -1.5514 -2.0320
  949SOL    HW2 3795   2.489   1.944   2.238 -0.9300 -0.4886 -0.8189
  949SOL     MW 3796   2.512   1.864   2.209  0.1548  0.1190 -0.3639
  950SOL     OW 3797   2.322   2.490   2.993 -0.4536 -1.2940 -0.2544
  950SOL    HW1 3798   2.384   2.444   2.938  1.1325 -1.3817  2.3671
  950SOL    HW2 3799   2.240   2.511   2.954  0.4519 -0.2134  2.3581
  950SOL     MW 3800   2.320   2.487   2.981 -0.1248 -1.1630  0.4362
  951SOL     OW 3801   3.043   2.206   2.881  0.1246  0.3206 -0.3285
  951SOL    HW1 3802   2.991   2.232   2.962 -0.1879  2.6701 -0.2247
  951SOL    HW2 3803   3.030   2.116   2.861 -1.4991  2.4624 -0.4856
  951SOL     MW 3804   3.035   2.198   2.889 -0.1309  0.9132 -0.3356
  952SOL     OW 3805   3.029   1.728   2.143  0.3217  0.4265 -0.0427
  952SOL    HW1 3806   2.987   1.785   2.074 -0.1321  0.1591 -3.2621
  952SOL    HW2 3807   3.098   1.793   2.171  1.4360 -2.8477 -1.1962
  952SOL     MW 3808   3.033   1.744   2.138  0.4088 -0.0408 -0.6197
  953SOL     OW 3809   1.967   1.729   2.919 -0.1008 -0.2466 -0.3603
  953SOL    HW1 3810   1.879   1.696   2.956 -1.4016  2.2429  0.3991
  953SOL    HW2 3811   2.001   1.665   2.852 -1.0789  1.2209 -0.7731
  953SOL     MW 3812   1.960   1.716   2.915 -0.4015  0.2755 -0.3146
  954SOL     OW 3813   2.371   2.141   2.886 -0.0276  0.0540  0.0052
  954SOL    HW1 3814   2.277   2.122   2.870  0.3436 -2.4708  0.0628
  954SOL    HW2 3815   2.415   2.086   2.821 -0.4046 -1.9289 -0.0309
  954SOL     MW 3816   2.365   2.131   2.876 -0.0284 -0.5408  0.0081
  955SOL     OW 3817   1.580   1.516   2.548 -0.1697 -0.3554 -0.1332
  955SOL    HW1 3818   1.553   1.531   2.452 -1.8044  4.3781  2.8202
  955SOL    HW2 3819   1.671   1.544   2.556  1.2384  1.0837 -0.3143
  955SOL     MW 3820   1.588   1.522   2.537 -0.1996  0.4590  0.2326
  956SOL     OW 3821   2.730   2.471   2.845 -0.0495 -0.5500 -0.5024
  956SOL    HW1 3822   2.742   2.445   2.931 -0.8070 -0.0814 -3.6482
  956SOL    HW2 3823   2.793   2.416   2.798  0.0074 -0.5348 -0.1080
  956SOL     MW 3824   2.740   2.460   2.850 -0.1419 -0.4862 -0.8654
  957SOL     OW 3825   2.253   2.819   0.582 -0.5171 -0.0543 -1.3347
  957SOL    HW1 3826   2.206   2.752   0.542  0.4174  1.1180  2.4208
  957SOL    HW2 3827   2.258   2.794   0.680  0.5617 -0.3409  0.3423
  957SOL     MW 3828   2.247   2.807   0.589 -0.2515  0.0626 -0.6179
  958SOL     OW 3829   2.082   2.559   2.893  0.1340 -0.3094 -0.3358
  958SOL    HW1 3830   2.047   2.516   2.811  0.0512  1.8649 -2.6635
  958SOL    HW2 3831   2.019   2.547   2.964 -0.1223 -1.5798 -0.7510
  958SOL     MW 3832   2.069   2.552   2.892  0.0893 -0.1901 -0.6977
  959SOL     OW 3833   2.512   2.803   0.452 -0.1183 -0.3263  0.0081
  959SOL    HW1 3834   2.491   2.868   0.387 -0.4642 -0.4875  0.4733
  959SOL    HW2 3835   2.429   2.796   0.502  0.5798  0.5622 -1.2281
  959SOL     MW 3836   2.498   2.811   0.450 -0.0718 -0.2303 -0.0936
  960SOL     OW 3837   1.921   2.398   2.268  0.0549  0.5032  0.1164
  960SOL    HW1 3838   1.939   2.305   2.250  1.4890  0.0230  0.9990
  960SOL    HW2 3839   1.859   2.395   2.344 -0.5222 -1.0021  1.0692
  960SOL     MW 3840   1.915   2.386   2.276  0.1680  0.2412  0.3586
  961SOL     OW 3841   2.229   2.327   2.316 -0.1615  0.3822 -0.0410
  961SOL    HW1 3842   2.141   2.346   2.281 -0.0286 -0.6714 -2.2279
  961SOL    HW2 3843   2.238   2.370   2.400  0.4648  1.7241 -0.1575
  961SOL     MW 3844   2.218   2.335   2.322 -0.0613  0.4202 -0.3449
  962SOL     OW 3845   2.144   2.023   2.824 -0.9404 -0.1770 -1.1282
  962SOL    HW1 3846   2.131   1.961   2.898  1.6020  2.1043 -0.1165
  962SOL    HW2 3847   2.155   1.968   2.744  0.4030  4.4308  0.8734
  962SOL     MW 3848   2.144   2.008   2.823 -0.4277  0.7319 -0.7306
  963SOL     OW 3849   1.877   2.607   2.079 -0.3515 -0.5002  0.4069
  963SOL    HW1 3850   1.890   2.549   2.156 -1.0116 -1.5728 -1.8172
  963SOL    HW2 3851   1.884   2.551   1.997 -1.9382  0.2882 -2.1106
  963SOL     MW 3852   1.880   2.592   2.078 -0.6479 -0.5377 -0.2187
  964SOL     OW 3853   1.833   1.886   2.736 -0.0955  0.0375 -0.3018
  964SOL    HW1 3854   1.895   1.951   2.697  0.7906 -0.1543  2.6257
  964SOL    HW2 3855   1.890   1.845   2.798  0.9768 -2.6461  1.4605
  964SOL     MW 3856   1.848   1.889   2.739  0.1629 -0.3419  0.3170
  965SOL     OW 3857   2.090   2.596   0.809 -0.1587 -0.2999 -0.1910
  965SOL    HW1 3858   2.155   2.534   0.769  0.8090 -0.5979  1.4088
  965SOL    HW2 3859   2.135   2.659   0.866 -1.6162  0.1241 -2.6008
  965SOL     MW 3860   2.105   2.596   0.811 -0.2233 -0.2833 -0.2979
  966SOL     OW 3861   2.669   2.613   2.415 -0.3571  0.0711  0.0301
  966SOL    HW1 3862   2.610   2.619   2.339  2.5529  0.6896 -0.2397
  966SOL    HW2 3863   2.684   2.519   2.432 -1.4291 -0.9792  1.3271
  966SOL     MW 3864   2.663   2.601   2.408 -0.1146  0.0141  0.1656
  967SOL     OW 3865   2.721   3.083   3.026 -0.2600  0.8638  0.5698
  967SOL    HW1 3866   2.688   3.002   3.066  1.0846  3.1179 -1.2664
  967SOL    HW2 3867   2.680   3.091   2.938 -1.8411 -1.9257 -1.4058
  967SOL     MW 3868   2.711   3.074   3.020 -0.2912  0.7932  0.0669
  968SOL     OW 3869   3.065   2.697   2.900 -0.2933 -0.2296 -0.5507
  968SOL    HW1 3870   2.982   2.740   2.868 -2.3897 -1.0911 -0.4942
  968SOL    HW2 3871   3.119   2.678   2.821 -0.3875  2.4228 -0.0130
  968SOL     MW 3872   3.061   2.700   2.885 -0.5823  0.0067 -0.4723
  969SOL     OW 3873   1.554   2.153   1.693  0.0695 -0.4996 -0.0273
  969SOL    HW1 3874   1.637   2.115   1.717  1.4587 -0.2230 -0.1007
  969SOL    HW2 3875   1.510   2.195   1.774 -1.2278 -0.3904  1.1758
  969SOL     MW 3876   1.559   2.153   1.707  0.0817 -0.4487  0.1218
  970SOL     OW 3877   1.751   1.807   1.902  0.1292 -0.1505 -0.3034
  970SOL    HW1 3878   1.798   1.753   1.966  0.2900 -0.4294  0.3653
  970SOL    HW2 3879   1.661   1.795   1.929  1.3187  0.9040  2.2992
  970SOL     MW 3880   1.746   1.799   1.914  0.3073 -0.0482  0.1282
  971SOL     OW 3881   1.747   0.023   2.351  0.0498 -0.3773  0.3774
  971SOL    HW1 3882   1.814  -0.026   2.291  1.1698  1.8126 -0.6763
  971SOL    HW2 3883   1.785   0.114   2.347  0.8350  1.5615  2.7943
  971SOL     MW 3884   1.761   0.029   2.342  0.3012  0.1674  0.5573
  972SOL     OW 3885   0.303   2.865   2.394 -0.1312 -0.3839 -0.2926
  972SOL    HW1 3886   0.344   2.781   2.421  0.3258  1.2707 -0.8583
  972SOL    HW2 3887   0.332   2.933   2.452  1.3168 -1.0969  0.6314
  972SOL     MW 3888   0.313   2.863   2.405  0.1201 -0.2597 -0.2454
  973SOL     OW 3889   2.587   3.001   2.128  0.2290 -0.1306  0.2147
  973SOL    HW1 3890   2.559   2.911   2.096 -2.4148  1.5802  2.2196
  973SOL    HW2 3891   2.621   3.057   2.066 -0.0454 -1.2411  0.2041
  973SOL     MW 3892   2.588   2.996   2.115 -0.1560 -0.0514  0.4778
  974SOL     OW 3893   1.952   0.152   2.597  0.6223 -0.3412 -0.2832
  974SOL    HW1 3894   2.018   0.144   2.666 -0.4727 -1.4526 -1.8897
  974SOL    HW2 3895   1.917   0.064   2.595  0.8461  0.0599 -1.9787
  974SOL     MW 3896   1.956   0.139   2.606  0.5073 -0.4349 -0.7188
  975SOL     OW 3897   2.206   2.495   2.526 -0.1132  0.2234 -0.0642
  975SOL    HW1 3898   2.291   2.534   2.554 -0.9526 -1.3820  0.5103
  975SOL    HW2 3899   2.158   2.569   2.505  3.4855 -1.0382  1.5263
  975SOL     MW 3900   2.211   2.510   2.527  0.2509 -0.1549  0.2215
  976SOL     OW 3901   0.191   0.373   1.586 -0.1474 -0.0428 -0.2733
  976SOL    HW1 3902   0.252   0.326   1.640 -2.0837 -0.8908 -0.7980
  976SOL    HW2 3903   0.114   0.319   1.574 -1.7725  1.4919  1.7361
  976SOL     MW 3904   0.189   0.359   1.592 -0.6173  0.0478 -0.0774
  977SOL     OW 3905   1.748   2.756   2.391 -0.4500 -0.1910 -0.1760
  977SOL    HW1 3906   1.827   2.705   2.379 -2.8076 -1.5204  3.4681
  977SOL    HW2 3907   1.729   2.817   2.324  1.9936 -1.5256  0.3183
  977SOL     MW 3908   1.756   2.757   2.380 -0.4386 -0.5425  0.3700
   3.10000   3.10000   3.10000
