977 TIP4P/2005f water molecules t=   0.46000 step= 460
 3908
    1SOL     OW    1   0.298   0.785   0.040 -0.1484  0.3576 -0.0094
    1SOL    HW1    2   0.274   0.838  -0.035 -0.0547  0.2634  2.7092
    1SOL    HW2    3   0.243   0.707   0.043  0.4425  1.3310 -0.4379
    1SOL     MW    4   0.288   0.782   0.030 -0.0581  0.4736  0.2928
    2SOL     OW    5   0.292   3.058   1.185 -0.5796  0.1606 -0.1781
    2SOL    HW1    6   0.349   3.123   1.140 -3.6141  2.3972 -1.7069
    2SOL    HW2    7   0.200   3.094   1.192  0.9629  0.9731 -0.4594
    2SOL     MW    8   0.287   3.071   1.180 -0.7764  0.5629 -0.4169
    3SOL     OW    9   2.663   0.391   0.928  0.5028  0.2133  0.0104
    3SOL    HW1   10   2.699   0.463   0.874 -0.5955 -1.5109  2.9132
    3SOL    HW2   11   2.648   0.428   1.021  2.0266 -4.3672 -0.5860
    3SOL     MW   12   2.666   0.405   0.933  0.5590 -0.6185  0.3147
    4SOL     OW   13   3.034   1.748   0.586 -0.5084 -0.0472  0.5883
    4SOL    HW1   14   2.971   1.786   0.519 -1.4287  0.3335 -2.5762
    4SOL    HW2   15   3.091   1.697   0.527  1.3617 -1.3084 -0.6932
    4SOL     MW   16   3.033   1.746   0.569 -0.3831 -0.1634  0.0017
    5SOL     OW   17   1.745   1.490   0.595  0.6670  0.8899  0.1555
    5SOL    HW1   18   1.793   1.424   0.649  0.6242  1.5293  0.3761
    5SOL    HW2   19   1.650   1.476   0.602 -1.3153  2.5141 -2.5211
    5SOL     MW   20   1.739   1.480   0.603  0.3998  1.1886 -0.1686
    6SOL     OW   21   0.861   1.374   0.680 -0.3107 -0.6516  0.2442
    6SOL    HW1   22   0.772   1.383   0.710 -0.1080  4.5933  1.2167
    6SOL    HW2   23   0.892   1.300   0.728 -0.7355  1.3768  1.7477
    6SOL     MW   24   0.853   1.366   0.690 -0.3400  0.3080  0.5709
    7SOL     OW   25   1.980   1.076   0.056 -0.0956  0.2143  0.0171
    7SOL    HW1   26   2.004   1.138  -0.015 -1.3033 -0.5077  0.1495
    7SOL    HW2   27   2.026   1.104   0.140  3.5662 -1.3561  0.7377
    7SOL     MW   28   1.989   1.088   0.058  0.2282 -0.0882  0.1296
    8SOL     OW   29   0.967   1.343   1.009 -0.2067  0.2142  0.0840
    8SOL    HW1   30   0.997   1.258   1.033  1.4816  1.3869 -3.0377
    8SOL    HW2   31   1.012   1.391   1.075  1.3987 -2.3518  4.7395
    8SOL     MW   32   0.977   1.338   1.021  0.2279  0.0304  0.2863
    9SOL     OW   33   1.066   0.467   1.361  0.1858  0.2868  0.4849
    9SOL    HW1   34   0.999   0.408   1.332  1.2469  0.9734 -0.5187
    9SOL    HW2   35   1.112   0.428   1.436  1.3000  1.3842 -1.5277
    9SOL     MW   36   1.063   0.454   1.367  0.4728  0.5222  0.0870
   10SOL     OW   37   0.284   0.780   0.451 -0.4925 -0.8723  0.3514
   10SOL    HW1   38   0.371   0.830   0.429  1.0568  1.8159 -2.2135
   10SOL    HW2   39   0.231   0.821   0.523  0.2833  1.1454  2.2174
   10SOL     MW   40   0.288   0.792   0.458 -0.1857 -0.2514  0.2592
   11SOL     OW   41   0.789   1.083   1.624  0.1996 -0.0175 -0.0196
   11SOL    HW1   42   0.822   1.076   1.713  0.1612 -0.2925 -2.1198
   11SOL    HW2   43   0.747   1.002   1.587 -0.4346  1.8402  2.0795
   11SOL     MW   44   0.788   1.072   1.631  0.1109  0.1913 -0.0197
   12SOL     OW   45   0.032   1.088   0.873  0.3212 -0.1073  0.2101
   12SOL    HW1   46   0.056   1.176   0.884  1.9092 -2.9222 -4.5785
   12SOL    HW2   47  -0.023   1.102   0.798 -1.2848  2.0697  1.2243
   12SOL     MW   48   0.028   1.101   0.865  0.3188 -0.1914 -0.2879
   13SOL     OW   49   1.892   1.396   1.330 -0.2663 -0.2950 -0.3243
   13SOL    HW1   50   1.905   1.360   1.245  2.0769  2.0894  0.6312
   13SOL    HW2   51   1.866   1.491   1.312 -0.6397  2.9844  0.3765
   13SOL     MW   52   1.890   1.404   1.316 -0.0064  0.4523 -0.1058
   14SOL     OW   53   0.601   0.311   1.794 -0.1728 -0.2805  0.0617
   14SOL    HW1   54   0.597   0.235   1.732 -1.6315 -0.6521  1.4167
   14SOL    HW2   55   0.690   0.323   1.828  0.6114  1.7928  0.9639
   14SOL     MW   56   0.612   0.303   1.790 -0.2618 -0.0560  0.3595
   15SOL     OW   57   1.983   0.510   0.956 -0.1968  0.0640 -0.0251
   15SOL    HW1   58   2.006   0.496   1.045 -2.3400 -2.4797  1.1224
   15SOL    HW2   59   2.055   0.466   0.903 -1.4086 -2.1037 -0.0087
   15SOL     MW   60   1.996   0.502   0.961 -0.6395 -0.5576  0.1285
   16SOL     OW   61   0.200   1.752   0.336  0.1233  0.3390  0.0388
   16SOL    HW1   62   0.299   1.738   0.340  0.9491  1.4885 -0.5681
   16SOL    HW2   63   0.180   1.845   0.360  0.6807 -1.8848 -0.2181
   16SOL     MW   64   0.211   1.763   0.340  0.3058  0.1973 -0.0752
   17SOL     OW   65   1.017   0.817   1.510 -0.0165 -0.1971 -0.1631
   17SOL    HW1   66   1.056   0.811   1.598  0.1468 -0.6280 -2.3301
   17SOL    HW2   67   0.923   0.799   1.518 -2.0202  2.3239 -1.4879
   17SOL     MW   68   1.010   0.814   1.522 -0.2594  0.0787 -0.6238
   18SOL     OW   69   0.075   1.549   0.456  0.0962  0.6699 -0.2651
   18SOL    HW1   70   0.127   1.611   0.401  0.5568  1.1133  1.3240
   18SOL    HW2   71   0.057   1.472   0.398  2.1220 -0.9717  2.3365
   18SOL     MW   72   0.079   1.547   0.441  0.4242  0.5118  0.2878
   19SOL     OW   73   0.079   1.340   0.989 -0.1060 -0.6137 -0.3601
   19SOL    HW1   74   0.135   1.371   0.919  1.7218 -3.2713 -0.7488
   19SOL    HW2   75  -0.002   1.393   0.988  1.3047 -1.3559 -0.3539
   19SOL     MW   76   0.075   1.351   0.980  0.3213 -1.0623 -0.4106
   20SOL     OW   77   0.446   2.129   1.315 -0.1956  0.1069 -0.1102
   20SOL    HW1   78   0.389   2.079   1.258  1.1282 -0.9467 -0.2713
   20SOL    HW2   79   0.399   2.175   1.384  0.6698  0.3367 -0.5771
   20SOL     MW   80   0.432   2.128   1.317  0.0932 -0.0018 -0.1931
   21SOL     OW   81   0.522   0.854   0.342  0.2605 -0.4468  0.0781
   21SOL    HW1   82   0.602   0.831   0.384  1.0347  1.4475 -1.3962
   21SOL    HW2   83   0.528   0.816   0.251 -1.6208 -0.4090 -0.3957
   21SOL     MW   84   0.533   0.846   0.335  0.1144 -0.1919 -0.1790
   22SOL     OW   85   1.556   0.568   1.098  0.5670  0.3522 -0.5424
   22SOL    HW1   86   1.615   0.537   1.025 -0.5533  1.1088  3.0920
   22SOL    HW2   87   1.498   0.642   1.067 -1.3598 -0.6234  0.1697
   22SOL     MW   88   1.556   0.573   1.084  0.1650  0.3233  0.0311
   23SOL     OW   89   3.082   0.747   0.708 -0.5618 -0.1737 -0.0726
   23SOL    HW1   90   3.122   0.661   0.708  2.3932  1.5788 -1.5446
   23SOL    HW2   91   3.157   0.802   0.691  0.3392  0.6943 -2.4921
   23SOL     MW   92   3.097   0.743   0.706 -0.0530  0.1721 -0.5860
   24SOL     OW   93   2.010   2.176   0.070  0.5456 -0.6844 -0.2166
   24SOL    HW1   94   1.990   2.163   0.164 -0.6626  1.3042  1.1103
   24SOL    HW2   95   2.098   2.140   0.063 -1.7857 -0.2257 -0.4834
   24SOL     MW   96   2.019   2.169   0.082  0.0786 -0.3615 -0.0767
   25SOL     OW   97   0.321   1.425   0.530  0.6688  0.3781 -0.3601
   25SOL    HW1   98   0.243   1.476   0.503 -1.8775  1.2295 -2.7575
   25SOL    HW2   99   0.371   1.414   0.456  0.9011 -0.6455 -0.2912
   25SOL     MW  100   0.318   1.430   0.516  0.3635  0.3554 -0.6673
   26SOL     OW  101   2.057   0.907   0.472  0.0273  0.0326  0.4288
   26SOL    HW1  102   1.977   0.966   0.489  2.3435 -0.8784  0.4393
   26SOL    HW2  103   2.094   0.949   0.394  1.5508 -1.8566 -0.0717
   26SOL     MW  104   2.051   0.920   0.464  0.5339 -0.3369  0.3641
   27SOL     OW  105   2.027   1.372   0.263  0.4972 -0.2365 -0.1902
   27SOL    HW1  106   1.935   1.369   0.295 -0.2226 -1.6793 -1.7789
   27SOL    HW2  107   2.069   1.452   0.300  0.5524  0.9479 -1.9491
   27SOL     MW  108   2.020   1.382   0.272  0.4095 -0.2706 -0.6319
   28SOL     OW  109   0.376   1.036   1.949 -0.2326 -0.1684  0.7151
   28SOL    HW1  110   0.349   0.949   1.925  0.9957 -0.4903 -1.2792
   28SOL    HW2  111   0.355   1.015   2.040 -3.3872  2.0807 -1.3211
   28SOL     MW  112   0.369   1.022   1.957 -0.4867  0.0859  0.1833
   29SOL     OW  113   0.268   1.419   0.794  0.2625 -0.2489  0.7351
   29SOL    HW1  114   0.265   1.514   0.815  0.3951 -0.7372  0.5715
   29SOL    HW2  115   0.319   1.423   0.709  0.0715  0.9333  0.6022
   29SOL     MW  116   0.275   1.432   0.786  0.2548 -0.1573  0.6960
   30SOL     OW  117   0.870   1.059   1.219  0.0447  0.8313 -0.1422
   30SOL    HW1  118   0.778   1.074   1.258 -1.7961  2.9696  0.4198
   30SOL    HW2  119   0.933   1.069   1.293  1.2513 -0.9446  1.0973
   30SOL     MW  120   0.867   1.062   1.234 -0.0389  0.8791  0.0955
   31SOL     OW  121   0.404   0.274   0.228 -0.1804 -1.0462 -0.9209
   31SOL    HW1  122   0.398   0.197   0.294  0.2322  1.2564  1.7215
   31SOL    HW2  123   0.407   0.232   0.143  1.2625 -0.1400  1.9011
   31SOL     MW  124   0.403   0.258   0.225  0.0644 -0.6228 -0.1999
   32SOL     OW  125   2.754   1.055   1.123  0.1247  0.1098 -0.0288
   32SOL    HW1  126   2.698   0.974   1.122  1.0797 -0.9889 -0.8503
   32SOL    HW2  127   2.842   1.028   1.097 -0.3309  0.0499  0.3920
   32SOL     MW  128   2.758   1.041   1.120  0.1906 -0.0431 -0.0816
   33SOL     OW  129   1.751   1.343   0.367  0.3464  1.0428 -0.0192
   33SOL    HW1  130   1.779   1.255   0.395  0.4016  0.6398 -1.6030
   33SOL    HW2  131   1.763   1.402   0.438 -1.2599 -0.0617 -1.2597
   33SOL     MW  132   1.756   1.340   0.380  0.1417  0.8439 -0.3919
   34SOL     OW  133   1.200   1.883   1.085  0.2715  0.2518  0.3503
   34SOL    HW1  134   1.120   1.930   1.098 -0.6516  1.0942  1.3269
   34SOL    HW2  135   1.251   1.899   1.172 -0.0614 -0.6956 -1.4465
   34SOL     MW  136   1.196   1.891   1.098  0.1058  0.2379  0.2421
   35SOL     OW  137   0.309   0.116   1.814  0.0856  0.2920  0.1820
   35SOL    HW1  138   0.380   0.136   1.879 -1.1249  0.2490 -0.0089
   35SOL    HW2  139   0.341   0.034   1.766 -0.6336 -0.8102 -0.4464
   35SOL     MW  140   0.323   0.108   1.816 -0.1690  0.1409  0.0739
   36SOL     OW  141   1.884   1.961   0.523 -0.4355  0.0879  0.1269
   36SOL    HW1  142   1.875   1.938   0.426 -1.8360  0.8001 -3.2779
   36SOL    HW2  143   1.906   1.873   0.565 -2.4147 -3.9152  2.2332
   36SOL     MW  144   1.886   1.946   0.516 -0.8814 -0.3463 -0.0444
   37SOL     OW  145   1.748   2.069   0.994  0.0048 -0.2541  0.1095
   37SOL    HW1  146   1.701   2.010   0.939 -0.3545  2.2283 -2.0923
   37SOL    HW2  147   1.703   2.086   1.086 -0.0003  1.9243  2.2234
   37SOL     MW  148   1.736   2.063   0.999 -0.0433  0.3608  0.0979
   38SOL     OW  149   2.824   0.925   0.175  0.0969 -0.1773 -0.2104
   38SOL    HW1  150   2.870   0.923   0.258  0.3823 -1.0943  2.4683
   38SOL    HW2  151   2.874   0.876   0.113 -0.3122  1.3862 -2.5546
   38SOL     MW  152   2.836   0.919   0.178  0.0806 -0.0920 -0.1662
   39SOL     OW  153   1.443   0.633   0.800 -0.4054 -0.2801 -0.1746
   39SOL    HW1  154   1.413   0.544   0.817  0.7387 -0.8432 -1.1613
   39SOL    HW2  155   1.365   0.687   0.812  0.8141 -1.1320  2.0524
   39SOL     MW  156   1.429   0.628   0.804 -0.0936 -0.4668 -0.0110
   40SOL     OW  157   1.259   1.882   0.252 -0.4968  0.1141  0.0771
   40SOL    HW1  158   1.329   1.819   0.274  0.7513 -0.5984  0.5218
   40SOL    HW2  159   1.258   1.943   0.325  0.1794 -0.1153  1.2589
   40SOL     MW  160   1.268   1.881   0.264 -0.2429 -0.0102  0.2917
   41SOL     OW  161   0.599   0.477   1.579 -0.0338 -0.1082 -0.4340
   41SOL    HW1  162   0.685   0.511   1.562  1.2462 -1.6771  0.2699
   41SOL    HW2  163   0.607   0.418   1.652 -0.7312  0.4227 -3.3307
   41SOL     MW  164   0.612   0.474   1.586  0.0430 -0.2452 -0.7233
   42SOL     OW  165   1.306   3.015   1.997 -0.0624  0.2622 -0.1458
   42SOL    HW1  166   1.213   3.025   2.023  0.7625 -0.6096 -1.5197
   42SOL    HW2  167   1.337   2.927   2.001 -1.4875  0.5261 -0.9039
   42SOL     MW  168   1.298   3.004   2.001 -0.1416  0.1820 -0.4271
   43SOL     OW  169   1.558   0.187   1.697 -0.5602 -0.1144  0.4137
   43SOL    HW1  170   1.607   0.140   1.631 -0.5125 -1.5881  0.1651
   43SOL    HW2  171   1.473   0.136   1.725 -5.1780 -0.8273  1.5205
   43SOL     MW  172   1.554   0.174   1.692 -1.1632 -0.4029  0.5269
   44SOL     OW  173   1.299   0.730   1.083 -0.3068  0.0458  0.4324
   44SOL    HW1  174   1.263   0.811   1.048 -0.6374  0.5311 -3.7121
   44SOL    HW2  175   1.274   0.737   1.176 -3.1998  1.9793 -0.3071
   44SOL     MW  176   1.291   0.742   1.091 -0.7321  0.3649 -0.2120
   45SOL     OW  177   1.187   0.710   0.776 -0.4371 -0.1058 -0.1392
   45SOL    HW1  178   1.114   0.723   0.844 -0.7761  1.4747  1.1673
   45SOL    HW2  179   1.155   0.638   0.713  0.2465  1.0403  1.7751
   45SOL     MW  180   1.173   0.703   0.776 -0.3917  0.2539  0.2858
   46SOL     OW  181   0.562   1.162   0.521  0.2667 -0.3174 -0.1951
   46SOL    HW1  182   0.548   1.158   0.422  1.7600  2.6903 -3.2411
   46SOL    HW2  183   0.649   1.115   0.531 -0.2285 -0.1950 -1.2400
   46SOL     MW  184   0.571   1.155   0.509  0.3984  0.0956 -0.7349
   47SOL     OW  185   0.182   1.917   1.821  0.5017 -0.2560  0.0934
   47SOL    HW1  186   0.227   1.836   1.781 -1.7324 -0.7887 -2.5444
   47SOL    HW2  187   0.151   1.894   1.911 -0.8560 -0.2840  0.2752
   47SOL     MW  188   0.184   1.904   1.828  0.0278 -0.3300 -0.2306
   48SOL     OW  189   1.029   0.616   1.024 -0.0950 -0.1851  0.0081
   48SOL    HW1  190   0.981   0.660   1.093 -0.7630  0.4770 -0.0466
   48SOL    HW2  191   1.123   0.645   1.025 -2.5635 -2.3049 -1.1105
   48SOL     MW  192   1.035   0.626   1.033 -0.5089 -0.3774 -0.1467
   49SOL     OW  193   1.804   0.780   1.579  0.1806  0.0870 -0.4774
   49SOL    HW1  194   1.766   0.746   1.657 -0.4544 -1.3110  0.1657
   49SOL    HW2  195   1.842   0.697   1.550 -1.5291 -3.8702  0.4649
   49SOL     MW  196   1.804   0.765   1.586 -0.1288 -0.6196 -0.2682
   50SOL     OW  197   1.195   1.032   0.498 -0.6624  0.4862  0.7653
   50SOL    HW1  198   1.220   1.059   0.585  1.3505  0.7245 -2.0934
   50SOL    HW2  199   1.241   0.943   0.502 -1.7389 -2.9722  0.8508
   50SOL     MW  200   1.205   1.024   0.510 -0.5388  0.0613  0.3994
   51SOL     OW  201   0.328   2.875   0.970  0.1348  0.2958 -0.4933
   51SOL    HW1  202   0.424   2.852   0.975  0.6667 -0.9351  0.4032
   51SOL    HW2  203   0.317   2.933   1.049 -1.6793 -0.3486 -0.8705
   51SOL     MW  204   0.339   2.879   0.981 -0.0344  0.0483 -0.4248
   52SOL     OW  205   0.790   1.764   0.385  0.0823  0.3009 -0.1700
   52SOL    HW1  206   0.786   1.853   0.413 -2.7301 -2.0918  1.1072
   52SOL    HW2  207   0.738   1.756   0.309 -0.6901  1.0629  0.0622
   52SOL     MW  208   0.783   1.775   0.379 -0.3906  0.0857  0.0292
   53SOL     OW  209   0.500   2.081   0.571  0.0524  0.4905  0.5907
   53SOL    HW1  210   0.403   2.054   0.533 -0.3723  2.5418  0.2026
   53SOL    HW2  211   0.518   2.171   0.582 -1.5610 -1.9021  0.1906
   53SOL     MW  212   0.489   2.089   0.567 -0.2165  0.4455  0.4867
   54SOL     OW  213   2.167   0.808   0.848 -0.2547 -0.0647 -0.4671
   54SOL    HW1  214   2.176   0.790   0.753  0.0263 -1.3546 -0.6969
   54SOL    HW2  215   2.074   0.804   0.861  0.3101  1.0509  2.6054
   54SOL     MW  216   2.156   0.805   0.837 -0.1431 -0.0877 -0.0921
   55SOL     OW  217   0.558   1.491   1.570 -0.6742  0.1539  0.3363
   55SOL    HW1  218   0.509   1.540   1.502 -1.1169 -0.9855 -2.2726
   55SOL    HW2  219   0.635   1.454   1.529 -0.6384 -1.2178 -1.0657
   55SOL     MW  220   0.562   1.493   1.555 -0.7279 -0.1774 -0.1929
   56SOL     OW  221   0.546   0.793   0.087 -0.3605  0.1788  0.0183
   56SOL    HW1  222   0.555   0.880   0.044  0.0070  0.2092  0.7564
   56SOL    HW2  223   0.458   0.773   0.061 -1.0199 -0.0327 -0.0817
   56SOL     MW  224   0.536   0.802   0.078 -0.3990  0.1549  0.1025
   57SOL     OW  225   1.271   1.226   1.229 -0.3152 -0.2793 -0.0812
   57SOL    HW1  226   1.355   1.246   1.181 -0.3433  1.9297  2.3807
   57SOL    HW2  227   1.300   1.191   1.313 -0.0523  2.5870 -2.4999
   57SOL     MW  228   1.286   1.224   1.234 -0.2842  0.3903 -0.0755
   58SOL     OW  229   0.628   1.110   1.308 -0.5443  0.0434 -0.4298
   58SOL    HW1  230   0.613   1.200   1.286 -1.1085  0.8436  0.6021
   58SOL    HW2  231   0.603   1.113   1.401 -2.1998  0.4738 -2.4585
   58SOL     MW  232   0.623   1.123   1.317 -0.8372  0.2058 -0.5613
   59SOL     OW  233   1.597   1.626   0.349 -0.0691 -0.2899  0.5302
   59SOL    HW1  234   1.643   1.587   0.418 -0.7875  0.7349  2.1035
   59SOL    HW2  235   1.510   1.647   0.386  0.3190  1.7550  2.4615
   59SOL     MW  236   1.592   1.623   0.363 -0.1127  0.1151  0.9926
   60SOL     OW  237   3.102   0.225   1.681  0.8388 -0.2335  0.1748
   60SOL    HW1  238   3.008   0.232   1.663  1.0371  0.0999  2.0599
   60SOL    HW2  239   3.112   0.164   1.749  1.1927  0.7984 -0.2384
   60SOL     MW  240   3.091   0.217   1.687  0.9116 -0.0534  0.3690
   61SOL     OW  241   2.033   1.439   3.086  0.6158 -0.2464  0.5902
   61SOL    HW1  242   2.016   1.424   3.183  0.3245  0.1389  1.7152
   61SOL    HW2  243   2.092   1.370   3.058 -0.5815  0.1368 -1.0086
   61SOL     MW  244   2.038   1.428   3.095  0.4194 -0.1450  0.5277
   62SOL     OW  245   0.655   1.663   0.617  0.7857  0.1887  0.2076
   62SOL    HW1  246   0.738   1.655   0.558 -2.1680 -0.2599  0.4617
   62SOL    HW2  247   0.637   1.571   0.639 -1.4124 -1.2434  0.1409
   62SOL     MW  248   0.664   1.650   0.612  0.1060 -0.0594  0.2323
   63SOL     OW  249   1.672   0.749   0.700 -0.4545 -0.0831  0.3590
   63SOL    HW1  250   1.650   0.802   0.620  0.6866 -0.2091  0.1009
   63SOL    HW2  251   1.595   0.703   0.734 -1.1522 -1.0912  1.1383
   63SOL     MW  252   1.659   0.750   0.694 -0.3960 -0.2328  0.4278
   64SOL     OW  253   0.263   1.682   0.798  0.0266  0.4040 -1.1098
   64SOL    HW1  254   0.317   1.741   0.742  0.1725 -0.7393  1.1719
   64SOL    HW2  255   0.175   1.727   0.812 -2.2893  0.4811 -2.0775
   64SOL     MW  256   0.259   1.696   0.792 -0.2597  0.2633 -0.9365
   65SOL     OW  257   1.570   2.315   0.342  0.0823  0.0046  0.6980
   65SOL    HW1  258   1.655   2.272   0.344 -0.0941  0.9201 -0.4203
   65SOL    HW2  259   1.576   2.355   0.426 -3.0194 -2.3392 -1.9607
   65SOL     MW  260   1.582   2.315   0.353 -0.3502 -0.1838  0.1997
   66SOL     OW  261   0.349   0.520   0.503 -0.0464  0.0971 -0.0622
   66SOL    HW1  262   0.422   0.503   0.443 -2.6330 -2.0055  1.2997
   66SOL    HW2  263   0.340   0.620   0.493  1.2568  1.6757  0.6505
   66SOL     MW  264   0.358   0.531   0.493 -0.2158  0.0280  0.2115
   67SOL     OW  265   1.486   0.103   2.033 -1.0952 -0.1734  0.0402
   67SOL    HW1  266   1.535   0.101   1.951  0.3850 -1.1469 -0.6283
   67SOL    HW2  267   1.432   0.028   2.033 -0.3259 -0.3741 -0.6348
   67SOL     MW  268   1.485   0.093   2.022 -0.7984 -0.3283 -0.1371
   68SOL     OW  269   0.631   0.070   2.955  0.0624  0.1517  0.2897
   68SOL    HW1  270   0.650   0.109   2.866  0.3548  0.8052 -1.0061
   68SOL    HW2  271   0.629   0.149   3.016  1.8784 -0.0336  1.3417
   68SOL     MW  272   0.634   0.085   2.951  0.3406  0.2135  0.2575
   69SOL     OW  273   1.031   0.228   1.957 -0.7153 -0.6103 -0.1437
   69SOL    HW1  274   1.124   0.251   1.978 -0.3597 -1.4600  0.3651
   69SOL    HW2  275   1.013   0.150   2.007 -1.9537  2.3054 -2.0974
   69SOL     MW  276   1.041   0.220   1.967 -0.8318 -0.3377 -0.3344
   70SOL     OW  277   0.576   1.794   1.120 -0.1122 -0.6189 -0.0500
   70SOL    HW1  278   0.619   1.711   1.157 -2.1585 -1.3272  0.7424
   70SOL    HW2  279   0.621   1.820   1.040  1.4281 -0.0421  5.0399
   70SOL     MW  280   0.588   1.786   1.114 -0.1789 -0.6363  0.7261
   71SOL     OW  281   1.735   0.632   1.311 -0.6011 -0.3352  0.5742
   71SOL    HW1  282   1.673   0.679   1.362 -1.0471  0.6115 -0.6313
   71SOL    HW2  283   1.687   0.591   1.233  0.9750 -0.5571 -0.6355
   71SOL     MW  284   1.720   0.632   1.308 -0.4520 -0.2396  0.2556
   72SOL     OW  285   0.828   1.766   0.956  0.2392 -0.3664 -0.2890
   72SOL    HW1  286   0.819   1.831   0.874 -1.2916 -0.9504 -1.5199
   72SOL    HW2  287   0.779   1.683   0.940  0.9741  0.0708 -0.0333
   72SOL     MW  288   0.821   1.764   0.943  0.1342 -0.3858 -0.4177
   73SOL     OW  289   1.215   0.717   1.348 -0.4857  0.1800 -0.1967
   73SOL    HW1  290   1.176   0.630   1.347  0.7750 -0.1770 -1.0491
   73SOL    HW2  291   1.149   0.762   1.402 -0.8204 -0.2011  0.3774
   73SOL     MW  292   1.202   0.711   1.355 -0.3635  0.0826 -0.2335
   74SOL     OW  293   2.873   0.175   1.013  0.2098  0.4833 -0.1498
   74SOL    HW1  294   2.899   0.128   0.934  1.1995 -3.6441  0.3877
   74SOL    HW2  295   2.800   0.232   0.987  1.5399  0.7432  0.5473
   74SOL     MW  296   2.867   0.176   0.999  0.5158 -0.0270  0.0131
   75SOL     OW  297   1.595   1.340   0.125 -0.0352 -0.1767  0.2278
   75SOL    HW1  298   1.647   1.337   0.206  2.1539 -1.4042 -4.0489
   75SOL    HW2  299   1.633   1.265   0.077  1.1423  1.3529  0.3399
   75SOL     MW  300   1.607   1.330   0.130  0.4090 -0.1368 -0.3217
   76SOL     OW  301   2.983   0.650   0.477  0.7995 -0.1626 -0.3655
   76SOL    HW1  302   3.018   0.686   0.557 -1.8236  0.8726 -1.3744
   76SOL    HW2  303   3.020   0.560   0.477  0.3538 -1.1506 -0.6503
   76SOL     MW  304   2.993   0.643   0.488  0.3946 -0.1564 -0.5362
   77SOL     OW  305   0.837   0.471   0.450 -0.7536  0.2911 -0.1168
   77SOL    HW1  306   0.765   0.481   0.385 -0.8196  1.8489 -0.0256
   77SOL    HW2  307   0.806   0.390   0.492  1.2194  0.4127 -2.7059
   77SOL     MW  308   0.823   0.462   0.447 -0.5020  0.5127 -0.4463
   78SOL     OW  309   0.749   0.804   1.215 -0.4590 -0.3191  0.4624
   78SOL    HW1  310   0.654   0.790   1.195 -1.4295  0.8684 -0.8960
   78SOL    HW2  311   0.769   0.887   1.171 -1.1935 -1.3495  0.5435
   78SOL     MW  312   0.739   0.813   1.206 -0.6840 -0.2984  0.2939
   79SOL     OW  313   1.929   1.707   0.604 -0.3831 -0.3115  0.2202
   79SOL    HW1  314   1.851   1.664   0.570 -1.9731 -2.7943 -1.5864
   79SOL    HW2  315   1.927   1.689   0.700  0.9252 -1.2081 -1.2121
   79SOL     MW  316   1.919   1.699   0.613 -0.4203 -0.7573 -0.2072
   80SOL     OW  317   0.156   1.021   0.347 -0.3100  0.4370 -0.6556
   80SOL    HW1  318   0.063   0.988   0.360 -0.2743  0.2874  1.5876
   80SOL    HW2  319   0.205   0.944   0.367  0.2622 -0.5448  0.2934
   80SOL     MW  320   0.150   1.006   0.352 -0.2298  0.2877 -0.2345
   81SOL     OW  321   1.897   1.913   0.231  0.1006  0.1639 -0.8800
   81SOL    HW1  322   1.855   1.843   0.183 -0.2280  1.8355 -3.9568
   81SOL    HW2  323   1.833   1.989   0.215 -0.2322 -0.3482  0.8058
   81SOL     MW  324   1.883   1.914   0.223  0.0133  0.3169 -1.0635
   82SOL     OW  325   0.808   1.046   0.508 -0.5449  0.2314  0.0833
   82SOL    HW1  326   0.831   1.091   0.429  2.4480  2.6427 -0.2012
   82SOL    HW2  327   0.825   0.960   0.487 -2.0299 -0.9259  2.2799
   82SOL     MW  328   0.813   1.041   0.495 -0.3459  0.3969  0.3355
   83SOL     OW  329   0.176   0.624   1.328  0.3695 -0.3110 -0.5445
   83SOL    HW1  330   0.128   0.706   1.344  4.8451 -1.1947  1.5423
   83SOL    HW2  331   0.237   0.601   1.401  0.6774 -2.8233  1.3130
   83SOL     MW  332   0.178   0.632   1.340  1.0006 -0.7591 -0.0241
   84SOL     OW  333   0.076   0.236   0.920  0.0841 -0.5075 -0.7632
   84SOL    HW1  334  -0.013   0.278   0.906 -1.1714  1.6643  0.0628
   84SOL    HW2  335   0.069   0.199   1.009 -0.8809  2.3064  0.8651
   84SOL     MW  336   0.063   0.237   0.930 -0.2089  0.1503 -0.4393
   85SOL     OW  337   0.435   0.438   0.755  0.0175  0.2517 -0.4216
   85SOL    HW1  338   0.459   0.494   0.677  2.8172  1.5619 -1.6930
   85SOL    HW2  339   0.376   0.365   0.732 -1.9145 -2.2684  1.4014
   85SOL     MW  340   0.430   0.436   0.742  0.1320  0.0921 -0.3489
   86SOL     OW  341   1.226   0.413   1.082  0.4638 -0.3057 -0.5663
   86SOL    HW1  342   1.154   0.434   1.022 -0.8638  0.2028 -0.9481
   86SOL    HW2  343   1.204   0.451   1.164  0.5328  0.8866 -2.4217
   86SOL     MW  344   1.213   0.421   1.085  0.2977 -0.0813 -0.8614
   87SOL     OW  345   1.194   1.500   1.210 -0.1631 -0.4357 -0.0881
   87SOL    HW1  346   1.221   1.528   1.123 -0.5549  0.8666  2.2351
   87SOL    HW2  347   1.215   1.407   1.215  0.1602  2.4387 -1.4204
   87SOL     MW  348   1.200   1.491   1.199 -0.1722  0.1154  0.0427
   88SOL     OW  349   1.261   1.012   1.029 -0.2462 -0.0133  0.5973
   88SOL    HW1  350   1.359   1.022   1.020 -0.7255 -0.2856  2.0808
   88SOL    HW2  351   1.245   1.039   1.119 -0.2961  0.2077  1.6445
   88SOL     MW  352   1.271   1.017   1.040 -0.3160 -0.0200  0.9312
   89SOL     OW  353   1.772   0.664   0.334  0.0276  0.2138  0.0875
   89SOL    HW1  354   1.815   0.584   0.362  2.0005 -2.1779 -2.4359
   89SOL    HW2  355   1.848   0.712   0.291  0.4630  1.1218  1.8325
   89SOL     MW  356   1.787   0.660   0.332  0.3453  0.0181 -0.0152
   90SOL     OW  357   0.704   1.191   2.785 -0.0864  0.1806  0.4357
   90SOL    HW1  358   0.757   1.132   2.844 -0.5111 -2.1649 -1.4556
   90SOL    HW2  359   0.699   1.272   2.842 -0.9920 -1.2322 -2.2956
   90SOL     MW  360   0.711   1.194   2.800 -0.2620 -0.3153 -0.1742
   91SOL     OW  361   2.180   0.694   0.588  0.7460  0.4703  0.0367
   91SOL    HW1  362   2.120   0.752   0.545  1.4249 -1.9486  0.1275
   91SOL    HW2  363   2.168   0.612   0.545  2.2064  1.3895 -1.0063
   91SOL     MW  364   2.170   0.691   0.577  1.0283  0.2725 -0.0889
   92SOL     OW  365   1.624   0.869   0.454  1.0879 -0.2495 -0.2288
   92SOL    HW1  366   1.526   0.847   0.451 -0.2038  0.2892 -0.5669
   92SOL    HW2  367   1.663   0.794   0.406 -0.1685  1.0172  0.1669
   92SOL     MW  368   1.616   0.856   0.447  0.7517 -0.0113 -0.2212
   93SOL     OW  369   1.052   0.314   0.342 -0.2232 -0.0174  0.2550
   93SOL    HW1  370   0.988   0.384   0.342 -0.0227  1.0328  0.4842
   93SOL    HW2  371   1.104   0.321   0.260  1.2926 -1.3678 -1.3056
   93SOL     MW  372   1.051   0.324   0.331  0.0032 -0.0570  0.0793
   94SOL     OW  373   1.925   1.355   1.598  0.0892  0.0597 -0.8417
   94SOL    HW1  374   1.963   1.340   1.510  0.5865  1.0935 -0.0414
   94SOL    HW2  375   1.922   1.262   1.641  0.8357 -1.1414  1.6929
   94SOL     MW  376   1.929   1.340   1.592  0.2533  0.0376 -0.4017
   95SOL     OW  377   0.739   1.505   0.929 -0.7416  0.3845  0.1084
   95SOL    HW1  378   0.816   1.446   0.950 -0.0164 -1.8287 -1.6560
   95SOL    HW2  379   0.684   1.514   1.002 -0.2538 -1.8329  0.0845
   95SOL     MW  380   0.742   1.499   0.942 -0.5815 -0.2001 -0.1275
   96SOL     OW  381   1.221   1.800   1.583 -0.6059 -0.4376  0.5341
   96SOL    HW1  382   1.131   1.790   1.583  2.9848  3.0483 -0.3032
   96SOL    HW2  383   1.262   1.733   1.533 -1.6684  1.7610 -2.2105
   96SOL     MW  384   1.214   1.790   1.577 -0.2723  0.3124  0.0615
   97SOL     OW  385   1.202   1.416   0.778 -0.1436  0.4251 -0.3251
   97SOL    HW1  386   1.219   1.493   0.834 -0.1590  1.4741  1.1887
   97SOL    HW2  387   1.108   1.418   0.748 -1.5906 -1.4833  0.0100
   97SOL     MW  388   1.192   1.426   0.781 -0.3365  0.3117 -0.0811
   98SOL     OW  389   1.490   1.304   1.077 -0.0172 -0.3842 -0.5442
   98SOL    HW1  390   1.501   1.369   1.146  1.9804 -1.9701 -0.9964
   98SOL    HW2  391   1.523   1.348   1.000  2.9170 -0.3821  1.1191
   98SOL     MW  392   1.496   1.318   1.076  0.6335 -0.5932 -0.3844
   99SOL     OW  393   1.495   0.373   1.292 -0.7675 -0.4836  0.2720
   99SOL    HW1  394   1.495   0.453   1.242  0.2872  1.7205  1.9419
   99SOL    HW2  395   1.498   0.386   1.386  2.3166  0.1307  0.5344
   99SOL     MW  396   1.496   0.386   1.298 -0.2214 -0.1117  0.5270
  100SOL     OW  397   1.011   1.085   1.442 -0.4766  0.3461  0.6883
  100SOL    HW1  398   0.930   1.082   1.500  0.6832 -0.9489  2.8791
  100SOL    HW2  399   1.053   0.999   1.447 -0.5216  1.8192 -0.7071
  100SOL     MW  400   1.006   1.073   1.451 -0.3296  0.3696  0.7933
  101SOL     OW  401   0.579   1.110   0.257 -0.1514 -0.5506  0.0837
  101SOL    HW1  402   0.557   1.017   0.281 -1.0160  0.4625 -0.0771
  101SOL    HW2  403   0.561   1.114   0.166  0.3431 -1.1458  1.8647
  101SOL     MW  404   0.574   1.098   0.248 -0.2003 -0.4954  0.2975
  102SOL     OW  405   2.939   0.628   0.994  0.4305  0.8908 -0.4391
  102SOL    HW1  406   3.000   0.694   0.963 -2.4431 -1.8779 -0.9450
  102SOL    HW2  407   2.985   0.575   1.059 -3.1263 -0.4063 -1.2572
  102SOL     MW  408   2.953   0.630   0.999 -0.4179  0.3543 -0.6138
  103SOL     OW  409   1.663   0.383   1.864 -0.0948 -0.5491 -0.6300
  103SOL    HW1  410   1.633   0.312   1.813  0.3497  0.0424  4.5767
  103SOL    HW2  411   1.745   0.355   1.904 -2.4537 -2.7044  0.3189
  103SOL     MW  412   1.670   0.370   1.863 -0.3474 -0.7555  0.1822
  104SOL     OW  413   0.163   1.841   1.426 -0.3595 -0.1943  0.2071
  104SOL    HW1  414   0.238   1.776   1.432  0.3708  2.9449  3.1474
  104SOL    HW2  415   0.097   1.802   1.375 -1.8199  0.2955  1.4179
  104SOL     MW  416   0.164   1.827   1.420 -0.4559  0.2845  0.7548
  105SOL     OW  417   0.129   1.216   0.540 -0.3588  0.1977 -0.7921
  105SOL    HW1  418   0.153   1.123   0.519 -2.0628 -3.0092  0.2463
  105SOL    HW2  419   0.206   1.277   0.556 -2.1251  1.1479 -0.2488
  105SOL     MW  420   0.142   1.212   0.540 -0.8167 -0.1001 -0.5834
  106SOL     OW  421   0.842   0.307   0.951  0.4419 -0.2026  0.2537
  106SOL    HW1  422   0.817   0.398   0.935  0.4599 -0.9165  3.2883
  106SOL    HW2  423   0.922   0.293   0.898  0.0049  0.0976  1.3087
  106SOL     MW  424   0.849   0.317   0.942  0.3866 -0.2572  0.7933
  107SOL     OW  425   0.839   2.172   2.970 -0.6472 -0.8294 -0.3117
  107SOL    HW1  426   0.764   2.114   2.954 -1.0258  1.8935 -3.0288
  107SOL    HW2  427   0.862   2.175   3.064  2.3950  1.6032 -0.3927
  107SOL     MW  428   0.832   2.165   2.980 -0.2958 -0.1492 -0.6809
  108SOL     OW  429   1.356   1.631   1.429 -0.6137 -0.1297  0.2752
  108SOL    HW1  430   1.304   1.605   1.352 -2.1555 -1.4391  0.8857
  108SOL    HW2  431   1.334   1.546   1.479 -0.5543 -1.7504 -1.4036
  108SOL     MW  432   1.346   1.616   1.425 -0.8093 -0.5163  0.1342
  109SOL     OW  433   1.954   0.765   0.183  0.5638  0.2915 -0.2852
  109SOL    HW1  434   1.964   0.800   0.100  2.6756  0.7794 -1.2804
  109SOL    HW2  435   2.034   0.790   0.228  0.6879  0.8501 -0.4722
  109SOL     MW  436   1.966   0.773   0.178  0.8588  0.4296 -0.4412
  110SOL     OW  437   0.482   1.853   0.722  0.2470  1.4550  0.4620
  110SOL    HW1  438   0.551   1.802   0.679  2.6214 -0.6555 -2.1583
  110SOL    HW2  439   0.499   1.941   0.695 -1.6802  1.6101  1.2276
  110SOL     MW  440   0.493   1.858   0.713  0.3060  1.1970  0.2173
  111SOL     OW  441   0.714   0.843   1.491 -0.0113  0.4713 -0.3689
  111SOL    HW1  442   0.717   0.843   1.397 -0.3127  1.0282 -0.9972
  111SOL    HW2  443   0.632   0.801   1.512  0.5477  1.8662  1.2668
  111SOL     MW  444   0.704   0.837   1.482  0.0227  0.7288 -0.2360
  112SOL     OW  445   1.326   1.102   1.721 -0.3854  0.5721 -0.7188
  112SOL    HW1  446   1.270   1.174   1.743 -2.4411 -1.0650  1.1347
  112SOL    HW2  447   1.281   1.023   1.733  0.9034 -1.1197 -0.3590
  112SOL     MW  448   1.313   1.101   1.725 -0.4866  0.1329 -0.4267
  113SOL     OW  449   1.347   3.100   1.732 -0.5076 -0.0617  0.3295
  113SOL    HW1  450   1.338   3.047   1.814  1.6066 -1.4759 -1.2318
  113SOL    HW2  451   1.314   3.041   1.661 -1.6407 -1.7159  0.4349
  113SOL     MW  452   1.341   3.085   1.734 -0.3782 -0.4666  0.1374
  114SOL     OW  453   0.494   2.811   1.896 -0.3572 -0.0183  0.5457
  114SOL    HW1  454   0.472   2.870   1.966  0.1529 -2.1067  0.5168
  114SOL    HW2  455   0.464   2.858   1.815 -3.3858  2.1642  0.3107
  114SOL     MW  456   0.487   2.825   1.895 -0.6895 -0.0059  0.5109
  115SOL     OW  457   0.473   0.839   1.126  0.1960  0.2885  0.0361
  115SOL    HW1  458   0.492   0.745   1.137  3.6642 -2.3715 -0.8042
  115SOL    HW2  459   0.436   0.874   1.205  0.3178 -0.1242 -1.5815
  115SOL     MW  460   0.470   0.831   1.138  0.6697 -0.1169 -0.2882
  116SOL     OW  461   0.778   1.065   0.956 -0.1150 -0.2023  0.9724
  116SOL    HW1  462   0.844   1.090   0.892  0.3142 -0.0276 -1.4801
  116SOL    HW2  463   0.830   1.068   1.040  2.6008 -0.3272 -0.1151
  116SOL     MW  464   0.794   1.069   0.959  0.3000 -0.1957  0.5053
  117SOL     OW  465   1.233   1.119   0.766 -0.3782  0.1621 -0.3526
  117SOL    HW1  466   1.223   1.088   0.859  1.4189  1.4509  0.0581
  117SOL    HW2  467   1.244   1.214   0.776  0.4270 -2.4872  1.0679
  117SOL     MW  468   1.233   1.127   0.780 -0.0349 -0.0174 -0.1110
  118SOL     OW  469   3.062   2.974   1.691  0.6289 -0.4145 -0.1234
  118SOL    HW1  470   3.087   3.040   1.752 -0.3658 -3.2598 -0.1005
  118SOL    HW2  471   2.970   2.995   1.672  3.4097 -2.6224 -0.6369
  118SOL     MW  472   3.053   2.986   1.696  0.8646 -1.0812 -0.1882
  119SOL     OW  473   0.521   1.355   1.222 -0.6014  0.4275 -0.2895
  119SOL    HW1  474   0.518   1.335   1.133 -1.4379 -0.4719 -0.5605
  119SOL    HW2  475   0.428   1.341   1.242  2.0572 -0.3949  1.3970
  119SOL     MW  476   0.509   1.351   1.213 -0.3610  0.2003 -0.1028
  120SOL     OW  477   0.178   0.712   0.944 -0.2214  0.1515  0.1770
  120SOL    HW1  478   0.204   0.637   0.999 -2.0523  1.1516  0.2332
  120SOL    HW2  479   0.213   0.789   0.992 -0.4731  0.7846  1.9602
  120SOL     MW  480   0.186   0.712   0.957 -0.4962  0.3670  0.4197
  121SOL     OW  481   1.849   1.095   1.727  0.3367  0.6103 -0.1035
  121SOL    HW1  482   1.755   1.089   1.751 -0.4336 -0.7941  0.8025
  121SOL    HW2  483   1.854   1.013   1.674  0.0516  0.6573 -1.4962
  121SOL     MW  484   1.838   1.083   1.723  0.1975  0.4312 -0.1677
  122SOL     OW  485   0.123   0.520   0.748  0.6945  0.1663 -0.1825
  122SOL    HW1  486   0.204   0.494   0.704  0.7298  1.8186  0.0382
  122SOL    HW2  487   0.150   0.590   0.809 -1.7077  1.1007 -0.2537
  122SOL     MW  488   0.137   0.526   0.750  0.3822  0.5076 -0.1628
  123SOL     OW  489   1.804   1.081   0.446  0.4477  0.1114  0.7039
  123SOL    HW1  490   1.753   0.999   0.438 -3.1166  0.7297 -0.7622
  123SOL    HW2  491   1.816   1.096   0.543  1.4590 -0.0600  0.1876
  123SOL     MW  492   1.799   1.073   0.457  0.1108  0.1704  0.4423
  124SOL     OW  493   0.670   0.546   0.897 -0.1720  0.4100  0.7697
  124SOL    HW1  494   0.597   0.500   0.853 -1.5891 -0.1418 -1.2366
  124SOL    HW2  495   0.674   0.630   0.857 -1.3824  0.4986  0.6559
  124SOL     MW  496   0.661   0.551   0.886 -0.5187  0.3489  0.4899
  125SOL     OW  497   0.679   1.718   1.698 -0.2968  0.7118  0.4239
  125SOL    HW1  498   0.633   1.628   1.695 -0.1988 -1.7639 -0.8897
  125SOL    HW2  499   0.615   1.781   1.676 -1.9059  0.2689  0.4267
  125SOL     MW  500   0.665   1.714   1.694 -0.4961  0.3267  0.2510
  126SOL     OW  501   2.101   1.601   1.955 -1.0286  0.2846  0.0376
  126SOL    HW1  502   2.163   1.672   1.935  0.2582  0.9317  0.4378
  126SOL    HW2  503   2.141   1.524   1.990 -0.0558 -1.6360 -0.3108
  126SOL     MW  504   2.114   1.601   1.957 -0.7305  0.1166  0.0444
  127SOL     OW  505   0.620   0.763   1.864 -0.1505  0.1635  0.5239
  127SOL    HW1  506   0.711   0.726   1.880  2.4866 -0.7783 -0.3107
  127SOL    HW2  507   0.623   0.843   1.920 -0.6212 -1.9834 -1.0527
  127SOL     MW  508   0.632   0.769   1.873  0.1353 -0.2440  0.2058
  128SOL     OW  509   1.853   0.792   2.894 -0.1529  0.0352 -0.1509
  128SOL    HW1  510   1.844   0.741   2.812  1.3326 -0.7087  1.3164
  128SOL    HW2  511   1.800   0.877   2.881  2.4596  1.6467 -1.8837
  128SOL     MW  512   1.845   0.796   2.881  0.3878  0.1497 -0.1859
  129SOL     OW  513   1.525   0.974   0.178  0.4272  0.0620 -0.1651
  129SOL    HW1  514   1.466   0.904   0.177  2.7818  3.8358 -1.4813
  129SOL    HW2  515   1.556   0.973   0.268 -0.0484 -1.5765  0.9399
  129SOL     MW  516   1.522   0.965   0.190  0.6751  0.3437 -0.1930
  130SOL     OW  517   0.750   1.430   0.402 -0.1141 -0.4728  0.0815
  130SOL    HW1  518   0.776   1.396   0.484 -2.9963  0.0666 -1.9812
  130SOL    HW2  519   0.825   1.445   0.346  1.4586 -1.0317 -1.7406
  130SOL     MW  520   0.763   1.428   0.406 -0.2869 -0.4754 -0.4311
  131SOL     OW  521   3.042   0.826   0.031 -0.4175  0.2893 -0.1522
  131SOL    HW1  522   3.041   0.893  -0.048  0.1921  1.6590 -3.2499
  131SOL    HW2  523   3.084   0.878   0.095 -2.9304 -2.5323 -1.6563
  131SOL     MW  524   3.047   0.841   0.029 -0.6686  0.0977 -0.7593
  132SOL     OW  525   2.782   0.143   1.260 -0.0236  0.3572 -0.3956
  132SOL    HW1  526   2.819   0.144   1.169 -0.8549 -0.8535 -1.3102
  132SOL    HW2  527   2.688   0.134   1.242  0.1775  0.4077 -0.8689
  132SOL     MW  528   2.775   0.142   1.245 -0.1067  0.2041 -0.5788
  133SOL     OW  529   1.089   0.123   1.699  0.0867 -0.3086  0.1723
  133SOL    HW1  530   1.169   0.075   1.712 -0.5281  0.6814  1.9253
  133SOL    HW2  531   1.062   0.155   1.786 -4.2641 -2.4362  0.4851
  133SOL     MW  532   1.096   0.121   1.712 -0.5685 -0.4587  0.4449
  134SOL     OW  533   1.380   2.513   1.431  0.3199  0.0872  0.2450
  134SOL    HW1  534   1.332   2.588   1.403  0.1527 -1.3321  0.1979
  134SOL    HW2  535   1.426   2.522   1.518  0.8538  0.4640 -0.7906
  134SOL     MW  536   1.379   2.524   1.439  0.3683 -0.0503  0.1022
  135SOL     OW  537   3.010   0.983   2.917 -0.1158  0.2396 -0.7654
  135SOL    HW1  538   3.073   1.050   2.940 -0.0828 -0.6235  0.6624
  135SOL    HW2  539   2.934   1.029   2.906  1.5895  0.0048  0.9083
  135SOL     MW  540   3.008   0.998   2.919  0.1135  0.0947 -0.3562
  136SOL     OW  541   0.223   1.989   0.848 -0.4758 -0.0090 -0.7790
  136SOL    HW1  542   0.142   1.935   0.843 -2.7044  0.4618  1.3865
  136SOL    HW2  543   0.291   1.973   0.782 -1.7799  0.1828  1.1368
  136SOL     MW  544   0.221   1.980   0.838 -0.9419  0.0784 -0.2405
  137SOL     OW  545   0.753   2.016   0.509  0.5799  0.2879 -0.1411
  137SOL    HW1  546   0.782   1.993   0.595  0.3501  1.8530  0.8474
  137SOL    HW2  547   0.656   2.027   0.521  0.2675  0.5931 -1.0838
  137SOL     MW  548   0.744   2.015   0.522  0.5084  0.5346 -0.1351
  138SOL     OW  549   0.529   0.574   1.133  0.5753 -0.1064  0.4539
  138SOL    HW1  550   0.445   0.533   1.101 -1.0174 -0.5454 -1.2852
  138SOL    HW2  551   0.596   0.564   1.065  0.3184 -0.0777  3.2567
  138SOL     MW  552   0.526   0.567   1.120  0.3313 -0.1605  0.5942
  139SOL     OW  553   2.687   0.510   1.382 -0.8488  0.4291 -0.4287
  139SOL    HW1  554   2.753   0.437   1.379  4.2011  4.2905  0.6498
  139SOL    HW2  555   2.749   0.583   1.382  0.7242  1.6993  0.8756
  139SOL     MW  556   2.704   0.510   1.382  0.0250  1.1062 -0.1143
  140SOL     OW  557   0.840   0.386   2.087  0.2465  0.0723 -0.2160
  140SOL    HW1  558   0.910   0.354   2.026 -0.4931  1.5404 -0.9610
  140SOL    HW2  559   0.876   0.401   2.172 -0.3213  0.7435  0.3302
  140SOL     MW  560   0.854   0.384   2.090  0.0740  0.3546 -0.2422
  141SOL     OW  561   1.030   0.581   1.744  0.0581  0.0359  0.2186
  141SOL    HW1  562   1.101   0.522   1.710 -0.4142  1.7315  1.0799
  141SOL    HW2  563   1.068   0.664   1.755 -2.0488 -1.4550 -0.4433
  141SOL     MW  564   1.044   0.584   1.741 -0.2822  0.0629  0.2449
  142SOL     OW  565   0.953   1.140   0.746  0.3743 -0.3539  0.0681
  142SOL    HW1  566   0.930   1.120   0.648 -1.6484 -0.5042 -3.3732
  142SOL    HW2  567   1.040   1.106   0.753 -1.6398 -0.7813  0.0643
  142SOL     MW  568   0.961   1.133   0.734 -0.1583 -0.4302 -0.3864
  143SOL     OW  569   1.791   0.813   1.101 -0.5487 -0.9071 -0.2065
  143SOL    HW1  570   1.845   0.779   1.027  3.1721 -0.2337  0.1845
  143SOL    HW2  571   1.785   0.743   1.168  0.7803 -1.6764  2.2212
  143SOL     MW  572   1.798   0.799   1.100  0.1176 -0.9197  0.1654
  144SOL     OW  573   0.227   1.184   1.526  0.3164  1.0497  0.2794
  144SOL    HW1  574   0.316   1.155   1.511 -0.8041 -0.3456  0.0217
  144SOL    HW2  575   0.229   1.200   1.618  1.6585  0.2877 -0.0057
  144SOL     MW  576   0.239   1.182   1.536  0.3456  0.7651  0.2078
  145SOL     OW  577   0.277   0.456   1.041  0.3372 -0.8770  0.2793
  145SOL    HW1  578   0.285   0.392   1.115 -1.4567  1.3218 -1.2385
  145SOL    HW2  579   0.310   0.422   0.967  1.0406  1.2502  2.0612
  145SOL     MW  580   0.282   0.443   1.041  0.1933 -0.3062  0.3141
  146SOL     OW  581   0.895   1.935   1.405 -0.3239 -0.1694 -0.5270
  146SOL    HW1  582   0.927   1.942   1.311 -0.3990  3.4645  0.6864
  146SOL    HW2  583   0.791   1.939   1.412 -3.1734  1.0340  1.2490
  146SOL     MW  584   0.886   1.936   1.394 -0.7098  0.4689 -0.1326
  147SOL     OW  585   0.400   0.453   2.927 -0.0756 -0.2334  0.5489
  147SOL    HW1  586   0.330   0.480   2.985  0.1271 -0.5534  2.3941
  147SOL    HW2  587   0.392   0.512   2.856  2.9836 -0.3406  3.1368
  147SOL     MW  588   0.390   0.465   2.925  0.3548 -0.2898  1.1338
  148SOL     OW  589   0.073   0.863   1.351 -0.3258 -0.0324  0.5337
  148SOL    HW1  590   0.167   0.884   1.316  2.7836  1.1761  0.0390
  148SOL    HW2  591   0.061   0.904   1.434  0.0712 -0.5787 -1.7478
  148SOL     MW  592   0.084   0.871   1.357  0.1368  0.0550  0.1674
  149SOL     OW  593   1.391   1.157   1.464  0.0882 -1.0142  0.1986
  149SOL    HW1  594   1.362   1.162   1.554 -3.3810  1.2602  1.1075
  149SOL    HW2  595   1.487   1.182   1.464 -1.1381  2.4399 -0.5451
  149SOL     MW  596   1.400   1.161   1.476 -0.5313 -0.2584  0.2204
  150SOL     OW  597   1.837   1.310   0.806  0.7594  0.3786 -0.1240
  150SOL    HW1  598   1.863   1.226   0.771  2.4076 -0.0862  2.2746
  150SOL    HW2  599   1.919   1.354   0.817 -0.9582 -0.4666 -0.5050
  150SOL     MW  600   1.851   1.305   0.803  0.7503  0.2058  0.1422
  151SOL     OW  601   1.648   1.851   0.847  0.3722  0.7719  0.1689
  151SOL    HW1  602   1.594   1.855   0.766  1.9011 -3.6866 -0.4942
  151SOL    HW2  603   1.609   1.782   0.913  0.2138  1.8718 -1.1196
  151SOL     MW  604   1.636   1.843   0.845  0.5530  0.3288 -0.0886
  152SOL     OW  605   0.776   1.340   1.488  0.3360 -0.5872 -0.5623
  152SOL    HW1  606   0.759   1.263   1.541  0.9812  3.8565  0.0494
  152SOL    HW2  607   0.868   1.348   1.497 -1.0620  2.5679  1.2830
  152SOL     MW  608   0.786   1.331   1.496  0.2367  0.4154 -0.2381
  153SOL     OW  609   2.619   1.274   0.728 -0.5181  0.2300  0.2206
  153SOL    HW1  610   2.700   1.263   0.679  4.0340 -1.4753  3.4476
  153SOL    HW2  611   2.569   1.194   0.720  1.2688 -0.3799  3.9701
  153SOL     MW  612   2.623   1.262   0.720  0.3183 -0.0755  1.1411
  154SOL     OW  613   0.359   1.726   1.676  0.6629 -0.2510  0.3448
  154SOL    HW1  614   0.357   1.692   1.589  2.0616 -2.3095 -0.9741
  154SOL    HW2  615   0.362   1.662   1.740 -1.4685 -1.4090 -0.6223
  154SOL     MW  616   0.359   1.713   1.673  0.5662 -0.6754  0.0432
  155SOL     OW  617   1.112   0.657   0.297 -0.5297 -0.3040 -0.1705
  155SOL    HW1  618   1.118   0.636   0.390 -2.6138  0.2787  0.9789
  155SOL    HW2  619   1.048   0.730   0.311  0.2939  0.0045 -0.0449
  155SOL     MW  620   1.104   0.664   0.311 -0.6960 -0.1864 -0.0023
  156SOL     OW  621   1.494   3.006   1.041  0.3939 -0.1995  0.1738
  156SOL    HW1  622   1.513   3.084   1.093 -1.5989  2.0702  1.2925
  156SOL    HW2  623   1.496   2.934   1.099  1.3790  0.1666 -2.2360
  156SOL     MW  624   1.497   3.007   1.056  0.2610  0.1483  0.0034
  157SOL     OW  625   1.338   1.232   0.132  0.7542  0.0522 -0.1618
  157SOL    HW1  626   1.356   1.137   0.136  1.0889 -0.3178 -1.3564
  157SOL    HW2  627   1.426   1.265   0.131 -0.2596 -2.3575  1.0974
  157SOL     MW  628   1.352   1.224   0.132  0.6646 -0.3145 -0.1533
  158SOL     OW  629   0.470   1.623   2.228  0.1765 -0.6241 -0.1398
  158SOL    HW1  630   0.494   1.689   2.165  2.5001 -2.6531  0.2953
  158SOL    HW2  631   0.383   1.652   2.252  0.0494 -1.3245 -1.9629
  158SOL     MW  632   0.461   1.635   2.223  0.4663 -0.9842 -0.3229
  159SOL     OW  633   1.329   1.690   0.465 -0.1564 -0.6377 -0.4405
  159SOL    HW1  634   1.292   1.621   0.415  1.7159 -0.0241 -0.1372
  159SOL    HW2  635   1.240   1.725   0.499 -1.3005  0.4125 -0.4661
  159SOL     MW  636   1.313   1.686   0.463 -0.0603 -0.4182 -0.4038
  160SOL     OW  637   0.490   1.102   1.552 -0.4921  0.8816  0.3331
  160SOL    HW1  638   0.498   1.015   1.600 -3.0687  2.6016  1.8195
  160SOL    HW2  639   0.510   1.153   1.630 -0.9458 -0.5264 -0.5471
  160SOL     MW  640   0.493   1.097   1.569 -0.8919  0.9227  0.4131
  161SOL     OW  641   0.545   2.137   2.666 -0.2008  0.3049 -0.5678
  161SOL    HW1  642   0.455   2.118   2.686 -0.1169 -0.3322  0.5463
  161SOL    HW2  643   0.560   2.105   2.583  1.4918  1.0057  1.8176
  161SOL     MW  644   0.535   2.130   2.658  0.0336  0.3133 -0.1061
  162SOL     OW  645   0.989   1.680   1.730  0.4724 -0.4465 -0.5037
  162SOL    HW1  646   1.016   1.775   1.761  0.7305 -1.0178  0.0912
  162SOL    HW2  647   0.918   1.656   1.791 -2.9895  0.4433  1.6574
  162SOL     MW  648   0.983   1.689   1.742  0.0497 -0.4045 -0.1401
  163SOL     OW  649   2.122   0.146   0.981 -0.0370 -0.3075 -0.2188
  163SOL    HW1  650   2.083   0.181   0.894 -2.1171 -0.1908  0.4257
  163SOL    HW2  651   2.063   0.073   1.002  1.3657 -0.3535 -0.7045
  163SOL     MW  652   2.109   0.141   0.972 -0.1264 -0.2982 -0.1979
  164SOL     OW  653   0.280   0.224   0.721  0.3472  0.0690  0.0132
  164SOL    HW1  654   0.200   0.233   0.775 -0.8795 -1.6906  1.0512
  164SOL    HW2  655   0.298   0.129   0.732  0.6592 -1.6841 -0.6882
  164SOL     MW  656   0.272   0.213   0.729  0.2265 -0.3945  0.0576
  165SOL     OW  657   1.370   1.256   0.420  0.1390  0.7300  0.1014
  165SOL    HW1  658   1.311   1.182   0.426 -1.8902 -0.1242 -4.3491
  165SOL    HW2  659   1.385   1.266   0.323 -0.7307  1.3762  0.8570
  165SOL     MW  660   1.364   1.248   0.408 -0.2435  0.7026 -0.3861
  166SOL     OW  661   0.505   1.037   0.924  0.8546 -0.3702 -0.3243
  166SOL    HW1  662   0.471   0.984   1.002  1.2134 -4.2243 -0.8789
  166SOL    HW2  663   0.594   1.051   0.947 -1.5548 -0.9286  2.0827
  166SOL     MW  664   0.512   1.032   0.937  0.5840 -0.9524 -0.0799
  167SOL     OW  665   0.861   1.165   0.285 -0.4387  0.3946 -0.5346
  167SOL    HW1  666   0.763   1.163   0.266 -3.1913  1.6773  0.0462
  167SOL    HW2  667   0.914   1.221   0.226 -2.6558 -0.3804  1.5902
  167SOL     MW  668   0.855   1.172   0.274 -1.0944  0.4616 -0.1776
  168SOL     OW  669   1.714   1.724   2.902 -0.1741 -0.1355  0.3956
  168SOL    HW1  670   1.633   1.742   2.855 -0.7391 -1.7480 -0.1271
  168SOL    HW2  671   1.705   1.652   2.956 -0.5165 -2.1204 -0.5531
  168SOL     MW  672   1.702   1.717   2.903 -0.2938 -0.6101  0.2015
  169SOL     OW  673   0.334   0.953   1.334  0.8798  0.1658 -0.4839
  169SOL    HW1  674   0.368   0.962   1.423 -0.7932  0.2486 -1.0170
  169SOL    HW2  675   0.315   1.045   1.319  0.5844  0.8671 -0.7110
  169SOL     MW  676   0.336   0.967   1.343  0.6201  0.2693 -0.5842
  170SOL     OW  677   1.062   1.473   1.486 -0.2482 -0.2039  0.8705
  170SOL    HW1  678   1.015   1.548   1.529  1.4359 -0.1370 -1.1492
  170SOL    HW2  679   1.071   1.488   1.385  0.8120 -0.0104 -2.4969
  170SOL     MW  680   1.057   1.485   1.479  0.1139 -0.1695  0.1597
  171SOL     OW  681   0.601   1.379   0.681 -0.1754  0.5105  0.1125
  171SOL    HW1  682   0.571   1.343   0.760  1.3514 -0.2043 -3.2144
  171SOL    HW2  683   0.574   1.313   0.614  0.1700 -0.5047  0.8528
  171SOL     MW  684   0.594   1.366   0.683  0.0716  0.2823 -0.2288
  172SOL     OW  685   0.854   0.313   1.235  0.0300  0.0520  0.3123
  172SOL    HW1  686   0.867   0.330   1.136  1.9217  0.2538 -0.5530
  172SOL    HW2  687   0.759   0.320   1.256 -2.3473 -0.2278  0.4960
  172SOL     MW  688   0.843   0.316   1.225 -0.0340  0.0417  0.2224
  173SOL     OW  689   0.474   1.711   0.363 -0.1438 -0.3094  0.8208
  173SOL    HW1  690   0.489   1.620   0.325  0.5102 -3.2915 -1.2415
  173SOL    HW2  691   0.531   1.713   0.438 -0.1926  1.2200 -1.0996
  173SOL     MW  692   0.483   1.700   0.368 -0.0639 -0.5011  0.2953
  174SOL     OW  693   2.002   0.916   1.435 -0.2957 -0.1861 -0.0280
  174SOL    HW1  694   1.926   0.860   1.470 -0.9333  0.3039 -0.7555
  174SOL    HW2  695   1.958   0.958   1.361 -0.1314 -2.7100  1.1085
  174SOL     MW  696   1.986   0.914   1.430 -0.3582 -0.4544  0.0260
  175SOL     OW  697   0.478   1.436   0.306  0.1002 -0.6414  0.0748
  175SOL    HW1  698   0.443   1.415   0.217  1.1897 -0.1412  0.4712
  175SOL    HW2  699   0.571   1.423   0.305  2.5073 -1.1461  2.2171
  175SOL     MW  700   0.486   1.431   0.294  0.5615 -0.6420  0.4098
  176SOL     OW  701   0.242   1.258   1.257 -0.2951  0.2971  0.5532
  176SOL    HW1  702   0.185   1.274   1.185 -1.8560  0.2866  2.6994
  176SOL    HW2  703   0.203   1.271   1.350  1.5576  0.2321 -0.1572
  176SOL     MW  704   0.229   1.262   1.260 -0.2566  0.2871  0.7426
  177SOL     OW  705   0.595   0.351   1.345 -0.1561 -0.0331 -0.0217
  177SOL    HW1  706   0.573   0.443   1.342 -1.0282 -2.8859  1.7716
  177SOL    HW2  707   0.604   0.339   1.443 -1.6793 -1.1033 -1.8381
  177SOL     MW  708   0.593   0.361   1.358 -0.4721 -0.5507 -0.0247
  178SOL     OW  709   3.065   0.424   2.907 -0.2677 -0.0015  0.3447
  178SOL    HW1  710   3.009   0.472   2.971 -0.9841 -1.8159 -1.5258
  178SOL    HW2  711   3.003   0.415   2.835 -1.7984 -0.1728 -1.7580
  178SOL     MW  712   3.049   0.429   2.906 -0.5642 -0.2635 -0.1795
  179SOL     OW  713   1.643   1.305   1.451 -0.1010  0.3782 -0.9096
  179SOL    HW1  714   1.637   1.354   1.534 -1.4283 -0.8527  3.3486
  179SOL    HW2  715   1.738   1.299   1.437  2.8512  1.1751 -0.8113
  179SOL     MW  716   1.655   1.311   1.460  0.1134  0.3209 -0.3348
  180SOL     OW  717   2.992   0.177   0.442  0.3129  0.1667  0.0531
  180SOL    HW1  718   2.948   0.202   0.355 -0.0203  1.3629 -0.9881
  180SOL    HW2  719   3.057   0.254   0.450  0.7121 -0.8884 -1.7961
  180SOL     MW  720   2.995   0.190   0.431  0.3216  0.1853 -0.3283
  181SOL     OW  721   1.149   1.450   3.010  0.2613 -0.2695 -0.4802
  181SOL    HW1  722   1.218   1.506   3.044  0.8765 -2.0175  1.3277
  181SOL    HW2  723   1.201   1.401   2.945  1.9368 -0.2879 -1.5919
  181SOL     MW  724   1.165   1.451   3.006  0.5635 -0.5026 -0.3883
  182SOL     OW  725   0.481   0.863   1.659 -0.1196 -0.3979  0.1528
  182SOL    HW1  726   0.401   0.820   1.692  0.1800  0.9047  0.6145
  182SOL    HW2  727   0.548   0.831   1.723 -0.1496 -0.3619  0.5101
  182SOL     MW  728   0.479   0.853   1.672 -0.0840 -0.2213  0.2609
  183SOL     OW  729   1.553   1.493   1.275  0.0195 -0.6597 -0.9348
  183SOL    HW1  730   1.516   1.555   1.339  1.6762  0.0010  0.8378
  183SOL    HW2  731   1.595   1.424   1.330 -1.1899 -2.0767  0.5683
  183SOL     MW  732   1.553   1.492   1.291  0.0785 -0.7595 -0.5026
  184SOL     OW  733   0.849   0.652   1.938  0.2983 -0.7449 -0.2761
  184SOL    HW1  734   0.918   0.631   1.875  0.7330  1.2902 -2.2193
  184SOL    HW2  735   0.841   0.584   1.997  0.9035  3.6308 -1.3164
  184SOL     MW  736   0.857   0.640   1.938  0.4355  0.1009 -0.6697
  185SOL     OW  737   1.169   0.944   1.986  0.9230  0.1104  0.5500
  185SOL    HW1  738   1.183   0.873   2.045  3.4981 -0.2596 -1.4934
  185SOL    HW2  739   1.220   1.012   2.020 -0.0281 -2.5629 -0.2249
  185SOL     MW  740   1.178   0.944   1.998  1.1373 -0.2911  0.1782
  186SOL     OW  741   0.408   1.670   1.413  0.2511 -0.6250  0.0710
  186SOL    HW1  742   0.486   1.692   1.365  0.2572  0.0924  1.2506
  186SOL    HW2  743   0.346   1.646   1.348  0.1328  2.5058 -0.0107
  186SOL     MW  744   0.410   1.670   1.398  0.2363 -0.1173  0.2158
  187SOL     OW  745   1.483   0.728   1.468 -0.2599  0.1960  0.6494
  187SOL    HW1  746   1.464   0.724   1.564 -1.9292  1.6540 -0.2127
  187SOL    HW2  747   1.395   0.730   1.423  0.0066  1.9336  0.8010
  187SOL     MW  748   1.469   0.728   1.475 -0.4450  0.6176  0.5556
  188SOL     OW  749   1.910   1.042   0.715 -0.6019 -0.0169  0.4133
  188SOL    HW1  750   1.863   0.978   0.775 -1.3349  0.6850  0.7218
  188SOL    HW2  751   2.001   1.027   0.731 -1.5494  0.9125 -2.9552
  188SOL     MW  752   1.916   1.031   0.725 -0.8236  0.1984  0.0096
  189SOL     OW  753   0.675   0.814   0.801  0.4519  0.7796  0.1784
  189SOL    HW1  754   0.587   0.850   0.811 -1.6930  1.5516  0.2364
  189SOL    HW2  755   0.722   0.878   0.848 -2.4425  2.6696 -1.3014
  189SOL     MW  756   0.670   0.827   0.809 -0.2130  1.1308 -0.0092
  190SOL     OW  757   1.859   0.252   1.999  0.4426 -0.6563  0.6199
  190SOL    HW1  758   1.816   0.169   1.995 -0.0901  3.2974  0.1778
  190SOL    HW2  759   1.937   0.238   1.954 -1.1022  0.0678  0.5463
  190SOL     MW  760   1.863   0.239   1.993  0.1685 -0.0391  0.5519
  191SOL     OW  761   1.538   0.974   1.320 -0.9291  0.4909 -0.2584
  191SOL    HW1  762   1.467   1.014   1.373 -1.0722  1.4479  1.2578
  191SOL    HW2  763   1.541   0.889   1.362 -0.5916  0.7279  0.3451
  191SOL     MW  764   1.529   0.968   1.333 -0.9035  0.6484  0.0212
  192SOL     OW  765   0.707   1.983   2.822 -0.2526  0.3008  0.4746
  192SOL    HW1  766   0.658   2.059   2.779  1.4983  0.4672  3.4630
  192SOL    HW2  767   0.634   1.918   2.827 -1.6381  2.8597 -0.0656
  192SOL     MW  768   0.691   1.985   2.817 -0.2044  0.6604  0.7976
  193SOL     OW  769   0.969   1.641   0.758 -0.6977  0.2988  0.5925
  193SOL    HW1  770   0.933   1.682   0.833  0.4973  1.4560  1.5913
  193SOL    HW2  771   0.916   1.562   0.743  0.7739 -1.8989  1.4321
  193SOL     MW  772   0.957   1.636   0.766 -0.3458  0.1615  0.8351
  194SOL     OW  773   0.462   1.299   0.926  0.1804 -0.0982 -0.0157
  194SOL    HW1  774   0.458   1.202   0.941 -1.1916  1.5127  0.1351
  194SOL    HW2  775   0.382   1.332   0.887 -2.0906  2.2625 -0.2931
  194SOL     MW  776   0.451   1.290   0.923 -0.3003  0.4259 -0.0324
  195SOL     OW  777   1.290   1.112   2.988  0.5833 -0.6942 -0.6113
  195SOL    HW1  778   1.293   1.174   3.060 -1.9751  2.7825 -0.7546
  195SOL    HW2  779   1.215   1.060   3.013  0.1896  1.3888  1.5711
  195SOL     MW  780   1.281   1.113   3.001  0.1938  0.0393 -0.3423
  196SOL     OW  781   2.192   1.075   0.631 -0.0763 -0.2729 -0.7387
  196SOL    HW1  782   2.155   1.017   0.562  3.9592 -2.2412 -0.6110
  196SOL    HW2  783   2.193   1.168   0.610  0.8452  0.4262  1.2318
  196SOL     MW  784   2.187   1.080   0.619  0.5777 -0.4404 -0.4618
  197SOL     OW  785   0.602   1.259   2.021  0.4415 -0.1758  0.2518
  197SOL    HW1  786   0.593   1.169   1.983 -0.1315  2.4801  2.1409
  197SOL    HW2  787   0.572   1.305   1.948  1.6457 -0.5770  3.1477
  197SOL     MW  788   0.597   1.253   2.007  0.5248  0.1217  0.8831
  198SOL     OW  789   2.938   1.469   1.001  0.1932  0.4633  0.4656
  198SOL    HW1  790   2.914   1.559   0.963 -0.4281  3.5158 -0.7067
  198SOL    HW2  791   2.850   1.426   1.003  1.0361  0.4783 -1.9785
  198SOL     MW  792   2.923   1.475   0.996  0.2224  0.8680 -0.0116
  199SOL     OW  793   0.498   1.299   1.755  0.1141  0.2871 -0.0922
  199SOL    HW1  794   0.407   1.303   1.778  2.5913 -2.1936 -0.1892
  199SOL    HW2  795   0.515   1.371   1.685  0.3006  0.2325 -1.7311
  199SOL     MW  796   0.488   1.309   1.749  0.4656 -0.0474 -0.3212
  200SOL     OW  797   1.894   0.005   1.336 -0.2723 -0.2129 -0.4576
  200SOL    HW1  798   1.928  -0.007   1.248  2.0544  1.5114  2.3349
  200SOL    HW2  799   1.803  -0.030   1.350  1.7177 -2.0995 -0.4066
  200SOL     MW  800   1.886  -0.001   1.327  0.2972 -0.2343 -0.0824
  201SOL     OW  801   1.086   0.301   0.821 -0.2434 -0.2971 -0.1918
  201SOL    HW1  802   1.071   0.209   0.823 -3.8488  0.2170  0.7334
  201SOL    HW2  803   1.107   0.316   0.734  0.4644  1.5822 -0.5806
  201SOL     MW  804   1.087   0.291   0.810 -0.6257  0.0187 -0.1211
  202SOL     OW  805   1.538   1.663   1.037 -0.0556  0.2253  0.3940
  202SOL    HW1  806   1.563   1.582   0.982 -1.9679 -0.7424  1.0782
  202SOL    HW2  807   1.547   1.632   1.129  0.8391  0.2291  0.6470
  202SOL     MW  808   1.542   1.648   1.042 -0.1899  0.0981  0.5176
  203SOL     OW  809   0.001   0.482   1.182  0.0878  0.1164 -0.1941
  203SOL    HW1  810   0.067   0.438   1.129 -2.7169 -0.1729  0.8034
  203SOL    HW2  811   0.057   0.534   1.246 -0.2653 -1.0761  0.6632
  203SOL     MW  812   0.017   0.483   1.183 -0.3288 -0.0791  0.0506
  204SOL     OW  813   1.057   1.766   0.521 -0.3718  0.7344 -0.0579
  204SOL    HW1  814   1.025   1.706   0.589  3.5789  0.4932 -0.1194
  204SOL    HW2  815   0.993   1.746   0.454  0.6516 -0.1326  0.7044
  204SOL     MW  816   1.045   1.755   0.521  0.2845  0.5882  0.0346
  205SOL     OW  817   1.366   0.107   1.336 -0.3112 -0.0142 -0.2841
  205SOL    HW1  818   1.311   0.104   1.261 -1.2028  3.2189  1.3743
  205SOL    HW2  819   1.389   0.200   1.329 -1.3893 -0.2700  1.2781
  205SOL     MW  820   1.362   0.119   1.325 -0.5711  0.3786  0.1408
  206SOL     OW  821   0.425   3.088   1.414 -0.3969  0.2434 -0.1869
  206SOL    HW1  822   0.373   3.094   1.338  0.5533 -1.1629  2.6990
  206SOL    HW2  823   0.482   3.012   1.417 -0.1128  0.6534  1.9070
  206SOL     MW  824   0.426   3.079   1.405 -0.2340  0.1119  0.4702
  207SOL     OW  825   0.939   1.507   0.227 -0.1857 -0.2068 -0.2121
  207SOL    HW1  826   0.943   1.597   0.193  1.7386 -1.1192 -1.5460
  207SOL    HW2  827   1.025   1.494   0.275 -0.9354 -0.9351 -4.2754
  207SOL     MW  828   0.951   1.517   0.229 -0.0307 -0.4233 -0.9242
  208SOL     OW  829   0.688   1.591   1.237  0.1654  0.2794  0.5572
  208SOL    HW1  830   0.754   1.600   1.304  2.1096  0.0074  2.5413
  208SOL    HW2  831   0.638   1.510   1.247 -0.9675  1.8130  1.3549
  208SOL     MW  832   0.690   1.581   1.247  0.2724  0.4459  0.9242
  209SOL     OW  833   1.550   0.542   2.816  0.5919 -0.5316  0.0430
  209SOL    HW1  834   1.582   0.571   2.902  0.3359 -1.9651  1.7178
  209SOL    HW2  835   1.601   0.466   2.803 -2.2968  3.4600  0.1728
  209SOL     MW  836   1.561   0.536   2.826  0.1770 -0.1941  0.2811
  210SOL     OW  837   1.606   1.457   0.876  0.1786  0.0135  0.4484
  210SOL    HW1  838   1.692   1.417   0.854 -0.2773  1.2953 -0.0234
  210SOL    HW2  839   1.558   1.446   0.793  1.8493 -1.5229 -3.2606
  210SOL     MW  840   1.611   1.450   0.862  0.3389 -0.0201 -0.1032
  211SOL     OW  841   1.727   0.456   0.931 -0.2907 -0.7904 -0.2031
  211SOL    HW1  842   1.714   0.454   0.838 -1.0388  1.2362  2.4535
  211SOL    HW2  843   1.812   0.493   0.945  0.1768  0.2875 -0.6544
  211SOL     MW  844   1.737   0.461   0.920 -0.3277 -0.3808  0.0879
  212SOL     OW  845   0.231   1.132   0.085 -0.0214  0.3627  0.0282
  212SOL    HW1  846   0.203   1.071   0.157  0.1904  1.5688  1.0355
  212SOL    HW2  847   0.319   1.100   0.060 -0.7234 -0.3773 -0.2351
  212SOL     MW  848   0.239   1.119   0.091 -0.0861  0.4242  0.1264
  213SOL     OW  849   0.396   1.731   3.063 -0.4753  1.0701 -0.4306
  213SOL    HW1  850   0.440   1.774   3.135 -0.7677  0.4381 -0.8218
  213SOL    HW2  851   0.446   1.756   2.986  2.2070 -0.2822  0.4489
  213SOL     MW  852   0.408   1.740   3.062 -0.1600  0.8083 -0.3662
  214SOL     OW  853   0.647   0.260   2.249 -0.1808  0.4584 -0.3171
  214SOL    HW1  854   0.594   0.326   2.203 -2.9053  3.1221 -0.0830
  214SOL    HW2  855   0.724   0.242   2.198 -1.5803  0.3463  2.6550
  214SOL     MW  856   0.650   0.266   2.236 -0.7249  0.7951  0.1059
  215SOL     OW  857   0.470   0.724   2.613 -0.4523 -0.5267 -0.1767
  215SOL    HW1  858   0.475   0.717   2.515  4.2917  0.8648  0.4165
  215SOL    HW2  859   0.399   0.658   2.641 -2.0917 -1.6428 -0.2020
  215SOL     MW  860   0.461   0.714   2.604 -0.0427 -0.4903 -0.1018
  216SOL     OW  861   3.071   3.030   2.687 -0.5342  0.2949 -0.4693
  216SOL    HW1  862   3.000   3.036   2.753 -0.7918 -0.3517 -1.3289
  216SOL    HW2  863   3.046   3.115   2.654 -2.2142 -0.0033  4.1126
  216SOL     MW  864   3.058   3.042   2.691 -0.7899  0.1702  0.0218
  217SOL     OW  865   0.959   1.264   0.023  0.4896  0.4159 -0.1894
  217SOL    HW1  866   0.996   1.177   0.004  2.9224  1.7548 -0.3077
  217SOL    HW2  867   1.028   1.331   0.026 -2.7858 -1.1295  4.2879
  217SOL     MW  868   0.973   1.261   0.021  0.3784  0.3886  0.3858
  218SOL     OW  869   0.933   1.301   2.554 -0.1511  0.4828  0.0686
  218SOL    HW1  870   0.950   1.212   2.595 -1.3634 -0.0744 -1.4752
  218SOL    HW2  871   0.989   1.349   2.608 -1.2182 -1.7134 -2.0358
  218SOL     MW  872   0.943   1.296   2.567 -0.4518  0.1195 -0.4128
  219SOL     OW  873   1.049   0.451   2.521  0.2239  0.2232 -0.0233
  219SOL    HW1  874   1.119   0.491   2.473  0.8754  0.1448  1.0906
  219SOL    HW2  875   0.994   0.527   2.550 -1.6909  0.8167  1.3140
  219SOL     MW  876   1.051   0.467   2.519  0.0572  0.2912  0.3001
  220SOL     OW  877   1.775   0.446   2.172  0.7305 -0.0207  0.2316
  220SOL    HW1  878   1.695   0.464   2.119  1.5082 -2.8901 -1.5496
  220SOL    HW2  879   1.807   0.373   2.123  0.4377  0.0997  0.4154
  220SOL     MW  880   1.769   0.439   2.158  0.7945 -0.3834  0.0208
  221SOL     OW  881   0.382   1.326   2.901 -0.3979  0.1404  0.0409
  221SOL    HW1  882   0.400   1.241   2.861  1.0129 -0.1515 -0.5581
  221SOL    HW2  883   0.385   1.373   2.820 -1.8413 -0.6749  1.6469
  221SOL     MW  884   0.385   1.321   2.885 -0.4022 -0.0057  0.1738
  222SOL     OW  885   0.288   0.918   2.640 -0.3797 -0.5310 -0.0999
  222SOL    HW1  886   0.284   0.963   2.557 -0.1387  0.1074 -2.5819
  222SOL    HW2  887   0.356   0.850   2.629 -2.8520  0.3742 -0.8452
  222SOL     MW  888   0.297   0.915   2.627 -0.6741 -0.3273 -0.5257
  223SOL     OW  889   0.015   2.023   2.602  0.4969  0.8755  0.0870
  223SOL    HW1  890   0.076   1.958   2.637  5.4223 -0.4732  1.9427
  223SOL    HW2  891   0.058   2.074   2.538 -0.0868  0.9234 -3.1995
  223SOL     MW  892   0.029   2.021   2.598  1.0698  0.7039 -0.1018
  224SOL     OW  893   1.465   0.829   2.584  0.1916 -0.6865  0.1059
  224SOL    HW1  894   1.474   0.836   2.679  0.5006  0.3985 -1.1298
  224SOL    HW2  895   1.468   0.916   2.547 -0.8951  1.1283  0.0547
  224SOL     MW  896   1.466   0.842   2.591  0.0890 -0.3039 -0.0639
  225SOL     OW  897   2.984   1.501   2.263  0.0110  0.3260  0.0251
  225SOL    HW1  898   3.039   1.569   2.225  1.6963  0.2620  4.6042
  225SOL    HW2  899   2.932   1.552   2.324  0.2514 -1.0717  1.7626
  225SOL     MW  900   2.984   1.517   2.266  0.2651  0.1332  0.8585
  226SOL     OW  901   0.400   1.443   2.614  0.2315 -0.1058 -0.2480
  226SOL    HW1  902   0.496   1.434   2.605  0.3894  3.3976  0.3111
  226SOL    HW2  903   0.391   1.534   2.577  1.2520 -0.3519 -2.2570
  226SOL     MW  904   0.411   1.454   2.608  0.3870  0.3240 -0.4393
  227SOL     OW  905   0.436   1.066   2.825  0.0990 -0.3902 -0.6955
  227SOL    HW1  906   0.518   1.080   2.785 -1.8587 -1.4531  0.8676
  227SOL    HW2  907   0.373   1.049   2.749 -0.9032 -0.3966 -0.3882
  227SOL     MW  908   0.439   1.066   2.810 -0.2916 -0.5313 -0.4487
  228SOL     OW  909   0.661   0.976   2.003 -0.6915  0.3252 -0.6168
  228SOL    HW1  910   0.753   1.000   1.992 -0.2829  0.8598  0.6319
  228SOL    HW2  911   0.642   0.938   2.096 -0.1818  0.9450  0.0137
  228SOL     MW  912   0.670   0.974   2.013 -0.5703  0.4775 -0.3689
  229SOL     OW  913   0.181   0.524   3.099 -0.0271 -0.2065  0.6451
  229SOL    HW1  914   0.108   0.525   3.040  1.3356 -1.1989 -2.7166
  229SOL    HW2  915   0.154   0.467   3.170 -2.6227  2.6999 -2.6843
  229SOL     MW  916   0.168   0.517   3.101 -0.1898  0.0460 -0.2377
  230SOL     OW  917   1.771   1.369   2.040 -0.0785  0.0959 -0.6074
  230SOL    HW1  918   1.744   1.361   2.134  1.1519 -1.3081  1.4951
  230SOL    HW2  919   1.835   1.299   2.040  0.3534 -1.0231  0.9108
  230SOL     MW  920   1.776   1.359   2.052  0.1408 -0.2370 -0.1297
  231SOL     OW  921   2.760   1.314   2.195  0.2633  0.3426  0.2698
  231SOL    HW1  922   2.842   1.370   2.191 -1.8096  0.9252 -1.6086
  231SOL    HW2  923   2.712   1.343   2.117  3.4649  0.4002 -0.4883
  231SOL     MW  924   2.765   1.325   2.184  0.4122  0.4271 -0.0781
  232SOL     OW  925   2.273   0.865   2.130  0.2084  0.0319  0.5666
  232SOL    HW1  926   2.215   0.897   2.059 -2.1842 -1.3386  1.3421
  232SOL    HW2  927   2.204   0.851   2.194  1.0938 -1.0250 -0.9670
  232SOL     MW  928   2.256   0.867   2.129  0.0095 -0.2884  0.4666
  233SOL     OW  929   2.050   0.523   1.942 -0.2999 -0.5285  0.3618
  233SOL    HW1  930   2.068   0.561   1.857  1.8971 -0.3374  3.1134
  233SOL    HW2  931   2.123   0.520   2.003  0.7792  3.5280 -0.8352
  233SOL     MW  932   2.062   0.527   1.939  0.1323  0.0319  0.5669
  234SOL     OW  933   0.264   1.018   2.348  0.2205 -0.0330  0.6680
  234SOL    HW1  934   0.164   1.019   2.357  1.0680 -1.4080  1.3501
  234SOL    HW2  935   0.299   1.100   2.379  0.3328  0.6018  1.9403
  234SOL     MW  936   0.255   1.029   2.353  0.3471 -0.1307  0.9259
  235SOL     OW  937   1.075   3.061   2.744  0.3454  0.1300 -0.4421
  235SOL    HW1  938   1.098   3.000   2.814  1.6641  1.2719 -0.8039
  235SOL    HW2  939   1.061   3.149   2.787  1.2103 -1.1223 -0.4022
  235SOL     MW  940   1.076   3.065   2.759  0.6335  0.1154 -0.4845
  236SOL     OW  941   2.942   0.546   0.022  0.1815 -0.1628 -0.3360
  236SOL    HW1  942   2.848   0.557  -0.006 -0.1339  0.3984  0.2952
  236SOL    HW2  943   2.963   0.636   0.053  2.7418  1.4943 -2.1414
  236SOL     MW  944   2.933   0.559   0.023  0.4777  0.1299 -0.4909
  237SOL     OW  945   1.779   0.946   2.147  0.9033  0.7987  0.1746
  237SOL    HW1  946   1.785   1.032   2.107  3.0478  0.9802 -1.7114
  237SOL    HW2  947   1.779   0.964   2.238  2.0060 -0.8104  0.9051
  237SOL     MW  948   1.780   0.960   2.154  1.3317  0.6103  0.0221
  238SOL     OW  949   1.071   1.748   2.969 -0.1786  0.4701  0.0993
  238SOL    HW1  950   1.010   1.673   2.959  0.0041  0.6828  1.1029
  238SOL    HW2  951   1.162   1.714   2.961  0.0186  1.6096  0.4879
  238SOL     MW  952   1.075   1.734   2.967 -0.1285  0.6485  0.2830
  239SOL     OW  953   1.192   1.443   2.323  0.1207 -0.1092  0.7143
  239SOL    HW1  954   1.171   1.471   2.410  1.5626 -0.5351 -0.7433
  239SOL    HW2  955   1.150   1.358   2.303  2.5744 -2.1567 -0.2290
  239SOL     MW  956   1.184   1.435   2.332  0.6347 -0.4356  0.3976
  240SOL     OW  957   0.644   0.891   2.261  1.0976  0.7780  0.3175
  240SOL    HW1  958   0.659   0.936   2.350  1.2706 -0.3227  3.2339
  240SOL    HW2  959   0.731   0.847   2.237  1.8528 -3.4429 -1.2777
  240SOL     MW  960   0.658   0.891   2.270  1.2201  0.0759  0.4918
  241SOL     OW  961   0.621   0.332   3.035 -0.4772 -0.1300  0.2365
  241SOL    HW1  962   0.645   0.391   3.111  0.2092  4.3352 -0.5721
  241SOL    HW2  963   0.548   0.384   2.995 -0.6972  0.2888  0.8735
  241SOL     MW  964   0.615   0.347   3.040 -0.4156  0.5144  0.2139
  242SOL     OW  965   1.499   1.769   2.281  0.3871 -0.2874 -0.5533
  242SOL    HW1  966   1.462   1.822   2.349  1.3068 -1.1013  0.5855
  242SOL    HW2  967   1.430   1.724   2.234  0.1337  1.2503 -0.4324
  242SOL     MW  968   1.485   1.770   2.283  0.4750 -0.1919 -0.3871
  243SOL     OW  969   0.948   0.214   2.344 -0.0336 -0.0874  0.4623
  243SOL    HW1  970   1.045   0.220   2.331  3.1332  0.3913 -0.2227
  243SOL    HW2  971   0.929   0.262   2.429  2.2157  2.2478 -1.2111
  243SOL     MW  972   0.958   0.221   2.353  0.6810  0.2838  0.1511
  244SOL     OW  973   0.218   0.707   2.327  0.2577 -0.5440  0.4386
  244SOL    HW1  974   0.229   0.798   2.314 -0.7984  2.1249  2.4388
  244SOL    HW2  975   0.298   0.680   2.366 -1.9301  0.5153  0.1843
  244SOL     MW  976   0.230   0.715   2.330 -0.1703 -0.0521  0.6690
  245SOL     OW  977   1.244   0.239   2.350  0.4837 -0.1436  0.1294
  245SOL    HW1  978   1.297   0.162   2.352  0.0698 -0.1049  0.1583
  245SOL    HW2  979   1.284   0.294   2.416 -0.2020  0.4832 -1.8919
  245SOL     MW  980   1.256   0.236   2.359  0.3386 -0.0558 -0.1335
  246SOL     OW  981   1.270   1.176   2.087  0.1627  0.0068  0.5946
  246SOL    HW1  982   1.208   1.132   2.144  0.6254 -2.1506  0.5343
  246SOL    HW2  983   1.343   1.192   2.144 -0.0791  0.7070 -3.3144
  246SOL     MW  984   1.271   1.172   2.102  0.1919 -0.1855  0.0709
  247SOL     OW  985   0.689   0.504   0.136  0.4138  0.4862  0.0058
  247SOL    HW1  986   0.643   0.585   0.105 -4.1204 -0.7408  0.4146
  247SOL    HW2  987   0.782   0.525   0.118  0.3682  1.7458  1.0877
  247SOL     MW  988   0.696   0.518   0.130 -0.1905  0.4905  0.2025
  248SOL     OW  989   0.456   1.196   2.469  0.6022  0.6653 -0.6576
  248SOL    HW1  990   0.484   1.252   2.390  2.3925  1.4597 -2.3465
  248SOL    HW2  991   0.431   1.259   2.531 -1.9393 -1.9623 -1.1265
  248SOL     MW  992   0.457   1.211   2.467  0.5031  0.4234 -0.9423
  249SOL     OW  993   0.195   1.853   2.711  0.1757 -0.0274 -0.4154
  249SOL    HW1  994   0.148   1.774   2.688  0.2177 -0.5651 -1.0752
  249SOL    HW2  995   0.187   1.852   2.806 -1.8515 -2.0974 -0.8398
  249SOL     MW  996   0.187   1.842   2.720 -0.0863 -0.3714 -0.5584
  250SOL     OW  997   2.135   0.856   2.374 -0.3203 -0.0416 -0.0388
  250SOL    HW1  998   2.195   0.787   2.397  0.5600 -3.3914 -0.0660
  250SOL    HW2  999   2.163   0.936   2.417 -1.6804 -1.9444  0.1371
  250SOL     MW 1000   2.147   0.857   2.383 -0.3836 -0.7346 -0.0192
  251SOL     OW 1001   0.226   0.807   2.050  0.2440  0.3611  0.2633
  251SOL    HW1 1002   0.214   0.737   2.112 -0.1639  3.8321 -0.1301
  251SOL    HW2 1003   0.226   0.768   1.958 -0.0467 -0.6811  0.2844
  251SOL     MW 1004   0.225   0.793   2.046  0.1518  0.6816  0.2142
  252SOL     OW 1005   1.692   1.006   2.859 -0.3630  0.5107  0.0995
  252SOL    HW1 1006   1.683   1.063   2.939  1.0598 -1.9268  1.0430
  252SOL    HW2 1007   1.739   1.065   2.794  1.1363  1.7696  0.5910
  252SOL     MW 1008   1.697   1.021   2.861  0.0225  0.3552  0.2889
  253SOL     OW 1009   1.156   1.729   2.527  0.1585 -0.2621  0.1799
  253SOL    HW1 1010   1.138   1.771   2.434 -0.4863  0.4364 -0.6328
  253SOL    HW2 1011   1.083   1.771   2.585 -0.3405 -0.1212  0.7874
  253SOL     MW 1012   1.144   1.740   2.523  0.0076 -0.1513  0.1528
  254SOL     OW 1013   1.028   1.084   2.227 -0.2526  0.0435 -0.0134
  254SOL    HW1 1014   0.991   1.001   2.201 -0.2980 -1.6184 -0.8045
  254SOL    HW2 1015   0.953   1.132   2.258 -2.3047 -2.0721  0.5745
  254SOL     MW 1016   1.013   1.080   2.228 -0.5294 -0.4549 -0.0402
  255SOL     OW 1017   0.836   2.430   2.185 -0.3927  0.2022 -0.5170
  255SOL    HW1 1018   0.748   2.422   2.218 -0.9551  1.4265  0.1832
  255SOL    HW2 1019   0.879   2.432   2.272  2.3423 -0.4793 -2.8790
  255SOL     MW 1020   0.830   2.429   2.201 -0.1061  0.2738 -0.7363
  256SOL     OW 1021   1.164   2.828   2.891 -0.1263  0.1042  0.8025
  256SOL    HW1 1022   1.133   2.758   2.829 -0.1670  3.6676 -2.2195
  256SOL    HW2 1023   1.252   2.838   2.845  1.6424  0.8753 -1.9893
  256SOL     MW 1024   1.172   2.820   2.877  0.1017  0.6761  0.0354
  257SOL     OW 1025   0.169   1.903   0.095  0.2912 -0.3252  0.2140
  257SOL    HW1 1026   0.185   1.831   0.152 -1.9332  1.2091  0.4657
  257SOL    HW2 1027   0.164   1.858   0.007 -0.8625  3.1856  1.1794
  257SOL     MW 1028   0.170   1.888   0.091 -0.1545  0.3404  0.3746
  258SOL     OW 1029   0.711   1.060   2.476 -0.5659 -0.9524 -0.5510
  258SOL    HW1 1030   0.744   1.125   2.404  3.1332  0.7861 -2.2834
  258SOL    HW2 1031   0.620   1.084   2.496  1.7135 -1.5855 -0.1034
  258SOL     MW 1032   0.704   1.071   2.469  0.2229 -0.8065 -0.7205
  259SOL     OW 1033   0.747   0.512   2.385  0.4884  0.3092 -0.4278
  259SOL    HW1 1034   0.675   0.560   2.347  1.4224  1.2894  0.6167
  259SOL    HW2 1035   0.731   0.419   2.358  2.3000 -2.3485  3.6695
  259SOL     MW 1036   0.735   0.506   2.376  0.8506  0.0879  0.2506
  260SOL     OW 1037   0.597   0.123   1.574 -0.4229  0.3695  0.3981
  260SOL    HW1 1038   0.547   0.075   1.508  0.5851  1.0797  1.1259
  260SOL    HW2 1039   0.691   0.127   1.544 -0.5949  0.5262 -1.5393
  260SOL     MW 1040   0.603   0.117   1.562 -0.3126  0.4839  0.2385
  261SOL     OW 1041   1.187   0.680   2.077  0.2199 -0.0250 -0.2519
  261SOL    HW1 1042   1.214   0.680   2.169 -2.2386  1.6770  0.9662
  261SOL    HW2 1043   1.240   0.622   2.018  0.4892 -0.7133 -0.9128
  261SOL     MW 1044   1.197   0.673   2.081 -0.0689  0.1087 -0.1784
  262SOL     OW 1045   1.157   0.312   0.094 -0.1636 -0.2637 -0.1601
  262SOL    HW1 1046   1.254   0.298   0.085  1.4027  0.9466  0.6599
  262SOL    HW2 1047   1.115   0.231   0.075  3.8247  1.4339  0.4084
  262SOL     MW 1048   1.164   0.299   0.090  0.5693  0.1200  0.0231
  263SOL     OW 1049   0.461   3.044   2.493 -0.3612 -0.0024 -0.2119
  263SOL    HW1 1050   0.373   3.084   2.485 -0.1739  2.7326 -0.7285
  263SOL    HW2 1051   0.498   3.033   2.402  1.0396  2.5449 -2.1897
  263SOL     MW 1052   0.454   3.048   2.480 -0.1516  0.6945 -0.5410
  264SOL     OW 1053   1.535   1.303   1.913 -0.2615 -0.2598  0.3800
  264SOL    HW1 1054   1.464   1.279   1.973  0.3588  3.5701  0.5327
  264SOL    HW2 1055   1.615   1.332   1.962 -1.2235  2.1547 -1.5824
  264SOL     MW 1056   1.536   1.304   1.928 -0.3066  0.5641  0.1412
  265SOL     OW 1057   0.657   2.683   2.259 -0.0549  0.4707 -0.2661
  265SOL    HW1 1058   0.709   2.615   2.222 -2.0953  3.1758 -0.4622
  265SOL    HW2 1059   0.693   2.695   2.343 -2.5065  3.4138 -2.9892
  265SOL     MW 1060   0.669   2.675   2.265 -0.6476  1.2159 -0.6513
  266SOL     OW 1061   0.911   0.805   2.203  0.5127  0.3979 -0.4476
  266SOL    HW1 1062   0.914   0.760   2.121 -0.3729  0.2572  2.6836
  266SOL    HW2 1063   0.980   0.767   2.265 -0.8201 -0.9771  0.6619
  266SOL     MW 1064   0.920   0.794   2.200  0.2200  0.1980  0.1119
  267SOL     OW 1065   1.375   1.717   2.696 -0.4117 -0.3402  0.4390
  267SOL    HW1 1066   1.457   1.691   2.649 -0.5607 -2.9451 -1.3137
  267SOL    HW2 1067   1.304   1.742   2.634 -0.1428 -2.4171 -1.5684
  267SOL     MW 1068   1.377   1.717   2.682 -0.3959 -0.9579 -0.0571
  268SOL     OW 1069   0.240   0.745   1.772  0.4064 -0.0554  0.2322
  268SOL    HW1 1070   0.201   0.815   1.718 -0.0368  4.6102  0.8523
  268SOL    HW2 1071   0.243   0.673   1.705 -0.5017 -0.2987  2.0714
  268SOL     MW 1072   0.236   0.745   1.756  0.2281  0.5281  0.5567
  269SOL     OW 1073   1.360   1.921   2.450  0.3159 -0.3837 -0.5356
  269SOL    HW1 1074   1.398   2.007   2.462 -0.5822 -1.6184 -1.3265
  269SOL    HW2 1075   1.279   1.927   2.512 -0.5788 -0.1226  1.7582
  269SOL     MW 1076   1.354   1.933   2.460  0.0794 -0.5122 -0.3373
  270SOL     OW 1077   1.166   0.378   1.604 -0.1299 -0.4713  0.2761
  270SOL    HW1 1078   1.145   0.288   1.620  1.5159 -0.4397 -1.4874
  270SOL    HW2 1079   1.256   0.381   1.591 -1.3934 -0.7829 -2.2211
  270SOL     MW 1080   1.175   0.367   1.604 -0.0795 -0.5082 -0.2860
  271SOL     OW 1081   0.830   3.030   2.388  0.0526  0.4664  0.1947
  271SOL    HW1 1082   0.903   2.978   2.429  2.3039 -0.6005 -0.2016
  271SOL    HW2 1083   0.860   3.120   2.368  1.7374  2.1290  1.1110
  271SOL     MW 1084   0.843   3.035   2.391  0.5720  0.5450  0.2633
  272SOL     OW 1085   1.423   2.866   2.807  0.4539 -0.5251 -0.3934
  272SOL    HW1 1086   1.415   2.937   2.745  2.5608  4.4809 -0.5145
  272SOL    HW2 1087   1.454   2.912   2.887  1.3304 -2.6809  0.4064
  272SOL     MW 1088   1.426   2.882   2.810  0.8475 -0.1490 -0.3038
  273SOL     OW 1089   1.432   0.894   2.865 -0.2960 -0.5567  0.1375
  273SOL    HW1 1090   1.516   0.928   2.864 -0.4033 -1.5764  0.9789
  273SOL    HW2 1091   1.375   0.966   2.891 -2.5845 -1.1314  0.1671
  273SOL     MW 1092   1.436   0.908   2.868 -0.6121 -0.7670  0.2524
  274SOL     OW 1093   1.357   0.754   0.224  0.4192  0.2437  0.1707
  274SOL    HW1 1094   1.404   0.677   0.252  1.4599  0.2819  0.4859
  274SOL    HW2 1095   1.268   0.737   0.252  2.1933 -1.6134  1.1377
  274SOL     MW 1096   1.351   0.742   0.232  0.7906  0.0037  0.3398
  275SOL     OW 1097   1.701   0.661   1.820  0.7146  0.6225 -0.3211
  275SOL    HW1 1098   1.770   0.701   1.874 -1.2236 -0.1813 -1.2386
  275SOL    HW2 1099   1.706   0.564   1.829  3.0151  1.4959 -1.1737
  275SOL     MW 1100   1.711   0.653   1.828  0.7624  0.6317 -0.5547
  276SOL     OW 1101   0.214   1.250   1.798 -0.6248  0.4849  0.2133
  276SOL    HW1 1102   0.234   1.189   1.871 -1.5029 -0.7711 -1.1101
  276SOL    HW2 1103   0.174   1.331   1.835 -0.4131 -0.0601 -2.0189
  276SOL     MW 1104   0.211   1.252   1.812 -0.7128  0.2473 -0.2558
  277SOL     OW 1105   1.931   1.352   2.596 -0.6339  0.2958 -0.5736
  277SOL    HW1 1106   2.019   1.370   2.582 -1.5809 -0.3331 -0.6459
  277SOL    HW2 1107   1.922   1.269   2.643 -4.1561 -1.3553  0.5842
  277SOL     MW 1108   1.941   1.343   2.600 -1.2236 -0.0050 -0.4304
  278SOL     OW 1109   1.438   0.726   1.745 -0.9123  0.1455 -0.2361
  278SOL    HW1 1110   1.405   0.656   1.803 -0.3446 -1.8214 -1.5578
  278SOL    HW2 1111   1.533   0.715   1.763 -1.4837 -3.4150  0.6071
  278SOL     MW 1112   1.447   0.715   1.755 -0.9128 -0.5838 -0.2992
  279SOL     OW 1113   0.538   3.092   2.241  0.1952 -0.2043  0.5085
  279SOL    HW1 1114   0.597   3.031   2.189  3.3899  1.6960 -1.2554
  279SOL    HW2 1115   0.586   3.175   2.248  0.4715  0.7306 -0.6877
  279SOL     MW 1116   0.552   3.095   2.235  0.6532  0.1698  0.1180
  280SOL     OW 1117   1.511   1.133   2.222 -0.1881  0.1072 -0.6211
  280SOL    HW1 1118   1.509   1.050   2.177 -1.0263  0.6761 -2.2581
  280SOL    HW2 1119   1.515   1.110   2.311 -0.4763  0.3485 -1.0973
  280SOL     MW 1120   1.511   1.119   2.228 -0.3367  0.2141 -0.8999
  281SOL     OW 1121   1.274   1.335   2.819 -0.4254 -0.1440 -0.3712
  281SOL    HW1 1122   1.359   1.372   2.792  0.2218 -1.3207  0.0857
  281SOL    HW2 1123   1.287   1.239   2.832 -2.3940 -0.9815  0.2442
  281SOL     MW 1124   1.287   1.327   2.817 -0.5997 -0.4097 -0.2297
  282SOL     OW 1125   1.139   1.294   1.701  0.0750  0.3314 -0.2543
  282SOL    HW1 1126   1.135   1.327   1.608 -0.5142 -3.5123  0.8177
  282SOL    HW2 1127   1.075   1.224   1.702 -0.1939  1.1834  1.8332
  282SOL     MW 1128   1.130   1.289   1.689 -0.0382 -0.0633  0.1626
  283SOL     OW 1129   0.685   1.262   3.096 -0.0618  0.1375  0.5335
  283SOL    HW1 1130   0.780   1.258   3.113  1.5608 -0.9088 -2.8493
  283SOL    HW2 1131   0.649   1.342   3.124  0.3964 -1.1071 -1.7045
  283SOL     MW 1132   0.693   1.272   3.102  0.2127 -0.1648 -0.2081
  284SOL     OW 1133   0.499   0.661   2.331  0.0620 -0.5055  0.4756
  284SOL    HW1 1134   0.512   0.743   2.281 -1.3070 -1.7194 -1.6998
  284SOL    HW2 1135   0.468   0.591   2.262 -2.1747  1.3540 -1.2543
  284SOL     MW 1136   0.496   0.663   2.315 -0.4138 -0.4204 -0.0397
  285SOL     OW 1137   0.810   0.942   2.837 -0.2520 -0.4469  0.0841
  285SOL    HW1 1138   0.875   0.949   2.763  2.3028 -0.0585 -0.4217
  285SOL    HW2 1139   0.763   0.863   2.825  2.8006 -0.5260  2.7779
  285SOL     MW 1140   0.812   0.932   2.826  0.4878 -0.4061  0.3727
  286SOL     OW 1141   1.135   1.464   2.615  0.0220  0.1021  0.4357
  286SOL    HW1 1142   1.197   1.436   2.683  3.2757  0.4474  1.6326
  286SOL    HW2 1143   1.139   1.562   2.600 -0.0773 -0.5554  1.5480
  286SOL     MW 1144   1.143   1.473   2.622  0.4382  0.0609  0.7404
  287SOL     OW 1145   1.003   0.904   0.333 -0.2298 -0.3054 -0.3671
  287SOL    HW1 1146   1.070   0.957   0.377 -1.8280 -0.9572  0.2717
  287SOL    HW2 1147   0.951   0.968   0.288  1.0900 -2.7055 -0.6181
  287SOL     MW 1148   1.005   0.920   0.333 -0.2666 -0.7080 -0.3159
  288SOL     OW 1149   1.552   0.626   2.105  0.3801  0.2905  0.3879
  288SOL    HW1 1150   1.530   0.637   2.202  0.4338 -3.0126  0.0784
  288SOL    HW2 1151   1.548   0.718   2.077 -0.8875 -1.2456  0.0040
  288SOL     MW 1152   1.549   0.640   2.114  0.2199 -0.3480  0.2964
  289SOL     OW 1153   0.941   1.043   2.625  0.0522  0.3911  0.5177
  289SOL    HW1 1154   0.993   0.964   2.583 -0.2413  3.2007 -1.3308
  289SOL    HW2 1155   0.855   1.052   2.579 -1.5648  0.4851 -1.0230
  289SOL     MW 1156   0.937   1.034   2.613 -0.1999  0.7742  0.0705
  290SOL     OW 1157   0.858   0.562   1.525  0.3745 -0.2695  0.7089
  290SOL    HW1 1158   0.932   0.544   1.470  1.0799  1.3507  2.6982
  290SOL    HW2 1159   0.911   0.570   1.604  0.6476 -0.8157  0.6330
  290SOL     MW 1160   0.874   0.560   1.528  0.5036 -0.1278  0.9613
  291SOL     OW 1161   0.140   0.337   0.173 -0.4823  0.2772 -0.9832
  291SOL    HW1 1162   0.236   0.330   0.214  3.2626  1.2695  1.2980
  291SOL    HW2 1163   0.135   0.274   0.103  0.8315  2.2797 -1.3158
  291SOL     MW 1164   0.152   0.328   0.170  0.1852  0.6723 -0.7261
  292SOL     OW 1165   0.981   0.524   0.061  0.1024 -0.3241  0.1269
  292SOL    HW1 1166   0.998   0.605   0.106 -0.3813  2.0494 -1.7138
  292SOL    HW2 1167   1.048   0.461   0.088  0.1460  0.2233  1.4271
  292SOL     MW 1168   0.992   0.526   0.070  0.0444  0.0613  0.0556
  293SOL     OW 1169   0.210   0.096   2.472  0.1725  0.3805  0.4667
  293SOL    HW1 1170   0.144   0.041   2.427  1.1908  1.1813 -3.8862
  293SOL    HW2 1171   0.152   0.157   2.511 -2.4046  2.0736 -3.0709
  293SOL     MW 1172   0.194   0.097   2.471 -0.0332  0.7096 -0.5744
  294SOL     OW 1173   1.491   0.660   2.359 -0.0451 -0.7642 -0.2349
  294SOL    HW1 1174   1.509   0.718   2.433  0.0906  2.5971  3.4500
  294SOL    HW2 1175   1.479   0.575   2.401 -0.7750  1.1883 -0.3587
  294SOL     MW 1176   1.492   0.657   2.374 -0.1235 -0.0631  0.2349
  295SOL     OW 1177   0.903   0.699   2.508  0.0873 -0.2064  0.4769
  295SOL    HW1 1178   0.853   0.648   2.443 -3.4672 -1.8575 -1.7531
  295SOL    HW2 1179   0.844   0.704   2.585 -1.3607 -0.0421  0.2229
  295SOL     MW 1180   0.889   0.693   2.509 -0.5727 -0.4026  0.1492
  296SOL     OW 1181   1.267   0.274   2.067  0.7953  0.4260 -0.1375
  296SOL    HW1 1182   1.339   0.206   2.059 -2.7166  0.7139  0.2742
  296SOL    HW2 1183   1.238   0.271   2.164 -0.7813 -0.1950  1.2482
  296SOL     MW 1184   1.272   0.265   2.078  0.1239  0.3821  0.0996
  297SOL     OW 1185   1.470   0.416   1.553  0.5414 -0.0994  0.3620
  297SOL    HW1 1186   1.490   0.510   1.559  0.7696  0.0735  2.9997
  297SOL    HW2 1187   1.504   0.367   1.626 -0.5925 -0.0132  0.1847
  297SOL     MW 1188   1.477   0.422   1.563  0.4219 -0.0652  0.6866
  298SOL     OW 1189   1.516   0.917   2.061  0.1836 -0.6420 -0.3413
  298SOL    HW1 1190   1.552   0.957   1.981  0.9429 -1.8213 -0.8062
  298SOL    HW2 1191   1.593   0.915   2.120 -0.0811  1.0920  0.7525
  298SOL     MW 1192   1.531   0.922   2.058  0.2488 -0.5688 -0.2583
  299SOL     OW 1193   0.512   1.056   3.088  0.0001 -0.9617  0.1683
  299SOL    HW1 1194   0.565   1.136   3.087  0.4389 -1.2910  1.6821
  299SOL    HW2 1195   0.484   1.039   2.998 -0.1709  0.6490  3.0513
  299SOL     MW 1196   0.515   1.064   3.076  0.0354 -0.7926  0.7484
  300SOL     OW 1197   1.274   1.167   2.505  0.3361 -0.0981 -0.1444
  300SOL    HW1 1198   1.208   1.094   2.505  0.7268  1.1818  0.6046
  300SOL    HW2 1199   1.234   1.235   2.564 -2.2882  1.2576  1.2926
  300SOL     MW 1200   1.260   1.167   2.513  0.0414  0.2497  0.1440
  301SOL     OW 1201   1.347   0.816   0.574  0.1697  0.5558  0.0779
  301SOL    HW1 1202   1.420   0.824   0.634  0.6915  1.5770 -0.8173
  301SOL    HW2 1203   1.269   0.809   0.626 -1.3693  0.7075 -1.8823
  301SOL     MW 1204   1.347   0.816   0.589  0.0354  0.7105 -0.2989
  302SOL     OW 1205   0.105   1.453   2.003  0.0368 -0.3603  0.4313
  302SOL    HW1 1206   0.116   1.405   2.086  0.2628 -0.7035 -0.2361
  302SOL    HW2 1207   0.073   1.537   2.024  1.1989  0.2455  1.2928
  302SOL     MW 1208   0.102   1.458   2.017  0.2200 -0.3257  0.4569
  303SOL     OW 1209   0.409   1.717   2.567  0.1355 -0.7061  0.1330
  303SOL    HW1 1210   0.449   1.751   2.489 -2.9626 -0.3543 -0.5948
  303SOL    HW2 1211   0.335   1.771   2.592 -0.5835  1.6843  2.5364
  303SOL     MW 1212   0.405   1.729   2.560 -0.3681 -0.3443  0.3541
  304SOL     OW 1213   0.639   2.073   2.392  0.2469 -0.2058 -0.3124
  304SOL    HW1 1214   0.689   2.153   2.373 -0.4050  0.4272 -0.4345
  304SOL    HW2 1215   0.711   2.006   2.388  1.0078 -2.7198  2.0893
  304SOL     MW 1216   0.655   2.074   2.389  0.2613 -0.4540 -0.0117
  305SOL     OW 1217   1.084   0.571   0.578  0.0663  0.5245  0.4647
  305SOL    HW1 1218   0.993   0.537   0.557 -2.6198 -2.5131 -0.0750
  305SOL    HW2 1219   1.134   0.505   0.532 -0.4823 -1.2956  1.4153
  305SOL     MW 1220   1.078   0.558   0.570 -0.3605 -0.1164  0.5189
  306SOL     OW 1221   1.217   1.481   0.350  0.5313  0.2565  0.2411
  306SOL    HW1 1222   1.258   1.410   0.396 -1.5467  0.9573 -1.2332
  306SOL    HW2 1223   1.236   1.467   0.260  1.2565  0.2632 -1.0658
  306SOL     MW 1224   1.225   1.470   0.344  0.3528  0.3498 -0.1259
  307SOL     OW 1225   1.375   0.518   1.923  0.6521 -0.6124 -0.4542
  307SOL    HW1 1226   1.325   0.455   1.984 -1.2501 -0.6760  0.8250
  307SOL    HW2 1227   1.449   0.543   1.986 -0.2298 -1.0004  0.6171
  307SOL     MW 1228   1.378   0.513   1.939  0.2848 -0.6720 -0.1441
  308SOL     OW 1229   2.157   0.643   2.659 -0.2588  0.1324 -0.0779
  308SOL    HW1 1230   2.251   0.635   2.701  1.9156 -0.9388  0.5607
  308SOL    HW2 1231   2.128   0.737   2.671 -1.5539 -1.5074 -0.0487
  308SOL     MW 1232   2.166   0.654   2.667 -0.1428 -0.2253  0.0102
  309SOL     OW 1233   0.575   0.439   0.376 -0.6645 -0.6207 -0.0478
  309SOL    HW1 1234   0.604   0.369   0.438  0.7531  1.0598  1.1478
  309SOL    HW2 1235   0.547   0.402   0.293 -1.3302 -1.1118  0.4121
  309SOL     MW 1236   0.575   0.425   0.373 -0.5653 -0.4638  0.1706
  310SOL     OW 1237   0.467   0.530   1.930  0.3509 -0.0259 -0.0434
  310SOL    HW1 1238   0.476   0.477   1.855  0.0328  1.7330  1.0875
  310SOL    HW2 1239   0.518   0.610   1.903 -0.2344  1.7939  0.8630
  310SOL     MW 1240   0.475   0.533   1.917  0.2317  0.4463  0.2254
  311SOL     OW 1241   1.919   0.781   1.974 -0.2502  0.3912 -0.4359
  311SOL    HW1 1242   1.869   0.824   2.049 -1.4229 -2.4725 -2.0481
  311SOL    HW2 1243   1.944   0.692   2.004  0.5402 -0.9197 -1.1158
  311SOL     MW 1244   1.916   0.775   1.988 -0.3006 -0.1596 -0.7383
  312SOL     OW 1245   1.726   2.500   0.018 -0.4766  0.0611 -0.0261
  312SOL    HW1 1246   1.786   2.508   0.097 -0.4348 -3.1762  0.6384
  312SOL    HW2 1247   1.640   2.544   0.043  0.8378  0.7571 -1.0258
  312SOL     MW 1248   1.723   2.507   0.032 -0.2976 -0.2742 -0.0703
  313SOL     OW 1249   0.121   1.188   2.936  0.0369 -0.2460 -0.1443
  313SOL    HW1 1250   0.177   1.162   3.013 -1.0569 -0.2241  1.1744
  313SOL    HW2 1251   0.183   1.225   2.877  2.6550  0.6156 -0.3314
  313SOL     MW 1252   0.137   1.190   2.938  0.2380 -0.1294  0.0050
  314SOL     OW 1253   2.135   3.000   2.987 -0.3227 -0.6042  0.6220
  314SOL    HW1 1254   2.083   3.027   2.915  3.2419 -0.4755 -1.7137
  314SOL    HW2 1255   2.139   3.078   3.036  1.5574  0.0823 -0.0508
  314SOL     MW 1256   2.129   3.014   2.984  0.3957 -0.4967  0.2250
  315SOL     OW 1257   1.521   1.923   3.046 -0.5726 -1.1689  0.4927
  315SOL    HW1 1258   1.453   1.979   3.088  0.0579  0.1640 -2.1515
  315SOL    HW2 1259   1.571   1.979   2.979  2.0699  0.7815 -2.5842
  315SOL     MW 1260   1.519   1.938   3.043 -0.1408 -0.7357 -0.2621
  316SOL     OW 1261   1.254   0.638   2.702  0.0675 -0.7012  0.4762
  316SOL    HW1 1262   1.336   0.649   2.747 -0.7611  0.2081 -1.3098
  316SOL    HW2 1263   1.180   0.636   2.763  2.4548  0.7137 -0.1969
  316SOL     MW 1264   1.255   0.639   2.716  0.2731 -0.3946  0.1517
  317SOL     OW 1265   0.666   1.431   2.628  0.1664  0.2813 -0.0214
  317SOL    HW1 1266   0.702   1.346   2.654  1.9587  0.3891 -2.6506
  317SOL    HW2 1267   0.720   1.462   2.545 -2.7636 -1.5088  0.4126
  317SOL     MW 1268   0.678   1.424   2.621  0.0163  0.0593 -0.3110
  318SOL     OW 1269   1.352   0.370   2.909  0.1298  0.5229  0.3375
  318SOL    HW1 1270   1.264   0.418   2.895 -0.7655 -1.2200  2.5518
  318SOL    HW2 1271   1.421   0.426   2.876  0.3988 -1.0860 -3.9793
  318SOL     MW 1272   1.349   0.384   2.903  0.0472  0.0806  0.0601
  319SOL     OW 1273   0.821   0.474   2.822  0.4709  0.5667 -0.2303
  319SOL    HW1 1274   0.816   0.429   2.738 -1.5713 -0.4064 -1.0230
  319SOL    HW2 1275   0.758   0.439   2.885  1.1154 -0.1464  1.2227
  319SOL     MW 1276   0.812   0.464   2.820  0.2865  0.3443 -0.1432
  320SOL     OW 1277   1.052   1.347   2.009  0.2738  0.5335 -0.9793
  320SOL    HW1 1278   1.118   1.283   2.027 -0.9835  4.3695 -3.0644
  320SOL    HW2 1279   1.089   1.410   1.947 -1.7668  0.2981 -0.8616
  320SOL     MW 1280   1.066   1.347   2.003 -0.1613  1.0086 -1.2389
  321SOL     OW 1281   1.062   0.986   3.062 -0.7190  0.5381  0.3895
  321SOL    HW1 1282   0.993   0.962   3.000  0.2931  1.2056  0.0086
  321SOL    HW2 1283   1.115   0.906   3.068 -0.3667 -0.7318 -1.5844
  321SOL     MW 1284   1.059   0.972   3.055 -0.5390  0.4586  0.0788
  322SOL     OW 1285   1.178   0.846   1.730  0.2340 -0.5015 -0.3376
  322SOL    HW1 1286   1.272   0.817   1.717  1.2654  0.1638 -0.3415
  322SOL    HW2 1287   1.186   0.884   1.823  2.7984  0.0398  0.4465
  322SOL     MW 1288   1.192   0.847   1.740  0.7084 -0.3423 -0.2347
  323SOL     OW 1289   1.171   1.520   1.854  0.0680  0.1442 -0.7308
  323SOL    HW1 1290   1.171   1.448   1.793  1.7197  2.0055  2.1440
  323SOL    HW2 1291   1.097   1.576   1.818 -0.5249  2.3012 -0.0031
  323SOL     MW 1292   1.161   1.518   1.841  0.2077  0.6744 -0.2555
  324SOL     OW 1293   1.524   1.069   2.486 -0.1198  0.6835  0.3186
  324SOL    HW1 1294   1.426   1.097   2.490 -2.4966 -0.9160  0.1111
  324SOL    HW2 1295   1.576   1.138   2.530 -1.1180 -3.4492  2.1450
  324SOL     MW 1296   1.518   1.082   2.492 -0.5651 -0.0728  0.5322
  325SOL     OW 1297   1.096   0.500   2.904 -0.1490 -0.3622 -0.2695
  325SOL    HW1 1298   1.077   0.525   3.000 -1.1306  2.4140  2.2258
  325SOL    HW2 1299   1.013   0.494   2.859  0.6842  1.6617 -0.3462
  325SOL     MW 1300   1.083   0.502   2.911 -0.1686  0.2711  0.0496
  326SOL     OW 1301   0.468   1.344   2.231  0.7183  0.2234  0.4783
  326SOL    HW1 1302   0.508   1.310   2.147 -1.7702  1.0266 -0.8220
  326SOL    HW2 1303   0.480   1.440   2.228  0.0218 -0.0763  0.6641
  326SOL     MW 1304   0.475   1.353   2.219  0.2981  0.2899  0.3313
  327SOL     OW 1305   1.865   0.908   2.429 -0.5044 -0.1919  0.6854
  327SOL    HW1 1306   1.809   0.833   2.467 -0.1351  1.7119  2.8930
  327SOL    HW2 1307   1.957   0.886   2.418 -1.9584  1.5092  2.6220
  327SOL     MW 1308   1.870   0.895   2.432 -0.6475  0.2837  1.2322
  328SOL     OW 1309   0.190   1.293   2.209 -0.0178  1.1930 -0.5231
  328SOL    HW1 1310   0.169   1.221   2.156 -1.5067  2.1159 -1.1738
  328SOL    HW2 1311   0.286   1.306   2.193  0.4417 -0.6313 -1.0800
  328SOL     MW 1312   0.200   1.285   2.200 -0.1536  1.0741 -0.6824
  329SOL     OW 1313   0.115   0.133   1.434 -0.4877 -0.2655  0.5882
  329SOL    HW1 1314   0.077   0.174   1.522 -1.9735  1.4169  2.2450
  329SOL    HW2 1315   0.198   0.178   1.418  2.9055  0.8261 -1.0755
  329SOL     MW 1316   0.121   0.145   1.444 -0.2360  0.1005  0.5873
  330SOL     OW 1317   0.349   2.985   2.058 -0.3166  0.3740 -0.0620
  330SOL    HW1 1318   0.392   3.037   2.122  3.3910 -0.2481 -0.1878
  330SOL    HW2 1319   0.272   2.940   2.109 -0.3409 -2.4810  0.5983
  330SOL     MW 1320   0.344   2.986   2.073  0.1694 -0.0848  0.0086
  331SOL     OW 1321   0.796   1.215   2.271 -0.9780 -0.2700  0.5202
  331SOL    HW1 1322   0.735   1.220   2.192 -0.5381  0.3101 -0.3288
  331SOL    HW2 1323   0.809   1.303   2.309  1.1132  2.0712  0.6476
  331SOL     MW 1324   0.790   1.228   2.265 -0.6441  0.1154  0.4250
  332SOL     OW 1325   1.345   1.722   2.954  0.1018 -0.8138  0.2461
  332SOL    HW1 1326   1.354   1.726   2.860 -0.8854  0.0150  0.6208
  332SOL    HW2 1327   1.388   1.809   2.984 -2.1168  1.0779  0.1168
  332SOL     MW 1328   1.352   1.734   2.946 -0.3212 -0.4549  0.2784
  333SOL     OW 1329   1.724   1.465   3.001 -0.0936  0.4124  0.2117
  333SOL    HW1 1330   1.815   1.467   3.036  0.9097 -4.8688 -0.2462
  333SOL    HW2 1331   1.678   1.433   3.080 -1.1115  0.2066  1.4436
  333SOL     MW 1332   1.730   1.461   3.016 -0.0955 -0.3115  0.3138
  334SOL     OW 1333   1.318   3.070   2.628  0.1374 -0.4275 -0.0375
  334SOL    HW1 1334   1.230   3.071   2.670  1.6720  1.7297 -1.5030
  334SOL    HW2 1335   1.337   3.166   2.632 -1.4859  2.8585 -0.7956
  334SOL     MW 1336   1.309   3.083   2.634  0.1257  0.2907 -0.3309
  335SOL     OW 1337   1.244   0.761   3.052 -0.3249  0.3310 -0.1293
  335SOL    HW1 1338   1.298   0.750   3.127 -2.0413  1.1911  0.4904
  335SOL    HW2 1339   1.286   0.805   2.977 -0.9410 -0.2996 -0.1322
  335SOL     MW 1340   1.256   0.765   3.052 -0.6327  0.3613 -0.0479
  336SOL     OW 1341   0.889   1.118   1.913 -0.5215 -0.0387  0.1184
  336SOL    HW1 1342   0.903   1.207   1.958  0.8685  0.3761 -0.1521
  336SOL    HW2 1343   0.965   1.072   1.949  0.1797 -1.1898  0.0705
  336SOL     MW 1344   0.901   1.123   1.924 -0.2456 -0.1358  0.0764
  337SOL     OW 1345   0.504   1.792   2.813  0.4530 -0.3628 -0.7752
  337SOL    HW1 1346   0.457   1.764   2.733  1.6755 -0.4100  1.1085
  337SOL    HW2 1347   0.587   1.748   2.792 -0.0211  0.1224  2.3438
  337SOL     MW 1348   0.509   1.782   2.800  0.5517 -0.3050 -0.1151
  338SOL     OW 1349   1.128   0.847   2.549 -0.0271  0.1207 -0.6729
  338SOL    HW1 1350   1.042   0.803   2.540  1.1964 -2.3421 -0.8041
  338SOL    HW2 1351   1.172   0.791   2.612 -2.7510 -2.4256 -0.4486
  338SOL     MW 1352   1.122   0.834   2.556 -0.2250 -0.5402 -0.6606
  339SOL     OW 1353   1.599   1.059   1.829 -0.2107 -0.8705 -0.3781
  339SOL    HW1 1354   1.521   1.039   1.777  0.9778 -0.4525  0.4280
  339SOL    HW2 1355   1.577   1.148   1.865  1.0556  2.4016  1.1765
  339SOL     MW 1356   1.586   1.068   1.827  0.1132 -0.3836 -0.0667
  340SOL     OW 1357   1.358   1.546   0.087  0.2211 -0.4551 -0.3496
  340SOL    HW1 1358   1.382   1.621   0.035 -0.7831 -1.3002  0.3399
  340SOL    HW2 1359   1.442   1.510   0.104 -1.9211 -0.3084 -0.4957
  340SOL     MW 1360   1.372   1.551   0.083 -0.1941 -0.5473 -0.2779
  341SOL     OW 1361   0.132   1.345   2.665 -0.2246  0.5592 -0.1752
  341SOL    HW1 1362   0.214   1.364   2.622 -0.4298 -1.1368  0.0526
  341SOL    HW2 1363   0.080   1.327   2.587  2.2655 -1.9016 -0.0889
  341SOL     MW 1364   0.136   1.345   2.649  0.0769  0.0107 -0.1338
  342SOL     OW 1365   1.437   0.317   0.066  0.3560 -0.0193 -0.0914
  342SOL    HW1 1366   1.495   0.387   0.095  0.1525 -0.6492 -0.7970
  342SOL    HW2 1367   1.405   0.349  -0.018  1.1717 -2.6575  0.6479
  342SOL     MW 1368   1.440   0.330   0.058  0.4368 -0.4505 -0.0870
  343SOL     OW 1369   0.233   0.286   2.240  0.0060 -0.0403 -0.4211
  343SOL    HW1 1370   0.228   0.226   2.314  0.4806  2.8839  0.6436
  343SOL    HW2 1371   0.171   0.244   2.172  0.6349 -0.1229 -3.2590
  343SOL     MW 1372   0.224   0.272   2.241  0.1516  0.3346 -0.6550
  344SOL     OW 1373   1.680   2.073   0.253  0.1017 -0.0009  0.1130
  344SOL    HW1 1374   1.686   2.128   0.177  1.1827 -0.9490  2.1058
  344SOL    HW2 1375   1.603   2.018   0.244 -2.9774 -1.8780  0.5021
  344SOL     MW 1376   1.671   2.073   0.242 -0.1619 -0.3737  0.4273
  345SOL     OW 1377   0.709   1.588   2.380  0.4905 -0.1451  0.0199
  345SOL    HW1 1378   0.624   1.617   2.351  2.6398 -0.7532  0.2138
  345SOL    HW2 1379   0.755   1.553   2.298  0.3461  2.4767  0.3110
  345SOL     MW 1380   0.704   1.587   2.366  0.7551  0.1206  0.0839
  346SOL     OW 1381   1.711   1.107   0.013  0.4081  0.7713  0.4825
  346SOL    HW1 1382   1.808   1.108   0.030  0.4111  0.3850 -1.8917
  346SOL    HW2 1383   1.661   1.056   0.080 -0.4365  3.0336  2.8408
  346SOL     MW 1384   1.717   1.100   0.024  0.2970  1.0189  0.4804
  347SOL     OW 1385   1.229   0.705   2.344  0.7633  0.3003 -0.2661
  347SOL    HW1 1386   1.320   0.681   2.345 -0.2526  2.2309 -0.2537
  347SOL    HW2 1387   1.223   0.761   2.426  1.3883  0.3103 -1.5630
  347SOL     MW 1388   1.240   0.709   2.355  0.7118  0.5563 -0.4356
  348SOL     OW 1389   1.311   2.602   1.884  0.0783 -0.5027  0.1700
  348SOL    HW1 1390   1.354   2.526   1.915 -2.3436  2.3924  1.1633
  348SOL    HW2 1391   1.361   2.674   1.917  1.5760 -0.4369  0.2788
  348SOL     MW 1392   1.323   2.601   1.893 -0.0437 -0.1120  0.3154
  349SOL     OW 1393   1.418   0.212   2.662  0.7598  0.0192  1.0300
  349SOL    HW1 1394   1.371   0.280   2.716 -0.4782  3.1140 -2.8970
  349SOL    HW2 1395   1.462   0.161   2.729  0.1447  0.3347  0.4417
  349SOL     MW 1396   1.417   0.214   2.678  0.5153  0.4691  0.4343
  350SOL     OW 1397   1.852   0.680   2.626  0.0704 -0.2922 -0.6149
  350SOL    HW1 1398   1.816   0.598   2.605  1.2900  0.4601  1.4566
  350SOL    HW2 1399   1.949   0.679   2.632  2.2934 -0.2381 -2.2012
  350SOL     MW 1400   1.860   0.669   2.624  0.5246 -0.1858 -0.5509
  351SOL     OW 1401   0.087   0.954   1.624  0.0906 -0.1036  0.2244
  351SOL    HW1 1402  -0.001   0.985   1.650 -2.5798  1.2902  0.5422
  351SOL    HW2 1403   0.133   1.037   1.630  1.0628 -0.6001 -1.8176
  351SOL     MW 1404   0.081   0.969   1.629 -0.1335  0.0148 -0.0031
  352SOL     OW 1405   0.728   1.652   2.772 -0.5048 -0.3298 -0.2510
  352SOL    HW1 1406   0.728   1.622   2.860 -2.1881  0.9304  1.2648
  352SOL    HW2 1407   0.700   1.577   2.720  0.7651 -0.3703  2.6546
  352SOL     MW 1408   0.724   1.639   2.777 -0.5593 -0.1689  0.3324
  353SOL     OW 1409   2.980   2.430   2.720  0.1402  0.3942  0.2816
  353SOL    HW1 1410   3.069   2.409   2.683  0.4117  0.8623 -0.6282
  353SOL    HW2 1411   2.954   2.510   2.677  1.5469  2.0950  1.3001
  353SOL     MW 1412   2.989   2.438   2.710  0.3617  0.6804  0.2959
  354SOL     OW 1413   0.416   2.402   0.845 -0.2818  0.3838 -0.0439
  354SOL    HW1 1414   0.444   2.362   0.926 -2.5792 -1.6829  0.3669
  354SOL    HW2 1415   0.343   2.340   0.826  0.5335  0.6152 -3.4744
  354SOL     MW 1416   0.410   2.388   0.853 -0.4774  0.1417 -0.4423
  355SOL     OW 1417   0.068   2.172   0.385 -0.1626 -0.1448  0.2792
  355SOL    HW1 1418  -0.019   2.128   0.373 -0.4559  0.2447 -1.8173
  355SOL    HW2 1419   0.063   2.201   0.472  0.2792  1.6400 -1.3590
  355SOL     MW 1420   0.056   2.170   0.395 -0.1430  0.1421 -0.2135
  356SOL     OW 1421   0.850   2.956   1.021 -0.1043 -0.3496 -0.0636
  356SOL    HW1 1422   0.908   2.944   0.940  0.2213  2.2914 -3.0933
  356SOL    HW2 1423   0.773   2.900   1.015  3.3902  0.1919 -0.0023
  356SOL     MW 1424   0.848   2.947   1.009  0.3997  0.0703 -0.4552
  357SOL     OW 1425   1.744   2.903   0.370 -0.5073  0.5347  0.0375
  357SOL    HW1 1426   1.695   2.841   0.419  2.3555  0.4151 -2.2486
  357SOL    HW2 1427   1.831   2.859   0.361 -3.0804  0.6035  2.5055
  357SOL     MW 1428   1.749   2.889   0.376 -0.4691  0.5280  0.0615
  358SOL     OW 1429   0.438   0.140   1.060  0.5078 -0.3737  0.1224
  358SOL    HW1 1430   0.534   0.122   1.053  2.2112 -1.6833 -0.4408
  358SOL    HW2 1431   0.414   0.149   0.971  2.8887 -1.3292  1.2167
  358SOL     MW 1432   0.448   0.139   1.047  1.0467 -0.6725  0.1925
  359SOL     OW 1433   0.978   2.872   1.820 -0.1724  0.1091 -0.3336
  359SOL    HW1 1434   0.961   2.790   1.869  0.5118 -1.9397 -0.9021
  359SOL    HW2 1435   1.020   2.830   1.744  0.0848  1.0869  3.0382
  359SOL     MW 1436   0.981   2.855   1.816 -0.0482 -0.0322  0.0363
  360SOL     OW 1437   0.637   2.791   1.000 -0.5378 -0.3438  0.1559
  360SOL    HW1 1438   0.651   2.752   0.913  1.4655  1.4403 -1.5549
  360SOL    HW2 1439   0.606   2.714   1.040 -0.2941 -1.6121  0.4819
  360SOL     MW 1440   0.635   2.776   0.994 -0.2413 -0.2757 -0.0268
  361SOL     OW 1441   0.180   2.728   1.351  0.4829 -0.0080 -0.1096
  361SOL    HW1 1442   0.154   2.804   1.414 -0.4267  1.0606  2.6962
  361SOL    HW2 1443   0.274   2.707   1.353 -3.1585 -1.9271  0.2542
  361SOL     MW 1444   0.189   2.735   1.359 -0.1175 -0.1203  0.3086
  362SOL     OW 1445   1.496   2.389   0.600 -0.2065  0.5894  0.0650
  362SOL    HW1 1446   1.483   2.310   0.661 -1.5499  0.9053  0.0591
  362SOL    HW2 1447   1.502   2.456   0.665  1.8373 -1.0893 -0.7742
  362SOL     MW 1448   1.495   2.388   0.617 -0.1141  0.4096 -0.0465
  363SOL     OW 1449   0.259   3.044   0.746  0.2585 -0.2074 -0.2706
  363SOL    HW1 1450   0.265   2.981   0.816 -0.0076 -2.5823  1.1019
  363SOL    HW2 1451   0.166   3.069   0.748  1.1609 -0.2589  2.2708
  363SOL     MW 1452   0.248   3.039   0.755  0.3425 -0.5275  0.2458
  364SOL     OW 1453   0.703   0.166   0.245  0.4111 -0.1810  0.6901
  364SOL    HW1 1454   0.656   0.091   0.210 -0.0276 -1.5657 -0.8245
  364SOL    HW2 1455   0.671   0.245   0.190  0.7726  0.8437  1.9355
  364SOL     MW 1456   0.692   0.167   0.233  0.4009 -0.2285  0.6546
  365SOL     OW 1457   0.940   1.972   1.134 -0.6099 -0.3949  0.0210
  365SOL    HW1 1458   0.894   2.052   1.100  1.6495 -0.8289  0.0102
  365SOL    HW2 1459   0.915   1.901   1.072 -0.0477  1.3274  0.8864
  365SOL     MW 1460   0.931   1.973   1.121 -0.2376 -0.2249  0.1338
  366SOL     OW 1461   2.864   2.609   1.007  0.1881 -0.6132 -0.4750
  366SOL    HW1 1462   2.927   2.597   1.081  1.4119 -0.6116  1.8281
  366SOL    HW2 1463   2.925   2.634   0.929 -0.2176  0.4316  2.5505
  366SOL     MW 1464   2.881   2.611   1.006  0.2961 -0.4751  0.2280
  367SOL     OW 1465   1.270   2.799   0.873  0.1412 -0.5216 -0.1843
  367SOL    HW1 1466   1.187   2.844   0.877 -1.2880  0.7745 -0.1733
  367SOL    HW2 1467   1.260   2.723   0.808  0.0242 -0.1857  2.5838
  367SOL     MW 1468   1.258   2.795   0.865 -0.0628 -0.3062  0.1823
  368SOL     OW 1469   1.671   0.472   0.671  0.5326  0.2880  0.2130
  368SOL    HW1 1470   1.739   0.431   0.619  0.7067  0.4804  0.1933
  368SOL    HW2 1471   1.680   0.566   0.650 -0.4470 -1.3944 -0.4668
  368SOL     MW 1472   1.681   0.479   0.661  0.4264  0.0914  0.1207
  369SOL     OW 1473   0.118   2.490   1.710  0.4930 -0.2240 -0.3454
  369SOL    HW1 1474   0.207   2.466   1.726 -0.0036 -0.1126 -1.2573
  369SOL    HW2 1475   0.100   2.578   1.749  0.1689  1.9939 -1.1351
  369SOL     MW 1476   0.127   2.498   1.717  0.3847  0.0833 -0.5699
  370SOL     OW 1477   0.689   0.051   0.980 -0.0881  0.0972  0.2949
  370SOL    HW1 1478   0.738   0.133   0.970 -2.5714  0.5607  1.3390
  370SOL    HW2 1479   0.758  -0.014   1.006 -2.1036  0.2442  2.3542
  370SOL     MW 1480   0.704   0.053   0.982 -0.6817  0.1777  0.7044
  371SOL     OW 1481   1.315   2.953   1.482 -0.1528  0.5047  0.1146
  371SOL    HW1 1482   1.262   2.877   1.448  2.1969  0.4372  0.3445
  371SOL    HW2 1483   1.312   3.021   1.415 -0.4628 -1.4725  1.4191
  371SOL     MW 1484   1.307   2.952   1.468  0.1163  0.2349  0.3170
  372SOL     OW 1485   0.841   2.281   0.500 -0.5569 -0.0298 -0.5633
  372SOL    HW1 1486   0.804   2.191   0.497 -0.7297  0.6550  0.2146
  372SOL    HW2 1487   0.804   2.331   0.426  0.9724  2.3771 -1.8432
  372SOL     MW 1488   0.831   2.275   0.490 -0.3779  0.3781 -0.6296
  373SOL     OW 1489   2.846   3.023   1.399 -0.6173 -0.7369 -0.0025
  373SOL    HW1 1490   2.908   2.977   1.344  0.2919  1.6641 -1.7541
  373SOL    HW2 1491   2.838   3.115   1.357 -0.0543 -0.5456 -0.5375
  373SOL     MW 1492   2.853   3.029   1.386 -0.4231 -0.3949 -0.3042
  374SOL     OW 1493   1.525   0.526   0.264  0.1413 -0.8716  0.1469
  374SOL    HW1 1494   1.624   0.529   0.245  1.7157  0.7593 -3.9101
  374SOL    HW2 1495   1.518   0.463   0.340  0.4590  2.0539 -0.1300
  374SOL     MW 1496   1.537   0.518   0.272  0.3910 -0.2704 -0.4249
  375SOL     OW 1497   1.125   2.121   2.323 -0.4486 -0.1105 -0.0449
  375SOL    HW1 1498   1.124   2.120   2.419  0.1123 -0.0084 -3.5615
  375SOL    HW2 1499   1.185   2.052   2.304  0.3544  2.6106 -0.0653
  375SOL     MW 1500   1.133   2.111   2.333 -0.2686  0.2620 -0.5116
  376SOL     OW 1501   0.680   2.538   0.102  0.0870  0.5284 -0.4672
  376SOL    HW1 1502   0.740   2.481   0.159  0.0030 -0.5634 -3.1642
  376SOL    HW2 1503   0.655   2.491   0.026 -2.9532  3.7316 -2.9257
  376SOL     MW 1504   0.685   2.525   0.099 -0.3252  0.8070 -1.1474
  377SOL     OW 1505   1.295   1.980   0.849  0.2656 -0.5198 -0.1740
  377SOL    HW1 1506   1.204   1.958   0.822  0.2525 -0.2384 -0.6137
  377SOL    HW2 1507   1.300   1.947   0.941  0.2165  2.4020 -0.2371
  377SOL     MW 1508   1.284   1.972   0.858  0.2574 -0.0972 -0.2404
  378SOL     OW 1509   1.019   2.778   1.556  0.4244  0.0623  0.2544
  378SOL    HW1 1510   0.967   2.694   1.561  0.6892 -0.2545  0.5724
  378SOL    HW2 1511   0.956   2.840   1.507 -1.9838 -1.4282 -1.5969
  378SOL     MW 1512   1.003   2.775   1.550  0.1416 -0.1762  0.0521
  379SOL     OW 1513   1.103   1.801   2.268  0.0586  0.1302 -0.1290
  379SOL    HW1 1514   1.013   1.783   2.254  2.9697 -0.9879 -1.1318
  379SOL    HW2 1515   1.153   1.725   2.228 -1.6479 -1.8473  1.1477
  379SOL     MW 1516   1.098   1.788   2.261  0.2175 -0.2783 -0.0928
  380SOL     OW 1517   0.869   0.130   1.538  0.7861 -0.6843  0.2756
  380SOL    HW1 1518   0.924   0.108   1.463 -0.2275 -5.4542 -1.1573
  380SOL    HW2 1519   0.930   0.132   1.607 -2.7738  1.1047  0.3898
  380SOL     MW 1520   0.885   0.127   1.537  0.1827 -1.0776  0.1016
  381SOL     OW 1521   0.798   1.961   0.771  0.1828 -0.1718  0.1123
  381SOL    HW1 1522   0.899   1.963   0.766  0.1630 -1.8999  0.7302
  381SOL    HW2 1523   0.773   2.024   0.837 -0.2207 -0.3775 -2.9483
  381SOL     MW 1524   0.808   1.970   0.779  0.1270 -0.4270 -0.2100
  382SOL     OW 1525   0.727   0.057   0.718  0.2711  0.7745 -0.0784
  382SOL    HW1 1526   0.700   0.052   0.812 -0.6751  0.3226  1.8878
  382SOL    HW2 1527   0.686  -0.029   0.689 -1.1556 -1.5032  0.0667
  382SOL     MW 1528   0.718   0.045   0.727 -0.0420  0.4144  0.2002
  383SOL     OW 1529   0.421   0.046   0.376 -0.7689 -0.0904 -0.2286
  383SOL    HW1 1530   0.492  -0.024   0.362 -0.2782 -0.9620 -0.8348
  383SOL    HW2 1531   0.347  -0.012   0.397  0.7102  1.0484  2.2916
  383SOL     MW 1532   0.420   0.029   0.377 -0.5090 -0.0551  0.0239
  384SOL     OW 1533   0.619   2.907   0.645  0.2975 -0.0150  0.4048
  384SOL    HW1 1534   0.643   2.820   0.675  0.1638  3.6670 -0.8120
  384SOL    HW2 1535   0.522   2.899   0.638 -0.3331  0.7824 -0.1633
  384SOL     MW 1536   0.609   2.895   0.648  0.1966  0.5760  0.1693
  385SOL     OW 1537   1.321   2.070   1.551 -0.1324  0.2812 -0.5478
  385SOL    HW1 1538   1.390   2.089   1.616  0.6557 -0.3754  0.7631
  385SOL    HW2 1539   1.271   1.992   1.581  1.0538  0.2157 -1.5609
  385SOL     MW 1540   1.323   2.062   1.564  0.1281  0.1859 -0.5085
  386SOL     OW 1541   1.356   0.363   0.816 -0.1890 -0.6268 -0.2555
  386SOL    HW1 1542   1.273   0.324   0.804  2.1038  0.1877 -0.0948
  386SOL    HW2 1543   1.369   0.368   0.911  1.4996  0.6297  0.8784
  386SOL     MW 1544   1.347   0.359   0.827  0.3363 -0.3535 -0.0847
  387SOL     OW 1545   0.831   2.204   1.482  0.4815  0.6212 -0.5918
  387SOL    HW1 1546   0.894   2.260   1.432 -2.3511  0.2216 -1.0961
  387SOL    HW2 1547   0.873   2.112   1.482 -0.1989  0.2863  2.2986
  387SOL     MW 1548   0.845   2.199   1.475  0.0180  0.5243 -0.2770
  388SOL     OW 1549   1.515   2.788   1.244  0.9461 -0.3234  0.8806
  388SOL    HW1 1550   1.445   2.739   1.200 -0.7385  1.2989  0.6932
  388SOL    HW2 1551   1.592   2.758   1.189 -0.3417  0.4354 -1.3042
  388SOL     MW 1552   1.516   2.778   1.231  0.5539 -0.0092  0.5676
  389SOL     OW 1553   0.360   0.115   3.095  0.1506 -0.7897  0.1774
  389SOL    HW1 1554   0.419   0.102   3.018  0.9096  0.5288  0.5095
  389SOL    HW2 1555   0.283   0.162   3.055 -2.9123 -0.8817 -3.4243
  389SOL     MW 1556   0.358   0.119   3.080 -0.1534 -0.6279 -0.2540
  390SOL     OW 1557   1.342   0.019   0.619 -0.0238  0.1299  0.3872
  390SOL    HW1 1558   1.423   0.063   0.592  1.5250  2.3898  1.5868
  390SOL    HW2 1559   1.336   0.012   0.716 -2.6939 -1.5382  0.4164
  390SOL     MW 1560   1.352   0.024   0.628 -0.1718  0.2080  0.5494
  391SOL     OW 1561   0.301   2.269   1.492 -0.4169 -0.2557  0.6540
  391SOL    HW1 1562   0.237   2.197   1.502 -1.2668 -1.2553 -0.6862
  391SOL    HW2 1563   0.236   2.338   1.460  1.8810 -0.5254  1.8260
  391SOL     MW 1564   0.284   2.268   1.489 -0.2258 -0.4231  0.6318
  392SOL     OW 1565   1.988   2.220   0.355  0.0430 -0.2391  0.8033
  392SOL    HW1 1566   1.926   2.171   0.403 -0.0926 -0.9055  1.2306
  392SOL    HW2 1567   2.073   2.189   0.378 -0.2855  1.8751 -0.0717
  392SOL     MW 1568   1.991   2.210   0.364 -0.0182 -0.0481  0.7442
  393SOL     OW 1569   0.237   2.988   2.806  0.3153  0.1386 -0.0258
  393SOL    HW1 1570   0.286   3.071   2.795 -0.8541 -2.6465  0.4357
  393SOL    HW2 1571   0.144   3.004   2.770 -2.0994 -0.3795  1.3874
  393SOL     MW 1572   0.231   3.001   2.800 -0.1576 -0.2972  0.2215
  394SOL     OW 1573   0.865   1.678   1.463  0.2835  0.4147  0.2506
  394SOL    HW1 1574   0.826   1.677   1.550  0.1639  2.0929  0.1539
  394SOL    HW2 1575   0.902   1.765   1.451  0.0891  0.2552  1.0341
  394SOL     MW 1576   0.864   1.689   1.473  0.2420  0.6151  0.3412
  395SOL     OW 1577   0.936   2.859   2.610  0.9429 -0.2328 -0.0754
  395SOL    HW1 1578   0.979   2.932   2.654  1.1081 -1.9260  3.3044
  395SOL    HW2 1579   1.014   2.798   2.587  0.0145  1.4965 -0.7893
  395SOL     MW 1580   0.952   2.861   2.613  0.8422 -0.2280  0.2763
  396SOL     OW 1581   0.806   1.847   2.367  0.1208 -0.3178 -0.3433
  396SOL    HW1 1582   0.846   1.859   2.451  4.3641  0.8261 -1.9761
  396SOL    HW2 1583   0.771   1.760   2.379  2.0266  0.3070 -0.3123
  396SOL     MW 1584   0.806   1.837   2.380  0.9321 -0.0844 -0.5547
  397SOL     OW 1585   1.010   2.344   1.353 -0.1324 -0.1944  0.0634
  397SOL    HW1 1586   1.043   2.383   1.271  2.4521  2.0549  3.9756
  397SOL    HW2 1587   1.087   2.349   1.410 -0.2623  1.3142  2.0092
  397SOL     MW 1588   1.025   2.350   1.350  0.1915  0.3014  0.8363
  398SOL     OW 1589   0.658   2.654   0.766 -0.5838 -0.6590  0.8027
  398SOL    HW1 1590   0.612   2.588   0.722  2.0235  0.2118 -2.4289
  398SOL    HW2 1591   0.749   2.625   0.736  0.7202 -5.8280  0.7661
  398SOL     MW 1592   0.664   2.641   0.756 -0.0677 -1.2261  0.3715
  399SOL     OW 1593   0.290   2.005   0.437  0.0978 -0.2279  0.3220
  399SOL    HW1 1594   0.220   2.071   0.417 -0.6871  2.1347 -3.2984
  399SOL    HW2 1595   0.364   2.018   0.368  0.8525 -2.7718 -0.2051
  399SOL     MW 1596   0.291   2.015   0.425  0.0938 -0.2518 -0.2252
  400SOL     OW 1597   0.581   1.831   0.143 -0.2706 -0.1190  0.1224
  400SOL    HW1 1598   0.570   1.922   0.150  1.1849 -1.4753  1.7156
  400SOL    HW2 1599   0.540   1.794   0.223  0.0437  0.1048 -2.1186
  400SOL     MW 1600   0.574   1.838   0.155 -0.0371 -0.2685  0.0370
  401SOL     OW 1601   0.924   2.066   0.203 -0.3990 -0.0268  0.2988
  401SOL    HW1 1602   0.927   1.977   0.199 -1.9259  3.0801  1.4882
  401SOL    HW2 1603   1.002   2.093   0.257  0.2182  0.5052 -1.7117
  401SOL     MW 1604   0.934   2.058   0.209 -0.5190  0.4533  0.1904
  402SOL     OW 1605   0.692   2.935   1.695 -0.5925  0.0070 -0.0988
  402SOL    HW1 1606   0.732   2.877   1.765  2.1561  0.9862  0.9641
  402SOL    HW2 1607   0.736   3.020   1.710 -0.1272  2.2417 -2.2459
  402SOL     MW 1608   0.703   2.939   1.706 -0.1684  0.4310 -0.2419
  403SOL     OW 1609   0.053   0.400   0.449 -0.1364 -1.0087  0.0356
  403SOL    HW1 1610   0.130   0.441   0.485  0.1542 -1.4038  1.4065
  403SOL    HW2 1611   0.078   0.387   0.354 -0.9866  1.4533  0.4442
  403SOL     MW 1612   0.067   0.404   0.441 -0.2102 -0.7360  0.2704
  404SOL     OW 1613   0.997   2.885   0.797 -0.5020 -0.6553  0.1590
  404SOL    HW1 1614   1.054   2.826   0.743 -0.4498  1.6624  1.4266
  404SOL    HW2 1615   1.017   2.975   0.761 -0.5703  0.0108 -0.0181
  404SOL     MW 1616   1.008   2.889   0.785 -0.5042 -0.2616  0.3029
  405SOL     OW 1617   0.488   2.462   1.567  0.1307 -0.2778  0.3987
  405SOL    HW1 1618   0.465   2.525   1.493  1.2931 -3.8882  1.3309
  405SOL    HW2 1619   0.443   2.379   1.533 -2.9163 -1.2073 -0.7662
  405SOL     MW 1620   0.479   2.459   1.553 -0.1179 -0.8768  0.3680
  406SOL     OW 1621   0.410   2.309   1.100 -0.1095 -0.2837 -0.5069
  406SOL    HW1 1622   0.315   2.325   1.088 -0.8261  3.7346 -0.4077
  406SOL    HW2 1623   0.416   2.246   1.175  4.0953 -1.3650  2.2890
  406SOL     MW 1624   0.399   2.303   1.108  0.3508  0.1038 -0.1249
  407SOL     OW 1625   0.048   2.714   1.117 -0.2381  0.2697 -0.1198
  407SOL    HW1 1626   0.085   2.699   1.209 -1.6195 -0.4277  0.2090
  407SOL    HW2 1627   0.120   2.745   1.075 -1.7416 -4.6637 -0.1634
  407SOL     MW 1628   0.062   2.716   1.123 -0.6188 -0.4733 -0.0821
  408SOL     OW 1629   2.090   2.052   0.645 -0.0494 -0.4247  0.3188
  408SOL    HW1 1630   2.047   2.107   0.706  0.0501 -2.3710  0.9054
  408SOL    HW2 1631   2.016   2.016   0.592  1.3926  0.1343  2.9853
  408SOL     MW 1632   2.075   2.055   0.646  0.1540 -0.6077  0.7480
  409SOL     OW 1633   1.340   0.056   0.879  0.6966  0.1955  0.4661
  409SOL    HW1 1634   1.373   0.138   0.845 -1.1278  1.2820 -3.1923
  409SOL    HW2 1635   1.412   0.013   0.930 -0.5248  1.3014  0.1639
  409SOL     MW 1636   1.354   0.061   0.881  0.2947  0.4848 -0.0564
  410SOL     OW 1637   1.104   2.450   1.126  0.1821 -0.8641  0.4044
  410SOL    HW1 1638   1.027   2.465   1.067  0.2698  0.2828  1.9674
  410SOL    HW2 1639   1.153   2.388   1.066 -0.8187  0.2397  0.8745
  410SOL     MW 1640   1.101   2.444   1.110  0.0616 -0.5671  0.6726
  411SOL     OW 1641   1.945   0.077   2.859  0.6044 -0.4222  0.2630
  411SOL    HW1 1642   1.904   0.067   2.771 -1.4199  1.3981 -2.6621
  411SOL    HW2 1643   1.878   0.080   2.926 -0.9768  0.5506  0.0851
  411SOL     MW 1644   1.931   0.076   2.856  0.1287 -0.0537 -0.1464
  412SOL     OW 1645   1.079   2.204   0.590  0.0455  0.3276  0.3139
  412SOL    HW1 1646   1.110   2.284   0.626  0.6840 -1.1074  1.4984
  412SOL    HW2 1647   0.998   2.227   0.553  1.7543 -0.2945  0.1572
  412SOL     MW 1648   1.073   2.217   0.590  0.3552  0.0562  0.4495
  413SOL     OW 1649   0.549   2.776   0.089 -0.1222 -0.6613  0.1213
  413SOL    HW1 1650   0.597   2.692   0.105 -0.9136 -2.0000 -0.8998
  413SOL    HW2 1651   0.593   2.820   0.016  0.2731 -0.1732 -0.2783
  413SOL     MW 1652   0.561   2.770   0.081 -0.1745 -0.7735 -0.0662
  414SOL     OW 1653   1.971   3.051   1.087 -0.2984 -1.2170 -0.0440
  414SOL    HW1 1654   1.903   3.013   1.027 -0.6606  0.5578  0.5305
  414SOL    HW2 1655   2.046   2.990   1.089  0.3622 -1.6456  0.4285
  414SOL     MW 1656   1.972   3.038   1.079 -0.2590 -1.0394  0.0942
  415SOL     OW 1657   1.707   2.659   1.076 -0.3019  0.2325  0.0106
  415SOL    HW1 1658   1.669   2.573   1.102  1.5723 -1.9971 -2.1426
  415SOL    HW2 1659   1.798   2.656   1.116  2.0133 -1.3398  0.0766
  415SOL     MW 1660   1.714   2.647   1.085  0.2509 -0.2692 -0.2648
  416SOL     OW 1661   0.591   1.918   1.378  0.3265 -0.0157 -0.4238
  416SOL    HW1 1662   0.529   1.991   1.367 -1.3668 -0.7134 -0.7098
  416SOL    HW2 1663   0.596   1.876   1.292  2.6045 -1.5590 -1.2604
  416SOL     MW 1664   0.583   1.922   1.365  0.4037 -0.3114 -0.5719
  417SOL     OW 1665   1.013   3.046   2.041  0.0806  0.5283  0.2784
  417SOL    HW1 1666   0.932   3.022   2.084 -0.6364 -1.2049 -1.3290
  417SOL    HW2 1667   1.003   2.993   1.964  1.9733  0.6451  2.3791
  417SOL     MW 1668   1.001   3.036   2.037  0.2357  0.3151  0.3435
  418SOL     OW 1669   0.661   2.986   0.233 -0.9146 -0.2365 -0.2111
  418SOL    HW1 1670   0.729   3.012   0.173 -0.9182  2.7667  0.5134
  418SOL    HW2 1671   0.605   2.917   0.196  1.9073  0.1822  1.0612
  418SOL     MW 1672   0.662   2.980   0.220 -0.5428  0.2150  0.0523
  419SOL     OW 1673   0.439   2.652   1.379 -0.1482 -0.4557  0.1276
  419SOL    HW1 1674   0.490   2.733   1.384 -1.2668  2.1930  0.5216
  419SOL    HW2 1675   0.462   2.622   1.290 -1.2248 -0.1469 -0.2025
  419SOL     MW 1676   0.449   2.659   1.368 -0.4378 -0.0655  0.1360
  420SOL     OW 1677   0.775   2.149   0.990 -0.5092 -0.7367 -0.1222
  420SOL    HW1 1678   0.739   2.173   1.076 -0.8809 -0.5855  1.2517
  420SOL    HW2 1679   0.798   2.234   0.960  1.4557 -2.3135 -0.8836
  420SOL     MW 1680   0.773   2.164   0.997 -0.2990 -0.9248 -0.0414
  421SOL     OW 1681   2.942   0.064   0.044 -0.0056  0.0262  0.0523
  421SOL    HW1 1682   2.900   0.023  -0.034  0.5570 -0.6247 -2.0568
  421SOL    HW2 1683   2.951  -0.007   0.105  0.1215  1.7129 -2.2663
  421SOL     MW 1684   2.938   0.049   0.042  0.0854  0.1628 -0.5319
  422SOL     OW 1685   0.849   2.449   0.959 -0.7977  0.4731  0.5254
  422SOL    HW1 1686   0.778   2.501   0.997  0.8528  0.6409  2.9805
  422SOL    HW2 1687   0.870   2.476   0.870 -1.0368 -1.1626 -1.3621
  422SOL     MW 1688   0.842   2.459   0.952 -0.6115  0.2794  0.6003
  423SOL     OW 1689   1.529   0.162   0.508 -0.4403  0.0583 -0.0900
  423SOL    HW1 1690   1.519   0.137   0.415  1.6530 -1.2891  1.8559
  423SOL    HW2 1691   1.501   0.252   0.506 -0.9453 -0.7870 -0.1374
  423SOL     MW 1692   1.524   0.170   0.496 -0.2307 -0.2310  0.1605
  424SOL     OW 1693   0.685   2.271   1.251 -0.2724 -0.2433  0.3337
  424SOL    HW1 1694   0.589   2.253   1.238  2.6227  0.9310 -0.8512
  424SOL    HW2 1695   0.699   2.249   1.342  0.1536  1.3557 -1.0577
  424SOL     MW 1696   0.674   2.265   1.261  0.1658  0.1226 -0.0062
  425SOL     OW 1697   1.733   2.828   1.937 -0.5796 -0.0039 -0.7343
  425SOL    HW1 1698   1.755   2.842   1.845 -0.2492  0.1713  0.6409
  425SOL    HW2 1699   1.753   2.737   1.965  0.0933  0.7001  2.3746
  425SOL     MW 1700   1.738   2.818   1.929 -0.4472  0.1121 -0.1427
  426SOL     OW 1701   0.787   1.681   1.933  0.5894 -0.3802  0.1455
  426SOL    HW1 1702   0.730   1.707   1.859  2.3041  1.6704 -3.5059
  426SOL    HW2 1703   0.778   1.752   1.993 -0.3428  0.7197 -2.0834
  426SOL     MW 1704   0.778   1.694   1.931  0.6927  0.0355 -0.6303
  427SOL     OW 1705   0.347   1.562   1.887 -0.6229 -0.3040 -0.1362
  427SOL    HW1 1706   0.351   1.634   1.956  0.0187  0.4548 -0.3223
  427SOL    HW2 1707   0.269   1.504   1.899 -0.7255 -2.2383  2.6786
  427SOL     MW 1708   0.337   1.564   1.898 -0.5518 -0.4591  0.2106
  428SOL     OW 1709   0.564   2.535   1.162  0.4054 -0.2811 -0.2809
  428SOL    HW1 1710   0.640   2.509   1.211 -0.5371  0.6827  1.8467
  428SOL    HW2 1711   0.521   2.454   1.124 -1.2726  0.7692  0.3016
  428SOL     MW 1712   0.568   2.521   1.164  0.0596 -0.0154  0.0767
  429SOL     OW 1713   1.345   2.621   1.074  0.1997 -0.3632  0.2109
  429SOL    HW1 1714   1.267   2.575   1.109 -0.4830 -0.7487  2.3159
  429SOL    HW2 1715   1.315   2.682   1.000 -0.4943 -1.2121 -1.9111
  429SOL     MW 1716   1.331   2.623   1.069  0.0180 -0.5260  0.2087
  430SOL     OW 1717   1.136   2.682   0.655 -0.5086  0.0522 -0.4014
  430SOL    HW1 1718   1.160   2.588   0.671 -1.7585 -0.4534  1.0038
  430SOL    HW2 1719   1.091   2.692   0.572  0.3934  1.2104 -0.1114
  430SOL     MW 1720   1.133   2.671   0.646 -0.5545  0.1383 -0.1777
  431SOL     OW 1721   0.339   1.965   1.132  0.0731 -0.1527 -0.1151
  431SOL    HW1 1722   0.419   1.915   1.127  2.4153 -0.8722 -0.8011
  431SOL    HW2 1723   0.306   1.960   1.045  0.0048  0.8202  1.4060
  431SOL     MW 1724   0.345   1.957   1.120  0.3731 -0.1193 -0.0049
  432SOL     OW 1725   0.035   0.079   1.171  0.2455  0.0573  0.2081
  432SOL    HW1 1726   0.039   0.113   1.266 -1.1583  0.7449 -1.4502
  432SOL    HW2 1727  -0.039   0.010   1.170  1.7230 -1.1296  1.7354
  432SOL     MW 1728   0.026   0.074   1.183  0.2552 -0.0086  0.1908
  433SOL     OW 1729   0.621   2.888   1.435  0.0256  0.3358 -0.3146
  433SOL    HW1 1730   0.658   2.891   1.525 -2.5018  2.4719 -1.4229
  433SOL    HW2 1731   0.700   2.893   1.377  0.6331 -1.0527  1.8452
  433SOL     MW 1732   0.636   2.889   1.439 -0.2277  0.4345 -0.1759
  434SOL     OW 1733   1.542   2.837   1.550  0.5162 -0.1800 -0.1456
  434SOL    HW1 1734   1.451   2.868   1.541 -1.1866  0.0225 -1.7589
  434SOL    HW2 1735   1.550   2.797   1.466 -2.4488  0.6246  1.3498
  434SOL     MW 1736   1.531   2.835   1.538 -0.0996 -0.0471 -0.1612
  435SOL     OW 1737   2.868   1.755   0.208 -0.2677 -0.3019 -0.4437
  435SOL    HW1 1738   2.929   1.817   0.176  1.9610 -0.9147 -0.9633
  435SOL    HW2 1739   2.827   1.712   0.132 -1.8395  0.6132 -4.0179
  435SOL     MW 1740   2.871   1.757   0.194 -0.1810 -0.2620 -0.9839
  436SOL     OW 1741   1.393   2.753   0.310  0.0564 -0.2507  0.0503
  436SOL    HW1 1742   1.459   2.738   0.379  0.3775 -4.2484  0.0613
  436SOL    HW2 1743   1.334   2.820   0.342  0.6898 -0.5160  1.5844
  436SOL     MW 1744   1.394   2.760   0.323  0.1823 -0.8131  0.2541
  437SOL     OW 1745   0.891   2.931   1.374  0.1014  0.0471 -0.1063
  437SOL    HW1 1746   0.911   3.020   1.337 -1.2152  1.0371 -1.8416
  437SOL    HW2 1747   0.913   2.868   1.306  1.9523  1.4317  0.9589
  437SOL     MW 1748   0.896   2.934   1.360  0.1719  0.3604 -0.1947
  438SOL     OW 1749   0.897   2.624   1.974 -0.0734  0.0447 -0.6511
  438SOL    HW1 1750   0.867   2.566   2.043 -1.0800  1.6259  1.1295
  438SOL    HW2 1751   0.872   2.586   1.891  2.2679  2.4222 -0.8221
  438SOL     MW 1752   0.890   2.612   1.972  0.1027  0.5670 -0.4387
  439SOL     OW 1753   1.158   2.175   0.328 -0.3425 -0.1591 -0.0532
  439SOL    HW1 1754   1.146   2.223   0.413  2.2771  0.8190  2.3475
  439SOL    HW2 1755   1.159   2.248   0.263 -3.1099  2.8764  0.6438
  439SOL     MW 1756   1.156   2.191   0.331 -0.3620  0.3705  0.3555
  440SOL     OW 1757   1.601   2.967   3.033  0.2523 -0.5720  0.2732
  440SOL    HW1 1758   1.570   2.956   3.124 -1.6744  2.4204 -1.5141
  440SOL    HW2 1759   1.663   2.892   3.016 -0.5991 -0.0079  0.0942
  440SOL     MW 1760   1.605   2.956   3.043 -0.1143 -0.1028  0.0138
  441SOL     OW 1761   0.342   2.577   0.527  0.3096  0.2851 -0.1956
  441SOL    HW1 1762   0.322   2.552   0.436  0.3310  1.8436 -1.7902
  441SOL    HW2 1763   0.349   2.675   0.549 -2.9922  0.6615 -0.9020
  441SOL     MW 1764   0.340   2.587   0.518 -0.1232  0.5404 -0.4992
  442SOL     OW 1765   3.081   2.311   0.636 -1.1394 -0.4837  0.1332
  442SOL    HW1 1766   3.094   2.406   0.627 -1.9428 -0.5837 -2.3776
  442SOL    HW2 1767   2.998   2.301   0.684  0.7881  0.8805  3.1231
  442SOL     MW 1768   3.072   2.323   0.641 -0.9911 -0.3169  0.1964
  443SOL     OW 1769   1.357   1.737   1.817 -0.5025 -0.0055  0.2449
  443SOL    HW1 1770   1.305   1.775   1.739 -0.2770  3.1071 -2.7256
  443SOL    HW2 1771   1.319   1.653   1.840  1.4882  0.1547 -1.2112
  443SOL     MW 1772   1.345   1.731   1.810 -0.2101  0.4263 -0.3391
  444SOL     OW 1773   0.828   2.576   1.560  0.2197  0.0992 -1.0564
  444SOL    HW1 1774   0.912   2.537   1.575  2.0579 -1.7205 -2.9721
  444SOL    HW2 1775   0.779   2.555   1.646 -0.5728  0.9233  0.4915
  444SOL     MW 1776   0.833   2.568   1.573  0.3577 -0.0322 -1.1050
  445SOL     OW 1777   0.987   0.068   1.268 -0.4862 -0.6012  0.4533
  445SOL    HW1 1778   0.932   0.144   1.245 -0.2664 -0.8306 -4.1749
  445SOL    HW2 1779   1.075   0.080   1.232 -1.3551 -0.0883  2.7686
  445SOL     MW 1780   0.991   0.080   1.260 -0.5719 -0.5638  0.1481
  446SOL     OW 1781   2.740   2.861   1.047 -0.8021 -0.9700  0.2286
  446SOL    HW1 1782   2.670   2.872   0.982 -0.2800 -0.1153 -1.9770
  446SOL    HW2 1783   2.765   2.767   1.038 -0.2949 -1.1453  0.6076
  446SOL     MW 1784   2.734   2.850   1.037 -0.6663 -0.8804 -0.0124
  447SOL     OW 1785   3.044   2.017   1.711  0.3863 -0.0900 -0.1782
  447SOL    HW1 1786   3.102   1.943   1.747 -1.0272  0.2680  1.7068
  447SOL    HW2 1787   2.970   1.975   1.662 -1.5600  0.6019 -0.9900
  447SOL     MW 1788   3.042   2.002   1.709 -0.0570  0.0485 -0.0366
  448SOL     OW 1789   1.684   2.330   1.671 -0.0539 -0.1577  0.0613
  448SOL    HW1 1790   1.639   2.246   1.683  2.3683  1.3497 -0.9027
  448SOL    HW2 1791   1.624   2.414   1.677  0.9444 -0.5338  0.8686
  448SOL     MW 1792   1.670   2.330   1.673  0.3974 -0.0084  0.0406
  449SOL     OW 1793   0.832   2.973   0.449 -0.2103  0.3857  0.1063
  449SOL    HW1 1794   0.772   2.962   0.373 -0.7291 -1.9889  0.6739
  449SOL    HW2 1795   0.772   2.970   0.521 -0.4454 -0.1632 -0.7103
  449SOL     MW 1796   0.816   2.971   0.448 -0.3098 -0.0000  0.0734
  450SOL     OW 1797   1.226   2.424   0.687  0.2666 -0.1597 -0.0257
  450SOL    HW1 1798   1.252   2.407   0.773  1.6327  0.2741 -1.3844
  450SOL    HW2 1799   1.308   2.414   0.638  0.5631 -0.7594  0.9373
  450SOL     MW 1800   1.240   2.420   0.692  0.4860 -0.1816 -0.0779
  451SOL     OW 1801   0.593   2.034   1.658 -0.2083  0.0094 -0.2389
  451SOL    HW1 1802   0.648   2.117   1.667  0.0553  3.7664  2.3472
  451SOL    HW2 1803   0.602   2.000   1.571 -2.5792  1.4100  0.4115
  451SOL     MW 1804   0.601   2.040   1.648 -0.4863  0.6899  0.1881
  452SOL     OW 1805   0.282   2.742   0.147  0.0650 -0.1853 -0.0198
  452SOL    HW1 1806   0.371   2.766   0.124  0.3739  2.3382 -2.3238
  452SOL    HW2 1807   0.242   2.722   0.054 -0.6966 -0.6545  0.6073
  452SOL     MW 1808   0.289   2.742   0.132  0.0053  0.0857 -0.2410
  453SOL     OW 1809   0.398   2.977   1.690  0.5353 -0.3164  0.5899
  453SOL    HW1 1810   0.487   2.996   1.660 -1.2786  0.1256 -1.2293
  453SOL    HW2 1811   0.355   2.965   1.601  1.8083 -0.6611 -1.5278
  453SOL     MW 1812   0.404   2.978   1.674  0.4639 -0.3036  0.0705
  454SOL     OW 1813   1.051   2.798   1.118 -0.1494 -0.2817  1.0247
  454SOL    HW1 1814   1.017   2.715   1.096 -0.7089 -0.6597  2.7764
  454SOL    HW2 1815   0.983   2.856   1.081 -2.1207  0.2469  0.0734
  454SOL     MW 1816   1.037   2.795   1.110 -0.4834 -0.2618  1.1303
  455SOL     OW 1817   1.554   2.973   0.194  0.0064  0.1755  0.2946
  455SOL    HW1 1818   1.625   2.961   0.258  0.9220  1.2189 -0.1729
  455SOL    HW2 1819   1.478   2.931   0.228  1.2825 -1.5343  0.8666
  455SOL     MW 1820   1.554   2.966   0.207  0.2956  0.0876  0.3084
  456SOL     OW 1821   2.922   0.344   1.356 -0.4926  0.3706 -0.5676
  456SOL    HW1 1822   2.876   0.259   1.322 -1.2339 -1.1241 -2.0523
  456SOL    HW2 1823   2.987   0.382   1.288  0.4011 -3.3259 -1.7300
  456SOL     MW 1824   2.924   0.338   1.342 -0.4725 -0.3143 -0.9169
  457SOL     OW 1825   0.850   1.546   2.999  0.5197  0.1773 -0.2047
  457SOL    HW1 1826   0.789   1.530   3.074 -0.1217 -0.3676  0.6182
  457SOL    HW2 1827   0.905   1.465   2.978  0.1822 -0.1369  0.6998
  457SOL     MW 1828   0.849   1.533   3.006  0.3906  0.0639  0.0232
  458SOL     OW 1829   1.474   1.401   0.640  0.0043 -0.2233 -0.4755
  458SOL    HW1 1830   1.394   1.416   0.685 -0.3685  0.8777 -1.3941
  458SOL    HW2 1831   1.439   1.344   0.572  1.0584  1.5108  2.5844
  458SOL     MW 1832   1.458   1.395   0.637  0.0942  0.1508 -0.1930
  459SOL     OW 1833   1.550   0.133   0.237 -0.2029  0.2080  0.0960
  459SOL    HW1 1834   1.543   0.035   0.227 -0.3914  0.5759  1.5545
  459SOL    HW2 1835   1.512   0.184   0.160  0.0670 -1.5481  1.0438
  459SOL     MW 1836   1.544   0.127   0.225 -0.1922  0.0249  0.4135
  460SOL     OW 1837   1.724   2.162   0.618  0.5997 -0.1658  0.2080
  460SOL    HW1 1838   1.632   2.146   0.619  0.7649 -6.1792 -1.8487
  460SOL    HW2 1839   1.760   2.074   0.582 -1.8006  0.9037  0.6282
  460SOL     MW 1840   1.717   2.148   0.613  0.3048 -0.8181 -0.0079
  461SOL     OW 1841   0.546   2.422   0.618  0.4884  0.3934  0.4963
  461SOL    HW1 1842   0.488   2.488   0.583  2.4349  1.9062 -2.3868
  461SOL    HW2 1843   0.530   2.401   0.711  1.5702 -2.7269  0.7207
  461SOL     MW 1844   0.536   2.428   0.626  0.8879  0.1813  0.1455
  462SOL     OW 1845   0.345   0.267   1.271 -0.7469 -0.7580 -0.3275
  462SOL    HW1 1846   0.374   0.221   1.199 -2.0909 -0.9251 -1.2883
  462SOL    HW2 1847   0.437   0.303   1.296 -0.1947 -1.1615  0.3151
  462SOL     MW 1848   0.361   0.266   1.265 -0.8514 -0.8333 -0.3695
  463SOL     OW 1849   1.013   0.041   0.722 -0.3257  0.1530 -0.5017
  463SOL    HW1 1850   1.029   0.062   0.629  1.4779 -1.2374  0.1995
  463SOL    HW2 1851   0.914   0.050   0.732  0.0498 -0.1131  0.4099
  463SOL     MW 1852   1.002   0.045   0.711 -0.0382 -0.0656 -0.2889
  464SOL     OW 1853   0.758   2.942   2.157 -1.0017 -0.3126  0.1372
  464SOL    HW1 1854   0.729   2.848   2.152 -0.6084  0.7686  0.8811
  464SOL    HW2 1855   0.776   2.976   2.252  3.1336  1.7565  2.3955
  464SOL     MW 1856   0.756   2.934   2.169 -0.4042  0.1031  0.5333
  465SOL     OW 1857   0.747   0.229   0.501 -0.0582  0.8875  0.1269
  465SOL    HW1 1858   0.755   0.164   0.575 -1.8953 -0.4151  0.5127
  465SOL    HW2 1859   0.734   0.194   0.414 -0.6716  1.6179  0.0584
  465SOL     MW 1860   0.746   0.216   0.499 -0.3815  0.8120  0.1687
  466SOL     OW 1861   1.055   1.960   0.724 -0.1542  0.0545  0.0784
  466SOL    HW1 1862   1.063   1.897   0.649 -1.7957 -0.9185  0.6796
  466SOL    HW2 1863   1.058   2.049   0.685  0.6142 -0.3138 -0.8287
  466SOL     MW 1864   1.056   1.963   0.709 -0.2694 -0.1225  0.0381
  467SOL     OW 1865   1.217   2.275   0.969  0.2020 -0.1380 -0.1839
  467SOL    HW1 1866   1.312   2.306   0.979  0.3753 -2.0645 -1.2262
  467SOL    HW2 1867   1.219   2.186   0.946  1.1614  0.0976  2.8019
  467SOL     MW 1868   1.230   2.267   0.967  0.3515 -0.3611  0.0725
  468SOL     OW 1869   0.331   2.620   2.003  0.4342 -0.0091  0.1487
  468SOL    HW1 1870   0.316   2.559   1.933  0.9594 -0.4172  0.9358
  468SOL    HW2 1871   0.403   2.673   1.976  1.2889 -3.3917  0.3336
  468SOL     MW 1872   0.339   2.619   1.990  0.6163 -0.5092  0.2769
  469SOL     OW 1873   0.397   2.119   1.832  0.0940  0.5405 -0.4731
  469SOL    HW1 1874   0.317   2.059   1.822  1.6028 -0.8090 -1.3422
  469SOL    HW2 1875   0.463   2.087   1.768  1.2917  0.0454  4.1937
  469SOL     MW 1876   0.395   2.107   1.822  0.4511  0.2971  0.0280
  470SOL     OW 1877   3.052   2.538   0.170 -0.1783  0.1746 -0.1011
  470SOL    HW1 1878   2.967   2.511   0.215  1.1094 -0.4309  2.3591
  470SOL    HW2 1879   3.032   2.553   0.078  1.6693 -1.2554 -0.4030
  470SOL     MW 1880   3.038   2.536   0.164  0.2354 -0.0939  0.1837
  471SOL     OW 1881   1.209   2.746   1.348  0.5288 -0.0027 -0.2186
  471SOL    HW1 1882   1.123   2.744   1.393 -2.0723  2.0920 -1.4637
  471SOL    HW2 1883   1.174   2.761   1.255  1.4789  0.1123 -0.8867
  471SOL     MW 1884   1.193   2.748   1.342  0.3110  0.2888 -0.4710
  472SOL     OW 1885   2.917   2.113   0.324 -0.3855 -0.7130  0.2227
  472SOL    HW1 1886   2.950   2.061   0.247 -0.8251  1.2417  2.1573
  472SOL    HW2 1887   2.887   2.048   0.390 -0.3341  2.1305 -0.1275
  472SOL     MW 1888   2.917   2.098   0.323 -0.4367 -0.0799  0.4318
  473SOL     OW 1889   0.786   2.539   1.306 -0.3998  0.2333 -0.0577
  473SOL    HW1 1890   0.813   2.450   1.304 -0.0297  1.7866  3.4233
  473SOL    HW2 1891   0.786   2.549   1.405  0.2567 -2.1361  1.4349
  473SOL     MW 1892   0.789   2.529   1.319 -0.2643  0.1257  0.5985
  474SOL     OW 1893   0.798   2.219   1.743 -0.8982  0.0997 -0.3027
  474SOL    HW1 1894   0.898   2.219   1.766  2.0329 -0.0956 -0.4188
  474SOL    HW2 1895   0.814   2.207   1.642 -1.0346  0.2874  0.4554
  474SOL     MW 1896   0.813   2.217   1.733 -0.5295  0.0987 -0.2180
  475SOL     OW 1897   1.634   3.063   1.429  0.0657  0.3120  0.1806
  475SOL    HW1 1898   1.569   3.086   1.367 -0.9100 -0.9865 -0.1711
  475SOL    HW2 1899   1.594   2.993   1.484  1.6553 -1.5276  0.9687
  475SOL     MW 1900   1.620   3.057   1.428  0.1467 -0.1021  0.2382
  476SOL     OW 1901   1.463   2.600   0.808 -0.1586  0.2457  0.1442
  476SOL    HW1 1902   1.461   2.556   0.899 -2.3730 -2.7975 -0.4967
  476SOL    HW2 1903   1.493   2.695   0.820  1.0553  0.7432 -1.7697
  476SOL     MW 1904   1.466   2.607   0.822 -0.2906 -0.0902 -0.1929
  477SOL     OW 1905   0.887   2.508   0.654 -0.1479  0.1863  0.3318
  477SOL    HW1 1906   0.899   2.561   0.580 -0.7505 -2.8412 -3.8600
  477SOL    HW2 1907   0.876   2.418   0.619 -0.3697  0.6317 -0.8438
  477SOL     MW 1908   0.887   2.503   0.640 -0.2567 -0.1544 -0.3764
  478SOL     OW 1909   0.237   2.612   0.911  0.0718 -0.2634 -0.1646
  478SOL    HW1 1910   0.271   2.709   0.918  0.1971  2.6149  1.3463
  478SOL    HW2 1911   0.308   2.548   0.901 -1.8909 -1.7106 -1.2762
  478SOL     MW 1912   0.251   2.617   0.910 -0.1706 -0.0746 -0.1119
  479SOL     OW 1913   1.392   1.947   1.305  0.4005  0.0000 -0.5279
  479SOL    HW1 1914   1.352   1.977   1.388 -1.6799  1.3802  2.3704
  479SOL    HW2 1915   1.445   1.873   1.332 -0.2081  0.0869 -0.3055
  479SOL     MW 1916   1.394   1.941   1.320  0.0457  0.1936 -0.1161
  480SOL     OW 1917   1.844   2.372   1.291  0.2002  0.3823  0.1902
  480SOL    HW1 1918   1.854   2.280   1.307  0.5725  0.1647  0.2881
  480SOL    HW2 1919   1.874   2.378   1.198  0.6618  2.1252 -0.7783
  480SOL     MW 1920   1.849   2.360   1.281  0.3102  0.5835  0.0754
  481SOL     OW 1921   1.210   0.123   1.114  0.2982 -0.1779 -0.2292
  481SOL    HW1 1922   1.242   0.090   1.027  0.7668 -2.5073 -2.1222
  481SOL    HW2 1923   1.190   0.216   1.096 -0.2843 -0.8114 -0.0671
  481SOL     MW 1924   1.212   0.131   1.100  0.2831 -0.5688 -0.4576
  482SOL     OW 1925   1.031   0.047   0.421  0.4153 -0.2006  0.1775
  482SOL    HW1 1926   0.959  -0.017   0.436 -0.3928  0.6867 -0.9191
  482SOL    HW2 1927   0.994   0.106   0.358  1.8380 -0.0546 -0.2060
  482SOL     MW 1928   1.017   0.046   0.415  0.4964 -0.0642 -0.0178
  483SOL     OW 1929   0.348   2.846   0.563  0.3474  0.3376 -0.8510
  483SOL    HW1 1930   0.316   2.871   0.476 -0.8023 -3.3380  2.1401
  483SOL    HW2 1931   0.316   2.919   0.615 -1.4954 -0.5046  1.3275
  483SOL     MW 1932   0.340   2.859   0.558 -0.0474 -0.2585 -0.1689
  484SOL     OW 1933   1.671   1.865   1.453 -0.1169 -0.5489  0.2286
  484SOL    HW1 1934   1.743   1.923   1.433  2.4939  1.6473  0.8081
  484SOL    HW2 1935   1.685   1.867   1.547  0.7884  0.5955  0.2283
  484SOL     MW 1936   1.682   1.873   1.463  0.3470 -0.1082  0.3050
  485SOL     OW 1937   0.564   2.312   0.353 -0.0677  0.2876  0.4229
  485SOL    HW1 1938   0.537   2.360   0.432 -3.1764 -2.8902  1.0660
  485SOL    HW2 1939   0.573   2.373   0.287  1.2274 -5.3967 -0.9251
  485SOL     MW 1940   0.562   2.326   0.355 -0.3070 -0.8817  0.3299
  486SOL     OW 1941   0.115   2.458   1.438 -0.2222  0.3890 -0.0369
  486SOL    HW1 1942   0.148   2.548   1.406 -2.4514 -0.0361  0.3469
  486SOL    HW2 1943   0.110   2.472   1.532  1.2363 -0.9784 -2.5628
  486SOL     MW 1944   0.119   2.471   1.446 -0.3239  0.1525 -0.3195
  487SOL     OW 1945   1.283   1.608   0.961 -0.2584  0.2214 -0.1597
  487SOL    HW1 1946   1.244   1.693   0.971  0.8072 -1.1721  2.4343
  487SOL    HW2 1947   1.372   1.631   0.983 -0.2434  0.7633 -0.5038
  487SOL     MW 1948   1.289   1.622   0.965 -0.1159  0.1090  0.1371
  488SOL     OW 1949   1.518   1.856   0.597  0.1551  0.6323 -0.4701
  488SOL    HW1 1950   1.478   1.927   0.544  0.9444  0.3408 -2.1236
  488SOL    HW2 1951   1.454   1.783   0.589  1.3542  0.7084  2.5212
  488SOL     MW 1952   1.504   1.856   0.589  0.4174  0.6038 -0.2936
  489SOL     OW 1953   0.728   0.774   0.511  0.3918 -0.0482 -0.3983
  489SOL    HW1 1954   0.788   0.703   0.536  1.7844  0.0687  0.4066
  489SOL    HW2 1955   0.710   0.810   0.596  0.0346 -0.8873 -2.0853
  489SOL     MW 1956   0.734   0.770   0.526  0.5284 -0.1435 -0.5147
  490SOL     OW 1957   1.402   2.070   0.428 -0.1005 -0.0682 -0.3791
  490SOL    HW1 1958   1.473   2.128   0.397 -0.0825  0.3866 -0.6529
  490SOL    HW2 1959   1.320   2.113   0.403  0.8341  0.5517 -0.5774
  490SOL     MW 1960   1.401   2.084   0.420  0.0252  0.0736 -0.4414
  491SOL     OW 1961   1.266   2.970   0.408 -0.5673 -0.3501 -0.5714
  491SOL    HW1 1962   1.305   3.026   0.478 -0.8531  0.3389 -0.3310
  491SOL    HW2 1963   1.186   3.015   0.397 -2.6023 -1.1186 -1.2440
  491SOL     MW 1964   1.260   2.983   0.416 -0.8735 -0.3606 -0.6284
  492SOL     OW 1965   1.438   2.155   0.680  0.1871 -0.2164  0.2092
  492SOL    HW1 1966   1.396   2.141   0.596  1.4272 -0.5554  0.2004
  492SOL    HW2 1967   1.394   2.100   0.748 -0.5467 -1.7165  1.0221
  492SOL     MW 1968   1.426   2.146   0.678  0.2539 -0.4590  0.3153
  493SOL     OW 1969   0.211   2.991   0.391  0.5333  0.1010  0.0890
  493SOL    HW1 1970   0.165   3.046   0.459  3.6722  3.0313  0.7480
  493SOL    HW2 1971   0.166   3.005   0.306 -2.5920 -1.6167 -0.1080
  493SOL     MW 1972   0.199   3.000   0.388  0.5351  0.2610  0.1500
  494SOL     OW 1973   0.393   2.404   1.815 -0.0193  0.0314  0.4283
  494SOL    HW1 1974   0.401   2.304   1.808 -0.7463  0.6465 -2.3532
  494SOL    HW2 1975   0.425   2.426   1.725  0.6005  2.2126 -1.1361
  494SOL     MW 1976   0.398   2.394   1.802 -0.0335  0.4003 -0.1451
  495SOL     OW 1977   2.910   1.663   2.728  0.5855  0.0250 -0.4971
  495SOL    HW1 1978   2.890   1.741   2.786 -1.1035 -1.1009 -1.6621
  495SOL    HW2 1979   2.886   1.587   2.780 -1.6212  0.0847  2.0890
  495SOL     MW 1980   2.904   1.664   2.743  0.0715 -0.1157 -0.3096
  496SOL     OW 1981   2.754   2.262   2.712  0.0147 -0.2594 -0.2013
  496SOL    HW1 1982   2.754   2.176   2.750 -2.4935  0.0080 -0.5013
  496SOL    HW2 1983   2.844   2.293   2.724  2.5611 -0.9076 -0.7126
  496SOL     MW 1984   2.766   2.255   2.719  0.0198 -0.3096 -0.3083
  497SOL     OW 1985   1.495   2.324   2.546  0.1233  0.2446 -0.3757
  497SOL    HW1 1986   1.503   2.265   2.461  0.5161 -2.8015 -0.1539
  497SOL    HW2 1987   1.471   2.261   2.616  1.8003 -0.7991  0.1273
  497SOL     MW 1988   1.493   2.308   2.544  0.3964 -0.2950 -0.2801
  498SOL     OW 1989   1.508   2.801   2.286  0.7409 -0.1391 -0.5053
  498SOL    HW1 1990   1.518   2.708   2.262  0.3075  0.1571  1.3904
  498SOL    HW2 1991   1.574   2.809   2.353  1.1609  3.3577  1.0211
  498SOL     MW 1992   1.518   2.789   2.292  0.7392  0.3613 -0.0538
  499SOL     OW 1993   0.936   0.144   0.075 -0.2359  0.4826 -0.6742
  499SOL    HW1 1994   0.885   0.157   0.158  0.7315 -3.9127  0.3754
  499SOL    HW2 1995   0.925   0.054   0.043  0.8710  0.1144 -0.0240
  499SOL     MW 1996   0.928   0.134   0.082  0.0378 -0.1459 -0.4499
  500SOL     OW 1997   1.028   2.510   2.750  0.1219 -0.0974  0.3854
  500SOL    HW1 1998   1.054   2.457   2.825  0.9969 -2.2260 -1.4184
  500SOL    HW2 1999   0.970   2.583   2.789 -1.4149 -1.5813  1.4779
  500SOL     MW 2000   1.024   2.513   2.765  0.0346 -0.5740  0.2915
  501SOL     OW 2001   1.724   2.223   0.017 -0.2864 -0.1133  0.0804
  501SOL    HW1 2002   1.699   2.318   0.019 -0.3486  0.6040 -1.3127
  501SOL    HW2 2003   1.820   2.215   0.014  0.0520 -0.9560  1.6903
  501SOL     MW 2004   1.734   2.235   0.016 -0.2500 -0.1298  0.1090
  502SOL     OW 2005   0.207   2.698   2.981 -1.1340 -0.0309 -0.5380
  502SOL    HW1 2006   0.123   2.655   2.978  0.2742  0.7081 -1.0866
  502SOL    HW2 2007   0.200   2.772   2.921 -0.7917  0.9578 -0.0487
  502SOL     MW 2008   0.195   2.702   2.973 -0.9030  0.1971 -0.5458
  503SOL     OW 2009   1.130   2.597   2.124  0.2576  0.0121 -0.4144
  503SOL    HW1 2010   1.199   2.609   2.063 -1.4142  0.7088  2.4442
  503SOL    HW2 2011   1.052   2.592   2.070 -0.5935 -0.4104  0.8365
  503SOL     MW 2012   1.129   2.598   2.109 -0.0753  0.0483  0.1278
  504SOL     OW 2013   0.098   2.611   2.120  0.2065 -0.3070 -0.4737
  504SOL    HW1 2014   0.182   2.598   2.078  2.8166  2.8218  0.5768
  504SOL    HW2 2015   0.086   2.532   2.168 -2.3107  1.9708 -0.9396
  504SOL     MW 2016   0.107   2.599   2.121  0.2187  0.4064 -0.3966
  505SOL     OW 2017   1.613   2.695   2.728  0.1757 -0.8173 -0.0815
  505SOL    HW1 2018   1.631   2.720   2.636  3.0412  0.3127 -3.8410
  505SOL    HW2 2019   1.553   2.764   2.757  0.5742  0.2099 -3.2921
  505SOL     MW 2020   1.608   2.708   2.720  0.6064 -0.5326 -1.0011
  506SOL     OW 2021   1.593   0.031   2.815  0.1703 -0.3447 -0.0585
  506SOL    HW1 2022   1.607  -0.021   2.899 -1.6588  1.5950 -1.9596
  506SOL    HW2 2023   1.664   0.002   2.760  2.6805 -0.6985  0.4528
  506SOL     MW 2024   1.604   0.020   2.819  0.2602 -0.1354 -0.2419
  507SOL     OW 2025   0.867   2.701   2.844  0.1010 -0.0244  0.0908
  507SOL    HW1 2026   0.845   2.766   2.775  2.1293 -1.3096 -1.2748
  507SOL    HW2 2027   0.790   2.642   2.855 -1.2488 -1.6069 -1.0454
  507SOL     MW 2028   0.854   2.702   2.837  0.1905 -0.4027 -0.2393
  508SOL     OW 2029   1.139   2.071   2.592 -0.4715 -0.2804  0.1928
  508SOL    HW1 2030   1.222   2.086   2.641  2.2741  2.2090  0.9182
  508SOL    HW2 2031   1.074   2.101   2.653 -2.2364 -0.0220 -0.4056
  508SOL     MW 2032   1.142   2.077   2.606 -0.3421  0.0822  0.2095
  509SOL     OW 2033   0.627   2.568   2.814 -0.2557 -0.0557  1.1183
  509SOL    HW1 2034   0.595   2.517   2.739 -1.5860  2.4004 -0.1547
  509SOL    HW2 2035   0.586   2.654   2.805 -0.8674 -2.8665 -1.2701
  509SOL     MW 2036   0.618   2.573   2.803 -0.5120 -0.1025  0.6352
  510SOL     OW 2037   1.526   2.576   1.658 -0.0838 -0.0458  0.5382
  510SOL    HW1 2038   1.538   2.669   1.638 -1.2215  2.5001  0.5265
  510SOL    HW2 2039   1.482   2.569   1.745 -1.9652  1.8559 -1.4318
  510SOL     MW 2040   1.522   2.587   1.667 -0.4822  0.5410  0.2767
  511SOL     OW 2041   0.346   2.517   2.524 -0.4154  0.3060 -0.5620
  511SOL    HW1 2042   0.426   2.472   2.560  2.0718  1.5939 -1.1914
  511SOL    HW2 2043   0.363   2.532   2.430 -1.5111  0.2864  1.0948
  511SOL     MW 2044   0.359   2.513   2.516 -0.2318  0.4733 -0.4265
  512SOL     OW 2045   1.028   2.012   2.852  0.4952 -0.1972  0.0116
  512SOL    HW1 2046   0.941   2.040   2.884  0.9484  0.0696 -0.2367
  512SOL    HW2 2047   1.033   1.942   2.915  0.8117 -0.5713 -0.6882
  512SOL     MW 2048   1.017   2.007   2.865  0.5967 -0.2114 -0.1135
  513SOL     OW 2049   1.575   2.544   2.158  0.7802  0.1110 -0.2894
  513SOL    HW1 2050   1.666   2.570   2.138 -3.8703 -0.3294  1.1082
  513SOL    HW2 2051   1.568   2.479   2.224  0.0379 -2.7361 -0.0706
  513SOL     MW 2052   1.586   2.539   2.164  0.0687 -0.3228 -0.0762
  514SOL     OW 2053   0.162   2.355   2.651  0.3104  0.0927  0.1107
  514SOL    HW1 2054   0.217   2.408   2.587  0.3779  0.5099  0.9567
  514SOL    HW2 2055   0.222   2.325   2.724  0.7691  5.7543 -0.0196
  514SOL     MW 2056   0.178   2.358   2.652  0.3798  0.8948  0.2052
  515SOL     OW 2057   1.103   1.926   1.827  0.3506 -0.0464  0.4886
  515SOL    HW1 2058   1.075   2.027   1.822 -0.6970  1.0875  1.8416
  515SOL    HW2 2059   1.159   1.921   1.900 -0.9397  1.7230  0.6530
  515SOL     MW 2060   1.106   1.939   1.836  0.0422  0.3367  0.6888
  516SOL     OW 2061   1.345   2.574   2.943  0.0641 -0.8410  0.0453
  516SOL    HW1 2062   1.370   2.552   2.853  1.4066 -1.0560  0.4569
  516SOL    HW2 2063   1.259   2.535   2.953 -2.8724 -0.4053  1.1657
  516SOL     MW 2064   1.337   2.566   2.933 -0.1462 -0.8119  0.2474
  517SOL     OW 2065   0.593   2.372   2.291  0.8124  0.1424  0.3970
  517SOL    HW1 2066   0.533   2.442   2.288  0.6312 -0.4504  3.4933
  517SOL    HW2 2067   0.549   2.307   2.235  4.0619  0.0020 -4.5408
  517SOL     MW 2068   0.579   2.373   2.283  1.2172  0.0457  0.1540
  518SOL     OW 2069   1.799   0.057   3.084 -0.5427 -0.4714  0.5310
  518SOL    HW1 2070   1.787   0.104   3.166 -2.2573  1.2291  3.3041
  518SOL    HW2 2071   1.735  -0.011   3.097 -0.4315 -1.2594  2.3417
  518SOL     MW 2072   1.789   0.054   3.097 -0.7543 -0.3510  1.1358
  519SOL     OW 2073   0.732   2.492   1.788  0.4332  0.4987  0.1624
  519SOL    HW1 2074   0.761   2.405   1.768  1.5308  1.0191 -2.0295
  519SOL    HW2 2075   0.640   2.477   1.808  2.0138 -1.0599 -0.4326
  519SOL     MW 2076   0.724   2.479   1.788  0.7866  0.3617 -0.2053
  520SOL     OW 2077   1.246   2.150   2.941 -0.0560 -0.0013 -0.0375
  520SOL    HW1 2078   1.169   2.096   2.917 -1.0568  2.8904  0.5613
  520SOL    HW2 2079   1.272   2.134   3.034  0.7339  3.9769 -1.9393
  520SOL     MW 2080   1.239   2.140   2.950 -0.0838  0.9051 -0.2094
  521SOL     OW 2081   1.799   2.068   2.229 -0.0955  0.2431  0.1147
  521SOL    HW1 2082   1.785   2.049   2.135  0.0939  0.8420  0.5214
  521SOL    HW2 2083   1.805   1.988   2.279 -0.2215 -0.5002 -1.0996
  521SOL     MW 2084   1.798   2.055   2.223 -0.0871  0.2240  0.0081
  522SOL     OW 2085   2.885   2.536   2.236  0.1732  0.0470  0.0445
  522SOL    HW1 2086   2.972   2.512   2.213 -3.1199  0.5591  0.7395
  522SOL    HW2 2087   2.877   2.632   2.251 -0.3015 -1.7794 -2.4266
  522SOL     MW 2088   2.896   2.545   2.235 -0.3239 -0.1264 -0.1898
  523SOL     OW 2089   0.822   1.517   2.145  0.3017  0.3137  0.1908
  523SOL    HW1 2090   0.818   1.575   2.072  2.0168  0.4584 -0.5103
  523SOL    HW2 2091   0.858   1.441   2.103 -3.4135  0.5085 -1.5801
  523SOL     MW 2092   0.826   1.515   2.130  0.0378  0.3585 -0.1354
  524SOL     OW 2093   0.602   2.340   2.985 -0.6771 -0.0428 -0.2257
  524SOL    HW1 2094   0.625   2.421   2.939  0.6201  0.1704 -2.2828
  524SOL    HW2 2095   0.684   2.289   2.992  2.1447 -1.7452 -0.3877
  524SOL     MW 2096   0.616   2.344   2.980 -0.1337 -0.2393 -0.5185
  525SOL     OW 2097   0.455   2.221   2.117 -0.4087  0.0952  0.2555
  525SOL    HW1 2098   0.450   2.154   2.178 -1.1020 -0.3847 -0.8197
  525SOL    HW2 2099   0.521   2.193   2.048  0.6110  3.2137 -2.5346
  525SOL     MW 2100   0.463   2.208   2.116 -0.3657  0.4433 -0.2545
  526SOL     OW 2101   0.697   2.163   1.999  0.8624  0.3187 -0.8775
  526SOL    HW1 2102   0.724   2.183   1.915  0.1345  0.9960  3.4842
  526SOL    HW2 2103   0.777   2.176   2.048  0.2124 -1.8313  0.7484
  526SOL     MW 2104   0.711   2.167   1.994  0.6806  0.1244 -0.0875
  527SOL     OW 2105   1.278   1.907   2.032 -0.0446  0.0929 -0.0686
  527SOL    HW1 2106   1.216   1.851   2.080 -0.2490 -0.7183  1.9294
  527SOL    HW2 2107   1.322   1.848   1.970 -0.8273 -1.8397  2.9930
  527SOL     MW 2108   1.275   1.892   2.030 -0.1748 -0.2691  0.5989
  528SOL     OW 2109   0.652   2.895   2.956  0.5126  0.6606 -0.3387
  528SOL    HW1 2110   0.634   2.994   2.959  1.2136 -0.4410 -6.8629
  528SOL    HW2 2111   0.626   2.874   2.869  0.6674 -0.3199  1.8191
  528SOL     MW 2112   0.646   2.906   2.945  0.6255  0.3859 -0.9148
  529SOL     OW 2113   1.065   2.195   1.826 -0.9721  0.2117  0.1913
  529SOL    HW1 2114   1.103   2.196   1.914 -1.0892  2.9971 -0.3964
  529SOL    HW2 2115   1.115   2.265   1.781 -0.7080 -0.9379  0.6829
  529SOL     MW 2116   1.077   2.205   1.832 -0.9527  0.4275  0.1786
  530SOL     OW 2117   1.144   2.397   2.998  0.0079  0.7041  0.5683
  530SOL    HW1 2118   1.128   2.408   3.091  3.6397  1.5578 -0.5386
  530SOL    HW2 2119   1.188   2.316   2.982 -0.9614  2.3418 -0.9006
  530SOL     MW 2120   1.148   2.387   3.008  0.3592  1.0328  0.2285
  531SOL     OW 2121   0.935   1.824   2.646 -0.1599  0.5831  0.5985
  531SOL    HW1 2122   0.963   1.892   2.705  0.0129  0.9307 -1.9185
  531SOL    HW2 2123   0.880   1.762   2.694  1.2764  2.8772 -0.6529
  531SOL     MW 2124   0.931   1.825   2.660  0.0524  0.9317  0.1013
  532SOL     OW 2125   1.667   0.300   2.854  0.3741  0.3243 -0.0285
  532SOL    HW1 2126   1.656   0.208   2.857  1.2371 -1.0829 -0.4282
  532SOL    HW2 2127   1.744   0.320   2.908  0.9017  2.4975 -0.2960
  532SOL     MW 2128   1.675   0.291   2.861  0.5575  0.4254 -0.1165
  533SOL     OW 2129   1.784   2.712   2.945 -0.4258 -0.3102  0.7437
  533SOL    HW1 2130   1.748   2.640   3.002  2.3133 -0.4257 -0.2115
  533SOL    HW2 2131   1.737   2.697   2.859 -0.1187 -3.7013 -0.3354
  533SOL     MW 2132   1.773   2.701   2.941 -0.0239 -0.7729  0.4753
  534SOL     OW 2133   1.729   2.474   2.474 -0.1008  0.0665 -0.3378
  534SOL    HW1 2134   1.659   2.425   2.514 -1.2353  0.3766  2.0266
  534SOL    HW2 2135   1.796   2.479   2.545  1.1260  0.0969 -1.3642
  534SOL     MW 2136   1.729   2.468   2.489 -0.0886  0.1114 -0.1612
  535SOL     OW 2137   1.814   2.342   1.900  0.2501 -0.3017 -0.1606
  535SOL    HW1 2138   1.750   2.344   1.823  0.4285 -2.9474  2.2467
  535SOL    HW2 2139   1.902   2.351   1.858 -2.8927 -2.1722 -3.7912
  535SOL     MW 2140   1.817   2.343   1.884 -0.1410 -0.8976 -0.3220
  536SOL     OW 2141   0.453   1.811   2.006 -0.0511  0.1725  0.3404
  536SOL    HW1 2142   0.419   1.861   1.929  1.7772  0.2008 -0.2790
  536SOL    HW2 2143   0.527   1.862   2.030 -0.4473  2.2801 -2.1021
  536SOL     MW 2144   0.458   1.824   1.999  0.1379  0.4543 -0.0636
  537SOL     OW 2145   1.056   0.195   2.912  0.9076  0.1514  0.3566
  537SOL    HW1 2146   0.980   0.165   2.971  1.8455  0.5377  0.7177
  537SOL    HW2 2147   1.062   0.289   2.915 -0.7931  2.3026  0.8796
  537SOL     MW 2148   1.047   0.203   2.920  0.8069  0.4862  0.4732
  538SOL     OW 2149   1.298   0.061   2.992 -0.4955  0.2136 -0.5006
  538SOL    HW1 2150   1.218   0.117   2.964 -0.4231  0.3046 -0.6456
  538SOL    HW2 2151   1.373   0.111   2.975  0.0768 -1.0586 -1.3204
  538SOL     MW 2152   1.297   0.075   2.986 -0.4104  0.0577 -0.6279
  539SOL     OW 2153   0.742   2.703   2.521  0.0850 -0.5559 -0.0084
  539SOL    HW1 2154   0.808   2.773   2.524  1.4306 -2.7512  0.5133
  539SOL    HW2 2155   0.774   2.620   2.544 -0.3694  1.4847 -1.0690
  539SOL     MW 2156   0.755   2.701   2.524  0.2026 -0.5763 -0.0795
  540SOL     OW 2157   0.323   2.264   2.851 -0.5175 -0.1541  0.6410
  540SOL    HW1 2158   0.397   2.322   2.881  0.1722 -0.6011 -1.0183
  540SOL    HW2 2159   0.308   2.207   2.922  1.9441  0.4233  0.5893
  540SOL     MW 2160   0.331   2.264   2.864 -0.1017 -0.1369  0.4152
  541SOL     OW 2161   0.174   2.855   2.229 -0.7617 -0.2952 -0.2031
  541SOL    HW1 2162   0.147   2.768   2.199 -0.6369 -1.5087  3.1184
  541SOL    HW2 2163   0.241   2.839   2.295  1.5162  1.0461 -3.4071
  541SOL     MW 2164   0.179   2.841   2.234 -0.4447 -0.2784 -0.1876
  542SOL     OW 2165   0.909   2.269   2.693  0.2852 -0.6769 -0.1519
  542SOL    HW1 2166   0.886   2.234   2.773 -1.6065  4.1163 -2.4646
  542SOL    HW2 2167   0.958   2.353   2.713  1.1704  0.0137 -2.4289
  542SOL     MW 2168   0.912   2.275   2.706  0.1524  0.0467 -0.7574
  543SOL     OW 2169   1.395   2.552   2.660 -0.6195 -0.0869 -0.1704
  543SOL    HW1 2170   1.426   2.467   2.613  1.4216 -0.6703 -2.0669
  543SOL    HW2 2171   1.478   2.598   2.687  1.1335 -0.7225 -2.8516
  543SOL     MW 2172   1.410   2.547   2.657 -0.1189 -0.2477 -0.7744
  544SOL     OW 2173   0.664   0.173   2.696 -0.4765  0.2999  0.7648
  544SOL    HW1 2174   0.586   0.217   2.693  2.6481 -0.1436  2.9627
  544SOL    HW2 2175   0.650   0.115   2.626 -1.9050  0.9804  1.3902
  544SOL     MW 2176   0.652   0.171   2.686 -0.2527  0.3312  1.1373
  545SOL     OW 2177   1.535   2.156   2.339  0.3256 -0.1851 -0.3711
  545SOL    HW1 2178   1.479   2.147   2.258 -2.2712  2.8530 -1.1557
  545SOL    HW2 2179   1.628   2.128   2.320 -2.0209  0.3742  4.4570
  545SOL     MW 2180   1.540   2.151   2.326 -0.3266  0.2895  0.1624
  546SOL     OW 2181   3.011   1.987   0.082  0.2628  0.2309  0.0702
  546SOL    HW1 2182   3.000   2.059   0.021 -0.4271 -1.7089  2.1768
  546SOL    HW2 2183   3.095   1.952   0.080 -0.2401 -0.3754 -1.9600
  546SOL     MW 2184   3.021   1.992   0.074  0.1054 -0.1051  0.0803
  547SOL     OW 2185   0.152   3.006   0.085  0.5872  0.5838  0.4927
  547SOL    HW1 2186   0.226   3.052   0.041 -0.1613  2.4901  1.6018
  547SOL    HW2 2187   0.190   2.922   0.113 -0.8400 -1.9061 -1.1872
  547SOL     MW 2188   0.167   3.001   0.083  0.3002  0.5068  0.4174
  548SOL     OW 2189   0.297   2.475   0.269 -0.0451 -0.0540  0.0183
  548SOL    HW1 2190   0.294   2.568   0.236  0.1378  1.4375  2.6869
  548SOL    HW2 2191   0.227   2.426   0.221 -2.2831 -0.7751 -1.7239
  548SOL     MW 2192   0.287   2.481   0.258 -0.3162  0.0477  0.1405
  549SOL     OW 2193   0.722   1.902   2.120 -0.1283  0.4508  0.3333
  549SOL    HW1 2194   0.734   1.988   2.095 -0.2640 -0.6112 -1.3072
  549SOL    HW2 2195   0.756   1.898   2.208  0.7335  1.1871 -0.8943
  549SOL     MW 2196   0.728   1.913   2.128 -0.0325  0.4078 -0.0451
  550SOL     OW 2197   1.817   1.755   2.581  0.0073 -0.1129  0.3796
  550SOL    HW1 2198   1.810   1.789   2.493  0.7945  0.7995  0.4489
  550SOL    HW2 2199   1.820   1.835   2.632 -0.6170 -0.6364  0.7111
  550SOL     MW 2200   1.816   1.770   2.576  0.0288 -0.0616  0.4325
  551SOL     OW 2201   0.844   2.349   0.206  0.2778 -0.1712  0.3042
  551SOL    HW1 2202   0.929   2.378   0.180  1.8671 -1.1489 -0.0874
  551SOL    HW2 2203   0.857   2.255   0.226  0.2868 -2.7226 -3.0120
  551SOL     MW 2204   0.857   2.341   0.205  0.4887 -0.6369 -0.1850
  552SOL     OW 2205   1.808   1.810   2.299 -0.1939  0.5896 -0.2874
  552SOL    HW1 2206   1.719   1.796   2.273 -2.9222  1.1740 -0.1078
  552SOL    HW2 2207   1.851   1.776   2.210 -0.7804  1.9404  1.1101
  552SOL     MW 2208   1.802   1.804   2.284 -0.6312  0.8450 -0.0793
  553SOL     OW 2209   1.220   2.326   1.541  0.0926  0.0526  0.0723
  553SOL    HW1 2210   1.247   2.237   1.542 -0.9751 -0.7978  1.6436
  553SOL    HW2 2211   1.284   2.367   1.484 -2.3301  1.0756 -2.0082
  553SOL     MW 2212   1.232   2.320   1.533 -0.3679  0.0754  0.0051
  554SOL     OW 2213   0.565   2.839   2.686 -0.1153  0.1757 -0.3619
  554SOL    HW1 2214   0.535   2.914   2.638  1.4333 -1.7680 -2.0767
  554SOL    HW2 2215   0.612   2.787   2.625 -1.3234  3.8412 -1.3348
  554SOL     MW 2216   0.567   2.842   2.672 -0.0703  0.4029 -0.7165
  555SOL     OW 2217   0.579   2.397   2.594 -0.6539  0.1789 -0.5477
  555SOL    HW1 2218   0.585   2.304   2.622 -1.1547  2.0098 -0.9504
  555SOL    HW2 2219   0.660   2.414   2.550  2.5954  0.2958  1.4882
  555SOL     MW 2220   0.591   2.387   2.592 -0.2912  0.4359 -0.3323
  556SOL     OW 2221   0.997   1.809   0.125 -0.5148 -0.0635 -0.0728
  556SOL    HW1 2222   1.007   1.777   0.035  0.4675  2.7562  0.6844
  556SOL    HW2 2223   1.086   1.836   0.153 -0.1783  0.9251  2.4746
  556SOL     MW 2224   1.010   1.808   0.117 -0.3408  0.4390  0.3632
  557SOL     OW 2225   0.913   2.678   0.446 -0.4529 -0.0402 -0.0169
  557SOL    HW1 2226   0.983   2.674   0.378  2.2789 -1.3338  0.5149
  557SOL    HW2 2227   0.877   2.769   0.425 -1.7368 -0.0953  1.2634
  557SOL     MW 2228   0.917   2.689   0.434 -0.2618 -0.2182  0.2222
  558SOL     OW 2229   0.264   2.154   0.018  0.3620  1.1763 -0.1697
  558SOL    HW1 2230   0.231   2.062   0.035 -3.7947 -0.5830 -0.1780
  558SOL    HW2 2231   0.199   2.198   0.075 -0.7518  1.0453  3.4505
  558SOL     MW 2232   0.251   2.148   0.028 -0.3334  0.9269  0.3069
  559SOL     OW 2233   1.185   2.326   2.073 -0.0016  0.5730  0.8208
  559SOL    HW1 2234   1.173   2.418   2.082  4.6371 -1.7469  0.1625
  559SOL    HW2 2235   1.172   2.290   2.163  0.4161 -1.8767  0.1742
  559SOL     MW 2236   1.181   2.333   2.086  0.6655 -0.0563  0.6487
  560SOL     OW 2237   2.000   2.794   0.017  0.3478  0.2107 -0.3319
  560SOL    HW1 2238   2.046   2.860  -0.032 -0.5097 -0.0557  1.6901
  560SOL    HW2 2239   1.924   2.774  -0.033 -0.0287  0.2910  0.4914
  560SOL     MW 2240   1.996   2.800   0.004  0.1850  0.1861  0.0435
  561SOL     OW 2241   0.450   2.071   0.209 -0.1215  0.2180  0.2842
  561SOL    HW1 2242   0.386   2.088   0.132 -5.8427 -1.5221 -1.4179
  561SOL    HW2 2243   0.483   2.154   0.238 -0.6588  2.4688 -0.3626
  561SOL     MW 2244   0.446   2.084   0.203 -0.9473  0.2854 -0.0257
  562SOL     OW 2245   0.908   2.168   2.166 -0.0759  0.1005 -0.0616
  562SOL    HW1 2246   0.897   2.260   2.173  2.1473 -1.9439 -0.4378
  562SOL    HW2 2247   0.973   2.158   2.238 -0.9079  0.8757 -1.6301
  562SOL     MW 2248   0.915   2.179   2.177  0.1077 -0.0669 -0.3182
  563SOL     OW 2249   1.208   0.248   0.555  0.4912  0.5748  0.1868
  563SOL    HW1 2250   1.158   0.233   0.474  0.3037 -2.3519 -0.8500
  563SOL    HW2 2251   1.247   0.161   0.584  0.4065 -1.2992  0.9098
  563SOL     MW 2252   1.206   0.235   0.548  0.4553 -0.0586  0.1454
  564SOL     OW 2253   1.059   2.569   2.396  0.4185 -0.3285 -0.3559
  564SOL    HW1 2254   1.083   2.590   2.304 -0.2036 -2.3780 -2.0982
  564SOL    HW2 2255   1.109   2.620   2.459 -0.5089 -1.1203  2.7083
  564SOL     MW 2256   1.069   2.578   2.392  0.2140 -0.7034 -0.1815
  565SOL     OW 2257   2.906   2.664   2.594 -0.5981  0.3545 -0.4117
  565SOL    HW1 2258   2.973   2.701   2.540 -0.0241 -0.5660  0.8156
  565SOL    HW2 2259   2.838   2.646   2.530  2.7578  1.2893  3.9101
  565SOL     MW 2260   2.906   2.667   2.578 -0.0796  0.3564  0.3205
  566SOL     OW 2261   2.263   1.922   2.346 -0.3756 -0.5560  0.3329
  566SOL    HW1 2262   2.269   1.932   2.249  0.2987  0.8563 -0.4105
  566SOL    HW2 2263   2.309   2.000   2.381 -1.0208 -0.1177  1.5259
  566SOL     MW 2264   2.270   1.934   2.338 -0.3718 -0.3118  0.3922
  567SOL     OW 2265   1.185   2.863   0.062 -0.4694 -0.1491 -0.9388
  567SOL    HW1 2266   1.216   2.954   0.059  1.4716  1.8507 -0.7545
  567SOL    HW2 2267   1.189   2.830  -0.032  0.3946  0.4308 -0.9241
  567SOL     MW 2268   1.190   2.871   0.050 -0.0993  0.1913 -0.9125
  568SOL     OW 2269   1.655   2.119   2.843 -0.1397 -0.2721 -0.0605
  568SOL    HW1 2270   1.676   2.160   2.929  1.7296  0.4333 -0.7585
  568SOL    HW2 2271   1.727   2.066   2.820 -0.7028  0.3646  4.9989
  568SOL     MW 2272   1.667   2.118   2.851  0.0326 -0.0950  0.5149
  569SOL     OW 2273   0.206   2.179   2.427  0.4283 -0.0727 -0.0715
  569SOL    HW1 2274   0.174   2.239   2.361  2.4181  0.5219  0.4513
  569SOL    HW2 2275   0.198   2.237   2.509  0.2993 -1.0062 -0.6644
  569SOL     MW 2276   0.200   2.195   2.429  0.6738 -0.1174 -0.0808
  570SOL     OW 2277   1.444   0.414   0.505 -0.4189 -0.1742  0.2358
  570SOL    HW1 2278   1.357   0.391   0.532  0.3006 -0.8048 -1.8896
  570SOL    HW2 2279   1.507   0.431   0.579  4.2849 -5.6509  1.0917
  570SOL     MW 2280   1.441   0.413   0.518  0.2966 -0.9800  0.0683
  571SOL     OW 2281   1.491   2.398   1.917 -0.1802  0.2450  0.0114
  571SOL    HW1 2282   1.553   2.417   1.987 -1.3586  1.2767  1.4573
  571SOL    HW2 2283   1.441   2.324   1.947  0.2419 -0.1545 -0.8986
  571SOL     MW 2284   1.493   2.391   1.930 -0.2800  0.3284  0.0821
  572SOL     OW 2285   0.935   2.637   0.033 -0.0710  0.5456  0.8427
  572SOL    HW1 2286   0.941   2.667  -0.057  1.5880 -0.9927  1.5986
  572SOL    HW2 2287   0.840   2.614   0.051 -0.3851 -1.1289 -0.2912
  572SOL     MW 2288   0.923   2.638   0.023  0.1065  0.1217  0.7928
  573SOL     OW 2289   1.127   2.417   0.179  0.6141 -0.2933 -0.4214
  573SOL    HW1 2290   1.218   2.420   0.178 -2.5603 -0.1026  2.1519
  573SOL    HW2 2291   1.103   2.508   0.175 -2.1319  0.8890  0.6230
  573SOL     MW 2292   1.136   2.429   0.178 -0.1671 -0.1121  0.0559
  574SOL     OW 2293   1.131   2.683   0.274 -0.2753 -0.3535  0.6842
  574SOL    HW1 2294   1.221   2.694   0.288 -1.6423 -1.4619  0.5411
  574SOL    HW2 2295   1.112   2.754   0.208 -1.9434 -2.7683  0.1000
  574SOL     MW 2296   1.141   2.694   0.268 -0.6757 -0.8184  0.5882
  575SOL     OW 2297   3.049   2.285   1.835  0.1107 -0.1540 -0.2933
  575SOL    HW1 2298   3.073   2.210   1.775  1.5723 -0.4558  0.0138
  575SOL    HW2 2299   3.114   2.352   1.810  0.2508  0.5332 -1.0027
  575SOL     MW 2300   3.061   2.284   1.824  0.3220 -0.1032 -0.3464
  576SOL     OW 2301   2.812   1.817   2.069  0.0517  0.2780 -0.4528
  576SOL    HW1 2302   2.837   1.888   2.017  1.1309 -0.8179 -0.7666
  576SOL    HW2 2303   2.730   1.803   2.026 -0.1141 -0.2938  0.7357
  576SOL     MW 2304   2.805   1.824   2.057  0.1722  0.0579 -0.3374
  577SOL     OW 2305   2.096   0.293   0.065 -0.3051  0.6674 -0.6184
  577SOL    HW1 2306   2.035   0.305  -0.012 -1.4763  1.6540 -0.9673
  577SOL    HW2 2307   2.042   0.255   0.129 -1.0372 -0.7224  1.4870
  577SOL     MW 2308   2.081   0.289   0.063 -0.5562  0.6142 -0.3866
  578SOL     OW 2309   2.034   2.055   2.410  0.1764 -0.3842  0.3011
  578SOL    HW1 2310   1.967   2.056   2.345 -1.3340  0.5533  0.3150
  578SOL    HW2 2311   2.113   2.007   2.373  1.5315 -0.8053  2.5986
  578SOL     MW 2312   2.035   2.049   2.397  0.1559 -0.3161  0.6061
  579SOL     OW 2313   0.857   2.413   2.455  0.1301  0.1534 -0.3995
  579SOL    HW1 2314   0.885   2.370   2.539  0.4630  0.2437  0.8540
  579SOL    HW2 2315   0.939   2.473   2.442  0.7760  0.0408 -0.2444
  579SOL     MW 2316   0.871   2.415   2.465  0.2592  0.1505 -0.2136
  580SOL     OW 2317   0.884   2.985   0.015 -0.5452 -0.0202 -0.1981
  580SOL    HW1 2318   0.947   2.922   0.025  2.0441  2.6497 -0.9458
  580SOL    HW2 2319   0.818   2.942  -0.046 -0.5560 -0.5187 -1.8166
  580SOL     MW 2320   0.883   2.971   0.008 -0.2050  0.2663 -0.5103
  581SOL     OW 2321   1.064   2.474   1.701  0.2032 -0.8278 -0.3366
  581SOL    HW1 2322   1.100   2.562   1.707 -1.1691  0.2220  3.0201
  581SOL    HW2 2323   1.124   2.424   1.649 -1.1696 -0.9921 -2.6504
  581SOL     MW 2324   1.077   2.479   1.695 -0.1590 -0.7110 -0.1990
  582SOL     OW 2325   0.019   2.841   2.490  0.4994 -0.2600 -0.5718
  582SOL    HW1 2326   0.015   2.914   2.550 -0.7844  2.3184 -1.6621
  582SOL    HW2 2327   0.114   2.810   2.485 -1.7952 -1.4357 -0.7037
  582SOL     MW 2328   0.031   2.846   2.497  0.0273 -0.0749 -0.7331
  583SOL     OW 2329   1.946   2.453   2.645 -1.1478 -0.0107 -0.0772
  583SOL    HW1 2330   2.036   2.480   2.612 -0.4125 -0.1346  2.1928
  583SOL    HW2 2331   1.946   2.362   2.638  1.1104  0.7899 -2.0157
  583SOL     MW 2332   1.958   2.445   2.640 -0.7528  0.0786 -0.0335
  584SOL     OW 2333   0.184   1.878   2.095  0.3446  0.6511 -0.3002
  584SOL    HW1 2334   0.276   1.881   2.097 -0.6977 -1.7980 -0.8584
  584SOL    HW2 2335   0.160   1.929   2.176  0.9078  1.8010 -0.5954
  584SOL     MW 2336   0.193   1.885   2.106  0.2814  0.4797 -0.4128
  585SOL     OW 2337   1.486   2.626   0.076 -0.2489  0.9122  0.3184
  585SOL    HW1 2338   1.452   2.639  -0.011  0.1520  0.7094  1.3315
  585SOL    HW2 2339   1.429   2.674   0.130 -1.3810  0.0962  3.4432
  585SOL     MW 2340   1.474   2.634   0.071 -0.3454  0.7778  0.8644
  586SOL     OW 2341   1.263   2.957   2.399  0.2942 -1.0691 -0.0403
  586SOL    HW1 2342   1.343   2.950   2.345  1.6868 -2.0535 -0.1404
  586SOL    HW2 2343   1.293   3.007   2.476  2.7007  0.6033  1.6837
  586SOL     MW 2344   1.278   2.963   2.402  0.7955 -0.9783  0.1739
  587SOL     OW 2345   1.248   1.617   2.131  0.5513  0.3563 -0.5987
  587SOL    HW1 2346   1.249   1.553   2.206 -0.2378  0.0025 -0.1945
  587SOL    HW2 2347   1.215   1.552   2.061 -1.7348 -0.4278  0.3021
  587SOL     MW 2348   1.244   1.600   2.132  0.1456  0.2062 -0.4265
  588SOL     OW 2349   1.416   2.155   2.725  0.0092  0.3627  0.4930
  588SOL    HW1 2350   1.508   2.137   2.755  0.9128  0.3337  0.4647
  588SOL    HW2 2351   1.359   2.181   2.804  1.5259 -1.4470 -0.0205
  588SOL     MW 2352   1.420   2.156   2.739  0.3285  0.1201  0.4215
  589SOL     OW 2353   1.349   2.083   0.078  0.0255  0.2443 -0.3452
  589SOL    HW1 2354   1.381   2.175   0.100  2.0092 -0.1417 -0.9167
  589SOL    HW2 2355   1.312   2.044   0.159  3.2549 -0.8020  0.3183
  589SOL     MW 2356   1.348   2.090   0.092  0.7133  0.0553 -0.3331
  590SOL     OW 2357   0.388   2.578   2.271 -0.0281 -0.2171  0.2150
  590SOL    HW1 2358   0.352   2.579   2.182 -0.6870  0.6672  1.0181
  590SOL    HW2 2359   0.473   2.625   2.265 -0.8213  2.1283 -0.5246
  590SOL     MW 2360   0.395   2.584   2.258 -0.2197  0.2091  0.2234
  591SOL     OW 2361   2.310   0.718   0.022 -0.3288 -0.2481  0.1839
  591SOL    HW1 2362   2.238   0.740  -0.037 -1.1211  1.8822  0.6727
  591SOL    HW2 2363   2.393   0.722  -0.031 -1.2315 -0.1828  0.2238
  591SOL     MW 2364   2.311   0.721   0.007 -0.5524  0.0416  0.2537
  592SOL     OW 2365   1.865   3.030   0.822  0.3369  0.0924 -0.3867
  592SOL    HW1 2366   1.822   3.075   0.753  0.0785  1.7365  3.0094
  592SOL    HW2 2367   1.910   2.952   0.795 -0.9884 -0.2272 -2.9478
  592SOL     MW 2368   1.865   3.026   0.810  0.1279  0.2671 -0.2765
  593SOL     OW 2369   1.912   0.754   0.833  0.0398  0.1050  0.0483
  593SOL    HW1 2370   1.826   0.741   0.789  1.0585  0.8809 -0.4327
  593SOL    HW2 2371   1.951   0.670   0.856 -0.1287 -1.8686 -1.5807
  593SOL     MW 2372   1.906   0.741   0.830  0.1520 -0.0531 -0.2301
  594SOL     OW 2373   2.745   1.118   1.384  0.1005  0.3789  0.1889
  594SOL    HW1 2374   2.839   1.140   1.400 -1.3157 -1.0905  0.3314
  594SOL    HW2 2375   2.752   1.103   1.290 -3.7704  0.9488  2.6692
  594SOL     MW 2376   2.759   1.119   1.374 -0.5971  0.2602  0.5349
  595SOL     OW 2377   0.454   0.951   0.684  0.0291 -0.0326  0.0346
  595SOL    HW1 2378   0.469   1.019   0.618 -1.6113 -0.7768 -1.4194
  595SOL    HW2 2379   0.476   0.992   0.773 -0.8692 -0.8755 -0.7963
  595SOL     MW 2380   0.459   0.965   0.687 -0.3058 -0.2420 -0.2669
  596SOL     OW 2381   2.427   1.389   0.569  0.0612 -0.0220 -0.2410
  596SOL    HW1 2382   2.458   1.460   0.515 -0.2613 -3.7633 -2.9095
  596SOL    HW2 2383   2.486   1.385   0.641  0.7168  0.2333 -0.6759
  596SOL     MW 2384   2.439   1.398   0.572  0.1052 -0.4819 -0.6504
  597SOL     OW 2385   2.188   0.669   1.718 -0.1574  0.1157 -0.6675
  597SOL    HW1 2386   2.254   0.598   1.743 -0.4042  2.1965  0.6431
  597SOL    HW2 2387   2.126   0.636   1.648  2.2668  1.7731 -2.1120
  597SOL     MW 2388   2.189   0.655   1.712  0.1299  0.6089 -0.6852
  598SOL     OW 2389   2.598   1.024   2.870 -0.0926 -0.0454  0.1370
  598SOL    HW1 2390   2.644   0.992   2.792 -2.0102 -2.2374  3.7467
  598SOL    HW2 2391   2.673   1.073   2.900  1.9676  2.9892 -0.8900
  598SOL     MW 2392   2.614   1.026   2.864 -0.0738  0.0658  0.4777
  599SOL     OW 2393   2.930   0.323   2.067  0.0678 -0.3935  0.2856
  599SOL    HW1 2394   2.878   0.349   2.149  0.2601 -0.7885 -1.2206
  599SOL    HW2 2395   2.952   0.415   2.035 -1.0923  0.0784 -0.1036
  599SOL     MW 2396   2.926   0.339   2.074 -0.0599 -0.3833  0.0355
  600SOL     OW 2397   1.894   1.719   0.903 -0.0567 -0.2190 -0.3023
  600SOL    HW1 2398   1.892   1.764   0.988 -1.2997  0.5237 -1.4037
  600SOL    HW2 2399   1.821   1.756   0.856 -0.7304 -1.1726  0.9634
  600SOL     MW 2400   1.884   1.730   0.908 -0.3096 -0.2468 -0.2806
  601SOL     OW 2401   2.533   0.792   0.834 -0.2966  0.1787 -0.0846
  601SOL    HW1 2402   2.527   0.807   0.930  2.0621 -1.3146 -2.2006
  601SOL    HW2 2403   2.469   0.724   0.804 -4.3397  3.4297 -1.6836
  601SOL     MW 2404   2.524   0.785   0.843 -0.5189  0.4106 -0.5748
  602SOL     OW 2405   2.333   1.926   0.721 -0.2117  0.4949  0.4314
  602SOL    HW1 2406   2.262   1.868   0.754  0.7020 -0.4800 -0.1843
  602SOL    HW2 2407   2.278   1.983   0.667 -1.4098 -3.6798  0.9481
  602SOL     MW 2408   2.316   1.926   0.718 -0.2492 -0.1846  0.4183
  603SOL     OW 2409   3.053   1.395   1.796  0.8759 -0.3642  0.0607
  603SOL    HW1 2410   3.080   1.416   1.886  0.6558  0.7715  2.4208
  603SOL    HW2 2411   3.059   1.299   1.785 -0.9149  0.1792 -1.0022
  603SOL     MW 2412   3.057   1.385   1.806  0.6106 -0.1427  0.2318
  604SOL     OW 2413   2.114   1.573   0.450  0.1026  0.3735 -0.1590
  604SOL    HW1 2414   2.131   1.515   0.519 -2.7161 -0.0580 -1.2749
  604SOL    HW2 2415   2.046   1.631   0.488 -0.8646 -1.9627  1.1668
  604SOL     MW 2416   2.107   1.573   0.464 -0.3969  0.0084 -0.1313
  605SOL     OW 2417   2.681   1.562   0.843  0.5335 -0.1706  0.1402
  605SOL    HW1 2418   2.593   1.597   0.829  1.3124  1.3253  0.4692
  605SOL    HW2 2419   2.673   1.463   0.843  3.1725 -1.4970 -3.7317
  605SOL     MW 2420   2.668   1.553   0.841  0.9845 -0.1483 -0.3272
  606SOL     OW 2421   2.561   1.773   1.877  0.1101  0.2762 -1.1321
  606SOL    HW1 2422   2.463   1.783   1.875  0.1253  1.5326  0.3842
  606SOL    HW2 2423   2.576   1.681   1.854  1.3027 -0.7274  0.8150
  606SOL     MW 2424   2.550   1.762   1.874  0.2695  0.3096 -0.6751
  607SOL     OW 2425   2.330   1.033   2.972  0.3725  0.0485 -0.5558
  607SOL    HW1 2426   2.417   1.059   2.933  0.2787 -2.6432 -0.2143
  607SOL    HW2 2427   2.357   1.022   3.063 -1.8782  0.7497 -2.8195
  607SOL     MW 2428   2.345   1.035   2.979  0.0632 -0.2142 -0.8094
  608SOL     OW 2429   1.876   0.330   0.572 -0.1870 -0.4645 -0.4406
  608SOL    HW1 2430   1.898   0.378   0.491 -1.9431  2.8043 -2.3738
  608SOL    HW2 2431   1.872   0.239   0.541  0.4455  2.8114 -1.0236
  608SOL     MW 2432   1.878   0.324   0.557 -0.3353  0.3990 -0.7726
  609SOL     OW 2433   2.168   1.950   3.059 -0.6795  0.2533  0.3839
  609SOL    HW1 2434   2.078   1.925   3.039  0.0356 -0.9563  1.9152
  609SOL    HW2 2435   2.176   1.943   3.154  0.7875 -1.1954 -0.2161
  609SOL     MW 2436   2.157   1.946   3.069 -0.3916 -0.0974  0.5068
  610SOL     OW 2437   1.834   1.044   1.248 -1.1289 -0.2776 -0.0739
  610SOL    HW1 2438   1.829   0.964   1.192  0.3519 -1.8058 -0.5070
  610SOL    HW2 2439   1.747   1.039   1.282  0.6079  0.8013 -1.1690
  610SOL     MW 2440   1.822   1.033   1.245 -0.7044 -0.3368 -0.2755
  611SOL     OW 2441   2.446   1.674   0.754 -0.7507  0.5141  0.2270
  611SOL    HW1 2442   2.395   1.753   0.756 -0.1875 -2.2759  1.0843
  611SOL    HW2 2443   2.439   1.648   0.662  1.9650  0.3967 -2.5965
  611SOL     MW 2444   2.438   1.681   0.742 -0.3181  0.1305 -0.0325
  612SOL     OW 2445   2.777   2.845   0.440  0.0224  0.1650 -0.0959
  612SOL    HW1 2446   2.801   2.914   0.503 -0.5734 -1.6415  0.6133
  612SOL    HW2 2447   2.859   2.832   0.392  0.5287  2.2642 -1.0247
  612SOL     MW 2448   2.791   2.852   0.442  0.0106  0.2036 -0.1249
  613SOL     OW 2449   1.523   1.032   1.026 -0.5474  0.1469 -0.9112
  613SOL    HW1 2450   1.529   1.125   1.048  0.5286  1.1034 -0.1989
  613SOL    HW2 2451   1.533   0.987   1.106 -2.4486  1.2811 -0.5737
  613SOL     MW 2452   1.525   1.038   1.039 -0.6563  0.4227 -0.7727
  614SOL     OW 2453   2.026   0.550   1.532 -0.3968  0.4211  0.3097
  614SOL    HW1 2454   2.017   0.471   1.589 -2.6716  0.6882  1.2590
  614SOL    HW2 2455   2.038   0.528   1.440 -0.9729 -0.8059  0.5773
  614SOL     MW 2456   2.027   0.536   1.527 -0.7730  0.2945  0.4703
  615SOL     OW 2457   2.226   0.832   0.256  0.3689 -0.6366  0.4773
  615SOL    HW1 2458   2.295   0.805   0.317 -0.5538  0.7779 -0.4185
  615SOL    HW2 2459   2.255   0.805   0.172 -1.5865  2.5522 -0.2427
  615SOL     MW 2460   2.239   0.825   0.253 -0.0108 -0.0292  0.2641
  616SOL     OW 2461   2.589   0.345   1.598 -0.4737 -0.1989 -0.0029
  616SOL    HW1 2462   2.530   0.292   1.546  2.0198 -2.0053 -2.7185
  616SOL    HW2 2463   2.598   0.424   1.541 -1.3593  1.2068  3.0609
  616SOL     MW 2464   2.582   0.349   1.583 -0.2615 -0.2518  0.0430
  617SOL     OW 2465   2.828   0.555   1.686  0.3067 -0.3100 -0.6963
  617SOL    HW1 2466   2.766   0.601   1.739 -1.5241 -0.6707 -0.5454
  617SOL    HW2 2467   2.823   0.461   1.712  3.1825 -1.2355  0.7315
  617SOL     MW 2468   2.819   0.549   1.697  0.4446 -0.4797 -0.4880
  618SOL     OW 2469   2.682   0.353   1.928 -0.0307  0.4548  0.6128
  618SOL    HW1 2470   2.679   0.452   1.933 -1.3388  0.3705  2.6212
  618SOL    HW2 2471   2.767   0.330   1.967  0.1089  2.1026  0.6021
  618SOL     MW 2472   2.693   0.363   1.934 -0.1849  0.6611  0.8764
  619SOL     OW 2473   2.623   0.743   0.149  0.4006 -0.2926 -0.1847
  619SOL    HW1 2474   2.694   0.803   0.170 -0.6609  0.1248  2.2208
  619SOL    HW2 2475   2.586   0.711   0.235  1.0032  0.5356 -2.7750
  619SOL     MW 2476   2.628   0.746   0.163  0.3401 -0.1282 -0.2091
  620SOL     OW 2477   2.312   1.069   0.986  0.3940 -0.0752  0.5074
  620SOL    HW1 2478   2.349   1.138   0.931 -0.4034  0.2833 -2.1778
  620SOL    HW2 2479   2.334   0.990   0.937  0.3200 -2.3375  1.9583
  620SOL     MW 2480   2.320   1.067   0.972  0.2790 -0.3264  0.3445
  621SOL     OW 2481   1.458   2.094   1.990 -0.1118  0.3957 -0.2289
  621SOL    HW1 2482   1.409   2.015   2.011  0.2969 -3.2695 -0.0857
  621SOL    HW2 2483   1.549   2.072   1.990  0.7481 -0.5779  0.7122
  621SOL     MW 2484   1.463   2.080   1.993  0.0556 -0.2163 -0.0858
  622SOL     OW 2485   2.651   0.176   0.246  0.2899  0.2842 -0.0500
  622SOL    HW1 2486   2.732   0.231   0.264 -1.3410  1.9933  1.0562
  622SOL    HW2 2487   2.697   0.099   0.214  1.9438 -0.2868 -1.4089
  622SOL     MW 2488   2.668   0.173   0.244  0.2929  0.4343 -0.0833
  623SOL     OW 2489   2.333   2.730   0.924 -0.2398  0.6309  0.2491
  623SOL    HW1 2490   2.400   2.802   0.906  0.5238  1.8964  0.9349
  623SOL    HW2 2491   2.269   2.774   0.987 -2.0250  1.1029  0.0983
  623SOL     MW 2492   2.333   2.745   0.930 -0.3746  0.8601  0.3197
  624SOL     OW 2493   2.218   1.697   3.024 -0.5355  0.0322 -0.5414
  624SOL    HW1 2494   2.126   1.676   3.017  1.6878 -0.4001 -0.4913
  624SOL    HW2 2495   2.209   1.794   3.047 -1.1527  0.5905  1.3553
  624SOL     MW 2496   2.205   1.707   3.026 -0.3236  0.0488 -0.2845
  625SOL     OW 2497   2.153   1.983   1.091  0.5559  0.0673  0.2699
  625SOL    HW1 2498   2.204   1.921   1.145 -0.6048  0.2672 -0.8434
  625SOL    HW2 2499   2.191   1.978   1.006  0.7306  1.2821  2.3183
  625SOL     MW 2500   2.164   1.974   1.087  0.4258  0.2539  0.3933
  626SOL     OW 2501   0.165   1.624   2.310 -0.0561  0.1766  0.2309
  626SOL    HW1 2502   0.122   1.543   2.334  0.1129  3.7170  0.0739
  626SOL    HW2 2503   0.162   1.683   2.386 -1.7290  1.3570  0.1432
  626SOL     MW 2504   0.159   1.621   2.323 -0.2545  0.7995  0.1987
  627SOL     OW 2505   2.505   0.822   2.616 -0.2244 -0.0198  0.0202
  627SOL    HW1 2506   2.448   0.898   2.632 -0.2756 -0.8688  2.3164
  627SOL    HW2 2507   2.467   0.781   2.532  1.6186 -2.4000 -1.2547
  627SOL     MW 2508   2.492   0.827   2.607  0.0120 -0.4459  0.1550
  628SOL     OW 2509   2.259   1.338   1.359  0.0034  0.5135  0.1505
  628SOL    HW1 2510   2.215   1.287   1.298  0.3544  0.1552  2.3339
  628SOL    HW2 2511   2.350   1.343   1.334  0.0611 -0.5982 -1.4405
  628SOL     MW 2512   2.265   1.332   1.348  0.0573  0.3196  0.2287
  629SOL     OW 2513   2.002   0.529   1.256 -0.0062  0.5061  0.1050
  629SOL    HW1 2514   2.044   0.615   1.232 -1.2844  1.8780 -1.4979
  629SOL    HW2 2515   1.913   0.555   1.278  1.0454  1.5539  1.2136
  629SOL     MW 2516   1.996   0.544   1.256 -0.0361  0.8254  0.0398
  630SOL     OW 2517   2.498   1.852   3.010 -0.2492 -0.2056  0.9105
  630SOL    HW1 2518   2.498   1.943   2.980 -0.3756 -0.8649 -1.4775
  630SOL    HW2 2519   2.406   1.823   3.002  2.9587  1.6576 -0.5430
  630SOL     MW 2520   2.486   1.860   3.005  0.1574 -0.0468  0.4036
  631SOL     OW 2521   1.987   1.808   1.597 -0.4224  0.0754  0.4223
  631SOL    HW1 2522   2.013   1.719   1.627  1.2375 -0.7030  0.0307
  631SOL    HW2 2523   1.943   1.790   1.516 -0.9861  0.2567  2.3184
  631SOL     MW 2524   1.985   1.794   1.591 -0.2777 -0.0034  0.6208
  632SOL     OW 2525   0.091   2.092   1.499  0.4056 -0.1422  0.2047
  632SOL    HW1 2526   0.032   2.064   1.566 -1.0311  2.5985 -2.4944
  632SOL    HW2 2527   0.129   2.007   1.464  0.8559 -3.3604 -2.9588
  632SOL     MW 2528   0.088   2.077   1.503  0.2754 -0.2052 -0.5688
  633SOL     OW 2529   2.466   0.678   0.391  0.4359  0.4380  0.0694
  633SOL    HW1 2530   2.546   0.657   0.438  0.0971  0.5205  1.1736
  633SOL    HW2 2531   2.414   0.607   0.425 -1.2431 -1.7386 -1.2843
  633SOL     MW 2532   2.469   0.666   0.402  0.1696  0.1617  0.0365
  634SOL     OW 2533   2.619  -0.004   0.702 -0.1113 -0.6930  0.2698
  634SOL    HW1 2534   2.684   0.066   0.697  0.1245  0.8990  1.6709
  634SOL    HW2 2535   2.568   0.001   0.623 -0.0127  0.2456 -2.6201
  634SOL     MW 2536   2.621   0.006   0.691 -0.0672 -0.3591  0.0734
  635SOL     OW 2537   2.579   0.125   1.840  0.2433  0.1816  0.6597
  635SOL    HW1 2538   2.646   0.070   1.800  1.0672  1.4622 -3.5264
  635SOL    HW2 2539   2.618   0.214   1.854  1.7676 -1.1387  1.1423
  635SOL     MW 2540   2.593   0.130   1.837  0.5531  0.1763  0.1711
  636SOL     OW 2541   2.924   1.730   0.960 -0.0121  0.9165  0.1205
  636SOL    HW1 2542   2.846   1.782   0.961 -0.1989  0.2367  0.3278
  636SOL    HW2 2543   2.950   1.706   1.050  3.1745  0.3219 -1.1735
  636SOL     MW 2544   2.917   1.734   0.972  0.3837  0.7484 -0.0229
  637SOL     OW 2545   2.926   1.523   0.657  0.2060  0.2055 -0.0097
  637SOL    HW1 2546   2.956   1.617   0.634  0.8278 -0.4727 -1.3523
  637SOL    HW2 2547   2.863   1.541   0.728  2.8557  0.3886 -0.5768
  637SOL     MW 2548   2.922   1.538   0.664  0.6376  0.1402 -0.2617
  638SOL     OW 2549   2.710   0.588   0.504  0.4518 -0.6086  0.0014
  638SOL    HW1 2550   2.804   0.602   0.476  2.6042 -0.8354  0.9123
  638SOL    HW2 2551   2.713   0.610   0.599 -0.6902  2.7170  1.3580
  638SOL     MW 2552   2.723   0.593   0.513  0.5851 -0.1997  0.3006
  639SOL     OW 2553   1.781   0.057   0.498 -0.4630  0.2400  0.0249
  639SOL    HW1 2554   1.694   0.084   0.489 -0.7364 -0.5246  1.7938
  639SOL    HW2 2555   1.779  -0.032   0.463  1.7768  0.6862 -0.1637
  639SOL     MW 2556   1.769   0.049   0.492 -0.2036  0.1980  0.2334
  640SOL     OW 2557   0.351   1.383   0.069 -0.1454 -0.2141  0.0521
  640SOL    HW1 2558   0.374   1.350  -0.020 -1.5579 -1.1271 -0.3527
  640SOL    HW2 2559   0.322   1.306   0.112  0.3645 -0.9626  0.6135
  640SOL     MW 2560   0.350   1.368   0.063 -0.2645 -0.4333  0.0728
  641SOL     OW 2561   2.216   0.452   0.372 -0.1276 -0.0685  0.4638
  641SOL    HW1 2562   2.262   0.442   0.287 -2.8065  0.0027  0.9193
  641SOL    HW2 2563   2.242   0.371   0.418 -2.5138  0.3725 -0.3129
  641SOL     MW 2564   2.226   0.440   0.366 -0.7959 -0.0009  0.4214
  642SOL     OW 2565   0.040   3.089   0.568  0.3406  0.1281  0.1451
  642SOL    HW1 2566  -0.012   3.158   0.522 -0.1451  2.4592 -0.3672
  642SOL    HW2 2567  -0.037   3.043   0.608  1.5406  0.8449 -0.1691
  642SOL     MW 2568   0.023   3.092   0.568  0.4348  0.5302  0.0360
  643SOL     OW 2569   2.058   0.339   1.700  0.5234 -0.7521  0.0276
  643SOL    HW1 2570   2.116   0.326   1.775 -1.1144  2.7628  1.5121
  643SOL    HW2 2571   2.038   0.260   1.651  0.6044 -0.5372 -1.8113
  643SOL     MW 2572   2.063   0.327   1.703  0.3180 -0.2600 -0.0192
  644SOL     OW 2573   2.715   1.932   1.073 -0.0194  0.2472  0.0164
  644SOL    HW1 2574   2.663   1.893   1.138  1.0984 -1.3839  0.8933
  644SOL    HW2 2575   2.656   1.995   1.026  2.1299  3.7279  0.0333
  644SOL     MW 2576   2.700   1.935   1.075  0.4117  0.4912  0.1343
  645SOL     OW 2577   2.828   0.887   0.661  0.1977 -0.3393  0.2621
  645SOL    HW1 2578   2.921   0.870   0.687 -0.9583 -0.0731  2.7609
  645SOL    HW2 2579   2.780   0.816   0.702  0.4412 -0.7039 -0.5023
  645SOL     MW 2580   2.834   0.876   0.670  0.0773 -0.3523  0.4909
  646SOL     OW 2581   0.193   2.268   0.814  0.9148  0.0310  0.1865
  646SOL    HW1 2582   0.186   2.167   0.817 -0.3562 -0.7920 -1.1934
  646SOL    HW2 2583   0.115   2.289   0.750  0.8370  0.7288 -0.1532
  646SOL     MW 2584   0.182   2.257   0.806  0.7368  0.0145 -0.0404
  647SOL     OW 2585   2.704   0.500   2.981  0.7329  0.0427  0.2615
  647SOL    HW1 2586   2.662   0.433   3.043 -1.5060  1.0748 -1.0608
  647SOL    HW2 2587   2.663   0.577   3.008 -2.7320  0.8730 -0.1477
  647SOL     MW 2588   2.693   0.501   2.993 -0.0196  0.2884  0.0331
  648SOL     OW 2589   2.155   0.746   1.144 -0.5804  0.2870 -0.5439
  648SOL    HW1 2590   2.173   0.771   1.051 -1.2943  1.0512 -2.2307
  648SOL    HW2 2591   2.189   0.816   1.197 -1.3706 -1.9345  0.4235
  648SOL     MW 2592   2.162   0.759   1.138 -0.7788  0.0947 -0.6388
  649SOL     OW 2593   2.390   2.763   1.267 -0.4656  0.3045  0.2441
  649SOL    HW1 2594   2.478   2.802   1.269  0.8718  1.3097  0.2339
  649SOL    HW2 2595   2.399   2.672   1.244 -1.0418  1.4952 -0.9248
  649SOL     MW 2596   2.403   2.756   1.264 -0.3652  0.5942  0.0885
  650SOL     OW 2597   2.826   0.202   0.670  0.0221 -0.2537 -0.0174
  650SOL    HW1 2598   2.868   0.286   0.690 -0.2901 -1.9056  0.0229
  650SOL    HW2 2599   2.884   0.167   0.600  2.5251  0.1714 -0.3619
  650SOL     MW 2600   2.839   0.208   0.663  0.3112 -0.4156 -0.0575
  651SOL     OW 2601   2.986   0.400   0.806 -0.0883  0.1170 -0.3590
  651SOL    HW1 2602   3.076   0.431   0.772  0.3724  0.3940  2.1605
  651SOL    HW2 2603   2.950   0.467   0.863 -1.1167 -0.1514 -0.2473
  651SOL     MW 2604   2.993   0.413   0.809 -0.1632  0.1181 -0.0119
  652SOL     OW 2605   2.389   1.461   3.009 -0.1440  0.4333  0.4480
  652SOL    HW1 2606   2.455   1.478   2.946 -0.2675 -2.0412  2.4484
  652SOL    HW2 2607   2.327   1.540   2.991 -0.1355  0.8019  0.7443
  652SOL     MW 2608   2.390   1.474   2.998 -0.1592  0.1555  0.7510
  653SOL     OW 2609   1.922   0.439   0.323 -0.4527 -0.1004  0.5121
  653SOL    HW1 2610   1.888   0.355   0.283 -1.7397 -1.8085 -0.0505
  653SOL    HW2 2611   2.014   0.463   0.300 -0.9715  1.5031  3.7514
  653SOL     MW 2612   1.930   0.431   0.315 -0.6910 -0.1142  0.8653
  654SOL     OW 2613   2.457   1.037   0.709 -0.3473  0.2754 -0.3520
  654SOL    HW1 2614   2.371   1.053   0.668  1.0276  0.9853 -1.1440
  654SOL    HW2 2615   2.468   0.944   0.722  0.4356 -0.2191  0.2477
  654SOL     MW 2616   2.447   1.027   0.705 -0.0626  0.3038 -0.3774
  655SOL     OW 2617   3.010   0.929   0.391 -0.2083  0.0721 -0.4269
  655SOL    HW1 2618   2.971   0.983   0.463  0.6036  1.1983  1.7649
  655SOL    HW2 2619   3.000   0.835   0.422 -0.2252 -0.9488  2.3986
  655SOL     MW 2620   3.004   0.924   0.404 -0.1034  0.0860  0.2351
  656SOL     OW 2621   1.960   2.670   1.206  0.2119 -0.0211 -0.0959
  656SOL    HW1 2622   1.964   2.741   1.264  2.6043 -1.2623 -0.1279
  656SOL    HW2 2623   2.000   2.602   1.257  1.0786  2.4830  1.0849
  656SOL     MW 2624   1.966   2.670   1.220  0.6419  0.1455  0.0557
  657SOL     OW 2625   0.198   1.577   1.257 -0.0629  0.1816  0.4923
  657SOL    HW1 2626   0.110   1.618   1.240 -1.3366  1.5566 -0.4534
  657SOL    HW2 2627   0.187   1.482   1.250 -1.0011  0.1445 -1.6323
  657SOL     MW 2628   0.185   1.570   1.254 -0.3547  0.3581  0.0872
  658SOL     OW 2629   2.693   1.382   0.219 -0.0852 -0.3685 -0.3579
  658SOL    HW1 2630   2.630   1.326   0.271 -1.4442 -0.4876 -2.0108
  658SOL    HW2 2631   2.757   1.433   0.278  0.1076  2.1037 -2.7623
  658SOL     MW 2632   2.693   1.382   0.234 -0.2391 -0.0580 -0.8932
  659SOL     OW 2633   2.297   1.532   1.027 -0.0763  0.2232  0.2445
  659SOL    HW1 2634   2.381   1.518   1.082 -2.9245  1.2806 -2.6825
  659SOL    HW2 2635   2.233   1.559   1.095  1.5055 -4.3104  0.9643
  659SOL     MW 2636   2.299   1.534   1.044 -0.2434 -0.2354 -0.0467
  660SOL     OW 2637   2.043   1.570   1.681 -0.6638  0.2248 -0.1544
  660SOL    HW1 2638   2.033   1.577   1.781  1.0004  1.9404  0.0161
  660SOL    HW2 2639   1.990   1.499   1.652 -0.8364  1.8901  0.7690
  660SOL     MW 2640   2.035   1.562   1.690 -0.4670  0.6709 -0.0100
  661SOL     OW 2641   2.384   1.092   0.183 -0.1894 -0.7114  0.7052
  661SOL    HW1 2642   2.425   1.160   0.240  0.3235  2.0541  1.3551
  661SOL    HW2 2643   2.415   1.004   0.212 -1.3362 -2.2401  3.2508
  661SOL     MW 2644   2.393   1.089   0.194 -0.2730 -0.5482  1.1268
  662SOL     OW 2645   2.502   2.930   0.886 -0.5121 -0.1486  0.2862
  662SOL    HW1 2646   2.457   3.001   0.930 -0.4321 -1.9627 -0.9494
  662SOL    HW2 2647   2.544   2.981   0.816 -1.2426  1.0159 -0.0764
  662SOL     MW 2648   2.502   2.946   0.882 -0.5980 -0.2343  0.0753
  663SOL     OW 2649   2.844   1.533   0.377 -0.1623 -0.4087 -0.5778
  663SOL    HW1 2650   2.872   1.619   0.336  3.0553  0.2870  2.1318
  663SOL    HW2 2651   2.889   1.524   0.456  0.1032 -3.4872  0.1604
  663SOL     MW 2652   2.853   1.543   0.382  0.2973 -0.7231 -0.1229
  664SOL     OW 2653   2.458   1.557   1.574  0.0460  0.1402 -0.1400
  664SOL    HW1 2654   2.442   1.655   1.566 -1.0238  1.9933  0.7952
  664SOL    HW2 2655   2.372   1.516   1.591  1.7381 -1.1562 -1.4781
  664SOL     MW 2656   2.444   1.564   1.575  0.1281  0.2136 -0.1932
  665SOL     OW 2657   2.850   0.800   2.081 -0.2761 -0.4113  0.0165
  665SOL    HW1 2658   2.849   0.853   2.005  0.2455  1.6281  0.8861
  665SOL    HW2 2659   2.934   0.754   2.063 -0.4949  1.9988  0.8174
  665SOL     MW 2660   2.861   0.801   2.069 -0.2362  0.1758  0.2369
  666SOL     OW 2661   2.777   3.046   1.683 -0.6570 -0.0754 -0.1755
  666SOL    HW1 2662   2.799   3.080   1.597 -0.7557  1.9546  1.5924
  666SOL    HW2 2663   2.734   2.956   1.673 -2.5385 -2.2949  0.3086
  666SOL     MW 2664   2.774   3.038   1.671 -0.9183 -0.1004  0.1217
  667SOL     OW 2665   1.979   2.700   1.644  0.2845 -0.1281  0.9282
  667SOL    HW1 2666   1.986   2.624   1.705 -0.8355  0.7824  0.9862
  667SOL    HW2 2667   2.057   2.750   1.663  0.6763 -3.7324 -1.8999
  667SOL     MW 2668   1.990   2.697   1.654  0.1884 -0.4835  0.5627
  668SOL     OW 2669   2.748   0.645   0.810  0.1911 -0.0632  0.3242
  668SOL    HW1 2670   2.813   0.638   0.888  0.8051 -1.9427  2.5932
  668SOL    HW2 2671   2.675   0.710   0.838  2.3210  0.4043 -0.1511
  668SOL     MW 2672   2.747   0.652   0.824  0.5531 -0.2495  0.5608
  669SOL     OW 2673   0.181   0.934   0.662  0.4681  0.3459  0.0341
  669SOL    HW1 2674   0.178   1.007   0.724 -0.5088  1.3574 -2.4556
  669SOL    HW2 2675   0.287   0.931   0.667  1.5961 -1.4462 -2.1552
  669SOL     MW 2676   0.195   0.943   0.671  0.4880  0.2429 -0.5833
  670SOL     OW 2677   2.912   0.288   0.192 -1.0173  0.1811  0.1473
  670SOL    HW1 2678   2.940   0.207   0.138 -1.8378 -2.2035  0.6941
  670SOL    HW2 2679   2.937   0.361   0.134  1.4655 -0.0301  1.1279
  670SOL     MW 2680   2.919   0.287   0.177 -0.7980 -0.1614  0.3488
  671SOL     OW 2681   2.155   3.028   1.576  0.0217 -0.4590  0.1660
  671SOL    HW1 2682   2.128   3.019   1.480 -1.7754 -2.3341 -1.8043
  671SOL    HW2 2683   2.081   3.074   1.625 -0.3550  1.3871 -2.2217
  671SOL     MW 2684   2.142   3.033   1.570 -0.2652 -0.4629 -0.4090
  672SOL     OW 2685   1.860   1.693   1.318 -0.4560  0.2603 -0.0636
  672SOL    HW1 2686   1.771   1.727   1.354 -1.6165 -0.4905 -2.2413
  672SOL    HW2 2687   1.863   1.752   1.239  0.4920 -1.6469 -0.1020
  672SOL     MW 2688   1.848   1.706   1.313 -0.4841 -0.0904 -0.3560
  673SOL     OW 2689   2.785   1.109   0.494 -0.3025 -0.2503 -0.2684
  673SOL    HW1 2690   2.782   1.035   0.556 -0.6453  1.3294  1.1773
  673SOL    HW2 2691   2.839   1.180   0.530  3.0105  1.2374 -0.5768
  673SOL     MW 2692   2.792   1.109   0.507  0.0894  0.1544 -0.1184
  674SOL     OW 2693   2.511   0.107   1.218  0.2444  0.1963 -0.3691
  674SOL    HW1 2694   2.464   0.111   1.135  0.9906  2.2804  1.2882
  674SOL    HW2 2695   2.547   0.013   1.220 -0.0061  1.6936  0.3413
  674SOL     MW 2696   2.509   0.095   1.207  0.3098  0.6688 -0.0567
  675SOL     OW 2697   3.028   0.973   1.103  0.0886 -0.7326  0.0459
  675SOL    HW1 2698   3.057   0.885   1.132  0.1083 -2.0234  0.2411
  675SOL    HW2 2699   3.078   1.000   1.027 -0.6199 -2.7875 -1.1360
  675SOL     MW 2700   3.038   0.965   1.097 -0.0023 -1.1740 -0.0843
  676SOL     OW 2701   2.870   1.500   1.625  0.9572  0.2435  0.1593
  676SOL    HW1 2702   2.845   1.403   1.630  0.8438 -0.3615  1.9087
  676SOL    HW2 2703   2.948   1.507   1.674 -0.8421 -1.1421 -2.6958
  676SOL     MW 2704   2.877   1.488   1.632  0.7049 -0.0191  0.0134
  677SOL     OW 2705   2.441   0.744   1.900  0.3731 -0.5109  0.4668
  677SOL    HW1 2706   2.422   0.659   1.854  1.8952  0.0943  1.1075
  677SOL    HW2 2707   2.361   0.753   1.958  3.0911 -1.4173  0.5995
  677SOL     MW 2708   2.428   0.734   1.902  0.9326 -0.5507  0.5689
  678SOL     OW 2709   2.530   1.581   0.432  0.6318  0.1165 -0.3619
  678SOL    HW1 2710   2.480   1.660   0.399 -0.9570 -2.2211  0.5181
  678SOL    HW2 2711   2.608   1.579   0.383 -4.0748 -0.4380 -4.2904
  678SOL     MW 2712   2.533   1.591   0.421 -0.1988 -0.2651 -0.7641
  679SOL     OW 2713   2.326   0.507   1.130 -0.0615 -0.0647  0.5194
  679SOL    HW1 2714   2.283   0.425   1.161  3.5643 -1.4811  1.5576
  679SOL    HW2 2715   2.269   0.585   1.147 -0.6527  0.6940  0.2732
  679SOL     MW 2716   2.312   0.506   1.136  0.3389 -0.1515  0.6239
  680SOL     OW 2717   2.400   0.266   1.435 -0.3117 -0.1737 -0.4229
  680SOL    HW1 2718   2.305   0.277   1.421  4.2341 -3.7723 -0.9023
  680SOL    HW2 2719   2.422   0.211   1.357 -1.0848  2.3229 -1.9754
  680SOL     MW 2720   2.390   0.260   1.423  0.1860 -0.3191 -0.6910
  681SOL     OW 2721   0.320   0.579   1.561  0.5262  0.0444 -0.0988
  681SOL    HW1 2722   0.289   0.500   1.613 -1.7579 -0.7402 -0.2904
  681SOL    HW2 2723   0.416   0.574   1.544  1.9558  1.9539 -3.6560
  681SOL     MW 2724   0.328   0.568   1.566  0.4135  0.1928 -0.5934
  682SOL     OW 2725   0.122   2.956   1.480 -0.3515 -0.4365  0.0670
  682SOL    HW1 2726   0.112   3.049   1.460  3.8830  0.1119 -2.9314
  682SOL    HW2 2727   0.075   2.958   1.565  0.6026 -1.5071 -0.0401
  682SOL     MW 2728   0.114   2.968   1.489  0.3331 -0.5054 -0.3427
  683SOL     OW 2729   2.071   0.832   3.023  0.3026  0.5562  0.0491
  683SOL    HW1 2730   1.991   0.817   2.968  1.9529  0.7050 -0.1670
  683SOL    HW2 2731   2.068   0.923   3.056 -0.6446  2.0454  4.1803
  683SOL     MW 2732   2.060   0.842   3.020  0.3954  0.7723  0.5657
  684SOL     OW 2733   2.193   1.752   0.907  0.4309  0.2823 -0.0019
  684SOL    HW1 2734   2.107   1.722   0.903  1.1480  0.4471  1.6984
  684SOL    HW2 2735   2.240   1.688   0.959 -1.7263 -1.1581  1.3184
  684SOL     MW 2736   2.188   1.740   0.913  0.2409  0.1140  0.3967
  685SOL     OW 2737   2.602   1.735   1.258  0.5522  0.3249  0.2522
  685SOL    HW1 2738   2.675   1.736   1.323  3.2625  1.8929 -1.5457
  685SOL    HW2 2739   2.592   1.644   1.224 -0.9513 -0.7461 -0.6363
  685SOL     MW 2740   2.611   1.723   1.262  0.7114  0.3905 -0.1023
  686SOL     OW 2741   2.868   0.698   1.462 -0.1477 -0.0074  0.0202
  686SOL    HW1 2742   2.865   0.654   1.549 -2.2535 -0.8819 -1.1031
  686SOL    HW2 2743   2.952   0.736   1.438 -1.9521 -1.9947 -0.1152
  686SOL     MW 2744   2.879   0.697   1.470 -0.6636 -0.3850 -0.1459
  687SOL     OW 2745   2.148   0.299   1.220 -0.0062 -0.2599  0.3665
  687SOL    HW1 2746   2.115   0.258   1.135  2.5010 -1.6176 -0.9120
  687SOL    HW2 2747   2.100   0.380   1.222 -0.9254 -0.6440 -4.0868
  687SOL     MW 2748   2.137   0.304   1.209  0.2033 -0.4897 -0.3897
  688SOL     OW 2749   2.379   0.606   1.470 -0.4574  0.3318  0.1310
  688SOL    HW1 2750   2.386   0.511   1.456 -3.0312 -0.8859  0.8745
  688SOL    HW2 2751   2.298   0.617   1.514  1.6827 -0.5126  1.4635
  688SOL     MW 2752   2.369   0.595   1.474 -0.5146  0.0597  0.4049
  689SOL     OW 2753   2.554   0.748   2.988 -0.1429 -0.1504 -0.0222
  689SOL    HW1 2754   2.568   0.830   2.939  1.1420  0.6046  0.3746
  689SOL    HW2 2755   2.583   0.754   3.079  0.5977 -1.0969 -2.8647
  689SOL     MW 2756   2.560   0.760   2.993  0.1244 -0.1757 -0.3449
  690SOL     OW 2757   2.115   0.956   1.922  0.0378 -0.2321 -0.4662
  690SOL    HW1 2758   2.052   0.886   1.944 -1.6298  0.9256 -2.6906
  690SOL    HW2 2759   2.148   0.944   1.831  0.5565  0.7657 -1.6601
  690SOL     MW 2760   2.111   0.945   1.913 -0.1138  0.0523 -0.9172
  691SOL     OW 2761   2.442   0.271   0.837 -0.1504  0.0146  0.0021
  691SOL    HW1 2762   2.524   0.316   0.879 -1.9856  0.0432  1.1646
  691SOL    HW2 2763   2.369   0.324   0.863 -0.8428  1.5246  1.7247
  691SOL     MW 2764   2.443   0.284   0.846 -0.4839  0.2176  0.3828
  692SOL     OW 2765   2.804   1.715   1.434  0.0574 -0.4532  0.5565
  692SOL    HW1 2766   2.809   1.660   1.504  1.4336  4.0261  1.4566
  692SOL    HW2 2767   2.810   1.809   1.464 -1.1087  4.0930  1.5180
  692SOL     MW 2768   2.805   1.720   1.447  0.0851  0.7376  0.8021
  693SOL     OW 2769   2.327   0.448   0.112  0.3804 -0.2620  0.1719
  693SOL    HW1 2770   2.270   0.412   0.053  0.3491  1.0292  0.0332
  693SOL    HW2 2771   2.346   0.539   0.082 -2.0762 -1.6883  0.4727
  693SOL     MW 2772   2.322   0.456   0.100  0.0522 -0.2798  0.1933
  694SOL     OW 2773   1.942   1.288   1.084 -0.4854  0.3014 -0.1174
  694SOL    HW1 2774   2.013   1.232   1.113  0.6307  0.1043 -0.3352
  694SOL    HW2 2775   1.867   1.232   1.083  1.0821  0.1844  1.4440
  694SOL     MW 2776   1.942   1.273   1.087 -0.1313  0.2599  0.0599
  695SOL     OW 2777   2.960   1.444   1.312  0.1613 -0.0158 -0.0600
  695SOL    HW1 2778   2.940   1.430   1.223  0.4744 -0.7286  1.6575
  695SOL    HW2 2779   2.924   1.529   1.324  2.1479 -0.1717 -1.1971
  695SOL     MW 2780   2.952   1.454   1.302  0.4647 -0.1304  0.0166
  696SOL     OW 2781   2.108   1.390   0.889 -0.1667 -0.0117 -0.0691
  696SOL    HW1 2782   2.187   1.432   0.922  0.3150  3.2261  1.0330
  696SOL    HW2 2783   2.064   1.347   0.966 -0.4800  0.2026  1.6347
  696SOL     MW 2784   2.112   1.390   0.903 -0.1445  0.4438  0.3011
  697SOL     OW 2785   2.922   1.091   2.166  0.7484  0.1962 -0.8805
  697SOL    HW1 2786   2.853   1.152   2.187  0.8670  3.3894 -0.1749
  697SOL    HW2 2787   2.887   1.006   2.156  1.5069  1.6044 -2.1323
  697SOL     MW 2788   2.908   1.087   2.168  0.8641  0.8033 -0.9525
  698SOL     OW 2789   2.551   0.291   0.030  0.4173 -0.6175  0.3939
  698SOL    HW1 2790   2.471   0.329   0.062  2.1332 -1.7099 -4.4771
  698SOL    HW2 2791   2.594   0.251   0.114  2.1616  2.4572  0.1265
  698SOL     MW 2792   2.546   0.291   0.045  0.8739 -0.3559 -0.2841
  699SOL     OW 2793   1.853   1.648   2.062 -0.0784 -0.1670 -0.2243
  699SOL    HW1 2794   1.822   1.558   2.059 -1.3849  1.4743 -0.7070
  699SOL    HW2 2795   1.946   1.639   2.031 -0.0318  0.5127  0.7361
  699SOL     MW 2796   1.862   1.635   2.058 -0.2446  0.1392 -0.1613
  700SOL     OW 2797   2.712   0.908   1.557  0.6811 -0.2204  0.3965
  700SOL    HW1 2798   2.736   0.974   1.489 -0.7959  2.0614  1.4424
  700SOL    HW2 2799   2.776   0.837   1.550 -2.2113  1.1829 -0.3017
  700SOL     MW 2800   2.724   0.907   1.547  0.1046  0.2658  0.4424
  701SOL     OW 2801   1.656   1.269   2.598  0.4202  0.3286 -0.4932
  701SOL    HW1 2802   1.742   1.299   2.579 -2.3422  1.4478  0.0853
  701SOL    HW2 2803   1.616   1.330   2.664 -0.7973 -1.2554  1.5554
  701SOL     MW 2804   1.662   1.281   2.604 -0.1049  0.2672 -0.1466
  702SOL     OW 2805   2.209   0.412   0.820 -0.5511 -0.3995  0.1488
  702SOL    HW1 2806   2.180   0.345   0.756 -0.4170 -1.1717 -1.0753
  702SOL    HW2 2807   2.268   0.483   0.785 -0.1406  1.1229  1.4219
  702SOL     MW 2808   2.213   0.412   0.807 -0.4793 -0.3005  0.1553
  703SOL     OW 2809   2.680   1.300   0.991 -0.4039 -0.0110  0.3280
  703SOL    HW1 2810   2.671   1.267   0.904 -1.8403 -0.4239  0.3095
  703SOL    HW2 2811   2.698   1.213   1.036  0.7639 -2.7466  0.4462
  703SOL     MW 2812   2.681   1.284   0.986 -0.4393 -0.4264  0.3412
  704SOL     OW 2813   3.100   1.339   0.291 -0.3670 -0.4991 -0.0835
  704SOL    HW1 2814   3.041   1.292   0.225 -2.8501  2.4331  0.0656
  704SOL    HW2 2815   3.152   1.270   0.328  1.7414  1.1641  1.7526
  704SOL     MW 2816   3.099   1.324   0.287 -0.4164  0.1072  0.1784
  705SOL     OW 2817   2.146   1.625   1.247  0.8050 -0.4039 -0.0594
  705SOL    HW1 2818   2.058   1.679   1.277 -1.1414 -0.7604 -1.6700
  705SOL    HW2 2819   2.157   1.551   1.302  0.4233  2.3785 -1.0734
  705SOL     MW 2820   2.136   1.623   1.258  0.4978 -0.0839 -0.4057
  706SOL     OW 2821   2.982   1.261   0.636 -0.3758  0.3753  0.9391
  706SOL    HW1 2822   3.072   1.266   0.619 -1.8608 -0.2565  2.6516
  706SOL    HW2 2823   2.958   1.357   0.641 -0.9037  1.8651  1.3645
  706SOL     MW 2824   2.991   1.274   0.634 -0.6414  0.4885  1.2211
  707SOL     OW 2825   2.378   0.051   0.978  0.3544 -0.3432 -0.0698
  707SOL    HW1 2826   2.414   0.129   0.925  0.0320 -1.7108 -0.7334
  707SOL    HW2 2827   2.286   0.073   0.966  1.5897  0.2688 -0.2608
  707SOL     MW 2828   2.371   0.064   0.970  0.4748 -0.4429 -0.1826
  708SOL     OW 2829   2.537   1.584   0.123  0.3613  0.2678 -0.0759
  708SOL    HW1 2830   2.593   1.503   0.136 -0.0824 -0.9391 -0.5442
  708SOL    HW2 2831   2.470   1.558   0.067 -1.2918  0.0230  2.4236
  708SOL     MW 2832   2.536   1.570   0.117  0.0847  0.0763  0.1921
  709SOL     OW 2833   1.694   1.751   0.116  0.7536 -0.3313  0.4501
  709SOL    HW1 2834   1.637   1.818   0.081 -1.1026  2.1591  0.9633
  709SOL    HW2 2835   1.656   1.698   0.187 -0.1636  1.2840 -1.8044
  709SOL     MW 2836   1.682   1.753   0.121  0.3877  0.2104  0.2203
  710SOL     OW 2837   2.159   1.152   1.188 -0.8281 -0.0955 -0.0075
  710SOL    HW1 2838   2.204   1.132   1.101  1.1505 -0.3460  0.3567
  710SOL    HW2 2839   2.209   1.091   1.248 -0.8664 -1.8857 -1.2526
  710SOL     MW 2840   2.172   1.141   1.185 -0.5721 -0.3647 -0.1237
  711SOL     OW 2841   2.328   0.121   1.725 -0.0056 -0.3553  0.0928
  711SOL    HW1 2842   2.427   0.118   1.739 -3.7933 -0.4666  0.6189
  711SOL    HW2 2843   2.322   0.078   1.641  1.5467  2.6174  0.5360
  711SOL     MW 2844   2.340   0.115   1.716 -0.3005  0.0222  0.2207
  712SOL     OW 2845   1.709   0.615   3.079  1.0080 -0.0654  0.2589
  712SOL    HW1 2846   1.760   0.681   3.031 -0.1998  0.0319 -0.0514
  712SOL    HW2 2847   1.709   0.641   3.168  2.6716 -0.9470 -3.4586
  712SOL     MW 2848   1.716   0.627   3.084  1.0681 -0.1689 -0.2725
  713SOL     OW 2849   2.582   0.789   1.098  0.0504 -0.3371 -0.1321
  713SOL    HW1 2850   2.584   0.686   1.103  2.1166 -1.6289 -0.0266
  713SOL    HW2 2851   2.559   0.813   1.190  0.4926  2.4598 -2.9791
  713SOL     MW 2852   2.580   0.778   1.111  0.3813 -0.1385 -0.4938
  714SOL     OW 2853   2.181   0.190   1.950 -0.7418  0.7017  0.2955
  714SOL    HW1 2854   2.247   0.176   2.019 -0.1844  1.3681 -0.9535
  714SOL    HW2 2855   2.218   0.157   1.861 -2.5789  0.2416 -1.3976
  714SOL     MW 2856   2.195   0.184   1.947 -0.9107  0.7289 -0.0927
  715SOL     OW 2857   1.749   1.908   1.702  1.0423 -0.2059 -0.2733
  715SOL    HW1 2858   1.839   1.869   1.693 -2.7995 -2.1419 -0.9548
  715SOL    HW2 2859   1.698   1.841   1.749 -0.7347  0.8313  0.5327
  715SOL     MW 2860   1.754   1.894   1.707  0.3009 -0.3245 -0.2568
  716SOL     OW 2861   2.375   0.577   0.715 -0.2230 -0.4061  0.1083
  716SOL    HW1 2862   2.405   0.519   0.642  0.9464 -0.3587  2.4756
  716SOL    HW2 2863   2.303   0.631   0.678  0.4793  1.6883 -0.0789
  716SOL     MW 2864   2.369   0.577   0.700  0.0240 -0.1235  0.3959
  717SOL     OW 2865   2.867   1.457   2.924  0.3065  0.0860 -0.7270
  717SOL    HW1 2866   2.962   1.452   2.936 -0.6822  2.5066  0.7529
  717SOL    HW2 2867   2.831   1.519   2.986 -1.8490 -0.8573 -0.4270
  717SOL     MW 2868   2.875   1.465   2.934 -0.1083  0.2809 -0.4921
  718SOL     OW 2869   2.528   1.324   1.398  0.0703 -0.1856 -0.1290
  718SOL    HW1 2870   2.537   1.377   1.482 -0.6065  0.4899 -0.6961
  718SOL    HW2 2871   2.576   1.245   1.411  0.4491  1.4706  1.8736
  718SOL     MW 2872   2.535   1.321   1.411  0.0310  0.1221  0.0604
  719SOL     OW 2873   2.170   1.376   0.634  0.2454 -0.7450 -0.6556
  719SOL    HW1 2874   2.261   1.406   0.611  1.2078  1.3084 -2.5540
  719SOL    HW2 2875   2.161   1.396   0.729  0.7252 -3.3088 -0.1008
  719SOL     MW 2876   2.181   1.383   0.644  0.4357 -0.8123 -0.8329
  720SOL     OW 2877   2.891   1.193   0.123 -0.1364 -0.2177 -0.0493
  720SOL    HW1 2878   2.860   1.119   0.171  1.6974 -1.0350  0.8917
  720SOL    HW2 2879   2.848   1.263   0.166  0.5162  0.4849  0.0455
  720SOL     MW 2880   2.881   1.193   0.135  0.1916 -0.2328  0.0874
  721SOL     OW 2881   2.523   0.833   1.372 -0.2126  0.5456 -0.9487
  721SOL    HW1 2882   2.472   0.753   1.399  0.8892 -2.8801  2.0037
  721SOL    HW2 2883   2.580   0.851   1.454  1.2114 -1.9668  1.3871
  721SOL     MW 2884   2.524   0.825   1.387  0.1207 -0.2379 -0.2510
  722SOL     OW 2885   2.543   1.210   0.392 -0.3021  0.1510 -0.1990
  722SOL    HW1 2886   2.519   1.267   0.469  1.0228 -0.1248  3.9666
  722SOL    HW2 2887   2.612   1.156   0.430 -1.9702  2.3386  0.9605
  722SOL     MW 2888   2.549   1.210   0.407 -0.3474  0.4032  0.5036
  723SOL     OW 2889   2.253   1.394   1.632 -0.9009 -0.3365  0.0197
  723SOL    HW1 2890   2.241   1.371   1.540 -0.1065  0.5506  0.9518
  723SOL    HW2 2891   2.168   1.424   1.661  1.0951 -2.1975  1.1048
  723SOL     MW 2892   2.240   1.395   1.623 -0.5328 -0.4650  0.2859
  724SOL     OW 2893   2.476   0.373   0.567  0.3602 -0.2741 -0.3562
  724SOL    HW1 2894   2.488   0.322   0.645 -0.0499 -0.5627 -4.0075
  724SOL    HW2 2895   2.551   0.350   0.512  0.8916  1.7435  0.7108
  724SOL     MW 2896   2.487   0.363   0.570  0.3762 -0.0460 -0.6972
  725SOL     OW 2897   2.579   0.531   1.140 -0.4314  0.3892  0.3431
  725SOL    HW1 2898   2.623   0.534   1.233  3.1996  1.4025  1.9456
  725SOL    HW2 2899   2.484   0.513   1.154  0.7081 -0.6974  0.7071
  725SOL     MW 2900   2.572   0.529   1.154  0.1980  0.3795  0.6026
  726SOL     OW 2901   2.562   2.432   0.506 -0.0974 -0.1965  0.7809
  726SOL    HW1 2902   2.500   2.482   0.456 -1.7520 -0.1715  1.2398
  726SOL    HW2 2903   2.508   2.397   0.585 -0.3458  1.2959  0.6083
  726SOL     MW 2904   2.547   2.434   0.510 -0.3485  0.0037  0.8187
  727SOL     OW 2905   2.845   0.283   1.612  0.6286  0.1820 -0.3232
  727SOL    HW1 2906   2.888   0.321   1.526  2.9223 -2.3368 -3.0235
  727SOL    HW2 2907   2.749   0.299   1.607  1.4527  1.6233  1.1798
  727SOL     MW 2908   2.838   0.290   1.600  1.0400  0.0398 -0.4812
  728SOL     OW 2909   2.817   1.168   2.956  0.5428 -0.6823  0.2470
  728SOL    HW1 2910   2.867   1.251   2.945 -0.2977 -1.8026  1.1855
  728SOL    HW2 2911   2.816   1.157   3.055 -1.8783  2.5015  0.4398
  728SOL     MW 2912   2.823   1.177   2.968  0.1125 -0.4100  0.3963
  729SOL     OW 2913   2.535   1.473   1.161  0.6570 -0.3075 -0.0520
  729SOL    HW1 2914   2.551   1.426   1.247 -0.7620  2.4309 -1.8322
  729SOL    HW2 2915   2.557   1.414   1.090 -0.5217 -0.0728 -0.4689
  729SOL     MW 2916   2.540   1.459   1.163  0.3143  0.0848 -0.3419
  730SOL     OW 2917   2.127   1.118   0.292 -0.3327  0.0493  0.0238
  730SOL    HW1 2918   2.210   1.110   0.237 -1.5475 -0.0811 -1.6056
  730SOL    HW2 2919   2.102   1.212   0.297 -1.0635  2.3291 -0.4098
  730SOL     MW 2920   2.135   1.129   0.285 -0.5894  0.3329 -0.2484
  731SOL     OW 2921   2.796   1.857   2.905  0.3695 -0.0844 -0.1015
  731SOL    HW1 2922   2.722   1.873   2.849 -1.0544  2.5516  2.3471
  731SOL    HW2 2923   2.842   1.941   2.899  0.6318  0.3517  0.6368
  731SOL     MW 2924   2.792   1.870   2.897  0.2163  0.3209  0.3190
  732SOL     OW 2925   2.264   0.928   1.342 -0.2350  0.1913  0.3406
  732SOL    HW1 2926   2.221   0.923   1.424 -0.1054 -1.6556 -0.6601
  732SOL    HW2 2927   2.349   0.895   1.374  2.1489  2.0757  3.3277
  732SOL     MW 2928   2.269   0.923   1.357  0.0966  0.1962  0.6027
  733SOL     OW 2929   2.357   2.831   3.075 -0.1207  0.0292  0.4575
  733SOL    HW1 2930   2.281   2.882   3.047 -0.0815 -1.1166 -0.5479
  733SOL    HW2 2931   2.319   2.742   3.077  1.9553 -2.2884 -1.6867
  733SOL     MW 2932   2.342   2.826   3.072  0.1584 -0.4278  0.0419
  734SOL     OW 2933   1.501   0.383   2.450 -0.0370  0.2400 -0.2334
  734SOL    HW1 2934   1.480   0.332   2.527  0.3137 -0.5478  0.3243
  734SOL    HW2 2935   1.509   0.311   2.392  0.5907  2.1887  2.2738
  734SOL     MW 2936   1.499   0.367   2.452  0.0921  0.3932  0.1710
  735SOL     OW 2937   3.047   0.986   2.646 -0.7290  0.4531 -0.0057
  735SOL    HW1 2938   3.035   0.889   2.643 -1.0515 -0.7577 -1.1833
  735SOL    HW2 2939   2.993   1.018   2.715  1.6496 -0.2986  0.6683
  735SOL     MW 2940   3.038   0.977   2.655 -0.4577  0.1942 -0.0721
  736SOL     OW 2941   0.065   0.597   2.532  0.3674 -0.0291  0.8619
  736SOL    HW1 2942   0.112   0.632   2.453  1.4521  1.6101  1.3897
  736SOL    HW2 2943   0.043   0.504   2.506  0.6653 -0.8290  1.0993
  736SOL     MW 2944   0.069   0.590   2.518  0.5498  0.0816  0.9629
  737SOL     OW 2945   2.924   0.708   2.617 -0.2055 -0.2207 -0.0517
  737SOL    HW1 2946   2.858   0.674   2.554 -1.3324 -2.1278  1.4131
  737SOL    HW2 2947   3.006   0.676   2.578 -1.9776  1.3410 -0.1913
  737SOL     MW 2948   2.926   0.699   2.603 -0.5880 -0.2663  0.1231
  738SOL     OW 2949   0.168   0.527   1.988 -0.4308  0.6717  0.3649
  738SOL    HW1 2950   0.233   0.570   1.936 -0.1288 -1.2677  0.2763
  738SOL    HW2 2951   0.183   0.438   1.955  0.9840  0.3780 -3.8147
  738SOL     MW 2952   0.178   0.521   1.977 -0.2043  0.3770 -0.1983
  739SOL     OW 2953   2.548   0.949   2.164 -0.3187 -0.1395 -0.2722
  739SOL    HW1 2954   2.450   0.949   2.171 -0.2590 -0.9427  1.1586
  739SOL    HW2 2955   2.573   0.989   2.083 -0.4536 -1.1938 -0.1792
  739SOL     MW 2956   2.538   0.954   2.154 -0.3286 -0.3846 -0.0711
  740SOL     OW 2957   0.163   1.763   2.963 -0.2768  0.5455  0.1672
  740SOL    HW1 2958   0.126   1.677   2.980 -1.2589 -0.1494 -2.3637
  740SOL    HW2 2959   0.257   1.744   2.978 -1.5916 -1.2170  1.0933
  740SOL     MW 2960   0.170   1.749   2.967 -0.5799  0.2213 -0.0446
  741SOL     OW 2961   2.207   1.196   2.713  0.2067  0.2842 -0.4777
  741SOL    HW1 2962   2.199   1.278   2.656 -0.6818 -2.0678 -2.6046
  741SOL    HW2 2963   2.181   1.212   2.806  0.0085  0.0222 -1.2784
  741SOL     MW 2964   2.202   1.209   2.718  0.0633 -0.0607 -0.8640
  742SOL     OW 2965   1.658   1.353   2.282 -0.2205  0.2464 -0.3013
  742SOL    HW1 2966   1.615   1.265   2.273  2.5459 -0.7991  1.8763
  742SOL    HW2 2967   1.629   1.389   2.363 -0.9167  2.2530  0.8619
  742SOL     MW 2968   1.648   1.346   2.292  0.0526  0.3732  0.1395
  743SOL     OW 2969   2.506   1.235   2.688 -0.3083 -0.1475 -0.0361
  743SOL    HW1 2970   2.410   1.230   2.695  1.0948  0.9483  0.7872
  743SOL    HW2 2971   2.527   1.160   2.753  1.1625 -2.3087  0.2445
  743SOL     MW 2972   2.496   1.225   2.697  0.0708 -0.2881  0.1095
  744SOL     OW 2973   2.797   0.967   1.838  0.0609  1.0635 -0.3963
  744SOL    HW1 2974   2.729   1.024   1.878 -0.2464  2.4118 -0.1951
  744SOL    HW2 2975   2.761   0.935   1.756 -0.5367 -1.7825  0.2610
  744SOL     MW 2976   2.783   0.970   1.832 -0.0585  0.8659 -0.2830
  745SOL     OW 2977   1.765   0.430   2.478  0.1962  0.0277 -0.3743
  745SOL    HW1 2978   1.771   0.439   2.382  1.9994 -2.1394 -0.5465
  745SOL    HW2 2979   1.677   0.404   2.497 -1.5126 -0.6794 -3.0718
  745SOL     MW 2980   1.754   0.428   2.468  0.2087 -0.3515 -0.7529
  746SOL     OW 2981   1.516   1.463   1.688 -0.2908  0.1499  0.3592
  746SOL    HW1 2982   1.556   1.542   1.715 -1.5878  1.5588 -0.1208
  746SOL    HW2 2983   1.533   1.408   1.760  0.5403  3.0756 -1.2670
  746SOL     MW 2984   1.523   1.466   1.701 -0.3523  0.7218  0.0813
  747SOL     OW 2985   2.559   1.093   1.920  0.4139  0.6512  0.1865
  747SOL    HW1 2986   2.465   1.073   1.893 -1.0675 -0.8483 -2.1663
  747SOL    HW2 2987   2.559   1.187   1.928 -0.1317 -1.0300 -0.2222
  747SOL     MW 2988   2.547   1.102   1.917  0.1465  0.2316 -0.1778
  748SOL     OW 2989   0.099   3.073   1.921 -0.3300 -0.3820 -0.3837
  748SOL    HW1 2990   0.192   3.098   1.923 -0.8380 -0.3118  1.3952
  748SOL    HW2 2991   0.058   3.118   1.989  0.2968 -0.6555 -0.8192
  748SOL     MW 2992   0.106   3.082   1.930 -0.3143 -0.4088 -0.2065
  749SOL     OW 2993   2.399   0.615   2.775  0.7895 -0.1235 -0.0386
  749SOL    HW1 2994   2.447   0.672   2.709  1.3793 -1.1786 -0.6142
  749SOL    HW2 2995   2.443   0.635   2.856  2.5364 -0.6493  2.6715
  749SOL     MW 2996   2.411   0.625   2.777  1.0978 -0.3321  0.2430
  750SOL     OW 2997   2.084   3.037   1.940 -0.1102  0.3505 -0.3335
  750SOL    HW1 2998   2.127   3.121   1.951 -4.9310 -1.0413 -0.5709
  750SOL    HW2 2999   2.150   2.975   1.946 -0.7556  3.8005  2.3940
  750SOL     MW 3000   2.098   3.040   1.942 -0.8314  0.6220 -0.0049
  751SOL     OW 3001   3.072   0.357   2.384  0.0792  0.5350 -0.4253
  751SOL    HW1 3002   2.990   0.386   2.344  1.3342  0.8796 -0.1443
  751SOL    HW2 3003   3.135   0.347   2.315  1.5389 -0.0097 -0.9869
  751SOL     MW 3004   3.069   0.360   2.370  0.4374  0.5086 -0.4623
  752SOL     OW 3005   2.163   0.893   2.767 -0.0899 -0.0073  0.3632
  752SOL    HW1 3006   2.241   0.931   2.804 -1.8823 -1.3039  1.0666
  752SOL    HW2 3007   2.124   0.867   2.851 -0.3191  1.8850 -0.6670
  752SOL     MW 3008   2.168   0.894   2.783 -0.3566  0.0713  0.3201
  753SOL     OW 3009   2.821   0.415   2.299  0.0992  0.7346  0.5438
  753SOL    HW1 3010   2.778   0.332   2.320 -0.3674  1.6420  1.1647
  753SOL    HW2 3011   2.777   0.484   2.347 -2.9273  2.9594 -1.1828
  753SOL     MW 3012   2.810   0.413   2.308 -0.3616  1.1479  0.3980
  754SOL     OW 3013   2.303   2.964   2.650 -0.1554  0.4209 -0.3334
  754SOL    HW1 3014   2.307   2.933   2.556 -1.4088 -0.1754 -2.0765
  754SOL    HW2 3015   2.364   2.913   2.704  0.0941 -0.5037 -0.4083
  754SOL     MW 3016   2.311   2.953   2.644 -0.2879  0.2203 -0.5733
  755SOL     OW 3017   2.793   1.588   2.489  0.1262 -0.0809 -0.1549
  755SOL    HW1 3018   2.755   1.499   2.500  0.6071 -0.3755  2.3748
  755SOL    HW2 3019   2.826   1.626   2.574 -0.6515  0.6192  1.2632
  755SOL     MW 3020   2.792   1.581   2.502  0.0870 -0.0274  0.3659
  756SOL     OW 3021   2.210   1.264   3.003  0.8310  0.2122 -0.0661
  756SOL    HW1 3022   2.281   1.342   3.022  3.3476  1.1191 -2.0618
  756SOL    HW2 3023   2.262   1.185   2.978 -0.7345 -2.5010  1.8848
  756SOL     MW 3024   2.226   1.264   3.002  0.9565 -0.0261 -0.0720
  757SOL     OW 3025   2.189   0.967   1.656  0.5331 -0.1758 -0.0500
  757SOL    HW1 3026   2.228   0.879   1.666  0.3338 -2.2832 -1.1084
  757SOL    HW2 3027   2.112   0.953   1.596 -2.9204  1.9933 -1.3250
  757SOL     MW 3028   2.184   0.953   1.649  0.0511 -0.1677 -0.3579
  758SOL     OW 3029   2.239   1.834   2.632  0.5562 -0.1948 -0.4371
  758SOL    HW1 3030   2.237   1.839   2.531 -0.0784 -1.0922 -1.5599
  758SOL    HW2 3031   2.321   1.790   2.651 -0.9990 -0.3805  1.1245
  758SOL     MW 3032   2.250   1.829   2.621  0.2673 -0.3377 -0.3792
  759SOL     OW 3033   1.532   1.442   2.781 -0.0087 -0.3849 -0.7866
  759SOL    HW1 3034   1.507   1.515   2.731  0.6613 -2.0711  2.0059
  759SOL    HW2 3035   1.589   1.475   2.856  2.9374 -0.8356  0.6873
  759SOL     MW 3036   1.536   1.456   2.784  0.4684 -0.6668 -0.2237
  760SOL     OW 3037   2.634   1.969   2.724  0.7051  0.2693 -0.9173
  760SOL    HW1 3038   2.598   1.878   2.709  0.0608  2.1136 -0.6282
  760SOL    HW2 3039   2.698   1.991   2.661  1.0819 -1.0349  0.0530
  760SOL     MW 3040   2.638   1.960   2.714  0.6698  0.3406 -0.7511
  761SOL     OW 3041   2.200   0.448   2.456 -0.3062 -0.3664 -0.2317
  761SOL    HW1 3042   2.132   0.383   2.468 -4.9935  2.2684  1.3602
  761SOL    HW2 3043   2.180   0.512   2.520  0.6731  1.1380  0.2157
  761SOL     MW 3044   2.189   0.448   2.466 -0.7954  0.1798  0.0374
  762SOL     OW 3045   0.029   0.153   2.102 -0.2415  0.4394 -0.2606
  762SOL    HW1 3046   0.022   0.089   2.176  1.8646 -0.9693 -0.3272
  762SOL    HW2 3047  -0.057   0.197   2.102  0.6188  1.8228  0.3158
  762SOL     MW 3048   0.016   0.151   2.112  0.1499  0.4361 -0.1933
  763SOL     OW 3049   2.448   1.143   2.334 -0.3318  0.5495  0.4543
  763SOL    HW1 3050   2.489   1.100   2.260  0.0128  1.2573 -0.8586
  763SOL    HW2 3051   2.514   1.194   2.375 -1.8779 -1.9207  1.1098
  763SOL     MW 3052   2.462   1.144   2.329 -0.4903  0.3170  0.3676
  764SOL     OW 3053   0.361   0.170   2.783 -0.6338  0.1446 -0.5330
  764SOL    HW1 3054   0.295   0.183   2.714 -2.7942 -0.1897  3.0303
  764SOL    HW2 3055   0.359   0.259   2.824 -1.7340 -1.7243  1.9642
  764SOL     MW 3056   0.352   0.183   2.779 -1.0640 -0.1461  0.2666
  765SOL     OW 3057   2.717   0.156   2.326  0.4496  0.1338  0.9383
  765SOL    HW1 3058   2.666   0.131   2.250  1.1027  1.0080 -0.4947
  765SOL    HW2 3059   2.747   0.070   2.354  1.7708 -0.0277 -0.3045
  765SOL     MW 3060   2.714   0.142   2.319  0.7101  0.2278  0.5853
  766SOL     OW 3061   1.855   3.025   2.115 -0.2043 -0.4303 -0.0818
  766SOL    HW1 3062   1.925   3.043   2.056 -0.8151  0.6723 -0.6880
  766SOL    HW2 3063   1.805   2.951   2.073 -0.3597 -3.1111  2.7351
  766SOL     MW 3064   1.858   3.018   2.102 -0.3054 -0.6385  0.2099
  767SOL     OW 3065   2.676   0.626   1.944  0.3986 -0.6242  0.3465
  767SOL    HW1 3066   2.712   0.674   2.016 -0.2598  0.2592 -1.4686
  767SOL    HW2 3067   2.601   0.681   1.916  0.9124  0.5165  0.5073
  767SOL     MW 3068   2.671   0.639   1.950  0.3795 -0.3571  0.1283
  768SOL     OW 3069   0.025   1.448   2.982  0.3098  0.0168 -0.1922
  768SOL    HW1 3070   0.053   1.468   3.072 -0.3321 -1.2027 -1.1946
  768SOL    HW2 3071   0.042   1.350   2.973 -0.7209  0.1127 -0.9045
  768SOL     MW 3072   0.031   1.438   2.993  0.0892 -0.1315 -0.4184
  769SOL     OW 3073   2.370   0.679   2.443  0.8132 -0.2570  0.2976
  769SOL    HW1 3074   2.334   0.594   2.447  2.0227 -1.8637 -0.9796
  769SOL    HW2 3075   2.403   0.695   2.357 -2.6671 -0.8288  0.0161
  769SOL     MW 3076   2.370   0.670   2.433  0.5136 -0.5444  0.0920
  770SOL     OW 3077   0.059   1.608   2.645 -0.2040 -0.2998  0.1848
  770SOL    HW1 3078  -0.029   1.612   2.683 -1.1545 -0.1803  1.9467
  770SOL    HW2 3079   0.088   1.516   2.640 -0.6564  0.6146 -1.0686
  770SOL     MW 3080   0.051   1.596   2.649 -0.3891 -0.1634  0.2519
  771SOL     OW 3081   2.998   0.563   1.953 -0.3552 -0.1007  0.0691
  771SOL    HW1 3082   2.965   0.573   1.868 -0.7325 -1.5156  1.8412
  771SOL    HW2 3083   3.091   0.547   1.941  2.4796 -0.2649  2.1389
  771SOL     MW 3084   3.006   0.562   1.940 -0.0309 -0.3090  0.5760
  772SOL     OW 3085   0.015   3.097   2.311 -0.2648 -0.2036  0.2504
  772SOL    HW1 3086  -0.074   3.079   2.347  1.8568 -2.2944  1.3363
  772SOL    HW2 3087   0.052   3.013   2.279 -1.4667 -0.5212 -1.4997
  772SOL     MW 3088   0.008   3.083   2.312 -0.1435 -0.5214  0.1628
  773SOL     OW 3089   2.483   2.852   2.816  0.0157  0.0030 -0.2625
  773SOL    HW1 3090   2.460   2.768   2.771  0.2263 -3.4988 -0.6641
  773SOL    HW2 3091   2.432   2.859   2.900 -0.8764  1.2516  1.6985
  773SOL     MW 3092   2.473   2.842   2.821 -0.0742 -0.2943 -0.0568
  774SOL     OW 3093   2.304   1.194   1.831 -0.4712 -0.1370  0.2214
  774SOL    HW1 3094   2.311   1.248   1.747 -4.3021 -1.0412 -0.8427
  774SOL    HW2 3095   2.239   1.131   1.814  0.1176 -2.7028  0.4279
  774SOL     MW 3096   2.297   1.193   1.817 -0.8989 -0.5949  0.1082
  775SOL     OW 3097   2.277   2.949   2.336  0.6484  0.1067 -0.0151
  775SOL    HW1 3098   2.296   3.029   2.290 -2.1361  0.6521 -0.7374
  775SOL    HW2 3099   2.329   2.877   2.298 -1.7206  0.4762 -0.2749
  775SOL     MW 3100   2.286   2.950   2.325 -0.0316  0.2274 -0.1447
  776SOL     OW 3101   0.113   1.536   0.118 -0.5002 -0.0413 -0.1292
  776SOL    HW1 3102   0.204   1.500   0.119  1.2351 -0.5022  2.2108
  776SOL    HW2 3103   0.060   1.500   0.191  2.4773 -0.4057  0.5879
  776SOL     MW 3104   0.118   1.527   0.128  0.1216 -0.1502  0.2742
  777SOL     OW 3105   2.989   1.115   1.737  0.6235  0.0905 -0.0874
  777SOL    HW1 3106   2.941   1.136   1.656  0.1583 -0.8983  0.4505
  777SOL    HW2 3107   2.938   1.075   1.805 -0.1018 -0.3253  0.8376
  777SOL     MW 3108   2.976   1.112   1.735  0.4664 -0.0948  0.1057
  778SOL     OW 3109   2.804   0.423   2.727 -0.5186 -0.0715 -0.5849
  778SOL    HW1 3110   2.772   0.464   2.812 -0.0335 -0.2308 -3.3297
  778SOL    HW2 3111   2.847   0.493   2.680  2.2393 -0.5801  0.1019
  778SOL     MW 3112   2.806   0.437   2.732 -0.0907 -0.1596 -0.8564
  779SOL     OW 3113   2.234   0.555   2.152 -0.4896  0.6108  0.6505
  779SOL    HW1 3114   2.155   0.585   2.196  1.3916  1.9899  0.7346
  779SOL    HW2 3115   2.251   0.465   2.187  2.5172 -1.5794  1.0610
  779SOL     MW 3116   2.225   0.547   2.163  0.1553  0.5038  0.7157
  780SOL     OW 3117   0.108   0.290   2.677  0.4863  0.5573  0.4064
  780SOL    HW1 3118   0.019   0.269   2.663 -0.0345  0.7458 -1.7459
  780SOL    HW2 3119   0.127   0.296   2.768  0.3377  0.2541 -2.5633
  780SOL     MW 3120   0.099   0.288   2.687  0.3980  0.5421 -0.2694
  781SOL     OW 3121   3.033   1.311   2.466 -0.1225  0.3975 -0.1398
  781SOL    HW1 3122   3.030   1.370   2.388  2.3521  2.3957  0.8376
  781SOL    HW2 3123   3.062   1.231   2.429 -0.0014  2.1366 -1.4456
  781SOL     MW 3124   3.036   1.308   2.451  0.2200  0.8906 -0.1831
  782SOL     OW 3125   0.605   1.552   0.057  0.4165  0.6143 -0.1956
  782SOL    HW1 3126   0.516   1.598   0.028  0.8104 -0.5142 -0.3316
  782SOL    HW2 3127   0.653   1.627   0.086 -0.8949  2.7339 -0.9594
  782SOL     MW 3128   0.600   1.568   0.057  0.2954  0.7451 -0.3143
  783SOL     OW 3129   2.705   0.624   2.434  0.5539  0.0782  0.4227
  783SOL    HW1 3130   2.643   0.639   2.360  0.7145 -0.0568  1.4961
  783SOL    HW2 3131   2.645   0.571   2.490 -0.5083 -1.8424 -0.1772
  783SOL     MW 3132   2.689   0.619   2.432  0.4350 -0.1930  0.4852
  784SOL     OW 3133   0.187   0.859   2.876 -0.6354  0.1256 -0.3810
  784SOL    HW1 3134   0.095   0.895   2.893 -0.3980  1.1404  0.8999
  784SOL    HW2 3135   0.213   0.904   2.790  0.0204  0.6728 -0.1943
  784SOL     MW 3136   0.178   0.870   2.867 -0.5175  0.3317 -0.1874
  785SOL     OW 3137   0.439   0.440   2.202 -0.1351  0.4797 -0.7683
  785SOL    HW1 3138   0.414   0.481   2.118  0.0858  1.9450  1.1459
  785SOL    HW2 3139   0.360   0.384   2.216  1.0092  0.0731  2.5320
  785SOL     MW 3140   0.425   0.438   2.193  0.0450  0.6193 -0.0803
  786SOL     OW 3141   1.903   0.400   2.971 -0.0335 -0.3640 -0.4650
  786SOL    HW1 3142   1.863   0.465   3.021  2.4137 -1.1141  0.6015
  786SOL    HW2 3143   1.934   0.442   2.893 -1.0813 -1.3648 -0.4267
  786SOL     MW 3144   1.902   0.414   2.968  0.1511 -0.5950 -0.3192
  787SOL     OW 3145   2.470   0.096   2.947  0.0821 -0.2139 -0.7780
  787SOL    HW1 3146   2.538   0.034   2.908  0.6113 -4.5686 -0.4865
  787SOL    HW2 3147   2.525   0.170   2.978  1.5132 -0.7116  0.0583
  787SOL     MW 3148   2.486   0.098   2.946  0.3407 -0.8541 -0.6292
  788SOL     OW 3149   2.854   3.042   2.422  0.0495  0.7091  0.2016
  788SOL    HW1 3150   2.860   2.997   2.505  1.3403  1.7669  1.2566
  788SOL    HW2 3151   2.856   2.968   2.358  2.0507 -2.3235  0.5953
  788SOL     MW 3152   2.855   3.026   2.425  0.4839  0.4485  0.3928
  789SOL     OW 3153   0.093   0.189   3.038 -0.1995  0.1041 -0.2632
  789SOL    HW1 3154   0.047   0.108   3.056 -1.8182 -0.4151  1.7312
  789SOL    HW2 3155   0.014   0.244   3.014 -1.0792  0.9301  0.5237
  789SOL     MW 3156   0.076   0.185   3.037 -0.5291  0.1446  0.1038
  790SOL     OW 3157   3.105   1.045   2.372 -0.0744 -0.3933 -0.5009
  790SOL    HW1 3158   3.065   1.013   2.455 -0.2805 -1.0891 -0.8701
  790SOL    HW2 3159   3.035   1.050   2.306 -2.4393 -1.4414 -2.9282
  790SOL     MW 3160   3.091   1.042   2.374 -0.4136 -0.6234 -0.8699
  791SOL     OW 3161   2.541   0.454   2.586  0.3825 -0.2742 -0.5080
  791SOL    HW1 3162   2.459   0.475   2.644 -2.4451 -2.2230  4.7463
  791SOL    HW2 3163   2.605   0.411   2.641  1.9714 -0.5304 -1.0143
  791SOL     MW 3164   2.539   0.451   2.601  0.2191 -0.5651  0.1185
  792SOL     OW 3165   2.332   0.214   2.426 -0.2606 -0.1307 -0.0387
  792SOL    HW1 3166   2.293   0.306   2.428  0.3984  2.6749  0.6828
  792SOL    HW2 3167   2.320   0.171   2.511  1.5842 -0.0743  0.7312
  792SOL     MW 3168   2.325   0.220   2.438  0.0697  0.2469  0.1581
  793SOL     OW 3169   1.900   1.135   1.991  0.2749  1.2498 -0.0005
  793SOL    HW1 3170   1.902   1.109   1.895  2.0534  0.5255 -1.7138
  793SOL    HW2 3171   1.984   1.089   2.008  0.8871 -1.4183  0.4742
  793SOL     MW 3172   1.911   1.126   1.980  0.5903  0.8022 -0.1639
  794SOL     OW 3173   1.403   2.350   0.130  0.0651  0.3089 -0.1756
  794SOL    HW1 3174   1.415   2.442   0.105  0.9213  4.0579 -1.0029
  794SOL    HW2 3175   1.470   2.342   0.199  0.2543 -0.3931 -0.2064
  794SOL     MW 3176   1.414   2.361   0.136  0.2030  0.7109 -0.2888
  795SOL     OW 3177   2.304   1.000   2.554  0.1336  0.1159  0.5817
  795SOL    HW1 3178   2.273   1.077   2.606  0.8634  0.7256  1.7750
  795SOL    HW2 3179   2.343   1.036   2.475 -1.1168 -0.6013 -1.4793
  795SOL     MW 3180   2.305   1.015   2.550  0.0649  0.1017  0.4672
  796SOL     OW 3181   0.256   0.625   2.755 -0.1117 -0.0752 -0.3087
  796SOL    HW1 3182   0.236   0.701   2.808  0.3906  0.4986  0.0652
  796SOL    HW2 3183   0.179   0.617   2.695 -1.8386  0.2902  1.6162
  796SOL     MW 3184   0.243   0.634   2.754 -0.2733  0.0487 -0.0054
  797SOL     OW 3185   2.610   0.136   2.572  0.0822 -0.0199 -0.0603
  797SOL    HW1 3186   2.537   0.196   2.542  2.0233 -2.0057  2.4337
  797SOL    HW2 3187   2.674   0.141   2.497  0.6934 -0.3641 -0.1687
  797SOL     MW 3188   2.609   0.145   2.559  0.4189 -0.3273  0.2545
  798SOL     OW 3189   2.355   0.101   2.162 -0.1737 -0.3419 -0.7091
  798SOL    HW1 3190   2.356   0.152   2.249  1.1586 -1.7726 -1.8018
  798SOL    HW2 3191   2.443   0.084   2.126  0.4543  2.3324  0.6641
  798SOL     MW 3192   2.367   0.105   2.169  0.0850 -0.1778 -0.6721
  799SOL     OW 3193   2.554   2.966   0.128  0.0114 -0.5195 -0.6155
  799SOL    HW1 3194   2.476   2.937   0.088  0.0135  2.9564  1.3297
  799SOL    HW2 3195   2.532   2.952   0.221  0.1609 -1.6881  0.5174
  799SOL     MW 3196   2.541   2.961   0.135  0.0314 -0.2150 -0.2094
  800SOL     OW 3197   1.932   0.060   1.742  0.0595 -0.1811 -0.1971
  800SOL    HW1 3198   1.867  -0.004   1.710 -0.2347  0.5574 -1.0546
  800SOL    HW2 3199   1.957   0.024   1.824 -0.0589 -0.8854 -0.2217
  800SOL     MW 3200   1.927   0.047   1.748  0.0051 -0.1766 -0.3135
  801SOL     OW 3201   2.809   1.237   2.590  0.5564  0.4525  0.3775
  801SOL    HW1 3202   2.795   1.148   2.566  0.2507  0.8675 -1.1387
  801SOL    HW2 3203   2.898   1.265   2.555  0.9768 -2.7531  0.3659
  801SOL     MW 3204   2.819   1.229   2.582  0.5715  0.0843  0.1759
  802SOL     OW 3205   2.595   1.480   2.787  0.0254  0.5173  0.1905
  802SOL    HW1 3206   2.574   1.396   2.746  1.2315 -0.0424  3.7201
  802SOL    HW2 3207   2.674   1.458   2.830  1.1382 -1.1044  0.2507
  802SOL     MW 3208   2.603   1.466   2.788  0.3314  0.2295  0.6642
  803SOL     OW 3209   2.233   1.352   2.027 -0.0849 -0.4704  0.4970
  803SOL    HW1 3210   2.218   1.307   2.106  0.3552 -1.4497 -0.5109
  803SOL    HW2 3211   2.255   1.295   1.949  1.1557  1.1528 -1.2147
  803SOL     MW 3212   2.234   1.339   2.027  0.1368 -0.3854  0.1382
  804SOL     OW 3213   2.270   0.076   0.054 -0.4416  0.0626  0.1360
  804SOL    HW1 3214   2.211   0.154   0.059 -1.0153  0.2256  2.5813
  804SOL    HW2 3215   2.332   0.086  -0.024 -1.3680  2.1757  1.6197
  804SOL     MW 3216   2.270   0.087   0.044 -0.6395  0.3629  0.6544
  805SOL     OW 3217   2.754   0.951   2.595  0.1725 -0.2916 -0.1915
  805SOL    HW1 3218   2.682   0.892   2.577  1.2595 -1.0701  1.3358
  805SOL    HW2 3219   2.823   0.889   2.602 -0.7240  1.3089  0.5520
  805SOL     MW 3220   2.754   0.935   2.594  0.1976 -0.1832  0.1081
  806SOL     OW 3221   2.500   0.668   2.201  0.1740 -0.8156  0.6433
  806SOL    HW1 3222   2.430   0.651   2.138 -0.7894 -0.9773  2.2507
  806SOL    HW2 3223   2.540   0.745   2.161 -1.2909 -3.2061  0.5160
  806SOL     MW 3224   2.496   0.676   2.188 -0.1464 -1.1523  0.8386
  807SOL     OW 3225   0.062   1.075   2.051 -0.0969 -0.0648  0.2258
  807SOL    HW1 3226   0.066   0.984   2.010 -0.8556 -0.6244 -0.8776
  807SOL    HW2 3227  -0.031   1.079   2.088  0.7577  0.9155 -0.8897
  807SOL     MW 3228   0.050   1.063   2.051 -0.0842 -0.0093 -0.0670
  808SOL     OW 3229   2.656   3.070   2.776  0.1536  0.2627 -0.0126
  808SOL    HW1 3230   2.614   2.987   2.761 -0.0354 -0.1626 -0.3475
  808SOL    HW2 3231   2.636   3.123   2.700  3.3950 -1.6320  0.7827
  808SOL     MW 3232   2.648   3.066   2.764  0.5563 -0.0434  0.0482
  809SOL     OW 3233   2.618   1.359   2.429 -0.4326  0.8001  0.5174
  809SOL    HW1 3234   2.664   1.307   2.492 -5.2404 -0.4176  0.3208
  809SOL    HW2 3235   2.670   1.352   2.342 -0.7276 -0.2620 -0.9643
  809SOL     MW 3236   2.631   1.351   2.426 -1.1058  0.4993  0.2960
  810SOL     OW 3237   2.228   1.317   2.302  0.2534 -0.1025 -0.1986
  810SOL    HW1 3238   2.293   1.251   2.322 -0.5565  2.7519  1.0733
  810SOL    HW2 3239   2.181   1.341   2.380 -0.8674 -1.7398 -0.5563
  810SOL     MW 3240   2.230   1.312   2.315 -0.0013  0.0581 -0.0780
  811SOL     OW 3241   1.529   0.133   2.318 -0.2370  0.2542  0.2236
  811SOL    HW1 3242   1.596   0.076   2.357  1.3537 -1.7737  0.2369
  811SOL    HW2 3243   1.521   0.113   2.225 -1.2396  1.5264  0.7734
  811SOL     MW 3244   1.537   0.123   2.311 -0.1594  0.1545  0.2979
  812SOL     OW 3245   1.474   2.793   2.005  0.1953 -0.6199  0.1701
  812SOL    HW1 3246   1.565   2.801   1.977 -1.2791  0.1100  1.4259
  812SOL    HW2 3247   1.475   2.807   2.101 -0.0649  0.2285 -1.7381
  812SOL     MW 3248   1.486   2.796   2.014 -0.0335 -0.4117  0.0840
  813SOL     OW 3249   1.993   0.608   2.234 -0.1574  0.1737  0.0265
  813SOL    HW1 3250   1.914   0.556   2.212 -3.9685 -1.9761  0.0106
  813SOL    HW2 3251   1.968   0.661   2.308  0.0182 -3.1632 -0.6056
  813SOL     MW 3252   1.979   0.608   2.241 -0.6370 -0.5502 -0.0590
  814SOL     OW 3253   2.710   1.269   1.652 -0.6299 -0.1056 -0.2235
  814SOL    HW1 3254   2.658   1.216   1.714  0.1402  1.1239 -1.6979
  814SOL    HW2 3255   2.732   1.206   1.579  0.2287 -2.9006 -1.1425
  814SOL     MW 3256   2.706   1.253   1.651 -0.4150 -0.3121 -0.5393
  815SOL     OW 3257   2.583   1.748   2.400 -0.3697 -0.3526  0.5176
  815SOL    HW1 3258   2.497   1.700   2.399 -0.0548  1.0023  0.9727
  815SOL    HW2 3259   2.663   1.699   2.431  1.5726 -3.2060  0.1955
  815SOL     MW 3260   2.582   1.735   2.404 -0.0719 -0.5503  0.5352
  816SOL     OW 3261   0.725   0.729   2.733  0.1819 -0.2663 -0.3657
  816SOL    HW1 3262   0.722   0.640   2.782  3.4073 -0.7558  2.8179
  816SOL    HW2 3263   0.630   0.729   2.690 -1.0224 -0.6088 -1.6235
  816SOL     MW 3264   0.712   0.717   2.734  0.4486 -0.3761 -0.1116
  817SOL     OW 3265   2.984   1.205   1.453  0.3824  0.0154 -0.1491
  817SOL    HW1 3266   3.069   1.173   1.452 -1.6889 -0.0599  0.0529
  817SOL    HW2 3267   2.984   1.302   1.425  1.2464 -0.3202 -2.3702
  817SOL     MW 3268   2.995   1.213   1.449  0.2231 -0.0388 -0.4155
  818SOL     OW 3269   1.909   1.069   2.673 -0.1612 -0.8105  0.3079
  818SOL    HW1 3270   1.888   1.017   2.594 -0.5751  0.4511  1.9202
  818SOL    HW2 3271   2.000   1.042   2.695  0.0304 -2.5888  1.4307
  818SOL     MW 3272   1.919   1.059   2.665 -0.1905 -0.8787  0.6688
  819SOL     OW 3273   1.991   0.275   2.521  0.2204 -0.1663 -0.2472
  819SOL    HW1 3274   1.902   0.321   2.520 -1.2613  0.6373  0.4801
  819SOL    HW2 3275   2.031   0.287   2.610  2.2433 -0.7897 -1.5687
  819SOL     MW 3276   1.985   0.283   2.533  0.2918 -0.1425 -0.3256
  820SOL     OW 3277   2.521   1.715   2.679  0.0930 -0.1271 -0.5678
  820SOL    HW1 3278   2.531   1.629   2.721 -0.2008  1.2353 -1.9556
  820SOL    HW2 3279   2.569   1.709   2.594  0.4897 -0.8017 -0.3770
  820SOL     MW 3280   2.529   1.703   2.674  0.1065 -0.0363 -0.7257
  821SOL     OW 3281   2.558   1.362   2.009  0.9003  0.0643 -0.3705
  821SOL    HW1 3282   2.595   1.423   1.951 -1.9532 -0.9043  4.3826
  821SOL    HW2 3283   2.463   1.379   2.027 -0.9116  2.9311  1.0597
  821SOL     MW 3284   2.550   1.372   2.003  0.2848  0.3148  0.4453
  822SOL     OW 3285   2.813   2.677   1.422 -0.5231  0.0153 -0.4356
  822SOL    HW1 3286   2.873   2.651   1.497  0.5000 -1.1417  0.2828
  822SOL    HW2 3287   2.831   2.768   1.411 -1.7775 -1.9658 -0.9548
  822SOL     MW 3288   2.823   2.686   1.430 -0.5536 -0.3988 -0.4093
  823SOL     OW 3289   2.388   0.488   1.814 -0.1799 -0.0257 -0.9360
  823SOL    HW1 3290   2.430   0.427   1.756 -3.1330  0.4011  2.5441
  823SOL    HW2 3291   2.348   0.442   1.890  0.9555 -4.1474  0.0967
  823SOL     MW 3292   2.388   0.474   1.817 -0.4197 -0.5132 -0.3405
  824SOL     OW 3293   2.186   1.426   2.582 -0.4271 -0.4436 -0.6470
  824SOL    HW1 3294   2.264   1.459   2.533 -0.4008  0.1243 -1.3491
  824SOL    HW2 3295   2.146   1.502   2.621 -3.2577 -1.7435  0.6328
  824SOL     MW 3296   2.191   1.440   2.581 -0.7971 -0.5402 -0.5708
  825SOL     OW 3297   1.905   2.505   0.280 -0.9574  0.2655  0.3632
  825SOL    HW1 3298   1.890   2.448   0.349  0.0986  2.6945 -0.5636
  825SOL    HW2 3299   1.990   2.486   0.240 -0.2652 -0.4487 -0.5113
  825SOL     MW 3300   1.915   2.495   0.284 -0.7267  0.4917  0.1256
  826SOL     OW 3301   1.807   2.397   0.502  0.3453  0.5180  0.6232
  826SOL    HW1 3302   1.758   2.328   0.546  0.9985  0.3326 -0.3424
  826SOL    HW2 3303   1.781   2.477   0.545 -0.7529 -0.2575 -2.2646
  826SOL     MW 3304   1.797   2.399   0.513  0.2866  0.3912  0.1148
  827SOL     OW 3305   1.915   2.193   0.805  0.4238  0.0055  0.8474
  827SOL    HW1 3306   1.858   2.214   0.730 -0.8301 -0.8741  3.0646
  827SOL    HW2 3307   1.840   2.152   0.857 -0.2676 -0.1981  0.2547
  827SOL     MW 3308   1.898   2.190   0.802  0.1672 -0.1374  1.0618
  828SOL     OW 3309   0.045   2.559   0.567 -0.1015  0.2079 -0.0109
  828SOL    HW1 3310   0.142   2.561   0.569 -0.6782 -0.4133  0.8809
  828SOL    HW2 3311   0.029   2.634   0.516 -1.0024 -0.0877  0.3789
  828SOL     MW 3312   0.056   2.569   0.561 -0.2965  0.0870  0.1582
  829SOL     OW 3313   2.980   2.938   1.157  0.4307  0.6553 -0.0816
  829SOL    HW1 3314   2.895   2.909   1.115 -1.3256  1.4188 -0.1893
  829SOL    HW2 3315   3.036   2.858   1.154 -0.8987  0.5586 -0.8730
  829SOL     MW 3316   2.976   2.923   1.151  0.0236  0.7433 -0.2002
  830SOL     OW 3317   2.581   2.809   2.023  0.0875  0.1289  0.4567
  830SOL    HW1 3318   2.485   2.810   1.987 -2.7495 -2.7955 -1.7271
  830SOL    HW2 3319   2.632   2.808   1.943 -0.0554 -1.4400 -1.3270
  830SOL     MW 3320   2.575   2.809   2.008 -0.3056 -0.4640 -0.0667
  831SOL     OW 3321   2.362   2.479   1.206  0.1212  0.3845  0.1798
  831SOL    HW1 3322   2.322   2.450   1.286  1.7379  0.8037  2.7641
  831SOL    HW2 3323   2.444   2.428   1.186 -1.0692 -0.4265  2.2708
  831SOL     MW 3324   2.367   2.468   1.214  0.1774  0.3328  0.7966
  832SOL     OW 3325   2.361   2.202   1.903 -0.0856 -0.4720  0.5243
  832SOL    HW1 3326   2.421   2.272   1.921  2.6271 -1.5305  2.5266
  832SOL    HW2 3327   2.423   2.134   1.878 -1.1074 -0.9764  0.4669
  832SOL     MW 3328   2.377   2.202   1.902  0.1375 -0.6782  0.7809
  833SOL     OW 3329   1.715   2.462   0.867  0.6244 -0.0311  0.9120
  833SOL    HW1 3330   1.648   2.404   0.893 -0.0482  1.4670 -1.5793
  833SOL    HW2 3331   1.717   2.530   0.928 -3.3546 -5.0309 -0.6666
  833SOL     MW 3332   1.706   2.463   0.878  0.0106 -0.4931  0.3750
  834SOL     OW 3333   2.105   2.455   0.574  0.7290  0.2592  0.6416
  834SOL    HW1 3334   2.025   2.408   0.550 -1.5336 -1.4232 -1.2010
  834SOL    HW2 3335   2.161   2.419   0.496  0.1359  0.8037  1.8251
  834SOL     MW 3336   2.102   2.444   0.560  0.3522  0.1091  0.5546
  835SOL     OW 3337   1.768   2.602   0.650 -0.2919  0.0870 -0.1734
  835SOL    HW1 3338   1.753   2.552   0.741 -2.6821 -1.0922  0.9804
  835SOL    HW2 3339   1.839   2.658   0.677 -3.2953 -2.4824 -0.7148
  835SOL     MW 3340   1.776   2.603   0.666 -1.0035 -0.4076 -0.0926
  836SOL     OW 3341   1.942   2.214   1.617 -0.4899 -0.0756  0.2591
  836SOL    HW1 3342   2.019   2.243   1.669 -0.5240 -0.0330 -0.3243
  836SOL    HW2 3343   1.866   2.261   1.652 -0.4001  1.9017 -1.3666
  836SOL     MW 3344   1.942   2.224   1.629 -0.4825  0.1909 -0.0324
  837SOL     OW 3345   2.095   0.216   0.675 -0.6136 -0.4099  0.3676
  837SOL    HW1 3346   2.036   0.265   0.618  1.2579  1.1641 -2.0169
  837SOL    HW2 3347   2.128   0.142   0.622  0.7228  1.6730 -1.1334
  837SOL     MW 3348   2.092   0.212   0.661 -0.1904  0.0726 -0.1450
  838SOL     OW 3349   2.941   2.045   0.912 -0.1221  0.2090 -0.1994
  838SOL    HW1 3350   2.893   1.987   0.971 -0.2165  1.5286  1.1203
  838SOL    HW2 3351   3.013   1.989   0.889 -0.0878  0.3441  1.9731
  838SOL     MW 3352   2.944   2.030   0.917 -0.1301  0.4009  0.2614
  839SOL     OW 3353   1.476   2.346   0.994 -0.0339  0.1793 -0.3575
  839SOL    HW1 3354   1.504   2.381   1.083 -3.7333  0.4833 -0.4302
  839SOL    HW2 3355   1.527   2.269   0.975 -0.4304 -2.4025 -3.3834
  839SOL     MW 3356   1.486   2.340   1.004 -0.5743 -0.1212 -0.7664
  840SOL     OW 3357   2.363   2.157   2.442 -0.0904  0.3036 -0.2054
  840SOL    HW1 3358   2.290   2.221   2.424 -0.7618 -2.5030  2.0440
  840SOL    HW2 3359   2.417   2.208   2.499 -0.3529  2.1732 -3.0095
  840SOL     MW 3360   2.360   2.172   2.447 -0.2136  0.1800 -0.2786
  841SOL     OW 3361   2.118   2.430   0.133  0.1963 -0.0348  0.0548
  841SOL    HW1 3362   2.128   2.479   0.050 -0.8862  0.4586 -1.2279
  841SOL    HW2 3363   2.109   2.340   0.096 -0.6739  1.2481  0.2003
  841SOL     MW 3364   2.118   2.425   0.117 -0.0614  0.1996 -0.0952
  842SOL     OW 3365   2.605   2.080   1.542 -0.2500  0.1937 -0.1248
  842SOL    HW1 3366   2.540   2.014   1.556  2.6901 -1.0556  0.2395
  842SOL    HW2 3367   2.555   2.118   1.471 -0.1901 -1.0549  0.9357
  842SOL     MW 3368   2.590   2.076   1.535  0.1458 -0.1359  0.0632
  843SOL     OW 3369   2.676   2.780   1.765 -0.2390 -0.0979 -0.1335
  843SOL    HW1 3370   2.762   2.734   1.733  0.4986 -3.0257 -1.0567
  843SOL    HW2 3371   2.603   2.728   1.723 -2.2172 -2.7423 -2.0281
  843SOL     MW 3372   2.678   2.767   1.756 -0.4027 -0.8331 -0.5053
  844SOL     OW 3373   2.582   2.326   1.153 -0.3440 -0.4211  0.0445
  844SOL    HW1 3374   2.615   2.354   1.067  0.4305 -0.2639  1.2780
  844SOL    HW2 3375   2.653   2.355   1.208  1.2289 -0.7836 -3.5236
  844SOL     MW 3376   2.596   2.333   1.149 -0.0343 -0.4482 -0.2635
  845SOL     OW 3377   2.826   2.444   0.297 -0.3425 -0.1281  0.0209
  845SOL    HW1 3378   2.784   2.361   0.277  0.4833 -0.4153 -2.0599
  845SOL    HW2 3379   2.814   2.468   0.386  1.7533  0.4672 -1.1690
  845SOL     MW 3380   2.819   2.437   0.306  0.0430 -0.0874 -0.4107
  846SOL     OW 3381   1.544   2.892   0.760  0.0995  0.5239 -0.6459
  846SOL    HW1 3382   1.572   2.915   0.847  1.0161  2.6919 -1.4905
  846SOL    HW2 3383   1.448   2.889   0.767 -3.1366  0.4648 -0.3660
  846SOL     MW 3384   1.535   2.895   0.772 -0.2065  0.8022 -0.7204
  847SOL     OW 3385   2.603   1.933   0.179 -0.1085  0.1058 -0.1828
  847SOL    HW1 3386   2.671   1.862   0.170 -1.3160 -0.7012 -1.9182
  847SOL    HW2 3387   2.548   1.913   0.097 -0.5444  0.2936  0.2632
  847SOL     MW 3388   2.604   1.921   0.167 -0.3253  0.0241 -0.3529
  848SOL     OW 3389   2.474   2.144   1.309 -0.8206 -0.0449 -0.3977
  848SOL    HW1 3390   2.524   2.208   1.258  2.7038 -0.2398 -1.2809
  848SOL    HW2 3391   2.443   2.081   1.247  1.4759 -1.2801  1.5688
  848SOL     MW 3392   2.476   2.144   1.294 -0.0526 -0.2336 -0.2548
  849SOL     OW 3393   1.984   2.784   0.747  0.3216  0.2706 -0.0871
  849SOL    HW1 3394   1.994   2.759   0.839 -0.5229  0.6802 -1.4969
  849SOL    HW2 3395   2.071   2.741   0.715 -1.5215 -1.1929 -1.4456
  849SOL     MW 3396   1.997   2.775   0.755 -0.0330  0.1316 -0.4523
  850SOL     OW 3397   2.216   1.942   1.687  0.5020 -0.0772 -0.1420
  850SOL    HW1 3398   2.128   1.929   1.641  0.1306 -0.6432 -2.5001
  850SOL    HW2 3399   2.222   2.041   1.683  0.2324  0.9303 -1.2001
  850SOL     MW 3400   2.205   1.953   1.680  0.4174 -0.0189 -0.5927
  851SOL     OW 3401   2.255   2.371   0.366 -0.3223  0.9453  0.1939
  851SOL    HW1 3402   2.186   2.374   0.294  2.1508  0.8132  3.3651
  851SOL    HW2 3403   2.318   2.441   0.342  2.7722 -1.5895 -0.3968
  851SOL     MW 3404   2.254   2.381   0.353  0.4123  0.5934  0.5344
  852SOL     OW 3405   2.297   2.183   0.184  0.8174 -0.6081 -0.4798
  852SOL    HW1 3406   2.302   2.246   0.262  0.0496  0.6155  0.3963
  852SOL    HW2 3407   2.383   2.195   0.138 -1.4319 -0.1548 -0.4516
  852SOL     MW 3408   2.309   2.193   0.188  0.4194 -0.3869 -0.3605
  853SOL     OW 3409   2.468   2.440   1.985  0.0927  0.5266 -0.2333
  853SOL    HW1 3410   2.483   2.498   1.913  0.5027 -0.0044 -1.1355
  853SOL    HW2 3411   2.563   2.434   2.022  0.8186 -3.0674  1.2308
  853SOL     MW 3412   2.483   2.447   1.981  0.2425 -0.0177 -0.1592
  854SOL     OW 3413   2.843   2.274   0.788 -0.0078  0.1959  0.2530
  854SOL    HW1 3414   2.775   2.229   0.740 -1.0508  2.7055 -0.7291
  854SOL    HW2 3415   2.883   2.207   0.846 -2.5576 -1.0187  0.7722
  854SOL     MW 3416   2.839   2.259   0.789 -0.4819  0.3668  0.1919
  855SOL     OW 3417   2.659   2.230   0.323  0.2194 -0.4103 -0.4397
  855SOL    HW1 3418   2.635   2.288   0.398  0.5233  2.0175  1.5264
  855SOL    HW2 3419   2.739   2.187   0.340 -1.4956 -0.7265  1.0711
  855SOL     MW 3420   2.667   2.232   0.335  0.0332 -0.1317  0.0191
  856SOL     OW 3421   2.180   1.949   0.221  0.1280 -0.3505 -0.1130
  856SOL    HW1 3422   2.089   1.949   0.251  0.3224  0.4331  1.7418
  856SOL    HW2 3423   2.224   2.035   0.224  0.6441 -0.6262 -1.8250
  856SOL     MW 3424   2.174   1.960   0.226  0.2218 -0.2835 -0.0941
  857SOL     OW 3425   2.584   1.991   0.489 -0.0375  0.5225  0.2820
  857SOL    HW1 3426   2.582   2.032   0.399  0.7988  5.4824 -2.1438
  857SOL    HW2 3427   2.527   1.920   0.486  4.4390  2.1248 -0.2055
  857SOL     MW 3428   2.576   1.987   0.477  0.6635  1.3883 -0.1024
  858SOL     OW 3429   2.906   2.641   1.680 -0.4382  0.2355 -0.2713
  858SOL    HW1 3430   2.997   2.659   1.717  0.3143  1.6458 -2.4483
  858SOL    HW2 3431   2.859   2.579   1.740  0.7933  0.8735 -1.0998
  858SOL     MW 3432   2.912   2.635   1.693 -0.1764  0.5058 -0.6679
  859SOL     OW 3433   2.122   2.492   0.855 -0.0178 -0.0199  0.1798
  859SOL    HW1 3434   2.092   2.470   0.763 -0.1136 -0.3103  0.6301
  859SOL    HW2 3435   2.199   2.432   0.866  2.4284 -0.8089 -1.2811
  859SOL     MW 3436   2.128   2.481   0.844  0.2923 -0.1624  0.0465
  860SOL     OW 3437   2.650   2.577   0.136  0.3806 -0.1886 -0.3900
  860SOL    HW1 3438   2.697   2.544   0.216  1.7573  1.5565  0.5254
  860SOL    HW2 3439   2.699   2.659   0.110  2.5042  0.1893  1.6819
  860SOL     MW 3440   2.663   2.583   0.143  0.8424  0.0915  0.0042
  861SOL     OW 3441   1.571   2.139   1.225 -0.3904 -0.0023  0.1957
  861SOL    HW1 3442   1.588   2.176   1.309 -1.1482 -0.5074 -4.2763
  861SOL    HW2 3443   1.495   2.079   1.238 -0.4517 -0.2094  0.5463
  861SOL     MW 3444   1.563   2.136   1.238 -0.4985 -0.0963 -0.3481
  862SOL     OW 3445   2.399   1.894   1.499 -0.4575 -0.1096  0.2943
  862SOL    HW1 3446   2.333   1.900   1.571  1.7553 -1.8721  0.2590
  862SOL    HW2 3447   2.368   1.903   1.407  0.3386 -0.6349 -1.9670
  862SOL     MW 3448   2.386   1.896   1.496 -0.0605 -0.4114 -0.0087
  863SOL     OW 3449   0.017   1.769   1.199  0.4780  0.7101 -0.3446
  863SOL    HW1 3450   0.091   1.806   1.152  2.4846  0.7752  0.7294
  863SOL    HW2 3451  -0.040   1.840   1.221  0.2151 -3.9777  2.8145
  863SOL     MW 3452   0.019   1.783   1.196  0.7080  0.1002  0.2139
  864SOL     OW 3453   0.014   1.838   0.826 -0.0451 -0.0267  0.4809
  864SOL    HW1 3454  -0.059   1.790   0.873 -0.6676  0.8985  1.9285
  864SOL    HW2 3455   0.002   1.817   0.736 -0.0156  0.7308  0.9511
  864SOL     MW 3456   0.003   1.829   0.820 -0.1233  0.1953  0.7340
  865SOL     OW 3457   2.535   2.165   0.060  0.1712 -0.0627 -0.1146
  865SOL    HW1 3458   2.561   2.108   0.126 -1.2913  1.5218 -3.0175
  865SOL    HW2 3459   2.531   2.117  -0.022  3.3504 -1.2271  1.1882
  865SOL     MW 3460   2.538   2.151   0.058  0.3977 -0.0073 -0.3257
  866SOL     OW 3461   2.627   2.338   1.616  0.0132 -0.2683 -0.5714
  866SOL    HW1 3462   2.614   2.240   1.591 -1.0623 -2.4081  0.7702
  866SOL    HW2 3463   2.678   2.367   1.538  1.9218  1.8745  1.1568
  866SOL     MW 3464   2.632   2.329   1.603  0.1231 -0.2679 -0.1664
  867SOL     OW 3465   0.033   2.721   1.813 -0.0688 -0.4821  0.2399
  867SOL    HW1 3466   0.042   2.701   1.905  2.0093  0.1112 -2.0349
  867SOL    HW2 3467   0.041   2.817   1.810  3.0030  1.4832  1.8747
  867SOL     MW 3468   0.036   2.731   1.825  0.6107 -0.1445  0.1555
  868SOL     OW 3469   2.790   2.585   0.572  0.4028  0.1376 -0.1012
  868SOL    HW1 3470   2.701   2.546   0.586 -0.9720  0.5549  2.5940
  868SOL    HW2 3471   2.781   2.675   0.531  0.2450  0.5083  2.8577
  868SOL     MW 3472   2.777   2.592   0.568  0.2006  0.2416  0.6448
  869SOL     OW 3473   1.983   2.341   1.042  0.5992  0.2502  0.3413
  869SOL    HW1 3474   2.014   2.413   0.988  0.3794  0.8387  1.5091
  869SOL    HW2 3475   1.957   2.284   0.975 -2.4719  0.0040 -0.7942
  869SOL     MW 3476   1.984   2.343   1.026  0.1650  0.2954  0.3456
  870SOL     OW 3477   2.184   3.099   0.466 -0.0565 -0.0809  0.0080
  870SOL    HW1 3478   2.270   3.136   0.430 -0.1275 -2.4940 -0.9144
  870SOL    HW2 3479   2.208   3.014   0.498 -2.5470 -0.2098 -1.1530
  870SOL     MW 3480   2.198   3.093   0.466 -0.3944 -0.4163 -0.2669
  871SOL     OW 3481   2.473   2.062   0.938  0.3134  0.9415 -0.0961
  871SOL    HW1 3482   2.434   2.005   0.875  0.4435 -0.2386  0.3809
  871SOL    HW2 3483   2.408   2.128   0.965  1.7359  0.9050 -0.5973
  871SOL     MW 3484   2.459   2.063   0.933  0.5182  0.7810 -0.0993
  872SOL     OW 3485   2.044   2.525   1.428  0.4378 -0.2637 -0.1175
  872SOL    HW1 3486   2.015   2.587   1.495 -1.4428  3.6724 -1.5207
  872SOL    HW2 3487   1.982   2.455   1.417 -0.9096 -0.3987  0.8023
  872SOL     MW 3488   2.032   2.524   1.436  0.0119  0.2378 -0.1813
  873SOL     OW 3489   2.832   2.095   1.959 -0.0644 -0.5351  0.0063
  873SOL    HW1 3490   2.858   2.151   2.032  1.6726  1.5405  0.2832
  873SOL    HW2 3491   2.906   2.099   1.906 -1.4454 -0.4654  1.3786
  873SOL     MW 3492   2.845   2.103   1.961 -0.0174 -0.2521  0.2239
  874SOL     OW 3493   2.395   1.544   2.444 -0.6382  0.5983  0.1892
  874SOL    HW1 3494   2.369   1.540   2.352  2.7098  1.7376  1.1290
  874SOL    HW2 3495   2.479   1.488   2.441  3.0876 -1.1095  1.4798
  874SOL     MW 3496   2.402   1.536   2.432  0.2951  0.5233  0.4835
  875SOL     OW 3497   2.322   2.258   0.985 -0.7856  0.0584  0.7819
  875SOL    HW1 3498   2.370   2.315   0.923  0.2059  0.9962  2.1205
  875SOL    HW2 3499   2.314   2.304   1.069  0.4492 -1.3353 -0.2247
  875SOL     MW 3500   2.327   2.271   0.988 -0.4919 -0.0018  0.8257
  876SOL     OW 3501   3.011   2.345   1.269  0.3107  0.3421 -0.4993
  876SOL    HW1 3502   3.060   2.361   1.193 -1.2402 -3.3906  2.0552
  876SOL    HW2 3503   3.076   2.383   1.329 -0.2315 -1.6389  0.5824
  876SOL     MW 3504   3.026   2.352   1.267  0.0345 -0.4117 -0.0196
  877SOL     OW 3505   3.054   2.725   0.362  0.1338  0.0097  0.7780
  877SOL    HW1 3506   3.045   2.794   0.295  3.2266  2.0421  0.7269
  877SOL    HW2 3507   3.094   2.653   0.315 -1.5012 -0.0442 -1.0827
  877SOL     MW 3508   3.058   2.725   0.347  0.3261  0.2707  0.5257
  878SOL     OW 3509   2.349   1.840   1.239  0.7230  0.0342  0.8823
  878SOL    HW1 3510   2.293   1.781   1.288  0.3159  2.0125 -0.6314
  878SOL    HW2 3511   2.427   1.788   1.234  1.2048  1.4312 -3.1516
  878SOL     MW 3512   2.352   1.826   1.245  0.7328  0.4796  0.1504
  879SOL     OW 3513   2.673   2.440   0.916  0.3348  0.7929  0.0404
  879SOL    HW1 3514   2.737   2.505   0.940 -2.1572 -0.9203 -1.1908
  879SOL    HW2 3515   2.730   2.363   0.886  1.6274 -1.4073 -1.1099
  879SOL     MW 3516   2.689   2.438   0.915  0.1766  0.2766 -0.2738
  880SOL     OW 3517   2.592   2.193   0.685 -0.5234 -0.1544 -0.0199
  880SOL    HW1 3518   2.558   2.142   0.761  0.9589 -1.0382 -0.7008
  880SOL    HW2 3519   2.585   2.133   0.615 -1.7260  0.5347 -0.2761
  880SOL     MW 3520   2.587   2.178   0.685 -0.4865 -0.1801 -0.1435
  881SOL     OW 3521   2.963   2.694   0.750 -0.1220 -0.2316  0.1353
  881SOL    HW1 3522   2.898   2.638   0.705 -1.1928 -0.4844 -1.1748
  881SOL    HW2 3523   3.047   2.659   0.722 -0.1683  1.4472  2.4052
  881SOL     MW 3524   2.966   2.682   0.741 -0.2694 -0.0434  0.2619
  882SOL     OW 3525   2.307   2.801   1.960 -0.1010  0.3155  0.2614
  882SOL    HW1 3526   2.292   2.791   1.867 -0.1447 -0.5828 -1.8693
  882SOL    HW2 3527   2.246   2.732   1.983  1.3097 -1.4200  0.0027
  882SOL     MW 3528   2.297   2.791   1.951  0.0793 -0.0320 -0.0539
  883SOL     OW 3529   2.292   2.331   1.416  0.1335  0.0500 -0.0536
  883SOL    HW1 3530   2.355   2.261   1.393 -0.7703 -2.2843 -0.1150
  883SOL    HW2 3531   2.203   2.292   1.392 -1.2483 -0.7297  1.5424
  883SOL     MW 3532   2.288   2.316   1.410 -0.1681 -0.3609  0.1489
  884SOL     OW 3533   1.901   1.873   1.117  0.9615 -0.2349  0.4801
  884SOL    HW1 3534   1.845   1.942   1.072  0.2443  1.0886  0.0777
  884SOL    HW2 3535   1.994   1.906   1.104 -1.4142  1.1833 -0.1274
  884SOL     MW 3536   1.906   1.886   1.110  0.5534  0.1269  0.3469
  885SOL     OW 3537   2.808   2.404   1.831  0.2222 -0.3308  0.2893
  885SOL    HW1 3538   2.883   2.348   1.832 -2.4905  2.2705  0.5852
  885SOL    HW2 3539   2.740   2.364   1.770 -1.6001 -0.8625 -1.2223
  885SOL     MW 3540   2.809   2.391   1.823 -0.3762 -0.0578  0.1289
  886SOL     OW 3541   2.750   2.381   1.354 -0.2446 -0.3911  1.1780
  886SOL    HW1 3542   2.834   2.342   1.321 -0.4704 -0.1617  0.2677
  886SOL    HW2 3543   2.773   2.471   1.351  1.4102 -2.0013 -1.6657
  886SOL     MW 3544   2.764   2.388   1.349 -0.0561 -0.5733  0.6827
  887SOL     OW 3545   2.311   2.638   1.513  0.4050  0.3142  0.3278
  887SOL    HW1 3546   2.357   2.684   1.440 -1.3997 -2.5050  0.2273
  887SOL    HW2 3547   2.246   2.587   1.462  1.5149 -2.8766  0.9587
  887SOL     MW 3548   2.308   2.637   1.497  0.3134 -0.4787  0.3978
  888SOL     OW 3549   1.865   2.055   1.416  0.5044 -0.1164  0.5119
  888SOL    HW1 3550   1.937   2.080   1.360 -3.4603  1.1488 -1.2504
  888SOL    HW2 3551   1.876   2.104   1.497 -0.4807  1.4660  0.7851
  888SOL     MW 3552   1.876   2.065   1.419 -0.1487  0.2593  0.3154
  889SOL     OW 3553   2.343   2.011   2.091 -0.0448  0.0901  0.2682
  889SOL    HW1 3554   2.426   2.001   2.143  0.5427  0.9038  0.8321
  889SOL    HW2 3555   2.346   2.099   2.048  2.1260 -0.4415  0.9586
  889SOL     MW 3556   2.354   2.022   2.092  0.3191  0.1274  0.4337
  890SOL     OW 3557   0.092   2.319   0.160  0.4340  0.4642  0.3254
  890SOL    HW1 3558   0.038   2.401   0.174 -2.2206 -0.6437  3.4892
  890SOL    HW2 3559   0.087   2.268   0.245  1.3088  2.7170 -0.7922
  890SOL     MW 3560   0.084   2.323   0.173  0.1992  0.6152  0.5954
  891SOL     OW 3561   3.016   2.022   1.305 -0.6240  0.0192 -0.1814
  891SOL    HW1 3562   3.082   2.062   1.368  0.9480  1.6693  1.0421
  891SOL    HW2 3563   2.985   2.098   1.256 -1.5920 -3.0400 -0.0363
  891SOL     MW 3564   3.021   2.038   1.307 -0.5443 -0.1668 -0.0008
  892SOL     OW 3565   2.376   2.368   2.941  0.3373 -0.5387 -0.3347
  892SOL    HW1 3566   2.393   2.287   2.984  0.1954 -0.8170  1.0290
  892SOL    HW2 3567   2.463   2.390   2.898 -1.2528 -1.6688 -1.9844
  892SOL     MW 3568   2.389   2.360   2.941  0.1088 -0.7245 -0.3725
  893SOL     OW 3569   1.591   2.454   1.222 -0.0393 -0.6927  0.6715
  893SOL    HW1 3570   1.540   2.499   1.292 -0.7942 -0.0865  0.7574
  893SOL    HW2 3571   1.668   2.440   1.272 -1.9892 -0.1028 -1.2124
  893SOL     MW 3572   1.594   2.459   1.237 -0.3962 -0.5349  0.4343
  894SOL     OW 3573   2.847   1.891   0.459  0.1205 -0.3485 -0.3055
  894SOL    HW1 3574   2.770   1.903   0.504  3.4564 -0.5769  3.0756
  894SOL    HW2 3575   2.818   1.844   0.375  0.5447 -1.9008 -0.3559
  894SOL     MW 3576   2.833   1.886   0.454  0.6166 -0.5835  0.1340
  895SOL     OW 3577   2.077   2.196   1.250  0.5172  0.5527 -0.4141
  895SOL    HW1 3578   2.070   2.255   1.175 -2.0959 -1.5434  1.8917
  895SOL    HW2 3579   2.116   2.122   1.202  0.6997  1.1492 -1.5210
  895SOL     MW 3580   2.082   2.194   1.234  0.1965  0.3548 -0.2559
  896SOL     OW 3581   2.168   2.838   1.114 -0.0975  0.0840 -0.0253
  896SOL    HW1 3582   2.233   2.837   1.181 -0.0839  1.4421  1.5040
  896SOL    HW2 3583   2.109   2.760   1.135 -0.2727  0.0686 -1.1745
  896SOL     MW 3584   2.169   2.828   1.126 -0.1188  0.2612  0.0249
  897SOL     OW 3585   2.982   2.925   0.151 -0.2408 -0.3758 -0.5575
  897SOL    HW1 3586   3.072   2.934   0.116 -0.8666 -1.0379 -3.5898
  897SOL    HW2 3587   2.929   2.861   0.093  1.2700 -0.5343  0.5700
  897SOL     MW 3588   2.987   2.918   0.139 -0.1240 -0.4841 -0.8088
  898SOL     OW 3589   2.084   0.198   1.465  0.1476 -0.2313 -0.3701
  898SOL    HW1 3590   2.000   0.151   1.453 -0.0985  1.9761  2.7541
  898SOL    HW2 3591   2.096   0.238   1.378 -1.7105  1.8426 -0.2083
  898SOL     MW 3592   2.075   0.197   1.452 -0.1300  0.3336  0.0634
  899SOL     OW 3593   2.911   2.968   0.672 -0.3753 -0.5561 -0.1254
  899SOL    HW1 3594   2.924   2.881   0.715 -1.5167 -1.6778 -0.9428
  899SOL    HW2 3595   2.839   3.013   0.714 -1.4937  1.4259 -1.1476
  899SOL     MW 3596   2.903   2.962   0.683 -0.6734 -0.4426 -0.3681
  900SOL     OW 3597   0.142   2.405   1.067 -0.3385  0.6889 -0.7402
  900SOL    HW1 3598   0.157   2.489   1.019  0.1833  2.0805 -0.4756
  900SOL    HW2 3599   0.136   2.348   0.985  1.3812  1.2377 -3.0080
  900SOL     MW 3600   0.143   2.408   1.050 -0.0427  0.9449 -1.0045
  901SOL     OW 3601   1.795   2.892   1.678  0.0630 -0.0630 -0.2918
  901SOL    HW1 3602   1.854   2.823   1.644  0.8271  1.7287  0.0412
  901SOL    HW2 3603   1.716   2.873   1.635 -0.0973  1.6569  1.1926
  901SOL     MW 3604   1.792   2.880   1.668  0.1427  0.4003 -0.0520
  902SOL     OW 3605   2.577   2.053   1.853  0.3392 -0.1013  0.2528
  902SOL    HW1 3606   2.571   1.959   1.862  3.9752  2.1491  1.5572
  902SOL    HW2 3607   2.657   2.075   1.897  0.4608 -1.9091 -1.5534
  902SOL     MW 3608   2.586   2.044   1.860  0.8350 -0.0429  0.1866
  903SOL     OW 3609   1.579   2.752   0.536  0.2966 -0.1283 -0.1960
  903SOL    HW1 3610   1.649   2.692   0.568  0.3361 -2.1958  1.3655
  903SOL    HW2 3611   1.557   2.800   0.612  3.9949 -4.1833 -1.0500
  903SOL     MW 3612   1.585   2.751   0.550  0.7898 -0.9361 -0.1027
  904SOL     OW 3613   2.489   2.556   1.724  0.0550  0.0356 -0.6042
  904SOL    HW1 3614   2.429   2.567   1.653  0.6883  1.5886  1.7315
  904SOL    HW2 3615   2.532   2.475   1.704 -1.6461  0.8612  1.1995
  904SOL     MW 3616   2.487   2.547   1.712 -0.0859  0.3495 -0.0580
  905SOL     OW 3617   2.319   2.511   2.203 -0.1533 -0.1304  0.1202
  905SOL    HW1 3618   2.381   2.475   2.145 -1.5147 -0.3263  0.6080
  905SOL    HW2 3619   2.273   2.437   2.251 -2.1764  0.6847 -1.0209
  905SOL     MW 3620   2.321   2.496   2.202 -0.5999 -0.0487  0.0340
  906SOL     OW 3621   2.426   2.459   0.832 -0.3807  0.1169  0.1235
  906SOL    HW1 3622   2.521   2.460   0.858 -0.4803 -2.4958 -0.9735
  906SOL    HW2 3623   2.392   2.534   0.881 -0.3584 -0.5336 -1.4438
  906SOL     MW 3624   2.434   2.469   0.842 -0.3909 -0.3136 -0.2281
  907SOL     OW 3625   2.622   2.939   1.275 -0.3811 -0.3274  0.6004
  907SOL    HW1 3626   2.699   2.980   1.317 -0.1100  0.1882 -1.2652
  907SOL    HW2 3627   2.649   2.907   1.189  0.5998 -0.6841 -2.5601
  907SOL     MW 3628   2.636   2.940   1.269 -0.2159 -0.3064 -0.0628
  908SOL     OW 3629   2.705   2.358   3.079  0.4441 -0.2156  0.1955
  908SOL    HW1 3630   2.658   2.284   3.108  0.2510  1.4660 -2.1570
  908SOL    HW2 3631   2.682   2.421   3.144 -4.6531  0.1185  2.2124
  908SOL     MW 3632   2.696   2.356   3.092 -0.2539  0.0503  0.1512
  909SOL     OW 3633   1.574   0.183   1.106 -0.0917  0.3227  0.2939
  909SOL    HW1 3634   1.656   0.221   1.086  0.5887 -0.8758  0.4718
  909SOL    HW2 3635   1.533   0.254   1.155  0.7020 -0.8560 -0.7598
  909SOL     MW 3636   1.579   0.198   1.110  0.1028  0.0091  0.1784
  910SOL     OW 3637   2.315   1.762   0.400 -0.4502 -0.2030 -0.3413
  910SOL    HW1 3638   2.264   1.684   0.419  2.3746  0.3860 -1.4454
  910SOL    HW2 3639   2.258   1.820   0.347 -1.5565  1.6957 -1.4757
  910SOL     MW 3640   2.300   1.759   0.396 -0.2235  0.1252 -0.6366
  911SOL     OW 3641   2.201   2.275   1.689  0.0316  0.2097  0.1643
  911SOL    HW1 3642   2.262   2.258   1.759  0.1097 -0.1726 -0.6073
  911SOL    HW2 3643   2.259   2.299   1.619  1.9179 -0.7702 -0.3493
  911SOL     MW 3644   2.217   2.276   1.689  0.2908  0.0300 -0.0052
  912SOL     OW 3645   2.848   1.990   1.530 -0.8832 -0.8740 -0.2470
  912SOL    HW1 3646   2.899   2.008   1.450 -1.5787  2.7903 -2.7390
  912SOL    HW2 3647   2.763   2.041   1.519 -2.1764  0.3371 -1.5201
  912SOL     MW 3648   2.844   1.999   1.518 -1.1456 -0.2308 -0.7438
  913SOL     OW 3649   2.520   2.967   0.431  0.3863 -0.0134  0.1378
  913SOL    HW1 3650   2.602   2.914   0.425  0.3422 -0.3305 -0.7771
  913SOL    HW2 3651   2.448   2.906   0.412 -2.0376  2.1057  1.3317
  913SOL     MW 3652   2.521   2.952   0.428  0.0607  0.2243  0.1746
  914SOL     OW 3653   2.763   1.668   3.086 -0.3549 -0.2030  0.1172
  914SOL    HW1 3654   2.762   1.739   3.022 -3.0524 -1.0468  0.8775
  914SOL    HW2 3655   2.678   1.647   3.110 -0.9146  0.3920 -2.3438
  914SOL     MW 3656   2.751   1.675   3.081 -0.7846 -0.2358 -0.1072
  915SOL     OW 3657   1.824   0.208   0.201  0.1444  0.5918 -0.9866
  915SOL    HW1 3658   1.892   0.138   0.216  0.6125 -1.2564 -0.6420
  915SOL    HW2 3659   1.746   0.170   0.244 -0.0448  1.7577  0.6863
  915SOL     MW 3660   1.823   0.194   0.209  0.1812  0.5018 -0.7204
  916SOL     OW 3661   1.762   2.066   1.954 -0.5002  0.1440 -0.6254
  916SOL    HW1 3662   1.804   2.153   1.930  1.8959  0.3901  1.0705
  916SOL    HW2 3663   1.780   2.003   1.884 -4.4375 -0.1806  0.0243
  916SOL     MW 3664   1.770   2.069   1.941 -0.7036  0.1337 -0.3159
  917SOL     OW 3665   2.432   2.318   2.666  0.6021  0.0301 -0.3861
  917SOL    HW1 3666   2.415   2.284   2.754  1.0794  1.1844 -0.4643
  917SOL    HW2 3667   2.383   2.397   2.650  0.3308 -0.5966 -0.3829
  917SOL     MW 3668   2.423   2.324   2.676  0.6293  0.0997 -0.3960
  918SOL     OW 3669   2.050   1.636   2.703 -0.0515 -0.1388  0.0348
  918SOL    HW1 3670   1.967   1.658   2.653  1.9246  0.5594 -0.1923
  918SOL    HW2 3671   2.121   1.708   2.680  2.3269  1.3239  1.2129
  918SOL     MW 3672   2.049   1.649   2.693  0.5231  0.1463  0.1603
  919SOL     OW 3673   0.037   2.366   2.245  0.7629  0.4890  0.6587
  919SOL    HW1 3674  -0.050   2.316   2.226 -2.2416  1.3946  0.2952
  919SOL    HW2 3675   0.089   2.346   2.169  0.5026  1.1362 -0.1589
  919SOL     MW 3676   0.032   2.357   2.233  0.3321  0.6938  0.5028
  920SOL     OW 3677   2.758   2.820   3.100 -0.4264 -0.5540 -0.0590
  920SOL    HW1 3678   2.685   2.859   3.148  2.3002 -0.2819 -0.2868
  920SOL    HW2 3679   2.725   2.793   3.018  0.1720  2.3637 -1.7132
  920SOL     MW 3680   2.744   2.822   3.096  0.0123 -0.1331 -0.3073
  921SOL     OW 3681   2.457   2.606   2.646  0.1174  0.3961 -0.1374
  921SOL    HW1 3682   2.519   2.619   2.578 -3.4757  0.2489  1.2405
  921SOL    HW2 3683   2.509   2.549   2.710  2.1352 -1.2424  1.7184
  921SOL     MW 3684   2.472   2.600   2.645 -0.0905  0.1605  0.2893
  922SOL     OW 3685   2.011   2.792   0.310 -0.2517 -0.2800  0.6374
  922SOL    HW1 3686   2.007   2.796   0.213  0.8034 -1.3105 -3.9900
  922SOL    HW2 3687   1.993   2.698   0.323 -1.8379  2.0231 -0.1482
  922SOL     MW 3688   2.008   2.780   0.299 -0.3218 -0.1121 -0.0768
  923SOL     OW 3689   2.229   2.806   1.699 -0.3608  0.3051 -0.3668
  923SOL    HW1 3690   2.251   2.740   1.626  0.2085 -0.0796 -0.5783
  923SOL    HW2 3691   2.204   2.893   1.657  0.1279 -0.0730 -0.2708
  923SOL     MW 3692   2.229   2.809   1.684 -0.2212  0.2045 -0.3820
  924SOL     OW 3693   1.180   2.733   2.576  0.7408  0.4133  0.5622
  924SOL    HW1 3694   1.223   2.788   2.511 -3.1591 -0.6126  0.0087
  924SOL    HW2 3695   1.243   2.673   2.614 -1.7902 -2.0389  0.2444
  924SOL     MW 3696   1.194   2.733   2.573 -0.1077 -0.0456  0.4473
  925SOL     OW 3697   2.966   0.191   2.605 -0.4794 -0.6286 -0.4948
  925SOL    HW1 3698   2.976   0.189   2.515  2.2999 -0.6424  2.2550
  925SOL    HW2 3699   2.890   0.238   2.626 -0.3944 -0.3317  1.5943
  925SOL     MW 3700   2.958   0.197   2.596 -0.1015 -0.5913  0.1437
  926SOL     OW 3701   2.712   2.395   2.082  0.1291  0.4781 -0.4948
  926SOL    HW1 3702   2.774   2.459   2.118  0.0949  0.6776  2.3616
  926SOL    HW2 3703   2.745   2.383   1.992  1.2326  1.5025 -0.1697
  926SOL     MW 3704   2.725   2.402   2.075  0.2702  0.6396 -0.0750
  927SOL     OW 3705   2.374   0.132   0.308  0.1960  0.3774 -0.3141
  927SOL    HW1 3706   2.468   0.121   0.298 -2.4985  2.3911  2.9666
  927SOL    HW2 3707   2.342   0.138   0.214  2.4225 -0.7457 -0.8282
  927SOL     MW 3708   2.382   0.132   0.294  0.1343  0.4949  0.0509
  928SOL     OW 3709   2.077   2.488   1.798  0.4678 -0.3062  0.0757
  928SOL    HW1 3710   2.137   2.421   1.767 -0.5781 -1.6152 -0.5475
  928SOL    HW2 3711   2.110   2.539   1.876  1.8537  1.0018  0.0503
  928SOL     MW 3712   2.089   2.486   1.804  0.5126 -0.3063 -0.0099
  929SOL     OW 3713   2.720   2.372   2.455 -0.5504 -0.0111 -0.2326
  929SOL    HW1 3714   2.817   2.373   2.461  2.5516 -0.3198  1.4493
  929SOL    HW2 3715   2.699   2.315   2.536 -3.2369 -1.0753  0.2260
  929SOL     MW 3716   2.730   2.364   2.467 -0.4955 -0.1922  0.0498
  930SOL     OW 3717   2.033   2.923   2.688 -0.3769  0.0202 -0.6388
  930SOL    HW1 3718   2.033   2.829   2.723 -2.1750 -1.9134 -2.0828
  930SOL    HW2 3719   2.125   2.941   2.676 -3.1741  2.1339 -1.3123
  930SOL     MW 3720   2.045   2.913   2.691 -0.9832  0.0439 -0.9182
  931SOL     OW 3721   2.930   2.812   2.254 -0.2756 -0.4903 -0.1436
  931SOL    HW1 3722   3.013   2.800   2.301 -1.5863 -0.0660 -0.7056
  931SOL    HW2 3723   2.945   2.783   2.159  4.3450 -1.0271 -0.4284
  931SOL     MW 3724   2.943   2.806   2.248  0.1611 -0.5051 -0.2554
  932SOL     OW 3725   2.843   1.902   2.580 -0.0795 -0.1539  0.5680
  932SOL    HW1 3726   2.933   1.915   2.582 -0.8019 -1.0855  0.4766
  932SOL    HW2 3727   2.833   1.925   2.489  1.4986  0.6675 -0.9463
  932SOL     MW 3728   2.853   1.907   2.568  0.0334 -0.1684  0.3562
  933SOL     OW 3729   2.052   2.851   2.190  0.0020  0.4765  0.1661
  933SOL    HW1 3730   2.135   2.893   2.222 -0.7125  3.8416  0.9277
  933SOL    HW2 3731   1.985   2.921   2.178  0.9024  0.4868 -0.3119
  933SOL     MW 3732   2.054   2.866   2.192  0.0265  0.9219  0.2035
  934SOL     OW 3733   2.034   2.752   2.470 -0.3898  0.0676 -0.0719
  934SOL    HW1 3734   2.033   2.818   2.545  2.5877 -0.7835 -0.1824
  934SOL    HW2 3735   2.025   2.805   2.392  0.5259  0.3568  0.2560
  934SOL     MW 3736   2.033   2.768   2.470  0.1239 -0.0066 -0.0432
  935SOL     OW 3737   2.631   1.518   1.786 -0.1470  0.0743  0.7421
  935SOL    HW1 3738   2.714   1.494   1.747  1.0902 -0.3287  0.1686
  935SOL    HW2 3739   2.583   1.529   1.704  1.7475 -2.7603 -2.2707
  935SOL     MW 3740   2.636   1.516   1.770  0.2662 -0.3529  0.2689
  936SOL     OW 3741   2.989   2.243   3.081  0.2806  0.2398  0.1621
  936SOL    HW1 3742   3.056   2.263   3.144 -0.6974  1.2429  0.1051
  936SOL    HW2 3743   2.908   2.286   3.107 -0.6206  1.6382  3.7242
  936SOL     MW 3744   2.987   2.251   3.093  0.0327  0.5567  0.6246
  937SOL     OW 3745   2.035   2.177   2.641  0.5978 -0.7686  0.4471
  937SOL    HW1 3746   2.103   2.142   2.694 -4.4501  1.2763 -0.7051
  937SOL    HW2 3747   2.039   2.134   2.553  1.6153  0.6602  1.3339
  937SOL     MW 3748   2.044   2.167   2.636  0.0660 -0.3103  0.4121
  938SOL     OW 3749   2.286   1.810   1.903 -0.0009  0.3863  0.1697
  938SOL    HW1 3750   2.249   1.856   1.819  0.7338  0.0676 -2.3668
  938SOL    HW2 3751   2.295   1.875   1.973  2.7252  1.1344  0.2481
  938SOL     MW 3752   2.283   1.825   1.901  0.4557  0.4429 -0.1547
  939SOL     OW 3753   2.815   1.994   2.306 -0.1517  0.4731 -0.0425
  939SOL    HW1 3754   2.822   1.941   2.226  0.1443  0.4183  0.4434
  939SOL    HW2 3755   2.724   2.032   2.299 -0.8752 -1.6707  0.7184
  939SOL     MW 3756   2.804   1.992   2.294 -0.2081  0.1830  0.1220
  940SOL     OW 3757   2.323   0.130   2.720  0.2831  0.0922  0.6690
  940SOL    HW1 3758   2.324   0.029   2.697 -3.1887 -1.9167  1.9690
  940SOL    HW2 3759   2.366   0.145   2.804 -1.0845  2.0053  2.4189
  940SOL     MW 3760   2.329   0.119   2.728 -0.3554  0.0796  1.0714
  941SOL     OW 3761   0.220   2.344   2.058  1.2218 -0.2727 -0.4510
  941SOL    HW1 3762   0.311   2.317   2.056 -4.1260 -0.5808 -0.5911
  941SOL    HW2 3763   0.177   2.273   2.000  0.1654  1.0048 -0.9311
  941SOL     MW 3764   0.227   2.331   2.050  0.3768 -0.1448 -0.5328
  942SOL     OW 3765   2.889   2.227   2.182  0.3144 -0.4599  0.1343
  942SOL    HW1 3766   2.809   2.271   2.156 -1.1914  2.4746 -1.2235
  942SOL    HW2 3767   2.854   2.155   2.233  0.2487 -0.8803 -1.9802
  942SOL     MW 3768   2.874   2.223   2.186  0.1071 -0.1282 -0.3238
  943SOL     OW 3769   0.387   2.015   2.300  0.5053 -0.9175 -0.6467
  943SOL    HW1 3770   0.325   2.079   2.349  0.5911  1.5595  1.3907
  943SOL    HW2 3771   0.471   2.018   2.344  0.0218  1.4533  0.4586
  943SOL     MW 3772   0.390   2.024   2.312  0.4528 -0.2779 -0.2321
  944SOL     OW 3773   2.119   2.628   2.055  0.0451 -0.4435  0.8677
  944SOL    HW1 3774   2.168   2.571   2.117 -2.3355 -1.5870  3.0026
  944SOL    HW2 3775   2.093   2.698   2.115 -1.9669  0.3182  1.7822
  944SOL     MW 3776   2.122   2.630   2.071 -0.5344 -0.4939  1.2700
  945SOL     OW 3777   2.784   2.715   2.826 -0.0389 -0.0139 -0.0859
  945SOL    HW1 3778   2.709   2.657   2.832 -3.0686  0.2408 -2.4345
  945SOL    HW2 3779   2.830   2.689   2.742 -0.1651  2.7165 -1.0206
  945SOL     MW 3780   2.781   2.704   2.816 -0.4553  0.3799 -0.5191
  946SOL     OW 3781   2.432   2.748   2.257 -0.0019 -0.2281  0.2543
  946SOL    HW1 3782   2.476   2.778   2.178 -0.7978  1.0604  0.3824
  946SOL    HW2 3783   2.408   2.660   2.239 -1.1892 -0.2548 -1.2869
  946SOL     MW 3784   2.434   2.741   2.244 -0.2636 -0.0616  0.0678
  947SOL     OW 3785   2.027   0.022   0.248 -0.1680  0.4723 -0.3860
  947SOL    HW1 3786   2.071  -0.062   0.226 -0.9636  3.2314 -1.8796
  947SOL    HW2 3787   2.075   0.048   0.338  0.4047 -1.4842  0.3305
  947SOL     MW 3788   2.039   0.015   0.257 -0.1974  0.5782 -0.4885
  948SOL     OW 3789   1.798   3.081   2.628 -0.1221  0.0346  0.0251
  948SOL    HW1 3790   1.878   3.024   2.647 -1.7860  0.0796  2.0359
  948SOL    HW2 3791   1.801   3.114   2.534 -2.1000 -1.6494 -0.3035
  948SOL     MW 3792   1.809   3.078   2.618 -0.6026 -0.1816  0.2470
  949SOL     OW 3793   2.558   2.028   2.293 -0.1273 -0.4905 -0.8336
  949SOL    HW1 3794   2.560   1.943   2.346 -0.3804 -1.5222  3.6752
  949SOL    HW2 3795   2.508   2.088   2.349 -0.7171 -3.2249  1.4096
  949SOL     MW 3796   2.551   2.025   2.307 -0.2385 -0.9874  0.0572
  950SOL     OW 3797   2.203   2.572   3.019  0.7762 -0.3339  0.0272
  950SOL    HW1 3798   2.286   2.527   2.986  2.6966 -0.5686 -1.1669
  950SOL    HW2 3799   2.148   2.612   2.948  0.9148 -3.1878  1.7766
  950SOL     MW 3800   2.207   2.571   3.005  1.0479 -0.7414  0.1005
  951SOL     OW 3801   2.963   2.065   2.852 -0.2262 -0.1777 -0.2691
  951SOL    HW1 3802   3.015   2.136   2.891  0.3544 -1.3559  0.6650
  951SOL    HW2 3803   3.018   2.038   2.782 -2.3686 -2.0909 -0.5490
  951SOL     MW 3804   2.977   2.070   2.848 -0.4323 -0.5855 -0.1828
  952SOL     OW 3805   3.072   1.702   2.086 -0.0577 -0.4521  0.7938
  952SOL    HW1 3806   2.982   1.736   2.082  0.5702  0.7796 -2.1319
  952SOL    HW2 3807   3.141   1.772   2.094  2.4383 -0.6478 -0.9824
  952SOL     MW 3808   3.069   1.715   2.086  0.3545 -0.3155  0.1734
  953SOL     OW 3809   1.962   1.795   2.919  0.2156  0.0563  0.7503
  953SOL    HW1 3810   1.862   1.791   2.920 -1.2859  0.5019  1.5964
  953SOL    HW2 3811   1.994   1.730   2.862  1.8380  1.6564  0.2694
  953SOL     MW 3812   1.953   1.786   2.912  0.2315  0.3262  0.7985
  954SOL     OW 3813   2.476   2.103   2.904  0.3578  0.6725  0.4021
  954SOL    HW1 3814   2.387   2.096   2.868 -0.2412 -3.2620 -1.2557
  954SOL    HW2 3815   2.534   2.075   2.836 -0.2882  1.2215 -0.1360
  954SOL     MW 3816   2.472   2.098   2.890  0.1935  0.2258  0.1124
  955SOL     OW 3817   1.569   1.622   2.531  0.4108  0.1683 -0.2004
  955SOL    HW1 3818   1.541   1.650   2.449 -0.8131 -0.9565  0.4060
  955SOL    HW2 3819   1.649   1.660   2.560 -1.8977  2.0308 -3.8308
  955SOL     MW 3820   1.576   1.631   2.524 -0.0553  0.2656 -0.5994
  956SOL     OW 3821   2.625   2.476   2.855  0.2737  0.0848 -0.1808
  956SOL    HW1 3822   2.650   2.444   2.943 -1.6402 -0.4506 -1.8844
  956SOL    HW2 3823   2.676   2.418   2.800  2.1849  0.9307  0.1221
  956SOL     MW 3824   2.635   2.464   2.860  0.2734  0.1257 -0.3656
  957SOL     OW 3825   2.292   2.792   0.386 -0.1764  0.2759 -0.1603
  957SOL    HW1 3826   2.212   2.784   0.337 -0.2100 -0.1165  1.4452
  957SOL    HW2 3827   2.258   2.781   0.475 -1.7436  0.1355  1.1906
  957SOL     MW 3828   2.277   2.789   0.391 -0.3876  0.2056  0.2298
  958SOL     OW 3829   2.014   2.678   2.802 -0.0384  0.1823  0.3295
  958SOL    HW1 3830   1.982   2.589   2.760 -0.4390  1.1188  0.3612
  958SOL    HW2 3831   1.943   2.699   2.867  0.2574 -0.1395 -1.0621
  958SOL     MW 3832   2.001   2.669   2.805 -0.0523  0.2634  0.1501
  959SOL     OW 3833   2.426   2.577   0.307  0.0809  0.2573 -0.0804
  959SOL    HW1 3834   2.496   2.587   0.242  2.4787  0.4823 -2.7239
  959SOL    HW2 3835   2.390   2.667   0.329 -1.6116  2.4663  0.5504
  959SOL     MW 3836   2.430   2.590   0.301  0.1740  0.5784 -0.3460
  960SOL     OW 3837   1.904   2.338   2.299  0.0484 -0.6289 -0.5773
  960SOL    HW1 3838   1.863   2.258   2.278 -2.5367  0.2328  1.4694
  960SOL    HW2 3839   1.855   2.372   2.375  0.1376 -0.1440  0.3561
  960SOL     MW 3840   1.892   2.332   2.306 -0.2809 -0.4512 -0.1841
  961SOL     OW 3841   2.174   2.341   2.363 -0.0805 -0.4608 -0.0372
  961SOL    HW1 3842   2.082   2.320   2.335 -4.6788 -4.0783 -1.5062
  961SOL    HW2 3843   2.168   2.417   2.421  2.1010 -2.0465  2.0882
  961SOL     MW 3844   2.161   2.348   2.367 -0.3994 -1.1473  0.0494
  962SOL     OW 3845   2.231   2.045   2.821 -0.1128 -0.6722  0.0521
  962SOL    HW1 3846   2.197   2.003   2.904 -0.4576  0.4801 -0.0675
  962SOL    HW2 3847   2.245   1.980   2.757 -2.4674  0.7536 -1.2830
  962SOL     MW 3848   2.228   2.031   2.824 -0.4690 -0.3320 -0.1398
  963SOL     OW 3849   1.827   2.586   2.049  0.7906 -0.1688 -0.2927
  963SOL    HW1 3850   1.913   2.590   2.085 -1.6561  2.1503 -1.4789
  963SOL    HW2 3851   1.831   2.501   2.007  0.2285  2.5951  3.1096
  963SOL     MW 3852   1.839   2.576   2.048  0.3936  0.5018 -0.0003
  964SOL     OW 3853   1.869   1.987   2.744  0.3664 -0.0270  0.2294
  964SOL    HW1 3854   1.929   2.059   2.708  3.3488  0.3869  1.5815
  964SOL    HW2 3855   1.910   1.938   2.812 -5.8765  0.5264 -2.7308
  964SOL     MW 3856   1.882   1.990   2.748 -0.0638  0.1006  0.0173
  965SOL     OW 3857   2.208   2.696   0.625  0.2836  0.4706  0.2059
  965SOL    HW1 3858   2.174   2.610   0.616  2.7223 -0.1823  0.9347
  965SOL    HW2 3859   2.254   2.708   0.709  0.1250  2.7161 -0.0521
  965SOL     MW 3860   2.210   2.687   0.635  0.5844  0.6807  0.2680
  966SOL     OW 3861   2.655   2.652   2.438 -0.7744 -0.1309 -0.1982
  966SOL    HW1 3862   2.590   2.683   2.379  0.3116  0.9582  1.5998
  966SOL    HW2 3863   2.662   2.556   2.409  0.0150 -0.6925 -1.5606
  966SOL     MW 3864   2.647   2.643   2.426 -0.5270 -0.0613 -0.1407
  967SOL     OW 3865   2.874   3.023   2.900  0.1013  0.5501 -0.4350
  967SOL    HW1 3866   2.843   2.941   2.942  1.4490 -0.2828 -1.4595
  967SOL    HW2 3867   2.793   3.054   2.851 -2.0050  1.4981  4.0816
  967SOL     MW 3868   2.859   3.016   2.899  0.0012  0.5653  0.0258
  968SOL     OW 3869   3.036   2.590   2.943  0.6444  0.1015 -0.6342
  968SOL    HW1 3870   2.968   2.645   2.909  0.3463 -3.6237  0.6727
  968SOL    HW2 3871   3.024   2.520   2.874  0.6276  2.0250 -1.5364
  968SOL     MW 3872   3.026   2.588   2.929  0.6028 -0.1362 -0.5808
  969SOL     OW 3873   1.519   2.114   1.720 -0.2607  0.6856 -0.1680
  969SOL    HW1 3874   1.571   2.040   1.723  0.7523  1.0966 -0.8308
  969SOL    HW2 3875   1.493   2.135   1.811 -1.2382 -0.1173  1.7270
  969SOL     MW 3876   1.522   2.107   1.732 -0.2561  0.6339 -0.0054
  970SOL     OW 3877   1.657   1.703   1.851  0.7169 -0.7351 -0.2727
  970SOL    HW1 3878   1.712   1.673   1.921  0.6859 -0.2867 -1.7916
  970SOL    HW2 3879   1.572   1.686   1.884  1.9472 -0.8664 -0.6679
  970SOL     MW 3880   1.653   1.697   1.865  0.8751 -0.6933 -0.5253
  971SOL     OW 3881   1.810   0.050   2.364 -0.1437 -0.5723  0.6016
  971SOL    HW1 3882   1.802   0.026   2.271 -1.4093 -1.5390 -5.5365
  971SOL    HW2 3883   1.849   0.136   2.362 -1.1825 -2.3674  2.6709
  971SOL     MW 3884   1.814   0.059   2.352 -0.4477 -0.9367  0.0648
  972SOL     OW 3885   0.284   2.799   2.525 -0.0393  0.0837 -0.1586
  972SOL    HW1 3886   0.334   2.720   2.533 -0.7108 -0.2622 -3.1690
  972SOL    HW2 3887   0.354   2.865   2.535  0.3712  1.7486  0.6934
  972SOL     MW 3888   0.300   2.797   2.528 -0.0738  0.2577 -0.4434
  973SOL     OW 3889   2.637   0.017   2.083 -0.3456  0.4965 -0.2938
  973SOL    HW1 3890   2.636  -0.073   2.051 -2.9163 -0.8411  0.5510
  973SOL    HW2 3891   2.623   0.070   2.008  0.9060 -1.3558  1.7443
  973SOL     MW 3892   2.635   0.012   2.069 -0.5196  0.0757  0.0865
  974SOL     OW 3893   2.110   0.283   2.788 -0.2953 -0.2003  0.3951
  974SOL    HW1 3894   2.179   0.223   2.762 -1.4860 -2.3546  1.8995
  974SOL    HW2 3895   2.050   0.219   2.824  1.4931 -0.0709 -2.2607
  974SOL     MW 3896   2.111   0.267   2.789 -0.2165 -0.4675  0.2431
  975SOL     OW 3897   2.207   2.545   2.533 -0.3402  0.4397 -0.5224
  975SOL    HW1 3898   2.284   2.585   2.568 -0.3689  1.6019  0.5395
  975SOL    HW2 3899   2.157   2.615   2.491 -0.7746  0.3721  0.4799
  975SOL     MW 3900   2.211   2.560   2.532 -0.4013  0.5841 -0.2500
  976SOL     OW 3901   0.220   0.374   1.702  0.7550  1.2400 -0.0586
  976SOL    HW1 3902   0.258   0.286   1.742  0.9293 -1.9170 -0.8170
  976SOL    HW2 3903   0.136   0.354   1.669  0.5277  0.6406  1.3713
  976SOL     MW 3904   0.214   0.360   1.703  0.7480  0.7444  0.0300
  977SOL     OW 3905   1.721   2.737   2.466  0.1385 -0.3244 -0.4123
  977SOL    HW1 3906   1.723   2.640   2.455  0.0842  2.0149  0.0572
  977SOL    HW2 3907   1.815   2.755   2.463  0.0721 -0.2957  2.5008
  977SOL     MW 3908   1.734   2.726   2.464  0.1225 -0.0119  0.0340
   3.10000   3.10000   3.10000
