977 TIP4P/2005f water molecules t=   1.25000 step= 1250
 3908
    1SOL     OW    1   0.407   0.808   0.018 -0.4873  0.4803  0.4542
    1SOL    HW1    2   0.409   0.826  -0.073 -2.0370 -0.5988  0.4268
    1SOL    HW2    3   0.330   0.754   0.029 -3.4923  0.4614  0.7613
    1SOL     MW    4   0.397   0.803   0.008 -1.0882  0.3354  0.4911
    2SOL     OW    5   0.352   3.040   1.189 -0.1596 -0.0502  0.0959
    2SOL    HW1    6   0.400   3.110   1.149 -0.8061 -0.4753  0.4306
    2SOL    HW2    7   0.263   3.078   1.198  1.2759  0.2802  0.3113
    2SOL     MW    8   0.347   3.055   1.185 -0.0555 -0.0627  0.1685
    3SOL     OW    9   2.582   0.334   0.974 -0.0288 -0.5065 -0.1201
    3SOL    HW1   10   2.609   0.395   0.908  2.2453 -0.3781 -3.2114
    3SOL    HW2   11   2.560   0.394   1.059  2.1159  0.0746 -1.4400
    3SOL     MW   12   2.583   0.350   0.976  0.5542 -0.4129 -0.7021
    4SOL     OW   13   3.056   1.739   0.552  0.2851  0.0292  0.2026
    4SOL    HW1   14   3.011   1.806   0.499  1.9719  0.4962  0.7613
    4SOL    HW2   15   3.120   1.690   0.499  2.1352  0.5446 -0.3667
    4SOL     MW   16   3.058   1.741   0.538  0.7518  0.1588  0.2012
    5SOL     OW   17   1.665   1.515   0.550 -0.0800  0.0928  0.6672
    5SOL    HW1   18   1.669   1.445   0.616 -1.1472  0.6761 -1.4694
    5SOL    HW2   19   1.567   1.521   0.544 -2.2289 -4.5026  2.7418
    5SOL     MW   20   1.652   1.507   0.558 -0.5044 -0.4365  0.6590
    6SOL     OW   21   0.831   1.381   0.570  0.2790 -0.1832 -0.1844
    6SOL    HW1   22   0.741   1.368   0.596  0.4026  1.5096 -0.8574
    6SOL    HW2   23   0.867   1.311   0.626 -0.6498 -0.1903 -0.2957
    6SOL     MW   24   0.824   1.370   0.580  0.1728  0.0392 -0.2879
    7SOL     OW   25   2.063   1.050   0.005 -0.2025  0.6201  0.0811
    7SOL    HW1   26   2.121   1.109  -0.045 -0.3572  0.7698  2.3268
    7SOL    HW2   27   2.077   1.065   0.098 -0.1729 -1.0068  1.0518
    7SOL     MW   28   2.072   1.060   0.011 -0.2190  0.4252  0.5055
    8SOL     OW   29   0.877   1.508   1.198 -0.4627  0.6737 -0.1853
    8SOL    HW1   30   0.966   1.518   1.231 -2.4868  0.1916  1.0109
    8SOL    HW2   31   0.860   1.416   1.211  0.9744  2.9106  0.7204
    8SOL     MW   32   0.886   1.497   1.204 -0.5401  0.9052  0.0920
    9SOL     OW   33   1.008   0.508   1.389  0.2035  0.1653 -0.5502
    9SOL    HW1   34   0.960   0.439   1.338  0.5642  2.3453 -0.9574
    9SOL    HW2   35   1.073   0.459   1.438  4.2396  1.2830 -2.9550
    9SOL     MW   36   1.011   0.493   1.388  0.7836  0.6004 -0.9212
   10SOL     OW   37   0.246   0.813   0.518 -0.0370 -0.1043  0.4202
   10SOL    HW1   38   0.341   0.830   0.499 -0.4476 -1.8005 -0.5959
   10SOL    HW2   39   0.224   0.860   0.597  1.5507  0.8923 -1.7879
   10SOL     MW   40   0.256   0.822   0.526  0.1183 -0.1966 -0.0052
   11SOL     OW   41   0.770   1.106   1.615 -0.6689  0.3735 -0.3469
   11SOL    HW1   42   0.844   1.102   1.678  1.7371 -2.4139 -0.4660
   11SOL    HW2   43   0.780   1.020   1.572 -2.0572 -3.5813  1.2503
   11SOL     MW   44   0.781   1.094   1.617 -0.5346 -0.5161 -0.1519
   12SOL     OW   45   3.078   1.085   0.867 -0.1508  0.3253 -0.0076
   12SOL    HW1   46   3.121   1.141   0.931  1.4724  0.9527 -0.0349
   12SOL    HW2   47   3.062   1.149   0.793  1.4624 -3.5675 -1.0476
   12SOL     MW   48   3.081   1.101   0.866  0.2762 -0.1055 -0.1484
   13SOL     OW   49   1.845   1.408   1.333  0.2179  0.4708  0.1016
   13SOL    HW1   50   1.894   1.363   1.262  0.9224 -1.2920 -2.7308
   13SOL    HW2   51   1.854   1.502   1.321 -1.5552  0.3143 -0.3051
   13SOL     MW   52   1.853   1.415   1.322  0.0769  0.2175 -0.3257
   14SOL     OW   53   0.558   0.317   1.865 -0.3239 -0.1309  0.4771
   14SOL    HW1   54   0.497   0.244   1.884  0.6265  2.2354  0.7248
   14SOL    HW2   55   0.568   0.307   1.771  0.7816 -0.6646  0.4454
   14SOL     MW   56   0.551   0.306   1.855 -0.0527  0.1109  0.5056
   15SOL     OW   57   1.972   0.330   1.048  0.3090  0.2904  0.2403
   15SOL    HW1   58   1.953   0.396   1.120  1.7901  0.1901  0.0068
   15SOL    HW2   59   2.015   0.375   0.975 -2.2934  0.1652 -1.5044
   15SOL     MW   60   1.975   0.345   1.048  0.1610  0.2607 -0.0207
   16SOL     OW   61   0.221   1.828   0.309  0.1934  0.3887  0.4158
   16SOL    HW1   62   0.316   1.814   0.311 -0.0228  0.2459 -1.7283
   16SOL    HW2   63   0.209   1.926   0.320 -1.8263  0.2916 -0.9962
   16SOL     MW   64   0.232   1.839   0.311 -0.1016  0.3570 -0.0534
   17SOL     OW   65   1.017   0.928   1.439 -0.0440 -0.3652 -0.5879
   17SOL    HW1   66   1.059   0.900   1.523  0.2844  0.3496  1.6290
   17SOL    HW2   67   0.924   0.903   1.446 -0.0502 -0.0295 -2.7208
   17SOL     MW   68   1.010   0.921   1.451 -0.0015 -0.2266 -0.5768
   18SOL     OW   69   0.083   1.601   0.362 -0.0236 -0.2261 -0.3574
   18SOL    HW1   70   0.134   1.679   0.328 -0.1124  1.4534  1.1443
   18SOL    HW2   71   0.052   1.547   0.289 -2.4059  0.4596  3.4971
   18SOL     MW   72   0.086   1.604   0.348 -0.3496  0.0860  0.3493
   19SOL     OW   73   0.091   1.313   0.991 -0.0225  0.4156 -0.6851
   19SOL    HW1   74   0.149   1.356   0.928 -0.7166  0.9972  0.8635
   19SOL    HW2   75   0.008   1.356   0.969 -1.6426  1.5175  1.3363
   19SOL     MW   76   0.088   1.324   0.980 -0.3278  0.6377 -0.2140
   20SOL     OW   77   0.434   2.170   1.171 -0.1766  0.0449  0.3102
   20SOL    HW1   78   0.398   2.093   1.129 -1.5173  0.4221 -0.9560
   20SOL    HW2   79   0.383   2.188   1.256 -0.6404 -0.0349  0.0361
   20SOL     MW   80   0.423   2.162   1.176 -0.4147  0.0841  0.1070
   21SOL     OW   81   0.493   0.860   0.411  0.6168 -0.4772 -0.1285
   21SOL    HW1   82   0.552   0.809   0.468  0.2202 -1.5250 -0.2998
   21SOL    HW2   83   0.545   0.847   0.327  3.1391 -0.8543  0.6861
   21SOL     MW   84   0.508   0.851   0.408  0.8973 -0.6652 -0.0436
   22SOL     OW   85   1.531   0.705   1.004  0.1113  0.2708 -0.8709
   22SOL    HW1   86   1.492   0.656   0.932  1.6534  0.7270  1.3024
   22SOL    HW2   87   1.499   0.792   0.995 -2.8903  0.2416  2.9589
   22SOL     MW   88   1.521   0.710   0.993 -0.0812  0.3272 -0.0788
   23SOL     OW   89   3.071   0.664   0.700  0.4956 -0.2564 -0.0705
   23SOL    HW1   90   3.133   0.598   0.730  1.5938 -0.0653  2.5852
   23SOL    HW2   91   3.122   0.742   0.706  0.4390 -0.6165 -0.8292
   23SOL     MW   92   3.086   0.665   0.705  0.6330 -0.2787  0.1798
   24SOL     OW   93   2.036   2.216   0.037  0.6245  0.0845  0.2934
   24SOL    HW1   94   2.019   2.208   0.134 -2.1822 -0.2796  1.7282
   24SOL    HW2   95   2.084   2.138   0.007 -1.6413  0.1266  0.8542
   24SOL     MW   96   2.040   2.205   0.045 -0.0447  0.0420  0.5567
   25SOL     OW   97   0.201   1.395   0.520  0.3637 -0.7812 -0.2455
   25SOL    HW1   98   0.150   1.470   0.491 -0.6669  1.3699  0.9661
   25SOL    HW2   99   0.283   1.411   0.475  1.9310  0.7347 -3.2389
   25SOL     MW  100   0.205   1.407   0.510  0.4345 -0.2974 -0.4806
   26SOL     OW  101   2.056   1.069   0.281 -0.3847 -0.0892  0.0081
   26SOL    HW1  102   1.999   1.135   0.327  0.1517  0.1897 -1.4187
   26SOL    HW2  103   2.154   1.102   0.277 -0.0487 -3.8074 -0.9008
   26SOL     MW  104   2.061   1.082   0.287 -0.2696 -0.5430 -0.3001
   27SOL     OW  105   1.970   1.463   0.204 -0.1939 -0.0238  0.0351
   27SOL    HW1  106   1.903   1.529   0.229 -2.6047  0.0341 -2.1091
   27SOL    HW2  107   2.013   1.442   0.287 -0.9490 -1.0456  0.1974
   27SOL     MW  108   1.967   1.469   0.218 -0.6116 -0.1510 -0.2264
   28SOL     OW  109   0.442   1.011   1.973  0.1924 -0.0610  0.3962
   28SOL    HW1  110   0.500   1.038   2.042 -2.4997  0.0411 -1.7001
   28SOL    HW2  111   0.359   0.976   2.014 -0.8301 -3.6499  0.9210
   28SOL     MW  112   0.439   1.010   1.987 -0.2977 -0.5211  0.1889
   29SOL     OW  113   0.238   1.429   0.788  0.5169 -0.1072 -0.8942
   29SOL    HW1  114   0.246   1.525   0.791 -0.7897 -0.5034 -0.1014
   29SOL    HW2  115   0.234   1.409   0.695 -0.9537  0.0686  2.2041
   29SOL     MW  116   0.238   1.439   0.776  0.1505 -0.1362 -0.3808
   30SOL     OW  117   0.817   1.245   1.236  0.8345  0.3370  0.3667
   30SOL    HW1  118   0.725   1.230   1.263 -1.1120 -0.5328  0.3922
   30SOL    HW2  119   0.884   1.220   1.309  0.4773 -0.0993  2.4844
   30SOL     MW  120   0.814   1.240   1.249  0.5305  0.1647  0.6495
   31SOL     OW  121   0.404   0.265   0.179  0.1781  0.1480  0.4789
   31SOL    HW1  122   0.427   0.195   0.246  1.5639  0.3450  0.8396
   31SOL    HW2  123   0.392   0.212   0.098  2.4681  0.5258  0.4603
   31SOL     MW  124   0.406   0.249   0.177  0.6631  0.2239  0.5241
   32SOL     OW  125   2.752   0.977   1.170 -0.5336 -0.2261 -0.1347
   32SOL    HW1  126   2.681   0.904   1.165 -0.6283  0.6462 -0.0276
   32SOL    HW2  127   2.841   0.939   1.144 -0.6862 -0.2462 -3.8037
   32SOL     MW  128   2.754   0.963   1.166 -0.5663 -0.1137 -0.6047
   33SOL     OW  129   1.649   1.303   0.355 -0.5178  0.4557  0.2089
   33SOL    HW1  130   1.718   1.244   0.383 -0.4262  0.3481  0.1190
   33SOL    HW2  131   1.651   1.382   0.414  0.9390 -0.6336  0.2351
   33SOL     MW  132   1.658   1.306   0.367 -0.3135  0.2978  0.2005
   34SOL     OW  133   1.239   1.910   1.115  0.3977 -0.3947 -0.4554
   34SOL    HW1  134   1.153   1.934   1.148  0.6346 -2.0890 -0.7885
   34SOL    HW2  135   1.311   1.944   1.167 -2.2199  1.2711  0.1619
   34SOL     MW  136   1.237   1.918   1.126  0.0836 -0.3984 -0.4179
   35SOL     OW  137   0.350   0.111   1.847  0.1066 -0.0465 -0.3745
   35SOL    HW1  138   0.371   0.068   1.931  0.1053  0.1192 -1.2773
   35SOL    HW2  139   0.391   0.058   1.781 -1.9188 -2.6202 -0.2850
   35SOL     MW  140   0.358   0.098   1.849 -0.1608 -0.3642 -0.4818
   36SOL     OW  141   1.981   1.921   0.568  0.1193  0.0436  0.3747
   36SOL    HW1  142   1.944   1.904   0.481 -0.6878 -1.2058  0.3028
   36SOL    HW2  143   1.981   1.838   0.615 -2.1390 -0.1117  0.0060
   36SOL     MW  144   1.976   1.908   0.563 -0.2852 -0.1418  0.3166
   37SOL     OW  145   1.791   2.017   0.959 -0.0561 -0.4110  0.1091
   37SOL    HW1  146   1.734   1.967   0.905 -1.0741 -2.1633 -0.9103
   37SOL    HW2  147   1.733   2.084   0.986 -0.1269 -2.5613  0.5529
   37SOL     MW  148   1.776   2.020   0.956 -0.1998 -0.9259  0.0331
   38SOL     OW  149   2.823   0.960   0.126  0.3676 -0.1881  0.2699
   38SOL    HW1  150   2.835   0.927   0.217 -0.6412 -1.4503 -0.8266
   38SOL    HW2  151   2.906   0.940   0.084 -1.8231  2.2208  0.1454
   38SOL     MW  152   2.836   0.953   0.133 -0.0546 -0.0368  0.1088
   39SOL     OW  153   1.448   0.581   0.768  0.4389 -0.6571 -0.3587
   39SOL    HW1  154   1.397   0.510   0.803 -0.0248  0.4376  0.8360
   39SOL    HW2  155   1.382   0.643   0.735 -0.6485  1.3105  0.4407
   39SOL     MW  156   1.432   0.580   0.768  0.2343 -0.2531 -0.0956
   40SOL     OW  157   1.175   1.898   0.259  0.4596 -0.5003 -0.6271
   40SOL    HW1  158   1.211   1.814   0.292  1.9693  0.8745 -0.7859
   40SOL    HW2  159   1.198   1.960   0.328 -1.9151  1.2619 -0.7674
   40SOL     MW  160   1.183   1.895   0.273  0.3455 -0.0864 -0.6666
   41SOL     OW  161   0.559   0.479   1.582  0.3106 -0.3891 -0.0748
   41SOL    HW1  162   0.640   0.523   1.565  1.0796 -0.9930  0.4697
   41SOL    HW2  163   0.492   0.553   1.602  2.0112 -0.0825 -0.4804
   41SOL     MW  164   0.561   0.494   1.583  0.6364 -0.4283 -0.0565
   42SOL     OW  165   1.302   3.005   1.998  1.0638 -0.0795 -0.0198
   42SOL    HW1  166   1.206   3.016   2.019 -0.6958 -0.0442 -0.4129
   42SOL    HW2  167   1.338   2.921   2.038 -0.3612 -2.0912 -0.6020
   42SOL     MW  168   1.294   2.995   2.006  0.6436 -0.3403 -0.1484
   43SOL     OW  169   1.485   0.152   1.643  0.1452  0.4990 -0.6246
   43SOL    HW1  170   1.537   0.102   1.586  1.1556  1.1780 -0.7870
   43SOL    HW2  171   1.411   0.094   1.655 -2.3223 -1.4463 -1.8818
   43SOL     MW  172   1.482   0.138   1.637 -0.0470  0.3320 -0.8119
   44SOL     OW  173   1.205   0.775   1.018  0.8586 -0.6624  0.5414
   44SOL    HW1  174   1.207   0.873   1.011  0.6181 -0.0097 -0.1018
   44SOL    HW2  175   1.212   0.763   1.117 -0.6955  0.8688 -0.2113
   44SOL     MW  176   1.206   0.786   1.030  0.6218 -0.3743  0.3573
   45SOL     OW  177   1.217   0.755   0.698  0.0697  0.0842  0.5504
   45SOL    HW1  178   1.192   0.757   0.789  0.5753  0.3513  0.5128
   45SOL    HW2  179   1.161   0.707   0.638  0.0136  0.2705  1.6119
   45SOL     MW  180   1.206   0.749   0.702  0.1290  0.1440  0.6855
   46SOL     OW  181   0.550   1.104   0.576  0.1886 -0.3997  0.1145
   46SOL    HW1  182   0.492   1.055   0.523  0.0060 -1.9012 -0.4397
   46SOL    HW2  183   0.640   1.082   0.556  0.8128 -0.0117 -0.0439
   46SOL     MW  184   0.554   1.095   0.566  0.2469 -0.5466  0.0205
   47SOL     OW  185   0.215   1.952   1.972  0.0657 -0.3957  0.2249
   47SOL    HW1  186   0.297   1.912   2.006 -0.3902 -3.1430  1.3403
   47SOL    HW2  187   0.146   1.935   2.040  1.3000 -2.2390 -0.4356
   47SOL     MW  188   0.217   1.944   1.986  0.1684 -1.0013  0.2850
   48SOL     OW  189   1.079   0.516   1.044 -0.6173  0.0593 -0.3674
   48SOL    HW1  190   0.990   0.495   1.066  2.3755  0.0562  1.5158
   48SOL    HW2  191   1.080   0.607   1.007  0.4951  1.0365 -2.6174
   48SOL     MW  192   1.067   0.525   1.042 -0.0757  0.1878 -0.4158
   49SOL     OW  193   1.746   0.637   1.521  0.0444  0.1294 -0.4645
   49SOL    HW1  194   1.718   0.608   1.608  0.3600  0.4315  0.9640
   49SOL    HW2  195   1.836   0.607   1.515 -0.6005  0.1521 -0.4611
   49SOL     MW  196   1.754   0.629   1.531  0.0010  0.1723 -0.2756
   50SOL     OW  197   1.261   1.129   0.540 -1.0094  0.1417  0.3487
   50SOL    HW1  198   1.224   1.167   0.619  2.0281  1.3192 -0.5316
   50SOL    HW2  199   1.348   1.093   0.563  1.2521  1.6732  0.7106
   50SOL     MW  200   1.268   1.129   0.554 -0.3102  0.4991  0.2803
   51SOL     OW  201   0.330   2.929   0.913  0.1780  0.0595  0.0219
   51SOL    HW1  202   0.424   2.902   0.908  0.0116 -0.1010  0.3253
   51SOL    HW2  203   0.338   2.962   1.002 -0.7095  0.2052 -0.3426
   51SOL     MW  204   0.344   2.930   0.924  0.0390  0.0575  0.0138
   52SOL     OW  205   0.804   1.784   0.447 -0.3478  0.2762  0.5114
   52SOL    HW1  206   0.769   1.878   0.445 -1.5759 -0.1271 -1.2338
   52SOL    HW2  207   0.834   1.759   0.357 -3.0412 -0.0569 -0.3582
   52SOL     MW  208   0.804   1.793   0.435 -0.8652  0.1791  0.1664
   53SOL     OW  209   0.438   2.143   0.462  0.3826 -0.0548  0.1486
   53SOL    HW1  210   0.363   2.140   0.403 -0.6424  2.1929 -1.6027
   53SOL    HW2  211   0.437   2.239   0.487 -0.1182  0.7622 -1.0253
   53SOL     MW  212   0.428   2.155   0.457  0.1813  0.3496 -0.2374
   54SOL     OW  213   2.045   0.927   0.779  0.6143  0.0357  0.0637
   54SOL    HW1  214   2.091   0.926   0.693  0.2645  1.5798 -1.2272
   54SOL    HW2  215   2.041   0.835   0.808  2.2459  0.6674 -1.6594
   54SOL     MW  216   2.050   0.915   0.771  0.7834  0.3228 -0.3340
   55SOL     OW  217   0.533   1.577   1.658 -0.3615 -0.1855  0.0961
   55SOL    HW1  218   0.460   1.608   1.600  0.7121  3.7013 -1.6424
   55SOL    HW2  219   0.602   1.566   1.593 -2.0157  3.8644 -3.5547
   55SOL     MW  220   0.533   1.580   1.642 -0.4381  0.8616 -0.6150
   56SOL     OW  221   0.630   0.847   0.177 -0.0694  0.2138 -0.1067
   56SOL    HW1  222   0.638   0.928   0.123  1.1370 -0.0898  0.3714
   56SOL    HW2  223   0.554   0.807   0.141  1.4667  0.6294  1.1898
   56SOL     MW  224   0.621   0.853   0.165  0.2924  0.2286  0.1275
   57SOL     OW  225   1.195   1.251   1.150  0.5449 -0.1104  0.4025
   57SOL    HW1  226   1.287   1.251   1.159  0.3074 -1.4097  0.0240
   57SOL    HW2  227   1.152   1.224   1.239  1.1766 -0.1966  3.8960
   57SOL     MW  228   1.201   1.247   1.163  0.5969 -0.2932  0.8135
   58SOL     OW  229   0.527   1.227   1.297 -0.3056 -0.1738 -0.3347
   58SOL    HW1  230   0.481   1.311   1.288 -2.4002 -0.3503 -1.3637
   58SOL    HW2  231   0.543   1.222   1.395  0.6873 -0.5388 -0.3104
   58SOL     MW  232   0.523   1.237   1.309 -0.4509 -0.2452 -0.4673
   59SOL     OW  233   1.510   1.711   0.341  0.3166 -0.0792 -0.6654
   59SOL    HW1  234   1.556   1.775   0.398  0.9487 -1.9912 -1.4186
   59SOL    HW2  235   1.421   1.716   0.383 -1.1393 -2.0727 -1.1693
   59SOL     MW  236   1.505   1.721   0.354  0.2079 -0.5945 -0.8313
   60SOL     OW  237   0.012   0.217   1.676 -0.9979 -0.2703  0.2169
   60SOL    HW1  238  -0.072   0.259   1.716  0.3862 -2.5260 -3.0981
   60SOL    HW2  239   0.045   0.146   1.734  0.4990 -0.1018 -0.1191
   60SOL     MW  240   0.005   0.213   1.689 -0.6178 -0.5457 -0.2648
   61SOL     OW  241   2.005   1.365   3.060 -0.4720 -0.1250  0.4787
   61SOL    HW1  242   1.992   1.388   3.153  3.0255 -2.8599 -1.1703
   61SOL    HW2  243   2.092   1.328   3.058  2.1489  1.3547 -2.8173
   61SOL     MW  244   2.015   1.363   3.072  0.3352 -0.2906 -0.1737
   62SOL     OW  245   0.559   1.687   0.506 -0.0908 -0.1710  0.2043
   62SOL    HW1  246   0.652   1.722   0.506  2.4872  2.8137  0.8420
   62SOL    HW2  247   0.561   1.590   0.537 -2.8193  1.5121 -2.6167
   62SOL     MW  248   0.571   1.679   0.510 -0.1107  0.4449 -0.0837
   63SOL     OW  249   1.723   0.626   0.716  0.1603 -0.4960  0.1359
   63SOL    HW1  250   1.743   0.702   0.662  0.4285  0.1006  0.8792
   63SOL    HW2  251   1.634   0.639   0.751 -0.3291 -3.2801 -1.2553
   63SOL     MW  252   1.714   0.637   0.714  0.1312 -0.7846  0.0504
   64SOL     OW  253   0.272   1.698   0.827  0.8416 -0.3556 -0.5858
   64SOL    HW1  254   0.329   1.758   0.784  0.7980 -0.0589  0.0562
   64SOL    HW2  255   0.197   1.761   0.840  0.5449 -1.1165 -2.1756
   64SOL     MW  256   0.269   1.714   0.823  0.7967 -0.4169 -0.7108
   65SOL     OW  257   1.580   2.311   0.444 -0.0101 -0.4616 -0.1339
   65SOL    HW1  258   1.665   2.270   0.465  0.5104 -0.4155 -2.2056
   65SOL    HW2  259   1.543   2.354   0.524 -2.1128  1.2446 -2.2529
   65SOL     MW  260   1.586   2.311   0.458 -0.2188 -0.2304 -0.6868
   66SOL     OW  261   0.324   0.543   0.475  0.1998  0.2178 -0.8078
   66SOL    HW1  262   0.372   0.546   0.396 -1.3116 -2.0595 -1.1075
   66SOL    HW2  263   0.289   0.630   0.502  0.4069 -1.2056  2.5594
   66SOL     MW  264   0.325   0.555   0.468  0.0277 -0.2705 -0.4031
   67SOL     OW  265   1.459   0.125   1.994 -0.1776 -0.4173  0.0625
   67SOL    HW1  266   1.488   0.130   1.901  1.7444  1.2132 -1.4760
   67SOL    HW2  267   1.407   0.044   1.995 -0.4426  1.1005  0.0657
   67SOL     MW  268   1.456   0.115   1.982  0.0411 -0.0019 -0.1400
   68SOL     OW  269   0.717   0.078   2.967  1.2702 -0.5156 -0.2922
   68SOL    HW1  270   0.737   0.111   2.879 -2.1990 -1.9048 -2.4614
   68SOL    HW2  271   0.800   0.070   3.003 -1.5067  0.1648 -2.3140
   68SOL     MW  272   0.731   0.082   2.960  0.4461 -0.6092 -0.8451
   69SOL     OW  273   0.963   0.190   1.994 -0.4890 -0.0814 -0.2866
   69SOL    HW1  274   1.053   0.196   2.030  0.3332 -2.5701 -0.7219
   69SOL    HW2  275   0.941   0.097   1.998 -2.0998  2.1704 -0.1095
   69SOL     MW  276   0.972   0.178   1.999 -0.5931 -0.1126 -0.3207
   70SOL     OW  277   0.553   1.738   1.132 -0.0115 -0.5006 -0.2330
   70SOL    HW1  278   0.613   1.721   1.208 -2.0889 -1.3778 -0.5834
   70SOL    HW2  279   0.609   1.791   1.073 -0.9074 -0.3984 -1.3744
   70SOL     MW  280   0.568   1.743   1.134 -0.4038 -0.6029 -0.4298
   71SOL     OW  281   1.590   0.506   1.190 -0.5787  0.4839 -0.2262
   71SOL    HW1  282   1.556   0.537   1.271  0.1463 -0.1562 -1.0577
   71SOL    HW2  283   1.570   0.579   1.130 -0.5434 -0.4903  1.0455
   71SOL     MW  284   1.583   0.520   1.193 -0.4783  0.2709 -0.1681
   72SOL     OW  285   0.812   1.839   1.025  0.2593  0.2641 -0.0023
   72SOL    HW1  286   0.810   1.883   0.940 -2.6965 -0.6190 -1.3958
   72SOL    HW2  287   0.800   1.742   1.011  3.1922  0.3043 -0.5236
   72SOL     MW  288   0.810   1.832   1.012  0.2563  0.1529 -0.2549
   73SOL     OW  289   1.194   0.725   1.291 -0.1084 -0.1870  0.2091
   73SOL    HW1  290   1.137   0.654   1.322  3.1987  0.3540  1.7739
   73SOL    HW2  291   1.130   0.792   1.310  0.2080  1.5223  0.8586
   73SOL     MW  292   1.178   0.724   1.298  0.3696  0.1099  0.5012
   74SOL     OW  293   2.790   0.254   1.133  0.4201  0.5585 -0.1194
   74SOL    HW1  294   2.878   0.295   1.124 -0.8975  1.8674  0.0915
   74SOL    HW2  295   2.739   0.286   1.058  2.8591 -1.1702 -0.3596
   74SOL     MW  296   2.795   0.263   1.122  0.5681  0.5031 -0.1233
   75SOL     OW  297   1.576   1.400   0.113  0.6139 -0.2179  0.0589
   75SOL    HW1  298   1.643   1.354   0.059 -0.1312 -3.1129  0.7553
   75SOL    HW2  299   1.601   1.367   0.201  0.6835  0.7961 -1.6942
   75SOL     MW  300   1.588   1.389   0.118  0.5247 -0.4661 -0.0805
   76SOL     OW  301   2.979   0.574   0.454 -0.1785 -0.3420 -0.4694
   76SOL    HW1  302   3.016   0.599   0.542  0.8001  2.4255 -0.8406
   76SOL    HW2  303   3.044   0.507   0.425  0.0114  0.0862 -1.4364
   76SOL     MW  304   2.992   0.569   0.462 -0.0243  0.0796 -0.6459
   77SOL     OW  305   0.805   0.550   0.477  0.3376 -0.4013 -0.2616
   77SOL    HW1  306   0.781   0.572   0.385  0.5562 -0.4290 -1.1435
   77SOL    HW2  307   0.804   0.451   0.488  3.2115  0.4027  1.5177
   77SOL     MW  308   0.802   0.540   0.467  0.7456 -0.2989 -0.1432
   78SOL     OW  309   0.746   0.845   1.181 -0.0639 -0.1286 -0.2157
   78SOL    HW1  310   0.794   0.925   1.150 -0.4890 -2.3887 -0.5760
   78SOL    HW2  311   0.657   0.863   1.147 -1.6376  0.8547 -0.4938
   78SOL     MW  312   0.741   0.858   1.173 -0.3276 -0.2970 -0.2999
   79SOL     OW  313   1.913   1.654   0.636 -0.0676 -0.2190 -0.1887
   79SOL    HW1  314   1.829   1.625   0.596 -1.1606 -0.0977  0.2580
   79SOL    HW2  315   1.909   1.642   0.731  0.8131  0.0505  1.3129
   79SOL     MW  316   1.902   1.649   0.643 -0.0956 -0.1675  0.0684
   80SOL     OW  317   0.066   0.931   0.358 -0.3373 -0.1625  0.5412
   80SOL    HW1  318  -0.009   0.874   0.361  2.1554 -1.2343 -3.0092
   80SOL    HW2  319   0.138   0.886   0.408  0.3644 -0.6655 -2.4398
   80SOL     MW  320   0.066   0.918   0.365  0.0842 -0.3703 -0.3205
   81SOL     OW  321   1.861   1.897   0.311  0.4840  0.0302 -0.3542
   81SOL    HW1  322   1.844   1.799   0.284  3.4073  0.9178  1.0648
   81SOL    HW2  323   1.805   1.953   0.265  0.5285 -2.0834  1.4615
   81SOL     MW  324   1.852   1.891   0.301  0.8755 -0.1316  0.0726
   82SOL     OW  325   0.839   1.003   0.518 -0.1331  0.4794 -0.4157
   82SOL    HW1  326   0.837   1.012   0.425 -0.3992  0.4501  0.8367
   82SOL    HW2  327   0.790   0.921   0.526 -2.1841 -0.8870 -2.1021
   82SOL     MW  328   0.832   0.993   0.507 -0.4388  0.2952 -0.4730
   83SOL     OW  329   0.051   0.741   1.480 -0.0422  0.0067  0.2105
   83SOL    HW1  330   0.075   0.804   1.410 -3.7494  0.8931  0.6060
   83SOL    HW2  331   0.130   0.697   1.506 -1.1785  1.8449  1.8992
   83SOL     MW  332   0.065   0.743   1.474 -0.6812  0.3662  0.4855
   84SOL     OW  333   0.057   0.176   0.924 -0.6061  0.1764 -0.6482
   84SOL    HW1  334   0.066   0.251   0.988  1.3457 -0.4982  0.4886
   84SOL    HW2  335   0.029   0.110   0.988  2.4555  0.2268 -1.6245
   84SOL     MW  336   0.054   0.177   0.941  0.0553  0.0941 -0.6271
   85SOL     OW  337   0.441   0.450   0.734  0.1619  0.2701 -0.3547
   85SOL    HW1  338   0.429   0.480   0.647 -0.0757  0.0893  1.9770
   85SOL    HW2  339   0.394   0.370   0.743  0.6116 -2.4188 -0.6437
   85SOL     MW  340   0.434   0.444   0.724  0.1899 -0.1085 -0.0852
   86SOL     OW  341   1.184   0.256   1.127  0.7444 -0.2688  0.0859
   86SOL    HW1  342   1.142   0.340   1.096 -0.0867  0.5260 -0.5800
   86SOL    HW2  343   1.256   0.274   1.190  2.5752  1.3598 -1.2177
   86SOL     MW  344   1.188   0.270   1.131  0.8763  0.0510 -0.1740
   87SOL     OW  345   1.157   1.513   1.230 -0.0533 -0.6752 -0.6340
   87SOL    HW1  346   1.174   1.563   1.148  1.8034 -0.2012 -1.8594
   87SOL    HW2  347   1.153   1.420   1.209 -1.3644  3.0436 -0.5660
   87SOL     MW  348   1.159   1.507   1.216  0.0187 -0.1220 -0.7867
   88SOL     OW  349   1.181   1.028   0.970 -0.1842  0.0111 -0.2521
   88SOL    HW1  350   1.273   1.032   0.956  0.8340  0.8826  0.6305
   88SOL    HW2  351   1.173   1.105   1.029  1.9004 -1.0654 -0.4173
   88SOL     MW  352   1.192   1.039   0.976  0.2252 -0.0159 -0.1574
   89SOL     OW  353   1.768   0.755   0.339 -0.5499 -0.0132  0.5690
   89SOL    HW1  354   1.750   0.660   0.349 -3.5867  0.0380  0.5218
   89SOL    HW2  355   1.866   0.754   0.321  1.0766 -1.7660 -0.7456
   89SOL     MW  356   1.778   0.742   0.338 -0.7360 -0.2377  0.3893
   90SOL     OW  357   0.832   1.146   2.818  0.1610  0.8676  0.3267
   90SOL    HW1  358   0.862   1.056   2.836 -0.2340  1.8594 -1.5143
   90SOL    HW2  359   0.828   1.195   2.905 -1.0760  1.8056 -0.2328
   90SOL     MW  360   0.836   1.141   2.832 -0.0543  1.1222  0.0100
   91SOL     OW  361   2.158   0.695   0.501  0.2254  0.1029  0.2025
   91SOL    HW1  362   2.224   0.732   0.443  0.6183 -0.4715  4.2796
   91SOL    HW2  363   2.157   0.594   0.472 -1.6868  0.5475  0.8494
   91SOL     MW  364   2.167   0.686   0.490  0.0249  0.0858  0.8258
   92SOL     OW  365   1.755   0.896   0.568 -0.0873 -0.6136 -0.4087
   92SOL    HW1  366   1.671   0.928   0.599  1.7078  0.1367 -1.2567
   92SOL    HW2  367   1.737   0.847   0.483 -0.6196  0.4657 -0.4450
   92SOL     MW  368   1.741   0.894   0.561  0.0793 -0.3722 -0.5254
   93SOL     OW  369   1.065   0.179   0.427  1.0292  0.2841  0.1486
   93SOL    HW1  370   0.981   0.213   0.466  0.2241  0.2690  1.1898
   93SOL    HW2  371   1.064   0.233   0.346 -0.6813  0.1001 -0.3910
   93SOL     MW  372   1.054   0.191   0.421  0.6973  0.2578  0.2148
   94SOL     OW  373   1.836   1.367   1.643 -0.1823 -0.4625 -0.4095
   94SOL    HW1  374   1.850   1.375   1.545 -0.4715  0.6372  2.5677
   94SOL    HW2  375   1.814   1.272   1.659  0.5799 -0.7899 -0.4060
   94SOL     MW  376   1.835   1.356   1.632 -0.1199 -0.3606 -0.0162
   95SOL     OW  377   0.749   1.582   0.969 -0.8853  0.0793 -0.6199
   95SOL    HW1  378   0.768   1.541   1.052 -1.0348  3.1809 -0.2401
   95SOL    HW2  379   0.654   1.577   0.964 -0.6193 -1.2187 -0.9751
   95SOL     MW  380   0.739   1.576   0.979 -0.8699  0.3173 -0.6167
   96SOL     OW  381   1.319   1.887   1.717  0.2443 -0.1794  0.0264
   96SOL    HW1  382   1.229   1.894   1.752  2.4502  2.2306 -0.9255
   96SOL    HW2  383   1.323   1.795   1.676 -0.7771  3.0049  0.3324
   96SOL     MW  384   1.308   1.876   1.716  0.4006  0.5587 -0.0589
   97SOL     OW  385   1.138   1.450   0.881  0.1400  0.0575  0.0574
   97SOL    HW1  386   1.165   1.519   0.944 -1.8893  1.1406 -0.0545
   97SOL    HW2  387   1.073   1.494   0.820  2.5975 -0.6232  1.7668
   97SOL     MW  388   1.133   1.465   0.881  0.1965  0.1106  0.2682
   98SOL     OW  389   1.478   1.277   1.106 -0.4102  0.1918  0.5621
   98SOL    HW1  390   1.522   1.314   1.184  0.4508  0.0853  0.4609
   98SOL    HW2  391   1.475   1.340   1.029 -0.8539 -1.2362  1.8099
   98SOL     MW  392   1.483   1.290   1.106 -0.3551 -0.0107  0.7134
   99SOL     OW  393   1.430   0.275   1.293  0.4223 -0.1360 -0.5771
   99SOL    HW1  394   1.475   0.341   1.242  0.4297  0.7069 -0.8758
   99SOL    HW2  395   1.456   0.291   1.382  0.4471 -3.1820 -2.9912
   99SOL     MW  396   1.439   0.286   1.298  0.4266 -0.4267 -0.9350
  100SOL     OW  397   1.051   1.187   1.377  0.0234 -0.4343  0.2426
  100SOL    HW1  398   1.081   1.229   1.457  1.4544 -1.0731  0.7262
  100SOL    HW2  399   1.047   1.088   1.389 -1.5167 -1.2462 -1.2329
  100SOL     MW  400   1.054   1.179   1.389  0.0090 -0.6257  0.1117
  101SOL     OW  401   0.468   1.203   0.328 -0.2147  0.4869  0.2392
  101SOL    HW1  402   0.391   1.155   0.309  1.1573 -0.2954  4.8921
  101SOL    HW2  403   0.540   1.154   0.283  0.5248 -2.2557 -0.5562
  101SOL     MW  404   0.467   1.190   0.319  0.0639  0.0218  0.7482
  102SOL     OW  405   2.898   0.637   0.977 -0.2654 -0.4553  0.1140
  102SOL    HW1  406   2.933   0.726   0.984 -2.2773 -2.7857  2.5307
  102SOL    HW2  407   2.889   0.621   1.074  0.8676 -0.2153  1.0882
  102SOL     MW  408   2.901   0.646   0.991 -0.3813 -0.7311  0.5614
  103SOL     OW  409   1.747   0.254   1.878  0.9026  0.4791  0.0144
  103SOL    HW1  410   1.768   0.165   1.840 -1.6612  0.9881  0.3519
  103SOL    HW2  411   1.716   0.233   1.971  1.8200  2.4167 -0.0626
  103SOL     MW  412   1.746   0.240   1.885  0.6853  0.8019  0.0488
  104SOL     OW  413   0.145   1.519   1.564 -0.6483 -0.3357  0.0495
  104SOL    HW1  414   0.197   1.456   1.606  0.3958  0.5032 -1.2796
  104SOL    HW2  415   0.053   1.495   1.584 -1.3151 -0.9819  0.5580
  104SOL     MW  416   0.140   1.507   1.573 -0.5985 -0.3103 -0.0588
  105SOL     OW  417   0.035   1.188   0.415 -0.3644  0.4351 -0.0526
  105SOL    HW1  418   0.061   1.087   0.407  0.7536 -3.1575  1.0378
  105SOL    HW2  419   0.103   1.241   0.468 -0.2838  0.4684  0.1490
  105SOL     MW  420   0.048   1.182   0.421 -0.2063 -0.0345  0.1179
  106SOL     OW  421   0.842   0.400   1.013  0.3571  0.0839 -0.0892
  106SOL    HW1  422   0.759   0.447   0.991  0.8448  0.8199  0.5066
  106SOL    HW2  423   0.882   0.408   0.921  3.6359  0.0530 -0.2952
  106SOL     MW  424   0.836   0.408   0.998  0.8540  0.1769 -0.0377
  107SOL     OW  425   0.803   2.141   2.916 -0.0192 -0.2742  0.0444
  107SOL    HW1  426   0.728   2.106   2.870  1.4218  1.0192 -0.3619
  107SOL    HW2  427   0.783   2.108   3.007  0.1397  3.2328  1.2239
  107SOL     MW  428   0.790   2.132   2.922  0.1919  0.3592  0.1464
  108SOL     OW  429   1.323   1.642   1.638 -0.2107  0.0041  0.1926
  108SOL    HW1  430   1.237   1.601   1.588  1.8803 -2.1868 -2.2737
  108SOL    HW2  431   1.398   1.592   1.604  1.7041  1.2028 -2.1963
  108SOL     MW  432   1.322   1.630   1.627  0.3179 -0.1268 -0.4480
  109SOL     OW  433   2.021   0.755   0.270  0.0783  0.3701 -0.1249
  109SOL    HW1  434   2.028   0.852   0.261 -1.4058 -0.4903 -1.3036
  109SOL    HW2  435   2.052   0.736   0.359 -0.7807 -0.1557 -0.8180
  109SOL     MW  436   2.026   0.765   0.281 -0.2308  0.1872 -0.3719
  110SOL     OW  437   0.407   1.926   0.634  0.0221 -0.0366  0.0577
  110SOL    HW1  438   0.434   1.843   0.582  3.3964 -1.0462  1.7724
  110SOL    HW2  439   0.426   2.004   0.580 -0.4847 -0.3639  2.7631
  110SOL     MW  440   0.413   1.926   0.620  0.4004 -0.2130  0.6409
  111SOL     OW  441   0.755   0.873   1.456  0.4218  0.0608 -0.2985
  111SOL    HW1  442   0.754   0.875   1.360 -0.8568  2.0386  0.7978
  111SOL    HW2  443   0.738   0.785   1.485 -1.1211 -0.1129 -2.0007
  111SOL     MW  444   0.753   0.861   1.447  0.0495  0.2988 -0.3785
  112SOL     OW  445   1.317   1.084   1.630  0.3353 -0.1149 -0.5736
  112SOL    HW1  446   1.253   1.154   1.620  0.2452 -0.6668  1.3774
  112SOL    HW2  447   1.259   1.004   1.639  0.0146 -0.0058  1.8129
  112SOL     MW  448   1.301   1.082   1.630  0.2811 -0.1733 -0.0013
  113SOL     OW  449   1.243   3.051   1.730 -0.2905 -0.1621 -0.4897
  113SOL    HW1  450   1.273   3.014   1.813 -2.2727 -0.9941  0.7074
  113SOL    HW2  451   1.266   2.988   1.657  0.7701 -1.7829  0.1148
  113SOL     MW  452   1.250   3.038   1.731 -0.4121 -0.4857 -0.2520
  114SOL     OW  453   0.240   2.875   1.870  0.3293 -0.1070  0.2466
  114SOL    HW1  454   0.300   2.914   1.926 -0.9171 -0.7971  0.2055
  114SOL    HW2  455   0.183   2.946   1.838 -3.5622  1.3974 -2.1423
  114SOL     MW  456   0.240   2.889   1.873 -0.3486  0.0004 -0.0740
  115SOL     OW  457   0.478   0.860   1.121 -0.6352 -0.3980  0.4019
  115SOL    HW1  458   0.479   0.772   1.147  1.6158  0.8803  0.7703
  115SOL    HW2  459   0.440   0.920   1.187  0.2091 -1.3969  2.0199
  115SOL     MW  460   0.473   0.856   1.133 -0.2268 -0.3611  0.6640
  116SOL     OW  461   0.781   1.065   1.010 -0.0510 -1.0747 -0.0336
  116SOL    HW1  462   0.829   1.092   0.931 -1.8582  0.2909 -0.8897
  116SOL    HW2  463   0.818   1.124   1.080  1.1666 -0.5073  2.7341
  116SOL     MW  464   0.792   1.076   1.009 -0.1288 -0.8197  0.2186
  117SOL     OW  465   1.138   1.209   0.771 -0.3490 -0.1056  0.2703
  117SOL    HW1  466   1.150   1.141   0.836 -0.7394  1.6356 -0.7683
  117SOL    HW2  467   1.138   1.294   0.813  2.3363  0.8569  2.2948
  117SOL     MW  468   1.140   1.211   0.785 -0.0462  0.2511  0.4004
  118SOL     OW  469   3.043   2.969   1.649  0.5365 -0.2448  0.1173
  118SOL    HW1  470   3.077   3.005   1.730  1.2273  0.0272 -2.0578
  118SOL    HW2  471   2.944   2.972   1.661  0.0357 -2.8349  0.7121
  118SOL     MW  472   3.034   2.974   1.661  0.5616 -0.5506 -0.0912
  119SOL     OW  473   0.447   1.468   1.223 -0.3971 -0.2139  0.4165
  119SOL    HW1  474   0.469   1.527   1.148 -0.6844  1.0665 -1.1764
  119SOL    HW2  475   0.353   1.450   1.204 -0.9771 -1.0868  1.7988
  119SOL     MW  476   0.438   1.473   1.210 -0.5115 -0.1601  0.3887
  120SOL     OW  477   0.265   0.712   0.984 -0.0341 -0.0369  1.2451
  120SOL    HW1  478   0.226   0.665   1.057  0.9533  2.5601  1.4724
  120SOL    HW2  479   0.337   0.771   1.016  0.1449  0.6596 -0.6321
  120SOL     MW  480   0.269   0.714   0.998  0.1198  0.3976  1.0274
  121SOL     OW  481   1.783   1.121   1.682 -0.3362  0.6741 -0.4440
  121SOL    HW1  482   1.700   1.069   1.700 -1.7363 -0.8405  3.8761
  121SOL    HW2  483   1.815   1.072   1.609 -1.7708 -2.0036  3.3277
  121SOL     MW  484   1.777   1.108   1.675 -0.7102  0.1210  0.6236
  122SOL     OW  485   0.181   0.522   0.829  0.1438  0.5444 -0.5065
  122SOL    HW1  486   0.265   0.498   0.796 -1.6185 -0.7412 -1.5389
  122SOL    HW2  487   0.203   0.606   0.874 -0.1416 -2.4312  0.3033
  122SOL     MW  488   0.195   0.530   0.831 -0.1264 -0.0178 -0.5359
  123SOL     OW  489   1.851   1.157   0.469  0.0737 -0.1261 -0.2626
  123SOL    HW1  490   1.833   1.064   0.500 -0.5184 -0.4725 -0.5380
  123SOL    HW2  491   1.852   1.215   0.544 -0.8398 -0.3938 -2.2121
  123SOL     MW  492   1.849   1.153   0.483 -0.1249 -0.2071 -0.5562
  124SOL     OW  493   0.618   0.557   0.932 -0.4671 -0.4241  0.0616
  124SOL    HW1  494   0.580   0.510   0.860 -0.2676  2.7725 -3.2713
  124SOL    HW2  495   0.643   0.649   0.900 -2.9943  0.3332  0.8066
  124SOL     MW  496   0.616   0.563   0.918 -0.7742  0.0976 -0.2798
  125SOL     OW  497   0.709   1.777   1.742  0.4243  0.3090  0.1714
  125SOL    HW1  498   0.646   1.712   1.704 -1.3499  1.4542  0.5877
  125SOL    HW2  499   0.659   1.852   1.747  1.3337 -0.1809  0.1651
  125SOL     MW  500   0.694   1.778   1.738  0.3102  0.3954  0.2255
  126SOL     OW  501   2.127   1.588   1.989  0.7006 -0.4551  0.2141
  126SOL    HW1  502   2.163   1.674   1.957 -0.4474 -0.9817 -0.2458
  126SOL    HW2  503   2.203   1.536   2.012  2.4007 -1.7155 -1.6962
  126SOL     MW  504   2.142   1.592   1.988  0.7734 -0.6909 -0.0986
  127SOL     OW  505   0.570   0.802   1.816 -0.0560 -0.1178  0.1740
  127SOL    HW1  506   0.652   0.780   1.865  0.0272 -0.6896 -0.4771
  127SOL    HW2  507   0.530   0.882   1.856 -1.4140  1.6066 -1.6513
  127SOL     MW  508   0.576   0.810   1.827 -0.2242  0.0343 -0.1528
  128SOL     OW  509   1.738   0.710   2.907 -0.2369  0.2213  0.5255
  128SOL    HW1  510   1.775   0.696   2.820 -1.0769 -2.9703  1.5964
  128SOL    HW2  511   1.720   0.805   2.912 -0.8590  0.3549 -0.2045
  128SOL     MW  512   1.741   0.721   2.896 -0.4298 -0.1822  0.5705
  129SOL     OW  513   1.639   0.916   0.131  0.1841  0.0889  0.0607
  129SOL    HW1  514   1.579   0.842   0.120  2.2767  0.5312 -1.5459
  129SOL    HW2  515   1.678   0.880   0.207  1.1706  1.2968  0.7368
  129SOL     MW  516   1.636   0.901   0.140  0.5904  0.3066 -0.0621
  130SOL     OW  517   0.802   1.374   0.279  0.3764  0.2242 -0.4356
  130SOL    HW1  518   0.812   1.355   0.372  2.7783 -1.7801 -0.0987
  130SOL    HW2  519   0.829   1.465   0.270 -1.2789 -1.4276  3.0871
  130SOL     MW  520   0.807   1.383   0.290  0.4749 -0.2582  0.0736
  131SOL     OW  521   3.040   0.847   0.009 -0.3584 -0.1892 -0.2412
  131SOL    HW1  522   3.019   0.882  -0.081  0.4347  0.7617 -2.0731
  131SOL    HW2  523   3.130   0.828  -0.001  2.2554  0.6107 -2.0896
  131SOL     MW  524   3.049   0.849  -0.004  0.0911  0.0418 -0.7268
  132SOL     OW  525   2.702   0.137   1.351  0.2510  0.1035  0.0092
  132SOL    HW1  526   2.747   0.177   1.278  0.8503  1.6081  1.4917
  132SOL    HW2  527   2.616   0.102   1.318  0.9730  1.3763 -1.3383
  132SOL     MW  528   2.697   0.138   1.337  0.4253  0.4699  0.0270
  133SOL     OW  529   1.055   0.162   1.701 -0.6062 -0.2057  0.2066
  133SOL    HW1  530   1.132   0.103   1.725  0.3300 -1.0434 -1.3918
  133SOL    HW2  531   1.003   0.178   1.780 -0.5124 -1.4365 -0.0717
  133SOL     MW  532   1.059   0.156   1.715 -0.4703 -0.4786 -0.0410
  134SOL     OW  533   1.411   2.516   1.391  0.0121 -0.0109  0.3167
  134SOL    HW1  534   1.326   2.563   1.384  1.2597 -0.5439 -0.2988
  134SOL    HW2  535   1.455   2.526   1.475  0.4704  3.8786  2.3024
  134SOL     MW  536   1.406   2.523   1.401  0.2372  0.4320  0.4975
  135SOL     OW  537   3.003   0.965   2.863  0.2846 -0.5370 -0.3006
  135SOL    HW1  538   3.086   1.027   2.874  0.7571  1.9019  1.0122
  135SOL    HW2  539   2.927   1.022   2.873  2.5002  0.4084  0.8998
  135SOL     MW  540   3.004   0.981   2.866  0.6393 -0.0905  0.0310
  136SOL     OW  541   0.216   2.032   0.785 -0.1879  0.1124  0.0162
  136SOL    HW1  542   0.130   1.990   0.766 -0.3553  2.3621  2.5498
  136SOL    HW2  543   0.282   1.992   0.721  1.3293 -0.5600 -1.7556
  136SOL     MW  544   0.213   2.021   0.774 -0.0098  0.3205  0.1167
  137SOL     OW  545   0.691   2.023   0.496  0.0721  0.3065  0.1528
  137SOL    HW1  546   0.712   2.029   0.589 -1.6775  0.3323  2.0275
  137SOL    HW2  547   0.609   2.076   0.493  2.0327  2.9685 -2.2187
  137SOL     MW  548   0.683   2.031   0.508  0.1000  0.6612  0.0872
  138SOL     OW  549   0.494   0.587   1.182 -0.4415 -0.3490  0.2603
  138SOL    HW1  550   0.399   0.565   1.174 -1.6405 -1.9184  1.6224
  138SOL    HW2  551   0.536   0.577   1.097  1.0001 -0.9081  0.3727
  138SOL     MW  552   0.487   0.583   1.170 -0.4095 -0.6298  0.4549
  139SOL     OW  553   2.868   0.555   1.236  0.0321 -0.3982 -0.0790
  139SOL    HW1  554   2.903   0.480   1.290 -1.8871  0.2363 -0.9937
  139SOL    HW2  555   2.870   0.627   1.303  0.0311  0.2627 -0.1609
  139SOL     MW  556   2.872   0.555   1.252 -0.2212 -0.2273 -0.2105
  140SOL     OW  557   0.967   0.508   2.023  0.0542  0.1996 -0.5239
  140SOL    HW1  558   0.962   0.420   1.991 -1.4038  2.2170  0.2810
  140SOL    HW2  559   0.978   0.499   2.120  3.4630  0.6130  2.7081
  140SOL     MW  560   0.968   0.495   2.032  0.3116  0.5203  0.0087
  141SOL     OW  561   1.010   0.645   1.701 -0.3634  0.1107 -0.3723
  141SOL    HW1  562   1.050   0.562   1.672  1.4124 -0.9818  0.3951
  141SOL    HW2  563   1.070   0.714   1.687 -0.7355 -2.3485  0.5359
  141SOL     MW  564   1.023   0.643   1.696 -0.1782 -0.3579 -0.1512
  142SOL     OW  565   0.869   1.123   0.760 -0.3620  0.1121 -0.5545
  142SOL    HW1  566   0.862   1.069   0.672  0.8930  1.7260 -1.2860
  142SOL    HW2  567   0.965   1.132   0.771  1.2076  2.8909  0.3638
  142SOL     MW  568   0.881   1.117   0.749  0.0107  0.6917 -0.5299
  143SOL     OW  569   1.805   0.719   1.083 -0.2189 -0.0950  0.8953
  143SOL    HW1  570   1.855   0.665   1.019 -1.5244 -1.3760 -0.7268
  143SOL    HW2  571   1.721   0.720   1.040 -0.8612 -1.6940  1.1824
  143SOL     MW  572   1.801   0.712   1.069 -0.4759 -0.4750  0.7192
  144SOL     OW  573   0.271   1.313   1.693  0.1005  0.5565  0.4872
  144SOL    HW1  574   0.345   1.273   1.642 -0.8415  0.9074 -1.7922
  144SOL    HW2  575   0.299   1.307   1.790 -0.1629  2.8282  1.9091
  144SOL     MW  576   0.285   1.307   1.699 -0.0585  0.9025  0.3741
  145SOL     OW  577   0.237   0.509   1.179  0.3096  0.0734  0.0968
  145SOL    HW1  578   0.274   0.426   1.206  1.0802  1.3606  1.1399
  145SOL    HW2  579   0.164   0.490   1.131 -0.3436  2.9877  0.0688
  145SOL     MW  580   0.232   0.495   1.176  0.3251  0.6277  0.2308
  146SOL     OW  581   0.845   1.993   1.407  0.0454 -0.1853  0.1055
  146SOL    HW1  582   0.895   2.003   1.324  1.9185  1.0101 -2.3067
  146SOL    HW2  583   0.754   1.984   1.382  2.0126 -1.0818 -2.0138
  146SOL     MW  584   0.840   1.993   1.393  0.5521 -0.1459 -0.4924
  147SOL     OW  585   0.366   0.492   2.988  0.4716  0.5301 -0.2518
  147SOL    HW1  586   0.300   0.475   3.050  0.2376 -1.3878 -0.5514
  147SOL    HW2  587   0.318   0.542   2.917 -0.2186 -0.7270 -0.7349
  147SOL     MW  588   0.351   0.497   2.987  0.3497  0.1112 -0.3551
  148SOL     OW  589   0.084   0.960   1.309 -0.1969  0.3468  0.0782
  148SOL    HW1  590   0.175   0.984   1.313  2.8999  0.5346 -5.2009
  148SOL    HW2  591   0.039   1.047   1.318 -3.5774 -2.8469  0.8658
  148SOL     MW  592   0.090   0.975   1.311 -0.2344 -0.0498 -0.5144
  149SOL     OW  593   1.473   1.096   1.389  0.4643  0.4292  0.3749
  149SOL    HW1  594   1.417   1.090   1.468  1.9806  2.1118  2.9637
  149SOL    HW2  595   1.493   1.188   1.381 -1.6403 -0.1854  2.3138
  149SOL     MW  596   1.468   1.107   1.398  0.3867  0.5701  0.9723
  150SOL     OW  597   1.729   1.374   0.774 -0.6358  0.4275  0.2028
  150SOL    HW1  598   1.786   1.311   0.814  0.5360  2.2413 -2.0063
  150SOL    HW2  599   1.761   1.451   0.814  0.2250 -0.7678 -0.7142
  150SOL     MW  600   1.741   1.376   0.785 -0.3676  0.5091 -0.2097
  151SOL     OW  601   1.661   1.822   0.794 -0.2117  0.5548  0.1392
  151SOL    HW1  602   1.653   1.832   0.695  1.2406  1.4404 -1.6853
  151SOL    HW2  603   1.596   1.762   0.818  0.4867  1.8467 -1.1619
  151SOL     MW  604   1.652   1.815   0.784  0.0721  0.8421 -0.2732
  152SOL     OW  605   0.794   1.445   1.632 -0.3449 -0.0765  0.4630
  152SOL    HW1  606   0.760   1.438   1.721  3.5384  0.5886  2.1602
  152SOL    HW2  607   0.821   1.352   1.617 -1.9202  0.6871  1.6521
  152SOL     MW  608   0.794   1.431   1.642 -0.0404  0.1120  0.8438
  153SOL     OW  609   2.591   1.219   0.800 -0.3469 -0.1919 -0.5538
  153SOL    HW1  610   2.674   1.189   0.760  1.2682 -0.6621  1.0456
  153SOL    HW2  611   2.526   1.150   0.796 -0.3814  1.4101  2.9774
  153SOL     MW  612   2.594   1.206   0.794 -0.1384 -0.0425  0.1231
  154SOL     OW  613   0.153   1.752   1.714 -0.1715  0.0478  0.1803
  154SOL    HW1  614   0.152   1.670   1.672  0.5891 -1.4171  0.3230
  154SOL    HW2  615   0.231   1.751   1.772 -0.7749 -2.5817 -0.9560
  154SOL     MW  616   0.163   1.741   1.716 -0.1508 -0.4924  0.0492
  155SOL     OW  617   1.160   0.688   0.272  0.0791  0.5147 -0.1544
  155SOL    HW1  618   1.134   0.639   0.348  0.0718 -1.0415  0.4289
  155SOL    HW2  619   1.148   0.781   0.304 -0.1401  0.1287  2.4839
  155SOL     MW  620   1.155   0.694   0.287  0.0492  0.2585  0.2707
  156SOL     OW  621   1.553   3.000   1.068  0.4806 -0.1482 -0.5217
  156SOL    HW1  622   1.638   3.037   1.077  0.5944 -1.7646 -0.2953
  156SOL    HW2  623   1.545   2.918   1.113 -1.9363  0.1344  0.2128
  156SOL     MW  624   1.563   2.994   1.075  0.1767 -0.3242 -0.3949
  157SOL     OW  625   1.409   1.170   0.101 -0.7519 -0.8451 -0.0248
  157SOL    HW1  626   1.460   1.114   0.149  0.3585 -1.0582 -0.1672
  157SOL    HW2  627   1.463   1.255   0.093  1.7654 -0.1531  3.0931
  157SOL     MW  628   1.423   1.174   0.106 -0.2733 -0.7819  0.3677
  158SOL     OW  629   0.396   1.623   2.265 -0.4382  0.1226  0.4274
  158SOL    HW1  630   0.424   1.680   2.193 -1.6514 -0.9486 -0.7087
  158SOL    HW2  631   0.339   1.675   2.319  1.1458 -1.2021  0.2876
  158SOL     MW  632   0.392   1.638   2.263 -0.3892 -0.1935  0.2591
  159SOL     OW  633   1.273   1.711   0.476 -0.7745  0.1118  0.1254
  159SOL    HW1  634   1.232   1.648   0.418 -1.0409 -1.1900  2.0663
  159SOL    HW2  635   1.199   1.747   0.528 -0.3433 -1.7410 -1.8493
  159SOL     MW  636   1.258   1.708   0.475 -0.7527 -0.3045  0.1209
  160SOL     OW  637   0.505   1.161   1.570 -0.0121  1.0205 -0.2282
  160SOL    HW1  638   0.494   1.063   1.575 -1.3170  0.4899 -0.7298
  160SOL    HW2  639   0.596   1.173   1.597  1.0530  0.7805 -0.9325
  160SOL     MW  640   0.516   1.150   1.574 -0.0437  0.9188 -0.3873
  161SOL     OW  641   0.474   2.236   2.529 -0.0276 -0.2314 -0.2689
  161SOL    HW1  642   0.383   2.280   2.540 -1.6978 -0.2781 -1.1786
  161SOL    HW2  643   0.473   2.174   2.455  0.6362 -2.4304 -1.5839
  161SOL     MW  644   0.462   2.234   2.521 -0.1604 -0.5277 -0.5624
  162SOL     OW  645   1.083   1.784   1.856 -0.4107 -0.6555 -0.4054
  162SOL    HW1  646   1.093   1.874   1.889  0.0728  2.8915 -1.6247
  162SOL    HW2  647   1.012   1.735   1.896 -1.5832 -0.0629  1.2774
  162SOL     MW  648   1.075   1.789   1.866 -0.5016 -0.1094 -0.3443
  163SOL     OW  649   2.080   3.032   0.889 -0.8961  0.9202  0.4203
  163SOL    HW1  650   2.053   3.099   0.829  1.1154 -2.4789  1.1215
  163SOL    HW2  651   2.065   2.948   0.843 -1.5573 -1.3309 -0.9651
  163SOL     MW  652   2.074   3.030   0.875 -0.7179  0.1747  0.3300
  164SOL     OW  653   0.304   0.216   0.810 -0.1136 -0.2464  0.0610
  164SOL    HW1  654   0.210   0.196   0.843 -0.2009 -1.4274 -1.0553
  164SOL    HW2  655   0.318   0.151   0.743 -0.3178 -0.2630  3.0362
  164SOL     MW  656   0.293   0.205   0.805 -0.1521 -0.4044  0.3063
  165SOL     OW  657   1.294   1.300   0.340 -0.6890  0.0495 -0.3906
  165SOL    HW1  658   1.286   1.239   0.422 -2.0937  1.5651  2.2137
  165SOL    HW2  659   1.342   1.248   0.273  0.6625 -0.3518  1.1035
  165SOL     MW  660   1.299   1.285   0.342 -0.6960  0.1965  0.1502
  166SOL     OW  661   0.538   1.201   0.998 -0.0486 -0.6769  0.7105
  166SOL    HW1  662   0.556   1.190   1.088 -1.0567  2.3074 -0.9105
  166SOL    HW2  663   0.620   1.167   0.958  1.6904 -0.1810 -1.6918
  166SOL     MW  664   0.551   1.195   1.004  0.0478 -0.2178  0.1797
  167SOL     OW  665   0.815   1.100   0.254  0.0063  0.2183 -0.2904
  167SOL    HW1  666   0.811   1.200   0.240  0.4745 -1.4278  1.1010
  167SOL    HW2  667   0.908   1.096   0.218  0.8369 -0.2637 -1.6750
  167SOL     MW  668   0.827   1.113   0.248  0.1777 -0.0625 -0.2895
  168SOL     OW  669   1.727   1.650   3.026  0.0149 -0.0246 -0.0248
  168SOL    HW1  670   1.655   1.708   3.020  4.3065 -3.2648  0.1017
  168SOL    HW2  671   1.686   1.575   2.982 -3.1019  0.3413  0.0409
  168SOL     MW  672   1.712   1.648   3.020  0.1699 -0.4039  0.0005
  169SOL     OW  673   0.364   0.995   1.338 -0.4438 -0.1290 -0.3955
  169SOL    HW1  674   0.394   0.956   1.422 -0.7299 -0.7545 -0.5631
  169SOL    HW2  675   0.404   1.082   1.338  1.9280 -2.2057  0.0596
  169SOL     MW  676   0.373   1.002   1.349 -0.1686 -0.4856 -0.3576
  170SOL     OW  677   1.099   1.548   1.502  0.2085  0.1177  0.2570
  170SOL    HW1  678   1.017   1.593   1.520 -1.4450  0.7233 -3.1158
  170SOL    HW2  679   1.125   1.566   1.410  1.1999  2.0434 -1.7770
  170SOL     MW  680   1.092   1.556   1.492  0.1211  0.4517 -0.4563
  171SOL     OW  681   0.563   1.387   0.594  0.0026  0.5308 -0.9314
  171SOL    HW1  682   0.538   1.360   0.682 -1.6044  0.4767  0.1318
  171SOL    HW2  683   0.536   1.306   0.550 -1.1206  1.5581  0.9954
  171SOL     MW  684   0.556   1.373   0.600 -0.3576  0.6592 -0.5369
  172SOL     OW  685   0.871   0.306   1.268 -0.4983 -0.0821 -0.5241
  172SOL    HW1  686   0.822   0.344   1.198 -1.0748  1.9028  3.0288
  172SOL    HW2  687   0.796   0.290   1.334  1.0736 -2.3217  1.4956
  172SOL     MW  688   0.854   0.309   1.267 -0.3670 -0.1157  0.2112
  173SOL     OW  689   0.473   1.767   0.260  0.4436  0.4919 -0.7764
  173SOL    HW1  690   0.451   1.680   0.219  1.6109  0.2917 -3.3751
  173SOL    HW2  691   0.510   1.732   0.347  1.0395  1.2494  0.8590
  173SOL     MW  692   0.475   1.751   0.266  0.6762  0.5654 -0.9035
  174SOL     OW  693   1.841   0.904   1.490  0.2145 -0.3922 -0.0966
  174SOL    HW1  694   1.805   0.816   1.504  0.2087 -0.5966  1.0344
  174SOL    HW2  695   1.852   0.918   1.397 -0.3106 -0.8001 -1.5289
  174SOL     MW  696   1.837   0.894   1.480  0.1444 -0.4730 -0.1364
  175SOL     OW  697   0.474   1.507   0.217 -0.0941 -0.2574  0.9972
  175SOL    HW1  698   0.399   1.470   0.166  2.0903  1.0078 -0.0218
  175SOL    HW2  699   0.512   1.421   0.251 -1.2828  0.8336 -0.5051
  175SOL     MW  700   0.469   1.491   0.215  0.0373  0.0535  0.6645
  176SOL     OW  701   0.192   1.470   1.201  0.3612  0.3109  0.2602
  176SOL    HW1  702   0.160   1.416   1.131 -3.9749 -2.4796 -2.7734
  176SOL    HW2  703   0.111   1.476   1.251  0.1162 -1.3766  0.5425
  176SOL     MW  704   0.177   1.464   1.198 -0.2432 -0.2800 -0.1028
  177SOL     OW  705   0.577   0.346   1.322 -0.1396  0.1955  0.5754
  177SOL    HW1  706   0.548   0.422   1.266  0.6723 -1.8574  2.9276
  177SOL    HW2  707   0.580   0.386   1.411 -1.4451  0.4090  1.4626
  177SOL     MW  708   0.573   0.361   1.327 -0.2047 -0.0472  1.0028
  178SOL     OW  709   3.060   0.536   2.974  0.2075 -0.4284  0.4014
  178SOL    HW1  710   3.009   0.530   3.056  1.8002 -0.8122 -2.0069
  178SOL    HW2  711   2.991   0.514   2.907 -2.9579 -2.4933  1.4411
  178SOL     MW  712   3.044   0.532   2.976  0.0000 -0.7515  0.2208
  179SOL     OW  713   1.581   1.413   1.335 -0.2638  0.4114  0.6833
  179SOL    HW1  714   1.594   1.442   1.422 -0.9242 -2.1978 -2.5108
  179SOL    HW2  715   1.668   1.405   1.297 -2.4154  2.0897 -2.7302
  179SOL     MW  716   1.594   1.416   1.341 -0.6348  0.2885 -0.1885
  180SOL     OW  717   2.981   0.219   0.453  0.1652 -0.1503  0.3024
  180SOL    HW1  718   2.955   0.256   0.363 -1.5109  1.1724  1.5584
  180SOL    HW2  719   3.074   0.250   0.473 -0.0541 -1.5740  1.0890
  180SOL     MW  720   2.990   0.228   0.444 -0.0849 -0.1636  0.5719
  181SOL     OW  721   1.120   1.341   3.059 -0.2140  0.0450  0.1401
  181SOL    HW1  722   1.183   1.406   3.088  1.1098  0.5256 -1.2081
  181SOL    HW2  723   1.171   1.296   2.996 -0.5250  1.9648  0.1170
  181SOL     MW  724   1.135   1.344   3.055 -0.0804  0.3617 -0.0409
  182SOL     OW  725   0.447   0.897   1.576 -0.6020  0.5159 -0.1918
  182SOL    HW1  726   0.363   0.903   1.625 -0.0588  1.2458 -1.4371
  182SOL    HW2  727   0.522   0.857   1.626 -2.6091  1.9409  2.9881
  182SOL     MW  728   0.446   0.893   1.589 -0.7951  0.8002  0.0634
  183SOL     OW  729   1.596   1.724   1.222 -0.0834  0.6701  0.3910
  183SOL    HW1  730   1.686   1.698   1.235 -0.3411 -2.7227 -0.1608
  183SOL    HW2  731   1.550   1.650   1.256  1.4192  0.9944 -0.4709
  183SOL     MW  732   1.602   1.711   1.228  0.0809  0.2652  0.2045
  184SOL     OW  733   0.815   0.729   1.938 -0.0569  0.0727 -0.5215
  184SOL    HW1  734   0.884   0.712   1.868 -1.4863 -0.5248 -0.7932
  184SOL    HW2  735   0.810   0.645   1.982 -0.1231  1.0553 -2.3509
  184SOL     MW  736   0.824   0.716   1.935 -0.2542  0.1235 -0.7987
  185SOL     OW  737   1.123   0.981   1.923 -0.2591 -0.2580 -0.1396
  185SOL    HW1  738   1.103   0.903   1.977 -1.2866 -0.8362  1.1420
  185SOL    HW2  739   1.149   1.042   1.987  1.6685 -1.7400 -0.1378
  185SOL     MW  740   1.124   0.979   1.939 -0.1403 -0.5298  0.0297
  186SOL     OW  741   0.357   1.659   1.447  0.3679  0.4785  0.2755
  186SOL    HW1  742   0.388   1.608   1.373  2.7738  0.9684  0.2886
  186SOL    HW2  743   0.271   1.620   1.484  0.7709  1.7075  0.4143
  186SOL     MW  744   0.350   1.647   1.442  0.7385  0.7053  0.2956
  187SOL     OW  745   1.504   0.739   1.349  0.1682 -0.2799  0.0264
  187SOL    HW1  746   1.564   0.718   1.420  0.3982 -2.8628 -1.3708
  187SOL    HW2  747   1.419   0.733   1.395 -1.3179  1.7704 -0.5175
  187SOL     MW  748   1.501   0.735   1.364  0.0025 -0.3502 -0.2297
  188SOL     OW  749   1.896   1.168   0.846  0.1474 -0.0352 -0.5934
  188SOL    HW1  750   1.893   1.163   0.940  1.2167  0.6465  1.0228
  188SOL    HW2  751   1.912   1.079   0.816  2.2531 -1.4559  0.4196
  188SOL     MW  752   1.898   1.155   0.855  0.5663 -0.1327 -0.2465
  189SOL     OW  753   0.692   0.809   0.853  0.1662 -0.0091 -0.5598
  189SOL    HW1  754   0.605   0.863   0.836 -1.5946 -0.3874 -1.9297
  189SOL    HW2  755   0.738   0.874   0.908  5.0061 -3.2156  2.4990
  189SOL     MW  756   0.687   0.825   0.858  0.5725 -0.4821 -0.3369
  190SOL     OW  757   1.879   0.234   2.182 -0.4372  0.0760  0.3108
  190SOL    HW1  758   1.877   0.253   2.274  0.2924  2.1588  0.5924
  190SOL    HW2  759   1.944   0.291   2.143 -3.5362 -0.5106  1.2522
  190SOL     MW  760   1.887   0.244   2.189 -0.7498  0.2734  0.4722
  191SOL     OW  761   1.560   0.947   1.188 -0.3550 -0.4526 -0.0925
  191SOL    HW1  762   1.521   0.997   1.258  0.3940 -2.4826 -0.6964
  191SOL    HW2  763   1.570   0.863   1.228 -0.5893  1.8065 -0.3502
  191SOL     MW  764   1.556   0.943   1.202 -0.2871 -0.4224 -0.2062
  192SOL     OW  765   0.573   2.119   2.768 -0.0734 -0.0242  0.3295
  192SOL    HW1  766   0.545   2.171   2.691 -0.0237  0.6376 -0.1088
  192SOL    HW2  767   0.515   2.043   2.771 -2.1726 -1.4970 -0.3129
  192SOL     MW  768   0.561   2.116   2.758 -0.3438 -0.1312  0.1869
  193SOL     OW  769   0.917   1.579   0.757 -0.7273  0.6020  0.4149
  193SOL    HW1  770   0.857   1.585   0.830  1.2018  1.6700 -1.4422
  193SOL    HW2  771   0.886   1.518   0.681 -0.3637 -0.9939 -1.2636
  193SOL     MW  772   0.905   1.572   0.756 -0.4248  0.5323 -0.0516
  194SOL     OW  773   0.496   1.445   0.901 -0.2019  0.3003 -0.2589
  194SOL    HW1  774   0.511   1.362   0.948 -2.4954 -0.1341  2.4645
  194SOL    HW2  775   0.405   1.448   0.867  0.7371 -3.8220 -1.0353
  194SOL     MW  776   0.486   1.434   0.903 -0.3806 -0.3009 -0.0020
  195SOL     OW  777   1.296   1.156   2.951 -0.1799 -0.3058 -0.4494
  195SOL    HW1  778   1.360   1.158   3.025  1.3912 -1.1063 -0.1711
  195SOL    HW2  779   1.230   1.090   2.968  1.8268  2.3037 -0.1592
  195SOL     MW  780   1.296   1.148   2.963  0.2921 -0.0671 -0.3744
  196SOL     OW  781   2.209   0.992   0.534 -0.2872  0.3256 -0.4161
  196SOL    HW1  782   2.152   0.972   0.462  2.3147  2.1165  1.8666
  196SOL    HW2  783   2.210   1.087   0.535  1.0008 -0.8292 -2.1444
  196SOL     MW  784   2.202   1.002   0.525  0.2260  0.4095 -0.3429
  197SOL     OW  785   0.657   1.358   2.154 -0.8609 -0.4362  0.2189
  197SOL    HW1  786   0.689   1.260   2.137  0.8398 -1.5310  1.5498
  197SOL    HW2  787   0.650   1.387   2.063 -0.7727  1.5366  0.0727
  197SOL     MW  788   0.660   1.349   2.140 -0.6249 -0.3203  0.3752
  198SOL     OW  789   2.922   1.399   1.034  0.1420 -0.0091 -0.6498
  198SOL    HW1  790   2.895   1.464   0.971  1.5606 -0.4618 -3.7028
  198SOL    HW2  791   2.845   1.345   1.044  1.4557 -0.4329 -2.2675
  198SOL     MW  792   2.909   1.400   1.027  0.5025 -0.1248 -1.2660
  199SOL     OW  793   0.607   1.392   1.866  1.1817 -0.7338  0.4022
  199SOL    HW1  794   0.528   1.339   1.888 -0.5692  0.4880 -1.1189
  199SOL    HW2  795   0.564   1.454   1.804 -0.9474  0.6024 -0.1482
  199SOL     MW  796   0.591   1.393   1.861  0.6698 -0.3963  0.1289
  200SOL     OW  797   1.861   2.917   1.378  0.4541  0.1193 -0.0727
  200SOL    HW1  798   1.920   2.930   1.298 -0.4841  3.7654  0.0450
  200SOL    HW2  799   1.795   2.991   1.376 -1.9380  1.6153 -0.4960
  200SOL     MW  800   1.860   2.929   1.367  0.0147  0.7978 -0.1131
  201SOL     OW  801   0.978   0.371   0.785 -0.2374 -0.5843 -0.8988
  201SOL    HW1  802   0.962   0.280   0.760 -0.4431  1.9572  0.2256
  201SOL    HW2  803   1.069   0.370   0.812  2.6598 -0.6634 -0.4482
  201SOL     MW  804   0.988   0.359   0.785  0.1177 -0.2594 -0.6910
  202SOL     OW  805   1.495   1.618   0.909 -0.3788  1.2138  0.4095
  202SOL    HW1  806   1.473   1.528   0.894 -0.4452  1.4212  1.0404
  202SOL    HW2  807   1.555   1.629   0.983 -0.6954  1.1257  0.4311
  202SOL     MW  808   1.500   1.608   0.917 -0.4294  1.2296  0.4956
  203SOL     OW  809   3.025   0.460   1.433  0.1848 -0.4218  0.6871
  203SOL    HW1  810   3.073   0.378   1.412  0.2932  1.6967 -0.3873
  203SOL    HW2  811   3.077   0.537   1.427  0.5249 -0.4508 -0.0369
  203SOL     MW  812   3.038   0.459   1.430  0.2440 -0.1461  0.4498
  204SOL     OW  813   1.029   1.787   0.601  0.1819  0.3421  0.1705
  204SOL    HW1  814   0.991   1.732   0.673 -1.3253  2.1544  2.7848
  204SOL    HW2  815   0.955   1.791   0.536 -1.0943  1.9086  1.1573
  204SOL     MW  816   1.014   1.780   0.602 -0.1854  0.7879  0.6456
  205SOL     OW  817   1.412   3.091   1.296  0.0677  0.1413  0.1370
  205SOL    HW1  818   1.435   3.078   1.203 -1.1894  1.4092 -2.1329
  205SOL    HW2  819   1.385   3.184   1.301 -2.3547 -0.3422  1.1822
  205SOL     MW  820   1.411   3.102   1.284 -0.4178  0.2448 -0.0246
  206SOL     OW  821   0.497   3.097   1.421  0.3009  0.2936 -0.1947
  206SOL    HW1  822   0.444   3.101   1.341  0.4018  0.9584  1.3461
  206SOL    HW2  823   0.540   3.014   1.409  0.4514 -0.2793  1.7042
  206SOL     MW  824   0.496   3.087   1.409  0.3341  0.3058  0.2591
  207SOL     OW  825   0.915   1.615   0.230 -0.4572  0.0854  0.1405
  207SOL    HW1  826   0.919   1.689   0.172 -0.7112  1.8504 -1.4503
  207SOL    HW2  827   1.006   1.599   0.263 -0.0264 -1.0885 -0.0702
  207SOL     MW  828   0.928   1.623   0.227 -0.4339  0.1634 -0.0972
  208SOL     OW  829   0.721   1.681   1.340 -0.6530  0.6514  0.6896
  208SOL    HW1  830   0.790   1.705   1.407 -0.9128 -0.3744  1.8787
  208SOL    HW2  831   0.761   1.623   1.277  0.1166  3.5239  3.8510
  208SOL     MW  832   0.736   1.676   1.341 -0.5858  0.8951  1.2636
  209SOL     OW  833   1.556   0.515   2.842 -0.1353  1.2075 -0.8816
  209SOL    HW1  834   1.619   0.576   2.887  1.6490 -2.0648 -0.5213
  209SOL    HW2  835   1.603   0.432   2.811 -0.8335  0.3647 -1.7142
  209SOL     MW  836   1.570   0.512   2.843  0.0080  0.6646 -0.9439
  210SOL     OW  837   1.464   1.357   0.844  0.1589  0.7300  1.0803
  210SOL    HW1  838   1.553   1.383   0.808 -1.5343 -0.2138  0.5431
  210SOL    HW2  839   1.406   1.364   0.766  0.3637 -0.8760 -1.5505
  210SOL     MW  840   1.468   1.361   0.829 -0.0375  0.3936  0.6623
  211SOL     OW  841   1.722   0.267   1.006  0.0585  0.5458  0.3903
  211SOL    HW1  842   1.709   0.284   0.912 -1.7438 -0.6064 -0.9355
  211SOL    HW2  843   1.817   0.286   1.015  1.1108 -1.3317  0.9731
  211SOL     MW  844   1.733   0.272   0.995 -0.0405  0.1461  0.2923
  212SOL     OW  845   0.279   1.056   0.183  0.8524  0.1663 -0.4044
  212SOL    HW1  846   0.199   1.030   0.222  3.9074 -1.5675  1.2697
  212SOL    HW2  847   0.319   0.977   0.147 -0.6583 -0.9523 -0.8021
  212SOL     MW  848   0.274   1.042   0.183  1.0562 -0.2100 -0.2360
  213SOL     OW  849   0.500   1.741   2.994 -0.1494 -0.3687 -0.2877
  213SOL    HW1  850   0.516   1.812   3.060 -0.0616  0.6474  1.0757
  213SOL    HW2  851   0.535   1.784   2.916 -2.3204  0.6975  1.7848
  213SOL     MW  852   0.507   1.756   2.992 -0.4242 -0.0940  0.1656
  214SOL     OW  853   0.645   0.368   2.172 -0.5921 -0.2463 -0.4830
  214SOL    HW1  854   0.583   0.444   2.166 -0.7494 -1.4023  1.6557
  214SOL    HW2  855   0.675   0.372   2.085  3.9380 -0.2253  0.8967
  214SOL     MW  856   0.641   0.379   2.160 -0.0151 -0.3961 -0.0188
  215SOL     OW  857   0.496   0.686   2.637 -0.5078 -0.7610 -0.4098
  215SOL    HW1  858   0.481   0.696   2.545  2.0578  1.6883  1.0586
  215SOL    HW2  859   0.414   0.667   2.680  1.7712  0.7121  2.7245
  215SOL     MW  860   0.483   0.685   2.630  0.1314 -0.2435  0.1975
  216SOL     OW  861   2.991   3.003   2.746  0.1398  0.6613  0.1119
  216SOL    HW1  862   2.923   3.011   2.807  1.5241  1.4970 -0.4919
  216SOL    HW2  863   3.002   3.091   2.717 -1.0381 -1.8508 -0.4378
  216SOL     MW  864   2.983   3.016   2.750  0.1671  0.4401 -0.0403
  217SOL     OW  865   1.054   1.119   0.123 -0.8027  0.3929 -0.6127
  217SOL    HW1  866   1.077   1.055   0.057 -0.8664  0.4206  1.0953
  217SOL    HW2  867   1.079   1.199   0.075  4.0594  0.7923 -2.1058
  217SOL     MW  868   1.060   1.121   0.108 -0.1696  0.4493 -0.5844
  218SOL     OW  869   0.903   1.341   2.643 -0.3075 -0.2915  0.5432
  218SOL    HW1  870   0.893   1.267   2.709 -0.5968  0.8716  2.2504
  218SOL    HW2  871   0.986   1.389   2.657 -1.7127  0.7844  1.9098
  218SOL     MW  872   0.913   1.337   2.654 -0.5311  0.0039  0.9487
  219SOL     OW  873   1.129   0.347   2.600 -0.2545 -0.2326  0.2991
  219SOL    HW1  874   1.207   0.409   2.627  2.0581  1.4628 -1.3675
  219SOL    HW2  875   1.064   0.405   2.570  1.6410 -1.4266 -0.5127
  219SOL     MW  876   1.131   0.363   2.599  0.3007 -0.1664 -0.0279
  220SOL     OW  877   1.688   0.459   2.214 -0.6661  0.3758 -0.0314
  220SOL    HW1  878   1.615   0.471   2.155 -0.5116 -0.3755  2.1125
  220SOL    HW2  879   1.729   0.377   2.189 -0.7608  0.4023 -0.5736
  220SOL     MW  880   1.683   0.450   2.203 -0.6582  0.2801  0.1799
  221SOL     OW  881   0.345   1.320   2.915 -0.0867  0.2295 -0.1105
  221SOL    HW1  882   0.404   1.260   2.875  1.2113  1.5528  0.6096
  221SOL    HW2  883   0.365   1.402   2.866 -1.6592  3.4742  0.6376
  221SOL     MW  884   0.355   1.323   2.903 -0.1229  0.8322  0.0832
  222SOL     OW  885   0.462   0.958   2.635  0.1733  0.0029 -0.3047
  222SOL    HW1  886   0.398   0.989   2.568  0.5346 -4.5227 -3.2251
  222SOL    HW2  887   0.482   0.865   2.629 -0.6796  2.1180  0.8420
  222SOL     MW  888   0.456   0.950   2.625  0.1084 -0.3152 -0.5387
  223SOL     OW  889   0.094   2.016   2.525 -0.3010 -0.4632 -0.1262
  223SOL    HW1  890   0.100   1.977   2.612 -0.8435 -0.0437 -1.3432
  223SOL    HW2  891   0.108   2.113   2.540 -1.0439 -1.4752  0.6619
  223SOL     MW  892   0.096   2.024   2.539 -0.4706 -0.5414 -0.1828
  224SOL     OW  893   1.552   0.727   2.520 -0.0432  0.2991  0.1107
  224SOL    HW1  894   1.532   0.748   2.609 -0.7793 -0.4885  0.7648
  224SOL    HW2  895   1.541   0.816   2.478 -3.6440 -0.1913 -2.0381
  224SOL     MW  896   1.548   0.742   2.526 -0.6154  0.1305 -0.0865
  225SOL     OW  897   2.923   1.477   2.298 -0.3742  0.0238 -0.2327
  225SOL    HW1  898   2.956   1.560   2.269 -1.8977  0.3736  0.9548
  225SOL    HW2  899   2.839   1.487   2.350 -3.0269 -0.3493 -1.1088
  225SOL     MW  900   2.916   1.489   2.301 -0.9252  0.0208 -0.1916
  226SOL     OW  901   0.416   1.522   2.755 -0.2541 -0.7090 -0.4010
  226SOL    HW1  902   0.509   1.528   2.717  1.1955  3.2949  2.0919
  226SOL    HW2  903   0.387   1.615   2.745  1.5183 -1.3417  0.4594
  226SOL     MW  904   0.425   1.535   2.749  0.1710 -0.2642  0.0414
  227SOL     OW  905   0.540   1.134   2.838  0.3398 -0.4213 -0.3468
  227SOL    HW1  906   0.617   1.182   2.807 -1.8331  2.7409 -0.8068
  227SOL    HW2  907   0.521   1.063   2.783 -0.0451  0.3191  1.2953
  227SOL     MW  908   0.548   1.131   2.827  0.0023  0.0936 -0.1908
  228SOL     OW  909   0.739   1.128   2.058  0.1859  0.3325  0.5288
  228SOL    HW1  910   0.778   1.162   1.978 -0.9993  0.3255  1.1315
  228SOL    HW2  911   0.817   1.122   2.116  2.6236 -2.1029 -0.4052
  228SOL     MW  912   0.754   1.132   2.055  0.3511  0.0102  0.4851
  229SOL     OW  913   0.139   0.665   0.060  0.2125 -0.1000 -0.2899
  229SOL    HW1  914   0.091   0.635  -0.017  0.5853 -0.7364 -1.0208
  229SOL    HW2  915   0.146   0.590   0.118 -0.4690  2.1426 -0.5669
  229SOL     MW  916   0.134   0.651   0.058  0.1718  0.1119 -0.4229
  230SOL     OW  917   1.761   1.331   2.019  1.1641  0.2841 -0.3330
  230SOL    HW1  918   1.703   1.315   2.090  1.9902 -0.5912 -0.8752
  230SOL    HW2  919   1.810   1.252   1.998  0.0445 -1.1529 -1.7825
  230SOL     MW  920   1.760   1.319   2.026  1.1254 -0.0210 -0.5958
  231SOL     OW  921   2.759   1.260   2.176 -0.3355 -0.1799  0.1614
  231SOL    HW1  922   2.825   1.323   2.187 -1.1163 -0.3314 -1.9222
  231SOL    HW2  923   2.706   1.306   2.109  1.2978  3.6368  3.0436
  231SOL     MW  924   2.761   1.275   2.168 -0.2230  0.3037  0.2667
  232SOL     OW  925   2.247   0.856   2.033  0.1450 -0.4747 -0.3259
  232SOL    HW1  926   2.169   0.854   1.980 -0.2373  0.5322  0.3274
  232SOL    HW2  927   2.221   0.880   2.127  0.6320  2.1301  2.6099
  232SOL     MW  928   2.233   0.859   2.038  0.1588  0.0018  0.1477
  233SOL     OW  929   2.059   0.411   2.057 -0.2008 -0.1027  0.0199
  233SOL    HW1  930   2.081   0.331   2.005  2.7215 -4.2651  1.1061
  233SOL    HW2  931   2.149   0.445   2.046  2.3500 -1.3433  0.6482
  233SOL     MW  932   2.074   0.405   2.049  0.5213 -0.8156  0.2461
  234SOL     OW  933   0.193   1.037   2.527 -0.1840  0.5058  0.4651
  234SOL    HW1  934   0.106   1.052   2.484  0.4386 -1.2218  0.1992
  234SOL    HW2  935   0.218   1.125   2.559 -0.6309  0.5795  1.6473
  234SOL     MW  936   0.185   1.051   2.525 -0.1608  0.2876  0.5860
  235SOL     OW  937   1.133   3.043   2.796 -0.4392 -0.2749  0.3731
  235SOL    HW1  938   1.130   2.998   2.879  3.0812  0.3864  0.4324
  235SOL    HW2  939   1.124   3.140   2.816 -0.7846 -0.6604 -2.3104
  235SOL     MW  940   1.131   3.050   2.810 -0.0203 -0.2385  0.0269
  236SOL     OW  941   2.919   0.583   0.086  0.3988  0.0773 -0.0132
  236SOL    HW1  942   2.835   0.633   0.066  0.9262  2.0657 -2.0130
  236SOL    HW2  943   2.970   0.656   0.112 -0.3111  1.3384 -0.6902
  236SOL     MW  944   2.914   0.599   0.087  0.3747  0.5060 -0.3664
  237SOL     OW  945   2.007   1.134   2.232 -0.4937 -0.0813 -0.1613
  237SOL    HW1  946   1.950   1.161   2.164 -1.6294 -1.1181  0.3091
  237SOL    HW2  947   2.030   1.044   2.207 -0.4789  2.5148  0.3557
  237SOL     MW  948   2.002   1.126   2.220 -0.6416  0.1244 -0.0310
  238SOL     OW  949   1.085   1.771   2.951 -0.5754 -0.0950 -0.2762
  238SOL    HW1  950   1.049   1.690   2.985  0.1537 -1.1703 -2.1107
  238SOL    HW2  951   1.177   1.748   2.942 -1.7378 -0.8035 -0.8967
  238SOL     MW  952   1.092   1.757   2.955 -0.6326 -0.3304 -0.6001
  239SOL     OW  953   1.252   1.438   2.372 -0.4738 -0.6931  0.0745
  239SOL    HW1  954   1.207   1.473   2.452  0.5905  2.5195  1.6478
  239SOL    HW2  955   1.237   1.345   2.387 -1.3443 -2.6792  0.9491
  239SOL     MW  956   1.244   1.430   2.385 -0.4483 -0.5313  0.3975
  240SOL     OW  957   0.623   0.916   2.308 -0.0465 -0.1393 -0.2288
  240SOL    HW1  958   0.661   0.954   2.386  3.6020  0.4783  1.8060
  240SOL    HW2  959   0.704   0.905   2.258 -0.1229  2.6290  0.3952
  240SOL     MW  960   0.639   0.920   2.312  0.4248  0.3075  0.1220
  241SOL     OW  961   0.686   0.413   0.019  0.0121 -0.2449 -0.2220
  241SOL    HW1  962   0.696   0.508   0.052 -3.1293  1.8829  1.6816
  241SOL    HW2  963   0.595   0.400   0.011  0.1571  0.7103 -0.5498
  241SOL     MW  964   0.675   0.423   0.023 -0.3833  0.1619 -0.0141
  242SOL     OW  965   1.490   1.722   2.299  0.0491 -0.3174 -0.2585
  242SOL    HW1  966   1.422   1.780   2.334 -0.2254 -2.5297  3.1804
  242SOL    HW2  967   1.437   1.657   2.246 -3.9800  1.0953 -1.2663
  242SOL     MW  968   1.474   1.721   2.297 -0.5187 -0.4229  0.0622
  243SOL     OW  969   0.982   0.174   2.438 -0.1149  0.0876 -0.4631
  243SOL    HW1  970   1.044   0.119   2.390 -2.6031 -1.6965 -1.3709
  243SOL    HW2  971   1.046   0.235   2.486 -1.5193  1.2404 -1.2403
  243SOL     MW  972   0.999   0.175   2.438 -0.6285  0.0043 -0.6854
  244SOL     OW  973   0.164   0.820   2.339 -0.4505 -0.0997 -0.1606
  244SOL    HW1  974   0.162   0.893   2.406 -1.0163 -1.4381  1.4874
  244SOL    HW2  975   0.257   0.798   2.340  0.2922  1.3138 -0.8363
  244SOL     MW  976   0.176   0.827   2.348 -0.4272 -0.0898 -0.0323
  245SOL     OW  977   1.233   0.186   2.305 -0.4062  0.2731  0.3677
  245SOL    HW1  978   1.287   0.113   2.299  0.3165  2.3912 -2.6511
  245SOL    HW2  979   1.286   0.243   2.359  0.9021 -0.0427  2.7894
  245SOL     MW  980   1.247   0.184   2.311 -0.1382  0.5109  0.2889
  246SOL     OW  981   1.210   1.155   2.111 -0.6316 -0.1223  0.0590
  246SOL    HW1  982   1.130   1.127   2.163 -0.7436  2.3831 -0.4976
  246SOL    HW2  983   1.289   1.114   2.144  1.1256  0.0059  2.7375
  246SOL     MW  984   1.210   1.146   2.122 -0.4145  0.2252  0.3389
  247SOL     OW  985   0.765   0.599   0.208 -0.0543  0.4226  0.0387
  247SOL    HW1  986   0.744   0.688   0.190 -0.5986  0.0040 -0.7014
  247SOL    HW2  987   0.861   0.595   0.183  1.8828  2.0154  0.5548
  247SOL     MW  988   0.775   0.610   0.202  0.1294  0.5776  0.0091
  248SOL     OW  989   0.323   1.289   2.573 -0.0843  0.2812  0.1492
  248SOL    HW1  990   0.365   1.301   2.483 -1.2800 -2.7973  0.0735
  248SOL    HW2  991   0.340   1.374   2.619  0.7198 -1.0423 -0.7078
  248SOL     MW  992   0.331   1.302   2.567 -0.1360 -0.2996  0.0262
  249SOL     OW  993   0.075   1.853   2.746 -0.7622  0.6365  0.4793
  249SOL    HW1  994   0.057   1.785   2.685  1.1039 -0.4765  2.2112
  249SOL    HW2  995   0.122   1.810   2.817 -2.1055 -1.2502  0.7633
  249SOL     MW  996   0.079   1.839   2.747 -0.6932  0.2407  0.7452
  250SOL     OW  997   2.142   0.912   2.258 -0.4971 -0.6763 -0.3989
  250SOL    HW1  998   2.120   0.816   2.271  1.1902 -0.8524  3.5714
  250SOL    HW2  999   2.222   0.945   2.303 -0.0305 -1.2600  1.1819
  250SOL     MW 1000   2.149   0.903   2.266 -0.2129 -0.7765  0.3335
  251SOL     OW 1001   0.154   0.900   1.953  0.1033 -0.4341 -0.1735
  251SOL    HW1 1002   0.149   0.806   1.973  2.3758 -3.5822  0.0357
  251SOL    HW2 1003   0.155   0.895   1.859  0.9434  1.4583  3.0480
  251SOL     MW 1004   0.154   0.887   1.943  0.5140 -0.5998  0.2792
  252SOL     OW 1005   1.714   0.974   2.944 -0.5737 -0.0980 -0.3931
  252SOL    HW1 1006   1.728   1.025   3.022 -1.2558 -1.4348 -1.2002
  252SOL    HW2 1007   1.798   0.984   2.897  1.1069  0.1974 -1.0710
  252SOL     MW 1008   1.727   0.982   2.948 -0.4420 -0.2354 -0.5890
  253SOL     OW 1009   1.127   1.731   2.502 -0.1127 -0.0418 -0.6643
  253SOL    HW1 1010   1.110   1.710   2.402  1.2967  3.1708 -1.1696
  253SOL    HW2 1011   1.045   1.787   2.522 -0.6612 -0.6218 -0.8140
  253SOL     MW 1012   1.114   1.736   2.491  0.0009  0.3056 -0.7507
  254SOL     OW 1013   0.983   1.099   2.235 -0.8410  0.6177  0.5057
  254SOL    HW1 1014   0.996   1.012   2.277 -4.1464 -1.3051 -1.9261
  254SOL    HW2 1015   0.928   1.148   2.297  1.6159  1.1212 -1.9439
  254SOL     MW 1016   0.978   1.094   2.249 -0.9530  0.4304 -0.1384
  255SOL     OW 1017   0.836   2.512   2.144 -0.0150  0.1076 -0.1110
  255SOL    HW1 1018   0.754   2.461   2.121  0.4406 -3.2013  0.7975
  255SOL    HW2 1019   0.902   2.443   2.143 -2.0409 -0.7487 -0.9419
  255SOL     MW 1020   0.834   2.496   2.141 -0.2222 -0.4419 -0.1008
  256SOL     OW 1021   1.275   2.731   2.964 -0.5555 -0.1758  0.2048
  256SOL    HW1 1022   1.226   2.682   2.902  1.2177  2.3068 -0.8608
  256SOL    HW2 1023   1.365   2.741   2.932  2.2717  0.7211 -0.1948
  256SOL     MW 1024   1.280   2.726   2.952  0.0515  0.2701  0.0115
  257SOL     OW 1025   0.141   1.951   0.018 -0.9765 -0.1712 -0.5685
  257SOL    HW1 1026   0.176   1.940   0.107 -0.0067 -0.8558  3.1674
  257SOL    HW2 1027   0.179   1.883  -0.033 -0.7399 -0.3189 -0.8829
  257SOL     MW 1028   0.150   1.941   0.023 -0.8173 -0.2810 -0.1171
  258SOL     OW 1029   0.810   0.998   2.519 -0.1463  0.1875 -0.2626
  258SOL    HW1 1030   0.812   1.091   2.481 -1.0649 -0.4913 -0.5299
  258SOL    HW2 1031   0.744   0.988   2.580 -1.0772  1.0554 -3.3954
  258SOL     MW 1032   0.801   1.009   2.522 -0.3903  0.2124 -0.7112
  259SOL     OW 1033   0.894   0.404   2.288 -0.4083  0.1210 -0.2186
  259SOL    HW1 1034   0.798   0.405   2.263 -0.0897  0.4573 -2.4890
  259SOL    HW2 1035   0.912   0.317   2.333 -1.6549 -1.7148 -1.9298
  259SOL     MW 1036   0.884   0.392   2.291 -0.5308 -0.0768 -0.7439
  260SOL     OW 1037   0.612   0.145   1.615  0.3718 -0.3732 -0.3140
  260SOL    HW1 1038   0.580   0.109   1.534  0.0157 -0.9601  0.8938
  260SOL    HW2 1039   0.705   0.149   1.584  2.3279  1.9438 -0.3277
  260SOL     MW 1040   0.620   0.141   1.600  0.5829 -0.1449 -0.1564
  261SOL     OW 1041   1.161   0.719   2.032 -0.7750 -0.3689 -0.0015
  261SOL    HW1 1042   1.172   0.713   2.133 -0.3288  1.3443  1.8302
  261SOL    HW2 1043   1.103   0.648   2.006  2.7927 -1.3506  0.1610
  261SOL     MW 1044   1.155   0.708   2.042 -0.2454 -0.2724  0.2616
  262SOL     OW 1045   1.066   0.322   0.176  0.2818  0.4134  0.3015
  262SOL    HW1 1046   1.162   0.323   0.172 -1.1375 -1.7937  1.0741
  262SOL    HW2 1047   1.029   0.242   0.138 -0.4807  1.7596  2.0900
  262SOL     MW 1048   1.074   0.311   0.171 -0.0061  0.2998  0.6394
  263SOL     OW 1049   0.460   0.041   2.472 -0.1040 -0.0222  0.3183
  263SOL    HW1 1050   0.378   0.090   2.479 -0.3144 -1.4861 -0.2626
  263SOL    HW2 1051   0.500   0.086   2.397  0.3779 -0.8754 -1.1287
  263SOL     MW 1052   0.454   0.053   2.463 -0.0682 -0.3279  0.0507
  264SOL     OW 1053   1.538   1.334   1.860  0.4401 -0.2619  0.7537
  264SOL    HW1 1054   1.534   1.238   1.866 -1.8909 -1.0281  0.2937
  264SOL    HW2 1055   1.614   1.358   1.908  0.9298  1.0751  0.9859
  264SOL     MW 1056   1.547   1.325   1.867  0.1971 -0.1866  0.7237
  265SOL     OW 1057   0.791   2.788   2.237 -0.6340 -0.3821 -0.0413
  265SOL    HW1 1058   0.830   2.703   2.213  0.3450 -0.0170  1.7822
  265SOL    HW2 1059   0.762   2.770   2.326  2.3511 -3.0797  1.0780
  265SOL     MW 1060   0.793   2.774   2.246 -0.1110 -0.6898  0.3470
  266SOL     OW 1061   0.855   0.807   2.207  0.4026  0.4636  0.1172
  266SOL    HW1 1062   0.858   0.803   2.108 -1.0759  1.6798 -1.2831
  266SOL    HW2 1063   0.906   0.735   2.239  2.2487  0.9638  0.6637
  266SOL     MW 1064   0.862   0.797   2.198  0.4511  0.6901  0.0045
  267SOL     OW 1065   1.345   1.783   2.653 -0.3309 -0.3883 -0.2775
  267SOL    HW1 1066   1.412   1.733   2.607 -0.2133  1.0082 -1.1358
  267SOL    HW2 1067   1.273   1.763   2.595  3.6570 -0.5141  0.9611
  267SOL     MW 1068   1.344   1.773   2.640  0.2108 -0.2206 -0.2273
  268SOL     OW 1069   0.182   0.898   1.660  0.0275  0.2504  0.5022
  268SOL    HW1 1070   0.168   0.988   1.623 -2.3899 -0.3301  1.8272
  268SOL    HW2 1071   0.146   0.848   1.582  0.3948  1.6981 -0.7359
  268SOL     MW 1072   0.175   0.903   1.645 -0.2430  0.3648  0.5137
  269SOL     OW 1073   1.342   1.991   2.317 -0.2918 -0.2488 -0.0484
  269SOL    HW1 1074   1.402   2.048   2.357 -1.7408  0.5695 -1.7975
  269SOL    HW2 1075   1.262   2.017   2.356 -3.0953  0.2706  1.2866
  269SOL     MW 1076   1.339   2.002   2.327 -0.8528 -0.0723 -0.1030
  270SOL     OW 1077   1.151   0.401   1.587 -0.0293  0.2070  0.1291
  270SOL    HW1 1078   1.142   0.308   1.608  2.3879  1.9731 -1.5603
  270SOL    HW2 1079   1.247   0.409   1.571  0.8954  0.9826 -0.9473
  270SOL     MW 1080   1.162   0.390   1.587  0.4116  0.5423 -0.2358
  271SOL     OW 1081   0.757   0.028   2.525  0.6536  0.9569 -0.6169
  271SOL    HW1 1082   0.812  -0.032   2.578 -1.9639  0.5483 -2.1195
  271SOL    HW2 1083   0.823   0.104   2.502  2.4236  1.3809 -2.3412
  271SOL     MW 1084   0.773   0.030   2.529  0.5418  0.9589 -1.0427
  272SOL     OW 1085   1.501   2.809   2.829 -0.4483  0.1730  0.3193
  272SOL    HW1 1086   1.437   2.819   2.754 -1.9625 -0.1476  1.2661
  272SOL    HW2 1087   1.538   2.892   2.852  0.7876 -0.2963  0.1077
  272SOL     MW 1088   1.498   2.821   2.822 -0.4850  0.0688  0.4163
  273SOL     OW 1089   1.480   0.911   2.796 -0.1098 -0.0842  0.3908
  273SOL    HW1 1090   1.544   0.945   2.855 -1.6351  0.0897  0.2074
  273SOL    HW2 1091   1.440   0.996   2.780 -0.9684 -0.0124 -2.0230
  273SOL     MW 1092   1.483   0.927   2.801 -0.4243 -0.0518  0.0482
  274SOL     OW 1093   1.416   0.744   0.123 -0.4179  0.2009  0.2296
  274SOL    HW1 1094   1.434   0.666   0.178  0.5569  0.9081  0.8077
  274SOL    HW2 1095   1.326   0.761   0.142  0.2391  1.7677  0.7681
  274SOL     MW 1096   1.406   0.736   0.133 -0.2026  0.5009  0.3769
  275SOL     OW 1097   1.691   0.537   1.768  0.2343 -0.3224 -0.1006
  275SOL    HW1 1098   1.771   0.560   1.820  0.1500  1.7431  0.3934
  275SOL    HW2 1099   1.684   0.443   1.784  2.4044 -1.6399  1.2178
  275SOL     MW 1100   1.701   0.528   1.777  0.5095 -0.2237  0.1385
  276SOL     OW 1101   0.371   1.287   1.957  1.1150  0.8987 -0.4097
  276SOL    HW1 1102   0.389   1.194   1.964  1.9810  0.3008  0.7937
  276SOL    HW2 1103   0.323   1.293   2.038  2.0397 -1.5477 -1.0481
  276SOL     MW 1104   0.367   1.276   1.968  1.3513  0.4970 -0.3352
  277SOL     OW 1105   1.960   1.149   2.490 -0.2319  0.2209 -0.5179
  277SOL    HW1 1106   1.975   1.240   2.520  2.3740  1.2093  0.3994
  277SOL    HW2 1107   1.976   1.153   2.393 -0.7996 -1.6088  0.0847
  277SOL     MW 1108   1.964   1.161   2.481  0.0371  0.1099 -0.3173
  278SOL     OW 1109   1.368   0.664   1.664  0.0328  0.0725 -0.1129
  278SOL    HW1 1110   1.349   0.606   1.743 -1.0990 -0.3369  2.7241
  278SOL    HW2 1111   1.454   0.698   1.677 -3.1243  2.1330 -0.6123
  278SOL     MW 1112   1.377   0.661   1.676 -0.5331  0.2903  0.1955
  279SOL     OW 1113   0.555   0.120   2.217 -0.4798  0.1696 -0.5427
  279SOL    HW1 1114   0.633   0.063   2.235 -1.6040 -0.4753  0.3806
  279SOL    HW2 1115   0.575   0.218   2.219  1.8102  1.0235  0.7053
  279SOL     MW 1116   0.568   0.126   2.219 -0.3260  0.1972 -0.2562
  280SOL     OW 1117   1.425   0.977   2.153 -0.1165  0.2487  0.3727
  280SOL    HW1 1118   1.504   0.937   2.109 -1.8394  0.2037 -1.3097
  280SOL    HW2 1119   1.433   0.982   2.249 -4.0039  0.7226 -0.4886
  280SOL     MW 1120   1.436   0.973   2.160 -0.8567  0.3053  0.0371
  281SOL     OW 1121   1.364   1.264   2.708 -0.2326 -1.0782 -0.4238
  281SOL    HW1 1122   1.456   1.303   2.714  1.4626 -1.7577  2.1948
  281SOL    HW2 1123   1.340   1.242   2.800  1.5573 -1.0289 -1.3600
  281SOL     MW 1124   1.373   1.266   2.721  0.2272 -1.1614 -0.2019
  282SOL     OW 1125   1.123   1.257   1.635  0.4211 -0.5317  0.0583
  282SOL    HW1 1126   1.107   1.349   1.635 -1.1968 -1.1412 -0.9822
  282SOL    HW2 1127   1.055   1.229   1.700  1.8011 -3.6086 -0.2735
  282SOL     MW 1128   1.112   1.266   1.643  0.3897 -1.0181 -0.1228
  283SOL     OW 1129   0.825   1.265   3.058 -0.0217  0.5537  0.7329
  283SOL    HW1 1130   0.913   1.310   3.044  3.8188 -0.5761 -1.3515
  283SOL    HW2 1131   0.763   1.339   3.074 -0.2552  2.1227 -0.2046
  283SOL     MW 1132   0.829   1.281   3.058  0.4542  0.6116  0.3342
  284SOL     OW 1133   0.429   0.748   2.371  0.2093  0.5416  0.3563
  284SOL    HW1 1134   0.499   0.813   2.339 -1.1234 -0.8461  0.0992
  284SOL    HW2 1135   0.425   0.685   2.292 -2.6193  1.3822 -0.2903
  284SOL     MW 1136   0.438   0.748   2.357 -0.3397  0.4694  0.2371
  285SOL     OW 1137   0.905   0.874   2.822 -0.4465  0.1484 -0.5089
  285SOL    HW1 1138   0.976   0.868   2.756 -0.7061  0.5756  1.1958
  285SOL    HW2 1139   0.850   0.796   2.812  0.0538  2.4661  0.3903
  285SOL     MW 1140   0.907   0.863   2.812 -0.4147  0.5106 -0.1653
  286SOL     OW 1141   1.132   1.484   2.623 -0.5774 -0.8411 -0.7604
  286SOL    HW1 1142   1.220   1.458   2.642 -0.5345  0.3637  2.2611
  286SOL    HW2 1143   1.127   1.580   2.602 -0.5252 -2.5875  0.0480
  286SOL     MW 1144   1.143   1.494   2.623 -0.5649 -0.9126 -0.2551
  287SOL     OW 1145   1.173   0.989   0.331  0.6969  0.1701  0.4079
  287SOL    HW1 1146   1.184   1.040   0.414  1.3650  0.8245  1.2253
  287SOL    HW2 1147   1.153   1.052   0.252 -0.4237 -0.8302  0.4613
  287SOL     MW 1148   1.172   1.004   0.331  0.6372  0.1244  0.5228
  288SOL     OW 1149   1.494   0.576   2.056 -0.1107  0.2748 -0.4932
  288SOL    HW1 1150   1.451   0.589   2.139  0.0551 -0.2044  0.8644
  288SOL    HW2 1151   1.539   0.650   2.012  0.2382 -0.3563  1.6704
  288SOL     MW 1152   1.494   0.587   2.061 -0.0428  0.1283 -0.0286
  289SOL     OW 1153   1.086   0.975   2.562 -0.3774  0.0463 -0.4327
  289SOL    HW1 1154   1.122   0.883   2.572  0.1446 -1.2144 -0.3184
  289SOL    HW2 1155   0.993   0.968   2.554  1.3248  1.6864  0.6874
  289SOL     MW 1156   1.078   0.962   2.563 -0.0839  0.0964 -0.2699
  290SOL     OW 1157   0.795   0.604   1.543 -0.2668 -0.0597 -0.2742
  290SOL    HW1 1158   0.849   0.556   1.479  0.6439 -1.5547  0.3088
  290SOL    HW2 1159   0.861   0.595   1.614  0.5691  0.3541  1.0787
  290SOL     MW 1160   0.811   0.597   1.544 -0.0364 -0.2024 -0.0187
  291SOL     OW 1161   0.168   0.400   0.127 -0.1772  0.3766  0.3847
  291SOL    HW1 1162   0.245   0.350   0.156  1.1136  1.9741  2.5050
  291SOL    HW2 1163   0.128   0.360   0.049 -1.7586  0.5724  2.5232
  291SOL     MW 1164   0.173   0.388   0.121 -0.2156  0.6132  0.9466
  292SOL     OW 1165   0.994   0.583   0.094  0.2857  0.5376 -0.1567
  292SOL    HW1 1166   1.053   0.607   0.165  1.4425 -2.0004  1.6077
  292SOL    HW2 1167   1.008   0.491   0.077  1.0343  2.0933  2.6554
  292SOL     MW 1168   1.003   0.574   0.101  0.5371  0.4080  0.4471
  293SOL     OW 1169   0.160   0.144   2.455 -0.8395  0.5911  0.3004
  293SOL    HW1 1170   0.121   0.074   2.402 -1.7868 -0.2531 -1.6234
  293SOL    HW2 1171   0.091   0.169   2.519  0.0499 -1.1803  0.5415
  293SOL     MW 1172   0.146   0.138   2.457 -0.8471  0.2460  0.0784
  294SOL     OW 1173   1.411   0.580   2.339 -0.5305 -0.6824 -0.3108
  294SOL    HW1 1174   1.489   0.620   2.382  1.2910 -0.4296  0.0720
  294SOL    HW2 1175   1.423   0.494   2.375 -0.0257  0.4365  3.0314
  294SOL     MW 1176   1.423   0.574   2.349 -0.2236 -0.5014  0.1806
  295SOL     OW 1177   0.939   0.531   2.529  0.8116 -0.0462  0.0735
  295SOL    HW1 1178   0.939   0.502   2.437 -0.0681 -0.9934 -0.0014
  295SOL    HW2 1179   0.847   0.531   2.564 -1.6063  0.6797  2.1975
  295SOL     MW 1180   0.927   0.527   2.521  0.3766 -0.0754  0.3438
  296SOL     OW 1181   1.229   0.275   2.035 -0.2932 -0.0730  0.4982
  296SOL    HW1 1182   1.316   0.241   2.011 -1.1633 -2.4054  1.1549
  296SOL    HW2 1183   1.223   0.265   2.130  0.2163  1.6541 -2.1164
  296SOL     MW 1184   1.240   0.269   2.044 -0.3408 -0.1529  0.2399
  297SOL     OW 1185   1.445   0.406   1.544  0.1847 -0.2194  0.2112
  297SOL    HW1 1186   1.418   0.475   1.603 -1.2449  1.4091  2.1498
  297SOL    HW2 1187   1.469   0.326   1.591 -3.0376 -1.0848  1.9800
  297SOL     MW 1188   1.445   0.405   1.558 -0.4291 -0.1187  0.7004
  298SOL     OW 1189   1.640   0.847   2.013 -0.3210 -0.0261  0.0812
  298SOL    HW1 1190   1.676   0.932   1.994  0.2586  0.8592  0.7121
  298SOL    HW2 1191   1.691   0.819   2.089  4.0892 -0.5038  2.0529
  298SOL     MW 1192   1.651   0.854   2.020  0.3374  0.0277  0.4246
  299SOL     OW 1193   0.605   1.112   0.034  0.4045  0.1259 -0.0146
  299SOL    HW1 1194   0.578   1.098  -0.056  3.1903 -0.6525  2.1219
  299SOL    HW2 1195   0.698   1.131   0.037  0.2663 -0.2967 -3.7041
  299SOL     MW 1196   0.614   1.113   0.023  0.7538 -0.0325 -0.2195
  300SOL     OW 1197   1.245   1.186   2.478 -0.7149  0.2225  0.0567
  300SOL    HW1 1198   1.184   1.116   2.503  3.0580 -1.5091  0.3573
  300SOL    HW2 1199   1.284   1.202   2.564 -1.8895 -3.4834  0.3517
  300SOL     MW 1200   1.242   1.179   2.493 -0.3721 -0.4949  0.1353
  301SOL     OW 1201   1.460   0.979   0.660 -0.3001 -0.2559  0.0051
  301SOL    HW1 1202   1.472   0.996   0.752 -1.0213 -1.4092 -0.3423
  301SOL    HW2 1203   1.388   0.916   0.642 -0.4146  2.8183  2.0928
  301SOL     MW 1204   1.452   0.973   0.670 -0.4103 -0.0025  0.2347
  302SOL     OW 1205   0.172   1.576   1.992  0.9963 -0.6713  0.2563
  302SOL    HW1 1206   0.175   1.533   2.078 -1.2457  0.1246  0.0548
  302SOL    HW2 1207   0.092   1.632   2.009 -0.3083 -3.3866  1.0520
  302SOL     MW 1208   0.162   1.578   2.005  0.5284 -0.9245  0.3347
  303SOL     OW 1209   0.390   1.787   2.691  0.1663  0.3872  0.6489
  303SOL    HW1 1210   0.357   1.768   2.601 -2.3743  2.7927  0.1283
  303SOL    HW2 1211   0.314   1.824   2.733 -0.2833 -2.3245 -2.4905
  303SOL     MW 1212   0.376   1.789   2.685 -0.2282  0.3468  0.1660
  304SOL     OW 1213   0.503   2.049   2.344 -0.8079 -0.0641  0.1006
  304SOL    HW1 1214   0.583   2.100   2.306  2.1147  0.9746  0.3959
  304SOL    HW2 1215   0.558   1.982   2.380  0.0291  1.0592 -1.7348
  304SOL     MW 1216   0.521   2.047   2.344 -0.3118  0.2211 -0.1026
  305SOL     OW 1217   1.088   0.570   0.522 -0.4473  0.4993  0.5296
  305SOL    HW1 1218   0.995   0.557   0.501  1.1409 -1.0382  1.8346
  305SOL    HW2 1219   1.130   0.484   0.538  2.1078  1.7250  0.9348
  305SOL     MW 1220   1.081   0.557   0.522  0.0994  0.4582  0.7553
  306SOL     OW 1221   1.185   1.557   0.280  0.2828  0.3933 -0.2359
  306SOL    HW1 1222   1.220   1.466   0.308  0.1014  1.4849 -1.3656
  306SOL    HW2 1223   1.230   1.556   0.198  1.4545  0.6394  0.1095
  306SOL     MW 1224   1.196   1.545   0.273  0.4135  0.5698 -0.3394
  307SOL     OW 1225   1.346   0.473   1.852 -0.0334 -0.6137  0.2497
  307SOL    HW1 1226   1.271   0.434   1.903 -1.9912 -0.1937  1.7984
  307SOL    HW2 1227   1.407   0.514   1.915  0.3681 -0.6232  3.0340
  307SOL     MW 1228   1.344   0.473   1.867 -0.2388 -0.5595  0.8214
  308SOL     OW 1229   2.197   0.517   2.716  0.0089  0.0655 -0.3464
  308SOL    HW1 1230   2.292   0.487   2.716  1.3089 -2.3617 -0.8026
  308SOL    HW2 1231   2.187   0.615   2.716  1.1704  1.0293  0.7057
  308SOL     MW 1232   2.208   0.526   2.716  0.3337 -0.1276 -0.2678
  309SOL     OW 1233   0.469   0.508   0.245 -0.2101  0.1525 -0.6825
  309SOL    HW1 1234   0.565   0.513   0.246  0.7536 -0.5368  3.5851
  309SOL    HW2 1235   0.450   0.412   0.240 -1.8563  0.2719  1.6431
  309SOL     MW 1236   0.479   0.496   0.245 -0.3001  0.0773  0.1874
  310SOL     OW 1237   0.426   0.579   1.912  0.2987 -0.4789 -0.5049
  310SOL    HW1 1238   0.465   0.512   1.854 -1.2472  2.9892 -0.1736
  310SOL    HW2 1239   0.457   0.665   1.877 -0.7969  2.3223  0.8967
  310SOL     MW 1240   0.435   0.582   1.900 -0.0498  0.3483 -0.2762
  311SOL     OW 1241   1.893   0.622   1.923 -0.4032  0.7831  0.2044
  311SOL    HW1 1242   1.862   0.624   2.013  1.6566  0.3372 -1.8849
  311SOL    HW2 1243   1.966   0.557   1.936  0.5086  0.8574  2.0404
  311SOL     MW 1244   1.899   0.614   1.936 -0.0111  0.7340  0.1710
  312SOL     OW 1245   1.824   2.473   0.188  0.1464  0.4726  1.1976
  312SOL    HW1 1246   1.898   2.514   0.231  1.6928 -1.2971 -1.0593
  312SOL    HW2 1247   1.739   2.516   0.208  0.7921 -0.5484  0.4174
  312SOL     MW 1248   1.822   2.484   0.196  0.4356  0.1044  0.7969
  313SOL     OW 1249   0.132   1.130   2.962 -0.0816 -0.8290  0.1202
  313SOL    HW1 1250   0.087   1.141   3.053 -0.3810 -1.3754  0.7646
  313SOL    HW2 1251   0.169   1.216   2.959  0.0383 -0.4397  1.4713
  313SOL     MW 1252   0.131   1.143   2.973 -0.1053 -0.8497  0.3835
  314SOL     OW 1253   2.170   3.009   2.947 -0.3589  0.1848  0.0761
  314SOL    HW1 1254   2.108   3.068   2.904 -0.9091 -2.0311  1.6434
  314SOL    HW2 1255   2.207   3.046   3.032  0.4887 -2.1437  1.0184
  314SOL     MW 1256   2.167   3.022   2.953 -0.3197 -0.4148  0.4072
  315SOL     OW 1257   1.524   1.843   3.004 -0.1164 -0.4912 -0.0085
  315SOL    HW1 1258   1.492   1.898   3.074  1.4035  1.6692  2.4688
  315SOL    HW2 1259   1.561   1.907   2.935 -0.4524 -2.4364 -0.4537
  315SOL     MW 1260   1.524   1.858   3.004  0.0398 -0.4628  0.2596
  316SOL     OW 1261   1.309   0.527   2.723 -0.8839  0.3916  0.0032
  316SOL    HW1 1262   1.397   0.525   2.754  0.5664  0.6440  0.2686
  316SOL    HW2 1263   1.248   0.567   2.790  0.2648  0.9062 -0.4329
  316SOL     MW 1264   1.312   0.532   2.736 -0.5410  0.4928 -0.0193
  317SOL     OW 1265   0.664   1.502   2.641  0.2517  0.5631 -0.0082
  317SOL    HW1 1266   0.727   1.423   2.655  1.6166 -1.0410 -0.2950
  317SOL    HW2 1267   0.692   1.514   2.550  1.7928 -0.3292  1.7620
  317SOL     MW 1268   0.676   1.493   2.631  0.6352  0.2337  0.1875
  318SOL     OW 1269   1.361   0.338   2.970  0.1261 -0.8754  0.0174
  318SOL    HW1 1270   1.271   0.379   2.949  0.9534  0.9421  0.3856
  318SOL    HW2 1271   1.417   0.412   2.945 -1.6196  1.6744 -1.1341
  318SOL     MW 1272   1.357   0.353   2.964  0.0050 -0.2992 -0.0860
  319SOL     OW 1273   0.860   0.406   2.904  0.1770 -0.7579  0.3909
  319SOL    HW1 1274   0.837   0.334   2.843 -0.0141 -0.5167  2.6247
  319SOL    HW2 1275   0.797   0.404   2.976  0.4835  2.6135  1.7579
  319SOL     MW 1276   0.849   0.396   2.906  0.1922 -0.2813  0.8660
  320SOL     OW 1277   1.077   1.352   1.986 -0.2858  0.0350 -0.1877
  320SOL    HW1 1278   1.141   1.285   2.025 -0.3271  0.4256  2.0392
  320SOL    HW2 1279   1.137   1.409   1.935  1.0268 -1.8538 -2.0645
  320SOL     MW 1280   1.093   1.351   1.985 -0.1181 -0.1627 -0.1415
  321SOL     OW 1281   1.126   0.935   3.026  0.3521 -0.6577  0.3173
  321SOL    HW1 1282   1.049   0.903   2.975 -0.1833 -0.3016  0.4567
  321SOL    HW2 1283   1.187   0.870   2.991 -0.3590 -0.2456 -5.4662
  321SOL     MW 1284   1.124   0.922   3.015  0.1877 -0.5563 -0.4274
  322SOL     OW 1285   1.171   0.870   1.676 -0.1996  0.2252 -0.0832
  322SOL    HW1 1286   1.243   0.798   1.667  0.7532 -0.2882  0.5571
  322SOL    HW2 1287   1.176   0.891   1.773  1.2105 -0.2834  0.0229
  322SOL     MW 1288   1.181   0.864   1.688  0.1122  0.0903  0.0153
  323SOL     OW 1289   1.240   1.538   1.883 -0.3251  0.4705  0.3053
  323SOL    HW1 1290   1.290   1.547   1.798  1.0445  0.5451  0.0127
  323SOL    HW2 1291   1.200   1.629   1.892  1.4644 -0.2862 -2.4161
  323SOL     MW 1292   1.242   1.551   1.873  0.0917  0.3805 -0.0924
  324SOL     OW 1293   1.488   1.007   2.421  0.5102  0.5841 -0.4344
  324SOL    HW1 1294   1.412   1.053   2.444 -0.7888  1.9261  0.1871
  324SOL    HW2 1295   1.556   1.070   2.441 -2.0204  2.2108  1.7635
  324SOL     MW 1296   1.487   1.021   2.426  0.0050  0.9758 -0.0624
  325SOL     OW 1297   1.113   0.513   2.924 -0.0854 -0.0642  0.2024
  325SOL    HW1 1298   1.105   0.555   3.009  0.4637 -1.3865 -1.2272
  325SOL    HW2 1299   1.026   0.492   2.902 -1.0340  1.3575  2.2838
  325SOL     MW 1300   1.101   0.516   2.933 -0.1381 -0.0511  0.2884
  326SOL     OW 1301   0.424   1.370   2.330 -0.6776  0.7593 -0.9799
  326SOL    HW1 1302   0.504   1.360   2.273  0.2856 -1.0638 -2.7903
  326SOL    HW2 1303   0.394   1.458   2.316  1.6163 -1.5335  3.9519
  326SOL     MW 1304   0.431   1.381   2.321 -0.2478  0.2163 -0.5681
  327SOL     OW 1305   1.918   0.772   2.440  0.5147  0.2429 -0.1639
  327SOL    HW1 1306   1.864   0.730   2.512 -1.1139  0.6484 -2.7047
  327SOL    HW2 1307   1.939   0.867   2.459  0.5136 -0.5779  0.9078
  327SOL     MW 1308   1.914   0.779   2.452  0.2997  0.1881 -0.3578
  328SOL     OW 1309   0.186   1.334   2.152  0.2911 -0.4710  0.1247
  328SOL    HW1 1310   0.120   1.264   2.139  0.6235 -1.0189 -0.6102
  328SOL    HW2 1311   0.230   1.321   2.233 -0.3350  1.0540  0.3443
  328SOL     MW 1312   0.183   1.323   2.161  0.2523 -0.3421  0.0567
  329SOL     OW 1313   0.058   0.214   1.407 -1.0874 -0.3099  0.1075
  329SOL    HW1 1314   0.052   0.212   1.509 -2.4894 -3.0183  1.0518
  329SOL    HW2 1315   0.145   0.247   1.392 -2.0596 -1.7420 -0.4163
  329SOL     MW 1316   0.069   0.218   1.418 -1.4007 -0.8562  0.1630
  330SOL     OW 1317   0.376   3.050   2.056  0.0590 -0.4039 -0.2844
  330SOL    HW1 1318   0.442   3.067   2.122 -0.7119  0.0237 -1.2888
  330SOL    HW2 1319   0.299   3.008   2.099 -0.4010 -1.6392 -2.8050
  330SOL     MW 1320   0.375   3.047   2.070 -0.1034 -0.5105 -0.7495
  331SOL     OW 1321   0.824   1.251   2.408  0.1925 -0.4531  0.6245
  331SOL    HW1 1322   0.775   1.317   2.357 -0.2052 -2.2444  1.0368
  331SOL    HW2 1323   0.870   1.300   2.479 -0.1990  0.9388  2.4153
  331SOL     MW 1324   0.824   1.266   2.410  0.0884 -0.5058  0.9152
  332SOL     OW 1325   1.349   1.672   2.907  0.6041 -0.7041  0.0397
  332SOL    HW1 1326   1.349   1.702   2.816 -1.6520 -0.4499  0.7815
  332SOL    HW2 1327   1.417   1.733   2.945 -0.1780 -1.5800 -1.3316
  332SOL     MW 1328   1.358   1.684   2.900  0.2032 -0.7861 -0.0434
  333SOL     OW 1329   1.735   1.373   2.934  0.0266  0.5077 -0.3491
  333SOL    HW1 1330   1.824   1.394   2.971  1.7931  1.8482  3.6503
  333SOL    HW2 1331   1.722   1.286   2.970 -0.5758 -2.5468 -1.5858
  333SOL     MW 1332   1.745   1.364   2.944  0.1802  0.2816  0.0154
  334SOL     OW 1333   1.263   0.005   2.556 -0.0174 -0.9409 -0.3953
  334SOL    HW1 1334   1.220  -0.035   2.629  0.2751  0.3751  0.5998
  334SOL    HW2 1335   1.326   0.065   2.602 -0.4376 -2.6639  0.1682
  334SOL     MW 1336   1.266   0.008   2.572 -0.0343 -0.9946 -0.1897
  335SOL     OW 1337   1.322   0.736   2.952 -0.3199  0.0558 -0.1770
  335SOL    HW1 1338   1.366   0.732   3.038 -0.1310  2.2901 -0.7089
  335SOL    HW2 1339   1.389   0.793   2.900 -0.6009 -0.1120  2.4378
  335SOL     MW 1340   1.337   0.743   2.957 -0.3321  0.3284  0.0978
  336SOL     OW 1341   0.937   1.173   1.835  0.5280  0.3539  0.4771
  336SOL    HW1 1342   0.959   1.248   1.898  0.6617 -0.8871 -1.8013
  336SOL    HW2 1343   0.979   1.098   1.880  0.9376 -0.7687 -1.4615
  336SOL     MW 1344   0.946   1.173   1.849  0.5997  0.0420 -0.0793
  337SOL     OW 1345   0.667   1.824   2.769 -0.2831 -0.0515 -0.5273
  337SOL    HW1 1346   0.608   1.782   2.709 -0.3418  2.0695 -1.5300
  337SOL    HW2 1347   0.751   1.779   2.764  1.8207  1.4715 -1.3977
  337SOL     MW 1348   0.671   1.812   2.761 -0.0133  0.4293 -0.7744
  338SOL     OW 1349   1.139   0.716   2.583  0.2674  0.2822 -0.4797
  338SOL    HW1 1350   1.077   0.641   2.595  1.3212 -0.4423  0.2686
  338SOL    HW2 1351   1.215   0.685   2.631 -1.8882  1.0271 -1.4996
  338SOL     MW 1352   1.141   0.702   2.591  0.1220  0.2849 -0.5155
  339SOL     OW 1353   1.501   1.062   1.839  0.3781  0.0604 -0.4719
  339SOL    HW1 1354   1.439   1.075   1.765 -2.7639 -1.3315  1.6988
  339SOL    HW2 1355   1.453   1.003   1.896  0.3589  0.7526  0.7719
  339SOL     MW 1356   1.487   1.056   1.837 -0.0390 -0.0320 -0.0214
  340SOL     OW 1357   1.332   1.518   0.033  0.2237  0.1717 -0.2147
  340SOL    HW1 1358   1.335   1.583  -0.033 -1.0977  0.3314  0.0281
  340SOL    HW2 1359   1.421   1.502   0.069 -1.1794  0.0673 -1.8264
  340SOL     MW 1360   1.344   1.525   0.029 -0.1358  0.1790 -0.3953
  341SOL     OW 1361   0.064   1.345   2.743  0.9097  0.7632  0.1529
  341SOL    HW1 1362   0.135   1.278   2.741  1.1302 -1.5084  0.7811
  341SOL    HW2 1363   0.020   1.331   2.655  2.3865 -1.8186 -1.3971
  341SOL     MW 1364   0.068   1.334   2.731  1.1337  0.1228  0.0313
  342SOL     OW 1365   1.330   0.352   0.140  0.6234  0.2651  0.1290
  342SOL    HW1 1366   1.380   0.412   0.186  0.9161  0.7358  1.8131
  342SOL    HW2 1367   1.343   0.359   0.044  0.1493 -1.2023 -1.7804
  342SOL     MW 1368   1.338   0.361   0.133  0.5995  0.1336  0.0993
  343SOL     OW 1369   0.269   0.303   2.157  0.1464 -0.1379  0.5732
  343SOL    HW1 1370   0.343   0.239   2.140  1.0933 -0.3681  4.4879
  343SOL    HW2 1371   0.208   0.278   2.089 -0.2480  0.8794  0.1970
  343SOL     MW 1372   0.271   0.292   2.146  0.2193 -0.0340  1.0400
  344SOL     OW 1373   1.677   2.062   0.176 -0.8576  0.3037 -0.0278
  344SOL    HW1 1374   1.696   2.141   0.122  2.1653  1.3069  3.5198
  344SOL    HW2 1375   1.582   2.067   0.205 -4.1110 -1.6593 -1.9996
  344SOL     MW 1376   1.667   2.073   0.173 -0.8880  0.1771  0.1801
  345SOL     OW 1377   0.713   1.569   2.368 -0.0846 -0.3052  0.9466
  345SOL    HW1 1378   0.640   1.550   2.304 -0.2438 -1.2065  0.5649
  345SOL    HW2 1379   0.797   1.561   2.317 -0.5288 -2.3901 -1.7686
  345SOL     MW 1380   0.714   1.565   2.353 -0.1642 -0.6992  0.5380
  346SOL     OW 1381   1.752   1.153   0.044 -0.0480  0.2458  0.0706
  346SOL    HW1 1382   1.843   1.118   0.054  0.6294 -2.6964 -0.2004
  346SOL    HW2 1383   1.705   1.097   0.111 -2.6865 -0.4386 -1.1006
  346SOL     MW 1384   1.758   1.141   0.054 -0.3067 -0.2327 -0.1197
  347SOL     OW 1385   1.161   0.656   2.312 -0.2602  0.7264  0.3782
  347SOL    HW1 1386   1.252   0.635   2.323 -0.5703  0.1412  1.0149
  347SOL    HW2 1387   1.148   0.692   2.393 -1.5324  1.5121 -3.1622
  347SOL     MW 1388   1.171   0.658   2.324 -0.4690  0.7528 -0.0049
  348SOL     OW 1389   1.294   2.624   1.875  0.0645 -0.2922  0.1244
  348SOL    HW1 1390   1.317   2.542   1.928  0.0660 -0.1695  0.4954
  348SOL    HW2 1391   1.322   2.697   1.938 -1.5267  2.7269  0.8347
  348SOL     MW 1392   1.301   2.623   1.891 -0.1452  0.1223  0.2671
  349SOL     OW 1393   1.436   0.217   2.695 -0.4838  0.2162 -0.3387
  349SOL    HW1 1394   1.397   0.258   2.769  0.5566  0.4713 -0.1622
  349SOL    HW2 1395   1.501   0.162   2.736 -0.9269 -2.2621  1.9274
  349SOL     MW 1396   1.440   0.215   2.710 -0.4050 -0.0772 -0.0164
  350SOL     OW 1397   1.829   0.641   2.658 -0.1348 -0.3556  0.4354
  350SOL    HW1 1398   1.781   0.572   2.610 -0.0556 -1.5891  0.3339
  350SOL    HW2 1399   1.885   0.586   2.716 -2.4727  1.1829 -2.9406
  350SOL     MW 1400   1.830   0.624   2.659 -0.4328 -0.3154 -0.0234
  351SOL     OW 1401   0.083   1.148   1.608 -0.5051  0.1235  0.1783
  351SOL    HW1 1402   0.023   1.125   1.676  1.2284  0.8019  0.1851
  351SOL    HW2 1403   0.135   1.212   1.664 -0.1543  2.4770  1.6621
  351SOL     MW 1404   0.082   1.153   1.624 -0.2301  0.5236  0.3750
  352SOL     OW 1405   0.875   1.647   2.737 -0.2473  0.5151  0.0556
  352SOL    HW1 1406   0.915   1.627   2.819  0.7789 -0.3515  3.2026
  352SOL    HW2 1407   0.806   1.582   2.723 -0.5957  2.0880  0.4977
  352SOL     MW 1408   0.871   1.636   2.746 -0.1579  0.6083  0.5292
  353SOL     OW 1409   0.026   2.508   2.740  0.2640  0.1345  0.0449
  353SOL    HW1 1410   0.102   2.467   2.708  0.9156  0.5635  0.3864
  353SOL    HW2 1411   0.039   2.598   2.709  0.3104 -0.3002  2.5025
  353SOL     MW 1412   0.038   2.514   2.732  0.3561  0.1338  0.4142
  354SOL     OW 1413   0.284   2.473   0.798  0.4153 -0.0631 -0.2004
  354SOL    HW1 1414   0.327   2.451   0.878 -1.5304 -1.4890  0.8522
  354SOL    HW2 1415   0.210   2.413   0.793  1.2240  3.3187  3.1210
  354SOL     MW 1416   0.280   2.462   0.808  0.2653  0.1949  0.3767
  355SOL     OW 1417   3.086   2.230   0.366 -0.2062  0.3085  0.2442
  355SOL    HW1 1418   3.001   2.189   0.354 -0.7677  0.8051 -1.0292
  355SOL    HW2 1419   3.087   2.265   0.452  3.8240  1.0712  0.1724
  355SOL     MW 1420   3.075   2.229   0.376  0.2514  0.4746  0.0668
  356SOL     OW 1421   0.846   2.797   0.983  0.2172 -0.1870 -0.0499
  356SOL    HW1 1422   0.883   2.833   0.901  0.1460 -1.0668  0.7728
  356SOL    HW2 1423   0.749   2.800   0.963 -2.1632  3.2010 -1.3253
  356SOL     MW 1424   0.838   2.802   0.970 -0.1062  0.1440 -0.1097
  357SOL     OW 1425   1.783   2.886   0.388  0.3922 -0.7187  0.0779
  357SOL    HW1 1426   1.758   2.819   0.450 -1.0867  1.8223  2.8562
  357SOL    HW2 1427   1.876   2.865   0.380  0.8169  1.7874  2.7263
  357SOL     MW 1428   1.792   2.874   0.395  0.2531 -0.0527  0.7939
  358SOL     OW 1429   0.466   0.142   1.026 -0.0730 -0.0559 -0.1767
  358SOL    HW1 1430   0.554   0.150   0.991 -2.5137 -0.9709 -0.7302
  358SOL    HW2 1431   0.416   0.151   0.948  2.1027  0.0721  0.3612
  358SOL     MW 1432   0.471   0.144   1.011 -0.1080 -0.1598 -0.1788
  359SOL     OW 1433   0.828   2.858   1.866 -0.4151  0.1245  0.3061
  359SOL    HW1 1434   0.821   2.763   1.867 -1.4761 -0.1370  3.2644
  359SOL    HW2 1435   0.851   2.885   1.777  0.4167  0.8010  0.2179
  359SOL     MW 1436   0.830   2.849   1.854 -0.4453  0.1793  0.6848
  360SOL     OW 1437   0.576   2.803   0.906 -0.3713 -0.2209 -0.3851
  360SOL    HW1 1438   0.577   2.770   0.814  0.7334 -0.3281 -0.6061
  360SOL    HW2 1439   0.555   2.725   0.962  0.3486  1.3282 -1.0511
  360SOL     MW 1440   0.573   2.789   0.902 -0.1305 -0.0307 -0.5021
  361SOL     OW 1441   0.214   2.625   1.337 -0.3153 -0.2303 -0.2943
  361SOL    HW1 1442   0.198   2.690   1.407  1.6293 -1.0211  2.1043
  361SOL    HW2 1443   0.311   2.639   1.321 -1.9557  1.1622 -0.1379
  361SOL     MW 1444   0.224   2.636   1.344 -0.2752 -0.1509  0.0428
  362SOL     OW 1445   1.447   2.412   0.660 -0.2225 -0.6912  0.7101
  362SOL    HW1 1446   1.482   2.370   0.743 -0.2584 -0.4797 -1.1755
  362SOL    HW2 1447   1.502   2.497   0.658  0.7860 -1.8755  1.4169
  362SOL     MW 1448   1.459   2.418   0.671 -0.0942 -0.8195  0.5546
  363SOL     OW 1449   0.313   3.099   0.644  0.0927 -0.2768 -0.7989
  363SOL    HW1 1450   0.310   3.031   0.706 -0.9059  2.2313 -3.1611
  363SOL    HW2 1451   0.223   3.112   0.608 -0.1692 -0.8308 -1.3417
  363SOL     MW 1452   0.301   3.092   0.647 -0.0736 -0.0190 -1.1822
  364SOL     OW 1453   0.746   0.217   0.233 -0.9968  0.0307 -0.2059
  364SOL    HW1 1454   0.674   0.151   0.253 -0.1928 -0.3935  2.1115
  364SOL    HW2 1455   0.709   0.273   0.162  1.3037 -0.4627 -2.3817
  364SOL     MW 1456   0.732   0.216   0.226 -0.5872 -0.0904 -0.1872
  365SOL     OW 1457   0.980   1.988   1.185 -0.2579 -0.9007 -0.0554
  365SOL    HW1 1458   0.966   2.071   1.139 -0.7155  1.8410 -0.8869
  365SOL    HW2 1459   0.911   1.930   1.147  0.3575  1.6586 -2.3262
  365SOL     MW 1460   0.969   1.991   1.174 -0.2371 -0.2013 -0.4647
  366SOL     OW 1461   2.905   2.659   0.986  0.7341 -0.2039 -0.1229
  366SOL    HW1 1462   2.983   2.662   1.040  0.1725  0.0410 -3.8994
  366SOL    HW2 1463   2.935   2.661   0.895  0.5132 -1.0776  0.8627
  366SOL     MW 1464   2.919   2.659   0.981  0.6309 -0.2868 -0.4911
  367SOL     OW 1465   1.246   2.935   0.866  0.0203 -0.5411 -0.4727
  367SOL    HW1 1466   1.283   3.013   0.816  0.6338 -0.1676 -1.5830
  367SOL    HW2 1467   1.238   2.860   0.805  2.0993 -0.9948 -2.9790
  367SOL     MW 1468   1.250   2.935   0.851  0.3756 -0.5516 -0.9499
  368SOL     OW 1469   1.653   0.357   0.744  0.2703  0.0692 -0.0028
  368SOL    HW1 1470   1.732   0.335   0.690  0.5346  4.8472  0.7862
  368SOL    HW2 1471   1.653   0.452   0.735 -0.0979 -0.8360 -1.0562
  368SOL     MW 1472   1.664   0.366   0.735  0.2566  0.5802 -0.0377
  369SOL     OW 1473   0.130   2.413   1.797 -0.0060  0.3454 -0.3390
  369SOL    HW1 1474   0.230   2.413   1.804  1.4892  1.1391 -0.3205
  369SOL    HW2 1475   0.119   2.510   1.776  0.1636 -0.3866  1.4539
  369SOL     MW 1476   0.142   2.426   1.795  0.2136  0.3535 -0.1000
  370SOL     OW 1477   0.746   0.155   0.934  0.6337  0.3233 -0.7211
  370SOL    HW1 1478   0.791   0.234   0.955 -1.9349  1.7471  0.3825
  370SOL    HW2 1479   0.795   0.082   0.979 -2.1664  1.0476 -1.6026
  370SOL     MW 1480   0.758   0.156   0.943 -0.0746  0.6067 -0.6918
  371SOL     OW 1481   1.331   2.868   1.526 -0.3160 -0.4951 -0.1039
  371SOL    HW1 1482   1.276   2.789   1.505 -0.7071  1.2256  0.5638
  371SOL    HW2 1483   1.343   2.908   1.442 -3.2156 -3.4479 -1.0448
  371SOL     MW 1484   1.325   2.863   1.512 -0.7501 -0.6576 -0.1399
  372SOL     OW 1485   0.804   2.274   0.489 -0.3197  0.1081 -0.1167
  372SOL    HW1 1486   0.768   2.189   0.463  1.0365  1.2848 -3.1418
  372SOL    HW2 1487   0.803   2.304   0.394 -1.0867  0.7057 -2.5991
  372SOL     MW 1488   0.799   2.267   0.473 -0.2419  0.3422 -0.8434
  373SOL     OW 1489   2.817   3.010   1.457  0.1298  0.6122 -0.1554
  373SOL    HW1 1490   2.904   2.987   1.416  2.2737  1.9716  0.1680
  373SOL    HW2 1491   2.777   3.083   1.401  2.5738 -0.1851  0.2241
  373SOL     MW 1492   2.823   3.017   1.444  0.7352  0.6863 -0.0627
  374SOL     OW 1493   1.500   0.532   0.284 -0.3894  0.2057  0.7654
  374SOL    HW1 1494   1.574   0.470   0.282  1.6140  0.6992  0.9042
  374SOL    HW2 1495   1.463   0.520   0.373  1.1372  2.9996  0.8654
  374SOL     MW 1496   1.505   0.522   0.295  0.0764  0.6394  0.7969
  375SOL     OW 1497   0.977   2.092   2.237  0.2718  0.1459  0.2362
  375SOL    HW1 1498   1.016   2.069   2.324 -0.3145 -1.8153  1.1917
  375SOL    HW2 1499   0.959   2.019   2.173  1.2403 -1.0489 -2.2151
  375SOL     MW 1500   0.980   2.080   2.240  0.3222 -0.2705  0.0388
  376SOL     OW 1501   0.780   2.557   0.052 -0.6054 -0.1196 -0.1927
  376SOL    HW1 1502   0.768   2.476   0.108 -0.6339 -1.6001 -2.0327
  376SOL    HW2 1503   0.746   2.509  -0.021 -2.8952 -1.9173 -1.5676
  376SOL     MW 1504   0.774   2.540   0.050 -0.9113 -0.5521 -0.6169
  377SOL     OW 1505   1.259   2.015   0.839  0.0363  0.4605 -0.0526
  377SOL    HW1 1506   1.164   2.005   0.807  1.9795  0.8758 -1.0964
  377SOL    HW2 1507   1.261   1.963   0.921 -1.2895  0.4550  1.6023
  377SOL     MW 1508   1.247   2.007   0.846  0.1178  0.5146  0.0281
  378SOL     OW 1509   0.893   2.845   1.581  0.5953 -0.1214  0.3475
  378SOL    HW1 1510   0.891   2.749   1.573 -0.2989 -0.9026  0.7949
  378SOL    HW2 1511   0.938   2.883   1.505 -1.0277  1.1978 -3.0120
  378SOL     MW 1512   0.899   2.837   1.570  0.2632 -0.0504 -0.0368
  379SOL     OW 1513   1.110   1.696   2.236 -0.4235 -0.3769 -0.5390
  379SOL    HW1 1514   1.036   1.636   2.220 -1.9881 -0.0879 -1.8602
  379SOL    HW2 1515   1.177   1.649   2.182  0.5675  1.9366 -0.4482
  379SOL     MW 1516   1.109   1.682   2.227 -0.4992 -0.0335 -0.7013
  380SOL     OW 1517   0.867   0.114   1.508  0.2541  0.1229 -0.3637
  380SOL    HW1 1518   0.880   0.028   1.455  1.8123 -0.5664 -0.9674
  380SOL    HW2 1519   0.935   0.119   1.581  3.0337  0.3095  0.7831
  380SOL     MW 1520   0.878   0.103   1.511  0.8264  0.0566 -0.2921
  381SOL     OW 1521   0.754   2.036   0.834 -0.2905  0.5417  0.5194
  381SOL    HW1 1522   0.840   2.051   0.792  0.6945  0.0456 -1.2066
  381SOL    HW2 1523   0.759   2.073   0.922 -0.8483 -0.3186 -2.4208
  381SOL     MW 1524   0.766   2.043   0.840 -0.2341  0.3627 -0.0962
  382SOL     OW 1525   0.713   0.093   0.642 -0.2183  0.3744  0.0640
  382SOL    HW1 1526   0.696   0.106   0.736 -0.8501 -0.9201 -0.9140
  382SOL    HW2 1527   0.700  -0.003   0.614  0.5490  3.1665  0.1704
  382SOL     MW 1528   0.709   0.082   0.651 -0.2004  0.5720 -0.0510
  383SOL     OW 1529   0.550   0.031   0.285  0.4790  0.1418 -0.0216
  383SOL    HW1 1530   0.594  -0.030   0.223  0.7007 -0.7607 -0.6808
  383SOL    HW2 1531   0.520  -0.034   0.356  0.6393 -0.6216 -0.0865
  383SOL     MW 1532   0.552   0.015   0.286  0.5294 -0.0780 -0.1171
  384SOL     OW 1533   0.715   2.931   0.581  0.0446  0.3911 -0.2909
  384SOL    HW1 1534   0.806   2.925   0.624  1.5409 -1.6391 -0.8856
  384SOL    HW2 1535   0.662   2.849   0.606 -1.1025 -1.1747 -0.1464
  384SOL     MW 1536   0.720   2.919   0.590  0.0907 -0.0833 -0.3503
  385SOL     OW 1537   1.407   2.074   1.500 -0.0333 -0.3225  0.2081
  385SOL    HW1 1538   1.477   2.124   1.544  1.9713 -0.6309  0.5658
  385SOL    HW2 1539   1.383   2.014   1.575 -0.7293  1.7515  4.0441
  385SOL     MW 1540   1.413   2.073   1.515  0.1394 -0.0895  0.7614
  386SOL     OW 1541   1.240   0.387   0.870  0.1252  0.2616 -0.1571
  386SOL    HW1 1542   1.211   0.454   0.937 -1.3966  0.1641 -2.0017
  386SOL    HW2 1543   1.253   0.310   0.931 -1.4388 -0.8921 -1.5639
  386SOL     MW 1544   1.238   0.386   0.887 -0.2819  0.0965 -0.5861
  387SOL     OW 1545   0.822   2.221   1.544 -0.1624  0.2608 -0.0612
  387SOL    HW1 1546   0.891   2.288   1.509 -0.5233  0.1122  1.2163
  387SOL    HW2 1547   0.847   2.136   1.507 -1.5767 -0.1532 -1.1043
  387SOL     MW 1548   0.835   2.219   1.534 -0.3966  0.1866 -0.0303
  388SOL     OW 1549   1.495   2.801   1.247 -0.6701  0.2673  0.6875
  388SOL    HW1 1550   1.404   2.807   1.256  2.4519  1.7982 -0.2368
  388SOL    HW2 1551   1.515   2.711   1.215  0.2582  0.0178  1.4239
  388SOL     MW 1552   1.485   2.790   1.244 -0.1357  0.4363  0.6627
  389SOL     OW 1553   0.451   0.145   3.031 -0.1835  0.4179  0.0302
  389SOL    HW1 1554   0.540   0.110   3.030 -0.9059  0.5602 -0.8191
  389SOL    HW2 1555   0.443   0.186   2.952  4.7719 -0.7958  1.6657
  389SOL     MW 1556   0.462   0.145   3.020  0.3750  0.2765  0.1339
  390SOL     OW 1557   1.343   0.050   0.737  0.4721 -0.1236  0.4659
  390SOL    HW1 1558   1.385   0.065   0.655 -2.8561 -1.3212  0.7685
  390SOL    HW2 1559   1.401   0.092   0.803 -1.1620 -1.2445  1.2979
  390SOL     MW 1560   1.356   0.058   0.735 -0.1827 -0.4295  0.6156
  391SOL     OW 1561   0.366   2.209   1.436  0.2553 -0.4537  0.4925
  391SOL    HW1 1562   0.325   2.125   1.453  0.0430  0.8958 -2.5158
  391SOL    HW2 1563   0.304   2.271   1.478 -0.7577  0.9046  1.7345
  391SOL     MW 1564   0.352   2.206   1.444  0.0936 -0.0964  0.2595
  392SOL     OW 1565   2.044   2.211   0.345  0.3719  0.2858 -0.7314
  392SOL    HW1 1566   2.108   2.204   0.415  0.4339  2.5619 -1.0667
  392SOL    HW2 1567   1.993   2.290   0.366 -2.2443  1.6192 -0.6411
  392SOL     MW 1568   2.046   2.220   0.357  0.0349  0.7620 -0.7637
  393SOL     OW 1569   0.289   2.918   2.778  0.1403  0.0985 -0.5012
  393SOL    HW1 1570   0.365   2.897   2.722 -1.5340 -1.0723  3.0899
  393SOL    HW2 1571   0.280   3.014   2.771 -0.0652 -0.2409 -0.2893
  393SOL     MW 1572   0.298   2.928   2.770 -0.1077 -0.1008  0.0006
  394SOL     OW 1573   0.895   1.749   1.532  0.3534 -0.3243 -0.3840
  394SOL    HW1 1574   0.826   1.776   1.601 -0.6511  1.2942  0.1071
  394SOL    HW2 1575   0.908   1.829   1.475  2.5188 -0.3725  0.2637
  394SOL     MW 1576   0.888   1.763   1.533  0.5066 -0.1171 -0.2337
  395SOL     OW 1577   0.952   2.920   2.610  0.1954  0.5996 -1.0049
  395SOL    HW1 1578   1.014   2.969   2.662 -0.2797 -1.8959  0.1722
  395SOL    HW2 1579   1.002   2.841   2.595 -1.2672 -0.2517 -0.4163
  395SOL     MW 1580   0.967   2.916   2.615 -0.0603  0.1580 -0.7719
  396SOL     OW 1581   0.689   1.857   2.384 -0.4510  0.1027  0.2769
  396SOL    HW1 1582   0.756   1.848   2.457  0.0950  1.0307  0.7565
  396SOL    HW2 1583   0.671   1.768   2.367  1.2511  2.0717  2.2210
  396SOL     MW 1584   0.695   1.844   2.392 -0.1544  0.4849  0.5967
  397SOL     OW 1585   1.044   2.372   1.414 -0.0409  0.0755  0.4042
  397SOL    HW1 1586   1.063   2.391   1.321  1.0567 -0.1446 -1.4546
  397SOL    HW2 1587   1.123   2.334   1.446 -0.3754  0.0154 -1.4884
  397SOL     MW 1588   1.057   2.369   1.406  0.0598  0.0385 -0.0908
  398SOL     OW 1589   0.596   2.708   0.659  0.2265 -0.0967 -0.2040
  398SOL    HW1 1590   0.520   2.673   0.615  1.1987  0.9790  3.2859
  398SOL    HW2 1591   0.657   2.638   0.666  1.8380  3.3732 -0.9896
  398SOL     MW 1592   0.594   2.694   0.654  0.5674  0.5030  0.1528
  399SOL     OW 1593   0.226   2.097   0.285 -0.0185  0.4991 -0.1558
  399SOL    HW1 1594   0.139   2.130   0.309 -0.4421 -2.0992 -0.6401
  399SOL    HW2 1595   0.241   2.126   0.200 -2.3807  1.1805  1.3870
  399SOL     MW 1596   0.217   2.105   0.277 -0.3861  0.2462 -0.0161
  400SOL     OW 1597   0.549   1.942   0.065  0.3522  0.6272 -0.0315
  400SOL    HW1 1598   0.476   2.003   0.051 -1.4365  1.4837 -0.5693
  400SOL    HW2 1599   0.529   1.879   0.135 -2.3893 -1.6791 -1.4144
  400SOL     MW 1600   0.537   1.942   0.072 -0.2455  0.4359 -0.2849
  401SOL     OW 1601   0.796   2.052   0.075  0.4088  0.3707  0.1935
  401SOL    HW1 1602   0.856   1.975   0.074 -2.4185  0.4668  1.3136
  401SOL    HW2 1603   0.705   2.020   0.080  0.1400 -1.4080  0.5140
  401SOL     MW 1604   0.792   2.038   0.075  0.0003  0.1487  0.3836
  402SOL     OW 1605   0.577   2.969   1.752 -0.5728  0.4503  0.0323
  402SOL    HW1 1606   0.630   2.918   1.810  0.3371 -0.6450  2.7632
  402SOL    HW2 1607   0.621   3.052   1.742 -1.4305 -0.6132 -1.5343
  402SOL     MW 1608   0.590   2.973   1.758 -0.5659  0.1655  0.1859
  403SOL     OW 1609   0.077   0.423   0.399  0.4681  0.1575 -0.1874
  403SOL    HW1 1610   0.157   0.471   0.412 -0.6854 -0.8676  0.1122
  403SOL    HW2 1611   0.082   0.399   0.303  0.1172 -2.2079 -1.0217
  403SOL     MW 1612   0.088   0.426   0.388  0.2696 -0.2899 -0.2580
  404SOL     OW 1613   0.951   2.915   0.720 -0.1207  0.6197 -0.1867
  404SOL    HW1 1614   1.029   2.859   0.745  0.7931  0.4602  0.9614
  404SOL    HW2 1615   0.981   3.008   0.740  0.6437  0.7442  1.6916
  404SOL     MW 1616   0.965   2.920   0.726  0.1007  0.6151  0.2126
  405SOL     OW 1617   0.558   2.407   1.530 -0.5519 -0.1364 -0.1382
  405SOL    HW1 1618   0.548   2.492   1.484  2.3680 -0.9273 -2.7539
  405SOL    HW2 1619   0.510   2.339   1.484 -0.1628 -3.2162  0.6212
  405SOL     MW 1620   0.550   2.409   1.518 -0.1153 -0.6471 -0.3831
  406SOL     OW 1621   0.329   2.411   1.088  0.6368 -0.1773  0.1124
  406SOL    HW1 1622   0.234   2.406   1.110 -0.5499  0.0186  2.1815
  406SOL    HW2 1623   0.368   2.331   1.125  0.9306 -0.4593 -0.5914
  406SOL     MW 1624   0.321   2.400   1.096  0.5190 -0.1886  0.2926
  407SOL     OW 1625   0.033   2.713   1.148  0.6191 -0.1598  0.1468
  407SOL    HW1 1626   0.091   2.682   1.228 -1.2785 -1.6561  3.7740
  407SOL    HW2 1627   0.092   2.699   1.071  0.6017 -2.2723  0.5352
  407SOL     MW 1628   0.049   2.707   1.148  0.3664 -0.6359  0.6766
  408SOL     OW 1629   2.137   2.137   0.587 -0.1608 -0.6463  0.5081
  408SOL    HW1 1630   2.074   2.188   0.637 -3.1396  1.4717 -3.1823
  408SOL    HW2 1631   2.098   2.050   0.563  1.5648 -2.2186 -1.3416
  408SOL     MW 1632   2.124   2.132   0.591 -0.3262 -0.5743 -0.2229
  409SOL     OW 1633   1.466   0.149   0.956 -0.8050 -0.1467 -0.3654
  409SOL    HW1 1634   1.532   0.207   0.988 -0.6683 -0.0804  2.1759
  409SOL    HW2 1635   1.475   0.068   1.011  1.2497  0.7907  0.8131
  409SOL     MW 1636   1.476   0.146   0.967 -0.5158 -0.0143  0.1254
  410SOL     OW 1637   1.100   2.427   1.145  0.2323 -0.1625  0.0180
  410SOL    HW1 1638   1.040   2.475   1.086  0.1320 -1.6075  2.7071
  410SOL    HW2 1639   1.152   2.369   1.093 -0.5609  0.5861 -0.2960
  410SOL     MW 1640   1.099   2.425   1.131  0.1144 -0.2544  0.3314
  411SOL     OW 1641   1.924   0.039   2.884 -0.6098 -0.7302  0.1474
  411SOL    HW1 1642   1.889  -0.013   2.810  2.5731 -1.4432 -1.4992
  411SOL    HW2 1643   1.863   0.034   2.956 -0.5160 -0.6670  0.9653
  411SOL     MW 1644   1.911   0.031   2.883 -0.1775 -0.8159  0.0380
  412SOL     OW 1645   1.057   2.228   0.558  0.5416 -0.0624  0.2647
  412SOL    HW1 1646   1.087   2.307   0.604  0.6565 -2.7125  1.0196
  412SOL    HW2 1647   0.965   2.241   0.540  5.1030 -0.3965 -0.5597
  412SOL     MW 1648   1.049   2.240   0.562  1.1586 -0.4562  0.2556
  413SOL     OW 1649   0.542   2.731   3.072  0.0406 -0.2468  0.9728
  413SOL    HW1 1650   0.609   2.681   3.118 -2.0962  2.6010  1.5031
  413SOL    HW2 1651   0.572   2.795   3.013 -0.8301 -0.7983  0.7704
  413SOL     MW 1652   0.555   2.733   3.071 -0.3562  0.0562  1.0160
  414SOL     OW 1653   1.985   3.002   1.146  0.3173  0.1647  0.3122
  414SOL    HW1 1654   1.913   3.073   1.155  0.3445  3.8122  2.2219
  414SOL    HW2 1655   2.000   2.998   1.049 -0.6121  2.2175 -0.1786
  414SOL     MW 1656   1.978   3.011   1.134  0.1983  0.9168  0.4994
  415SOL     OW 1657   1.805   2.732   1.098 -0.5230  0.8375  0.4235
  415SOL    HW1 1658   1.770   2.689   1.174 -0.4301  0.0102 -0.0919
  415SOL    HW2 1659   1.874   2.790   1.130  0.3918  0.4779  0.9927
  415SOL     MW 1660   1.809   2.734   1.112 -0.3900  0.6809  0.4306
  416SOL     OW 1661   0.548   1.992   1.336 -0.0113  0.0876  0.2596
  416SOL    HW1 1662   0.515   2.063   1.277 -1.4632 -1.5264 -2.8220
  416SOL    HW2 1663   0.532   1.915   1.273 -0.4182 -2.5897 -0.5099
  416SOL     MW 1664   0.541   1.991   1.320 -0.2565 -0.4786 -0.2485
  417SOL     OW 1665   0.997   2.999   2.057  0.1040  0.0052 -0.0582
  417SOL    HW1 1666   0.935   3.024   2.127  3.0110  3.0769 -2.1652
  417SOL    HW2 1667   0.934   2.958   1.997 -0.3234 -3.7867  0.5625
  417SOL     MW 1668   0.980   2.997   2.058  0.4312 -0.0898 -0.2543
  418SOL     OW 1669   0.670   2.919   0.144  0.5713 -0.1521  0.5029
  418SOL    HW1 1670   0.758   2.895   0.106  1.0521 -1.3306  0.8296
  418SOL    HW2 1671   0.609   2.865   0.092 -1.5684  1.4851  0.8992
  418SOL     MW 1672   0.674   2.908   0.132  0.3524 -0.0916  0.5983
  419SOL     OW 1673   0.491   2.631   1.313  0.1755 -0.0994 -0.0928
  419SOL    HW1 1674   0.542   2.692   1.369  2.6296  2.7692 -2.1301
  419SOL    HW2 1675   0.522   2.646   1.223  2.8358  0.2559  0.1740
  419SOL     MW 1676   0.502   2.641   1.309  0.8503  0.3259 -0.3264
  420SOL     OW 1677   0.812   2.213   1.045 -0.6875  0.1361  0.4115
  420SOL    HW1 1678   0.778   2.245   1.128  0.0408  1.2159  0.3504
  420SOL    HW2 1679   0.841   2.288   0.999  0.8717 -0.2535 -2.7299
  420SOL     MW 1680   0.812   2.227   1.050 -0.3857  0.2272 -0.0110
  421SOL     OW 1681   2.988   0.199   3.051  0.1298 -0.0375  0.1712
  421SOL    HW1 1682   2.894   0.181   3.024  1.2076 -2.3559  1.8701
  421SOL    HW2 1683   3.023   0.112   3.059 -1.0120  1.0300  1.2836
  421SOL     MW 1684   2.980   0.185   3.049  0.1214 -0.2026  0.5421
  422SOL     OW 1685   0.879   2.486   0.950 -0.2297 -0.6407  0.3856
  422SOL    HW1 1686   0.852   2.581   0.967 -1.9978  0.0078  0.4864
  422SOL    HW2 1687   0.872   2.476   0.857 -0.3231  0.3073  1.3620
  422SOL     MW 1688   0.874   2.498   0.940 -0.4753 -0.4300  0.5277
  423SOL     OW 1689   1.452   0.077   0.486  0.8225 -0.3874  0.0700
  423SOL    HW1 1690   1.456   0.066   0.391 -3.2414 -1.3063 -0.0936
  423SOL    HW2 1691   1.455   0.168   0.493 -0.1925 -3.6704 -0.8762
  423SOL     MW 1692   1.453   0.088   0.474  0.1524 -0.9418 -0.0764
  424SOL     OW 1693   0.665   2.296   1.264 -0.0326 -0.7576  0.4271
  424SOL    HW1 1694   0.611   2.229   1.230 -0.8688  3.6186  1.6513
  424SOL    HW2 1695   0.661   2.280   1.357 -1.2950 -0.6607  0.1758
  424SOL     MW 1696   0.658   2.285   1.272 -0.3095 -0.1674  0.5555
  425SOL     OW 1697   1.713   2.770   2.057 -0.3749 -0.3831  0.6399
  425SOL    HW1 1698   1.715   2.785   1.955  2.3425  1.8331  1.1947
  425SOL    HW2 1699   1.716   2.672   2.075  1.2753 -1.3986  1.3081
  425SOL     MW 1700   1.714   2.759   2.046  0.2014 -0.2247  0.8012
  426SOL     OW 1701   0.847   1.671   1.962  0.4055  0.6460  0.0076
  426SOL    HW1 1702   0.801   1.690   1.882  0.4273  0.9527  4.0547
  426SOL    HW2 1703   0.829   1.753   2.008 -0.1519 -1.1482  1.4283
  426SOL     MW 1704   0.838   1.684   1.957  0.3348  0.4498  0.7291
  427SOL     OW 1705   0.380   1.680   1.859 -0.2340  0.7582 -0.2425
  427SOL    HW1 1706   0.421   1.615   1.804 -2.7580  1.9513  0.6968
  427SOL    HW2 1707   0.298   1.640   1.903 -1.5288  0.2069  1.7773
  427SOL     MW 1708   0.374   1.666   1.857 -0.7379  0.8429  0.1479
  428SOL     OW 1709   0.549   2.560   1.010 -0.1013  0.2668 -0.1606
  428SOL    HW1 1710   0.620   2.502   1.003 -0.9055 -0.6867  0.8564
  428SOL    HW2 1711   0.466   2.510   1.042 -1.7398  1.8147  0.6060
  428SOL     MW 1712   0.548   2.546   1.013 -0.4236  0.3452  0.0747
  429SOL     OW 1713   1.249   2.815   1.137 -0.1474  0.1711 -0.1387
  429SOL    HW1 1714   1.160   2.820   1.175 -0.1462 -2.2642  4.2537
  429SOL    HW2 1715   1.253   2.885   1.072 -1.8207  1.4122  1.0774
  429SOL     MW 1716   1.238   2.825   1.133 -0.3680  0.0136  0.6013
  430SOL     OW 1717   1.155   2.736   0.712  0.0060  0.2802 -0.0669
  430SOL    HW1 1718   1.162   2.642   0.729  0.1659 -1.2324 -0.1939
  430SOL    HW2 1719   1.139   2.726   0.618 -0.3987 -2.3074 -3.2280
  430SOL     MW 1720   1.154   2.722   0.702 -0.0263 -0.2608 -0.5008
  431SOL     OW 1721   0.318   1.971   1.029 -0.3346  0.3753  0.4602
  431SOL    HW1 1722   0.374   1.899   0.998 -1.1337 -2.8853  0.8077
  431SOL    HW2 1723   0.274   2.006   0.948  1.3841 -0.1104  2.3553
  431SOL     MW 1724   0.319   1.966   1.014 -0.2133 -0.1190  0.7561
  432SOL     OW 1725   0.080   0.056   1.191  0.2507  0.0649 -0.1156
  432SOL    HW1 1726   0.060   0.091   1.277  0.5044 -2.6828 -0.6073
  432SOL    HW2 1727   0.030  -0.025   1.186 -0.1924  1.6722  1.1331
  432SOL     MW 1728   0.070   0.050   1.202  0.2257 -0.0856 -0.0157
  433SOL     OW 1729   0.614   2.818   1.489 -0.0559  0.4883 -0.3749
  433SOL    HW1 1730   0.594   2.837   1.577 -0.6597  0.9119 -1.9822
  433SOL    HW2 1731   0.708   2.853   1.485  0.4765 -2.5950 -0.4033
  433SOL     MW 1732   0.624   2.825   1.500 -0.0653  0.1374 -0.5907
  434SOL     OW 1733   1.573   2.757   1.530 -0.7058 -0.1881  0.2365
  434SOL    HW1 1734   1.486   2.799   1.513 -0.0931  0.7669 -1.6869
  434SOL    HW2 1735   1.607   2.715   1.451 -0.1615 -1.1070  1.3343
  434SOL     MW 1736   1.566   2.757   1.518 -0.5532 -0.1833  0.1276
  435SOL     OW 1737   2.815   1.803   0.194 -0.3736  0.2211  0.0960
  435SOL    HW1 1738   2.878   1.876   0.173  1.3166 -1.3218 -0.4438
  435SOL    HW2 1739   2.767   1.784   0.107  1.8152  0.4626  1.8167
  435SOL     MW 1740   2.817   1.810   0.180  0.1382  0.0494  0.2518
  436SOL     OW 1741   1.386   2.670   0.416 -0.4741 -0.3160 -0.1789
  436SOL    HW1 1742   1.458   2.672   0.482 -0.0837 -0.8967 -0.0180
  436SOL    HW2 1743   1.357   2.759   0.394  2.7511 -4.3237  0.3120
  436SOL     MW 1744   1.391   2.682   0.422  0.0029 -0.9214 -0.0929
  437SOL     OW 1745   0.899   3.006   1.335  0.2151 -0.4131 -0.4300
  437SOL    HW1 1746   0.983   3.052   1.316  0.6034 -2.3276  1.6658
  437SOL    HW2 1747   0.928   2.924   1.291 -2.5773  0.0770 -2.1963
  437SOL     MW 1748   0.914   3.001   1.327 -0.1021 -0.6011 -0.3865
  438SOL     OW 1749   0.806   2.587   1.905 -0.0730 -0.3640  1.1128
  438SOL    HW1 1750   0.820   2.569   2.002  0.4426  0.8134  0.8172
  438SOL    HW2 1751   0.777   2.507   1.862  1.8024  2.6348 -0.1607
  438SOL     MW 1752   0.804   2.574   1.912  0.2425  0.1870  0.9058
  439SOL     OW 1753   1.235   2.109   0.414 -0.5122  0.1451  0.2474
  439SOL    HW1 1754   1.175   2.146   0.480  1.4169  0.2894 -1.0389
  439SOL    HW2 1755   1.230   2.178   0.345  0.6572 -0.2387 -1.8788
  439SOL     MW 1756   1.226   2.123   0.413 -0.1034  0.1135 -0.2028
  440SOL     OW 1757   1.735   2.994   3.063 -0.2431 -0.0181 -0.2977
  440SOL    HW1 1758   1.685   2.960   3.141 -0.9963 -2.3155  0.0534
  440SOL    HW2 1759   1.816   2.948   3.075 -0.1952 -1.2131  1.0029
  440SOL     MW 1760   1.739   2.984   3.075 -0.3361 -0.4788 -0.0798
  441SOL     OW 1761   0.363   2.668   0.500  0.5388  0.5193  0.0785
  441SOL    HW1 1762   0.372   2.645   0.408  0.2261  2.3680 -2.2864
  441SOL    HW2 1763   0.361   2.762   0.492 -0.0732 -0.7581  0.8161
  441SOL     MW 1764   0.364   2.677   0.487  0.4168  0.5947 -0.1362
  442SOL     OW 1765   3.060   2.366   0.598 -0.4582 -0.6726 -0.7446
  442SOL    HW1 1766   3.081   2.461   0.570 -0.4682  0.0456 -1.5620
  442SOL    HW2 1767   2.973   2.372   0.632  0.1951 -0.6237 -1.6433
  442SOL     MW 1768   3.051   2.379   0.599 -0.3733 -0.5714 -0.9710
  443SOL     OW 1769   1.467   1.751   1.958  0.6783  0.1214  0.1591
  443SOL    HW1 1770   1.451   1.801   1.878  0.6682  0.1053  0.8751
  443SOL    HW2 1771   1.385   1.703   1.952 -0.0102 -2.8584  1.1149
  443SOL     MW 1772   1.454   1.752   1.946  0.5861 -0.2739  0.3797
  444SOL     OW 1773   0.875   2.565   1.578  0.5648  0.1345  0.1123
  444SOL    HW1 1774   0.955   2.539   1.619  1.7990 -1.3225 -3.4432
  444SOL    HW2 1775   0.804   2.542   1.637  0.9926 -0.2688 -0.0505
  444SOL     MW 1776   0.876   2.558   1.591  0.7841 -0.1109 -0.3783
  445SOL     OW 1777   1.109   0.064   1.322  0.3051  0.0328  0.2711
  445SOL    HW1 1778   1.034   0.114   1.360  0.8763  0.1657  1.2724
  445SOL    HW2 1779   1.151   0.113   1.255 -1.2985  2.0994 -1.1208
  445SOL     MW 1780   1.105   0.077   1.318  0.1689  0.3230  0.2196
  446SOL     OW 1781   2.768   2.873   1.092  0.0252 -0.1766 -0.3433
  446SOL    HW1 1782   2.713   2.909   1.026  3.2721  0.1151 -1.1145
  446SOL    HW2 1783   2.797   2.789   1.056 -0.1589 -1.2557  0.0241
  446SOL     MW 1784   2.764   2.867   1.079  0.4293 -0.2805 -0.3966
  447SOL     OW 1785   0.035   1.995   1.643  0.0463 -0.1580 -0.1325
  447SOL    HW1 1786   0.078   1.911   1.673 -1.2160 -0.3146  1.4664
  447SOL    HW2 1787  -0.053   1.972   1.599 -1.0736  0.2934  1.6259
  447SOL     MW 1788   0.029   1.981   1.641 -0.2680 -0.1191  0.3105
  448SOL     OW 1789   1.733   2.405   1.669  0.8336  0.3544  0.4222
  448SOL    HW1 1790   1.704   2.311   1.658 -0.2115  0.6748  0.7503
  448SOL    HW2 1791   1.653   2.451   1.680  0.9291 -2.9625  2.0135
  448SOL     MW 1792   1.719   2.399   1.669  0.7083 -0.0410  0.6754
  449SOL     OW 1793   0.849   2.890   0.356  1.0294 -0.2896 -0.1964
  449SOL    HW1 1794   0.780   2.907   0.288 -0.1973 -0.3464 -1.9695
  449SOL    HW2 1795   0.809   2.891   0.445 -0.8051  1.6264 -2.5162
  449SOL     MW 1796   0.834   2.893   0.359  0.6255 -0.0443 -0.7365
  450SOL     OW 1797   1.179   2.436   0.715 -0.2500  0.3971 -0.2159
  450SOL    HW1 1798   1.162   2.383   0.795 -1.5552 -2.9649 -1.6486
  450SOL    HW2 1799   1.269   2.423   0.688  1.0031 -0.9469 -1.0092
  450SOL     MW 1800   1.189   2.428   0.722 -0.2569 -0.2238 -0.5096
  451SOL     OW 1801   0.557   2.015   1.647  0.1841 -0.5355  0.0520
  451SOL    HW1 1802   0.591   2.095   1.616  2.1734 -2.4461 -0.2160
  451SOL    HW2 1803   0.524   1.969   1.571  0.1627 -0.9690  3.4364
  451SOL     MW 1804   0.557   2.020   1.633  0.4437 -0.8448  0.4632
  452SOL     OW 1805   0.274   2.667   0.050  0.0681 -0.1499  0.0965
  452SOL    HW1 1806   0.355   2.694   0.017 -0.6993  0.2049 -0.8764
  452SOL    HW2 1807   0.222   2.744   0.044 -2.8152  0.6950 -0.1131
  452SOL     MW 1808   0.278   2.681   0.045 -0.4136  0.0084 -0.0595
  453SOL     OW 1809   0.338   2.990   1.605  0.0978  0.1914  0.2861
  453SOL    HW1 1810   0.407   2.958   1.663 -1.1111  3.1500 -0.2710
  453SOL    HW2 1811   0.394   3.053   1.552  0.0761  1.0643  0.7672
  453SOL     MW 1812   0.355   2.994   1.606 -0.0646  0.6969  0.2761
  454SOL     OW 1813   0.979   2.782   1.209  0.2782  0.4607 -0.2635
  454SOL    HW1 1814   0.925   2.702   1.207  1.0977  0.0452  2.3232
  454SOL    HW2 1815   0.925   2.824   1.139 -2.0740  1.5874 -0.7362
  454SOL     MW 1816   0.965   2.777   1.200  0.0760  0.5545  0.0154
  455SOL     OW 1817   1.603   2.861   0.160 -0.1680 -0.2403  0.5231
  455SOL    HW1 1818   1.677   2.870   0.225 -0.0857 -0.4308  1.5961
  455SOL    HW2 1819   1.565   2.774   0.166 -0.0609 -0.7060 -0.2411
  455SOL     MW 1820   1.608   2.851   0.170 -0.1430 -0.3269  0.5638
  456SOL     OW 1821   2.733   0.337   1.528  0.1713 -1.0394  0.2924
  456SOL    HW1 1822   2.692   0.264   1.474 -1.6340 -2.8301 -2.3249
  456SOL    HW2 1823   2.804   0.373   1.486 -0.7358  2.1444  0.3797
  456SOL     MW 1824   2.737   0.332   1.515 -0.1866 -0.8556 -0.0414
  457SOL     OW 1825   0.901   1.588   3.031  0.0964  0.1213  0.6279
  457SOL    HW1 1826   0.803   1.578   3.023 -0.3431  4.0602  1.1527
  457SOL    HW2 1827   0.911   1.581   3.125 -1.0768  2.7356  2.4537
  457SOL     MW 1828   0.889   1.586   3.042 -0.1164  0.9859  0.9381
  458SOL     OW 1829   1.374   1.469   0.571  0.1868 -0.4414  0.3660
  458SOL    HW1 1830   1.341   1.556   0.545  3.0262 -1.4960 -1.2687
  458SOL    HW2 1831   1.348   1.407   0.500 -0.3931 -0.6611  0.6139
  458SOL     MW 1832   1.366   1.473   0.558  0.4850 -0.6095  0.1831
  459SOL     OW 1833   1.485   0.026   0.223  0.4362 -0.0808  0.4968
  459SOL    HW1 1834   1.522  -0.061   0.203 -0.2079  0.2275 -0.2842
  459SOL    HW2 1835   1.418   0.038   0.156  0.0243  1.3664 -0.2390
  459SOL     MW 1836   1.481   0.016   0.212  0.2969  0.1508  0.2967
  460SOL     OW 1837   1.777   2.138   0.621  0.5474  0.3842  0.2236
  460SOL    HW1 1838   1.693   2.130   0.671 -0.9331  3.1743 -0.4222
  460SOL    HW2 1839   1.811   2.052   0.594 -0.8324  0.4856  1.1430
  460SOL     MW 1840   1.771   2.125   0.624  0.1701  0.7657  0.2597
  461SOL     OW 1841   0.402   2.392   0.555  0.5045 -0.1905 -0.1040
  461SOL    HW1 1842   0.389   2.487   0.540  1.1592  2.8008 -1.0751
  461SOL    HW2 1843   0.373   2.377   0.648  0.3586  2.2092  2.2533
  461SOL     MW 1844   0.396   2.402   0.565  0.5716  0.5208  0.0789
  462SOL     OW 1845   0.322   0.253   1.278  0.1243 -0.2344 -0.6068
  462SOL    HW1 1846   0.349   0.218   1.197 -2.5313  0.9080  0.1001
  462SOL    HW2 1847   0.411   0.265   1.321  1.3378  2.5568 -2.6784
  462SOL     MW 1848   0.337   0.250   1.273 -0.0659  0.2846 -0.7869
  463SOL     OW 1849   0.981   0.096   0.676 -0.3322  0.2637 -0.0633
  463SOL    HW1 1850   1.026   0.092   0.592 -0.0852  0.5154 -1.5221
  463SOL    HW2 1851   0.885   0.082   0.650  1.4803 -0.4514 -0.0777
  463SOL     MW 1852   0.974   0.093   0.662 -0.0605  0.2026 -0.2576
  464SOL     OW 1853   0.774   3.066   2.260 -0.1718 -0.6488 -0.4810
  464SOL    HW1 1854   0.776   2.972   2.252 -0.5911 -0.2566  0.9479
  464SOL    HW2 1855   0.759   3.079   2.353  0.0185 -1.4735 -1.9268
  464SOL     MW 1856   0.772   3.055   2.271 -0.2020 -0.7059 -0.4833
  465SOL     OW 1857   0.840   0.279   0.476  0.8548 -0.2373 -0.1920
  465SOL    HW1 1858   0.774   0.231   0.534  2.2141 -0.7751  0.0283
  465SOL    HW2 1859   0.821   0.260   0.379  0.6027 -1.0316 -0.1651
  465SOL     MW 1860   0.829   0.270   0.471  1.0009 -0.4130 -0.1594
  466SOL     OW 1861   0.996   2.031   0.724 -0.5797 -0.3280  0.8321
  466SOL    HW1 1862   1.012   1.950   0.676  0.0481 -0.8788  0.4402
  466SOL    HW2 1863   1.008   2.100   0.656  0.6741 -0.2612  1.6844
  466SOL     MW 1864   1.000   2.030   0.709 -0.3314 -0.3918  0.8928
  467SOL     OW 1865   1.230   2.289   0.947  0.4262  0.1112  0.4789
  467SOL    HW1 1866   1.316   2.321   0.919  0.3918  2.2634  0.7344
  467SOL    HW2 1867   1.211   2.204   0.902  1.1941 -1.6898 -0.1298
  467SOL     MW 1868   1.239   2.282   0.938  0.5230  0.1576  0.4323
  468SOL     OW 1869   0.415   2.639   1.995  0.4834  0.0801 -0.3221
  468SOL    HW1 1870   0.423   2.579   1.922 -0.8451  1.3413 -0.1675
  468SOL    HW2 1871   0.357   2.706   1.960  1.8136  1.6554 -4.7620
  468SOL     MW 1872   0.408   2.640   1.981  0.4836  0.4544 -0.8875
  469SOL     OW 1873   0.375   2.147   1.853  0.1604 -0.2493  0.4957
  469SOL    HW1 1874   0.305   2.082   1.872 -1.1496 -0.3918  0.5892
  469SOL    HW2 1875   0.447   2.098   1.822 -2.9561  0.4146  1.3824
  469SOL     MW 1876   0.375   2.132   1.852 -0.4236 -0.1805  0.6250
  470SOL     OW 1877   3.022   2.608   0.133  0.1166 -0.4051  0.1092
  470SOL    HW1 1878   2.941   2.585   0.187 -0.8424 -0.1334  2.8266
  470SOL    HW2 1879   3.003   2.618   0.037 -0.3173 -2.4825  0.3285
  470SOL     MW 1880   3.009   2.606   0.128 -0.0672 -0.6434  0.4967
  471SOL     OW 1881   1.178   2.658   1.441 -0.2107 -0.4319 -0.5382
  471SOL    HW1 1882   1.152   2.607   1.515  2.0777 -0.2933  0.6856
  471SOL    HW2 1883   1.110   2.662   1.372 -0.4745  2.8450  0.7224
  471SOL     MW 1884   1.166   2.652   1.442  0.0564  0.0187 -0.2104
  472SOL     OW 1885   2.831   2.127   0.331 -0.4396  0.1389  0.0179
  472SOL    HW1 1886   2.865   2.059   0.266 -0.9710 -0.7417  2.4778
  472SOL    HW2 1887   2.775   2.070   0.390 -0.2152 -1.7828  0.7928
  472SOL     MW 1888   2.828   2.111   0.330 -0.4801 -0.2308  0.4447
  473SOL     OW 1889   0.815   2.528   1.281 -0.2127  0.0931  0.4732
  473SOL    HW1 1890   0.746   2.465   1.272  2.2207  0.1473 -2.2110
  473SOL    HW2 1891   0.851   2.521   1.371 -4.5849 -0.6674  3.3082
  473SOL     MW 1892   0.810   2.519   1.292 -0.4685 -0.0001  0.4931
  474SOL     OW 1893   0.858   2.081   1.807 -0.5000  0.4113 -0.0528
  474SOL    HW1 1894   0.943   2.121   1.823  1.4709 -0.0523  3.8543
  474SOL    HW2 1895   0.838   2.091   1.715 -0.8426 -2.5867 -0.8850
  474SOL     MW 1896   0.866   2.087   1.797 -0.2851 -0.0454  0.3529
  475SOL     OW 1897   1.644   3.071   1.453 -0.2441  0.2037  0.6167
  475SOL    HW1 1898   1.565   3.086   1.400 -1.2669  1.1917 -1.6547
  475SOL    HW2 1899   1.645   2.974   1.467 -1.5011 -0.2096 -0.9987
  475SOL     MW 1900   1.634   3.060   1.448 -0.5449  0.2795  0.1039
  476SOL     OW 1901   1.426   2.614   1.030 -0.4098  0.6494 -0.1595
  476SOL    HW1 1902   1.359   2.667   1.074  1.2476 -1.8147  1.1342
  476SOL    HW2 1903   1.455   2.671   0.963  1.4862 -0.6074 -0.4117
  476SOL     MW 1904   1.421   2.628   1.027  0.0591  0.1584 -0.0221
  477SOL     OW 1905   0.804   2.490   0.667 -0.4571 -0.6377 -0.1134
  477SOL    HW1 1906   0.853   2.547   0.607  1.9952 -0.0428  0.0121
  477SOL    HW2 1907   0.802   2.402   0.627  1.1388  0.4288 -3.1316
  477SOL     MW 1908   0.810   2.486   0.654  0.0770 -0.4185 -0.4951
  478SOL     OW 1909   0.175   2.673   0.923 -0.4057 -0.3344 -0.0539
  478SOL    HW1 1910   0.237   2.740   0.924  0.9731  2.2731  1.4102
  478SOL    HW2 1911   0.199   2.608   0.860 -0.9774 -0.4942  0.2614
  478SOL     MW 1912   0.186   2.673   0.915 -0.2992 -0.0115  0.1808
  479SOL     OW 1913   1.469   1.977   1.239  0.2320 -0.5807 -0.0954
  479SOL    HW1 1914   1.454   2.007   1.328  0.3478 -0.0813  0.6945
  479SOL    HW2 1915   1.515   1.891   1.254  2.4376  1.7935  1.4279
  479SOL     MW 1916   1.473   1.970   1.253  0.5383 -0.2016  0.2098
  480SOL     OW 1917   1.906   2.404   1.265  0.9508 -0.4135  0.2715
  480SOL    HW1 1918   1.876   2.314   1.253  3.6568 -2.0970 -0.5132
  480SOL    HW2 1919   1.936   2.435   1.177 -0.0419  1.0823 -0.1302
  480SOL     MW 1920   1.906   2.396   1.252  1.1769 -0.4383  0.1150
  481SOL     OW 1921   1.022   0.006   1.004  0.3142 -0.1888  0.9776
  481SOL    HW1 1922   1.090  -0.043   0.954  0.2955  0.2442 -0.6766
  481SOL    HW2 1923   1.062   0.089   1.018 -0.0676 -0.2107  3.3145
  481SOL     MW 1924   1.036   0.010   0.999  0.2613 -0.1345  1.0676
  482SOL     OW 1925   1.081   3.049   0.276  0.1532 -0.6753 -0.0308
  482SOL    HW1 1926   1.027   2.973   0.297 -0.1732 -2.2450 -0.7888
  482SOL    HW2 1927   1.094   3.097   0.357 -1.7974 -2.3527  3.0290
  482SOL     MW 1928   1.076   3.045   0.289 -0.1472 -1.1037  0.2729
  483SOL     OW 1929   0.415   2.960   0.437 -0.2769  0.3590  0.4097
  483SOL    HW1 1930   0.358   2.981   0.358 -0.5723  1.3351 -0.6178
  483SOL    HW2 1931   0.380   3.011   0.515  0.6122 -0.5810  2.5511
  483SOL     MW 1932   0.403   2.969   0.437 -0.1986  0.3638  0.5567
  484SOL     OW 1933   1.777   1.894   1.458  0.5431 -0.1145  0.6367
  484SOL    HW1 1934   1.787   1.980   1.418  1.2663  0.2468  0.1366
  484SOL    HW2 1935   1.769   1.916   1.551  2.1918  3.5296 -0.4442
  484SOL     MW 1936   1.777   1.908   1.465  0.8560  0.4139  0.4281
  485SOL     OW 1937   0.472   2.285   0.244 -0.1841 -0.2271  0.0986
  485SOL    HW1 1938   0.472   2.225   0.328 -0.3565 -0.6563  2.8355
  485SOL    HW2 1939   0.406   2.352   0.260 -0.1720 -1.6693  3.9923
  485SOL     MW 1940   0.463   2.286   0.257 -0.2052 -0.4740  0.9734
  486SOL     OW 1941   0.178   2.408   1.512  0.9081  0.1252 -1.0480
  486SOL    HW1 1942   0.213   2.484   1.472 -0.4018  1.5317  0.9420
  486SOL    HW2 1943   0.169   2.427   1.610  1.2146  1.8198 -0.7825
  486SOL     MW 1944   0.181   2.421   1.520  0.7757  0.5344 -0.7504
  487SOL     OW 1945   1.227   1.660   1.020 -0.6212 -0.0836 -0.2603
  487SOL    HW1 1946   1.223   1.750   1.059 -2.3780  1.8973  2.2859
  487SOL    HW2 1947   1.319   1.646   0.979  1.7595 -0.0063 -0.2128
  487SOL     MW 1948   1.238   1.670   1.020 -0.5389  0.1879  0.0819
  488SOL     OW 1949   1.661   1.849   0.491 -0.5937  0.2859  0.6304
  488SOL    HW1 1950   1.735   1.857   0.427  1.2761  0.4266 -2.0137
  488SOL    HW2 1951   1.598   1.925   0.477  0.9268 -0.7567 -0.4213
  488SOL     MW 1952   1.663   1.860   0.481 -0.1464  0.1669  0.1428
  489SOL     OW 1953   0.688   0.764   0.591 -0.0258  0.5016 -0.2176
  489SOL    HW1 1954   0.714   0.677   0.552 -0.6215 -0.4948 -1.8339
  489SOL    HW2 1955   0.688   0.767   0.687 -1.9007  2.2442 -0.9237
  489SOL     MW 1956   0.691   0.753   0.599 -0.3518  0.6001 -0.5240
  490SOL     OW 1957   1.483   2.056   0.462 -0.2796  0.5265 -0.2519
  490SOL    HW1 1958   1.502   2.149   0.445  1.9017  1.6697 -0.6679
  490SOL    HW2 1959   1.384   2.054   0.454  1.9451 -0.8843 -0.2031
  490SOL     MW 1960   1.473   2.068   0.459  0.3018  0.4912 -0.3004
  491SOL     OW 1961   1.310   2.926   0.383  0.2405  0.8988 -0.9181
  491SOL    HW1 1962   1.357   2.997   0.429  3.5254 -0.7097  0.8374
  491SOL    HW2 1963   1.229   2.963   0.341 -0.9652 -0.3148 -0.3981
  491SOL     MW 1964   1.305   2.940   0.384  0.5148  0.5265 -0.6179
  492SOL     OW 1965   1.508   2.080   0.736 -0.4779 -0.2827  0.7989
  492SOL    HW1 1966   1.511   2.048   0.641  0.4288 -0.3666 -0.4424
  492SOL    HW2 1967   1.433   2.036   0.770  1.1525  0.4266 -0.1511
  492SOL     MW 1968   1.498   2.070   0.728 -0.1431 -0.2002  0.5098
  493SOL     OW 1969   0.217   2.997   0.278 -0.0675  0.3592 -0.1496
  493SOL    HW1 1970   0.163   3.052   0.337  0.2988 -0.9023  2.6469
  493SOL    HW2 1971   0.236   3.052   0.201  1.0184  0.3077 -0.4651
  493SOL     MW 1972   0.212   3.012   0.276  0.1241  0.1860  0.1777
  494SOL     OW 1973   0.404   2.449   1.793 -0.1902 -0.3527 -0.3480
  494SOL    HW1 1974   0.433   2.365   1.836  1.2157 -1.2431 -0.2189
  494SOL    HW2 1975   0.440   2.450   1.698 -0.9896  1.2001  0.0646
  494SOL     MW 1976   0.413   2.438   1.786 -0.1102 -0.2653 -0.2766
  495SOL     OW 1977   2.923   1.666   2.594  0.3575 -0.2976  0.3957
  495SOL    HW1 1978   2.939   1.756   2.552  0.7767  1.1097 -1.6529
  495SOL    HW2 1979   2.913   1.681   2.689  0.2534 -0.8307 -2.3368
  495SOL     MW 1980   2.924   1.680   2.601  0.3991 -0.1823 -0.2351
  496SOL     OW 1981   2.917   2.302   2.678  0.3911  0.2491 -0.1109
  496SOL    HW1 1982   2.953   2.224   2.716 -1.1336  1.5284  3.3042
  496SOL    HW2 1983   2.961   2.378   2.706  0.7934  1.2053  1.4781
  496SOL     MW 1984   2.928   2.302   2.687  0.2430  0.5440  0.5493
  497SOL     OW 1985   1.504   2.265   2.642 -0.3854  0.0777  0.0727
  497SOL    HW1 1986   1.465   2.231   2.563  1.5282 -0.1106  0.1481
  497SOL    HW2 1987   1.490   2.189   2.697  0.6397  1.6597  1.2695
  497SOL     MW 1988   1.497   2.251   2.639  0.0024  0.2616  0.2406
  498SOL     OW 1989   1.536   2.745   2.367 -0.4012  0.1395 -0.4328
  498SOL    HW1 1990   1.532   2.653   2.338  2.5364 -3.4843  0.1416
  498SOL    HW2 1991   1.619   2.748   2.420 -1.4591  2.4967  1.7328
  498SOL     MW 1992   1.547   2.733   2.370 -0.1532 -0.0276 -0.0713
  499SOL     OW 1993   0.931   0.089   0.077 -0.3662 -0.0685  0.2740
  499SOL    HW1 1994   0.864   0.123   0.143  0.1997 -1.0409  0.6161
  499SOL    HW2 1995   0.961   0.021   0.139  1.3452 -2.3327  0.2227
  499SOL     MW 1996   0.926   0.085   0.094 -0.0657 -0.4955  0.3124
  500SOL     OW 1997   1.114   2.572   2.780 -0.1994 -0.4558  0.4879
  500SOL    HW1 1998   1.104   2.513   2.852  0.3629  0.1726  0.4396
  500SOL    HW2 1999   1.034   2.622   2.795  0.9656  0.3487 -1.2111
  500SOL     MW 2000   1.102   2.571   2.791  0.0285 -0.2667  0.2574
  501SOL     OW 2001   1.751   2.260   0.017 -0.2628  0.0742 -0.3174
  501SOL    HW1 2002   1.769   2.333   0.068 -1.4957 -0.9976 -3.5494
  501SOL    HW2 2003   1.829   2.243  -0.037  2.4841  1.2832 -2.1617
  501SOL     MW 2004   1.764   2.267   0.017 -0.0630  0.0923 -0.9872
  502SOL     OW 2005   0.105   2.843   2.977  0.2789 -0.0598  0.3603
  502SOL    HW1 2006   0.051   2.770   2.940  0.5943  0.8357  4.2599
  502SOL    HW2 2007   0.172   2.859   2.911 -0.7448 -1.9913  1.5172
  502SOL     MW 2008   0.107   2.836   2.963  0.1854 -0.1965  1.0275
  503SOL     OW 2009   1.134   2.719   2.125  0.1834  0.1700  0.0529
  503SOL    HW1 2010   1.139   2.705   2.033 -0.5570 -0.8497  1.3116
  503SOL    HW2 2011   1.054   2.773   2.135  0.5738  2.4676  2.1866
  503SOL     MW 2012   1.124   2.725   2.114  0.1372  0.3386  0.5005
  504SOL     OW 2013   0.036   2.709   2.117  0.6488 -0.3776 -0.3048
  504SOL    HW1 2014   0.069   2.621   2.117  0.2994  0.0681  2.1671
  504SOL    HW2 2015  -0.035   2.716   2.056  2.4564 -0.5045  0.4274
  504SOL     MW 2016   0.031   2.699   2.109  0.8412 -0.3355  0.1180
  505SOL     OW 2017   1.762   2.685   2.841  0.6624  0.6865  0.3985
  505SOL    HW1 2018   1.769   2.685   2.744 -0.3704  0.9222 -0.6971
  505SOL    HW2 2019   1.673   2.725   2.861 -1.7742  2.8837 -0.0825
  505SOL     MW 2020   1.751   2.690   2.831  0.2046  1.0075  0.1905
  506SOL     OW 2021   1.588   3.077   2.846  0.0238  0.0771  0.1783
  506SOL    HW1 2022   1.631   3.076   2.933  1.0660 -1.7338 -1.2907
  506SOL    HW2 2023   1.658   3.051   2.778 -1.2365 -2.0431 -1.1880
  506SOL     MW 2024   1.603   3.074   2.848 -0.0050 -0.4416 -0.1958
  507SOL     OW 2025   0.904   2.749   2.839 -0.1915  0.4317  0.4718
  507SOL    HW1 2026   0.903   2.835   2.792 -0.6004  4.3465  0.0390
  507SOL    HW2 2027   0.810   2.727   2.826  2.6126  2.2911  1.9911
  507SOL     MW 2028   0.891   2.757   2.831  0.1245  1.1936  0.6151
  508SOL     OW 2029   1.147   2.101   2.489  0.2521  0.4627  0.0788
  508SOL    HW1 2030   1.209   2.066   2.553 -0.7644 -1.4294  1.4277
  508SOL    HW2 2031   1.113   2.178   2.529  0.9438 -5.0891 -1.4022
  508SOL     MW 2032   1.150   2.106   2.502  0.2093 -0.5194  0.0613
  509SOL     OW 2033   0.691   2.584   2.720  0.6855 -0.5496 -0.1293
  509SOL    HW1 2034   0.661   2.527   2.653 -1.9500 -0.1308  0.4540
  509SOL    HW2 2035   0.611   2.621   2.757  0.5660  1.2916  3.0345
  509SOL     MW 2036   0.676   2.581   2.716  0.3220 -0.2514  0.3651
  510SOL     OW 2037   1.491   2.551   1.674 -0.1621 -0.6283 -0.2916
  510SOL    HW1 2038   1.503   2.640   1.643 -1.5528  2.1036  1.3368
  510SOL    HW2 2039   1.429   2.565   1.744 -1.9270  0.2084  1.3646
  510SOL     MW 2040   1.485   2.565   1.679 -0.5785 -0.1574  0.1418
  511SOL     OW 2041   0.422   2.646   2.458 -0.0376 -0.0261 -0.2057
  511SOL    HW1 2042   0.493   2.571   2.463 -0.3178  0.7577  0.3508
  511SOL    HW2 2043   0.450   2.687   2.372  0.8700  1.2019 -3.1115
  511SOL     MW 2044   0.435   2.642   2.447  0.0452  0.2394 -0.5157
  512SOL     OW 2045   1.037   2.013   2.823  0.7204  0.4135  0.1682
  512SOL    HW1 2046   0.958   2.056   2.856  0.4954 -1.1923 -0.1237
  512SOL    HW2 2047   1.052   1.936   2.879  1.2588  0.0610 -0.3623
  512SOL     MW 2048   1.028   2.008   2.835  0.7618  0.1551  0.0597
  513SOL     OW 2049   1.578   2.483   2.297 -0.8702 -0.1421  0.5075
  513SOL    HW1 2050   1.656   2.459   2.243  0.2262 -0.5600 -1.9663
  513SOL    HW2 2051   1.602   2.447   2.382 -2.9548 -0.2970  0.8393
  513SOL     MW 2052   1.592   2.475   2.301 -1.0006 -0.2177  0.2249
  514SOL     OW 2053   0.291   2.453   2.640  0.0336 -0.2731  0.0220
  514SOL    HW1 2054   0.337   2.518   2.589 -0.2503 -1.5858  0.3551
  514SOL    HW2 2055   0.333   2.472   2.730 -1.6020 -0.4141  2.1804
  514SOL     MW 2056   0.303   2.464   2.645 -0.2197 -0.4649  0.3507
  515SOL     OW 2057   1.132   2.041   1.982 -0.2995  0.7273 -0.6743
  515SOL    HW1 2058   1.149   2.122   1.937 -0.4037  0.6799  0.3278
  515SOL    HW2 2059   1.209   2.029   2.041 -0.0649  0.1085  0.0541
  515SOL     MW 2060   1.145   2.050   1.984 -0.2823  0.6394 -0.4460
  516SOL     OW 2061   1.452   2.508   0.016  0.2779 -0.6484 -0.0210
  516SOL    HW1 2062   1.505   2.495  -0.061  0.2361 -1.0657  0.3667
  516SOL    HW2 2063   1.366   2.504  -0.017  0.8505  1.3135 -1.1907
  516SOL     MW 2064   1.448   2.506   0.002  0.3480 -0.4446 -0.1242
  517SOL     OW 2065   0.581   2.431   2.118  0.1453 -0.0664  0.2293
  517SOL    HW1 2066   0.524   2.502   2.084 -0.9438  0.0246  1.1347
  517SOL    HW2 2067   0.515   2.354   2.129  0.7110  2.2867  0.7530
  517SOL     MW 2068   0.565   2.430   2.115  0.0763  0.2561  0.4178
  518SOL     OW 2069   1.786   0.214   3.064  0.0441  0.3436  0.0261
  518SOL    HW1 2070   1.743   0.275   3.013  4.2695  0.2111 -0.0422
  518SOL    HW2 2071   1.746   0.213   3.153  1.1826  2.5367  0.0047
  518SOL     MW 2072   1.775   0.222   3.069  0.7518  0.6155  0.0143
  519SOL     OW 2073   0.722   2.371   1.761 -0.3288  0.2833 -0.0327
  519SOL    HW1 2074   0.781   2.299   1.762 -0.9731  0.8969 -0.0066
  519SOL    HW2 2075   0.694   2.357   1.669 -1.7926  1.3247 -1.6598
  519SOL     MW 2076   0.726   2.360   1.749 -0.6070  0.5017 -0.2440
  520SOL     OW 2077   1.283   2.106   2.950 -0.1767 -0.1055 -0.3520
  520SOL    HW1 2078   1.187   2.098   2.932  0.1935  1.1730 -2.4845
  520SOL    HW2 2079   1.318   2.059   3.031  0.2426 -0.0833  1.1791
  520SOL     MW 2080   1.275   2.099   2.959 -0.0726  0.0661 -0.4313
  521SOL     OW 2081   1.710   2.000   2.194  0.1876 -0.1001  0.1199
  521SOL    HW1 2082   1.731   2.034   2.107 -1.8861 -1.5064  1.6611
  521SOL    HW2 2083   1.752   1.913   2.201  2.3956  2.2266  4.6591
  521SOL     MW 2084   1.719   1.993   2.183  0.2053  0.0214  0.9221
  522SOL     OW 2085   2.874   2.558   2.220 -0.0371  0.6991  0.3026
  522SOL    HW1 2086   2.925   2.483   2.249  2.0967  0.8452  2.1130
  522SOL    HW2 2087   2.877   2.625   2.295 -1.7925  0.3336  1.7808
  522SOL     MW 2088   2.881   2.557   2.233  0.0128  0.6702  0.7365
  523SOL     OW 2089   0.917   1.538   2.175 -0.1153 -0.0177 -0.6318
  523SOL    HW1 2090   0.897   1.580   2.090  0.3294 -2.9029 -1.3997
  523SOL    HW2 2091   0.978   1.470   2.145 -2.7834  0.0933  0.0881
  523SOL     MW 2092   0.922   1.535   2.160 -0.4087 -0.3837 -0.6381
  524SOL     OW 2093   0.679   2.407   2.954 -0.1336 -0.3552 -0.6824
  524SOL    HW1 2094   0.729   2.414   2.871 -1.6796 -1.5283  0.9036
  524SOL    HW2 2095   0.676   2.313   2.970  1.8765  0.1358  0.3275
  524SOL     MW 2096   0.685   2.396   2.945 -0.0723 -0.4452 -0.3399
  525SOL     OW 2097   0.336   2.298   2.065  0.5266 -0.2903 -0.4002
  525SOL    HW1 2098   0.304   2.231   2.122  2.0336  2.6261  0.5746
  525SOL    HW2 2099   0.353   2.252   1.987 -0.0725 -1.1767  0.9648
  525SOL     MW 2100   0.334   2.283   2.063  0.6464 -0.0225 -0.0915
  526SOL     OW 2101   0.659   2.104   2.009  0.3225  0.5078 -0.0318
  526SOL    HW1 2102   0.726   2.093   1.943 -1.2249 -3.4298  1.3269
  526SOL    HW2 2103   0.674   2.180   2.059  1.7863 -1.1804  0.0886
  526SOL     MW 2104   0.670   2.113   2.007  0.3115 -0.2345  0.1633
  527SOL     OW 2105   1.433   2.032   2.070  0.2872  0.2399 -0.1023
  527SOL    HW1 2106   1.399   2.015   2.158  3.7260 -1.2673 -1.0273
  527SOL    HW2 2107   1.440   1.942   2.035 -2.2211 -0.4837  0.0889
  527SOL     MW 2108   1.429   2.018   2.077  0.4100 -0.0544 -0.1991
  528SOL     OW 2109   0.644   2.897   2.899 -0.2064  0.6326  0.1394
  528SOL    HW1 2110   0.645   2.985   2.936 -2.2243  0.4925 -1.9227
  528SOL    HW2 2111   0.615   2.910   2.811  1.9067  0.0375 -0.3449
  528SOL     MW 2112   0.641   2.911   2.892 -0.1938  0.5356 -0.1966
  529SOL     OW 2113   1.064   2.288   1.848 -0.4404  0.7286 -0.2503
  529SOL    HW1 2114   1.087   2.303   1.937  0.2013 -3.0310  0.9981
  529SOL    HW2 2115   1.084   2.364   1.785  0.6877  1.3759 -1.2938
  529SOL     MW 2116   1.070   2.300   1.851 -0.2069  0.3179 -0.2233
  530SOL     OW 2117   1.185   2.404   3.019  0.3411  0.1317 -0.0093
  530SOL    HW1 2118   1.147   2.426   3.105 -0.6495 -2.0323 -2.0233
  530SOL    HW2 2119   1.219   2.315   3.028 -1.1415 -0.7150 -1.2573
  530SOL     MW 2120   1.185   2.395   3.031  0.0148 -0.2656 -0.4397
  531SOL     OW 2121   0.901   1.871   2.573  0.1254 -0.1288  0.1559
  531SOL    HW1 2122   0.943   1.950   2.596  1.2567  0.9023  0.8562
  531SOL    HW2 2123   0.890   1.821   2.657 -1.0003 -0.4990  1.0868
  531SOL     MW 2124   0.905   1.875   2.587  0.1261 -0.0416  0.3711
  532SOL     OW 2125   1.725   0.305   2.807  0.4074 -0.4240  0.2471
  532SOL    HW1 2126   1.748   0.213   2.829  1.7693 -1.5504 -2.7206
  532SOL    HW2 2127   1.801   0.353   2.843  1.4216 -0.1678  0.8262
  532SOL     MW 2128   1.738   0.299   2.815  0.7209 -0.5388 -0.0680
  533SOL     OW 2129   1.889   2.624   3.067 -0.9181  0.3382 -0.2011
  533SOL    HW1 2130   1.865   2.546   3.125 -0.3394 -3.0087 -0.5662
  533SOL    HW2 2131   1.812   2.635   3.013  1.3320 -0.6892  1.5048
  533SOL     MW 2132   1.875   2.615   3.068 -0.5449 -0.2390 -0.0242
  534SOL     OW 2133   1.729   2.408   2.541 -0.0931 -0.1569  0.1706
  534SOL    HW1 2134   1.668   2.342   2.579 -0.6431 -0.5082  0.9088
  534SOL    HW2 2135   1.800   2.416   2.609  0.0171 -0.0163  1.0260
  534SOL     MW 2136   1.730   2.400   2.555 -0.1511 -0.1847  0.3809
  535SOL     OW 2137   1.917   2.400   1.861 -0.3735 -0.0470  0.3073
  535SOL    HW1 2138   1.859   2.427   1.785 -0.9492 -1.0421 -0.9157
  535SOL    HW2 2139   2.007   2.394   1.828 -0.3626  0.4025  1.6924
  535SOL     MW 2140   1.921   2.402   1.847 -0.4480 -0.1190  0.3287
  536SOL     OW 2141   0.443   1.843   2.090 -0.4660  0.0716  0.3006
  536SOL    HW1 2142   0.464   1.798   2.002  0.4483 -3.3241 -0.0746
  536SOL    HW2 2143   0.510   1.913   2.108  0.2563 -0.9884  0.5658
  536SOL     MW 2144   0.455   1.846   2.081 -0.2501 -0.5163  0.2861
  537SOL     OW 2145   1.089   0.228   2.848  0.1876  0.0386 -0.0795
  537SOL    HW1 2146   1.010   0.278   2.878  0.3271 -0.3580 -2.3184
  537SOL    HW2 2147   1.120   0.258   2.766  1.2036  1.9689  1.6345
  537SOL     MW 2148   1.083   0.239   2.841  0.3400  0.2410 -0.1487
  538SOL     OW 2149   1.335   0.075   3.087  0.1642 -0.0735  0.0710
  538SOL    HW1 2150   1.342   0.168   3.077 -0.6742  1.1320 -0.0234
  538SOL    HW2 2151   1.370   0.038   3.004  1.2713 -1.2768 -0.8806
  538SOL     MW 2152   1.340   0.082   3.075  0.1997 -0.0732 -0.0670
  539SOL     OW 2153   0.696   2.788   2.482  0.2767 -0.2062  0.4274
  539SOL    HW1 2154   0.776   2.833   2.517  0.7451 -1.8689  1.4704
  539SOL    HW2 2155   0.690   2.710   2.539 -0.2289  0.1917  0.6957
  539SOL     MW 2156   0.706   2.783   2.494  0.2718 -0.3731  0.6004
  540SOL     OW 2157   0.406   2.501   2.898 -0.1717 -0.2104 -0.2413
  540SOL    HW1 2158   0.474   2.471   2.957 -2.1507  2.0168  2.8747
  540SOL    HW2 2159   0.337   2.443   2.932  1.8955  0.5919 -0.3761
  540SOL     MW 2160   0.406   2.490   2.911 -0.1601  0.1893  0.1520
  541SOL     OW 2161   0.197   2.914   2.193  0.1753  0.4171  0.1550
  541SOL    HW1 2162   0.142   2.844   2.165  0.5265 -0.7217 -1.5844
  541SOL    HW2 2163   0.241   2.895   2.274  0.0759  0.1226  2.3599
  541SOL     MW 2164   0.196   2.902   2.200  0.2085  0.2280  0.2164
  542SOL     OW 2165   1.039   2.299   2.658  0.2375 -0.0026 -0.0799
  542SOL    HW1 2166   1.066   2.234   2.721  1.4194  1.9748 -0.6475
  542SOL    HW2 2167   1.062   2.387   2.694 -0.4694  1.9800  1.3005
  542SOL     MW 2168   1.046   2.302   2.671  0.3002  0.5199  0.0274
  543SOL     OW 2169   1.607   2.440   2.891  0.6145 -0.0570  0.7607
  543SOL    HW1 2170   1.569   2.374   2.835  0.6198  0.9875 -2.1681
  543SOL    HW2 2171   1.634   2.516   2.838 -0.0521 -1.3553 -0.2381
  543SOL     MW 2172   1.606   2.441   2.876  0.5273 -0.0905  0.2425
  544SOL     OW 2173   0.715   0.229   2.727 -0.0343  0.4283 -0.3222
  544SOL    HW1 2174   0.623   0.257   2.733 -1.9210 -2.0817 -1.4750
  544SOL    HW2 2175   0.728   0.166   2.655 -0.1376 -1.3652 -1.0195
  544SOL     MW 2176   0.704   0.224   2.718 -0.2969 -0.1395 -0.5663
  545SOL     OW 2177   1.551   2.175   2.357 -0.0535 -0.2230  0.0129
  545SOL    HW1 2178   1.581   2.256   2.312 -2.7703  0.6801  1.2920
  545SOL    HW2 2179   1.597   2.096   2.316 -2.0381 -0.7655 -0.1151
  545SOL     MW 2180   1.561   2.175   2.346 -0.6738 -0.1754  0.1648
  546SOL     OW 2181   2.989   2.003   0.124 -0.9207 -0.4423 -0.2043
  546SOL    HW1 2182   2.991   2.095   0.088  0.0622  1.1986  0.8221
  546SOL    HW2 2183   3.069   1.967   0.085 -0.4008  1.2164  0.5778
  546SOL     MW 2184   3.000   2.011   0.114 -0.7224 -0.0069  0.0343
  547SOL     OW 2185   0.238   0.041   0.050 -0.4487  0.7051  0.1347
  547SOL    HW1 2186   0.303   0.061  -0.025  0.9055 -1.7926 -4.8044
  547SOL    HW2 2187   0.161  -0.011   0.018 -1.5821 -0.8050  0.8487
  547SOL     MW 2188   0.236   0.037   0.036 -0.4196  0.1763 -0.4227
  548SOL     OW 2189   0.302   2.505   0.271  0.0830  0.5111  0.2282
  548SOL    HW1 2190   0.311   2.569   0.206  1.5143 -2.1177  2.8517
  548SOL    HW2 2191   0.219   2.458   0.258 -2.6002  2.2240  1.0186
  548SOL     MW 2192   0.292   2.507   0.261 -0.0822  0.3903  0.6787
  549SOL     OW 2193   0.798   1.873   2.128  0.1224 -0.3599 -0.4659
  549SOL    HW1 2194   0.749   1.952   2.090 -2.7327  0.7980 -1.0699
  549SOL    HW2 2195   0.773   1.874   2.222  1.5082  0.7712 -0.4560
  549SOL     MW 2196   0.788   1.884   2.135 -0.0715 -0.0579 -0.5443
  550SOL     OW 2197   1.787   1.738   2.545 -0.2157 -0.2249  0.1916
  550SOL    HW1 2198   1.762   1.765   2.455  1.1476 -0.6246  0.5653
  550SOL    HW2 2199   1.801   1.817   2.605  0.5300  0.1601 -2.0349
  550SOL     MW 2200   1.786   1.752   2.541  0.0625 -0.2269 -0.0529
  551SOL     OW 2201   0.886   2.276   0.203  0.8767 -0.0951  0.4956
  551SOL    HW1 2202   0.981   2.276   0.194  0.9369  1.1125  0.0917
  551SOL    HW2 2203   0.839   2.215   0.143 -0.9986  1.6917  2.3799
  551SOL     MW 2204   0.893   2.268   0.194  0.6372  0.3000  0.6909
  552SOL     OW 2205   1.762   1.737   2.268  0.1517  0.9357 -0.7175
  552SOL    HW1 2206   1.663   1.728   2.267 -2.6917  3.6014  2.9613
  552SOL    HW2 2207   1.801   1.672   2.200  0.9541  0.7035  2.6439
  552SOL     MW 2208   1.754   1.727   2.259 -0.1176  1.2567  0.2114
  553SOL     OW 2209   1.283   2.328   1.554  0.1301 -0.3124  0.6341
  553SOL    HW1 2210   1.299   2.236   1.542 -4.0539  1.3448  1.3418
  553SOL    HW2 2211   1.336   2.380   1.489  0.0706 -1.4721 -0.0095
  553SOL     MW 2212   1.292   2.323   1.544 -0.4298 -0.2468  0.6425
  554SOL     OW 2213   0.533   2.931   2.636  0.3168  0.1360  0.2984
  554SOL    HW1 2214   0.518   3.022   2.590 -0.4016 -1.0176 -1.3586
  554SOL    HW2 2215   0.596   2.884   2.580 -2.4850  1.2808 -0.9459
  554SOL     MW 2216   0.539   2.937   2.622 -0.1476  0.1348 -0.0844
  555SOL     OW 2217   0.620   2.463   2.473 -0.3879 -0.3672  0.3108
  555SOL    HW1 2218   0.563   2.380   2.484 -1.0229 -2.3180 -1.0113
  555SOL    HW2 2219   0.703   2.441   2.436 -3.9034  0.5469  1.9573
  555SOL     MW 2220   0.624   2.449   2.469 -0.9355 -0.5040  0.3536
  556SOL     OW 2221   0.969   1.858   0.082 -0.6898 -0.1231 -0.0697
  556SOL    HW1 2222   0.997   1.830  -0.002  2.0170 -1.5024  0.4327
  556SOL    HW2 2223   1.043   1.899   0.125  1.5080 -0.9264 -0.8496
  556SOL     MW 2224   0.982   1.860   0.077 -0.0427 -0.4111 -0.1063
  557SOL     OW 2225   0.967   2.649   0.496  0.4195  0.5523 -0.5902
  557SOL    HW1 2226   1.020   2.591   0.446 -1.5176 -0.1598  1.5334
  557SOL    HW2 2227   0.912   2.696   0.439  3.9655 -1.4973  1.2150
  557SOL     MW 2228   0.967   2.648   0.482  0.6317  0.1879 -0.0718
  558SOL     OW 2229   0.211   2.330   3.000  0.3890 -0.1822  0.1335
  558SOL    HW1 2230   0.133   2.298   2.954 -1.2164  1.6205  2.3054
  558SOL    HW2 2231   0.183   2.369   3.082 -2.7473 -0.5907 -1.1770
  558SOL     MW 2232   0.197   2.331   3.005 -0.2366  0.0017  0.2471
  559SOL     OW 2233   1.067   2.346   2.123  0.3354 -0.3341  0.0335
  559SOL    HW1 2234   1.122   2.378   2.192  0.9173 -2.0806  2.2080
  559SOL    HW2 2235   1.045   2.255   2.142  0.5853 -0.6487 -1.8680
  559SOL     MW 2236   1.072   2.338   2.135  0.4451 -0.6061  0.0695
  560SOL     OW 2237   1.979   2.891   0.017 -0.1821  0.4410 -0.1776
  560SOL    HW1 2238   2.050   2.922  -0.038 -1.2452 -1.9661  2.5587
  560SOL    HW2 2239   1.954   2.800  -0.013  2.3677 -2.2816 -0.4812
  560SOL     MW 2240   1.985   2.883   0.006  0.0141 -0.2358  0.1433
  561SOL     OW 2241   0.365   2.133   0.045 -0.5909 -0.7398  0.0664
  561SOL    HW1 2242   0.312   2.199   0.001 -0.7913 -0.4379 -1.0462
  561SOL    HW2 2243   0.419   2.183   0.113  1.3568  0.1856 -0.1980
  561SOL     MW 2244   0.365   2.148   0.048 -0.3604 -0.5779 -0.1153
  562SOL     OW 2245   0.696   2.225   2.271  0.0075  0.6454  0.4324
  562SOL    HW1 2246   0.682   2.318   2.273 -1.3892  0.6645  3.7655
  562SOL    HW2 2247   0.793   2.204   2.281 -1.2321  1.3830 -2.2896
  562SOL     MW 2248   0.707   2.235   2.272 -0.3404  0.7453  0.5130
  563SOL     OW 2249   1.251   0.322   0.565  0.0909  0.1209  0.3552
  563SOL    HW1 2250   1.185   0.269   0.521  1.6115  0.0039 -0.7882
  563SOL    HW2 2251   1.244   0.311   0.662  0.2414  3.5794 -1.2779
  563SOL     MW 2252   1.242   0.314   0.572  0.3114  0.5618 -0.0111
  564SOL     OW 2253   1.167   2.553   2.344  0.0241  0.9239  0.5243
  564SOL    HW1 2254   1.169   2.600   2.262 -1.4230  0.2270  1.8204
  564SOL    HW2 2255   1.173   2.622   2.404  0.0028  2.5922  1.9649
  564SOL     MW 2256   1.168   2.568   2.341 -0.1697  1.0520  0.8854
  565SOL     OW 2257   2.806   2.772   2.649 -0.4329 -0.2224  0.2239
  565SOL    HW1 2258   2.827   2.858   2.617 -1.7792  0.3587 -0.4756
  565SOL    HW2 2259   2.792   2.715   2.574 -1.5692 -1.3044 -2.1027
  565SOL     MW 2260   2.807   2.776   2.635 -0.7604 -0.2885 -0.1754
  566SOL     OW 2261   2.123   1.823   2.411 -0.0555 -0.0844  0.5556
  566SOL    HW1 2262   2.123   1.749   2.348  1.5882 -0.1334 -0.1623
  566SOL    HW2 2263   2.195   1.886   2.375 -0.5140  0.7833 -0.9321
  566SOL     MW 2264   2.132   1.822   2.398  0.1009  0.0236  0.2646
  567SOL     OW 2265   1.143   2.949   3.044 -1.5234  0.4929  0.6494
  567SOL    HW1 2266   1.185   3.036   3.068  1.0857  0.8456  0.9686
  567SOL    HW2 2267   1.207   2.882   3.014  1.2305  1.0889 -3.4064
  567SOL     MW 2268   1.157   2.952   3.043 -0.8158  0.6181  0.1564
  568SOL     OW 2269   1.624   2.074   2.875  0.2281 -0.1269 -0.2507
  568SOL    HW1 2270   1.664   2.137   2.939  0.4682  2.1558 -0.6410
  568SOL    HW2 2271   1.692   2.043   2.820 -1.4903 -1.3711 -1.8692
  568SOL     MW 2272   1.639   2.078   2.876  0.0331  0.0101 -0.5158
  569SOL     OW 2273   0.165   2.281   2.471 -0.0119  0.4922  0.7402
  569SOL    HW1 2274   0.101   2.320   2.407  0.4659  0.2227  0.3152
  569SOL    HW2 2275   0.200   2.348   2.525  1.0562 -0.4908  0.6866
  569SOL     MW 2276   0.161   2.295   2.469  0.1920  0.3270  0.6770
  570SOL     OW 2277   1.502   0.362   0.501 -0.5400  0.1604 -0.3606
  570SOL    HW1 2278   1.411   0.364   0.543  0.3975 -0.5845  1.2668
  570SOL    HW2 2279   1.565   0.355   0.575 -0.3403 -1.3724  1.0234
  570SOL     MW 2280   1.498   0.361   0.516 -0.3899 -0.1401  0.0367
  571SOL     OW 2281   1.399   2.423   2.019 -0.9451 -0.1845  0.4464
  571SOL    HW1 2282   1.414   2.440   2.111 -0.1143 -0.6620  0.0894
  571SOL    HW2 2283   1.472   2.361   1.996  1.8536 -2.0915 -1.6949
  571SOL     MW 2284   1.411   2.417   2.028 -0.4662 -0.4991  0.1168
  572SOL     OW 2285   1.055   2.589   0.114  0.4950  0.5071 -0.1050
  572SOL    HW1 2286   1.058   2.681   0.095  0.9074  0.0305 -0.2130
  572SOL    HW2 2287   0.966   2.562   0.089 -3.2405 -2.0713  0.6499
  572SOL     MW 2288   1.044   2.597   0.108  0.0566  0.1041 -0.0196
  573SOL     OW 2289   1.182   2.295   0.206  0.5519 -0.2044  0.1472
  573SOL    HW1 2290   1.279   2.300   0.182  0.8870 -0.4129 -1.2897
  573SOL    HW2 2291   1.176   2.374   0.264  1.1851  1.1565  1.7568
  573SOL     MW 2292   1.194   2.306   0.211  0.6796 -0.0524  0.1700
  574SOL     OW 2293   1.165   2.526   0.356  0.6857  0.6377 -0.3098
  574SOL    HW1 2294   1.240   2.575   0.395 -0.3303 -1.8129  2.1713
  574SOL    HW2 2295   1.150   2.568   0.271 -0.7181  3.7048 -0.9396
  574SOL     MW 2296   1.173   2.538   0.350  0.3664  0.7190 -0.0656
  575SOL     OW 2297   3.061   2.194   1.807 -0.7325  0.0085  0.3389
  575SOL    HW1 2298   3.091   2.115   1.758 -1.5935 -1.6745 -0.1730
  575SOL    HW2 2299   3.126   2.269   1.794 -1.7824 -0.0532  1.8114
  575SOL     MW 2300   3.074   2.193   1.799 -0.9846 -0.2217  0.4656
  576SOL     OW 2301   2.808   1.809   2.056  0.0294 -0.0441 -0.6508
  576SOL    HW1 2302   2.837   1.889   2.012 -1.9466  0.8719 -0.8857
  576SOL    HW2 2303   2.708   1.793   2.041  0.5893  0.6494 -1.6860
  576SOL     MW 2304   2.798   1.818   2.048 -0.1574  0.1683 -0.8184
  577SOL     OW 2305   2.043   0.191   0.061  0.7149 -0.2790  0.1011
  577SOL    HW1 2306   1.964   0.204   0.000 -0.3183  1.5219 -0.1029
  577SOL    HW2 2307   1.993   0.173   0.145  0.2620 -1.3375  1.9428
  577SOL     MW 2308   2.026   0.190   0.064  0.5188 -0.1811  0.3172
  578SOL     OW 2309   1.945   2.037   2.352 -0.8808  0.0969 -0.0938
  578SOL    HW1 2310   1.865   2.009   2.303  2.3103  0.8223 -1.4021
  578SOL    HW2 2311   1.999   1.956   2.338  0.5195 -2.3352 -0.6950
  578SOL     MW 2312   1.942   2.023   2.344 -0.2751 -0.1282 -0.3458
  579SOL     OW 2313   0.926   2.423   2.436  1.0978  0.3854  0.0402
  579SOL    HW1 2314   0.966   2.372   2.500 -0.7100  0.2406  1.1750
  579SOL    HW2 2315   0.995   2.478   2.401 -1.9430  1.0701 -0.8105
  579SOL     MW 2316   0.940   2.423   2.440  0.4581  0.4566  0.0777
  580SOL     OW 2317   0.912   2.843   0.026 -0.2233 -0.3799  0.1641
  580SOL    HW1 2318   0.992   2.893   0.000  0.3385  0.1542  0.7531
  580SOL    HW2 2319   0.900   2.788  -0.048  1.8385 -1.5400  0.9811
  580SOL     MW 2320   0.921   2.842   0.013  0.1229 -0.4625  0.3496
  581SOL     OW 2321   1.129   2.534   1.678 -0.0058  0.5694  0.3480
  581SOL    HW1 2322   1.187   2.572   1.743 -0.1145 -2.1134 -3.4534
  581SOL    HW2 2323   1.176   2.448   1.650  0.0888 -4.5993  2.0163
  581SOL     MW 2324   1.143   2.528   1.683 -0.0077 -0.4665  0.0665
  582SOL     OW 2325   0.038   2.790   2.651  0.1131 -0.3656  0.7332
  582SOL    HW1 2326   0.008   2.871   2.693 -0.9244  0.9491  2.2018
  582SOL    HW2 2327   0.133   2.803   2.632  0.5469  0.5974  1.6401
  582SOL     MW 2328   0.046   2.802   2.654  0.0335 -0.0651  1.0466
  583SOL     OW 2329   1.988   2.407   2.659  0.0102 -0.1482  0.3090
  583SOL    HW1 2330   2.061   2.428   2.602 -0.2269  2.9015  0.0734
  583SOL    HW2 2331   1.986   2.313   2.652 -0.1630  0.6819 -2.4614
  583SOL     MW 2332   1.998   2.397   2.650 -0.0439  0.3637 -0.0876
  584SOL     OW 2333   0.112   1.888   2.230  0.3416  0.8070 -0.7563
  584SOL    HW1 2334   0.173   1.813   2.249  0.6332 -0.5054  1.4810
  584SOL    HW2 2335   0.161   1.972   2.246 -0.2813  0.7187 -1.9559
  584SOL     MW 2336   0.127   1.889   2.235  0.2979  0.6222 -0.6194
  585SOL     OW 2337   1.570   2.573   0.232 -0.0494 -1.1781 -0.6181
  585SOL    HW1 2338   1.517   2.555   0.148 -1.1556  0.5498 -3.3338
  585SOL    HW2 2339   1.504   2.583   0.307  0.1679 -1.7449  2.1628
  585SOL     MW 2340   1.554   2.572   0.231 -0.1667 -1.0249 -0.6095
  586SOL     OW 2341   1.383   2.857   2.574  0.6733 -0.0775  0.2280
  586SOL    HW1 2342   1.439   2.831   2.500 -0.7117  1.5057  0.1308
  586SOL    HW2 2343   1.346   2.949   2.549 -3.0667  1.3249 -0.6687
  586SOL     MW 2344   1.385   2.865   2.561 -0.0028  0.3164  0.0969
  587SOL     OW 2345   1.357   1.536   2.157  0.5613 -0.5593  0.1466
  587SOL    HW1 2346   1.330   1.487   2.243 -1.7558  0.6618 -0.2747
  587SOL    HW2 2347   1.343   1.476   2.084  0.9315 -1.6382 -0.6239
  587SOL     MW 2348   1.351   1.522   2.159  0.3044 -0.5405 -0.0106
  588SOL     OW 2349   1.342   2.049   2.675  0.6055  0.4924  0.3491
  588SOL    HW1 2350   1.350   1.950   2.684 -0.1188  1.4886  1.9586
  588SOL    HW2 2351   1.322   2.081   2.762 -1.2405  0.5306 -2.2697
  588SOL     MW 2352   1.340   2.040   2.687  0.2664  0.6289  0.2160
  589SOL     OW 2353   1.387   2.020   0.120  0.4268  0.0821 -0.4860
  589SOL    HW1 2354   1.406   2.108   0.138 -1.1641 -0.1107  0.3074
  589SOL    HW2 2355   1.328   1.978   0.183 -0.0392  1.0097 -1.4488
  589SOL     MW 2356   1.381   2.026   0.131  0.1554  0.1791 -0.5083
  590SOL     OW 2357   0.501   2.784   2.210  0.7273  0.0147 -0.5606
  590SOL    HW1 2358   0.469   2.731   2.134 -0.3028 -1.1334  2.7107
  590SOL    HW2 2359   0.598   2.783   2.212 -1.2849  1.4013  2.9264
  590SOL     MW 2360   0.509   2.777   2.201  0.3259  0.0461  0.3311
  591SOL     OW 2361   2.236   0.676   0.019  0.2204  0.2909  0.5563
  591SOL    HW1 2362   2.161   0.726  -0.030  3.3190  1.2416  0.7730
  591SOL    HW2 2363   2.301   0.687  -0.055 -3.1972 -0.2286  0.1248
  591SOL     MW 2364   2.235   0.684   0.002  0.1783  0.3478  0.5279
  592SOL     OW 2365   1.734   2.936   0.778 -0.0729 -0.1270 -0.0273
  592SOL    HW1 2366   1.757   3.026   0.741  0.1515  1.8288  0.0100
  592SOL    HW2 2367   1.808   2.884   0.801 -0.9747 -1.0550 -0.4733
  592SOL     MW 2368   1.747   2.941   0.776 -0.1623  0.0086 -0.0812
  593SOL     OW 2369   1.966   0.623   0.866 -0.2720  0.1429 -0.3281
  593SOL    HW1 2370   1.890   0.614   0.807 -0.7468  0.7239  0.5625
  593SOL    HW2 2371   2.023   0.554   0.832  1.9808  1.9263 -1.9221
  593SOL     MW 2372   1.963   0.613   0.853 -0.0374  0.4549 -0.4209
  594SOL     OW 2373   2.774   1.150   1.379 -0.1177  0.2522 -0.5915
  594SOL    HW1 2374   2.872   1.182   1.369  2.2388  0.9451  0.9863
  594SOL    HW2 2375   2.764   1.096   1.299  0.7465 -1.4279  0.5664
  594SOL     MW 2376   2.786   1.147   1.367  0.3072  0.1220 -0.2305
  595SOL     OW 2377   0.481   0.984   0.812  0.0852 -0.2728 -0.1860
  595SOL    HW1 2378   0.496   1.015   0.715  0.2336  2.3599 -1.4378
  595SOL    HW2 2379   0.478   1.061   0.865  1.9647 -1.5293  1.2729
  595SOL     MW 2380   0.482   0.998   0.806  0.3528 -0.0912 -0.1586
  596SOL     OW 2381   2.478   1.318   0.570 -0.4059  0.4295  0.1339
  596SOL    HW1 2382   2.532   1.391   0.538 -2.6183 -0.2303 -0.6137
  596SOL    HW2 2383   2.531   1.282   0.647 -0.2124  1.7625 -1.7753
  596SOL     MW 2384   2.492   1.323   0.576 -0.6723  0.5183 -0.2167
  597SOL     OW 2385   2.179   0.686   1.627  0.5310  0.2249  0.2007
  597SOL    HW1 2386   2.216   0.633   1.695 -4.9218 -1.8667  0.5015
  597SOL    HW2 2387   2.099   0.644   1.601 -0.9148 -0.1063 -0.8241
  597SOL     MW 2388   2.173   0.673   1.633 -0.3792 -0.0948  0.1051
  598SOL     OW 2389   2.550   1.029   2.783 -0.3221 -0.2865  0.7427
  598SOL    HW1 2390   2.541   0.984   2.702  1.7939  0.7880 -0.6323
  598SOL    HW2 2391   2.642   1.050   2.794  0.5624  0.6042  1.9830
  598SOL     MW 2392   2.561   1.026   2.774  0.0738 -0.0272  0.7249
  599SOL     OW 2393   2.984   0.404   2.091 -0.4524  0.0491 -0.4750
  599SOL    HW1 2394   3.052   0.422   2.159  0.3685  1.9114  0.0095
  599SOL    HW2 2395   2.977   0.491   2.048  2.2675 -0.6004 -0.0700
  599SOL     MW 2396   2.992   0.418   2.094  0.0148  0.2092 -0.3576
  600SOL     OW 2397   1.836   1.629   0.907 -0.1423  0.1273  0.2622
  600SOL    HW1 2398   1.903   1.679   0.957  0.4057  1.1035  0.7358
  600SOL    HW2 2399   1.797   1.705   0.858  0.3569  2.1581 -0.2154
  600SOL     MW 2400   1.840   1.646   0.907 -0.0041  0.5240  0.2617
  601SOL     OW 2401   2.523   0.777   0.821  0.5957  0.3215  0.4072
  601SOL    HW1 2402   2.533   0.789   0.916 -1.4726 -0.8697 -0.6517
  601SOL    HW2 2403   2.444   0.730   0.821  1.8587  0.4421 -0.3768
  601SOL     MW 2404   2.514   0.772   0.833  0.4894  0.1802  0.1641
  602SOL     OW 2405   2.273   1.965   0.754  0.1781 -0.1955 -0.6086
  602SOL    HW1 2406   2.253   1.878   0.713  3.4027 -1.4702 -1.3668
  602SOL    HW2 2407   2.209   2.027   0.720 -1.4054 -2.7765 -0.2934
  602SOL     MW 2408   2.262   1.962   0.744  0.3946 -0.7042 -0.6671
  603SOL     OW 2409   3.091   1.394   1.933 -0.6731  0.4718  0.7806
  603SOL    HW1 2410   3.170   1.449   1.945  2.0108 -0.2284  1.1610
  603SOL    HW2 2411   3.118   1.298   1.935  1.8928 -0.5086  0.4758
  603SOL     MW 2412   3.105   1.388   1.935  0.0195  0.2501  0.7906
  604SOL     OW 2413   2.079   1.499   0.470 -0.0109 -1.0270  0.4066
  604SOL    HW1 2414   2.113   1.409   0.491  1.6306 -0.3356  1.7201
  604SOL    HW2 2415   2.016   1.530   0.542  0.4095 -3.9209 -1.6112
  604SOL     MW 2416   2.075   1.491   0.482  0.2612 -1.3176  0.3137
  605SOL     OW 2417   2.519   1.500   0.893  0.1000 -0.3452  0.0884
  605SOL    HW1 2418   2.524   1.554   0.817  3.4981  1.5197  2.7222
  605SOL    HW2 2419   2.531   1.408   0.860  3.6850  0.3646 -0.4620
  605SOL     MW 2420   2.522   1.495   0.878  1.0213 -0.0055  0.3633
  606SOL     OW 2421   2.544   1.738   2.036 -0.1197  0.5623 -0.1527
  606SOL    HW1 2422   2.456   1.764   2.014  0.9314  0.4517  1.8500
  606SOL    HW2 2423   2.569   1.675   1.968 -0.4902  2.1477  0.8537
  606SOL     MW 2424   2.536   1.733   2.024 -0.0299  0.7569  0.2443
  607SOL     OW 2425   2.399   1.039   3.020 -0.2339 -0.0113  0.0795
  607SOL    HW1 2426   2.463   1.048   2.951 -2.3156  0.2057 -0.2586
  607SOL    HW2 2427   2.443   0.995   3.097 -3.0586 -0.7953  3.0521
  607SOL     MW 2428   2.413   1.034   3.021 -0.8812 -0.0861  0.4271
  608SOL     OW 2429   1.848   0.289   0.560  0.0078 -0.0141  0.0155
  608SOL    HW1 2430   1.838   0.365   0.494  3.3529 -0.4404 -0.4176
  608SOL    HW2 2431   1.818   0.204   0.520 -1.6081 -2.7812 -1.9051
  608SOL     MW 2432   1.843   0.288   0.546  0.2359 -0.4354 -0.2951
  609SOL     OW 2433   2.105   1.964   3.062  0.3630 -0.0846  0.7777
  609SOL    HW1 2434   2.043   1.900   3.042  0.5914 -0.6019 -0.8621
  609SOL    HW2 2435   2.121   1.953   3.160  1.3306  0.8909  1.9336
  609SOL     MW 2436   2.099   1.954   3.072  0.5208 -0.0242  0.7139
  610SOL     OW 2437   1.827   0.950   1.228  0.3075 -0.7185 -0.0361
  610SOL    HW1 2438   1.842   0.874   1.175  0.5012 -0.9565  3.3005
  610SOL    HW2 2439   1.734   0.969   1.205  1.4795  0.3330 -0.6060
  610SOL     MW 2440   1.817   0.942   1.218  0.4877 -0.6111  0.3289
  611SOL     OW 2441   2.525   1.649   0.676 -0.9176 -0.2613  0.1765
  611SOL    HW1 2442   2.552   1.729   0.638  1.7159 -0.3943  0.0843
  611SOL    HW2 2443   2.432   1.662   0.687  0.6481  1.3511 -0.0663
  611SOL     MW 2444   2.516   1.661   0.672 -0.3635 -0.0661  0.1323
  612SOL     OW 2445   2.832   2.895   0.372 -0.6833  0.1351 -0.0506
  612SOL    HW1 2446   2.859   2.921   0.460  1.7565 -1.2681 -0.1979
  612SOL    HW2 2447   2.919   2.874   0.335  1.2060 -1.5584  0.4488
  612SOL     MW 2448   2.847   2.896   0.379 -0.1121 -0.2735 -0.0041
  613SOL     OW 2449   1.444   1.057   0.925  0.0976 -0.0635  0.2110
  613SOL    HW1 2450   1.458   1.152   0.924 -1.8520  1.1142 -0.4552
  613SOL    HW2 2451   1.470   1.032   1.016  0.5635 -0.1596 -0.8936
  613SOL     MW 2452   1.449   1.066   0.937 -0.0981  0.0792 -0.0227
  614SOL     OW 2453   1.977   0.527   1.504  0.1140 -0.8770  0.3781
  614SOL    HW1 2454   1.975   0.448   1.567 -1.2957  0.9708 -0.2963
  614SOL    HW2 2455   1.935   0.514   1.415  3.0134  0.3270 -2.8748
  614SOL     MW 2456   1.971   0.515   1.500  0.3106 -0.4744 -0.1401
  615SOL     OW 2457   2.320   0.760   0.284  0.4311 -0.5630  0.3723
  615SOL    HW1 2458   2.372   0.680   0.295 -1.6908 -1.2102 -0.5024
  615SOL    HW2 2459   2.268   0.741   0.200  0.7937 -0.8842 -3.0463
  615SOL     MW 2460   2.320   0.747   0.275  0.1990 -0.6908 -0.1942
  616SOL     OW 2461   2.518   0.441   1.676  0.0592  0.4005 -0.1536
  616SOL    HW1 2462   2.595   0.411   1.620 -0.4548 -0.2679 -0.3234
  616SOL    HW2 2463   2.474   0.496   1.608  0.3896 -1.4488 -0.5771
  616SOL     MW 2464   2.522   0.444   1.659  0.0350  0.0683 -0.2319
  617SOL     OW 2465   2.825   0.590   1.674  0.8421  0.2409  0.3571
  617SOL    HW1 2466   2.753   0.606   1.727  1.3120  1.3648 -1.1817
  617SOL    HW2 2467   2.837   0.498   1.690 -0.6077  2.9992  1.0269
  617SOL     MW 2468   2.818   0.580   1.683  0.7128  0.7531  0.2424
  618SOL     OW 2469   2.700   0.373   1.975  0.2949  0.5751  0.5662
  618SOL    HW1 2470   2.666   0.448   1.929  1.0615 -0.6128  0.0095
  618SOL    HW2 2471   2.773   0.417   2.014 -0.4403 -1.0260  3.9373
  618SOL     MW 2472   2.705   0.389   1.974  0.2990  0.2071  0.9375
  619SOL     OW 2473   2.701   0.717   0.051  0.2415 -0.3397  0.1245
  619SOL    HW1 2474   2.726   0.806   0.079 -3.3878 -0.3050 -2.7486
  619SOL    HW2 2475   2.628   0.689   0.106 -2.2603  0.0712  0.8649
  619SOL     MW 2476   2.695   0.725   0.062 -0.5674 -0.2809 -0.1568
  620SOL     OW 2477   2.246   1.061   0.910  0.4302  0.1783 -0.3007
  620SOL    HW1 2478   2.320   1.064   0.854  0.8107  0.8840  4.3458
  620SOL    HW2 2479   2.180   0.996   0.882  0.9139  0.8148 -1.1926
  620SOL     MW 2480   2.247   1.053   0.899  0.5442  0.3554  0.1947
  621SOL     OW 2481   1.570   2.229   1.930 -0.3654  0.5811  0.2226
  621SOL    HW1 2482   1.507   2.164   1.971 -2.2026 -2.1084 -2.4981
  621SOL    HW2 2483   1.654   2.211   1.976  0.4963 -1.6578  1.6474
  621SOL     MW 2484   1.573   2.218   1.942 -0.4941 -0.0692  0.0516
  622SOL     OW 2485   2.653   0.213   0.252  0.0687  0.3417 -0.0124
  622SOL    HW1 2486   2.738   0.258   0.228  2.3475  1.6309  0.5680
  622SOL    HW2 2487   2.674   0.125   0.284 -0.5760  0.7084  0.8243
  622SOL     MW 2488   2.667   0.207   0.253  0.2843  0.5602  0.1745
  623SOL     OW 2489   2.447   2.744   0.871 -0.4416 -0.4130  0.3307
  623SOL    HW1 2490   2.509   2.813   0.859 -4.1487 -1.6978 -1.4670
  623SOL    HW2 2491   2.396   2.754   0.953  0.3251  1.2555 -0.6233
  623SOL     MW 2492   2.448   2.754   0.880 -0.8295 -0.3624 -0.0323
  624SOL     OW 2493   2.115   1.626   3.030  0.2894 -0.1238 -0.2240
  624SOL    HW1 2494   2.079   1.538   3.044 -0.5957 -3.3241  3.3034
  624SOL    HW2 2495   2.041   1.667   2.987  3.8120 -2.6441  0.4143
  624SOL     MW 2496   2.100   1.620   3.027  0.6374 -0.8785  0.3256
  625SOL     OW 2497   2.221   1.916   1.083 -0.1917  0.3245  0.2223
  625SOL    HW1 2498   2.297   1.899   1.137  0.2843  0.8603  0.7068
  625SOL    HW2 2499   2.264   1.950   1.003 -1.6234  0.2148  0.3267
  625SOL     MW 2500   2.237   1.918   1.080 -0.3178  0.3807  0.3000
  626SOL     OW 2501   0.239   1.767   2.450 -0.3648  0.1285  0.1121
  626SOL    HW1 2502   0.186   1.694   2.488  0.4043 -1.7922 -1.8102
  626SOL    HW2 2503   0.184   1.844   2.457  2.4140 -0.9945  3.4784
  626SOL     MW 2504   0.225   1.767   2.456  0.1033 -0.2731  0.3026
  627SOL     OW 2505   2.532   0.749   2.559  0.1092  0.5464 -0.3628
  627SOL    HW1 2506   2.478   0.816   2.598 -0.5990 -0.4680 -0.3474
  627SOL    HW2 2507   2.486   0.738   2.475  1.3571 -0.2960  0.9933
  627SOL     MW 2508   2.519   0.757   2.553  0.1804  0.3014 -0.1819
  628SOL     OW 2509   2.244   1.373   1.302 -0.3973 -0.5315  0.7137
  628SOL    HW1 2510   2.222   1.297   1.249 -2.1544 -0.4717  1.0054
  628SOL    HW2 2511   2.322   1.412   1.256  0.6806  1.8756 -2.7516
  628SOL     MW 2512   2.251   1.368   1.289 -0.4869 -0.2060  0.2950
  629SOL     OW 2513   1.863   0.497   1.246 -0.0965 -0.6715  0.1790
  629SOL    HW1 2514   1.881   0.577   1.194  0.6270  0.8551 -1.8557
  629SOL    HW2 2515   1.766   0.490   1.251  0.3853 -1.0840  1.4358
  629SOL     MW 2516   1.853   0.506   1.240  0.0625 -0.5245  0.0764
  630SOL     OW 2517   2.393   1.880   3.023  0.3783 -0.4337 -0.1213
  630SOL    HW1 2518   2.398   1.949   2.956 -1.9040 -1.8723  0.8789
  630SOL    HW2 2519   2.305   1.853   3.035  0.2975  2.4332 -1.8356
  630SOL     MW 2520   2.382   1.885   3.016  0.0665 -0.2453 -0.2155
  631SOL     OW 2521   2.012   1.687   1.559 -0.5591 -0.0920 -0.0484
  631SOL    HW1 2522   2.035   1.612   1.607 -0.8698 -1.5116 -0.2953
  631SOL    HW2 2523   1.932   1.667   1.503 -2.8073  0.1751 -1.4179
  631SOL     MW 2524   2.004   1.674   1.558 -0.8967 -0.2441 -0.2617
  632SOL     OW 2525   0.250   1.952   1.442  0.4762 -0.2296  0.0767
  632SOL    HW1 2526   0.169   1.958   1.503 -0.1468 -0.9335 -2.3648
  632SOL    HW2 2527   0.275   1.859   1.442  1.4253  3.1324  3.0005
  632SOL     MW 2528   0.243   1.941   1.450  0.5193  0.1211  0.1403
  633SOL     OW 2529   2.510   0.561   0.274  0.4476 -0.4975  0.1149
  633SOL    HW1 2530   2.564   0.568   0.356  0.5885 -3.4347  1.2916
  633SOL    HW2 2531   2.523   0.467   0.249 -1.5922 -2.8419  2.0884
  633SOL     MW 2532   2.519   0.550   0.281  0.1971 -1.1943  0.5305
  634SOL     OW 2533   2.690   3.088   0.658  0.5592 -0.2416 -0.3274
  634SOL    HW1 2534   2.721   3.177   0.668 -0.5539  2.5489 -0.1857
  634SOL    HW2 2535   2.655   3.080   0.571 -0.5413 -1.2156  0.7517
  634SOL     MW 2536   2.689   3.099   0.648  0.2672 -0.0019 -0.1663
  635SOL     OW 2537   2.583   0.156   1.826 -0.1504 -0.3656 -0.4878
  635SOL    HW1 2538   2.654   0.119   1.771  0.6330 -0.5306 -0.8526
  635SOL    HW2 2539   2.607   0.243   1.868  1.5579  2.4154  1.5576
  635SOL     MW 2540   2.595   0.163   1.824  0.1784 -0.0205 -0.2661
  636SOL     OW 2541   2.791   1.583   0.863 -0.6223  0.0026 -0.0397
  636SOL    HW1 2542   2.704   1.552   0.892 -0.1094 -0.9112 -0.4267
  636SOL    HW2 2543   2.803   1.675   0.896 -0.0439 -0.2810  1.3821
  636SOL     MW 2544   2.781   1.591   0.871 -0.4783 -0.1554  0.0968
  637SOL     OW 2545   2.890   1.506   0.601  0.2584  0.2341  0.2538
  637SOL    HW1 2546   2.944   1.577   0.566 -2.4198  1.6385 -2.7950
  637SOL    HW2 2547   2.867   1.545   0.687  1.2965 -0.2373 -0.6765
  637SOL     MW 2548   2.894   1.521   0.608  0.0420  0.3572 -0.2712
  638SOL     OW 2549   2.706   0.518   0.507  0.5963  0.3475  0.2062
  638SOL    HW1 2550   2.803   0.520   0.485  0.4647 -0.4305 -1.3665
  638SOL    HW2 2551   2.702   0.517   0.600 -0.1456 -0.1944  0.3016
  638SOL     MW 2552   2.718   0.518   0.517  0.4811  0.1734  0.0113
  639SOL     OW 2553   1.728   0.039   0.527  0.0104 -0.0588 -0.4364
  639SOL    HW1 2554   1.635   0.047   0.511  2.6010 -0.4244  1.0877
  639SOL    HW2 2555   1.751  -0.032   0.468 -3.0958 -1.1862 -2.1820
  639SOL     MW 2556   1.718   0.030   0.517 -0.0576 -0.2558 -0.4656
  640SOL     OW 2557   0.302   1.349   0.099  0.1834 -0.3487 -0.5212
  640SOL    HW1 2558   0.322   1.358   0.003  2.5137  1.3222  0.1584
  640SOL    HW2 2559   0.300   1.251   0.101 -1.6303 -0.7162  1.3837
  640SOL     MW 2560   0.304   1.337   0.086  0.2515 -0.1767 -0.1802
  641SOL     OW 2561   2.226   0.455   0.419 -0.3886 -0.0214 -0.1130
  641SOL    HW1 2562   2.245   0.417   0.331  1.2308 -2.3503 -2.4130
  641SOL    HW2 2563   2.284   0.396   0.473  1.1459 -0.2530  1.4078
  641SOL     MW 2564   2.236   0.442   0.415  0.0275 -0.3592 -0.2158
  642SOL     OW 2565   0.074   0.008   0.480  0.5458 -0.4243 -0.1632
  642SOL    HW1 2566  -0.009   0.062   0.474 -0.8131  1.0542 -0.2025
  642SOL    HW2 2567   0.033  -0.061   0.525 -2.0250  1.5974  3.1030
  642SOL     MW 2568   0.057   0.006   0.485  0.0273  0.0375  0.2626
  643SOL     OW 2569   1.996   0.337   1.737 -0.0750 -0.1300  0.0902
  643SOL    HW1 2570   1.914   0.304   1.779  2.1399  2.3485  0.7630
  643SOL    HW2 2571   2.037   0.256   1.706 -0.9831 -0.5312 -0.6380
  643SOL     MW 2572   1.991   0.322   1.738  0.0974  0.1441  0.0829
  644SOL     OW 2573   2.671   1.854   1.013  0.2074 -0.2255 -0.1869
  644SOL    HW1 2574   2.630   1.795   1.077 -0.4916 -3.1916 -0.5436
  644SOL    HW2 2575   2.604   1.915   0.985  3.4878  0.9135 -1.0517
  644SOL     MW 2576   2.657   1.854   1.018  0.5480 -0.4666 -0.3481
  645SOL     OW 2577   2.815   0.818   0.714 -0.0904  0.1376  0.5793
  645SOL    HW1 2578   2.870   0.745   0.745  2.6670 -0.8145  1.6416
  645SOL    HW2 2579   2.721   0.799   0.730  0.6397 -0.2713 -1.4669
  645SOL     MW 2580   2.810   0.806   0.720  0.3698 -0.0420  0.4495
  646SOL     OW 2581   0.085   2.281   0.869 -0.0828  0.2716 -0.0205
  646SOL    HW1 2582   0.146   2.206   0.862 -0.0834 -0.6975  0.3719
  646SOL    HW2 2583   0.018   2.268   0.807  0.6582 -1.5035  3.1786
  646SOL     MW 2584   0.084   2.270   0.860  0.0149 -0.0905  0.4534
  647SOL     OW 2585   2.719   0.481   2.985  0.1706 -0.1019  0.1248
  647SOL    HW1 2586   2.656   0.425   3.032 -0.2652  3.4856  0.6889
  647SOL    HW2 2587   2.722   0.553   3.046  1.8296 -0.1479 -0.7804
  647SOL     MW 2588   2.712   0.483   2.999  0.3320  0.3653  0.0798
  648SOL     OW 2589   2.228   0.735   1.087  0.4922  0.2208  0.1027
  648SOL    HW1 2590   2.244   0.647   1.113 -0.4729 -1.4523 -0.5184
  648SOL    HW2 2591   2.203   0.784   1.168  1.9487 -0.1689 -1.5493
  648SOL     MW 2592   2.227   0.730   1.101  0.5570 -0.0514 -0.1972
  649SOL     OW 2593   2.416   2.699   1.335  0.3206  0.3525 -0.5182
  649SOL    HW1 2594   2.497   2.750   1.334 -2.1192  1.1983 -2.1933
  649SOL    HW2 2595   2.425   2.618   1.279  1.0454 -0.3093  2.6313
  649SOL     MW 2596   2.428   2.695   1.327  0.0943  0.3768 -0.3236
  650SOL     OW 2597   2.797   0.242   0.696 -0.4629 -0.2967 -0.6988
  650SOL    HW1 2598   2.841   0.283   0.768 -2.7984 -2.6345  1.8559
  650SOL    HW2 2599   2.859   0.241   0.627  1.1799  0.5434  1.6965
  650SOL     MW 2600   2.811   0.247   0.696 -0.5543 -0.4943 -0.0457
  651SOL     OW 2601   0.018   0.437   1.041 -0.3479  0.1325  0.3542
  651SOL    HW1 2602   0.072   0.444   0.960 -1.5614 -1.8809 -2.0275
  651SOL    HW2 2603  -0.044   0.506   1.018  0.2506 -0.4565  1.1347
  651SOL     MW 2604   0.017   0.447   1.027 -0.4291 -0.2109  0.1430
  652SOL     OW 2605   2.395   1.481   3.025 -0.4396  0.0561 -0.3714
  652SOL    HW1 2606   2.446   1.525   2.952 -0.7712 -0.1531 -0.3567
  652SOL    HW2 2607   2.321   1.536   3.025  1.8067 -0.3043  1.0875
  652SOL     MW 2608   2.392   1.494   3.016 -0.1870 -0.0191 -0.1770
  653SOL     OW 2609   1.834   0.467   0.336 -0.0622 -0.2671  0.0984
  653SOL    HW1 2610   1.793   0.386   0.312  4.5763  0.7480 -2.8298
  653SOL    HW2 2611   1.889   0.484   0.259 -0.1537  1.4476  0.7599
  653SOL     MW 2612   1.836   0.459   0.323  0.5377  0.0931 -0.2007
  654SOL     OW 2613   2.417   1.007   0.710 -0.0569 -0.3969  0.5395
  654SOL    HW1 2614   2.352   0.978   0.645  1.6034  0.5020  1.4964
  654SOL    HW2 2615   2.456   0.922   0.747 -2.6945  3.0727 -0.4535
  654SOL     MW 2616   2.414   0.992   0.707 -0.1858  0.1794  0.5347
  655SOL     OW 2617   2.897   0.846   0.376 -0.3186  0.4357 -0.1021
  655SOL    HW1 2618   2.837   0.860   0.448  1.5453  1.2221 -1.0687
  655SOL    HW2 2619   2.926   0.753   0.384 -1.4303  1.1465 -2.4478
  655SOL     MW 2620   2.893   0.836   0.386 -0.2194  0.6332 -0.5391
  656SOL     OW 2621   1.781   2.646   1.340  0.0405  0.2686  0.1423
  656SOL    HW1 2622   1.829   2.721   1.375  1.3079 -2.2110 -2.1711
  656SOL    HW2 2623   1.842   2.570   1.350  0.1891 -0.5230  0.4519
  656SOL     MW 2624   1.795   2.646   1.346  0.2273 -0.1630 -0.1221
  657SOL     OW 2625   0.141   1.784   1.148 -0.1098 -0.4356 -0.4776
  657SOL    HW1 2626   0.214   1.846   1.142  1.0441  1.5358  0.9809
  657SOL    HW2 2627   0.182   1.699   1.166  1.1196  2.3311 -1.4417
  657SOL     MW 2628   0.156   1.781   1.149  0.2046  0.1895 -0.4124
  658SOL     OW 2629   2.630   1.304   0.237 -0.2570  0.3174 -0.0508
  658SOL    HW1 2630   2.657   1.225   0.291  1.7026 -1.8945  0.9470
  658SOL    HW2 2631   2.668   1.374   0.292  0.0906  0.3458  1.0161
  658SOL     MW 2632   2.639   1.303   0.251  0.0474  0.0293  0.2216
  659SOL     OW 2633   2.208   1.539   0.968 -0.5363  0.3866  0.7316
  659SOL    HW1 2634   2.300   1.512   0.959  0.4097  2.6446 -2.9948
  659SOL    HW2 2635   2.211   1.621   1.006  1.8977 -0.7999 -3.3308
  659SOL     MW 2636   2.220   1.547   0.972 -0.0904  0.5280 -0.2960
  660SOL     OW 2637   2.093   1.472   1.727  0.3917 -0.4789 -0.0378
  660SOL    HW1 2638   2.095   1.499   1.818 -1.3508  1.0816 -1.6684
  660SOL    HW2 2639   2.007   1.426   1.716 -1.7488 -0.0974  2.4067
  660SOL     MW 2640   2.082   1.469   1.737 -0.1206 -0.2226  0.0696
  661SOL     OW 2641   2.493   0.945   0.203 -0.0444  0.3152 -0.7379
  661SOL    HW1 2642   2.518   0.990   0.283  0.0514  0.1172  2.3158
  661SOL    HW2 2643   2.440   0.868   0.228 -0.4550  4.1631  2.0020
  661SOL     MW 2644   2.489   0.941   0.217 -0.0859  0.7968  0.0265
  662SOL     OW 2645   2.592   2.983   0.891  0.1691 -0.3893  0.2282
  662SOL    HW1 2646   2.527   3.049   0.920 -0.6606  1.1396 -0.9899
  662SOL    HW2 2647   2.622   3.025   0.808 -1.1433  1.6643  0.4258
  662SOL     MW 2648   2.588   2.997   0.884 -0.1135  0.0834  0.0936
  663SOL     OW 2649   2.644   1.492   0.449  0.0162 -0.3736 -0.0767
  663SOL    HW1 2650   2.597   1.574   0.466  1.8474 -1.3498 -0.4328
  663SOL    HW2 2651   2.727   1.498   0.495 -0.4924  2.6819  2.7079
  663SOL     MW 2652   2.649   1.504   0.458  0.1907 -0.0993  0.2437
  664SOL     OW 2653   2.586   1.547   1.607  0.6018 -0.4720 -0.1291
  664SOL    HW1 2654   2.551   1.629   1.563 -0.0372  1.3434 -0.1879
  664SOL    HW2 2655   2.508   1.497   1.631  2.1243  3.0289 -2.1279
  664SOL     MW 2656   2.571   1.551   1.604  0.7183  0.2294 -0.4006
  665SOL     OW 2657   2.781   0.783   2.087 -0.1578 -0.5650  0.6179
  665SOL    HW1 2658   2.741   0.849   2.028  0.6938  0.4051 -0.1327
  665SOL    HW2 2659   2.833   0.721   2.038  0.2365 -1.9563  3.5225
  665SOL     MW 2660   2.782   0.784   2.073  0.0066 -0.6206  0.9021
  666SOL     OW 2661   2.760   3.052   1.728 -0.2692  0.0280  0.4228
  666SOL    HW1 2662   2.763   3.033   1.629 -0.6314 -3.5402  0.9085
  666SOL    HW2 2663   2.701   2.979   1.758 -0.2985 -0.5367  0.4045
  666SOL     MW 2664   2.753   3.040   1.719 -0.3209 -0.5173  0.4845
  667SOL     OW 2665   1.980   2.698   1.719 -0.0654  0.1035 -0.6494
  667SOL    HW1 2666   2.006   2.672   1.808 -0.3315  0.0589 -0.7043
  667SOL    HW2 2667   2.045   2.761   1.697  1.0444  0.6005 -1.6530
  667SOL     MW 2668   1.992   2.703   1.728  0.0459  0.1632 -0.7890
  668SOL     OW 2669   2.685   0.522   0.813  0.1536 -0.2458  0.0689
  668SOL    HW1 2670   2.739   0.563   0.883  3.1585  1.0598  0.4361
  668SOL    HW2 2671   2.613   0.590   0.797 -2.9107 -0.2195  1.1773
  668SOL     MW 2672   2.682   0.536   0.821  0.1458 -0.0701  0.2636
  669SOL     OW 2673   0.120   0.890   0.748 -0.3160  0.6307  0.2642
  669SOL    HW1 2674   0.065   0.967   0.769 -0.0731 -0.5958  2.0599
  669SOL    HW2 2675   0.172   0.860   0.820 -0.8356  2.4721  0.8220
  669SOL     MW 2676   0.119   0.896   0.760 -0.3525  0.7118  0.5747
  670SOL     OW 2677   2.919   0.341   0.210 -0.0794 -0.0495  0.0327
  670SOL    HW1 2678   2.956   0.275   0.146 -0.7128 -0.7788  0.2441
  670SOL    HW2 2679   2.921   0.429   0.162  0.5286 -1.0807  0.4815
  670SOL     MW 2680   2.924   0.344   0.195 -0.0827 -0.2818  0.1198
  671SOL     OW 2681   1.995   3.050   1.585 -0.1829 -0.3789 -0.1771
  671SOL    HW1 2682   1.943   2.990   1.529 -1.3871 -0.5138 -0.4259
  671SOL    HW2 2683   1.938   3.089   1.654  1.7048  0.8280 -0.0800
  671SOL     MW 2684   1.981   3.047   1.586 -0.0928 -0.2375 -0.1971
  672SOL     OW 2685   1.868   1.681   1.298 -0.5908  0.1716 -0.0771
  672SOL    HW1 2686   1.838   1.759   1.344 -1.1529 -0.2420 -0.4670
  672SOL    HW2 2687   1.883   1.725   1.213 -1.8885 -0.3061 -2.9402
  672SOL     MW 2688   1.866   1.698   1.293 -0.8362  0.0540 -0.5063
  673SOL     OW 2689   2.780   1.104   0.626 -0.4522 -0.3253  0.1227
  673SOL    HW1 2690   2.786   1.019   0.664 -3.1657 -1.8952  1.3348
  673SOL    HW2 2691   2.867   1.145   0.637  0.3510  0.8261  0.9736
  673SOL     MW 2692   2.792   1.098   0.633 -0.7043 -0.3805  0.3949
  674SOL     OW 2693   2.453   0.007   1.261  0.1037 -0.1590  0.4996
  674SOL    HW1 2694   2.386   0.019   1.195  4.4926  0.5151  1.5694
  674SOL    HW2 2695   2.479  -0.083   1.240  1.4099  1.2063  0.2046
  674SOL     MW 2696   2.448  -0.003   1.250  0.8551  0.1101  0.6018
  675SOL     OW 2697   2.997   0.892   1.090 -0.4230  0.3148 -0.2963
  675SOL    HW1 2698   3.065   0.924   1.147 -1.6469  1.6992 -2.7290
  675SOL    HW2 2699   3.014   0.931   1.004 -2.2810  1.6437 -3.8344
  675SOL     MW 2700   3.008   0.901   1.086 -0.8296  0.6728 -1.0841
  676SOL     OW 2701   2.977   1.453   1.699  0.2789 -0.3729  0.0671
  676SOL    HW1 2702   2.936   1.369   1.685 -3.0429 -1.3748 -0.5281
  676SOL    HW2 2703   3.035   1.431   1.768 -4.3171  1.6604  0.3863
  676SOL     MW 2704   2.979   1.439   1.706 -0.7658 -0.2368  0.0307
  677SOL     OW 2705   2.356   0.597   2.022 -0.1420  0.3671  0.8112
  677SOL    HW1 2706   2.336   0.562   1.940  1.4230 -1.9669  0.6264
  677SOL    HW2 2707   2.288   0.666   2.042 -1.1618 -1.9335 -0.3931
  677SOL     MW 2708   2.345   0.602   2.013 -0.0700 -0.2444  0.6280
  678SOL     OW 2709   2.483   1.695   0.352 -0.0239 -0.5059  0.3894
  678SOL    HW1 2710   2.395   1.715   0.381 -0.2338 -1.1577 -2.2908
  678SOL    HW2 2711   2.468   1.625   0.294 -1.7668  0.9932  0.1941
  678SOL     MW 2712   2.469   1.688   0.348 -0.2816 -0.3941  0.0100
  679SOL     OW 2713   2.190   0.466   1.335 -0.4594 -0.5764 -0.4759
  679SOL    HW1 2714   2.193   0.379   1.291 -1.4320 -0.2478 -0.8149
  679SOL    HW2 2715   2.126   0.467   1.408 -0.4549  1.0324 -1.8252
  679SOL     MW 2716   2.182   0.454   1.339 -0.5871 -0.3208 -0.6987
  680SOL     OW 2717   2.372   0.180   1.480 -0.5805  0.1377  0.8903
  680SOL    HW1 2718   2.282   0.171   1.487  1.6327 -2.2341  0.3682
  680SOL    HW2 2719   2.410   0.123   1.408  0.4937 -1.8718 -2.2115
  680SOL     MW 2720   2.365   0.171   1.471 -0.1468 -0.4404  0.4122
  681SOL     OW 2721   0.284   0.614   1.578 -0.2296  0.3022 -0.1009
  681SOL    HW1 2722   0.296   0.570   1.667  0.8761 -0.5453  2.6649
  681SOL    HW2 2723   0.315   0.556   1.511 -0.6571 -0.1260 -0.2135
  681SOL     MW 2724   0.290   0.600   1.581 -0.1401  0.1339  0.2492
  682SOL     OW 2725   0.150   2.802   1.528 -0.2773  0.1164 -0.5300
  682SOL    HW1 2726   0.216   2.876   1.535  0.8932 -0.4167 -2.1687
  682SOL    HW2 2727   0.075   2.846   1.568 -1.3254  1.3332  1.5098
  682SOL     MW 2728   0.149   2.818   1.534 -0.2612  0.2066 -0.4771
  683SOL     OW 2729   2.065   0.819   2.964 -0.3984  0.0240 -0.2508
  683SOL    HW1 2730   1.974   0.779   2.968  0.5313  0.0645  1.1972
  683SOL    HW2 2731   2.060   0.906   3.020 -0.3977  1.4412  1.0231
  683SOL     MW 2732   2.052   0.825   2.972 -0.2757  0.2164  0.1083
  684SOL     OW 2733   2.241   1.664   0.693  0.3131 -0.2319 -0.1712
  684SOL    HW1 2734   2.203   1.630   0.607 -1.8478  1.6968  0.5429
  684SOL    HW2 2735   2.227   1.596   0.757 -2.3009  2.6909  0.0363
  684SOL     MW 2736   2.234   1.650   0.690 -0.3169  0.4082 -0.0496
  685SOL     OW 2737   2.692   1.697   1.271  0.1043 -0.2030 -0.6688
  685SOL    HW1 2738   2.746   1.685   1.348 -1.9420  1.3744  0.2082
  685SOL    HW2 2739   2.684   1.605   1.235  1.3377 -0.9909  0.6614
  685SOL     MW 2740   2.698   1.684   1.277 -0.0030 -0.0989 -0.3776
  686SOL     OW 2741   2.874   0.720   1.437 -0.4133 -0.0363 -0.5113
  686SOL    HW1 2742   2.847   0.679   1.524 -0.8995 -2.6680  0.5921
  686SOL    HW2 2743   2.964   0.749   1.453 -2.9460 -3.0841  1.9472
  686SOL     MW 2744   2.882   0.719   1.450 -0.8116 -0.7856 -0.0413
  687SOL     OW 2745   2.148   0.213   1.207 -0.0512  0.0621  0.1278
  687SOL    HW1 2746   2.179   0.136   1.162 -0.6797  0.2386 -0.7798
  687SOL    HW2 2747   2.079   0.249   1.145  1.8613  0.2400  1.8400
  687SOL     MW 2748   2.143   0.207   1.193  0.1182  0.1088  0.2339
  688SOL     OW 2749   2.398   0.585   1.465 -0.3782  0.6921  0.3706
  688SOL    HW1 2750   2.358   0.541   1.387  0.8288  0.4915 -0.4624
  688SOL    HW2 2751   2.325   0.628   1.511  1.8949  0.5052  0.1872
  688SOL     MW 2752   2.383   0.585   1.461  0.0810  0.6409  0.2365
  689SOL     OW 2753   2.434   0.710   2.897 -0.2115  0.0495 -0.2478
  689SOL    HW1 2754   2.427   0.804   2.876 -1.4938  0.7256  1.1886
  689SOL    HW2 2755   2.507   0.707   2.951  0.6894  0.6351 -2.1185
  689SOL     MW 2756   2.443   0.722   2.901 -0.2618  0.2160 -0.3051
  690SOL     OW 2757   1.999   0.862   1.890  0.5973  0.2615 -0.2767
  690SOL    HW1 2758   1.960   0.770   1.889 -2.0935  1.0707 -4.1457
  690SOL    HW2 2759   2.026   0.888   1.804  2.2234  1.1296 -0.4884
  690SOL     MW 2760   1.998   0.854   1.879  0.4568  0.4828 -0.8151
  691SOL     OW 2761   2.375   0.238   0.840  0.0927  0.2245 -0.0665
  691SOL    HW1 2762   2.451   0.271   0.888 -2.0938  1.9901 -1.4905
  691SOL    HW2 2763   2.303   0.296   0.864  0.8396  3.5976 -2.7827
  691SOL     MW 2764   2.376   0.250   0.850 -0.0973  0.9025 -0.6127
  692SOL     OW 2765   2.865   1.643   1.467  0.5699 -0.1371  0.6267
  692SOL    HW1 2766   2.868   1.579   1.543 -0.7674 -1.2463  3.2583
  692SOL    HW2 2767   2.911   1.720   1.496  0.0836  0.3067  0.4189
  692SOL     MW 2768   2.872   1.645   1.481  0.3293 -0.2249  0.9465
  693SOL     OW 2769   2.266   0.407   0.084  0.4301 -0.0234 -0.6641
  693SOL    HW1 2770   2.196   0.342   0.067  1.3148 -0.8827  1.8729
  693SOL    HW2 2771   2.235   0.495   0.072  0.5138 -2.5465 -0.4642
  693SOL     MW 2772   2.253   0.410   0.080  0.5579 -0.4696 -0.3030
  694SOL     OW 2773   1.904   1.194   1.130  0.4506 -0.0017 -1.4394
  694SOL    HW1 2774   1.998   1.162   1.122  0.0252 -4.9776  0.1828
  694SOL    HW2 2775   1.872   1.119   1.184  0.6399 -1.3266 -0.0478
  694SOL     MW 2776   1.912   1.180   1.136  0.4194 -0.8331 -1.0418
  695SOL     OW 2777   3.028   1.455   1.313 -0.1890 -0.4877  0.5070
  695SOL    HW1 2778   2.975   1.440   1.233  0.7503 -2.2123  0.6930
  695SOL    HW2 2779   2.981   1.533   1.357 -0.7078 -0.2271  1.4279
  695SOL     MW 2780   3.015   1.463   1.308 -0.1336 -0.6809  0.6531
  696SOL     OW 2781   2.086   1.363   0.798  0.3612  0.1192 -0.8165
  696SOL    HW1 2782   2.122   1.407   0.881  1.3204 -2.6243  1.6743
  696SOL    HW2 2783   2.026   1.289   0.825 -2.4149 -3.9858 -0.8039
  696SOL     MW 2784   2.083   1.359   0.813  0.1215 -0.7844 -0.4862
  697SOL     OW 2785   2.879   1.011   2.219 -0.2052 -0.0012  0.2194
  697SOL    HW1 2786   2.840   1.092   2.197  0.3092 -3.4758 -2.4659
  697SOL    HW2 2787   2.839   0.943   2.165  0.9032  0.4165  1.4779
  697SOL     MW 2788   2.868   1.013   2.209  0.0089 -0.4045  0.0312
  698SOL     OW 2789   2.540   0.350   0.037 -0.3911 -0.0426  0.0803
  698SOL    HW1 2790   2.447   0.371   0.070 -1.3260  1.2027  0.6730
  698SOL    HW2 2791   2.565   0.301   0.112 -0.8536 -1.6697  0.7695
  698SOL     MW 2792   2.531   0.346   0.051 -0.5754 -0.0929  0.2494
  699SOL     OW 2793   1.859   1.584   2.052 -0.0948 -0.3100 -0.1153
  699SOL    HW1 2794   1.845   1.489   2.041  1.8058  0.5621 -0.2240
  699SOL    HW2 2795   1.954   1.580   2.022  1.7726  0.9999 -2.5478
  699SOL     MW 2796   1.870   1.571   2.047  0.4024 -0.0222 -0.4506
  700SOL     OW 2797   2.740   0.921   1.546 -0.2314 -0.7017  0.7848
  700SOL    HW1 2798   2.781   1.000   1.509  0.7561  0.8636 -2.8292
  700SOL    HW2 2799   2.792   0.856   1.501  1.4174  0.9435  1.0403
  700SOL     MW 2800   2.753   0.923   1.535  0.1165 -0.2781  0.3417
  701SOL     OW 2801   1.689   1.191   2.470  0.4512 -0.4644  0.3805
  701SOL    HW1 2802   1.784   1.181   2.467  2.0710 -0.9589  0.2830
  701SOL    HW2 2803   1.682   1.235   2.560  0.5073 -0.7701 -0.4060
  701SOL     MW 2804   1.701   1.195   2.481  0.6723 -0.5700  0.2639
  702SOL     OW 2805   2.132   0.406   0.842  0.1704 -0.5779 -0.3288
  702SOL    HW1 2806   2.124   0.339   0.774  0.3641 -0.0691 -1.6862
  702SOL    HW2 2807   2.201   0.473   0.807  1.4618 -0.4920  0.7514
  702SOL     MW 2808   2.140   0.406   0.828  0.3663 -0.4994 -0.3654
  703SOL     OW 2809   2.697   1.253   1.042 -0.4774  0.3178 -0.0083
  703SOL    HW1 2810   2.678   1.234   0.947 -0.0830  0.0604 -1.1334
  703SOL    HW2 2811   2.689   1.170   1.083  0.2272  2.4883 -2.3890
  703SOL     MW 2812   2.693   1.240   1.035 -0.3324  0.5702 -0.4708
  704SOL     OW 2813   3.104   1.198   0.126 -0.5250  0.5078  0.6767
  704SOL    HW1 2814   3.007   1.207   0.106  0.1418 -0.2224 -0.8967
  704SOL    HW2 2815   3.122   1.169   0.212  1.8396  2.3720  0.6293
  704SOL     MW 2816   3.093   1.195   0.134 -0.1251  0.6574  0.4628
  705SOL     OW 2817   2.187   1.632   1.264  0.2972  0.2435  0.1390
  705SOL    HW1 2818   2.129   1.657   1.338 -0.7028 -1.7498  1.7208
  705SOL    HW2 2819   2.209   1.539   1.284 -0.5628 -1.0165 -0.6384
  705SOL     MW 2820   2.182   1.623   1.276  0.0518 -0.1858  0.2451
  706SOL     OW 2821   3.011   1.245   0.658 -0.8263  0.1816  0.0081
  706SOL    HW1 2822   3.045   1.212   0.568  1.3158 -2.2719 -2.0001
  706SOL    HW2 2823   2.984   1.338   0.643 -0.4925  2.4428  0.4794
  706SOL     MW 2824   3.012   1.253   0.644 -0.4996  0.1562 -0.1946
  707SOL     OW 2825   2.286   0.048   1.034  0.3126 -0.2700  0.0016
  707SOL    HW1 2826   2.333   0.092   0.961 -0.6973 -1.8390  0.7299
  707SOL    HW2 2827   2.207   0.010   0.993 -0.0639  0.9856  2.2351
  707SOL     MW 2828   2.282   0.049   1.019  0.1297 -0.3114  0.3924
  708SOL     OW 2829   2.394   1.453   0.200 -0.0928  0.1350 -0.0054
  708SOL    HW1 2830   2.477   1.418   0.237  0.2931  0.4156 -0.8024
  708SOL    HW2 2831   2.413   1.463   0.106  3.5867 -3.0615 -0.5877
  708SOL     MW 2832   2.408   1.450   0.193  0.4436 -0.2497 -0.1874
  709SOL     OW 2833   1.773   1.662   0.251  0.2687  0.2081  0.0729
  709SOL    HW1 2834   1.760   1.659   0.156 -2.3430 -0.3856 -0.0761
  709SOL    HW2 2835   1.687   1.651   0.294  0.3107 -0.3209  0.2699
  709SOL     MW 2836   1.760   1.660   0.245 -0.0704  0.0600  0.0792
  710SOL     OW 2837   2.161   1.093   1.179  0.1221 -0.7251  0.4500
  710SOL    HW1 2838   2.214   1.070   1.099  0.6064  0.8040  1.5326
  710SOL    HW2 2839   2.171   1.020   1.236 -0.9460  0.1389 -0.7974
  710SOL     MW 2840   2.169   1.080   1.176  0.0450 -0.4093  0.4282
  711SOL     OW 2841   2.313   0.121   1.753  0.1002 -0.5144 -0.5409
  711SOL    HW1 2842   2.408   0.126   1.779  0.8370 -0.1425  0.4649
  711SOL    HW2 2843   2.315   0.151   1.660 -0.9207 -0.6790  0.8820
  711SOL     MW 2844   2.326   0.126   1.744  0.0627 -0.4870 -0.2205
  712SOL     OW 2845   1.889   0.638   0.015  0.1619  0.0475 -0.7292
  712SOL    HW1 2846   1.810   0.679  -0.029 -1.9119 -1.7607 -1.9434
  712SOL    HW2 2847   1.917   0.689   0.092 -2.3413  3.4260  0.5553
  712SOL     MW 2848   1.883   0.650   0.020 -0.4420  0.2547 -0.7199
  713SOL     OW 2849   2.548   0.781   1.084 -0.2548 -0.9402 -0.0617
  713SOL    HW1 2850   2.589   0.702   1.116  1.0580 -3.2763  0.2322
  713SOL    HW2 2851   2.468   0.799   1.131 -3.6568 -0.2645  1.5743
  713SOL     MW 2852   2.543   0.773   1.095 -0.5305 -1.1593  0.1929
  714SOL     OW 2853   2.164   0.167   1.989 -0.2464 -0.3471  0.0182
  714SOL    HW1 2854   2.228   0.139   2.062  0.8306  0.4405 -0.2751
  714SOL    HW2 2855   2.210   0.162   1.901 -0.9507  0.9666  2.6257
  714SOL     MW 2856   2.179   0.163   1.987 -0.1972 -0.0698  0.3235
  715SOL     OW 2857   1.799   1.967   1.713  0.4001  0.7337 -0.1696
  715SOL    HW1 2858   1.897   1.963   1.692  3.1776  2.6524  2.3255
  715SOL    HW2 2859   1.779   1.889   1.769  1.7767 -0.8660 -2.1787
  715SOL     MW 2860   1.810   1.956   1.718  0.9482  0.7758 -0.1055
  716SOL     OW 2861   2.310   0.581   0.719 -0.3088 -0.4255 -0.3858
  716SOL    HW1 2862   2.366   0.516   0.680 -0.0132 -2.0494  2.3804
  716SOL    HW2 2863   2.258   0.621   0.646 -1.0140  0.3253  0.1631
  716SOL     MW 2864   2.310   0.578   0.705 -0.3628 -0.5407  0.0516
  717SOL     OW 2865   2.836   1.583   2.867 -0.5363 -0.1206  0.2108
  717SOL    HW1 2866   2.920   1.536   2.897  0.3729  2.7553  0.8180
  717SOL    HW2 2867   2.814   1.635   2.945  1.4896 -0.9422  1.1167
  717SOL     MW 2868   2.844   1.583   2.881 -0.1490  0.1505  0.4105
  718SOL     OW 2869   2.699   1.402   1.371 -0.4383  0.0808  0.3985
  718SOL    HW1 2870   2.700   1.421   1.463 -2.4979  0.9207 -0.3353
  718SOL    HW2 2871   2.732   1.310   1.366  1.1539 -0.7232  0.9728
  718SOL     MW 2872   2.703   1.393   1.383 -0.5000  0.0856  0.3774
  719SOL     OW 2873   2.192   1.264   0.577 -0.4433  0.3898 -0.5413
  719SOL    HW1 2874   2.286   1.281   0.575 -3.4154  0.2837 -0.9461
  719SOL    HW2 2875   2.153   1.300   0.658 -0.5142 -0.5450 -1.8567
  719SOL     MW 2876   2.199   1.271   0.587 -0.8448  0.2524 -0.7682
  720SOL     OW 2877   2.858   1.217   0.042 -0.0356  0.2466 -0.0622
  720SOL    HW1 2878   2.844   1.124   0.072  0.4610 -2.6050 -1.1611
  720SOL    HW2 2879   2.787   1.259   0.089  1.9625  2.2094  0.1156
  720SOL     MW 2880   2.847   1.210   0.052  0.2935  0.1293 -0.1837
  721SOL     OW 2881   2.492   0.887   1.400  0.0709  0.2820 -0.0917
  721SOL    HW1 2882   2.524   0.821   1.459  2.2465 -0.3876  0.2194
  721SOL    HW2 2883   2.560   0.952   1.402 -1.0557 -0.7926  2.0536
  721SOL     MW 2884   2.506   0.887   1.408  0.2093  0.0519  0.2324
  722SOL     OW 2885   2.571   1.081   0.456  0.5491 -0.0379  0.3726
  722SOL    HW1 2886   2.523   1.157   0.468 -2.2203  0.3563 -2.4942
  722SOL    HW2 2887   2.657   1.105   0.498  2.9528  0.2334 -0.3573
  722SOL     MW 2888   2.576   1.094   0.463  0.5009  0.0499 -0.1019
  723SOL     OW 2889   2.324   1.392   1.572 -0.3282 -0.0146 -0.3919
  723SOL    HW1 2890   2.281   1.380   1.485 -2.5080 -1.0031 -1.1347
  723SOL    HW2 2891   2.260   1.428   1.640  0.6398  0.7437  2.5626
  723SOL     MW 2892   2.310   1.395   1.570 -0.4881 -0.0450 -0.1001
  724SOL     OW 2893   2.463   0.370   0.577  0.1218 -0.4584 -0.3460
  724SOL    HW1 2894   2.479   0.282   0.605  1.4536  0.4539  0.1644
  724SOL    HW2 2895   2.547   0.396   0.543  0.0629  2.1392 -0.2501
  724SOL     MW 2896   2.476   0.362   0.576  0.2897  0.0047 -0.2660
  725SOL     OW 2897   2.611   0.529   1.187  0.2061 -0.1170 -0.0850
  725SOL    HW1 2898   2.705   0.533   1.208 -1.2181  0.5619  2.0138
  725SOL    HW2 2899   2.569   0.513   1.272  2.1885  0.2726 -0.4333
  725SOL     MW 2900   2.618   0.527   1.201  0.2798  0.0240  0.1459
  726SOL     OW 2901   2.583   2.489   0.551 -0.1557  0.2689  0.0780
  726SOL    HW1 2902   2.503   2.519   0.502  1.2688  2.5745 -0.5573
  726SOL    HW2 2903   2.557   2.473   0.638  2.3754  0.3236 -1.7331
  726SOL     MW 2904   2.569   2.491   0.556  0.3662  0.5803 -0.2448
  727SOL     OW 2905   2.869   0.329   1.754  0.3624 -0.2510 -0.3267
  727SOL    HW1 2906   2.820   0.282   1.689  1.2723  1.3686  2.9261
  727SOL    HW2 2907   2.818   0.319   1.834 -1.7679  0.4897 -0.9454
  727SOL     MW 2908   2.856   0.321   1.756  0.2014  0.0604  0.0209
  728SOL     OW 2909   2.790   1.128   2.890  0.3350  0.2002 -0.5804
  728SOL    HW1 2910   2.792   1.193   2.819 -1.9578  0.4686 -0.9270
  728SOL    HW2 2911   2.809   1.175   2.970  0.4446 -1.9639  0.8555
  728SOL     MW 2912   2.793   1.143   2.891  0.0469 -0.0499 -0.4367
  729SOL     OW 2913   2.498   1.445   1.183  0.2292  0.0360 -0.1013
  729SOL    HW1 2914   2.582   1.403   1.213 -0.1514  0.2763  0.6208
  729SOL    HW2 2915   2.506   1.451   1.087  1.7725 -0.4633 -0.1045
  729SOL     MW 2916   2.510   1.440   1.174  0.3826  0.0018 -0.0065
  730SOL     OW 2917   2.294   1.171   0.214  0.5270 -0.2679  0.4710
  730SOL    HW1 2918   2.366   1.105   0.194  0.5273  0.7949  1.1558
  730SOL    HW2 2919   2.336   1.259   0.200 -3.9008  0.9298  0.5151
  730SOL     MW 2920   2.309   1.174   0.209 -0.0571  0.0303  0.5672
  731SOL     OW 2921   2.785   2.026   2.908  0.4309  0.6107  0.1138
  731SOL    HW1 2922   2.743   2.008   2.826 -1.1928 -1.3219  1.5980
  731SOL    HW2 2923   2.879   2.036   2.886 -0.9545  1.9646 -0.9104
  731SOL     MW 2924   2.792   2.025   2.894  0.0339  0.5344  0.1745
  732SOL     OW 2925   2.224   0.884   1.348 -0.3876  0.6074 -0.2585
  732SOL    HW1 2926   2.184   0.913   1.430 -0.8580 -2.3523  0.3971
  732SOL    HW2 2927   2.322   0.889   1.361 -1.2808 -2.7379 -3.2227
  732SOL     MW 2928   2.232   0.889   1.360 -0.5675 -0.2245 -0.5631
  733SOL     OW 2929   2.354   2.814   2.997  0.0851  0.0126  0.6659
  733SOL    HW1 2930   2.282   2.860   2.952  1.0161 -1.0818  0.1357
  733SOL    HW2 2931   2.351   2.722   2.959  0.2802 -1.5462  2.3865
  733SOL     MW 2932   2.344   2.808   2.986  0.2337 -0.3374  0.8229
  734SOL     OW 2933   1.436   0.320   2.444 -0.1954  0.1615 -0.0756
  734SOL    HW1 2934   1.416   0.285   2.532  0.2612  0.6895  0.3719
  734SOL    HW2 2935   1.479   0.250   2.393  1.3009 -1.9964  2.2355
  734SOL     MW 2936   1.439   0.306   2.449  0.0622 -0.0536  0.2884
  735SOL     OW 2937   2.925   0.873   2.604  0.2299 -0.4280 -0.1399
  735SOL    HW1 2938   2.915   0.774   2.603 -1.2760 -0.9233  1.8806
  735SOL    HW2 2939   2.935   0.902   2.691 -2.9771  0.4237 -1.9816
  735SOL     MW 2940   2.925   0.864   2.616 -0.3919 -0.3810 -0.1163
  736SOL     OW 2941   0.085   0.607   2.524  0.1328  0.5109  0.2218
  736SOL    HW1 2942   0.098   0.681   2.468  2.3301 -1.0649  1.0440
  736SOL    HW2 2943   0.082   0.532   2.458 -1.2316 -0.6998  2.6715
  736SOL     MW 2944   0.086   0.607   2.508  0.2427  0.1432  0.6535
  737SOL     OW 2945   2.919   0.608   2.593 -0.4272 -0.1209  0.0895
  737SOL    HW1 2946   2.852   0.582   2.523 -2.3061 -0.3802 -0.3127
  737SOL    HW2 2947   3.006   0.599   2.551 -0.2530 -3.8596  1.3085
  737SOL     MW 2948   2.922   0.603   2.578 -0.6521 -0.6484  0.1973
  738SOL     OW 2949   0.160   0.621   1.968  0.9140  0.2565  0.1228
  738SOL    HW1 2950   0.243   0.598   1.926  0.5026  2.3500 -0.5930
  738SOL    HW2 2951   0.103   0.559   1.926  0.7261  0.3364  0.5966
  738SOL     MW 2952   0.164   0.610   1.957  0.8349  0.5433  0.0909
  739SOL     OW 2953   2.483   0.980   2.045  0.4581  0.0236 -0.2422
  739SOL    HW1 2954   2.408   0.922   2.038 -0.7721  2.0808  0.2541
  739SOL    HW2 2955   2.500   1.002   1.953  0.6311 -0.3292 -1.7337
  739SOL     MW 2956   2.475   0.975   2.032  0.3186  0.2485 -0.3735
  740SOL     OW 2957   0.207   1.747   2.938 -0.2337  0.0733 -0.2098
  740SOL    HW1 2958   0.154   1.671   2.964  1.7650  0.4487 -0.6223
  740SOL    HW2 2959   0.301   1.731   2.963  1.3537  1.5079  1.5292
  740SOL     MW 2960   0.213   1.735   2.945  0.2394  0.3121 -0.0347
  741SOL     OW 2961   2.207   1.138   2.759 -0.0091  0.5855 -0.8407
  741SOL    HW1 2962   2.117   1.151   2.737  0.3452  1.1017 -1.5941
  741SOL    HW2 2963   2.229   1.197   2.830 -0.1443 -2.8059  3.0195
  741SOL     MW 2964   2.198   1.148   2.765  0.0198  0.2061 -0.4308
  742SOL     OW 2965   1.585   1.231   2.201  0.0817  0.1553  0.1502
  742SOL    HW1 2966   1.528   1.154   2.184  0.2155  0.4954 -0.6961
  742SOL    HW2 2967   1.605   1.226   2.293  0.1834  2.5554 -0.0386
  742SOL     MW 2968   1.580   1.220   2.211  0.1128  0.5169  0.0136
  743SOL     OW 2969   2.485   1.319   2.716 -0.6065  0.3470 -0.0759
  743SOL    HW1 2970   2.392   1.301   2.687  1.9671 -0.0168 -1.0964
  743SOL    HW2 2971   2.519   1.229   2.731  1.5612 -3.1370  1.5169
  743SOL     MW 2972   2.477   1.305   2.714  0.0191 -0.1607 -0.0004
  744SOL     OW 2973   2.771   0.927   1.846 -0.2355  0.6499  0.1848
  744SOL    HW1 2974   2.703   0.991   1.844 -2.5421 -3.1554  4.0568
  744SOL    HW2 2975   2.780   0.904   1.754  2.1526  0.8315  0.2961
  744SOL     MW 2976   2.764   0.933   1.834 -0.2248  0.1718  0.7103
  745SOL     OW 2977   1.703   0.425   2.502  0.4388  0.1223  0.0199
  745SOL    HW1 2978   1.686   0.484   2.426  0.8026 -1.7941 -1.6281
  745SOL    HW2 2979   1.619   0.378   2.509  0.7244  0.0430  2.1097
  745SOL     MW 2980   1.690   0.427   2.493  0.5245 -0.1410  0.0782
  746SOL     OW 2981   1.606   1.485   1.634  0.2064  0.3928  0.1944
  746SOL    HW1 2982   1.703   1.465   1.641  0.4135  1.5429  0.9475
  746SOL    HW2 2983   1.566   1.432   1.705  2.1159 -1.3335 -0.1331
  746SOL     MW 2984   1.613   1.475   1.644  0.4857  0.3168  0.2505
  747SOL     OW 2985   2.568   1.146   1.823 -0.0356 -0.2214  0.2836
  747SOL    HW1 2986   2.482   1.168   1.783  1.3246 -0.4961 -1.3295
  747SOL    HW2 2987   2.591   1.218   1.889  0.1793  1.1568 -1.2983
  747SOL     MW 2988   2.559   1.158   1.826  0.1722 -0.0758 -0.1379
  748SOL     OW 2989   0.101   0.022   1.830 -0.1817  1.0972 -0.0659
  748SOL    HW1 2990   0.194   0.053   1.810  0.8293 -0.5074 -1.5745
  748SOL    HW2 2991   0.083   0.078   1.910  0.3841  2.9326  0.8646
  748SOL     MW 2992   0.111   0.033   1.838  0.0263  1.1276 -0.1422
  749SOL     OW 2993   2.505   0.501   2.697  0.7713  0.0204 -0.1228
  749SOL    HW1 2994   2.512   0.581   2.642 -2.7936  0.1363  1.0458
  749SOL    HW2 2995   2.519   0.544   2.779  0.9578 -0.4345  1.2476
  749SOL     MW 2996   2.508   0.517   2.700  0.3256 -0.0244  0.2122
  750SOL     OW 2997   2.016   3.058   1.999 -0.0100 -0.1514  0.1117
  750SOL    HW1 2998   2.071   3.138   1.985 -3.1808 -0.5910 -0.7939
  750SOL    HW2 2999   2.073   2.989   1.977  0.1436  1.7949 -1.3001
  750SOL     MW 3000   2.031   3.060   1.994 -0.4081  0.0474 -0.1941
  751SOL     OW 3001   0.067   0.434   2.327  0.5879  0.1261  0.3808
  751SOL    HW1 3002  -0.001   0.369   2.363  1.7114  1.0654 -0.2173
  751SOL    HW2 3003   0.146   0.383   2.314  0.9804  0.7964 -2.3915
  751SOL     MW 3004   0.069   0.418   2.330  0.7879  0.3385 -0.0639
  752SOL     OW 3005   2.144   0.807   2.685  0.0408 -0.6222  0.1025
  752SOL    HW1 3006   2.199   0.863   2.628 -0.1214 -1.1439  0.0274
  752SOL    HW2 3007   2.152   0.840   2.775 -0.3671  0.3742 -0.4611
  752SOL     MW 3008   2.153   0.819   2.689 -0.0344 -0.5596  0.0183
  753SOL     OW 3009   2.928   0.297   2.413 -0.0788 -0.7935  0.9716
  753SOL    HW1 3010   2.884   0.229   2.365 -1.3527 -0.5665 -2.9841
  753SOL    HW2 3011   2.869   0.373   2.419  0.2908  0.7726 -5.1944
  753SOL     MW 3012   2.914   0.298   2.408 -0.1981 -0.5569 -0.3638
  754SOL     OW 3013   2.239   2.975   2.614 -0.1663 -0.4412 -0.1230
  754SOL    HW1 3014   2.254   2.963   2.517  2.7126 -2.2823  2.3298
  754SOL    HW2 3015   2.316   2.936   2.656  1.6150 -1.7648 -2.3882
  754SOL     MW 3016   2.251   2.968   2.607  0.4486 -0.8587 -0.0982
  755SOL     OW 3017   2.745   1.517   2.487  0.0576 -0.1846 -0.2389
  755SOL    HW1 3018   2.714   1.461   2.562 -2.2298 -0.2401 -1.0960
  755SOL    HW2 3019   2.821   1.570   2.521  0.9467 -0.9593  0.6489
  755SOL     MW 3020   2.751   1.516   2.501 -0.1269 -0.2942 -0.2348
  756SOL     OW 3021   2.255   1.263   3.001  0.0265 -0.9485  0.4470
  756SOL    HW1 3022   2.316   1.337   3.021  2.8899 -1.5799 -1.7026
  756SOL    HW2 3023   2.310   1.178   3.007 -0.1934 -1.6877  0.0970
  756SOL     MW 3024   2.270   1.261   3.005  0.3753 -1.1293  0.1172
  757SOL     OW 3025   2.106   0.936   1.617  0.1042 -0.2247 -0.0847
  757SOL    HW1 3026   2.139   0.844   1.630 -1.0388 -0.9241  0.4416
  757SOL    HW2 3027   2.025   0.924   1.565  0.4223 -0.8463 -0.2370
  757SOL     MW 3028   2.099   0.922   1.612 -0.0046 -0.3990 -0.0354
  758SOL     OW 3029   2.191   1.736   2.661 -0.0672 -1.0466  0.3443
  758SOL    HW1 3030   2.178   1.778   2.571 -0.7839  0.4383 -2.7665
  758SOL    HW2 3031   2.283   1.739   2.690 -0.0972 -2.5744  0.4496
  758SOL     MW 3032   2.201   1.742   2.653 -0.1657 -1.0523 -0.0522
  759SOL     OW 3033   1.623   1.348   2.685  0.1358  0.4701 -0.9270
  759SOL    HW1 3034   1.601   1.433   2.647  2.5919 -0.7695 -0.0243
  759SOL    HW2 3035   1.669   1.373   2.767  0.4945 -1.2314 -1.8408
  759SOL     MW 3036   1.626   1.363   2.691  0.5072  0.0821 -0.9285
  760SOL     OW 3037   2.621   1.993   2.696  0.6607 -0.1319  0.4517
  760SOL    HW1 3038   2.582   1.905   2.679  0.8544  1.3301 -1.7666
  760SOL    HW2 3039   2.592   2.052   2.623 -2.1208 -1.1308 -4.3081
  760SOL     MW 3040   2.612   1.990   2.684  0.3193 -0.0708 -0.4690
  761SOL     OW 3041   2.179   0.404   2.450  0.6185 -0.3602 -0.1510
  761SOL    HW1 3042   2.096   0.356   2.456 -0.7202 -0.4214 -1.7648
  761SOL    HW2 3043   2.179   0.448   2.536  0.0651  2.1524  0.9436
  761SOL     MW 3044   2.168   0.404   2.462  0.3689 -0.0367 -0.2195
  762SOL     OW 3045   0.047   0.149   2.059 -0.4395 -0.1870  0.4230
  762SOL    HW1 3046   0.018   0.115   2.143  0.6618  2.2717  2.6077
  762SOL    HW2 3047   0.002   0.229   2.043  2.5772  1.4100  1.9501
  762SOL     MW 3048   0.037   0.156   2.068  0.1038  0.3481  0.9127
  763SOL     OW 3049   2.406   1.063   2.288 -0.4367 -0.1595  0.6629
  763SOL    HW1 3050   2.441   1.039   2.200 -1.0963  0.8081 -1.9198
  763SOL    HW2 3051   2.468   1.132   2.324 -0.4715 -0.8212 -1.6189
  763SOL     MW 3052   2.419   1.069   2.281 -0.5283 -0.1192  0.0211
  764SOL     OW 3053   0.438   0.315   2.794 -0.0911  0.1646  0.0171
  764SOL    HW1 3054   0.341   0.298   2.776 -0.7050 -0.3808 -0.6647
  764SOL    HW2 3055   0.428   0.389   2.855 -2.1588  0.7517 -0.7073
  764SOL     MW 3056   0.424   0.323   2.799 -0.4449  0.1701 -0.1684
  765SOL     OW 3057   2.756   0.090   2.317 -0.1737  0.1287  0.0406
  765SOL    HW1 3058   2.703   0.077   2.237 -1.9722  0.3690  0.4305
  765SOL    HW2 3059   2.796   0.004   2.339  0.0565  1.4151  0.4380
  765SOL     MW 3060   2.754   0.077   2.309 -0.3806  0.3301  0.1445
  766SOL     OW 3061   1.855   2.989   2.202 -0.9847  0.1724 -0.8333
  766SOL    HW1 3062   1.908   3.030   2.132 -0.1586 -1.4588  0.3187
  766SOL    HW2 3063   1.804   2.912   2.160  0.4745 -2.4065 -0.0401
  766SOL     MW 3064   1.856   2.984   2.188 -0.6832 -0.3831 -0.5766
  767SOL     OW 3065   2.631   0.629   1.891  0.3786  0.3833 -0.2324
  767SOL    HW1 3066   2.675   0.695   1.943 -0.2908 -0.8179 -0.7646
  767SOL    HW2 3067   2.542   0.630   1.927  1.1657 -0.9408  1.3290
  767SOL     MW 3068   2.625   0.638   1.903  0.3941  0.0501 -0.0966
  768SOL     OW 3069   0.036   1.535   2.936 -0.4948 -0.0712 -0.6859
  768SOL    HW1 3070   0.034   1.490   3.026 -0.8646 -1.7217  1.5972
  768SOL    HW2 3071   0.071   1.458   2.877 -0.0413  0.5058  0.2814
  768SOL     MW 3072   0.040   1.519   2.940 -0.4838 -0.2129 -0.2570
  769SOL     OW 3073   2.389   0.679   2.330  0.7379 -0.0069  0.6617
  769SOL    HW1 3074   2.294   0.663   2.321 -2.2453  1.7693  0.2249
  769SOL    HW2 3075   2.439   0.624   2.265  1.1809 -3.0432 -0.8877
  769SOL     MW 3076   2.383   0.670   2.320  0.4028 -0.1731  0.3997
  770SOL     OW 3077   0.110   1.606   2.603 -0.0254 -0.6855  0.0915
  770SOL    HW1 3078   0.010   1.598   2.599 -0.5709  0.2870 -0.6506
  770SOL    HW2 3079   0.132   1.535   2.668  0.0956  0.5756  1.8925
  770SOL     MW 3080   0.100   1.596   2.611 -0.0814 -0.3908  0.2312
  771SOL     OW 3081   2.956   0.627   1.922 -0.0285 -0.3082  0.1856
  771SOL    HW1 3082   2.938   0.620   1.826 -0.2978 -0.0291 -0.3506
  771SOL    HW2 3083   3.036   0.674   1.922 -1.0654  0.2940 -1.3358
  771SOL     MW 3084   2.964   0.632   1.909 -0.2008 -0.1919 -0.0859
  772SOL     OW 3085   3.100   3.095   2.295  0.0661  0.2279  0.4449
  772SOL    HW1 3086   3.020   3.051   2.321  0.3386 -0.8615 -1.7635
  772SOL    HW2 3087   3.159   3.022   2.257  3.4071 -0.6510  0.1056
  772SOL     MW 3088   3.097   3.079   2.293  0.5429 -0.0318  0.1088
  773SOL     OW 3089   2.480   2.848   2.746  0.1927  0.0122 -0.8329
  773SOL    HW1 3090   2.478   2.761   2.702 -0.4237 -1.3959  0.4386
  773SOL    HW2 3091   2.450   2.829   2.836 -0.5538  1.9699 -1.0286
  773SOL     MW 3092   2.476   2.834   2.753  0.0129  0.0847 -0.6910
  774SOL     OW 3093   2.263   1.164   1.709  0.0009 -0.6570 -0.2647
  774SOL    HW1 3094   2.286   1.242   1.652  2.4808 -1.7761 -0.6718
  774SOL    HW2 3095   2.202   1.108   1.660 -1.3056 -4.2181 -1.4537
  774SOL     MW 3096   2.258   1.167   1.695  0.1557 -1.2745 -0.4753
  775SOL     OW 3097   2.298   2.905   2.314  0.0703  0.1682  0.0695
  775SOL    HW1 3098   2.318   2.974   2.248 -3.0162  3.6886  2.2393
  775SOL    HW2 3099   2.363   2.833   2.298  0.7720 -1.7642  2.3532
  775SOL     MW 3100   2.309   2.904   2.303 -0.2443  0.3777  0.6571
  776SOL     OW 3101   0.049   1.456   0.109  0.7448  0.3338  0.2065
  776SOL    HW1 3102   0.145   1.431   0.116 -0.1345  1.9515 -1.6456
  776SOL    HW2 3103   0.024   1.360   0.125 -2.9473 -0.8299  0.3518
  776SOL     MW 3104   0.058   1.440   0.112  0.1416  0.3937 -0.0187
  777SOL     OW 3105   2.988   1.073   1.758 -0.6992  0.0111  0.0143
  777SOL    HW1 3106   2.922   1.131   1.723 -1.3064  0.7963  3.0120
  777SOL    HW2 3107   2.934   1.011   1.814  0.9559 -0.7996 -0.1332
  777SOL     MW 3108   2.972   1.072   1.761 -0.5610  0.0077  0.3903
  778SOL     OW 3109   2.897   0.415   2.783  0.2013  0.5330  0.6677
  778SOL    HW1 3110   2.827   0.437   2.854 -0.9810 -1.4650 -0.3041
  778SOL    HW2 3111   2.901   0.493   2.725  0.6395 -2.0337 -1.3731
  778SOL     MW 3112   2.889   0.428   2.785  0.1032 -0.0693  0.2702
  779SOL     OW 3113   2.109   0.633   2.306  0.4478  0.6862  0.1909
  779SOL    HW1 3114   2.032   0.651   2.374  1.4734 -3.2051 -0.1368
  779SOL    HW2 3115   2.139   0.557   2.351 -5.2320 -0.9428 -1.7038
  779SOL     MW 3116   2.103   0.626   2.321 -0.1663 -0.0422 -0.1023
  780SOL     OW 3117   0.219   0.100   2.813  0.2460 -0.2596 -0.0356
  780SOL    HW1 3118   0.167   0.158   2.867 -0.2189 -3.0582  0.7382
  780SOL    HW2 3119   0.195   0.115   2.724  0.5550 -2.2385 -0.0251
  780SOL     MW 3120   0.209   0.109   2.809  0.2255 -0.8899  0.0679
  781SOL     OW 3121   3.012   1.297   2.501 -0.2039  0.1043 -0.4348
  781SOL    HW1 3122   3.014   1.340   2.419 -0.9810 -1.1703  1.6210
  781SOL    HW2 3123   3.004   1.202   2.486 -0.3456  2.1810 -0.2144
  781SOL     MW 3124   3.011   1.290   2.488 -0.3251  0.2102 -0.1345
  782SOL     OW 3125   0.640   1.539   0.001 -0.6414 -0.4699 -0.8180
  782SOL    HW1 3126   0.597   1.615  -0.035 -1.2368  0.9200  0.4592
  782SOL    HW2 3127   0.595   1.520   0.085 -2.3336 -0.6589  2.5028
  782SOL     MW 3128   0.628   1.547   0.007 -0.9432 -0.3115 -0.2113
  783SOL     OW 3129   2.716   0.505   2.458 -0.1663  0.3691  0.3867
  783SOL    HW1 3130   2.672   0.492   2.371  0.3190  1.5680  0.0191
  783SOL    HW2 3131   2.690   0.432   2.519  2.1187 -0.2654  0.2635
  783SOL     MW 3132   2.707   0.494   2.455  0.1992  0.4436  0.3219
  784SOL     OW 3133   0.265   0.905   2.875 -0.1435 -0.0039 -0.1386
  784SOL    HW1 3134   0.232   0.984   2.926 -1.9660 -2.7561  0.8490
  784SOL    HW2 3135   0.315   0.941   2.802 -2.0193 -1.5625  4.3731
  784SOL     MW 3136   0.267   0.921   2.872 -0.6315 -0.5727  0.5869
  785SOL     OW 3137   0.445   0.554   2.177  0.0756  0.0120 -0.1759
  785SOL    HW1 3138   0.440   0.568   2.082  2.7358  2.3062 -1.2543
  785SOL    HW2 3139   0.378   0.497   2.212  0.7144  2.2806  0.4738
  785SOL     MW 3140   0.435   0.548   2.169  0.5109  0.6140 -0.2325
  786SOL     OW 3141   1.946   0.492   2.878  0.2880 -0.3870 -0.9428
  786SOL    HW1 3142   1.970   0.533   2.955 -3.3933  1.1549  0.8658
  786SOL    HW2 3143   2.025   0.456   2.843 -3.6205  0.5036  2.2940
  786SOL     MW 3144   1.960   0.493   2.884 -0.7134 -0.0661 -0.2771
  787SOL     OW 3145   2.431   0.133   2.967 -0.0988  0.1968  0.4268
  787SOL    HW1 3146   2.481   0.072   2.909  0.8922  3.0155  0.1286
  787SOL    HW2 3147   2.486   0.208   2.977 -0.7279 -2.0973 -1.5373
  787SOL     MW 3148   2.445   0.135   2.961 -0.0511  0.2660  0.1283
  788SOL     OW 3149   2.857   2.941   2.385 -0.3455  0.2435  0.0651
  788SOL    HW1 3150   2.781   2.893   2.342  1.9947 -1.8211  0.6005
  788SOL    HW2 3151   2.918   2.878   2.415 -1.0350 -1.9383  1.2940
  788SOL     MW 3152   2.855   2.926   2.383 -0.1277 -0.3168  0.2979
  789SOL     OW 3153   0.117   0.313   2.962  0.1682 -0.2914 -0.3672
  789SOL    HW1 3154   0.033   0.265   2.989 -1.7993  1.6608 -2.9567
  789SOL    HW2 3155   0.082   0.405   2.955 -1.1836  2.0596  3.7469
  789SOL     MW 3156   0.101   0.319   2.965 -0.2697  0.2763 -0.1661
  790SOL     OW 3157   3.037   1.033   2.423  0.8337 -0.7548 -0.0555
  790SOL    HW1 3158   3.018   0.953   2.470  2.2297 -1.3476  2.7110
  790SOL    HW2 3159   3.002   1.016   2.333 -0.5537  0.1249  2.4684
  790SOL     MW 3160   3.030   1.020   2.417  0.8348 -0.7169  0.6425
  791SOL     OW 3161   2.672   0.305   2.653  0.3131  0.4715  0.0102
  791SOL    HW1 3162   2.604   0.375   2.678  1.8953 -1.8497  1.1025
  791SOL    HW2 3163   2.751   0.326   2.703 -0.3398 -0.6534  0.3645
  791SOL     MW 3164   2.674   0.317   2.663  0.4357  0.0168  0.2010
  792SOL     OW 3165   2.381   0.228   2.354  0.3972 -0.0986  0.4417
  792SOL    HW1 3166   2.310   0.269   2.405  0.6463 -1.5538  1.5688
  792SOL    HW2 3167   2.434   0.182   2.420  1.7213 -0.4914  0.6362
  792SOL     MW 3168   2.378   0.227   2.370  0.6047 -0.3424  0.6161
  793SOL     OW 3169   1.857   1.088   1.950 -0.1336  0.3904  0.0666
  793SOL    HW1 3170   1.817   1.105   1.870 -0.0481  0.5026  3.0310
  793SOL    HW2 3171   1.923   1.018   1.934 -2.2143  1.3887  1.9773
  793SOL     MW 3172   1.860   1.081   1.937 -0.3968  0.5370  0.7098
  794SOL     OW 3173   1.433   2.291   0.152  0.1004  0.2368  0.3897
  794SOL    HW1 3174   1.442   2.362   0.083 -2.4316  1.8261 -2.7306
  794SOL    HW2 3175   1.483   2.318   0.229  0.3723 -1.1472  0.7775
  794SOL     MW 3176   1.441   2.304   0.153 -0.1978  0.2639  0.0292
  795SOL     OW 3177   2.352   0.968   2.557 -0.2276  0.0660  0.2112
  795SOL    HW1 3178   2.321   1.046   2.596  0.9764  0.0815 -1.1130
  795SOL    HW2 3179   2.340   0.962   2.459  0.1203 -0.2428 -0.2516
  795SOL     MW 3180   2.347   0.977   2.549 -0.0229  0.0273 -0.0246
  796SOL     OW 3181   0.225   0.637   2.803  0.1144  0.7172  0.0777
  796SOL    HW1 3182   0.243   0.727   2.821 -0.7497  0.9649 -2.1452
  796SOL    HW2 3183   0.170   0.631   2.725 -0.4854  4.0793  0.8119
  796SOL     MW 3184   0.220   0.648   2.795 -0.0788  1.1935 -0.1187
  797SOL     OW 3185   2.581   0.107   2.509  0.1050  0.3070 -0.1686
  797SOL    HW1 3186   2.622   0.188   2.563 -1.9947 -1.7392 -1.2473
  797SOL    HW2 3187   2.643   0.094   2.430 -0.7845  2.0739 -0.4770
  797SOL     MW 3188   2.594   0.116   2.506 -0.2894  0.2701 -0.3516
  798SOL     OW 3189   2.357   0.044   2.163  0.1398 -0.6380 -0.3972
  798SOL    HW1 3190   2.370   0.099   2.248  0.7014  0.1447 -0.7206
  798SOL    HW2 3191   2.445   0.021   2.147 -0.5408  0.5734  0.8701
  798SOL     MW 3192   2.370   0.048   2.172  0.1241 -0.3749 -0.2726
  799SOL     OW 3193   2.454   2.912   0.142 -0.1382 -0.0615  0.0463
  799SOL    HW1 3194   2.429   2.869   0.061  1.5475 -0.0050  1.2391
  799SOL    HW2 3195   2.394   2.989   0.151 -1.7207 -0.3978 -0.7781
  799SOL     MW 3196   2.443   2.917   0.133 -0.1246 -0.0984  0.0949
  800SOL     OW 3197   1.839   0.009   1.809  0.2796 -0.7260 -0.2083
  800SOL    HW1 3198   1.774  -0.061   1.821  2.0554 -1.1778 -1.7585
  800SOL    HW2 3199   1.906  -0.003   1.878 -0.4317  1.6191 -0.2507
  800SOL     MW 3200   1.839  -0.002   1.820  0.4201 -0.4762 -0.4185
  801SOL     OW 3201   2.780   1.272   2.655  0.1197  0.9510  0.6213
  801SOL    HW1 3202   2.756   1.187   2.610 -0.7535 -1.9531  0.0813
  801SOL    HW2 3203   2.857   1.299   2.609 -4.5171 -2.6833 -0.5997
  801SOL     MW 3204   2.787   1.264   2.643 -0.6073  0.0883  0.3890
  802SOL     OW 3205   2.570   1.574   2.824  0.1441  0.3118  0.2733
  802SOL    HW1 3206   2.546   1.483   2.787 -0.1907 -0.8811  2.2407
  802SOL    HW2 3207   2.670   1.564   2.843  2.3141 -1.8852  0.5273
  802SOL     MW 3208   2.580   1.560   2.822  0.3862 -0.1355  0.5664
  803SOL     OW 3209   2.304   1.337   1.960  0.6451 -0.0530  0.6810
  803SOL    HW1 3210   2.262   1.317   2.042 -3.0223 -1.8747  1.5976
  803SOL    HW2 3211   2.246   1.299   1.896 -0.2255  3.4907 -0.0236
  803SOL     MW 3212   2.290   1.330   1.962  0.0464  0.1742  0.7090
  804SOL     OW 3213   2.263   0.044   0.078 -0.5202  0.6406 -0.0397
  804SOL    HW1 3214   2.185   0.102   0.062  1.3348 -0.2505 -1.0396
  804SOL    HW2 3215   2.328   0.064   0.013 -2.0606  0.2321 -0.5673
  804SOL     MW 3216   2.261   0.054   0.068 -0.4787  0.4692 -0.2413
  805SOL     OW 3217   2.717   1.042   2.519 -0.0294 -0.5369 -0.1768
  805SOL    HW1 3218   2.699   1.021   2.428 -1.3599  0.2247 -1.0256
  805SOL    HW2 3219   2.794   0.994   2.541  0.1377 -1.2228  0.9851
  805SOL     MW 3220   2.725   1.033   2.510 -0.1829 -0.5269 -0.1355
  806SOL     OW 3221   2.580   0.402   2.245  0.6820  0.3101  0.4885
  806SOL    HW1 3222   2.509   0.336   2.272 -3.3480 -0.1455 -0.4929
  806SOL    HW2 3223   2.617   0.372   2.160 -1.4335 -0.4320  0.1566
  806SOL     MW 3224   2.575   0.390   2.237 -0.1288  0.1521  0.3153
  807SOL     OW 3225   0.035   1.131   2.028 -0.7961 -0.0163 -0.2131
  807SOL    HW1 3226   0.075   1.041   1.991  0.0610 -0.4192 -0.0187
  807SOL    HW2 3227  -0.036   1.102   2.077 -1.0933 -2.6403 -0.1484
  807SOL     MW 3228   0.031   1.115   2.029 -0.7222 -0.4157 -0.1789
  808SOL     OW 3229   2.565   3.096   2.773  0.1649  0.0064  0.0701
  808SOL    HW1 3230   2.540   3.005   2.750 -0.5418  0.9286  0.7704
  808SOL    HW2 3231   2.559   3.141   2.684  0.7668  0.5962 -2.7046
  808SOL     MW 3232   2.561   3.090   2.758  0.1510  0.2059 -0.2036
  809SOL     OW 3233   2.557   1.258   2.403  0.3533  0.1483 -0.3955
  809SOL    HW1 3234   2.600   1.204   2.472  1.1800 -1.5996  2.2387
  809SOL    HW2 3235   2.623   1.255   2.330 -0.1277 -0.2960 -2.3094
  809SOL     MW 3236   2.572   1.251   2.403  0.3989 -0.1409 -0.3004
  810SOL     OW 3237   2.241   1.310   2.215  0.0523 -0.2171 -0.4418
  810SOL    HW1 3238   2.303   1.235   2.223 -0.3535  0.7517  2.1336
  810SOL    HW2 3239   2.157   1.269   2.249 -1.8154  0.2861 -1.5364
  810SOL     MW 3240   2.238   1.295   2.221 -0.2476 -0.0229 -0.2464
  811SOL     OW 3241   1.552   0.088   2.273  0.6849 -0.6354 -0.0730
  811SOL    HW1 3242   1.638   0.076   2.311 -3.3733 -0.8409 -0.9206
  811SOL    HW2 3243   1.549   0.105   2.178 -1.8451  0.8756  3.8428
  811SOL     MW 3244   1.563   0.089   2.266 -0.1843 -0.4631  0.3318
  812SOL     OW 3245   1.434   2.770   2.064  0.2153  0.2510 -0.8464
  812SOL    HW1 3246   1.529   2.789   2.060 -1.2095 -0.3832 -1.2775
  812SOL    HW2 3247   1.415   2.772   2.157  0.7338 -2.2659  0.0138
  812SOL     MW 3248   1.444   2.773   2.076  0.0957 -0.1647 -0.7898
  813SOL     OW 3249   1.777   0.714   2.210 -0.0417 -0.4674 -0.1097
  813SOL    HW1 3250   1.746   0.623   2.213 -0.7708  0.1924  0.0900
  813SOL    HW2 3251   1.808   0.734   2.301  0.9215  1.0102 -0.8870
  813SOL     MW 3252   1.777   0.705   2.222 -0.0108 -0.1854 -0.1859
  814SOL     OW 3253   2.786   1.226   1.657  0.1171 -0.0002 -0.2087
  814SOL    HW1 3254   2.720   1.182   1.710  0.9257 -3.0959  0.5104
  814SOL    HW2 3255   2.785   1.179   1.575 -1.0213  0.0852 -1.1810
  814SOL     MW 3256   2.777   1.214   1.653  0.0736 -0.3974 -0.2421
  815SOL     OW 3257   2.514   1.649   2.411  0.1512 -0.7486 -0.1179
  815SOL    HW1 3258   2.444   1.580   2.421 -3.0485  0.6460 -2.9041
  815SOL    HW2 3259   2.599   1.608   2.409  2.2713 -2.1310 -2.0100
  815SOL     MW 3260   2.516   1.634   2.412  0.0087 -0.7469 -0.7352
  816SOL     OW 3261   0.758   0.620   2.761 -0.3713 -0.0795  0.4969
  816SOL    HW1 3262   0.766   0.544   2.814 -1.8946  1.1249  0.8070
  816SOL    HW2 3263   0.664   0.628   2.744  1.9242 -1.7191  0.3610
  816SOL     MW 3264   0.746   0.611   2.766 -0.2694 -0.1369  0.5199
  817SOL     OW 3265   3.037   1.191   1.367  0.5507 -0.7116 -0.3333
  817SOL    HW1 3266   3.082   1.189   1.452  2.4656 -1.4342 -2.2097
  817SOL    HW2 3267   3.051   1.280   1.326  0.0472 -2.2337 -0.9917
  817SOL     MW 3268   3.045   1.203   1.373  0.7369 -1.0077 -0.6677
  818SOL     OW 3269   1.926   0.990   2.770  0.1298 -0.1080  0.3983
  818SOL    HW1 3270   1.878   1.013   2.692 -4.3922  0.0956  1.6039
  818SOL    HW2 3271   1.986   0.920   2.741 -2.6587 -0.1870  0.6445
  818SOL     MW 3272   1.928   0.983   2.756 -0.8348 -0.0916  0.5898
  819SOL     OW 3273   1.949   0.282   2.493 -0.0428 -0.5689  0.0476
  819SOL    HW1 3274   1.870   0.331   2.512  1.3971 -3.1685 -0.4720
  819SOL    HW2 3275   1.986   0.264   2.583  1.9349 -1.0060  1.7938
  819SOL     MW 3276   1.943   0.286   2.507  0.4081 -0.9696  0.2094
  820SOL     OW 3277   2.476   1.765   2.654 -0.0027  0.1424 -0.2364
  820SOL    HW1 3278   2.519   1.693   2.710  0.6498 -1.1397 -2.1354
  820SOL    HW2 3279   2.488   1.737   2.562  2.9682  1.9717  2.9943
  820SOL     MW 3280   2.483   1.752   2.649  0.4753  0.2146 -0.0607
  821SOL     OW 3281   2.575   1.357   2.002 -0.1822  0.2765 -0.5140
  821SOL    HW1 3282   2.608   1.429   1.943 -2.8115  0.3802 -1.2261
  821SOL    HW2 3283   2.481   1.352   1.986  1.2104  2.2916  2.5574
  821SOL     MW 3284   2.567   1.366   1.992 -0.3454  0.5561 -0.2027
  822SOL     OW 3285   2.818   2.656   1.471  0.4042  0.4679  0.2318
  822SOL    HW1 3286   2.829   2.692   1.558 -2.9738 -1.4812  0.7275
  822SOL    HW2 3287   2.761   2.717   1.425  0.2086  2.6204 -2.2021
  822SOL     MW 3288   2.812   2.669   1.477 -0.0673  0.4947 -0.0239
  823SOL     OW 3289   2.249   0.464   1.798 -0.3997 -0.0587 -1.1534
  823SOL    HW1 3290   2.328   0.426   1.759  0.7079  1.0785  0.4228
  823SOL    HW2 3291   2.169   0.411   1.774 -2.4048 -1.0631 -0.5027
  823SOL     MW 3292   2.248   0.452   1.789 -0.5181 -0.0412 -0.8596
  824SOL     OW 3293   2.064   1.417   2.513  0.0505  0.6359  0.0884
  824SOL    HW1 3294   2.149   1.434   2.477 -2.6905 -0.1830  2.7292
  824SOL    HW2 3295   2.025   1.495   2.546 -0.6752 -1.6442 -3.4021
  824SOL     MW 3296   2.070   1.429   2.513 -0.4069  0.2270 -0.0237
  825SOL     OW 3297   2.071   2.535   0.289 -0.8049 -0.2311  0.4171
  825SOL    HW1 3298   2.138   2.496   0.345 -1.9273 -2.0677  1.5012
  825SOL    HW2 3299   2.110   2.508   0.200  0.7018 -0.2781  3.4048
  825SOL     MW 3300   2.085   2.526   0.284 -0.7542 -0.4796  0.9543
  826SOL     OW 3301   1.927   2.357   0.528 -0.3290 -0.3813 -0.5945
  826SOL    HW1 3302   1.896   2.281   0.572  2.7079 -0.3481 -3.3270
  826SOL    HW2 3303   1.892   2.444   0.570 -1.7435 -0.4547  0.1838
  826SOL     MW 3304   1.918   2.358   0.539 -0.1150 -0.3866 -0.8523
  827SOL     OW 3305   1.964   2.188   0.817  0.2016  0.4802 -0.0532
  827SOL    HW1 3306   1.911   2.160   0.741  1.4843 -1.3788 -0.8471
  827SOL    HW2 3307   1.935   2.128   0.889 -0.9711  0.5451  1.5915
  827SOL     MW 3308   1.953   2.176   0.816  0.2161  0.2435  0.0590
  828SOL     OW 3309   0.076   2.628   0.503 -0.2403 -0.2227 -0.0990
  828SOL    HW1 3310   0.173   2.637   0.492  2.6284 -0.4426  0.3206
  828SOL    HW2 3311   0.041   2.689   0.436 -1.7337 -2.5570 -1.4937
  828SOL     MW 3312   0.085   2.637   0.493 -0.0588 -0.5597 -0.2277
  829SOL     OW 3313   3.003   2.954   1.223 -0.1726  0.1770 -0.2144
  829SOL    HW1 3314   2.921   2.949   1.170  0.1837 -0.2832 -0.5615
  829SOL    HW2 3315   3.045   2.876   1.199  0.1882 -0.3978  0.4707
  829SOL     MW 3316   2.998   2.943   1.213 -0.0780  0.0404 -0.1698
  830SOL     OW 3317   2.527   2.876   2.031  0.4063 -0.3941 -0.0938
  830SOL    HW1 3318   2.444   2.904   1.987  0.9384  0.9724 -2.4615
  830SOL    HW2 3319   2.577   2.844   1.959  0.1584  1.3739  1.7623
  830SOL     MW 3320   2.522   2.875   2.016  0.4438  0.0194 -0.1613
  831SOL     OW 3321   2.376   2.450   1.231 -0.2937  0.1270  0.0592
  831SOL    HW1 3322   2.340   2.364   1.263 -0.2584  0.5134  1.0169
  831SOL    HW2 3323   2.468   2.419   1.210 -0.6881 -1.5354  1.0492
  831SOL     MW 3324   2.384   2.434   1.233 -0.3410 -0.0414  0.3161
  832SOL     OW 3325   2.397   2.166   1.836 -0.1353 -0.7122 -0.0052
  832SOL    HW1 3326   2.385   2.255   1.868 -0.2788 -1.2340 -1.1374
  832SOL    HW2 3327   2.496   2.146   1.835  3.0334  2.7385  0.7488
  832SOL     MW 3328   2.409   2.176   1.840  0.2638 -0.3257 -0.0551
  833SOL     OW 3329   1.805   2.491   0.917 -0.1521 -0.4187  0.0255
  833SOL    HW1 3330   1.755   2.419   0.946  0.4022 -2.2673 -1.3772
  833SOL    HW2 3331   1.792   2.583   0.955  2.2275  1.9107 -3.1024
  833SOL     MW 3332   1.797   2.494   0.926  0.2350 -0.3553 -0.5722
  834SOL     OW 3333   2.242   2.433   0.508 -0.1007  0.2401  0.7163
  834SOL    HW1 3334   2.171   2.369   0.526  0.3487  0.0367  1.6376
  834SOL    HW2 3335   2.303   2.386   0.442  3.3891  1.2449 -1.5692
  834SOL     MW 3336   2.240   2.418   0.502  0.4190  0.3458  0.5363
  835SOL     OW 3337   1.881   2.596   0.673 -0.0424  0.1137  0.1696
  835SOL    HW1 3338   1.861   2.552   0.760  0.8742  5.0760  0.1098
  835SOL    HW2 3339   1.944   2.667   0.680  2.1948  0.0650 -2.4584
  835SOL     MW 3340   1.887   2.599   0.686  0.3737  0.7620 -0.1850
  836SOL     OW 3341   1.998   2.168   1.645  0.3688  0.2737 -0.2682
  836SOL    HW1 3342   2.088   2.133   1.640 -0.4935 -2.2045 -0.9911
  836SOL    HW2 3343   1.997   2.231   1.718 -0.3092 -0.8147  1.0007
  836SOL     MW 3344   2.010   2.171   1.654  0.1656 -0.1969 -0.1961
  837SOL     OW 3345   2.062   0.173   0.695 -0.0410  0.0703  0.2790
  837SOL    HW1 3346   1.980   0.209   0.644 -2.2559 -0.2067  0.8110
  837SOL    HW2 3347   2.103   0.127   0.619 -2.3946 -2.7109  1.9341
  837SOL     MW 3348   2.056   0.172   0.678 -0.6438 -0.3332  0.5676
  838SOL     OW 3349   2.876   2.045   0.916 -0.2857  0.2720 -0.1597
  838SOL    HW1 3350   2.797   1.993   0.941 -2.0186  0.4573  0.3045
  838SOL    HW2 3351   2.952   1.996   0.945 -2.2530  1.4939  2.1943
  838SOL     MW 3352   2.876   2.032   0.923 -0.7739  0.4577  0.2121
  839SOL     OW 3353   1.498   2.345   0.916  0.1719  0.1199  0.0381
  839SOL    HW1 3354   1.493   2.410   0.985 -1.6669  0.3232 -1.1378
  839SOL    HW2 3355   1.521   2.265   0.964  1.0440  0.4248 -1.4490
  839SOL     MW 3356   1.500   2.343   0.932  0.0444  0.1870 -0.3133
  840SOL     OW 3357   2.292   2.053   2.390  0.0568  0.1215 -0.0742
  840SOL    HW1 3358   2.262   2.129   2.357 -1.9025 -2.5670  0.7607
  840SOL    HW2 3359   2.369   2.095   2.434 -0.5169  3.1163  2.5231
  840SOL     MW 3360   2.299   2.069   2.391 -0.2774  0.1619  0.3787
  841SOL     OW 3361   2.221   2.444   0.078  0.1858 -0.4740 -0.4715
  841SOL    HW1 3362   2.265   2.486  -0.000 -1.0373  2.0128 -3.1998
  841SOL    HW2 3363   2.159   2.375   0.051  1.5565 -1.2068  1.3522
  841SOL     MW 3364   2.218   2.440   0.064  0.2053 -0.2426 -0.5908
  842SOL     OW 3365   2.664   1.985   1.544 -0.1503  0.4354 -1.2772
  842SOL    HW1 3366   2.620   1.905   1.540 -0.6997  0.6998  2.7898
  842SOL    HW2 3367   2.630   2.026   1.459 -0.3916 -0.3336 -0.3363
  842SOL     MW 3368   2.653   1.980   1.532 -0.2546  0.3688 -0.6165
  843SOL     OW 3369   2.631   2.812   1.793  0.0787 -0.1157 -0.0486
  843SOL    HW1 3370   2.707   2.755   1.784 -0.2198 -0.9076 -3.5166
  843SOL    HW2 3371   2.565   2.761   1.745  0.2779  1.8584  1.4024
  843SOL     MW 3372   2.632   2.798   1.786  0.0656  0.0402 -0.3147
  844SOL     OW 3373   2.640   2.358   1.189  0.5737  0.0479 -0.1781
  844SOL    HW1 3374   2.702   2.371   1.118 -2.0496  0.9533 -1.7811
  844SOL    HW2 3375   2.687   2.380   1.273 -1.9029  1.6766  0.5249
  844SOL     MW 3376   2.655   2.362   1.191 -0.0992  0.3823 -0.2968
  845SOL     OW 3377   2.832   2.546   0.350  0.1615  0.2732  0.0813
  845SOL    HW1 3378   2.780   2.465   0.367 -1.6693 -0.9703  0.1800
  845SOL    HW2 3379   2.810   2.597   0.435 -1.2395  0.7451  0.0062
  845SOL     MW 3380   2.822   2.542   0.364 -0.2649  0.1714  0.0845
  846SOL     OW 3381   1.497   2.816   0.846 -0.0339 -0.2148 -0.0260
  846SOL    HW1 3382   1.570   2.879   0.852  2.4916 -2.3101  0.6430
  846SOL    HW2 3383   1.417   2.871   0.850 -2.1078 -1.5375 -2.2850
  846SOL     MW 3384   1.496   2.831   0.847  0.0257 -0.6657 -0.2358
  847SOL     OW 3385   2.471   1.923   0.184 -0.1944 -0.0426 -0.4442
  847SOL    HW1 3386   2.480   1.841   0.237  0.6408 -2.4672  1.7136
  847SOL    HW2 3387   2.447   1.898   0.093 -0.9131  0.9585 -2.0473
  847SOL     MW 3388   2.469   1.909   0.179 -0.1790 -0.2304 -0.3710
  848SOL     OW 3389   2.594   2.094   1.278 -0.1365 -0.2510 -0.4376
  848SOL    HW1 3390   2.618   2.174   1.242 -0.5571  0.9146  2.2230
  848SOL    HW2 3391   2.581   2.037   1.203  0.4873 -1.4862 -0.5059
  848SOL     MW 3392   2.595   2.097   1.263 -0.1097 -0.2602 -0.0956
  849SOL     OW 3393   2.047   2.787   0.771  0.8516 -0.7690  0.2968
  849SOL    HW1 3394   2.051   2.730   0.845 -0.5215 -0.6250 -2.2157
  849SOL    HW2 3395   2.128   2.760   0.719  0.0756 -0.4713 -2.4579
  849SOL     MW 3396   2.058   2.776   0.774  0.5681 -0.7107 -0.3981
  850SOL     OW 3397   2.258   1.814   1.636  0.1517 -0.2475 -0.1240
  850SOL    HW1 3398   2.174   1.785   1.601  2.5667 -0.8469  0.8386
  850SOL    HW2 3399   2.262   1.915   1.638  2.9177  1.5063  2.4271
  850SOL     MW 3400   2.247   1.823   1.632  0.8353 -0.0952  0.3396
  851SOL     OW 3401   2.372   2.387   0.291  0.4067 -0.1150  0.2969
  851SOL    HW1 3402   2.313   2.424   0.220  0.8652  2.6412  0.8456
  851SOL    HW2 3403   2.468   2.393   0.268  1.7759 -1.3368  1.6777
  851SOL     MW 3404   2.377   2.393   0.278  0.6479  0.0874  0.5515
  852SOL     OW 3405   2.340   2.095   0.339 -0.2726  0.0347  0.6064
  852SOL    HW1 3406   2.363   2.177   0.295  1.6773  1.6414  0.1626
  852SOL    HW2 3407   2.394   2.034   0.284 -0.5951 -0.4228  0.5154
  852SOL     MW 3408   2.350   2.098   0.326 -0.0579  0.1863  0.5358
  853SOL     OW 3409   2.457   2.429   1.912 -0.5298 -0.4026 -0.3499
  853SOL    HW1 3410   2.486   2.481   1.834  0.9798  0.1800  0.9153
  853SOL    HW2 3411   2.539   2.438   1.965  1.2079 -1.0455  0.2682
  853SOL     MW 3412   2.472   2.437   1.909 -0.1014 -0.4105 -0.1014
  854SOL     OW 3413   2.850   2.284   0.756 -0.0873 -0.6269  0.0323
  854SOL    HW1 3414   2.751   2.270   0.756 -1.3088  1.7499  0.4516
  854SOL    HW2 3415   2.877   2.199   0.798 -3.5979  0.3687 -0.8585
  854SOL     MW 3416   2.841   2.271   0.762 -0.7116 -0.1819 -0.0299
  855SOL     OW 3417   2.650   2.316   0.331  0.6795  0.0637 -0.5928
  855SOL    HW1 3418   2.631   2.300   0.425 -0.4578 -0.4656  1.9297
  855SOL    HW2 3419   2.722   2.248   0.316 -1.1698 -0.9073  1.9816
  855SOL     MW 3420   2.657   2.305   0.342  0.2855 -0.1342  0.0797
  856SOL     OW 3421   2.118   1.917   0.221  0.1079 -0.3864 -0.1179
  856SOL    HW1 3422   2.024   1.911   0.246 -1.5582 -0.4977 -1.8252
  856SOL    HW2 3423   2.165   1.991   0.270 -0.5477  1.8949 -2.9773
  856SOL     MW 3424   2.111   1.926   0.231 -0.1984 -0.1001 -0.7204
  857SOL     OW 3425   2.463   1.964   0.547 -0.0644  0.0092 -0.1224
  857SOL    HW1 3426   2.419   2.011   0.469  1.6912  0.5949  0.8058
  857SOL    HW2 3427   2.386   1.952   0.614  0.9231 -0.1906  1.0490
  857SOL     MW 3428   2.447   1.968   0.546  0.2975  0.0601  0.1546
  858SOL     OW 3429   2.894   2.703   1.763 -0.2082 -0.1198  0.4905
  858SOL    HW1 3430   2.986   2.710   1.767 -2.0017 -0.3437 -3.2769
  858SOL    HW2 3431   2.879   2.610   1.788 -1.5386 -1.6071 -0.4616
  858SOL     MW 3432   2.904   2.691   1.767 -0.6203 -0.3456 -0.1322
  859SOL     OW 3433   2.138   2.585   0.954 -0.3369  0.7703  0.5757
  859SOL    HW1 3434   2.127   2.491   0.975  0.1362  1.3604  0.7724
  859SOL    HW2 3435   2.179   2.615   1.034 -3.2581 -0.1329  1.0664
  859SOL     MW 3436   2.142   2.577   0.967 -0.6599  0.7290  0.6664
  860SOL     OW 3437   2.701   2.624   0.129 -0.0057 -0.0307  0.0729
  860SOL    HW1 3438   2.720   2.610   0.226 -0.9154 -3.1983  2.9686
  860SOL    HW2 3439   2.742   2.710   0.103  3.2652  3.4363 -1.1943
  860SOL     MW 3440   2.709   2.633   0.139  0.3058  0.0088  0.2877
  861SOL     OW 3441   1.607   2.196   1.115  0.1994  0.2187 -0.4818
  861SOL    HW1 3442   1.611   2.274   1.174  1.3577  0.3288 -0.3399
  861SOL    HW2 3443   1.563   2.125   1.159  0.3683  0.5438 -0.3163
  861SOL     MW 3444   1.602   2.197   1.128  0.3745  0.2761 -0.4412
  862SOL     OW 3445   2.496   1.780   1.519  0.4177 -0.3976  0.1160
  862SOL    HW1 3446   2.410   1.789   1.559 -1.3323 -0.0562 -1.3842
  862SOL    HW2 3447   2.481   1.804   1.427 -0.9025 -2.1924 -0.5987
  862SOL     MW 3448   2.483   1.784   1.512  0.0126 -0.5894 -0.1763
  863SOL     OW 3449   2.986   1.766   1.052 -0.1392  0.2480  0.3737
  863SOL    HW1 3450   3.064   1.784   1.104 -1.9501  0.4335 -0.4430
  863SOL    HW2 3451   2.905   1.800   1.093 -0.1128 -0.7762 -0.6325
  863SOL     MW 3452   2.986   1.773   1.065 -0.3746  0.1373  0.1332
  864SOL     OW 3453   0.025   1.833   0.809  0.7233  0.4079  0.1614
  864SOL    HW1 3454  -0.023   1.805   0.890  2.4260  0.9993  2.1584
  864SOL    HW2 3455   0.010   1.787   0.723  0.2719 -0.4560  0.3028
  864SOL     MW 3456   0.016   1.823   0.808  0.8884  0.3720  0.4435
  865SOL     OW 3457   2.504   2.188   0.067  0.6240 -0.1792 -0.4114
  865SOL    HW1 3458   2.485   2.103   0.112  3.0864 -3.9600 -2.2674
  865SOL    HW2 3459   2.518   2.170  -0.024  0.3656 -0.2344  0.7959
  865SOL     MW 3460   2.503   2.174   0.061  0.9148 -0.6854 -0.4970
  866SOL     OW 3461   2.662   2.351   1.623 -0.1307  0.4197 -0.4142
  866SOL    HW1 3462   2.623   2.264   1.625 -1.7312  0.4980  0.9191
  866SOL    HW2 3463   2.725   2.345   1.547  2.4863 -0.6091  1.1329
  866SOL     MW 3464   2.665   2.339   1.613  0.0034  0.2943 -0.0342
  867SOL     OW 3465   0.084   2.675   1.786  0.7989 -0.2818  0.4531
  867SOL    HW1 3466   0.139   2.717   1.861 -0.1791 -0.5462  2.4553
  867SOL    HW2 3467   0.120   2.725   1.714 -0.4704 -1.1057 -0.6442
  867SOL     MW 3468   0.096   2.687   1.787  0.5024 -0.4254  0.5725
  868SOL     OW 3469   2.751   2.719   0.570  0.1509  0.2755 -0.0112
  868SOL    HW1 3470   2.664   2.670   0.571 -1.3998 -1.1709  3.0124
  868SOL    HW2 3471   2.755   2.756   0.481 -2.6288  0.1911 -2.3828
  868SOL     MW 3472   2.740   2.718   0.559 -0.4204  0.0735  0.0748
  869SOL     OW 3473   2.080   2.329   1.040 -0.2061 -0.0938 -0.4466
  869SOL    HW1 3474   2.155   2.299   0.988  0.1334 -1.4288 -2.7152
  869SOL    HW2 3475   2.010   2.310   0.974  0.6962  0.2922 -1.7521
  869SOL     MW 3476   2.080   2.322   1.025 -0.0423 -0.2190 -0.9181
  870SOL     OW 3477   2.150   0.006   0.497 -0.2819  0.6372  0.0568
  870SOL    HW1 3478   2.219   0.065   0.454  0.3887  1.8021 -1.9854
  870SOL    HW2 3479   2.180  -0.081   0.481 -0.2973  2.4694 -0.6866
  870SOL     MW 3480   2.163   0.003   0.489 -0.1955  1.0327 -0.3107
  871SOL     OW 3481   2.451   2.083   0.933  0.3689  0.4255 -0.0971
  871SOL    HW1 3482   2.395   2.055   0.861 -1.7902 -1.2504  2.8470
  871SOL    HW2 3483   2.422   2.177   0.950 -1.3604  0.6408 -1.5014
  871SOL     MW 3484   2.440   2.092   0.926 -0.1442  0.2328  0.1061
  872SOL     OW 3485   2.043   2.491   1.512  0.0200  0.2554 -0.3947
  872SOL    HW1 3486   1.974   2.540   1.561 -0.4246 -0.1168  0.9032
  872SOL    HW2 3487   2.009   2.408   1.470  1.9259 -0.6294 -0.4909
  872SOL     MW 3488   2.029   2.487   1.513  0.2128  0.0895 -0.2362
  873SOL     OW 3489   2.889   2.055   1.976  0.6370  0.6851 -0.3592
  873SOL    HW1 3490   2.906   2.116   2.053 -0.1880  0.7122  2.3467
  873SOL    HW2 3491   2.944   2.107   1.912 -2.9400  1.9689 -2.5963
  873SOL     MW 3492   2.899   2.070   1.978  0.0562  0.8581 -0.2974
  874SOL     OW 3493   2.339   1.423   2.448  0.1818  0.3032 -0.3370
  874SOL    HW1 3494   2.316   1.392   2.363 -1.4013  1.0986 -0.7221
  874SOL    HW2 3495   2.419   1.377   2.458 -1.6135  1.3687 -2.1646
  874SOL     MW 3496   2.346   1.413   2.438 -0.2639  0.5487 -0.6290
  875SOL     OW 3497   2.349   2.335   0.984 -0.0129  0.3008  0.0455
  875SOL    HW1 3498   2.405   2.381   0.924 -0.0076 -1.4700  1.0890
  875SOL    HW2 3499   2.346   2.395   1.057  0.3220 -0.0560  2.2648
  875SOL     MW 3500   2.356   2.349   0.986  0.0320  0.0201  0.4760
  876SOL     OW 3501   3.076   2.255   1.379 -0.7109  0.3112 -0.5121
  876SOL    HW1 3502   3.108   2.299   1.298  2.1401  1.0497  2.1167
  876SOL    HW2 3503   3.128   2.292   1.455 -0.2529  3.0780 -1.1666
  876SOL     MW 3504   3.087   2.266   1.378 -0.2743  0.7737 -0.2516
  877SOL     OW 3505   3.091   2.849   0.306 -0.3664  0.1727  0.3328
  877SOL    HW1 3506   3.174   2.897   0.290 -0.1466 -1.4417  2.2364
  877SOL    HW2 3507   3.091   2.782   0.240 -1.1486  0.6442  1.6484
  877SOL     MW 3508   3.102   2.846   0.295 -0.4406  0.0219  0.7576
  878SOL     OW 3509   2.418   1.796   1.245  0.0807 -0.1374 -0.1105
  878SOL    HW1 3510   2.347   1.733   1.242  3.1024  0.1808 -4.5084
  878SOL    HW2 3511   2.497   1.742   1.235  0.2105 -1.7726 -2.0935
  878SOL     MW 3512   2.419   1.781   1.243  0.4965 -0.3112 -0.9524
  879SOL     OW 3513   2.755   2.447   0.970  0.6775 -0.3474  0.5581
  879SOL    HW1 3514   2.812   2.521   0.990  1.6105 -1.4639 -1.3647
  879SOL    HW2 3515   2.812   2.390   0.914  2.5470  1.9167 -3.7726
  879SOL     MW 3516   2.770   2.449   0.965  1.0473 -0.1960 -0.2670
  880SOL     OW 3517   2.616   2.158   0.726  0.3240 -0.0611 -0.7488
  880SOL    HW1 3518   2.543   2.152   0.791  0.1746  0.8664  2.5665
  880SOL    HW2 3519   2.585   2.112   0.655 -2.1082  1.6422  2.4278
  880SOL     MW 3520   2.602   2.151   0.725 -0.0166  0.2860  0.1078
  881SOL     OW 3521   2.988   2.721   0.710 -0.1207  0.4668 -0.5684
  881SOL    HW1 3522   2.903   2.703   0.679  2.8178  0.5232  0.2194
  881SOL    HW2 3523   3.048   2.667   0.659  1.0639 -1.9652 -0.5711
  881SOL     MW 3524   2.985   2.712   0.699  0.4233  0.1533 -0.4648
  882SOL     OW 3525   2.244   2.893   1.958  0.0656 -0.1116 -0.8009
  882SOL    HW1 3526   2.232   2.898   1.863  1.4910  0.2449  2.2918
  882SOL    HW2 3527   2.205   2.809   1.987  0.0284 -2.8970  0.4642
  882SOL     MW 3528   2.237   2.883   1.949  0.2488 -0.4321 -0.2259
  883SOL     OW 3529   2.334   2.204   1.369  0.4948  0.1672 -0.6928
  883SOL    HW1 3530   2.409   2.147   1.347 -2.0650 -0.2355  0.4593
  883SOL    HW2 3531   2.257   2.172   1.328 -0.5703 -1.7264  1.2763
  883SOL     MW 3532   2.334   2.192   1.360  0.0165 -0.1358 -0.2810
  884SOL     OW 3533   1.956   1.819   1.076  0.1796 -0.0318 -0.1176
  884SOL    HW1 3534   1.899   1.900   1.057 -0.7991  2.9628 -1.2178
  884SOL    HW2 3535   2.052   1.850   1.082  0.8764 -0.8262  1.3266
  884SOL     MW 3536   1.961   1.833   1.074  0.1424  0.2585 -0.0722
  885SOL     OW 3537   2.858   2.435   1.806 -0.3687  0.0324 -0.4076
  885SOL    HW1 3538   2.937   2.384   1.806  1.4249  1.5782 -1.2070
  885SOL    HW2 3539   2.797   2.401   1.744  0.8519  0.3062  1.6918
  885SOL     MW 3540   2.860   2.424   1.798  0.0290  0.2725 -0.2361
  886SOL     OW 3541   2.823   2.400   1.396  0.1638  0.1803 -0.2855
  886SOL    HW1 3542   2.904   2.348   1.387  3.5020 -2.6535 -0.7565
  886SOL    HW2 3543   2.845   2.491   1.393  0.1275 -1.0250 -0.0060
  886SOL     MW 3544   2.837   2.405   1.394  0.5995 -0.3526 -0.3107
  887SOL     OW 3545   2.279   2.652   1.552 -0.4754  0.4995 -0.4663
  887SOL    HW1 3546   2.322   2.656   1.463  0.8779 -3.0629 -1.3828
  887SOL    HW2 3547   2.208   2.591   1.539 -1.4605  1.8441 -0.6866
  887SOL     MW 3548   2.275   2.644   1.539 -0.4268  0.2069 -0.6163
  888SOL     OW 3549   1.861   2.165   1.399  0.6268  0.1270 -0.4198
  888SOL    HW1 3550   1.935   2.128   1.348 -1.4477  2.4481 -2.6597
  888SOL    HW2 3551   1.890   2.170   1.492  0.8377  1.0912  0.4722
  888SOL     MW 3552   1.875   2.161   1.404  0.3809  0.5605 -0.5976
  889SOL     OW 3553   2.354   2.022   2.086 -0.1339 -0.0745 -0.0276
  889SOL    HW1 3554   2.415   2.034   2.159  2.7686  0.7717 -0.4509
  889SOL    HW2 3555   2.366   2.091   2.023  2.1305 -1.9216 -1.1844
  889SOL     MW 3556   2.364   2.033   2.088  0.5478 -0.2066 -0.2361
  890SOL     OW 3557   0.078   2.384   0.147 -0.2872 -0.4055 -0.2373
  890SOL    HW1 3558   0.031   2.466   0.141 -1.0887  1.3991 -0.7967
  890SOL    HW2 3559   0.046   2.341   0.227  2.1416 -0.0511 -0.8891
  890SOL     MW 3560   0.068   2.389   0.157 -0.0725 -0.1206 -0.3971
  891SOL     OW 3561   3.092   1.987   1.272 -0.2025 -0.1454 -0.5312
  891SOL    HW1 3562   3.175   1.942   1.277 -0.7199 -4.7740 -0.2204
  891SOL    HW2 3563   3.091   2.080   1.290 -0.6030 -0.0437  0.2916
  891SOL     MW 3564   3.103   1.994   1.275 -0.3236 -0.7426 -0.3816
  892SOL     OW 3565   2.457   2.352   2.763  0.3732  0.3838  0.1938
  892SOL    HW1 3566   2.451   2.266   2.808 -0.5085  2.9986 -1.2546
  892SOL    HW2 3567   2.554   2.376   2.784 -0.8712  0.5407 -0.2134
  892SOL     MW 3568   2.469   2.344   2.771  0.0927  0.7495 -0.0510
  893SOL     OW 3569   1.591   2.452   1.208  0.2275  0.1620  0.0447
  893SOL    HW1 3570   1.508   2.472   1.246 -0.0454  1.4640 -0.5606
  893SOL    HW2 3571   1.654   2.493   1.269  0.8454 -1.1107  1.0543
  893SOL     MW 3572   1.589   2.460   1.221  0.2730  0.1659  0.0980
  894SOL     OW 3573   2.723   1.874   0.434 -0.2849  0.4193  0.1180
  894SOL    HW1 3574   2.630   1.883   0.432  2.4345 -1.1283 -1.3078
  894SOL    HW2 3575   2.740   1.860   0.337  1.3062 -0.9271  1.0339
  894SOL     MW 3576   2.713   1.873   0.421  0.2839  0.0374  0.0507
  895SOL     OW 3577   2.107   2.138   1.250 -0.4101  0.7413  0.6072
  895SOL    HW1 3578   2.077   2.214   1.197 -2.1613 -0.0545  0.6851
  895SOL    HW2 3579   2.123   2.066   1.186 -0.9364 -1.0145 -1.0831
  895SOL     MW 3580   2.105   2.138   1.235 -0.7106  0.4046  0.3944
  896SOL     OW 3581   2.324   2.808   1.093  0.3136 -0.1614  0.0789
  896SOL    HW1 3582   2.371   2.780   1.169 -1.8547  0.7010 -0.7729
  896SOL    HW2 3583   2.276   2.882   1.106 -2.3522  0.0212 -3.5516
  896SOL     MW 3584   2.324   2.814   1.105 -0.3242 -0.0235 -0.5125
  897SOL     OW 3585   3.054   3.041   3.049 -0.0035 -0.0606 -0.2177
  897SOL    HW1 3586   3.108   2.962   3.024 -1.0654  1.1013 -0.0774
  897SOL    HW2 3587   2.973   3.062   3.010  3.1353  0.8717 -0.4457
  897SOL     MW 3588   3.051   3.033   3.041  0.2705  0.2157 -0.2293
  898SOL     OW 3589   2.083   0.185   1.480 -0.4726 -0.2033  0.0745
  898SOL    HW1 3590   2.051   0.099   1.509  0.9615  0.7412  0.3033
  898SOL    HW2 3591   2.090   0.182   1.386 -1.8773  1.0369  1.9441
  898SOL     MW 3592   2.080   0.173   1.472 -0.4687  0.0850  0.3514
  899SOL     OW 3593   2.953   2.973   0.621  0.8483  0.1251  0.0763
  899SOL    HW1 3594   2.973   2.885   0.666 -0.6474  1.5664 -1.2318
  899SOL    HW2 3595   2.885   3.007   0.678  1.3420 -0.2852  1.0041
  899SOL     MW 3596   2.947   2.966   0.634  0.7161  0.2611  0.0262
  900SOL     OW 3597   0.052   2.398   1.139 -0.9872 -0.2104  0.2785
  900SOL    HW1 3598   0.038   2.496   1.141  0.1321 -0.9246  1.0328
  900SOL    HW2 3599   0.044   2.379   1.046 -0.2446  1.5022 -1.1176
  900SOL     MW 3600   0.049   2.409   1.127 -0.7416 -0.0787  0.1938
  901SOL     OW 3601   1.742   2.842   1.779  0.1252 -0.0426  0.1769
  901SOL    HW1 3602   1.833   2.796   1.780  3.2338 -1.9871  1.6303
  901SOL    HW2 3603   1.699   2.813   1.700  1.3799  0.2494  0.3229
  901SOL     MW 3604   1.749   2.832   1.769  0.7009 -0.2606  0.3879
  902SOL     OW 3605   2.652   2.076   1.814 -0.4480 -0.3317 -0.6391
  902SOL    HW1 3606   2.680   2.018   1.748 -1.5588  0.3330  3.2524
  902SOL    HW2 3607   2.722   2.075   1.877  0.3911  2.3566 -0.4527
  902SOL     MW 3608   2.665   2.068   1.813 -0.4838  0.1107 -0.1011
  903SOL     OW 3609   1.610   2.651   0.648 -0.8525  0.2672 -0.1041
  903SOL    HW1 3610   1.705   2.646   0.667 -3.2349 -0.8889  2.6910
  903SOL    HW2 3611   1.581   2.709   0.725 -0.1337  1.7759 -0.2579
  903SOL     MW 3612   1.618   2.658   0.661 -1.0720  0.3137  0.2444
  904SOL     OW 3613   2.533   2.597   1.663  0.1769 -0.5632 -0.1255
  904SOL    HW1 3614   2.460   2.606   1.607  0.7486  0.4013  0.5131
  904SOL    HW2 3615   2.578   2.517   1.622 -2.5366 -2.5355  0.4169
  904SOL     MW 3616   2.530   2.587   1.650 -0.1057 -0.6962  0.0303
  905SOL     OW 3617   2.276   2.506   2.126  0.9223 -0.1744 -0.4602
  905SOL    HW1 3618   2.313   2.477   2.046 -2.0079  0.5764  1.4314
  905SOL    HW2 3619   2.244   2.433   2.182 -0.9363 -0.4015  0.4155
  905SOL     MW 3620   2.277   2.493   2.123  0.2905 -0.1053 -0.0951
  906SOL     OW 3621   2.509   2.489   0.834 -0.1912  0.6976 -0.7038
  906SOL    HW1 3622   2.595   2.462   0.873  0.5658 -0.5536 -1.4964
  906SOL    HW2 3623   2.498   2.579   0.856 -1.2658 -1.9015 -1.3929
  906SOL     MW 3624   2.519   2.497   0.842 -0.2331  0.1896 -0.8993
  907SOL     OW 3625   2.650   2.843   1.332 -0.4990 -0.0498 -0.8360
  907SOL    HW1 3626   2.698   2.905   1.391 -2.1172  0.5718 -1.3211
  907SOL    HW2 3627   2.696   2.846   1.245 -1.9724 -0.8379  1.2945
  907SOL     MW 3628   2.663   2.852   1.328 -0.9069 -0.0718 -0.6189
  908SOL     OW 3629   2.710   2.350   0.021 -0.0743  0.3351 -0.1926
  908SOL    HW1 3630   2.632   2.310   0.056  0.5936 -0.4168  1.6037
  908SOL    HW2 3631   2.716   2.442   0.061 -1.9665  1.4831  1.6159
  908SOL     MW 3632   2.701   2.357   0.031 -0.2358  0.3874  0.2830
  909SOL     OW 3633   1.742   0.053   1.194  1.1261 -0.0401 -0.2008
  909SOL    HW1 3634   1.717   0.126   1.135 -0.9811 -0.2391 -2.5658
  909SOL    HW2 3635   1.699   0.081   1.277  1.7292 -1.9478 -0.8486
  909SOL     MW 3636   1.733   0.066   1.197  0.9277 -0.3181 -0.5983
  910SOL     OW 3637   2.226   1.756   0.401 -0.4029 -0.4631 -0.0036
  910SOL    HW1 3638   2.169   1.679   0.381  0.7540  0.7381 -1.3302
  910SOL    HW2 3639   2.196   1.820   0.335  2.3575 -0.5666 -1.5139
  910SOL     MW 3640   2.214   1.754   0.390  0.1140 -0.3183 -0.3779
  911SOL     OW 3641   2.262   2.089   1.618 -0.5289 -0.4758 -1.0640
  911SOL    HW1 3642   2.319   2.117   1.692  0.3879 -0.3613  1.5729
  911SOL    HW2 3643   2.304   2.128   1.543 -0.2483  0.3072  0.2868
  911SOL     MW 3644   2.275   2.098   1.618 -0.3709 -0.3574 -0.5379
  912SOL     OW 3645   2.942   1.922   1.486  0.1773 -0.1049 -0.2657
  912SOL    HW1 3646   2.990   1.943   1.410  0.4822 -2.4742  5.6140
  912SOL    HW2 3647   2.855   1.964   1.496 -1.9776  0.2685 -3.2211
  912SOL     MW 3648   2.937   1.930   1.477 -0.0668 -0.3682  0.1201
  913SOL     OW 3649   2.621   3.050   0.351 -0.2832  0.0265 -0.1941
  913SOL    HW1 3650   2.696   2.981   0.363  1.5269 -1.4033  1.8610
  913SOL    HW2 3651   2.570   3.021   0.280  1.2478  0.2466  3.2465
  913SOL     MW 3652   2.624   3.037   0.343  0.1576 -0.1331  0.5310
  914SOL     OW 3653   2.713   1.774   3.021 -0.2823  0.4057 -0.5654
  914SOL    HW1 3654   2.741   1.852   2.976 -0.8489  1.3387  0.7383
  914SOL    HW2 3655   2.625   1.760   3.000 -2.0017  1.4934  2.0952
  914SOL     MW 3656   2.705   1.782   3.012 -0.5839  0.6723 -0.0424
  915SOL     OW 3657   1.703   0.220   0.247  0.2314 -0.3726 -0.2977
  915SOL    HW1 3658   1.777   0.163   0.291  0.9664 -0.7159  0.6157
  915SOL    HW2 3659   1.630   0.163   0.224  0.4497 -0.5912 -0.0473
  915SOL     MW 3660   1.703   0.205   0.250  0.3572 -0.4467 -0.1441
  916SOL     OW 3661   1.835   2.130   1.968 -0.0764 -0.1865  0.5258
  916SOL    HW1 3662   1.874   2.210   1.929 -1.0433  1.8257  0.4548
  916SOL    HW2 3663   1.830   2.071   1.893  0.9236  1.2394 -0.8979
  916SOL     MW 3664   1.840   2.133   1.953 -0.0720  0.2671  0.3286
  917SOL     OW 3665   2.483   2.192   2.538 -0.1708 -0.4223  0.6643
  917SOL    HW1 3666   2.473   2.253   2.612 -1.1988 -1.2420 -1.2797
  917SOL    HW2 3667   2.568   2.215   2.501 -1.1476 -0.3953  1.2834
  917SOL     MW 3668   2.493   2.203   2.543 -0.4353 -0.5269  0.4895
  918SOL     OW 3669   1.954   1.590   2.684  0.1178 -0.1745  0.1433
  918SOL    HW1 3670   1.889   1.653   2.643  0.7731 -1.7867 -1.8104
  918SOL    HW2 3671   2.046   1.635   2.681 -1.7073  1.3622 -1.8113
  918SOL     MW 3672   1.957   1.604   2.678 -0.0366 -0.1845 -0.3723
  919SOL     OW 3673   3.072   2.352   2.292  0.1713  0.1022  0.6993
  919SOL    HW1 3674   3.001   2.298   2.260 -2.1804  1.1805  0.4858
  919SOL    HW2 3675   3.126   2.383   2.212  3.4587  3.4950 -1.3589
  919SOL     MW 3676   3.070   2.349   2.277  0.2947  0.6921  0.3996
  920SOL     OW 3677   2.707   2.865   3.093  0.2542  0.3283 -0.4293
  920SOL    HW1 3678   2.625   2.869   3.147 -0.2372  1.4100  1.8605
  920SOL    HW2 3679   2.703   2.785   3.035 -1.3397 -1.0711  0.8966
  920SOL     MW 3680   2.696   2.855   3.093 -0.0209  0.2864  0.0477
  921SOL     OW 3681   2.420   2.626   2.609  0.2520 -0.1398 -0.3485
  921SOL    HW1 3682   2.500   2.633   2.558 -1.0556  0.9330  1.6549
  921SOL    HW2 3683   2.433   2.551   2.671 -0.7972  1.7819 -1.0710
  921SOL     MW 3684   2.433   2.617   2.610 -0.0590  0.2553 -0.1795
  922SOL     OW 3685   2.035   2.823   0.278 -0.3883  0.2570  0.0756
  922SOL    HW1 3686   2.014   2.840   0.183  0.0185 -0.9751 -0.8835
  922SOL    HW2 3687   2.058   2.727   0.281  1.4267 -0.4725  0.4852
  922SOL     MW 3688   2.035   2.813   0.266 -0.0952 -0.0018  0.0031
  923SOL     OW 3689   2.193   2.892   1.690  0.1396  0.2874  0.1950
  923SOL    HW1 3690   2.231   2.827   1.628  2.6457  2.4113 -2.1469
  923SOL    HW2 3691   2.122   2.944   1.649 -0.2670 -1.2369  0.6938
  923SOL     MW 3692   2.189   2.890   1.676  0.4166  0.3665 -0.0482
  924SOL     OW 3693   1.141   2.730   2.564 -0.1798  0.3084  0.2625
  924SOL    HW1 3694   1.233   2.777   2.561  3.9100 -0.1422  3.1728
  924SOL    HW2 3695   1.161   2.659   2.629 -0.6071 -1.6947  0.6220
  924SOL     MW 3696   1.155   2.727   2.572  0.3034 -0.0153  0.6939
  925SOL     OW 3697   3.050   0.191   2.642  0.0020  0.2685  0.4977
  925SOL    HW1 3698   2.993   0.208   2.567 -0.6288 -1.0331 -0.3381
  925SOL    HW2 3699   3.016   0.250   2.704 -3.8220 -0.7557 -1.1405
  925SOL     MW 3700   3.038   0.201   2.640 -0.5858 -0.0384  0.1713
  926SOL     OW 3701   2.704   2.429   2.048 -0.2515 -0.6203 -0.4713
  926SOL    HW1 3702   2.750   2.497   2.093  1.5170  0.4830 -0.5402
  926SOL    HW2 3703   2.752   2.429   1.958  0.1552  1.2020 -0.6768
  926SOL     MW 3704   2.716   2.438   2.042  0.0355 -0.2343 -0.5075
  927SOL     OW 3705   2.328   0.138   0.339  0.4358  0.5774  0.1487
  927SOL    HW1 3706   2.411   0.172   0.351  0.4437 -0.7250 -0.2761
  927SOL    HW2 3707   2.320   0.109   0.250  0.4755 -1.1148  0.6036
  927SOL     MW 3708   2.338   0.138   0.329  0.4421  0.1823  0.1527
  928SOL     OW 3709   2.183   2.387   1.756 -0.2030  0.6633 -0.1548
  928SOL    HW1 3710   2.157   2.382   1.660 -1.1412  0.1104  0.8416
  928SOL    HW2 3711   2.228   2.470   1.752  0.1402 -0.4798 -1.8326
  928SOL     MW 3712   2.185   2.397   1.743 -0.2815  0.4395 -0.2447
  929SOL     OW 3713   2.732   2.298   2.449 -0.0823  0.3360  0.0947
  929SOL    HW1 3714   2.769   2.263   2.364  3.3796 -1.3052 -0.9909
  929SOL    HW2 3715   2.812   2.304   2.499 -0.3963 -1.1324 -0.2868
  929SOL     MW 3716   2.747   2.294   2.444  0.3331 -0.0742 -0.0989
  930SOL     OW 3717   2.018   2.848   2.722 -0.0141 -0.1703 -0.8407
  930SOL    HW1 3718   2.036   2.762   2.770  1.1032 -1.3103  0.6854
  930SOL    HW2 3719   2.100   2.898   2.720 -2.0009  1.9682  0.0697
  930SOL     MW 3720   2.031   2.843   2.728 -0.1288 -0.0385 -0.5192
  931SOL     OW 3721   3.028   2.715   2.412 -0.0374 -0.5840  0.6075
  931SOL    HW1 3722   3.068   2.751   2.491 -0.0131 -1.0408  0.5653
  931SOL    HW2 3723   3.095   2.732   2.337  0.0594  5.0663 -2.7006
  931SOL     MW 3724   3.042   2.722   2.413 -0.0214  0.1012  0.1655
  932SOL     OW 3725   2.944   1.916   2.485  0.3576 -0.2136  0.0630
  932SOL    HW1 3726   3.027   1.960   2.466  0.9573 -0.6681 -0.4033
  932SOL    HW2 3727   2.887   1.931   2.412  0.9296 -0.4639  0.9304
  932SOL     MW 3728   2.948   1.924   2.473  0.5122 -0.3066  0.1159
  933SOL     OW 3729   2.054   2.806   2.207  0.0405 -0.1240  0.1461
  933SOL    HW1 3730   2.141   2.831   2.227  0.3286 -2.0641 -1.7887
  933SOL    HW2 3731   2.003   2.884   2.208  1.0877 -3.4870 -1.7534
  933SOL     MW 3732   2.059   2.819   2.210  0.2167 -0.8237 -0.3598
  934SOL     OW 3733   2.011   2.713   2.466  0.2166 -0.3282 -0.3136
  934SOL    HW1 3734   2.052   2.780   2.528 -1.0461 -0.5836  1.3470
  934SOL    HW2 3735   2.013   2.747   2.378 -2.4445 -2.8531 -0.4082
  934SOL     MW 3736   2.016   2.726   2.463 -0.3011 -0.6951 -0.1070
  935SOL     OW 3737   2.684   1.566   1.858  0.1616 -0.0743  0.3010
  935SOL    HW1 3738   2.776   1.576   1.871 -0.0558  0.5794  0.5377
  935SOL    HW2 3739   2.666   1.561   1.759 -6.6962 -1.4204 -0.9704
  935SOL     MW 3740   2.694   1.567   1.847 -0.7719 -0.1657  0.1645
  936SOL     OW 3741   2.987   2.234   0.003  0.3379  0.4553 -0.1953
  936SOL    HW1 3742   3.033   2.302   0.056  2.2781  1.6304 -0.6126
  936SOL    HW2 3743   2.893   2.262   0.002  1.8302  2.2325  1.8380
  936SOL     MW 3744   2.980   2.246   0.010  0.7908  0.8448  0.0179
  937SOL     OW 3745   1.969   2.142   2.646 -0.1812  0.2147  0.5647
  937SOL    HW1 3746   2.040   2.097   2.689 -1.0373  0.0662  1.8503
  937SOL    HW2 3747   1.976   2.111   2.558 -0.1300  0.0393 -2.8710
  937SOL     MW 3748   1.979   2.132   2.640 -0.2874  0.1720  0.2810
  938SOL     OW 3749   2.283   1.810   1.933 -0.0519 -0.2265 -0.4102
  938SOL    HW1 3750   2.293   1.823   1.841  0.5836 -2.3800  1.2652
  938SOL    HW2 3751   2.307   1.893   1.973 -1.7149  0.1961 -2.1160
  938SOL     MW 3752   2.288   1.822   1.926 -0.1874 -0.4548 -0.4142
  939SOL     OW 3753   2.769   1.980   2.278  0.1449  0.2689 -0.2656
  939SOL    HW1 3754   2.784   1.923   2.203 -0.0065 -2.2196  2.3580
  939SOL    HW2 3755   2.672   1.959   2.286 -3.5201 -2.4191  0.6968
  939SOL     MW 3756   2.758   1.969   2.269 -0.3586 -0.4141  0.2076
  940SOL     OW 3757   2.300   0.157   2.677  0.1900 -0.1595  0.0942
  940SOL    HW1 3758   2.288   0.065   2.670  3.0761  1.7251  0.3198
  940SOL    HW2 3759   2.351   0.159   2.757  1.2714  0.1086  2.1621
  940SOL     MW 3760   2.305   0.145   2.687  0.7135  0.1246  0.3968
  941SOL     OW 3761   0.108   2.444   2.077  0.3765 -0.0885  0.5783
  941SOL    HW1 3762   0.191   2.403   2.081 -2.5249  0.9402 -0.6350
  941SOL    HW2 3763   0.084   2.434   1.983 -0.4608  1.5529  0.7077
  941SOL     MW 3764   0.116   2.438   2.065 -0.1168  0.2638  0.4353
  942SOL     OW 3765   2.851   2.219   2.218 -0.6104 -0.1465  0.0468
  942SOL    HW1 3766   2.785   2.272   2.179  1.1158  0.8457 -0.5664
  942SOL    HW2 3767   2.803   2.133   2.243 -0.8063  0.9791  0.8229
  942SOL     MW 3768   2.836   2.214   2.216 -0.4085  0.1329  0.0683
  943SOL     OW 3769   0.257   2.118   2.275 -0.2465  0.1894 -0.6805
  943SOL    HW1 3770   0.216   2.166   2.354  0.0620  0.4480  3.0924
  943SOL    HW2 3771   0.349   2.091   2.304 -1.4615 -2.6109 -0.2121
  943SOL     MW 3772   0.264   2.121   2.290 -0.3661 -0.1459 -0.1209
  944SOL     OW 3773   2.079   2.640   1.980  0.0779 -0.2702  0.5417
  944SOL    HW1 3774   2.107   2.567   2.029 -1.3193 -2.7669 -2.3623
  944SOL    HW2 3775   2.045   2.695   2.048 -0.6427 -1.2514 -2.3278
  944SOL     MW 3776   2.078   2.638   1.995 -0.2015 -0.7291 -0.2201
  945SOL     OW 3777   2.725   2.661   2.899  0.2741 -0.3853 -0.0911
  945SOL    HW1 3778   2.706   2.562   2.883 -2.9557  0.0729 -1.8594
  945SOL    HW2 3779   2.736   2.703   2.812 -0.2425  2.7116 -0.3912
  945SOL     MW 3780   2.724   2.654   2.886 -0.2202  0.0837 -0.3640
  946SOL     OW 3781   2.469   2.695   2.248 -0.3632  0.1949  0.1662
  946SOL    HW1 3782   2.514   2.737   2.176  0.4420 -1.4533  0.7013
  946SOL    HW2 3783   2.411   2.621   2.196 -0.4796 -1.3602 -0.5846
  946SOL     MW 3784   2.468   2.691   2.231 -0.2723 -0.2277  0.1378
  947SOL     OW 3785   1.933   0.052   0.306  0.5513  0.0131  0.0641
  947SOL    HW1 3786   1.938  -0.022   0.250 -0.5383 -2.0398 -0.7413
  947SOL    HW2 3787   2.018   0.044   0.360  1.0265 -1.0178 -1.0657
  947SOL     MW 3788   1.945   0.041   0.306  0.4703 -0.3938 -0.1913
  948SOL     OW 3789   1.786   3.021   2.678  0.2801 -0.2650  0.5938
  948SOL    HW1 3790   1.824   2.935   2.670  0.9798  1.5398 -0.1769
  948SOL    HW2 3791   1.781   3.072   2.590 -0.8737 -1.1526 -2.0333
  948SOL     MW 3792   1.791   3.016   2.665  0.2202 -0.1440  0.1455
  949SOL     OW 3793   2.506   1.922   2.315  0.1754  0.4782  0.3646
  949SOL    HW1 3794   2.511   1.830   2.339 -0.4960  1.1970  0.5294
  949SOL    HW2 3795   2.420   1.959   2.344 -0.0921  0.1740  1.5621
  949SOL     MW 3796   2.495   1.915   2.322  0.0515  0.5329  0.5443
  950SOL     OW 3797   2.338   2.564   2.919  0.3049  0.5030 -0.2735
  950SOL    HW1 3798   2.364   2.485   2.872  1.3041  0.8777 -0.5277
  950SOL    HW2 3799   2.253   2.583   2.884  0.3993  1.6552  0.7286
  950SOL     MW 3800   2.330   2.556   2.908  0.4492  0.7044 -0.1748
  951SOL     OW 3801   3.058   2.123   2.862  0.2053  0.2483  0.5155
  951SOL    HW1 3802   3.058   2.150   2.951 -0.0839  0.4135 -0.7743
  951SOL    HW2 3803   3.098   2.036   2.861 -1.4510  1.0586  0.9498
  951SOL     MW 3804   3.063   2.115   2.874 -0.0514  0.3770  0.4026
  952SOL     OW 3805   3.028   1.693   2.145  0.1192 -0.4684 -0.3665
  952SOL    HW1 3806   2.948   1.710   2.096  1.2743  1.2756  0.8955
  952SOL    HW2 3807   3.051   1.777   2.184 -1.1605 -0.5197 -3.1336
  952SOL     MW 3808   3.021   1.707   2.144  0.1027 -0.2450 -0.5651
  953SOL     OW 3809   1.925   1.762   2.883  0.1318 -0.6213 -0.2723
  953SOL    HW1 3810   1.860   1.716   2.948  2.2076 -0.6441  1.3185
  953SOL    HW2 3811   1.952   1.692   2.819 -1.4594  0.7629 -1.2191
  953SOL     MW 3812   1.920   1.746   2.883  0.1957 -0.4416 -0.1873
  954SOL     OW 3813   2.395   2.098   2.850  0.4800  0.8174 -0.0251
  954SOL    HW1 3814   2.308   2.067   2.817  4.2310  0.9140  1.4508
  954SOL    HW2 3815   2.451   2.054   2.792 -0.7164 -0.2926  0.8969
  954SOL     MW 3816   2.391   2.088   2.838  0.8170  0.6837  0.2913
  955SOL     OW 3817   1.542   1.627   2.569  0.2357  0.0275  0.0260
  955SOL    HW1 3818   1.507   1.648   2.477  2.7006 -1.0638 -3.3079
  955SOL    HW2 3819   1.637   1.655   2.552  0.9668  1.6386 -1.4108
  955SOL     MW 3820   1.550   1.634   2.555  0.6574  0.0960 -0.6034
  956SOL     OW 3821   2.722   2.393   2.841 -0.3499 -0.0214  0.2379
  956SOL    HW1 3822   2.728   2.358   2.934  2.2046  0.0709 -0.7460
  956SOL    HW2 3823   2.790   2.359   2.772  1.6326 -0.4368 -1.0791
  956SOL     MW 3824   2.731   2.384   2.844  0.2487 -0.0640 -0.0657
  957SOL     OW 3825   2.240   2.859   0.450 -0.3076 -0.3661  0.1269
  957SOL    HW1 3826   2.178   2.824   0.395  1.6476  1.1783 -1.0344
  957SOL    HW2 3827   2.248   2.790   0.515  0.8930  0.5814  1.6609
  957SOL     MW 3828   2.233   2.845   0.452  0.1088 -0.0373  0.1760
  958SOL     OW 3829   2.075   2.590   2.836 -0.2011  0.5551  0.2713
  958SOL    HW1 3830   2.061   2.511   2.796 -0.8021 -0.7208 -0.3805
  958SOL    HW2 3831   2.001   2.586   2.900 -0.8581  0.1828  0.2553
  958SOL     MW 3832   2.063   2.579   2.839 -0.3671  0.3377  0.1832
  959SOL     OW 3833   2.468   2.722   0.391 -0.3682  0.7343  0.2607
  959SOL    HW1 3834   2.472   2.730   0.296  2.4908  1.5128 -2.7594
  959SOL    HW2 3835   2.392   2.773   0.423 -1.1600  0.0010  0.4537
  959SOL     MW 3836   2.459   2.730   0.383 -0.0955  0.7403 -0.1123
  960SOL     OW 3837   1.877   2.334   2.314 -0.2461 -0.1634 -0.1507
  960SOL    HW1 3838   1.892   2.242   2.298  0.7691 -0.4416 -0.1975
  960SOL    HW2 3839   1.826   2.357   2.392  1.7079  0.8607 -0.5347
  960SOL     MW 3840   1.872   2.325   2.323  0.1456 -0.0650 -0.2075
  961SOL     OW 3841   2.170   2.324   2.316 -0.0105  0.2296 -0.0797
  961SOL    HW1 3842   2.078   2.308   2.324 -0.8601  0.5957  0.5017
  961SOL    HW2 3843   2.185   2.400   2.381 -0.7958  0.8043 -3.3531
  961SOL     MW 3844   2.160   2.332   2.326 -0.2262  0.3537 -0.4349
  962SOL     OW 3845   2.168   1.986   2.770  0.5750  0.7801 -0.0556
  962SOL    HW1 3846   2.145   1.960   2.862 -0.7355 -0.6975  0.2559
  962SOL    HW2 3847   2.185   1.901   2.727 -0.0231 -1.6544 -1.7868
  962SOL     MW 3848   2.168   1.971   2.776  0.3232  0.2640 -0.2429
  963SOL     OW 3849   1.780   2.483   2.099  0.7407 -0.0358 -0.3631
  963SOL    HW1 3850   1.853   2.426   2.134  0.3321  0.1930 -0.6546
  963SOL    HW2 3851   1.790   2.472   2.005 -0.9088 -0.8318 -1.6040
  963SOL     MW 3852   1.791   2.474   2.091  0.4691 -0.1106 -0.5653
  964SOL     OW 3853   1.812   1.946   2.740  0.1660  0.2502 -0.2736
  964SOL    HW1 3854   1.881   2.004   2.706 -0.4824 -0.2674  0.2705
  964SOL    HW2 3855   1.864   1.888   2.800  4.3022  1.2151 -0.8309
  964SOL     MW 3856   1.828   1.946   2.744  0.6261  0.3092 -0.2753
  965SOL     OW 3857   2.273   2.685   0.648  0.0527 -0.2428  0.5108
  965SOL    HW1 3858   2.265   2.592   0.620  0.6585 -0.5635 -2.2727
  965SOL    HW2 3859   2.340   2.705   0.714 -0.1998  0.9594  1.0205
  965SOL     MW 3860   2.281   2.676   0.653  0.0993 -0.1265  0.2108
  966SOL     OW 3861   2.658   2.602   2.437  0.0608 -0.1523 -0.6734
  966SOL    HW1 3862   2.594   2.626   2.361  2.2662  0.6203  1.7958
  966SOL    HW2 3863   2.669   2.504   2.434 -2.3866 -1.3212 -2.7944
  966SOL     MW 3864   2.651   2.592   2.427  0.0289 -0.2046 -0.6274
  967SOL     OW 3865   2.787   3.098   2.953 -0.1731 -0.1846 -0.2518
  967SOL    HW1 3866   2.773   3.027   3.018  0.6077 -0.5118 -2.3006
  967SOL    HW2 3867   2.711   3.088   2.903  1.6758 -3.6998  2.7933
  967SOL     MW 3868   2.775   3.087   2.955  0.1738 -0.6916 -0.1203
  968SOL     OW 3869   3.004   2.631   2.955  0.9329  0.3089  0.3105
  968SOL    HW1 3870   2.908   2.633   2.938  1.0196 -1.5526 -0.8317
  968SOL    HW2 3871   3.052   2.572   2.888  3.3670 -0.5991 -0.3223
  968SOL     MW 3872   2.998   2.624   2.944  1.2655 -0.0565  0.0763
  969SOL     OW 3873   1.609   2.167   1.660  0.0921 -0.5706  0.0753
  969SOL    HW1 3874   1.673   2.096   1.677 -1.0697 -0.0837 -0.6231
  969SOL    HW2 3875   1.575   2.189   1.750 -0.3276  1.3261  2.1601
  969SOL     MW 3876   1.613   2.160   1.674 -0.1166 -0.2561  0.2582
  970SOL     OW 3877   1.740   1.806   1.924  0.0848  0.2556  0.0342
  970SOL    HW1 3878   1.785   1.736   1.965 -2.3183  2.5395 -3.8831
  970SOL    HW2 3879   1.650   1.786   1.938  2.2472  4.0679 -2.1155
  970SOL     MW 3880   1.734   1.794   1.931  0.0531  1.0599 -0.7663
  971SOL     OW 3881   1.782   0.040   2.416  0.1628  0.2988 -0.6254
  971SOL    HW1 3882   1.816  -0.012   2.341  0.5909 -0.4285 -0.5553
  971SOL    HW2 3883   1.846   0.111   2.436  0.4194  0.7172  0.8391
  971SOL     MW 3884   1.795   0.042   2.408  0.2532  0.2580 -0.4229
  972SOL     OW 3885   0.263   2.886   2.470 -0.4832  0.8356  0.3885
  972SOL    HW1 3886   0.317   2.806   2.479  0.6804 -1.0907  0.6054
  972SOL    HW2 3887   0.323   2.958   2.457 -0.3571 -1.6054  1.5712
  972SOL     MW 3888   0.278   2.885   2.469 -0.3131  0.2594  0.5731
  973SOL     OW 3889   2.626   0.021   2.089  0.4233 -0.0972  0.3375
  973SOL    HW1 3890   2.596  -0.065   2.057 -0.9136  2.3624  1.5968
  973SOL    HW2 3891   2.624   0.072   2.008  0.5345 -1.5990  1.6101
  973SOL     MW 3892   2.622   0.016   2.074  0.2616  0.0292  0.6716
  974SOL     OW 3893   2.050   0.252   2.733 -0.1892 -0.9775  0.0840
  974SOL    HW1 3894   2.144   0.236   2.712  0.5232  3.9534  0.6220
  974SOL    HW2 3895   2.023   0.191   2.797  0.7245 -0.0979 -0.9251
  974SOL     MW 3896   2.059   0.242   2.739  0.0253 -0.2109  0.0219
  975SOL     OW 3897   2.184   2.522   2.489  0.2590  0.0639 -0.0318
  975SOL    HW1 3898   2.258   2.563   2.529 -0.0363  0.8929 -0.0254
  975SOL    HW2 3899   2.107   2.582   2.484 -0.9999 -1.1464 -2.3074
  975SOL     MW 3900   2.184   2.535   2.494  0.0539  0.0136 -0.3312
  976SOL     OW 3901   0.239   0.380   1.789 -0.0674  0.0855  0.1814
  976SOL    HW1 3902   0.296   0.310   1.830 -0.2988  1.4353 -0.6574
  976SOL    HW2 3903   0.163   0.337   1.749 -2.0879 -2.1214 -0.5685
  976SOL     MW 3904   0.236   0.365   1.789 -0.3645 -0.0276 -0.0282
  977SOL     OW 3905   1.747   2.678   2.534 -0.2761  0.3013 -0.5286
  977SOL    HW1 3906   1.748   2.586   2.529  2.0683  0.5314  1.5582
  977SOL    HW2 3907   1.834   2.700   2.497  0.6959 -2.1356 -2.3740
  977SOL     MW 3908   1.758   2.669   2.529  0.1615  0.0102 -0.4968
   3.10000   3.10000   3.10000
