977 TIP4P/2005f water molecules t=   0.89000 step= 890
 3908
    1SOL     OW    1   0.350   0.813   3.063  0.7421 -0.3865  0.6584
    1SOL    HW1    2   0.285   0.825   2.988  2.7948 -0.1010 -1.7738
    1SOL    HW2    3   0.317   0.732   3.093 -0.3830  1.4560 -1.9396
    1SOL     MW    4   0.337   0.804   3.057  0.8645 -0.1058 -0.0053
    2SOL     OW    5   0.317   3.000   1.165  0.1475  0.5748 -0.2984
    2SOL    HW1    6   0.373   3.076   1.151  1.2427  1.5636 -0.5608
    2SOL    HW2    7   0.231   3.046   1.163 -1.4988 -0.4061 -0.0529
    2SOL     MW    8   0.313   3.016   1.163  0.0748  0.5758 -0.3007
    3SOL     OW    9   2.639   0.423   0.950 -0.0693 -0.2665 -0.6854
    3SOL    HW1   10   2.717   0.465   0.907 -1.5728 -1.8521  1.8444
    3SOL    HW2   11   2.643   0.472   1.038  3.3093  1.8001  3.9039
    3SOL     MW   12   2.650   0.435   0.956  0.1781 -0.2030  0.2539
    4SOL     OW   13   2.999   1.685   0.620 -0.1627 -0.6500 -0.3020
    4SOL    HW1   14   2.928   1.731   0.568 -1.6685  1.2653 -0.4596
    4SOL    HW2   15   3.064   1.640   0.562  2.3552 -2.0616 -0.5675
    4SOL     MW   16   2.998   1.685   0.606 -0.0292 -0.5836 -0.3578
    5SOL     OW   17   1.738   1.508   0.512 -0.4075  0.2876 -0.2186
    5SOL    HW1   18   1.773   1.446   0.578 -0.7519 -1.0177  1.4098
    5SOL    HW2   19   1.647   1.512   0.512  2.0959 -0.7215  0.7936
    5SOL     MW   20   1.731   1.500   0.521 -0.1226 -0.0177  0.1298
    6SOL     OW   21   0.814   1.449   0.605 -0.7952 -0.4938  0.1293
    6SOL    HW1   22   0.728   1.464   0.649 -0.7606  2.2253 -0.8960
    6SOL    HW2   23   0.844   1.361   0.627 -0.0440 -3.7107  0.0845
    6SOL     MW   24   0.806   1.440   0.614 -0.6915 -0.5595 -0.0119
    7SOL     OW   25   2.048   1.134   3.053 -0.1280 -1.0148 -0.2857
    7SOL    HW1   26   2.095   1.208   3.008 -1.3820  1.9402 -1.1439
    7SOL    HW2   27   2.082   1.148   3.143  0.7118 -2.2046 -1.2967
    7SOL     MW   28   2.059   1.146   3.059 -0.1827 -0.7819 -0.5323
    8SOL     OW   29   0.913   1.402   1.037 -0.2378  0.4157  0.3845
    8SOL    HW1   30   1.002   1.365   1.028  3.3041  0.3277 -0.8746
    8SOL    HW2   31   0.859   1.340   1.086 -2.2884 -0.5479  0.7162
    8SOL     MW   32   0.918   1.389   1.042 -0.0410  0.2769  0.2621
    9SOL     OW   33   1.018   0.517   1.399  0.1860  0.1752  0.2376
    9SOL    HW1   34   0.971   0.451   1.346 -3.7753  0.2721  0.3512
    9SOL    HW2   35   1.053   0.473   1.481  1.2322 -0.5674  2.6255
    9SOL     MW   36   1.017   0.503   1.403 -0.1986  0.0900  0.5676
   10SOL     OW   37   0.274   0.777   0.461 -0.5548 -0.4241 -0.4143
   10SOL    HW1   38   0.363   0.789   0.417  0.9108  1.8584  1.7572
   10SOL    HW2   39   0.278   0.834   0.538  1.3064  1.3144 -0.8795
   10SOL     MW   40   0.286   0.786   0.465 -0.1158  0.1064 -0.1892
   11SOL     OW   41   0.805   1.132   1.729  0.0902  0.5522  0.0004
   11SOL    HW1   42   0.825   1.117   1.823 -0.9124 -0.9456  0.0678
   11SOL    HW2   43   0.847   1.067   1.665 -1.3035 -3.2134  2.4647
   11SOL     MW   44   0.813   1.122   1.733 -0.2260 -0.1422  0.3345
   12SOL     OW   45   0.048   1.091   0.876  0.5712 -0.0747 -0.2906
   12SOL    HW1   46   0.102   1.156   0.935  1.1938  2.8213  1.6787
   12SOL    HW2   47  -0.011   1.150   0.824  1.7240  1.0381 -1.7017
   12SOL     MW   48   0.047   1.107   0.877  0.8055  0.4542 -0.2170
   13SOL     OW   49   1.838   1.433   1.359  0.7935  0.4419 -0.5860
   13SOL    HW1   50   1.874   1.382   1.282 -1.3049 -1.4605 -0.5866
   13SOL    HW2   51   1.839   1.526   1.334 -0.8420  0.2717  0.1227
   13SOL     MW   52   1.843   1.438   1.345  0.3009  0.1684 -0.4925
   14SOL     OW   53   0.652   0.401   1.875 -0.0446  0.4154  0.4965
   14SOL    HW1   54   0.583   0.342   1.858 -1.4538  2.5068 -1.6574
   14SOL    HW2   55   0.706   0.372   1.954  0.9214 -1.4525 -0.7021
   14SOL     MW   56   0.650   0.390   1.883 -0.1031  0.4449  0.0542
   15SOL     OW   57   1.955   0.381   1.016 -0.0968 -0.7797  0.0391
   15SOL    HW1   58   1.947   0.432   1.102  2.0999 -1.2587  0.4547
   15SOL    HW2   59   2.035   0.405   0.961  0.2402 -0.4539 -0.3288
   15SOL     MW   60   1.965   0.391   1.020  0.2375 -0.7999  0.0454
   16SOL     OW   61   0.165   1.823   0.331  0.2240 -0.0306 -0.2994
   16SOL    HW1   62   0.249   1.793   0.300 -0.0671 -0.7124  1.5749
   16SOL    HW2   63   0.187   1.908   0.371  0.2387 -1.1837  0.4697
   16SOL     MW   64   0.179   1.830   0.332  0.1876 -0.2727  0.0493
   17SOL     OW   65   1.125   0.906   1.480  0.5970 -0.0209 -0.9994
   17SOL    HW1   66   1.167   0.860   1.549 -1.2702  2.4798 -0.9213
   17SOL    HW2   67   1.026   0.904   1.498  2.1676 -1.1723 -0.7920
   17SOL     MW   68   1.117   0.900   1.492  0.5579  0.1571 -0.9617
   18SOL     OW   69   0.060   1.572   0.399 -0.6860  0.1262  0.3235
   18SOL    HW1   70   0.083   1.666   0.379 -1.3597  0.7084  0.9870
   18SOL    HW2   71   0.070   1.538   0.314  0.9437 -0.3353  1.5150
   18SOL     MW   72   0.064   1.580   0.385 -0.5598  0.1421  0.5682
   19SOL     OW   73   0.133   1.306   1.001  0.0608 -0.2281  0.6942
   19SOL    HW1   74   0.161   1.351   0.924 -3.4176  0.8611  2.1956
   19SOL    HW2   75   0.041   1.338   1.004 -1.6349  2.0219 -3.5412
   19SOL     MW   76   0.124   1.316   0.991 -0.6218  0.2125  0.3335
   20SOL     OW   77   0.451   2.141   1.165 -0.0843 -0.5665  0.6889
   20SOL    HW1   78   0.406   2.062   1.118 -0.7867 -0.8244  0.5951
   20SOL    HW2   79   0.397   2.156   1.240  3.4679  0.4674 -1.7664
   20SOL     MW   80   0.438   2.133   1.168  0.2917 -0.4641  0.3526
   21SOL     OW   81   0.521   0.824   0.348 -0.5932  0.3048  0.0428
   21SOL    HW1   82   0.595   0.817   0.406 -1.4540 -0.9445  3.3049
   21SOL    HW2   83   0.549   0.804   0.259 -1.5272 -1.7876  1.3288
   21SOL     MW   84   0.534   0.820   0.344 -0.8300 -0.1361  0.6428
   22SOL     OW   85   1.528   0.711   1.060  0.5345  0.3333  0.0835
   22SOL    HW1   86   1.477   0.708   0.972 -1.4316 -0.8477 -1.6459
   22SOL    HW2   87   1.499   0.783   1.114 -0.0569  0.5331  0.6962
   22SOL     MW   88   1.517   0.720   1.055  0.1971  0.2039 -0.0638
   23SOL     OW   89   0.022   0.769   0.660 -0.1837  0.3913  0.0510
   23SOL    HW1   90   0.041   0.705   0.730 -2.1415 -0.8761 -0.5958
   23SOL    HW2   91   0.094   0.833   0.666 -2.2652  0.2801 -2.8540
   23SOL     MW   92   0.034   0.769   0.670 -0.7167  0.2094 -0.4176
   24SOL     OW   93   1.987   2.231   0.104  0.5782  0.3939 -0.4001
   24SOL    HW1   94   2.008   2.192   0.192  1.0862 -3.0553  1.4119
   24SOL    HW2   95   2.008   2.155   0.045 -0.8109 -1.4504 -0.9721
   24SOL     MW   96   1.993   2.216   0.108  0.4619 -0.3045 -0.2365
   25SOL     OW   97   0.253   1.413   0.501  0.6541  0.0606  0.3183
   25SOL    HW1   98   0.194   1.483   0.472  2.1584 -0.0251 -0.9451
   25SOL    HW2   99   0.319   1.404   0.432 -2.5236 -0.1235  2.1641
   25SOL     MW  100   0.254   1.421   0.488  0.4333  0.0250  0.3951
   26SOL     OW  101   2.032   0.983   0.350  0.1622  0.0871 -0.0053
   26SOL    HW1  102   1.977   1.023   0.413 -0.3127 -0.3249  0.5020
   26SOL    HW2  103   2.085   1.050   0.307 -0.8334  2.5433 -3.0392
   26SOL     MW  104   2.031   0.997   0.353 -0.0318  0.3568 -0.3386
   27SOL     OW  105   2.047   1.422   0.266  0.2972 -0.6848  0.1985
   27SOL    HW1  106   1.954   1.402   0.278 -0.3391  2.8943 -3.9849
   27SOL    HW2  107   2.075   1.495   0.328 -0.6476  0.6910 -1.4599
   27SOL     MW  108   2.039   1.429   0.276  0.0886 -0.0310 -0.5722
   28SOL     OW  109   0.411   0.978   1.991  1.0546 -0.3843 -0.2257
   28SOL    HW1  110   0.462   0.978   2.072  1.4949  3.1371  2.3149
   28SOL    HW2  111   0.323   0.952   2.033  3.9359  1.2845  1.4142
   28SOL     MW  112   0.406   0.975   2.007  1.4928  0.3005  0.3259
   29SOL     OW  113   0.247   1.436   0.807  0.5644 -0.3067  0.0638
   29SOL    HW1  114   0.221   1.529   0.819 -0.2159 -0.9147  1.6945
   29SOL    HW2  115   0.262   1.429   0.714 -0.6989  1.1339  1.2164
   29SOL     MW  116   0.246   1.447   0.796  0.2947 -0.1969  0.4311
   30SOL     OW  117   0.832   1.173   1.217  0.1020  0.0513 -0.1274
   30SOL    HW1  118   0.752   1.218   1.256  0.9298  0.2711  1.4530
   30SOL    HW2  119   0.901   1.190   1.283  1.0832  2.2854  1.8248
   30SOL     MW  120   0.830   1.181   1.231  0.3407  0.3751  0.3387
   31SOL     OW  121   0.405   0.146   0.198 -0.1298 -0.8260 -0.5139
   31SOL    HW1  122   0.397   0.059   0.228 -0.6013  0.5846 -3.7100
   31SOL    HW2  123   0.420   0.131   0.104  0.9723  2.2919  2.2489
   31SOL     MW  124   0.406   0.132   0.189 -0.0466 -0.2285 -0.5711
   32SOL     OW  125   2.794   0.985   1.113 -0.0423  0.0527  0.0651
   32SOL    HW1  126   2.730   0.919   1.104  3.3578 -1.0987 -2.1199
   32SOL    HW2  127   2.880   0.948   1.116 -0.1720  0.0786  0.4799
   32SOL     MW  128   2.797   0.972   1.112  0.3892 -0.0958 -0.1685
   33SOL     OW  129   1.770   1.303   0.331 -0.4574 -0.3759 -0.2093
   33SOL    HW1  130   1.801   1.225   0.374  2.0262 -1.1118 -0.7823
   33SOL    HW2  131   1.757   1.373   0.398  1.6563 -0.6509  1.0471
   33SOL     MW  132   1.772   1.302   0.346  0.1492 -0.5093 -0.1191
   34SOL     OW  133   1.236   1.858   1.067  0.2357  0.1546  0.0074
   34SOL    HW1  134   1.160   1.912   1.073 -1.7885 -1.6158  1.8131
   34SOL    HW2  135   1.279   1.870   1.151 -1.9202 -2.6932 -1.2613
   34SOL     MW  136   1.231   1.867   1.079 -0.3158 -0.4547  0.0783
   35SOL     OW  137   0.460   0.224   1.833 -0.3974  0.0365 -0.5500
   35SOL    HW1  138   0.438   0.139   1.872 -0.4947  0.1752  1.9198
   35SOL    HW2  139   0.472   0.201   1.740 -0.1753 -0.4078 -3.0243
   35SOL     MW  140   0.458   0.210   1.826 -0.3809 -0.0038 -0.5506
   36SOL     OW  141   1.944   1.965   0.528  0.0769  0.6103 -0.4429
   36SOL    HW1  142   1.951   1.976   0.430  1.3195 -2.0089  1.1354
   36SOL    HW2  143   1.962   1.867   0.548  2.3701  0.3865  1.6362
   36SOL     MW  144   1.947   1.953   0.518  0.5434  0.2352  0.0397
   37SOL     OW  145   1.759   1.994   0.994  0.7224  0.2333 -0.1275
   37SOL    HW1  146   1.727   1.939   0.923 -1.6119  0.1131 -2.3330
   37SOL    HW2  147   1.682   2.013   1.043 -0.1721  0.0317 -1.5676
   37SOL     MW  148   1.745   1.989   0.991  0.2964  0.1908 -0.6085
   38SOL     OW  149   2.808   0.912   0.112  0.8505 -0.2893 -0.0583
   38SOL    HW1  150   2.821   0.901   0.205  2.2132 -0.9460  0.4313
   38SOL    HW2  151   2.889   0.879   0.063 -0.4565 -0.9769 -1.0805
   38SOL     MW  152   2.821   0.906   0.118  0.8579 -0.4666 -0.1286
   39SOL     OW  153   1.446   0.615   0.798  0.2014  0.1532 -0.3424
   39SOL    HW1  154   1.416   0.527   0.821  1.0738 -0.6272 -0.1538
   39SOL    HW2  155   1.378   0.653   0.743 -1.8405  1.3036 -1.4501
   39SOL     MW  156   1.433   0.608   0.794  0.0471  0.2020 -0.4637
   40SOL     OW  157   1.154   1.899   0.295  0.0467  0.2551  1.0524
   40SOL    HW1  158   1.222   1.847   0.341  1.8366  2.5688  1.8316
   40SOL    HW2  159   1.150   1.970   0.356  1.5378 -0.1094 -0.7100
   40SOL     MW  160   1.162   1.902   0.309  0.4796  0.5123  0.9227
   41SOL     OW  161   0.585   0.554   1.613 -0.2515  0.3668  0.7215
   41SOL    HW1  162   0.671   0.599   1.611  1.6799 -1.2252 -2.0907
   41SOL    HW2  163   0.568   0.517   1.700  0.0952  2.6952 -0.3137
   41SOL     MW  164   0.594   0.555   1.624  0.0490  0.4639  0.2139
   42SOL     OW  165   1.294   3.006   1.984  0.0121 -0.4642  0.5035
   42SOL    HW1  166   1.199   3.017   2.009  1.5896  2.1454 -1.7516
   42SOL    HW2  167   1.334   2.949   2.047 -1.6254 -2.0647  1.5013
   42SOL     MW  168   1.287   3.000   1.995  0.0042 -0.3311  0.3376
   43SOL     OW  169   1.586   0.105   1.705 -0.2090  0.0855 -0.5056
   43SOL    HW1  170   1.602   0.057   1.623 -0.8802  1.5006  0.7475
   43SOL    HW2  171   1.494   0.080   1.726  0.4029 -1.3117  0.6776
   43SOL     MW  172   1.576   0.096   1.697 -0.2169  0.0879 -0.1842
   44SOL     OW  173   1.048   0.783   1.013 -0.0960  0.5219 -0.3836
   44SOL    HW1  174   1.094   0.862   0.985  0.7606  1.4613  3.9626
   44SOL    HW2  175   1.081   0.773   1.100 -3.0957  2.9989  0.3664
   44SOL     MW  176   1.058   0.792   1.021 -0.3788  0.9727  0.2888
   45SOL     OW  177   1.236   0.752   0.670 -0.1170  0.1589 -0.3565
   45SOL    HW1  178   1.177   0.809   0.721 -0.7179  1.7168 -3.6197
   45SOL    HW2  179   1.182   0.712   0.603 -2.5756  0.1321  0.4228
   45SOL     MW  180   1.221   0.754   0.668 -0.5206  0.3609 -0.6842
   46SOL     OW  181   0.549   1.166   0.623 -0.2241  0.0553  0.4348
   46SOL    HW1  182   0.490   1.153   0.549 -2.3051  0.4281  3.2747
   46SOL    HW2  183   0.638   1.118   0.609 -0.9161  0.4904  2.2170
   46SOL     MW  184   0.553   1.158   0.611 -0.5899  0.1619  1.0447
   47SOL     OW  185   0.162   1.988   1.931  0.2010 -0.5714  0.1470
   47SOL    HW1  186   0.222   1.916   1.908  0.8142  0.0868  1.1297
   47SOL    HW2  187   0.164   2.017   2.024 -2.0011  1.7084  0.7654
   47SOL     MW  188   0.170   1.983   1.940 -0.0086 -0.1837  0.3583
   48SOL     OW  189   1.093   0.492   0.958 -0.1714  0.4202  0.1361
   48SOL    HW1  190   1.001   0.483   0.979 -1.5569  0.0793  1.9208
   48SOL    HW2  191   1.111   0.581   0.962 -2.3679 -2.5511  0.4073
   48SOL     MW  192   1.083   0.503   0.961 -0.6440 -0.0168  0.4073
   49SOL     OW  193   1.827   0.732   1.574 -0.2161 -0.0766 -0.3018
   49SOL    HW1  194   1.770   0.665   1.622 -1.4518 -0.5834 -1.5667
   49SOL    HW2  195   1.893   0.686   1.528 -0.1827  0.3723 -0.8470
   49SOL     MW  196   1.828   0.717   1.575 -0.3747 -0.0842 -0.5406
   50SOL     OW  197   1.244   1.069   0.517  0.4915 -0.4928 -0.0595
   50SOL    HW1  198   1.213   1.133   0.583  0.2370  1.4173  2.5221
   50SOL    HW2  199   1.324   1.035   0.552  0.7533  0.3833  1.0933
   50SOL     MW  200   1.250   1.073   0.530  0.4925 -0.1252  0.4332
   51SOL     OW  201   0.292   2.905   0.922  0.2214 -0.4558  0.1185
   51SOL    HW1  202   0.350   2.824   0.929 -1.0479  2.0976  1.8539
   51SOL    HW2  203   0.295   2.945   1.012  0.7181 -1.1659 -0.9938
   51SOL     MW  204   0.300   2.900   0.935  0.1194 -0.2126  0.2007
   52SOL     OW  205   0.802   1.803   0.468 -0.4700  0.0087  0.5319
   52SOL    HW1  206   0.749   1.883   0.463  1.7479 -0.7750  1.4092
   52SOL    HW2  207   0.830   1.788   0.377 -0.6240 -1.7269 -0.1926
   52SOL     MW  208   0.799   1.812   0.456 -0.1977 -0.3237  0.5520
   53SOL     OW  209   0.441   2.119   0.589  0.1632 -0.3494 -0.2119
   53SOL    HW1  210   0.388   2.094   0.511  0.4517 -0.7157 -0.5942
   53SOL    HW2  211   0.438   2.214   0.596  4.4902  0.0011 -0.7776
   53SOL     MW  212   0.433   2.128   0.580  0.7722 -0.3515 -0.3370
   54SOL     OW  213   2.070   0.952   0.818 -0.3775 -0.0493 -0.4892
   54SOL    HW1  214   2.103   0.940   0.729 -1.9620 -2.0872 -0.1870
   54SOL    HW2  215   2.023   0.869   0.835  2.2609 -1.0977  2.0412
   54SOL     MW  216   2.068   0.939   0.809 -0.2385 -0.4565 -0.1155
   55SOL     OW  217   0.542   1.540   1.656 -0.5828  0.6409 -0.4974
   55SOL    HW1  218   0.478   1.566   1.588 -1.5366 -2.0126 -0.9606
   55SOL    HW2  219   0.616   1.513   1.604 -3.6694 -1.3422 -1.0692
   55SOL     MW  220   0.543   1.540   1.640 -1.1159  0.0292 -0.6339
   56SOL     OW  221   0.592   0.792   0.094 -0.0778  0.0234  0.5714
   56SOL    HW1  222   0.651   0.862   0.080 -1.6530  0.1431 -0.2734
   56SOL    HW2  223   0.511   0.809   0.040 -2.9443 -0.7248  0.9612
   56SOL     MW  224   0.589   0.803   0.085 -0.6638 -0.0595  0.5114
   57SOL     OW  225   1.175   1.238   1.118 -0.4836  0.3782 -0.2982
   57SOL    HW1  226   1.257   1.287   1.096 -0.1312  0.9365  0.7549
   57SOL    HW2  227   1.185   1.194   1.201 -0.5859  0.6915 -3.6802
   57SOL     MW  228   1.187   1.239   1.126 -0.4506  0.4932 -0.6055
   58SOL     OW  229   0.543   1.168   1.335  0.3480 -0.2681 -0.0816
   58SOL    HW1  230   0.525   1.258   1.301  1.0401  1.9731 -2.2549
   58SOL    HW2  231   0.569   1.172   1.424 -0.0551 -0.7742 -0.8556
   58SOL     MW  232   0.544   1.180   1.342  0.3861 -0.0392 -0.4705
   59SOL     OW  233   1.555   1.707   0.346 -0.0485  0.1584  0.2926
   59SOL    HW1  234   1.586   1.751   0.424  0.7660 -0.4562  1.0294
   59SOL    HW2  235   1.464   1.674   0.365  1.5025  1.0283  0.1826
   59SOL     MW  236   1.547   1.709   0.359  0.2636  0.1921  0.3753
   60SOL     OW  237   0.029   0.201   1.573  0.5781  0.4018  0.0271
   60SOL    HW1  238  -0.059   0.235   1.587  4.6039  0.2544 -1.9158
   60SOL    HW2  239   0.043   0.140   1.643  2.9322 -0.2655  0.2229
   60SOL     MW  240   0.019   0.197   1.584  1.4199  0.2943 -0.2034
   61SOL     OW  241   2.028   1.512   3.091  0.2837 -0.0486 -0.1633
   61SOL    HW1  242   2.000   1.492   3.182 -0.1918 -1.5326  0.8260
   61SOL    HW2  243   2.096   1.444   3.082  0.6112 -0.3456 -2.6166
   61SOL     MW  244   2.033   1.501   3.102  0.2642 -0.2836 -0.3565
   62SOL     OW  245   0.591   1.738   0.636  0.0764 -0.1458 -0.1655
   62SOL    HW1  246   0.677   1.748   0.580  1.0939  1.3783 -2.6381
   62SOL    HW2  247   0.579   1.643   0.643 -0.1278  0.8235 -1.7453
   62SOL     MW  248   0.601   1.727   0.630  0.1837  0.1832 -0.7002
   63SOL     OW  249   1.705   0.677   0.732  0.5283  0.2880 -0.4823
   63SOL    HW1  250   1.696   0.757   0.682  0.0844 -0.2362 -0.3659
   63SOL    HW2  251   1.620   0.664   0.778  1.8913  1.0082  3.3054
   63SOL     MW  252   1.693   0.686   0.732  0.6496  0.3139  0.0328
   64SOL     OW  253   0.172   1.703   0.803 -0.2956  0.0385  0.4873
   64SOL    HW1  254   0.230   1.747   0.738  0.7584  0.0026 -2.7417
   64SOL    HW2  255   0.084   1.753   0.794  0.0447 -0.7937  1.8916
   64SOL     MW  256   0.168   1.716   0.793 -0.1116 -0.0761  0.2466
   65SOL     OW  257   1.580   2.293   0.387  0.2691 -0.3129 -0.1963
   65SOL    HW1  258   1.674   2.291   0.374 -0.4974 -2.9212  1.5796
   65SOL    HW2  259   1.563   2.344   0.465  1.0524  0.6933  1.6783
   65SOL     MW  260   1.590   2.299   0.396  0.2713 -0.5243  0.2854
   66SOL     OW  261   0.289   0.516   0.541 -0.4658 -0.9724 -0.5521
   66SOL    HW1  262   0.363   0.488   0.486 -2.9071 -0.0201 -0.7795
   66SOL    HW2  263   0.269   0.608   0.512  1.6056  3.7871 -1.3854
   66SOL     MW  264   0.296   0.525   0.530 -0.5146 -0.2187 -0.6921
   67SOL     OW  265   1.559   0.056   2.051  0.1116 -0.2090 -0.2690
   67SOL    HW1  266   1.551   0.076   1.956 -0.5271  2.8321 -1.2995
   67SOL    HW2  267   1.512  -0.027   2.070 -0.8854 -1.3769  0.6875
   67SOL     MW  268   1.552   0.048   2.041 -0.1042  0.0382 -0.2787
   68SOL     OW  269   0.711   0.083   2.932  0.4122 -0.7419 -0.3900
   68SOL    HW1  270   0.733   0.127   2.852  3.0440  1.0698  0.9163
   68SOL    HW2  271   0.771   0.118   2.999 -0.9776 -3.0492 -1.2887
   68SOL     MW  272   0.722   0.094   2.931  0.5760 -0.8073 -0.3362
   69SOL     OW  273   1.033   0.247   1.995  0.3892  0.4725 -0.5220
   69SOL    HW1  274   1.127   0.261   2.008 -1.4925  0.0354 -2.1799
   69SOL    HW2  275   1.024   0.161   2.037 -1.8944  0.3874  3.5754
   69SOL     MW  276   1.044   0.237   2.003 -0.1604  0.4036 -0.2001
   70SOL     OW  277   0.532   1.734   1.129  0.2747  0.1385 -0.0811
   70SOL    HW1  278   0.573   1.720   1.215 -1.7950  1.9550  2.1228
   70SOL    HW2  279   0.604   1.752   1.069 -1.1696  1.2328  0.8117
   70SOL     MW  280   0.547   1.735   1.133 -0.1890  0.5225  0.3275
   71SOL     OW  281   1.572   0.509   1.250  0.3341 -0.3789 -0.3927
   71SOL    HW1  282   1.564   0.573   1.320 -3.1627 -2.0985  0.5974
   71SOL    HW2  283   1.548   0.558   1.171  1.5571 -0.7683 -0.3947
   71SOL     MW  284   1.568   0.524   1.249  0.0341 -0.6571 -0.2623
   72SOL     OW  285   0.757   1.856   0.963 -0.1499 -0.2388 -0.1769
   72SOL    HW1  286   0.760   1.919   0.886  1.9311  3.6475  1.9270
   72SOL    HW2  287   0.754   1.765   0.932  0.4433 -2.9033 -1.2575
   72SOL     MW  288   0.757   1.852   0.949  0.2029 -0.0776 -0.0419
   73SOL     OW  289   1.173   0.723   1.286  0.6065 -0.2077 -0.7036
   73SOL    HW1  290   1.123   0.642   1.311  0.7954  0.3416  1.1006
   73SOL    HW2  291   1.131   0.794   1.341 -1.7639 -0.4556  0.0077
   73SOL     MW  292   1.161   0.722   1.297  0.3187 -0.1680 -0.3717
   74SOL     OW  293   2.717   0.139   0.975 -0.2109 -0.1914 -0.1904
   74SOL    HW1  294   2.782   0.099   0.918 -2.0716  0.3262  0.6724
   74SOL    HW2  295   2.730   0.234   0.956  0.3557 -0.2545  0.7794
   74SOL     MW  296   2.727   0.146   0.965 -0.3817 -0.1314  0.0514
   75SOL     OW  297   1.618   1.364   0.117 -0.5575 -0.3515 -0.3052
   75SOL    HW1  298   1.647   1.453   0.133 -0.8008  1.4057 -1.4582
   75SOL    HW2  299   1.665   1.321   0.190 -3.2011  0.5608 -0.8764
   75SOL     MW  300   1.628   1.370   0.129 -0.9384  0.0007 -0.5327
   76SOL     OW  301   3.005   0.593   0.480 -0.3035 -0.4316  0.0603
   76SOL    HW1  302   3.060   0.662   0.518 -0.8878 -0.4629  0.0643
   76SOL    HW2  303   3.065   0.518   0.467  0.9823 -3.0184  1.7113
   76SOL     MW  304   3.020   0.592   0.483 -0.2109 -0.7771  0.2787
   77SOL     OW  305   0.817   0.520   0.461 -0.4229 -0.0582  0.5090
   77SOL    HW1  306   0.802   0.520   0.365  0.0267 -1.0933 -1.1234
   77SOL    HW2  307   0.761   0.447   0.491  1.3565  1.1980  0.3147
   77SOL     MW  308   0.808   0.510   0.453 -0.1288 -0.0290  0.2680
   78SOL     OW  309   0.720   0.911   1.314  0.1216 -0.3064 -0.1493
   78SOL    HW1  310   0.758   0.990   1.278 -1.6806  0.7917  1.2357
   78SOL    HW2  311   0.674   0.871   1.242 -1.1507 -1.9478 -2.0534
   78SOL     MW  312   0.719   0.916   1.299 -0.2840 -0.3781 -0.2178
   79SOL     OW  313   1.949   1.691   0.590  0.4641 -0.3304  0.2026
   79SOL    HW1  314   1.878   1.636   0.549  0.7405  1.8186 -0.8618
   79SOL    HW2  315   1.953   1.649   0.679 -0.2539  0.3761 -0.0447
   79SOL     MW  316   1.940   1.678   0.596  0.4059  0.0464  0.0295
   80SOL     OW  317   0.071   0.941   0.339  0.1974  0.0722 -0.0092
   80SOL    HW1  318  -0.021   0.903   0.328 -1.3360 -0.0839 -2.1495
   80SOL    HW2  319   0.122   0.873   0.381  0.2963 -0.6894 -1.9148
   80SOL     MW  320   0.066   0.927   0.343  0.0081 -0.0489 -0.5430
   81SOL     OW  321   1.930   1.903   0.262 -0.0370 -0.5709  0.5930
   81SOL    HW1  322   1.896   1.817   0.238  0.1001 -1.7886  2.2710
   81SOL    HW2  323   1.858   1.963   0.241  1.4666  3.1273 -0.9578
   81SOL     MW  324   1.916   1.900   0.256  0.1795 -0.2436  0.6098
   82SOL     OW  325   0.803   1.019   0.538 -0.1529 -0.3957  0.6389
   82SOL    HW1  326   0.819   1.023   0.436 -0.8756  1.0461 -0.5039
   82SOL    HW2  327   0.783   0.927   0.555 -1.6317  1.2608 -2.4180
   82SOL     MW  328   0.803   1.007   0.527 -0.4433  0.0131  0.0848
   83SOL     OW  329   0.062   0.651   1.469  0.3467 -0.3192 -0.2482
   83SOL    HW1  330   0.105   0.699   1.393 -0.5112 -0.3533  1.3406
   83SOL    HW2  331   0.143   0.620   1.511  1.9370 -0.3933 -0.4845
   83SOL     MW  332   0.078   0.654   1.465  0.4433 -0.3335 -0.0697
   84SOL     OW  333   0.130   0.267   1.004 -0.2460 -0.5137  0.7843
   84SOL    HW1  334   0.067   0.329   0.954  1.0020 -0.9078  0.4334
   84SOL    HW2  335   0.072   0.204   1.048  1.2720 -0.4794  0.2446
   84SOL     MW  336   0.114   0.267   1.003  0.1189 -0.5612  0.6668
   85SOL     OW  337   0.463   0.442   0.715  0.1524  0.4600  0.1602
   85SOL    HW1  338   0.396   0.477   0.657 -0.5675 -0.0748 -1.3841
   85SOL    HW2  339   0.426   0.364   0.758 -0.6098 -2.6752 -0.9753
   85SOL     MW  340   0.449   0.436   0.713 -0.0432 -0.0242 -0.1934
   86SOL     OW  341   1.160   0.272   1.127 -0.0666 -0.4956  0.1310
   86SOL    HW1  342   1.133   0.342   1.072  1.4566 -1.5251 -0.1454
   86SOL    HW2  343   1.237   0.295   1.181 -0.3763  0.6308  1.2165
   86SOL     MW  344   1.167   0.284   1.127  0.0935 -0.4828  0.2377
   87SOL     OW  345   1.255   1.469   1.342  0.7354  0.1198 -0.7081
   87SOL    HW1  346   1.260   1.500   1.251  2.2216  2.0733 -0.1050
   87SOL    HW2  347   1.222   1.377   1.338  0.5588 -1.6377 -0.4708
   87SOL     MW  348   1.251   1.461   1.329  0.9082  0.1457 -0.5972
   88SOL     OW  349   1.195   1.021   0.970 -0.5484  0.3267  0.8505
   88SOL    HW1  350   1.291   1.020   0.965 -0.8861  1.2355 -2.2952
   88SOL    HW2  351   1.181   1.103   1.015  1.3193 -0.8137 -0.1140
   88SOL     MW  352   1.206   1.032   0.975 -0.3465  0.2962  0.3082
   89SOL     OW  353   1.767   0.696   0.375 -0.3405  0.3537 -0.2813
   89SOL    HW1  354   1.756   0.600   0.368 -2.0442 -1.7575 -0.0107
   89SOL    HW2  355   1.832   0.724   0.313  0.4373  0.2284  1.9964
   89SOL     MW  356   1.774   0.687   0.366 -0.4627  0.0586  0.0549
   90SOL     OW  357   0.723   1.148   2.738  0.4457 -0.3307  0.0553
   90SOL    HW1  358   0.781   1.075   2.730  0.2807  2.8958 -2.8484
   90SOL    HW2  359   0.758   1.199   2.810  4.0531  2.1257  1.9164
   90SOL     MW  360   0.735   1.145   2.746  0.8999  0.4191 -0.0823
   91SOL     OW  361   2.178   0.664   0.436  0.1640  0.2143 -0.1270
   91SOL    HW1  362   2.243   0.710   0.384  2.2833 -2.2767  0.0698
   91SOL    HW2  363   2.173   0.577   0.400 -0.9004  1.0793  1.0176
   91SOL     MW  364   2.186   0.658   0.425  0.3032 -0.0002  0.0500
   92SOL     OW  365   1.718   0.903   0.536  0.3694  0.3388  0.2301
   92SOL    HW1  366   1.619   0.901   0.550  1.1554 -3.8085  0.4880
   92SOL    HW2  367   1.742   0.828   0.483 -0.4305  2.2612  1.0851
   92SOL     MW  368   1.708   0.893   0.531  0.3676  0.0452  0.3770
   93SOL     OW  369   0.949   0.241   0.403  0.7211  0.0246 -0.3437
   93SOL    HW1  370   0.883   0.305   0.424 -1.5558 -1.9609 -1.9902
   93SOL    HW2  371   0.994   0.268   0.322  1.8445 -2.8826 -0.9047
   93SOL     MW  372   0.946   0.253   0.395  0.5689 -0.6209 -0.6349
   94SOL     OW  373   1.796   1.445   1.639  0.3289 -1.0843  0.4134
   94SOL    HW1  374   1.802   1.432   1.548 -1.8156 -0.0032  1.4610
   94SOL    HW2  375   1.768   1.355   1.682  0.5928 -1.7177  1.8414
   94SOL     MW  376   1.793   1.431   1.633  0.0808 -1.0253  0.7400
   95SOL     OW  377   0.735   1.561   0.908 -0.0112  0.1030  0.3114
   95SOL    HW1  378   0.806   1.506   0.937  0.4125  1.6591 -0.3422
   95SOL    HW2  379   0.648   1.523   0.928 -0.8560 -0.3624 -0.5293
   95SOL     MW  380   0.733   1.549   0.914 -0.0668  0.2469  0.1142
   96SOL     OW  381   1.279   1.864   1.685  0.0807  0.1978 -1.2361
   96SOL    HW1  382   1.193   1.842   1.728 -2.0483 -2.8592  3.1297
   96SOL    HW2  383   1.295   1.782   1.651  0.2959  4.8930  1.3672
   96SOL     MW  384   1.270   1.851   1.686 -0.1718  0.4139 -0.3166
   97SOL     OW  385   1.263   1.430   0.729 -0.0484  0.2508  0.1938
   97SOL    HW1  386   1.320   1.469   0.791 -0.3940 -1.6801  0.4630
   97SOL    HW2  387   1.177   1.474   0.732 -1.4458  0.1358 -0.7987
   97SOL     MW  388   1.259   1.441   0.738 -0.2784 -0.0191  0.0984
   98SOL     OW  389   1.446   1.297   1.045 -0.2341 -0.4235 -0.1262
   98SOL    HW1  390   1.496   1.363   1.100  3.3251  0.0210  1.3931
   98SOL    HW2  391   1.473   1.305   0.951  0.0750  1.7255 -0.5194
   98SOL     MW  392   1.456   1.307   1.040  0.2763 -0.0813  0.0224
   99SOL     OW  393   1.362   0.352   1.338 -0.5102 -0.1838  0.3405
   99SOL    HW1  394   1.439   0.410   1.323 -0.2975 -2.0510  0.8920
   99SOL    HW2  395   1.332   0.377   1.424  0.8936  2.2919 -2.1250
   99SOL     MW  396   1.368   0.363   1.348 -0.2969 -0.1035  0.0879
  100SOL     OW  397   1.005   1.184   1.433 -0.0224  0.0237  0.3791
  100SOL    HW1  398   1.021   1.213   1.526  0.9103 -1.8326  1.7465
  100SOL    HW2  399   1.040   1.092   1.438 -2.6174 -1.8678  0.0864
  100SOL     MW  400   1.012   1.176   1.446 -0.2417 -0.4708  0.5209
  101SOL     OW  401   0.486   1.096   0.337 -0.2563  0.3286  0.2893
  101SOL    HW1  402   0.485   0.999   0.333 -1.1251 -3.0376  0.6682
  101SOL    HW2  403   0.484   1.120   0.248  2.9339 -0.3957  0.5076
  101SOL     MW  404   0.485   1.086   0.325  0.0500 -0.2111  0.3680
  102SOL     OW  405   2.929   0.642   1.077  0.3613  0.2106  0.3378
  102SOL    HW1  406   2.992   0.715   1.087 -1.9315 -1.1112  2.2296
  102SOL    HW2  407   2.932   0.593   1.163 -0.5042  2.6299  2.2259
  102SOL     MW  408   2.938   0.645   1.090 -0.0554  0.3554  0.8365
  103SOL     OW  409   1.800   0.265   1.802  0.4189 -0.2380 -0.5903
  103SOL    HW1  410   1.763   0.179   1.759 -1.3711 -2.3539 -0.2232
  103SOL    HW2  411   1.824   0.242   1.896 -1.7644  1.5865 -1.5460
  103SOL     MW  412   1.798   0.251   1.809 -0.1054 -0.2764 -0.6680
  104SOL     OW  413   0.096   1.644   1.496  1.0505 -0.7534 -0.1801
  104SOL    HW1  414   0.058   1.716   1.554  0.3820  2.4054  1.4810
  104SOL    HW2  415   0.033   1.610   1.441  1.1019 -3.2747 -0.3407
  104SOL     MW  416   0.083   1.649   1.496  0.9691 -0.6693  0.0179
  105SOL     OW  417   0.016   1.201   0.431  0.1448  0.2591  0.0390
  105SOL    HW1  418   0.058   1.112   0.417  0.9751 -1.6245  0.8447
  105SOL    HW2  419   0.096   1.262   0.434  1.4691  2.3738 -0.8140
  105SOL     MW  420   0.032   1.197   0.430  0.4291  0.2896  0.0327
  106SOL     OW  421   0.850   0.368   1.008  0.0429 -0.4292 -0.2437
  106SOL    HW1  422   0.795   0.406   0.936  1.6418  0.5797 -0.7919
  106SOL    HW2  423   0.910   0.306   0.959 -0.8566 -0.2983 -0.2701
  106SOL     MW  424   0.851   0.365   0.992  0.1352 -0.2788 -0.3195
  107SOL     OW  425   0.789   2.156   2.984  0.1466  0.5960  0.4964
  107SOL    HW1  426   0.736   2.135   2.905  2.0918 -0.1520 -0.0421
  107SOL    HW2  427   0.750   2.108   3.060  0.6445 -2.0051  0.3053
  107SOL     MW  428   0.777   2.147   2.983  0.4689  0.1541  0.4001
  108SOL     OW  429   1.308   1.565   1.628  0.7878  0.2809  0.7460
  108SOL    HW1  430   1.283   1.572   1.533 -1.9236  1.0138 -2.4730
  108SOL    HW2  431   1.392   1.521   1.609  0.3038  0.1827 -1.0654
  108SOL     MW  432   1.316   1.560   1.613  0.3662  0.3646  0.0823
  109SOL     OW  433   1.962   0.766   0.165 -0.0341 -0.2148 -0.1107
  109SOL    HW1  434   1.940   0.841   0.114 -1.1226  4.3926  4.5941
  109SOL    HW2  435   2.029   0.790   0.226  0.6926  0.8789 -1.2533
  109SOL     MW  436   1.968   0.779   0.166 -0.0818  0.5374  0.3593
  110SOL     OW  437   0.398   1.906   0.741 -0.7190 -0.0302 -0.9688
  110SOL    HW1  438   0.467   1.841   0.726 -0.3789 -0.0906 -1.0158
  110SOL    HW2  439   0.419   1.973   0.672 -1.5387  2.9804  0.0996
  110SOL     MW  440   0.410   1.906   0.730 -0.7823  0.3590 -0.8341
  111SOL     OW  441   0.863   0.937   1.541  0.1526  0.0166 -0.0824
  111SOL    HW1  442   0.798   0.921   1.466 -1.8081 -3.2957 -1.3790
  111SOL    HW2  443   0.832   0.876   1.611 -1.4959  0.2815 -1.0095
  111SOL     MW  444   0.850   0.927   1.541 -0.3236 -0.3854 -0.3758
  112SOL     OW  445   1.340   1.101   1.614  0.3594  0.3042 -0.1588
  112SOL    HW1  446   1.279   1.162   1.661 -3.3230 -0.3285  0.8428
  112SOL    HW2  447   1.297   1.016   1.608  0.4552  0.8800 -0.2537
  112SOL     MW  448   1.326   1.098   1.620 -0.1138  0.2967 -0.0392
  113SOL     OW  449   1.290   0.039   1.726 -0.4095 -0.1929 -0.6309
  113SOL    HW1  450   1.264   0.006   1.812  1.7578 -0.3520  1.4248
  113SOL    HW2  451   1.309  -0.034   1.670  3.7030 -2.1380  1.2269
  113SOL     MW  452   1.289   0.025   1.730  0.4191 -0.4705 -0.1146
  114SOL     OW  453   0.258   2.860   1.934 -0.0649 -0.2923  0.4434
  114SOL    HW1  454   0.314   2.928   1.965  1.5720  0.8988 -2.7450
  114SOL    HW2  455   0.259   2.866   1.834 -0.2453  0.2091  1.3470
  114SOL     MW  456   0.265   2.870   1.925  0.1273 -0.0690  0.1419
  115SOL     OW  457   0.483   0.840   1.111  0.4445  0.3989 -0.5798
  115SOL    HW1  458   0.516   0.747   1.104 -0.8468 -1.5762 -1.6971
  115SOL    HW2  459   0.476   0.853   1.203 -0.7967 -0.9369  0.8250
  115SOL     MW  460   0.487   0.830   1.123  0.1103 -0.0379 -0.5419
  116SOL     OW  461   0.776   1.069   0.940 -0.0152  0.2149 -0.5921
  116SOL    HW1  462   0.820   1.113   0.865 -1.2675  1.3437 -1.1277
  116SOL    HW2  463   0.821   1.078   1.025 -0.2842 -1.9534  3.2666
  116SOL     MW  464   0.788   1.076   0.941 -0.2159  0.0777 -0.1536
  117SOL     OW  465   1.160   1.186   0.754  0.5945  0.0154 -0.0996
  117SOL    HW1  466   1.178   1.139   0.835  0.6395  0.5248  0.7421
  117SOL    HW2  467   1.193   1.273   0.766  1.6107 -1.4747 -0.6480
  117SOL     MW  468   1.167   1.191   0.767  0.7345 -0.1140 -0.0609
  118SOL     OW  469   3.039   2.979   1.742  0.5224  0.2108 -0.6009
  118SOL    HW1  470   3.106   3.040   1.780  2.5607 -1.1820 -1.3696
  118SOL    HW2  471   2.953   3.020   1.747 -1.1153  0.5263  1.5422
  118SOL     MW  472   3.036   2.992   1.748  0.5753  0.0687 -0.4196
  119SOL     OW  473   0.455   1.458   1.252 -0.5827  0.2846  0.6090
  119SOL    HW1  474   0.497   1.525   1.196 -2.8365  2.3042 -0.2822
  119SOL    HW2  475   0.366   1.442   1.214 -0.8719  3.3982  1.0639
  119SOL     MW  476   0.449   1.464   1.240 -0.9183  0.9619  0.5514
  120SOL     OW  477   0.252   0.700   0.980 -0.2517 -0.4631 -0.3732
  120SOL    HW1  478   0.245   0.631   1.047 -0.7424  0.2175 -0.2741
  120SOL    HW2  479   0.319   0.760   1.011 -1.5309  1.6108  2.2302
  120SOL     MW  480   0.260   0.699   0.993 -0.4852 -0.0997 -0.0167
  121SOL     OW  481   1.735   1.205   1.728  0.1683  0.2133  0.0201
  121SOL    HW1  482   1.647   1.171   1.738 -3.8159  0.0860  0.8538
  121SOL    HW2  483   1.766   1.145   1.662 -1.7099 -0.4784  1.7445
  121SOL     MW  484   1.727   1.193   1.721 -0.6052  0.1052  0.3576
  122SOL     OW  485   0.126   0.540   0.796  0.6662  0.3377  0.3154
  122SOL    HW1  486   0.201   0.511   0.745  0.3228  0.8183  0.4418
  122SOL    HW2  487   0.169   0.605   0.855 -1.6371 -0.0281 -2.2195
  122SOL     MW  488   0.142   0.545   0.797  0.3170  0.3528 -0.0024
  123SOL     OW  489   1.867   1.125   0.526  0.3026  0.2417 -0.1481
  123SOL    HW1  490   1.818   1.043   0.537  1.3647 -2.1194  1.7881
  123SOL    HW2  491   1.908   1.143   0.610  1.7748 -0.2056 -2.7759
  123SOL     MW  492   1.866   1.117   0.538  0.6369 -0.1288 -0.2393
  124SOL     OW  493   0.687   0.530   0.852 -0.0077  0.0948  0.2358
  124SOL    HW1  494   0.603   0.497   0.805  0.1574  0.7874 -0.2561
  124SOL    HW2  495   0.678   0.624   0.870  0.6803 -1.2059  1.1251
  124SOL     MW  496   0.674   0.538   0.848  0.1049  0.0146  0.2882
  125SOL     OW  497   0.682   1.792   1.730 -0.2327 -0.3920 -0.3523
  125SOL    HW1  498   0.622   1.717   1.712 -0.4167  3.2410 -0.0207
  125SOL    HW2  499   0.648   1.872   1.694 -2.0171  1.7298  0.5720
  125SOL     MW  500   0.670   1.792   1.723 -0.4924  0.3673 -0.1866
  126SOL     OW  501   2.093   1.580   1.939 -0.5211  0.1945 -0.5029
  126SOL    HW1  502   2.158   1.650   1.933 -0.5596 -0.6548  0.6995
  126SOL    HW2  503   2.136   1.501   1.967 -0.9622  1.3436 -1.2377
  126SOL     MW  504   2.107   1.579   1.942 -0.5844  0.2340 -0.4412
  127SOL     OW  505   0.706   0.782   1.843 -0.6736  0.1304 -0.3216
  127SOL    HW1  506   0.785   0.734   1.878  0.9248 -0.4070  2.4755
  127SOL    HW2  507   0.693   0.868   1.890  1.0768  2.3219 -0.8043
  127SOL     MW  508   0.715   0.787   1.853 -0.2318  0.3486 -0.0162
  128SOL     OW  509   1.791   0.729   2.943  0.3342 -0.4302  0.0056
  128SOL    HW1  510   1.824   0.709   2.854  1.9481  0.4528  0.9886
  128SOL    HW2  511   1.762   0.823   2.931  0.3065  1.7012 -1.9939
  128SOL     MW  512   1.792   0.739   2.930  0.5435 -0.0325 -0.1286
  129SOL     OW  513   1.620   0.949   0.203 -0.4751 -0.3103 -0.5300
  129SOL    HW1  514   1.569   0.881   0.169  0.0270  1.6742 -0.4594
  129SOL    HW2  515   1.674   0.902   0.270  1.1053 -0.0916 -0.5907
  129SOL     MW  516   1.620   0.934   0.207 -0.2003 -0.0196 -0.5287
  130SOL     OW  517   0.755   1.355   0.359  0.3517  0.5360 -0.7074
  130SOL    HW1  518   0.765   1.375   0.454 -1.8140  0.0470  3.2393
  130SOL    HW2  519   0.812   1.408   0.300 -2.1662  2.8602  3.8415
  130SOL     MW  520   0.764   1.364   0.364 -0.2663  0.7781  0.4135
  131SOL     OW  521   3.039   0.815   3.086 -0.2307  0.5392  0.1415
  131SOL    HW1  522   3.021   0.861   2.998  0.2981 -1.7954  0.1429
  131SOL    HW2  523   3.131   0.780   3.094  0.9123 -2.3787 -0.8300
  131SOL     MW  524   3.049   0.817   3.076 -0.0101 -0.1538  0.0135
  132SOL     OW  525   2.684   0.137   1.239 -0.2563 -0.5206  0.2152
  132SOL    HW1  526   2.704   0.135   1.140 -0.5090  0.4197 -0.8543
  132SOL    HW2  527   2.595   0.097   1.254  0.4932  3.0596  2.5122
  132SOL     MW  528   2.675   0.132   1.228 -0.1908  0.0759  0.3772
  133SOL     OW  529   1.002   0.133   1.728  0.2951  0.4270  0.0573
  133SOL    HW1  530   1.084   0.088   1.705 -0.7917 -2.5692  1.3083
  133SOL    HW2  531   1.019   0.179   1.814  0.5574  0.1168  0.4428
  133SOL     MW  532   1.015   0.133   1.736  0.1863 -0.0093  0.2732
  134SOL     OW  533   1.379   2.518   1.458  0.0103  0.1308  0.2044
  134SOL    HW1  534   1.312   2.584   1.442 -1.7811 -0.8814  2.9316
  134SOL    HW2  535   1.437   2.539   1.537 -2.1898  0.5071  2.0413
  134SOL     MW  536   1.378   2.530   1.466 -0.5163  0.0469  0.8066
  135SOL     OW  537   3.017   0.966   2.870  0.1908 -0.4004  0.5674
  135SOL    HW1  538   3.084   1.010   2.916 -5.1268  3.8623  0.5783
  135SOL    HW2  539   2.955   1.040   2.860  0.1929 -1.5020  0.1095
  135SOL     MW  540   3.017   0.982   2.875 -0.5105  0.0167  0.5084
  136SOL     OW  541   0.189   2.031   0.860  0.1320 -0.0941 -0.7134
  136SOL    HW1  542   0.106   1.982   0.837 -0.8784 -1.5644  1.0259
  136SOL    HW2  543   0.258   1.983   0.817 -1.9335 -1.0164 -1.2947
  136SOL     MW  544   0.187   2.018   0.851 -0.2739 -0.4098 -0.5606
  137SOL     OW  545   0.707   2.061   0.532 -0.0369 -0.0354 -0.5572
  137SOL    HW1  546   0.751   2.067   0.618 -1.0854 -0.2190 -1.4041
  137SOL    HW2  547   0.617   2.080   0.544  5.2829  1.7831 -1.9993
  137SOL     MW  548   0.701   2.065   0.545  0.5267  0.1803 -0.8592
  138SOL     OW  549   0.559   0.569   1.128 -0.0187 -0.0245  0.1989
  138SOL    HW1  550   0.470   0.531   1.110 -0.4100 -0.1342  1.8536
  138SOL    HW2  551   0.620   0.534   1.059 -0.8677 -0.6955  1.4644
  138SOL     MW  552   0.556   0.559   1.116 -0.1824 -0.1275  0.5842
  139SOL     OW  553   2.786   0.592   1.350 -0.4710  0.7252  0.0506
  139SOL    HW1  554   2.796   0.495   1.366 -1.7172 -2.7060 -2.0412
  139SOL    HW2  555   2.832   0.642   1.419  0.0691 -1.1364 -1.5213
  139SOL     MW  556   2.793   0.586   1.361 -0.5641  0.0269 -0.4328
  140SOL     OW  557   0.830   0.390   2.088  0.6048 -0.0771 -0.5330
  140SOL    HW1  558   0.905   0.336   2.062 -2.5430 -1.2925  1.6874
  140SOL    HW2  559   0.843   0.404   2.185 -3.2118 -0.9293 -0.5741
  140SOL     MW  560   0.842   0.385   2.098 -0.3141 -0.3499 -0.2455
  141SOL     OW  561   1.071   0.663   1.734  0.1068 -0.1324 -0.2589
  141SOL    HW1  562   1.083   0.573   1.704  0.4152  0.0309 -1.1857
  141SOL    HW2  563   1.162   0.701   1.725  0.3143  0.3386  0.4004
  141SOL     MW  564   1.084   0.656   1.729  0.1749 -0.0487 -0.2942
  142SOL     OW  565   0.878   1.209   0.714  0.6359  0.6694 -0.1435
  142SOL    HW1  566   0.881   1.134   0.649 -0.1046  0.8482 -0.9139
  142SOL    HW2  567   0.972   1.219   0.734  0.1466  0.7884 -0.3295
  142SOL     MW  568   0.891   1.201   0.708  0.4736  0.7087 -0.2697
  143SOL     OW  569   1.810   0.764   1.095  0.7272  0.7331 -0.1912
  143SOL    HW1  570   1.866   0.745   1.019  0.2034 -1.3765  1.4320
  143SOL    HW2  571   1.725   0.767   1.058  0.7549 -2.4681  0.3874
  143SOL     MW  572   1.806   0.762   1.080  0.6618  0.0324  0.0993
  144SOL     OW  573   0.229   1.167   1.582  0.2327  0.1437  0.0684
  144SOL    HW1  574   0.317   1.179   1.549 -0.8477 -0.6476 -0.7254
  144SOL    HW2  575   0.228   1.191   1.676  3.1159  2.2581  1.4982
  144SOL     MW  576   0.240   1.172   1.590  0.4706  0.3183  0.1523
  145SOL     OW  577   0.229   0.476   1.136 -0.5166 -0.0490  0.6219
  145SOL    HW1  578   0.273   0.444   1.209  1.9754  1.7699  1.2588
  145SOL    HW2  579   0.195   0.398   1.071 -1.3322 -0.7379  1.8218
  145SOL     MW  580   0.230   0.462   1.137 -0.2954  0.1001  0.8642
  146SOL     OW  581   0.852   1.928   1.328  0.6948  0.2389  0.2639
  146SOL    HW1  582   0.888   1.950   1.240 -0.4494 -1.1440  0.6774
  146SOL    HW2  583   0.758   1.929   1.307  0.4385  0.6237 -4.1502
  146SOL     MW  584   0.844   1.931   1.314  0.5100  0.1072 -0.2639
  147SOL     OW  585   0.404   0.421   2.969  1.0992  0.2031 -0.5674
  147SOL    HW1  586   0.324   0.414   3.018  1.5985  2.4027  0.8099
  147SOL    HW2  587   0.390   0.483   2.895  1.0462  1.3868 -0.8584
  147SOL     MW  588   0.392   0.428   2.966  1.1581  0.6495 -0.4241
  148SOL     OW  589   0.140   0.831   1.268 -0.2192 -0.2509  0.6082
  148SOL    HW1  590   0.231   0.840   1.288  0.8630  0.6740 -3.4403
  148SOL    HW2  591   0.096   0.881   1.339  0.4634 -0.3570 -0.2418
  148SOL     MW  592   0.146   0.839   1.280  0.0137 -0.1429 -0.0381
  149SOL     OW  593   1.364   1.119   1.335 -0.7721 -0.4199  0.0426
  149SOL    HW1  594   1.339   1.118   1.430  1.2470 -3.0885  1.3783
  149SOL    HW2  595   1.445   1.169   1.337 -2.0719  0.5005 -0.2616
  149SOL     MW  596   1.371   1.126   1.348 -0.6772 -0.6506  0.1787
  150SOL     OW  597   1.845   1.373   0.736 -0.1488 -1.2243 -0.4931
  150SOL    HW1  598   1.863   1.291   0.777 -0.3636 -1.4265 -0.1533
  150SOL    HW2  599   1.874   1.446   0.794 -0.1987 -2.9564  1.0123
  150SOL     MW  600   1.851   1.372   0.749 -0.1837 -1.4795 -0.2496
  151SOL     OW  601   1.685   1.769   0.811 -0.2641  0.4836 -0.5243
  151SOL    HW1  602   1.685   1.806   0.721  3.3306  1.5043  0.6836
  151SOL    HW2  603   1.612   1.707   0.831 -4.4332 -0.9754  1.0745
  151SOL     MW  604   1.675   1.766   0.802 -0.3399  0.4258 -0.1540
  152SOL     OW  605   0.745   1.402   1.494  0.0530 -0.6596  0.1056
  152SOL    HW1  606   0.754   1.316   1.538  0.9752 -3.0180 -3.2962
  152SOL    HW2  607   0.834   1.438   1.502 -0.6695 -0.7236  2.5404
  152SOL     MW  608   0.758   1.395   1.501  0.0794 -0.9792 -0.0220
  153SOL     OW  609   2.606   1.203   0.776  0.7983  0.4140 -0.3671
  153SOL    HW1  610   2.662   1.153   0.713 -1.0504  0.2068  1.9146
  153SOL    HW2  611   2.545   1.136   0.812 -0.0598 -0.3711  0.3664
  153SOL     MW  612   2.605   1.188   0.772  0.4412  0.2831  0.0307
  154SOL     OW  613   0.275   1.817   1.710 -1.2442  0.0884 -0.1522
  154SOL    HW1  614   0.325   1.807   1.631  3.0040  0.5064  0.3932
  154SOL    HW2  615   0.308   1.736   1.757  0.6047  0.1289  1.5549
  154SOL     MW  616   0.286   1.805   1.706 -0.4397  0.1489  0.1450
  155SOL     OW  617   1.247   0.703   0.247  0.2614 -0.3960 -0.4064
  155SOL    HW1  618   1.219   0.651   0.322 -2.3969 -1.7177  0.8590
  155SOL    HW2  619   1.199   0.790   0.249  0.2840  0.2314  1.6802
  155SOL     MW  620   1.237   0.708   0.257 -0.0863 -0.4876  0.0359
  156SOL     OW  621   1.503   3.080   1.133 -0.7471  0.2489 -0.1433
  156SOL    HW1  622   1.594   3.123   1.132  0.9636 -0.4208  1.4168
  156SOL    HW2  623   1.532   2.991   1.158  0.0450 -1.4897 -1.1566
  156SOL     MW  624   1.519   3.074   1.136 -0.4169 -0.0689 -0.0712
  157SOL     OW  625   1.444   1.160   0.099  0.0793  0.3967 -0.0446
  157SOL    HW1  626   1.507   1.083   0.127  1.5009 -0.7716  1.1303
  157SOL    HW2  627   1.498   1.243   0.109  0.7860  1.1998 -0.5749
  157SOL     MW  628   1.460   1.161   0.104  0.3601  0.3485  0.0405
  158SOL     OW  629   0.546   1.658   2.204  0.1603  0.1474  0.1980
  158SOL    HW1  630   0.545   1.752   2.181 -1.4298 -0.5709  0.2041
  158SOL    HW2  631   0.472   1.656   2.257  0.3441 -2.1286  0.6977
  158SOL     MW  632   0.536   1.670   2.208 -0.0253 -0.2477  0.2647
  159SOL     OW  633   1.278   1.679   0.411 -0.0596 -0.5839 -0.4188
  159SOL    HW1  634   1.240   1.606   0.359 -2.5521  1.3160 -0.6988
  159SOL    HW2  635   1.209   1.705   0.472 -0.9589  2.7149 -0.9454
  159SOL     MW  636   1.264   1.673   0.412 -0.5071  0.1020 -0.5252
  160SOL     OW  637   0.559   1.163   1.608 -0.1508 -0.5993  0.6255
  160SOL    HW1  638   0.527   1.072   1.621  2.6739 -0.4393  2.5386
  160SOL    HW2  639   0.639   1.165   1.654  0.9087  1.2226  1.1144
  160SOL     MW  640   0.565   1.151   1.616  0.3616 -0.3378  0.9424
  161SOL     OW  641   0.469   2.212   2.573  0.1720  0.8298 -0.0134
  161SOL    HW1  642   0.380   2.185   2.544  1.5689 -0.4500 -0.2603
  161SOL    HW2  643   0.522   2.171   2.509 -0.0145 -0.0431 -3.3496
  161SOL     MW  644   0.464   2.203   2.561  0.3317  0.5457 -0.4862
  162SOL     OW  645   1.067   1.778   1.846 -0.5440 -0.4565  0.1996
  162SOL    HW1  646   1.078   1.858   1.900  2.1524 -1.1134 -1.8320
  162SOL    HW2  647   0.975   1.750   1.861  1.6438 -1.2996 -1.9134
  162SOL     MW  648   1.056   1.785   1.855  0.1004 -0.6544 -0.3472
  163SOL     OW  649   2.168   3.092   0.938 -0.3279 -0.1938 -0.0859
  163SOL    HW1  650   2.167   3.166   0.880 -1.6215  1.0005  2.1730
  163SOL    HW2  651   2.080   3.068   0.921  2.0332 -0.9892  0.4222
  163SOL     MW  652   2.156   3.099   0.928 -0.1870 -0.1412  0.2792
  164SOL     OW  653   0.359   0.190   0.876 -0.1539 -0.4125 -0.4802
  164SOL    HW1  654   0.286   0.201   0.931 -0.2052 -1.0777 -0.3604
  164SOL    HW2  655   0.340   0.116   0.821  0.4138  0.7619  1.2907
  164SOL     MW  656   0.347   0.182   0.876 -0.0857 -0.3453 -0.2307
  165SOL     OW  657   1.341   1.263   0.328 -0.1572  0.1160 -0.4564
  165SOL    HW1  658   1.309   1.190   0.381  0.7009 -0.3707  1.5579
  165SOL    HW2  659   1.361   1.233   0.236  0.0074  3.6664 -1.4779
  165SOL     MW  660   1.340   1.250   0.323 -0.0223  0.5202 -0.3254
  166SOL     OW  661   0.548   1.157   1.039 -0.1566  0.1525  0.5576
  166SOL    HW1  662   0.503   1.096   1.098  0.8729  1.2522 -0.5631
  166SOL    HW2  663   0.633   1.130   1.003  0.1409  2.6649 -0.8701
  166SOL     MW  664   0.553   1.146   1.042  0.0185  0.6290  0.2214
  167SOL     OW  665   0.782   1.009   0.262 -0.0213 -0.1466  0.0501
  167SOL    HW1  666   0.702   1.060   0.245  3.2178 -1.7477  0.5389
  167SOL    HW2  667   0.820   1.007   0.178  3.6251  2.1169  0.6893
  167SOL     MW  668   0.777   1.016   0.249  0.8872 -0.0592  0.1989
  168SOL     OW  669   1.720   1.663   3.019  0.1891 -0.1741  1.0680
  168SOL    HW1  670   1.635   1.706   3.005  1.1283  2.5110 -3.5310
  168SOL    HW2  671   1.718   1.582   2.969 -0.3401 -4.1712 -0.8179
  168SOL     MW  672   1.708   1.658   3.010  0.2432 -0.3472  0.2124
  169SOL     OW  673   0.406   0.906   1.372  0.3568  0.3122 -0.4544
  169SOL    HW1  674   0.435   0.900   1.469 -0.9531  1.7934 -0.3941
  169SOL    HW2  675   0.450   0.984   1.335 -2.1124  0.7972  0.5883
  169SOL     MW  676   0.416   0.916   1.380 -0.1418  0.5716 -0.3089
  170SOL     OW  677   1.006   1.501   1.501  0.4727 -0.1413 -0.2786
  170SOL    HW1  678   0.989   1.599   1.505  0.2521  1.7445  1.7801
  170SOL    HW2  679   1.086   1.494   1.453  0.4312 -2.7730  3.6748
  170SOL     MW  680   1.014   1.513   1.495  0.4381 -0.2397  0.5147
  171SOL     OW  681   0.549   1.453   0.671  0.0313  0.1483 -0.9351
  171SOL    HW1  682   0.532   1.428   0.756 -1.0904 -2.1538 -3.7211
  171SOL    HW2  683   0.546   1.361   0.636 -0.9747  1.2400  0.3195
  171SOL     MW  684   0.547   1.437   0.678 -0.2494 -0.0114 -1.1372
  172SOL     OW  685   0.857   0.336   1.283  0.0000 -0.7746 -0.2426
  172SOL    HW1  686   0.858   0.358   1.189 -1.2908  0.6482 -1.9723
  172SOL    HW2  687   0.774   0.384   1.318  2.4377  1.9399  0.3074
  172SOL     MW  688   0.846   0.345   1.275  0.1513 -0.2287 -0.3983
  173SOL     OW  689   0.455   1.726   0.369 -0.2788 -0.0456 -0.0618
  173SOL    HW1  690   0.480   1.642   0.329  2.6326  0.7394  0.9545
  173SOL    HW2  691   0.504   1.715   0.448  2.8700  2.0943 -0.2755
  173SOL     MW  692   0.465   1.713   0.374  0.5208  0.3403  0.0441
  174SOL     OW  693   1.821   1.001   1.567 -0.2694  0.2251 -0.2764
  174SOL    HW1  694   1.813   0.904   1.580 -3.6101 -1.1314  0.5704
  174SOL    HW2  695   1.801   1.016   1.475 -0.8961 -0.8106  0.8868
  174SOL     MW  696   1.817   0.990   1.557 -0.7929 -0.0905 -0.0112
  175SOL     OW  697   0.519   1.479   0.277  0.2604  0.1358 -0.5695
  175SOL    HW1  698   0.471   1.412   0.218  0.1281 -0.1260  2.0161
  175SOL    HW2  699   0.594   1.428   0.307  0.9633 -0.0738  0.1351
  175SOL     MW  700   0.523   1.463   0.273  0.3357  0.0736 -0.1354
  176SOL     OW  701   0.171   1.463   1.212 -0.1287  0.0470 -0.1766
  176SOL    HW1  702   0.170   1.400   1.139  0.0735 -2.3896  1.4619
  176SOL    HW2  703   0.089   1.432   1.259 -3.4086  0.3178  2.5653
  176SOL     MW  704   0.160   1.450   1.209 -0.5347 -0.2388  0.4013
  177SOL     OW  705   0.614   0.452   1.371  0.0993  0.0745  0.0140
  177SOL    HW1  706   0.582   0.502   1.296  2.7853 -2.8867 -0.0498
  177SOL    HW2  707   0.598   0.497   1.460 -1.3889  0.8147  1.3628
  177SOL     MW  708   0.607   0.464   1.373  0.2573 -0.2185  0.1836
  178SOL     OW  709   3.081   0.470   2.945 -0.4637  0.7285  0.1270
  178SOL    HW1  710   3.016   0.517   3.000 -1.6819 -1.3544  1.1319
  178SOL    HW2  711   3.028   0.468   2.863 -2.6594  4.3378 -0.3609
  178SOL     MW  712   3.065   0.476   2.941 -0.9141  0.9299  0.1952
  179SOL     OW  713   1.592   1.339   1.364  0.1190  0.1831 -0.4519
  179SOL    HW1  714   1.555   1.366   1.453 -0.2751 -0.6398  0.0524
  179SOL    HW2  715   1.688   1.360   1.366 -0.5696  1.6360 -0.6454
  179SOL     MW  716   1.600   1.346   1.376 -0.0239  0.2662 -0.4109
  180SOL     OW  717   3.077   0.189   0.440  0.1917  0.3471 -0.1229
  180SOL    HW1  718   3.018   0.170   0.361 -2.8351 -1.2204  0.9480
  180SOL    HW2  719   3.128   0.270   0.427  0.3900 -0.1118  1.0139
  180SOL     MW  720   3.076   0.197   0.428 -0.1815  0.0797  0.1684
  181SOL     OW  721   1.121   1.341   3.088  0.2001 -0.7361 -0.1769
  181SOL    HW1  722   1.202   1.396   3.122  1.3828 -0.8785 -0.2697
  181SOL    HW2  723   1.158   1.272   3.029 -3.1267 -3.1212 -0.3051
  181SOL     MW  724   1.136   1.339   3.085 -0.0828 -1.0696 -0.2061
  182SOL     OW  725   0.456   0.870   1.657  0.1627  0.2434 -0.1377
  182SOL    HW1  726   0.367   0.846   1.689  0.2700 -3.2476 -3.3471
  182SOL    HW2  727   0.512   0.820   1.715 -3.3386  2.5773  1.4379
  182SOL     MW  728   0.452   0.860   1.669 -0.2851  0.0908 -0.3533
  183SOL     OW  729   1.578   1.504   1.165  0.1991 -0.2097 -0.3990
  183SOL    HW1  730   1.577   1.594   1.194 -0.8461 -1.1602 -0.4410
  183SOL    HW2  731   1.583   1.448   1.248  0.7365  0.1139 -3.3889
  183SOL     MW  732   1.578   1.508   1.180  0.1321 -0.2924 -0.7990
  184SOL     OW  733   0.924   0.632   1.965 -0.1193 -0.2302 -0.0680
  184SOL    HW1  734   0.986   0.638   1.894 -1.1047  1.6229  1.3626
  184SOL    HW2  735   0.893   0.542   1.963 -2.9109  0.2339 -2.4242
  184SOL     MW  736   0.928   0.621   1.955 -0.6177  0.0755 -0.1901
  185SOL     OW  737   1.260   1.029   1.913 -0.3439  0.0342  0.5736
  185SOL    HW1  738   1.287   0.944   1.956 -0.1609 -1.3469  1.5698
  185SOL    HW2  739   1.257   1.094   1.992 -0.2682 -2.3636  2.6915
  185SOL     MW  740   1.263   1.027   1.929 -0.3098 -0.4644  0.9844
  186SOL     OW  741   0.377   1.686   1.430 -0.0424  0.0693  0.1570
  186SOL    HW1  742   0.399   1.617   1.369  1.6723  1.4780 -0.2196
  186SOL    HW2  743   0.286   1.664   1.457  0.7815  1.0886  0.8665
  186SOL     MW  744   0.368   1.674   1.425  0.2925  0.3897  0.2010
  187SOL     OW  745   1.444   0.704   1.407 -0.0650 -0.0865  0.1481
  187SOL    HW1  746   1.430   0.703   1.500 -0.4352 -1.1855 -0.0513
  187SOL    HW2  747   1.361   0.702   1.364  0.4809  0.2987 -1.2201
  187SOL     MW  748   1.431   0.703   1.414 -0.0418 -0.1807 -0.0587
  188SOL     OW  749   1.904   1.160   0.879 -0.1873  0.3687  0.7062
  188SOL    HW1  750   1.887   1.172   0.980 -0.6602  0.3190  0.2923
  188SOL    HW2  751   1.946   1.072   0.866 -2.2728 -1.1955 -1.1599
  188SOL     MW  752   1.907   1.150   0.891 -0.5248  0.1557  0.4054
  189SOL     OW  753   0.661   0.822   0.866 -0.4769  0.6169 -0.2351
  189SOL    HW1  754   0.585   0.875   0.840 -2.9302 -1.1036  0.1407
  189SOL    HW2  755   0.718   0.894   0.892  0.1210  1.0494  4.2680
  189SOL     MW  756   0.659   0.838   0.866 -0.7217  0.4469  0.4086
  190SOL     OW  757   1.853   0.264   2.101  0.3545  0.0804  0.9297
  190SOL    HW1  758   1.869   0.223   2.189  0.1442 -0.0796  1.4736
  190SOL    HW2  759   1.936   0.307   2.076  0.6917  0.7337  1.3279
  190SOL     MW  760   1.866   0.264   2.110  0.3713  0.1455  1.0540
  191SOL     OW  761   1.507   0.930   1.237  0.1981  0.4871  0.2271
  191SOL    HW1  762   1.439   0.998   1.261  1.5788  1.3289  0.7711
  191SOL    HW2  763   1.505   0.857   1.304  2.7261 -1.3318 -1.9190
  191SOL     MW  764   1.498   0.929   1.249  0.7138  0.3582  0.0158
  192SOL     OW  765   0.608   2.096   2.804  0.0992  0.4228 -0.0345
  192SOL    HW1  766   0.532   2.132   2.753 -0.5007 -0.0645 -0.5601
  192SOL    HW2  767   0.602   2.002   2.791 -0.8838 -2.3278  2.8932
  192SOL     MW  768   0.597   2.088   2.795 -0.1096 -0.0044  0.2825
  193SOL     OW  769   0.997   1.572   0.760 -0.2191  0.2829 -0.6282
  193SOL    HW1  770   0.960   1.583   0.843 -1.0415  0.0589  2.4577
  193SOL    HW2  771   0.926   1.532   0.702  0.7312 -0.2344 -1.0041
  193SOL     MW  772   0.983   1.568   0.763 -0.2022  0.1851 -0.2706
  194SOL     OW  773   0.505   1.417   0.948  0.7265  0.4776  0.0992
  194SOL    HW1  774   0.507   1.330   0.989 -2.9473 -0.3843  0.6478
  194SOL    HW2  775   0.419   1.424   0.896  1.0525  3.1832 -1.1997
  194SOL     MW  776   0.494   1.406   0.947  0.2848  0.7209  0.0002
  195SOL     OW  777   1.277   1.140   2.978  0.6397  0.8195  0.1212
  195SOL    HW1  778   1.335   1.148   3.058  0.7081 -0.1582 -1.8035
  195SOL    HW2  779   1.232   1.053   2.997 -0.0352 -3.2473  0.5610
  195SOL     MW  780   1.278   1.130   2.991  0.5597  0.1539 -0.0747
  196SOL     OW  781   2.196   1.012   0.578  0.0911 -0.3149 -0.0804
  196SOL    HW1  782   2.137   0.974   0.509 -0.9660 -1.8446 -1.1028
  196SOL    HW2  783   2.185   1.108   0.576  2.1552  1.2723  1.1951
  196SOL     MW  784   2.187   1.020   0.569  0.2239 -0.3073 -0.0470
  197SOL     OW  785   0.690   1.229   2.071 -0.5183 -0.3997  0.5237
  197SOL    HW1  786   0.677   1.133   2.067  0.0038  1.3877  2.6932
  197SOL    HW2  787   0.637   1.275   2.008 -3.4194 -0.2393 -2.0401
  197SOL     MW  788   0.681   1.222   2.063 -0.8322 -0.1427  0.4717
  198SOL     OW  789   2.964   1.366   1.115 -0.4572  0.4084 -0.0673
  198SOL    HW1  790   2.905   1.441   1.089 -3.6798  1.0267 -1.0339
  198SOL    HW2  791   2.898   1.299   1.092  1.7522  1.8543 -2.4523
  198SOL     MW  792   2.947   1.367   1.108 -0.5909  0.6807 -0.5095
  199SOL     OW  793   0.530   1.371   1.890  0.4209  0.1619  0.3091
  199SOL    HW1  794   0.449   1.317   1.893  2.4067  0.2176 -1.5889
  199SOL    HW2  795   0.537   1.390   1.801  0.9431  1.0543  2.2512
  199SOL     MW  796   0.520   1.366   1.879  0.7518  0.2870  0.3149
  200SOL     OW  797   1.865   3.042   1.301  0.3357 -0.6173  0.4301
  200SOL    HW1  798   1.865   2.983   1.222 -1.4234  0.7544  0.1939
  200SOL    HW2  799   1.777   3.084   1.300  2.8689 -1.1384  0.5142
  200SOL     MW  800   1.853   3.040   1.291  0.4379 -0.5051  0.4100
  201SOL     OW  801   1.007   0.198   0.853  0.3308 -0.1961 -0.3635
  201SOL    HW1  802   0.987   0.141   0.774 -0.1858 -1.3057 -1.2867
  201SOL    HW2  803   1.078   0.256   0.813  0.9984 -1.2605  0.0466
  201SOL     MW  804   1.013   0.198   0.837  0.3507 -0.4830 -0.4312
  202SOL     OW  805   1.518   1.554   0.895 -0.0104 -0.0655 -0.3853
  202SOL    HW1  806   1.549   1.475   0.844 -2.3993 -2.8466 -1.2027
  202SOL    HW2  807   1.542   1.545   0.987  0.2880  1.8659 -0.5599
  202SOL     MW  808   1.525   1.543   0.901 -0.2862 -0.1776 -0.5162
  203SOL     OW  809   3.061   0.477   1.274  0.3639 -0.4205  0.0113
  203SOL    HW1  810   3.134   0.452   1.227 -1.1427  0.1490  1.4080
  203SOL    HW2  811   3.102   0.524   1.350  3.2204 -2.7570 -1.4496
  203SOL     MW  812   3.076   0.480   1.278  0.5420 -0.6536  0.0028
  204SOL     OW  813   1.061   1.744   0.557 -0.3770 -0.2842 -0.2906
  204SOL    HW1  814   1.051   1.684   0.636  1.5100 -0.0282 -4.2721
  204SOL    HW2  815   0.974   1.789   0.557 -0.9172 -0.2514 -2.6806
  204SOL     MW  816   1.048   1.742   0.567 -0.1993 -0.2461 -1.1312
  205SOL     OW  817   1.361   0.063   1.365 -0.2846 -0.8705  0.6141
  205SOL    HW1  818   1.348   0.042   1.274  4.5672 -0.6461  0.2287
  205SOL    HW2  819   1.375   0.158   1.360 -1.4201  0.5387 -0.7022
  205SOL     MW  820   1.361   0.073   1.352  0.2057 -0.6550  0.3896
  206SOL     OW  821   0.409   3.013   1.441  0.2592 -0.2696  0.1977
  206SOL    HW1  822   0.375   2.976   1.351  2.6946 -0.1826 -2.2765
  206SOL    HW2  823   0.482   2.963   1.472  0.7573  0.7277  3.4693
  206SOL     MW  824   0.414   3.001   1.433  0.6462 -0.1266  0.3029
  207SOL     OW  825   0.918   1.523   0.191  0.1954  0.1417  0.2449
  207SOL    HW1  826   0.903   1.620   0.198 -2.7234  1.2152  2.2742
  207SOL    HW2  827   1.001   1.510   0.235  2.5136 -0.8134 -1.3040
  207SOL     MW  828   0.927   1.534   0.198  0.1161  0.1574  0.3083
  208SOL     OW  829   0.696   1.657   1.359 -0.1876  0.2644  0.3420
  208SOL    HW1  830   0.751   1.697   1.426 -0.4111 -0.9121  1.2485
  208SOL    HW2  831   0.705   1.562   1.370  0.2283  2.0094 -1.3525
  208SOL     MW  832   0.705   1.650   1.369 -0.1622  0.3394  0.2381
  209SOL     OW  833   1.548   0.513   3.005 -0.1617 -0.0481  0.6145
  209SOL    HW1  834   1.592   0.596   3.001 -0.9415  1.7899 -0.9919
  209SOL    HW2  835   1.602   0.451   2.965 -1.1107  0.4252  1.8086
  209SOL     MW  836   1.561   0.516   2.999 -0.3898  0.2568  0.5601
  210SOL     OW  837   1.587   1.312   0.794 -0.6053 -0.4478  0.5154
  210SOL    HW1  838   1.682   1.341   0.777  0.7531 -0.7144  0.7853
  210SOL    HW2  839   1.552   1.318   0.704  2.2588  0.6571  0.4542
  210SOL     MW  840   1.595   1.316   0.780 -0.0482 -0.3372  0.5429
  211SOL     OW  841   1.647   0.360   0.963 -0.0004 -0.2879 -0.1456
  211SOL    HW1  842   1.614   0.396   0.876 -0.1539 -1.4970 -2.4951
  211SOL    HW2  843   1.738   0.381   0.955 -0.1050 -2.1099  0.7112
  211SOL     MW  844   1.655   0.368   0.950 -0.0344 -0.6878 -0.3425
  212SOL     OW  845   0.239   1.039   0.116  0.3889 -0.3639  0.1048
  212SOL    HW1  846   0.194   0.982   0.183  2.0559 -0.6866  0.6719
  212SOL    HW2  847   0.286   0.981   0.061 -1.6697 -1.5403  0.6422
  212SOL     MW  848   0.239   1.024   0.117  0.3372 -0.5617  0.2505
  213SOL     OW  849   0.521   1.734   3.035  0.3672 -0.2898 -0.2437
  213SOL    HW1  850   0.551   1.808   3.088  1.5293  2.1184  2.1726
  213SOL    HW2  851   0.565   1.747   2.948 -0.1528 -3.0024 -0.3764
  213SOL     MW  852   0.531   1.745   3.031  0.4519 -0.3300  0.0576
  214SOL     OW  853   0.561   0.283   2.247  0.5363  0.0721 -0.5949
  214SOL    HW1  854   0.516   0.371   2.238  0.7424 -0.2273 -0.0629
  214SOL    HW2  855   0.655   0.305   2.223  1.9623  2.2865  1.7540
  214SOL     MW  856   0.568   0.298   2.242  0.7516  0.3248 -0.2148
  215SOL     OW  857   0.524   0.700   2.655 -0.2246  0.2816  0.3913
  215SOL    HW1  858   0.529   0.662   2.569  2.1267  2.6033  0.8644
  215SOL    HW2  859   0.473   0.647   2.714  1.3661  0.5368 -1.3667
  215SOL     MW  860   0.518   0.688   2.651  0.2955  0.6216  0.2218
  216SOL     OW  861   2.895   3.063   2.638 -0.1513 -0.1610  0.5397
  216SOL    HW1  862   2.865   3.055   2.733  3.8870 -0.2376 -0.8296
  216SOL    HW2  863   2.909   3.159   2.628  0.9808 -3.2700 -2.1431
  216SOL     MW  864   2.893   3.074   2.649  0.5309 -0.5813  0.0051
  217SOL     OW  865   0.955   1.098   0.064  0.4815 -0.6267  0.1076
  217SOL    HW1  866   1.009   1.028   0.017  0.7991 -0.4841  0.7619
  217SOL    HW2  867   1.001   1.179   0.042  1.3718  0.3686 -0.8845
  217SOL     MW  868   0.968   1.099   0.055  0.6409 -0.4766  0.0630
  218SOL     OW  869   0.961   1.323   2.528  0.4726 -0.5346  0.4237
  218SOL    HW1  870   0.997   1.239   2.544 -1.3345 -0.6678  2.9174
  218SOL    HW2  871   1.035   1.382   2.535  0.9046 -1.5918 -0.4272
  218SOL     MW  872   0.976   1.320   2.531  0.2911 -0.6916  0.6405
  219SOL     OW  873   1.113   0.447   2.642  0.4178 -0.9891 -0.2099
  219SOL    HW1  874   1.192   0.488   2.669  1.2541  0.1867  1.4483
  219SOL    HW2  875   1.057   0.505   2.596  1.7125  1.3012  0.3141
  219SOL     MW  876   1.116   0.460   2.640  0.6989 -0.5318  0.0780
  220SOL     OW  877   1.752   0.491   2.235 -0.2520 -0.6810 -0.0782
  220SOL    HW1  878   1.657   0.497   2.202 -2.0799 -0.8010 -2.2819
  220SOL    HW2  879   1.788   0.418   2.173  2.5056 -0.0961 -1.0382
  220SOL     MW  880   1.744   0.482   2.223 -0.1293 -0.6197 -0.4956
  221SOL     OW  881   0.402   1.361   2.940  0.3000 -0.5290 -0.2994
  221SOL    HW1  882   0.432   1.273   2.919  1.4137  3.8021  0.5267
  221SOL    HW2  883   0.440   1.405   2.864 -1.4270 -0.5523  0.6419
  221SOL     MW  884   0.411   1.355   2.928  0.2190  0.0393 -0.0662
  222SOL     OW  885   0.375   0.936   2.653 -0.4988 -0.2349  0.0860
  222SOL    HW1  886   0.354   0.966   2.561 -1.1418 -2.0236  0.9639
  222SOL    HW2  887   0.429   0.857   2.640  0.7684 -2.5056 -0.2138
  222SOL     MW  888   0.379   0.929   2.639 -0.4165 -0.7705  0.1623
  223SOL     OW  889   0.006   2.037   2.545  0.1480 -0.0220 -0.6444
  223SOL    HW1  890   0.073   1.979   2.585 -0.5356 -0.1327  0.2664
  223SOL    HW2  891   0.059   2.112   2.507 -0.7599  1.4160 -0.2247
  223SOL     MW  892   0.022   2.039   2.545 -0.0620  0.1531 -0.4689
  224SOL     OW  893   1.507   0.812   2.635 -0.4062  0.1079  0.5232
  224SOL    HW1  894   1.522   0.879   2.699 -0.5247 -1.7515 -0.4988
  224SOL    HW2  895   1.479   0.859   2.552 -4.6589  0.4991 -1.7198
  224SOL     MW  896   1.505   0.827   2.633 -0.9829 -0.0858  0.0924
  225SOL     OW  897   2.919   1.445   2.310 -0.5811 -0.0638 -0.1194
  225SOL    HW1  898   2.959   1.506   2.245 -2.7686 -0.3083  1.9177
  225SOL    HW2  899   2.853   1.490   2.365 -2.8540  1.8817  0.6712
  225SOL     MW  900   2.916   1.459   2.309 -1.1696  0.1607  0.2537
  226SOL     OW  901   0.480   1.460   2.699  0.2825  0.5353 -0.0005
  226SOL    HW1  902   0.579   1.450   2.696 -1.2222 -0.3791 -0.5214
  226SOL    HW2  903   0.451   1.553   2.705 -2.8405 -1.4404  1.9277
  226SOL     MW  904   0.489   1.471   2.700 -0.3281  0.1540  0.1852
  227SOL     OW  905   0.479   1.112   2.854  0.0775  0.1215 -0.4156
  227SOL    HW1  906   0.569   1.134   2.824  2.4670  1.2564 -0.8257
  227SOL    HW2  907   0.442   1.060   2.780 -2.7267  0.6818 -0.4556
  227SOL     MW  908   0.486   1.108   2.840  0.0228  0.3451 -0.4750
  228SOL     OW  909   0.701   0.962   2.051  0.0320 -0.0322 -0.6241
  228SOL    HW1  910   0.795   0.958   2.024 -0.5415 -0.1166  1.2196
  228SOL    HW2  911   0.697   0.899   2.131 -0.7907 -0.8023  1.9436
  228SOL     MW  912   0.713   0.953   2.058 -0.1522 -0.1449 -0.0420
  229SOL     OW  913   0.185   0.608   0.031 -0.2477  0.3716 -0.0015
  229SOL    HW1  914   0.127   0.557  -0.025  2.3241  1.9272 -0.7450
  229SOL    HW2  915   0.193   0.551   0.108  1.3458  1.0291  0.2511
  229SOL     MW  916   0.178   0.594   0.034  0.3019  0.6636 -0.0663
  230SOL     OW  917   1.727   1.355   2.026 -0.8712 -0.1173  0.1252
  230SOL    HW1  918   1.673   1.326   2.100  0.5179 -0.6784  0.5833
  230SOL    HW2  919   1.781   1.275   2.009 -1.2136 -0.3867  0.8786
  230SOL     MW  920   1.727   1.341   2.034 -0.7331 -0.2269  0.2851
  231SOL     OW  921   2.747   1.258   2.194 -0.0970 -0.3567 -0.3362
  231SOL    HW1  922   2.803   1.318   2.236 -0.3684 -2.2974  1.0328
  231SOL    HW2  923   2.700   1.287   2.123  2.0654  0.1068  0.5303
  231SOL     MW  924   2.748   1.270   2.190  0.1525 -0.5516 -0.0412
  232SOL     OW  925   2.296   0.824   2.031 -0.0093  0.3652 -0.4898
  232SOL    HW1  926   2.252   0.869   1.962  0.2040 -2.6545  0.1431
  232SOL    HW2  927   2.241   0.822   2.109  1.1898  1.1075 -2.6240
  232SOL     MW  928   2.283   0.830   2.032  0.1771  0.0647 -0.6879
  233SOL     OW  929   2.067   0.456   2.012 -0.3484 -0.2421  0.6702
  233SOL    HW1  930   2.125   0.377   2.009 -1.6934 -3.4559  0.3953
  233SOL    HW2  931   2.106   0.504   2.085  0.7734 -0.8598  0.1037
  233SOL     MW  932   2.080   0.452   2.021 -0.3779 -0.7476  0.5592
  234SOL     OW  933   0.287   1.071   2.431  0.4674  0.1476 -0.1104
  234SOL    HW1  934   0.189   1.090   2.437 -1.6412 -1.2022 -2.4920
  234SOL    HW2  935   0.323   1.159   2.453 -2.0734 -0.3540 -0.0605
  234SOL     MW  936   0.279   1.085   2.435 -0.1460 -0.0967 -0.4181
  235SOL     OW  937   1.108   3.066   2.700 -0.2682  0.1285 -0.5315
  235SOL    HW1  938   1.115   2.994   2.760 -1.3177  0.5584 -0.0384
  235SOL    HW2  939   1.097   3.143   2.755  0.7965 -2.6124  1.8993
  235SOL     MW  940   1.107   3.066   2.715 -0.2662 -0.1764 -0.1457
  236SOL     OW  941   2.917   0.568   0.029 -0.0193  0.3098  0.5143
  236SOL    HW1  942   2.821   0.578   0.060 -0.9477  2.0951 -1.2125
  236SOL    HW2  943   2.945   0.658   0.028  1.0825 -1.4491  3.9384
  236SOL     MW  944   2.908   0.581   0.033  0.0036  0.3133  0.7383
  237SOL     OW  945   2.003   1.103   2.174 -0.3697 -0.0827 -0.4124
  237SOL    HW1  946   1.956   1.053   2.110  2.4263 -0.1555  1.4058
  237SOL    HW2  947   2.052   1.033   2.220  0.0952  2.3891  2.7188
  237SOL     MW  948   2.003   1.087   2.172  0.0606  0.2338  0.2406
  238SOL     OW  949   1.049   1.811   2.977 -0.2285  0.0975 -0.4638
  238SOL    HW1  950   1.034   1.719   2.951 -1.5682 -0.7570 -1.3050
  238SOL    HW2  951   1.143   1.808   2.989 -4.1171 -0.4559  0.3002
  238SOL     MW  952   1.059   1.799   2.975 -0.9183 -0.0882 -0.4740
  239SOL     OW  953   1.248   1.357   2.368  0.2667 -0.0030  0.4492
  239SOL    HW1  954   1.252   1.434   2.423  0.9894  0.7649  1.8793
  239SOL    HW2  955   1.254   1.282   2.434  0.8787 -1.4297 -0.6428
  239SOL     MW  956   1.250   1.357   2.384  0.4428 -0.0899  0.4938
  240SOL     OW  957   0.712   0.821   2.284 -0.3755  0.2838 -0.0683
  240SOL    HW1  958   0.724   0.895   2.340 -2.9698 -1.2649  2.0316
  240SOL    HW2  959   0.795   0.775   2.281 -1.2521 -0.8697  0.5741
  240SOL     MW  960   0.724   0.824   2.291 -0.8334 -0.0728  0.2935
  241SOL     OW  961   0.637   0.377   0.003  0.1817  0.1784  0.5233
  241SOL    HW1  962   0.663   0.458   0.049 -2.5514  0.8933 -1.0105
  241SOL    HW2  963   0.549   0.395  -0.035 -2.2280 -1.2012 -0.2900
  241SOL     MW  964   0.629   0.390   0.004 -0.4969  0.0907  0.2136
  242SOL     OW  965   1.512   1.678   2.343  0.0660  0.0539 -0.0713
  242SOL    HW1  966   1.478   1.767   2.352 -1.1282  2.1597  1.7860
  242SOL    HW2  967   1.470   1.642   2.268  1.0363 -0.4298 -1.3171
  242SOL     MW  968   1.502   1.685   2.334  0.0365  0.2680  0.0094
  243SOL     OW  969   1.029   0.238   2.485 -0.0604 -0.0614 -0.0507
  243SOL    HW1  970   1.114   0.210   2.437  0.5202 -0.9042  0.0619
  243SOL    HW2  971   1.056   0.296   2.560  1.4942  0.0835  0.8436
  243SOL     MW  972   1.044   0.242   2.488  0.2214 -0.1534  0.0821
  244SOL     OW  973   0.282   0.780   2.414  0.0366  0.6556  0.6670
  244SOL    HW1  974   0.299   0.874   2.406  0.6629  0.1073 -0.7994
  244SOL    HW2  975   0.358   0.733   2.384 -1.2840 -1.5094 -0.9100
  244SOL     MW  976   0.294   0.786   2.409 -0.0550  0.2976  0.2654
  245SOL     OW  977   1.254   0.228   2.330 -0.8706 -0.0831  0.0925
  245SOL    HW1  978   1.335   0.175   2.332 -0.3013 -1.0812  2.3978
  245SOL    HW2  979   1.296   0.316   2.347 -3.2523 -1.7074 -1.5511
  245SOL     MW  980   1.270   0.233   2.332 -1.1097 -0.4291  0.1798
  246SOL     OW  981   1.209   1.203   2.134  0.1671  0.2077 -0.4538
  246SOL    HW1  982   1.183   1.123   2.186  1.6441  2.4580 -1.0948
  246SOL    HW2  983   1.250   1.248   2.200 -0.0348  0.9195  1.6365
  246SOL     MW  984   1.211   1.199   2.150  0.3354  0.5985 -0.2626
  247SOL     OW  985   0.744   0.559   0.192  0.0317  0.1894  0.1256
  247SOL    HW1  986   0.692   0.629   0.163 -1.8303 -1.9328  1.4592
  247SOL    HW2  987   0.830   0.562   0.145  1.4054 -0.0466  0.7597
  247SOL     MW  988   0.749   0.569   0.182 -0.0327 -0.1217  0.3852
  248SOL     OW  989   0.385   1.318   2.474 -1.1721  0.7824  0.2557
  248SOL    HW1  990   0.415   1.349   2.388 -2.3965 -0.0353 -0.4282
  248SOL    HW2  991   0.436   1.370   2.542  2.4700 -1.3375  0.9473
  248SOL     MW  992   0.396   1.329   2.471 -0.8531  0.3948  0.2567
  249SOL     OW  993   0.180   1.899   2.737  0.3897  0.7198 -0.0125
  249SOL    HW1  994   0.127   1.832   2.697 -0.4471  0.7008 -1.5114
  249SOL    HW2  995   0.196   1.860   2.831 -1.1381 -1.5101  2.5233
  249SOL     MW  996   0.175   1.885   2.744  0.0777  0.4231  0.1243
  250SOL     OW  997   2.181   0.898   2.302 -0.1262 -0.5556 -0.5437
  250SOL    HW1  998   2.230   0.808   2.311 -3.0678 -1.1099  0.7862
  250SOL    HW2  999   2.246   0.966   2.316  0.0377 -3.1580  0.6491
  250SOL     MW 1000   2.196   0.895   2.305 -0.4927 -0.9721 -0.2108
  251SOL     OW 1001   0.159   0.878   1.973 -0.2517  0.4294  0.4558
  251SOL    HW1 1002   0.098   0.808   2.001 -2.1855 -2.2394  0.9068
  251SOL    HW2 1003   0.192   0.860   1.880  1.3161 -1.2966  0.6246
  251SOL     MW 1004   0.155   0.866   1.964 -0.3000 -0.1504  0.5376
  252SOL     OW 1005   1.718   0.987   2.839 -0.2315  0.4012 -0.2868
  252SOL    HW1 1006   1.742   1.030   2.925 -1.4725  2.4873  1.7115
  252SOL    HW2 1007   1.791   1.009   2.779  0.4863  0.0454 -1.1406
  252SOL     MW 1008   1.731   0.995   2.843 -0.3005  0.6295 -0.1358
  253SOL     OW 1009   1.250   1.782   2.551  0.2124  0.1489  0.4073
  253SOL    HW1 1010   1.276   1.786   2.459 -2.9014  1.8283 -1.2936
  253SOL    HW2 1011   1.154   1.810   2.547  0.0376 -1.1712 -3.8967
  253SOL     MW 1012   1.241   1.786   2.538 -0.2215  0.1963 -0.3850
  254SOL     OW 1013   1.063   1.000   2.257  0.0947  0.1041 -0.0465
  254SOL    HW1 1014   1.033   0.910   2.259  2.1756 -0.4776 -2.4925
  254SOL    HW2 1015   0.994   1.057   2.279 -1.0233 -2.9003 -2.5337
  254SOL     MW 1016   1.050   0.996   2.260  0.2218 -0.3691 -0.6974
  255SOL     OW 1017   0.752   2.581   2.152  0.2003  0.2965 -0.3999
  255SOL    HW1 1018   0.692   2.512   2.175 -0.3508  0.0423  0.8052
  255SOL    HW2 1019   0.833   2.579   2.199  1.9460  0.8379 -0.7644
  255SOL     MW 1020   0.755   2.572   2.161  0.3579  0.3344 -0.2890
  256SOL     OW 1021   1.305   2.675   2.932  0.0313 -0.8594  1.0313
  256SOL    HW1 1022   1.324   2.598   2.870  4.1724 -1.0946 -1.6978
  256SOL    HW2 1023   1.381   2.728   2.913 -0.9405 -0.5182  0.4922
  256SOL     MW 1024   1.318   2.672   2.921  0.4495 -0.8454  0.6001
  257SOL     OW 1025   0.120   1.918   0.062 -0.3453 -0.4777 -0.2999
  257SOL    HW1 1026   0.130   1.875   0.148  0.5539 -0.7166  2.1106
  257SOL    HW2 1027   0.158   1.853   0.002  0.0124 -1.3988  2.6800
  257SOL     MW 1028   0.126   1.904   0.065 -0.1794 -0.6308  0.4113
  258SOL     OW 1029   0.740   1.018   2.461  0.6346 -0.3040 -0.2072
  258SOL    HW1 1030   0.762   1.100   2.405  0.5365  1.8516  0.2737
  258SOL    HW2 1031   0.692   1.069   2.522  1.4075 -0.0838 -1.1827
  258SOL     MW 1032   0.736   1.036   2.462  0.7237  0.0095 -0.2724
  259SOL     OW 1033   0.836   0.363   2.371  0.7483 -0.7390  0.1656
  259SOL    HW1 1034   0.775   0.327   2.433  1.2827  2.8280 -0.3201
  259SOL    HW2 1035   0.926   0.336   2.395  1.2425 -1.5305 -0.8374
  259SOL     MW 1036   0.839   0.354   2.382  0.8840 -0.3728 -0.0308
  260SOL     OW 1037   0.481   0.131   1.583  0.1130  0.0931 -0.4393
  260SOL    HW1 1038   0.446   0.069   1.513  2.2438 -0.7632 -2.4151
  260SOL    HW2 1039   0.548   0.179   1.543 -2.1520  1.0224  1.0374
  260SOL     MW 1040   0.485   0.129   1.568  0.0953  0.1027 -0.5051
  261SOL     OW 1041   1.264   0.767   2.012 -1.2762 -0.3266  0.0956
  261SOL    HW1 1042   1.294   0.772   2.101 -1.4454 -1.2891  0.0597
  261SOL    HW2 1043   1.240   0.676   2.005 -2.8527  3.0813 -2.6383
  261SOL     MW 1044   1.265   0.755   2.023 -1.5065 -0.0040 -0.2699
  262SOL     OW 1045   1.036   0.338   0.172  0.2513  0.1513  0.0328
  262SOL    HW1 1046   1.125   0.325   0.135 -0.6688  1.7788 -0.0695
  262SOL    HW2 1047   0.979   0.281   0.118  0.7118 -2.5808 -0.4529
  262SOL     MW 1048   1.040   0.328   0.160  0.1907  0.0056 -0.0448
  263SOL     OW 1049   0.408   3.097   2.500 -0.3960 -0.4891 -0.2756
  263SOL    HW1 1050   0.339   3.160   2.470 -0.5289  1.8712  0.2494
  263SOL    HW2 1051   0.469   3.090   2.421  3.0911 -0.4503  0.9031
  263SOL     MW 1052   0.407   3.104   2.485  0.0465 -0.1726 -0.0508
  264SOL     OW 1053   1.472   1.338   1.884 -0.2420  0.1682 -0.0524
  264SOL    HW1 1054   1.407   1.319   1.952 -0.6983  1.6619  1.7938
  264SOL    HW2 1055   1.557   1.351   1.926  3.2657 -1.8551 -0.9898
  264SOL     MW 1056   1.474   1.337   1.898  0.1606  0.0983  0.0675
  265SOL     OW 1057   0.696   2.801   2.289  0.4528  0.0788 -0.0856
  265SOL    HW1 1058   0.702   2.717   2.235 -1.4119  0.1142 -0.5119
  265SOL    HW2 1059   0.725   2.780   2.379 -1.1913 -4.1780 -0.4007
  265SOL     MW 1060   0.701   2.787   2.294 -0.0102 -0.4782 -0.1834
  266SOL     OW 1061   0.967   0.720   2.218  0.3400  0.4499  0.2571
  266SOL    HW1 1062   0.955   0.707   2.120  1.7188 -1.6434  1.3693
  266SOL    HW2 1063   1.065   0.708   2.232  0.5986 -1.4474  0.7410
  266SOL     MW 1064   0.979   0.717   2.207  0.5560 -0.0767  0.4677
  267SOL     OW 1065   1.436   1.769   2.790  0.2267  0.2071 -0.1049
  267SOL    HW1 1066   1.464   1.689   2.744 -2.2401  0.4094  1.0655
  267SOL    HW2 1067   1.389   1.812   2.713 -0.7934  2.5228 -0.3846
  267SOL     MW 1068   1.434   1.764   2.773 -0.2333  0.5394  0.0126
  268SOL     OW 1069   0.187   0.823   1.704 -0.2176 -0.3788 -1.1693
  268SOL    HW1 1070   0.144   0.846   1.624 -0.9485  0.6097  0.7837
  268SOL    HW2 1071   0.181   0.730   1.716 -0.4624 -0.0260  0.5473
  268SOL     MW 1072   0.180   0.813   1.695 -0.3463 -0.2019 -0.6852
  269SOL     OW 1073   1.422   1.941   2.365 -0.5778 -0.3612  0.4127
  269SOL    HW1 1074   1.468   2.027   2.359  2.4573  0.0181  2.6174
  269SOL    HW2 1075   1.355   1.970   2.421  1.5560  0.0830 -2.0226
  269SOL     MW 1076   1.419   1.956   2.371  0.1042 -0.2525  0.3823
  270SOL     OW 1077   1.108   0.406   1.633 -0.0785  0.7077  0.2913
  270SOL    HW1 1078   1.055   0.331   1.653  0.3221 -1.2524  0.8836
  270SOL    HW2 1079   1.199   0.377   1.622  0.7937 -1.0701 -0.0832
  270SOL     MW 1080   1.113   0.392   1.634  0.0895  0.2145  0.3200
  271SOL     OW 1081   0.890   0.008   2.543  0.0125  0.0568  0.0937
  271SOL    HW1 1082   0.946  -0.035   2.613  1.5932 -0.8432  0.7509
  271SOL    HW2 1083   0.938   0.098   2.530  0.9440  1.0406 -0.2746
  271SOL     MW 1084   0.904   0.014   2.551  0.3439  0.0679  0.1318
  272SOL     OW 1085   1.486   2.882   2.830  0.3347 -0.1043  0.1332
  272SOL    HW1 1086   1.455   2.922   2.746  1.2276  0.7369 -0.2490
  272SOL    HW2 1087   1.545   2.946   2.858  1.1702 -0.6838  1.3796
  272SOL     MW 1088   1.490   2.895   2.822  0.5627 -0.0698  0.2473
  273SOL     OW 1089   1.449   0.993   2.819  0.2743 -0.0030 -0.4432
  273SOL    HW1 1090   1.541   1.013   2.839  1.5233 -0.4855  0.2011
  273SOL    HW2 1091   1.395   1.055   2.864 -0.1264  0.6496 -2.3770
  273SOL     MW 1092   1.454   1.004   2.828  0.3863  0.0194 -0.6133
  274SOL     OW 1093   1.474   0.731   0.114 -0.2699 -0.1980  0.1395
  274SOL    HW1 1094   1.522   0.656   0.151  0.4733  1.2194  0.1761
  274SOL    HW2 1095   1.390   0.736   0.159  2.7364 -0.3613 -3.3266
  274SOL     MW 1096   1.470   0.722   0.125  0.2248 -0.0325 -0.3130
  275SOL     OW 1097   1.724   0.561   1.765 -0.0154 -0.4511 -0.2110
  275SOL    HW1 1098   1.784   0.614   1.820  1.6552  0.4479 -2.3798
  275SOL    HW2 1099   1.760   0.475   1.774  1.2047 -1.2749 -2.0289
  275SOL     MW 1100   1.737   0.556   1.774  0.3660 -0.4412 -0.7370
  276SOL     OW 1101   0.301   1.218   1.883  0.4399  0.2808  0.4898
  276SOL    HW1 1102   0.329   1.126   1.909 -0.7887 -0.4338  1.2428
  276SOL    HW2 1103   0.231   1.241   1.942 -0.2705 -3.1460  0.9648
  276SOL     MW 1104   0.295   1.209   1.894  0.1841 -0.2656  0.6518
  277SOL     OW 1105   1.884   1.292   2.427  0.1229 -0.4844 -0.4540
  277SOL    HW1 1106   1.942   1.360   2.464 -0.3299  3.3053  1.6219
  277SOL    HW2 1107   1.910   1.283   2.337 -0.2794  2.2439  0.3148
  277SOL     MW 1108   1.895   1.300   2.420  0.0101  0.3756 -0.0787
  278SOL     OW 1109   1.449   0.620   1.729 -0.1884 -0.4370  0.4223
  278SOL    HW1 1110   1.398   0.580   1.803 -0.3576 -0.4366 -2.6832
  278SOL    HW2 1111   1.540   0.629   1.754  0.7854  1.2673 -0.4788
  278SOL     MW 1112   1.455   0.616   1.742 -0.0822 -0.2121 -0.1063
  279SOL     OW 1113   0.552   0.022   2.285 -0.0243  0.7161 -0.1469
  279SOL    HW1 1114   0.633  -0.023   2.287 -1.6445 -1.4673  1.0733
  279SOL    HW2 1115   0.565   0.115   2.275 -0.6105  1.6059 -1.3731
  279SOL     MW 1116   0.565   0.028   2.284 -0.3154  0.5454 -0.1477
  280SOL     OW 1117   1.445   0.971   2.118  0.0813 -0.4503  0.0956
  280SOL    HW1 1118   1.508   0.911   2.072  3.1006  0.0439 -0.4469
  280SOL    HW2 1119   1.445   0.936   2.209 -0.3563  1.7178  0.5721
  280SOL     MW 1120   1.453   0.959   2.124  0.4219 -0.0990  0.0869
  281SOL     OW 1121   1.293   1.314   2.781 -0.1140  0.7330  0.1745
  281SOL    HW1 1122   1.388   1.312   2.782 -3.3856  0.7226  0.2323
  281SOL    HW2 1123   1.266   1.270   2.862  0.8106 -1.5789  0.7871
  281SOL     MW 1124   1.302   1.308   2.791 -0.4236  0.4266  0.2630
  282SOL     OW 1125   1.110   1.282   1.675 -0.4295  0.4562  1.1436
  282SOL    HW1 1126   1.087   1.379   1.649 -1.0304  1.6125 -1.3380
  282SOL    HW2 1127   1.082   1.281   1.766  0.4249  0.5149  0.5591
  282SOL     MW 1128   1.103   1.294   1.683 -0.3960  0.6165  0.7391
  283SOL     OW 1129   0.766   1.204   2.989  0.2619 -0.2727  0.5148
  283SOL    HW1 1130   0.828   1.156   3.046  1.6714 -1.5303  3.3058
  283SOL    HW2 1131   0.775   1.302   3.012  0.3678  2.1952 -1.2163
  283SOL     MW 1132   0.775   1.211   3.000  0.4619 -0.1130  0.6546
  284SOL     OW 1133   0.506   0.642   2.391  0.1015  0.1066 -0.1471
  284SOL    HW1 1134   0.580   0.688   2.345 -2.4049 -1.5813 -1.3299
  284SOL    HW2 1135   0.478   0.579   2.327  1.6324  2.5462 -0.4119
  284SOL     MW 1136   0.512   0.640   2.376 -0.0272  0.2058 -0.3381
  285SOL     OW 1137   0.927   0.934   2.814  0.7631  0.4569  0.6831
  285SOL    HW1 1138   0.940   0.954   2.720  1.1697 -0.5655  0.1531
  285SOL    HW2 1139   0.885   0.848   2.821 -1.0342 -1.7949  1.6317
  285SOL     MW 1140   0.923   0.925   2.803  0.5796  0.0249  0.7384
  286SOL     OW 1141   1.181   1.510   2.592 -0.3637 -0.5673 -0.1285
  286SOL    HW1 1142   1.231   1.455   2.651  1.4429 -0.2939  0.9148
  286SOL    HW2 1143   1.190   1.604   2.600  2.2654 -1.5929 -2.3270
  286SOL     MW 1144   1.189   1.515   2.601  0.2215 -0.6665 -0.2809
  287SOL     OW 1145   1.096   0.948   0.285 -0.1031 -0.2155 -0.3430
  287SOL    HW1 1146   1.142   0.989   0.364  1.3471  2.0853 -0.7723
  287SOL    HW2 1147   1.028   1.013   0.262 -0.3341  1.5506  3.2237
  287SOL     MW 1148   1.093   0.962   0.292  0.0577  0.3211  0.0710
  288SOL     OW 1149   1.533   0.578   2.103 -0.0890 -0.5185 -0.0182
  288SOL    HW1 1150   1.521   0.612   2.193  0.5796  1.4444  1.0150
  288SOL    HW2 1151   1.574   0.650   2.049  0.7172 -2.3060  0.6687
  288SOL     MW 1152   1.537   0.592   2.108  0.1056 -0.4953  0.2088
  289SOL     OW 1153   0.974   1.044   2.569  0.2056  0.3925 -0.1594
  289SOL    HW1 1154   1.029   0.976   2.533  0.0005 -0.5097  1.5417
  289SOL    HW2 1155   0.884   1.036   2.531  1.3821 -0.5350 -1.6536
  289SOL     MW 1156   0.970   1.034   2.559  0.3338  0.1511 -0.1321
  290SOL     OW 1157   0.831   0.642   1.596 -1.0757  0.1039  0.6559
  290SOL    HW1 1158   0.856   0.594   1.514 -1.7054  1.1215 -0.7569
  290SOL    HW2 1159   0.918   0.661   1.632 -1.9092 -0.0865 -0.3994
  290SOL     MW 1160   0.846   0.638   1.590 -1.2687  0.2131  0.3303
  291SOL     OW 1161   0.216   0.322   0.124 -0.1119  0.4097 -0.6796
  291SOL    HW1 1162   0.273   0.249   0.157  1.3843 -0.5075  3.1016
  291SOL    HW2 1163   0.149   0.270   0.071 -1.8551 -1.4400 -1.7691
  291SOL     MW 1164   0.215   0.306   0.121 -0.1445  0.0446 -0.3245
  292SOL     OW 1165   1.011   0.601   0.096  0.1267 -0.0130 -0.0429
  292SOL    HW1 1166   1.077   0.651   0.137  0.2205  1.4999 -0.1477
  292SOL    HW2 1167   1.037   0.514   0.135  0.5013  0.0298  0.5300
  292SOL     MW 1168   1.023   0.596   0.107  0.1885  0.1922  0.0189
  293SOL     OW 1169   0.184   0.125   2.436  0.2674 -0.1586 -0.1130
  293SOL    HW1 1170   0.109   0.083   2.395 -2.0081  1.7734 -0.0249
  293SOL    HW2 1171   0.156   0.165   2.520 -0.0286  0.6242  0.8191
  293SOL     MW 1172   0.170   0.125   2.442 -0.0719  0.1996  0.0216
  294SOL     OW 1173   1.507   0.650   2.369 -0.5975  0.0860 -0.2101
  294SOL    HW1 1174   1.559   0.702   2.425 -0.5225 -5.4700 -0.6303
  294SOL    HW2 1175   1.502   0.565   2.409  1.7582 -1.3645  1.8797
  294SOL     MW 1176   1.513   0.646   2.382 -0.2768 -0.8385  0.0102
  295SOL     OW 1177   0.922   0.610   2.524 -0.4762 -0.1008 -0.0690
  295SOL    HW1 1178   0.873   0.558   2.466  2.2445 -0.3385 -1.0141
  295SOL    HW2 1179   0.855   0.615   2.597  0.3083  0.2190  2.7266
  295SOL     MW 1180   0.907   0.604   2.526 -0.0137 -0.0900  0.1752
  296SOL     OW 1181   1.302   0.240   2.055  0.0782  0.4029  0.0105
  296SOL    HW1 1182   1.365   0.168   2.039 -0.4251  0.7923  0.1571
  296SOL    HW2 1183   1.267   0.239   2.147  0.9739  2.1991  0.0071
  296SOL     MW 1184   1.306   0.231   2.065  0.1300  0.6912  0.0294
  297SOL     OW 1185   1.403   0.364   1.630 -0.6619  0.0185  0.0674
  297SOL    HW1 1186   1.451   0.442   1.655  1.5856  0.2556  0.6683
  297SOL    HW2 1187   1.462   0.291   1.650  0.5771 -0.9469  0.8805
  297SOL     MW 1188   1.417   0.365   1.636 -0.2019 -0.0776  0.2539
  298SOL     OW 1189   1.644   0.817   1.993  0.5781 -0.6228 -0.1895
  298SOL    HW1 1190   1.617   0.865   1.911 -0.1636 -1.0394 -0.2920
  298SOL    HW2 1191   1.730   0.856   2.010  0.0412  0.5093  2.0275
  298SOL     MW 1192   1.652   0.828   1.984  0.4094 -0.5284  0.0895
  299SOL     OW 1193   0.591   1.098   0.041  0.5810  0.4849 -0.5344
  299SOL    HW1 1194   0.649   1.157  -0.011 -2.3479  1.1594  1.3274
  299SOL    HW2 1195   0.539   1.060  -0.029  0.6919 -0.4749  0.4218
  299SOL     MW 1196   0.592   1.100   0.025  0.2092  0.4473 -0.1626
  300SOL     OW 1197   1.282   1.154   2.557  0.5678 -0.0322 -0.5217
  300SOL    HW1 1198   1.195   1.124   2.583  2.9341  3.2067 -1.0413
  300SOL    HW2 1199   1.299   1.207   2.635 -0.5777 -1.0993  0.8369
  300SOL     MW 1200   1.272   1.157   2.570  0.7289  0.2543 -0.4110
  301SOL     OW 1201   1.436   0.920   0.657  0.2347 -0.5349 -0.2820
  301SOL    HW1 1202   1.434   0.933   0.755  0.2778  0.1186  0.0756
  301SOL    HW2 1203   1.359   0.866   0.635  0.6399  3.8873 -0.3461
  301SOL     MW 1204   1.426   0.914   0.667  0.2939  0.1347 -0.2433
  302SOL     OW 1205   0.144   1.476   2.026 -0.2315 -0.3923  0.2511
  302SOL    HW1 1206   0.162   1.414   2.096 -0.4581  0.3763  2.4421
  302SOL    HW2 1207   0.071   1.535   2.064 -0.7442  1.1612  2.5457
  302SOL     MW 1208   0.137   1.475   2.040 -0.3290 -0.0860  0.8430
  303SOL     OW 1209   0.376   1.720   2.647  0.0742  0.3726 -0.2417
  303SOL    HW1 1210   0.353   1.695   2.560 -0.4907  0.5086 -1.1539
  303SOL    HW2 1211   0.304   1.773   2.671 -1.3873 -1.1714 -1.0719
  303SOL     MW 1212   0.363   1.724   2.639 -0.1932  0.1868 -0.4716
  304SOL     OW 1213   0.580   2.073   2.349 -0.6106 -0.2547  0.0619
  304SOL    HW1 1214   0.643   2.143   2.313 -1.0920 -1.3296 -0.4050
  304SOL    HW2 1215   0.631   2.011   2.402 -1.5234 -1.2613  0.2303
  304SOL     MW 1216   0.595   2.074   2.351 -0.7946 -0.5293  0.0225
  305SOL     OW 1217   1.117   0.592   0.503  0.6427 -0.1977 -0.5719
  305SOL    HW1 1218   1.027   0.593   0.476  0.4265  1.7021  0.9750
  305SOL    HW2 1219   1.136   0.501   0.537 -0.6194 -2.2783  3.9036
  305SOL     MW 1220   1.108   0.580   0.504  0.4477 -0.2216  0.2227
  306SOL     OW 1221   1.189   1.476   0.277 -0.1845  0.1659  0.0551
  306SOL    HW1 1222   1.240   1.401   0.317 -1.4654 -0.9084  1.7140
  306SOL    HW2 1223   1.235   1.502   0.202  1.7033  1.7665 -0.0247
  306SOL     MW 1224   1.201   1.470   0.273 -0.1045  0.2354  0.2635
  307SOL     OW 1225   1.325   0.508   1.942  0.0335  0.4340  0.3951
  307SOL    HW1 1226   1.341   0.421   1.967  0.6905  0.2351  1.6259
  307SOL    HW2 1227   1.399   0.544   1.998  0.5871 -1.4203 -1.1532
  307SOL     MW 1228   1.337   0.501   1.953  0.1933  0.1631  0.3532
  308SOL     OW 1229   2.141   0.559   2.724 -0.0550 -0.4708  0.2108
  308SOL    HW1 1230   2.212   0.526   2.782 -2.3834 -0.1610 -1.0785
  308SOL    HW2 1231   2.151   0.651   2.737  1.4453 -0.0038  0.2037
  308SOL     MW 1232   2.151   0.566   2.733 -0.1642 -0.3683  0.0397
  309SOL     OW 1233   0.447   0.390   0.370  0.0231  1.0415  0.0142
  309SOL    HW1 1234   0.527   0.377   0.422 -2.8753  0.1247  2.9969
  309SOL    HW2 1235   0.423   0.303   0.343 -0.0668  1.2983  2.8820
  309SOL     MW 1236   0.454   0.377   0.374 -0.3712  0.9544  0.7861
  310SOL     OW 1237   0.506   0.633   1.940 -0.0631 -0.2212  0.0180
  310SOL    HW1 1238   0.546   0.549   1.905 -0.1869  2.8288 -1.0106
  310SOL    HW2 1239   0.568   0.696   1.916 -0.1474 -2.3281 -0.0952
  310SOL     MW 1240   0.519   0.630   1.933 -0.0906 -0.0967 -0.1326
  311SOL     OW 1241   1.937   0.697   1.894 -0.2558  0.1662 -0.0485
  311SOL    HW1 1242   1.911   0.711   1.983 -0.0380  0.4478  0.5930
  311SOL    HW2 1243   1.993   0.615   1.891  0.1882 -2.6604  0.5994
  311SOL     MW 1244   1.941   0.688   1.906 -0.1685 -0.1696  0.1216
  312SOL     OW 1245   1.754   2.564   0.117  1.0038  0.2494  0.0753
  312SOL    HW1 1246   1.832   2.559   0.180  1.4494 -2.5636 -1.7308
  312SOL    HW2 1247   1.668   2.586   0.165 -1.0226  2.6136  1.9206
  312SOL     MW 1248   1.753   2.566   0.132  0.7952  0.1902  0.0805
  313SOL     OW 1249   0.085   1.161   2.983  0.0463 -0.7480  0.2797
  313SOL    HW1 1250   0.090   1.141   3.077 -0.5716 -3.0769 -1.0081
  313SOL    HW2 1251   0.160   1.208   2.960 -0.3993 -0.1936  0.3705
  313SOL     MW 1252   0.095   1.164   2.992 -0.0940 -0.9821  0.1218
  314SOL     OW 1253   2.141   2.943   2.993  0.3237 -0.3437 -0.3379
  314SOL    HW1 1254   2.095   3.005   2.935  2.1124  0.8242  0.9613
  314SOL    HW2 1255   2.195   3.016   3.024 -0.0835 -0.5009  0.9691
  314SOL     MW 1256   2.142   2.961   2.989  0.5060 -0.2104  0.0060
  315SOL     OW 1257   1.518   1.975   3.091  0.1697  0.0487  0.3329
  315SOL    HW1 1258   1.451   2.033   3.121  0.4641 -1.3307 -1.3181
  315SOL    HW2 1259   1.548   2.020   3.015  0.8486 -1.9073  2.9686
  315SOL     MW 1260   1.513   1.988   3.085  0.2981 -0.3914  0.4628
  316SOL     OW 1261   1.286   0.680   2.713  0.0180  0.0974 -0.1687
  316SOL    HW1 1262   1.363   0.728   2.678  2.3442 -1.4111  1.2757
  316SOL    HW2 1263   1.286   0.690   2.806  1.9373  1.4604  1.0996
  316SOL     MW 1264   1.296   0.688   2.720  0.5782  0.0782  0.1892
  317SOL     OW 1265   0.731   1.465   2.583 -0.2645 -0.5645 -0.3108
  317SOL    HW1 1266   0.799   1.394   2.593  0.1998 -0.0200  1.5535
  317SOL    HW2 1267   0.730   1.500   2.489 -0.3582  0.8825 -0.7130
  317SOL     MW 1268   0.740   1.460   2.572 -0.2156 -0.3017 -0.1179
  318SOL     OW 1269   1.339   0.361   2.898 -1.2644 -0.0907  0.1160
  318SOL    HW1 1270   1.242   0.392   2.903  0.0909 -0.3672  0.3270
  318SOL    HW2 1271   1.399   0.436   2.925  1.1830 -2.8093 -0.1357
  318SOL     MW 1272   1.334   0.375   2.902 -0.7627 -0.4859  0.1106
  319SOL     OW 1273   0.777   0.413   2.858  0.1072  0.1380  0.3682
  319SOL    HW1 1274   0.724   0.351   2.810  1.3435  1.4161  0.7662
  319SOL    HW2 1275   0.741   0.405   2.950 -0.2841 -0.2160 -1.8517
  319SOL     MW 1276   0.765   0.404   2.864  0.2187  0.2599  0.1278
  320SOL     OW 1277   1.090   1.345   1.945  0.2524  0.0499  0.2096
  320SOL    HW1 1278   1.145   1.299   2.008  0.9662  0.5269 -0.1131
  320SOL    HW2 1279   1.138   1.416   1.901 -2.6724  1.5101 -1.8702
  320SOL     MW 1280   1.104   1.349   1.948 -0.0393  0.3055 -0.1074
  321SOL     OW 1281   1.102   0.912   3.016 -0.0553 -0.3454  0.0388
  321SOL    HW1 1282   1.050   0.892   2.940  3.4292  1.2939 -2.8611
  321SOL    HW2 1283   1.169   0.844   3.022 -0.9337 -1.1781  2.5030
  321SOL     MW 1284   1.104   0.900   3.007  0.2885 -0.2390 -0.0187
  322SOL     OW 1285   1.290   0.838   1.696 -0.1121  0.2132 -0.5419
  322SOL    HW1 1286   1.357   0.770   1.727 -0.6899  1.3454  0.6167
  322SOL    HW2 1287   1.268   0.876   1.783  0.1890  0.9147 -0.1384
  322SOL     MW 1288   1.296   0.834   1.712 -0.1486  0.4552 -0.3358
  323SOL     OW 1289   1.250   1.556   1.909 -0.3776 -0.1321  0.2621
  323SOL    HW1 1290   1.303   1.529   1.830  2.1747 -1.5615  0.0987
  323SOL    HW2 1291   1.183   1.625   1.879 -1.8827 -2.4554 -1.3438
  323SOL     MW 1292   1.248   1.562   1.894 -0.2394 -0.6272  0.0287
  324SOL     OW 1293   1.499   0.959   2.405 -0.2231  0.0706  0.5207
  324SOL    HW1 1294   1.421   1.008   2.429  4.9570 -2.4803 -1.5544
  324SOL    HW2 1295   1.562   1.025   2.437 -1.4145 -1.6023  2.3144
  324SOL     MW 1296   1.497   0.974   2.413  0.3032 -0.4867  0.4836
  325SOL     OW 1297   1.074   0.418   2.951  0.4888 -0.4966  0.6557
  325SOL    HW1 1298   1.060   0.472   3.029 -1.5937 -1.5952  0.6916
  325SOL    HW2 1299   0.990   0.443   2.906 -1.6749  1.4449 -2.8419
  325SOL     MW 1300   1.061   0.429   2.955 -0.0715 -0.3854  0.1990
  326SOL     OW 1301   0.459   1.368   2.217  0.5819  0.2072  0.2400
  326SOL    HW1 1302   0.530   1.321   2.174  1.6655 -0.3321 -0.4789
  326SOL    HW2 1303   0.485   1.464   2.217  2.2894  1.4139 -1.5191
  326SOL     MW 1304   0.472   1.374   2.212  0.9501  0.2952 -0.0869
  327SOL     OW 1305   1.930   0.796   2.427 -0.0460 -0.1785 -0.1288
  327SOL    HW1 1306   1.922   0.755   2.513  1.8105 -0.4015 -2.0519
  327SOL    HW2 1307   2.020   0.835   2.422  1.1526 -0.1019 -0.3741
  327SOL     MW 1308   1.941   0.796   2.437  0.3571 -0.1978 -0.4149
  328SOL     OW 1309   0.155   1.287   2.205  0.0429  0.7580 -0.2305
  328SOL    HW1 1310   0.127   1.211   2.150 -0.7971  1.5619  0.0843
  328SOL    HW2 1311   0.247   1.276   2.224 -2.9856  0.7968 -0.5283
  328SOL     MW 1312   0.163   1.275   2.200 -0.4675  0.8692 -0.2283
  329SOL     OW 1313   0.145   0.163   1.316  0.8227  1.4492 -0.2269
  329SOL    HW1 1314   0.089   0.187   1.390  1.0551 -0.6588 -0.2769
  329SOL    HW2 1315   0.230   0.197   1.320 -0.3037 -2.4106  0.4110
  329SOL     MW 1316   0.149   0.171   1.327  0.7048  0.6618 -0.1494
  330SOL     OW 1317   0.363   3.088   2.050  0.8363  0.5895  0.0665
  330SOL    HW1 1318   0.452   3.085   2.088  3.3237 -0.7055  1.4686
  330SOL    HW2 1319   0.305   3.045   2.116 -1.6581 -3.5269  0.8741
  330SOL     MW 1320   0.367   3.082   2.064  0.8354 -0.1245  0.3580
  331SOL     OW 1321   0.871   1.206   2.287  0.1082  0.6217 -0.3307
  331SOL    HW1 1322   0.835   1.226   2.198 -3.1309 -1.1815 -2.3224
  331SOL    HW2 1323   0.867   1.286   2.340  1.5972  2.6556  2.4660
  331SOL     MW 1324   0.866   1.219   2.283 -0.1227  0.6521 -0.2245
  332SOL     OW 1325   1.326   1.772   3.042  0.0393 -0.1789 -0.4145
  332SOL    HW1 1326   1.374   1.777   2.959  0.9550  0.4092 -1.1217
  332SOL    HW2 1327   1.380   1.839   3.091  1.1025  3.1762 -1.6167
  332SOL     MW 1328   1.340   1.782   3.037  0.3004  0.3414 -0.6664
  333SOL     OW 1329   1.744   1.393   2.944  0.1259 -0.0814  0.8270
  333SOL    HW1 1330   1.843   1.377   2.959  0.9422 -1.7327  1.0991
  333SOL    HW2 1331   1.700   1.364   3.019  1.4292  0.7508  1.8731
  333SOL     MW 1332   1.751   1.387   2.956  0.4056 -0.1894  1.0010
  334SOL     OW 1333   1.397  -0.003   2.628  0.1287  0.0598 -0.0916
  334SOL    HW1 1334   1.303  -0.015   2.639  1.9545  0.1818 -2.8266
  334SOL    HW2 1335   1.412   0.090   2.638 -1.9046 -0.3385 -0.8939
  334SOL     MW 1336   1.386   0.008   2.631  0.1013  0.0234 -0.5583
  335SOL     OW 1337   1.350   0.776   2.990  0.3961 -0.5249 -0.0964
  335SOL    HW1 1338   1.414   0.751   3.057  1.5034  2.2906 -1.1005
  335SOL    HW2 1339   1.387   0.845   2.939  0.0475  1.3227 -0.6735
  335SOL     MW 1340   1.363   0.782   2.992  0.4962  0.0904 -0.3050
  336SOL     OW 1341   0.955   1.054   1.980 -0.0944  0.1107 -0.1263
  336SOL    HW1 1342   0.960   1.145   1.983  1.3513 -1.7358  0.5752
  336SOL    HW2 1343   1.043   1.028   2.007  0.9733  2.5090  1.5856
  336SOL     MW 1344   0.967   1.062   1.984  0.2373  0.1835  0.1921
  337SOL     OW 1345   0.605   1.810   2.771  0.3232  0.3618  0.2765
  337SOL    HW1 1346   0.523   1.803   2.715  1.5151  0.0279  0.8664
  337SOL    HW2 1347   0.668   1.757   2.725 -1.9780 -2.4520 -1.8898
  337SOL     MW 1348   0.602   1.802   2.758  0.1769 -0.0535  0.0685
  338SOL     OW 1349   1.120   0.794   2.509  0.1553 -0.1122 -0.3987
  338SOL    HW1 1350   1.036   0.740   2.513 -0.8915 -1.5257  1.6722
  338SOL    HW2 1351   1.168   0.754   2.588 -0.8846 -1.3945  2.3742
  338SOL     MW 1352   1.115   0.782   2.520 -0.1200 -0.4679  0.2404
  339SOL     OW 1353   1.535   1.020   1.808 -0.3513  0.2427  0.0192
  339SOL    HW1 1354   1.456   1.028   1.755  0.3295  0.5347  0.9634
  339SOL    HW2 1355   1.514   1.082   1.881  0.5134  1.6272  0.2744
  339SOL     MW 1356   1.521   1.029   1.811 -0.1474  0.4639  0.1774
  340SOL     OW 1357   1.361   1.493   0.066 -0.4436  0.6287  0.4929
  340SOL    HW1 1358   1.352   1.582   0.047 -2.9864  0.1074  0.8924
  340SOL    HW2 1359   1.449   1.473   0.082 -0.8115  1.8884  0.8999
  340SOL     MW 1360   1.371   1.502   0.065 -0.8276  0.7261  0.5993
  341SOL     OW 1361   0.150   1.428   2.709 -0.1414 -0.4937  0.5521
  341SOL    HW1 1362   0.229   1.370   2.703  2.4213  0.7533  0.3778
  341SOL    HW2 1363   0.081   1.386   2.657 -0.5985  0.0899 -0.6882
  341SOL     MW 1364   0.151   1.415   2.701  0.1364 -0.2522  0.3655
  342SOL     OW 1365   1.293   0.343   0.090 -0.3335  0.3269  0.1490
  342SOL    HW1 1366   1.354   0.403   0.129  1.4183 -0.3716 -0.9788
  342SOL    HW2 1367   1.307   0.344  -0.006  0.5083  1.2810  0.2699
  342SOL     MW 1368   1.303   0.351   0.082  0.0087  0.3606  0.0162
  343SOL     OW 1369   0.225   0.310   2.150  0.1530 -0.2652 -0.0735
  343SOL    HW1 1370   0.291   0.263   2.108 -2.0150 -1.7395  0.7121
  343SOL    HW2 1371   0.145   0.266   2.116 -1.8766 -1.7236  2.2836
  343SOL     MW 1372   0.223   0.298   2.140 -0.4009 -0.6521  0.3411
  344SOL     OW 1373   1.702   2.072   0.189  0.2108 -0.0571 -0.1757
  344SOL    HW1 1374   1.719   2.162   0.156  0.3547  0.7087 -0.8340
  344SOL    HW2 1375   1.656   2.026   0.113 -0.9280  1.3659 -0.1325
  344SOL     MW 1376   1.698   2.078   0.175  0.0796  0.2317 -0.2569
  345SOL     OW 1377   0.749   1.590   2.355  0.3327  0.2025  0.4120
  345SOL    HW1 1378   0.674   1.614   2.301  0.4486 -1.2713  0.4915
  345SOL    HW2 1379   0.822   1.550   2.309 -2.1781 -0.6733  0.9097
  345SOL     MW 1380   0.749   1.588   2.342  0.0167 -0.1075  0.4881
  346SOL     OW 1381   1.774   1.062   3.092  0.1463 -0.4346  0.5305
  346SOL    HW1 1382   1.847   1.122   3.119 -2.0697  2.9744 -0.1410
  346SOL    HW2 1383   1.731   1.030   3.169 -1.4581 -1.4993 -1.4475
  346SOL     MW 1384   1.778   1.066   3.106 -0.3578 -0.1253  0.1809
  347SOL     OW 1385   1.275   0.740   2.297 -0.5970 -0.4294 -0.2506
  347SOL    HW1 1386   1.360   0.708   2.326  0.6625  0.4645  1.2152
  347SOL    HW2 1387   1.222   0.752   2.380  0.7351  1.1699  1.4914
  347SOL     MW 1388   1.279   0.738   2.312 -0.2551 -0.1004  0.1727
  348SOL     OW 1389   1.431   2.668   1.892  0.1137  0.0368  0.1995
  348SOL    HW1 1390   1.451   2.579   1.913 -0.9312  1.6913  0.8691
  348SOL    HW2 1391   1.475   2.723   1.960 -1.3136  1.8850  0.9819
  348SOL     MW 1392   1.439   2.664   1.904 -0.2125  0.4989  0.3911
  349SOL     OW 1393   1.504   0.283   2.693 -0.2599  0.2240  0.2884
  349SOL    HW1 1394   1.441   0.304   2.763 -1.1948 -0.1659 -2.0213
  349SOL    HW2 1395   1.588   0.303   2.728  2.2861 -1.6495 -2.3411
  349SOL     MW 1396   1.507   0.288   2.707 -0.0473 -0.0746 -0.3633
  350SOL     OW 1397   1.885   0.627   2.681 -0.1952  0.5850  0.2066
  350SOL    HW1 1398   1.829   0.565   2.636 -2.7695 -1.6741  1.0107
  350SOL    HW2 1399   1.969   0.583   2.696 -2.7115  1.8407  3.8982
  350SOL     MW 1400   1.888   0.613   2.677 -0.8669  0.4526  0.7998
  351SOL     OW 1401   0.049   0.972   1.489  0.0377  0.9433 -0.1255
  351SOL    HW1 1402  -0.028   0.995   1.547 -0.2133  0.0765 -0.7189
  351SOL    HW2 1403   0.115   1.032   1.522  2.2153 -2.4821 -3.8074
  351SOL     MW 1404   0.048   0.983   1.501  0.2919  0.3770 -0.6896
  352SOL     OW 1405   0.826   1.689   2.723 -0.2454 -0.0927 -0.6325
  352SOL    HW1 1406   0.870   1.649   2.801  1.2176 -1.2776  0.6473
  352SOL    HW2 1407   0.792   1.618   2.668 -0.0009  1.4810  2.9239
  352SOL     MW 1408   0.827   1.675   2.726 -0.0201 -0.0414  0.0056
  353SOL     OW 1409   3.071   2.488   2.647 -0.0036 -0.4217 -0.3217
  353SOL    HW1 1410   3.162   2.499   2.617 -2.3332  0.0705 -1.1185
  353SOL    HW2 1411   3.030   2.569   2.626  0.7587  1.0013  0.5991
  353SOL     MW 1412   3.078   2.500   2.640 -0.2104 -0.1690 -0.3053
  354SOL     OW 1413   0.296   2.532   0.822 -0.8907 -0.2465 -0.4198
  354SOL    HW1 1414   0.339   2.508   0.902  0.4347 -0.2226 -0.2735
  354SOL    HW2 1415   0.229   2.464   0.803 -1.6523 -0.6037 -1.1025
  354SOL     MW 1416   0.293   2.520   0.830 -0.8163 -0.2905 -0.4906
  355SOL     OW 1417   0.055   2.278   0.386  0.6402 -0.1458  0.0270
  355SOL    HW1 1418  -0.023   2.222   0.376  1.1103  0.6343  0.8270
  355SOL    HW2 1419   0.026   2.332   0.459  2.7302  1.2964  0.2572
  355SOL     MW 1420   0.041   2.278   0.395  0.9779  0.1474  0.1629
  356SOL     OW 1421   0.804   2.836   0.980 -0.2523 -0.7510 -0.1874
  356SOL    HW1 1422   0.830   2.830   0.887  1.1811 -1.7168 -0.8411
  356SOL    HW2 1423   0.710   2.815   0.993  1.8032  1.0155 -1.0297
  356SOL     MW 1424   0.795   2.832   0.970  0.2080 -0.6453 -0.3848
  357SOL     OW 1425   1.793   2.933   0.423 -0.1527  0.1987 -0.3531
  357SOL    HW1 1426   1.745   2.859   0.467  0.4978 -1.7912 -0.1449
  357SOL    HW2 1427   1.868   2.882   0.382  1.8000 -5.5417  1.4311
  357SOL     MW 1428   1.797   2.917   0.424  0.1908 -0.8212 -0.0902
  358SOL     OW 1429   0.491   0.121   1.107 -0.6425  0.2695  0.1904
  358SOL    HW1 1430   0.572   0.077   1.087 -1.0279 -0.7153 -0.2493
  358SOL    HW2 1431   0.455   0.156   1.020  0.5326 -0.5764  2.1491
  358SOL     MW 1432   0.497   0.120   1.093 -0.5383  0.0279  0.3908
  359SOL     OW 1433   0.884   2.945   1.852 -0.2473  0.4619 -0.0047
  359SOL    HW1 1434   0.879   2.847   1.863  0.1024  1.3085 -0.4608
  359SOL    HW2 1435   0.935   2.941   1.774 -2.1378  0.2107  1.2794
  359SOL     MW 1436   0.890   2.932   1.843 -0.4506  0.5404  0.1046
  360SOL     OW 1437   0.533   2.740   0.978 -0.0357  0.1304 -0.4856
  360SOL    HW1 1438   0.536   2.694   0.892  0.1598 -2.5308 -2.4211
  360SOL    HW2 1439   0.540   2.671   1.047 -2.4302 -2.0312  0.6560
  360SOL     MW 1440   0.534   2.725   0.976 -0.3258 -0.5059 -0.5903
  361SOL     OW 1441   0.162   2.691   1.323 -0.6099 -0.1723 -0.1400
  361SOL    HW1 1442   0.121   2.750   1.388 -0.7326 -1.1866  0.1699
  361SOL    HW2 1443   0.260   2.694   1.336 -1.8079  1.8402 -0.4624
  361SOL     MW 1444   0.170   2.699   1.333 -0.7841 -0.0406 -0.1417
  362SOL     OW 1445   1.478   2.443   0.617  0.0169 -0.1680 -0.4391
  362SOL    HW1 1446   1.506   2.367   0.668 -0.1070  1.1936  0.9834
  362SOL    HW2 1447   1.521   2.518   0.663  1.4117  0.2808  1.8931
  362SOL     MW 1448   1.487   2.443   0.630  0.1846  0.0709  0.0563
  363SOL     OW 1449   0.309   3.072   0.706  0.4030  0.1001 -0.6102
  363SOL    HW1 1450   0.309   3.007   0.781 -0.0654 -0.5703  0.0619
  363SOL    HW2 1451   0.223   3.071   0.670 -0.1963 -0.3053  0.9201
  363SOL     MW 1452   0.297   3.063   0.711  0.2622 -0.0419 -0.3196
  364SOL     OW 1453   0.682   0.167   0.219 -0.1652  0.0612 -0.3529
  364SOL    HW1 1454   0.624   0.099   0.262 -1.1698 -2.0434  1.3937
  364SOL    HW2 1455   0.629   0.225   0.164  0.4585 -0.4781  0.4954
  364SOL     MW 1456   0.668   0.166   0.217 -0.2155 -0.2876 -0.0105
  365SOL     OW 1457   0.970   1.973   1.075 -0.3849  0.5927  0.3777
  365SOL    HW1 1458   0.950   2.057   1.041  1.3512 -2.6173  0.5810
  365SOL    HW2 1459   0.902   1.917   1.031 -1.2279  0.0104  0.8538
  365SOL     MW 1460   0.958   1.977   1.065 -0.2671  0.0924  0.4674
  366SOL     OW 1461   2.830   2.629   1.012 -0.0930  0.1320 -0.5088
  366SOL    HW1 1462   2.902   2.652   1.080  0.1799  0.5235  1.4275
  366SOL    HW2 1463   2.878   2.662   0.941  0.6618  0.4197  1.1251
  366SOL     MW 1464   2.846   2.636   1.011  0.0426  0.2216 -0.0377
  367SOL     OW 1465   1.252   2.936   0.893  0.1676  0.1252 -0.8429
  367SOL    HW1 1466   1.270   3.027   0.858 -0.3096  0.5977 -1.1422
  367SOL    HW2 1467   1.220   2.887   0.815  1.2723 -1.3294  0.8027
  367SOL     MW 1468   1.250   2.942   0.878  0.2504 -0.0044 -0.6653
  368SOL     OW 1469   1.641   0.403   0.690  0.4183  0.3405  0.3362
  368SOL    HW1 1470   1.725   0.360   0.662  1.0167 -0.3868 -2.1103
  368SOL    HW2 1471   1.663   0.499   0.688  0.2514 -2.4377  0.0846
  368SOL     MW 1472   1.655   0.410   0.686  0.4753 -0.1220 -0.0198
  369SOL     OW 1473   0.132   2.526   1.652 -0.4753 -0.1371  0.2572
  369SOL    HW1 1474   0.227   2.505   1.658  0.0577 -0.4647 -0.4408
  369SOL    HW2 1475   0.112   2.596   1.706 -1.1570 -3.7691 -2.9174
  369SOL     MW 1476   0.142   2.533   1.660 -0.4949 -0.6595 -0.2537
  370SOL     OW 1477   0.745   0.062   0.936 -0.1086  0.8758  0.6101
  370SOL    HW1 1478   0.820   0.120   0.942  0.1314 -0.6972  2.0971
  370SOL    HW2 1479   0.768  -0.032   0.924 -0.8502 -1.0810 -0.1583
  370SOL     MW 1480   0.758   0.057   0.935 -0.1748  0.4101  0.7049
  371SOL     OW 1481   1.334   2.941   1.496  0.0434 -0.0064 -0.2953
  371SOL    HW1 1482   1.273   2.886   1.444 -1.0492  1.7167 -0.7344
  371SOL    HW2 1483   1.333   3.029   1.444 -1.5088  1.8622  0.5593
  371SOL     MW 1484   1.326   2.945   1.482 -0.3056  0.4675 -0.2405
  372SOL     OW 1485   0.767   2.330   0.472 -0.3824 -0.5798  0.7735
  372SOL    HW1 1486   0.752   2.240   0.501 -4.2977 -0.2418 -1.6434
  372SOL    HW2 1487   0.804   2.320   0.385  0.4034 -2.3419 -0.9649
  372SOL     MW 1488   0.770   2.317   0.464 -0.7953 -0.7677  0.2252
  373SOL     OW 1489   2.748   3.042   1.443  0.0065 -0.2492 -0.1097
  373SOL    HW1 1490   2.822   3.015   1.395 -1.7472  0.6633 -0.6900
  373SOL    HW2 1491   2.720   3.124   1.403 -0.6094 -1.5616  0.5990
  373SOL     MW 1492   2.754   3.049   1.432 -0.3061 -0.3020 -0.0928
  374SOL     OW 1493   1.507   0.448   0.212 -0.5986  0.3860 -0.5003
  374SOL    HW1 1494   1.561   0.387   0.164 -1.4511  1.2383  1.9946
  374SOL    HW2 1495   1.503   0.428   0.305 -0.6661 -0.2370  0.8128
  374SOL     MW 1496   1.513   0.438   0.218 -0.7200  0.4162  0.0021
  375SOL     OW 1497   1.038   2.079   2.298 -0.5167 -0.1437  0.7767
  375SOL    HW1 1498   1.108   2.057   2.351  0.0691  0.7346 -1.8235
  375SOL    HW2 1499   1.057   2.037   2.216 -0.6102  1.6311  1.3204
  375SOL     MW 1500   1.050   2.071   2.294 -0.4518  0.2063  0.5053
  376SOL     OW 1501   0.625   2.582   0.061  0.0905  0.2405 -0.0398
  376SOL    HW1 1502   0.589   2.547   0.153  5.2412  0.2576 -0.2744
  376SOL    HW2 1503   0.632   2.507   0.005  1.6068  2.5757  2.0855
  376SOL     MW 1504   0.621   2.567   0.065  0.9701  0.5509  0.2097
  377SOL     OW 1505   1.297   2.010   0.849 -0.3854  0.2532  0.8649
  377SOL    HW1 1506   1.217   1.983   0.801  0.5406  0.4248  0.2800
  377SOL    HW2 1507   1.314   1.935   0.910 -0.5791 -1.3711 -0.4957
  377SOL     MW 1508   1.289   1.996   0.851 -0.2888  0.0616  0.6082
  378SOL     OW 1509   1.011   2.803   1.639 -0.4685 -0.3120  0.3058
  378SOL    HW1 1510   0.954   2.723   1.647 -1.8133  0.7991 -2.6851
  378SOL    HW2 1511   0.973   2.846   1.563 -0.3207  0.4067 -0.8662
  378SOL     MW 1512   0.998   2.798   1.630 -0.6264 -0.0705 -0.2435
  379SOL     OW 1513   1.153   1.776   2.264  0.0601 -0.1206  0.1645
  379SOL    HW1 1514   1.064   1.807   2.253  0.0298  1.7123 -1.8741
  379SOL    HW2 1515   1.160   1.684   2.232  1.5436 -0.0398  0.8124
  379SOL     MW 1516   1.142   1.768   2.258  0.2519  0.1319 -0.0190
  380SOL     OW 1517   0.772   0.054   1.572 -0.2850  0.0155 -0.0845
  380SOL    HW1 1518   0.781   0.067   1.479 -3.0163  1.1706 -2.1228
  380SOL    HW2 1519   0.857   0.077   1.612  1.5361  1.2891 -0.0458
  380SOL     MW 1520   0.785   0.058   1.565 -0.4051  0.3359 -0.3483
  381SOL     OW 1521   0.819   2.052   0.763 -0.2330  0.1409 -0.1694
  381SOL    HW1 1522   0.912   2.026   0.748 -1.4180  0.5109  0.2503
  381SOL    HW2 1523   0.819   2.129   0.818  0.1368 -0.6701  1.9363
  381SOL     MW 1524   0.831   2.059   0.768 -0.3405  0.0827  0.1638
  382SOL     OW 1525   0.618   0.109   0.689  0.4009  0.1682 -0.0810
  382SOL    HW1 1526   0.639   0.125   0.790 -0.1655  1.2765  1.9827
  382SOL    HW2 1527   0.606   0.013   0.675 -1.0425  1.9473  1.6326
  382SOL     MW 1528   0.619   0.098   0.701  0.1357  0.5492  0.4174
  383SOL     OW 1529   0.569   3.057   0.337 -0.0487 -0.1783 -0.6286
  383SOL    HW1 1530   0.589   3.007   0.261  3.5019  1.2198 -0.6407
  383SOL    HW2 1531   0.491   3.017   0.372  2.7140  1.2810 -1.8243
  383SOL     MW 1532   0.562   3.045   0.332  0.7843  0.1987 -0.7880
  384SOL     OW 1533   0.623   2.945   0.627  0.4407 -0.4519 -0.3474
  384SOL    HW1 1534   0.694   2.898   0.672  4.4765 -0.0301 -1.9312
  384SOL    HW2 1535   0.542   2.896   0.636 -0.9408 -1.2787 -1.6815
  384SOL     MW 1536   0.621   2.933   0.634  0.7909 -0.5054 -0.7324
  385SOL     OW 1537   1.336   2.090   1.514  0.0963  0.5640  0.3854
  385SOL    HW1 1538   1.415   2.113   1.571  1.4501  1.1029  0.8098
  385SOL    HW2 1539   1.281   2.027   1.557  3.5984  0.5065  2.3440
  385SOL     MW 1540   1.339   2.085   1.527  0.7370  0.6275  0.6998
  386SOL     OW 1541   1.296   0.363   0.840  0.2430  0.1722  0.4818
  386SOL    HW1 1542   1.226   0.425   0.863 -2.7409  0.4052 -0.4650
  386SOL    HW2 1543   1.329   0.314   0.913  0.9980 -0.2370  2.1056
  386SOL     MW 1544   1.291   0.365   0.853 -0.0511  0.1489  0.5711
  387SOL     OW 1545   0.872   2.167   1.485 -0.4369  0.1915  0.0054
  387SOL    HW1 1546   0.941   2.224   1.451 -0.1813 -0.7161  0.4374
  387SOL    HW2 1547   0.877   2.090   1.431 -0.1357  1.0936  2.0368
  387SOL     MW 1548   0.882   2.164   1.474 -0.3634  0.1908  0.3304
  388SOL     OW 1549   1.567   2.814   1.228 -0.1784 -0.1592  0.6356
  388SOL    HW1 1550   1.484   2.786   1.191  1.8439 -0.0162  1.0137
  388SOL    HW2 1551   1.619   2.749   1.187 -1.1403  0.2700  0.2497
  388SOL     MW 1552   1.563   2.802   1.218 -0.0385 -0.0837  0.6346
  389SOL     OW 1553   0.464   0.049   3.039  0.1175  0.1525  0.5549
  389SOL    HW1 1554   0.556   0.056   2.997 -1.1961 -0.1843 -0.6049
  389SOL    HW2 1555   0.394   0.062   2.972 -1.6629  2.4132 -0.3093
  389SOL     MW 1556   0.467   0.052   3.025 -0.2907  0.4064  0.2878
  390SOL     OW 1557   1.282   0.097   0.651  0.2115 -0.0041  0.1396
  390SOL    HW1 1558   1.356   0.091   0.593  0.1736 -1.6401  0.0961
  390SOL    HW2 1559   1.330   0.118   0.734 -2.8008  1.2906  0.2648
  390SOL     MW 1560   1.298   0.099   0.654 -0.1909 -0.0491  0.1504
  391SOL     OW 1561   0.310   2.193   1.389  0.1381 -0.3072  0.1777
  391SOL    HW1 1562   0.276   2.095   1.398  0.4866 -1.2476  0.3693
  391SOL    HW2 1563   0.225   2.237   1.376 -0.5528  0.4009  2.1354
  391SOL     MW 1564   0.295   2.186   1.389  0.0929 -0.3379  0.4612
  392SOL     OW 1565   2.054   2.182   0.364  0.3413 -0.2880 -0.2206
  392SOL    HW1 1566   2.128   2.162   0.421  3.0027  1.0543 -1.3077
  392SOL    HW2 1567   2.004   2.248   0.405 -0.8136 -0.8813 -2.5414
  392SOL     MW 1568   2.057   2.188   0.377  0.5401 -0.1892 -0.6703
  393SOL     OW 1569   0.147   3.048   2.748 -0.0817 -0.4891  0.4392
  393SOL    HW1 1570   0.243   3.049   2.736  2.4366 -3.6084 -2.7809
  393SOL    HW2 1571   0.120   3.139   2.766  0.0697 -1.3273 -2.3709
  393SOL     MW 1572   0.156   3.060   2.749  0.2706 -1.0112 -0.3564
  394SOL     OW 1573   0.909   1.739   1.534 -0.7451  0.5147  0.5220
  394SOL    HW1 1574   0.862   1.775   1.609  0.0874  1.1481 -2.8119
  394SOL    HW2 1575   0.914   1.811   1.473 -0.4113  1.1960  0.5258
  394SOL     MW 1576   0.904   1.754   1.536 -0.5912  0.6882  0.0826
  395SOL     OW 1577   1.034   2.801   2.591 -0.0606 -0.2408 -0.0455
  395SOL    HW1 1578   1.101   2.857   2.562  0.8227  2.0321  2.8310
  395SOL    HW2 1579   1.061   2.716   2.560 -0.6465  0.6461 -1.0012
  395SOL     MW 1580   1.046   2.797   2.583 -0.0213  0.1761  0.2079
  396SOL     OW 1581   0.751   1.864   2.392 -0.7438 -0.1295 -0.1259
  396SOL    HW1 1582   0.816   1.873   2.465 -0.5136  0.4772 -1.2321
  396SOL    HW2 1583   0.751   1.764   2.381  0.1307 -3.2592  3.2834
  396SOL     MW 1584   0.760   1.852   2.400 -0.5981 -0.4624  0.1780
  397SOL     OW 1585   1.008   2.320   1.247  0.2606 -0.1852 -0.0275
  397SOL    HW1 1586   1.034   2.374   1.165 -1.7524 -0.2355  0.1751
  397SOL    HW2 1587   1.087   2.320   1.308  0.8924  0.9430 -1.1303
  397SOL     MW 1588   1.022   2.327   1.244  0.0784 -0.0430 -0.1463
  398SOL     OW 1589   0.533   2.677   0.725 -0.3280 -0.3551 -0.1297
  398SOL    HW1 1590   0.451   2.632   0.697  1.5017 -0.4763  0.9932
  398SOL    HW2 1591   0.610   2.632   0.680  2.2720  0.5833  0.0378
  398SOL     MW 1592   0.533   2.665   0.715  0.2565 -0.2473  0.0406
  399SOL     OW 1593   0.243   2.086   0.381 -0.0452 -0.6245  0.1513
  399SOL    HW1 1594   0.175   2.150   0.384  1.3236  2.6694 -1.5998
  399SOL    HW2 1595   0.311   2.129   0.334 -0.4801  3.2662  1.0274
  399SOL     MW 1596   0.243   2.100   0.375  0.0780  0.3234  0.0359
  400SOL     OW 1597   0.546   1.902   0.175 -0.8028 -0.2436  0.4403
  400SOL    HW1 1598   0.485   1.960   0.221 -1.6624  0.4398  1.2244
  400SOL    HW2 1599   0.523   1.824   0.229  0.0388 -0.0666  0.1396
  400SOL     MW 1600   0.535   1.899   0.188 -0.8052 -0.1301  0.5041
  401SOL     OW 1601   0.767   2.007   0.119  0.3170  0.2040 -0.2081
  401SOL    HW1 1602   0.831   1.933   0.097  1.0238 -2.9242  0.9785
  401SOL    HW2 1603   0.675   1.965   0.127 -0.7360 -0.2019 -0.1395
  401SOL     MW 1604   0.763   1.992   0.117  0.2713 -0.2623 -0.0425
  402SOL     OW 1605   0.621   3.019   1.749 -0.0587 -0.1839  0.7197
  402SOL    HW1 1606   0.708   3.006   1.789  0.1108  1.7845 -2.4469
  402SOL    HW2 1607   0.642   3.077   1.671 -1.3087 -2.2167 -0.1880
  402SOL     MW 1608   0.635   3.025   1.744 -0.2013 -0.1924  0.1822
  403SOL     OW 1609   0.108   0.419   0.375  0.4922  0.1522  0.1790
  403SOL    HW1 1610   0.180   0.450   0.428  0.7380  0.4713  1.7000
  403SOL    HW2 1611   0.144   0.396   0.288 -2.2039 -1.1729 -0.4893
  403SOL     MW 1612   0.123   0.420   0.371  0.1689  0.0195  0.2915
  404SOL     OW 1613   0.877   2.867   0.704  0.1505  0.7045 -0.2600
  404SOL    HW1 1614   0.933   2.808   0.652 -1.8531 -0.2032  0.9293
  404SOL    HW2 1615   0.915   2.956   0.701  0.9545  0.2108  1.6355
  404SOL     MW 1616   0.890   2.871   0.697 -0.0078  0.5196  0.1470
  405SOL     OW 1617   0.514   2.381   1.476  0.0563 -0.1673 -0.1399
  405SOL    HW1 1618   0.484   2.457   1.426  0.3801 -1.1131  1.4316
  405SOL    HW2 1619   0.469   2.309   1.441  1.3082 -0.7545  2.4816
  405SOL     MW 1620   0.504   2.381   1.465  0.2642 -0.3696  0.4133
  406SOL     OW 1621   0.388   2.376   1.060 -0.3818 -0.0469 -0.6557
  406SOL    HW1 1622   0.292   2.376   1.059  1.5153 -0.3731 -0.6419
  406SOL    HW2 1623   0.410   2.285   1.085  1.0659 -1.8207 -4.1508
  406SOL     MW 1624   0.378   2.364   1.063  0.0595 -0.3240 -1.1151
  407SOL     OW 1625   3.051   2.708   1.142  0.8552 -0.1970  0.2880
  407SOL    HW1 1626   3.124   2.704   1.212  1.0567 -0.7518 -0.6644
  407SOL    HW2 1627   3.099   2.708   1.057 -0.4938  0.8718  1.1154
  407SOL     MW 1628   3.067   2.707   1.140  0.7038 -0.1292  0.2715
  408SOL     OW 1629   2.127   2.074   0.787  0.3595  0.0252 -0.2539
  408SOL    HW1 1630   2.103   2.155   0.828  0.7936 -0.5689  2.3481
  408SOL    HW2 1631   2.051   2.041   0.732  0.1976  1.0138 -2.9380
  408SOL     MW 1632   2.114   2.081   0.785  0.3954  0.0773 -0.2647
  409SOL     OW 1633   1.427   0.127   0.888  0.4545  0.0863  0.0640
  409SOL    HW1 1634   1.505   0.178   0.875  0.3468  0.9346 -1.7588
  409SOL    HW2 1635   1.441   0.070   0.960  2.2439 -0.3908 -1.5331
  409SOL     MW 1636   1.439   0.126   0.896  0.6764  0.1353 -0.3872
  410SOL     OW 1637   1.118   2.463   1.044 -0.2841  0.0303  0.4389
  410SOL    HW1 1638   1.060   2.508   0.984 -3.0429  0.2422  0.6090
  410SOL    HW2 1639   1.164   2.395   0.989 -1.4956 -0.5796  0.2256
  410SOL     MW 1640   1.117   2.460   1.029 -0.8079 -0.0222  0.4332
  411SOL     OW 1641   1.970   0.037   2.874 -0.0999  0.1875  0.4351
  411SOL    HW1 1642   1.928  -0.025   2.819  0.0798  3.7991 -0.6070
  411SOL    HW2 1643   1.909   0.071   2.941 -0.1044 -2.5665 -0.0316
  411SOL     MW 1644   1.956   0.034   2.875 -0.0768  0.3007  0.2360
  412SOL     OW 1645   0.993   2.257   0.624  0.4892 -0.4875 -0.6199
  412SOL    HW1 1646   1.042   2.339   0.638 -2.0834  3.5331 -1.9350
  412SOL    HW2 1647   0.906   2.273   0.583  2.3534 -0.0068  1.0541
  412SOL     MW 1648   0.988   2.270   0.621  0.3957  0.1064 -0.5726
  413SOL     OW 1649   0.521   2.802   3.059 -0.4281  0.1018 -0.0807
  413SOL    HW1 1650   0.570   2.722   3.092  3.4674 -0.9179 -1.7908
  413SOL    HW2 1651   0.569   2.841   2.991  2.9121  2.5469  0.1500
  413SOL     MW 1652   0.534   2.796   3.054  0.5266  0.2899 -0.2759
  414SOL     OW 1653   1.930   2.876   1.061  0.3486 -1.0408 -0.0240
  414SOL    HW1 1654   1.887   2.911   0.984 -0.9735  0.2660  1.9259
  414SOL    HW2 1655   2.030   2.858   1.047  0.0687  0.6183  0.0692
  414SOL     MW 1656   1.938   2.878   1.049  0.1372 -0.6495  0.2456
  415SOL     OW 1657   1.746   2.624   1.102  0.8319  0.3626  0.1777
  415SOL    HW1 1658   1.730   2.548   1.162  0.7900  1.3180 -2.7272
  415SOL    HW2 1659   1.808   2.686   1.141  2.2464  0.0018 -2.5214
  415SOL     MW 1660   1.752   2.622   1.115  1.0130  0.4411 -0.5617
  416SOL     OW 1661   0.506   1.945   1.352  0.0263 -0.2938 -0.3840
  416SOL    HW1 1662   0.514   1.991   1.268  1.2255  1.3406  1.7287
  416SOL    HW2 1663   0.461   1.861   1.338 -4.4023 -1.9816  0.4725
  416SOL     MW 1664   0.501   1.940   1.339 -0.3998 -0.3008  0.0077
  417SOL     OW 1665   1.041   3.068   2.063  0.0740  0.3544  0.8884
  417SOL    HW1 1666   0.987   3.059   2.146  2.3917  0.2683 -2.0330
  417SOL    HW2 1667   0.982   3.012   2.002  0.3473 -3.1010 -2.8103
  417SOL     MW 1668   1.026   3.060   2.066  0.4159 -0.1129  0.0149
  418SOL     OW 1669   0.705   2.883   0.142  0.5794  0.0632 -0.2172
  418SOL    HW1 1670   0.791   2.890   0.099  1.5523 -0.1513  1.4462
  418SOL    HW2 1671   0.641   2.857   0.071  0.0329  1.9431 -0.8536
  418SOL     MW 1672   0.708   2.881   0.127  0.6356  0.2829 -0.0817
  419SOL     OW 1673   0.447   2.656   1.411 -0.1333  0.1057 -0.1852
  419SOL    HW1 1674   0.483   2.729   1.469  0.1947  1.6191  1.4155
  419SOL    HW2 1675   0.516   2.629   1.347 -2.9645  1.1641  1.1176
  419SOL     MW 1676   0.461   2.662   1.410 -0.4636  0.4450  0.1979
  420SOL     OW 1677   0.881   2.222   0.960  0.3505  0.6926 -0.1892
  420SOL    HW1 1678   0.819   2.239   1.034  2.8874 -0.3371  3.3255
  420SOL    HW2 1679   0.928   2.299   0.947 -2.0668  2.8993 -1.7741
  420SOL     MW 1680   0.879   2.234   0.968  0.3663  0.8479  0.0654
  421SOL     OW 1681   2.952   0.044   0.026  0.2079  0.1062 -0.3738
  421SOL    HW1 1682   2.892   0.013  -0.042 -2.0571  2.3554 -0.5965
  421SOL    HW2 1683   2.978  -0.038   0.069  1.4782  2.4827 -1.4676
  421SOL     MW 1684   2.947   0.029   0.023  0.0766  0.7165 -0.5475
  422SOL     OW 1685   0.897   2.546   0.884 -0.2430  0.7017 -0.0333
  422SOL    HW1 1686   0.850   2.617   0.926  1.1391  1.0023 -0.6594
  422SOL    HW2 1687   0.840   2.509   0.811  0.0289  2.3065 -1.1485
  422SOL     MW 1688   0.883   2.550   0.880 -0.0248  0.9531 -0.2630
  423SOL     OW 1689   1.523   0.121   0.501 -0.6922 -0.3880 -0.2127
  423SOL    HW1 1690   1.509   0.085   0.410 -2.0345 -2.5761  0.8849
  423SOL    HW2 1691   1.514   0.222   0.497 -3.1502  1.6755 -3.0481
  423SOL     MW 1692   1.520   0.130   0.489 -1.1936 -0.4044 -0.4420
  424SOL     OW 1693   0.688   2.266   1.174 -0.0990  0.0131  0.3765
  424SOL    HW1 1694   0.610   2.217   1.160  0.6419  1.8714  0.4693
  424SOL    HW2 1695   0.691   2.278   1.265  2.8061 -2.1883 -1.4330
  424SOL     MW 1696   0.678   2.262   1.185  0.3820 -0.0322  0.1500
  425SOL     OW 1697   1.722   2.829   1.982  0.2172 -0.2820  0.6503
  425SOL    HW1 1698   1.736   2.853   1.886  0.7893 -0.9926  0.5921
  425SOL    HW2 1699   1.747   2.740   2.009 -0.3862 -1.4909  0.2817
  425SOL     MW 1700   1.727   2.820   1.973  0.2131 -0.5352  0.5940
  426SOL     OW 1701   0.805   1.693   1.947 -0.2380  0.4058  0.2742
  426SOL    HW1 1702   0.757   1.734   1.868 -1.6596  1.5582  2.3116
  426SOL    HW2 1703   0.806   1.759   2.014 -1.4178 -0.6512 -3.3179
  426SOL     MW 1704   0.799   1.707   1.946 -0.5812  0.4184  0.0691
  427SOL     OW 1705   0.374   1.616   1.902  0.2459  0.4051  0.3277
  427SOL    HW1 1706   0.456   1.569   1.902  0.8352 -0.4559  3.9865
  427SOL    HW2 1707   0.307   1.550   1.920 -2.1411  1.1415 -3.7884
  427SOL     MW 1708   0.376   1.601   1.904  0.0087  0.3887  0.2674
  428SOL     OW 1709   0.589   2.552   1.184 -0.3522  0.9707 -0.3902
  428SOL    HW1 1710   0.686   2.528   1.203  2.0466 -3.3615 -1.4170
  428SOL    HW2 1711   0.555   2.465   1.165  2.5307  1.8205  0.1960
  428SOL     MW 1712   0.597   2.538   1.184  0.3447  0.5113 -0.4483
  429SOL     OW 1713   1.334   2.732   1.111 -0.1578  0.7884 -0.0345
  429SOL    HW1 1714   1.244   2.705   1.132 -0.3841 -1.1381  1.0581
  429SOL    HW2 1715   1.331   2.817   1.072 -0.2870 -0.1580 -1.3133
  429SOL     MW 1716   1.322   2.740   1.109 -0.2047  0.4094 -0.0591
  430SOL     OW 1717   1.156   2.706   0.726  0.0037  0.3467  0.2794
  430SOL    HW1 1718   1.161   2.609   0.722 -1.9552  0.6260  3.0236
  430SOL    HW2 1719   1.137   2.731   0.639 -1.3330 -0.9695 -1.7504
  430SOL     MW 1720   1.154   2.696   0.714 -0.4312  0.2099  0.3737
  431SOL     OW 1721   0.315   1.927   1.079  0.9642  0.1583  0.4669
  431SOL    HW1 1722   0.373   1.851   1.069 -0.2840 -1.7297 -1.3161
  431SOL    HW2 1723   0.277   1.947   0.988 -0.6679 -0.0411 -2.0470
  431SOL     MW 1724   0.318   1.920   1.066  0.5842 -0.1171 -0.1000
  432SOL     OW 1725   0.046   3.084   1.146 -0.4789 -0.2749  0.7761
  432SOL    HW1 1726   0.066   3.151   1.213  2.5726 -0.6673 -0.2624
  432SOL    HW2 1727  -0.015   3.035   1.199  1.3357 -0.3164  0.6059
  432SOL     MW 1728   0.041   3.087   1.162  0.1631 -0.3322  0.6166
  433SOL     OW 1729   0.612   2.845   1.530 -0.0403  0.4888  0.4419
  433SOL    HW1 1730   0.635   2.908   1.607 -0.7995 -2.9370  2.8549
  433SOL    HW2 1731   0.696   2.844   1.485 -0.5120  0.3013 -1.0302
  433SOL     MW 1732   0.626   2.853   1.534 -0.2027  0.0121  0.5660
  434SOL     OW 1733   1.611   2.839   1.487 -0.0274  0.2733  0.4148
  434SOL    HW1 1734   1.520   2.843   1.514  1.8059  1.0189  1.8208
  434SOL    HW2 1735   1.623   2.827   1.391  0.1904  0.8543 -1.7089
  434SOL     MW 1736   1.601   2.838   1.478  0.2432  0.4483  0.3201
  435SOL     OW 1737   2.811   1.818   0.224  0.6337  0.0206  0.3641
  435SOL    HW1 1738   2.862   1.897   0.188  2.7865 -0.1518  0.2953
  435SOL    HW2 1739   2.751   1.788   0.155 -0.8458  0.0516 -2.6686
  435SOL     MW 1740   2.810   1.824   0.210  0.7225  0.0020 -0.0451
  436SOL     OW 1741   1.333   2.789   0.362  0.4126 -0.2070  0.6470
  436SOL    HW1 1742   1.420   2.786   0.409  0.0757 -0.1207  1.2252
  436SOL    HW2 1743   1.283   2.867   0.405  0.9299 -0.3946  1.4569
  436SOL     MW 1744   1.338   2.799   0.374  0.4364 -0.2204  0.8301
  437SOL     OW 1745   0.887   2.877   1.404 -0.6550  0.2915 -0.2095
  437SOL    HW1 1746   0.915   2.962   1.368 -1.3261  1.1584 -1.3601
  437SOL    HW2 1747   0.927   2.813   1.345  1.0053  1.4150 -0.4480
  437SOL     MW 1748   0.896   2.879   1.391 -0.5245  0.5541 -0.3928
  438SOL     OW 1749   0.854   2.655   1.908 -0.0991  0.0325  0.6417
  438SOL    HW1 1750   0.816   2.640   1.989 -0.1783  2.8882  1.5045
  438SOL    HW2 1751   0.809   2.589   1.854  0.1508 -0.0610 -1.7538
  438SOL     MW 1752   0.843   2.644   1.911 -0.0765  0.3969  0.4395
  439SOL     OW 1753   1.133   2.145   0.432  0.1402  0.2443  0.3112
  439SOL    HW1 1754   1.075   2.182   0.506 -1.7990 -0.4362 -2.0393
  439SOL    HW2 1755   1.142   2.225   0.375 -1.1058 -0.3749  1.1776
  439SOL     MW 1756   1.126   2.161   0.434 -0.2801  0.0728  0.1154
  440SOL     OW 1757   1.712   2.991   0.000 -0.4353  0.1286 -0.0330
  440SOL    HW1 1758   1.657   2.987   0.072  2.8790  1.2870 -1.8585
  440SOL    HW2 1759   1.796   2.948   0.028  0.3831 -0.5682 -1.9694
  440SOL     MW 1760   1.716   2.985   0.013  0.1100  0.1895 -0.5294
  441SOL     OW 1761   0.312   2.658   0.501  0.0091 -0.3328  0.0253
  441SOL    HW1 1762   0.291   2.633   0.415 -0.2048 -0.4823 -1.2719
  441SOL    HW2 1763   0.334   2.754   0.491 -1.2121 -0.1970  0.1710
  441SOL     MW 1764   0.312   2.667   0.489 -0.1802 -0.3346 -0.1266
  442SOL     OW 1765   3.065   2.384   0.613  0.1378  0.2394  0.2369
  442SOL    HW1 1766   3.085   2.476   0.596  0.4994  4.4332  0.2182
  442SOL    HW2 1767   2.981   2.384   0.651  1.0411 -0.0305  0.9674
  442SOL     MW 1768   3.057   2.396   0.616  0.3047  0.7571  0.3308
  443SOL     OW 1769   1.414   1.812   1.909  0.3349 -0.0382  0.8988
  443SOL    HW1 1770   1.362   1.837   1.832  0.7048 -0.3652 -0.3520
  443SOL    HW2 1771   1.399   1.722   1.911 -1.0516  1.9321 -1.0133
  443SOL     MW 1772   1.405   1.803   1.899  0.2008  0.1787  0.4815
  444SOL     OW 1773   0.883   2.552   1.599  0.0662 -0.2792 -0.3055
  444SOL    HW1 1774   0.964   2.506   1.624  0.8073 -0.9043  0.9219
  444SOL    HW2 1775   0.810   2.511   1.648 -2.3044 -2.8841  0.1305
  444SOL     MW 1776   0.884   2.540   1.609 -0.1488 -0.7054 -0.0860
  445SOL     OW 1777   0.905   0.053   1.319  0.3115  0.8470  0.6918
  445SOL    HW1 1778   0.923   0.148   1.314  1.4265  0.6381 -0.9103
  445SOL    HW2 1779   0.992   0.026   1.291 -2.1234  2.1635  1.3864
  445SOL     MW 1780   0.919   0.062   1.315  0.1373  0.9932  0.5721
  446SOL     OW 1781   2.718   2.882   1.074  0.3072  0.5032  0.2253
  446SOL    HW1 1782   2.661   2.904   1.001  0.9684 -0.0067  2.1189
  446SOL    HW2 1783   2.757   2.797   1.047 -0.5747 -0.1873  1.9835
  446SOL     MW 1784   2.716   2.874   1.061  0.2780  0.3448  0.7071
  447SOL     OW 1785   0.026   2.044   1.681  0.4653 -0.0582 -0.5294
  447SOL    HW1 1786   0.066   1.982   1.743  0.5080 -3.3518  1.2049
  447SOL    HW2 1787  -0.052   2.003   1.641  0.0050 -1.9500 -1.2095
  447SOL     MW 1788   0.021   2.030   1.684  0.4102 -0.7423 -0.3903
  448SOL     OW 1789   1.712   2.370   1.682 -0.3007  0.3307 -0.4068
  448SOL    HW1 1790   1.657   2.290   1.664 -0.2364  3.6010  0.4332
  448SOL    HW2 1791   1.653   2.442   1.700 -1.1105  1.8205  0.0797
  448SOL     MW 1792   1.697   2.369   1.682 -0.3990  0.9588 -0.2318
  449SOL     OW 1793   0.766   2.831   0.412 -0.0130 -0.2718  0.5470
  449SOL    HW1 1794   0.732   2.834   0.322  1.2794  2.2082 -0.0517
  449SOL    HW2 1795   0.697   2.874   0.462  0.8302 -0.2388  1.0801
  449SOL     MW 1796   0.752   2.837   0.407  0.2688  0.0598  0.5384
  450SOL     OW 1797   1.205   2.438   0.666  0.4339 -0.0730  0.5181
  450SOL    HW1 1798   1.235   2.391   0.737 -0.6392  2.1702 -1.2615
  450SOL    HW2 1799   1.279   2.465   0.606  2.1859  1.2690  0.5841
  450SOL     MW 1800   1.218   2.436   0.667  0.5235  0.4000  0.2920
  451SOL     OW 1801   0.531   2.016   1.626  0.3519  0.3087 -0.0974
  451SOL    HW1 1802   0.590   2.087   1.625  1.6188  2.3691  1.4622
  451SOL    HW2 1803   0.512   1.996   1.532 -1.6445  1.6199 -0.3657
  451SOL     MW 1804   0.536   2.022   1.614  0.2557  0.7536  0.0730
  452SOL     OW 1805   0.250   2.712   0.017 -0.0857  0.2694  0.0264
  452SOL    HW1 1806   0.333   2.727  -0.023 -0.2301 -0.1834 -1.6630
  452SOL    HW2 1807   0.184   2.773  -0.022  2.2225 -0.9975  0.0018
  452SOL     MW 1808   0.252   2.722   0.007  0.1998  0.0425 -0.1997
  453SOL     OW 1809   0.360   2.902   1.683  0.0558 -0.2351 -0.4086
  453SOL    HW1 1810   0.439   2.929   1.731  1.3292 -4.2505  2.1391
  453SOL    HW2 1811   0.363   2.921   1.591  1.6507  1.0431  1.7097
  453SOL     MW 1812   0.370   2.908   1.677  0.4343 -0.5962  0.2070
  454SOL     OW 1813   0.995   2.763   1.183  0.4892 -0.1258  0.0933
  454SOL    HW1 1814   0.968   2.674   1.177 -2.2583 -0.3441  1.1022
  454SOL    HW2 1815   0.936   2.812   1.120  0.9214  0.7240 -1.8313
  454SOL     MW 1816   0.984   2.758   1.174  0.1837 -0.0425 -0.0275
  455SOL     OW 1817   1.586   2.912   0.230  0.3276 -0.0138  0.6481
  455SOL    HW1 1818   1.641   2.912   0.309 -1.0733 -1.8585 -1.3437
  455SOL    HW2 1819   1.558   2.818   0.213  0.7478 -0.0125 -0.5268
  455SOL     MW 1820   1.590   2.900   0.238  0.1982 -0.2570  0.2303
  456SOL     OW 1821   2.835   0.317   1.358 -0.3073  0.0297  0.1994
  456SOL    HW1 1822   2.794   0.247   1.299  1.1009  0.2945  3.5651
  456SOL    HW2 1823   2.918   0.358   1.323  0.7745 -0.2072  0.1594
  456SOL     MW 1824   2.841   0.314   1.345  0.0212  0.0334  0.6382
  457SOL     OW 1825   0.954   1.566   2.914  0.1364  0.9275 -0.0458
  457SOL    HW1 1826   0.879   1.543   2.969 -0.0640 -0.2739  1.4570
  457SOL    HW2 1827   0.993   1.477   2.924 -2.2032 -0.3311 -1.0173
  457SOL     MW 1828   0.950   1.551   2.923 -0.1988  0.6029  0.0243
  458SOL     OW 1829   1.481   1.397   0.557  0.7200  0.4715 -0.1371
  458SOL    HW1 1830   1.404   1.413   0.617  0.8063  1.6273  0.7680
  458SOL    HW2 1831   1.441   1.364   0.478  1.1559 -2.9239 -0.6745
  458SOL     MW 1832   1.466   1.395   0.554  0.7889  0.1760 -0.0886
  459SOL     OW 1833   1.490   0.065   0.235  0.0121 -0.5463  0.1590
  459SOL    HW1 1834   1.496  -0.032   0.236  0.0644 -0.4477  0.0612
  459SOL    HW2 1835   1.416   0.073   0.174 -0.4642  2.0812  2.3133
  459SOL     MW 1836   1.481   0.053   0.227 -0.0438 -0.1866  0.4303
  460SOL     OW 1837   1.792   2.191   0.609 -0.5219  0.2756  0.0379
  460SOL    HW1 1838   1.699   2.173   0.616  0.1558 -0.0482  1.3754
  460SOL    HW2 1839   1.833   2.102   0.619 -2.1767 -1.5190 -0.6135
  460SOL     MW 1840   1.785   2.177   0.611 -0.6508 -0.0039  0.1284
  461SOL     OW 1841   0.413   2.386   0.587 -0.3710 -0.3720 -0.3396
  461SOL    HW1 1842   0.391   2.459   0.529 -1.8906  0.0969  0.8099
  461SOL    HW2 1843   0.421   2.419   0.672 -2.5532  0.7113 -1.3594
  461SOL     MW 1844   0.411   2.400   0.591 -0.8594 -0.1672 -0.3225
  462SOL     OW 1845   0.391   0.273   1.310 -0.2118  0.2778 -0.0082
  462SOL    HW1 1846   0.430   0.239   1.233  0.7255  2.5630  2.1469
  462SOL    HW2 1847   0.463   0.319   1.360 -0.8784  0.6027 -0.1047
  462SOL     MW 1848   0.406   0.275   1.306 -0.1761  0.6222  0.2634
  463SOL     OW 1849   0.906   0.048   0.645  0.2378  0.6658 -0.1719
  463SOL    HW1 1850   0.917   0.035   0.548  0.6777  1.4419 -2.1192
  463SOL    HW2 1851   0.818   0.084   0.661  0.1406 -0.6936  1.8514
  463SOL     MW 1852   0.896   0.051   0.634  0.2831  0.5888 -0.1619
  464SOL     OW 1853   0.857   3.042   2.270 -0.0546 -0.5924 -0.0380
  464SOL    HW1 1854   0.839   2.948   2.283  0.3333  0.0962  0.4626
  464SOL    HW2 1855   0.870   3.080   2.357  1.9749  3.2017  1.5625
  464SOL     MW 1856   0.856   3.035   2.283  0.2644 -0.0010  0.2392
  465SOL     OW 1857   0.670   0.306   0.505 -0.2743  0.1340 -0.0734
  465SOL    HW1 1858   0.638   0.254   0.580  2.3272 -0.0789  0.5212
  465SOL    HW2 1859   0.694   0.245   0.436  1.0986 -2.3220  2.8402
  465SOL     MW 1860   0.669   0.291   0.506  0.2501 -0.2181  0.3894
  466SOL     OW 1861   1.073   1.983   0.692 -0.3419 -0.2006 -0.0756
  466SOL    HW1 1862   1.090   1.903   0.641  2.9158 -0.7082  0.1174
  466SOL    HW2 1863   1.057   2.053   0.632  3.7459  2.6119  0.2335
  466SOL     MW 1864   1.073   1.981   0.677  0.6273  0.1035 -0.0093
  467SOL     OW 1865   1.285   2.296   0.895 -0.3607 -0.0204 -0.0280
  467SOL    HW1 1866   1.373   2.324   0.908 -1.7340 -0.5013  1.8642
  467SOL    HW2 1867   1.290   2.199   0.889  2.4628  0.1427 -2.0479
  467SOL     MW 1868   1.297   2.287   0.896 -0.1694 -0.0623 -0.0448
  468SOL     OW 1869   0.382   2.606   1.969  0.1958  0.3592  0.3583
  468SOL    HW1 1870   0.380   2.565   1.883  0.2669  1.1189  1.9339
  468SOL    HW2 1871   0.340   2.687   1.942  0.9854  1.1789  0.9494
  468SOL     MW 1872   0.376   2.611   1.954  0.3093  0.5676  0.6441
  469SOL     OW 1873   0.376   2.168   1.804  0.3863  0.4936 -0.0329
  469SOL    HW1 1874   0.299   2.118   1.843 -1.8854  0.9860 -0.4967
  469SOL    HW2 1875   0.412   2.113   1.734 -0.9653 -1.9023  0.0327
  469SOL     MW 1876   0.371   2.154   1.800 -0.0917  0.2424 -0.0854
  470SOL     OW 1877   3.035   2.547   0.104 -0.0449  0.5577 -0.1611
  470SOL    HW1 1878   2.983   2.499   0.173  3.1259  1.6249  1.2385
  470SOL    HW2 1879   2.975   2.567   0.032  0.2920 -1.8056 -1.1717
  470SOL     MW 1880   3.020   2.543   0.103  0.4179  0.3867 -0.1098
  471SOL     OW 1881   1.170   2.745   1.419 -0.1932 -0.2986  0.1838
  471SOL    HW1 1882   1.112   2.761   1.494 -2.0253 -0.2542 -1.2366
  471SOL    HW2 1883   1.113   2.716   1.346  2.1009  0.2226 -1.2330
  471SOL     MW 1884   1.155   2.743   1.419 -0.1322 -0.2240 -0.1905
  472SOL     OW 1885   2.948   2.103   0.414  0.1102  0.0498 -0.2767
  472SOL    HW1 1886   2.925   2.084   0.318 -0.1858 -0.0092 -2.0144
  472SOL    HW2 1887   2.923   2.020   0.460  1.2770  0.0925  1.5442
  472SOL     MW 1888   2.942   2.090   0.407  0.2251  0.0477 -0.2658
  473SOL     OW 1889   0.841   2.527   1.300  0.7171  0.2466  0.4225
  473SOL    HW1 1890   0.893   2.444   1.285  0.4476  0.9599 -0.5223
  473SOL    HW2 1891   0.825   2.522   1.397 -1.6897  0.3695 -0.4414
  473SOL     MW 1892   0.846   2.515   1.311  0.3640  0.3570  0.1839
  474SOL     OW 1893   0.809   2.172   1.749  0.7826 -0.2313  0.2766
  474SOL    HW1 1894   0.875   2.225   1.804  1.0013  1.3085  0.5045
  474SOL    HW2 1895   0.831   2.186   1.657  0.7551  0.0542  3.3162
  474SOL     MW 1896   0.820   2.180   1.744  0.8078  0.0095  0.7077
  475SOL     OW 1897   1.611   3.097   1.462 -0.0157  0.0975  0.3646
  475SOL    HW1 1898   1.531   3.114   1.414  3.5264 -2.6061 -1.6501
  475SOL    HW2 1899   1.607   3.006   1.486  1.1749  0.8656  0.1462
  475SOL     MW 1900   1.600   3.087   1.458  0.6087 -0.1578  0.0700
  476SOL     OW 1901   1.470   2.607   0.875 -0.1856 -0.0499  0.0210
  476SOL    HW1 1902   1.385   2.626   0.911 -3.5919  2.6463  0.2476
  476SOL    HW2 1903   1.505   2.695   0.845 -1.9817  0.4834 -0.8392
  476SOL     MW 1904   1.464   2.621   0.876 -0.8720  0.3762 -0.0626
  477SOL     OW 1905   0.753   2.533   0.633 -0.2147 -0.2668 -0.2758
  477SOL    HW1 1906   0.820   2.585   0.590  0.8492 -1.9235  4.8433
  477SOL    HW2 1907   0.741   2.454   0.580  0.7873 -1.7630 -0.2537
  477SOL     MW 1908   0.760   2.530   0.621  0.0579 -0.6828  0.4025
  478SOL     OW 1909   0.102   2.692   0.924  0.4260  0.0519  0.6724
  478SOL    HW1 1910   0.129   2.780   0.902 -1.6827  1.5302 -4.3599
  478SOL    HW2 1911   0.170   2.639   0.863  1.6404  0.7357  1.0938
  478SOL     MW 1912   0.115   2.696   0.913  0.3080  0.3372  0.0640
  479SOL     OW 1913   1.410   1.947   1.290  0.0491  0.6578  0.0977
  479SOL    HW1 1914   1.384   2.011   1.361  0.2225 -0.5726 -2.6230
  479SOL    HW2 1915   1.485   1.898   1.323  2.4575 -0.0241  0.5129
  479SOL     MW 1916   1.416   1.949   1.304  0.3898  0.4055 -0.2065
  480SOL     OW 1917   1.893   2.341   1.363 -0.1375 -0.1608 -0.2798
  480SOL    HW1 1918   1.910   2.255   1.401 -2.3343 -0.8665 -0.0967
  480SOL    HW2 1919   1.957   2.345   1.285  0.7988 -1.4574 -1.7855
  480SOL     MW 1920   1.904   2.330   1.357 -0.3038 -0.4250 -0.4543
  481SOL     OW 1921   1.194   3.093   1.134 -1.0061 -0.3217 -0.2327
  481SOL    HW1 1922   1.167   3.050   1.053 -0.8973 -1.1694 -0.8263
  481SOL    HW2 1923   1.202   3.188   1.105  1.0815 -1.4875 -2.2196
  481SOL     MW 1924   1.191   3.100   1.119 -0.7163 -0.5873 -0.5732
  482SOL     OW 1925   0.929   3.061   0.393  0.2295 -0.0301 -0.7144
  482SOL    HW1 1926   0.860   2.990   0.389 -0.5223 -1.4198 -1.7781
  482SOL    HW2 1927   0.894   3.142   0.353  0.0346  1.2989 -0.5509
  482SOL     MW 1928   0.915   3.062   0.388  0.1046 -0.0381 -0.8332
  483SOL     OW 1929   0.364   2.928   0.464 -0.5354 -0.3067 -0.1809
  483SOL    HW1 1930   0.273   2.916   0.427  0.7412  2.3617  0.8605
  483SOL    HW2 1931   0.350   2.982   0.547 -0.1400 -1.1964  1.3359
  483SOL     MW 1932   0.350   2.933   0.470 -0.3148 -0.0720  0.1566
  484SOL     OW 1933   1.684   1.818   1.381  0.4650 -0.4213  0.2321
  484SOL    HW1 1934   1.736   1.895   1.411  0.0376  0.7678 -1.5507
  484SOL    HW2 1935   1.674   1.764   1.461 -0.1008 -0.0026  1.4284
  484SOL     MW 1936   1.689   1.821   1.395  0.3340 -0.2092  0.1547
  485SOL     OW 1937   0.533   2.424   0.307 -0.2215  0.5300  0.1193
  485SOL    HW1 1938   0.559   2.395   0.390  0.9631 -2.7182  1.2408
  485SOL    HW2 1939   0.479   2.503   0.319  0.4460  1.5997 -0.4042
  485SOL     MW 1940   0.529   2.431   0.319  0.0229  0.2426  0.1982
  486SOL     OW 1941   0.125   2.418   1.395 -0.2870  0.3829  0.7281
  486SOL    HW1 1942   0.137   2.497   1.344 -0.1049 -1.9339 -1.4320
  486SOL    HW2 1943   0.147   2.437   1.487  1.4334 -1.1368 -1.0695
  486SOL     MW 1944   0.130   2.431   1.400 -0.0360 -0.1233  0.2059
  487SOL     OW 1945   1.274   1.576   1.068 -0.3142  0.0178 -0.0042
  487SOL    HW1 1946   1.247   1.671   1.065 -0.6648  0.5695 -0.8204
  487SOL    HW2 1947   1.356   1.578   1.024  3.6660 -1.3096  0.2884
  487SOL     MW 1948   1.281   1.589   1.062  0.1647 -0.0846 -0.0733
  488SOL     OW 1949   1.668   1.864   0.545  0.1894  0.2166  0.0949
  488SOL    HW1 1950   1.758   1.889   0.510 -0.8546  0.4231 -0.8965
  488SOL    HW2 1951   1.632   1.945   0.578  3.3396  0.1421  4.5437
  488SOL     MW 1952   1.675   1.878   0.545  0.4673  0.2340  0.5511
  489SOL     OW 1953   0.688   0.765   0.589 -0.1786 -0.0702 -0.2783
  489SOL    HW1 1954   0.719   0.681   0.560  0.4200 -0.9836  0.1092
  489SOL    HW2 1955   0.689   0.771   0.683  1.4202 -2.6002 -1.0079
  489SOL     MW 1956   0.692   0.755   0.598  0.1114 -0.5245 -0.3234
  490SOL     OW 1957   1.415   2.089   0.441  0.6455 -0.4633 -0.7667
  490SOL    HW1 1958   1.454   2.163   0.402  0.0991 -0.3408 -2.0614
  490SOL    HW2 1959   1.318   2.108   0.439  1.0021 -0.1390  1.3097
  490SOL     MW 1960   1.407   2.101   0.436  0.6205 -0.4043 -0.6636
  491SOL     OW 1961   1.195   3.000   0.478 -0.1199 -0.1051  0.1369
  491SOL    HW1 1962   1.227   3.083   0.511 -2.3643 -0.6539 -2.4374
  491SOL    HW2 1963   1.105   3.017   0.442  1.8565 -3.3410  0.1578
  491SOL     MW 1964   1.187   3.013   0.478 -0.1552 -0.6045 -0.2000
  492SOL     OW 1965   1.531   2.101   0.668  0.4684 -0.5463 -0.2163
  492SOL    HW1 1966   1.494   2.102   0.580  5.0505  0.1548 -1.5224
  492SOL    HW2 1967   1.454   2.080   0.719 -1.3198  0.5332 -0.4026
  492SOL     MW 1968   1.516   2.098   0.663  0.8370 -0.3113 -0.4132
  493SOL     OW 1969   0.118   2.917   0.354  0.0381 -0.0836 -0.1819
  493SOL    HW1 1970   0.121   2.986   0.421  0.8684 -1.6149  0.3921
  493SOL    HW2 1971   0.161   2.951   0.276 -0.7273 -0.0748  1.8615
  493SOL     MW 1972   0.124   2.930   0.352  0.0467 -0.2845  0.1634
  494SOL     OW 1973   0.383   2.438   1.738 -0.1524  0.3695 -0.2464
  494SOL    HW1 1974   0.398   2.347   1.776 -1.3726 -1.2047  0.5494
  494SOL    HW2 1975   0.396   2.422   1.645 -1.1767 -0.7425 -2.8959
  494SOL     MW 1976   0.387   2.424   1.731 -0.4485  0.0151 -0.4910
  495SOL     OW 1977   2.907   1.699   2.711  0.3103  0.2919 -0.4451
  495SOL    HW1 1978   2.882   1.778   2.764 -2.8417 -0.6483 -0.1195
  495SOL    HW2 1979   2.898   1.636   2.787 -1.3937  0.0470  1.2152
  495SOL     MW 1980   2.903   1.701   2.728 -0.3304  0.1355 -0.1831
  496SOL     OW 1981   2.873   2.316   2.658  0.3251  0.5652  0.2861
  496SOL    HW1 1982   2.904   2.224   2.674 -3.3261  0.0654  1.2648
  496SOL    HW2 1983   2.945   2.388   2.649 -1.2522  0.6340  0.1779
  496SOL     MW 1984   2.887   2.313   2.659 -0.3647  0.5084  0.4010
  497SOL     OW 1985   1.559   2.284   2.597  0.4279  0.1094 -0.0648
  497SOL    HW1 1986   1.531   2.231   2.522 -3.3261 -0.9454  3.1961
  497SOL    HW2 1987   1.556   2.221   2.669  1.2676  0.1185  3.2322
  497SOL     MW 1988   1.555   2.269   2.596  0.0434 -0.0285  0.8004
  498SOL     OW 1989   1.554   2.718   2.333 -0.2789  0.0057  0.6250
  498SOL    HW1 1990   1.521   2.634   2.288 -1.1643  1.7527  1.2865
  498SOL    HW2 1991   1.634   2.699   2.385  4.1879  2.5360  0.5591
  498SOL     MW 1992   1.560   2.704   2.334  0.1937  0.5701  0.7036
  499SOL     OW 1993   0.894   0.143   0.030 -0.0677 -0.9805 -0.1511
  499SOL    HW1 1994   0.836   0.144   0.106  0.1001  0.9649  2.2451
  499SOL    HW2 1995   0.925   0.048   0.025 -0.9705  0.1079 -0.5941
  499SOL     MW 1996   0.891   0.131   0.039 -0.1647 -0.5802  0.1066
  500SOL     OW 1997   1.055   2.436   2.786  0.8207  0.3153 -0.1179
  500SOL    HW1 1998   1.102   2.417   2.868 -0.4897  0.3742 -0.1812
  500SOL    HW2 1999   1.009   2.519   2.810  1.3237 -1.6250  1.4739
  500SOL     MW 2000   1.055   2.444   2.800  0.7141  0.0670  0.0838
  501SOL     OW 2001   1.727   2.300   3.090 -0.5255  0.3458  0.1915
  501SOL    HW1 2002   1.722   2.382   3.135  2.1996  0.1376  0.4100
  501SOL    HW2 2003   1.821   2.289   3.097 -3.1909 -0.0258  2.0133
  501SOL     MW 2004   1.739   2.310   3.097 -0.5177  0.2693  0.4607
  502SOL     OW 2005   0.070   2.875   2.970  0.1999 -0.1331 -0.8872
  502SOL    HW1 2006   0.019   2.800   2.934  0.2229 -1.1834 -2.2643
  502SOL    HW2 2007   0.103   2.925   2.894  2.4627  0.9071 -1.4367
  502SOL     MW 2008   0.068   2.871   2.955  0.5015 -0.1344 -1.1414
  503SOL     OW 2009   1.170   2.613   1.989 -0.4473  0.2952 -0.0766
  503SOL    HW1 2010   1.253   2.627   1.951 -3.6133 -0.3056 -0.2855
  503SOL    HW2 2011   1.099   2.636   1.931  2.5372  0.6507 -1.3995
  503SOL     MW 2012   1.172   2.618   1.977 -0.4712  0.2628 -0.2787
  504SOL     OW 2013   0.089   2.615   2.074 -0.6710  0.7146  0.3107
  504SOL    HW1 2014   0.171   2.567   2.092  1.3923 -0.0246  1.1928
  504SOL    HW2 2015   0.031   2.537   2.068 -0.7777  0.8626 -0.4827
  504SOL     MW 2016   0.092   2.598   2.076 -0.4128  0.6366  0.3224
  505SOL     OW 2017   1.655   2.661   2.760  0.0475 -0.0798  0.4461
  505SOL    HW1 2018   1.678   2.662   2.668  1.9398 -1.3302  0.5566
  505SOL    HW2 2019   1.600   2.738   2.776 -2.0345 -0.5040 -1.9701
  505SOL     MW 2020   1.651   2.671   2.750  0.0225 -0.3008  0.1419
  506SOL     OW 2021   1.633   3.104   2.877  0.2505 -0.5656  0.3235
  506SOL    HW1 2022   1.667   3.050   2.952  1.7869  0.2145 -1.3855
  506SOL    HW2 2023   1.694   3.078   2.798  1.9352  2.3491 -2.3252
  506SOL     MW 2024   1.646   3.093   2.876  0.6755 -0.0781 -0.2515
  507SOL     OW 2025   0.944   2.706   2.841  0.0654  0.3889  0.1223
  507SOL    HW1 2026   1.006   2.740   2.782 -0.8941  1.7567  0.5073
  507SOL    HW2 2027   0.860   2.745   2.818 -0.5569  0.1022 -0.4249
  507SOL     MW 2028   0.941   2.715   2.830 -0.1433  0.5315  0.1009
  508SOL     OW 2029   1.252   2.113   2.511 -0.1899 -0.1578 -0.3359
  508SOL    HW1 2030   1.297   2.105   2.604 -0.2410  0.7363  0.3947
  508SOL    HW2 2031   1.166   2.146   2.526  4.4133  1.4087  0.2364
  508SOL     MW 2032   1.247   2.116   2.525  0.4107  0.1669 -0.1640
  509SOL     OW 2033   0.664   2.595   2.800 -0.9433 -0.4753 -0.0094
  509SOL    HW1 2034   0.656   2.549   2.717  0.7261 -1.0744 -3.7367
  509SOL    HW2 2035   0.580   2.644   2.804  1.5889  0.9650  3.5944
  509SOL     MW 2036   0.652   2.596   2.790 -0.3890 -0.3643 -0.0257
  510SOL     OW 2037   1.543   2.600   1.642 -0.8482  0.0118  0.3612
  510SOL    HW1 2038   1.607   2.674   1.619  2.2197  1.2541 -0.2776
  510SOL    HW2 2039   1.483   2.641   1.710  0.3901 -1.6044 -2.7126
  510SOL     MW 2040   1.544   2.615   1.648 -0.2800 -0.0375 -0.1286
  511SOL     OW 2041   0.422   2.616   2.466 -0.2950  0.5912 -0.4887
  511SOL    HW1 2042   0.501   2.571   2.498  3.7145 -0.1391  1.4919
  511SOL    HW2 2043   0.451   2.662   2.390  0.4231 -3.5160  0.5685
  511SOL     MW 2044   0.436   2.616   2.460  0.3288 -0.0471 -0.0879
  512SOL     OW 2045   0.979   2.036   2.826 -0.3744 -0.5817 -0.3798
  512SOL    HW1 2046   0.917   2.082   2.892  1.3925  0.5110  0.3670
  512SOL    HW2 2047   1.002   1.959   2.879  2.0320  0.7443 -1.2994
  512SOL     MW 2048   0.974   2.032   2.842  0.1763 -0.2626 -0.4026
  513SOL     OW 2049   1.639   2.459   2.207  0.1722  0.4472  0.2484
  513SOL    HW1 2050   1.719   2.497   2.177 -0.9606 -0.1124  1.0647
  513SOL    HW2 2051   1.678   2.391   2.261 -0.2200  0.8252 -1.2836
  513SOL     MW 2052   1.655   2.455   2.210 -0.0290  0.4232  0.1540
  514SOL     OW 2053   0.236   2.483   2.618 -0.1594  0.0807 -0.2554
  514SOL    HW1 2054   0.278   2.534   2.552  0.5232  3.0387  1.1302
  514SOL    HW2 2055   0.296   2.467   2.691 -3.7969  0.7327 -2.4597
  514SOL     MW 2056   0.249   2.488   2.619 -0.5492  0.5570 -0.3634
  515SOL     OW 2057   1.114   2.014   1.984  0.2449  0.1485  0.2154
  515SOL    HW1 2058   1.064   2.094   1.971  0.6650  0.6444  2.4142
  515SOL    HW2 2059   1.198   2.035   2.015  0.4042 -1.2104  1.2948
  515SOL     MW 2060   1.118   2.027   1.986  0.3214  0.0346  0.6479
  516SOL     OW 2061   1.452   2.451   3.055  0.4571  0.4263  0.1922
  516SOL    HW1 2062   1.463   2.470   2.961  0.8823 -1.0309  0.6750
  516SOL    HW2 2063   1.357   2.453   3.056  1.6359 -0.4604 -0.2275
  516SOL     MW 2064   1.441   2.454   3.043  0.6687  0.1170  0.2005
  517SOL     OW 2065   0.554   2.422   2.247  0.2576  0.5934  0.1752
  517SOL    HW1 2066   0.476   2.454   2.288 -1.9190  0.4201  0.6656
  517SOL    HW2 2067   0.506   2.349   2.195 -2.1587 -0.3669  0.5583
  517SOL     MW 2068   0.538   2.417   2.245 -0.3484  0.4438  0.2904
  518SOL     OW 2069   1.817   0.138   3.082 -0.6030  0.7039 -1.0629
  518SOL    HW1 2070   1.770   0.184   3.153 -1.3264  0.4887 -2.1427
  518SOL    HW2 2071   1.791   0.046   3.095 -2.1766  1.2174  0.1193
  518SOL     MW 2072   1.807   0.132   3.093 -0.9061  0.7432 -1.0494
  519SOL     OW 2073   0.687   2.462   1.776  0.3154 -0.9441 -0.3069
  519SOL    HW1 2074   0.702   2.370   1.794  1.8579  0.6817 -0.7090
  519SOL    HW2 2075   0.595   2.473   1.744  0.2992 -0.7639  1.9183
  519SOL     MW 2076   0.677   2.451   1.774  0.5168 -0.7058 -0.0664
  520SOL     OW 2077   1.162   2.172   2.969  0.0858  0.3321  0.4081
  520SOL    HW1 2078   1.113   2.114   2.909 -0.2173 -0.7497  1.0311
  520SOL    HW2 2079   1.195   2.118   3.040  0.1680  0.8544 -0.8385
  520SOL     MW 2080   1.160   2.157   2.970  0.0567  0.2583  0.3258
  521SOL     OW 2081   1.741   2.005   2.182 -0.4473  0.7753 -0.0700
  521SOL    HW1 2082   1.790   2.014   2.105 -1.7937 -2.0975 -0.7028
  521SOL    HW2 2083   1.760   1.911   2.203  1.2016  2.0200  1.9276
  521SOL     MW 2084   1.750   1.993   2.174 -0.4074  0.5605  0.1101
  522SOL     OW 2085   2.948   2.505   2.263 -0.2045  0.4059 -0.0743
  522SOL    HW1 2086   3.021   2.435   2.271 -0.1580 -1.5372 -1.7212
  522SOL    HW2 2087   2.981   2.594   2.248 -3.1942 -2.1706 -0.5518
  522SOL     MW 2088   2.962   2.507   2.262 -0.5928 -0.1904 -0.3546
  523SOL     OW 2089   0.921   1.506   2.124  0.4739  0.3971  0.2016
  523SOL    HW1 2090   0.889   1.567   2.058  0.0796 -3.3682  0.9966
  523SOL    HW2 2091   0.982   1.449   2.080  0.6899 -0.6871 -0.1644
  523SOL     MW 2092   0.925   1.507   2.109  0.4504 -0.2427  0.2582
  524SOL     OW 2093   0.599   2.382   2.983  0.2688 -0.3238 -0.2996
  524SOL    HW1 2094   0.635   2.435   2.915  0.2438  0.3437  0.5261
  524SOL    HW2 2095   0.672   2.318   2.986  0.8156 -0.5681 -1.5892
  524SOL     MW 2096   0.613   2.381   2.974  0.3376 -0.2679 -0.3608
  525SOL     OW 2097   0.427   2.260   2.069 -0.6057  0.7217 -0.7748
  525SOL    HW1 2098   0.367   2.196   2.121 -1.4065  0.8435 -1.1135
  525SOL    HW2 2099   0.485   2.204   2.020  2.4677 -0.8120 -3.8173
  525SOL     MW 2100   0.427   2.244   2.069 -0.3059  0.5354 -1.2209
  526SOL     OW 2101   0.668   2.084   1.997 -0.4158 -0.5986 -0.5115
  526SOL    HW1 2102   0.706   2.109   1.909 -0.6465 -0.8506  3.2339
  526SOL    HW2 2103   0.691   2.149   2.063 -0.4269  0.8504 -0.3997
  526SOL     MW 2104   0.676   2.096   1.994 -0.4477 -0.4407 -0.0026
  527SOL     OW 2105   1.365   2.010   2.093  0.8579 -0.3116 -0.4415
  527SOL    HW1 2106   1.369   1.994   2.188 -0.4151 -1.6185  2.0599
  527SOL    HW2 2107   1.404   1.932   2.050  1.2793  0.4546 -0.2914
  527SOL     MW 2108   1.370   1.998   2.100  0.7455 -0.3829 -0.0917
  528SOL     OW 2109   0.721   2.925   2.883 -0.0354 -0.7819 -0.8914
  528SOL    HW1 2110   0.706   3.019   2.911  2.6936  2.1226 -0.1377
  528SOL    HW2 2111   0.656   2.926   2.807 -2.1380  1.5250 -0.6018
  528SOL     MW 2112   0.711   2.938   2.877  0.0473 -0.0943 -0.7537
  529SOL     OW 2113   1.040   2.279   1.843  0.3323 -0.1464 -0.0001
  529SOL    HW1 2114   1.014   2.304   1.935 -3.1361 -1.9059  0.7354
  529SOL    HW2 2115   1.102   2.340   1.821  0.6383 -1.0871 -0.7241
  529SOL     MW 2116   1.044   2.291   1.853 -0.0849 -0.5027  0.0014
  530SOL     OW 2117   1.189   2.425   3.054 -0.6256 -0.6343 -0.0935
  530SOL    HW1 2118   1.120   2.479   3.087  2.5395  3.3774  0.3489
  530SOL    HW2 2119   1.178   2.329   3.055 -3.2566 -1.3931 -0.5549
  530SOL     MW 2120   1.178   2.419   3.058 -0.5552 -0.2051 -0.0960
  531SOL     OW 2121   0.984   1.871   2.592 -0.4367 -0.4272 -0.2436
  531SOL    HW1 2122   1.010   1.930   2.660 -0.0861 -1.5335 -1.8006
  531SOL    HW2 2123   0.924   1.809   2.637 -1.5758  1.0185 -1.2012
  531SOL     MW 2124   0.980   1.871   2.607 -0.5408 -0.3824 -0.5753
  532SOL     OW 2125   1.724   0.319   2.903 -0.3719 -0.5263  0.1013
  532SOL    HW1 2126   1.719   0.223   2.933 -0.6175  1.0140  1.7708
  532SOL    HW2 2127   1.818   0.338   2.916  4.5264 -0.3844 -0.8077
  532SOL     MW 2128   1.736   0.308   2.909  0.2420 -0.3044  0.2016
  533SOL     OW 2129   1.793   2.664   2.984 -0.3001 -0.2086  0.1817
  533SOL    HW1 2130   1.772   2.609   3.057  1.1560 -0.2484  2.2248
  533SOL    HW2 2131   1.710   2.654   2.930 -2.4332  1.6001 -0.4831
  533SOL     MW 2132   1.779   2.655   2.986 -0.3894  0.0248  0.3636
  534SOL     OW 2133   1.797   2.348   2.460 -0.0651  0.0416  0.1002
  534SOL    HW1 2134   1.712   2.331   2.509 -1.8695 -0.8289  0.3901
  534SOL    HW2 2135   1.864   2.346   2.530  2.5521  3.1010  2.4142
  534SOL     MW 2136   1.794   2.345   2.476  0.0421  0.3304  0.4438
  535SOL     OW 2137   1.835   2.351   1.910  0.7874  0.0355 -1.1032
  535SOL    HW1 2138   1.773   2.367   1.835  0.1158 -0.5247  0.9465
  535SOL    HW2 2139   1.921   2.371   1.877  0.3348 -0.2988  2.2211
  535SOL     MW 2140   1.838   2.356   1.896  0.6390 -0.0825 -0.3942
  536SOL     OW 2141   0.443   1.885   2.019 -0.1362  0.0633  0.1624
  536SOL    HW1 2142   0.441   1.808   1.965  1.2740  1.5824 -0.3804
  536SOL    HW2 2143   0.509   1.949   1.987  0.7642  2.0362 -1.8006
  536SOL     MW 2144   0.452   1.883   2.008  0.1687  0.5241 -0.1682
  537SOL     OW 2145   1.046   0.158   2.886 -0.4370  0.6329  0.4271
  537SOL    HW1 2146   0.997   0.166   2.972 -1.9259  1.7561  2.4519
  537SOL    HW2 2147   1.064   0.247   2.872 -2.4273 -0.0736 -0.3569
  537SOL     MW 2148   1.042   0.171   2.895 -0.8961  0.6879  0.5908
  538SOL     OW 2149   1.369   0.072   2.968 -0.1184  0.1273  0.0393
  538SOL    HW1 2150   1.349   0.161   2.936  1.2395  2.5741  3.4230
  538SOL    HW2 2151   1.464   0.060   2.946 -0.1117  0.6491  1.1618
  538SOL     MW 2152   1.379   0.082   2.961  0.0616  0.5190  0.6338
  539SOL     OW 2153   0.765   2.777   2.555 -0.0717  0.3837 -0.4656
  539SOL    HW1 2154   0.864   2.805   2.573  1.0648 -1.5601  0.1027
  539SOL    HW2 2155   0.752   2.699   2.606 -1.4375  1.6846  1.8627
  539SOL     MW 2156   0.777   2.770   2.564 -0.1019  0.2988 -0.0834
  540SOL     OW 2157   0.347   2.379   2.844  0.3194  0.4461 -0.4612
  540SOL    HW1 2158   0.439   2.387   2.879  0.7732  0.3025 -0.9756
  540SOL    HW2 2159   0.300   2.324   2.909  1.7839  1.9075  2.2356
  540SOL     MW 2160   0.353   2.373   2.857  0.5725  0.6200 -0.1733
  541SOL     OW 2161   0.181   2.927   2.211  0.2828 -0.1706  0.2562
  541SOL    HW1 2162   0.199   2.851   2.160 -0.7930  0.0567  0.2262
  541SOL    HW2 2163   0.231   2.914   2.290 -0.8153 -1.4868  0.5227
  541SOL     MW 2164   0.190   2.916   2.215 -0.0041 -0.3143  0.2874
  542SOL     OW 2165   1.014   2.260   2.575 -0.3922 -0.4649  0.0061
  542SOL    HW1 2166   0.948   2.190   2.602 -1.7715 -2.7927  1.7845
  542SOL    HW2 2167   1.024   2.317   2.655 -1.8583 -1.5466  2.1316
  542SOL     MW 2168   1.007   2.258   2.589 -0.7676 -0.9147  0.5212
  543SOL     OW 2169   1.460   2.488   2.752 -0.1223 -0.2315  0.3538
  543SOL    HW1 2170   1.475   2.414   2.696  0.6277  1.2702  0.8785
  543SOL    HW2 2171   1.545   2.537   2.740  2.0040 -0.7681 -1.7140
  543SOL     MW 2172   1.473   2.485   2.743  0.2572 -0.1041  0.1502
  544SOL     OW 2173   0.662   0.247   2.676  0.6848 -0.3373  0.0905
  544SOL    HW1 2174   0.577   0.210   2.693  4.6697  0.9578 -0.4513
  544SOL    HW2 2175   0.698   0.194   2.607  1.3463 -0.2946  1.8762
  544SOL     MW 2176   0.656   0.235   2.669  1.2978 -0.1608  0.2546
  545SOL     OW 2177   1.573   2.170   2.324  0.8330 -0.5160 -0.5288
  545SOL    HW1 2178   1.528   2.222   2.257  0.8892 -1.5002  0.0934
  545SOL    HW2 2179   1.631   2.107   2.278  0.9162  0.2961  1.2268
  545SOL     MW 2180   1.575   2.169   2.309  0.8514 -0.5387 -0.2151
  546SOL     OW 2181   2.962   2.014   0.131  0.4765 -0.3249 -0.1885
  546SOL    HW1 2182   2.949   2.088   0.063  1.6533 -1.0904  1.0725
  546SOL    HW2 2183   3.054   1.994   0.100  1.4339 -2.2266  0.4622
  546SOL     MW 2184   2.973   2.021   0.118  0.7581 -0.6768  0.0637
  547SOL     OW 2185   0.274   2.980   0.149  0.3751  0.5367 -0.1796
  547SOL    HW1 2186   0.321   3.042   0.097  0.4600 -2.6317  4.1518
  547SOL    HW2 2187   0.293   2.892   0.105  3.3718 -0.6775 -2.1189
  547SOL     MW 2188   0.282   2.977   0.136  0.7817 -0.0415  0.1360
  548SOL     OW 2189   0.278   2.563   0.240 -0.1070 -0.1295  0.2045
  548SOL    HW1 2190   0.272   2.618   0.159  0.8873  2.3703  1.5073
  548SOL    HW2 2191   0.216   2.495   0.229  3.3332  0.2691 -1.2908
  548SOL     MW 2192   0.269   2.561   0.228  0.4781  0.2529  0.1791
  549SOL     OW 2193   0.827   1.896   2.127  0.6414 -0.6360 -0.0314
  549SOL    HW1 2194   0.778   1.967   2.094 -1.5052 -0.6882  3.2296
  549SOL    HW2 2195   0.803   1.888   2.217  1.4202  1.0900 -0.0635
  549SOL     MW 2196   0.817   1.904   2.134  0.4609 -0.4152  0.3946
  550SOL     OW 2197   1.794   1.706   2.537  0.0989 -0.3840  0.2944
  550SOL    HW1 2198   1.798   1.704   2.437  3.5568  2.8169 -0.5120
  550SOL    HW2 2199   1.751   1.786   2.577  2.4671  1.3047  0.8584
  550SOL     MW 2200   1.789   1.717   2.529  0.8676  0.2612  0.2624
  551SOL     OW 2201   0.876   2.267   0.219  0.1540 -0.5898 -0.6530
  551SOL    HW1 2202   0.971   2.269   0.201  0.9318 -1.4994 -0.5677
  551SOL    HW2 2203   0.841   2.181   0.200 -0.7617 -2.3024  2.7766
  551SOL     MW 2204   0.884   2.256   0.214  0.1358 -0.9358 -0.1892
  552SOL     OW 2205   1.761   1.738   2.254 -0.2230 -0.3516  0.0914
  552SOL    HW1 2206   1.675   1.713   2.275  5.9195 -1.1940  0.2283
  552SOL    HW2 2207   1.787   1.692   2.167 -0.2957  0.1879 -0.3728
  552SOL     MW 2208   1.753   1.729   2.245  0.5778 -0.3916  0.0482
  553SOL     OW 2209   1.185   2.314   1.460  0.1758 -0.2316 -0.2831
  553SOL    HW1 2210   1.241   2.246   1.499 -1.6528  0.3411 -1.1421
  553SOL    HW2 2211   1.233   2.379   1.412 -1.0441  0.4828 -0.8928
  553SOL     MW 2212   1.199   2.314   1.459 -0.2264 -0.0618 -0.4769
  554SOL     OW 2213   0.554   2.917   2.670  0.1293  0.2198 -0.1536
  554SOL    HW1 2214   0.505   2.983   2.615  0.9039 -0.2580 -0.2226
  554SOL    HW2 2215   0.619   2.893   2.605 -1.2968  0.2090  1.3522
  554SOL     MW 2216   0.556   2.923   2.654  0.0433  0.1554  0.0359
  555SOL     OW 2217   0.631   2.453   2.574  0.1943  0.1477 -0.1831
  555SOL    HW1 2218   0.578   2.375   2.566  0.1262  1.0137  2.8668
  555SOL    HW2 2219   0.707   2.434   2.514 -1.3103  0.9034  0.3190
  555SOL     MW 2220   0.634   2.440   2.565 -0.0132  0.3617  0.2856
  556SOL     OW 2221   0.938   1.793   0.162  0.0084  0.7975 -0.0527
  556SOL    HW1 2222   0.973   1.780   0.077  1.0830  0.0548  0.3715
  556SOL    HW2 2223   1.008   1.834   0.213 -2.4017  0.4033  1.2303
  556SOL     MW 2224   0.952   1.797   0.158 -0.1678  0.6475  0.1725
  557SOL     OW 2225   0.976   2.683   0.500  0.0249  0.0462 -0.2880
  557SOL    HW1 2226   1.023   2.636   0.430  0.9326 -3.4417  1.9056
  557SOL    HW2 2227   0.903   2.736   0.461  0.3649 -0.5911  0.5215
  557SOL     MW 2228   0.973   2.684   0.486  0.1895 -0.4981  0.1082
  558SOL     OW 2229   0.259   2.159   3.075  0.2524  0.6978 -0.9761
  558SOL    HW1 2230   0.225   2.076   3.107 -0.6427 -1.1083 -3.4979
  558SOL    HW2 2231   0.208   2.223   3.123  0.6929  1.1297  1.3295
  558SOL     MW 2232   0.248   2.157   3.086  0.1925  0.5165 -1.0046
  559SOL     OW 2233   1.039   2.305   2.129 -0.8657  0.3349 -0.2135
  559SOL    HW1 2234   1.095   2.382   2.117  1.9853  0.7125  0.8688
  559SOL    HW2 2235   1.055   2.274   2.219  0.5546 -1.1994  3.2696
  559SOL     MW 2236   1.048   2.311   2.139 -0.3022  0.1823  0.3889
  560SOL     OW 2237   1.939   2.854   0.060  0.5920  0.1063 -0.5421
  560SOL    HW1 2238   2.005   2.875  -0.004  3.4725 -2.6871 -0.1463
  560SOL    HW2 2239   1.892   2.787   0.017  1.4163 -0.4510 -1.1494
  560SOL     MW 2240   1.941   2.848   0.046  1.0808 -0.3358 -0.5700
  561SOL     OW 2241   0.430   2.175   0.216 -0.1066  0.8650 -0.2662
  561SOL    HW1 2242   0.403   2.161   0.128 -2.1529 -3.0919 -2.7723
  561SOL    HW2 2243   0.454   2.270   0.231 -0.4033 -0.0580  1.6987
  561SOL     MW 2244   0.430   2.185   0.206 -0.4157  0.2211 -0.3376
  562SOL     OW 2245   0.788   2.215   2.220 -0.3404  0.5104 -0.2527
  562SOL    HW1 2246   0.848   2.290   2.205  1.0789  1.1994 -0.8588
  562SOL    HW2 2247   0.845   2.142   2.232 -1.9661  1.0050 -1.3996
  562SOL     MW 2248   0.803   2.215   2.219 -0.3676  0.6665 -0.4840
  563SOL     OW 2249   1.148   0.333   0.575  0.5612  0.4049 -0.4178
  563SOL    HW1 2250   1.092   0.291   0.508  3.8178 -0.1980 -2.2551
  563SOL    HW2 2251   1.205   0.263   0.610  0.3420  0.0052  0.5885
  563SOL     MW 2252   1.148   0.318   0.571  0.9619  0.2726 -0.5275
  564SOL     OW 2253   1.029   2.620   2.239  0.4683  0.2397 -0.6660
  564SOL    HW1 2254   1.059   2.624   2.147 -2.9188  2.0742  1.5915
  564SOL    HW2 2255   1.109   2.637   2.290  0.1841 -0.9519 -2.6778
  564SOL     MW 2256   1.044   2.623   2.234 -0.0161  0.3245 -0.6336
  565SOL     OW 2257   2.906   2.701   2.657 -0.2593  0.9870  0.0923
  565SOL    HW1 2258   2.962   2.768   2.612 -0.5811  1.4349 -2.3631
  565SOL    HW2 2259   2.830   2.699   2.602 -0.7779 -0.1998  2.7900
  565SOL     MW 2260   2.903   2.709   2.644 -0.3702  0.8895  0.1243
  566SOL     OW 2261   2.153   1.879   2.381  0.4366  0.6264 -0.5528
  566SOL    HW1 2262   2.173   1.848   2.294 -2.7280 -0.8667 -0.5831
  566SOL    HW2 2263   2.210   1.958   2.391 -0.4560 -2.3025 -1.0895
  566SOL     MW 2264   2.163   1.886   2.371 -0.0987  0.0430 -0.6276
  567SOL     OW 2265   1.174   2.920   2.958  0.0858 -0.8694 -0.5332
  567SOL    HW1 2266   1.240   2.995   2.974  1.5690 -0.0775  1.3615
  567SOL    HW2 2267   1.209   2.833   2.963  3.3688 -2.5804 -0.2707
  567SOL     MW 2268   1.188   2.918   2.961  0.7146 -0.9907 -0.2486
  568SOL     OW 2269   1.613   2.125   2.889 -0.5488  0.4092 -0.1255
  568SOL    HW1 2270   1.654   2.184   2.953 -2.4663  2.0574  0.0919
  568SOL    HW2 2271   1.686   2.089   2.828  0.5702  1.5078 -0.7416
  568SOL     MW 2272   1.628   2.128   2.889 -0.6541  0.7716 -0.1781
  569SOL     OW 2273   0.177   2.240   2.473 -0.3396 -0.1405  0.2759
  569SOL    HW1 2274   0.109   2.283   2.411 -0.3495 -0.7046 -2.3347
  569SOL    HW2 2275   0.174   2.301   2.550 -1.0312  2.3102 -0.2418
  569SOL     MW 2276   0.167   2.253   2.475 -0.4322  0.1084 -0.1368
  570SOL     OW 2277   1.438   0.383   0.477 -0.8943 -0.0857 -0.0179
  570SOL    HW1 2278   1.353   0.381   0.518 -0.0439  2.1098  3.7233
  570SOL    HW2 2279   1.492   0.408   0.556 -0.8145 -3.1510  2.3884
  570SOL     MW 2280   1.434   0.386   0.493 -0.7716 -0.2004  0.7932
  571SOL     OW 2281   1.475   2.414   1.978  0.1709  0.1034 -0.0178
  571SOL    HW1 2282   1.535   2.422   2.052  1.8083 -0.0664  1.3007
  571SOL    HW2 2283   1.495   2.318   1.959 -0.4375  0.7366 -0.1591
  571SOL     MW 2284   1.486   2.402   1.985  0.3067  0.1645  0.1375
  572SOL     OW 2285   0.929   2.626   0.035  0.4902  0.5580 -0.0719
  572SOL    HW1 2286   0.906   2.670  -0.048  0.9695  0.5791  0.9723
  572SOL    HW2 2287   0.843   2.598   0.073 -0.0711  2.7741  1.4820
  572SOL     MW 2288   0.914   2.628   0.029  0.4793  0.8532  0.2708
  573SOL     OW 2289   1.172   2.348   0.262 -0.2242 -0.9621 -0.3426
  573SOL    HW1 2290   1.251   2.330   0.221 -3.0037 -1.7444  1.4046
  573SOL    HW2 2291   1.168   2.448   0.267  0.3264  1.2922  0.7092
  573SOL     MW 2292   1.181   2.359   0.257 -0.5183 -0.7679  0.0267
  574SOL     OW 2293   1.134   2.617   0.258 -0.0767 -0.2526  0.5420
  574SOL    HW1 2294   1.202   2.673   0.291 -0.7870 -1.6295 -2.7704
  574SOL    HW2 2295   1.102   2.652   0.180 -0.1931  2.2472  0.6711
  574SOL     MW 2296   1.139   2.629   0.252 -0.1858 -0.1044  0.1220
  575SOL     OW 2297   0.028   2.294   1.794  0.1396  0.3771 -0.0316
  575SOL    HW1 2298   0.043   2.222   1.735  1.4155  0.3832  2.2631
  575SOL    HW2 2299   0.065   2.369   1.749  0.4638  0.5759 -2.6547
  575SOL     MW 2300   0.035   2.295   1.780  0.3507  0.4041 -0.0749
  576SOL     OW 2301   2.843   1.820   2.064 -0.4809  0.4574  0.4030
  576SOL    HW1 2302   2.893   1.888   2.010 -1.0632 -0.9149 -0.6317
  576SOL    HW2 2303   2.752   1.809   2.035 -0.6223  0.5879  0.1554
  576SOL     MW 2304   2.837   1.828   2.053 -0.5764  0.2935  0.2338
  577SOL     OW 2305   2.101   0.201   0.079 -0.4732  0.0424  0.7638
  577SOL    HW1 2306   2.025   0.230   0.021 -0.6480 -0.8959 -0.3236
  577SOL    HW2 2307   2.066   0.216   0.164 -1.0201 -1.5024 -1.9522
  577SOL     MW 2308   2.086   0.207   0.083 -0.5684 -0.2852  0.2620
  578SOL     OW 2309   1.905   2.033   2.400  0.1225 -0.0628 -0.5320
  578SOL    HW1 2310   1.836   2.043   2.332  0.8896 -1.7532 -0.9472
  578SOL    HW2 2311   1.957   1.952   2.388  2.2124 -0.0485  0.9444
  578SOL     MW 2312   1.902   2.024   2.389  0.4995 -0.2839 -0.3920
  579SOL     OW 2313   0.881   2.466   2.441 -0.1800 -0.3011 -0.6779
  579SOL    HW1 2314   0.941   2.404   2.491  1.7561 -1.4242 -0.7102
  579SOL    HW2 2315   0.946   2.508   2.384 -1.5895  0.7227 -0.2603
  579SOL     MW 2316   0.898   2.464   2.440 -0.1105 -0.3142 -0.6271
  580SOL     OW 2317   0.926   2.975   3.047 -0.1663  0.0054  0.1026
  580SOL    HW1 2318   1.020   2.951   3.029  0.1956 -0.2969 -0.8696
  580SOL    HW2 2319   0.885   2.975   2.958  1.8829 -2.2782 -0.1814
  580SOL     MW 2320   0.933   2.972   3.033  0.1518 -0.3358 -0.0631
  581SOL     OW 2321   1.199   2.475   1.697 -0.2297 -0.1536 -0.1219
  581SOL    HW1 2322   1.221   2.568   1.676  1.6472  1.8411 -0.1862
  581SOL    HW2 2323   1.246   2.428   1.630 -0.8735  3.7717  0.5886
  581SOL     MW 2324   1.208   2.481   1.686 -0.0670  0.6275 -0.0366
  582SOL     OW 2325   3.096   2.862   2.536  0.3036 -0.1203  0.4928
  582SOL    HW1 2326   3.075   2.949   2.560 -1.2186  0.1623  1.8913
  582SOL    HW2 2327   3.186   2.874   2.508  1.1602  0.2301 -0.4499
  582SOL     MW 2328   3.105   2.875   2.535  0.2158 -0.0367  0.5529
  583SOL     OW 2329   2.040   2.362   2.685  0.1942  0.5150 -0.5227
  583SOL    HW1 2330   2.121   2.373   2.627  2.5621 -2.1713  2.5035
  583SOL    HW2 2331   2.011   2.267   2.672 -1.6550 -0.5367 -0.6491
  583SOL     MW 2332   2.047   2.351   2.676  0.2626  0.0218 -0.1401
  584SOL     OW 2333   0.231   1.821   2.201  0.6318 -0.2192  0.6496
  584SOL    HW1 2334   0.287   1.858   2.136  0.6778  0.0073 -1.1027
  584SOL    HW2 2335   0.222   1.890   2.268 -2.4648 -0.5990 -0.6589
  584SOL     MW 2336   0.237   1.835   2.201  0.2293 -0.2394  0.2457
  585SOL     OW 2337   1.480   2.661   0.157  1.1193  0.2440 -0.0378
  585SOL    HW1 2338   1.465   2.603   0.082  1.0115  0.4585  2.1037
  585SOL    HW2 2339   1.396   2.680   0.209  2.1131 -1.9459  1.5836
  585SOL     MW 2340   1.467   2.655   0.154  1.2362 -0.0167  0.4587
  586SOL     OW 2341   1.368   2.844   2.522 -0.6112  0.2132  0.3243
  586SOL    HW1 2342   1.434   2.809   2.459  0.8958  1.5175 -3.5818
  586SOL    HW2 2343   1.391   2.936   2.551 -1.5080 -0.5124  1.0745
  586SOL     MW 2344   1.380   2.851   2.517 -0.5307  0.2895 -0.0921
  587SOL     OW 2345   1.316   1.554   2.176  0.2216 -0.2709  0.3356
  587SOL    HW1 2346   1.313   1.461   2.203 -0.6876 -0.5815  0.3206
  587SOL    HW2 2347   1.274   1.559   2.087  2.5181  1.2741 -1.5693
  587SOL     MW 2348   1.310   1.543   2.168  0.4047 -0.1080  0.0823
  588SOL     OW 2349   1.375   2.118   2.755  0.1585 -0.1898 -0.3862
  588SOL    HW1 2350   1.458   2.115   2.811 -2.6589 -2.2877 -1.5551
  588SOL    HW2 2351   1.306   2.157   2.815  0.1985  0.0184  2.5875
  588SOL     MW 2352   1.377   2.123   2.770 -0.2080 -0.4391 -0.1481
  589SOL     OW 2353   1.257   2.045   0.099 -0.4995 -0.3203  0.6977
  589SOL    HW1 2354   1.320   2.100   0.147  1.5945 -0.2781 -1.8710
  589SOL    HW2 2355   1.230   1.975   0.161  1.5721 -0.6615 -0.9612
  589SOL     MW 2356   1.261   2.043   0.114  0.0501 -0.3597  0.1399
  590SOL     OW 2357   0.425   2.760   2.205  0.4171  0.4995 -0.2331
  590SOL    HW1 2358   0.417   2.696   2.140  1.7888  2.5975  0.4137
  590SOL    HW2 2359   0.505   2.810   2.196 -1.4219 -0.3010 -1.8112
  590SOL     MW 2360   0.435   2.758   2.196  0.3554  0.6707 -0.3560
  591SOL     OW 2361   2.285   0.690   3.103 -0.5703 -0.5556  0.0068
  591SOL    HW1 2362   2.204   0.743   3.079 -1.7975 -0.5508 -2.4915
  591SOL    HW2 2363   2.359   0.731   3.036  3.2577  0.8745 -1.5426
  591SOL     MW 2364   2.284   0.702   3.091 -0.2272 -0.3663 -0.5273
  592SOL     OW 2365   1.791   2.951   0.831 -0.7040  0.0494 -0.2552
  592SOL    HW1 2366   1.773   3.008   0.751  0.7749  0.2934 -3.8775
  592SOL    HW2 2367   1.854   2.879   0.798 -1.2170  0.2409 -2.2649
  592SOL     MW 2368   1.797   2.949   0.816 -0.5766  0.1069 -0.9983
  593SOL     OW 2369   1.928   0.705   0.868 -0.3198 -0.1701 -0.6085
  593SOL    HW1 2370   1.847   0.711   0.812 -1.7567  1.3831 -0.8724
  593SOL    HW2 2371   1.908   0.623   0.912  2.2549 -0.2905  0.1489
  593SOL     MW 2372   1.914   0.695   0.867 -0.1697  0.0189 -0.5434
  594SOL     OW 2373   2.823   1.145   1.346 -0.1483 -0.1887  0.2446
  594SOL    HW1 2374   2.915   1.171   1.362  0.1333  0.5015  0.8489
  594SOL    HW2 2375   2.802   1.096   1.265 -0.1168  0.6098  0.7610
  594SOL     MW 2376   2.832   1.142   1.337 -0.1070  0.0077  0.3925
  595SOL     OW 2377   0.467   0.998   0.804  0.0655 -0.0191  0.0934
  595SOL    HW1 2378   0.512   1.061   0.741 -0.5451  4.3330 -0.1664
  595SOL    HW2 2379   0.476   1.062   0.876 -1.7139  4.6572  1.6887
  595SOL     MW 2380   0.474   1.015   0.805 -0.2498  1.1721  0.2696
  596SOL     OW 2381   2.446   1.337   0.585  0.0211 -0.0542  0.5520
  596SOL    HW1 2382   2.525   1.383   0.551  0.7781 -0.7655 -2.3285
  596SOL    HW2 2383   2.490   1.275   0.642 -1.5359 -0.6894  3.4572
  596SOL     MW 2384   2.462   1.335   0.588 -0.0844 -0.2319  0.5553
  597SOL     OW 2385   2.182   0.735   1.608  0.5024  0.4716  0.1405
  597SOL    HW1 2386   2.200   0.665   1.673 -0.7780  0.3138  1.1964
  597SOL    HW2 2387   2.129   0.684   1.539 -1.8980 -0.3185  0.8519
  597SOL     MW 2388   2.177   0.719   1.607  0.0168  0.3465  0.3737
  598SOL     OW 2389   2.595   1.011   2.870 -0.0625  0.0040  0.1210
  598SOL    HW1 2390   2.577   0.987   2.780  1.3698 -1.6507  0.9540
  598SOL    HW2 2391   2.686   1.041   2.866  1.0586  2.4020 -0.7476
  598SOL     MW 2392   2.604   1.011   2.857  0.2744  0.1021  0.1163
  599SOL     OW 2393   2.974   0.433   2.049 -0.2086 -0.4628  0.2670
  599SOL    HW1 2394   3.012   0.454   2.136  2.1480 -1.0004  0.7804
  599SOL    HW2 2395   2.993   0.515   1.994  0.4556 -1.2074  0.5290
  599SOL     MW 2396   2.982   0.447   2.053  0.1900 -0.6320  0.3693
  600SOL     OW 2397   1.899   1.619   0.862 -0.1617 -0.1047 -0.3775
  600SOL    HW1 2398   1.950   1.676   0.924 -3.4541  1.0285  0.7343
  600SOL    HW2 2399   1.816   1.665   0.837  0.2904 -0.9678 -0.5104
  600SOL     MW 2400   1.895   1.633   0.867 -0.5364 -0.0691 -0.2483
  601SOL     OW 2401   2.496   0.782   0.830 -1.0986 -0.3360 -0.0307
  601SOL    HW1 2402   2.486   0.794   0.923 -3.2413  2.7317  2.0961
  601SOL    HW2 2403   2.432   0.721   0.795  1.1127  0.4114 -1.4732
  601SOL     MW 2404   2.486   0.775   0.838 -1.0896  0.1674  0.0596
  602SOL     OW 2405   2.353   1.907   0.861 -0.0268  0.2749 -0.5432
  602SOL    HW1 2406   2.308   1.820   0.856  0.0902 -0.1124 -1.4465
  602SOL    HW2 2407   2.302   1.961   0.802 -0.9264  0.1558 -1.3148
  602SOL     MW 2408   2.341   1.903   0.852 -0.1301  0.2081 -0.7642
  603SOL     OW 2409   3.080   1.376   1.801  0.2025 -0.2703  0.1887
  603SOL    HW1 2410   3.139   1.411   1.868  1.7014 -1.9866 -0.8496
  603SOL    HW2 2411   3.072   1.290   1.842  0.1673  0.3138  1.0491
  603SOL     MW 2412   3.086   1.370   1.815  0.3957 -0.4196  0.1653
  604SOL     OW 2413   2.171   1.580   0.454 -0.1600  0.1272 -0.2757
  604SOL    HW1 2414   2.211   1.512   0.509 -1.1520  0.6706  0.5740
  604SOL    HW2 2415   2.096   1.623   0.509  1.5726  1.8803  0.5173
  604SOL     MW 2416   2.167   1.576   0.469 -0.0623  0.4302 -0.0589
  605SOL     OW 2417   2.619   1.526   0.827 -0.1691  0.0427  0.0976
  605SOL    HW1 2418   2.602   1.605   0.763 -1.4542 -1.0274 -2.8749
  605SOL    HW2 2419   2.581   1.448   0.792  1.9450 -1.1240  1.3415
  605SOL     MW 2420   2.611   1.526   0.814 -0.0597 -0.2524 -0.1305
  606SOL     OW 2421   2.534   1.796   1.983  0.5358 -0.7619  0.5086
  606SOL    HW1 2422   2.442   1.797   1.972  0.3301 -1.3463  0.8448
  606SOL    HW2 2423   2.559   1.734   1.917 -0.4931 -3.0109  2.5189
  606SOL     MW 2424   2.525   1.788   1.973  0.3729 -1.1357  0.8182
  607SOL     OW 2425   2.394   1.105   3.041 -0.2880  0.8463 -0.0286
  607SOL    HW1 2426   2.475   1.094   2.991 -0.2764  1.4307 -0.3067
  607SOL    HW2 2427   2.415   1.056   3.124  0.1926  0.9674  2.7725
  607SOL     MW 2428   2.408   1.097   3.045 -0.2230  0.9394  0.3043
  608SOL     OW 2429   1.873   0.267   0.627  0.1952 -0.0042  0.3387
  608SOL    HW1 2430   1.871   0.313   0.535 -0.1348 -2.7566  0.0895
  608SOL    HW2 2431   1.823   0.181   0.626 -0.3953 -1.1969  0.1418
  608SOL     MW 2432   1.866   0.262   0.615  0.0737 -0.5247  0.2798
  609SOL     OW 2433   2.034   2.004   3.041  0.2254 -0.4278 -0.1097
  609SOL    HW1 2434   1.967   1.934   3.028  0.0562  2.5005  4.1082
  609SOL    HW2 2435   2.092   1.975   3.119 -1.4217  0.4045 -1.8845
  609SOL     MW 2436   2.033   1.991   3.050 -0.0142  0.0684  0.2126
  610SOL     OW 2437   1.762   1.011   1.302 -0.0713 -0.1286 -0.0101
  610SOL    HW1 2438   1.795   0.935   1.261 -1.9202  2.6841 -1.6768
  610SOL    HW2 2439   1.670   0.994   1.299  1.6475 -0.8391  0.7199
  610SOL     MW 2440   1.754   0.999   1.296 -0.0884  0.1488 -0.1337
  611SOL     OW 2441   2.522   1.760   0.688  0.2801 -0.6007  0.3034
  611SOL    HW1 2442   2.453   1.793   0.744  1.0070  0.2039 -1.3113
  611SOL    HW2 2443   2.480   1.785   0.610  0.4867 -3.6619  1.7017
  611SOL     MW 2444   2.507   1.768   0.685  0.4033 -0.8984  0.2748
  612SOL     OW 2445   2.792   2.825   0.414 -0.3087  0.4576  0.1796
  612SOL    HW1 2446   2.830   2.859   0.495  1.6348 -3.1909 -1.2072
  612SOL    HW2 2447   2.868   2.789   0.361  0.2802  2.0063 -1.6889
  612SOL     MW 2448   2.807   2.825   0.418  0.0254  0.1806 -0.2499
  613SOL     OW 2449   1.475   0.979   0.949 -0.1849  0.0275 -0.6891
  613SOL    HW1 2450   1.564   1.021   0.937  0.8842 -0.0787  1.0657
  613SOL    HW2 2451   1.479   0.984   1.046  0.7060  2.7827  0.1553
  613SOL     MW 2452   1.487   0.985   0.960  0.0737  0.3770 -0.3461
  614SOL     OW 2453   2.011   0.555   1.468 -0.0246 -0.3261 -0.0238
  614SOL    HW1 2454   2.000   0.486   1.537 -0.5002  1.9586  1.0922
  614SOL    HW2 2455   1.951   0.518   1.409  2.7651  0.3042  0.5626
  614SOL     MW 2456   2.001   0.541   1.470  0.2807  0.0585  0.2008
  615SOL     OW 2457   2.400   0.738   0.252  0.0579  0.4450  0.1279
  615SOL    HW1 2458   2.416   0.655   0.294  0.1852 -0.5669 -2.6670
  615SOL    HW2 2459   2.372   0.709   0.166 -2.4157 -0.8553 -0.6859
  615SOL     MW 2460   2.398   0.723   0.246 -0.2517  0.1399 -0.3482
  616SOL     OW 2461   2.498   0.405   1.638  1.1452  0.1612  0.2431
  616SOL    HW1 2462   2.454   0.327   1.595 -0.5995 -2.2329  2.5839
  616SOL    HW2 2463   2.499   0.473   1.571  0.4862 -0.4315  0.3711
  616SOL     MW 2464   2.492   0.403   1.624  0.8281 -0.2329  0.5688
  617SOL     OW 2465   2.871   0.639   1.735 -0.6089  0.6964  0.5768
  617SOL    HW1 2466   2.792   0.629   1.783 -0.9786  0.2148  0.9527
  617SOL    HW2 2467   2.869   0.557   1.684 -0.7434  1.0464 -2.7852
  617SOL     MW 2468   2.860   0.627   1.735 -0.6754  0.6791  0.1828
  618SOL     OW 2469   2.718   0.385   1.891 -0.4790 -0.5520  0.2631
  618SOL    HW1 2470   2.694   0.477   1.889 -2.7458  0.3110  3.3150
  618SOL    HW2 2471   2.787   0.387   1.958  1.6375 -0.3284 -0.1539
  618SOL     MW 2472   2.724   0.397   1.899 -0.4988 -0.4087  0.6107
  619SOL     OW 2473   2.666   0.636   0.097  0.4920  0.0709 -0.8369
  619SOL    HW1 2474   2.689   0.724   0.131  0.8131  0.3061 -1.6247
  619SOL    HW2 2475   2.616   0.581   0.159  1.2738 -0.7812 -0.0742
  619SOL     MW 2476   2.662   0.640   0.110  0.6375 -0.0105 -0.8402
  620SOL     OW 2477   2.247   1.047   1.002 -0.6453  0.2689  0.0144
  620SOL    HW1 2478   2.300   1.040   0.918 -1.4119 -0.3326 -0.2311
  620SOL    HW2 2479   2.158   1.014   0.973 -1.4922  1.9581  2.7191
  620SOL     MW 2480   2.243   1.042   0.987 -0.8582  0.4124  0.3389
  621SOL     OW 2481   1.541   2.152   1.924  0.2869  0.5661  0.0357
  621SOL    HW1 2482   1.474   2.103   1.985 -3.0262 -0.4807 -1.4870
  621SOL    HW2 2483   1.628   2.114   1.944  3.6467  2.1182 -0.3421
  621SOL     MW 2484   1.543   2.140   1.935  0.2931  0.6328 -0.2150
  622SOL     OW 2485   2.626   0.160   0.247  0.0949  0.1484 -0.1978
  622SOL    HW1 2486   2.717   0.190   0.239 -0.5309  1.3729  0.3287
  622SOL    HW2 2487   2.623   0.070   0.285 -0.6535 -0.3848  0.0163
  622SOL     MW 2488   2.638   0.152   0.251 -0.0864  0.2396 -0.1001
  623SOL     OW 2489   2.344   2.817   0.854  0.0220 -0.6883 -0.1111
  623SOL    HW1 2490   2.435   2.851   0.842 -1.9778 -1.8230 -2.7886
  623SOL    HW2 2491   2.311   2.848   0.938  0.3006 -2.5513 -3.2035
  623SOL     MW 2492   2.351   2.825   0.863 -0.2051 -1.0838 -0.8724
  624SOL     OW 2493   2.182   1.722   2.996 -0.1072 -0.1434 -0.1465
  624SOL    HW1 2494   2.155   1.636   3.027  0.3796  1.2620 -1.4860
  624SOL    HW2 2495   2.110   1.785   2.965 -1.1690  0.8549 -0.2916
  624SOL     MW 2496   2.169   1.719   2.996 -0.1831  0.1737 -0.3424
  625SOL     OW 2497   2.191   1.937   1.068  0.2504 -0.3171  0.7279
  625SOL    HW1 2498   2.264   1.919   1.125 -2.0508  0.3978 -2.1458
  625SOL    HW2 2499   2.240   1.942   0.982 -1.1120 -0.8273  0.2082
  625SOL     MW 2500   2.207   1.936   1.064 -0.2330 -0.2901  0.2802
  626SOL     OW 2501   0.302   1.606   2.353  0.3046 -0.3540 -0.3023
  626SOL    HW1 2502   0.257   1.525   2.321 -1.7147  2.8148 -1.1656
  626SOL    HW2 2503   0.287   1.678   2.289 -1.8231 -0.6086  0.0934
  626SOL     MW 2504   0.294   1.605   2.340 -0.2426  0.0305 -0.3640
  627SOL     OW 2505   2.465   0.714   2.579 -0.3517 -0.1789 -1.1491
  627SOL    HW1 2506   2.444   0.806   2.595 -4.0304 -1.2325  1.1354
  627SOL    HW2 2507   2.407   0.696   2.507 -0.4269  0.0254  0.0593
  627SOL     MW 2508   2.454   0.724   2.572 -0.8470 -0.2909 -0.6882
  628SOL     OW 2509   2.338   1.418   1.372 -0.0355 -0.0079 -0.1018
  628SOL    HW1 2510   2.291   1.361   1.313 -0.7857  0.6091  2.1801
  628SOL    HW2 2511   2.428   1.407   1.348  1.2735 -2.3798 -1.3467
  628SOL     MW 2512   2.344   1.409   1.361  0.0382 -0.2394  0.0350
  629SOL     OW 2513   1.860   0.515   1.227  0.0138 -0.2323  0.5966
  629SOL    HW1 2514   1.851   0.606   1.195  1.9146 -0.4214 -1.5569
  629SOL    HW2 2515   1.765   0.490   1.237 -3.3261 -1.6860  0.0674
  629SOL     MW 2516   1.846   0.524   1.224 -0.1761 -0.4490  0.2426
  630SOL     OW 2517   2.441   1.841   2.970 -0.5225  0.4541  0.2464
  630SOL    HW1 2518   2.422   1.938   2.952 -1.9804 -0.6327 -1.1851
  630SOL    HW2 2519   2.353   1.802   2.985 -0.4610 -1.8388 -0.6126
  630SOL     MW 2520   2.427   1.849   2.970 -0.7068  0.0082 -0.0558
  631SOL     OW 2521   1.987   1.811   1.571  0.2022 -0.1757  0.9390
  631SOL    HW1 2522   1.996   1.731   1.624  1.1183 -3.1130 -0.7569
  631SOL    HW2 2523   1.977   1.788   1.479  2.0737 -1.0382 -1.2652
  631SOL     MW 2524   1.987   1.797   1.566  0.5700 -0.6770  0.4244
  632SOL     OW 2525   0.175   1.966   1.432  0.3354  0.3169 -0.4147
  632SOL    HW1 2526   0.168   1.971   1.526  2.4273 -0.9655 -1.4442
  632SOL    HW2 2527   0.184   1.867   1.412 -1.2943 -2.9010 -0.7054
  632SOL     MW 2528   0.176   1.953   1.442  0.3964 -0.2769 -0.5889
  633SOL     OW 2529   2.567   0.493   0.327 -0.2930 -0.2621 -0.0274
  633SOL    HW1 2530   2.609   0.521   0.406 -1.3168 -0.2862 -0.3201
  633SOL    HW2 2531   2.580   0.400   0.339 -1.1847 -1.7940 -0.2902
  633SOL     MW 2532   2.574   0.485   0.339 -0.5457 -0.4674 -0.1007
  634SOL     OW 2533   2.661   0.007   0.644 -0.5668  0.5912  0.7382
  634SOL    HW1 2534   2.725   0.077   0.627  0.0622  0.2722  1.5769
  634SOL    HW2 2535   2.631  -0.037   0.564 -2.2366  2.1770  2.3306
  634SOL     MW 2536   2.665   0.011   0.631 -0.7041  0.7583  1.0589
  635SOL     OW 2537   2.613   0.133   1.835 -0.2436 -0.6118  0.3604
  635SOL    HW1 2538   2.666   0.093   1.766  2.6814  2.9780  2.5122
  635SOL    HW2 2539   2.644   0.224   1.848 -1.7909  4.2799  0.0191
  635SOL     MW 2540   2.624   0.140   1.827 -0.0618  0.5072  0.5993
  636SOL     OW 2541   2.843   1.604   1.081 -0.1906 -0.2664 -0.4884
  636SOL    HW1 2542   2.769   1.665   1.083  0.2493 -1.1394 -1.8824
  636SOL    HW2 2543   2.918   1.659   1.115 -1.6192 -0.7949  0.1202
  636SOL     MW 2544   2.843   1.619   1.086 -0.3211 -0.4513 -0.5920
  637SOL     OW 2545   2.872   1.443   0.755  0.0513 -0.2102 -0.1904
  637SOL    HW1 2546   2.914   1.526   0.725  0.8896 -1.0297  3.2663
  637SOL    HW2 2547   2.817   1.469   0.829 -0.1081 -2.2298  1.9409
  637SOL     MW 2548   2.870   1.458   0.761  0.1409 -0.5848  0.5469
  638SOL     OW 2549   2.731   0.512   0.573 -0.5454  0.2398  0.4953
  638SOL    HW1 2550   2.807   0.547   0.523 -0.4634  1.1806 -1.7407
  638SOL    HW2 2551   2.754   0.535   0.666 -0.1750  0.3054 -0.2849
  638SOL     MW 2552   2.744   0.520   0.578 -0.4857  0.3726  0.0974
  639SOL     OW 2553   1.758   0.030   0.616  0.2328 -0.2975 -0.0304
  639SOL    HW1 2554   1.682   0.065   0.575  0.6631 -1.3083  1.0549
  639SOL    HW2 2555   1.791  -0.042   0.555  0.5763 -1.3033 -1.7076
  639SOL     MW 2556   1.752   0.025   0.602  0.3349 -0.5636 -0.1085
  640SOL     OW 2557   0.351   1.296   0.131 -0.1596 -0.0200  0.4237
  640SOL    HW1 2558   0.365   1.303   0.034 -1.3084 -2.2690 -1.1770
  640SOL    HW2 2559   0.299   1.215   0.146 -2.1391 -1.1313  0.0570
  640SOL     MW 2560   0.346   1.286   0.121 -0.5723 -0.4634  0.1641
  641SOL     OW 2561   2.163   0.399   0.363 -0.1595 -0.2951  0.2606
  641SOL    HW1 2562   2.219   0.386   0.282  2.1643 -0.5681 -0.6165
  641SOL    HW2 2563   2.224   0.371   0.433  1.5293 -1.8293  1.7174
  641SOL     MW 2564   2.178   0.393   0.362  0.3699 -0.5335  0.3371
  642SOL     OW 2565   0.087   3.074   0.571  0.4356  0.2573 -0.1174
  642SOL    HW1 2566   0.057   3.155   0.522 -0.9098  1.0469 -0.0302
  642SOL    HW2 2567  -0.003   3.038   0.597 -1.1427  1.6000 -1.7709
  642SOL     MW 2568   0.071   3.080   0.568  0.0498  0.5386 -0.3240
  643SOL     OW 2569   1.988   0.338   1.619 -0.5620 -0.1194 -0.2974
  643SOL    HW1 2570   1.937   0.277   1.673 -1.9103  1.1411  2.3247
  643SOL    HW2 2571   2.023   0.285   1.540  1.0987  0.2378 -1.0453
  643SOL     MW 2572   1.985   0.323   1.616 -0.5208  0.0940 -0.0501
  644SOL     OW 2573   2.749   2.031   1.045  0.0980 -0.3144  0.0197
  644SOL    HW1 2574   2.721   1.953   1.092 -0.0766  1.6430  1.2240
  644SOL    HW2 2575   2.667   2.076   1.014 -0.4282  1.6243 -3.4969
  644SOL     MW 2576   2.734   2.027   1.047  0.0055  0.1997 -0.2854
  645SOL     OW 2577   2.852   0.827   0.647 -0.0598 -0.0660 -0.4598
  645SOL    HW1 2578   2.945   0.809   0.660  1.3229 -1.8547  0.5667
  645SOL    HW2 2579   2.811   0.780   0.716 -0.0925 -0.0769  0.9074
  645SOL     MW 2580   2.859   0.819   0.658  0.1183 -0.3034 -0.1439
  646SOL     OW 2581   0.149   2.317   0.814 -0.6315  0.8064 -0.1985
  646SOL    HW1 2582   0.152   2.223   0.853 -2.9345 -0.7720 -1.3582
  646SOL    HW2 2583   0.099   2.310   0.732  1.3609 -0.3446  1.9129
  646SOL     MW 2584   0.143   2.304   0.808 -0.6725  0.4463 -0.0729
  647SOL     OW 2585   2.664   0.471   2.946  0.0970 -0.0769 -0.5371
  647SOL    HW1 2586   2.635   0.402   3.009  1.6711 -0.4514 -1.3245
  647SOL    HW2 2587   2.641   0.556   2.979 -0.8923 -0.4444 -1.7445
  647SOL     MW 2588   2.657   0.473   2.959  0.1742 -0.1748 -0.8003
  648SOL     OW 2589   2.080   0.742   1.200 -0.2497  0.2136 -0.2690
  648SOL    HW1 2590   2.144   0.691   1.151  0.2617 -1.9095 -2.0629
  648SOL    HW2 2591   2.122   0.821   1.213  0.8170 -4.2982 -0.5757
  648SOL     MW 2592   2.094   0.746   1.196 -0.0415 -0.6618 -0.5461
  649SOL     OW 2593   2.386   2.670   1.266  0.2550  0.0090  0.0069
  649SOL    HW1 2594   2.440   2.731   1.318  2.7317  2.1959  0.6840
  649SOL    HW2 2595   2.423   2.585   1.268 -0.2677 -2.4277 -0.1962
  649SOL     MW 2596   2.398   2.667   1.273  0.5128 -0.0239  0.0694
  650SOL     OW 2597   2.844   0.213   0.630  0.1635  0.2911 -0.4486
  650SOL    HW1 2598   2.821   0.305   0.623  1.0269  1.0632  3.3189
  650SOL    HW2 2599   2.918   0.188   0.576 -0.2706 -4.3811 -0.6637
  650SOL     MW 2600   2.850   0.221   0.622  0.2201 -0.2235  0.0201
  651SOL     OW 2601   2.995   0.421   0.903  0.6817  0.0224  0.5089
  651SOL    HW1 2602   3.045   0.455   0.832  0.5503 -0.0131  0.8325
  651SOL    HW2 2603   2.992   0.493   0.965 -0.1546  1.5783 -1.2581
  651SOL     MW 2604   3.001   0.435   0.902  0.5541  0.2230  0.3184
  652SOL     OW 2605   2.461   1.494   2.988  0.5129 -0.0602  0.5168
  652SOL    HW1 2606   2.534   1.495   2.920 -0.8930 -2.5021 -3.7946
  652SOL    HW2 2607   2.444   1.589   2.995 -3.2442  4.1384  0.6365
  652SOL     MW 2608   2.468   1.507   2.980 -0.1683  0.1716 -0.0363
  653SOL     OW 2609   1.814   0.411   0.406 -0.8318 -0.2835 -0.1545
  653SOL    HW1 2610   1.770   0.351   0.347 -1.1073  2.7480 -0.9457
  653SOL    HW2 2611   1.898   0.437   0.368  1.3279  2.9591  2.0667
  653SOL     MW 2612   1.819   0.406   0.393 -0.5832  0.5443  0.0342
  654SOL     OW 2613   2.395   1.029   0.779  0.4032 -0.5502  0.0890
  654SOL    HW1 2614   2.342   1.023   0.697  0.6577 -0.0144  0.0659
  654SOL    HW2 2615   2.440   0.948   0.800 -1.5020  2.5986  2.2199
  654SOL     MW 2616   2.394   1.018   0.771  0.1854 -0.0641  0.3671
  655SOL     OW 2617   2.911   0.830   0.355  0.3824  0.4380  0.3143
  655SOL    HW1 2618   2.896   0.853   0.446 -0.6961  0.1586  1.0943
  655SOL    HW2 2619   2.939   0.737   0.369 -3.6031  0.7614 -0.9556
  655SOL     MW 2620   2.913   0.820   0.369 -0.2857  0.4438  0.2497
  656SOL     OW 2621   1.878   2.723   1.340  0.0539  0.4249 -0.2406
  656SOL    HW1 2622   1.926   2.805   1.350  0.8053 -1.1527 -0.1627
  656SOL    HW2 2623   1.917   2.668   1.407  0.0287  1.6171 -5.1532
  656SOL     MW 2624   1.890   2.727   1.350  0.1497  0.3741 -0.8785
  657SOL     OW 2625   0.141   1.741   1.173  1.0209  0.1751 -0.2012
  657SOL    HW1 2626   0.209   1.796   1.135 -0.8579  3.5525  1.9793
  657SOL    HW2 2627   0.176   1.654   1.181 -0.2098  1.1039 -2.4368
  657SOL     MW 2628   0.155   1.736   1.169  0.6107  0.7433 -0.2085
  658SOL     OW 2629   2.700   1.365   0.243 -0.4649  0.1697  0.5164
  658SOL    HW1 2630   2.658   1.284   0.295 -0.6271  1.6062  0.4712
  658SOL    HW2 2631   2.716   1.423   0.317  2.1315 -0.7789 -0.7880
  658SOL     MW 2632   2.697   1.362   0.259 -0.1438  0.2341  0.3383
  659SOL     OW 2633   2.290   1.530   1.075 -0.0765  0.2493  0.0491
  659SOL    HW1 2634   2.379   1.529   1.119  1.3618 -0.0635  2.5765
  659SOL    HW2 2635   2.237   1.563   1.153  0.9327  1.9285 -1.5901
  659SOL     MW 2636   2.295   1.534   1.091  0.2464  0.4296  0.1663
  660SOL     OW 2637   2.019   1.577   1.694 -0.1306  0.1134 -0.2217
  660SOL    HW1 2638   2.032   1.575   1.791 -0.1998 -2.6484 -1.1935
  660SOL    HW2 2639   1.941   1.519   1.677  2.7176 -1.0905  0.5710
  660SOL     MW 2640   2.010   1.569   1.705  0.2361 -0.4098 -0.2453
  661SOL     OW 2641   2.433   1.006   0.192  0.4710  0.4790 -0.3485
  661SOL    HW1 2642   2.508   1.048   0.236  0.1679 -0.3228  0.3879
  661SOL    HW2 2643   2.430   0.913   0.231 -1.4969 -0.7724  1.8713
  661SOL     MW 2644   2.443   0.999   0.203  0.1714  0.2081  0.0415
  662SOL     OW 2645   2.563   2.961   0.858 -0.1499  0.5079  0.2318
  662SOL    HW1 2646   2.530   3.038   0.906  0.3817  0.1451 -1.3331
  662SOL    HW2 2647   2.607   3.006   0.786 -0.1189  0.0694  0.7395
  662SOL     MW 2648   2.564   2.977   0.855 -0.0757  0.4021  0.0923
  663SOL     OW 2649   2.669   1.488   0.507 -0.7729  0.0577 -0.0201
  663SOL    HW1 2650   2.649   1.569   0.468  0.6442 -1.7524  1.9195
  663SOL    HW2 2651   2.737   1.512   0.568  0.2814 -1.2672  1.0882
  663SOL     MW 2652   2.676   1.502   0.510 -0.4469 -0.3559  0.3820
  664SOL     OW 2653   2.533   1.520   1.572  0.2026 -0.1699 -0.1194
  664SOL    HW1 2654   2.495   1.609   1.566  1.0426 -1.9467 -1.9186
  664SOL    HW2 2655   2.462   1.460   1.598 -0.5232 -1.0129 -3.2670
  664SOL     MW 2656   2.519   1.524   1.575  0.2177 -0.5155 -0.7721
  665SOL     OW 2657   2.854   0.858   2.025 -0.0789  0.0984 -0.3167
  665SOL    HW1 2658   2.834   0.898   1.938  0.1067  1.1092  3.4401
  665SOL    HW2 2659   2.931   0.803   2.008 -2.9903 -1.3416 -2.6973
  665SOL     MW 2660   2.861   0.856   2.011 -0.4386  0.0418 -0.1351
  666SOL     OW 2661   2.756   3.014   1.706 -0.0147  0.3901  0.1452
  666SOL    HW1 2662   2.762   3.024   1.612  0.4483  2.9799  0.2527
  666SOL    HW2 2663   2.727   2.927   1.727 -0.0247  3.3688 -1.3281
  666SOL     MW 2664   2.753   3.004   1.696  0.0451  1.1248 -0.0350
  667SOL     OW 2665   1.944   2.704   1.759  0.5304 -0.4117  0.3542
  667SOL    HW1 2666   1.961   2.684   1.852  2.4908 -0.4389 -1.2445
  667SOL    HW2 2667   2.022   2.754   1.728  0.3763  0.7723 -1.1116
  667SOL     MW 2668   1.956   2.708   1.768  0.7687 -0.2591 -0.0502
  668SOL     OW 2669   2.756   0.654   0.831 -0.0113 -0.0410 -0.3104
  668SOL    HW1 2670   2.796   0.661   0.920  1.7110  0.4420 -0.4747
  668SOL    HW2 2671   2.669   0.687   0.847  4.4108 -1.6830  0.6515
  668SOL     MW 2672   2.750   0.659   0.844  0.7994 -0.1939 -0.2052
  669SOL     OW 2673   0.216   0.966   0.682 -0.6871 -0.0993  0.2207
  669SOL    HW1 2674   0.172   1.015   0.752 -1.7541  1.9769  2.1282
  669SOL    HW2 2675   0.310   0.989   0.706 -1.4679 -1.6187 -2.0429
  669SOL     MW 2676   0.223   0.975   0.695 -0.9309 -0.0258  0.1737
  670SOL     OW 2677   2.898   0.221   0.202 -0.4308 -0.1101 -0.5563
  670SOL    HW1 2678   2.906   0.157   0.126 -1.3462 -1.7449  2.1918
  670SOL    HW2 2679   2.887   0.306   0.158  0.6644  2.1558  0.3249
  670SOL     MW 2680   2.897   0.224   0.187 -0.4071 -0.0268 -0.0775
  671SOL     OW 2681   2.020   2.988   1.507  0.1369  0.5746  0.4135
  671SOL    HW1 2682   1.958   2.989   1.435 -0.1092 -1.0350 -0.1682
  671SOL    HW2 2683   1.977   3.039   1.579  3.5316 -0.0564  1.6699
  671SOL     MW 2684   2.007   2.995   1.507  0.5524  0.2790  0.5025
  672SOL     OW 2685   1.907   1.688   1.303 -0.2078  0.8491  0.1569
  672SOL    HW1 2686   1.827   1.741   1.318 -1.9360  0.1494 -2.1800
  672SOL    HW2 2687   1.936   1.723   1.214  1.4048  0.2501 -1.7168
  672SOL     MW 2688   1.900   1.700   1.294 -0.2230  0.6778 -0.3986
  673SOL     OW 2689   2.774   1.102   0.574 -0.7126  0.2173 -0.2607
  673SOL    HW1 2690   2.782   1.010   0.603  2.6715  1.6740 -0.0624
  673SOL    HW2 2691   2.855   1.148   0.606  3.0222  1.2906 -1.2846
  673SOL     MW 2692   2.786   1.096   0.582  0.2267  0.5511 -0.3697
  674SOL     OW 2693   2.438   0.031   1.288  0.2046 -0.8253 -0.9150
  674SOL    HW1 2694   2.425   0.030   1.193  1.8720  1.8570  0.7732
  674SOL    HW2 2695   2.416  -0.054   1.322  0.1493 -0.8089 -1.6163
  674SOL     MW 2696   2.433   0.020   1.280  0.4173 -0.4692 -0.7848
  675SOL     OW 2697   3.059   0.881   1.074  0.3090  0.1645  0.1837
  675SOL    HW1 2698   3.139   0.859   1.127 -1.5585  1.1606 -2.4128
  675SOL    HW2 2699   3.088   0.938   1.003 -0.1560  0.4222  0.8029
  675SOL     MW 2700   3.073   0.885   1.071  0.0013  0.3299 -0.0772
  676SOL     OW 2701   2.879   1.519   1.644  0.4806 -0.1275  0.3342
  676SOL    HW1 2702   2.856   1.426   1.637 -0.1249 -2.0632  1.7859
  676SOL    HW2 2703   2.963   1.492   1.674 -1.2259 -0.8439 -0.2076
  676SOL     MW 2704   2.887   1.503   1.647  0.1756 -0.4774  0.4543
  677SOL     OW 2705   2.415   0.560   1.992  0.4728 -0.6151  0.7591
  677SOL    HW1 2706   2.361   0.518   1.922 -1.4831  2.4034 -2.2965
  677SOL    HW2 2707   2.370   0.640   2.008 -0.0438 -2.3418 -0.4378
  677SOL     MW 2708   2.402   0.565   1.985  0.1466 -0.4446  0.1980
  678SOL     OW 2709   2.580   1.670   0.310  0.3995  0.3518 -0.1975
  678SOL    HW1 2710   2.505   1.720   0.353 -1.6896  2.4879 -0.5349
  678SOL    HW2 2711   2.525   1.604   0.265 -1.4342 -1.0425 -2.3463
  678SOL     MW 2712   2.563   1.668   0.310 -0.1181  0.4497 -0.5256
  679SOL     OW 2713   2.237   0.474   1.241 -0.5280 -0.3611  0.4299
  679SOL    HW1 2714   2.220   0.383   1.212 -0.7730 -0.5408 -2.0369
  679SOL    HW2 2715   2.147   0.505   1.243 -1.2687 -1.6920 -0.9597
  679SOL     MW 2716   2.223   0.466   1.237 -0.6581 -0.5604 -0.0789
  680SOL     OW 2717   2.336   0.180   1.519 -0.4845 -0.1775 -0.0858
  680SOL    HW1 2718   2.242   0.169   1.491  3.4897  0.6225  2.1513
  680SOL    HW2 2719   2.380   0.138   1.449 -3.3947  0.2918  1.9861
  680SOL     MW 2720   2.329   0.173   1.506 -0.3441 -0.0100  0.4827
  681SOL     OW 2721   0.290   0.561   1.548  0.3073 -0.3993 -0.3363
  681SOL    HW1 2722   0.271   0.484   1.601  1.0393  2.6149 -3.3196
  681SOL    HW2 2723   0.383   0.580   1.559 -0.4562  0.8697  2.7375
  681SOL     MW 2724   0.300   0.553   1.556  0.3031  0.1658 -0.3243
  682SOL     OW 2725   0.070   2.888   1.497 -0.0864  0.1212  0.1328
  682SOL    HW1 2726   0.141   2.954   1.489  1.1645 -0.8853  0.8274
  682SOL    HW2 2727  -0.005   2.916   1.551 -1.1295 -0.1398  0.9515
  682SOL     MW 2728   0.070   2.901   1.503 -0.0590 -0.0460  0.3325
  683SOL     OW 2729   2.038   0.827   2.991 -0.0826 -0.1664  0.3448
  683SOL    HW1 2730   1.957   0.774   2.989  0.0855 -1.8124  3.1281
  683SOL    HW2 2731   2.019   0.917   3.014  0.2842  0.1648 -1.3984
  683SOL     MW 2732   2.025   0.832   2.994 -0.0120 -0.3399  0.4820
  684SOL     OW 2733   2.217   1.681   0.835 -0.0205  0.2310 -0.7335
  684SOL    HW1 2734   2.164   1.628   0.774 -0.7743 -1.3938 -0.8220
  684SOL    HW2 2735   2.251   1.615   0.899  1.1432 -0.6241 -0.7804
  684SOL     MW 2736   2.215   1.665   0.835  0.0336 -0.0962 -0.7514
  685SOL     OW 2737   2.637   1.740   1.201 -0.1494 -0.3536 -0.2559
  685SOL    HW1 2738   2.698   1.714   1.271 -0.1249  0.3092 -0.2050
  685SOL    HW2 2739   2.600   1.662   1.158 -0.6127  0.4386  0.4982
  685SOL     MW 2740   2.640   1.727   1.205 -0.2073 -0.1616 -0.1497
  686SOL     OW 2741   2.895   0.781   1.510 -0.1130  0.1613 -0.1569
  686SOL    HW1 2742   2.885   0.752   1.602  0.3388  3.6645 -0.1205
  686SOL    HW2 2743   2.989   0.782   1.503 -0.4052  1.6079  3.8771
  686SOL     MW 2744   2.906   0.777   1.521 -0.0919  0.8144  0.3802
  687SOL     OW 2745   2.125   0.232   1.143  0.5495 -0.1026  0.4431
  687SOL    HW1 2746   2.143   0.153   1.088 -0.0721  0.4555 -0.4409
  687SOL    HW2 2747   2.053   0.271   1.092  1.0170 -1.8380 -2.0138
  687SOL     MW 2748   2.118   0.227   1.129  0.5292 -0.2580  0.0023
  688SOL     OW 2749   2.390   0.583   1.447  0.1791  0.0229  0.4273
  688SOL    HW1 2750   2.352   0.506   1.396  0.5095 -2.5530 -2.5490
  688SOL    HW2 2751   2.319   0.626   1.499  0.3206  3.1094  2.2371
  688SOL     MW 2752   2.376   0.579   1.447  0.2414  0.0902  0.2734
  689SOL     OW 2753   2.525   0.752   2.995 -0.0871  0.4654  0.6546
  689SOL    HW1 2754   2.547   0.838   2.959  0.9692 -1.1425 -0.6903
  689SOL    HW2 2755   2.563   0.730   3.077 -2.6033  0.2691 -3.4530
  689SOL     MW 2756   2.533   0.760   3.001 -0.2797  0.2274 -0.0648
  690SOL     OW 2757   2.041   0.947   1.896 -0.1016 -0.3609 -0.0265
  690SOL    HW1 2758   2.013   0.853   1.913 -2.2375 -0.9701  0.3560
  690SOL    HW2 2759   2.062   0.944   1.800  2.2464 -3.3119 -1.7629
  690SOL     MW 2760   2.040   0.934   1.886 -0.0737 -0.8306 -0.2052
  691SOL     OW 2761   2.389   0.288   0.899 -0.1593  0.4970  0.1118
  691SOL    HW1 2762   2.469   0.334   0.921 -0.3323  1.0587  1.7003
  691SOL    HW2 2763   2.318   0.354   0.893  1.1501  3.0640  0.1539
  691SOL     MW 2764   2.390   0.303   0.901 -0.0094  0.9098  0.3269
  692SOL     OW 2765   2.824   1.697   1.439  0.7295  0.1179 -0.8924
  692SOL    HW1 2766   2.817   1.636   1.516  1.4275 -0.3917  0.2121
  692SOL    HW2 2767   2.870   1.777   1.475  0.6360  3.9880 -3.2024
  692SOL     MW 2768   2.829   1.700   1.454  0.8093  0.5613 -1.0514
  693SOL     OW 2769   2.290   0.410   0.105  0.6011 -0.2687  0.4481
  693SOL    HW1 2770   2.199   0.376   0.094  0.1649  0.7502 -0.0517
  693SOL    HW2 2771   2.278   0.495   0.075  2.2566 -2.8206 -0.9122
  693SOL     MW 2772   2.277   0.417   0.100  0.7620 -0.4710  0.2027
  694SOL     OW 2773   1.941   1.187   1.149  0.4869 -0.3550  0.9433
  694SOL    HW1 2774   2.031   1.213   1.148 -1.3744 -0.3428  0.0249
  694SOL    HW2 2775   1.925   1.144   1.229  1.0271 -0.5769  0.1233
  694SOL     MW 2776   1.951   1.185   1.159  0.3126 -0.3827  0.7139
  695SOL     OW 2777   3.013   1.488   1.340 -0.1852  0.5376 -0.0199
  695SOL    HW1 2778   2.983   1.434   1.265 -0.8870 -1.5643  1.3044
  695SOL    HW2 2779   2.934   1.541   1.348  1.5171 -0.4782 -2.5435
  695SOL     MW 2780   2.998   1.488   1.331 -0.0532  0.1263 -0.1781
  696SOL     OW 2781   2.156   1.356   0.861  0.1181 -0.8223 -0.6936
  696SOL    HW1 2782   2.191   1.380   0.940 -2.9539 -2.3863 -2.1854
  696SOL    HW2 2783   2.077   1.303   0.877 -1.9227  0.7943  2.7168
  696SOL     MW 2784   2.150   1.352   0.874 -0.5565 -0.8154 -0.4405
  697SOL     OW 2785   2.929   1.060   2.184  0.0723 -0.3159  0.4749
  697SOL    HW1 2786   2.852   1.126   2.199 -0.5787  3.5187 -3.7346
  697SOL    HW2 2787   2.896   0.985   2.138  2.2621  0.6088  0.9130
  697SOL     MW 2788   2.915   1.059   2.180  0.2753  0.3121 -0.0227
  698SOL     OW 2789   2.517   0.295   0.019 -0.4883  0.1059 -0.2192
  698SOL    HW1 2790   2.428   0.324   0.046  0.4412  0.5376  1.1410
  698SOL    HW2 2791   2.552   0.240   0.093 -1.6054  1.1585 -1.6259
  698SOL     MW 2792   2.510   0.292   0.032 -0.5131  0.3017 -0.2253
  699SOL     OW 2793   1.824   1.636   2.021  0.1672  0.4031  0.3722
  699SOL    HW1 2794   1.813   1.537   2.040 -0.6600 -1.7554 -1.6554
  699SOL    HW2 2795   1.907   1.622   1.967 -0.0878 -1.5151  1.8239
  699SOL     MW 2796   1.834   1.621   2.017  0.0244 -0.1348  0.2962
  700SOL     OW 2797   2.668   0.960   1.486 -0.7116  0.6215 -0.0490
  700SOL    HW1 2798   2.735   1.007   1.434  0.4159 -0.8797  0.5529
  700SOL    HW2 2799   2.706   0.869   1.495 -1.0558 -0.6553 -0.2243
  700SOL     MW 2800   2.681   0.954   1.480 -0.6082  0.2550  0.0073
  701SOL     OW 2801   1.629   1.196   2.488  0.3809 -0.3100 -0.3287
  701SOL    HW1 2802   1.716   1.224   2.468 -1.6640 -2.1012 -2.6226
  701SOL    HW2 2803   1.591   1.254   2.555  1.4173  2.9104  0.2607
  701SOL     MW 2804   1.635   1.208   2.494  0.2478 -0.1214 -0.5536
  702SOL     OW 2805   2.166   0.428   0.826  0.2782  0.5537 -0.6008
  702SOL    HW1 2806   2.145   0.341   0.776 -1.8652  2.0342 -1.0684
  702SOL    HW2 2807   2.197   0.499   0.771  1.0085 -0.1583 -0.2009
  702SOL     MW 2808   2.167   0.426   0.812  0.0918  0.6551 -0.6097
  703SOL     OW 2809   2.753   1.235   1.014  0.0428 -0.3725  0.5682
  703SOL    HW1 2810   2.702   1.231   0.935 -1.2901 -0.2711  0.0563
  703SOL    HW2 2811   2.766   1.137   1.045  2.3149 -1.9527 -1.2538
  703SOL     MW 2812   2.748   1.221   1.008  0.1668 -0.5676  0.2602
  704SOL     OW 2813   3.056   1.227   0.157 -0.0280 -0.7377 -1.2425
  704SOL    HW1 2814   2.980   1.202   0.113 -0.0415  0.1389  2.5093
  704SOL    HW2 2815   3.023   1.213   0.245 -4.8977  0.8772  0.2403
  704SOL     MW 2816   3.042   1.222   0.163 -0.6723 -0.4090 -0.5518
  705SOL     OW 2817   2.194   1.650   1.311 -0.6084  0.6321 -0.6965
  705SOL    HW1 2818   2.108   1.622   1.320 -2.6584 -0.7986  0.2681
  705SOL    HW2 2819   2.250   1.586   1.361  1.4494 -1.6414  0.4712
  705SOL     MW 2820   2.190   1.638   1.319 -0.6074  0.1434 -0.4152
  706SOL     OW 2821   2.984   1.216   0.677 -0.1150  0.4143  0.1650
  706SOL    HW1 2822   3.033   1.243   0.593 -2.0975  2.2486 -3.4959
  706SOL    HW2 2823   2.943   1.297   0.708  1.0598 -0.8823  0.2426
  706SOL     MW 2824   2.985   1.230   0.670 -0.2216  0.4852 -0.3077
  707SOL     OW 2825   2.428   0.038   1.011 -0.1994  0.2423  0.8359
  707SOL    HW1 2826   2.417   0.129   0.998  0.3957 -0.9993 -1.8806
  707SOL    HW2 2827   2.346  -0.003   0.970  0.3908 -2.0988 -1.2521
  707SOL     MW 2828   2.416   0.045   1.004 -0.0430 -0.2304  0.2020
  708SOL     OW 2829   2.451   1.448   0.163 -0.7099 -0.2276  0.2952
  708SOL    HW1 2830   2.540   1.419   0.189  1.7704  1.2348  1.2781
  708SOL    HW2 2831   2.468   1.459   0.068 -1.9734 -0.2689 -0.7663
  708SOL     MW 2832   2.465   1.445   0.154 -0.5494 -0.0401  0.2849
  709SOL     OW 2833   1.770   1.628   0.193  0.1172  0.4465  0.2852
  709SOL    HW1 2834   1.749   1.623   0.094  1.1474  1.2293  0.1983
  709SOL    HW2 2835   1.695   1.678   0.222 -0.5442  0.2280 -2.5388
  709SOL     MW 2836   1.758   1.634   0.184  0.1659  0.5209 -0.0989
  710SOL     OW 2837   2.201   1.246   1.203 -0.1886  0.0757 -0.3777
  710SOL    HW1 2838   2.231   1.188   1.129 -0.8169  0.0585 -2.3589
  710SOL    HW2 2839   2.201   1.184   1.280 -0.7239 -0.8860 -0.2041
  710SOL     MW 2840   2.205   1.230   1.203 -0.3421 -0.0535 -0.6162
  711SOL     OW 2841   2.354   0.119   1.788  0.0505  0.1836 -0.3389
  711SOL    HW1 2842   2.448   0.126   1.809  0.2339  0.2727  3.1562
  711SOL    HW2 2843   2.331   0.143   1.697 -1.1190 -2.0519 -2.6937
  711SOL     MW 2844   2.363   0.123   1.779 -0.0796 -0.0996 -0.1885
  712SOL     OW 2845   1.942   0.526   0.075 -0.1344  0.1116  1.0617
  712SOL    HW1 2846   1.881   0.532  -0.002 -0.1057 -0.0159 -1.7424
  712SOL    HW2 2847   1.957   0.625   0.095  1.0772  2.8549  0.7150
  712SOL     MW 2848   1.936   0.540   0.068  0.0293  0.4567  0.6460
  713SOL     OW 2849   2.552   0.843   1.092  0.0585  0.0499 -0.7060
  713SOL    HW1 2850   2.546   0.771   1.155  1.3277  0.4013 -2.0491
  713SOL    HW2 2851   2.546   0.916   1.158 -0.9755  2.3193  0.6122
  713SOL     MW 2852   2.550   0.843   1.109  0.0895  0.3957 -0.7093
  714SOL     OW 2853   2.215   0.232   2.007  0.0917 -0.0566  0.1217
  714SOL    HW1 2854   2.245   0.189   2.087 -1.9075  1.4409 -1.5932
  714SOL    HW2 2855   2.294   0.230   1.952  0.8398 -2.2543  0.7630
  714SOL     MW 2856   2.229   0.226   2.011 -0.0734 -0.1490 -0.0199
  715SOL     OW 2857   1.737   1.942   1.652  0.5059 -0.2827 -0.4414
  715SOL    HW1 2858   1.818   1.906   1.614  1.9266 -2.2073 -2.0034
  715SOL    HW2 2859   1.701   1.878   1.718 -1.1816 -0.4196  1.2138
  715SOL     MW 2860   1.743   1.929   1.656  0.4707 -0.5547 -0.4291
  716SOL     OW 2861   2.323   0.626   0.690 -0.2450 -0.3424  0.4872
  716SOL    HW1 2862   2.364   0.542   0.666 -0.6745 -0.1355  0.6887
  716SOL    HW2 2863   2.265   0.660   0.620  0.8313 -0.0439 -0.5676
  716SOL     MW 2864   2.320   0.619   0.678 -0.1597 -0.2757  0.3746
  717SOL     OW 2865   2.875   1.545   2.934 -0.2529  0.3044  0.0705
  717SOL    HW1 2866   2.959   1.546   2.981  1.5968 -0.0185 -0.8389
  717SOL    HW2 2867   2.804   1.592   2.981 -0.8320 -1.5534  0.5049
  717SOL     MW 2868   2.877   1.552   2.947 -0.0852  0.0167  0.0078
  718SOL     OW 2869   2.683   1.390   1.329  0.4790 -0.1535  0.1446
  718SOL    HW1 2870   2.686   1.402   1.424  0.8874 -0.7488 -0.7160
  718SOL    HW2 2871   2.736   1.305   1.316  1.2468 -0.2549  0.4314
  718SOL     MW 2872   2.690   1.380   1.340  0.6342 -0.2454  0.0689
  719SOL     OW 2873   2.178   1.280   0.591 -0.2088  0.1306 -0.3311
  719SOL    HW1 2874   2.272   1.298   0.591  1.8552 -0.8665  0.9265
  719SOL    HW2 2875   2.165   1.284   0.688 -0.6614  0.8911 -0.0165
  719SOL     MW 2876   2.189   1.283   0.604  0.0038  0.0994 -0.1237
  720SOL     OW 2877   2.783   1.204   0.020 -0.7952  0.2468 -0.4440
  720SOL    HW1 2878   2.780   1.119   0.059 -4.0232 -0.9145 -0.0294
  720SOL    HW2 2879   2.764   1.264   0.094 -0.1152  3.1085  1.1141
  720SOL     MW 2880   2.780   1.201   0.035 -1.1314  0.4712 -0.1837
  721SOL     OW 2881   2.453   0.867   1.365  0.1763 -0.2093  0.4662
  721SOL    HW1 2882   2.439   0.774   1.377  0.9599  0.9554  1.6248
  721SOL    HW2 2883   2.533   0.898   1.421  1.5515  0.9393 -1.4093
  721SOL     MW 2884   2.462   0.859   1.374  0.4611  0.0959  0.3716
  722SOL     OW 2885   2.598   1.157   0.384  0.5746 -0.4660  0.0888
  722SOL    HW1 2886   2.530   1.169   0.454 -2.0580 -1.4276  0.3450
  722SOL    HW2 2887   2.677   1.127   0.436 -2.7438  1.1478  1.5337
  722SOL     MW 2888   2.599   1.155   0.400 -0.2106 -0.3799  0.3133
  723SOL     OW 2889   2.244   1.399   1.619 -0.3668 -0.3695  0.1186
  723SOL    HW1 2890   2.259   1.392   1.520  0.2437  0.5229 -0.1477
  723SOL    HW2 2891   2.188   1.478   1.624  1.3941  2.9374 -2.4932
  723SOL     MW 2892   2.239   1.408   1.607 -0.0539  0.1845 -0.2611
  724SOL     OW 2893   2.442   0.394   0.642  0.0169 -0.2364 -0.0515
  724SOL    HW1 2894   2.427   0.324   0.702 -1.5456  0.8356  0.2169
  724SOL    HW2 2895   2.535   0.415   0.651  0.8179 -0.3793  0.0442
  724SOL     MW 2896   2.453   0.387   0.651 -0.0836 -0.1138 -0.0035
  725SOL     OW 2897   2.576   0.566   1.207 -0.3712  0.5892  0.4010
  725SOL    HW1 2898   2.661   0.582   1.259  1.8372  3.1330  1.7524
  725SOL    HW2 2899   2.500   0.587   1.254 -0.6740  0.8387  0.1382
  725SOL     MW 2900   2.577   0.571   1.220 -0.1198  0.9578  0.5446
  726SOL     OW 2901   2.590   2.442   0.544 -0.0911  0.2120  0.1008
  726SOL    HW1 2902   2.525   2.485   0.488 -2.2802  0.1018  1.3445
  726SOL    HW2 2903   2.546   2.423   0.628 -0.8998  0.7834 -4.0102
  726SOL     MW 2904   2.576   2.445   0.548 -0.4866  0.2729 -0.2775
  727SOL     OW 2905   2.874   0.305   1.636 -0.0805  0.4511  0.3565
  727SOL    HW1 2906   2.846   0.269   1.552 -1.4670 -0.3866  0.3273
  727SOL    HW2 2907   2.788   0.328   1.672 -0.4513  0.1750 -1.2789
  727SOL     MW 2908   2.859   0.303   1.629 -0.3123  0.3042  0.1369
  728SOL     OW 2909   2.820   1.167   2.851  0.0435  0.3641  0.0216
  728SOL    HW1 2910   2.796   1.242   2.789 -0.8800 -0.5720 -1.6669
  728SOL    HW2 2911   2.806   1.197   2.947  0.1009  0.2619 -0.5504
  728SOL     MW 2912   2.815   1.181   2.855 -0.0708  0.2271 -0.2766
  729SOL     OW 2913   2.557   1.518   1.103  0.1898 -0.1472 -0.4198
  729SOL    HW1 2914   2.625   1.471   1.156  1.2215 -1.1871  1.1523
  729SOL    HW2 2915   2.584   1.509   1.009 -1.6200  0.2102  0.2741
  729SOL     MW 2916   2.570   1.510   1.098  0.0872 -0.2372 -0.1209
  730SOL     OW 2917   2.154   1.184   0.209  0.4990  0.3080  0.1831
  730SOL    HW1 2918   2.243   1.182   0.226  0.2530 -1.2495  1.9648
  730SOL    HW2 2919   2.125   1.267   0.249 -0.4851 -0.1493  2.8134
  730SOL     MW 2920   2.162   1.195   0.217  0.3367  0.0422  0.7652
  731SOL     OW 2921   2.822   1.906   2.873 -0.0914 -0.0767  0.5233
  731SOL    HW1 2922   2.741   1.942   2.829 -1.8444  0.2446 -2.7394
  731SOL    HW2 2923   2.882   1.983   2.862  0.8907  2.2911  0.1449
  731SOL     MW 2924   2.820   1.921   2.866 -0.1931  0.2781  0.0429
  732SOL     OW 2925   2.203   0.970   1.338  0.2553  0.8280 -0.3458
  732SOL    HW1 2926   2.181   0.971   1.430  1.5588  0.4471 -1.2466
  732SOL    HW2 2927   2.292   0.939   1.332  0.0918 -2.6186  0.0019
  732SOL     MW 2928   2.212   0.966   1.349  0.4057  0.3230 -0.4187
  733SOL     OW 2929   2.351   2.765   3.059  0.2097 -0.8122 -0.3045
  733SOL    HW1 2930   2.264   2.794   3.027 -1.1325  1.2848 -1.6508
  733SOL    HW2 2931   2.355   2.671   3.039  0.6647 -0.0416  0.7047
  733SOL     MW 2932   2.340   2.756   3.052  0.0927 -0.4339 -0.3490
  734SOL     OW 2933   1.454   0.378   2.444 -0.0028  0.5276  0.2443
  734SOL    HW1 2934   1.455   0.326   2.523  1.7920 -0.8692 -1.6590
  734SOL    HW2 2935   1.503   0.316   2.384  0.2233  0.1231 -1.7124
  734SOL     MW 2936   1.460   0.363   2.447  0.2639  0.2899 -0.2650
  735SOL     OW 2937   2.919   0.899   2.600 -0.1521 -0.7336 -0.0202
  735SOL    HW1 2938   2.939   0.807   2.580 -2.9756 -0.6564  1.2030
  735SOL    HW2 2939   2.964   0.917   2.687  3.2378 -0.2116 -0.2873
  735SOL     MW 2940   2.928   0.889   2.609 -0.0774 -0.6546  0.1059
  736SOL     OW 2941   0.125   0.568   2.521  0.1323 -0.0690 -0.0028
  736SOL    HW1 2942   0.175   0.640   2.493  2.1087 -0.7113  1.1265
  736SOL    HW2 2943   0.092   0.523   2.444  0.2607  1.8131 -0.0812
  736SOL     MW 2944   0.128   0.571   2.507  0.4100  0.0946  0.1359
  737SOL     OW 2945   2.960   0.627   2.542 -0.4965 -0.2611  0.0146
  737SOL    HW1 2946   2.907   0.577   2.477 -0.1488  0.6029 -0.6621
  737SOL    HW2 2947   3.054   0.630   2.523 -0.9442  1.1584 -0.4998
  737SOL     MW 2948   2.965   0.621   2.531 -0.5097  0.0402 -0.1425
  738SOL     OW 2949   0.202   0.591   1.886 -0.3864  0.4161  0.0589
  738SOL    HW1 2950   0.285   0.612   1.932 -2.2093 -0.4194  0.6199
  738SOL    HW2 2951   0.204   0.501   1.851 -1.4907  2.4082  0.1552
  738SOL     MW 2952   0.214   0.582   1.887 -0.7726  0.5687  0.1456
  739SOL     OW 2953   2.433   1.078   2.091  0.2963  0.0415 -0.5816
  739SOL    HW1 2954   2.405   0.984   2.072  1.2128 -1.6591 -0.0810
  739SOL    HW2 2955   2.458   1.107   2.003 -1.6278  0.0402 -1.6221
  739SOL     MW 2956   2.432   1.069   2.077  0.1634 -0.1830 -0.6528
  740SOL     OW 2957   0.242   1.768   2.959 -0.0341 -0.4772  0.3110
  740SOL    HW1 2958   0.193   1.684   2.954 -0.9731  0.4490  2.0161
  740SOL    HW2 2959   0.337   1.756   2.974  0.6519 -0.5613  2.5659
  740SOL     MW 2960   0.248   1.755   2.960 -0.0675 -0.3661  0.8335
  741SOL     OW 2961   2.271   1.247   2.715 -0.1516 -0.6511 -0.0024
  741SOL    HW1 2962   2.210   1.294   2.661 -1.2075 -0.8470  0.6936
  741SOL    HW2 2963   2.269   1.290   2.800  1.6299  0.3126 -0.8027
  741SOL     MW 2964   2.262   1.259   2.719 -0.0559 -0.5498 -0.0162
  742SOL     OW 2965   1.527   1.266   2.210 -0.5806  0.0670  0.1309
  742SOL    HW1 2966   1.538   1.172   2.191  1.0063 -0.4125 -0.6554
  742SOL    HW2 2967   1.549   1.273   2.304  1.6770 -0.0435 -0.7362
  742SOL     MW 2968   1.532   1.255   2.220 -0.0734 -0.0109 -0.0873
  743SOL     OW 2969   2.534   1.270   2.789  0.4083 -0.0805 -0.2072
  743SOL    HW1 2970   2.457   1.259   2.733 -3.1112 -1.3958  0.4289
  743SOL    HW2 2971   2.554   1.170   2.816  0.5019  0.7507 -0.9517
  743SOL     MW 2972   2.526   1.255   2.785 -0.0437 -0.1444 -0.2215
  744SOL     OW 2973   2.734   0.952   1.755  1.0577 -0.1508 -0.2249
  744SOL    HW1 2974   2.658   0.990   1.808  0.1272  0.1610 -1.0303
  744SOL    HW2 2975   2.710   0.970   1.660 -0.4399  1.8539 -1.3371
  744SOL     MW 2976   2.721   0.960   1.749  0.7373  0.1548 -0.4779
  745SOL     OW 2977   1.734   0.439   2.505 -0.3505  0.2997 -0.9076
  745SOL    HW1 2978   1.720   0.483   2.422 -0.5278 -0.2863  2.1855
  745SOL    HW2 2979   1.644   0.426   2.539 -0.3964  1.1671  4.1006
  745SOL     MW 2980   1.720   0.443   2.498 -0.3799  0.3368  0.1613
  746SOL     OW 2981   1.536   1.431   1.627  0.3786  0.1136 -0.7424
  746SOL    HW1 2982   1.626   1.465   1.644 -0.6443  4.3556  2.5075
  746SOL    HW2 2983   1.498   1.399   1.710  0.2425  1.0481  0.8238
  746SOL     MW 2984   1.543   1.431   1.640  0.2257  0.7966 -0.1070
  747SOL     OW 2985   2.534   1.111   1.837 -0.0986  0.1906 -0.2632
  747SOL    HW1 2986   2.446   1.116   1.807 -2.0924  1.3263  2.7872
  747SOL    HW2 2987   2.561   1.201   1.851  4.4116 -0.9885  0.8607
  747SOL     MW 2988   2.526   1.124   1.835  0.2334  0.1849  0.2876
  748SOL     OW 2989   0.121   0.068   1.821 -0.1173  0.0556  0.0771
  748SOL    HW1 2990   0.189   0.028   1.871 -0.1174 -0.9918  2.1793
  748SOL    HW2 2991   0.084   0.129   1.885 -0.8956  0.6279  1.5551
  748SOL     MW 2992   0.125   0.071   1.836 -0.2200 -0.0071  0.5494
  749SOL     OW 2993   2.407   0.563   2.809  0.3635  0.0399  0.0227
  749SOL    HW1 2994   2.417   0.592   2.719  2.5317 -2.0727  0.2856
  749SOL    HW2 2995   2.448   0.624   2.866  1.8895  2.3232  0.9319
  749SOL     MW 2996   2.414   0.575   2.805  0.8509  0.0624  0.1773
  750SOL     OW 2997   2.066   0.005   1.956  0.1723  0.7265 -0.1437
  750SOL    HW1 2998   2.127   0.076   1.950 -1.6714  0.3529 -1.1286
  750SOL    HW2 2999   2.130  -0.068   1.960  1.8720 -0.1180 -1.6354
  750SOL     MW 3000   2.082   0.005   1.956  0.1533  0.5658 -0.4704
  751SOL     OW 3001   0.015   0.427   2.321 -0.1207 -0.5741 -0.1927
  751SOL    HW1 3002  -0.050   0.353   2.328 -0.4072 -0.1622 -3.4451
  751SOL    HW2 3003   0.093   0.383   2.286 -1.2771 -0.2107 -0.9753
  751SOL     MW 3004   0.017   0.411   2.318 -0.3111 -0.4718 -0.7251
  752SOL     OW 3005   2.108   0.850   2.715 -0.2524 -0.1767  0.2130
  752SOL    HW1 3006   2.195   0.889   2.703  0.0366  1.6111 -0.1699
  752SOL    HW2 3007   2.099   0.845   2.808  2.0757 -0.7625 -0.5179
  752SOL     MW 3008   2.118   0.855   2.726  0.0929 -0.0181  0.0661
  753SOL     OW 3009   2.889   0.257   2.347  0.3298 -0.8260  0.4951
  753SOL    HW1 3010   2.813   0.210   2.310 -0.1708 -0.5144  2.5107
  753SOL    HW2 3011   2.848   0.345   2.362 -0.6143  1.5375 -0.5844
  753SOL     MW 3012   2.874   0.263   2.344  0.1392 -0.4731  0.6186
  754SOL     OW 3013   2.237   3.006   2.673 -0.1372  0.1435  0.0134
  754SOL    HW1 3014   2.232   3.004   2.569  2.9049  2.7239 -0.9402
  754SOL    HW2 3015   2.288   2.929   2.701 -0.6153 -0.6262 -1.5447
  754SOL     MW 3016   2.243   2.996   2.663  0.2011  0.3824 -0.3180
  755SOL     OW 3017   2.724   1.583   2.458  0.2493  0.1115 -0.6362
  755SOL    HW1 3018   2.713   1.509   2.518 -1.2953 -0.7841 -0.2765
  755SOL    HW2 3019   2.788   1.631   2.513  0.7042 -2.4573 -1.8039
  755SOL     MW 3020   2.731   1.580   2.473  0.1055 -0.3456 -0.7428
  756SOL     OW 3021   2.252   1.330   3.018 -0.2735  0.1574  0.5395
  756SOL    HW1 3022   2.334   1.379   3.010 -0.3352  0.2337  0.5060
  756SOL    HW2 3023   2.299   1.241   3.028  1.8095  1.3861  1.4665
  756SOL     MW 3024   2.269   1.325   3.018 -0.0068  0.3296  0.6574
  757SOL     OW 3025   2.102   0.989   1.640 -0.5216 -0.2065 -0.6658
  757SOL    HW1 3026   2.132   0.903   1.616 -0.0204 -0.8340  0.2167
  757SOL    HW2 3027   2.009   0.986   1.621  0.4377 -2.0810  1.1247
  757SOL     MW 3028   2.094   0.977   1.634 -0.3289 -0.5366 -0.3131
  758SOL     OW 3029   2.183   1.797   2.666 -0.2016 -0.2934 -0.1977
  758SOL    HW1 3030   2.176   1.838   2.579 -0.2275  0.5647  0.3478
  758SOL    HW2 3031   2.274   1.771   2.653 -1.7258  0.1867  0.9876
  758SOL     MW 3032   2.194   1.799   2.652 -0.4062 -0.1168  0.0306
  759SOL     OW 3033   1.551   1.310   2.719  0.0209 -0.0525 -0.2849
  759SOL    HW1 3034   1.548   1.403   2.696 -2.9935 -1.4000 -0.5704
  759SOL    HW2 3035   1.630   1.297   2.770  2.5468  1.6133  1.2775
  759SOL     MW 3036   1.561   1.321   2.723 -0.0435 -0.0105 -0.1164
  760SOL     OW 3037   2.584   1.961   2.718 -0.1546  0.0231 -0.1389
  760SOL    HW1 3038   2.541   1.883   2.691 -2.2293 -3.9383 -3.6500
  760SOL    HW2 3039   2.636   1.987   2.644 -2.4401  3.0472 -2.2459
  760SOL     MW 3040   2.585   1.954   2.705 -0.7299 -0.1006 -0.8802
  761SOL     OW 3041   2.077   0.419   2.468  0.0501 -0.0534 -0.1645
  761SOL    HW1 3042   2.037   0.339   2.489 -3.4617 -1.1409 -0.6413
  761SOL    HW2 3043   2.093   0.455   2.557  1.3854  0.7748 -2.5426
  761SOL     MW 3044   2.074   0.413   2.483 -0.2370 -0.0876 -0.5412
  762SOL     OW 3045   3.096   0.185   2.037 -0.0081 -0.3960 -0.9929
  762SOL    HW1 3046   3.076   0.126   2.111 -1.2174  2.0829  0.4841
  762SOL    HW2 3047   3.035   0.262   2.027  0.7982  0.8460  1.8002
  762SOL     MW 3048   3.085   0.188   2.045 -0.0612  0.0949 -0.4295
  763SOL     OW 3049   2.392   1.095   2.355  0.7120 -0.3601 -0.3719
  763SOL    HW1 3050   2.412   1.097   2.257  1.1012  1.1643  0.6123
  763SOL    HW2 3051   2.454   1.165   2.379  2.5177 -1.3597 -2.0799
  763SOL     MW 3052   2.403   1.104   2.345  1.0016 -0.2909 -0.4674
  764SOL     OW 3053   0.373   0.215   2.785 -0.2220  0.4865 -0.4559
  764SOL    HW1 3054   0.299   0.240   2.732  0.7723  0.1787 -0.2808
  764SOL    HW2 3055   0.368   0.272   2.865  0.3926 -0.3168  1.2612
  764SOL     MW 3056   0.363   0.226   2.789 -0.0097  0.3399 -0.2062
  765SOL     OW 3057   2.677   0.090   2.287  0.9625  0.3167 -0.0319
  765SOL    HW1 3058   2.622   0.074   2.208  0.3527  0.2695  0.4960
  765SOL    HW2 3059   2.729   0.009   2.294 -1.2875 -0.2748  0.8044
  765SOL     MW 3060   2.677   0.077   2.277  0.5852  0.2324  0.1481
  766SOL     OW 3061   1.849   3.034   2.123 -0.5138 -0.0855  0.6431
  766SOL    HW1 3062   1.912   3.061   2.056 -0.5363  1.2806 -0.0761
  766SOL    HW2 3063   1.807   2.953   2.090  2.7424 -1.7197 -1.9285
  766SOL     MW 3064   1.852   3.027   2.110 -0.0872 -0.1209  0.2089
  767SOL     OW 3065   2.674   0.641   1.939 -0.0984  0.1639  0.1183
  767SOL    HW1 3066   2.715   0.698   2.007 -1.1262 -2.0696  3.7543
  767SOL    HW2 3067   2.580   0.637   1.968 -4.0787 -1.6208 -1.1469
  767SOL     MW 3068   2.667   0.648   1.952 -0.7592 -0.3663  0.4311
  768SOL     OW 3069   0.090   1.542   2.988 -0.0844  0.8209 -0.4584
  768SOL    HW1 3070   0.101   1.498   3.072  1.8922  0.2273 -0.9758
  768SOL    HW2 3071   0.113   1.478   2.915  2.2945 -1.6182 -0.2472
  768SOL     MW 3072   0.094   1.528   2.989  0.4902  0.4207 -0.4988
  769SOL     OW 3073   2.332   0.670   2.314  0.5380  0.4158  0.2693
  769SOL    HW1 3074   2.262   0.613   2.298  2.4161  1.2441  0.7918
  769SOL    HW2 3075   2.408   0.621   2.284 -0.4778  2.2311 -3.4111
  769SOL     MW 3076   2.333   0.656   2.308  0.6518  0.7646 -0.1473
  770SOL     OW 3077   0.064   1.694   2.594  0.7324  0.1320 -0.4708
  770SOL    HW1 3078  -0.029   1.709   2.626 -1.3370  0.2422  2.0507
  770SOL    HW2 3079   0.082   1.607   2.635  0.3826  2.6371  0.0794
  770SOL     MW 3080   0.054   1.685   2.604  0.4132  0.4771 -0.0655
  771SOL     OW 3081   3.064   0.661   1.936 -0.1873 -0.7202 -0.5115
  771SOL    HW1 3082   3.004   0.663   1.851 -0.9229 -0.6541 -1.1139
  771SOL    HW2 3083   3.147   0.622   1.913 -2.2506 -0.7417  1.0238
  771SOL     MW 3084   3.067   0.656   1.922 -0.5566 -0.7143 -0.3884
  772SOL     OW 3085   3.088   0.018   2.254 -0.3198  0.0232 -0.5394
  772SOL    HW1 3086   3.007  -0.006   2.304 -2.2200 -0.5099  0.8725
  772SOL    HW2 3087   3.136  -0.057   2.221 -0.3502 -0.5827  1.4795
  772SOL     MW 3088   3.084   0.005   2.256 -0.5745 -0.1271 -0.0867
  773SOL     OW 3089   2.412   2.800   2.760 -0.0003 -0.5824  0.2641
  773SOL    HW1 3090   2.413   2.713   2.717  1.3254  1.8014  0.3694
  773SOL    HW2 3091   2.414   2.771   2.853 -2.0433 -0.7041 -0.0628
  773SOL     MW 3092   2.412   2.785   2.767 -0.0949 -0.2840  0.2348
  774SOL     OW 3093   2.273   1.173   1.760  0.1950  0.7905  0.7112
  774SOL    HW1 3094   2.263   1.255   1.712  1.2933  1.3799 -0.0093
  774SOL    HW2 3095   2.211   1.112   1.726  0.4656 -2.1766  1.5346
  774SOL     MW 3096   2.263   1.176   1.749  0.3756  0.4768  0.7248
  775SOL     OW 3097   2.237   2.992   2.406  0.6935 -1.0159 -0.2080
  775SOL    HW1 3098   2.273   3.064   2.354 -0.8350  3.4601  0.4336
  775SOL    HW2 3099   2.302   2.923   2.398  0.9900  0.1271  1.5107
  775SOL     MW 3100   2.250   2.992   2.398  0.5309 -0.2745  0.1034
  776SOL     OW 3101   0.105   1.441   0.149 -0.4242  0.1332  0.5821
  776SOL    HW1 3102   0.192   1.395   0.130 -1.5730  0.1970  1.3578
  776SOL    HW2 3103   0.033   1.376   0.138  2.2246 -0.5527  1.9037
  776SOL     MW 3104   0.107   1.426   0.145 -0.2263  0.0511  0.8588
  777SOL     OW 3105   2.999   1.060   1.689 -0.5246  0.2904 -0.1874
  777SOL    HW1 3106   3.001   1.142   1.634 -2.7280 -0.0002  0.8508
  777SOL    HW2 3107   2.915   1.039   1.722  0.6110 -1.9154  0.1227
  777SOL     MW 3108   2.988   1.068   1.686 -0.6655 -0.0390 -0.0095
  778SOL     OW 3109   2.879   0.448   2.753  0.5735  0.2135 -0.0410
  778SOL    HW1 3110   2.810   0.479   2.814  2.1338 -1.0233 -2.6250
  778SOL    HW2 3111   2.907   0.525   2.691 -1.3760 -1.5183 -1.2336
  778SOL     MW 3112   2.874   0.463   2.753  0.5221 -0.1781 -0.5393
  779SOL     OW 3113   2.102   0.586   2.241  0.0439  0.1369  0.9118
  779SOL    HW1 3114   2.031   0.643   2.223 -1.0579  0.2988 -2.8288
  779SOL    HW2 3115   2.084   0.542   2.319 -2.9531  2.5065  0.0217
  779SOL     MW 3116   2.091   0.588   2.249 -0.4969  0.4709  0.3009
  780SOL     OW 3117   0.083   0.211   2.778 -0.0055  0.2593 -0.1680
  780SOL    HW1 3118   0.082   0.233   2.871 -0.2656 -1.1296  1.3776
  780SOL    HW2 3119  -0.003   0.218   2.737  0.5750 -1.2945 -0.7055
  780SOL     MW 3120   0.071   0.215   2.785  0.0368 -0.1289 -0.0350
  781SOL     OW 3121   3.060   1.323   2.562  0.1161  0.0764  0.3926
  781SOL    HW1 3122   3.079   1.376   2.483 -0.0982  1.8685  1.0747
  781SOL    HW2 3123   3.082   1.234   2.541 -1.2726 -0.1396  0.1422
  781SOL     MW 3124   3.065   1.318   2.549 -0.0954  0.2843  0.4496
  782SOL     OW 3125   0.760   1.456   3.060  0.2498 -0.5238 -0.2832
  782SOL    HW1 3126   0.674   1.485   3.084  2.6462  0.4786 -3.4952
  782SOL    HW2 3127   0.816   1.472   3.143  0.4918 -0.6941  2.2284
  782SOL     MW 3128   0.756   1.462   3.074  0.5979 -0.4140 -0.3756
  783SOL     OW 3129   2.738   0.490   2.388  0.2066 -0.3176  0.2637
  783SOL    HW1 3130   2.667   0.502   2.325  1.6209  1.2922  0.4045
  783SOL    HW2 3131   2.692   0.464   2.469  0.6220 -1.8752 -1.6591
  783SOL     MW 3132   2.722   0.488   2.391  0.4480 -0.3107  0.0286
  784SOL     OW 3133   0.189   0.830   2.826  0.2149 -0.2878  0.4123
  784SOL    HW1 3134   0.107   0.868   2.800  1.5086 -0.2175  3.2118
  784SOL    HW2 3135   0.254   0.866   2.756  3.4848  2.6718 -1.4299
  784SOL     MW 3136   0.186   0.839   2.813  0.8170  0.1120  0.5386
  785SOL     OW 3137   0.421   0.506   2.180  0.3583  0.2280  0.0388
  785SOL    HW1 3138   0.463   0.543   2.100 -0.8605 -1.2302 -1.8487
  785SOL    HW2 3139   0.342   0.461   2.160 -0.3361 -0.3233 -1.0627
  785SOL     MW 3140   0.417   0.505   2.167  0.1059 -0.0371 -0.3556
  786SOL     OW 3141   1.990   0.377   2.948  0.5399  0.3802 -0.0593
  786SOL    HW1 3142   2.012   0.436   3.012  0.0164 -1.1151 -4.8160
  786SOL    HW2 3143   2.073   0.353   2.910 -0.0720  1.5848 -1.6966
  786SOL     MW 3144   2.004   0.382   2.952  0.3901  0.3418 -0.9029
  787SOL     OW 3145   2.422   0.216   2.876  0.0154  0.2980 -0.0998
  787SOL    HW1 3146   2.482   0.150   2.846 -2.3328  0.7567  1.2846
  787SOL    HW2 3147   2.466   0.261   2.954  1.1838  1.7782  3.6366
  787SOL     MW 3148   2.436   0.213   2.882 -0.1402  0.5538  0.5758
  788SOL     OW 3149   2.843   3.007   2.381 -0.1312 -0.0423  0.4580
  788SOL    HW1 3150   2.841   3.011   2.474 -3.9456  0.9661 -4.7416
  788SOL    HW2 3151   2.879   2.919   2.368  2.8857 -0.9307 -3.0495
  788SOL     MW 3152   2.847   2.996   2.391 -0.2364 -0.0264 -0.6908
  789SOL     OW 3153   0.059   0.219   3.045 -1.0953  0.4019  0.5848
  789SOL    HW1 3154   0.002   0.138   3.056  3.2625 -1.4954  0.8305
  789SOL    HW2 3155   0.006   0.288   3.013 -2.2389 -2.6877 -2.5283
  789SOL     MW 3156   0.045   0.217   3.042 -0.6712 -0.2561  0.2065
  790SOL     OW 3157   3.094   1.073   2.435 -0.5635 -0.1325  0.0739
  790SOL    HW1 3158   3.031   1.007   2.480 -1.3154 -3.2784  1.5234
  790SOL    HW2 3159   3.065   1.087   2.345  0.7119  0.9518 -0.2887
  790SOL     MW 3160   3.081   1.066   2.429 -0.4944 -0.4045  0.2173
  791SOL     OW 3161   2.614   0.390   2.622  0.2770 -0.6413 -0.6165
  791SOL    HW1 3162   2.552   0.428   2.683  0.5905  2.1518  1.2025
  791SOL    HW2 3163   2.685   0.372   2.680 -1.1156  2.9576  0.0160
  791SOL     MW 3164   2.615   0.393   2.638  0.1346  0.2021 -0.2930
  792SOL     OW 3165   2.338   0.334   2.402 -0.2246 -0.5719  0.0569
  792SOL    HW1 3166   2.249   0.354   2.436 -2.2023 -5.1055 -0.5873
  792SOL    HW2 3167   2.366   0.287   2.480 -1.6570 -0.7283  3.1259
  792SOL     MW 3168   2.330   0.330   2.417 -0.6745 -1.1907  0.3768
  793SOL     OW 3169   1.811   1.101   1.963 -0.8545 -0.5499  0.1928
  793SOL    HW1 3170   1.761   1.130   1.884  0.2155 -1.1670 -0.2915
  793SOL    HW2 3171   1.888   1.064   1.921  1.3419 -2.2192 -2.5452
  793SOL     MW 3172   1.815   1.100   1.947 -0.4235 -0.8516 -0.2324
  794SOL     OW 3173   1.421   2.249   0.166  0.0413 -0.0121  0.8651
  794SOL    HW1 3174   1.447   2.299   0.086  2.4697 -1.1252 -1.6795
  794SOL    HW2 3175   1.488   2.268   0.228 -2.0288 -0.3114  1.1817
  794SOL     MW 3176   1.434   2.258   0.164  0.0886 -0.1985  0.5711
  795SOL     OW 3177   2.341   0.983   2.634  0.0030 -0.9925  0.0635
  795SOL    HW1 3178   2.311   1.068   2.676  2.3614  0.3367  1.4341
  795SOL    HW2 3179   2.342   1.015   2.542  0.3843 -2.7821  0.4420
  795SOL     MW 3180   2.337   0.998   2.627  0.3645 -1.0533  0.2943
  796SOL     OW 3181   0.285   0.580   2.742 -0.3719 -0.1279 -0.3856
  796SOL    HW1 3182   0.234   0.643   2.788  0.2114  0.1568 -1.3626
  796SOL    HW2 3183   0.221   0.548   2.674 -3.4129 -1.4440  0.9906
  796SOL     MW 3184   0.270   0.584   2.739 -0.6962 -0.2640 -0.3329
  797SOL     OW 3185   2.607   0.115   2.535 -0.3154 -0.0617  0.2426
  797SOL    HW1 3186   2.583   0.206   2.544  0.2733  4.4364 -0.0654
  797SOL    HW2 3187   2.625   0.115   2.432 -1.7914  2.1182  0.1247
  797SOL     MW 3188   2.606   0.127   2.523 -0.4324  0.8194  0.1864
  798SOL     OW 3189   2.300   0.110   2.234  0.6088 -0.5239 -0.0473
  798SOL    HW1 3190   2.320   0.203   2.260 -1.5445  0.0689 -0.5796
  798SOL    HW2 3191   2.384   0.081   2.192  0.9124  0.0393 -1.4236
  798SOL     MW 3192   2.314   0.119   2.232  0.3648 -0.3714 -0.2991
  799SOL     OW 3193   2.518   2.964   3.091 -0.3058  0.5797  0.2588
  799SOL    HW1 3194   2.461   2.883   3.101 -0.0005 -0.3713  2.2289
  799SOL    HW2 3195   2.459   3.034   3.077  1.5154  0.1983  2.1735
  799SOL     MW 3196   2.503   2.963   3.091 -0.0253  0.4039  0.7714
  800SOL     OW 3197   1.934   0.036   1.716 -0.5470  0.7923  0.3908
  800SOL    HW1 3198   1.869  -0.030   1.741 -0.6049 -0.6405 -0.3327
  800SOL    HW2 3199   1.985   0.036   1.796  1.8664 -1.0517  1.9259
  800SOL     MW 3200   1.932   0.027   1.730 -0.2362  0.3600  0.4979
  801SOL     OW 3201   2.780   1.308   2.592  0.1917 -0.0566 -0.9360
  801SOL    HW1 3202   2.756   1.223   2.562 -1.2284  1.1164 -2.3403
  801SOL    HW2 3203   2.879   1.324   2.584 -0.3450 -1.1704  1.2651
  801SOL     MW 3204   2.790   1.299   2.587 -0.0665 -0.0488 -0.8309
  802SOL     OW 3205   2.618   1.512   2.763 -0.0418  0.4487  0.3703
  802SOL    HW1 3206   2.586   1.416   2.763  0.2180 -0.8604  1.4599
  802SOL    HW2 3207   2.715   1.512   2.775 -0.4301 -0.5735  0.1348
  802SOL     MW 3208   2.627   1.499   2.765 -0.0588  0.1411  0.4830
  803SOL     OW 3209   2.246   1.370   1.964 -0.0930  0.3634 -0.3839
  803SOL    HW1 3210   2.246   1.303   2.038  1.1966 -3.0712 -0.4462
  803SOL    HW2 3211   2.223   1.321   1.885 -2.4113  0.7508 -1.1016
  803SOL     MW 3212   2.243   1.354   1.963 -0.2287 -0.0387 -0.4868
  804SOL     OW 3213   2.297   0.046   3.076  0.5982 -0.1646 -0.2648
  804SOL    HW1 3214   2.220   0.093   3.113 -1.2424  1.4183  1.6968
  804SOL    HW2 3215   2.314   0.089   2.995  0.1787 -1.4011 -1.2852
  804SOL     MW 3216   2.289   0.058   3.071  0.3000 -0.1189 -0.1406
  805SOL     OW 3217   2.663   1.041   2.573  0.0291 -0.1430 -0.1811
  805SOL    HW1 3218   2.631   0.984   2.506 -0.2202  1.2013 -1.5394
  805SOL    HW2 3219   2.744   0.991   2.603  0.2912 -0.0223  1.0299
  805SOL     MW 3220   2.670   1.027   2.568  0.0308  0.0503 -0.2005
  806SOL     OW 3221   2.517   0.485   2.227 -0.1470  0.5730 -0.1532
  806SOL    HW1 3222   2.452   0.441   2.286 -2.2875  1.3816 -0.2537
  806SOL    HW2 3223   2.468   0.502   2.147 -0.0595 -0.6937  1.2970
  806SOL     MW 3224   2.502   0.482   2.224 -0.4179  0.5125  0.0249
  807SOL     OW 3225   0.050   1.101   2.048  0.4071 -0.0268  0.7573
  807SOL    HW1 3226   0.063   1.030   1.988 -0.9934  1.1056 -0.3590
  807SOL    HW2 3227  -0.036   1.071   2.092 -2.5447 -1.3060  2.0172
  807SOL     MW 3228   0.041   1.088   2.046 -0.1671 -0.0462  0.7762
  808SOL     OW 3229   2.549   3.098   2.772  0.3205 -0.3776 -0.4959
  808SOL    HW1 3230   2.504   3.019   2.751  1.1980  0.2888 -1.3743
  808SOL    HW2 3231   2.586   3.127   2.686  0.9343 -0.8689 -1.4637
  808SOL     MW 3232   2.548   3.092   2.758  0.5172 -0.3545 -0.7395
  809SOL     OW 3233   2.560   1.286   2.405 -0.5725  0.2716  0.1485
  809SOL    HW1 3234   2.626   1.297   2.474 -0.6334  1.6011  2.9961
  809SOL    HW2 3235   2.601   1.292   2.318  0.8575 -2.1019  1.8157
  809SOL     MW 3236   2.574   1.288   2.402 -0.3919  0.1339  0.7441
  810SOL     OW 3237   2.213   1.278   2.250  0.2078  0.3728  0.2721
  810SOL    HW1 3238   2.271   1.216   2.303 -0.4964 -1.2088  1.5203
  810SOL    HW2 3239   2.130   1.232   2.238 -2.4881  1.3919  0.6985
  810SOL     MW 3240   2.210   1.264   2.255 -0.2408  0.2986  0.4931
  811SOL     OW 3241   1.554   0.146   2.316  0.2259 -0.0104 -0.0930
  811SOL    HW1 3242   1.608   0.083   2.364  0.7799 -2.5948  2.8707
  811SOL    HW2 3243   1.579   0.125   2.224 -0.9390  1.4409 -0.9976
  811SOL     MW 3244   1.565   0.135   2.310  0.1453 -0.1599  0.1787
  812SOL     OW 3245   1.506   2.879   2.109 -0.1242  0.1073  0.2079
  812SOL    HW1 3246   1.600   2.874   2.061 -0.8465  1.0095 -0.5576
  812SOL    HW2 3247   1.520   2.838   2.193  2.0649 -0.2148  0.0761
  812SOL     MW 3248   1.520   2.873   2.114  0.0694  0.1838  0.0895
  813SOL     OW 3249   1.874   0.728   2.156  0.1413  0.7969 -0.2063
  813SOL    HW1 3250   1.810   0.646   2.162 -1.3460  1.0744 -1.0106
  813SOL    HW2 3251   1.872   0.762   2.248 -2.0493  0.0668  0.7044
  813SOL     MW 3252   1.866   0.721   2.169 -0.3439  0.7372 -0.1923
  814SOL     OW 3253   2.736   1.274   1.598  0.2919 -0.0107 -0.0084
  814SOL    HW1 3254   2.696   1.213   1.660 -0.2560  1.0217 -0.5390
  814SOL    HW2 3255   2.753   1.219   1.513 -0.0754 -1.2753 -1.8850
  814SOL     MW 3256   2.733   1.258   1.595  0.1711 -0.0413 -0.3260
  815SOL     OW 3257   2.474   1.671   2.320 -0.0481  0.0681  0.0270
  815SOL    HW1 3258   2.420   1.587   2.321 -0.3812  2.9939  3.9617
  815SOL    HW2 3259   2.563   1.644   2.321  1.5647  0.5262 -1.8296
  815SOL     MW 3260   2.479   1.656   2.320  0.1207  0.5146  0.3012
  816SOL     OW 3261   0.780   0.671   2.773 -0.1721  0.0114 -0.7524
  816SOL    HW1 3262   0.778   0.593   2.829  0.8570 -2.3509  0.4610
  816SOL    HW2 3263   0.699   0.677   2.723  0.0004  2.1987  1.0378
  816SOL     MW 3264   0.769   0.661   2.774 -0.0135 -0.0117 -0.3561
  817SOL     OW 3265   3.076   1.266   1.497 -0.2023  0.1893 -0.0887
  817SOL    HW1 3266   3.169   1.249   1.515  0.1143  0.6979  0.6101
  817SOL    HW2 3267   3.061   1.354   1.479 -1.7004 -2.2197 -0.3039
  817SOL     MW 3268   3.086   1.276   1.497 -0.3582 -0.0615 -0.0249
  818SOL     OW 3269   1.923   1.048   2.678  0.1177 -0.0273  0.1646
  818SOL    HW1 3270   1.886   1.061   2.593 -1.3262  2.3630  0.3690
  818SOL    HW2 3271   1.977   0.966   2.676  1.7964  0.5728 -2.3948
  818SOL     MW 3272   1.925   1.039   2.666  0.1487  0.3673 -0.1461
  819SOL     OW 3273   1.900   0.195   2.464 -0.3845 -0.0641  0.1393
  819SOL    HW1 3274   1.841   0.275   2.476 -1.7870 -3.5539 -2.4761
  819SOL    HW2 3275   1.948   0.180   2.553  0.7757 -2.6252 -0.5899
  819SOL     MW 3276   1.899   0.203   2.477 -0.4165 -0.8625 -0.3020
  820SOL     OW 3277   2.458   1.704   2.608 -0.6230  0.1776  0.1297
  820SOL    HW1 3278   2.517   1.641   2.654  0.7336  3.3113 -0.1141
  820SOL    HW2 3279   2.456   1.680   2.513  2.0930  2.8113 -1.1462
  820SOL     MW 3280   2.466   1.693   2.601 -0.0857  0.9386 -0.0708
  821SOL     OW 3281   2.576   1.363   1.964  0.2048 -1.2103  0.0241
  821SOL    HW1 3282   2.594   1.453   1.921  0.9015 -0.9861  0.6616
  821SOL    HW2 3283   2.478   1.367   1.964 -1.3376  4.5870 -0.7581
  821SOL     MW 3284   2.566   1.375   1.958  0.0932 -0.4158  0.0050
  822SOL     OW 3285   2.748   2.603   1.482  0.3940 -0.5999  0.2526
  822SOL    HW1 3286   2.810   2.613   1.552 -2.0546 -1.6607 -1.0503
  822SOL    HW2 3287   2.703   2.687   1.469 -0.5768  1.1760 -0.7095
  822SOL     MW 3288   2.750   2.615   1.490 -0.0571 -0.5055 -0.0463
  823SOL     OW 3289   2.277   0.507   1.746 -0.4635  0.0286  0.3745
  823SOL    HW1 3290   2.370   0.496   1.714  0.4512  0.7475  1.7180
  823SOL    HW2 3291   2.229   0.425   1.721  0.1992 -2.2831  1.3438
  823SOL     MW 3292   2.283   0.495   1.738 -0.2554 -0.1816  0.6797
  824SOL     OW 3293   2.086   1.400   2.580 -0.1371 -0.5032 -0.1947
  824SOL    HW1 3294   2.136   1.460   2.521 -1.1686 -0.1420 -0.4309
  824SOL    HW2 3295   2.039   1.460   2.641  1.9907 -2.4265  0.0458
  824SOL     MW 3296   2.087   1.416   2.580  0.0076 -0.7093 -0.1941
  825SOL     OW 3297   1.968   2.555   0.277 -0.0332  0.1249 -0.3012
  825SOL    HW1 3298   1.967   2.500   0.356 -0.6512  1.5778  0.7564
  825SOL    HW2 3299   2.044   2.515   0.230 -0.3246 -2.2786 -2.1773
  825SOL     MW 3300   1.978   2.542   0.281 -0.1532 -0.0005 -0.4092
  826SOL     OW 3301   1.902   2.410   0.482  0.0335  0.8555  0.0759
  826SOL    HW1 3302   1.863   2.344   0.540 -2.0855 -2.7396 -1.9161
  826SOL    HW2 3303   1.881   2.491   0.529 -0.9746  0.7789  2.5507
  826SOL     MW 3304   1.894   2.412   0.496 -0.3791  0.3711  0.1396
  827SOL     OW 3305   1.946   2.216   0.976  0.3818 -0.3231  0.3728
  827SOL    HW1 3306   1.884   2.287   0.942 -1.6093 -2.5028 -0.2435
  827SOL    HW2 3307   1.875   2.155   1.000 -2.0899 -0.4816  0.3029
  827SOL     MW 3308   1.929   2.218   0.974 -0.2070 -0.6316  0.2823
  828SOL     OW 3309   0.070   2.627   0.573  0.1304  0.4128  0.1713
  828SOL    HW1 3310   0.164   2.644   0.571  0.7920  1.3540  0.3235
  828SOL    HW2 3311   0.045   2.623   0.484 -3.1841 -1.2928  0.8053
  828SOL     MW 3312   0.079   2.628   0.561 -0.2196  0.3120  0.2750
  829SOL     OW 3313   2.932   2.937   1.238  0.2169  0.0246  0.3313
  829SOL    HW1 3314   2.862   2.942   1.169 -0.6148  3.5749  0.1205
  829SOL    HW2 3315   2.975   2.853   1.214  2.2954  0.6057 -0.7434
  829SOL     MW 3316   2.928   2.927   1.226  0.3814  0.5697  0.1617
  830SOL     OW 3317   2.498   2.859   2.005  0.3655 -0.0102  0.0956
  830SOL    HW1 3318   2.414   2.889   1.967  1.7055 -0.3247  0.3041
  830SOL    HW2 3319   2.556   2.834   1.931 -2.5144  0.2900  0.9858
  830SOL     MW 3320   2.495   2.860   1.990  0.1623 -0.0121  0.2406
  831SOL     OW 3321   2.414   2.396   1.308  0.0353 -0.3154  0.1557
  831SOL    HW1 3322   2.388   2.352   1.387 -1.4616 -0.5635 -1.4358
  831SOL    HW2 3323   2.509   2.372   1.285 -0.1248 -1.1144 -1.5650
  831SOL     MW 3324   2.423   2.387   1.315 -0.1833 -0.4535 -0.2813
  832SOL     OW 3325   2.426   2.194   1.912  0.4270  0.3300 -0.2260
  832SOL    HW1 3326   2.456   2.279   1.958 -1.2565 -0.4170  0.8201
  832SOL    HW2 3327   2.509   2.162   1.868  1.3668 -0.9757  1.0554
  832SOL     MW 3328   2.441   2.201   1.912  0.3288  0.0591  0.0811
  833SOL     OW 3329   1.786   2.471   0.884  0.5077 -0.1648 -0.3339
  833SOL    HW1 3330   1.695   2.428   0.891  1.2425  0.5159  4.3818
  833SOL    HW2 3331   1.781   2.540   0.961 -2.8108 -0.2288 -1.6273
  833SOL     MW 3332   1.774   2.474   0.895  0.1668 -0.0835  0.1177
  834SOL     OW 3333   2.237   2.488   0.614  0.1234  0.0846  0.5843
  834SOL    HW1 3334   2.180   2.412   0.627  1.3621 -0.0846 -2.1645
  834SOL    HW2 3335   2.281   2.461   0.530  0.9245 -2.2192 -3.1541
  834SOL     MW 3336   2.235   2.474   0.605  0.3925 -0.2417 -0.2716
  835SOL     OW 3337   1.742   2.615   0.656 -0.6807  0.3453  0.0171
  835SOL    HW1 3338   1.735   2.552   0.728 -2.3484  0.9289 -1.5097
  835SOL    HW2 3339   1.816   2.679   0.689  1.1985  1.2413  1.1365
  835SOL     MW 3340   1.751   2.615   0.670 -0.6528  0.5406 -0.0366
  836SOL     OW 3341   1.940   2.198   1.622  0.7890 -0.3231  0.1981
  836SOL    HW1 3342   2.016   2.248   1.647 -0.9607  0.5491 -1.2567
  836SOL    HW2 3343   1.866   2.255   1.647  0.1035 -2.1095  0.8532
  836SOL     MW 3344   1.940   2.212   1.628  0.4677 -0.4437  0.0926
  837SOL     OW 3345   2.135   0.207   0.681 -0.6791  0.4173  0.4014
  837SOL    HW1 3346   2.045   0.226   0.666 -0.7831 -2.7438 -0.4303
  837SOL    HW2 3347   2.157   0.132   0.619  0.5538  1.3264 -1.9181
  837SOL     MW 3348   2.126   0.200   0.671 -0.5301  0.1202 -0.0144
  838SOL     OW 3349   2.931   2.143   0.873 -0.1767 -0.2508  0.3932
  838SOL    HW1 3350   2.879   2.094   0.941  3.3851 -0.1999  1.5999
  838SOL    HW2 3351   2.972   2.070   0.825 -0.3838 -1.3179 -0.5915
  838SOL     MW 3352   2.930   2.127   0.876  0.2659 -0.3849  0.4225
  839SOL     OW 3353   1.546   2.349   0.925  0.0194 -0.0951 -0.3318
  839SOL    HW1 3354   1.514   2.443   0.933  0.9472  1.6222  1.2818
  839SOL    HW2 3355   1.537   2.298   1.004 -0.2228  2.0343 -1.1040
  839SOL     MW 3356   1.540   2.355   0.937  0.1099  0.4124 -0.2207
  840SOL     OW 3357   2.311   2.099   2.395  0.3836 -0.3083  0.2991
  840SOL    HW1 3358   2.278   2.160   2.324  0.3726 -1.1357 -0.3012
  840SOL    HW2 3359   2.370   2.139   2.459  1.0954  1.0028 -1.0660
  840SOL     MW 3360   2.315   2.112   2.394  0.4761 -0.2445  0.0398
  841SOL     OW 3361   2.173   2.431   0.104 -0.0726 -0.3364  0.4245
  841SOL    HW1 3362   2.198   2.455   0.017  2.7667  0.0064  0.6277
  841SOL    HW2 3363   2.100   2.367   0.101  0.2787 -1.5897 -3.2060
  841SOL     MW 3364   2.167   2.426   0.092  0.3484 -0.4565 -0.0277
  842SOL     OW 3365   2.679   1.962   1.587 -0.2731  0.6786 -0.3694
  842SOL    HW1 3366   2.612   1.895   1.590 -0.1705 -2.1245 -1.4495
  842SOL    HW2 3367   2.654   2.017   1.520 -0.2139 -0.1054 -0.8293
  842SOL     MW 3368   2.667   1.960   1.579 -0.2517  0.2053 -0.5726
  843SOL     OW 3369   2.649   2.768   1.797  0.7485 -0.0726  0.1537
  843SOL    HW1 3370   2.727   2.714   1.795  0.4443 -0.7975 -3.0103
  843SOL    HW2 3371   2.590   2.711   1.747 -1.3700  2.4034  3.7345
  843SOL     MW 3372   2.652   2.754   1.790  0.4289  0.1584  0.2087
  844SOL     OW 3373   2.622   2.254   1.226  0.4880 -0.4032  0.2256
  844SOL    HW1 3374   2.662   2.283   1.136  0.3718  0.0934 -2.4284
  844SOL    HW2 3375   2.699   2.275   1.287  3.2857 -1.5214  1.0315
  844SOL     MW 3376   2.637   2.261   1.222  0.8418 -0.4852 -0.0182
  845SOL     OW 3377   2.858   2.464   0.298  0.5093  0.3466 -0.7114
  845SOL    HW1 3378   2.801   2.388   0.310  0.6523  1.9027  1.2091
  845SOL    HW2 3379   2.868   2.512   0.380 -0.8078  3.5282 -1.1015
  845SOL     MW 3380   2.852   2.460   0.310  0.3544  0.9717 -0.5095
  846SOL     OW 3381   1.521   2.851   0.769 -0.3397 -0.2045  0.4385
  846SOL    HW1 3382   1.597   2.902   0.801  2.2431 -0.2493 -0.1618
  846SOL    HW2 3383   1.450   2.889   0.821  2.9744  2.4274 -0.7902
  846SOL     MW 3384   1.522   2.863   0.780  0.4384  0.1369  0.1972
  847SOL     OW 3385   2.498   1.892   0.155 -0.2037  0.7847 -0.2380
  847SOL    HW1 3386   2.558   1.831   0.196 -3.1805  1.5587 -1.1375
  847SOL    HW2 3387   2.493   1.881   0.060  1.0286  0.9869  2.4833
  847SOL     MW 3388   2.505   1.882   0.147 -0.4339  0.9135  0.0024
  848SOL     OW 3389   2.515   2.062   1.377 -0.2576  0.0985 -0.3007
  848SOL    HW1 3390   2.547   2.101   1.291 -1.3236 -0.3162 -1.7264
  848SOL    HW2 3391   2.478   1.974   1.357  0.8702  0.5976 -2.4920
  848SOL     MW 3392   2.514   2.055   1.363 -0.2494  0.1096 -0.7779
  849SOL     OW 3393   1.942   2.765   0.740  0.2010  0.0203 -0.0067
  849SOL    HW1 3394   1.978   2.717   0.819 -1.7723  0.4405  0.0959
  849SOL    HW2 3395   2.022   2.776   0.689 -1.8607 -2.3042  0.4202
  849SOL     MW 3396   1.957   2.760   0.744 -0.3314 -0.2310  0.0632
  850SOL     OW 3397   2.229   1.930   1.680 -0.0741  0.0097  0.4612
  850SOL    HW1 3398   2.143   1.896   1.650 -2.4057  2.2262 -1.2121
  850SOL    HW2 3399   2.212   2.021   1.662  0.0885 -1.2657 -0.9832
  850SOL     MW 3400   2.216   1.937   1.674 -0.3603  0.1339  0.0498
  851SOL     OW 3401   2.305   2.387   0.346  0.8404 -0.2746  0.0608
  851SOL    HW1 3402   2.255   2.397   0.263 -0.6486  0.6076  1.8010
  851SOL    HW2 3403   2.374   2.466   0.335  0.7979 -0.0942  1.5233
  851SOL     MW 3404   2.307   2.399   0.333  0.6383 -0.1344  0.4834
  852SOL     OW 3405   2.351   2.095   0.310 -0.2706 -0.4020  0.0744
  852SOL    HW1 3406   2.367   2.184   0.335 -1.3609 -2.1639  1.1144
  852SOL    HW2 3407   2.405   2.063   0.240 -0.8145  0.1715 -3.9097
  852SOL     MW 3408   2.360   2.103   0.304 -0.4862 -0.5588 -0.3140
  853SOL     OW 3409   2.496   2.448   1.995  0.2857  0.1285 -0.1880
  853SOL    HW1 3410   2.499   2.487   1.903 -2.3059 -0.4358  1.1123
  853SOL    HW2 3411   2.585   2.454   2.035 -2.7961  2.3274  1.7438
  853SOL     MW 3412   2.508   2.454   1.988 -0.4629  0.3441  0.2384
  854SOL     OW 3413   2.826   2.360   0.753  0.2339  0.0345 -0.1547
  854SOL    HW1 3414   2.758   2.299   0.725 -0.6891 -1.5897  0.4499
  854SOL    HW2 3415   2.889   2.294   0.788 -1.7150 -0.2661  1.7257
  854SOL     MW 3416   2.825   2.343   0.754 -0.1450 -0.2195  0.1732
  855SOL     OW 3417   2.714   2.226   0.377 -0.4760 -0.2231  0.1546
  855SOL    HW1 3418   2.683   2.292   0.445 -1.2301 -0.8370 -2.2735
  855SOL    HW2 3419   2.796   2.180   0.399  0.8761  0.2672 -2.1267
  855SOL     MW 3420   2.721   2.229   0.389 -0.3971 -0.2394 -0.4667
  856SOL     OW 3421   2.181   1.945   0.151 -0.7073  0.1193 -0.0198
  856SOL    HW1 3422   2.104   1.936   0.210  0.7508 -0.1142  1.8830
  856SOL    HW2 3423   2.232   2.007   0.205  1.4406 -1.2728 -1.0586
  856SOL     MW 3424   2.178   1.952   0.166 -0.2315 -0.0952  0.0942
  857SOL     OW 3425   2.552   1.992   0.500 -1.2367  0.0476  0.2806
  857SOL    HW1 3426   2.581   2.044   0.420 -3.6832 -0.9842  0.9650
  857SOL    HW2 3427   2.480   1.945   0.473  0.1413  0.6324 -1.6571
  857SOL     MW 3428   2.546   1.992   0.486 -1.3776 -0.0114  0.1152
  858SOL     OW 3429   2.899   2.638   1.738  0.4632  0.2150  0.4111
  858SOL    HW1 3430   2.979   2.683   1.756 -1.8821  1.9335  1.9423
  858SOL    HW2 3431   2.902   2.558   1.791 -0.1449  0.8470  2.6534
  858SOL     MW 3432   2.910   2.634   1.747  0.0735  0.5252  0.9090
  859SOL     OW 3433   2.100   2.565   0.955 -0.5778 -0.1460  0.6065
  859SOL    HW1 3434   2.074   2.505   1.023  1.5509 -0.3617 -0.5598
  859SOL    HW2 3435   2.173   2.520   0.908 -1.5149 -0.8322 -1.0571
  859SOL     MW 3436   2.106   2.551   0.958 -0.4206 -0.2650  0.2331
  860SOL     OW 3437   2.685   2.602   0.159 -0.1630  0.3270 -0.3810
  860SOL    HW1 3438   2.762   2.557   0.214  2.1933  2.4931 -0.8692
  860SOL    HW2 3439   2.723   2.679   0.111  1.2294  3.3867  0.7308
  860SOL     MW 3440   2.700   2.607   0.160  0.3316  1.0165 -0.2987
  861SOL     OW 3441   1.573   2.137   1.173  0.2537 -0.2940  0.0050
  861SOL    HW1 3442   1.582   2.219   1.219 -0.5139 -0.4973 -0.6417
  861SOL    HW2 3443   1.512   2.082   1.220  0.8147 -1.1921  0.1790
  861SOL     MW 3444   1.566   2.140   1.185  0.2265 -0.4393 -0.0574
  862SOL     OW 3445   2.458   1.779   1.539  0.5882  0.2755  0.1401
  862SOL    HW1 3446   2.379   1.820   1.588  0.0329  3.3256  0.1116
  862SOL    HW2 3447   2.445   1.799   1.444 -2.8560  0.2304 -0.6433
  862SOL     MW 3448   2.446   1.787   1.533  0.0605  0.6720  0.0330
  863SOL     OW 3449   3.016   1.823   1.056 -0.7509  0.2588 -0.4026
  863SOL    HW1 3450   3.099   1.780   1.081 -2.2645  1.5965 -2.1090
  863SOL    HW2 3451   3.018   1.899   1.117 -0.8155  1.1734 -1.8097
  863SOL     MW 3452   3.027   1.827   1.067 -0.9591  0.5560 -0.8134
  864SOL     OW 3453   3.061   1.885   0.808  0.2279 -1.0174  0.0785
  864SOL    HW1 3454   3.029   1.867   0.896 -2.0445 -0.9258 -2.9664
  864SOL    HW2 3455   3.000   1.833   0.753 -2.0115 -1.3531  1.6663
  864SOL     MW 3456   3.049   1.876   0.812 -0.3674 -1.0496 -0.1137
  865SOL     OW 3457   2.599   2.151   0.017 -0.6811 -0.1579  0.2732
  865SOL    HW1 3458   2.608   2.078   0.081  1.3886 -0.7902  0.8448
  865SOL    HW2 3459   2.534   2.127  -0.047 -2.0714  0.1385  1.0213
  865SOL     MW 3460   2.592   2.139   0.017 -0.5915 -0.2022  0.4473
  866SOL     OW 3461   2.682   2.351   1.677 -0.1524  1.0869  0.1476
  866SOL    HW1 3462   2.698   2.259   1.696 -0.8422  1.3478  0.8911
  866SOL    HW2 3463   2.703   2.365   1.584 -2.2393 -1.7930  1.2762
  866SOL     MW 3464   2.687   2.340   1.667 -0.5188  0.7414  0.3946
  867SOL     OW 3465   0.040   2.732   1.818 -0.0526  0.2812  0.0262
  867SOL    HW1 3466   0.070   2.725   1.913  0.5683  0.4161  0.8900
  867SOL    HW2 3467   0.015   2.822   1.803  0.1973 -1.7807  0.0824
  867SOL     MW 3468   0.041   2.743   1.829  0.0623  0.0269  0.1476
  868SOL     OW 3469   2.856   2.590   0.552  0.4157  0.3035  0.2113
  868SOL    HW1 3470   2.778   2.538   0.578 -0.3584  0.6407  1.3036
  868SOL    HW2 3471   2.821   2.673   0.517  1.2150 -1.1240  0.1216
  868SOL     MW 3472   2.841   2.594   0.551  0.4190  0.1596  0.3436
  869SOL     OW 3473   2.073   2.355   1.136 -0.6819 -0.3644 -0.2754
  869SOL    HW1 3474   2.170   2.346   1.124 -0.0192  1.1951 -0.5691
  869SOL    HW2 3475   2.034   2.296   1.069 -2.2670  1.1782  0.4901
  869SOL     MW 3476   2.081   2.346   1.126 -0.8036  0.0449 -0.2131
  870SOL     OW 3477   2.165   0.027   0.476  0.4382  0.0153 -0.4830
  870SOL    HW1 3478   2.240   0.054   0.432 -1.4568 -0.5977 -0.8301
  870SOL    HW2 3479   2.170  -0.066   0.452  1.0722 -0.8963 -0.4290
  870SOL     MW 3480   2.175   0.018   0.467  0.2718 -0.1859 -0.5217
  871SOL     OW 3481   2.515   2.143   0.934  0.5800 -0.4317  0.2513
  871SOL    HW1 3482   2.467   2.068   0.960 -0.4600 -0.1877 -1.2781
  871SOL    HW2 3483   2.471   2.221   0.975 -0.3924 -0.2734 -0.0082
  871SOL     MW 3484   2.503   2.143   0.943  0.3145 -0.3786  0.0153
  872SOL     OW 3485   1.977   2.555   1.517 -0.0519 -0.2234  0.5196
  872SOL    HW1 3486   1.934   2.574   1.602 -1.0977 -4.0305  0.1946
  872SOL    HW2 3487   1.950   2.465   1.488  0.3575 -0.5981 -0.7444
  872SOL     MW 3488   1.968   2.545   1.525 -0.1359 -0.7752  0.3100
  873SOL     OW 3489   2.927   2.040   1.933  0.2780 -0.3465  0.4921
  873SOL    HW1 3490   2.910   2.093   2.010 -1.4861 -2.0235  2.4447
  873SOL    HW2 3491   3.007   2.079   1.888 -0.1214 -1.3454  0.2489
  873SOL     MW 3492   2.936   2.052   1.937 -0.0074 -0.6996  0.7177
  874SOL     OW 3493   2.276   1.502   2.404 -0.0007 -0.0934  0.3682
  874SOL    HW1 3494   2.245   1.429   2.338 -0.8196 -1.3163 -0.0138
  874SOL    HW2 3495   2.334   1.451   2.463 -1.4905 -2.1470  0.7650
  874SOL     MW 3496   2.279   1.486   2.403 -0.3053 -0.5257  0.3701
  875SOL     OW 3497   2.344   2.319   1.065  0.5036  0.1130 -0.2488
  875SOL    HW1 3498   2.382   2.388   1.006  1.2742 -0.8682 -1.3088
  875SOL    HW2 3499   2.382   2.348   1.150 -1.3016  1.4047  0.8201
  875SOL     MW 3500   2.354   2.332   1.068  0.3671  0.1539 -0.2477
  876SOL     OW 3501   3.036   2.274   1.257  0.4129 -0.8166  0.3376
  876SOL    HW1 3502   3.082   2.312   1.178 -1.1684 -0.1437  1.4655
  876SOL    HW2 3503   3.104   2.298   1.321  0.2929 -5.0407  1.5727
  876SOL     MW 3504   3.051   2.282   1.255  0.1884 -1.2852  0.6493
  877SOL     OW 3505   3.026   2.721   0.319  0.1417  0.3631 -0.1285
  877SOL    HW1 3506   3.074   2.803   0.323 -0.8668 -0.4757  0.0071
  877SOL    HW2 3507   3.029   2.700   0.224  2.4295 -0.8766 -1.3334
  877SOL     MW 3508   3.033   2.729   0.307  0.3105  0.0888 -0.2696
  878SOL     OW 3509   2.390   1.835   1.287 -0.7829  0.2642  0.1317
  878SOL    HW1 3510   2.338   1.760   1.289  0.5811 -0.6317  1.0655
  878SOL    HW2 3511   2.472   1.816   1.245  2.0806  2.3975  1.8150
  878SOL     MW 3512   2.394   1.822   1.282 -0.2251  0.4275  0.4770
  879SOL     OW 3513   2.671   2.398   0.999 -0.0401 -0.3334  0.5882
  879SOL    HW1 3514   2.719   2.477   1.023  0.5051  0.2202  1.2090
  879SOL    HW2 3515   2.720   2.367   0.928 -1.6173  1.8265  1.9256
  879SOL     MW 3516   2.684   2.405   0.993 -0.1763  0.0246  0.8466
  880SOL     OW 3517   2.616   2.189   0.697  0.1616 -0.5381 -0.2904
  880SOL    HW1 3518   2.591   2.167   0.795  2.3138 -0.8304  3.9696
  880SOL    HW2 3519   2.578   2.113   0.655 -2.3664  0.6663 -1.0305
  880SOL     MW 3520   2.608   2.176   0.704  0.1120 -0.4178  0.1740
  881SOL     OW 3521   2.938   2.736   0.781 -0.8890 -0.0447 -0.3840
  881SOL    HW1 3522   2.923   2.670   0.705 -0.8813 -2.4914  1.0635
  881SOL    HW2 3523   3.024   2.715   0.812 -0.4000  1.5176 -3.5225
  881SOL     MW 3524   2.948   2.725   0.775 -0.8235 -0.1614 -0.6071
  882SOL     OW 3525   2.239   2.876   1.927 -0.7505 -0.6173  0.3544
  882SOL    HW1 3526   2.215   2.876   1.831  0.2227 -1.0191  0.3375
  882SOL    HW2 3527   2.191   2.811   1.971  2.3735 -1.8779 -0.4329
  882SOL     MW 3528   2.229   2.867   1.920 -0.2099 -0.8366  0.2483
  883SOL     OW 3529   2.313   2.190   1.478  0.3657 -0.5122 -0.1721
  883SOL    HW1 3530   2.400   2.163   1.443 -1.5499 -2.7570  1.4768
  883SOL    HW2 3531   2.258   2.129   1.430  0.8583  0.0119  1.7946
  883SOL     MW 3532   2.317   2.179   1.467  0.1779 -0.7392  0.3049
  884SOL     OW 3533   1.964   1.786   1.060 -0.2126  0.0185  0.0123
  884SOL    HW1 3534   1.904   1.862   1.063 -0.7304 -1.6382 -0.7453
  884SOL    HW2 3535   2.052   1.833   1.083  2.2544  1.2611  0.9240
  884SOL     MW 3536   1.967   1.802   1.063  0.0446 -0.0361  0.0326
  885SOL     OW 3537   2.889   2.398   1.835 -0.0189 -0.4926  0.4413
  885SOL    HW1 3538   2.953   2.331   1.805 -0.8443  0.8942 -0.2964
  885SOL    HW2 3539   2.818   2.387   1.767  2.4425  1.2203 -0.7468
  885SOL     MW 3540   2.888   2.388   1.822  0.1969 -0.0836  0.1873
  886SOL     OW 3541   2.799   2.357   1.401 -0.3662  0.1432  0.2145
  886SOL    HW1 3542   2.879   2.349   1.349  1.4897  0.3093  0.3814
  886SOL    HW2 3543   2.796   2.454   1.412  1.4490  1.4754 -0.6847
  886SOL     MW 3544   2.809   2.369   1.395  0.1181  0.3409  0.1179
  887SOL     OW 3545   2.238   2.641   1.504 -0.0948  0.0214 -0.1518
  887SOL    HW1 3546   2.279   2.640   1.420  0.3441 -2.6427 -0.5177
  887SOL    HW2 3547   2.155   2.589   1.511 -1.2798  0.9905  0.5736
  887SOL     MW 3548   2.233   2.634   1.494 -0.1932 -0.2023 -0.1043
  888SOL     OW 3549   1.885   2.018   1.401 -0.6047 -0.5141  0.2815
  888SOL    HW1 3550   1.954   2.051   1.343  0.0236 -1.4120 -1.5091
  888SOL    HW2 3551   1.906   2.051   1.489  0.8295  0.8971 -2.1535
  888SOL     MW 3552   1.897   2.027   1.405 -0.3326 -0.4464 -0.2760
  889SOL     OW 3553   2.287   2.027   2.083 -0.1595 -0.2729 -0.1808
  889SOL    HW1 3554   2.364   2.001   2.130 -1.4587  3.0983 -1.4549
  889SOL    HW2 3555   2.333   2.077   2.017  0.6984 -2.0067  0.7339
  889SOL     MW 3556   2.303   2.030   2.081 -0.2177 -0.0569 -0.2282
  890SOL     OW 3557   0.105   2.348   0.100 -0.8823  0.0897 -0.1217
  890SOL    HW1 3558   0.051   2.429   0.087  0.4490  0.9770 -1.6795
  890SOL    HW2 3559   0.087   2.332   0.194  0.5547  1.8550  1.9255
  890SOL     MW 3560   0.096   2.357   0.110 -0.5171  0.4397 -0.0571
  891SOL     OW 3561   3.017   1.991   1.260 -0.0705  0.0543 -0.0661
  891SOL    HW1 3562   3.103   1.962   1.290  0.5350 -2.6126 -1.4467
  891SOL    HW2 3563   3.012   2.090   1.242  0.0035 -0.9049 -1.6676
  891SOL     MW 3564   3.028   2.000   1.262  0.0191 -0.4241 -0.4596
  892SOL     OW 3565   2.426   2.348   2.794  0.3946 -0.3687 -0.4420
  892SOL    HW1 3566   2.414   2.268   2.844  0.7217 -1.3252  1.2117
  892SOL    HW2 3567   2.514   2.364   2.816  0.2081 -3.6443  2.5166
  892SOL     MW 3568   2.436   2.339   2.803  0.4132 -0.9271  0.1665
  893SOL     OW 3569   1.620   2.369   1.310  0.8619 -0.2868 -0.2374
  893SOL    HW1 3570   1.573   2.423   1.373 -1.1505  2.4115  0.1279
  893SOL    HW2 3571   1.708   2.348   1.340  1.3520  0.7276 -0.4433
  893SOL     MW 3572   1.626   2.373   1.322  0.6611  0.2030 -0.2164
  894SOL     OW 3573   2.806   1.881   0.490 -0.6529  0.1691 -0.0356
  894SOL    HW1 3574   2.727   1.923   0.512  3.3325 -0.4114 -1.4917
  894SOL    HW2 3575   2.800   1.859   0.402 -1.8115  1.6968  1.8355
  894SOL     MW 3576   2.795   1.884   0.481 -0.2800  0.2941  0.0191
  895SOL     OW 3577   2.138   2.106   1.273  0.2943 -0.1943 -0.5760
  895SOL    HW1 3578   2.138   2.196   1.235 -0.7918 -0.4515 -3.3937
  895SOL    HW2 3579   2.148   2.055   1.192  1.5521  2.8735  1.7389
  895SOL     MW 3580   2.139   2.111   1.257  0.3169  0.1765 -0.6423
  896SOL     OW 3581   2.182   2.787   1.076  0.3608  0.2711 -0.4770
  896SOL    HW1 3582   2.248   2.757   1.143 -0.2256 -1.6481  4.6737
  896SOL    HW2 3583   2.140   2.697   1.043 -1.3076 -0.8692 -0.5850
  896SOL     MW 3584   2.185   2.771   1.080  0.0633 -0.1325  0.1883
  897SOL     OW 3585   3.004   2.903   0.115 -0.7455  0.1659  0.5670
  897SOL    HW1 3586   3.075   2.879   0.045  2.0359  0.7108  0.8978
  897SOL    HW2 3587   2.927   2.861   0.082  3.1987  3.1731 -0.1450
  897SOL     MW 3588   3.004   2.895   0.102  0.1419  0.6346  0.5167
  898SOL     OW 3589   2.095   0.159   1.431 -0.1633 -0.0256  0.5676
  898SOL    HW1 3590   2.060   0.069   1.432  1.8643  1.8701  0.4943
  898SOL    HW2 3591   2.105   0.182   1.339  0.8619  1.1929  1.0207
  898SOL     MW 3592   2.092   0.150   1.419  0.2395  0.3853  0.6177
  899SOL     OW 3593   2.901   2.969   0.626 -0.0253 -0.3576 -0.0983
  899SOL    HW1 3594   2.913   2.907   0.699 -1.6872  2.0782  1.1306
  899SOL    HW2 3595   2.829   3.019   0.656  1.5823 -1.4972 -0.6512
  899SOL     MW 3596   2.893   2.967   0.640 -0.0324 -0.1866 -0.0091
  900SOL     OW 3597   0.104   2.410   1.084  0.4030 -0.2169  0.1151
  900SOL    HW1 3598   0.110   2.509   1.079 -0.2484  0.1006 -0.6839
  900SOL    HW2 3599   0.097   2.386   0.992 -0.2209 -2.1089  2.1508
  900SOL     MW 3600   0.104   2.420   1.071  0.2347 -0.4247  0.2782
  901SOL     OW 3601   1.752   2.893   1.727 -0.8647  0.5269  0.1548
  901SOL    HW1 3602   1.824   2.825   1.717 -1.1481 -2.1505 -0.9816
  901SOL    HW2 3603   1.701   2.878   1.647 -0.0824  1.0363  0.4931
  901SOL     MW 3604   1.755   2.882   1.715 -0.7989  0.2409  0.0495
  902SOL     OW 3605   2.682   2.117   1.808 -0.4438 -0.0585  0.3371
  902SOL    HW1 3606   2.672   2.061   1.734 -0.0362 -0.4566  1.5998
  902SOL    HW2 3607   2.763   2.091   1.851 -1.2039 -1.2313 -0.5799
  902SOL     MW 3608   2.692   2.106   1.804 -0.4903 -0.2657  0.3827
  903SOL     OW 3609   1.588   2.780   0.512 -0.2163 -0.0070  0.2857
  903SOL    HW1 3610   1.644   2.699   0.544  0.6031  0.1311 -0.4301
  903SOL    HW2 3611   1.564   2.831   0.593 -0.3215 -1.0947 -0.9985
  903SOL     MW 3612   1.592   2.776   0.527 -0.1221 -0.1323  0.0218
  904SOL     OW 3613   2.493   2.541   1.725 -0.0525  0.8675  0.0606
  904SOL    HW1 3614   2.429   2.561   1.652 -1.3711 -1.6147 -2.0146
  904SOL    HW2 3615   2.525   2.455   1.700  1.0293 -0.4423  0.7460
  904SOL     MW 3616   2.489   2.532   1.712 -0.0837  0.3672 -0.1228
  905SOL     OW 3617   2.335   2.571   2.180  0.2692  0.0843  0.0708
  905SOL    HW1 3618   2.387   2.547   2.103  1.2354  3.5802 -1.3937
  905SOL    HW2 3619   2.302   2.483   2.199 -0.1145 -1.0674 -2.8359
  905SOL     MW 3620   2.338   2.556   2.172  0.3461  0.3936 -0.5060
  906SOL     OW 3621   2.424   2.519   0.874 -0.1962  0.0826 -0.1569
  906SOL    HW1 3622   2.518   2.512   0.912  0.5563  1.0931  0.2003
  906SOL    HW2 3623   2.407   2.618   0.863 -1.1587  0.5199 -1.5296
  906SOL     MW 3624   2.434   2.531   0.877 -0.2239  0.2736 -0.2909
  907SOL     OW 3625   2.608   2.827   1.345  0.1262 -0.5283  0.1749
  907SOL    HW1 3626   2.655   2.895   1.390  1.8157 -2.0712 -0.3282
  907SOL    HW2 3627   2.631   2.839   1.254  2.4307 -2.1209 -0.5032
  907SOL     MW 3628   2.617   2.837   1.339  0.6532 -0.9420  0.0191
  908SOL     OW 3629   2.741   2.390   3.092  0.6557 -0.0862 -0.2725
  908SOL    HW1 3630   2.691   2.306   3.121  0.3477 -3.2744 -0.4568
  908SOL    HW2 3631   2.717   2.462   3.158  2.2339  0.7758 -0.8718
  908SOL     MW 3632   2.731   2.389   3.104  0.8233 -0.3931 -0.3759
  909SOL     OW 3633   1.720   0.140   1.136  0.1197  0.2730 -0.3911
  909SOL    HW1 3634   1.693   0.216   1.085  1.9517 -0.4989 -1.5969
  909SOL    HW2 3635   1.804   0.159   1.185 -2.0084  0.1752  0.6417
  909SOL     MW 3636   1.728   0.153   1.136  0.0807  0.1582 -0.4139
  910SOL     OW 3637   2.345   1.809   0.410  0.6459 -0.3868  0.7328
  910SOL    HW1 3638   2.273   1.748   0.431  0.6386  1.4456  1.0172
  910SOL    HW2 3639   2.332   1.829   0.317 -0.3363 -2.5904  0.0770
  910SOL     MW 3640   2.334   1.804   0.400  0.5153 -0.4358  0.6838
  911SOL     OW 3641   2.215   2.241   1.737  0.3437  0.0604 -0.0966
  911SOL    HW1 3642   2.292   2.217   1.790  1.7545  2.4036 -2.0617
  911SOL    HW2 3643   2.239   2.238   1.644 -4.0523 -1.3345 -1.5770
  911SOL     MW 3644   2.229   2.238   1.731 -0.0502  0.1855 -0.5512
  912SOL     OW 3645   2.946   1.931   1.521 -0.2989  0.1007 -0.0543
  912SOL    HW1 3646   2.981   1.959   1.430 -0.0389 -1.2738 -0.4093
  912SOL    HW2 3647   2.852   1.966   1.525 -1.2568  2.0738  0.8139
  912SOL     MW 3648   2.938   1.939   1.510 -0.3910  0.1797  0.0134
  913SOL     OW 3649   2.575   3.019   0.373  0.7135  0.2707 -0.2993
  913SOL    HW1 3650   2.637   2.950   0.354  0.4294 -0.4079  0.6690
  913SOL    HW2 3651   2.483   2.989   0.387  2.0172  0.6236 -1.5873
  913SOL     MW 3652   2.571   3.006   0.373  0.8480  0.2278 -0.3415
  914SOL     OW 3653   2.702   1.740   3.052 -0.4174 -0.0357 -0.0385
  914SOL    HW1 3654   2.777   1.801   3.024 -1.4819 -0.4929 -2.4873
  914SOL    HW2 3655   2.637   1.775   2.991  0.2096  3.7903 -2.9928
  914SOL     MW 3656   2.704   1.753   3.040 -0.4751  0.4088 -0.7514
  915SOL     OW 3657   1.704   0.223   0.226 -0.0388 -0.1395 -0.0909
  915SOL    HW1 3658   1.776   0.185   0.269 -1.5840  1.4208  1.2184
  915SOL    HW2 3659   1.630   0.160   0.232  0.1162  2.2058  0.5957
  915SOL     MW 3660   1.704   0.210   0.232 -0.2222  0.3758  0.1724
  916SOL     OW 3661   1.818   2.077   1.937 -0.0428  0.3559  0.2634
  916SOL    HW1 3662   1.838   2.174   1.924 -1.4723  0.8319  0.8191
  916SOL    HW2 3663   1.845   2.034   1.856 -0.4050  1.6030 -0.6974
  916SOL     MW 3664   1.824   2.084   1.924 -0.2792  0.5833  0.2100
  917SOL     OW 3665   2.513   2.191   2.554  0.3807 -0.4982 -0.5013
  917SOL    HW1 3666   2.520   2.238   2.636 -0.3124 -0.4259  0.3759
  917SOL    HW2 3667   2.579   2.233   2.504 -0.6311 -1.9127  1.1009
  917SOL     MW 3668   2.523   2.203   2.558  0.1558 -0.6753 -0.1742
  918SOL     OW 3669   1.973   1.603   2.705  0.0500  0.5389  0.2768
  918SOL    HW1 3670   1.927   1.638   2.629  2.0389  0.0596  1.0693
  918SOL    HW2 3671   2.056   1.644   2.706 -0.2964  0.8604 -0.6076
  918SOL     MW 3672   1.978   1.613   2.695  0.2667  0.5181  0.2647
  919SOL     OW 3673   0.041   2.319   2.268  0.3012 -0.1551  0.3758
  919SOL    HW1 3674  -0.040   2.274   2.237 -1.0236 -0.3406  0.5918
  919SOL    HW2 3675   0.090   2.330   2.182  1.5209  0.5158  0.1054
  919SOL     MW 3676   0.037   2.315   2.252  0.2873 -0.0910  0.3686
  920SOL     OW 3677   2.756   2.819   3.100 -0.2794  0.2423  0.0960
  920SOL    HW1 3678   2.685   2.887   3.103 -3.2994 -2.0435  0.5629
  920SOL    HW2 3679   2.716   2.758   3.031  0.3251 -0.7737  0.9017
  920SOL     MW 3680   2.742   2.820   3.092 -0.5981 -0.1933  0.2639
  921SOL     OW 3681   2.434   2.577   2.602 -0.0425  0.2669 -0.1049
  921SOL    HW1 3682   2.518   2.601   2.557 -2.0138 -3.2937 -0.8459
  921SOL    HW2 3683   2.446   2.492   2.638  1.3171 -2.0087 -1.0113
  921SOL     MW 3684   2.447   2.569   2.601 -0.1232 -0.5032 -0.3223
  922SOL     OW 3685   2.024   2.843   0.313 -0.1949  0.3262  0.7053
  922SOL    HW1 3686   1.997   2.854   0.220  2.2668  0.6499  0.0521
  922SOL    HW2 3687   2.021   2.745   0.321 -1.5746  1.1142 -0.3661
  922SOL     MW 3688   2.020   2.831   0.302 -0.0521  0.4729  0.4778
  923SOL     OW 3689   2.173   2.838   1.669 -0.5434  0.3095  0.0832
  923SOL    HW1 3690   2.218   2.780   1.607 -1.1339  0.9697  0.7629
  923SOL    HW2 3691   2.127   2.898   1.613 -0.7013  0.8199 -0.7851
  923SOL     MW 3692   2.173   2.838   1.654 -0.6422  0.4639  0.0583
  924SOL     OW 3693   1.220   2.598   2.493 -0.2819  0.2413 -0.0013
  924SOL    HW1 3694   1.274   2.672   2.514  0.4831 -2.9797 -0.4370
  924SOL    HW2 3695   1.235   2.540   2.563  0.3981  2.9679 -0.3326
  924SOL     MW 3696   1.229   2.600   2.505 -0.0912  0.1761 -0.1025
  925SOL     OW 3697   2.969   0.223   2.601 -0.1586  0.2573 -0.0910
  925SOL    HW1 3698   2.943   0.236   2.501 -0.7558 -3.7571  0.5656
  925SOL    HW2 3699   2.935   0.297   2.643 -1.3990 -3.6813  0.2287
  925SOL     MW 3700   2.961   0.234   2.594 -0.4011 -0.7921  0.0378
  926SOL     OW 3701   2.759   2.387   2.096 -0.0678 -0.5846  0.0517
  926SOL    HW1 3702   2.812   2.446   2.153  0.4426  0.4480 -2.3531
  926SOL    HW2 3703   2.803   2.394   2.007  1.8751  3.2664 -0.9131
  926SOL     MW 3704   2.772   2.396   2.092  0.2559  0.0597 -0.3929
  927SOL     OW 3705   2.363   0.142   0.313  0.1319 -0.0421  0.0961
  927SOL    HW1 3706   2.454   0.164   0.304  2.8936 -0.3472 -2.7106
  927SOL    HW2 3707   2.344   0.114   0.226  1.4402 -0.0238 -0.3327
  927SOL     MW 3708   2.372   0.141   0.300  0.6689 -0.0800 -0.3308
  928SOL     OW 3709   2.106   2.444   1.929 -0.2160 -0.4575  0.1759
  928SOL    HW1 3710   2.191   2.432   1.879  0.1036  4.3314  0.9952
  928SOL    HW2 3711   2.107   2.372   1.988  0.5083 -1.2183 -2.6759
  928SOL     MW 3712   2.118   2.433   1.930 -0.0783  0.0740 -0.0923
  929SOL     OW 3713   2.707   2.379   2.446  0.3117  0.3539 -0.0748
  929SOL    HW1 3714   2.751   2.335   2.375  2.3566 -2.3586  0.2298
  929SOL    HW2 3715   2.769   2.361   2.513 -1.6634 -0.3029  1.3465
  929SOL     MW 3716   2.721   2.371   2.445  0.3209 -0.0907  0.1529
  930SOL     OW 3717   2.019   2.817   2.702 -0.4218  0.1814 -0.4663
  930SOL    HW1 3718   2.031   2.744   2.764 -1.1279  0.2838  0.0866
  930SOL    HW2 3719   2.099   2.882   2.710  0.2140  0.4112 -1.8982
  930SOL     MW 3720   2.031   2.816   2.711 -0.4310  0.2253 -0.5823
  931SOL     OW 3721   3.018   2.769   2.299 -0.0113  0.0861  0.2686
  931SOL    HW1 3722   3.036   2.810   2.380  3.2380 -2.0877 -1.0976
  931SOL    HW2 3723   3.095   2.789   2.239 -1.5699  0.8665 -0.8908
  931SOL     MW 3724   3.030   2.777   2.301  0.2118 -0.0978 -0.0646
  932SOL     OW 3725   2.826   2.004   2.557 -0.1312 -0.3279 -0.2055
  932SOL    HW1 3726   2.923   1.999   2.550  0.5516 -2.2327 -1.4691
  932SOL    HW2 3727   2.796   1.985   2.467  1.7416  0.9651 -0.0715
  932SOL     MW 3728   2.835   2.001   2.544  0.2059 -0.4086 -0.3546
  933SOL     OW 3729   2.022   2.877   2.286 -0.0663  0.3210 -0.0995
  933SOL    HW1 3730   2.086   2.924   2.334 -1.5197 -1.1661  1.9914
  933SOL    HW2 3731   1.985   2.944   2.225 -4.1312 -1.2306  1.4106
  933SOL     MW 3732   2.026   2.892   2.284 -0.7944 -0.0799  0.3757
  934SOL     OW 3733   1.995   2.681   2.480  0.5559 -0.0118  0.3143
  934SOL    HW1 3734   1.994   2.734   2.563 -0.2537  0.5599  0.6664
  934SOL    HW2 3735   2.017   2.746   2.411 -0.9798  0.1229 -1.1622
  934SOL     MW 3736   1.998   2.697   2.481  0.2465  0.0814  0.1659
  935SOL     OW 3737   2.657   1.588   1.795 -0.0699 -0.0501 -0.1376
  935SOL    HW1 3738   2.754   1.589   1.777  4.8320  0.2387  0.0933
  935SOL    HW2 3739   2.612   1.566   1.709  1.1475 -1.7019 -0.6031
  935SOL     MW 3740   2.664   1.585   1.782  0.7375 -0.2299 -0.1686
  936SOL     OW 3741   2.972   2.239   3.069 -0.3273 -0.3614 -0.0360
  936SOL    HW1 3742   3.049   2.291   3.100  1.3082 -0.5686 -0.6499
  936SOL    HW2 3743   2.898   2.306   3.069 -1.6011  1.0281 -1.0574
  936SOL     MW 3744   2.972   2.254   3.073 -0.2796 -0.2054 -0.2518
  937SOL     OW 3745   1.950   2.110   2.667 -0.0892  0.0732 -0.6493
  937SOL    HW1 3746   2.037   2.080   2.712 -1.8149 -0.3089 -1.0594
  937SOL    HW2 3747   1.953   2.077   2.572  2.0395  1.2511 -2.0283
  937SOL     MW 3748   1.962   2.101   2.661 -0.0360  0.1782 -0.8853
  938SOL     OW 3749   2.251   1.814   1.915 -0.6936 -0.4786  0.6829
  938SOL    HW1 3750   2.251   1.847   1.822  0.9818 -1.5624 -1.4172
  938SOL    HW2 3751   2.260   1.894   1.965  1.1157  0.6244  1.1248
  938SOL     MW 3752   2.252   1.829   1.909 -0.2338 -0.4761  0.4641
  939SOL     OW 3753   2.769   1.981   2.286 -0.4732 -0.2189  1.0337
  939SOL    HW1 3754   2.795   1.915   2.224 -2.6038  3.0542  0.0358
  939SOL    HW2 3755   2.672   1.976   2.292 -2.5786 -1.8088 -1.7987
  939SOL     MW 3756   2.760   1.972   2.279 -1.0321  0.0032  0.5283
  940SOL     OW 3757   2.325   0.193   2.627 -0.2539 -0.0819 -0.1627
  940SOL    HW1 3758   2.331   0.102   2.628  1.7342  0.7277  1.1318
  940SOL    HW2 3759   2.363   0.222   2.707  0.6243 -0.4501  1.2082
  940SOL     MW 3760   2.331   0.185   2.638  0.1243 -0.0237  0.1890
  941SOL     OW 3761   0.179   2.360   2.049  0.3339  0.2782  0.3515
  941SOL    HW1 3762   0.276   2.346   2.033  3.2291 -0.6795 -0.2160
  941SOL    HW2 3763   0.153   2.359   1.953 -0.1869  1.5155 -0.0241
  941SOL     MW 3764   0.189   2.358   2.034  0.6472  0.3151  0.2271
  942SOL     OW 3765   2.905   2.175   2.169 -1.0029 -0.1641  0.1452
  942SOL    HW1 3766   2.840   2.236   2.128  0.0158 -1.0712 -3.7689
  942SOL    HW2 3767   2.855   2.114   2.220  0.6985 -0.8601 -0.0929
  942SOL     MW 3768   2.890   2.175   2.171 -0.6440 -0.3756 -0.4027
  943SOL     OW 3769   0.304   2.106   2.247  0.6122 -0.1480  0.3548
  943SOL    HW1 3770   0.255   2.162   2.310 -1.5203  0.5932  1.1041
  943SOL    HW2 3771   0.385   2.081   2.292 -0.8130  1.4542  0.6568
  943SOL     MW 3772   0.308   2.110   2.261  0.1428  0.1612  0.4935
  944SOL     OW 3773   2.084   2.705   2.091  0.0911  0.6162  0.4522
  944SOL    HW1 3774   2.161   2.652   2.116 -0.9945 -1.0338 -1.3590
  944SOL    HW2 3775   2.055   2.760   2.171 -1.0280  0.2036 -1.4185
  944SOL     MW 3776   2.090   2.705   2.105 -0.1998  0.3441 -0.0336
  945SOL     OW 3777   2.669   2.666   2.869 -0.5396 -0.3673 -0.1938
  945SOL    HW1 3778   2.683   2.572   2.847  1.1911  2.3900 -0.8449
  945SOL    HW2 3779   2.643   2.705   2.786 -0.9005 -0.1527  0.2097
  945SOL     MW 3780   2.667   2.659   2.855 -0.3588  0.0248 -0.2264
  946SOL     OW 3781   2.445   2.785   2.313 -0.4605  0.3516 -0.2092
  946SOL    HW1 3782   2.468   2.842   2.240  1.6135  0.5244 -2.0699
  946SOL    HW2 3783   2.414   2.705   2.274 -0.2605  4.1613  1.2648
  946SOL     MW 3784   2.444   2.782   2.298 -0.1604  0.8770 -0.2602
  947SOL     OW 3785   1.953   0.104   0.316 -0.4992 -0.6976  0.3853
  947SOL    HW1 3786   1.946   0.018   0.269  0.0308  1.4510  0.1394
  947SOL    HW2 3787   2.028   0.105   0.374 -1.0515  2.3759  0.4207
  947SOL     MW 3788   1.962   0.093   0.318 -0.5022 -0.0086  0.3575
  948SOL     OW 3789   1.798   2.988   2.683  0.8272  0.4256  0.0525
  948SOL    HW1 3790   1.873   2.925   2.686 -0.3126 -0.7835 -0.4438
  948SOL    HW2 3791   1.776   2.995   2.592  0.6505  1.9476  0.3727
  948SOL     MW 3792   1.805   2.980   2.671  0.6535  0.4669  0.0293
  949SOL     OW 3793   2.507   1.935   2.291 -0.2477 -0.9012  0.1403
  949SOL    HW1 3794   2.494   1.838   2.275 -1.5298  2.1837 -1.4157
  949SOL    HW2 3795   2.455   1.957   2.364 -1.5378  0.0941  0.2077
  949SOL     MW 3796   2.498   1.925   2.299 -0.5871 -0.3629 -0.0561
  950SOL     OW 3797   2.261   2.508   2.951 -0.0646  0.2190 -0.3787
  950SOL    HW1 3798   2.292   2.441   2.890 -0.5294 -2.9075  0.3843
  950SOL    HW2 3799   2.187   2.546   2.907  0.0199  1.6693  0.6651
  950SOL     MW 3800   2.255   2.504   2.937 -0.1148 -0.0022 -0.1403
  951SOL     OW 3801   3.009   2.116   2.821 -0.0905 -0.5357  0.0071
  951SOL    HW1 3802   3.025   2.187   2.890 -2.7336 -0.3654  4.1520
  951SOL    HW2 3803   3.095   2.078   2.797 -1.1425 -0.5592 -1.0033
  951SOL     MW 3804   3.022   2.120   2.827 -0.5780 -0.5163  0.4207
  952SOL     OW 3805   3.074   1.668   2.159 -0.5778 -0.1822 -0.1645
  952SOL    HW1 3806   2.997   1.723   2.142 -0.8243 -0.5072 -0.5035
  952SOL    HW2 3807   3.139   1.731   2.193 -0.4265 -0.3643 -1.2751
  952SOL     MW 3808   3.072   1.684   2.161 -0.5904 -0.2491 -0.3557
  953SOL     OW 3809   1.917   1.798   2.910 -0.0291 -0.0408 -0.0576
  953SOL    HW1 3810   1.855   1.755   2.968  1.0849  0.4401  1.4810
  953SOL    HW2 3811   1.946   1.733   2.846  1.7641 -0.0872  0.8316
  953SOL     MW 3812   1.913   1.784   2.910  0.3544  0.0165  0.2627
  954SOL     OW 3813   2.405   2.095   2.883 -0.9708 -0.4813  0.1442
  954SOL    HW1 3814   2.312   2.090   2.852 -4.0147  2.1493 -0.4356
  954SOL    HW2 3815   2.474   2.067   2.815 -0.8047 -0.6150 -0.5050
  954SOL     MW 3816   2.402   2.091   2.870 -1.3505 -0.1518 -0.0179
  955SOL     OW 3817   1.557   1.580   2.604 -0.8353  0.0103 -0.6005
  955SOL    HW1 3818   1.541   1.608   2.518 -0.6151 -3.4184  0.5930
  955SOL    HW2 3819   1.648   1.616   2.621 -0.2506  2.8816 -1.2386
  955SOL     MW 3820   1.567   1.588   2.595 -0.7291 -0.0633 -0.5272
  956SOL     OW 3821   2.693   2.404   2.822 -0.1191  0.5215 -0.3393
  956SOL    HW1 3822   2.711   2.385   2.914 -1.7080 -2.4811  0.4545
  956SOL    HW2 3823   2.766   2.371   2.765  1.9567 -1.1264 -0.3610
  956SOL     MW 3824   2.705   2.397   2.826 -0.0549 -0.0921 -0.2374
  957SOL     OW 3825   2.358   2.850   0.380  0.3124 -0.2675 -0.9213
  957SOL    HW1 3826   2.304   2.829   0.306  0.2434  0.4926  1.6715
  957SOL    HW2 3827   2.322   2.819   0.467 -0.9426  1.5634  1.5868
  957SOL     MW 3828   2.346   2.843   0.382  0.1377  0.0744 -0.2483
  958SOL     OW 3829   2.031   2.591   2.842  0.3061  0.3201 -0.4229
  958SOL    HW1 3830   2.039   2.500   2.797  0.6751 -2.3879  1.8321
  958SOL    HW2 3831   1.950   2.586   2.890  0.8086 -0.0205  0.5688
  958SOL     MW 3832   2.022   2.578   2.843  0.4211 -0.0822  0.0055
  959SOL     OW 3833   2.478   2.600   0.338  0.1123 -0.1162 -0.0083
  959SOL    HW1 3834   2.541   2.585   0.267  0.6464 -3.4289  1.0468
  959SOL    HW2 3835   2.459   2.694   0.335 -2.6014  1.3102  0.4805
  959SOL     MW 3836   2.484   2.610   0.329 -0.1753 -0.3651  0.1954
  960SOL     OW 3837   1.949   2.268   2.211 -0.3403 -0.6797  0.0468
  960SOL    HW1 3838   1.948   2.172   2.207  0.5558 -0.3290  0.0908
  960SOL    HW2 3839   1.887   2.281   2.280  0.3737 -0.8615  1.8539
  960SOL     MW 3840   1.940   2.257   2.219 -0.1279 -0.6574  0.2910
  961SOL     OW 3841   2.202   2.337   2.249 -0.5101 -0.3798  0.3187
  961SOL    HW1 3842   2.108   2.305   2.239 -2.5516  2.8443  0.8750
  961SOL    HW2 3843   2.202   2.376   2.343  2.1492 -1.3140 -2.8011
  961SOL     MW 3844   2.190   2.338   2.260 -0.4286 -0.0777 -0.0195
  962SOL     OW 3845   2.162   2.030   2.801 -0.1709  0.5717 -0.0314
  962SOL    HW1 3846   2.106   2.012   2.874  0.4585 -3.9090 -0.7661
  962SOL    HW2 3847   2.175   1.941   2.755  0.1983 -0.9960 -1.8381
  962SOL     MW 3848   2.156   2.016   2.805 -0.0391 -0.2263 -0.3667
  963SOL     OW 3849   1.829   2.593   2.075 -0.1384 -0.2652  0.0056
  963SOL    HW1 3850   1.918   2.633   2.099 -0.7437  0.7561 -1.4000
  963SOL    HW2 3851   1.854   2.518   2.022 -0.6534  1.0595 -0.1721
  963SOL     MW 3852   1.844   2.588   2.071 -0.2862  0.0443 -0.2033
  964SOL     OW 3853   1.770   1.932   2.721  0.0711 -0.1614  0.0171
  964SOL    HW1 3854   1.849   1.987   2.697  4.8571  0.3651  1.2692
  964SOL    HW2 3855   1.799   1.894   2.807  2.4324  0.1399 -1.1353
  964SOL     MW 3856   1.784   1.934   2.729  1.0141 -0.0522  0.0303
  965SOL     OW 3857   2.223   2.768   0.610 -0.0150  0.1080  0.2448
  965SOL    HW1 3858   2.227   2.671   0.620  1.1986  2.6710  0.6076
  965SOL    HW2 3859   2.261   2.802   0.693  1.8239 -2.5811  2.4323
  965SOL     MW 3860   2.228   2.760   0.622  0.3877  0.0914  0.5813
  966SOL     OW 3861   2.668   2.671   2.490  0.6219  0.2676 -0.5782
  966SOL    HW1 3862   2.617   2.706   2.418 -0.1976  1.4383  2.0821
  966SOL    HW2 3863   2.728   2.606   2.453 -1.7880 -1.5687 -0.5530
  966SOL     MW 3864   2.669   2.667   2.475  0.1958  0.1797 -0.2238
  967SOL     OW 3865   2.778   3.026   2.900 -0.1225  0.5857 -0.2657
  967SOL    HW1 3866   2.758   2.950   2.953 -1.6466  0.5408  0.0685
  967SOL    HW2 3867   2.690   3.056   2.865 -1.7559 -0.0004 -1.1117
  967SOL     MW 3868   2.764   3.020   2.903 -0.5391  0.5024 -0.3332
  968SOL     OW 3869   3.038   2.640   2.918 -0.5277 -0.2534  0.2238
  968SOL    HW1 3870   2.979   2.664   2.837  2.5060 -0.2291 -0.2157
  968SOL    HW2 3871   3.118   2.595   2.883  0.6266 -1.9695 -0.0856
  968SOL     MW 3872   3.041   2.637   2.903  0.0249 -0.4766  0.1250
  969SOL     OW 3873   1.562   2.156   1.657  0.4404 -1.1861 -0.7859
  969SOL    HW1 3874   1.623   2.080   1.654 -1.9685 -0.7676 -1.1006
  969SOL    HW2 3875   1.553   2.151   1.756  1.9988  0.2605 -0.5665
  969SOL     MW 3876   1.569   2.145   1.670  0.3282 -0.9400 -0.7985
  970SOL     OW 3877   1.659   1.749   1.826  0.2301  0.7680  0.5589
  970SOL    HW1 3878   1.717   1.709   1.885 -1.8915  0.7688  0.9078
  970SOL    HW2 3879   1.583   1.779   1.875  0.4521 -1.2697  3.6202
  970SOL     MW 3880   1.656   1.748   1.840 -0.0206  0.4992  1.0088
  971SOL     OW 3881   1.752   3.082   2.394  0.4111  0.6816 -0.0733
  971SOL    HW1 3882   1.791   3.057   2.308  0.1099 -0.1661  2.0272
  971SOL    HW2 3883   1.802   3.156   2.423  0.8900  0.6833  0.6912
  971SOL     MW 3884   1.763   3.088   2.387  0.4346  0.5700  0.3047
  972SOL     OW 3885   0.264   2.880   2.464  0.0226 -0.3523  0.2342
  972SOL    HW1 3886   0.327   2.808   2.470  2.4901  0.5897  0.2329
  972SOL    HW2 3887   0.311   2.970   2.477  0.2879  1.8627  1.3320
  972SOL     MW 3888   0.278   2.882   2.467  0.3832  0.0643  0.3789
  973SOL     OW 3889   2.528   0.021   2.065 -0.1911 -0.1046 -0.2064
  973SOL    HW1 3890   2.518  -0.072   2.051  0.7223 -2.8293 -0.0821
  973SOL    HW2 3891   2.586   0.052   1.991  0.2687  1.0747 -0.2903
  973SOL     MW 3892   2.534   0.013   2.053 -0.0099 -0.3085 -0.2010
  974SOL     OW 3893   2.056   0.218   2.687 -0.0292 -0.2265  0.0451
  974SOL    HW1 3894   2.150   0.204   2.680 -0.2192 -1.3462  0.3029
  974SOL    HW2 3895   2.029   0.145   2.746  2.1365  0.6186  0.4469
  974SOL     MW 3896   2.065   0.206   2.694  0.2315 -0.2627  0.1322
  975SOL     OW 3897   2.196   2.453   2.496 -0.1357  0.2652  0.1257
  975SOL    HW1 3898   2.271   2.514   2.506 -1.1814  3.0404  2.5076
  975SOL    HW2 3899   2.121   2.517   2.500 -0.1781 -0.8205  0.5977
  975SOL     MW 3900   2.196   2.469   2.498 -0.2793  0.4881  0.5023
  976SOL     OW 3901   0.222   0.358   1.730 -0.8901 -0.7072  0.2842
  976SOL    HW1 3902   0.283   0.292   1.771  0.8025 -1.5969 -1.2992
  976SOL    HW2 3903   0.153   0.305   1.688  3.2234  3.2128  0.0336
  976SOL     MW 3904   0.221   0.342   1.730 -0.1241 -0.3074  0.0422
  977SOL     OW 3905   1.735   2.609   2.504  0.0708 -0.0808  0.2214
  977SOL    HW1 3906   1.752   2.518   2.481 -1.0192 -0.5170  1.8826
  977SOL    HW2 3907   1.822   2.646   2.502 -2.1538  1.6053  1.9792
  977SOL     MW 3908   1.749   2.602   2.501 -0.3665  0.0841  0.6725
   3.10000   3.10000   3.10000
