977 TIP4P/2005f water molecules t=   0.44000 step= 440
 3908
    1SOL     OW    1   0.290   0.778   0.035  0.5639  0.4169  0.1982
    1SOL    HW1    2   0.274   0.803  -0.058  0.7124 -0.1835  1.7812
    1SOL    HW2    3   0.264   0.686   0.044 -0.7693  1.6032  0.3350
    1SOL     MW    4   0.285   0.769   0.024  0.4076  0.4942  0.4251
    2SOL     OW    5   0.301   3.050   1.186 -0.2146  0.2894  0.2355
    2SOL    HW1    6   0.361   3.111   1.141 -1.9508  1.4700  0.6743
    2SOL    HW2    7   0.210   3.090   1.181  1.8923  2.2572 -0.9911
    2SOL     MW    8   0.297   3.063   1.180 -0.1657  0.7048  0.1315
    3SOL     OW    9   2.658   0.392   0.926  0.0380  0.4289  0.5322
    3SOL    HW1   10   2.700   0.448   0.856 -1.6184 -3.3213  0.3488
    3SOL    HW2   11   2.626   0.443   1.002 -1.9565 -1.5043 -2.9160
    3SOL     MW   12   2.660   0.406   0.927 -0.4437 -0.3209  0.0530
    4SOL     OW   13   3.047   1.751   0.578 -0.4686 -0.2053  0.6906
    4SOL    HW1   14   2.975   1.803   0.529 -2.5401  0.7422 -1.7581
    4SOL    HW2   15   3.072   1.684   0.514  0.4232 -1.0358 -1.6855
    4SOL     MW   16   3.041   1.749   0.563 -0.6243 -0.1899  0.0540
    5SOL     OW   17   1.732   1.469   0.592  0.5426  1.0341  0.2932
    5SOL    HW1   18   1.798   1.442   0.660  2.4259 -1.6753 -1.2609
    5SOL    HW2   19   1.644   1.459   0.623 -1.0289 -0.2089 -0.4604
    5SOL     MW   20   1.729   1.464   0.605  0.5837  0.5126 -0.0113
    6SOL     OW   21   0.871   1.388   0.672 -0.5856 -0.9018  0.8818
    6SOL    HW1   22   0.778   1.372   0.674 -2.3718 -1.9646 -1.9203
    6SOL    HW2   23   0.908   1.302   0.690  1.7256  0.6835 -1.0376
    6SOL     MW   24   0.863   1.375   0.675 -0.5164 -0.8329  0.2589
    7SOL     OW   25   1.980   1.076   0.052 -0.1432 -0.1161  0.1793
    7SOL    HW1   26   2.037   1.146   0.011  0.0840 -0.4660 -2.0975
    7SOL    HW2   27   2.008   1.075   0.146 -0.9843  3.5537  2.2733
    7SOL     MW   28   1.991   1.085   0.059 -0.2242  0.3219  0.1552
    8SOL     OW   29   0.968   1.338   1.007  0.0066  0.1226 -0.1690
    8SOL    HW1   30   0.967   1.295   1.092  1.9151 -1.9506 -2.0137
    8SOL    HW2   31   1.024   1.406   1.026 -2.6795 -0.2447  3.2836
    8SOL     MW   32   0.976   1.342   1.021 -0.0960 -0.1994  0.0431
    9SOL     OW   33   1.062   0.459   1.353  0.1822  0.1061  0.5711
    9SOL    HW1   34   0.998   0.410   1.303 -0.0730  1.8912  1.1728
    9SOL    HW2   35   1.083   0.421   1.437  0.4660  2.6526  0.8781
    9SOL     MW   36   1.057   0.447   1.357  0.1860  0.6776  0.6910
   10SOL     OW   37   0.285   0.792   0.444  0.0198 -0.5055  0.1040
   10SOL    HW1   38   0.385   0.814   0.429  3.8002 -0.0645  3.2019
   10SOL    HW2   39   0.251   0.845   0.521 -2.0096 -0.0463  0.4422
   10SOL     MW   40   0.294   0.802   0.452  0.2508 -0.3867  0.5574
   11SOL     OW   41   0.788   1.082   1.622 -0.1598  0.0622  0.2187
   11SOL    HW1   42   0.783   1.090   1.719  1.1046 -1.7077 -0.7666
   11SOL    HW2   43   0.772   0.990   1.588  0.8055  1.7423  0.6229
   11SOL     MW   44   0.785   1.071   1.630  0.1344  0.0504  0.1420
   12SOL     OW   45   0.029   1.093   0.870  0.3972 -0.2700  0.3375
   12SOL    HW1   46   0.016   1.169   0.919 -3.3199 -2.0609 -3.3978
   12SOL    HW2   47  -0.017   1.129   0.798 -0.9176 -0.8548  1.3911
   12SOL     MW   48   0.021   1.108   0.867 -0.2667 -0.5834 -0.0163
   13SOL     OW   49   1.896   1.398   1.334  0.0721 -0.2620 -0.2586
   13SOL    HW1   50   1.909   1.354   1.252 -2.6540 -0.3758  1.1747
   13SOL    HW2   51   1.881   1.489   1.308 -1.5548  2.7443 -1.7866
   13SOL     MW   52   1.895   1.404   1.320 -0.5023  0.1196 -0.2711
   14SOL     OW   53   0.606   0.313   1.790 -0.1683 -0.0132  0.0400
   14SOL    HW1   54   0.595   0.252   1.714 -0.6743  0.7586  0.0652
   14SOL    HW2   55   0.684   0.288   1.835  0.3677  3.0280  0.7823
   14SOL     MW   56   0.615   0.302   1.786 -0.1643  0.4899  0.1412
   15SOL     OW   57   1.995   0.512   0.956 -0.8046 -0.2993  0.1376
   15SOL    HW1   58   2.017   0.543   1.040 -0.5246 -1.5403 -0.7458
   15SOL    HW2   59   2.080   0.492   0.907 -1.2740  0.2961 -1.5588
   15SOL     MW   60   2.009   0.514   0.961 -0.8296 -0.3845 -0.2028
   16SOL     OW   61   0.199   1.751   0.335 -0.2027 -0.1761 -0.0565
   16SOL    HW1   62   0.285   1.706   0.347  1.5901  1.2764  2.2287
   16SOL    HW2   63   0.205   1.840   0.383 -0.5422  0.0189 -2.3000
   16SOL     MW   64   0.211   1.757   0.343 -0.0109  0.0412 -0.0510
   17SOL     OW   65   1.019   0.821   1.514 -0.0975 -0.1911  0.1043
   17SOL    HW1   66   1.056   0.836   1.605  0.0361  0.4771 -2.2651
   17SOL    HW2   67   0.951   0.757   1.526 -1.9215  0.0943 -1.6010
   17SOL     MW   68   1.015   0.814   1.528 -0.3205 -0.0653 -0.4333
   18SOL     OW   69   0.075   1.538   0.458  0.0453  0.2605 -0.2377
   18SOL    HW1   70   0.104   1.604   0.391  0.4379  0.6588  1.5897
   18SOL    HW2   71   0.012   1.482   0.407  0.2313  0.3411  0.2513
   18SOL     MW   72   0.070   1.539   0.442  0.1217  0.3237  0.0679
   19SOL     OW   73   0.080   1.353   0.998 -0.1918 -0.4454 -0.6618
   19SOL    HW1   74   0.128   1.391   0.927  0.0873  1.0970  0.8577
   19SOL    HW2   75  -0.011   1.387   0.992  0.7436 -1.6329  1.3939
   19SOL     MW   76   0.074   1.363   0.988 -0.0316 -0.3986 -0.1901
   20SOL     OW   77   0.446   2.131   1.315 -0.0415 -0.2246  0.1666
   20SOL    HW1   78   0.399   2.064   1.267 -0.6415 -0.9073 -0.1441
   20SOL    HW2   79   0.387   2.181   1.374  0.9235  0.5217  1.6689
   20SOL     MW   80   0.432   2.129   1.317  0.0067 -0.2162  0.3238
   21SOL     OW   81   0.523   0.865   0.344 -0.2177 -0.6043 -0.2154
   21SOL    HW1   82   0.577   0.817   0.403 -2.1292 -1.3567 -0.1415
   21SOL    HW2   83   0.539   0.825   0.257 -0.3840 -0.4776 -0.9145
   21SOL     MW   84   0.532   0.853   0.340 -0.4918 -0.6868 -0.2979
   22SOL     OW   85   1.547   0.564   1.107  0.7553 -0.1745 -0.6745
   22SOL    HW1   86   1.603   0.519   1.046 -3.2005  0.5254  1.2657
   22SOL    HW2   87   1.489   0.628   1.059  1.0402  3.0259  0.5805
   22SOL     MW   88   1.547   0.567   1.093  0.2710  0.3401 -0.2529
   23SOL     OW   89   3.086   0.750   0.709  0.0261 -0.1868 -0.3629
   23SOL    HW1   90   3.119   0.670   0.747  0.0982  0.7505  0.3452
   23SOL    HW2   91   3.161   0.806   0.716  1.7257 -1.8203  3.4853
   23SOL     MW   92   3.100   0.747   0.715  0.2598 -0.2787  0.2383
   24SOL     OW   93   2.003   2.187   0.072  0.5332 -0.6709  0.0453
   24SOL    HW1   94   2.002   2.195   0.170 -2.4210 -2.1763  1.2894
   24SOL    HW2   95   2.089   2.144   0.055 -0.2100  1.1759 -0.9311
   24SOL     MW   96   2.014   2.182   0.082  0.0453 -0.6259  0.0806
   25SOL     OW   97   0.312   1.415   0.534  0.6735  0.2533  0.1940
   25SOL    HW1   98   0.227   1.464   0.518 -2.0724  2.4941  1.3841
   25SOL    HW2   99   0.366   1.435   0.466 -0.3135  0.9968 -0.7414
   25SOL     MW  100   0.308   1.424   0.523  0.1810  0.6470  0.2276
   26SOL     OW  101   2.050   0.912   0.465  0.4147 -0.2301  0.2373
   26SOL    HW1  102   1.953   0.947   0.467 -0.0606 -0.1257  2.2717
   26SOL    HW2  103   2.083   0.961   0.390  0.8283 -1.6747 -0.0389
   26SOL     MW  104   2.042   0.923   0.455  0.4066 -0.4069  0.4693
   27SOL     OW  105   2.016   1.380   0.269  0.4539 -0.3057 -0.2764
   27SOL    HW1  106   1.925   1.365   0.299  0.0865  0.3650 -0.3119
   27SOL    HW2  107   2.062   1.434   0.336  3.3413 -0.9005 -0.9708
   27SOL     MW  108   2.010   1.385   0.282  0.7864 -0.2957 -0.3727
   28SOL     OW  109   0.376   1.039   1.939 -0.0225 -0.3903  0.5546
   28SOL    HW1  110   0.346   0.952   1.921  0.0054  0.4378 -2.2581
   28SOL    HW2  111   0.425   1.011   2.019 -1.5777  1.6926  2.7927
   28SOL     MW  112   0.379   1.024   1.947 -0.2240 -0.0062  0.4788
   29SOL     OW  113   0.262   1.421   0.785  0.4121  0.2198  0.1195
   29SOL    HW1  114   0.269   1.518   0.791  0.0085 -0.3596 -0.3194
   29SOL    HW2  115   0.272   1.401   0.688  1.9216  0.3017 -0.6150
   29SOL     MW  116   0.264   1.431   0.773  0.5580  0.1542 -0.0353
   30SOL     OW  117   0.871   1.044   1.213 -0.0357  0.4140  0.5524
   30SOL    HW1  118   0.783   1.076   1.258 -1.9379 -1.0618  0.1175
   30SOL    HW2  119   0.943   1.057   1.278  0.3052  3.1065  1.3596
   30SOL     MW  120   0.869   1.050   1.228 -0.2417  0.5745  0.6015
   31SOL     OW  121   0.405   0.288   0.237 -0.0140 -0.7494 -0.2953
   31SOL    HW1  122   0.424   0.210   0.297 -1.2197  0.0079 -0.4750
   31SOL    HW2  123   0.402   0.250   0.148 -1.5844  3.4426  1.4773
   31SOL     MW  124   0.407   0.273   0.233 -0.3803 -0.0964 -0.0851
   32SOL     OW  125   2.751   1.053   1.121  0.2398  0.3257  0.3157
   32SOL    HW1  126   2.694   0.974   1.104 -0.5070 -0.8314  1.5929
   32SOL    HW2  127   2.843   1.025   1.118 -0.8230 -1.1970 -1.5420
   32SOL     MW  128   2.756   1.039   1.119  0.0011 -0.0278  0.2391
   33SOL     OW  129   1.748   1.326   0.367  0.1408  0.7381  0.3036
   33SOL    HW1  130   1.751   1.231   0.383  0.1484  0.7117  0.5122
   33SOL    HW2  131   1.740   1.365   0.452  2.2232  2.7138 -2.2664
   33SOL     MW  132   1.747   1.318   0.380  0.4166  0.9953 -0.0080
   34SOL     OW  133   1.199   1.876   1.082 -0.0367  0.3881  0.0756
   34SOL    HW1  134   1.115   1.915   1.097 -0.2953  0.6256 -0.5724
   34SOL    HW2  135   1.255   1.903   1.164 -0.9671  0.4162  0.3839
   34SOL     MW  136   1.195   1.885   1.095 -0.1936  0.4231  0.0308
   35SOL     OW  137   0.312   0.113   1.811 -0.3073  0.0216  0.1349
   35SOL    HW1  138   0.393   0.128   1.866  0.4933  1.5813  1.5918
   35SOL    HW2  139   0.339   0.038   1.751 -0.2471 -0.0517 -0.0810
   35SOL     MW  140   0.326   0.105   1.811 -0.1937  0.2177  0.2987
   36SOL     OW  141   1.889   1.961   0.514 -0.0329  0.2273  0.6711
   36SOL    HW1  142   1.891   1.937   0.417 -1.6421 -0.8502 -2.0496
   36SOL    HW2  143   1.903   1.871   0.560  2.7440 -0.9984  4.2946
   36SOL     MW  144   1.891   1.946   0.508  0.1212 -0.0766  0.7902
   37SOL     OW  145   1.745   2.068   0.992  0.1398  0.0242  0.0420
   37SOL    HW1  146   1.710   1.994   0.947  3.3839 -0.2321 -0.5101
   37SOL    HW2  147   1.688   2.100   1.072  0.1592  0.7602  3.1859
   37SOL     MW  148   1.733   2.063   0.996  0.5704  0.0875  0.3840
   38SOL     OW  149   2.824   0.926   0.179 -0.1530 -0.1087 -0.2380
   38SOL    HW1  150   2.861   0.954   0.261  0.9257  0.2858  1.7117
   38SOL    HW2  151   2.898   0.897   0.130 -1.6823 -2.2841 -1.5543
   38SOL     MW  152   2.838   0.926   0.183 -0.2124 -0.3436 -0.1544
   39SOL     OW  153   1.450   0.641   0.803 -0.4203 -0.3926 -0.1425
   39SOL    HW1  154   1.452   0.545   0.807 -3.2635 -0.5414  2.5305
   39SOL    HW2  155   1.357   0.666   0.808  1.2432  1.2623 -2.4804
   39SOL     MW  156   1.438   0.632   0.804 -0.5759 -0.1939 -0.0983
   40SOL     OW  157   1.265   1.880   0.248 -0.2012  0.3376 -0.0225
   40SOL    HW1  158   1.299   1.798   0.283  3.4538  0.7020  1.1172
   40SOL    HW2  159   1.259   1.937   0.323 -0.3811 -0.4996  1.5012
   40SOL     MW  160   1.269   1.877   0.262  0.2573  0.2752  0.3289
   41SOL     OW  161   0.598   0.484   1.591  0.0568 -0.7905 -0.3731
   41SOL    HW1  162   0.683   0.516   1.570  0.2134  0.3145 -0.7134
   41SOL    HW2  163   0.606   0.434   1.671  0.8576  1.4717 -1.9596
   41SOL     MW  164   0.610   0.482   1.599  0.1831 -0.3462 -0.6273
   42SOL     OW  165   1.304   3.012   2.000  0.2688 -0.0509 -0.1268
   42SOL    HW1  166   1.216   2.997   2.039  0.5640  0.8385  0.1443
   42SOL    HW2  167   1.361   2.938   2.006 -2.2834 -0.9609  1.3016
   42SOL     MW  168   1.300   3.000   2.006 -0.0290 -0.0536  0.0974
   43SOL     OW  169   1.574   0.190   1.689 -0.5296  0.0710  0.4168
   43SOL    HW1  170   1.627   0.173   1.615 -1.5085 -0.6561  0.5162
   43SOL    HW2  171   1.495   0.123   1.695 -3.7441 -3.3434  1.6443
   43SOL     MW  172   1.570   0.179   1.680 -1.0829 -0.4754  0.5919
   44SOL     OW  173   1.302   0.730   1.078 -0.2167 -0.0635  0.2189
   44SOL    HW1  174   1.309   0.823   1.082 -1.2814  1.1900  0.3298
   44SOL    HW2  175   1.314   0.703   1.168  0.5535  0.0133  0.0787
   44SOL     MW  176   1.305   0.739   1.090 -0.2556  0.1120  0.2150
   45SOL     OW  177   1.190   0.712   0.776  0.1300 -0.1067 -0.1532
   45SOL    HW1  178   1.132   0.695   0.855 -3.6401  0.2783  0.8213
   45SOL    HW2  179   1.147   0.665   0.700  3.5020  1.5572  0.8875
   45SOL     MW  180   1.177   0.704   0.776  0.0775  0.1636  0.1127
   46SOL     OW  181   0.554   1.161   0.531  0.3619  0.4300 -0.3517
   46SOL    HW1  182   0.536   1.159   0.435 -0.0192 -3.3780 -2.6375
   46SOL    HW2  183   0.651   1.136   0.532 -0.0621 -0.4105 -0.0991
   46SOL     MW  184   0.565   1.158   0.518  0.2557 -0.1833 -0.6199
   47SOL     OW  185   0.176   1.921   1.820  0.0382 -0.2776  0.0867
   47SOL    HW1  186   0.236   1.859   1.766  1.6724  0.1583  0.3361
   47SOL    HW2  187   0.179   1.895   1.915 -1.2562  2.0512  1.1956
   47SOL     MW  188   0.184   1.910   1.826  0.0830  0.0872  0.2659
   48SOL     OW  189   1.039   0.625   1.024 -0.6011 -0.3819  0.1157
   48SOL    HW1  190   0.966   0.644   1.080  0.9865  0.1929  1.3475
   48SOL    HW2  191   1.124   0.659   1.061 -1.1396 -2.9850 -2.8741
   48SOL     MW  192   1.041   0.632   1.036 -0.4626 -0.6495 -0.1163
   49SOL     OW  193   1.803   0.780   1.587 -0.2708  0.3290 -0.4580
   49SOL    HW1  194   1.775   0.741   1.666  1.8641 -0.9989 -0.7521
   49SOL    HW2  195   1.864   0.714   1.563 -0.4062 -2.0109 -0.2449
   49SOL     MW  196   1.808   0.766   1.595 -0.0070 -0.1549 -0.4687
   50SOL     OW  197   1.211   1.028   0.486 -1.1254  0.2753  0.5586
   50SOL    HW1  198   1.179   1.040   0.575  1.8103  0.3098 -0.4819
   50SOL    HW2  199   1.281   0.960   0.513  2.3408 -1.9118 -0.7982
   50SOL     MW  200   1.216   1.020   0.501 -0.2807 -0.0087  0.2423
   51SOL     OW  201   0.327   2.871   0.980 -0.0213  0.0637 -0.3103
   51SOL    HW1  202   0.424   2.872   0.968  1.9136 -0.8422 -1.3018
   51SOL    HW2  203   0.316   2.925   1.063 -0.6588  0.7370 -1.9215
   51SOL     MW  204   0.338   2.878   0.990  0.1499  0.0330 -0.6537
   52SOL     OW  205   0.794   1.762   0.388 -0.4420  0.0397 -0.0450
   52SOL    HW1  206   0.784   1.852   0.414  1.8998 -1.2597 -3.1152
   52SOL    HW2  207   0.746   1.752   0.308  0.2462  0.5113  1.1924
   52SOL     MW  208   0.787   1.772   0.381 -0.0422 -0.0695 -0.2868
   53SOL     OW  209   0.502   2.075   0.566 -0.0680  0.1458  0.1021
   53SOL    HW1  210   0.430   2.022   0.514  0.1734  2.7897  1.4683
   53SOL    HW2  211   0.489   2.171   0.560  1.2727 -2.0308 -0.1482
   53SOL     MW  212   0.491   2.081   0.558  0.1407  0.2074  0.2493
   54SOL     OW  213   2.173   0.811   0.857 -0.4979 -0.3434 -0.6556
   54SOL    HW1  214   2.220   0.799   0.776 -0.5150  1.4194 -1.5450
   54SOL    HW2  215   2.082   0.796   0.837 -1.2997  1.0506  2.0626
   54SOL     MW  216   2.167   0.807   0.844 -0.6060  0.0731 -0.4143
   55SOL     OW  217   0.568   1.491   1.569 -0.3365 -0.3542 -0.0022
   55SOL    HW1  218   0.533   1.552   1.505 -0.3433  2.1702  0.2909
   55SOL    HW2  219   0.643   1.443   1.531  1.5692  1.9250 -2.4327
   55SOL     MW  220   0.573   1.493   1.556 -0.0859  0.2796 -0.2842
   56SOL     OW  221   0.561   0.787   0.084 -0.7160  0.2517  0.0942
   56SOL    HW1  222   0.576   0.876   0.045 -1.6266  1.4064  0.0504
   56SOL    HW2  223   0.466   0.784   0.081 -3.4791 -0.7488  1.2624
   56SOL     MW  224   0.551   0.799   0.078 -1.2007  0.2721  0.2426
   57SOL     OW  225   1.274   1.228   1.229  0.1256 -0.0409  0.3173
   57SOL    HW1  226   1.352   1.237   1.170 -0.2402 -3.3320 -0.1107
   57SOL    HW2  227   1.313   1.221   1.315 -0.4004 -1.9649 -2.9457
   57SOL     MW  228   1.289   1.228   1.233  0.0079 -0.7290 -0.1697
   58SOL     OW  229   0.640   1.109   1.318 -0.4470 -0.1785 -0.5612
   58SOL    HW1  230   0.596   1.187   1.291  0.9195  1.0497  0.7804
   58SOL    HW2  231   0.593   1.095   1.405  1.5816  3.2818  0.0032
   58SOL     MW  232   0.628   1.118   1.326  0.0009  0.4401 -0.3097
   59SOL     OW  233   1.597   1.631   0.336  0.2879 -0.2007  0.5583
   59SOL    HW1  234   1.652   1.579   0.390 -2.7661  0.8969  0.9817
   59SOL    HW2  235   1.509   1.629   0.372 -0.4089 -0.9905  1.0161
   59SOL     MW  236   1.592   1.624   0.348 -0.2070 -0.1601  0.6746
   60SOL     OW  237   3.083   0.223   1.674  0.9077  0.3157  0.4731
   60SOL    HW1  238   2.990   0.242   1.656  1.3699 -1.6248  0.3003
   60SOL    HW2  239   3.078   0.175   1.755  1.4532  0.1870 -1.6334
   60SOL     MW  240   3.070   0.219   1.682  1.0406  0.0427  0.1724
   61SOL     OW  241   2.016   1.446   3.078  1.1248 -0.7779  0.1456
   61SOL    HW1  242   2.021   1.434   3.175 -1.2570 -0.0329  1.9549
   61SOL    HW2  243   2.070   1.381   3.036  1.6711  1.2612  1.0828
   61SOL     MW  244   2.024   1.436   3.085  0.8826 -0.4106  0.5079
   62SOL     OW  245   0.642   1.658   0.613  0.6371  0.3604  0.1681
   62SOL    HW1  246   0.706   1.671   0.530  2.8592  0.2483  2.2305
   62SOL    HW2  247   0.646   1.565   0.628 -0.4068 -0.2467  2.0769
   62SOL     MW  248   0.651   1.648   0.604  0.7925  0.2655  0.6921
   63SOL     OW  249   1.680   0.748   0.692 -0.3430  0.1360  0.2856
   63SOL    HW1  250   1.655   0.798   0.611  0.5532  0.0942  0.0138
   63SOL    HW2  251   1.602   0.735   0.746 -1.5262 -1.8097  1.0860
   63SOL     MW  252   1.667   0.753   0.688 -0.3809 -0.1262  0.3554
   64SOL     OW  253   0.263   1.678   0.819  0.1653 -0.0758 -1.1915
   64SOL    HW1  254   0.335   1.736   0.781 -1.4558 -0.7408 -3.2177
   64SOL    HW2  255   0.189   1.739   0.836 -2.2316  0.4608  1.7837
   64SOL     MW  256   0.262   1.694   0.816 -0.3648 -0.0927 -1.0663
   65SOL     OW  257   1.568   2.315   0.333  0.3935  0.0826  0.6548
   65SOL    HW1  258   1.646   2.260   0.328  0.7848  0.1844  0.1643
   65SOL    HW2  259   1.597   2.370   0.405 -2.8636 -0.2945 -2.3817
   65SOL     MW  260   1.582   2.315   0.342  0.0154  0.0462  0.1895
   66SOL     OW  261   0.350   0.521   0.504  0.4067 -0.2322 -0.1811
   66SOL    HW1  262   0.432   0.502   0.459 -2.0614  1.3741  0.3779
   66SOL    HW2  263   0.319   0.605   0.459 -1.6422  1.1123  0.5063
   66SOL     MW  264   0.356   0.529   0.492 -0.1893  0.1571 -0.0167
   67SOL     OW  265   1.506   0.107   2.035 -0.8950 -0.1435  0.0972
   67SOL    HW1  266   1.537   0.140   1.953 -0.5156 -2.2094 -1.7277
   67SOL    HW2  267   1.439   0.045   2.019 -1.1970 -1.6916 -0.3824
   67SOL     MW  268   1.501   0.103   2.022 -0.8848 -0.6203 -0.2069
   68SOL     OW  269   0.628   0.067   2.952  0.2159  0.0864  0.3013
   68SOL    HW1  270   0.644   0.068   2.856  0.5105  1.2747 -1.4154
   68SOL    HW2  271   0.623   0.163   2.978 -1.5854  0.5508  1.4709
   68SOL     MW  272   0.630   0.080   2.943  0.0171  0.3044  0.2291
   69SOL     OW  273   1.039   0.234   1.958  0.1017 -0.2206  0.2092
   69SOL    HW1  274   1.115   0.265   2.010  1.0297  1.1862 -1.4635
   69SOL    HW2  275   1.034   0.140   1.975  0.8347  2.9072  1.8950
   69SOL     MW  276   1.048   0.225   1.967  0.3209  0.3777  0.2109
   70SOL     OW  277   0.578   1.813   1.117  0.1042 -1.1537 -0.0336
   70SOL    HW1  278   0.632   1.738   1.149  1.1289  0.1499  1.0957
   70SOL    HW2  279   0.570   1.800   1.019  1.7978  0.3879  0.9361
   70SOL     MW  280   0.584   1.802   1.108  0.4629 -0.7783  0.2434
   71SOL     OW  281   1.744   0.637   1.297 -0.4820 -0.1600  0.8667
   71SOL    HW1  282   1.720   0.665   1.383 -1.6194  0.1996 -0.8503
   71SOL    HW2  283   1.667   0.600   1.247  0.3886 -1.3607 -1.3230
   71SOL     MW  284   1.731   0.636   1.302 -0.5172 -0.2709  0.3513
   72SOL     OW  285   0.825   1.774   0.961  0.0531 -0.2972 -0.1722
   72SOL    HW1  286   0.797   1.842   0.889  1.4271 -0.8294  0.2304
   72SOL    HW2  287   0.796   1.683   0.939 -1.5686  1.2795 -0.9606
   72SOL     MW  288   0.818   1.771   0.949  0.0204 -0.1594 -0.2231
   73SOL     OW  289   1.225   0.709   1.354 -0.5635  0.5303 -0.3736
   73SOL    HW1  290   1.171   0.631   1.353  0.5282  0.2939 -0.3620
   73SOL    HW2  291   1.164   0.773   1.391 -0.5369  0.5088  0.1700
   73SOL     MW  292   1.210   0.707   1.359 -0.4160  0.4963 -0.3003
   74SOL     OW  293   2.863   0.169   1.010  0.6248  0.1824  0.2017
   74SOL    HW1  294   2.905   0.167   0.928  0.3920 -1.3568  0.8373
   74SOL    HW2  295   2.798   0.240   1.001 -0.3002 -1.2901  0.9750
   74SOL     MW  296   2.860   0.178   0.998  0.4721 -0.2150  0.3876
   75SOL     OW  297   1.594   1.342   0.122  0.1966  0.0872  0.1526
   75SOL    HW1  298   1.626   1.359   0.210 -1.2621 -3.2900 -1.2441
   75SOL    HW2  299   1.635   1.257   0.103 -0.4480  0.5735  1.7803
   75SOL     MW  300   1.604   1.333   0.131 -0.0809 -0.2942  0.1830
   76SOL     OW  301   2.970   0.653   0.484  0.5929 -0.1156 -0.0032
   76SOL    HW1  302   3.016   0.677   0.564 -0.6864  1.5401 -1.2040
   76SOL    HW2  303   3.030   0.582   0.454 -0.4732 -2.7792  0.0871
   76SOL     MW  304   2.984   0.647   0.490  0.2835 -0.2486 -0.1497
   77SOL     OW  305   0.854   0.468   0.453 -0.8976 -0.1605 -0.1523
   77SOL    HW1  306   0.768   0.484   0.409 -0.3555 -0.1626 -2.0513
   77SOL    HW2  307   0.832   0.383   0.495 -1.2343  2.5585  0.8820
   77SOL     MW  308   0.839   0.459   0.453 -0.8705  0.1980 -0.2663
   78SOL     OW  309   0.758   0.806   1.208 -0.1924  0.2131  0.4117
   78SOL    HW1  310   0.673   0.817   1.162 -2.9885 -2.2126  0.5176
   78SOL    HW2  311   0.806   0.893   1.203 -3.1742  0.5866 -3.3525
   78SOL     MW  312   0.753   0.819   1.201 -0.9548 -0.0576 -0.0710
   79SOL     OW  313   1.937   1.715   0.606 -0.2891 -0.3611 -0.2480
   79SOL    HW1  314   1.856   1.673   0.592 -1.2489  0.5272 -2.2251
   79SOL    HW2  315   1.951   1.719   0.704 -1.2955 -0.6652 -0.1661
   79SOL     MW  316   1.928   1.710   0.617 -0.5485 -0.2840 -0.4980
   80SOL     OW  317   0.165   1.012   0.354 -0.4982  0.3957 -0.0606
   80SOL    HW1  318   0.072   0.982   0.378 -1.1157  0.2910 -1.8211
   80SOL    HW2  319   0.214   0.933   0.366 -0.5614 -0.2540 -0.4047
   80SOL     MW  320   0.159   0.998   0.359 -0.5881  0.2961 -0.3383
   81SOL     OW  321   1.898   1.909   0.250  0.0614  0.2197 -1.0261
   81SOL    HW1  322   1.861   1.824   0.234 -1.6512  1.5365 -0.0350
   81SOL    HW2  323   1.819   1.973   0.240 -0.3872 -0.3684 -2.2788
   81SOL     MW  324   1.883   1.907   0.247 -0.2238  0.3159 -1.0606
   82SOL     OW  325   0.817   1.041   0.515 -0.4345 -0.1960 -0.8044
   82SOL    HW1  326   0.844   1.094   0.438 -3.0551  3.7260 -2.8014
   82SOL    HW2  327   0.833   0.956   0.484  1.3975  1.5153  1.4928
   82SOL     MW  328   0.823   1.037   0.501 -0.5385  0.5473 -0.7648
   83SOL     OW  329   0.166   0.629   1.335  0.3027  0.0610 -0.5751
   83SOL    HW1  330   0.128   0.715   1.329 -0.8135 -2.9602  1.0931
   83SOL    HW2  331   0.220   0.616   1.416  1.4808  2.5521  2.2945
   83SOL     MW  332   0.168   0.639   1.345  0.3109 -0.0089  0.0237
   84SOL     OW  333   0.079   0.241   0.936 -0.0805 -0.1150 -0.7424
   84SOL    HW1  334  -0.000   0.289   0.904 -3.7352 -1.5751 -0.3021
   84SOL    HW2  335   0.049   0.175   0.998  0.5621 -1.0450 -1.1431
   84SOL     MW  336   0.065   0.239   0.940 -0.4779 -0.4304 -0.7372
   85SOL     OW  337   0.436   0.437   0.764 -0.1520 -0.1600 -0.4269
   85SOL    HW1  338   0.403   0.485   0.685  1.7886  4.9591 -1.8048
   85SOL    HW2  339   0.418   0.344   0.757 -0.7566 -2.5821 -0.1959
   85SOL     MW  340   0.429   0.431   0.753  0.0243  0.1958 -0.5782
   86SOL     OW  341   1.217   0.414   1.096  0.5975  0.0779 -0.7477
   86SOL    HW1  342   1.154   0.462   1.043 -1.1831 -0.8344 -1.0874
   86SOL    HW2  343   1.186   0.420   1.187  0.3653  1.8664 -2.1381
   86SOL     MW  344   1.204   0.421   1.101  0.3319  0.1935 -0.9760
   87SOL     OW  345   1.198   1.503   1.211 -0.0780 -0.1596 -0.2844
   87SOL    HW1  346   1.232   1.527   1.124 -1.3419 -2.3097  0.5260
   87SOL    HW2  347   1.225   1.413   1.224 -1.9017  2.3209  1.1096
   87SOL     MW  348   1.206   1.495   1.202 -0.4854 -0.1160  0.0065
   88SOL     OW  349   1.263   1.010   1.016 -0.1580  0.0764  0.5296
   88SOL    HW1  350   1.361   1.003   1.014 -0.6100  1.0686 -1.3217
   88SOL    HW2  351   1.243   1.077   1.079  1.1202 -1.5371  2.9459
   88SOL     MW  352   1.273   1.018   1.024 -0.0490 -0.0056  0.6042
   89SOL     OW  353   1.760   0.662   0.339  0.9139  0.2948 -0.5355
   89SOL    HW1  354   1.817   0.593   0.367  0.9114  0.4891  0.9463
   89SOL    HW2  355   1.818   0.695   0.264  2.2710 -2.3384 -0.6264
   89SOL     MW  356   1.775   0.657   0.333  1.0926 -0.0270 -0.3520
   90SOL     OW  357   0.704   1.198   2.783  0.3135 -0.5328 -0.0128
   90SOL    HW1  358   0.738   1.106   2.798  2.4829  0.9677  1.2310
   90SOL    HW2  359   0.698   1.232   2.880 -1.2103  4.9924 -2.3680
   90SOL     MW  360   0.707   1.190   2.798  0.3987  0.3942 -0.1594
   91SOL     OW  361   2.159   0.685   0.585  1.0242  0.4265  0.2966
   91SOL    HW1  362   2.141   0.767   0.544 -0.3806 -2.1907 -0.1752
   91SOL    HW2  363   2.115   0.622   0.532  2.7299  0.9538  1.5036
   91SOL     MW  364   2.151   0.687   0.572  1.0639  0.1508  0.3936
   92SOL     OW  365   1.604   0.869   0.456  1.0907  0.1951 -0.0566
   92SOL    HW1  366   1.510   0.836   0.452 -0.8385 -0.9024  0.4675
   92SOL    HW2  367   1.653   0.798   0.414 -0.0458  1.2978  1.1444
   92SOL     MW  368   1.598   0.855   0.450  0.6862  0.1958  0.1710
   93SOL     OW  369   1.054   0.317   0.339 -0.0066 -0.1780  0.0068
   93SOL    HW1  370   0.977   0.370   0.356 -0.3820 -0.2811  0.9085
   93SOL    HW2  371   1.085   0.333   0.248  2.5208 -0.1906 -1.8185
   93SOL     MW  372   1.048   0.326   0.329  0.2773 -0.1933 -0.1151
   94SOL     OW  373   1.924   1.348   1.612  0.2983  0.7008 -0.6475
   94SOL    HW1  374   1.904   1.357   1.517  2.3873 -0.4608 -0.9823
   94SOL    HW2  375   1.886   1.259   1.640 -0.0181 -2.2906  1.3152
   94SOL     MW  376   1.916   1.337   1.603  0.5322  0.1528 -0.4327
   95SOL     OW  377   0.753   1.504   0.931 -0.8839 -0.1168 -0.2213
   95SOL    HW1  378   0.821   1.434   0.950  2.4270  0.3931  2.7496
   95SOL    HW2  379   0.693   1.512   1.003  0.3247  2.1111 -2.4944
   95SOL     MW  380   0.754   1.496   0.943 -0.2876  0.2444 -0.1292
   96SOL     OW  381   1.228   1.806   1.576 -0.6773 -0.3430  0.1585
   96SOL    HW1  382   1.154   1.751   1.596  1.3703  4.1336 -0.6476
   96SOL    HW2  383   1.282   1.768   1.512  1.6426 -2.4452  3.2713
   96SOL     MW  384   1.225   1.794   1.570 -0.1011 -0.0297  0.4628
   97SOL     OW  385   1.208   1.406   0.781 -0.3178  0.4109 -0.0838
   97SOL    HW1  386   1.242   1.463   0.850 -0.3669  2.5291  0.5469
   97SOL    HW2  387   1.123   1.444   0.751 -3.2400 -0.5814 -1.6505
   97SOL     MW  388   1.201   1.418   0.786 -0.7098  0.5594 -0.2073
   98SOL     OW  389   1.488   1.312   1.088  0.1197 -0.3592 -0.5253
   98SOL    HW1  390   1.507   1.380   1.154 -2.2715 -0.0102 -1.7471
   98SOL    HW2  391   1.506   1.357   1.007 -1.5867 -1.1009 -0.0056
   98SOL     MW  392   1.493   1.327   1.086 -0.4209 -0.4110 -0.6179
   99SOL     OW  393   1.507   0.375   1.284 -0.3888  0.1231  0.5294
   99SOL    HW1  394   1.508   0.441   1.215 -1.1050  1.9994  0.3932
   99SOL    HW2  395   1.473   0.406   1.366 -0.0210  1.1552  0.9958
   99SOL     MW  396   1.503   0.388   1.285 -0.4348  0.5069  0.5730
  100SOL     OW  397   1.021   1.079   1.433 -0.2672  0.1892  0.2141
  100SOL    HW1  398   0.939   1.115   1.471 -2.6841 -1.8412  0.1299
  100SOL    HW2  399   1.022   0.982   1.455  1.1085  1.4327  0.6475
  100SOL     MW  400   1.010   1.071   1.441 -0.4046  0.0853  0.2602
  101SOL     OW  401   0.583   1.118   0.252 -0.4160 -0.2730  0.1636
  101SOL    HW1  402   0.572   1.026   0.287  0.1777 -0.1497 -1.2020
  101SOL    HW2  403   0.550   1.114   0.163  1.6422 -0.2320  1.5404
  101SOL     MW  404   0.577   1.106   0.245 -0.0661 -0.2513  0.1650
  102SOL     OW  405   2.942   0.612   1.003 -0.0780  0.8325 -0.1938
  102SOL    HW1  406   2.994   0.694   0.981 -2.3155 -0.8746 -2.1224
  102SOL    HW2  407   2.986   0.573   1.078 -1.5336 -0.0805 -2.5153
  102SOL     MW  408   2.955   0.618   1.010 -0.5652  0.4868 -0.7546
  103SOL     OW  409   1.664   0.396   1.870 -0.0329 -0.8381 -0.1626
  103SOL    HW1  410   1.640   0.341   1.797  3.2525  1.5753  1.9531
  103SOL    HW2  411   1.742   0.355   1.907  1.0140  1.5070 -2.7113
  103SOL     MW  412   1.671   0.383   1.865  0.5387 -0.2103 -0.2197
  104SOL     OW  413   0.171   1.840   1.421 -0.4330 -0.1770  0.1495
  104SOL    HW1  414   0.259   1.795   1.398  0.1204 -1.4450  1.7551
  104SOL    HW2  415   0.119   1.833   1.345 -1.8524  0.9466  2.9685
  104SOL     MW  416   0.175   1.833   1.408 -0.5473 -0.1960  0.7333
  105SOL     OW  417   0.142   1.213   0.556 -0.6653  0.3985 -0.4419
  105SOL    HW1  418   0.159   1.146   0.487 -0.8775 -3.0501 -0.8343
  105SOL    HW2  419   0.208   1.288   0.546 -0.4776  0.8122  2.7637
  105SOL     MW  420   0.153   1.214   0.545 -0.6686 -0.0019 -0.0707
  106SOL     OW  421   0.833   0.312   0.943  0.4835  0.0408  0.2435
  106SOL    HW1  422   0.778   0.383   0.910  1.2452 -1.0721  0.7295
  106SOL    HW2  423   0.924   0.322   0.906  0.2622 -3.4751 -0.0198
  106SOL     MW  424   0.838   0.323   0.934  0.5548 -0.5699  0.2729
  107SOL     OW  425   0.843   2.184   2.982 -0.2314 -0.6325 -0.4939
  107SOL    HW1  426   0.795   2.113   2.942  1.6921  0.4633 -1.3589
  107SOL    HW2  427   0.869   2.167   3.072  1.2838  2.7939  0.4075
  107SOL     MW  428   0.840   2.172   2.989  0.2223 -0.0359 -0.4891
  108SOL     OW  429   1.370   1.632   1.422 -0.4365  0.3967  0.2527
  108SOL    HW1  430   1.301   1.606   1.361  0.7726 -1.4239 -1.1503
  108SOL    HW2  431   1.359   1.554   1.486 -2.8866 -2.7485  0.3151
  108SOL     MW  432   1.359   1.618   1.422 -0.6003 -0.2585  0.0758
  109SOL     OW  433   1.949   0.762   0.185 -0.1709 -0.1238  0.1653
  109SOL    HW1  434   1.963   0.795   0.102 -0.6929  0.1319  2.9484
  109SOL    HW2  435   2.030   0.778   0.231  1.1050  0.7961 -2.0883
  109SOL     MW  436   1.961   0.769   0.180 -0.0714  0.0313  0.2352
  110SOL     OW  437   0.473   1.830   0.715  0.5733  1.2997  0.1256
  110SOL    HW1  438   0.532   1.753   0.696  2.2960 -2.5365  0.7531
  110SOL    HW2  439   0.510   1.894   0.659 -0.5428  2.1221  2.0567
  110SOL     MW  440   0.485   1.828   0.705  0.6533  0.9020  0.4632
  111SOL     OW  441   0.716   0.835   1.496 -0.3744  0.2333 -0.1458
  111SOL    HW1  442   0.740   0.807   1.411  0.8029  2.2582 -0.5499
  111SOL    HW2  443   0.638   0.784   1.516  0.1160  0.3275 -0.8470
  111SOL     MW  444   0.709   0.825   1.488 -0.1544  0.5129 -0.2916
  112SOL     OW  445   1.336   1.091   1.735 -0.3998  0.4812 -0.4937
  112SOL    HW1  446   1.298   1.173   1.714 -1.2127  0.6812  0.0527
  112SOL    HW2  447   1.268   1.028   1.732 -1.3422  2.0701 -0.5385
  112SOL     MW  448   1.322   1.093   1.732 -0.6314  0.7172 -0.4275
  113SOL     OW  449   1.356   3.105   1.727 -0.2980 -0.1658  0.4611
  113SOL    HW1  450   1.307   3.065   1.802 -0.5231 -1.0475 -0.9451
  113SOL    HW2  451   1.347   3.034   1.661 -1.8737 -0.6857 -0.5569
  113SOL     MW  452   1.348   3.090   1.728 -0.5356 -0.3508  0.1412
  114SOL     OW  453   0.503   2.812   1.889 -0.4141 -0.1436  0.6048
  114SOL    HW1  454   0.450   2.878   1.934  0.4340 -0.0728 -0.9359
  114SOL    HW2  455   0.486   2.827   1.797  0.9079  1.3095 -1.6292
  114SOL     MW  456   0.494   2.823   1.883 -0.1278  0.0574  0.1068
  115SOL     OW  457   0.466   0.839   1.129  0.4174 -0.1118 -0.0648
  115SOL    HW1  458   0.454   0.744   1.127 -2.1342 -2.7752 -0.9813
  115SOL    HW2  459   0.421   0.870   1.206  2.1426  1.4681 -1.5629
  115SOL     MW  460   0.458   0.830   1.139  0.3084 -0.2548 -0.3834
  116SOL     OW  461   0.776   1.065   0.939  0.2284 -0.0457  0.6658
  116SOL    HW1  462   0.842   1.111   0.888  2.5170  0.9986  1.3463
  116SOL    HW2  463   0.806   1.087   1.029 -0.1154  0.8233  2.0858
  116SOL     MW  464   0.789   1.074   0.944  0.4850  0.2067  0.9429
  117SOL     OW  465   1.235   1.119   0.770  0.1242 -0.1192 -0.1169
  117SOL    HW1  466   1.254   1.076   0.857 -1.8186  1.8570  1.0073
  117SOL    HW2  467   1.225   1.213   0.793 -0.1561 -2.2303 -1.2381
  117SOL     MW  468   1.237   1.126   0.785 -0.1691 -0.1370 -0.1165
  118SOL     OW  469   3.046   2.986   1.697  0.5235 -0.2690 -0.4268
  118SOL    HW1  470   3.102   3.017   1.767 -0.4128  1.4722 -3.5726
  118SOL    HW2  471   2.960   3.029   1.716  2.0487 -2.9176 -2.1101
  118SOL     MW  472   3.042   2.996   1.708  0.6012 -0.3888 -1.0639
  119SOL     OW  473   0.531   1.347   1.224 -0.5713  0.3889  0.1003
  119SOL    HW1  474   0.529   1.343   1.133  1.5653  0.4589  0.8743
  119SOL    HW2  475   0.436   1.326   1.238 -0.1024  2.0028 -0.4814
  119SOL     MW  476   0.518   1.344   1.213 -0.2275  0.6110  0.1257
  120SOL     OW  477   0.184   0.705   0.942 -0.4770  0.1964  0.0183
  120SOL    HW1  478   0.227   0.635   0.995  0.2067  0.8147 -1.3253
  120SOL    HW2  479   0.239   0.781   0.952 -0.0638  2.2902  2.5836
  120SOL     MW  480   0.197   0.706   0.950 -0.3323  0.5542  0.1795
  121SOL     OW  481   1.844   1.085   1.726  0.3465  0.6717  0.2081
  121SOL    HW1  482   1.748   1.076   1.748 -0.5877  0.8452  0.0382
  121SOL    HW2  483   1.859   0.993   1.699 -0.6447 -1.5445 -1.2072
  121SOL     MW  484   1.833   1.071   1.725  0.0925  0.4022 -0.0010
  122SOL     OW  485   0.115   0.516   0.750  0.2091  0.3493 -0.0636
  122SOL    HW1  486   0.181   0.464   0.704  0.1514  0.6234 -0.0996
  122SOL    HW2  487   0.160   0.563   0.820 -0.7451  0.7266 -0.1364
  122SOL     MW  488   0.130   0.516   0.753  0.0756  0.4352 -0.0780
  123SOL     OW  489   1.798   1.078   0.437  0.0967  0.4243  0.2630
  123SOL    HW1  490   1.746   1.000   0.422  3.3224 -2.0602 -0.8896
  123SOL    HW2  491   1.819   1.087   0.535 -0.6489  2.1105  1.0382
  123SOL     MW  492   1.794   1.069   0.448  0.4239  0.3190  0.2132
  124SOL     OW  493   0.675   0.536   0.884  0.0851  0.6269  0.8605
  124SOL    HW1  494   0.599   0.503   0.833 -1.7327 -0.1511 -0.1122
  124SOL    HW2  495   0.684   0.626   0.855 -1.0757  0.1170 -1.1614
  124SOL     MW  496   0.666   0.544   0.873 -0.3079  0.4570  0.4654
  125SOL     OW  497   0.682   1.706   1.686  0.0662  0.7387  0.8086
  125SOL    HW1  498   0.627   1.628   1.648 -2.5290 -1.8347  2.3409
  125SOL    HW2  499   0.636   1.786   1.678  0.6062 -0.7334 -0.8849
  125SOL     MW  500   0.669   1.706   1.680 -0.2050  0.2050  0.7873
  126SOL     OW  501   2.118   1.597   1.955 -0.8849  0.3018 -0.0135
  126SOL    HW1  502   2.183   1.668   1.934  0.5593  0.3912 -0.9681
  126SOL    HW2  503   2.157   1.513   1.976  0.8910 -0.8414  2.1228
  126SOL     MW  504   2.131   1.595   1.955 -0.4601  0.1628  0.1424
  127SOL     OW  505   0.619   0.760   1.854 -0.0800  0.5723  0.4030
  127SOL    HW1  506   0.706   0.719   1.883  1.5491 -1.6581  1.8042
  127SOL    HW2  507   0.627   0.839   1.905 -0.3525 -1.3755 -1.9895
  127SOL     MW  508   0.632   0.765   1.865  0.0990  0.0210  0.2722
  128SOL     OW  509   1.844   0.785   2.893  0.9165  0.6253 -0.0546
  128SOL    HW1  510   1.847   0.767   2.798 -0.7903  0.0624  0.5766
  128SOL    HW2  511   1.795   0.871   2.898 -1.0662 -1.1205  2.2973
  128SOL     MW  512   1.838   0.794   2.881  0.4297  0.3207  0.3390
  129SOL     OW  513   1.512   0.970   0.183  0.5746 -0.0639 -0.2523
  129SOL    HW1  514   1.465   0.894   0.202  3.2562  2.8528 -1.0305
  129SOL    HW2  515   1.565   0.988   0.257 -0.1131  0.4839  0.1492
  129SOL     MW  516   1.513   0.962   0.195  0.8377  0.3932 -0.3020
  130SOL     OW  517   0.752   1.438   0.406  0.0555 -0.4979  0.0438
  130SOL    HW1  518   0.806   1.417   0.481 -2.7619 -1.0202 -1.1544
  130SOL    HW2  519   0.809   1.470   0.338  1.1429  0.9717 -1.3010
  130SOL     MW  520   0.766   1.439   0.407 -0.1728 -0.3729 -0.2917
  131SOL     OW  521   3.049   0.820   0.045 -0.0770  0.2284 -0.7426
  131SOL    HW1  522   3.034   0.878  -0.042 -1.3778  1.3982 -2.4505
  131SOL    HW2  523   3.135   0.864   0.071 -3.8938  1.7543  1.7860
  131SOL     MW  524   3.058   0.833   0.037 -0.7522  0.5841 -0.6343
  132SOL     OW  525   2.782   0.138   1.267  0.1142 -0.0983 -0.0075
  132SOL    HW1  526   2.815   0.139   1.175 -0.0816  2.6046 -0.3583
  132SOL    HW2  527   2.687   0.145   1.251  1.1184  0.4608 -1.4787
  132SOL     MW  528   2.774   0.139   1.253  0.2208  0.3321 -0.2479
  133SOL     OW  529   1.092   0.133   1.697 -0.2336 -0.7525  0.0156
  133SOL    HW1  530   1.169   0.081   1.679 -1.2403 -0.6393  0.2505
  133SOL    HW2  531   1.095   0.164   1.788  1.1498  2.2476 -0.0610
  133SOL     MW  532   1.102   0.130   1.707 -0.1839 -0.3418  0.0365
  134SOL     OW  533   1.376   2.515   1.426 -0.0040 -0.1251  0.2540
  134SOL    HW1  534   1.320   2.580   1.388  1.4918  0.0403  1.6804
  134SOL    HW2  535   1.430   2.541   1.505 -0.8531 -1.8673  1.5687
  134SOL     MW  536   1.376   2.527   1.431  0.0813 -0.3332  0.6157
  135SOL     OW  537   3.013   0.984   2.932 -0.3651 -0.0239 -0.5692
  135SOL    HW1  538   3.082   1.047   2.914 -0.4720  0.1304 -0.7393
  135SOL    HW2  539   2.936   1.031   2.942  1.5351 -3.5577 -2.1872
  135SOL     MW  540   3.012   0.998   2.931 -0.1285 -0.4698 -0.8051
  136SOL     OW  541   0.240   1.993   0.861 -0.9532 -0.3899 -0.7528
  136SOL    HW1  542   0.157   1.948   0.845 -2.5120 -1.7103  0.0205
  136SOL    HW2  543   0.322   1.961   0.814 -0.7643  2.1756 -1.2455
  136SOL     MW  544   0.240   1.983   0.852 -1.1339 -0.2257 -0.7158
  137SOL     OW  545   0.747   2.010   0.510  0.0184  0.3834  0.0340
  137SOL    HW1  546   0.754   1.978   0.597  1.4363 -1.3472 -0.1571
  137SOL    HW2  547   0.653   2.040   0.509 -0.4717 -0.9605  1.2369
  137SOL     MW  548   0.735   2.009   0.521  0.1408 -0.0222  0.1675
  138SOL     OW  549   0.519   0.574   1.123  0.6956  0.1616  0.3827
  138SOL    HW1  550   0.433   0.532   1.112 -1.6951 -0.5275  0.9133
  138SOL    HW2  551   0.569   0.572   1.040 -0.4360  0.7156  1.6440
  138SOL     MW  552   0.515   0.568   1.110  0.2308  0.1438  0.6191
  139SOL     OW  553   2.695   0.495   1.390 -0.5913  1.0905 -0.2364
  139SOL    HW1  554   2.747   0.428   1.340 -0.3969 -0.4256  1.3540
  139SOL    HW2  555   2.767   0.551   1.414  3.1437 -1.4192 -3.0106
  139SOL     MW  556   2.712   0.493   1.387 -0.0729  0.5593 -0.3926
  140SOL     OW  557   0.840   0.385   2.088 -0.0127  0.1425 -0.0326
  140SOL    HW1  558   0.893   0.316   2.044 -0.4766  0.2178 -0.1933
  140SOL    HW2  559   0.871   0.395   2.176 -1.0751 -0.3080 -0.6143
  140SOL     MW  560   0.851   0.377   2.094 -0.2141  0.0930 -0.1305
  141SOL     OW  561   1.031   0.584   1.740  0.0955 -0.0869  0.2676
  141SOL    HW1  562   1.069   0.501   1.700  0.6811  1.3216 -0.1604
  141SOL    HW2  563   1.108   0.640   1.746 -3.1700 -0.8449  0.4849
  141SOL     MW  564   1.046   0.580   1.735 -0.2581 -0.0011  0.2398
  142SOL     OW  565   0.951   1.142   0.748  0.2163  0.0643  0.1975
  142SOL    HW1  566   0.920   1.084   0.668 -1.9139  0.4681 -4.6612
  142SOL    HW2  567   1.047   1.146   0.745 -1.8546  0.9309  1.9248
  142SOL     MW  568   0.960   1.135   0.737 -0.3380  0.2319 -0.2157
  143SOL     OW  569   1.802   0.832   1.103 -0.4493 -0.8574  0.0719
  143SOL    HW1  570   1.793   0.799   1.013  1.2977 -1.8810 -1.8913
  143SOL    HW2  571   1.770   0.765   1.163 -0.5612 -2.4118  1.0330
  143SOL     MW  572   1.797   0.819   1.099 -0.2336 -1.1975 -0.0603
  144SOL     OW  573   0.221   1.166   1.525  0.3189  0.6111 -0.0323
  144SOL    HW1  574   0.314   1.154   1.532 -0.1813  1.6243 -1.4628
  144SOL    HW2  575   0.200   1.226   1.593  1.2113 -1.0126  0.5835
  144SOL     MW  576   0.231   1.172   1.535  0.3706  0.5306 -0.1398
  145SOL     OW  577   0.275   0.469   1.039 -0.0895 -0.8580 -0.2091
  145SOL    HW1  578   0.289   0.407   1.115  1.3125  0.7897 -1.3316
  145SOL    HW2  579   0.269   0.420   0.963  2.1576  3.5391  3.0620
  145SOL     MW  580   0.276   0.454   1.039  0.3920 -0.0604  0.0744
  146SOL     OW  581   0.900   1.937   1.412  0.1782  0.0762 -0.3855
  146SOL    HW1  582   0.953   1.942   1.328 -0.0381 -3.1180  0.5450
  146SOL    HW2  583   0.799   1.921   1.403 -3.4189 -1.1584  1.9986
  146SOL     MW  584   0.894   1.936   1.400 -0.3250 -0.5082  0.0518
  147SOL     OW  585   0.398   0.458   2.911  0.1119  0.1726  0.6854
  147SOL    HW1  586   0.343   0.467   2.986 -1.0393 -0.0761  0.0633
  147SOL    HW2  587   0.345   0.501   2.845  2.6596 -2.7880  0.2365
  147SOL     MW  588   0.384   0.465   2.912  0.2962 -0.2508  0.5441
  148SOL     OW  589   0.070   0.868   1.346  0.1522 -0.6247  0.2163
  148SOL    HW1  590   0.168   0.891   1.320  2.7611 -0.0935 -1.5614
  148SOL    HW2  591   0.062   0.887   1.440  2.9826  0.7409 -1.8522
  148SOL     MW  592   0.082   0.874   1.355  0.8699 -0.3745 -0.2912
  149SOL     OW  593   1.395   1.172   1.462 -0.3258 -0.5002  0.1828
  149SOL    HW1  594   1.383   1.122   1.538 -2.8189  0.2316  1.6006
  149SOL    HW2  595   1.486   1.218   1.463  1.2768 -3.1422 -3.7397
  149SOL     MW  596   1.405   1.172   1.472 -0.4433 -0.7522 -0.1476
  150SOL     OW  597   1.824   1.305   0.802  0.5748  0.3746  0.4051
  150SOL    HW1  598   1.840   1.216   0.778  1.5477  1.7241 -0.8935
  150SOL    HW2  599   1.905   1.328   0.846 -0.2098 -0.8953 -2.4227
  150SOL     MW  600   1.837   1.296   0.804  0.5997  0.3851 -0.1393
  151SOL     OW  601   1.642   1.839   0.848  0.2397  0.3550 -0.3096
  151SOL    HW1  602   1.586   1.856   0.771 -1.7667  2.9280  3.1461
  151SOL    HW2  603   1.589   1.777   0.911  0.4466  0.3875 -2.3253
  151SOL     MW  604   1.628   1.833   0.846  0.0023  0.6987 -0.1196
  152SOL     OW  605   0.774   1.345   1.501 -0.0492 -0.2625 -0.4638
  152SOL    HW1  606   0.754   1.251   1.521 -0.8750  2.3680 -1.2696
  152SOL    HW2  607   0.856   1.343   1.455 -0.5675 -0.5105  2.1888
  152SOL     MW  608   0.782   1.332   1.498 -0.2266  0.0518 -0.2201
  153SOL     OW  609   2.625   1.266   0.717 -0.0402  0.3429  0.5442
  153SOL    HW1  610   2.663   1.292   0.638  0.3434  1.7007  0.7705
  153SOL    HW2  611   2.573   1.186   0.718 -3.3420  2.0491  0.2813
  153SOL     MW  612   2.623   1.259   0.707 -0.4252  0.7471  0.5394
  154SOL     OW  613   0.345   1.738   1.677  0.5831 -0.6866 -0.0915
  154SOL    HW1  614   0.353   1.720   1.587 -0.0945 -2.8609 -0.7566
  154SOL    HW2  615   0.357   1.666   1.732  2.2578 -1.7856 -1.2300
  154SOL     MW  616   0.348   1.726   1.672  0.7146 -1.1185 -0.3294
  155SOL     OW  617   1.118   0.663   0.299 -0.0820 -0.4305 -0.1663
  155SOL    HW1  618   1.141   0.646   0.389  0.9001  0.8810  0.3616
  155SOL    HW2  619   1.082   0.754   0.313 -0.8365 -1.3679  1.8144
  155SOL     MW  620   1.116   0.673   0.313 -0.0520 -0.3811  0.1647
  156SOL     OW  621   1.489   3.006   1.041  0.2242 -0.1070  0.1707
  156SOL    HW1  622   1.548   3.075   1.061  0.2144  1.7159  0.0484
  156SOL    HW2  623   1.478   2.954   1.119 -1.5050 -0.2600 -2.7434
  156SOL     MW  624   1.495   3.008   1.054 -0.0052  0.1133 -0.2300
  157SOL     OW  625   1.328   1.230   0.138  0.3129  0.5242 -0.5027
  157SOL    HW1  626   1.374   1.148   0.162 -0.8148 -1.1209  0.4511
  157SOL    HW2  627   1.400   1.276   0.101 -0.1217 -1.9617  1.0051
  157SOL     MW  628   1.343   1.225   0.136  0.1068 -0.0208 -0.1779
  158SOL     OW  629   0.464   1.641   2.234  0.4889 -0.7864 -0.4051
  158SOL    HW1  630   0.443   1.684   2.152  1.7924 -0.5956  0.6670
  158SOL    HW2  631   0.375   1.620   2.261  1.1377  1.0004 -0.0791
  158SOL     MW  632   0.449   1.644   2.227  0.7465 -0.5254 -0.2206
  159SOL     OW  633   1.331   1.700   0.470  0.0661 -0.3448 -0.1350
  159SOL    HW1  634   1.291   1.620   0.442  0.7855  0.8252 -1.0736
  159SOL    HW2  635   1.247   1.735   0.514 -1.6278  0.9488  1.5117
  159SOL     MW  636   1.315   1.694   0.472 -0.0625 -0.0197 -0.0415
  160SOL     OW  637   0.501   1.092   1.544 -0.4411 -0.0128  0.4816
  160SOL    HW1  638   0.502   1.011   1.598  2.1100  1.1260  0.2258
  160SOL    HW2  639   0.511   1.148   1.620 -0.3939 -2.5322 -0.0435
  160SOL     MW  640   0.502   1.089   1.561 -0.0983 -0.1950  0.3785
  161SOL     OW  641   0.549   2.129   2.671 -0.3252  0.2691 -0.2780
  161SOL    HW1  642   0.463   2.150   2.703 -0.1659 -1.3576  0.4841
  161SOL    HW2  643   0.544   2.108   2.581  3.3151  0.5173  2.9859
  161SOL     MW  644   0.537   2.129   2.663  0.1761  0.0872  0.2532
  162SOL     OW  645   0.985   1.689   1.741  0.3295 -0.3865 -0.7716
  162SOL    HW1  646   1.018   1.786   1.761 -2.1109 -0.9292  0.0435
  162SOL    HW2  647   0.900   1.682   1.783 -1.4708 -1.9999  2.0272
  162SOL     MW  648   0.978   1.701   1.749 -0.2300 -0.6710 -0.2948
  163SOL     OW  649   2.121   0.156   0.983 -0.0007 -0.8421  0.2404
  163SOL    HW1  650   2.114   0.163   0.883 -0.6979  1.5208 -1.9532
  163SOL    HW2  651   2.051   0.096   1.011 -0.2905  1.1523 -1.3727
  163SOL     MW  652   2.111   0.149   0.973 -0.1309 -0.2672 -0.2618
  164SOL     OW  653   0.272   0.225   0.722  0.6352  0.2026 -0.3427
  164SOL    HW1  654   0.196   0.234   0.781 -1.0976  0.7522 -0.2748
  164SOL    HW2  655   0.269   0.129   0.708  0.6549 -2.2018  2.5593
  164SOL     MW  656   0.261   0.213   0.728  0.4092 -0.0422  0.0492
  165SOL     OW  657   1.369   1.244   0.420  0.0933  0.7980 -0.0804
  165SOL    HW1  658   1.324   1.179   0.470 -0.0220 -1.5504 -1.7567
  165SOL    HW2  659   1.344   1.221   0.327  2.2226 -1.8199 -0.4217
  165SOL     MW  660   1.360   1.232   0.415  0.3590  0.1427 -0.3466
  166SOL     OW  661   0.492   1.045   0.932  0.3383 -0.1150 -0.6833
  166SOL    HW1  662   0.489   1.003   1.020  0.1580  1.2112  2.1719
  166SOL    HW2  663   0.584   1.056   0.922 -0.6401 -0.9177  1.7091
  166SOL     MW  664   0.504   1.041   0.942  0.1854 -0.0459  0.0091
  167SOL     OW  665   0.875   1.158   0.284 -0.4236  0.3755  0.4305
  167SOL    HW1  666   0.778   1.155   0.265 -3.1868 -0.7857 -0.9960
  167SOL    HW2  667   0.927   1.217   0.222 -0.8260 -1.4221  0.4158
  167SOL     MW  668   0.869   1.165   0.274 -0.8413 -0.0149  0.2404
  168SOL     OW  669   1.712   1.728   2.892  0.6444 -0.2043  0.4918
  168SOL    HW1  670   1.629   1.772   2.876 -1.3787 -2.1574 -0.6876
  168SOL    HW2  671   1.702   1.662   2.952 -0.2392  1.6186 -0.2602
  168SOL     MW  672   1.699   1.725   2.898  0.2609 -0.2215  0.2370
  169SOL     OW  673   0.319   0.951   1.343  0.4401  0.0242 -0.2969
  169SOL    HW1  674   0.381   0.963   1.416 -0.2323  0.3273  0.5888
  169SOL    HW2  675   0.311   1.041   1.321  0.3353 -0.2898  0.2853
  169SOL     MW  676   0.326   0.964   1.350  0.3376  0.0227 -0.1032
  170SOL     OW  677   1.066   1.476   1.476 -0.2541 -0.1979  0.7311
  170SOL    HW1  678   0.985   1.531   1.499  1.2928  0.0328  2.0316
  170SOL    HW2  679   1.092   1.493   1.383 -1.7272  1.9037 -4.2106
  170SOL     MW  680   1.059   1.485   1.467 -0.2444  0.1098  0.2507
  171SOL     OW  681   0.600   1.372   0.685  0.1601  0.1779 -0.0857
  171SOL    HW1  682   0.553   1.364   0.764  1.0085 -1.1240 -3.6096
  171SOL    HW2  683   0.563   1.300   0.630 -0.3695  0.2708 -0.7259
  171SOL     MW  684   0.589   1.362   0.688  0.2021  0.0184 -0.6351
  172SOL     OW  685   0.856   0.313   1.230 -0.0197 -0.0751  0.1469
  172SOL    HW1  686   0.832   0.311   1.130  0.7468  0.4934 -1.8292
  172SOL    HW2  687   0.773   0.319   1.280 -1.5039  0.9214  1.3128
  172SOL     MW  688   0.842   0.313   1.223 -0.1144  0.1314  0.0400
  173SOL     OW  689   0.480   1.716   0.352 -0.0320  0.1669  0.4507
  173SOL    HW1  690   0.462   1.619   0.331 -1.8173 -2.3184 -0.8293
  173SOL    HW2  691   0.508   1.719   0.442  0.0399 -0.3744 -1.4805
  173SOL     MW  692   0.481   1.704   0.361 -0.2581 -0.2324  0.0270
  174SOL     OW  693   2.006   0.921   1.439  0.1279 -0.2319 -0.6403
  174SOL    HW1  694   1.921   0.887   1.479 -1.4944 -0.8930 -0.7694
  174SOL    HW2  695   1.966   0.980   1.374 -1.3477 -1.5489  2.6066
  174SOL     MW  696   1.989   0.924   1.436 -0.2808 -0.4929 -0.2289
  175SOL     OW  697   0.472   1.451   0.305  0.3861 -0.9285 -0.1746
  175SOL    HW1  698   0.451   1.432   0.209 -2.0246  0.2106  0.2144
  175SOL    HW2  699   0.559   1.426   0.320  2.0214  0.3959 -2.1421
  175SOL     MW  700   0.481   1.445   0.294  0.2838 -0.6035 -0.3829
  176SOL     OW  701   0.249   1.256   1.243 -0.2918  0.0062  0.6303
  176SOL    HW1  702   0.205   1.262   1.162 -0.2513  0.6975  3.3097
  176SOL    HW2  703   0.189   1.226   1.321 -2.2157  2.5149  1.9593
  176SOL     MW  704   0.235   1.253   1.243 -0.5403  0.4284  1.1592
  177SOL     OW  705   0.602   0.355   1.343 -0.8079 -0.2228  0.1787
  177SOL    HW1  706   0.603   0.436   1.288  0.1747 -0.3706  3.7537
  177SOL    HW2  707   0.598   0.389   1.438  1.7917 -3.9800  0.3380
  177SOL     MW  708   0.602   0.370   1.348 -0.3352 -0.7380  0.6714
  178SOL     OW  709   3.069   0.424   2.906 -0.0165  0.1201  0.1275
  178SOL    HW1  710   3.025   0.476   2.976 -0.1177  0.1713 -1.9670
  178SOL    HW2  711   3.002   0.428   2.842 -1.1974 -0.5396 -0.0546
  178SOL     MW  712   3.055   0.431   2.907 -0.1857  0.0398 -0.1729
  179SOL     OW  713   1.644   1.296   1.467 -0.0768  0.2484 -0.7206
  179SOL    HW1  714   1.631   1.365   1.532  0.6101  3.6535 -0.8233
  179SOL    HW2  715   1.731   1.305   1.435  1.8234 -2.1602 -0.6900
  179SOL     MW  716   1.653   1.307   1.472  0.2646  0.3799 -0.7301
  180SOL     OW  717   2.986   0.175   0.442  0.3356 -0.2612  0.1346
  180SOL    HW1  718   2.968   0.205   0.348 -1.4333  0.7735 -1.3532
  180SOL    HW2  719   3.030   0.259   0.478 -0.1086  0.0711 -1.3611
  180SOL     MW  720   2.990   0.190   0.435  0.0436 -0.0808 -0.2591
  181SOL     OW  721   1.138   1.457   3.022  0.5528 -0.2066 -0.3822
  181SOL    HW1  722   1.206   1.493   3.079  2.1894  3.1166 -4.4233
  181SOL    HW2  723   1.191   1.415   2.953  1.1421 -2.8138 -1.0747
  181SOL     MW  724   1.154   1.456   3.020  0.8465 -0.1122 -1.0067
  182SOL     OW  725   0.481   0.860   1.656  0.2862  0.6124  0.0809
  182SOL    HW1  726   0.393   0.825   1.681  0.8899 -1.2497  0.1080
  182SOL    HW2  727   0.537   0.835   1.731  0.9364  1.5651 -0.1423
  182SOL     MW  728   0.476   0.852   1.669  0.4516  0.4924  0.0551
  183SOL     OW  729   1.553   1.509   1.289 -0.0697 -0.5575 -0.5774
  183SOL    HW1  730   1.478   1.544   1.342  0.1692 -2.1023  1.2835
  183SOL    HW2  731   1.599   1.445   1.344  0.9739 -0.8791  0.8511
  183SOL     MW  732   1.549   1.505   1.303  0.0995 -0.8037 -0.1434
  184SOL     OW  733   0.847   0.657   1.951 -0.0598 -0.3234 -0.6458
  184SOL    HW1  734   0.907   0.632   1.884  0.8911  0.0725 -1.0346
  184SOL    HW2  735   0.813   0.580   1.991  0.1419  4.6855 -1.7070
  184SOL     MW  736   0.851   0.643   1.948  0.0923  0.3897 -0.8371
  185SOL     OW  737   1.147   0.946   1.976  1.3692 -0.0705  0.3689
  185SOL    HW1  738   1.158   0.870   2.029  0.0610  2.4920  2.0892
  185SOL    HW2  739   1.214   1.001   2.008 -1.1963 -1.3958  0.2487
  185SOL     MW  740   1.158   0.943   1.987  0.8581  0.0928  0.5800
  186SOL     OW  741   0.401   1.676   1.408  0.2337 -0.0677  0.1455
  186SOL    HW1  742   0.464   1.718   1.351  1.4285 -2.0133  1.6541
  186SOL    HW2  743   0.356   1.615   1.355  0.8558 -0.5815  1.2430
  186SOL     MW  744   0.404   1.674   1.393  0.4734 -0.3922  0.4894
  187SOL     OW  745   1.488   0.720   1.455 -0.2263  0.6200  0.4981
  187SOL    HW1  746   1.485   0.743   1.551 -1.1299 -2.3513  1.0504
  187SOL    HW2  747   1.394   0.705   1.430 -0.0298 -0.6810  0.8095
  187SOL     MW  748   1.475   0.721   1.464 -0.3196  0.0563  0.6120
  188SOL     OW  749   1.921   1.042   0.710 -0.0635 -0.0715  0.2269
  188SOL    HW1  750   1.894   0.955   0.750 -4.7902 -0.0912  1.0872
  188SOL    HW2  751   2.011   1.056   0.736 -2.5597 -1.1768 -0.0517
  188SOL     MW  752   1.929   1.032   0.719 -1.0165 -0.2199  0.3037
  189SOL     OW  753   0.674   0.795   0.798  0.0895  1.0235  0.1481
  189SOL    HW1  754   0.597   0.848   0.793 -1.7348  1.0433  3.3641
  189SOL    HW2  755   0.722   0.842   0.862 -1.0167 -0.1412 -1.1699
  189SOL     MW  756   0.670   0.808   0.806 -0.2972  0.8725  0.3985
  190SOL     OW  757   1.854   0.257   1.988  0.1717 -0.2705  0.3579
  190SOL    HW1  758   1.847   0.160   1.996 -2.8949  1.2211  0.5761
  190SOL    HW2  759   1.940   0.268   1.953 -2.3536 -1.3523  1.5944
  190SOL     MW  760   1.865   0.246   1.984 -0.5661 -0.2164  0.5499
  191SOL     OW  761   1.558   0.962   1.324 -0.9998  0.5700 -0.2295
  191SOL    HW1  762   1.484   1.014   1.354 -2.7421 -0.0221  1.2838
  191SOL    HW2  763   1.540   0.881   1.370  0.5549  0.4174 -0.5743
  191SOL     MW  764   1.546   0.958   1.334 -1.0245  0.4718 -0.0753
  192SOL     OW  765   0.712   1.979   2.814 -0.6620  0.2998  0.1897
  192SOL    HW1  766   0.649   2.022   2.749  1.4784 -1.4369 -0.0992
  192SOL    HW2  767   0.665   1.898   2.839 -0.0857 -0.2509 -0.7886
  192SOL     MW  768   0.698   1.974   2.808 -0.3036 -0.0020  0.0225
  193SOL     OW  769   0.980   1.634   0.744 -0.5329  0.5249  0.8468
  193SOL    HW1  770   0.947   1.675   0.819  0.4773  0.3277 -0.7611
  193SOL    HW2  771   0.924   1.557   0.723 -1.2443  0.3135 -2.0905
  193SOL     MW  772   0.968   1.629   0.751 -0.4935  0.4710  0.2471
  194SOL     OW  773   0.465   1.302   0.931 -0.0761 -0.6887 -0.1230
  194SOL    HW1  774   0.474   1.206   0.911  0.5196  0.1175 -0.4365
  194SOL    HW2  775   0.389   1.337   0.884 -2.8276 -0.5272 -2.3925
  194SOL     MW  776   0.456   1.294   0.922 -0.3606 -0.5610 -0.4638
  195SOL     OW  777   1.283   1.121   2.994  0.1469 -0.5385 -0.3396
  195SOL    HW1  778   1.300   1.154   3.082  0.5597 -0.3033  1.8012
  195SOL    HW2  779   1.197   1.083   3.008  0.1370  0.2054  1.3145
  195SOL     MW  780   1.274   1.120   3.008  0.2000 -0.4094  0.1611
  196SOL     OW  781   2.192   1.083   0.644 -0.1136 -0.3583 -0.8605
  196SOL    HW1  782   2.135   1.026   0.591 -0.5928 -0.6634  1.4418
  196SOL    HW2  783   2.179   1.175   0.629  2.7288 -0.7261 -0.4570
  196SOL     MW  784   2.183   1.088   0.635  0.1982 -0.4471 -0.5035
  197SOL     OW  785   0.595   1.258   2.010  0.0964  0.1255  0.3892
  197SOL    HW1  786   0.603   1.160   1.998 -0.7291  2.4060 -0.4683
  197SOL    HW2  787   0.562   1.277   1.924  1.9343  1.8490  3.9580
  197SOL     MW  788   0.592   1.248   1.997  0.2300  0.6538  0.7469
  198SOL     OW  789   2.931   1.450   0.998  0.5804  1.0514 -0.0806
  198SOL    HW1  790   2.916   1.541   0.959 -0.6398  3.5888 -1.9892
  198SOL    HW2  791   2.842   1.405   0.987 -0.4857  1.6086  3.4071
  198SOL     MW  792   2.917   1.456   0.992  0.2787  1.4597  0.1278
  199SOL     OW  793   0.493   1.295   1.757 -0.1597  0.2385  0.0409
  199SOL    HW1  794   0.398   1.299   1.770  2.8457 -0.1184  0.7019
  199SOL    HW2  795   0.522   1.374   1.703  2.4394  0.7007 -0.9022
  199SOL     MW  796   0.485   1.306   1.752  0.5798  0.2524  0.0036
  200SOL     OW  797   1.899   0.008   1.346 -0.4673 -0.3733 -0.9816
  200SOL    HW1  798   1.896  -0.012   1.254  1.0547 -0.6817  1.2788
  200SOL    HW2  799   1.810   0.022   1.386  0.5998  0.8311 -0.1631
  200SOL     MW  800   1.887   0.007   1.339 -0.1257 -0.2551 -0.5754
  201SOL     OW  801   1.093   0.301   0.821 -0.3629 -0.1785 -0.1755
  201SOL    HW1  802   1.118   0.213   0.822 -0.6222  0.8467  2.3800
  201SOL    HW2  803   1.076   0.316   0.735  1.8933  2.1552  1.5309
  201SOL     MW  804   1.094   0.291   0.810 -0.0995  0.2647  0.3868
  202SOL     OW  805   1.540   1.659   1.029 -0.2622  0.0835  0.0814
  202SOL    HW1  806   1.595   1.599   0.970  0.8880  1.1178  1.7495
  202SOL    HW2  807   1.555   1.624   1.119 -0.6973 -1.2476  0.5226
  202SOL     MW  808   1.549   1.646   1.033 -0.1679  0.0444  0.3597
  203SOL     OW  809   0.001   0.480   1.182  0.1830  0.0688  0.0390
  203SOL    HW1  810   0.063   0.436   1.120 -0.2102  1.3202  0.7476
  203SOL    HW2  811   0.062   0.529   1.244 -1.7234  1.1627 -0.2268
  203SOL     MW  812   0.018   0.481   1.182 -0.1204  0.3783  0.0974
  204SOL     OW  813   1.061   1.751   0.522 -0.3470  0.3277 -0.0230
  204SOL    HW1  814   1.015   1.713   0.598 -0.1447  2.9296 -0.6024
  204SOL    HW2  815   0.987   1.766   0.463  2.1786  0.7177 -1.7315
  204SOL     MW  816   1.046   1.748   0.524  0.0129  0.7225 -0.3248
  205SOL     OW  817   1.374   0.104   1.340 -0.7628  0.3005 -0.2239
  205SOL    HW1  818   1.330   0.095   1.259  2.3685 -1.4453  0.0502
  205SOL    HW2  819   1.419   0.189   1.328  0.0552  0.2980 -1.8835
  205SOL     MW  820   1.374   0.114   1.328 -0.2417  0.0698 -0.4067
  206SOL     OW  821   0.434   3.082   1.414 -0.6313  0.2622 -0.1492
  206SOL    HW1  822   0.366   3.070   1.351  1.9402  3.4945  1.2583
  206SOL    HW2  823   0.495   3.010   1.411 -0.6027  0.8348 -1.1358
  206SOL     MW  824   0.433   3.071   1.405 -0.2882  0.7642 -0.0937
  207SOL     OW  825   0.947   1.515   0.235 -0.2930 -0.6152 -0.5629
  207SOL    HW1  826   0.934   1.610   0.223 -1.4642 -0.6188 -0.3557
  207SOL    HW2  827   1.022   1.500   0.303 -2.1311  1.0114  0.5411
  207SOL     MW  828   0.955   1.525   0.242 -0.6900 -0.4011 -0.3899
  208SOL     OW  829   0.685   1.580   1.225 -0.1162  0.5720  0.3457
  208SOL    HW1  830   0.741   1.602   1.296  1.3707  0.5687  1.6133
  208SOL    HW2  831   0.645   1.494   1.238  1.8697 -0.0759 -0.1456
  208SOL     MW  832   0.687   1.572   1.236  0.3420  0.4861  0.4481
  209SOL     OW  833   1.540   0.548   2.817  0.6409 -0.4400 -0.1668
  209SOL    HW1  834   1.588   0.608   2.870 -0.3139 -0.8953  1.6117
  209SOL    HW2  835   1.587   0.470   2.829 -2.1049  2.6443 -1.3159
  209SOL     MW  836   1.553   0.546   2.826  0.1527 -0.0931 -0.0838
  210SOL     OW  837   1.603   1.456   0.872  0.2072  0.3880  0.3654
  210SOL    HW1  838   1.677   1.393   0.861 -1.0243 -0.0184 -1.6906
  210SOL    HW2  839   1.552   1.440   0.793 -0.3059 -0.6504 -1.3244
  210SOL     MW  840   1.606   1.446   0.860 -0.0230  0.1974 -0.1288
  211SOL     OW  841   1.730   0.469   0.932 -0.1792 -0.4133 -0.1525
  211SOL    HW1  842   1.697   0.454   0.846  2.7866 -0.8343  1.2152
  211SOL    HW2  843   1.821   0.449   0.938  1.5151  1.0940  1.1941
  211SOL     MW  844   1.738   0.465   0.921  0.4356 -0.2700  0.2057
  212SOL     OW  845   0.237   1.122   0.084 -0.4245  0.4950  0.0153
  212SOL    HW1  846   0.210   1.082   0.170 -1.0106 -2.7662 -0.8518
  212SOL    HW2  847   0.324   1.086   0.064 -0.1782  1.5358  0.1917
  212SOL     MW  848   0.245   1.112   0.093 -0.4693  0.2020 -0.0758
  213SOL     OW  849   0.412   1.711   3.071 -0.9943  0.8906 -0.2054
  213SOL    HW1  850   0.465   1.764   3.130 -1.6370  0.6472 -0.7461
  213SOL    HW2  851   0.446   1.730   2.985 -0.5525  2.4933 -0.7059
  213SOL     MW  852   0.424   1.720   3.068 -1.0208  1.0700 -0.3428
  214SOL     OW  853   0.656   0.246   2.253 -0.2070  0.7917 -0.3234
  214SOL    HW1  854   0.575   0.292   2.237 -2.3483  1.5278 -2.4176
  214SOL    HW2  855   0.724   0.277   2.188  1.3975 -4.2743  1.9528
  214SOL     MW  856   0.654   0.256   2.243 -0.2778  0.2204 -0.2994
  215SOL     OW  857   0.479   0.734   2.613 -0.4701 -0.5823 -0.1735
  215SOL    HW1  858   0.458   0.694   2.524  0.4185  1.9267 -0.7658
  215SOL    HW2  859   0.412   0.698   2.678 -0.1386 -0.4735  2.0548
  215SOL     MW  860   0.467   0.724   2.610 -0.3091 -0.2369  0.0424
  216SOL     OW  861   3.083   3.026   2.695 -0.4141  0.0279 -0.5277
  216SOL    HW1  862   3.026   3.043   2.771 -2.1505  2.0322 -2.0179
  216SOL    HW2  863   3.046   3.103   2.653  0.7908 -0.5591  0.1248
  216SOL     MW  864   3.070   3.038   2.699 -0.4842  0.2149 -0.6383
  217SOL     OW  865   0.954   1.255   0.025  0.2426  0.7532 -0.0656
  217SOL    HW1  866   0.967   1.160   0.017  0.2004  0.9248 -0.5895
  217SOL    HW2  867   1.021   1.306  -0.026 -1.4296 -1.7987 -0.0661
  217SOL     MW  868   0.965   1.249   0.017  0.0164  0.4391 -0.1348
  218SOL     OW  869   0.933   1.296   2.555  0.2790  0.0468  0.2008
  218SOL    HW1  870   0.963   1.211   2.594  1.0003  0.1175  0.4163
  218SOL    HW2  871   1.013   1.340   2.566 -3.0300  1.1631  2.1964
  218SOL     MW  872   0.947   1.291   2.561 -0.0624  0.2034  0.4925
  219SOL     OW  873   1.046   0.448   2.521  0.3256  0.0484 -0.0521
  219SOL    HW1  874   1.115   0.468   2.461 -0.4577  0.2420  0.9478
  219SOL    HW2  875   0.991   0.527   2.526 -1.5949  1.5661  1.5509
  219SOL     MW  876   1.048   0.461   2.513 -0.0311  0.2742  0.2914
  220SOL     OW  877   1.761   0.449   2.172  0.7891 -0.5399 -0.1416
  220SOL    HW1  878   1.694   0.512   2.138 -0.1888 -1.6747 -2.1765
  220SOL    HW2  879   1.771   0.396   2.098  0.2603  0.8506  0.1750
  220SOL     MW  880   1.754   0.450   2.158  0.5903 -0.5061 -0.3683
  221SOL     OW  881   0.391   1.326   2.898 -0.4504 -0.1951  0.1273
  221SOL    HW1  882   0.403   1.237   2.866 -0.1333 -1.5469 -0.9962
  221SOL    HW2  883   0.399   1.364   2.809  0.5694  0.8785  1.4752
  221SOL     MW  884   0.394   1.319   2.882 -0.2740 -0.2318  0.1569
  222SOL     OW  885   0.299   0.932   2.641 -0.6247 -0.8835  0.1016
  222SOL    HW1  886   0.272   0.953   2.556  2.3049 -0.2290 -1.1528
  222SOL    HW2  887   0.370   0.869   2.621 -1.6691  1.2741  1.6967
  222SOL     MW  888   0.305   0.926   2.627 -0.3760 -0.5125  0.1465
  223SOL     OW  889  -0.001   2.007   2.601  0.4317  0.9758 -0.1967
  223SOL    HW1  890   0.059   1.942   2.646  3.7103 -3.7152  1.1469
  223SOL    HW2  891   0.054   2.070   2.563  2.0402 -0.3937  1.0253
  223SOL     MW  892   0.014   2.007   2.602  1.0765  0.1761  0.1418
  224SOL     OW  893   1.462   0.836   2.583 -0.0589 -0.1430 -0.1157
  224SOL    HW1  894   1.431   0.850   2.676  2.5787 -1.3140  1.4442
  224SOL    HW2  895   1.509   0.915   2.553  1.3946  1.5605  0.1627
  224SOL     MW  896   1.464   0.848   2.592  0.4809 -0.0728  0.1269
  225SOL     OW  897   2.981   1.496   2.261  0.3898  0.4926  0.2279
  225SOL    HW1  898   2.992   1.538   2.176  0.5712 -1.0415  1.1636
  225SOL    HW2  899   2.934   1.557   2.314 -0.6672 -0.4312 -1.2055
  225SOL     MW  900   2.976   1.510   2.257  0.2743  0.1683  0.1622
  226SOL     OW  901   0.394   1.441   2.619  0.1251 -0.1864 -0.4343
  226SOL    HW1  902   0.489   1.440   2.625 -1.2090  1.7426 -0.1907
  226SOL    HW2  903   0.380   1.539   2.625  3.7354  1.3990 -0.0009
  226SOL     MW  904   0.405   1.454   2.621  0.4254  0.2773 -0.3450
  227SOL     OW  905   0.439   1.077   2.833 -0.0405 -0.2861 -0.1043
  227SOL    HW1  906   0.522   1.100   2.798 -2.8691 -1.3827  1.7536
  227SOL    HW2  907   0.399   1.014   2.765 -2.2114 -0.6050 -0.8280
  227SOL     MW  908   0.445   1.071   2.819 -0.7002 -0.4728  0.0453
  228SOL     OW  909   0.673   0.974   2.014 -0.6494 -0.2528 -0.4206
  228SOL    HW1  910   0.760   1.010   1.993 -0.4244 -1.4389 -0.0094
  228SOL    HW2  911   0.668   0.945   2.112 -0.5189  0.2358 -0.9800
  228SOL     MW  912   0.684   0.974   2.024 -0.6025 -0.3448 -0.4402
  229SOL     OW  913   0.184   0.528   3.090 -0.3370 -0.1589  0.4061
  229SOL    HW1  914   0.093   0.531   3.078  0.6828 -1.7098  0.1780
  229SOL    HW2  915   0.188   0.464   3.158 -0.7834  1.4512 -2.4447
  229SOL     MW  916   0.173   0.520   3.097 -0.2613 -0.1511 -0.0001
  230SOL     OW  917   1.772   1.373   2.048 -0.0657  0.0491 -0.5697
  230SOL    HW1  918   1.746   1.357   2.143 -0.1087 -1.9517  1.2382
  230SOL    HW2  919   1.818   1.292   2.037  0.4449 -0.8826  1.4821
  230SOL     MW  920   1.774   1.360   2.059 -0.0040 -0.3378 -0.0605
  231SOL     OW  921   2.755   1.308   2.192  0.3156  0.0508  0.2482
  231SOL    HW1  922   2.826   1.375   2.175 -0.9620  0.2635 -0.6795
  231SOL    HW2  923   2.686   1.341   2.134  2.8963  2.4850  0.7251
  231SOL     MW  924   2.755   1.321   2.182  0.4875  0.4000  0.1887
  232SOL     OW  925   2.272   0.867   2.118 -0.1433 -0.3180  0.5141
  232SOL    HW1  926   2.214   0.920   2.062  0.2631  1.0898  0.4557
  232SOL    HW2  927   2.222   0.873   2.201 -2.5595  0.4527 -2.1124
  232SOL     MW  928   2.258   0.875   2.121 -0.4085 -0.0306  0.1599
  233SOL     OW  929   2.051   0.531   1.935 -0.3551 -0.3491  0.2633
  233SOL    HW1  930   2.090   0.576   1.856  1.0419 -2.4023  1.5587
  233SOL    HW2  931   2.119   0.519   2.002  2.5810 -0.0301 -2.9297
  233SOL     MW  932   2.065   0.535   1.933  0.2166 -0.5779  0.0129
  234SOL     OW  933   0.263   1.014   2.335 -0.1825  0.4338  0.8001
  234SOL    HW1  934   0.165   1.036   2.338  0.4717  0.1206 -1.5245
  234SOL    HW2  935   0.311   1.090   2.355 -0.4566  0.2865 -1.4832
  234SOL     MW  936   0.256   1.027   2.338 -0.1323  0.3731  0.1921
  235SOL     OW  937   1.067   3.059   2.753  0.5537  0.0230 -0.4054
  235SOL    HW1  938   1.080   2.985   2.811 -1.3950  2.1209  0.7446
  235SOL    HW2  939   1.051   3.139   2.810  0.3424  0.0463 -1.6849
  235SOL     MW  940   1.066   3.060   2.768  0.2687  0.3029 -0.4225
  236SOL     OW  941   2.938   0.544   0.029  0.3098  0.2826 -0.2660
  236SOL    HW1  942   2.851   0.548  -0.020 -0.7344 -0.3982 -0.6312
  236SOL    HW2  943   2.941   0.635   0.060 -0.0031  0.5310  2.0113
  236SOL     MW  944   2.927   0.556   0.027  0.1308  0.2256 -0.0137
  237SOL     OW  945   1.757   0.929   2.149  0.7723  0.8389 -0.1384
  237SOL    HW1  946   1.803   1.001   2.104 -1.8806  3.0139 -1.4516
  237SOL    HW2  947   1.789   0.945   2.235 -1.0928  1.1261 -0.6551
  237SOL     MW  948   1.767   0.941   2.155  0.1762  1.1638 -0.3798
  238SOL     OW  949   1.069   1.740   2.965  0.3688  0.2227  0.3557
  238SOL    HW1  950   1.029   1.651   2.954 -2.9635  1.6314 -1.1281
  238SOL    HW2  951   1.166   1.731   2.955 -0.0382 -1.4729 -0.2691
  238SOL     MW  952   1.076   1.727   2.962 -0.1246  0.1849  0.0775
  239SOL     OW  953   1.185   1.442   2.318  0.5927  0.2731  0.1217
  239SOL    HW1  954   1.187   1.459   2.413 -0.9770  2.7979 -2.0797
  239SOL    HW2  955   1.118   1.382   2.290  0.4556 -0.2072 -1.4715
  239SOL     MW  956   1.176   1.436   2.327  0.3675  0.5429 -0.3790
  240SOL     OW  957   0.628   0.879   2.254  0.3535  0.3085  0.3749
  240SOL    HW1  958   0.608   0.951   2.319  0.1459  2.8759  1.2247
  240SOL    HW2  959   0.721   0.844   2.263  2.8262 -0.8806 -3.1886
  240SOL     MW  960   0.637   0.884   2.264  0.6523  0.4904  0.0169
  241SOL     OW  961   0.630   0.333   3.028 -0.1897 -0.2894  0.2180
  241SOL    HW1  962   0.650   0.398   3.099 -2.6150 -0.5818  3.3783
  241SOL    HW2  963   0.547   0.370   2.993 -0.2686  2.2542  2.7561
  241SOL     MW  964   0.622   0.346   3.033 -0.5201  0.0076  0.9699
  242SOL     OW  965   1.494   1.772   2.292  0.1574 -0.0098 -0.4764
  242SOL    HW1  966   1.437   1.835   2.333 -0.3518  1.0864 -0.7462
  242SOL    HW2  967   1.445   1.709   2.238 -0.8506  0.1755 -0.5475
  242SOL     MW  968   1.480   1.772   2.290 -0.0428  0.1593 -0.5213
  243SOL     OW  969   0.945   0.213   2.336 -0.0760  0.1283  0.0879
  243SOL    HW1  970   1.041   0.220   2.344  2.7195  0.4789  1.7087
  243SOL    HW2  971   0.906   0.245   2.422  0.8461 -0.5273  3.5286
  243SOL     MW  972   0.952   0.218   2.348  0.4145  0.0881  0.7557
  244SOL     OW  973   0.216   0.715   2.320  0.0281 -0.4121  0.3751
  244SOL    HW1  974   0.216   0.799   2.284  2.2785 -0.9190 -0.1988
  244SOL    HW2  975   0.302   0.682   2.293 -0.9371 -0.4387  3.6863
  244SOL     MW  976   0.228   0.722   2.312  0.1977 -0.4825  0.7363
  245SOL     OW  977   1.235   0.241   2.348  0.5665 -0.0666  0.1952
  245SOL    HW1  978   1.290   0.163   2.345 -0.3625  0.5539 -0.0545
  245SOL    HW2  979   1.265   0.286   2.428  0.2820  0.2704 -0.3124
  245SOL     MW  980   1.246   0.237   2.358  0.4064  0.0597  0.0953
  246SOL     OW  981   1.265   1.176   2.084  0.4942  0.0139 -0.1074
  246SOL    HW1  982   1.192   1.150   2.140 -2.4730  2.6121 -0.6663
  246SOL    HW2  983   1.337   1.158   2.143 -1.2996  1.5663 -1.0248
  246SOL     MW  984   1.265   1.170   2.099 -0.1339  0.5615 -0.3022
  247SOL     OW  985   0.689   0.497   0.128 -0.1765  0.3403  0.6843
  247SOL    HW1  986   0.678   0.593   0.122 -1.5341  1.3706 -0.3451
  247SOL    HW2  987   0.784   0.489   0.105 -0.1568 -2.3133  0.2002
  247SOL     MW  988   0.700   0.508   0.124 -0.3530  0.1261  0.4846
  248SOL     OW  989   0.447   1.186   2.484  0.3991  0.4784 -0.3562
  248SOL    HW1  990   0.435   1.227   2.395 -0.1397  0.0696 -3.7497
  248SOL    HW2  991   0.427   1.261   2.538  2.5807 -1.6684 -0.9155
  248SOL     MW  992   0.443   1.201   2.479  0.6159  0.1412 -0.8777
  249SOL     OW  993   0.191   1.852   2.713  0.3053  0.2474  0.0374
  249SOL    HW1  994   0.150   1.765   2.704 -1.5838 -0.3105  2.6065
  249SOL    HW2  995   0.202   1.860   2.808 -0.3587 -0.3129  0.0235
  249SOL     MW  996   0.187   1.842   2.725 -0.0315  0.0998  0.3746
  250SOL     OW  997   2.142   0.860   2.374 -0.4288  0.0136  0.0867
  250SOL    HW1  998   2.196   0.787   2.394  1.8093 -1.8158  1.9794
  250SOL    HW2  999   2.181   0.933   2.426 -2.5387  0.4246 -1.9104
  250SOL     MW 1000   2.154   0.860   2.384 -0.4119 -0.1736  0.0730
  251SOL     OW 1001   0.221   0.798   2.045  0.2781  0.2622  0.5654
  251SOL    HW1 1002   0.207   0.711   2.085  1.4414  2.3979  0.5452
  251SOL    HW2 1003   0.215   0.780   1.947  0.6160  0.1300 -0.7566
  251SOL     MW 1004   0.219   0.784   2.037  0.4762  0.5265  0.3883
  252SOL     OW 1005   1.693   0.997   2.855 -0.0703  0.3097  0.5252
  252SOL    HW1 1006   1.716   1.061   2.927 -1.6049  1.0755 -0.6278
  252SOL    HW2 1007   1.747   1.032   2.780 -0.1097  1.6960 -1.2533
  252SOL     MW 1008   1.703   1.010   2.855 -0.2780  0.5937  0.1385
  253SOL     OW 1009   1.155   1.735   2.526 -0.0628 -0.0920  0.1101
  253SOL    HW1 1010   1.148   1.738   2.424 -0.7727  0.7439 -0.1806
  253SOL    HW2 1011   1.063   1.762   2.559  0.9248  0.4129 -0.2219
  253SOL     MW 1012   1.142   1.739   2.517 -0.0261  0.0849  0.0279
  254SOL     OW 1013   1.039   1.085   2.225 -0.5600 -0.0601  0.1255
  254SOL    HW1 1014   0.999   1.002   2.234 -2.6438  0.4982 -1.4996
  254SOL    HW2 1015   0.967   1.145   2.234 -0.9548  0.6169  1.6966
  254SOL     MW 1016   1.024   1.082   2.228 -0.8871  0.1029  0.1183
  255SOL     OW 1017   0.840   2.429   2.196 -0.0610  0.0431 -0.3062
  255SOL    HW1 1018   0.761   2.381   2.183 -0.9364 -0.9486 -0.3961
  255SOL    HW2 1019   0.845   2.426   2.295  3.1323  0.7014 -1.1559
  255SOL     MW 1020   0.830   2.422   2.208  0.2448 -0.0009 -0.4302
  256SOL     OW 1021   1.161   2.824   2.877  0.0852  0.5224  0.3227
  256SOL    HW1 1022   1.151   2.728   2.890  0.3384 -1.2269 -1.7118
  256SOL    HW2 1023   1.262   2.823   2.876  2.5589 -2.2154  0.5887
  256SOL     MW 1024   1.173   2.811   2.878  0.4450 -0.0696  0.0894
  257SOL     OW 1025   0.165   1.901   0.089  0.2693 -0.1373  0.0509
  257SOL    HW1 1026   0.187   1.850   0.164  0.8569  3.1992 -0.8169
  257SOL    HW2 1027   0.155   1.839   0.016  1.0036  2.7772  0.5450
  257SOL     MW 1028   0.167   1.886   0.089  0.4437  0.6874  0.0016
  258SOL     OW 1029   0.712   1.076   2.486 -0.0423 -0.5626 -0.1306
  258SOL    HW1 1030   0.757   1.133   2.418  1.5339  0.0978 -3.1992
  258SOL    HW2 1031   0.627   1.121   2.511  0.1030 -4.7628  0.6275
  258SOL     MW 1032   0.707   1.089   2.480  0.1849 -1.0296 -0.4354
  259SOL     OW 1033   0.733   0.506   2.386  0.4740  0.2648  0.0004
  259SOL    HW1 1034   0.657   0.564   2.395  3.6002  2.3047 -1.3241
  259SOL    HW2 1035   0.701   0.427   2.339  4.3853 -2.0168 -1.4937
  259SOL     MW 1036   0.719   0.503   2.381  1.4025  0.2329 -0.3715
  260SOL     OW 1037   0.604   0.119   1.573 -0.2036  0.0692 -0.2584
  260SOL    HW1 1038   0.543   0.086   1.506  1.7066 -0.7154  0.4349
  260SOL    HW2 1039   0.696   0.099   1.544 -0.2200 -0.8930 -0.4790
  260SOL     MW 1040   0.608   0.112   1.560  0.0463 -0.1613 -0.1960
  261SOL     OW 1041   1.182   0.681   2.079  0.3019 -0.1628  0.0532
  261SOL    HW1 1042   1.203   0.682   2.172  1.3090 -0.0726  0.1535
  261SOL    HW2 1043   1.250   0.633   2.026 -0.1671  0.6213 -3.3199
  261SOL     MW 1044   1.194   0.675   2.085  0.3729 -0.0475 -0.3786
  262SOL     OW 1045   1.155   0.317   0.095  0.1903 -0.2352  0.2060
  262SOL    HW1 1046   1.239   0.271   0.086  1.0250 -1.5933 -1.1312
  262SOL    HW2 1047   1.092   0.246   0.086  1.8105  2.1664 -1.2684
  262SOL     MW 1048   1.158   0.301   0.092  0.5142 -0.0975 -0.1649
  263SOL     OW 1049   0.464   3.037   2.503  0.0315  0.3225 -0.4040
  263SOL    HW1 1050   0.382   3.087   2.499 -1.2908  0.2345 -2.0958
  263SOL    HW2 1051   0.505   3.055   2.416 -1.1750 -0.8359 -3.3510
  263SOL     MW 1052   0.459   3.046   2.491 -0.3022  0.1580 -1.0161
  264SOL     OW 1053   1.539   1.306   1.910 -0.0892 -0.1860  0.1732
  264SOL    HW1 1054   1.469   1.259   1.959 -0.3227 -1.0314 -1.6485
  264SOL    HW2 1055   1.618   1.327   1.964  0.4089 -2.7149 -1.2077
  264SOL     MW 1056   1.540   1.303   1.924 -0.0543 -0.6312 -0.2494
  265SOL     OW 1057   0.662   2.667   2.266 -0.0035  0.7127 -0.0258
  265SOL    HW1 1058   0.726   2.602   2.232 -2.7695  1.9693 -2.1675
  265SOL    HW2 1059   0.688   2.676   2.352 -2.0495 -0.1180 -1.7072
  265SOL     MW 1060   0.674   2.660   2.273 -0.6384  0.7689 -0.5302
  266SOL     OW 1061   0.902   0.799   2.207  0.2542  0.0979 -0.2427
  266SOL    HW1 1062   0.905   0.760   2.118  1.6312  1.7207  1.8929
  266SOL    HW2 1063   0.983   0.775   2.256  2.6297  0.3759  0.8353
  266SOL     MW 1064   0.913   0.791   2.201  0.7493  0.3487  0.1813
  267SOL     OW 1065   1.384   1.728   2.690 -0.2703 -0.7804  0.5122
  267SOL    HW1 1066   1.455   1.708   2.623  1.2596  2.5018 -1.9318
  267SOL    HW2 1067   1.297   1.745   2.646 -0.0778  1.3426 -1.5467
  267SOL     MW 1068   1.382   1.727   2.675 -0.0431 -0.0672 -0.0819
  268SOL     OW 1069   0.234   0.745   1.763  0.3330 -0.3115  0.2952
  268SOL    HW1 1070   0.162   0.789   1.717 -0.9282  2.9732  0.5541
  268SOL    HW2 1071   0.264   0.679   1.694  1.7636 -0.4016  2.9094
  268SOL     MW 1072   0.228   0.742   1.748  0.3553  0.1100  0.6743
  269SOL     OW 1073   1.357   1.933   2.459  0.3267 -0.7371 -0.3980
  269SOL    HW1 1074   1.396   2.017   2.489 -0.2872 -0.4193 -2.1286
  269SOL    HW2 1075   1.260   1.945   2.483 -3.3612 -0.7902  1.8659
  269SOL     MW 1076   1.350   1.946   2.466 -0.2408 -0.7022 -0.3276
  270SOL     OW 1077   1.170   0.387   1.600 -0.0008 -0.4025  0.0126
  270SOL    HW1 1078   1.137   0.305   1.634  0.0416  0.6471  0.8463
  270SOL    HW2 1079   1.261   0.387   1.611 -2.6050 -1.1408  1.4616
  270SOL     MW 1080   1.178   0.376   1.606 -0.3388 -0.3615  0.3138
  271SOL     OW 1081   0.826   3.025   2.391 -0.0876 -0.0678 -0.4637
  271SOL    HW1 1082   0.887   2.976   2.449  3.1689  0.7084  1.4084
  271SOL    HW2 1083   0.868   3.105   2.358 -0.1345  1.3618 -0.6396
  271SOL     MW 1084   0.840   3.029   2.394  0.3359  0.2232 -0.2399
  272SOL     OW 1085   1.413   2.877   2.817  0.5651 -0.8747 -0.2467
  272SOL    HW1 1086   1.370   2.914   2.742 -0.0646  1.3833 -3.0018
  272SOL    HW2 1087   1.429   2.957   2.871  0.6275 -0.1105  0.2175
  272SOL     MW 1088   1.410   2.893   2.814  0.4903 -0.4760 -0.5490
  273SOL     OW 1089   1.440   0.908   2.862 -0.2100 -0.5807  0.0961
  273SOL    HW1 1090   1.527   0.928   2.851 -0.6991 -2.5238 -0.8652
  273SOL    HW2 1091   1.399   0.987   2.896 -1.4321 -0.0479 -0.0919
  273SOL     MW 1092   1.446   0.921   2.865 -0.4358 -0.7668 -0.0555
  274SOL     OW 1093   1.350   0.752   0.219  0.0743  0.1964  0.3714
  274SOL    HW1 1094   1.402   0.673   0.227 -2.0651 -1.2864  2.1592
  274SOL    HW2 1095   1.262   0.725   0.238  0.1114  1.4325 -0.8468
  274SOL     MW 1096   1.345   0.738   0.223 -0.2031  0.1639  0.4466
  275SOL     OW 1097   1.692   0.653   1.827  0.1559  0.1110 -0.4502
  275SOL    HW1 1098   1.771   0.669   1.883 -1.5925  0.3671 -1.0338
  275SOL    HW2 1099   1.661   0.564   1.850  0.3296  1.4093  1.1974
  275SOL     MW 1100   1.699   0.643   1.837 -0.0519  0.3161 -0.3098
  276SOL     OW 1101   0.228   1.243   1.797 -0.7547  0.1802  0.0457
  276SOL    HW1 1102   0.267   1.171   1.851 -0.2886  1.4599  0.6387
  276SOL    HW2 1103   0.162   1.288   1.856 -0.2912  4.3279 -1.7346
  276SOL     MW 1104   0.225   1.240   1.812 -0.6320  0.8963 -0.1109
  277SOL     OW 1105   1.941   1.344   2.606 -0.0041  0.4480 -0.4713
  277SOL    HW1 1106   2.017   1.395   2.597 -2.5704  0.2277 -1.0892
  277SOL    HW2 1107   1.962   1.257   2.631 -1.4191 -0.7151  1.6878
  277SOL     MW 1108   1.954   1.339   2.608 -0.5294  0.2655 -0.2680
  278SOL     OW 1109   1.453   0.726   1.747 -0.3844 -0.2437 -0.1026
  278SOL    HW1 1110   1.421   0.657   1.806  1.0548  1.7007  2.8439
  278SOL    HW2 1111   1.543   0.739   1.779 -1.3700  0.9640  0.2517
  278SOL     MW 1112   1.461   0.719   1.759 -0.3245  0.1722  0.3329
  279SOL     OW 1113   0.530   3.094   2.231 -0.0070 -0.1629  0.4372
  279SOL    HW1 1114   0.601   3.037   2.192  1.4857 -0.3376 -0.2096
  279SOL    HW2 1115   0.575   3.178   2.245  3.2417 -1.0273  0.1967
  279SOL     MW 1116   0.545   3.098   2.228  0.6186 -0.3000  0.3201
  280SOL     OW 1117   1.513   1.132   2.235  0.2603  0.0334 -0.3693
  280SOL    HW1 1118   1.509   1.053   2.181 -1.6644 -0.4046 -0.8447
  280SOL    HW2 1119   1.518   1.096   2.324  0.3279 -1.0441  2.8151
  280SOL     MW 1120   1.513   1.117   2.239  0.0153 -0.1665 -0.0119
  281SOL     OW 1121   1.287   1.338   2.817 -0.6797 -0.0453  0.0025
  281SOL    HW1 1122   1.373   1.384   2.824 -0.9303  0.0627  0.1255
  281SOL    HW2 1123   1.291   1.261   2.880  2.5236 -2.6874 -1.2253
  281SOL     MW 1124   1.299   1.334   2.826 -0.2901 -0.3796 -0.1433
  282SOL     OW 1125   1.138   1.291   1.700  0.0478  0.0322  0.2471
  282SOL    HW1 1126   1.124   1.363   1.635  0.3736 -2.2616  0.3299
  282SOL    HW2 1127   1.073   1.229   1.669  0.5505  0.7189 -0.2920
  282SOL     MW 1128   1.127   1.292   1.688  0.1571 -0.1798  0.1869
  283SOL     OW 1129   0.684   1.268   3.088 -0.0226 -0.2415  0.5566
  283SOL    HW1 1130   0.776   1.266   3.114  0.7814 -2.9495  1.7656
  283SOL    HW2 1131   0.637   1.340   3.123  0.0138 -2.9879 -1.2272
  283SOL     MW 1132   0.690   1.277   3.096  0.0883 -0.9612  0.4808
  284SOL     OW 1133   0.496   0.671   2.331  0.1225 -0.1031 -0.2175
  284SOL    HW1 1134   0.556   0.732   2.285 -0.9928 -2.1413 -1.9972
  284SOL    HW2 1135   0.485   0.590   2.272  1.8365  0.9291 -1.1453
  284SOL     MW 1136   0.503   0.668   2.317  0.2015 -0.2358 -0.5747
  285SOL     OW 1137   0.816   0.955   2.843 -0.3894 -1.2286 -0.5026
  285SOL    HW1 1138   0.868   1.004   2.773 -1.2947  2.1965 -0.8161
  285SOL    HW2 1139   0.784   0.874   2.809 -3.8562  1.1178  0.5631
  285SOL     MW 1140   0.819   0.951   2.829 -0.9663 -0.4671 -0.4034
  286SOL     OW 1141   1.134   1.465   2.603 -0.2286 -0.1786  0.3479
  286SOL    HW1 1142   1.167   1.438   2.688  1.0544  0.4533  2.6841
  286SOL    HW2 1143   1.162   1.561   2.589  0.0882 -0.5880  0.9316
  286SOL     MW 1144   1.142   1.474   2.613 -0.0175 -0.1492  0.7332
  287SOL     OW 1145   1.008   0.914   0.338 -0.3093 -0.3758 -0.2218
  287SOL    HW1 1146   1.073   0.951   0.399 -0.3645 -0.2001 -2.0004
  287SOL    HW2 1147   0.959   0.994   0.312  0.0162 -2.5928  0.0480
  287SOL     MW 1148   1.010   0.930   0.343 -0.2736 -0.6451 -0.4209
  288SOL     OW 1149   1.547   0.625   2.097 -0.0248  0.1477  0.5116
  288SOL    HW1 1150   1.522   0.657   2.188  1.4691 -1.6758  0.1887
  288SOL    HW2 1151   1.553   0.712   2.052  0.7532 -1.2723 -0.3787
  288SOL     MW 1152   1.544   0.641   2.103  0.2750 -0.2803  0.3515
  289SOL     OW 1153   0.944   1.033   2.619 -0.0743  0.4714  0.1450
  289SOL    HW1 1154   1.020   0.965   2.596 -2.7012  0.2576  0.0606
  289SOL    HW2 1155   0.870   1.019   2.555 -1.8086  0.8641  0.4916
  289SOL     MW 1156   0.944   1.022   2.608 -0.6497  0.4950  0.1796
  290SOL     OW 1157   0.850   0.567   1.512  0.2360 -0.2297  0.5305
  290SOL    HW1 1158   0.906   0.535   1.443  0.7601 -0.3328  2.0188
  290SOL    HW2 1159   0.915   0.567   1.580  0.7558 -0.0201  0.1124
  290SOL     MW 1160   0.866   0.563   1.512  0.3737 -0.2156  0.6717
  291SOL     OW 1161   0.147   0.329   0.194 -0.4406  0.2522 -1.2378
  291SOL    HW1 1162   0.243   0.296   0.219  2.7197  1.2368  0.2626
  291SOL    HW2 1163   0.100   0.265   0.142  0.5981  1.6873 -0.6112
  291SOL     MW 1164   0.153   0.317   0.190  0.1134  0.5714 -0.9572
  292SOL     OW 1165   0.980   0.529   0.062 -0.0194 -0.1288 -0.2304
  292SOL    HW1 1166   1.020   0.574   0.134 -0.4878  0.9242 -0.6608
  292SOL    HW2 1167   1.026   0.446   0.054  1.0852  0.5633  0.9422
  292SOL     MW 1168   0.991   0.524   0.070  0.0645  0.1014 -0.1325
  293SOL     OW 1169   0.211   0.089   2.470 -0.3871  0.2688 -0.3821
  293SOL    HW1 1170   0.124   0.061   2.438 -1.0830 -3.7209  2.1672
  293SOL    HW2 1171   0.188   0.142   2.543  1.6315  0.4986  1.0618
  293SOL     MW 1172   0.196   0.092   2.476 -0.2125 -0.2273  0.1447
  294SOL     OW 1173   1.493   0.667   2.364 -0.0825 -0.4983 -0.7186
  294SOL    HW1 1174   1.477   0.724   2.443  0.7347  3.3599  3.6599
  294SOL    HW2 1175   1.511   0.579   2.400 -0.3609  0.4754 -1.5278
  294SOL     MW 1176   1.493   0.663   2.379 -0.0114  0.1392 -0.2476
  295SOL     OW 1177   0.904   0.704   2.504  0.2237  0.2558  0.1002
  295SOL    HW1 1178   0.861   0.640   2.449 -1.3154 -2.8617 -1.6132
  295SOL    HW2 1179   0.845   0.723   2.580 -0.9440 -2.6740  0.3899
  295SOL     MW 1180   0.891   0.698   2.507 -0.1334 -0.5421 -0.0876
  296SOL     OW 1181   1.264   0.268   2.071 -0.6021 -0.0506 -0.5795
  296SOL    HW1 1182   1.356   0.232   2.049 -1.9859  1.5565  0.2649
  296SOL    HW2 1183   1.261   0.271   2.171 -0.2678  0.0928  1.2593
  296SOL     MW 1184   1.276   0.263   2.081 -0.7406  0.1803 -0.2255
  297SOL     OW 1185   1.454   0.421   1.547  0.7331 -0.5279  0.1341
  297SOL    HW1 1186   1.495   0.507   1.542  1.0183 -0.0853  0.0792
  297SOL    HW2 1187   1.510   0.360   1.596  1.6741  3.0960  2.2697
  297SOL     MW 1188   1.467   0.424   1.553  0.8949  0.0086  0.4086
  298SOL     OW 1189   1.515   0.926   2.066  0.1721 -0.2109  0.0617
  298SOL    HW1 1190   1.512   0.976   1.985  1.6615 -0.1863  0.0259
  298SOL    HW2 1191   1.611   0.916   2.086  0.3874 -3.6834 -0.6334
  298SOL     MW 1192   1.527   0.932   2.058  0.3970 -0.6658 -0.0347
  299SOL     OW 1193   0.508   1.074   3.083  0.1431 -0.6321 -0.2574
  299SOL    HW1 1194   0.581   1.135   3.074  0.4218  0.6325 -0.1641
  299SOL    HW2 1195   0.474   1.049   2.997  1.8058 -2.1811  2.9228
  299SOL     MW 1196   0.514   1.079   3.070  0.3992 -0.6697  0.1745
  300SOL     OW 1197   1.269   1.165   2.506  0.4298  0.1628 -0.1505
  300SOL    HW1 1198   1.193   1.100   2.508 -0.9375 -0.3276  0.4593
  300SOL    HW2 1199   1.239   1.238   2.556 -2.1440  0.4770  1.5812
  300SOL     MW 1200   1.255   1.166   2.513 -0.0902  0.1396  0.1584
  301SOL     OW 1201   1.346   0.806   0.575 -0.2142  0.4367  0.2208
  301SOL    HW1 1202   1.423   0.797   0.630  0.7275  1.6307 -1.4232
  301SOL    HW2 1203   1.275   0.776   0.626 -0.3068  0.8743 -1.2888
  301SOL     MW 1204   1.347   0.801   0.589 -0.1022  0.6520 -0.1953
  302SOL     OW 1205   0.105   1.463   1.996 -0.0306 -0.6185  0.3148
  302SOL    HW1 1206   0.126   1.407   2.071 -0.3355  0.6836  1.4598
  302SOL    HW2 1207   0.065   1.541   2.028 -0.9886 -0.2370 -1.4007
  302SOL     MW 1208   0.102   1.466   2.010 -0.1973 -0.3963  0.2395
  303SOL     OW 1209   0.407   1.729   2.562  0.2175 -0.5987  0.2948
  303SOL    HW1 1210   0.475   1.777   2.516 -1.1101 -0.6048 -0.9484
  303SOL    HW2 1211   0.331   1.779   2.561  0.0073 -0.2001 -0.2976
  303SOL     MW 1212   0.406   1.742   2.556  0.0146 -0.5469  0.0526
  304SOL     OW 1213   0.634   2.079   2.401  0.3519 -0.3470 -0.4537
  304SOL    HW1 1214   0.671   2.163   2.373  0.0312  1.1131  0.7888
  304SOL    HW2 1215   0.697   2.014   2.366  1.5104 -2.6466 -1.5032
  304SOL     MW 1216   0.647   2.082   2.392  0.4624 -0.4577 -0.4282
  305SOL     OW 1217   1.087   0.560   0.566 -0.0874  0.7145  0.9869
  305SOL    HW1 1218   0.999   0.552   0.526 -3.4323 -1.2110 -0.1905
  305SOL    HW2 1219   1.125   0.479   0.534  0.4263  2.1793 -2.6312
  305SOL     MW 1220   1.081   0.548   0.556 -0.4610  0.6537  0.3542
  306SOL     OW 1221   1.207   1.474   0.347  0.4130  0.2882  0.1823
  306SOL    HW1 1222   1.249   1.395   0.378  0.8868  3.1946  1.1248
  306SOL    HW2 1223   1.227   1.478   0.257  0.5073 -1.8515  0.3563
  306SOL     MW 1224   1.215   1.464   0.339  0.4879  0.3893  0.3296
  307SOL     OW 1225   1.359   0.532   1.934  0.7179 -0.3748 -0.4741
  307SOL    HW1 1226   1.354   0.435   1.945  1.0261 -2.8554  3.3150
  307SOL    HW2 1227   1.437   0.550   1.994  2.2059 -1.6778 -3.0582
  307SOL     MW 1228   1.369   0.522   1.943  0.9549 -0.8740 -0.3151
  308SOL     OW 1229   2.154   0.644   2.658  0.6763  0.2132  0.2821
  308SOL    HW1 1230   2.217   0.587   2.712  2.5213 -1.1654 -0.1488
  308SOL    HW2 1231   2.171   0.743   2.673 -1.8410  0.3234 -2.1367
  308SOL     MW 1232   2.165   0.650   2.667  0.5876  0.0458 -0.0939
  309SOL     OW 1233   0.586   0.449   0.384 -0.4655 -0.5123 -0.8134
  309SOL    HW1 1234   0.587   0.359   0.421  0.1951 -0.5509  1.3589
  309SOL    HW2 1235   0.547   0.450   0.298 -0.2338 -1.9259 -0.4419
  309SOL     MW 1236   0.581   0.437   0.377 -0.3478 -0.7039 -0.4778
  310SOL     OW 1237   0.458   0.529   1.928  0.4243  0.0932 -0.0189
  310SOL    HW1 1238   0.503   0.455   1.890 -3.9059  0.7200 -0.4137
  310SOL    HW2 1239   0.515   0.603   1.899  2.2460  0.4259  0.3893
  310SOL     MW 1240   0.472   0.529   1.919  0.0933  0.2198 -0.0171
  311SOL     OW 1241   1.921   0.774   1.984 -0.1136  0.3137 -0.4740
  311SOL    HW1 1242   1.881   0.832   2.055  3.3224  1.3764 -1.5603
  311SOL    HW2 1243   1.967   0.703   2.028 -1.2236 -0.8251  0.3998
  311SOL     MW 1244   1.922   0.773   1.999  0.1933  0.3037 -0.5020
  312SOL     OW 1245   1.734   2.503   0.022 -0.6188 -0.1675 -0.2170
  312SOL    HW1 1246   1.799   2.531   0.090  0.5128  0.9988 -0.6131
  312SOL    HW2 1247   1.645   2.533   0.056  0.4304 -2.4176 -0.2303
  312SOL     MW 1248   1.731   2.510   0.035 -0.3311 -0.3105 -0.2710
  313SOL     OW 1249   0.114   1.191   2.939  0.6473 -0.1943 -0.0642
  313SOL    HW1 1250   0.183   1.179   3.007  0.7035 -0.0138  1.3621
  313SOL    HW2 1251   0.154   1.231   2.867 -0.0329  1.3308  0.3790
  313SOL     MW 1252   0.128   1.195   2.938  0.5650  0.0307  0.1825
  314SOL     OW 1253   2.136   3.008   2.975  0.0881 -0.1010  0.3707
  314SOL    HW1 1254   2.069   3.059   2.935 -1.7363 -4.2059 -0.2301
  314SOL    HW2 1255   2.164   3.062   3.044 -1.6994 -0.9589  0.4858
  314SOL     MW 1256   2.131   3.022   2.979 -0.3885 -0.7558  0.3066
  315SOL     OW 1257   1.529   1.941   3.041 -0.5211 -0.9387  0.4955
  315SOL    HW1 1258   1.478   1.995   3.106  0.1343 -0.8568 -0.7725
  315SOL    HW2 1259   1.566   2.002   2.975  0.7582  2.8147 -2.1662
  315SOL     MW 1260   1.527   1.956   3.041 -0.2659 -0.4326 -0.0230
  316SOL     OW 1261   1.249   0.653   2.698  0.2537 -0.6422 -0.0643
  316SOL    HW1 1262   1.342   0.645   2.724 -1.5617  0.5452  3.1276
  316SOL    HW2 1263   1.193   0.592   2.752 -0.5326  2.0074  0.2486
  316SOL     MW 1264   1.254   0.644   2.709 -0.0895 -0.1359  0.3982
  317SOL     OW 1265   0.665   1.426   2.628 -0.1959  0.2864 -0.0283
  317SOL    HW1 1266   0.692   1.342   2.666  1.3105  1.3408 -2.0237
  317SOL    HW2 1267   0.738   1.444   2.555  1.0359  0.0878  1.5097
  317SOL     MW 1268   0.678   1.417   2.623  0.1654  0.3993 -0.0887
  318SOL     OW 1269   1.348   0.363   2.901  0.1612  0.3622  0.3597
  318SOL    HW1 1270   1.266   0.419   2.885 -0.4208 -0.0694 -2.0516
  318SOL    HW2 1271   1.421   0.421   2.890  1.4723 -0.2467  4.0070
  318SOL     MW 1272   1.347   0.378   2.898  0.2574  0.2249  0.5228
  319SOL     OW 1273   0.812   0.463   2.826  0.5569  0.7284 -0.0806
  319SOL    HW1 1274   0.831   0.409   2.753 -0.5209  0.8693 -1.0801
  319SOL    HW2 1275   0.753   0.417   2.886 -1.2358  0.0757 -1.3761
  319SOL     MW 1276   0.807   0.450   2.824  0.1782  0.6609 -0.3834
  320SOL     OW 1277   1.046   1.332   2.033  0.4968  0.4837 -1.3684
  320SOL    HW1 1278   1.123   1.277   2.055 -3.5670  1.6887 -0.6976
  320SOL    HW2 1279   1.081   1.399   1.977  3.5207 -1.1179 -0.0260
  320SOL     MW 1280   1.061   1.334   2.029  0.3596  0.4314 -1.1028
  321SOL     OW 1281   1.071   0.974   3.054 -0.0723  0.7597  0.3031
  321SOL    HW1 1282   0.999   0.939   3.000 -0.5026  0.0650  1.0354
  321SOL    HW2 1283   1.117   0.897   3.085 -1.5494 -0.6783  1.2500
  321SOL     MW 1284   1.068   0.959   3.051 -0.3240  0.4783  0.5247
  322SOL     OW 1285   1.174   0.854   1.736 -0.0139 -0.0696 -0.4125
  322SOL    HW1 1286   1.262   0.815   1.751  0.5527 -1.3142  0.6360
  322SOL    HW2 1287   1.149   0.873   1.832  1.7694 -2.5047  0.9368
  322SOL     MW 1288   1.182   0.851   1.751  0.2962 -0.5551 -0.0961
  323SOL     OW 1289   1.171   1.515   1.864 -0.1085 -0.1514 -0.6818
  323SOL    HW1 1290   1.169   1.439   1.812  0.8421  2.7254  1.5235
  323SOL    HW2 1291   1.107   1.575   1.816 -0.5436  1.9376  0.2280
  323SOL     MW 1292   1.162   1.513   1.851 -0.0405  0.5038 -0.2708
  324SOL     OW 1293   1.527   1.065   2.477 -0.0689  0.2067  0.4623
  324SOL    HW1 1294   1.434   1.100   2.502 -1.8565  0.3636 -0.2984
  324SOL    HW2 1295   1.588   1.123   2.521  0.2016 -1.3613 -3.7329
  324SOL     MW 1296   1.523   1.077   2.486 -0.2691  0.0205 -0.1916
  325SOL     OW 1297   1.096   0.500   2.905  0.1955  0.1600 -0.1745
  325SOL    HW1 1298   1.088   0.543   2.994 -1.6707 -2.2756  5.1033
  325SOL    HW2 1299   1.008   0.502   2.868  0.5451 -2.3501  0.7254
  325SOL     MW 1300   1.083   0.506   2.912 -0.0046 -0.4925  0.6406
  326SOL     OW 1301   0.455   1.340   2.225  0.5977  0.2175  0.1041
  326SOL    HW1 1302   0.504   1.309   2.147  2.5513 -0.4376  1.8668
  326SOL    HW2 1303   0.453   1.435   2.211  1.8374 -0.1065  0.0632
  326SOL     MW 1304   0.461   1.349   2.213  1.0190  0.0883  0.3312
  327SOL     OW 1305   1.875   0.909   2.413 -0.2422 -0.0303  0.8765
  327SOL    HW1 1306   1.839   0.831   2.465 -3.7850 -2.1260 -1.7427
  327SOL    HW2 1307   1.969   0.902   2.393 -2.6871 -0.6629 -1.5452
  327SOL     MW 1308   1.883   0.898   2.417 -1.0322 -0.3903  0.2114
  328SOL     OW 1309   0.189   1.272   2.218 -0.0669  0.7170 -0.5027
  328SOL    HW1 1310   0.184   1.187   2.184  1.6401  2.0350  0.7663
  328SOL    HW2 1311   0.285   1.290   2.221  0.8093  1.3788 -0.1679
  328SOL     MW 1312   0.201   1.263   2.214  0.2740  0.9782 -0.2911
  329SOL     OW 1313   0.122   0.136   1.422 -0.2991 -0.1044  0.4768
  329SOL    HW1 1314   0.080   0.171   1.510 -1.4340 -0.3660  4.1367
  329SOL    HW2 1315   0.199   0.185   1.407  1.9221 -0.7359 -0.0921
  329SOL     MW 1316   0.127   0.147   1.431 -0.1558 -0.2222  0.8846
  330SOL     OW 1317   0.356   2.982   2.058 -0.2157  0.1672  0.3946
  330SOL    HW1 1318   0.397   3.035   2.121 -2.6812  2.1680 -1.7061
  330SOL    HW2 1319   0.273   2.949   2.105 -3.9876 -2.2676 -1.5505
  330SOL     MW 1320   0.350   2.984   2.073 -1.0386  0.1100 -0.1392
  331SOL     OW 1321   0.810   1.221   2.260 -0.3443 -0.4105  0.5164
  331SOL    HW1 1322   0.753   1.233   2.180 -2.8335 -1.6136 -0.1861
  331SOL    HW2 1323   0.805   1.299   2.311 -0.8592  0.8695  0.8812
  331SOL     MW 1324   0.802   1.233   2.256 -0.7407 -0.4003  0.4719
  332SOL     OW 1325   1.346   1.737   2.955 -0.3876 -0.6717 -0.2958
  332SOL    HW1 1326   1.357   1.722   2.861  0.1527 -0.6766 -0.2283
  332SOL    HW2 1327   1.422   1.801   2.977  1.9101 -1.3256  0.2280
  332SOL     MW 1328   1.358   1.744   2.945 -0.0131 -0.7587 -0.2178
  333SOL     OW 1329   1.725   1.462   2.999  0.0110 -0.0905 -0.1274
  333SOL    HW1 1330   1.814   1.496   3.018 -0.4158  3.2516  2.0184
  333SOL    HW2 1331   1.706   1.420   3.083 -1.0380 -0.0438  1.6885
  333SOL     MW 1332   1.734   1.461   3.012 -0.1837  0.3566  0.3953
  334SOL     OW 1333   1.313   3.068   2.633  0.2578  0.0002 -0.5366
  334SOL    HW1 1334   1.228   3.077   2.679  2.6745  1.5170 -0.5448
  334SOL    HW2 1335   1.340   3.164   2.641 -0.2701  3.2725  1.7285
  334SOL     MW 1336   1.306   3.082   2.640  0.5070  0.6321 -0.2388
  335SOL     OW 1337   1.253   0.757   3.054 -0.4818  0.1930  0.0730
  335SOL    HW1 1338   1.292   0.734   3.136 -0.1408 -0.7660 -2.2369
  335SOL    HW2 1339   1.313   0.788   2.983 -1.2489  0.7650 -1.4731
  335SOL     MW 1340   1.266   0.758   3.055 -0.5381  0.1420 -0.4358
  336SOL     OW 1341   0.899   1.114   1.911 -0.5230  0.1875  0.0033
  336SOL    HW1 1342   0.909   1.210   1.937 -1.7316  2.2957  2.0074
  336SOL    HW2 1343   0.984   1.085   1.941 -0.3710 -0.1471  1.2045
  336SOL     MW 1344   0.912   1.123   1.919 -0.6624  0.4215  0.4262
  337SOL     OW 1345   0.497   1.796   2.825  0.3812 -0.1483 -0.8978
  337SOL    HW1 1346   0.439   1.793   2.746 -0.6635 -0.2709  0.8503
  337SOL    HW2 1347   0.558   1.726   2.807  1.4224  2.2551 -0.1559
  337SOL     MW 1348   0.498   1.786   2.813  0.3807  0.1527 -0.5692
  338SOL     OW 1349   1.128   0.849   2.563 -0.1396  0.0879 -0.6202
  338SOL    HW1 1350   1.071   0.774   2.543  2.5245 -0.0203  0.2859
  338SOL    HW2 1351   1.195   0.807   2.614 -1.6882 -2.2264 -1.2374
  338SOL     MW 1352   1.129   0.834   2.567  0.0076 -0.2317 -0.5821
  339SOL     OW 1353   1.598   1.069   1.835  0.0615 -0.3658 -0.1823
  339SOL    HW1 1354   1.520   1.052   1.777  1.5388 -1.7232 -0.2964
  339SOL    HW2 1355   1.591   1.169   1.847 -0.5825  2.2194  0.7446
  339SOL     MW 1356   1.587   1.080   1.829  0.1715 -0.2038 -0.0751
  340SOL     OW 1357   1.358   1.558   0.095  0.0576 -0.6614 -0.3791
  340SOL    HW1 1358   1.372   1.616   0.019  0.2655  0.1746  1.4859
  340SOL    HW2 1359   1.445   1.518   0.101 -1.8860 -0.4529  0.7718
  340SOL     MW 1360   1.372   1.560   0.086 -0.1714 -0.5236  0.0188
  341SOL     OW 1361   0.136   1.335   2.667 -0.1011  0.3180 -0.2105
  341SOL    HW1 1362   0.209   1.373   2.619 -0.7451  0.5330 -0.2846
  341SOL    HW2 1363   0.074   1.338   2.595 -0.1883  1.5669  0.2033
  341SOL     MW 1364   0.137   1.341   2.651 -0.1975  0.5112 -0.1657
  342SOL     OW 1365   1.431   0.320   0.066  0.1624  0.0048 -0.2680
  342SOL    HW1 1366   1.450   0.399   0.117  2.8723 -1.7424  0.4374
  342SOL    HW2 1367   1.410   0.351  -0.021 -0.5647 -0.5607  2.0008
  342SOL     MW 1368   1.431   0.334   0.061  0.4240 -0.3003  0.1244
  343SOL     OW 1369   0.225   0.279   2.251  0.6832  0.4182 -0.4909
  343SOL    HW1 1370   0.246   0.209   2.315  1.3992  1.5650 -1.0200
  343SOL    HW2 1371   0.158   0.231   2.191 -1.3713  2.2752 -2.0834
  343SOL     MW 1372   0.219   0.263   2.252  0.5066  0.8146 -0.7708
  344SOL     OW 1373   1.681   2.079   0.245 -0.0663 -0.2571  0.3789
  344SOL    HW1 1374   1.688   2.119   0.161 -0.5223  0.8987  2.4517
  344SOL    HW2 1375   1.622   2.010   0.238 -1.0211 -0.6787  1.1575
  344SOL     MW 1376   1.674   2.075   0.233 -0.2524 -0.1603  0.7551
  345SOL     OW 1377   0.697   1.592   2.377  0.5172 -0.1788  0.1474
  345SOL    HW1 1378   0.606   1.587   2.344  2.4287  0.3815  0.7977
  345SOL    HW2 1379   0.757   1.561   2.306 -0.7821 -1.4673  1.1914
  345SOL     MW 1380   0.693   1.587   2.364  0.5980 -0.2749  0.3709
  346SOL     OW 1381   1.702   1.095   0.008  0.5524  0.4170  0.0371
  346SOL    HW1 1382   1.797   1.080   0.031  0.1420  2.7391  1.7832
  346SOL    HW2 1383   1.644   1.019   0.020  0.3124 -0.3724  0.9522
  346SOL     MW 1384   1.707   1.083   0.013  0.4666  0.6193  0.3882
  347SOL     OW 1385   1.215   0.694   2.351  0.8013  0.6126 -0.4579
  347SOL    HW1 1386   1.306   0.698   2.374 -1.1267 -0.8935  0.2210
  347SOL    HW2 1387   1.176   0.758   2.416  1.6136 -1.3570  1.6204
  347SOL     MW 1388   1.222   0.703   2.362  0.6541  0.1540 -0.0941
  348SOL     OW 1389   1.311   2.608   1.883 -0.1199 -0.4881 -0.0064
  348SOL    HW1 1390   1.362   2.531   1.890  0.3362  3.0345 -0.8450
  348SOL    HW2 1391   1.358   2.677   1.924 -0.2513 -0.1459 -0.1454
  348SOL     MW 1392   1.324   2.607   1.889 -0.0770  0.0219 -0.1354
  349SOL     OW 1393   1.405   0.214   2.651  0.6934 -0.2864  0.4492
  349SOL    HW1 1394   1.380   0.246   2.742 -3.5618  1.4821 -0.2160
  349SOL    HW2 1395   1.492   0.176   2.661 -1.7189 -2.4737  0.5702
  349SOL     MW 1396   1.413   0.213   2.664 -0.1863 -0.3417  0.3774
  350SOL     OW 1397   1.849   0.683   2.637 -0.1976 -0.0647 -0.5513
  350SOL    HW1 1398   1.807   0.618   2.584  2.4876  0.4335  0.3802
  350SOL    HW2 1399   1.939   0.658   2.658  1.7949 -0.1682  0.4718
  350SOL     MW 1400   1.855   0.671   2.633  0.4196 -0.0126 -0.2934
  351SOL     OW 1401   0.085   0.952   1.621  0.3146  0.4341 -0.0807
  351SOL    HW1 1402   0.021   0.992   1.681 -4.5221 -2.2598  1.0811
  351SOL    HW2 1403   0.147   1.024   1.604  0.2488  1.1663  3.9557
  351SOL     MW 1404   0.085   0.966   1.626 -0.3322  0.1753  0.6051
  352SOL     OW 1405   0.737   1.658   2.773 -0.5955 -0.2183  0.0226
  352SOL    HW1 1406   0.796   1.621   2.834 -0.9647 -2.6301  0.4176
  352SOL    HW2 1407   0.708   1.586   2.718  0.0777  2.0087  0.5786
  352SOL     MW 1408   0.741   1.644   2.774 -0.5554 -0.2427  0.1481
  353SOL     OW 1409   2.978   2.419   2.715 -0.1226  0.5226  0.2546
  353SOL    HW1 1410   3.071   2.392   2.700  0.9819  1.8672 -0.8510
  353SOL    HW2 1411   2.964   2.491   2.654 -0.5066  0.2383 -0.4335
  353SOL     MW 1412   2.989   2.425   2.705 -0.0275  0.6625  0.0180
  354SOL     OW 1413   0.425   2.396   0.849 -0.4421  0.1329 -0.4565
  354SOL    HW1 1414   0.446   2.367   0.936  2.2666  1.6608 -0.5591
  354SOL    HW2 1415   0.334   2.365   0.844  0.1379 -0.2148  1.7443
  354SOL     MW 1416   0.416   2.388   0.860 -0.0082  0.2886 -0.1797
  355SOL     OW 1417   0.073   2.172   0.390 -0.2002 -0.1317 -0.4782
  355SOL    HW1 1418  -0.018   2.162   0.358  0.0970  0.0216 -0.5012
  355SOL    HW2 1419   0.060   2.237   0.455  0.7207 -2.8728 -0.0265
  355SOL     MW 1420   0.059   2.179   0.394 -0.0395 -0.4731 -0.4216
  356SOL     OW 1421   0.854   2.955   1.022 -0.4497  0.3159  0.1413
  356SOL    HW1 1422   0.894   2.933   0.933  1.0633 -2.6847 -0.7188
  356SOL    HW2 1423   0.779   2.899   1.034  0.0930  2.8601 -0.9560
  356SOL     MW 1424   0.849   2.945   1.012 -0.1785  0.2557 -0.1169
  357SOL     OW 1425   1.754   2.893   0.371 -0.5586  0.4567 -0.0162
  357SOL    HW1 1426   1.718   2.841   0.437  2.2236  0.8536 -2.1070
  357SOL    HW2 1427   1.839   2.847   0.351 -2.6003 -0.2090  0.9306
  357SOL     MW 1428   1.760   2.880   0.377 -0.4609  0.4212 -0.1672
  358SOL     OW 1429   0.428   0.149   1.053  0.1669 -0.3018  0.6270
  358SOL    HW1 1430   0.516   0.120   1.025  2.8099  0.6894  0.1074
  358SOL    HW2 1431   0.384   0.166   0.969  2.5154 -1.0489  0.8202
  358SOL     MW 1432   0.434   0.147   1.038  0.8254 -0.2696  0.5839
  359SOL     OW 1433   0.983   2.869   1.825  0.0379  0.3360 -0.3597
  359SOL    HW1 1434   0.956   2.791   1.870 -1.9928 -0.7181 -0.5106
  359SOL    HW2 1435   0.967   2.834   1.735  0.7530 -0.8840  2.5376
  359SOL     MW 1436   0.977   2.854   1.819 -0.1356  0.0360  0.0026
  360SOL     OW 1437   0.643   2.795   0.997 -0.0054 -0.2256  0.1059
  360SOL    HW1 1438   0.638   2.729   0.927 -0.1374  0.5480 -3.5914
  360SOL    HW2 1439   0.621   2.740   1.068 -0.4565  1.2047  0.4405
  360SOL     MW 1440   0.639   2.779   0.997 -0.0823  0.0652 -0.3378
  361SOL     OW 1441   0.176   2.724   1.354  0.4630  0.0655 -0.2352
  361SOL    HW1 1442   0.144   2.818   1.376 -2.2259  1.7141 -0.0854
  361SOL    HW2 1443   0.272   2.714   1.353 -2.5726  0.4415  0.1271
  361SOL     MW 1444   0.185   2.735   1.357 -0.2923  0.3326 -0.1677
  362SOL     OW 1445   1.500   2.394   0.599 -0.0217 -0.8953  0.0300
  362SOL    HW1 1446   1.466   2.314   0.646  1.0806 -0.4370  1.1596
  362SOL    HW2 1447   1.512   2.451   0.672 -3.6347 -0.5849 -2.0132
  362SOL     MW 1448   1.497   2.391   0.615 -0.3530 -0.7939 -0.0905
  363SOL     OW 1449   0.257   3.050   0.750  0.1389 -0.1654 -0.1644
  363SOL    HW1 1450   0.234   3.011   0.830  1.8803 -2.1578  0.8080
  363SOL    HW2 1451   0.177   3.041   0.692 -1.6086  0.9397  2.0373
  363SOL     MW 1452   0.243   3.044   0.753  0.1381 -0.2825  0.2544
  364SOL     OW 1453   0.698   0.171   0.227  0.3746 -0.4003  1.1142
  364SOL    HW1 1454   0.653   0.089   0.231 -1.6925  0.2201  0.8085
  364SOL    HW2 1455   0.631   0.231   0.181  0.8490  2.8443 -2.4476
  364SOL     MW 1456   0.683   0.168   0.221  0.1644  0.1097  0.6039
  365SOL     OW 1457   0.950   1.976   1.130 -0.4038 -0.0570  0.2061
  365SOL    HW1 1458   0.903   2.052   1.086 -1.8224 -0.4354  1.7396
  365SOL    HW2 1459   0.904   1.895   1.096  1.9170  1.1672  0.2193
  365SOL     MW 1460   0.937   1.975   1.119 -0.2848  0.0546  0.4102
  366SOL     OW 1461   2.861   2.623   1.011  0.0065 -0.6904 -0.2096
  366SOL    HW1 1462   2.940   2.620   1.062  1.3952 -1.9022  1.3509
  366SOL    HW2 1463   2.898   2.638   0.918  0.7023 -1.1820  2.4356
  366SOL     MW 1464   2.876   2.625   1.005  0.2815 -0.9152  0.3453
  367SOL     OW 1465   1.270   2.809   0.874 -0.0313 -0.7938 -0.0118
  367SOL    HW1 1466   1.192   2.852   0.900 -0.3028 -0.3377 -2.0007
  367SOL    HW2 1467   1.245   2.766   0.785  1.6463 -0.2855  0.4302
  367SOL     MW 1468   1.257   2.809   0.866  0.1542 -0.6665 -0.2159
  368SOL     OW 1469   1.661   0.469   0.664  0.1440  0.1781  0.2573
  368SOL    HW1 1470   1.739   0.421   0.640  0.3022 -0.1332  0.1786
  368SOL    HW2 1471   1.699   0.558   0.676  0.8260 -0.8490 -0.8960
  368SOL     MW 1472   1.676   0.474   0.662  0.2549  0.0015  0.0948
  369SOL     OW 1473   0.111   2.487   1.719  0.4066  0.2955 -0.4547
  369SOL    HW1 1474   0.199   2.466   1.747 -0.9938 -0.1526 -1.7144
  369SOL    HW2 1475   0.095   2.580   1.742 -1.1531  2.0221  0.8765
  369SOL     MW 1476   0.121   2.496   1.726  0.0161  0.4642 -0.4452
  370SOL     OW 1477   0.692   0.060   0.973  0.1340 -0.9126  0.3043
  370SOL    HW1 1478   0.751   0.135   0.986 -0.9679 -0.7616 -1.4972
  370SOL    HW2 1479   0.752  -0.013   0.996 -0.7682 -1.3178 -1.3538
  370SOL     MW 1480   0.708   0.060   0.978 -0.1304 -0.9461 -0.1521
  371SOL     OW 1481   1.313   2.950   1.481  0.1542 -0.2347 -0.1958
  371SOL    HW1 1482   1.276   2.884   1.416 -1.9297  1.1338  2.3147
  371SOL    HW2 1483   1.328   3.035   1.435 -0.1168 -2.0694 -0.1323
  371SOL     MW 1484   1.310   2.953   1.466 -0.1565 -0.2962  0.1438
  372SOL     OW 1485   0.846   2.275   0.507  0.2236  0.3177 -0.1764
  372SOL    HW1 1486   0.811   2.187   0.526  1.2297 -0.0427 -0.5845
  372SOL    HW2 1487   0.786   2.319   0.450 -0.1674  1.6849 -0.2444
  372SOL     MW 1488   0.833   2.269   0.502  0.3047  0.4505 -0.2392
  373SOL     OW 1489   2.859   3.032   1.404 -0.6732 -0.1470 -0.3006
  373SOL    HW1 1490   2.922   2.997   1.343 -1.3648 -0.2822  0.2362
  373SOL    HW2 1491   2.820   3.114   1.359  1.9135 -0.1922 -2.2650
  373SOL     MW 1492   2.863   3.038   1.390 -0.4232 -0.1708 -0.4890
  374SOL     OW 1493   1.523   0.536   0.261  0.0268 -0.5693  0.0383
  374SOL    HW1 1494   1.596   0.577   0.317  4.3338 -1.5091  1.4204
  374SOL    HW2 1495   1.469   0.504   0.339  1.7650 -1.1854 -1.6946
  374SOL     MW 1496   1.525   0.537   0.279  0.8244 -0.7746 -0.0080
  375SOL     OW 1497   1.136   2.121   2.326 -0.5392  0.0321  0.3062
  375SOL    HW1 1498   1.133   2.117   2.422 -1.3981 -0.3782 -3.2150
  375SOL    HW2 1499   1.131   2.029   2.300  2.9098  1.3808  0.2276
  375SOL     MW 1500   1.135   2.109   2.335 -0.1975  0.1559 -0.1688
  376SOL     OW 1501   0.679   2.528   0.112  0.4360  0.1414 -0.4957
  376SOL    HW1 1502   0.740   2.493   0.184 -0.7998  1.8027  0.3972
  376SOL    HW2 1503   0.654   2.455   0.061  1.2103 -0.7197  0.8206
  376SOL     MW 1504   0.684   2.514   0.115  0.3751  0.2470 -0.2042
  377SOL     OW 1505   1.292   1.992   0.854  0.0653 -0.7216 -0.1119
  377SOL    HW1 1506   1.214   1.978   0.796 -0.5088 -0.6081  0.5963
  377SOL    HW2 1507   1.264   1.943   0.936  3.1339 -2.2505 -0.8008
  377SOL     MW 1508   1.278   1.983   0.857  0.3945 -0.9083 -0.1093
  378SOL     OW 1509   1.012   2.774   1.555  0.3461  0.0006 -0.0764
  378SOL    HW1 1510   0.924   2.727   1.552 -0.1696  0.4277 -0.5684
  378SOL    HW2 1511   1.002   2.856   1.500 -1.8636  2.1945  0.8499
  378SOL     MW 1512   0.999   2.779   1.547 -0.0135  0.3464 -0.0191
  379SOL     OW 1513   1.102   1.802   2.270  0.1409 -0.1411  0.1006
  379SOL    HW1 1514   1.005   1.797   2.278  2.1990 -2.2342 -2.6029
  379SOL    HW2 1515   1.130   1.722   2.220 -0.8562  1.3323 -1.0622
  379SOL     MW 1516   1.093   1.791   2.264  0.2809 -0.2229 -0.4095
  380SOL     OW 1517   0.862   0.144   1.535  0.4458 -0.7492  0.1696
  380SOL    HW1 1518   0.894   0.176   1.454 -0.5696 -0.8142 -0.0850
  380SOL    HW2 1519   0.937   0.116   1.580 -3.9651 -0.5837  2.2429
  380SOL     MW 1520   0.876   0.145   1.530 -0.2702 -0.7359  0.4096
  381SOL     OW 1521   0.794   1.967   0.775  0.2640 -0.1885 -0.3051
  381SOL    HW1 1522   0.891   1.964   0.757 -0.8363  1.1957 -1.1724
  381SOL    HW2 1523   0.784   2.035   0.841 -0.0960 -3.7638 -0.2606
  381SOL     MW 1524   0.805   1.976   0.781  0.0713 -0.4776 -0.4136
  382SOL     OW 1525   0.726   0.040   0.714  0.0928  1.0314  0.2663
  382SOL    HW1 1526   0.707   0.055   0.810 -2.0675 -0.6598  2.0440
  382SOL    HW2 1527   0.670  -0.038   0.695 -1.1110 -0.7747 -0.7590
  382SOL     MW 1528   0.716   0.032   0.725 -0.3510  0.5699  0.3656
  383SOL     OW 1529   0.436   0.048   0.379 -1.1076 -0.0641  0.0105
  383SOL    HW1 1530   0.504  -0.021   0.374  2.2409 -1.8948 -0.9137
  383SOL    HW2 1531   0.358  -0.008   0.378  0.2013  0.3118 -2.0671
  383SOL     MW 1532   0.435   0.032   0.378 -0.4931 -0.2560 -0.3856
  384SOL     OW 1533   0.615   2.903   0.637  0.3153 -0.0978  0.6903
  384SOL    HW1 1534   0.625   2.819   0.686  1.0045  2.1903 -2.4960
  384SOL    HW2 1535   0.525   2.894   0.601 -1.2740  1.0469  1.5733
  384SOL     MW 1536   0.604   2.891   0.639  0.1965  0.3551  0.3864
  385SOL     OW 1537   1.318   2.065   1.559  0.1256  0.1953 -0.2941
  385SOL    HW1 1538   1.399   2.074   1.613  1.6238  1.0242  0.6419
  385SOL    HW2 1539   1.270   1.981   1.584 -0.1836  1.0997  1.9084
  385SOL     MW 1540   1.322   2.055   1.569  0.2825  0.4240  0.1200
  386SOL     OW 1541   1.357   0.372   0.824 -0.2162 -0.4439 -0.7057
  386SOL    HW1 1542   1.263   0.370   0.808  1.5057 -1.3637 -0.0991
  386SOL    HW2 1543   1.361   0.392   0.915  0.8643 -1.8601  0.2725
  386SOL     MW 1544   1.345   0.374   0.834  0.1536 -0.7521 -0.4966
  387SOL     OW 1545   0.825   2.189   1.488  0.4661  0.7418 -0.0030
  387SOL    HW1 1546   0.891   2.253   1.464 -2.3180  0.3495  1.4823
  387SOL    HW2 1547   0.857   2.103   1.444 -1.4801  0.7658 -0.3541
  387SOL     MW 1548   0.838   2.186   1.479 -0.1580  0.6932  0.1467
  388SOL     OW 1549   1.499   2.793   1.226  0.6476 -0.2115  0.7225
  388SOL    HW1 1550   1.439   2.727   1.189  0.4106 -0.8809  1.4765
  388SOL    HW2 1551   1.585   2.766   1.187  2.3557 -1.6139  2.9138
  388SOL     MW 1552   1.502   2.781   1.216  0.8417 -0.4848  1.1111
  389SOL     OW 1553   0.362   0.130   3.095  0.2591 -0.9593  0.2731
  389SOL    HW1 1554   0.396   0.098   3.009 -1.0930 -0.6661 -1.6150
  389SOL    HW2 1555   0.271   0.159   3.070 -1.5844  2.8218 -2.6177
  389SOL     MW 1556   0.354   0.130   3.080 -0.1625 -0.4217 -0.3574
  390SOL     OW 1557   1.344   0.014   0.613 -0.3638  0.0261  0.1173
  390SOL    HW1 1558   1.414   0.066   0.569  1.6585  0.6913 -2.5020
  390SOL    HW2 1559   1.340   0.034   0.709  1.9619 -1.1529  1.3563
  390SOL     MW 1560   1.352   0.024   0.620  0.2099 -0.0417 -0.0648
  391SOL     OW 1561   0.306   2.273   1.479 -0.2832 -0.0604  0.3823
  391SOL    HW1 1562   0.243   2.219   1.522 -0.4238 -0.9535  0.9164
  391SOL    HW2 1563   0.244   2.345   1.455  1.5407 -2.2546  1.0541
  391SOL     MW 1564   0.290   2.275   1.481 -0.0611 -0.4677  0.5414
  392SOL     OW 1565   1.991   2.217   0.339 -0.1720  0.4356  0.8627
  392SOL    HW1 1566   1.912   2.210   0.387  1.0731 -3.0833  0.3641
  392SOL    HW2 1567   2.059   2.191   0.400  0.3789 -0.5334 -2.5877
  392SOL     MW 1568   1.990   2.213   0.353  0.0649 -0.1565  0.3417
  393SOL     OW 1569   0.233   2.990   2.806  0.2009 -0.0076 -0.0485
  393SOL    HW1 1570   0.282   3.078   2.810  0.6956 -1.3522 -0.2635
  393SOL    HW2 1571   0.153   3.005   2.751 -1.4327 -0.6001 -1.1881
  393SOL     MW 1572   0.229   3.003   2.799  0.0506 -0.2632 -0.2273
  394SOL     OW 1573   0.858   1.666   1.457  0.6008  0.5317  0.2220
  394SOL    HW1 1574   0.817   1.667   1.545  0.6809  1.6223  0.3520
  394SOL    HW2 1575   0.882   1.757   1.439 -2.0318  0.6671  1.6335
  394SOL     MW 1576   0.855   1.678   1.466  0.2640  0.6935  0.4254
  395SOL     OW 1577   0.923   2.867   2.610  0.3037 -0.7853  0.0128
  395SOL    HW1 1578   0.954   2.951   2.640  1.6056 -0.7441 -3.2613
  395SOL    HW2 1579   1.011   2.816   2.616 -0.9225  0.4689  0.1947
  395SOL     MW 1580   0.939   2.871   2.614  0.3137 -0.6144 -0.3952
  396SOL     OW 1581   0.800   1.850   2.380  0.3387 -0.0720 -0.5688
  396SOL    HW1 1582   0.828   1.851   2.468 -1.7434  0.8424 -0.7303
  396SOL    HW2 1583   0.771   1.760   2.376  0.5281  0.6883 -2.4193
  396SOL     MW 1584   0.800   1.838   2.391  0.0890  0.1490 -0.8343
  397SOL     OW 1585   1.012   2.345   1.349 -0.1516  0.2289  0.1224
  397SOL    HW1 1586   1.035   2.375   1.262 -0.5255 -4.3009  1.0863
  397SOL    HW2 1587   1.095   2.333   1.392  1.9172 -0.0074 -2.2484
  397SOL     MW 1588   1.026   2.348   1.344  0.0720 -0.3999 -0.0632
  398SOL     OW 1589   0.668   2.670   0.751 -0.7874 -0.4928  1.0428
  398SOL    HW1 1590   0.623   2.592   0.732  4.5093  0.2888 -0.7800
  398SOL    HW2 1591   0.747   2.646   0.704 -0.1425 -1.7662 -2.1138
  398SOL     MW 1592   0.672   2.656   0.742 -0.0035 -0.5577  0.3858
  399SOL     OW 1593   0.286   2.010   0.428  0.5633 -0.2955  0.6854
  399SOL    HW1 1594   0.201   2.054   0.441 -0.9457  1.6471  0.7069
  399SOL    HW2 1595   0.317   2.030   0.334  1.6780  2.2605  1.0840
  399SOL     MW 1596   0.279   2.018   0.418  0.5113  0.2980  0.7408
  400SOL     OW 1597   0.586   1.835   0.144 -0.3325 -0.1973  0.0311
  400SOL    HW1 1598   0.549   1.921   0.142  0.7370 -1.7743 -0.6736
  400SOL    HW2 1599   0.549   1.791   0.221  0.7598  1.9504 -0.0317
  400SOL     MW 1600   0.576   1.841   0.154 -0.0473 -0.1220 -0.0702
  401SOL     OW 1601   0.933   2.065   0.198 -0.4429 -0.1355  0.0962
  401SOL    HW1 1602   0.954   1.989   0.155 -1.0979  2.1288  2.7683
  401SOL    HW2 1603   1.009   2.076   0.258 -0.9285  0.6618  2.3438
  401SOL     MW 1604   0.946   2.056   0.201 -0.5934  0.2684  0.7453
  402SOL     OW 1605   0.702   2.933   1.697 -0.5104  0.3488 -0.3289
  402SOL    HW1 1606   0.690   2.863   1.765  2.1018 -2.5571  1.0281
  402SOL    HW2 1607   0.758   2.993   1.742 -0.6442  2.2588  0.0442
  402SOL     MW 1608   0.708   2.932   1.712 -0.1834  0.2174 -0.1006
  403SOL     OW 1609   0.057   0.421   0.445 -0.0788 -1.0113  0.2504
  403SOL    HW1 1610   0.143   0.451   0.462 -1.7903  0.0510  0.7037
  403SOL    HW2 1611   0.069   0.376   0.356  0.3909 -1.0647  1.2100
  403SOL     MW 1612   0.070   0.419   0.435 -0.2426 -0.8782  0.4368
  404SOL     OW 1613   1.009   2.891   0.796 -0.4291 -0.0153 -0.0972
  404SOL    HW1 1614   1.040   2.825   0.729 -0.9183  0.6718  0.7143
  404SOL    HW2 1615   1.031   2.979   0.757  0.2018 -0.4727 -0.6930
  404SOL     MW 1616   1.016   2.894   0.782 -0.4104  0.0150 -0.0688
  405SOL     OW 1617   0.488   2.470   1.561  0.0341 -0.1171  0.4336
  405SOL    HW1 1618   0.466   2.549   1.504 -0.4832 -4.5645  0.3840
  405SOL    HW2 1619   0.438   2.404   1.509  0.0241 -1.4968 -2.4247
  405SOL     MW 1620   0.478   2.472   1.546 -0.0355 -0.8859  0.0499
  406SOL     OW 1621   0.410   2.311   1.111 -0.1754 -0.1296 -0.5228
  406SOL    HW1 1622   0.320   2.349   1.098  0.8452  0.3879 -5.9065
  406SOL    HW2 1623   0.399   2.243   1.176  2.8618 -1.5629  2.0567
  406SOL     MW 1624   0.397   2.307   1.118  0.3600 -0.2504 -0.8928
  407SOL     OW 1625   0.053   2.714   1.120  0.2823 -0.0548 -0.3167
  407SOL    HW1 1626   0.108   2.716   1.203 -1.8846 -1.0826  0.7217
  407SOL    HW2 1627   0.100   2.766   1.057 -3.2591 -0.3515  4.4073
  407SOL     MW 1628   0.066   2.721   1.123 -0.4708 -0.2296  0.4436
  408SOL     OW 1629   2.096   2.066   0.638 -0.7762 -0.9936  0.2683
  408SOL    HW1 1630   2.048   2.113   0.701  0.6448 -0.7323 -1.7799
  408SOL    HW2 1631   2.026   2.025   0.584  0.4834  1.7179  1.6601
  408SOL     MW 1632   2.081   2.067   0.639 -0.4225 -0.6014  0.1817
  409SOL     OW 1633   1.331   0.056   0.875  0.5382 -0.2053  0.0090
  409SOL    HW1 1634   1.387   0.124   0.901 -0.9904  2.1066 -2.3643
  409SOL    HW2 1635   1.360  -0.025   0.922  0.8477  1.0832 -0.9659
  409SOL     MW 1636   1.342   0.054   0.884  0.3773  0.2698 -0.4328
  410SOL     OW 1637   1.099   2.470   1.111  0.5548 -1.0648  0.7191
  410SOL    HW1 1638   1.008   2.457   1.071  0.8427 -1.5116 -0.2607
  410SOL    HW2 1639   1.139   2.387   1.082 -0.2745  0.2945  2.4270
  410SOL     MW 1640   1.092   2.457   1.102  0.4834 -0.9444  0.8152
  411SOL     OW 1641   1.939   0.086   2.853  0.2536 -0.2198  0.4514
  411SOL    HW1 1642   1.882   0.043   2.790 -0.9911 -1.3292 -1.6590
  411SOL    HW2 1643   1.895   0.078   2.942 -1.7404 -1.7606  1.5885
  411SOL     MW 1644   1.926   0.079   2.856 -0.1737 -0.5694  0.3230
  412SOL     OW 1645   1.079   2.200   0.585 -0.2080  0.2002 -0.0156
  412SOL    HW1 1646   1.126   2.274   0.621 -1.3733  0.4136  0.0062
  412SOL    HW2 1647   0.994   2.236   0.575 -2.0691 -1.6298 -0.7910
  412SOL     MW 1648   1.074   2.215   0.588 -0.6073 -0.0131 -0.1150
  413SOL     OW 1649   0.553   2.791   0.090 -0.1338 -0.3604 -0.2395
  413SOL    HW1 1650   0.592   2.703   0.102  1.0857 -0.6970 -0.0721
  413SOL    HW2 1651   0.551   2.798  -0.005  1.7095 -0.9925 -1.0055
  413SOL     MW 1652   0.558   2.780   0.079  0.2703 -0.4882 -0.3185
  414SOL     OW 1653   1.974   3.068   1.086  0.0493 -0.5964  0.1415
  414SOL    HW1 1654   1.939   3.063   0.993 -2.2748 -1.5855  1.0970
  414SOL    HW2 1655   2.044   3.003   1.095  1.3454  0.0771  0.7831
  414SOL     MW 1656   1.979   3.059   1.075 -0.0864 -0.6380  0.3522
  415SOL     OW 1657   1.712   2.656   1.076 -0.4017 -0.1606 -0.1662
  415SOL    HW1 1658   1.659   2.598   1.138 -1.5058  2.1751  1.9452
  415SOL    HW2 1659   1.802   2.663   1.113  1.0324  1.2741  2.5565
  415SOL     MW 1660   1.717   2.649   1.089 -0.3581  0.3368  0.4716
  416SOL     OW 1661   0.590   1.917   1.388 -0.2300  0.0856 -0.4770
  416SOL    HW1 1662   0.548   2.005   1.382 -0.5040  1.2058 -0.2178
  416SOL    HW2 1663   0.583   1.885   1.299 -1.4303 -1.4357 -0.1980
  416SOL     MW 1664   0.583   1.925   1.375 -0.4245  0.0326 -0.4060
  417SOL     OW 1665   1.011   3.039   2.034  0.0537  0.0899  0.2539
  417SOL    HW1 1666   0.943   3.007   2.090  0.0588  2.0657  0.8859
  417SOL    HW2 1667   0.988   2.989   1.956 -1.6737  2.1930  2.0439
  417SOL     MW 1668   0.999   3.028   2.031 -0.1736  0.6281  0.5735
  418SOL     OW 1669   0.677   2.989   0.231 -0.8571 -0.2944  0.1583
  418SOL    HW1 1670   0.754   2.964   0.182 -0.9168  0.5866 -0.4691
  418SOL    HW2 1671   0.610   2.924   0.206  0.0343  2.1731  0.7009
  418SOL     MW 1672   0.678   2.977   0.221 -0.7474  0.1474  0.1471
  419SOL     OW 1673   0.444   2.664   1.373 -0.4576 -0.5967  0.0053
  419SOL    HW1 1674   0.515   2.712   1.413  0.3746 -0.5593  0.5606
  419SOL    HW2 1675   0.488   2.604   1.313 -0.5616 -1.5574  1.3309
  419SOL     MW 1676   0.459   2.663   1.371 -0.3615 -0.7185  0.2535
  420SOL     OW 1677   0.784   2.168   0.994 -0.3888 -0.7880 -0.2972
  420SOL    HW1 1678   0.734   2.190   1.071  0.1298 -2.8821  1.5023
  420SOL    HW2 1679   0.813   2.253   0.968 -2.6044 -1.8617 -1.2635
  420SOL     MW 1680   0.781   2.182   1.001 -0.6127 -1.2059 -0.1873
  421SOL     OW 1681   2.941   0.062   0.045  0.2041 -0.0737  0.3478
  421SOL    HW1 1682   2.908   0.040  -0.042 -2.4131  0.0552 -0.5629
  421SOL    HW2 1683   2.959  -0.017   0.092 -0.6839  2.6173 -1.0021
  421SOL     MW 1684   2.939   0.049   0.039 -0.2584  0.2984  0.0495
  422SOL     OW 1685   0.865   2.441   0.948 -0.8610  0.3709  0.5567
  422SOL    HW1 1686   0.775   2.475   0.959 -1.1154  0.7088  2.0132
  422SOL    HW2 1687   0.897   2.461   0.862  0.8625  1.6375  1.0974
  422SOL     MW 1688   0.857   2.448   0.938 -0.6672  0.5826  0.8202
  423SOL     OW 1689   1.539   0.161   0.503 -0.6255  0.1149  0.0873
  423SOL    HW1 1690   1.531   0.168   0.407 -2.4893 -1.7207  1.4615
  423SOL    HW2 1691   1.531   0.249   0.535 -1.4875 -0.5221  1.2646
  423SOL     MW 1692   1.537   0.174   0.495 -0.9851 -0.2113  0.4239
  424SOL     OW 1693   0.687   2.271   1.245 -0.1425  0.1866  0.3886
  424SOL    HW1 1694   0.597   2.231   1.274 -1.3244  1.7887 -2.6659
  424SOL    HW2 1695   0.746   2.243   1.314 -2.8359  0.8744 -0.2257
  424SOL     MW 1696   0.683   2.262   1.258 -0.6538  0.4888 -0.0955
  425SOL     OW 1697   1.743   2.828   1.948 -0.3844 -0.2155 -0.6137
  425SOL    HW1 1698   1.763   2.857   1.859 -1.9537  1.4583  1.0383
  425SOL    HW2 1699   1.793   2.749   1.972 -2.0877 -2.0510 -0.7604
  425SOL     MW 1700   1.752   2.821   1.939 -0.8162 -0.2369 -0.4151
  426SOL     OW 1701   0.778   1.687   1.942  0.5060 -0.3021 -0.5243
  426SOL    HW1 1702   0.723   1.692   1.864 -3.4410  1.4836 -0.4250
  426SOL    HW2 1703   0.768   1.770   1.986  0.8564 -1.1554  0.1652
  426SOL     MW 1704   0.770   1.699   1.938  0.0315 -0.1791 -0.4202
  427SOL     OW 1705   0.358   1.566   1.888 -0.3920 -0.0972 -0.1895
  427SOL    HW1 1706   0.392   1.626   1.959 -2.8549  0.5569  3.9136
  427SOL    HW2 1707   0.265   1.545   1.900 -2.2264 -1.2578 -1.8025
  427SOL     MW 1708   0.350   1.571   1.899 -0.9590 -0.1640  0.1390
  428SOL     OW 1709   0.556   2.542   1.160  0.3198 -0.4221  0.1621
  428SOL    HW1 1710   0.633   2.539   1.214  0.2832 -0.1908  0.6542
  428SOL    HW2 1711   0.511   2.454   1.174 -0.1507 -1.2727 -2.3482
  428SOL     MW 1712   0.560   2.530   1.169  0.2529 -0.5038 -0.1042
  429SOL     OW 1713   1.342   2.630   1.073  0.2783 -0.4463 -0.0455
  429SOL    HW1 1714   1.263   2.576   1.081 -0.4528 -1.2721  0.3918
  429SOL    HW2 1715   1.315   2.705   1.012 -0.4497  1.4089  0.8400
  429SOL     MW 1716   1.328   2.633   1.066  0.0858 -0.3105  0.1290
  430SOL     OW 1717   1.146   2.682   0.659 -0.5045 -0.2464 -0.1660
  430SOL    HW1 1718   1.182   2.594   0.676  1.3935 -0.0646 -0.3717
  430SOL    HW2 1719   1.094   2.683   0.579 -0.8210  0.9819  0.8750
  430SOL     MW 1720   1.144   2.671   0.651 -0.2958 -0.0604 -0.0558
  431SOL     OW 1721   0.335   1.966   1.130  0.2239  0.1492  0.0078
  431SOL    HW1 1722   0.392   1.894   1.127  2.0876  0.3546  2.5283
  431SOL    HW2 1723   0.304   1.980   1.040  0.3568 -2.4957  1.0303
  431SOL     MW 1724   0.338   1.958   1.118  0.4873 -0.1726  0.4753
  432SOL     OW 1725   0.034   0.078   1.166  0.0283  0.1825  0.4279
  432SOL    HW1 1726   0.043   0.096   1.265 -0.6033 -2.0295 -0.9385
  432SOL    HW2 1727  -0.043   0.014   1.162 -1.3839  0.9891  0.1807
  432SOL     MW 1728   0.025   0.072   1.179 -0.2414 -0.0030  0.2150
  433SOL     OW 1729   0.620   2.877   1.438 -0.0153  0.5894  0.0516
  433SOL    HW1 1730   0.649   2.885   1.532  2.8784 -1.2229 -2.6347
  433SOL    HW2 1731   0.695   2.926   1.395 -0.0233  0.1563 -1.2994
  433SOL     MW 1732   0.634   2.884   1.444  0.3654  0.2931 -0.4811
  434SOL     OW 1733   1.540   2.834   1.552  0.1798  0.1032  0.1030
  434SOL    HW1 1734   1.449   2.868   1.540 -1.1426  1.6905 -2.3005
  434SOL    HW2 1735   1.561   2.813   1.462 -2.0406  1.9421  1.5367
  434SOL     MW 1736   1.530   2.836   1.539 -0.2876  0.5552 -0.0249
  435SOL     OW 1737   2.873   1.766   0.222 -0.1394 -0.6845 -0.1973
  435SOL    HW1 1738   2.918   1.835   0.178 -1.3282 -0.1977 -2.1553
  435SOL    HW2 1739   2.842   1.706   0.148 -0.3187 -2.4741 -3.7147
  435SOL     MW 1740   2.875   1.767   0.206 -0.3199 -0.8564 -0.9197
  436SOL     OW 1741   1.392   2.763   0.310 -0.1762 -0.6343 -0.0308
  436SOL    HW1 1742   1.454   2.744   0.382  2.0773  1.3683  0.2323
  436SOL    HW2 1743   1.337   2.837   0.337 -1.7372  0.6296 -2.1891
  436SOL     MW 1744   1.393   2.770   0.323 -0.0848 -0.2033 -0.2809
  437SOL     OW 1745   0.888   2.929   1.372 -0.0003 -0.2032  0.3946
  437SOL    HW1 1746   0.937   3.011   1.349  1.0994  0.2450 -0.5575
  437SOL    HW2 1747   0.892   2.871   1.294  0.4698  0.5626  0.2328
  437SOL     MW 1748   0.895   2.932   1.359  0.2068 -0.0430  0.2477
  438SOL     OW 1749   0.896   2.617   1.985  0.0580  0.2109 -0.5630
  438SOL    HW1 1750   0.886   2.559   2.058  1.1780  1.4641  0.3991
  438SOL    HW2 1751   0.837   2.588   1.916  2.2152  2.4644 -1.3467
  438SOL     MW 1752   0.887   2.605   1.985  0.4903  0.6736 -0.5395
  439SOL     OW 1753   1.168   2.172   0.326 -0.3529 -0.0282  0.1496
  439SOL    HW1 1754   1.111   2.195   0.402 -2.7968  4.8041 -0.2737
  439SOL    HW2 1755   1.168   2.256   0.280  1.1111  0.4089 -2.1579
  439SOL     MW 1756   1.161   2.186   0.330 -0.4822  0.6671 -0.2107
  440SOL     OW 1757   1.602   2.972   3.028 -0.3051 -0.2067  0.5817
  440SOL    HW1 1758   1.584   2.964   3.121  0.4040  0.8348 -0.8307
  440SOL    HW2 1759   1.659   2.894   3.003  0.9062  1.0921 -2.0089
  440SOL     MW 1760   1.607   2.960   3.037 -0.0517  0.1021  0.0535
  441SOL     OW 1761   0.335   2.568   0.533  0.6900  0.4707  0.1791
  441SOL    HW1 1762   0.322   2.533   0.442  0.0413  0.6061 -1.1335
  441SOL    HW2 1763   0.347   2.667   0.541  1.4867  1.1069 -2.8589
  441SOL     MW 1764   0.335   2.576   0.522  0.7096  0.5725 -0.3949
  442SOL     OW 1765   3.100   2.313   0.634 -0.6300  0.0990  0.5323
  442SOL    HW1 1766   3.120   2.403   0.603 -2.5187  0.7187  1.1931
  442SOL    HW2 1767   3.006   2.310   0.647 -0.1744  0.2663 -1.8868
  442SOL     MW 1768   3.090   2.325   0.632 -0.8191  0.2029  0.3003
  443SOL     OW 1769   1.363   1.734   1.819 -0.1827 -0.1143 -0.1689
  443SOL    HW1 1770   1.326   1.769   1.733 -2.4419  2.3190 -2.7726
  443SOL    HW2 1771   1.318   1.652   1.841  0.9286  1.8603  3.3574
  443SOL     MW 1772   1.352   1.728   1.811 -0.3342  0.4673 -0.0472
  444SOL     OW 1773   0.830   2.577   1.579 -0.1705  0.0141 -0.6065
  444SOL    HW1 1774   0.900   2.526   1.617  0.5953 -2.2499 -1.8736
  444SOL    HW2 1775   0.750   2.548   1.634 -1.3173 -0.0253  0.2780
  444SOL     MW 1776   0.829   2.566   1.592 -0.2208 -0.2898 -0.6570
  445SOL     OW 1777   0.995   0.080   1.265 -0.0925 -0.6690 -0.0235
  445SOL    HW1 1778   0.946   0.161   1.255  1.2917  0.4904  1.9643
  445SOL    HW2 1779   1.054   0.079   1.186 -1.8584  2.3694  0.3288
  445SOL     MW 1780   0.996   0.090   1.253 -0.1429 -0.1152  0.2853
  446SOL     OW 1781   2.752   2.876   1.040 -0.2933 -0.6575  0.6522
  446SOL    HW1 1782   2.671   2.894   0.991 -1.5835 -0.6937  0.5168
  446SOL    HW2 1783   2.777   2.784   1.015  0.7775 -0.5524  0.7186
  446SOL     MW 1784   2.745   2.866   1.030 -0.3222 -0.6484  0.6431
  447SOL     OW 1785   3.042   2.021   1.723 -0.1041 -0.5562 -0.9027
  447SOL    HW1 1786   3.115   1.950   1.724  1.4386  0.3260 -1.3116
  447SOL    HW2 1787   2.983   2.000   1.646 -2.4287 -2.0468 -0.4507
  447SOL     MW 1788   3.044   2.009   1.713 -0.2072 -0.6365 -0.8970
  448SOL     OW 1789   1.680   2.332   1.668 -0.0152 -0.2319  0.3818
  448SOL    HW1 1790   1.620   2.261   1.691  2.4197  0.2569 -0.9757
  448SOL    HW2 1791   1.640   2.420   1.635  0.0482  0.4091  0.7883
  448SOL     MW 1792   1.667   2.334   1.667  0.3144 -0.0828  0.2564
  449SOL     OW 1793   0.834   2.962   0.448 -0.0032  0.6973 -0.0542
  449SOL    HW1 1794   0.775   2.989   0.376  0.0073  1.8250  0.0188
  449SOL    HW2 1795   0.775   2.944   0.519  0.6970  2.2237 -0.8704
  449SOL     MW 1796   0.819   2.963   0.448  0.0906  1.0475 -0.1523
  450SOL     OW 1797   1.219   2.424   0.685  0.1533  0.2547  0.1340
  450SOL    HW1 1798   1.223   2.402   0.777  3.0279 -0.1451 -2.1610
  450SOL    HW2 1799   1.311   2.426   0.659 -0.1886 -1.2472 -0.0410
  450SOL     MW 1800   1.232   2.422   0.694  0.4875  0.0038 -0.1919
  451SOL     OW 1801   0.597   2.030   1.657 -0.3154  0.1757 -0.0395
  451SOL    HW1 1802   0.680   2.074   1.675  0.9366  4.4445  0.9620
  451SOL    HW2 1803   0.605   1.974   1.579 -0.0940 -0.3026  1.9599
  451SOL     MW 1804   0.609   2.028   1.649 -0.1210  0.6758  0.3564
  452SOL     OW 1805   0.280   2.745   0.146  0.0073 -0.0668 -0.0100
  452SOL    HW1 1806   0.372   2.744   0.154  0.5528 -2.1874 -0.4053
  452SOL    HW2 1807   0.263   2.728   0.046  0.1974  0.0293  1.1260
  452SOL     MW 1808   0.290   2.743   0.134  0.1044 -0.3339  0.0877
  453SOL     OW 1809   0.389   2.983   1.683  0.4300 -0.4241  0.7544
  453SOL    HW1 1810   0.478   3.000   1.648 -1.0705 -0.9012 -1.4324
  453SOL    HW2 1811   0.346   3.004   1.597  1.3821 -0.6446 -2.3509
  453SOL     MW 1812   0.395   2.988   1.667  0.3576 -0.5161  0.0561
  454SOL     OW 1813   1.058   2.801   1.102 -0.3782 -0.2729  0.5352
  454SOL    HW1 1814   1.025   2.730   1.051  0.0006 -0.1610  2.4328
  454SOL    HW2 1815   0.986   2.865   1.087 -1.1291  1.9946  0.7547
  454SOL     MW 1816   1.044   2.800   1.093 -0.4273  0.0411  0.8145
  455SOL     OW 1817   1.552   2.967   0.190  0.0671  0.4917  0.1420
  455SOL    HW1 1818   1.621   2.924   0.238  0.1972 -0.3627  1.2116
  455SOL    HW2 1819   1.473   2.925   0.218  0.2221  2.2399 -0.1934
  455SOL     MW 1820   1.551   2.956   0.200  0.1047  0.6096  0.2389
  456SOL     OW 1821   2.933   0.345   1.371 -0.5122 -0.2413 -0.4748
  456SOL    HW1 1822   2.900   0.262   1.323 -0.8321 -0.6434 -3.5443
  456SOL    HW2 1823   2.991   0.401   1.308 -2.7120  0.2787 -2.0507
  456SOL     MW 1824   2.936   0.341   1.356 -0.8447 -0.2258 -1.0877
  457SOL     OW 1825   0.842   1.543   2.999  0.2395  0.4440 -0.0062
  457SOL    HW1 1826   0.766   1.523   3.058  1.0080 -1.7925  2.9353
  457SOL    HW2 1827   0.916   1.477   3.012  0.6241 -3.4676 -2.8718
  457SOL     MW 1828   0.842   1.532   3.009  0.3916 -0.3672  0.0038
  458SOL     OW 1829   1.468   1.403   0.647  0.4864 -0.1127 -0.4030
  458SOL    HW1 1830   1.379   1.402   0.672  1.4898 -0.2483  1.1703
  458SOL    HW2 1831   1.460   1.350   0.566 -1.2914  1.4484  2.1784
  458SOL     MW 1832   1.455   1.395   0.640  0.3842  0.0753  0.1452
  459SOL     OW 1833   1.554   0.132   0.233 -0.3771 -0.2145  0.1472
  459SOL    HW1 1834   1.552   0.038   0.204  0.8888  0.3070 -1.1650
  459SOL    HW2 1835   1.505   0.198   0.177  1.3723 -0.3789  1.1854
  459SOL     MW 1836   1.547   0.128   0.222  0.0207 -0.1674  0.1111
  460SOL     OW 1837   1.711   2.168   0.611  0.9884  0.0142  0.3450
  460SOL    HW1 1838   1.632   2.165   0.656  1.2987 -3.5307 -3.1893
  460SOL    HW2 1839   1.730   2.071   0.588 -2.7047  0.7765  2.2932
  460SOL     MW 1840   1.703   2.155   0.614  0.5421 -0.3529  0.1357
  461SOL     OW 1841   0.535   2.417   0.609  0.3359  0.5039  0.6805
  461SOL    HW1 1842   0.464   2.453   0.558 -0.8211 -0.9449 -2.1980
  461SOL    HW2 1843   0.502   2.377   0.690  1.9675 -0.0571  2.3237
  461SOL     MW 1844   0.521   2.417   0.613  0.3985  0.2387  0.5175
  462SOL     OW 1845   0.357   0.287   1.276 -0.2296 -1.0046 -0.3445
  462SOL    HW1 1846   0.397   0.235   1.215 -0.7815 -2.0940 -0.1135
  462SOL    HW2 1847   0.441   0.302   1.330  0.0077  0.2748  0.3568
  462SOL     MW 1848   0.373   0.282   1.275 -0.2711 -0.9795 -0.2215
  463SOL     OW 1849   1.016   0.044   0.727 -0.1315 -0.3148 -0.3118
  463SOL    HW1 1850   1.040   0.066   0.637  0.4526  0.0286  1.1229
  463SOL    HW2 1851   0.915   0.046   0.729 -0.2408 -0.5398  2.6239
  463SOL     MW 1852   1.006   0.047   0.716 -0.0689 -0.2992  0.2648
  464SOL     OW 1853   0.770   2.943   2.145 -0.4777  0.0081  0.6516
  464SOL    HW1 1854   0.751   2.845   2.141 -0.9877 -0.5783 -0.2493
  464SOL    HW2 1855   0.805   2.968   2.239 -2.0651  1.7327  3.4618
  464SOL     MW 1856   0.772   2.934   2.157 -0.7544  0.1583  0.9035
  465SOL     OW 1857   0.749   0.213   0.501 -0.1497  0.8141 -0.3429
  465SOL    HW1 1858   0.731   0.153   0.580  2.6094 -0.2734  1.5593
  465SOL    HW2 1859   0.735   0.175   0.416  0.8229 -0.1683  0.7419
  465SOL     MW 1860   0.745   0.200   0.500  0.3427  0.5410  0.0512
  466SOL     OW 1861   1.059   1.962   0.720 -0.3763 -0.2717  0.3683
  466SOL    HW1 1862   1.071   1.895   0.650  1.0112  0.6112 -0.4761
  466SOL    HW2 1863   1.076   2.049   0.678 -0.4645  0.6100  1.8684
  466SOL     MW 1864   1.063   1.965   0.705 -0.2049 -0.0389  0.4548
  467SOL     OW 1865   1.217   2.276   0.967 -0.2477  0.0127  0.2360
  467SOL    HW1 1866   1.308   2.299   0.996 -0.4174 -1.4342 -0.1752
  467SOL    HW2 1867   1.220   2.195   0.921  1.1995  3.0673  1.2009
  467SOL     MW 1868   1.229   2.268   0.965 -0.0792  0.2248  0.3090
  468SOL     OW 1869   0.326   2.621   1.995  0.3593  0.0188  0.5628
  468SOL    HW1 1870   0.366   2.551   1.946 -3.5130  0.6012 -1.9154
  468SOL    HW2 1871   0.350   2.702   1.959 -0.7159 -0.3294  1.5295
  468SOL     MW 1872   0.334   2.622   1.984 -0.2935  0.0497  0.3634
  469SOL     OW 1873   0.392   2.107   1.837  0.5189  0.5058 -0.3173
  469SOL    HW1 1874   0.299   2.071   1.832 -0.4774  1.0379  0.6555
  469SOL    HW2 1875   0.441   2.085   1.755 -2.1281  1.5307  0.6289
  469SOL     MW 1876   0.387   2.100   1.826  0.0382  0.7112 -0.0641
  470SOL     OW 1877   3.052   2.535   0.164 -0.2351  0.1851  0.4031
  470SOL    HW1 1878   2.971   2.501   0.208  1.3418  0.1007  2.4353
  470SOL    HW2 1879   3.028   2.573   0.079  2.3498  0.1897  0.2312
  470SOL     MW 1880   3.038   2.535   0.159  0.3140  0.1746  0.6486
  471SOL     OW 1881   1.198   2.742   1.352  0.7890  0.3646 -0.3106
  471SOL    HW1 1882   1.135   2.731   1.425 -1.2138 -0.8313 -0.3023
  471SOL    HW2 1883   1.134   2.762   1.279 -0.4214  1.2746 -0.6361
  471SOL     MW 1884   1.182   2.743   1.352  0.3651  0.3269 -0.3525
  472SOL     OW 1885   2.922   2.119   0.318 -0.1213 -0.5235  0.3205
  472SOL    HW1 1886   2.930   2.095   0.224  1.1942  0.9508  2.7503
  472SOL    HW2 1887   2.909   2.039   0.367 -0.2666  1.9552 -0.0056
  472SOL     MW 1888   2.921   2.105   0.312  0.0331 -0.0019  0.5981
  473SOL     OW 1889   0.793   2.536   1.299 -0.3081  0.0322  0.1311
  473SOL    HW1 1890   0.820   2.445   1.295 -1.0781  1.9547  3.3434
  473SOL    HW2 1891   0.808   2.549   1.394 -1.0860 -2.7537  1.7735
  473SOL     MW 1892   0.799   2.526   1.311 -0.5124 -0.0817  0.7716
  474SOL     OW 1893   0.812   2.219   1.751 -0.8713  0.0345 -0.9404
  474SOL    HW1 1894   0.906   2.203   1.787  2.1553  0.6531  0.5958
  474SOL    HW2 1895   0.837   2.229   1.655 -0.2915  0.2183  1.7486
  474SOL     MW 1896   0.828   2.218   1.743 -0.3955  0.1404 -0.3829
  475SOL     OW 1897   1.632   3.062   1.423  0.1083 -0.1733  0.3143
  475SOL    HW1 1898   1.570   3.121   1.387  2.4664 -1.0888 -1.3463
  475SOL    HW2 1899   1.581   2.994   1.468 -1.0280 -0.7428  1.1308
  475SOL     MW 1900   1.617   3.061   1.424  0.2695 -0.3692  0.2029
  476SOL     OW 1901   1.465   2.595   0.805 -0.0371  0.3980  0.4657
  476SOL    HW1 1902   1.465   2.572   0.902  1.1918 -4.3757  1.4765
  476SOL    HW2 1903   1.489   2.691   0.793 -0.4342  2.1775 -1.4976
  476SOL     MW 1904   1.469   2.604   0.816  0.0727  0.0030  0.3400
  477SOL     OW 1905   0.889   2.506   0.656  0.0637 -0.0759  0.0908
  477SOL    HW1 1906   0.912   2.569   0.594 -1.4359 -0.5644 -2.3188
  477SOL    HW2 1907   0.858   2.428   0.606  1.0612  1.2359 -3.3297
  477SOL     MW 1908   0.888   2.504   0.642 -0.0026  0.0327 -0.6784
  478SOL     OW 1909   0.239   2.614   0.913 -0.0325 -0.1166 -0.0463
  478SOL    HW1 1910   0.264   2.710   0.923 -1.4263  4.0490 -1.5819
  478SOL    HW2 1911   0.316   2.562   0.886 -0.9558 -1.7857  2.3051
  478SOL     MW 1912   0.252   2.620   0.910 -0.3382  0.2128  0.0613
  479SOL     OW 1913   1.384   1.944   1.312  0.3199 -0.0015 -0.4965
  479SOL    HW1 1914   1.360   1.993   1.391 -0.3363  1.0388  2.8267
  479SOL    HW2 1915   1.458   1.888   1.340 -0.2324 -0.6271 -0.6169
  479SOL     MW 1916   1.391   1.943   1.326  0.1605  0.0532 -0.0739
  480SOL     OW 1917   1.839   2.363   1.287  0.3188  0.4235  0.2722
  480SOL    HW1 1918   1.850   2.282   1.332 -1.5717  0.5939 -0.9046
  480SOL    HW2 1919   1.880   2.350   1.199  0.7486  1.0470 -1.8066
  480SOL     MW 1920   1.846   2.351   1.281  0.1260  0.5283 -0.1573
  481SOL     OW 1921   1.204   0.130   1.116 -0.0297 -0.4496  0.2522
  481SOL    HW1 1922   1.247   0.096   1.037  1.8774 -1.4417 -1.3221
  481SOL    HW2 1923   1.228   0.226   1.116 -1.6373  0.1207  0.7930
  481SOL     MW 1924   1.213   0.139   1.106  0.0098 -0.5052  0.1158
  482SOL     OW 1925   1.025   0.046   0.420  0.0481  0.2380 -0.0588
  482SOL    HW1 1926   0.950  -0.015   0.420  0.8576 -1.3475  1.2053
  482SOL    HW2 1927   0.994   0.129   0.386 -0.9080 -1.2180 -1.2726
  482SOL     MW 1928   1.011   0.049   0.416  0.0287 -0.1633 -0.0522
  483SOL     OW 1929   0.346   2.846   0.577 -0.1974 -0.1277 -0.8059
  483SOL    HW1 1930   0.296   2.885   0.503  4.2817 -2.0496 -0.6102
  483SOL    HW2 1931   0.311   2.892   0.651  0.1437  2.4684 -1.3515
  483SOL     MW 1932   0.335   2.857   0.577  0.4386 -0.0387 -0.8520
  484SOL     OW 1933   1.670   1.869   1.445 -0.0262 -0.3770  0.6011
  484SOL    HW1 1934   1.713   1.947   1.412  1.9951  2.7304  0.7928
  484SOL    HW2 1935   1.680   1.884   1.537  1.2210  0.5455 -0.0457
  484SOL     MW 1936   1.677   1.881   1.453  0.4050  0.1547  0.5410
  485SOL     OW 1937   0.567   2.315   0.344 -0.4089  0.2836  0.3898
  485SOL    HW1 1938   0.577   2.342   0.436  1.4062 -2.9320  0.4037
  485SOL    HW2 1939   0.522   2.386   0.299  4.4488 -3.4152 -2.2684
  485SOL     MW 1940   0.563   2.328   0.351  0.4715 -0.6287  0.0409
  486SOL     OW 1941   0.119   2.454   1.440 -0.0840  0.0242  0.1044
  486SOL    HW1 1942   0.149   2.544   1.404  2.1946 -1.0421  0.4002
  486SOL    HW2 1943   0.102   2.476   1.531 -0.5900 -0.3924 -3.3675
  486SOL     MW 1944   0.121   2.469   1.447  0.1499 -0.1714 -0.3146
  487SOL     OW 1945   1.285   1.604   0.964 -0.0753  0.3151 -0.1401
  487SOL    HW1 1946   1.242   1.689   0.957  1.4171 -0.7665 -0.9927
  487SOL    HW2 1947   1.372   1.633   0.990  0.1240  0.7367  0.8012
  487SOL     MW 1948   1.291   1.619   0.966  0.1479  0.2280 -0.1284
  488SOL     OW 1949   1.511   1.843   0.607  0.2886  0.3864 -0.5534
  488SOL    HW1 1950   1.488   1.932   0.577 -0.2277  1.5686  0.2671
  488SOL    HW2 1951   1.465   1.787   0.540  0.4249 -1.1576  1.5120
  488SOL     MW 1952   1.502   1.848   0.594  0.2385  0.3387 -0.1726
  489SOL     OW 1953   0.720   0.776   0.522  0.4291  0.2284 -0.4837
  489SOL    HW1 1954   0.738   0.684   0.516  2.9581 -0.6673  1.3830
  489SOL    HW2 1955   0.705   0.784   0.616 -0.0040  1.6418 -2.0018
  489SOL     MW 1956   0.721   0.765   0.533  0.7057  0.2967 -0.4377
  490SOL     OW 1957   1.401   2.073   0.432  0.1072 -0.4249 -0.1421
  490SOL    HW1 1958   1.471   2.134   0.406 -0.0609  0.6229 -0.0832
  490SOL    HW2 1959   1.320   2.116   0.399  0.5070  0.3470  0.6431
  490SOL     MW 1960   1.400   2.087   0.424  0.1378 -0.1848 -0.0307
  491SOL     OW 1961   1.275   2.977   0.414 -0.2442 -0.1233  0.1259
  491SOL    HW1 1962   1.301   2.998   0.507  1.2917  0.1481  0.8468
  491SOL    HW2 1963   1.204   3.031   0.404  0.5962 -0.5444  0.4720
  491SOL     MW 1964   1.269   2.987   0.425  0.0693 -0.1430  0.2667
  492SOL     OW 1965   1.433   2.152   0.684  0.3205  0.5994 -0.5961
  492SOL    HW1 1966   1.413   2.123   0.594 -1.9665  1.4156 -0.3217
  492SOL    HW2 1967   1.392   2.092   0.749 -0.3477  0.4585  1.1153
  492SOL     MW 1968   1.425   2.140   0.681 -0.0694  0.6885 -0.3341
  493SOL     OW 1969   0.201   2.990   0.382  0.4503  0.1198  0.8967
  493SOL    HW1 1970   0.117   2.980   0.430 -0.5183  0.1933  1.0358
  493SOL    HW2 1971   0.175   3.033   0.302  1.2872  0.5744 -0.5984
  493SOL     MW 1972   0.186   2.994   0.378  0.4329  0.1895  0.7178
  494SOL     OW 1973   0.391   2.403   1.808  0.0522  0.0608  0.3520
  494SOL    HW1 1974   0.410   2.309   1.839  0.6322 -0.4949  0.0210
  494SOL    HW2 1975   0.435   2.399   1.721  1.4265 -0.3712 -1.0614
  494SOL     MW 1976   0.399   2.390   1.801  0.3100 -0.0695  0.1218
  495SOL     OW 1977   2.901   1.659   2.739  0.3376  0.5980 -0.8700
  495SOL    HW1 1978   2.875   1.741   2.790  2.3621 -0.9511  2.4091
  495SOL    HW2 1979   2.899   1.587   2.802 -0.3217 -0.2480 -0.1279
  495SOL     MW 1980   2.897   1.660   2.754  0.5177  0.2820 -0.3394
  496SOL     OW 1981   2.754   2.267   2.718 -0.1171 -0.4907 -0.3279
  496SOL    HW1 1982   2.790   2.187   2.755 -2.0060 -0.2498  0.1011
  496SOL    HW2 1983   2.828   2.329   2.719  1.0133  1.5822  0.0264
  496SOL     MW 1984   2.769   2.265   2.723 -0.2172 -0.1854 -0.2246
  497SOL     OW 1985   1.495   2.328   2.550 -0.0425 -0.2864  0.1712
  497SOL    HW1 1986   1.499   2.271   2.463 -1.2303 -1.0323 -0.6924
  497SOL    HW2 1987   1.459   2.266   2.616 -1.6596 -1.8080 -1.9574
  497SOL     MW 1988   1.491   2.312   2.547 -0.4125 -0.5856 -0.2236
  498SOL     OW 1989   1.495   2.797   2.293  0.5944  0.2776 -0.1419
  498SOL    HW1 1990   1.489   2.709   2.252  0.9894  1.4839 -2.7323
  498SOL    HW2 1991   1.566   2.786   2.350  0.2660  0.3317  0.4668
  498SOL     MW 1992   1.504   2.784   2.295  0.6032  0.4439 -0.4033
  499SOL     OW 1993   0.941   0.139   0.088 -0.0362  0.0617 -0.5847
  499SOL    HW1 1994   0.856   0.182   0.115  0.3278  0.9500  1.2571
  499SOL    HW2 1995   0.925   0.044   0.078 -3.6313  0.4563  0.0221
  499SOL     MW 1996   0.928   0.132   0.090 -0.4625  0.2310 -0.2617
  500SOL     OW 1997   1.028   2.510   2.748 -0.1263  0.0055  0.0903
  500SOL    HW1 1998   1.067   2.504   2.834 -1.0125 -0.9468 -0.2501
  500SOL    HW2 1999   0.968   2.591   2.752  0.8271  1.3000 -1.4918
  500SOL     MW 2000   1.025   2.520   2.760 -0.1175  0.0507 -0.1634
  501SOL     OW 2001   1.730   2.224   0.014 -0.3650 -0.0500  0.2528
  501SOL    HW1 2002   1.717   2.321   0.023 -1.2516  0.4166  1.2415
  501SOL    HW2 2003   1.824   2.202   0.011  0.2537  1.8758 -2.5159
  501SOL     MW 2004   1.741   2.234   0.015 -0.4004  0.2657  0.0179
  502SOL     OW 2005   0.225   2.698   2.993 -0.8233 -0.0433 -0.4454
  502SOL    HW1 2006   0.145   2.652   2.968  0.4366  0.4232  1.7209
  502SOL    HW2 2007   0.241   2.762   2.925 -2.4563  0.1027 -0.9395
  502SOL     MW 2008   0.216   2.700   2.981 -0.8725  0.0375 -0.2247
  503SOL     OW 2009   1.128   2.595   2.124  0.1961  0.0641 -0.0170
  503SOL    HW1 2010   1.202   2.600   2.064 -1.6479  0.6290  2.0970
  503SOL    HW2 2011   1.060   2.643   2.080 -1.7919 -2.6981  0.0575
  503SOL     MW 2012   1.129   2.602   2.110 -0.3095 -0.2258  0.2718
  504SOL     OW 2013   0.087   2.615   2.131  0.7686 -0.6188 -0.4057
  504SOL    HW1 2014   0.159   2.604   2.071  0.7570  1.2475 -2.7167
  504SOL    HW2 2015   0.099   2.536   2.183 -0.8490  1.8989 -0.2355
  504SOL     MW 2016   0.098   2.603   2.130  0.5536 -0.0404 -0.6881
  505SOL     OW 2017   1.609   2.711   2.737  0.1758 -1.0195 -0.2026
  505SOL    HW1 2018   1.636   2.746   2.652 -2.3524  0.7426 -4.5540
  505SOL    HW2 2019   1.534   2.767   2.762  0.3353 -0.3096  0.7636
  505SOL     MW 2020   1.603   2.723   2.729 -0.1367 -0.6933 -0.6493
  506SOL     OW 2021   1.589   0.040   2.816  0.1585 -0.6210  0.4439
  506SOL    HW1 2022   1.599  -0.029   2.887  1.6074  1.0175 -1.5123
  506SOL    HW2 2023   1.642   0.004   2.749  0.1205 -0.1541 -1.7083
  506SOL     MW 2024   1.597   0.026   2.817  0.3446 -0.3432 -0.0982
  507SOL     OW 2025   0.865   2.704   2.847  0.1917 -0.1552 -0.2767
  507SOL    HW1 2026   0.861   2.790   2.802 -2.1768 -0.3952 -1.0750
  507SOL    HW2 2027   0.782   2.655   2.830 -1.0294 -2.2016  2.4423
  507SOL     MW 2028   0.854   2.709   2.839 -0.2819 -0.4568 -0.0233
  508SOL     OW 2029   1.150   2.075   2.589 -0.7029 -0.1544  0.0199
  508SOL    HW1 2030   1.232   2.079   2.636  1.8448 -1.8024  0.1458
  508SOL    HW2 2031   1.084   2.101   2.651 -0.9078  0.0252 -0.5750
  508SOL     MW 2032   1.152   2.079   2.604 -0.3938 -0.3481 -0.0420
  509SOL     OW 2033   0.634   2.570   2.799 -0.1239 -0.0050  0.7153
  509SOL    HW1 2034   0.632   2.509   2.722 -5.0345  1.6472 -0.4616
  509SOL    HW2 2035   0.569   2.640   2.775  0.7832 -1.2749  0.5959
  509SOL     MW 2036   0.625   2.571   2.786 -0.6521  0.0455  0.5443
  510SOL     OW 2037   1.529   2.571   1.650 -0.2284  0.1145  0.3557
  510SOL    HW1 2038   1.532   2.663   1.629  0.9224  1.6156  1.8329
  510SOL    HW2 2039   1.499   2.563   1.743  0.7371  1.6124  1.0080
  510SOL     MW 2040   1.525   2.582   1.659  0.0509  0.5102  0.6367
  511SOL     OW 2041   0.352   2.510   2.536 -0.3670  0.4896 -0.8207
  511SOL    HW1 2042   0.436   2.463   2.551 -0.5823 -1.8797  0.5969
  511SOL    HW2 2043   0.353   2.534   2.443  2.2565 -1.4276  0.7192
  511SOL     MW 2044   0.363   2.507   2.526 -0.0493 -0.0760 -0.4305
  512SOL     OW 2045   1.018   2.010   2.852  0.3477  0.2614  0.0460
  512SOL    HW1 2046   0.962   2.056   2.917 -4.1222  0.7141 -3.0531
  512SOL    HW2 2047   1.019   1.927   2.898  1.9499  1.1676  1.2522
  512SOL     MW 2048   1.011   2.005   2.867 -0.0307  0.4407 -0.2038
  513SOL     OW 2049   1.567   2.545   2.164  0.6039  0.0115 -0.4144
  513SOL    HW1 2050   1.653   2.560   2.128 -3.1611 -2.1023  1.1806
  513SOL    HW2 2051   1.568   2.508   2.247 -0.1422 -0.5961 -2.0860
  513SOL     MW 2052   1.578   2.542   2.170  0.0087 -0.3475 -0.4245
  514SOL     OW 2053   0.155   2.347   2.644  0.3740  0.3969  0.3362
  514SOL    HW1 2054   0.210   2.429   2.634  2.2298 -1.9178  0.6537
  514SOL    HW2 2055   0.202   2.306   2.718  0.8876  0.3931 -2.8573
  514SOL     MW 2056   0.168   2.353   2.652  0.6866  0.0910 -0.0433
  515SOL     OW 2057   1.095   1.923   1.817  0.4501  0.1180  0.5837
  515SOL    HW1 2058   1.087   2.021   1.784  0.8389  1.8153  1.5135
  515SOL    HW2 2059   1.151   1.929   1.890 -0.0591  0.1358 -2.4859
  515SOL     MW 2060   1.101   1.936   1.823  0.4342  0.3443  0.3014
  516SOL     OW 2061   1.344   2.590   2.939  0.3253 -0.6238  0.1110
  516SOL    HW1 2062   1.353   2.580   2.843  0.7005  0.3565  0.1061
  516SOL    HW2 2063   1.299   2.512   2.967 -3.1325 -0.6926  2.2985
  516SOL     MW 2064   1.339   2.578   2.930 -0.0814 -0.5036  0.3989
  517SOL     OW 2065   0.575   2.372   2.286  0.7645  0.1123 -0.0596
  517SOL    HW1 2066   0.530   2.451   2.263  1.7307 -1.1319 -0.4732
  517SOL    HW2 2067   0.528   2.306   2.234 -1.3149 -2.9248  4.1296
  517SOL     MW 2068   0.563   2.374   2.276  0.6176 -0.4526  0.4386
  518SOL     OW 2069   1.809   0.063   3.069 -0.2244 -0.4170  0.2712
  518SOL    HW1 2070   1.811   0.116   3.148 -1.7711  1.2007  3.3030
  518SOL    HW2 2071   1.726   0.020   3.081 -0.3247 -1.3702  1.0655
  518SOL     MW 2072   1.798   0.065   3.081 -0.4417 -0.3293  0.7760
  519SOL     OW 2073   0.719   2.479   1.794  0.9502  0.6311 -0.8205
  519SOL    HW1 2074   0.724   2.386   1.790  1.2644  1.4889 -0.2485
  519SOL    HW2 2075   0.624   2.498   1.800  1.2865  0.7377  0.1984
  519SOL     MW 2076   0.707   2.469   1.794  1.0360  0.7584 -0.6106
  520SOL     OW 2077   1.246   2.145   2.945 -0.0201  0.0134  0.2567
  520SOL    HW1 2078   1.178   2.097   2.897  1.7554  2.1478 -1.6956
  520SOL    HW2 2079   1.289   2.094   3.012 -0.9865  2.5352 -0.5554
  520SOL     MW 2080   1.242   2.132   2.947  0.0867  0.6278 -0.1080
  521SOL     OW 2081   1.800   2.065   2.231 -0.0907  0.0861 -0.1856
  521SOL    HW1 2082   1.801   2.080   2.135 -0.7867 -2.6015 -0.9932
  521SOL    HW2 2083   1.793   1.972   2.250 -0.0214  0.3118  1.9028
  521SOL     MW 2084   1.799   2.055   2.221 -0.1734 -0.2387 -0.0166
  522SOL     OW 2085   2.887   2.540   2.235  0.0654 -0.2145  0.0369
  522SOL    HW1 2086   2.975   2.499   2.226 -2.1909  2.4131 -0.8917
  522SOL    HW2 2087   2.890   2.625   2.285 -0.9133 -0.9800 -0.9741
  522SOL     MW 2088   2.899   2.546   2.240 -0.3614  0.0312 -0.2190
  523SOL     OW 2089   0.819   1.506   2.144 -0.0133  0.7065  0.0382
  523SOL    HW1 2090   0.786   1.539   2.063  1.6532  1.1777 -0.9966
  523SOL    HW2 2091   0.908   1.486   2.122 -1.6965 -1.9282 -0.3210
  523SOL     MW 2092   0.826   1.507   2.130 -0.0155  0.4210 -0.1457
  524SOL     OW 2093   0.613   2.345   2.993 -0.7955 -0.5332 -0.1826
  524SOL    HW1 2094   0.612   2.416   2.929  1.3762  1.1801 -0.4966
  524SOL    HW2 2095   0.692   2.297   2.969  2.7454 -0.0175 -0.9257
  524SOL     MW 2096   0.623   2.348   2.981 -0.0418 -0.2391 -0.3221
  525SOL     OW 2097   0.456   2.214   2.118  0.4657  0.3612 -0.2551
  525SOL    HW1 2098   0.415   2.139   2.154 -0.0561  3.2467  4.1683
  525SOL    HW2 2099   0.542   2.187   2.073  1.2215  0.1300 -3.2203
  525SOL     MW 2100   0.462   2.200   2.117  0.4966  0.7114 -0.0627
  526SOL     OW 2101   0.685   2.156   2.008  0.4253  0.4546 -0.6024
  526SOL    HW1 2102   0.699   2.142   1.918 -0.6372  1.5697  3.8026
  526SOL    HW2 2103   0.771   2.172   2.039 -0.1020  1.7178  0.7548
  526SOL     MW 2104   0.698   2.157   2.001  0.2155  0.7684  0.1579
  527SOL     OW 2105   1.279   1.903   2.026  0.1322  0.3980  0.4872
  527SOL    HW1 2106   1.229   1.847   2.083 -2.5231 -1.2868 -1.9674
  527SOL    HW2 2107   1.313   1.844   1.958 -0.9464  1.5114 -0.2479
  527SOL     MW 2108   1.277   1.888   2.025 -0.3605  0.3226  0.0663
  528SOL     OW 2109   0.642   2.887   2.965  0.5356  0.1282 -0.3213
  528SOL    HW1 2110   0.621   2.976   2.999 -0.4616 -1.8050 -1.7436
  528SOL    HW2 2111   0.613   2.885   2.873  0.2134  4.7131  1.8447
  528SOL     MW 2112   0.635   2.898   2.957  0.3615  0.4781 -0.2232
  529SOL     OW 2113   1.085   2.191   1.824 -1.0381 -0.1648  0.0149
  529SOL    HW1 2114   1.107   2.208   1.916  0.5525 -0.8121 -1.6421
  529SOL    HW2 2115   1.107   2.281   1.790  1.6610  0.6364  1.6729
  529SOL     MW 2116   1.091   2.205   1.831 -0.4721 -0.1445  0.0150
  530SOL     OW 2117   1.142   2.384   2.988  0.0694  0.2826  0.5195
  530SOL    HW1 2118   1.077   2.385   3.058  2.3050  0.2509  1.1507
  530SOL    HW2 2119   1.170   2.297   2.970  1.5312  1.2662  1.1268
  530SOL     MW 2120   1.137   2.373   2.995  0.5572  0.4082  0.6829
  531SOL     OW 2121   0.933   1.811   2.641  0.2838  0.6148  0.3416
  531SOL    HW1 2122   0.949   1.877   2.706  1.2835 -1.6106 -0.4175
  531SOL    HW2 2123   0.864   1.751   2.674  3.2855  0.6672 -0.9417
  531SOL     MW 2124   0.926   1.812   2.654  0.8118  0.3281  0.0721
  532SOL     OW 2125   1.660   0.295   2.855  0.3383  0.1263 -0.1235
  532SOL    HW1 2126   1.634   0.207   2.847 -0.9182 -0.0679 -0.0707
  532SOL    HW2 2127   1.745   0.289   2.895  0.4032  1.4389  2.0158
  532SOL     MW 2128   1.668   0.283   2.860  0.1811  0.2738  0.1657
  533SOL     OW 2129   1.789   2.722   2.936 -0.0260 -0.6471  0.3739
  533SOL    HW1 2130   1.763   2.636   2.976 -1.9576  1.5626 -0.1095
  533SOL    HW2 2131   1.729   2.724   2.857 -0.3767  0.6481 -0.6374
  533SOL     MW 2132   1.778   2.711   2.931 -0.3271 -0.1847  0.1767
  534SOL     OW 2133   1.731   2.469   2.481  0.0899  0.4343 -0.4339
  534SOL    HW1 2134   1.657   2.417   2.510 -0.6001 -0.9334 -1.4993
  534SOL    HW2 2135   1.796   2.460   2.554 -0.9385  2.0495  1.5489
  534SOL     MW 2136   1.730   2.461   2.494 -0.1368  0.4669 -0.3128
  535SOL     OW 2137   1.814   2.352   1.905 -0.2686 -0.6894 -0.6230
  535SOL    HW1 2138   1.780   2.360   1.814  2.0684  1.4168  1.8755
  535SOL    HW2 2139   1.905   2.386   1.908 -1.4551  0.3382  0.6336
  535SOL     MW 2140   1.821   2.357   1.893 -0.1168 -0.2759 -0.1276
  536SOL     OW 2141   0.454   1.809   2.004 -0.2068 -0.3169  0.1103
  536SOL    HW1 2142   0.439   1.869   1.928  0.1581  1.6371  0.0958
  536SOL    HW2 2143   0.538   1.835   2.033 -1.4920  2.9207 -2.7904
  536SOL     MW 2144   0.463   1.821   1.998 -0.3282  0.3681 -0.2744
  537SOL     OW 2145   1.039   0.188   2.904  0.9272  0.2793  0.2598
  537SOL    HW1 2146   0.966   0.184   2.974 -1.4622  0.1224  0.0614
  537SOL    HW2 2147   1.074   0.273   2.901 -1.0068  0.6000  1.3503
  537SOL     MW 2148   1.034   0.199   2.913  0.3568  0.3009  0.3775
  538SOL     OW 2149   1.306   0.057   3.003 -0.1733  0.2144 -0.5480
  538SOL    HW1 2150   1.218   0.095   2.971 -2.0475  1.5975 -0.7169
  538SOL    HW2 2151   1.370   0.127   3.005 -0.1666 -1.8506 -1.0013
  538SOL     MW 2152   1.303   0.071   2.999 -0.4197  0.1244 -0.6301
  539SOL     OW 2153   0.736   2.709   2.519  0.4165 -0.1848 -0.0912
  539SOL    HW1 2154   0.788   2.784   2.547  0.6073 -0.5813  0.6301
  539SOL    HW2 2155   0.781   2.626   2.536  1.6895  3.1074  2.0413
  539SOL     MW 2156   0.749   2.708   2.525  0.6096  0.1973  0.2853
  540SOL     OW 2157   0.333   2.264   2.841 -0.5555  0.0297  0.3799
  540SOL    HW1 2158   0.406   2.311   2.887 -0.8381  2.5428  1.4859
  540SOL    HW2 2159   0.280   2.227   2.909  0.7740  0.7740 -0.7203
  540SOL     MW 2160   0.336   2.265   2.856 -0.4174  0.4595  0.3806
  541SOL     OW 2161   0.186   2.861   2.236 -0.2962 -0.1127 -0.4404
  541SOL    HW1 2162   0.179   2.793   2.171 -0.5219 -0.5771  0.6185
  541SOL    HW2 2163   0.201   2.809   2.316 -0.3672 -0.7497 -1.6527
  541SOL     MW 2164   0.187   2.845   2.238 -0.3354 -0.2580 -0.4606
  542SOL     OW 2165   0.903   2.278   2.699  0.2780 -0.3810 -0.0524
  542SOL    HW1 2166   0.906   2.222   2.777  0.2788  0.2610 -4.5549
  542SOL    HW2 2167   0.941   2.365   2.729 -0.0771 -0.0637  0.7815
  542SOL     MW 2168   0.909   2.282   2.713  0.2313 -0.2544 -0.5364
  543SOL     OW 2169   1.402   2.557   2.669 -0.3667 -0.1874 -0.5639
  543SOL    HW1 2170   1.424   2.470   2.626  2.5524 -1.7090  0.3424
  543SOL    HW2 2171   1.490   2.601   2.683  0.6268 -2.2680  1.1916
  543SOL     MW 2172   1.416   2.552   2.665  0.1496 -0.6627 -0.2127
  544SOL     OW 2173   0.670   0.168   2.679 -0.5017  0.2886  0.6807
  544SOL    HW1 2174   0.579   0.177   2.654  3.2965  2.7778  2.8261
  544SOL    HW2 2175   0.699   0.105   2.617 -2.4518  1.0174  1.8804
  544SOL     MW 2176   0.662   0.161   2.667 -0.2579  0.7132  1.1220
  545SOL     OW 2177   1.536   2.155   2.338  0.2553 -0.0999 -0.0743
  545SOL    HW1 2178   1.466   2.114   2.289 -2.8670  0.9888 -0.0187
  545SOL    HW2 2179   1.628   2.141   2.299 -0.8151  3.0525  3.3984
  545SOL     MW 2180   1.539   2.148   2.327 -0.2979  0.4597  0.3912
  546SOL     OW 2181   3.004   1.982   0.085  0.3253  0.3475 -0.5243
  546SOL    HW1 2182   2.994   2.055   0.023  1.2377 -0.9284  0.9434
  546SOL    HW2 2183   3.093   1.960   0.095  1.7113  0.9974  1.0166
  546SOL     MW 2184   3.015   1.989   0.078  0.6285  0.2649 -0.1274
  547SOL     OW 2185   0.145   2.992   0.079  0.3129  0.8326  0.0740
  547SOL    HW1 2186   0.197   3.032   0.008  1.0606  1.6757 -0.0207
  547SOL    HW2 2187   0.196   2.914   0.105 -0.3974  0.4705  2.9968
  547SOL     MW 2188   0.158   2.987   0.073  0.3179  0.8961  0.4472
  548SOL     OW 2189   0.299   2.482   0.269 -0.1089 -0.2755  0.0407
  548SOL    HW1 2190   0.286   2.542   0.193  1.5739  1.6485 -0.5064
  548SOL    HW2 2191   0.255   2.400   0.250 -2.6389 -1.3958 -0.2980
  548SOL     MW 2192   0.292   2.479   0.256 -0.2207 -0.1695 -0.0762
  549SOL     OW 2193   0.721   1.892   2.112  0.1421  0.7257  0.5391
  549SOL    HW1 2194   0.732   1.978   2.093  0.6765 -1.1897  1.0651
  549SOL    HW2 2195   0.761   1.882   2.197 -0.6112 -0.0990  0.6095
  549SOL     MW 2196   0.728   1.902   2.120  0.1132  0.3642  0.6178
  550SOL     OW 2197   1.815   1.757   2.574 -0.0492  0.0501  0.4424
  550SOL    HW1 2198   1.841   1.774   2.485 -1.7989  0.2102 -0.2500
  550SOL    HW2 2199   1.834   1.838   2.615  1.1744 -0.6021 -0.6203
  550SOL     MW 2200   1.821   1.770   2.568 -0.1186 -0.0149  0.2108
  551SOL     OW 2201   0.841   2.352   0.204 -0.4217  0.1462 -0.3471
  551SOL    HW1 2202   0.928   2.384   0.195 -0.3480  0.1227 -0.4782
  551SOL    HW2 2203   0.848   2.263   0.233  1.6659  0.2788  3.1554
  551SOL     MW 2204   0.854   2.345   0.207 -0.1365  0.1606  0.0977
  552SOL     OW 2205   1.811   1.797   2.301  0.0206  0.7512 -0.1758
  552SOL    HW1 2206   1.723   1.773   2.297 -0.1151  0.0913 -1.0859
  552SOL    HW2 2207   1.852   1.720   2.241  0.9643  1.8489  0.2691
  552SOL     MW 2208   1.805   1.784   2.293  0.1272  0.8089 -0.2372
  553SOL     OW 2209   1.219   2.322   1.539  0.2206  0.3366 -0.0162
  553SOL    HW1 2210   1.264   2.239   1.538 -2.3391 -2.5373 -0.6339
  553SOL    HW2 2211   1.284   2.384   1.507  0.3289  1.1945  1.0794
  553SOL     MW 2212   1.234   2.319   1.535 -0.1028  0.0706  0.0468
  554SOL     OW 2213   0.568   2.834   2.696 -0.1308  0.0598 -0.3720
  554SOL    HW1 2214   0.538   2.911   2.650  2.0507 -2.1110 -1.5463
  554SOL    HW2 2215   0.622   2.790   2.636 -2.6333  3.6311 -1.2048
  554SOL     MW 2216   0.571   2.839   2.682 -0.1731  0.2446 -0.6368
  555SOL     OW 2217   0.593   2.393   2.606 -0.5881  0.1648 -0.3974
  555SOL    HW1 2218   0.588   2.303   2.644 -0.3289  0.8873 -1.6195
  555SOL    HW2 2219   0.620   2.384   2.518  1.5533  1.4332 -0.0074
  555SOL     MW 2220   0.596   2.380   2.599 -0.2714  0.4275 -0.5072
  556SOL     OW 2221   1.008   1.807   0.126 -0.6213  0.1352 -0.2777
  556SOL    HW1 2222   1.010   1.771   0.036 -1.8434 -0.7768  1.9898
  556SOL    HW2 2223   1.097   1.812   0.157  1.0523  1.5519 -1.3031
  556SOL     MW 2224   1.020   1.803   0.118 -0.5617  0.2018 -0.1138
  557SOL     OW 2225   0.922   2.683   0.445 -0.5644 -0.3206  0.0162
  557SOL    HW1 2226   0.987   2.684   0.372  0.3331 -3.1910 -0.9865
  557SOL    HW2 2227   0.901   2.782   0.443 -2.4906  0.9132  0.3093
  557SOL     MW 2228   0.928   2.696   0.435 -0.7001 -0.5365 -0.0774
  558SOL     OW 2229   0.263   2.132   0.014  0.2445  0.8455  0.0645
  558SOL    HW1 2230   0.225   2.052   0.058 -1.3940 -0.0477  3.2313
  558SOL    HW2 2231   0.201   2.195   0.049 -3.2815  0.1461  2.1797
  558SOL     MW 2232   0.250   2.130   0.025 -0.4369  0.6354  0.7614
  559SOL     OW 2233   1.183   2.319   2.059  0.0259  0.7364  0.7500
  559SOL    HW1 2234   1.124   2.394   2.062  2.1229 -1.8277 -1.7459
  559SOL    HW2 2235   1.176   2.273   2.144 -0.0675 -0.5789  1.8108
  559SOL     MW 2236   1.174   2.323   2.071  0.2903  0.2245  0.5606
  560SOL     OW 2237   1.993   2.794   0.023  0.3695 -0.1150 -0.5439
  560SOL    HW1 2238   2.037   2.858  -0.032  0.4650 -1.2590  0.8972
  560SOL    HW2 2239   1.927   2.761  -0.034  0.1820  0.1789  1.1249
  560SOL     MW 2240   1.990   2.798   0.008  0.3574 -0.2272 -0.1336
  561SOL     OW 2241   0.458   2.069   0.207 -0.3322 -0.2462  0.1643
  561SOL    HW1 2242   0.422   2.128   0.134 -1.9291  1.9442 -4.4773
  561SOL    HW2 2243   0.515   2.116   0.262 -1.6689  0.4501  1.0265
  561SOL     MW 2244   0.460   2.083   0.205 -0.7192  0.1346 -0.3344
  562SOL     OW 2245   0.907   2.169   2.171  0.0470 -0.0944 -0.2731
  562SOL    HW1 2246   0.912   2.257   2.197 -0.7304 -1.4967 -0.5147
  562SOL    HW2 2247   0.990   2.146   2.214 -1.3833  2.1168  1.1509
  562SOL     MW 2248   0.919   2.178   2.180 -0.2443  0.0123 -0.1171
  563SOL     OW 2249   1.199   0.245   0.558  0.3515  0.0306 -0.0157
  563SOL    HW1 2250   1.143   0.255   0.480 -0.5796 -1.5045 -1.2760
  563SOL    HW2 2251   1.240   0.155   0.551  1.2124 -1.9644 -1.4560
  563SOL     MW 2252   1.197   0.235   0.547  0.3422 -0.4351 -0.3720
  564SOL     OW 2253   1.052   2.578   2.398  0.6251 -0.2656  0.0771
  564SOL    HW1 2254   1.088   2.594   2.311 -2.3398  0.1008 -1.9092
  564SOL    HW2 2255   1.102   2.627   2.462 -0.0878 -1.1686  2.8532
  564SOL     MW 2256   1.063   2.586   2.395  0.1398 -0.3364  0.1813
  565SOL     OW 2257   2.914   2.653   2.591 -0.5064  0.5044  0.1107
  565SOL    HW1 2258   2.975   2.720   2.566 -1.4427  0.0561  0.1891
  565SOL    HW2 2259   2.840   2.680   2.537  3.4708 -2.8236  2.3795
  565SOL     MW 2260   2.912   2.666   2.580 -0.1052  0.0062  0.4204
  566SOL     OW 2261   2.268   1.930   2.341 -0.1582 -0.3430  0.2121
  566SOL    HW1 2262   2.287   1.939   2.245 -0.9556 -0.9306 -0.7344
  566SOL    HW2 2263   2.305   2.011   2.378  1.2270 -0.2541 -0.8498
  566SOL     MW 2264   2.276   1.942   2.333 -0.0807 -0.4088 -0.0529
  567SOL     OW 2265   1.193   2.867   0.078 -0.2983 -0.4500 -0.3598
  567SOL    HW1 2266   1.206   2.957   0.069 -0.0056  0.1476 -0.9283
  567SOL    HW2 2267   1.176   2.830  -0.013  0.1373 -0.3504 -1.3561
  567SOL     MW 2268   1.192   2.874   0.065 -0.2022 -0.3580 -0.5662
  568SOL     OW 2269   1.655   2.122   2.846 -0.0915 -0.2492 -0.5216
  568SOL    HW1 2270   1.697   2.161   2.925  2.0021 -2.1329 -0.2252
  568SOL    HW2 2271   1.724   2.084   2.798  1.4129  3.5722  2.3663
  568SOL     MW 2272   1.669   2.122   2.850  0.3832  0.0065 -0.1014
  569SOL     OW 2273   0.193   2.184   2.430  0.8498 -0.3313 -0.2968
  569SOL    HW1 2274   0.126   2.220   2.373  2.3983  0.8353  0.6543
  569SOL    HW2 2275   0.190   2.252   2.505 -0.2335 -1.6552 -0.1746
  569SOL     MW 2276   0.184   2.198   2.433  0.9111 -0.3521 -0.1552
  570SOL     OW 2277   1.445   0.421   0.502  0.3084 -0.5712  0.4763
  570SOL    HW1 2278   1.381   0.364   0.544 -0.5416  0.2116 -2.4436
  570SOL    HW2 2279   1.479   0.488   0.557  0.8296  3.3141 -1.8777
  570SOL     MW 2280   1.441   0.422   0.515  0.2650  0.0447 -0.2195
  571SOL     OW 2281   1.493   2.391   1.916 -0.0210  0.2935  0.0629
  571SOL    HW1 2282   1.550   2.424   1.983  1.5613 -1.7826 -0.6794
  571SOL    HW2 2283   1.438   2.331   1.963  0.8186  0.6615  0.1067
  571SOL     MW 2284   1.494   2.388   1.931  0.2986  0.0681 -0.0293
  572SOL     OW 2285   0.935   2.630   0.013  0.1497  0.1916  0.9516
  572SOL    HW1 2286   0.909   2.659  -0.075  2.1205  1.5735  1.9840
  572SOL    HW2 2287   0.852   2.600   0.057 -1.8781  2.0161  1.9439
  572SOL     MW 2288   0.921   2.630   0.007  0.1422  0.6146  1.2187
  573SOL     OW 2289   1.122   2.422   0.182  0.3839 -0.3267 -0.2184
  573SOL    HW1 2290   1.206   2.404   0.148 -1.9060 -0.4146  2.6472
  573SOL    HW2 2291   1.128   2.513   0.205 -1.6224  2.2346 -1.2820
  573SOL     MW 2292   1.133   2.432   0.180 -0.1829 -0.0004  0.0194
  574SOL     OW 2293   1.136   2.692   0.261  0.0547 -0.0680  0.4931
  574SOL    HW1 2294   1.220   2.682   0.297 -1.3807 -0.6304 -1.0030
  574SOL    HW2 2295   1.160   2.752   0.184 -2.6312  1.0473  1.4482
  574SOL     MW 2296   1.150   2.698   0.256 -0.4891  0.0049  0.4217
  575SOL     OW 2297   3.050   2.286   1.841 -0.0948 -0.0381  0.0230
  575SOL    HW1 2298   3.043   2.211   1.777  0.3447  0.3837 -2.2865
  575SOL    HW2 2299   3.100   2.353   1.794  0.7423  0.3910  0.1737
  575SOL     MW 2300   3.055   2.285   1.826  0.0736  0.0742 -0.2618
  576SOL     OW 2301   2.811   1.817   2.076 -0.0348 -0.1146 -0.4412
  576SOL    HW1 2302   2.812   1.897   2.030  2.6547 -0.4543  0.7617
  576SOL    HW2 2303   2.734   1.780   2.036  0.1241  0.1469  0.1369
  576SOL     MW 2304   2.801   1.823   2.065  0.3410 -0.1249 -0.2062
  577SOL     OW 2305   2.102   0.280   0.072 -0.2113  0.3443  0.1076
  577SOL    HW1 2306   2.043   0.314   0.002 -0.0992 -0.3459 -3.4145
  577SOL    HW2 2307   2.046   0.237   0.128  0.6092  3.1576 -0.8674
  577SOL     MW 2308   2.087   0.279   0.070 -0.0883  0.6244 -0.4858
  578SOL     OW 2309   2.029   2.060   2.399  0.2287 -0.2578  0.4231
  578SOL    HW1 2310   1.968   2.060   2.328 -0.6041  1.7007  2.7232
  578SOL    HW2 2311   2.111   2.013   2.368  2.1016  0.3108  2.0720
  578SOL     MW 2312   2.031   2.054   2.386  0.3659  0.0756  0.9441
  579SOL     OW 2313   0.852   2.412   2.467  0.1971  0.1865 -0.7298
  579SOL    HW1 2314   0.872   2.343   2.534  1.9271 -0.4922 -0.2354
  579SOL    HW2 2315   0.940   2.463   2.467 -0.6506 -0.1357 -0.4531
  579SOL     MW 2316   0.866   2.409   2.476  0.3135  0.0544 -0.6281
  580SOL     OW 2317   0.890   2.979   0.022  0.0895  0.2398 -0.3675
  580SOL    HW1 2318   0.936   2.903   0.037 -1.3550  3.7736  0.5418
  580SOL    HW2 2319   0.837   2.958  -0.057 -3.2300  0.6626 -0.9712
  580SOL     MW 2320   0.889   2.966   0.013 -0.5391  0.7619 -0.3272
  581SOL     OW 2321   1.063   2.492   1.704  0.1689 -0.6520 -0.1097
  581SOL    HW1 2322   1.114   2.570   1.716 -1.8681  0.6666 -1.8182
  581SOL    HW2 2323   1.109   2.433   1.648 -0.0789 -4.0352  2.6787
  581SOL     MW 2324   1.076   2.495   1.698 -0.1326 -0.9244  0.0328
  582SOL     OW 2325   0.012   2.843   2.502  0.5658  0.2183 -0.6618
  582SOL    HW1 2326  -0.021   2.885   2.578 -0.7958 -2.0411  0.5354
  582SOL    HW2 2327   0.107   2.822   2.520 -0.7240 -0.6411 -2.9743
  582SOL     MW 2328   0.020   2.845   2.514  0.2160 -0.1932 -0.8090
  583SOL     OW 2329   1.967   2.453   2.646 -1.0431 -0.0411  0.0000
  583SOL    HW1 2330   2.039   2.474   2.582  0.7375 -1.4262  0.4475
  583SOL    HW2 2331   1.989   2.370   2.677 -1.9851  1.6642 -1.4910
  583SOL     MW 2332   1.980   2.445   2.642 -0.9325  0.0012 -0.1376
  584SOL     OW 2333   0.179   1.871   2.103  0.3525  0.0048 -0.5891
  584SOL    HW1 2334   0.273   1.875   2.106 -2.4084  2.1816 -0.8031
  584SOL    HW2 2335   0.156   1.898   2.194 -1.6585  1.8104  1.0337
  584SOL     MW 2336   0.189   1.875   2.115 -0.2771  0.5302 -0.4032
  585SOL     OW 2337   1.490   2.606   0.064 -0.1981  1.2631  0.6051
  585SOL    HW1 2338   1.428   2.612  -0.008  1.2833 -1.8284 -1.1875
  585SOL    HW2 2339   1.465   2.673   0.119 -0.8439  0.4076  0.1760
  585SOL     MW 2340   1.479   2.616   0.062 -0.0879  0.7423  0.3120
  586SOL     OW 2341   1.252   2.974   2.394  0.3631 -0.8948  0.1572
  586SOL    HW1 2342   1.338   2.956   2.357  2.3313  1.9944 -0.6934
  586SOL    HW2 2343   1.277   3.019   2.478  1.8704  1.1931  2.6540
  586SOL     MW 2344   1.267   2.978   2.400  0.8216 -0.2381  0.3744
  587SOL     OW 2345   1.242   1.614   2.138  0.2083 -0.0601  0.2580
  587SOL    HW1 2346   1.213   1.540   2.195  0.3254 -0.3282  0.2084
  587SOL    HW2 2347   1.239   1.573   2.047 -0.5717 -2.0817 -1.9548
  587SOL     MW 2348   1.238   1.599   2.134  0.1208 -0.3622 -0.0405
  588SOL     OW 2349   1.409   2.144   2.718  0.4760  0.7512  0.1656
  588SOL    HW1 2350   1.500   2.134   2.753  1.0702  0.1912  1.2600
  588SOL    HW2 2351   1.346   2.162   2.797  0.8198  1.8913 -1.1578
  588SOL     MW 2352   1.413   2.145   2.733  0.5998  0.8277  0.1354
  589SOL     OW 2353   1.348   2.081   0.086 -0.0441  0.0930 -0.1582
  589SOL    HW1 2354   1.349   2.176   0.113  1.3598  0.5757 -1.4845
  589SOL    HW2 2355   1.284   2.030   0.138 -1.0589  0.5483 -1.0703
  589SOL     MW 2356   1.340   2.087   0.096  0.0072  0.2168 -0.4536
  590SOL     OW 2357   0.396   2.580   2.264 -0.7436 -0.1790  0.4918
  590SOL    HW1 2358   0.369   2.593   2.172  0.3034 -1.4117  0.2113
  590SOL    HW2 2359   0.466   2.645   2.278  1.9450 -1.4883 -0.8847
  590SOL     MW 2360   0.402   2.590   2.253 -0.2507 -0.5144  0.2732
  591SOL     OW 2361   2.319   0.718   0.017 -0.2809  0.1563  0.2754
  591SOL    HW1 2362   2.239   0.740  -0.029 -0.1594 -1.9661 -1.2680
  591SOL    HW2 2363   2.392   0.752  -0.041  0.0829 -1.1671  0.4368
  591SOL     MW 2364   2.319   0.726   0.003 -0.2169 -0.2983  0.0931
  592SOL     OW 2365   1.859   3.027   0.827  0.0848  0.2210 -0.2321
  592SOL    HW1 2366   1.819   3.048   0.743  1.7834 -0.2026 -0.2077
  592SOL    HW2 2367   1.914   2.950   0.822  1.1146  1.8274 -0.0821
  592SOL     MW 2368   1.861   3.019   0.816  0.4448  0.3771 -0.2091
  593SOL     OW 2369   1.907   0.752   0.837  0.3775  0.2181 -0.4263
  593SOL    HW1 2370   1.827   0.747   0.779 -0.5290 -1.0360  1.3357
  593SOL    HW2 2371   1.924   0.669   0.879  1.7564 -0.4693  0.2558
  593SOL     MW 2372   1.899   0.740   0.835  0.4398 -0.0381 -0.1038
  594SOL     OW 2373   2.746   1.112   1.379  0.3476  0.1066 -0.0759
  594SOL    HW1 2374   2.837   1.145   1.389 -1.7222  2.3506  1.3680
  594SOL    HW2 2375   2.753   1.086   1.289  0.6967  0.2600  2.7630
  594SOL     MW 2376   2.759   1.113   1.368  0.1206  0.4229  0.4892
  595SOL     OW 2377   0.453   0.954   0.682  0.1123  0.0269  0.2388
  595SOL    HW1 2378   0.498   1.021   0.627  0.2339 -1.1076 -0.5136
  595SOL    HW2 2379   0.442   0.990   0.772  1.3289 -2.5000 -0.7996
  595SOL     MW 2380   0.457   0.968   0.686  0.2889 -0.4562  0.0025
  596SOL     OW 2381   2.425   1.389   0.579  0.0245  0.3465 -0.7001
  596SOL    HW1 2382   2.464   1.457   0.525  0.2747  3.0041  0.3132
  596SOL    HW2 2383   2.493   1.363   0.641 -1.3655 -0.6118  0.9488
  596SOL     MW 2384   2.439   1.395   0.580 -0.1259  0.5707 -0.3489
  597SOL     OW 2385   2.189   0.662   1.730  0.1050  0.2737 -0.7580
  597SOL    HW1 2386   2.265   0.598   1.729 -0.6519  0.4426  1.1205
  597SOL    HW2 2387   2.116   0.628   1.673 -1.2510  1.4542  2.9520
  597SOL     MW 2388   2.189   0.649   1.722 -0.1738  0.4518 -0.0206
  598SOL     OW 2389   2.599   1.022   2.861 -0.0360 -0.1946  0.3167
  598SOL    HW1 2390   2.654   1.017   2.779 -2.2307  1.8777  1.2405
  598SOL    HW2 2391   2.663   1.078   2.906  1.4252  1.3750  3.2764
  598SOL     MW 2392   2.615   1.029   2.856 -0.1328  0.2859  0.8291
  599SOL     OW 2393   2.925   0.331   2.060  0.0757 -0.3211  0.7355
  599SOL    HW1 2394   2.889   0.375   2.143  0.6485 -1.0783 -1.0434
  599SOL    HW2 2395   2.962   0.410   2.012  1.0714  0.0897  1.5511
  599SOL     MW 2396   2.925   0.347   2.065  0.2827 -0.3668  0.6084
  600SOL     OW 2397   1.897   1.722   0.901 -0.1498 -0.0863  0.5004
  600SOL    HW1 2398   1.912   1.756   0.988 -0.9284  0.4518 -0.0580
  600SOL    HW2 2399   1.812   1.758   0.878  2.4494  2.4307  0.4822
  600SOL     MW 2400   1.887   1.731   0.909  0.0904  0.3168  0.4243
  601SOL     OW 2401   2.533   0.788   0.837  0.2133  0.1639  0.1159
  601SOL    HW1 2402   2.538   0.805   0.932 -1.3311  1.5595 -2.9815
  601SOL    HW2 2403   2.486   0.706   0.814  4.1247 -3.0975  0.1761
  601SOL     MW 2404   2.527   0.780   0.846  0.5256 -0.0823 -0.2848
  602SOL     OW 2405   2.336   1.919   0.714 -0.2279  0.0951  0.0265
  602SOL    HW1 2406   2.260   1.882   0.763 -1.5463  2.2422  0.0197
  602SOL    HW2 2407   2.292   1.997   0.675  1.6383  0.3035  1.7764
  602SOL     MW 2408   2.320   1.924   0.715 -0.1556  0.4059  0.2565
  603SOL     OW 2409   3.036   1.398   1.793  0.7773 -0.1148  0.1250
  603SOL    HW1 2410   3.096   1.422   1.864  0.7482  1.6901  3.0895
  603SOL    HW2 2411   3.029   1.301   1.786  2.1829  0.0567 -1.9063
  603SOL     MW 2412   3.043   1.389   1.801  0.9589  0.1459  0.2481
  604SOL     OW 2413   2.115   1.568   0.452 -0.1653  0.1504 -0.1816
  604SOL    HW1 2414   2.137   1.500   0.512 -0.5785  1.7455  2.2125
  604SOL    HW2 2415   2.059   1.626   0.504  0.9464  0.8867  0.1656
  604SOL     MW 2416   2.111   1.567   0.467 -0.0732  0.4580  0.1801
  605SOL     OW 2417   2.672   1.561   0.841 -0.0201  0.1977 -0.0736
  605SOL    HW1 2418   2.596   1.611   0.807  1.6393  1.2566  0.5243
  605SOL    HW2 2419   2.633   1.509   0.913  1.4901 -4.4960  1.0478
  605SOL     MW 2420   2.657   1.561   0.846  0.3981 -0.2819  0.1533
  606SOL     OW 2421   2.558   1.768   1.899 -0.0894  0.0490 -1.1890
  606SOL    HW1 2422   2.460   1.757   1.900 -0.4656  2.8302 -0.6371
  606SOL    HW2 2423   2.593   1.696   1.846  1.9139  0.2732 -0.4649
  606SOL     MW 2424   2.549   1.757   1.892  0.1253  0.4455 -1.0206
  607SOL     OW 2425   2.330   1.031   2.984 -0.0911  0.2077 -0.4574
  607SOL    HW1 2426   2.423   1.046   2.954 -1.2125  3.0601 -2.6418
  607SOL    HW2 2427   2.338   1.040   3.082 -0.1959 -2.3284 -2.1514
  607SOL     MW 2428   2.344   1.034   2.993 -0.2529  0.2494 -0.9691
  608SOL     OW 2429   1.881   0.331   0.579 -0.1982  0.0884 -0.1595
  608SOL    HW1 2430   1.919   0.339   0.492  0.7754  0.9274 -2.6162
  608SOL    HW2 2431   1.824   0.254   0.560  2.3279  0.2449  0.9950
  608SOL     MW 2432   1.878   0.322   0.565  0.2636  0.2197 -0.3313
  609SOL     OW 2433   2.177   1.950   3.053 -0.2319 -0.2051  0.1737
  609SOL    HW1 2434   2.090   1.915   3.027  0.0154  1.5935  0.1079
  609SOL    HW2 2435   2.182   1.940   3.148 -2.0055  1.1534  0.5497
  609SOL     MW 2436   2.166   1.944   3.062 -0.4333  0.2114  0.2146
  610SOL     OW 2437   1.851   1.050   1.252 -0.8303 -0.4013 -0.1312
  610SOL    HW1 2438   1.839   0.975   1.188 -0.6403 -0.4672 -2.3272
  610SOL    HW2 2439   1.766   1.043   1.296  0.6548  0.7318 -0.3492
  610SOL     MW 2440   1.838   1.039   1.249 -0.6093 -0.2605 -0.4497
  611SOL     OW 2441   2.456   1.666   0.749 -0.3411  0.3129  0.3350
  611SOL    HW1 2442   2.444   1.762   0.734 -0.7266 -1.2462  2.6769
  611SOL    HW2 2443   2.417   1.631   0.674  0.7921  0.1320 -0.4302
  611SOL     MW 2444   2.449   1.674   0.737 -0.2425  0.0833  0.5430
  612SOL     OW 2445   2.777   2.842   0.443 -0.2683  0.2803 -0.3189
  612SOL    HW1 2446   2.820   2.898   0.511  0.1549  0.5707 -1.8018
  612SOL    HW2 2447   2.852   2.795   0.409  0.3613  0.2205  1.2309
  612SOL     MW 2448   2.793   2.843   0.447 -0.1294  0.3107 -0.3101
  613SOL     OW 2449   1.535   1.028   1.044 -0.6687 -0.0106 -0.8800
  613SOL    HW1 2450   1.537   1.121   1.059 -0.7452  0.6217  0.8795
  613SOL    HW2 2451   1.581   0.990   1.116 -2.1052  1.1728 -1.7105
  613SOL     MW 2452   1.542   1.035   1.055 -0.8683  0.2290 -0.7574
  614SOL     OW 2453   2.036   0.546   1.526 -0.5353 -0.0660  0.3820
  614SOL    HW1 2454   2.052   0.461   1.572  1.0437 -1.3668 -0.0541
  614SOL    HW2 2455   2.013   0.536   1.434  1.3775  1.1515  0.2858
  614SOL     MW 2456   2.035   0.533   1.520 -0.0746 -0.0770  0.3118
  615SOL     OW 2457   2.226   0.838   0.245  0.0811 -0.2322  0.4654
  615SOL    HW1 2458   2.264   0.799   0.325  0.3089  0.9773  0.8522
  615SOL    HW2 2459   2.251   0.784   0.175 -2.5083  0.8204  0.7019
  615SOL     MW 2460   2.234   0.826   0.246 -0.2305  0.0663  0.5476
  616SOL     OW 2461   2.592   0.355   1.600  0.3620 -0.7508 -0.3142
  616SOL    HW1 2462   2.513   0.326   1.557 -1.8011 -0.5811  1.8061
  616SOL    HW2 2463   2.631   0.403   1.524 -0.4901 -0.4956 -0.0226
  616SOL     MW 2464   2.587   0.358   1.584 -0.0359 -0.6948  0.0040
  617SOL     OW 2465   2.824   0.564   1.706  0.1921 -0.4342 -1.0423
  617SOL    HW1 2466   2.768   0.596   1.772  0.9676  1.0668 -1.3962
  617SOL    HW2 2467   2.783   0.482   1.675 -0.1395 -2.4365 -0.2841
  617SOL     MW 2468   2.811   0.558   1.710  0.2506 -0.5003 -0.9889
  618SOL     OW 2469   2.686   0.345   1.915 -0.3626  0.1551  0.5853
  618SOL    HW1 2470   2.676   0.442   1.921  2.4687  0.7409 -0.0964
  618SOL    HW2 2471   2.769   0.330   1.962 -0.5522  0.0509 -0.0716
  618SOL     MW 2472   2.695   0.356   1.922 -0.0140  0.2187  0.4087
  619SOL     OW 2473   2.615   0.748   0.154  0.4031 -0.3859 -0.2594
  619SOL    HW1 2474   2.679   0.813   0.177  0.3013 -0.4018 -0.8281
  619SOL    HW2 2475   2.558   0.728   0.236  2.9998  0.3488  0.4631
  619SOL     MW 2476   2.616   0.754   0.168  0.7322 -0.2911 -0.2391
  620SOL     OW 2477   2.306   1.071   0.974  0.2432 -0.1259  0.6718
  620SOL    HW1 2478   2.367   1.138   0.953 -1.1227  2.0447  0.7775
  620SOL    HW2 2479   2.297   1.015   0.898  2.1352 -2.2140  0.9095
  620SOL     MW 2480   2.313   1.072   0.961  0.3126 -0.1150  0.7171
  621SOL     OW 2481   1.466   2.097   1.993 -0.4377 -0.0269 -0.2935
  621SOL    HW1 2482   1.391   2.043   2.020 -1.3338 -4.4473  1.9883
  621SOL    HW2 2483   1.538   2.039   2.004 -0.0883 -0.0623 -1.1563
  621SOL     MW 2484   1.466   2.082   1.998 -0.5099 -0.6148 -0.1063
  622SOL     OW 2485   2.649   0.168   0.248  0.0182  0.5856  0.0760
  622SOL    HW1 2486   2.737   0.203   0.217  0.9661  2.6080  1.4369
  622SOL    HW2 2487   2.660   0.079   0.223 -0.5990  0.6767 -1.0588
  622SOL     MW 2488   2.662   0.161   0.241  0.0619  0.8644  0.1059
  623SOL     OW 2489   2.338   2.713   0.915 -0.3663  0.7999  0.5040
  623SOL    HW1 2490   2.399   2.789   0.896  1.0534  1.1033 -0.5511
  623SOL    HW2 2491   2.281   2.746   0.988  0.3488  2.1785  2.8160
  623SOL     MW 2492   2.338   2.727   0.922 -0.0846  1.0218  0.6698
  624SOL     OW 2493   2.230   1.690   3.032 -0.7209  0.5268 -0.2923
  624SOL    HW1 2494   2.143   1.644   3.034 -0.6546  3.6535 -1.3840
  624SOL    HW2 2495   2.202   1.786   3.040  0.1921  2.0523 -0.6492
  624SOL     MW 2496   2.215   1.697   3.033 -0.5917  1.1406 -0.4834
  625SOL     OW 2497   2.145   1.978   1.088  0.4410  0.2858  0.1372
  625SOL    HW1 2498   2.227   1.940   1.125 -1.4380 -0.0823  0.3752
  625SOL    HW2 2499   2.139   1.946   0.997  2.5296  2.3678  0.8915
  625SOL     MW 2500   2.155   1.969   1.080  0.4686  0.5119  0.2681
  626SOL     OW 2501   0.171   1.618   2.309 -0.5473  0.4528 -0.2278
  626SOL    HW1 2502   0.134   1.525   2.297  0.6913  0.3637  3.9018
  626SOL    HW2 2503   0.153   1.640   2.399  1.7106  2.1867  0.3083
  626SOL     MW 2504   0.164   1.608   2.319 -0.0859  0.6698  0.3878
  627SOL     OW 2505   2.507   0.827   2.616 -0.0693 -0.1660 -0.1762
  627SOL    HW1 2506   2.444   0.901   2.604  2.4405  1.8242  2.8231
  627SOL    HW2 2507   2.470   0.757   2.557 -0.7081 -1.2162  0.9126
  627SOL     MW 2508   2.494   0.827   2.607  0.1775 -0.0420  0.3632
  628SOL     OW 2509   2.254   1.334   1.357 -0.0311 -0.1920 -0.0934
  628SOL    HW1 2510   2.237   1.277   1.288  0.8594  1.7544 -1.1315
  628SOL    HW2 2511   2.346   1.320   1.381  1.5857  1.0384 -1.5128
  628SOL     MW 2512   2.264   1.325   1.351  0.2997  0.2271 -0.4176
  629SOL     OW 2513   2.002   0.522   1.254  0.1728 -0.1852  0.0257
  629SOL    HW1 2514   2.047   0.608   1.243 -1.1559  2.1481  0.6077
  629SOL    HW2 2515   1.910   0.545   1.261  0.8420  0.6751  0.6750
  629SOL     MW 2516   1.996   0.536   1.254  0.0858  0.2361  0.1881
  630SOL     OW 2517   2.500   1.853   2.998 -0.0162  0.2319  0.1904
  630SOL    HW1 2518   2.476   1.931   2.948  0.7909  0.8134  1.5659
  630SOL    HW2 2519   2.417   1.795   3.012 -0.7662  1.8697  0.0894
  630SOL     MW 2520   2.485   1.856   2.994 -0.0087  0.5247  0.3586
  631SOL     OW 2521   1.991   1.811   1.587  0.0149 -0.2242  0.4466
  631SOL    HW1 2522   2.009   1.721   1.620 -0.4206 -1.3385  1.2301
  631SOL    HW2 2523   1.975   1.797   1.492 -1.8582 -0.2432  1.5206
  631SOL     MW 2524   1.991   1.797   1.579 -0.2897 -0.3738  0.6917
  632SOL     OW 2525   0.085   2.093   1.501 -0.3426  0.0928 -0.0468
  632SOL    HW1 2526   0.041   2.087   1.582  1.8334  0.6901 -1.4189
  632SOL    HW2 2527   0.137   2.006   1.487  3.5784 -1.7590 -3.0149
  632SOL     MW 2528   0.086   2.081   1.510  0.4618 -0.0727 -0.6195
  633SOL     OW 2529   2.461   0.671   0.388  0.1124  0.2565  0.1572
  633SOL    HW1 2530   2.538   0.639   0.438  1.6755  1.0049 -0.2002
  633SOL    HW2 2531   2.399   0.617   0.427  1.5232  0.7066  0.7325
  633SOL     MW 2532   2.463   0.660   0.400  0.5048  0.4146  0.1859
  634SOL     OW 2533   2.625   0.008   0.696 -0.3882 -0.4908  0.4470
  634SOL    HW1 2534   2.670   0.090   0.682  0.9621 -0.2726 -1.1879
  634SOL    HW2 2535   2.562  -0.003   0.631 -0.6353 -0.3510  0.3949
  634SOL     MW 2536   2.623   0.017   0.686 -0.2426 -0.4435  0.2244
  635SOL     OW 2537   2.574   0.117   1.829 -0.2161  0.6603  0.5363
  635SOL    HW1 2538   2.648   0.075   1.789  1.8573  0.2511  4.2010
  635SOL    HW2 2539   2.604   0.208   1.849  1.9714  0.0018 -1.7544
  635SOL     MW 2540   2.588   0.123   1.826  0.3461  0.5194  0.7176
  636SOL     OW 2541   2.918   1.716   0.963  0.2871  0.5660 -0.1513
  636SOL    HW1 2542   2.829   1.738   0.942  2.2219  3.0372 -0.7224
  636SOL    HW2 2543   2.938   1.722   1.057  0.3500 -2.3996 -0.0021
  636SOL     MW 2544   2.909   1.720   0.973  0.5507  0.5007 -0.2069
  637SOL     OW 2545   2.913   1.519   0.661  0.6937  0.2400 -0.2145
  637SOL    HW1 2546   2.970   1.600   0.676  0.0598  1.1577 -2.6395
  637SOL    HW2 2547   2.831   1.539   0.710  1.9604 -1.2040 -0.4402
  637SOL     MW 2548   2.910   1.533   0.669  0.7772  0.1706 -0.5642
  638SOL     OW 2549   2.699   0.600   0.503  0.3522 -0.6108 -0.0513
  638SOL    HW1 2550   2.788   0.633   0.479  2.4322 -0.5863 -1.3801
  638SOL    HW2 2551   2.714   0.568   0.591  1.6919  0.3846  1.6155
  638SOL     MW 2552   2.713   0.600   0.511  0.8034 -0.4762 -0.0067
  639SOL     OW 2553   1.791   0.052   0.497 -0.4788  0.0771 -0.1294
  639SOL    HW1 2554   1.704   0.084   0.505  0.3690  2.6075 -1.0273
  639SOL    HW2 2555   1.770  -0.028   0.453 -0.6760 -0.5105  1.7769
  639SOL     MW 2556   1.777   0.046   0.492 -0.3930  0.3335  0.0036
  640SOL     OW 2557   0.352   1.385   0.070  0.3680 -0.0095  0.1701
  640SOL    HW1 2558   0.371   1.399  -0.025 -0.1705 -2.3620 -1.1054
  640SOL    HW2 2559   0.303   1.307   0.068 -0.8170  0.8690  0.4067
  640SOL     MW 2560   0.348   1.377   0.057  0.1406 -0.2040  0.0330
  641SOL     OW 2561   2.223   0.451   0.363 -0.4490 -0.0496  0.1973
  641SOL    HW1 2562   2.266   0.464   0.277 -0.6389  0.5619  1.9964
  641SOL    HW2 2563   2.289   0.394   0.409 -1.7597 -0.8910  1.3996
  641SOL     MW 2564   2.238   0.445   0.358 -0.6470 -0.0799  0.5933
  642SOL     OW 2565   0.030   3.083   0.570  0.4923  0.3375 -0.0966
  642SOL    HW1 2566  -0.013   3.152   0.518 -1.3457  0.6646 -1.3740
  642SOL    HW2 2567  -0.055   3.045   0.604  2.2298 -1.4808 -1.0382
  642SOL     MW 2568   0.013   3.087   0.567  0.4791  0.1407 -0.3893
  643SOL     OW 2569   2.050   0.349   1.704  0.3947 -0.4206 -0.2781
  643SOL    HW1 2570   2.119   0.310   1.758  0.4967  1.6075  0.7593
  643SOL    HW2 2571   2.018   0.292   1.637 -1.1105 -0.2615  0.2143
  643SOL     MW 2572   2.055   0.336   1.703  0.2095 -0.1320 -0.0762
  644SOL     OW 2573   2.712   1.928   1.069  0.0951  0.2349  0.4740
  644SOL    HW1 2574   2.695   1.865   1.134 -0.3562  2.7676  0.6964
  644SOL    HW2 2575   2.629   1.941   1.021  1.0870  2.0664 -3.4249
  644SOL     MW 2576   2.699   1.921   1.071  0.1664  0.8107 -0.0110
  645SOL     OW 2577   2.827   0.894   0.655 -0.1963 -0.2080  0.2766
  645SOL    HW1 2578   2.915   0.850   0.656  1.0811  0.0488  0.2056
  645SOL    HW2 2579   2.772   0.834   0.704  1.7826 -0.3390  0.6901
  645SOL     MW 2580   2.831   0.880   0.662  0.2334 -0.1914  0.3218
  646SOL     OW 2581   0.175   2.265   0.815  0.6378  0.3908 -0.4979
  646SOL    HW1 2582   0.192   2.167   0.829 -0.1584 -0.4864  0.1422
  646SOL    HW2 2583   0.099   2.264   0.745  0.9534 -0.5204  0.5158
  646SOL     MW 2584   0.167   2.252   0.808  0.5744  0.1548 -0.2797
  647SOL     OW 2585   2.696   0.497   2.979  0.4261  0.0964 -0.2057
  647SOL    HW1 2586   2.639   0.436   3.035  1.8657  0.3931  1.7170
  647SOL    HW2 2587   2.644   0.570   2.985  0.7400  0.2594  3.8658
  647SOL     MW 2588   2.681   0.498   2.987  0.6575  0.1571  0.5851
  648SOL     OW 2589   2.170   0.739   1.155 -0.6814  0.6416 -0.2597
  648SOL    HW1 2590   2.176   0.771   1.064  0.7118 -2.0680 -3.0124
  648SOL    HW2 2591   2.188   0.813   1.212 -1.2600  0.0260 -1.7425
  648SOL     MW 2592   2.173   0.753   1.150 -0.5739  0.2029 -0.8185
  649SOL     OW 2593   2.397   2.754   1.265 -0.3365  0.2879  0.0167
  649SOL    HW1 2594   2.481   2.800   1.263  0.7637  1.3619  1.1387
  649SOL    HW2 2595   2.411   2.666   1.233 -0.8936  0.7555  1.1174
  649SOL     MW 2596   2.410   2.749   1.260 -0.2649  0.4913  0.3100
  650SOL     OW 2597   2.823   0.206   0.671  0.1570 -0.2181  0.0855
  650SOL    HW1 2598   2.871   0.277   0.720 -0.1311  0.9364 -2.6467
  650SOL    HW2 2599   2.866   0.201   0.585  0.9891 -1.8739 -0.4965
  650SOL     MW 2600   2.835   0.215   0.666  0.2288 -0.2842 -0.3518
  651SOL     OW 2601   2.983   0.398   0.811  0.2960  0.1528 -0.3115
  651SOL    HW1 2602   3.070   0.428   0.769 -0.2155 -0.6829 -0.5178
  651SOL    HW2 2603   2.964   0.460   0.881  1.1940  1.0121 -0.8123
  651SOL     MW 2604   2.992   0.410   0.814  0.3470  0.1559 -0.4048
  652SOL     OW 2605   2.394   1.459   2.998 -0.1130  0.0237  0.3262
  652SOL    HW1 2606   2.443   1.475   2.918  0.3667 -0.3246  3.3101
  652SOL    HW2 2607   2.338   1.545   3.004 -2.8487 -1.3369  0.2622
  652SOL     MW 2608   2.393   1.472   2.988 -0.4106 -0.2018  0.7115
  653SOL     OW 2609   1.935   0.438   0.314 -0.3839  0.1715  0.2508
  653SOL    HW1 2610   1.877   0.374   0.268 -2.7343 -1.3241  1.3696
  653SOL    HW2 2611   2.024   0.447   0.277 -0.5708  2.6887  0.3130
  653SOL     MW 2612   1.939   0.431   0.303 -0.7187  0.3063  0.4066
  654SOL     OW 2613   2.461   1.035   0.714 -0.2594 -0.0832 -0.2511
  654SOL    HW1 2614   2.367   1.028   0.694 -0.2288  1.9813  0.0062
  654SOL    HW2 2615   2.495   0.954   0.747 -0.0340 -0.6427 -1.8911
  654SOL     MW 2616   2.453   1.023   0.716 -0.2256  0.1153 -0.4335
  655SOL     OW 2617   3.010   0.926   0.394  0.4555  0.2967 -0.2144
  655SOL    HW1 2618   2.940   0.971   0.442 -0.7499  0.6673  1.6194
  655SOL    HW2 2619   2.999   0.830   0.416 -0.8576 -1.7321  0.0252
  655SOL     MW 2620   3.000   0.919   0.403  0.1232  0.0779  0.0591
  656SOL     OW 2621   1.954   2.673   1.206  0.3826 -0.2023 -0.1016
  656SOL    HW1 2622   1.922   2.736   1.267  2.4821 -3.4987  0.4289
  656SOL    HW2 2623   1.976   2.602   1.264 -1.6242  1.4906  0.3498
  656SOL     MW 2624   1.953   2.672   1.221  0.3949 -0.4139  0.0280
  657SOL     OW 2625   0.205   1.569   1.250 -0.3232  0.6263  0.3241
  657SOL    HW1 2626   0.116   1.605   1.244 -2.2273  0.7249 -2.0580
  657SOL    HW2 2627   0.195   1.474   1.257 -0.5069  0.0768  1.2293
  657SOL     MW 2628   0.192   1.561   1.250 -0.5986  0.5668  0.1292
  658SOL     OW 2629   2.697   1.383   0.229 -0.1194  0.2119 -0.1737
  658SOL    HW1 2630   2.640   1.320   0.280 -1.8232 -0.1462 -2.6227
  658SOL    HW2 2631   2.756   1.436   0.289  0.9849  0.1116 -2.6217
  658SOL     MW 2632   2.697   1.382   0.244 -0.1985  0.1514 -0.8198
  659SOL     OW 2633   2.299   1.529   1.029  0.0758  0.1328 -0.0096
  659SOL    HW1 2634   2.381   1.507   1.082 -4.4340  2.0217 -0.8166
  659SOL    HW2 2635   2.248   1.581   1.089  1.0876 -0.9194 -1.7726
  659SOL     MW 2636   2.303   1.533   1.044 -0.3857  0.2432 -0.3487
  660SOL     OW 2637   2.055   1.563   1.686 -0.6743  0.3470 -0.2631
  660SOL    HW1 2638   2.074   1.554   1.785 -2.8888 -0.4482  1.0859
  660SOL    HW2 2639   2.002   1.488   1.662 -1.2113  0.3998 -3.5350
  660SOL     MW 2640   2.051   1.552   1.696 -1.0374  0.2490 -0.5168
  661SOL     OW 2641   2.389   1.105   0.166 -0.4789 -0.5638  0.7082
  661SOL    HW1 2642   2.438   1.150   0.237 -0.0352  1.7930  2.3812
  661SOL    HW2 2643   2.410   1.013   0.171  2.0381 -1.6124  0.0443
  661SOL     MW 2644   2.399   1.099   0.176 -0.0883 -0.3912  0.8414
  662SOL     OW 2645   2.515   2.935   0.884 -0.8897 -0.2203  0.1275
  662SOL    HW1 2646   2.460   3.005   0.913  1.7537 -0.6853 -0.5442
  662SOL    HW2 2647   2.560   2.980   0.811 -0.4961 -0.2279 -0.7562
  662SOL     MW 2648   2.514   2.950   0.878 -0.4890 -0.2826 -0.0777
  663SOL     OW 2649   2.844   1.543   0.388  0.0750 -0.7471 -0.3525
  663SOL    HW1 2650   2.859   1.612   0.319 -0.8574  0.6362 -1.5076
  663SOL    HW2 2651   2.883   1.574   0.465  0.9465  0.2337 -3.8273
  663SOL     MW 2652   2.851   1.556   0.389  0.0669 -0.4352 -0.9634
  664SOL     OW 2653   2.461   1.558   1.578 -0.5501 -0.5948 -0.0319
  664SOL    HW1 2654   2.432   1.642   1.537  1.2647  3.4802 -0.4820
  664SOL    HW2 2655   2.380   1.511   1.601 -0.3775  1.9972  1.3593
  664SOL     MW 2656   2.447   1.563   1.576 -0.2879  0.2849  0.0923
  665SOL     OW 2657   2.860   0.809   2.078 -0.3567 -0.1349  0.1870
  665SOL    HW1 2658   2.833   0.829   1.992 -1.1060 -1.8071  0.6231
  665SOL    HW2 2659   2.897   0.719   2.065 -0.1763 -0.3239 -0.2133
  665SOL     MW 2660   2.861   0.800   2.065 -0.4318 -0.3804  0.1917
  666SOL     OW 2661   2.792   3.049   1.683 -0.5234 -0.1081 -0.2614
  666SOL    HW1 2662   2.801   3.051   1.587  0.0659  3.3793  0.5386
  666SOL    HW2 2663   2.748   2.966   1.713 -1.3805 -2.8971  0.5915
  666SOL     MW 2664   2.788   3.038   1.675 -0.5588 -0.0160 -0.0433
  667SOL     OW 2665   1.977   2.701   1.630  0.1803  0.1628  0.3430
  667SOL    HW1 2666   2.003   2.626   1.688  0.6489 -0.1515 -1.0265
  667SOL    HW2 2667   2.044   2.765   1.650 -3.6223 -1.5074  3.3948
  667SOL     MW 2668   1.989   2.700   1.640 -0.2596 -0.0990  0.5649
  668SOL     OW 2669   2.744   0.644   0.799 -0.1261  0.2092  0.5653
  668SOL    HW1 2670   2.805   0.657   0.874  1.3092  2.8890  1.6630
  668SOL    HW2 2671   2.669   0.708   0.813  1.0068 -2.4067  2.2018
  668SOL     MW 2672   2.742   0.654   0.811  0.2127  0.2176  0.9260
  669SOL     OW 2673   0.178   0.929   0.667  0.0531  0.3468 -0.4881
  669SOL    HW1 2674   0.128   0.979   0.736  0.2705 -1.4506  0.6264
  669SOL    HW2 2675   0.274   0.955   0.700  1.3692 -3.1359 -1.0510
  669SOL     MW 2676   0.184   0.939   0.680  0.2555 -0.3499 -0.4153
  670SOL     OW 2677   2.931   0.287   0.189 -0.7506 -0.0188 -0.0000
  670SOL    HW1 2678   2.932   0.220   0.115  1.3856 -1.5974  0.2080
  670SOL    HW2 2679   2.917   0.375   0.148 -1.1597  0.0205 -0.1672
  670SOL     MW 2680   2.929   0.290   0.174 -0.5227 -0.2219  0.0053
  671SOL     OW 2681   2.155   3.035   1.577  0.2583 -0.7143 -0.0292
  671SOL    HW1 2682   2.144   3.091   1.499 -3.7279 -0.2251 -3.2699
  671SOL    HW2 2683   2.087   3.075   1.640 -1.4877  0.2326 -0.7475
  671SOL     MW 2684   2.145   3.048   1.575 -0.4980 -0.5249 -0.5515
  672SOL     OW 2685   1.869   1.692   1.322 -0.5001  0.0016 -0.5070
  672SOL    HW1 2686   1.798   1.729   1.385 -0.4197  0.4083  1.1616
  672SOL    HW2 2687   1.858   1.760   1.252  0.5769 -0.6252  1.3570
  672SOL     MW 2688   1.858   1.706   1.321 -0.3474 -0.0274 -0.0409
  673SOL     OW 2689   2.789   1.111   0.500 -0.4551 -0.0555 -0.4802
  673SOL    HW1 2690   2.771   1.032   0.553  1.7846 -0.8025 -0.5736
  673SOL    HW2 2691   2.867   1.158   0.537  0.8175  1.3955  2.5331
  673SOL     MW 2692   2.797   1.106   0.512  0.0083  0.0374 -0.0949
  674SOL     OW 2693   2.507   0.097   1.223  0.2005  0.4130 -0.5695
  674SOL    HW1 2694   2.450   0.086   1.146  0.6193  2.1639  1.8017
  674SOL    HW2 2695   2.525   0.003   1.256  0.7199  1.8210 -0.1784
  674SOL     MW 2696   2.502   0.083   1.217  0.3243  0.8298 -0.2050
  675SOL     OW 2697   3.022   0.989   1.102  0.2071 -0.6780 -0.0245
  675SOL    HW1 2698   3.085   0.937   1.152  0.7255 -5.4888 -2.0162
  675SOL    HW2 2699   3.065   1.022   1.024  2.2604  0.7131  1.9159
  675SOL     MW 2700   3.036   0.987   1.098  0.5464 -1.1292 -0.0313
  676SOL     OW 2701   2.852   1.500   1.621  1.1973  0.0406  0.4375
  676SOL    HW1 2702   2.798   1.415   1.609  2.4413 -3.0372  0.0258
  676SOL    HW2 2703   2.914   1.476   1.688 -1.3094  0.8619 -1.3479
  676SOL     MW 2704   2.853   1.486   1.628  1.0307 -0.2571  0.1476
  677SOL     OW 2705   2.428   0.756   1.891  0.6522 -0.8424  0.3089
  677SOL    HW1 2706   2.399   0.668   1.856  1.5052  0.5857 -0.8005
  677SOL    HW2 2707   2.347   0.789   1.943  0.2940 -0.6626  0.7083
  677SOL     MW 2708   2.414   0.749   1.893  0.7175 -0.6302  0.2152
  678SOL     OW 2709   2.526   1.584   0.440 -0.1288 -0.0937 -0.4630
  678SOL    HW1 2710   2.488   1.653   0.378  0.5635  0.6738  0.0736
  678SOL    HW2 2711   2.615   1.611   0.459 -1.0902 -4.3893 -1.4578
  678SOL     MW 2712   2.533   1.597   0.434 -0.1643 -0.5592 -0.5235
  679SOL     OW 2713   2.319   0.507   1.121  0.3458 -0.1592  0.5744
  679SOL    HW1 2714   2.250   0.439   1.125  1.1679 -1.0318 -0.4379
  679SOL    HW2 2715   2.276   0.594   1.134  1.2838  1.5362 -0.0595
  679SOL     MW 2716   2.304   0.510   1.123  0.5780 -0.0507  0.3572
  680SOL     OW 2717   2.399   0.270   1.441  0.3131 -0.0912 -0.1332
  680SOL    HW1 2718   2.297   0.270   1.439  1.4150  0.0529 -2.1285
  680SOL    HW2 2719   2.418   0.201   1.377 -2.5396 -1.2225  1.1158
  680SOL     MW 2720   2.388   0.261   1.432  0.0821 -0.2215 -0.2317
  681SOL     OW 2721   0.314   0.576   1.569  0.1686 -0.0340 -0.4571
  681SOL    HW1 2722   0.254   0.501   1.585 -1.5357  1.2710  0.8354
  681SOL    HW2 2723   0.407   0.551   1.577  3.1450  3.5440 -0.6073
  681SOL     MW 2724   0.318   0.563   1.572  0.3365  0.6103 -0.3064
  682SOL     OW 2725   0.127   2.966   1.483 -0.3544 -0.2144  0.0621
  682SOL    HW1 2726   0.118   3.060   1.462 -1.0927 -1.1486 -2.2634
  682SOL    HW2 2727   0.054   2.959   1.547  2.2780 -4.7167  1.4161
  682SOL     MW 2728   0.116   2.977   1.488 -0.1045 -0.9317 -0.0661
  683SOL     OW 2729   2.070   0.819   3.021 -0.2768  0.4197 -0.0506
  683SOL    HW1 2730   1.987   0.804   2.973 -0.8945  0.4524  2.0749
  683SOL    HW2 2731   2.070   0.912   3.041  1.3442  2.9169 -1.5459
  683SOL     MW 2732   2.059   0.830   3.017 -0.1444  0.7535  0.0326
  684SOL     OW 2733   2.183   1.752   0.903  0.3850  0.0120  0.3502
  684SOL    HW1 2734   2.103   1.707   0.902  3.0683 -0.3081 -0.3775
  684SOL    HW2 2735   2.248   1.686   0.891 -0.8138 -1.8911  3.9560
  684SOL     MW 2736   2.181   1.737   0.902  0.5808 -0.2813  0.7299
  685SOL     OW 2737   2.588   1.729   1.253  0.8685  0.1263  0.3840
  685SOL    HW1 2738   2.647   1.721   1.329 -0.7922  1.3806  3.2719
  685SOL    HW2 2739   2.577   1.641   1.212  1.5486 -0.6397 -1.9894
  685SOL     MW 2740   2.595   1.717   1.257  0.7391  0.1907  0.4519
  686SOL     OW 2741   2.876   0.704   1.463 -0.3819 -0.3172  0.0101
  686SOL    HW1 2742   2.883   0.639   1.534 -1.0949 -0.5798 -1.2562
  686SOL    HW2 2743   2.964   0.740   1.437 -1.3260  0.8439 -0.1145
  686SOL     MW 2744   2.889   0.700   1.469 -0.6005 -0.1986 -0.1734
  687SOL     OW 2745   2.149   0.308   1.217 -0.0475 -0.1764  0.0343
  687SOL    HW1 2746   2.113   0.263   1.136 -4.2949  0.5135  0.0316
  687SOL    HW2 2747   2.077   0.361   1.244  0.4987 -0.4745  2.1996
  687SOL     MW 2748   2.135   0.309   1.210 -0.5358 -0.1247  0.3196
  688SOL     OW 2749   2.387   0.604   1.467 -0.4357  0.2402  0.1576
  688SOL    HW1 2750   2.422   0.518   1.447 -2.1068 -1.0734  0.6782
  688SOL    HW2 2751   2.295   0.586   1.482  1.4456  0.8865  1.4471
  688SOL     MW 2752   2.379   0.590   1.466 -0.4079  0.1522  0.3964
  689SOL     OW 2753   2.555   0.751   2.991  0.0972 -0.3127 -0.0245
  689SOL    HW1 2754   2.567   0.833   2.942 -1.5799  0.7429 -0.7326
  689SOL    HW2 2755   2.577   0.757   3.084 -2.1394  2.0318 -0.8379
  689SOL     MW 2756   2.560   0.763   2.997 -0.4192  0.1359 -0.2253
  690SOL     OW 2757   2.117   0.959   1.934  0.0744 -0.1757 -0.3137
  690SOL    HW1 2758   2.050   0.893   1.953  1.1448 -0.4717  1.0335
  690SOL    HW2 2759   2.122   0.970   1.837 -0.0478 -3.2012 -2.2655
  690SOL     MW 2760   2.109   0.952   1.924  0.1995 -0.6139 -0.3934
  691SOL     OW 2761   2.449   0.269   0.833  0.0185 -0.0198  0.5235
  691SOL    HW1 2762   2.525   0.314   0.878 -1.7223  0.4828 -2.0164
  691SOL    HW2 2763   2.371   0.322   0.844 -1.1268  1.7916  0.2862
  691SOL     MW 2764   2.448   0.282   0.840 -0.3623  0.2855  0.1571
  692SOL     OW 2765   2.803   1.715   1.424 -0.1130 -0.1317 -0.0277
  692SOL    HW1 2766   2.810   1.644   1.481 -1.1161  3.5674 -0.5561
  692SOL    HW2 2767   2.832   1.789   1.476  0.2619  1.9413  4.7028
  692SOL     MW 2768   2.808   1.715   1.438 -0.1959  0.6299  0.5267
  693SOL     OW 2769   2.325   0.454   0.108  0.0590 -0.4285  0.2958
  693SOL    HW1 2770   2.245   0.412   0.098  1.4346  2.9007 -5.1733
  693SOL    HW2 2771   2.319   0.547   0.077  1.3304 -2.0972  0.0752
  693SOL     MW 2772   2.314   0.461   0.103  0.4082 -0.2094 -0.4549
  694SOL     OW 2773   1.951   1.281   1.087 -0.3166  0.3838 -0.2384
  694SOL    HW1 2774   2.000   1.221   1.142  0.0178  0.2564  0.6065
  694SOL    HW2 2775   1.878   1.229   1.052 -0.8364  1.2792  0.5791
  694SOL     MW 2776   1.947   1.266   1.090 -0.3411  0.4852 -0.0191
  695SOL     OW 2777   2.955   1.446   1.312  0.2426  0.0523  0.0000
  695SOL    HW1 2778   2.950   1.467   1.219 -0.7598 -2.7315  1.1792
  695SOL    HW2 2779   2.909   1.521   1.346  0.0510 -1.4914 -0.9223
  695SOL     MW 2780   2.948   1.458   1.304  0.0850 -0.5187  0.0339
  696SOL     OW 2781   2.109   1.389   0.894  0.1446  0.1527 -0.8823
  696SOL    HW1 2782   2.179   1.426   0.945  2.0077 -1.7234  1.0904
  696SOL    HW2 2783   2.047   1.356   0.964 -0.9184 -0.9016  0.0758
  696SOL     MW 2784   2.110   1.389   0.910  0.2501 -0.2340 -0.4956
  697SOL     OW 2785   2.906   1.077   2.187  0.6102  0.7547 -1.2745
  697SOL    HW1 2786   2.842   1.143   2.174 -0.7667  1.9594  0.8366
  697SOL    HW2 2787   2.869   0.992   2.172  3.3373  0.8576  2.2009
  697SOL     MW 2788   2.893   1.075   2.184  0.7884  0.9273 -0.5374
  698SOL     OW 2789   2.540   0.307   0.025  0.2962 -0.6976  0.5898
  698SOL    HW1 2790   2.479   0.362   0.072  3.3259 -2.6943 -1.5860
  698SOL    HW2 2791   2.568   0.239   0.096  0.8506 -2.7300 -2.8098
  698SOL     MW 2792   2.536   0.305   0.041  0.7691 -1.2292 -0.1458
  699SOL     OW 2793   1.855   1.647   2.065 -0.0779 -0.0066 -0.1415
  699SOL    HW1 2794   1.835   1.554   2.079 -0.4045  1.5339  0.9219
  699SOL    HW2 2795   1.943   1.646   2.022 -0.1537  0.9990  0.0492
  699SOL     MW 2796   1.864   1.635   2.061 -0.1310  0.3294  0.0239
  700SOL     OW 2797   2.707   0.910   1.553  0.2523 -0.1865 -0.0383
  700SOL    HW1 2798   2.713   0.978   1.484 -0.6692 -1.3299 -1.6502
  700SOL    HW2 2799   2.740   0.827   1.515 -0.0214  1.5755  3.4915
  700SOL     MW 2800   2.712   0.908   1.539  0.0946 -0.1049  0.2148
  701SOL     OW 2801   1.653   1.267   2.605 -0.0217 -0.1414 -0.2256
  701SOL    HW1 2802   1.749   1.270   2.610 -1.9821  0.0360 -2.5940
  701SOL    HW2 2803   1.620   1.332   2.666  1.0159  2.5882 -1.0542
  701SOL     MW 2804   1.662   1.276   2.614 -0.1434  0.2421 -0.6474
  702SOL     OW 2805   2.215   0.418   0.822 -0.2352 -0.1298 -0.2205
  702SOL    HW1 2806   2.181   0.351   0.760 -1.5384 -2.3870  0.2460
  702SOL    HW2 2807   2.276   0.484   0.779  2.1468 -0.6017 -0.5524
  702SOL     MW 2808   2.219   0.418   0.808 -0.0929 -0.4899 -0.2028
  703SOL     OW 2809   2.689   1.303   0.987 -0.5119 -0.0179  0.0015
  703SOL    HW1 2810   2.678   1.278   0.897  0.6774 -2.5207  0.0773
  703SOL    HW2 2811   2.709   1.216   1.029 -0.8270 -2.5930  1.8435
  703SOL     MW 2812   2.690   1.289   0.981 -0.3966 -0.6879  0.2545
  704SOL     OW 2813   0.007   1.342   0.286 -0.3017 -0.2703  0.5837
  704SOL    HW1 2814  -0.050   1.280   0.230 -0.4264  2.5720 -4.3706
  704SOL    HW2 2815   0.045   1.290   0.354  1.0231  1.9192 -0.5615
  704SOL     MW 2816   0.004   1.327   0.288 -0.1433  0.3936 -0.2211
  705SOL     OW 2817   2.133   1.632   1.253  0.7397 -0.3888 -0.5217
  705SOL    HW1 2818   2.034   1.652   1.288 -0.3429  2.0713  2.3862
  705SOL    HW2 2819   2.148   1.537   1.267 -0.8839  2.5521  2.1324
  705SOL     MW 2820   2.122   1.622   1.259  0.3827  0.3238  0.2122
  706SOL     OW 2821   2.987   1.252   0.617  0.0352  0.4631  0.8999
  706SOL    HW1 2822   3.071   1.234   0.582 -1.6274  0.9469 -1.0300
  706SOL    HW2 2823   2.991   1.347   0.639 -1.2141  2.5209  0.4657
  706SOL     MW 2824   2.999   1.262   0.615 -0.3490  0.7984  0.5880
  707SOL     OW 2825   2.372   0.058   0.981  0.2150 -0.2065 -0.3123
  707SOL    HW1 2826   2.399   0.133   0.921 -0.4313 -0.1204  1.8040
  707SOL    HW2 2827   2.284   0.087   1.000  0.7302 -1.6728 -1.6237
  707SOL     MW 2828   2.364   0.072   0.976  0.1977 -0.3886 -0.2061
  708SOL     OW 2829   2.532   1.581   0.118  0.1104  0.0522  0.3055
  708SOL    HW1 2830   2.570   1.515   0.181  1.7782 -2.0966 -1.0192
  708SOL    HW2 2831   2.498   1.531   0.050 -0.1842  2.9572  0.5645
  708SOL     MW 2832   2.533   1.566   0.118  0.2916  0.1520  0.1649
  709SOL     OW 2833   1.683   1.754   0.110  0.5554 -0.2168  0.3953
  709SOL    HW1 2834   1.625   1.789   0.049 -1.4991  0.2656  1.1032
  709SOL    HW2 2835   1.641   1.723   0.193  1.1729  0.9537 -0.6671
  709SOL     MW 2836   1.670   1.754   0.113  0.3658  0.0013  0.3485
  710SOL     OW 2837   2.174   1.154   1.189 -0.8013  0.3294 -0.1002
  710SOL    HW1 2838   2.219   1.113   1.108 -0.6452 -1.1844  0.6255
  710SOL    HW2 2839   2.189   1.084   1.258  3.2942  0.0228  0.6901
  710SOL     MW 2840   2.182   1.140   1.187 -0.2403  0.0892  0.0998
  711SOL     OW 2841   2.330   0.129   1.722  0.2027 -0.4449  0.2713
  711SOL    HW1 2842   2.422   0.101   1.738 -3.1336  1.2273 -1.6561
  711SOL    HW2 2843   2.303   0.052   1.671  1.4808  1.0101 -0.5071
  711SOL     MW 2844   2.338   0.115   1.717 -0.0689 -0.0323 -0.0857
  712SOL     OW 2845   1.691   0.617   3.075  0.8029 -0.0430  0.4642
  712SOL    HW1 2846   1.746   0.682   3.032  0.8682 -0.7528  0.6285
  712SOL    HW2 2847   1.668   0.646   3.166  2.2163 -0.1660 -1.2311
  712SOL     MW 2848   1.695   0.630   3.081  0.9980 -0.1529  0.2622
  713SOL     OW 2849   2.578   0.799   1.109  0.1368 -0.5937 -0.4804
  713SOL    HW1 2850   2.601   0.701   1.106 -1.9162 -1.8217 -2.9802
  713SOL    HW2 2851   2.567   0.811   1.206  1.1609 -0.9678 -2.7597
  713SOL     MW 2852   2.579   0.788   1.122  0.0011 -0.8051 -1.1110
  714SOL     OW 2853   2.200   0.175   1.945 -0.9858  0.6222  0.0706
  714SOL    HW1 2854   2.236   0.163   2.034 -2.1982 -0.1060 -0.4610
  714SOL    HW2 2855   2.272   0.170   1.876 -1.0884  0.6201 -0.8373
  714SOL     MW 2856   2.214   0.172   1.948 -1.1593  0.5258 -0.1193
  715SOL     OW 2857   1.733   1.912   1.712  0.6684 -0.3115 -0.5056
  715SOL    HW1 2858   1.817   1.910   1.661  0.1897  0.5858  2.3802
  715SOL    HW2 2859   1.726   1.830   1.764  0.1253 -1.8160 -0.6004
  715SOL     MW 2860   1.744   1.901   1.712  0.5336 -0.3916 -0.1373
  716SOL     OW 2861   2.385   0.588   0.711 -0.6416 -0.8106  0.0657
  716SOL    HW1 2862   2.426   0.522   0.650 -1.7667  0.6521  0.6371
  716SOL    HW2 2863   2.315   0.628   0.657 -2.2457  1.6802  1.9119
  716SOL     MW 2864   2.381   0.584   0.696 -1.0017 -0.2890  0.3847
  717SOL     OW 2865   2.861   1.456   2.935  0.4438 -0.1064 -0.4386
  717SOL    HW1 2866   2.954   1.438   2.951  0.2310 -0.2431 -1.4255
  717SOL    HW2 2867   2.827   1.524   2.994  2.5386  2.0717  0.9163
  717SOL     MW 2868   2.868   1.463   2.945  0.6921  0.1629 -0.3901
  718SOL     OW 2869   2.529   1.326   1.398 -0.0747 -0.0798  0.0273
  718SOL    HW1 2870   2.546   1.363   1.488  0.2984 -0.0937  1.4636
  718SOL    HW2 2871   2.582   1.249   1.387 -2.4458  0.6347  1.4360
  718SOL     MW 2872   2.538   1.321   1.408 -0.3383  0.0126  0.4027
  719SOL     OW 2873   2.164   1.393   0.640  0.2231 -0.4639 -0.0901
  719SOL    HW1 2874   2.259   1.367   0.644  1.9417 -2.6603  1.3079
  719SOL    HW2 2875   2.141   1.385   0.736  0.2714  1.7262  0.3644
  719SOL     MW 2876   2.173   1.388   0.653  0.4562 -0.4647  0.1543
  720SOL     OW 2877   2.892   1.199   0.127  0.0145 -0.3444 -0.0866
  720SOL    HW1 2878   2.856   1.113   0.134 -1.1950  0.3308  0.7656
  720SOL    HW2 2879   2.817   1.253   0.133  1.4718  1.0325  0.1145
  720SOL     MW 2880   2.878   1.195   0.129  0.0472 -0.0737  0.0523
  721SOL     OW 2881   2.521   0.823   1.383  0.1781  0.6674 -0.8923
  721SOL    HW1 2882   2.500   0.736   1.424  0.0343  0.4501  2.9638
  721SOL    HW2 2883   2.584   0.864   1.453 -0.1363 -1.4050  3.2730
  721SOL     MW 2884   2.527   0.817   1.398  0.1177  0.3653  0.1660
  722SOL     OW 2885   2.550   1.205   0.387 -0.0499 -0.0872  0.1632
  722SOL    HW1 2886   2.495   1.258   0.449  0.7309  2.3776  3.6546
  722SOL    HW2 2887   2.624   1.180   0.443 -3.2312  0.1772  0.3661
  722SOL     MW 2888   2.553   1.209   0.403 -0.3666  0.2729  0.6506
  723SOL     OW 2889   2.265   1.398   1.631 -0.5621 -0.0260 -0.0581
  723SOL    HW1 2890   2.251   1.368   1.541  1.5664 -0.1770  0.8328
  723SOL    HW2 2891   2.202   1.470   1.633  0.5661 -1.5336  0.2450
  723SOL     MW 2892   2.255   1.403   1.619 -0.1324 -0.2448  0.0994
  724SOL     OW 2893   2.468   0.376   0.576  0.3296 -0.0583 -0.3444
  724SOL    HW1 2894   2.470   0.328   0.657  2.5825  2.5899 -2.2857
  724SOL    HW2 2895   2.527   0.321   0.525  1.4685 -0.1436  0.2289
  724SOL     MW 2896   2.476   0.362   0.580  0.7771  0.2798 -0.5249
  725SOL     OW 2897   2.587   0.525   1.132 -0.3169  0.2027  0.1376
  725SOL    HW1 2898   2.603   0.507   1.230  0.1505 -1.0313  2.9492
  725SOL    HW2 2899   2.491   0.510   1.129  0.8312  0.8279 -1.4713
  725SOL     MW 2900   2.576   0.520   1.145 -0.1037  0.1223  0.2963
  726SOL     OW 2901   2.568   2.435   0.492 -0.3101  0.0313  0.4261
  726SOL    HW1 2902   2.507   2.476   0.433 -2.0009 -0.1570  2.0345
  726SOL    HW2 2903   2.512   2.388   0.562 -1.9071 -0.9203  1.4352
  726SOL     MW 2904   2.553   2.434   0.494 -0.7439 -0.1191  0.7714
  727SOL     OW 2905   2.834   0.278   1.621  0.0124  0.2933 -0.5012
  727SOL    HW1 2906   2.863   0.325   1.534  1.2829  5.0461  0.0113
  727SOL    HW2 2907   2.738   0.272   1.620  1.3024 -1.4410 -0.4178
  727SOL     MW 2908   2.826   0.283   1.609  0.3502  0.6916 -0.4226
  728SOL     OW 2909   2.809   1.179   2.954  0.2587 -0.5688 -0.1246
  728SOL    HW1 2910   2.794   1.272   2.926  4.5068  0.2529  1.6956
  728SOL    HW2 2911   2.864   1.191   3.034 -0.2789 -3.3876  1.1941
  728SOL     MW 2912   2.814   1.193   2.961  0.7483 -0.8323  0.2895
  729SOL     OW 2913   2.525   1.474   1.165  0.3881 -0.2369  0.0713
  729SOL    HW1 2914   2.517   1.427   1.251  1.5194  1.6071 -2.5906
  729SOL    HW2 2915   2.590   1.432   1.110 -2.0492  1.9290 -3.0559
  729SOL     MW 2916   2.533   1.463   1.169  0.2158  0.2921 -0.6925
  730SOL     OW 2917   2.133   1.117   0.292 -0.2207 -0.1375 -0.0569
  730SOL    HW1 2918   2.228   1.101   0.267  0.5767  0.0658  0.3343
  730SOL    HW2 2919   2.116   1.210   0.288 -0.5321  1.7284  0.9903
  730SOL     MW 2920   2.143   1.127   0.288 -0.1566  0.1355  0.1329
  731SOL     OW 2921   2.794   1.857   2.906 -0.4115 -0.0361  0.1234
  731SOL    HW1 2922   2.731   1.886   2.842  1.9166 -3.4034 -2.7326
  731SOL    HW2 2923   2.865   1.923   2.900 -1.2316  1.6065 -0.7719
  731SOL     MW 2924   2.795   1.870   2.897 -0.2125 -0.2636 -0.3716
  732SOL     OW 2925   2.269   0.926   1.329 -0.6664 -0.0950  0.7521
  732SOL    HW1 2926   2.232   0.933   1.415  1.2439  1.0318 -0.0382
  732SOL    HW2 2927   2.356   0.902   1.361  1.7731 -1.5954  1.7787
  732SOL     MW 2928   2.275   0.924   1.344 -0.0925 -0.1443  0.7833
  733SOL     OW 2929   2.357   2.833   3.065 -0.0117 -0.1396  0.2907
  733SOL    HW1 2930   2.304   2.912   3.056  0.1703 -0.1248  1.4669
  733SOL    HW2 2931   2.291   2.768   3.092  0.3436 -1.4710  2.3188
  733SOL     MW 2932   2.341   2.834   3.068  0.0592 -0.3133  0.7135
  734SOL     OW 2933   1.498   0.376   2.452  0.2753  0.2981 -0.2646
  734SOL    HW1 2934   1.464   0.330   2.527  1.3001 -0.6687  0.7186
  734SOL    HW2 2935   1.512   0.301   2.397 -0.7629  2.4594  1.0691
  734SOL     MW 2936   1.496   0.360   2.455  0.2735  0.4557  0.0411
  735SOL     OW 2937   3.059   0.976   2.640 -0.5699  0.6163  0.4082
  735SOL    HW1 2938   3.059   0.884   2.662 -0.2671 -0.6041  0.6859
  735SOL    HW2 2939   3.013   1.020   2.712 -2.2034 -0.2707 -1.3517
  735SOL     MW 2940   3.053   0.970   2.653 -0.7455  0.3383  0.2126
  736SOL     OW 2941   0.057   0.596   2.515  0.4741  0.1471  0.6745
  736SOL    HW1 2942   0.100   0.642   2.440 -0.3014  0.3527 -0.2175
  736SOL    HW2 2943   0.037   0.504   2.483 -1.1396 -1.4774  2.5032
  736SOL     MW 2944   0.060   0.590   2.501  0.1589 -0.0401  0.7981
  737SOL     OW 2945   2.929   0.711   2.614 -0.0815 -0.2096  0.2732
  737SOL    HW1 2946   2.888   0.711   2.528 -1.1143 -0.1588  0.2891
  737SOL    HW2 2947   3.008   0.665   2.589 -1.3681  0.9413  0.4837
  737SOL     MW 2948   2.934   0.705   2.599 -0.3875 -0.0510  0.3030
  738SOL     OW 2949   0.174   0.515   1.982 -0.4409  0.8384  0.3682
  738SOL    HW1 2950   0.250   0.532   1.927 -0.9847 -0.0779  0.9988
  738SOL    HW2 2951   0.194   0.427   1.999  1.8310 -0.0990 -3.1992
  738SOL     MW 2952   0.187   0.506   1.977 -0.2129  0.5938 -0.0193
  739SOL     OW 2953   2.550   0.954   2.166  0.0402  0.0235 -0.0058
  739SOL    HW1 2954   2.466   0.910   2.146  0.1661 -1.4089  1.0045
  739SOL    HW2 2955   2.573   0.997   2.085  0.7349 -0.3280  1.2253
  739SOL     MW 2956   2.542   0.954   2.153  0.1485 -0.2119  0.2900
  740SOL     OW 2957   0.167   1.752   2.963 -0.2563  0.6428 -0.4589
  740SOL    HW1 2958   0.114   1.682   2.995  3.1264 -0.2733  1.8835
  740SOL    HW2 2959   0.249   1.741   3.011 -0.1273  1.1401 -0.9525
  740SOL     MW 2960   0.171   1.742   2.974  0.2070  0.5876 -0.2150
  741SOL     OW 2961   2.204   1.196   2.726 -0.0045  0.1190 -0.5968
  741SOL    HW1 2962   2.199   1.286   2.687  1.2299 -0.4772 -0.8356
  741SOL    HW2 2963   2.187   1.191   2.822 -0.8666 -1.4576 -1.1676
  741SOL     MW 2964   2.201   1.207   2.733  0.0446 -0.1677 -0.7036
  742SOL     OW 2965   1.661   1.349   2.287 -0.0818  0.0169 -0.2823
  742SOL    HW1 2966   1.585   1.291   2.260 -0.6619  0.8385 -1.7949
  742SOL    HW2 2967   1.650   1.353   2.378 -1.6647  2.1292 -1.9311
  742SOL     MW 2968   1.649   1.342   2.296 -0.3671  0.4040 -0.6994
  743SOL     OW 2969   2.506   1.238   2.688  0.1219  0.0729 -0.1229
  743SOL    HW1 2970   2.411   1.212   2.698 -0.5319  1.2622 -2.2206
  743SOL    HW2 2971   2.540   1.188   2.766  1.2241 -2.0107  2.4949
  743SOL     MW 2972   2.498   1.228   2.699  0.1810 -0.0451 -0.0543
  744SOL     OW 2973   2.792   0.945   1.845  0.4855  1.0865 -0.2658
  744SOL    HW1 2974   2.708   0.972   1.885  0.0928  2.1375  1.8960
  744SOL    HW2 2975   2.775   0.931   1.754  0.4045  3.1440 -0.8013
  744SOL     MW 2976   2.778   0.947   1.839  0.4230  1.4966 -0.0512
  745SOL     OW 2977   1.765   0.434   2.486 -0.0161 -0.4803 -0.3168
  745SOL    HW1 2978   1.756   0.456   2.393 -2.0473  1.1749 -0.1119
  745SOL    HW2 2979   1.681   0.410   2.517 -0.3209  0.5054 -0.4441
  745SOL     MW 2980   1.753   0.434   2.478 -0.3243 -0.1319 -0.3066
  746SOL     OW 2981   1.524   1.457   1.680 -0.5472  0.1380  0.5719
  746SOL    HW1 2982   1.579   1.519   1.723 -0.7001 -0.3036 -0.0793
  746SOL    HW2 2983   1.508   1.404   1.755  1.4739  1.2373 -1.8519
  746SOL     MW 2984   1.529   1.459   1.696 -0.3007  0.2247  0.1662
  747SOL     OW 2985   2.555   1.085   1.919  0.1780  0.3768 -0.0170
  747SOL    HW1 2986   2.464   1.089   1.882 -3.4767 -2.2410  1.0294
  747SOL    HW2 2987   2.567   1.166   1.967  0.2015 -0.0545 -2.2776
  747SOL     MW 2988   2.545   1.096   1.920 -0.3011 -0.0255 -0.1772
  748SOL     OW 2989   0.101   3.077   1.925 -0.0259 -0.1012  0.1922
  748SOL    HW1 2990   0.182   3.100   1.875  1.0880  0.3724  1.8325
  748SOL    HW2 2991   0.085   3.143   1.988  0.2860  0.7624 -0.7200
  748SOL     MW 2992   0.109   3.089   1.926  0.1622  0.0752  0.2882
  749SOL     OW 2993   2.388   0.621   2.772  0.1818 -0.3689  0.0962
  749SOL    HW1 2994   2.411   0.707   2.728  1.4441 -1.6748 -2.2105
  749SOL    HW2 2995   2.421   0.628   2.856  0.1565  1.4369 -0.4154
  749SOL     MW 2996   2.395   0.633   2.777  0.3450 -0.3030 -0.2756
  750SOL     OW 2997   2.089   3.029   1.948  0.2197  0.4975 -0.3653
  750SOL    HW1 2998   2.152   3.099   1.947 -2.0479 -2.1358  0.8565
  750SOL    HW2 2999   2.135   2.952   1.923 -3.3046  2.7772  0.3884
  750SOL     MW 3000   2.103   3.028   1.944 -0.5444  0.4508 -0.1047
  751SOL     OW 3001   3.068   0.347   2.393  0.1807  0.4637 -0.5842
  751SOL    HW1 3002   2.986   0.372   2.349 -0.1334  0.5425  1.0538
  751SOL    HW2 3003   3.137   0.349   2.332 -1.1647  0.2961 -1.1425
  751SOL     MW 3004   3.066   0.351   2.379 -0.0382  0.4520 -0.4418
  752SOL     OW 3005   2.161   0.892   2.765  0.1558 -0.0019  0.0219
  752SOL    HW1 3006   2.239   0.947   2.785  0.0815 -1.2006 -0.1221
  752SOL    HW2 3007   2.144   0.858   2.855  0.3434  0.0751 -1.2538
  752SOL     MW 3008   2.169   0.895   2.780  0.1708 -0.1499 -0.1654
  753SOL     OW 3009   2.821   0.397   2.291  0.1116  0.7185  0.0100
  753SOL    HW1 3010   2.764   0.319   2.297  0.3245  0.8982  1.2079
  753SOL    HW2 3011   2.783   0.462   2.346  0.9976  0.7676  2.6295
  753SOL     MW 3012   2.808   0.395   2.299  0.2566  0.7487  0.5137
  754SOL     OW 3013   2.305   2.957   2.654 -0.1550  0.0793  0.0968
  754SOL    HW1 3014   2.333   2.934   2.566 -0.4777  0.1955 -2.0731
  754SOL    HW2 3015   2.372   2.931   2.719  0.5157  0.7509  0.0477
  754SOL     MW 3016   2.317   2.951   2.651 -0.1090  0.1832 -0.1960
  755SOL     OW 3017   2.790   1.591   2.486  0.1340 -0.0266  0.1729
  755SOL    HW1 3018   2.735   1.511   2.498  0.5630 -1.3759  1.0818
  755SOL    HW2 3019   2.835   1.615   2.569  0.6703 -1.6454  1.9018
  755SOL     MW 3020   2.789   1.583   2.498  0.2613 -0.4182  0.5209
  756SOL     OW 3021   2.192   1.259   3.001  0.7791  0.3452  0.0796
  756SOL    HW1 3022   2.268   1.332   3.016 -0.2614  1.4499  2.9280
  756SOL    HW2 3023   2.231   1.174   3.024  3.4122  0.2016 -2.8660
  756SOL     MW 3024   2.207   1.258   3.006  0.9892  0.4720  0.0668
  757SOL     OW 3025   2.180   0.968   1.659  0.5312  0.1666 -0.1223
  757SOL    HW1 3026   2.233   0.890   1.673  1.6358 -0.4288  1.3702
  757SOL    HW2 3027   2.115   0.943   1.591 -1.9536 -1.0478 -1.5864
  757SOL     MW 3028   2.178   0.954   1.652  0.3491 -0.0722 -0.1185
  758SOL     OW 3029   2.233   1.836   2.640  0.2607 -0.3044 -0.3060
  758SOL    HW1 3030   2.229   1.886   2.553 -0.9723  0.5722 -2.5237
  758SOL    HW2 3031   2.320   1.795   2.642 -0.5416  1.1837  1.1636
  758SOL     MW 3032   2.244   1.837   2.629 -0.0079  0.0076 -0.4047
  759SOL     OW 3033   1.526   1.452   2.791  0.1702 -0.6070 -0.6341
  759SOL    HW1 3034   1.535   1.520   2.724 -1.6048 -2.2926  1.5751
  759SOL    HW2 3035   1.600   1.468   2.854  0.2041  3.1131  3.0937
  759SOL     MW 3036   1.537   1.463   2.790 -0.0595 -0.3386  0.1492
  760SOL     OW 3037   2.616   1.963   2.736  0.8290  0.3801 -0.1526
  760SOL    HW1 3038   2.559   1.882   2.735  1.6132  0.9460 -0.9216
  760SOL    HW2 3039   2.692   1.953   2.682  0.3518  3.0343  0.0366
  760SOL     MW 3040   2.619   1.951   2.728  0.8695  0.8049 -0.2291
  761SOL     OW 3041   2.207   0.453   2.460  0.0365 -0.0674 -0.4390
  761SOL    HW1 3042   2.138   0.389   2.453  0.1268 -2.1752  1.6886
  761SOL    HW2 3043   2.179   0.507   2.531 -3.0675 -1.8053  0.6290
  761SOL     MW 3044   2.194   0.452   2.469 -0.3612 -0.5748 -0.0174
  762SOL     OW 3045   0.033   0.150   2.105 -0.3542 -0.4434  0.0890
  762SOL    HW1 3046   0.008   0.102   2.188  0.5283 -0.3094  1.5254
  762SOL    HW2 3047  -0.044   0.207   2.088  0.5711 -0.6817 -2.5320
  762SOL     MW 3048   0.019   0.151   2.114 -0.1157 -0.4572 -0.0673
  763SOL     OW 3049   2.454   1.136   2.330 -0.0653  0.2162 -0.0991
  763SOL    HW1 3050   2.504   1.064   2.296  0.7305 -0.3380 -1.0428
  763SOL    HW2 3051   2.515   1.205   2.347 -2.6813 -0.5151 -0.0717
  763SOL     MW 3052   2.468   1.136   2.328 -0.3055  0.0466 -0.2200
  764SOL     OW 3053   0.372   0.171   2.790 -0.7456 -0.0666 -0.3311
  764SOL    HW1 3054   0.368   0.173   2.694 -2.0237 -0.5736  0.4667
  764SOL    HW2 3055   0.394   0.264   2.815  0.1571  0.6416 -0.4984
  764SOL     MW 3056   0.374   0.184   2.780 -0.7951 -0.0400 -0.2479
  765SOL     OW 3057   2.707   0.152   2.310  0.4488  0.4214  0.6953
  765SOL    HW1 3058   2.682   0.114   2.226 -2.9053  0.9185  1.3698
  765SOL    HW2 3059   2.772   0.085   2.335 -1.9042 -2.0698  1.5060
  765SOL     MW 3060   2.712   0.138   2.302 -0.3042  0.1583  0.8913
  766SOL     OW 3061   1.861   3.035   2.112 -0.4407 -0.5507  0.2086
  766SOL    HW1 3062   1.942   3.042   2.065  0.6546 -0.3464  2.6391
  766SOL    HW2 3063   1.804   2.984   2.051 -1.7462 -0.1662 -1.1548
  766SOL     MW 3064   1.864   3.029   2.098 -0.4684 -0.4730  0.3494
  767SOL     OW 3065   2.672   0.637   1.934  0.1151 -0.4477  0.5791
  767SOL    HW1 3066   2.717   0.669   2.010 -1.6382 -0.2657 -0.6177
  767SOL    HW2 3067   2.584   0.674   1.944  0.6663  0.3582  0.8997
  767SOL     MW 3068   2.667   0.646   1.945 -0.0435 -0.3174  0.4635
  768SOL     OW 3069   0.021   1.446   2.987  0.0669  0.0867 -0.1232
  768SOL    HW1 3070   0.050   1.486   3.069 -0.0747 -0.2661 -1.9377
  768SOL    HW2 3071   0.078   1.366   2.975  0.3396 -0.3814  0.3854
  768SOL     MW 3072   0.032   1.441   2.996  0.0842 -0.0216 -0.2955
  769SOL     OW 3073   2.354   0.687   2.432  0.8469 -0.0861  0.8081
  769SOL    HW1 3074   2.291   0.618   2.441  1.0972 -2.4341 -1.1601
  769SOL    HW2 3075   2.412   0.673   2.358  0.4619 -1.6222  1.8841
  769SOL     MW 3076   2.354   0.676   2.423  0.8292 -0.5986  0.6904
  770SOL     OW 3077   0.068   1.613   2.639 -0.4455 -0.4285  0.2624
  770SOL    HW1 3078  -0.019   1.647   2.651 -2.0094 -0.7933  1.0728
  770SOL    HW2 3079   0.080   1.539   2.700  1.0607 -1.9096 -1.9968
  770SOL     MW 3080   0.058   1.608   2.648 -0.4531 -0.6720  0.0712
  771SOL     OW 3081   3.001   0.567   1.948 -0.1943 -0.2836  0.0522
  771SOL    HW1 3082   2.977   0.571   1.856 -2.3582  1.6591  2.9110
  771SOL    HW2 3083   3.096   0.571   1.946  2.5737 -1.8698  0.5464
  771SOL     MW 3084   3.011   0.568   1.935 -0.1146 -0.2366  0.4946
  772SOL     OW 3085   0.015   3.095   2.311  0.3378  0.5900 -0.3417
  772SOL    HW1 3086  -0.078   3.075   2.335  0.7565  0.7098 -2.0649
  772SOL    HW2 3087   0.061   3.010   2.305 -2.0978 -1.1908  0.0231
  772SOL     MW 3088   0.009   3.081   2.313  0.0717  0.3708 -0.5209
  773SOL     OW 3089   2.482   2.851   2.819  0.0509  0.4435 -0.2226
  773SOL    HW1 3090   2.484   2.767   2.772 -2.1224 -2.2014 -1.9177
  773SOL    HW2 3091   2.443   2.831   2.909 -0.8426  0.4550  1.9676
  773SOL     MW 3092   2.477   2.838   2.825 -0.3537  0.0960 -0.1572
  774SOL     OW 3093   2.316   1.194   1.824 -0.5174 -0.0348  0.6299
  774SOL    HW1 3094   2.335   1.278   1.775  0.1120 -1.3495 -3.6225
  774SOL    HW2 3095   2.248   1.158   1.774 -0.5415  2.6664  1.8190
  774SOL     MW 3096   2.309   1.200   1.811 -0.4375  0.1481  0.2257
  775SOL     OW 3097   2.266   2.947   2.334  0.6304  0.0417 -0.0722
  775SOL    HW1 3098   2.304   3.028   2.307 -0.1181 -0.6952  0.5923
  775SOL    HW2 3099   2.330   2.876   2.322 -0.9031 -0.1007  1.8615
  775SOL     MW 3100   2.280   2.948   2.329  0.3293 -0.0743  0.2706
  776SOL     OW 3101   0.120   1.539   0.118 -0.4822  0.2946  0.1012
  776SOL    HW1 3102   0.205   1.497   0.095 -0.3849 -4.5845  1.0982
  776SOL    HW2 3103   0.071   1.474   0.176  0.2740 -0.0632 -0.6662
  776SOL     MW 3104   0.125   1.525   0.123 -0.3696 -0.3963  0.1315
  777SOL     OW 3105   2.981   1.115   1.736  0.3459 -0.0825  0.0609
  777SOL    HW1 3106   2.951   1.172   1.663 -0.9463  0.1218 -0.4097
  777SOL    HW2 3107   2.918   1.058   1.778 -0.6592 -1.0279  0.9765
  777SOL     MW 3108   2.969   1.115   1.732  0.0428 -0.1803  0.1196
  778SOL     OW 3109   2.816   0.426   2.741 -0.7146 -0.2711 -0.6671
  778SOL    HW1 3110   2.766   0.433   2.827  1.5122  1.9176 -1.9792
  778SOL    HW2 3111   2.805   0.513   2.705  0.7885 -0.4253 -0.8224
  778SOL     MW 3112   2.808   0.439   2.748 -0.2225 -0.0027 -0.8607
  779SOL     OW 3113   2.242   0.539   2.136 -0.5977  1.0594  1.0767
  779SOL    HW1 3114   2.161   0.580   2.162 -0.8985  0.5659 -1.7648
  779SOL    HW2 3115   2.252   0.468   2.195  0.5728 -2.4933 -0.7084
  779SOL     MW 3116   2.233   0.535   2.147 -0.4830  0.5256  0.4663
  780SOL     OW 3117   0.106   0.277   2.674 -0.2060  0.8310  0.1550
  780SOL    HW1 3118   0.021   0.254   2.641 -2.5876 -0.9379 -0.4070
  780SOL    HW2 3119   0.092   0.321   2.761  3.1822 -2.5982  1.0238
  780SOL     MW 3120   0.093   0.279   2.682 -0.0732  0.1451  0.1955
  781SOL     OW 3121   3.037   1.301   2.468 -0.1189  0.5444 -0.0926
  781SOL    HW1 3122   3.017   1.345   2.384 -1.8452 -0.5591 -1.4204
  781SOL    HW2 3123   3.077   1.220   2.438 -1.5716 -0.0422  0.8819
  781SOL     MW 3124   3.039   1.296   2.453 -0.5383  0.3214 -0.1392
  782SOL     OW 3125   0.601   1.538   0.059 -0.0672  0.7383 -0.0278
  782SOL    HW1 3126   0.517   1.583   0.015  0.0302  1.6889  1.7026
  782SOL    HW2 3127   0.631   1.609   0.112  1.3468 -0.2123 -1.9793
  782SOL     MW 3128   0.594   1.553   0.060  0.1322  0.7383 -0.0570
  783SOL     OW 3129   2.695   0.623   2.426  0.5563  0.1460  0.3901
  783SOL    HW1 3130   2.649   0.638   2.340 -0.9555 -0.3078  0.6866
  783SOL    HW2 3131   2.626   0.579   2.479 -0.8988  1.3107  1.9412
  783SOL     MW 3132   2.680   0.619   2.422  0.1648  0.2398  0.6339
  784SOL     OW 3133   0.196   0.857   2.886 -0.1919  0.3038 -0.4653
  784SOL    HW1 3134   0.098   0.867   2.881 -2.7089  0.3519 -0.4791
  784SOL    HW2 3135   0.231   0.885   2.797 -0.2539 -1.3938 -1.0529
  784SOL     MW 3136   0.188   0.862   2.874 -0.5322  0.0862 -0.5447
  785SOL     OW 3137   0.443   0.434   2.207 -0.7295  0.2978 -0.0594
  785SOL    HW1 3138   0.451   0.439   2.109  1.1515  1.5524  0.8674
  785SOL    HW2 3139   0.362   0.383   2.217  1.2673 -1.2546  1.7242
  785SOL     MW 3140   0.434   0.428   2.195 -0.2179  0.2585  0.2982
  786SOL     OW 3141   1.901   0.409   2.983 -0.0113 -0.2322 -0.7371
  786SOL    HW1 3142   1.837   0.472   2.997  2.2260 -2.7004  1.4731
  786SOL    HW2 3143   1.962   0.445   2.919 -0.3822 -0.0194 -0.9516
  786SOL     MW 3144   1.900   0.422   2.976  0.2349 -0.5298 -0.4738
  787SOL     OW 3145   2.467   0.102   2.960  0.0156 -0.2888 -0.3080
  787SOL    HW1 3146   2.553   0.089   2.913  2.1607 -2.8942 -3.6614
  787SOL    HW2 3147   2.483   0.179   3.018 -0.1173  0.2423 -0.6901
  787SOL     MW 3148   2.480   0.110   2.961  0.2811 -0.5625 -0.8008
  788SOL     OW 3149   2.851   3.029   2.416  0.2631  0.6473  0.6308
  788SOL    HW1 3150   2.840   2.977   2.492  0.8281 -0.6885 -0.8879
  788SOL    HW2 3151   2.847   2.963   2.346 -2.4836  0.4911 -1.4485
  788SOL     MW 3152   2.849   3.014   2.417 -0.0248  0.4504  0.1561
  789SOL     OW 3153   0.098   0.188   3.044 -0.2331 -0.0516 -0.1350
  789SOL    HW1 3154   0.045   0.112   3.038  2.0769 -1.6548 -0.3857
  789SOL    HW2 3155   0.049   0.249   2.985 -3.9463  0.2011 -0.5548
  789SOL     MW 3156   0.085   0.186   3.035 -0.4182 -0.2298 -0.2235
  790SOL     OW 3157   3.104   1.058   2.387  0.4945 -0.8040 -0.6151
  790SOL    HW1 3158   3.079   1.017   2.474 -1.0002  0.1849 -0.2093
  790SOL    HW2 3159   3.025   1.060   2.331 -1.8049  0.7866 -3.7382
  790SOL     MW 3160   3.090   1.053   2.391 -0.0061 -0.4636 -0.9736
  791SOL     OW 3161   2.538   0.459   2.591  0.4469 -0.6337 -0.5437
  791SOL    HW1 3162   2.472   0.524   2.629 -3.8114  2.1819  2.0122
  791SOL    HW2 3163   2.578   0.419   2.666 -1.0641  1.1788  1.0723
  791SOL     MW 3164   2.535   0.462   2.606 -0.3143 -0.0230  0.0068
  792SOL     OW 3165   2.339   0.212   2.426 -0.4096 -0.0025  0.0134
  792SOL    HW1 3166   2.333   0.309   2.432 -3.4710  2.4743 -1.3781
  792SOL    HW2 3167   2.299   0.177   2.505  0.2645 -1.1868 -0.3989
  792SOL     MW 3168   2.333   0.220   2.437 -0.7246  0.1680 -0.2246
  793SOL     OW 3169   1.893   1.115   1.994  0.1917  0.9649  0.0966
  793SOL    HW1 3170   1.870   1.104   1.896  1.8328 -0.9650 -2.3643
  793SOL    HW2 3171   1.984   1.088   1.977  2.4797  0.0446  0.0169
  793SOL     MW 3172   1.902   1.110   1.979  0.7101  0.5888 -0.2386
  794SOL     OW 3173   1.398   2.344   0.136  0.4056 -0.0585 -0.1732
  794SOL    HW1 3174   1.435   2.418   0.091 -0.4081  3.9669 -2.0445
  794SOL    HW2 3175   1.456   2.338   0.214  1.2062  0.5883  0.3883
  794SOL     MW 3176   1.411   2.353   0.140  0.4039  0.5579 -0.3460
  795SOL     OW 3177   2.306   1.003   2.535 -0.3143 -0.4688  0.9875
  795SOL    HW1 3178   2.247   1.056   2.592 -1.0175  0.4573  1.0662
  795SOL    HW2 3179   2.368   1.065   2.499  1.2020 -1.6410 -0.1170
  795SOL     MW 3180   2.307   1.018   2.538 -0.2071 -0.5012  0.8522
  796SOL     OW 3181   0.260   0.624   2.756 -0.1419  0.0889  0.3600
  796SOL    HW1 3182   0.216   0.692   2.804  0.3194  1.1206 -0.9213
  796SOL    HW2 3183   0.205   0.605   2.677 -0.6311  0.6137 -0.2618
  796SOL     MW 3184   0.247   0.630   2.752 -0.1456  0.2943  0.1089
  797SOL     OW 3185   2.603   0.142   2.571  0.3986 -0.3937  0.1315
  797SOL    HW1 3186   2.513   0.191   2.557  1.8051 -0.0621 -0.8482
  797SOL    HW2 3187   2.649   0.146   2.484  3.4551 -0.8649  0.4864
  797SOL     MW 3188   2.598   0.149   2.558  0.9875 -0.4121  0.0491
  798SOL     OW 3189   2.356   0.106   2.175 -0.1906 -0.1540 -0.6322
  798SOL    HW1 3190   2.356   0.154   2.266  2.4048 -0.3306 -2.3405
  798SOL    HW2 3191   2.440   0.060   2.160  0.2938  1.1709 -0.0670
  798SOL     MW 3192   2.367   0.106   2.185  0.2158 -0.0025 -0.7831
  799SOL     OW 3193   2.554   2.973   0.138  0.0018 -0.3825 -0.5834
  799SOL    HW1 3194   2.485   2.924   0.101  1.7623  0.8532  0.2949
  799SOL    HW2 3195   2.514   2.987   0.224 -1.3530 -0.1754  0.6039
  799SOL     MW 3196   2.540   2.968   0.144  0.0553 -0.1922 -0.3109
  800SOL     OW 3197   1.930   0.060   1.745  0.0284  0.3027 -0.0078
  800SOL    HW1 3198   1.878  -0.018   1.720 -0.6806  0.2269 -1.1769
  800SOL    HW2 3199   1.994   0.026   1.803 -1.6578  0.3215  0.0973
  800SOL     MW 3200   1.932   0.045   1.749 -0.2877  0.2952 -0.1482
  801SOL     OW 3201   2.797   1.231   2.583  0.3211  0.3856  0.2694
  801SOL    HW1 3202   2.798   1.138   2.595  3.4113  0.7499 -1.5383
  801SOL    HW2 3203   2.884   1.254   2.542 -0.1158 -0.2108  0.2118
  801SOL     MW 3204   2.808   1.222   2.580  0.6712  0.3550  0.0233
  802SOL     OW 3205   2.592   1.471   2.784  0.0175  0.4152  0.0566
  802SOL    HW1 3206   2.573   1.390   2.735  2.4901  1.6007 -0.2139
  802SOL    HW2 3207   2.673   1.454   2.821 -1.1039 -1.5966 -0.3662
  802SOL     MW 3208   2.600   1.458   2.782  0.1957  0.3062 -0.0348
  803SOL     OW 3209   2.235   1.366   2.021 -0.2055 -0.8574  0.1985
  803SOL    HW1 3210   2.221   1.354   2.111 -0.1844 -1.0702 -1.0437
  803SOL    HW2 3211   2.241   1.283   1.970  0.2504 -1.4279 -1.6149
  803SOL     MW 3212   2.234   1.354   2.026 -0.1426 -0.9608 -0.2047
  804SOL     OW 3213   2.279   0.075   0.048 -0.4044  0.2622  0.2586
  804SOL    HW1 3214   2.228   0.154   0.025 -0.5007  0.0930 -1.4300
  804SOL    HW2 3215   2.355   0.066  -0.017 -2.0867 -1.0964  0.9259
  804SOL     MW 3216   2.283   0.084   0.037 -0.6391  0.0606  0.1239
  805SOL     OW 3217   2.751   0.956   2.599  0.2324 -0.4276 -0.2375
  805SOL    HW1 3218   2.669   0.911   2.581  0.8290  0.2351 -1.5872
  805SOL    HW2 3219   2.809   0.882   2.601 -1.2658  1.5320 -1.3875
  805SOL     MW 3220   2.748   0.940   2.597  0.1134 -0.0816 -0.5673
  806SOL     OW 3221   2.504   0.687   2.191 -0.3691 -0.6301  0.2307
  806SOL    HW1 3222   2.429   0.671   2.132  0.8647 -1.5736 -1.1931
  806SOL    HW2 3223   2.521   0.780   2.178 -0.6318 -2.9874 -0.5605
  806SOL     MW 3224   2.496   0.697   2.181 -0.2409 -1.0656 -0.0615
  807SOL     OW 3225   0.065   1.078   2.046 -0.3831  0.1154  0.1884
  807SOL    HW1 3226   0.106   0.989   2.063 -0.7469 -3.7788 -2.9317
  807SOL    HW2 3227  -0.028   1.069   2.082  0.4771  0.1871  1.2064
  807SOL     MW 3228   0.058   1.065   2.053 -0.3176 -0.3890 -0.0889
  808SOL     OW 3229   2.647   3.068   2.773  0.5594  0.1409 -0.0380
  808SOL    HW1 3230   2.585   2.997   2.784  2.2731 -2.2104 -0.6642
  808SOL    HW2 3231   2.622   3.119   2.697 -0.8194  0.6750  3.3490
  808SOL     MW 3232   2.635   3.066   2.764  0.6036 -0.0988  0.3262
  809SOL     OW 3233   2.631   1.345   2.420 -0.3896  0.4178  0.5108
  809SOL    HW1 3234   2.682   1.294   2.481  1.6255  3.1163  1.7839
  809SOL    HW2 3235   2.681   1.333   2.332 -1.9100  2.4910 -0.9636
  809SOL     MW 3236   2.644   1.337   2.417 -0.3243  1.0474  0.4842
  810SOL     OW 3237   2.225   1.318   2.306  0.0609 -0.0881 -0.2214
  810SOL    HW1 3238   2.290   1.248   2.310 -1.8535  1.1675  1.8358
  810SOL    HW2 3239   2.194   1.336   2.393  1.7687  0.8051 -0.9332
  810SOL     MW 3240   2.230   1.311   2.318  0.0336  0.1954 -0.0439
  811SOL     OW 3241   1.530   0.128   2.312 -0.2322  0.3195  0.1304
  811SOL    HW1 3242   1.617   0.110   2.347 -0.1580 -2.6233  2.9269
  811SOL    HW2 3243   1.542   0.121   2.216  0.9424 -1.8706  0.6149
  811SOL     MW 3244   1.543   0.125   2.304 -0.0674 -0.3577  0.5633
  812SOL     OW 3245   1.470   2.805   2.004  0.1709 -0.5032  0.0257
  812SOL    HW1 3246   1.555   2.825   1.966 -0.7758 -1.5104  1.4433
  812SOL    HW2 3247   1.487   2.803   2.100  0.4050 -1.0854 -1.0981
  812SOL     MW 3248   1.483   2.808   2.011  0.0769 -0.7129  0.0644
  813SOL     OW 3249   1.996   0.610   2.236  0.3100 -0.0275  0.0556
  813SOL    HW1 3250   1.919   0.555   2.218 -3.7800 -1.3149 -1.2151
  813SOL    HW2 3251   1.962   0.687   2.287 -0.3076 -0.6394  0.9196
  813SOL     MW 3252   1.982   0.613   2.240 -0.3111 -0.2781  0.0019
  814SOL     OW 3253   2.723   1.266   1.656 -0.4856  0.5647  0.2693
  814SOL    HW1 3254   2.671   1.212   1.722 -1.7979 -0.9545 -1.2664
  814SOL    HW2 3255   2.702   1.225   1.572  0.2486 -0.9170 -2.2824
  814SOL     MW 3256   2.713   1.254   1.654 -0.5619  0.1688 -0.2700
  815SOL     OW 3257   2.587   1.758   2.392 -0.2481 -0.4103  0.1987
  815SOL    HW1 3258   2.521   1.681   2.385 -1.0842 -0.3099  1.8678
  815SOL    HW2 3259   2.679   1.729   2.400  2.3100 -1.5775  1.8683
  815SOL     MW 3260   2.590   1.744   2.392 -0.0209 -0.5511  0.6392
  816SOL     OW 3261   0.716   0.728   2.734  0.4117  0.3067  0.2307
  816SOL    HW1 3262   0.727   0.633   2.764 -0.0158 -2.3923  0.7166
  816SOL    HW2 3263   0.621   0.725   2.684  0.2600  4.0071 -0.3966
  816SOL     MW 3264   0.705   0.715   2.731  0.3353  0.4388  0.2120
  817SOL     OW 3265   2.980   1.206   1.461  0.1781 -0.4716 -0.5092
  817SOL    HW1 3266   3.071   1.180   1.453 -1.8032  1.9253 -0.7856
  817SOL    HW2 3267   2.969   1.296   1.418 -0.3132  1.0926  2.1401
  817SOL     MW 3268   2.991   1.215   1.454 -0.1482  0.0511 -0.1961
  818SOL     OW 3269   1.913   1.084   2.663 -0.3635 -0.6416  0.4580
  818SOL    HW1 3270   1.897   1.032   2.582 -0.3061 -0.2165  1.7545
  818SOL    HW2 3271   2.002   1.060   2.689  1.7145  1.0660 -0.4440
  818SOL     MW 3272   1.923   1.074   2.656 -0.0817 -0.3602  0.5101
  819SOL     OW 3273   1.989   0.278   2.528  0.0957 -0.2121 -0.1068
  819SOL    HW1 3274   1.913   0.340   2.506 -1.2044  0.0179 -2.5944
  819SOL    HW2 3275   1.998   0.272   2.625  0.6894  0.3426 -0.0290
  819SOL     MW 3276   1.980   0.286   2.538  0.0025 -0.1085 -0.4247
  820SOL     OW 3277   2.517   1.721   2.690  0.3590 -0.4956 -0.3120
  820SOL    HW1 3278   2.561   1.645   2.729 -1.5927  0.5953 -0.4222
  820SOL    HW2 3279   2.538   1.717   2.595  1.4919 -0.4781 -0.8792
  820SOL     MW 3280   2.526   1.710   2.683  0.2510 -0.3493 -0.4014
  821SOL     OW 3281   2.545   1.361   2.008  1.0536  0.2148  0.1123
  821SOL    HW1 3282   2.574   1.399   1.928 -2.4565 -1.5366  2.2583
  821SOL    HW2 3283   2.449   1.352   2.020 -2.3609  0.2743 -1.2605
  821SOL     MW 3284   2.536   1.365   1.999  0.1400 -0.0085  0.2143
  822SOL     OW 3285   2.825   2.677   1.429 -0.5418  0.2166 -0.5038
  822SOL    HW1 3286   2.853   2.664   1.523  0.6264 -1.7609  0.6539
  822SOL    HW2 3287   2.834   2.773   1.415 -0.2421 -0.5735  0.2045
  822SOL     MW 3288   2.830   2.688   1.439 -0.3481 -0.1486 -0.2576
  823SOL     OW 3289   2.390   0.491   1.825  0.0333  0.2269 -0.5583
  823SOL    HW1 3290   2.469   0.441   1.789 -4.6412 -3.0302  1.4021
  823SOL    HW2 3291   2.358   0.442   1.898  0.1353 -1.9573 -1.2416
  823SOL     MW 3292   2.396   0.478   1.830 -0.5700 -0.4910 -0.3898
  824SOL     OW 3293   2.201   1.438   2.592 -0.9746 -0.7593 -0.4770
  824SOL    HW1 3294   2.286   1.481   2.567  0.5522 -2.7678 -2.5692
  824SOL    HW2 3295   2.158   1.505   2.643 -0.8380  0.3759 -0.5699
  824SOL     MW 3296   2.206   1.453   2.595 -0.7551 -0.8745 -0.7653
  825SOL     OW 3297   1.922   2.507   0.273 -0.6261 -0.5203  0.5271
  825SOL    HW1 3298   1.880   2.448   0.330  2.8220  0.4138 -1.3278
  825SOL    HW2 3299   1.979   2.459   0.212  0.8708 -1.1720  0.1973
  825SOL     MW 3300   1.924   2.493   0.272  0.0263 -0.4831  0.2388
  826SOL     OW 3301   1.801   2.385   0.494 -0.0587  0.5975  0.3485
  826SOL    HW1 3302   1.760   2.312   0.545  0.3999  0.1697 -0.1674
  826SOL    HW2 3303   1.794   2.459   0.551  2.4635  0.0607 -0.1406
  826SOL     MW 3304   1.795   2.385   0.509  0.3346  0.4702  0.2159
  827SOL     OW 3305   1.911   2.195   0.791  0.3024  0.0831  0.3907
  827SOL    HW1 3306   1.839   2.198   0.726  0.6812 -0.2593  0.8746
  827SOL    HW2 3307   1.853   2.147   0.857 -3.2033 -0.9677 -1.3939
  827SOL     MW 3308   1.894   2.189   0.791 -0.1102 -0.1008  0.2191
  828SOL     OW 3309   0.052   2.564   0.569 -0.3999 -0.5069 -0.0853
  828SOL    HW1 3310   0.149   2.577   0.560 -0.1681 -2.3181 -0.0394
  828SOL    HW2 3311   0.022   2.614   0.497 -0.9357  0.2872  2.1770
  828SOL     MW 3312   0.061   2.572   0.558 -0.4400 -0.6411  0.2192
  829SOL     OW 3313   2.977   2.925   1.164 -0.1165  0.4862 -0.5116
  829SOL    HW1 3314   2.902   2.913   1.100 -0.5586 -1.8390 -1.2718
  829SOL    HW2 3315   3.036   2.850   1.145  0.7916  2.0163  0.2707
  829SOL     MW 3316   2.975   2.913   1.153 -0.0550  0.3813 -0.5087
  830SOL     OW 3317   2.581   2.812   2.019  0.1765 -0.3742  0.3072
  830SOL    HW1 3318   2.482   2.828   1.996 -2.4701  1.9684 -1.9251
  830SOL    HW2 3319   2.618   2.785   1.935  0.8486  1.6369 -1.1788
  830SOL     MW 3320   2.573   2.811   2.004 -0.0840  0.2002 -0.1834
  831SOL     OW 3321   2.359   2.473   1.196  0.1336  0.4138  0.5524
  831SOL    HW1 3322   2.334   2.429   1.276 -0.7967 -3.3114 -0.1350
  831SOL    HW2 3323   2.451   2.447   1.169 -0.6974 -0.8489  1.0542
  831SOL     MW 3324   2.368   2.464   1.203 -0.0988 -0.2443  0.5279
  832SOL     OW 3325   2.360   2.212   1.889 -0.0208 -0.7588  0.6257
  832SOL    HW1 3326   2.381   2.293   1.935  0.9101  2.8346 -1.2119
  832SOL    HW2 3327   2.447   2.177   1.873  1.2148 -0.4988  0.7696
  832SOL     MW 3328   2.374   2.218   1.893  0.2650 -0.2504  0.4022
  833SOL     OW 3329   1.708   2.464   0.858  0.1438  0.1586  0.1470
  833SOL    HW1 3330   1.637   2.423   0.906  3.2961  1.2961  1.6858
  833SOL    HW2 3331   1.735   2.533   0.914 -1.8238 -3.7557 -2.9227
  833SOL     MW 3332   1.702   2.468   0.872  0.3001 -0.2077 -0.0550
  834SOL     OW 3333   2.091   2.449   0.562  0.9895  0.3626  0.4961
  834SOL    HW1 3334   2.007   2.425   0.533  0.0813 -2.1376  0.7964
  834SOL    HW2 3335   2.141   2.399   0.491 -0.2262  1.7633  0.5762
  834SOL     MW 3336   2.086   2.439   0.549  0.7093  0.2176  0.5463
  835SOL     OW 3337   1.783   2.611   0.650 -0.7262 -0.5695  0.3512
  835SOL    HW1 3338   1.752   2.558   0.733  1.0938 -1.0851  0.7207
  835SOL    HW2 3339   1.852   2.660   0.696 -2.3272 -0.7319 -4.2905
  835SOL     MW 3340   1.788   2.610   0.667 -0.6973 -0.6590 -0.2125
  836SOL     OW 3341   1.948   2.213   1.614 -0.0581  0.2477  0.2155
  836SOL    HW1 3342   2.033   2.251   1.644 -0.3945  0.2916  1.4605
  836SOL    HW2 3343   1.881   2.260   1.662 -1.4250 -1.3762  0.0821
  836SOL     MW 3344   1.951   2.224   1.624 -0.2829  0.0392  0.3621
  837SOL     OW 3345   2.110   0.220   0.669 -0.5972  0.0741  0.0624
  837SOL    HW1 3346   2.018   0.249   0.671 -1.9940 -1.1881 -0.5840
  837SOL    HW2 3347   2.110   0.135   0.623 -1.4997 -0.8695  1.4492
  837SOL     MW 3348   2.098   0.212   0.663 -0.9006 -0.2169  0.1601
  838SOL     OW 3349   2.946   2.041   0.915 -0.2304  0.1097 -0.0838
  838SOL    HW1 3350   2.876   1.998   0.964  0.6286 -2.0747 -0.6348
  838SOL    HW2 3351   2.984   1.970   0.867  1.5751  2.2148 -0.4814
  838SOL     MW 3352   2.942   2.026   0.915  0.1212  0.0992 -0.2090
  839SOL     OW 3353   1.485   2.342   1.004 -0.5047  0.2963 -0.1538
  839SOL    HW1 3354   1.500   2.394   1.084 -0.0074  0.3975 -1.9497
  839SOL    HW2 3355   1.504   2.255   1.025  0.7341  0.1907 -5.2944
  839SOL     MW 3356   1.490   2.337   1.017 -0.2756  0.2957 -1.0690
  840SOL     OW 3357   2.367   2.156   2.448 -0.1920 -0.0023 -0.4303
  840SOL    HW1 3358   2.309   2.225   2.410  1.1735  0.3567  1.5867
  840SOL    HW2 3359   2.366   2.181   2.538  0.7930 -0.5030 -1.8461
  840SOL     MW 3360   2.359   2.168   2.455  0.1181 -0.0210 -0.3509
  841SOL     OW 3361   2.118   2.428   0.133 -0.2883  0.2503  0.1425
  841SOL    HW1 3362   2.151   2.482   0.061  0.9082 -0.0382 -0.9010
  841SOL    HW2 3363   2.075   2.352   0.086  2.1675 -1.1386  1.5051
  841SOL     MW 3364   2.117   2.425   0.117  0.1936  0.0290  0.1846
  842SOL     OW 3365   2.603   2.082   1.542 -0.1962 -0.0513  0.0316
  842SOL    HW1 3366   2.544   2.007   1.551  0.8924  1.0425 -0.5732
  842SOL    HW2 3367   2.589   2.083   1.447  0.8475  0.3876  1.0462
  842SOL     MW 3368   2.593   2.072   1.530  0.0852  0.1510  0.0857
  843SOL     OW 3369   2.684   2.789   1.768 -0.4790 -0.0246  0.2397
  843SOL    HW1 3370   2.770   2.743   1.737  0.6549 -1.3553 -2.4959
  843SOL    HW2 3371   2.621   2.715   1.756 -1.7602 -3.1391 -3.3113
  843SOL     MW 3372   2.687   2.773   1.762 -0.4985 -0.6111 -0.5898
  844SOL     OW 3373   2.586   2.337   1.152 -0.2597 -0.7068 -0.0612
  844SOL    HW1 3374   2.628   2.366   1.071  1.2936  1.1114  2.6871
  844SOL    HW2 3375   2.655   2.355   1.216  1.3424  1.8060 -0.1270
  844SOL     MW 3376   2.600   2.343   1.150  0.1566 -0.1354  0.2928
  845SOL     OW 3377   2.829   2.448   0.301 -0.0589 -0.2545 -0.0055
  845SOL    HW1 3378   2.763   2.376   0.303  1.4359 -2.5692 -2.6783
  845SOL    HW2 3379   2.839   2.486   0.386 -1.2256 -0.9409 -2.1264
  845SOL     MW 3380   2.821   2.444   0.312 -0.0156 -0.6505 -0.6380
  846SOL     OW 3381   1.539   2.880   0.777  0.5922  0.6132 -0.9889
  846SOL    HW1 3382   1.576   2.899   0.862 -0.3071 -0.4996 -0.5664
  846SOL    HW2 3383   1.449   2.899   0.790 -2.3334 -0.3476 -2.3978
  846SOL     MW 3384   1.532   2.885   0.790  0.0876  0.3396 -1.1190
  847SOL     OW 3385   2.606   1.929   0.182 -0.4152  0.4962 -0.0904
  847SOL    HW1 3386   2.692   1.884   0.200  1.2606 -2.2595 -0.9130
  847SOL    HW2 3387   2.565   1.871   0.111 -0.1963  1.1814 -1.9698
  847SOL     MW 3388   2.612   1.915   0.175 -0.1652  0.2230 -0.4469
  848SOL     OW 3389   2.483   2.147   1.313 -0.3773 -0.4894  0.1551
  848SOL    HW1 3390   2.533   2.204   1.252  0.3812  3.9062 -0.9786
  848SOL    HW2 3391   2.437   2.081   1.262  0.0021  1.5171 -0.3251
  848SOL     MW 3392   2.483   2.146   1.298 -0.2272  0.3553 -0.0578
  849SOL     OW 3393   1.977   2.778   0.754  0.4508  0.1434 -0.5868
  849SOL    HW1 3394   2.011   2.728   0.833 -1.4781  2.7077  2.3615
  849SOL    HW2 3395   2.066   2.775   0.706  0.6311  0.3834  0.4093
  849SOL     MW 3396   1.993   2.771   0.758  0.2201  0.5134 -0.0664
  850SOL     OW 3397   2.206   1.948   1.688  0.5811 -0.6269 -0.1379
  850SOL    HW1 3398   2.116   1.909   1.668 -1.4614  0.8663  0.9447
  850SOL    HW2 3399   2.182   2.042   1.707  2.6904  2.5199  0.2131
  850SOL     MW 3400   2.191   1.955   1.688  0.5899 -0.0147  0.0513
  851SOL     OW 3401   2.254   2.362   0.363  0.0878 -0.1098 -0.6535
  851SOL    HW1 3402   2.195   2.374   0.288  2.5927 -2.7554  3.3998
  851SOL    HW2 3403   2.320   2.431   0.354 -2.2428  2.0124  1.5306
  851SOL     MW 3404   2.255   2.373   0.352  0.1108 -0.1788  0.1695
  852SOL     OW 3405   2.286   2.190   0.186  0.4539  0.1645  0.3572
  852SOL    HW1 3406   2.293   2.259   0.258  0.6312  0.5182  0.9880
  852SOL    HW2 3407   2.378   2.173   0.159 -1.7092  0.6391 -0.6081
  852SOL     MW 3408   2.299   2.197   0.192  0.1919  0.2738  0.3131
  853SOL     OW 3409   2.464   2.435   1.988  0.5546 -0.0295 -0.0947
  853SOL    HW1 3410   2.471   2.496   1.915 -3.4777  1.1874 -0.0695
  853SOL    HW2 3411   2.561   2.430   2.021  1.0685  2.0110  1.6867
  853SOL     MW 3412   2.478   2.442   1.983  0.0904  0.4003  0.1437
  854SOL     OW 3413   2.848   2.267   0.782 -0.4105  0.4162  0.4364
  854SOL    HW1 3414   2.766   2.227   0.753  1.1727 -1.3160  0.0622
  854SOL    HW2 3415   2.894   2.198   0.832  1.8808  1.5559  0.0422
  854SOL     MW 3416   2.843   2.253   0.785  0.1007  0.3381  0.3350
  855SOL     OW 3417   2.660   2.235   0.327 -0.1928 -0.3798 -0.3536
  855SOL    HW1 3418   2.625   2.275   0.409 -0.4734  0.6975  2.7749
  855SOL    HW2 3419   2.740   2.194   0.347  0.1661  2.2481 -1.3609
  855SOL     MW 3420   2.666   2.235   0.341 -0.1825  0.1090 -0.0737
  856SOL     OW 3421   2.176   1.950   0.227  0.3414  0.1526 -0.2768
  856SOL    HW1 3422   2.080   1.948   0.220 -0.1728  0.6177 -1.1070
  856SOL    HW2 3423   2.208   2.041   0.226  0.2270  0.4093  1.7530
  856SOL     MW 3424   2.168   1.962   0.226  0.2585  0.2478 -0.1185
  857SOL     OW 3425   2.580   1.973   0.485  0.0730  0.8518  0.4539
  857SOL    HW1 3426   2.568   1.978   0.390  2.7623  2.4644 -3.9865
  857SOL    HW2 3427   2.495   1.943   0.519  3.4985  0.3845 -0.9210
  857SOL     MW 3428   2.567   1.970   0.477  0.8798  1.0029 -0.3134
  858SOL     OW 3429   2.909   2.633   1.691  0.1654  0.3174 -0.4774
  858SOL    HW1 3430   2.990   2.666   1.738  0.0860  0.9486 -0.4073
  858SOL    HW2 3431   2.888   2.542   1.725 -2.6616  2.4458 -1.1295
  858SOL     MW 3432   2.917   2.625   1.701 -0.2181  0.6815 -0.5542
  859SOL     OW 3433   2.119   2.492   0.852  0.1467  0.1721  0.2073
  859SOL    HW1 3434   2.110   2.467   0.755  0.2007 -0.0377 -0.6046
  859SOL    HW2 3435   2.186   2.436   0.883  0.7466 -1.5303 -0.1511
  859SOL     MW 3436   2.127   2.482   0.843  0.2329 -0.0802  0.0529
  860SOL     OW 3437   2.640   2.580   0.142 -0.0356 -0.3636 -0.1949
  860SOL    HW1 3438   2.714   2.542   0.199  1.8272  0.7940 -0.5392
  860SOL    HW2 3439   2.675   2.667   0.110  3.9828 -0.0501 -0.7766
  860SOL     MW 3440   2.655   2.586   0.145  0.7403 -0.1695 -0.3171
  861SOL     OW 3441   1.579   2.139   1.224 -0.3925  0.2080  0.2431
  861SOL    HW1 3442   1.618   2.165   1.313 -2.5504 -0.0884 -0.2280
  861SOL    HW2 3443   1.513   2.069   1.239 -0.7520  0.2854 -0.4170
  861SOL     MW 3444   1.576   2.133   1.237 -0.7246  0.1791  0.0938
  862SOL     OW 3445   2.405   1.895   1.500 -0.5152  0.1391 -0.1642
  862SOL    HW1 3446   2.328   1.921   1.555  1.1886 -0.6287  0.5050
  862SOL    HW2 3447   2.390   1.896   1.408  1.3830  1.0568 -1.1853
  862SOL     MW 3448   2.393   1.898   1.495 -0.0400  0.1589 -0.2106
  863SOL     OW 3449   0.002   1.765   1.203  0.9315  0.4019 -0.1006
  863SOL    HW1 3450   0.071   1.763   1.141  1.2872 -1.4934  0.4192
  863SOL    HW2 3451  -0.030   1.853   1.218 -1.2397 -3.4846  0.0547
  863SOL     MW 3452   0.007   1.776   1.197  0.6919 -0.3609 -0.0115
  864SOL     OW 3453   0.017   1.837   0.812 -0.2724  0.0484  0.5435
  864SOL    HW1 3454  -0.039   1.793   0.878 -0.5838 -0.8014  1.0552
  864SOL    HW2 3455  -0.011   1.808   0.725  0.2301  1.0035 -0.9662
  864SOL     MW 3456   0.006   1.827   0.809 -0.2472  0.0623  0.4119
  865SOL     OW 3457   2.530   2.168   0.065  0.4678 -0.1407  0.0310
  865SOL    HW1 3458   2.574   2.096   0.096 -1.6712  1.9258 -1.7004
  865SOL    HW2 3459   2.505   2.140  -0.024 -0.6703 -2.1860  0.9703
  865SOL     MW 3460   2.533   2.155   0.057  0.0354 -0.1379 -0.0735
  866SOL     OW 3461   2.629   2.345   1.625 -0.2965 -0.4704 -0.4598
  866SOL    HW1 3462   2.613   2.245   1.631  0.1631 -1.6049  0.8221
  866SOL    HW2 3463   2.652   2.349   1.529  1.1692  3.9736 -0.6516
  866SOL     MW 3464   2.630   2.333   1.613 -0.0424 -0.0337 -0.3160
  867SOL     OW 3465   0.033   2.729   1.814  0.3518 -0.7186 -0.0810
  867SOL    HW1 3466   0.018   2.748   1.909 -0.2766 -2.4348 -0.8798
  867SOL    HW2 3467  -0.002   2.806   1.769 -1.1629  1.9164  1.4961
  867SOL     MW 3468   0.026   2.741   1.821  0.0690 -0.5974  0.0217
  868SOL     OW 3469   2.782   2.583   0.568  0.4188  0.1635  0.4808
  868SOL    HW1 3470   2.706   2.523   0.551 -0.5560 -0.5837 -0.0278
  868SOL    HW2 3471   2.765   2.669   0.520  2.8179 -0.5242 -1.7788
  868SOL     MW 3472   2.769   2.586   0.560  0.6067 -0.0258  0.1156
  869SOL     OW 3473   1.973   2.338   1.034  0.3670  0.1238  0.0814
  869SOL    HW1 3474   2.013   2.404   0.979  0.9425  0.0845  1.1018
  869SOL    HW2 3475   1.963   2.273   0.974  1.6794 -0.8199  2.8992
  869SOL     MW 3476   1.977   2.338   1.019  0.6161 -0.0059  0.5878
  870SOL     OW 3477   2.189   0.005   0.473 -0.3366 -0.4241 -0.6135
  870SOL    HW1 3478   2.255   0.059   0.420 -0.3536 -1.1867  1.4291
  870SOL    HW2 3479   2.244  -0.071   0.493 -1.1587  0.4172  0.5516
  870SOL     MW 3480   2.205   0.002   0.469 -0.4473 -0.4137 -0.1903
  871SOL     OW 3481   2.471   2.035   0.936 -0.2042  1.5917  0.2659
  871SOL    HW1 3482   2.421   1.993   0.870  1.6718  1.0058  0.3082
  871SOL    HW2 3483   2.432   2.118   0.958 -0.9438  0.7218  0.2507
  871SOL     MW 3484   2.460   2.041   0.930 -0.0542  1.3996  0.2695
  872SOL     OW 3485   2.039   2.528   1.429  0.2719  0.1304  0.1064
  872SOL    HW1 3486   2.015   2.558   1.513  1.2607 -1.6505  1.6676
  872SOL    HW2 3487   1.980   2.460   1.401 -0.4750 -0.2252  0.4760
  872SOL     MW 3488   2.028   2.523   1.436  0.3038 -0.1515  0.3611
  873SOL     OW 3489   2.833   2.099   1.956  0.0135  0.0004 -0.0974
  873SOL    HW1 3490   2.862   2.144   2.037  1.8318  1.0516  2.1852
  873SOL    HW2 3491   2.903   2.118   1.896 -1.5184 -0.7247  2.1563
  873SOL     MW 3492   2.846   2.107   1.959  0.0513  0.0434  0.5011
  874SOL     OW 3493   2.405   1.532   2.434 -0.7571  0.9568  0.5947
  874SOL    HW1 3494   2.330   1.501   2.379  1.1276  0.9902 -0.1436
  874SOL    HW2 3495   2.466   1.454   2.431  1.6207 -1.9732 -0.2335
  874SOL     MW 3496   2.403   1.518   2.426 -0.1947  0.5746  0.3880
  875SOL     OW 3497   2.329   2.265   0.972 -0.1093 -0.8038  0.5850
  875SOL    HW1 3498   2.374   2.318   0.906  0.0049 -0.4200  0.6825
  875SOL    HW2 3499   2.322   2.327   1.049 -0.1785  1.0181 -0.7623
  875SOL     MW 3500   2.334   2.280   0.973 -0.1034 -0.5128  0.4201
  876SOL     OW 3501   3.011   2.342   1.275  0.1587  0.2327 -0.3948
  876SOL    HW1 3502   3.055   2.383   1.199 -3.3727 -1.1343  1.0238
  876SOL    HW2 3503   3.071   2.377   1.341 -2.4799  1.2297  0.3485
  876SOL     MW 3504   3.025   2.352   1.273 -0.6554  0.1839 -0.1095
  877SOL     OW 3505   3.050   2.729   0.351  0.4320 -0.2498  0.6047
  877SOL    HW1 3506   3.019   2.795   0.286 -1.5144 -3.1981 -2.6528
  877SOL    HW2 3507   3.073   2.656   0.294  2.0459 -0.5359  1.7699
  877SOL     MW 3508   3.049   2.728   0.335  0.3881 -0.6766  0.3286
  878SOL     OW 3509   2.331   1.836   1.228  0.9618 -0.1154  0.3933
  878SOL    HW1 3510   2.287   1.750   1.228 -1.5445  2.7091  3.4458
  878SOL    HW2 3511   2.421   1.808   1.238  1.1248  3.2518  2.3602
  878SOL     MW 3512   2.337   1.821   1.229  0.6526  0.7016  1.0556
  879SOL     OW 3513   2.674   2.428   0.921 -0.3963  0.7076 -0.0783
  879SOL    HW1 3514   2.733   2.492   0.958 -2.3132 -2.0253 -1.9671
  879SOL    HW2 3515   2.731   2.384   0.850 -0.0409 -2.5802 -1.5595
  879SOL     MW 3516   2.689   2.431   0.917 -0.6023 -0.0867 -0.5230
  880SOL     OW 3517   2.602   2.192   0.685 -0.4214  0.1544 -0.1254
  880SOL    HW1 3518   2.547   2.172   0.764 -0.9989 -1.1470  0.3812
  880SOL    HW2 3519   2.596   2.116   0.634  0.1281  1.7481  0.0568
  880SOL     MW 3520   2.594   2.180   0.689 -0.4251  0.1930 -0.0345
  881SOL     OW 3521   2.968   2.696   0.749 -0.0476 -0.2157  0.0065
  881SOL    HW1 3522   2.891   2.674   0.696 -1.8627 -0.5916  1.0070
  881SOL    HW2 3523   3.045   2.660   0.703 -0.5100  1.5593  0.5903
  881SOL     MW 3524   2.968   2.688   0.736 -0.3481 -0.0311  0.2156
  882SOL     OW 3525   2.310   2.799   1.957 -0.0878 -0.1500  0.3488
  882SOL    HW1 3526   2.286   2.796   1.862 -1.4278  0.5476 -2.3221
  882SOL    HW2 3527   2.235   2.746   1.985 -1.4009  0.1452  0.7421
  882SOL     MW 3528   2.297   2.792   1.948 -0.4379 -0.0190  0.0483
  883SOL     OW 3529   2.288   2.327   1.418  0.1872  0.4894  0.1369
  883SOL    HW1 3530   2.364   2.268   1.401  1.5594  0.5064 -2.3092
  883SOL    HW2 3531   2.212   2.289   1.366 -1.1815  0.0895 -1.4227
  883SOL     MW 3532   2.288   2.315   1.409  0.1876  0.4389 -0.3916
  884SOL     OW 3533   1.887   1.878   1.112  0.5938 -0.4583  0.0531
  884SOL    HW1 3534   1.838   1.958   1.080  1.3512  0.6868 -1.9494
  884SOL    HW2 3535   1.982   1.903   1.109 -1.7438 -0.3498 -1.7727
  884SOL     MW 3536   1.893   1.892   1.108  0.3853 -0.2929 -0.4520
  885SOL     OW 3537   2.806   2.409   1.825  0.3097 -0.4334  0.5552
  885SOL    HW1 3538   2.891   2.372   1.833 -2.4262  1.1103 -1.5520
  885SOL    HW2 3539   2.757   2.369   1.750 -1.9377 -0.7998 -0.8381
  885SOL     MW 3540   2.811   2.399   1.816 -0.3478 -0.2781  0.0933
  886SOL     OW 3541   2.755   2.395   1.337 -0.4449 -0.9481  0.3828
  886SOL    HW1 3542   2.850   2.377   1.314  0.2056 -0.2906  1.6727
  886SOL    HW2 3543   2.757   2.482   1.369  1.0147 -2.9585  0.2505
  886SOL     MW 3544   2.768   2.404   1.338 -0.1665 -1.1266  0.5355
  887SOL     OW 3545   2.305   2.634   1.504  0.3699 -0.0285  0.3878
  887SOL    HW1 3546   2.337   2.697   1.434 -0.0811  1.0016  2.9974
  887SOL    HW2 3547   2.221   2.611   1.463  0.0070  2.4094 -1.5816
  887SOL     MW 3548   2.298   2.639   1.490  0.2625  0.4291  0.4723
  888SOL     OW 3549   1.861   2.058   1.403  0.3473 -0.2384  0.5147
  888SOL    HW1 3550   1.944   2.060   1.355 -0.4961 -1.2249  2.0661
  888SOL    HW2 3551   1.879   2.102   1.487 -1.8407 -1.2040  2.3627
  888SOL     MW 3552   1.874   2.064   1.408 -0.0526 -0.4959  0.9632
  889SOL     OW 3553   2.341   2.007   2.088 -0.0763  0.1331  0.1342
  889SOL    HW1 3554   2.430   2.025   2.125  0.9128  0.1801  0.2717
  889SOL    HW2 3555   2.330   2.075   2.017  1.6654  2.5211  2.7409
  889SOL     MW 3556   2.351   2.018   2.083  0.2840  0.4544  0.4963
  890SOL     OW 3557   0.087   2.305   0.152  0.3175  0.4991  0.5139
  890SOL    HW1 3558   0.051   2.397   0.149 -1.0421  0.7953  1.3787
  890SOL    HW2 3559   0.071   2.268   0.241 -2.5000  3.0020 -1.5316
  890SOL     MW 3560   0.080   2.313   0.163 -0.2337  0.8684  0.3581
  891SOL     OW 3561   3.025   2.024   1.304 -0.3846 -0.0542  0.0860
  891SOL    HW1 3562   3.088   2.039   1.382  1.5285 -0.4369  1.0007
  891SOL    HW2 3563   3.019   2.116   1.268 -1.5150 -1.0157 -0.0454
  891SOL     MW 3564   3.032   2.038   1.309 -0.2814 -0.2316  0.1893
  892SOL     OW 3565   2.372   2.381   2.945  0.2440 -0.7592 -0.2697
  892SOL    HW1 3566   2.392   2.299   2.985 -0.5370  0.3369 -0.9858
  892SOL    HW2 3567   2.457   2.431   2.950  1.0483 -1.8156 -1.0797
  892SOL     MW 3568   2.386   2.377   2.951  0.2471 -0.7540 -0.4711
  893SOL     OW 3569   1.594   2.472   1.213  0.2941 -0.8595  0.0385
  893SOL    HW1 3570   1.530   2.458   1.285 -1.1702  1.7417  1.5139
  893SOL    HW2 3571   1.659   2.416   1.248 -1.6722  1.5703  1.1839
  893SOL     MW 3572   1.594   2.463   1.227 -0.1585 -0.1957  0.3843
  894SOL     OW 3573   2.838   1.899   0.462  0.1457 -0.4392 -0.0687
  894SOL    HW1 3574   2.750   1.927   0.460  1.2817  1.6038  3.4863
  894SOL    HW2 3575   2.855   1.846   0.376  2.1042  0.4983 -1.6335
  894SOL     MW 3576   2.829   1.896   0.451  0.5540 -0.0460  0.1939
  895SOL     OW 3577   2.074   2.185   1.258 -0.0818  0.6873 -0.3962
  895SOL    HW1 3578   2.040   2.244   1.189  3.5101 -0.9925 -0.3623
  895SOL    HW2 3579   2.094   2.111   1.200 -0.7840 -0.2383  0.5713
  895SOL     MW 3580   2.072   2.183   1.241  0.2994  0.3436 -0.2641
  896SOL     OW 3581   2.169   2.836   1.115 -0.1462  0.1608 -0.0434
  896SOL    HW1 3582   2.249   2.812   1.158  1.4934  0.6121 -1.0333
  896SOL    HW2 3583   2.103   2.765   1.144 -0.3123 -1.0092 -0.3792
  896SOL     MW 3584   2.171   2.824   1.125  0.0482  0.0660 -0.2183
  897SOL     OW 3585   2.987   2.927   0.167 -0.3764  0.0140 -0.6103
  897SOL    HW1 3586   3.077   2.947   0.134 -0.8171 -0.7663 -1.7216
  897SOL    HW2 3587   2.926   2.909   0.087  1.8515 -0.5247 -2.3006
  897SOL     MW 3588   2.991   2.927   0.152 -0.1406 -0.1600 -0.9799
  898SOL     OW 3589   2.077   0.198   1.463  0.2861  0.2865  0.3691
  898SOL    HW1 3590   2.015   0.127   1.434  2.0687 -0.5990  1.2237
  898SOL    HW2 3591   2.133   0.212   1.387  1.4403 -0.1956  0.6954
  898SOL     MW 3592   2.076   0.190   1.449  0.6736  0.1061  0.5249
  899SOL     OW 3593   2.918   2.976   0.675 -0.2369 -0.0731 -0.1949
  899SOL    HW1 3594   2.950   2.889   0.705  1.0426 -0.1740 -0.2729
  899SOL    HW2 3595   2.850   3.006   0.732 -0.5098 -0.0040 -0.3303
  899SOL     MW 3596   2.913   2.968   0.687 -0.1041 -0.0773 -0.2230
  900SOL     OW 3597   0.147   2.388   1.082 -0.0698  0.8669 -0.4596
  900SOL    HW1 3598   0.152   2.476   1.040 -0.0941  1.1224 -2.1704
  900SOL    HW2 3599   0.112   2.337   1.005 -1.3587 -1.2764 -1.4794
  900SOL     MW 3600   0.143   2.392   1.066 -0.2431  0.6178 -0.8198
  901SOL     OW 3601   1.791   2.892   1.683  0.1345 -0.2039 -0.5464
  901SOL    HW1 3602   1.844   2.813   1.661  1.3434  0.7800  1.2187
  901SOL    HW2 3603   1.719   2.877   1.627  1.2934  0.3670  1.2856
  901SOL     MW 3604   1.789   2.880   1.673  0.4469  0.0012 -0.0718
  902SOL     OW 3605   2.568   2.053   1.849  0.1959  0.1266  0.0497
  902SOL    HW1 3606   2.562   1.957   1.846  2.1031  2.6990  1.2196
  902SOL    HW2 3607   2.655   2.068   1.885 -1.8761 -2.9357  1.5786
  902SOL     MW 3608   2.579   2.042   1.853  0.1742  0.0620  0.4058
  903SOL     OW 3609   1.571   2.761   0.535  0.0891 -0.2256  0.1154
  903SOL    HW1 3610   1.621   2.690   0.579  3.3579  1.0570  3.1597
  903SOL    HW2 3611   1.556   2.824   0.599  1.0617 -3.5934 -1.0186
  903SOL     MW 3612   1.576   2.760   0.549  0.6487 -0.5008  0.3674
  904SOL     OW 3613   2.487   2.553   1.731  0.0309 -0.1110 -0.4871
  904SOL    HW1 3614   2.425   2.573   1.662  1.0486 -0.1861  1.5773
  904SOL    HW2 3615   2.545   2.488   1.692  0.8477  2.2599  1.4498
  904SOL     MW 3616   2.486   2.547   1.717  0.2729  0.1919  0.0408
  905SOL     OW 3617   2.324   2.513   2.199 -0.3472 -0.2737  0.2855
  905SOL    HW1 3618   2.368   2.475   2.126  0.0494  0.9597  0.4373
  905SOL    HW2 3619   2.292   2.438   2.257  1.9994 -0.9758  1.9478
  905SOL     MW 3620   2.326   2.498   2.197  0.0147 -0.2036  0.5249
  906SOL     OW 3621   2.427   2.462   0.830  0.3211 -0.2553  0.3837
  906SOL    HW1 3622   2.522   2.459   0.855 -0.2391  0.1634 -1.5122
  906SOL    HW2 3623   2.404   2.553   0.861 -2.1136 -2.2820  0.8268
  906SOL     MW 3624   2.436   2.474   0.838 -0.0740 -0.4675  0.1920
  907SOL     OW 3625   2.626   2.947   1.267 -0.2875 -0.2521  0.4275
  907SOL    HW1 3626   2.686   2.968   1.340  1.3179 -0.0971 -1.0415
  907SOL    HW2 3627   2.679   2.926   1.187  1.7993 -2.0414 -1.7979
  907SOL     MW 3628   2.641   2.947   1.266  0.1997 -0.4677 -0.0599
  908SOL     OW 3629   2.705   2.359   3.079 -0.3344 -0.2777 -0.4786
  908SOL    HW1 3630   2.639   2.306   3.118  0.8777  0.6344  2.3961
  908SOL    HW2 3631   2.696   2.436   3.128  2.2663  1.1683  2.6975
  908SOL     MW 3632   2.695   2.362   3.091  0.1687  0.0334  0.3197
  909SOL     OW 3633   1.575   0.178   1.100 -0.0215  0.3605  0.3366
  909SOL    HW1 3634   1.642   0.224   1.054  0.3828 -0.3087  2.7428
  909SOL    HW2 3635   1.555   0.239   1.172 -2.2151 -0.4336 -1.0041
  909SOL     MW 3636   1.581   0.192   1.103 -0.2576  0.1674  0.4772
  910SOL     OW 3637   2.321   1.765   0.409 -0.3227 -0.4785 -0.3390
  910SOL    HW1 3638   2.248   1.703   0.419  1.5830  0.4072  1.4714
  910SOL    HW2 3639   2.299   1.819   0.336 -1.0018  1.5224 -1.0765
  910SOL     MW 3640   2.308   1.764   0.401 -0.1609 -0.0976 -0.1975
  911SOL     OW 3641   2.202   2.270   1.689 -0.2651  0.0381  0.1418
  911SOL    HW1 3642   2.278   2.249   1.742  0.8871  0.6493  1.2415
  911SOL    HW2 3643   2.243   2.298   1.608  0.9843  2.2846  0.0248
  911SOL     MW 3644   2.217   2.271   1.685  0.0518  0.4152  0.2714
  912SOL     OW 3645   2.870   1.996   1.533 -0.6324 -0.0830  0.4496
  912SOL    HW1 3646   2.896   2.016   1.443 -0.7673 -0.5990 -1.4414
  912SOL    HW2 3647   2.772   2.020   1.539 -2.4562  2.1407 -3.7587
  912SOL     MW 3648   2.860   2.002   1.522 -0.8908  0.1423 -0.3552
  913SOL     OW 3649   2.514   2.964   0.425  0.2342  0.0609  0.3777
  913SOL    HW1 3650   2.599   2.923   0.448  1.2382  1.2734  0.6889
  913SOL    HW2 3651   2.451   2.892   0.423 -0.1016  0.2987 -1.7806
  913SOL     MW 3652   2.517   2.949   0.428  0.3224  0.2522  0.1340
  914SOL     OW 3653   2.771   1.666   3.087 -0.2355  0.0668 -0.2454
  914SOL    HW1 3654   2.777   1.741   3.026 -2.7688  1.5744  0.6275
  914SOL    HW2 3655   2.686   1.659   3.119 -0.8686  3.7324 -0.9161
  914SOL     MW 3656   2.761   1.675   3.083 -0.6533  0.7494 -0.2188
  915SOL     OW 3657   1.825   0.195   0.221 -0.0426  0.8234 -0.9600
  915SOL    HW1 3658   1.870   0.117   0.263  2.4806 -0.1856 -1.9230
  915SOL    HW2 3659   1.729   0.176   0.233  0.0900 -1.9961  0.2378
  915SOL     MW 3660   1.818   0.183   0.228  0.3078  0.3183 -0.9290
  916SOL     OW 3661   1.773   2.062   1.964 -0.3865 -0.0098 -0.6411
  916SOL    HW1 3662   1.755   2.155   1.938  0.5774  1.4307 -0.2206
  916SOL    HW2 3663   1.815   2.021   1.888  0.3146 -1.3211  1.8771
  916SOL     MW 3664   1.776   2.069   1.950 -0.1668  0.0072 -0.2534
  917SOL     OW 3665   2.419   2.315   2.672  0.8125  0.2906 -0.3634
  917SOL    HW1 3666   2.397   2.294   2.764 -0.8021 -1.3800 -1.2072
  917SOL    HW2 3667   2.372   2.390   2.641  0.2132  0.3876  2.2569
  917SOL     MW 3668   2.410   2.322   2.680  0.5204  0.0830 -0.1290
  918SOL     OW 3669   2.049   1.639   2.700 -0.0433 -0.2398  0.1944
  918SOL    HW1 3670   1.955   1.643   2.665  0.7867 -0.6678  0.2616
  918SOL    HW2 3671   2.100   1.724   2.670  0.8795  1.4630 -0.4410
  918SOL     MW 3672   2.044   1.651   2.691  0.1880 -0.0716  0.1194
  919SOL     OW 3673   0.020   2.355   2.239  1.0056  0.7152 -0.0346
  919SOL    HW1 3674  -0.054   2.296   2.198 -0.7631 -2.3091  1.0877
  919SOL    HW2 3675   0.088   2.347   2.171  2.8913 -0.3146  0.0156
  919SOL     MW 3676   0.019   2.346   2.224  1.0210  0.1803  0.1201
  920SOL     OW 3677   2.763   2.828   0.004 -0.4437 -0.2752 -0.2943
  920SOL    HW1 3678   2.695   2.891   0.024  1.0261 -1.8714  0.6734
  920SOL    HW2 3679   2.737   2.785  -0.073  0.4294 -1.9455  2.2601
  920SOL     MW 3680   2.750   2.831  -0.003 -0.1345 -0.7062  0.1704
  921SOL     OW 3681   2.459   2.603   2.645 -0.1003  0.1213 -0.3416
  921SOL    HW1 3682   2.532   2.620   2.587 -2.7437 -0.2738  1.8455
  921SOL    HW2 3683   2.498   2.544   2.714  0.5755 -2.4347  3.0767
  921SOL     MW 3684   2.473   2.597   2.647 -0.3599 -0.2681  0.3980
  922SOL     OW 3685   2.016   2.794   0.300 -0.1029  0.0278  1.0520
  922SOL    HW1 3686   1.998   2.796   0.203 -2.3395 -0.1217 -3.0474
  922SOL    HW2 3687   1.994   2.698   0.314  1.0549  0.6059 -0.7388
  922SOL     MW 3688   2.011   2.781   0.289 -0.2452  0.0843  0.2748
  923SOL     OW 3689   2.232   2.803   1.706 -0.0840  0.0635 -0.2740
  923SOL    HW1 3690   2.268   2.734   1.645 -0.1748  0.4347 -1.2843
  923SOL    HW2 3691   2.228   2.888   1.656 -0.7935 -0.4295  0.6060
  923SOL     MW 3692   2.237   2.805   1.692 -0.1896  0.0474 -0.2912
  924SOL     OW 3693   1.175   2.730   2.565  0.3838 -0.0424  0.2654
  924SOL    HW1 3694   1.212   2.804   2.516 -2.2876 -0.8277  1.7495
  924SOL    HW2 3695   1.241   2.673   2.602 -2.8430 -0.3672  2.3205
  924SOL     MW 3696   1.189   2.732   2.563 -0.3944 -0.1888  0.7324
  925SOL     OW 3697   2.968   0.199   2.609  0.2246  0.0450 -0.1617
  925SOL    HW1 3698   2.988   0.244   2.527 -1.3661 -6.5603 -1.2318
  925SOL    HW2 3699   2.910   0.255   2.653 -0.9083 -2.8328 -0.9965
  925SOL     MW 3700   2.963   0.213   2.604 -0.1348 -1.2062 -0.4130
  926SOL     OW 3701   2.707   2.387   2.087  0.3438  0.1094 -0.2116
  926SOL    HW1 3702   2.759   2.453   2.134  2.2535  0.0249 -0.2428
  926SOL    HW2 3703   2.747   2.387   1.999 -1.6269 -1.3102 -1.4681
  926SOL     MW 3704   2.719   2.396   2.082  0.3357 -0.0890 -0.3815
  927SOL     OW 3705   2.371   0.126   0.313  0.5327  0.3107 -0.2802
  927SOL    HW1 3706   2.465   0.123   0.284 -1.8575 -2.6016 -0.9647
  927SOL    HW2 3707   2.315   0.099   0.235 -0.8879  2.0969  0.6059
  927SOL     MW 3708   2.376   0.122   0.299  0.0299  0.1621 -0.2536
  928SOL     OW 3709   2.063   2.496   1.799  0.9101 -0.5298 -0.1482
  928SOL    HW1 3710   2.129   2.439   1.764  1.4592  0.7225 -0.8422
  928SOL    HW2 3711   2.088   2.532   1.887  0.0685  0.1025  1.6367
  928SOL     MW 3712   2.075   2.493   1.806  0.8715 -0.2811 -0.0043
  929SOL     OW 3713   2.728   2.375   2.460 -0.5042 -0.3729 -0.2154
  929SOL    HW1 3714   2.802   2.373   2.402  2.4339  1.8569  0.1141
  929SOL    HW2 3715   2.756   2.327   2.545 -2.5151 -0.6914  3.2180
  929SOL     MW 3716   2.742   2.368   2.464 -0.3818 -0.1207  0.2811
  930SOL     OW 3717   2.042   2.922   2.699  0.0472 -0.0660 -0.3608
  930SOL    HW1 3718   2.039   2.844   2.758 -2.0820 -0.0193  1.0539
  930SOL    HW2 3719   2.135   2.942   2.701 -2.5082  0.7688 -1.9572
  930SOL     MW 3720   2.054   2.914   2.707 -0.5709  0.0503 -0.3848
  931SOL     OW 3721   2.933   2.821   2.260 -0.1241 -0.3679  0.0807
  931SOL    HW1 3722   3.030   2.814   2.268 -1.2331 -1.5036 -1.3262
  931SOL    HW2 3723   2.919   2.809   2.165  2.2512 -1.5107 -2.6786
  931SOL     MW 3724   2.944   2.819   2.249  0.0430 -0.6685 -0.4690
  932SOL     OW 3725   2.845   1.908   2.565  0.0452 -0.5259  0.9472
  932SOL    HW1 3726   2.926   1.953   2.571 -0.6427 -1.8522 -0.7651
  932SOL    HW2 3727   2.834   1.923   2.473 -1.0614  0.2015 -0.3058
  932SOL     MW 3728   2.854   1.916   2.554 -0.1915 -0.6049  0.5560
  933SOL     OW 3729   2.053   2.838   2.191 -0.2299  0.4699 -0.4566
  933SOL    HW1 3730   2.128   2.886   2.234  0.4868  0.7645 -0.1750
  933SOL    HW2 3731   1.979   2.901   2.178  2.2439  3.3682  1.3559
  933SOL     MW 3732   2.053   2.853   2.195  0.1911  0.8912 -0.1803
  934SOL     OW 3733   2.037   2.751   2.470  0.0313  0.2118  0.0407
  934SOL    HW1 3734   2.031   2.824   2.538 -3.1144 -1.0187  0.7248
  934SOL    HW2 3735   2.053   2.794   2.387 -2.1984 -1.1046  0.3388
  934SOL     MW 3736   2.039   2.767   2.468 -0.6779 -0.1243  0.1703
  935SOL     OW 3737   2.630   1.520   1.778  0.3114 -0.2975  0.5008
  935SOL    HW1 3738   2.705   1.519   1.721 -0.7660 -1.8675 -2.2499
  935SOL    HW2 3739   2.560   1.528   1.712 -0.3928  1.2322 -2.0255
  935SOL     MW 3740   2.630   1.521   1.762  0.0763 -0.3028 -0.1955
  936SOL     OW 3741   2.986   2.236   3.073  0.5141  0.1210  0.4583
  936SOL    HW1 3742   3.036   2.278   3.141 -1.8213 -0.4749  0.7162
  936SOL    HW2 3743   2.901   2.277   3.067 -0.5963  2.2329  2.0087
  936SOL     MW 3744   2.981   2.247   3.081  0.0595  0.3210  0.6969
  937SOL     OW 3745   2.026   2.188   2.638  0.7169 -0.5775  0.0692
  937SOL    HW1 3746   2.111   2.167   2.677 -3.4014  0.2521 -2.2105
  937SOL    HW2 3747   2.027   2.162   2.545 -0.5548 -1.9166  1.7197
  937SOL     MW 3748   2.037   2.182   2.631  0.0057 -0.6447 -0.0138
  938SOL     OW 3749   2.284   1.800   1.904  0.1705  0.6456 -0.1445
  938SOL    HW1 3750   2.267   1.852   1.818 -2.1353 -0.1096 -1.0296
  938SOL    HW2 3751   2.297   1.864   1.974 -2.0149 -0.7862  1.7011
  938SOL     MW 3752   2.283   1.815   1.902 -0.4221  0.3571 -0.0178
  939SOL     OW 3753   2.821   1.987   2.304 -0.3123  0.5248  0.0919
  939SOL    HW1 3754   2.817   1.907   2.251 -1.4712  1.2403 -1.0588
  939SOL    HW2 3755   2.725   2.005   2.316  0.1505  0.4455 -1.0878
  939SOL     MW 3756   2.808   1.979   2.299 -0.4042  0.6087 -0.2156
  940SOL     OW 3757   2.323   0.129   2.703 -0.1701  0.0390  1.0398
  940SOL    HW1 3758   2.307   0.035   2.665  2.5904 -0.6156 -3.7608
  940SOL    HW2 3759   2.367   0.122   2.786  1.7608  2.3605  1.0956
  940SOL     MW 3760   2.327   0.116   2.709  0.4489  0.2590  0.4138
  941SOL     OW 3761   0.204   2.343   2.062  0.7897  0.2731  0.2698
  941SOL    HW1 3762   0.293   2.323   2.090 -3.2165  2.4690 -2.7562
  941SOL    HW2 3763   0.185   2.273   1.994 -0.6557 -3.0227 -0.6383
  941SOL     MW 3764   0.213   2.331   2.057  0.0704  0.1280 -0.2493
  942SOL     OW 3765   2.891   2.229   2.185 -0.4030 -0.0694 -0.4552
  942SOL    HW1 3766   2.813   2.290   2.180 -2.3705  3.5469  0.6783
  942SOL    HW2 3767   2.858   2.166   2.251  2.1579  1.2037  1.2549
  942SOL     MW 3768   2.876   2.229   2.193 -0.3247  0.5757 -0.0800
  943SOL     OW 3769   0.378   2.028   2.308  0.4720 -0.7400 -0.5257
  943SOL    HW1 3770   0.312   2.081   2.366  0.5532  0.6533  1.8398
  943SOL    HW2 3771   0.467   2.048   2.338 -0.5293 -1.1202  1.8643
  943SOL     MW 3772   0.381   2.038   2.320  0.3506 -0.6063  0.1017
  944SOL     OW 3773   2.120   2.632   2.036 -0.2095 -0.2214  0.9292
  944SOL    HW1 3774   2.200   2.605   2.087  2.7224 -0.0449 -0.8301
  944SOL    HW2 3775   2.086   2.708   2.090  1.1880  3.1584  1.1253
  944SOL     MW 3776   2.126   2.638   2.050  0.3617  0.2478  0.7229
  945SOL     OW 3777   2.786   2.712   2.834 -0.0811  0.4350 -0.6392
  945SOL    HW1 3778   2.752   2.625   2.844 -1.7384 -0.2019  2.7827
  945SOL    HW2 3779   2.827   2.712   2.745  1.3137 -2.3985 -0.2947
  945SOL     MW 3780   2.787   2.700   2.823 -0.1157 -0.0229 -0.1423
  946SOL     OW 3781   2.439   2.752   2.254 -0.6032  0.0537 -0.0474
  946SOL    HW1 3782   2.494   2.749   2.177 -0.1381  0.5269  0.3322
  946SOL    HW2 3783   2.384   2.677   2.244 -0.4626 -2.2481  0.8534
  946SOL     MW 3784   2.439   2.742   2.243 -0.5233 -0.1876  0.1215
  947SOL     OW 3785   2.030   0.014   0.253 -0.1397  0.5396 -0.3653
  947SOL    HW1 3786   2.034  -0.087   0.245  4.2872 -0.9337  1.0851
  947SOL    HW2 3787   2.071   0.030   0.349  0.3221  1.6199 -0.3462
  947SOL     MW 3788   2.036   0.003   0.265  0.5053  0.4877 -0.1714
  948SOL     OW 3789   1.806   3.080   2.629 -0.3428  0.0689 -0.2920
  948SOL    HW1 3790   1.880   3.012   2.633 -0.3955 -0.1359  0.7363
  948SOL    HW2 3791   1.809   3.132   2.544 -1.3698  1.4641  0.6933
  948SOL     MW 3792   1.816   3.078   2.618 -0.4853  0.2260 -0.0263
  949SOL     OW 3793   2.559   2.041   2.301  0.2364 -0.2090 -0.4693
  949SOL    HW1 3794   2.538   1.948   2.330 -1.7051 -1.5684  3.4720
  949SOL    HW2 3795   2.503   2.092   2.360 -0.7317 -3.3783 -0.3251
  949SOL     MW 3796   2.549   2.036   2.313 -0.1475 -0.8065  0.0698
  950SOL     OW 3797   2.188   2.585   3.017  0.4710 -0.4111  0.2562
  950SOL    HW1 3798   2.219   2.495   2.990  2.9317 -1.8024 -0.7879
  950SOL    HW2 3799   2.139   2.626   2.938  3.1020 -0.2929  0.3421
  950SOL     MW 3800   2.186   2.578   3.003  1.1428 -0.5790  0.1298
  951SOL     OW 3801   2.971   2.070   2.854 -0.1930 -0.2003 -0.0768
  951SOL    HW1 3802   2.972   2.150   2.911 -0.3544  0.8285 -0.1601
  951SOL    HW2 3803   3.025   2.092   2.780 -0.1936 -4.4054 -0.0128
  951SOL     MW 3804   2.978   2.083   2.852 -0.2144 -0.6194 -0.0793
  952SOL     OW 3805   3.066   1.704   2.070  0.4938  0.3070  0.7306
  952SOL    HW1 3806   2.980   1.748   2.076 -1.3624 -3.3018  2.7298
  952SOL    HW2 3807   3.142   1.761   2.097  0.8114  2.6244  2.1875
  952SOL     MW 3808   3.065   1.717   2.074  0.2908  0.1366  1.1866
  953SOL     OW 3809   1.966   1.795   2.905 -0.7123 -0.1260  0.3519
  953SOL    HW1 3810   1.868   1.776   2.912 -2.6479  0.5404  2.5282
  953SOL    HW2 3811   2.004   1.739   2.842 -0.0618  0.1004  2.0281
  953SOL     MW 3812   1.958   1.785   2.898 -0.8819 -0.0082  0.8602
  954SOL     OW 3813   2.471   2.096   2.901  0.5181  0.2142  0.1875
  954SOL    HW1 3814   2.380   2.076   2.869 -1.8108  0.1125 -0.9265
  954SOL    HW2 3815   2.534   2.055   2.838 -2.0243 -2.9810 -2.5776
  954SOL     MW 3816   2.467   2.088   2.888 -0.1246 -0.2208 -0.3243
  955SOL     OW 3817   1.567   1.620   2.536 -0.2538  0.2294 -0.1123
  955SOL    HW1 3818   1.554   1.670   2.461  2.8534 -0.9635  1.1375
  955SOL    HW2 3819   1.655   1.623   2.570 -1.8665 -0.0902 -1.1534
  955SOL     MW 3820   1.577   1.627   2.530 -0.0566  0.0298 -0.0847
  956SOL     OW 3821   2.621   2.475   2.857  0.2176  0.1328  0.0904
  956SOL    HW1 3822   2.654   2.431   2.936  0.5517  1.2922 -0.1892
  956SOL    HW2 3823   2.611   2.399   2.801  3.0577 -1.2681  0.4623
  956SOL     MW 3824   2.624   2.459   2.860  0.6364  0.1009  0.1026
  957SOL     OW 3825   2.297   2.791   0.386 -0.1324  0.1570 -0.1695
  957SOL    HW1 3826   2.210   2.810   0.352  0.7730 -2.4022 -1.0011
  957SOL    HW2 3827   2.274   2.738   0.466 -1.6033 -0.7817  1.4999
  957SOL     MW 3828   2.282   2.786   0.392 -0.2070 -0.3045 -0.0589
  958SOL     OW 3829   2.017   2.672   2.801 -0.3450  0.4465 -0.1338
  958SOL    HW1 3830   2.009   2.596   2.731 -1.4986 -0.6143  2.2556
  958SOL    HW2 3831   1.929   2.673   2.847  2.5500  0.6507  0.9018
  958SOL     MW 3832   2.004   2.662   2.798 -0.1152  0.3335  0.3181
  959SOL     OW 3833   2.424   2.566   0.311  0.1134  0.3938 -0.1506
  959SOL    HW1 3834   2.484   2.581   0.237  2.2592  0.7662 -2.4867
  959SOL    HW2 3835   2.376   2.655   0.326 -0.7618  2.7330  1.7158
  959SOL     MW 3836   2.426   2.580   0.303  0.2810  0.7516 -0.2125
  960SOL     OW 3837   1.906   2.349   2.307 -0.0935 -0.5269 -0.3336
  960SOL    HW1 3838   1.880   2.265   2.276  0.1643  1.1681  0.3065
  960SOL    HW2 3839   1.830   2.383   2.357 -1.4600 -2.2265  0.8527
  960SOL     MW 3840   1.893   2.342   2.309 -0.2398 -0.5275 -0.0926
  961SOL     OW 3841   2.180   2.351   2.361 -0.1537 -0.2466  0.3704
  961SOL    HW1 3842   2.081   2.355   2.344 -5.1669 -2.5954 -3.1871
  961SOL    HW2 3843   2.194   2.417   2.429  0.9333  0.4959 -1.4868
  961SOL     MW 3844   2.169   2.360   2.368 -0.6718 -0.4585 -0.3440
  962SOL     OW 3845   2.231   2.058   2.813 -0.0784 -0.7772  0.6668
  962SOL    HW1 3846   2.216   2.034   2.907  1.0623 -0.7561  0.9890
  962SOL    HW2 3847   2.238   1.981   2.762  3.9499  0.7213  0.2026
  962SOL     MW 3848   2.230   2.044   2.819  0.6036 -0.5767  0.6480
  963SOL     OW 3849   1.814   2.582   2.052  0.8132 -0.0049 -0.1429
  963SOL    HW1 3850   1.903   2.570   2.084 -1.3401  1.8419 -0.2599
  963SOL    HW2 3851   1.804   2.507   1.995  1.1350  4.2198  1.1868
  963SOL     MW 3852   1.824   2.571   2.049  0.5715  0.7962  0.0171
  964SOL     OW 3853   1.864   1.987   2.740  0.3448 -0.4392  0.7842
  964SOL    HW1 3854   1.904   2.059   2.687 -1.4331  1.7183 -1.1072
  964SOL    HW2 3855   1.928   1.933   2.786 -0.4821  4.4262 -2.1153
  964SOL     MW 3856   1.878   1.989   2.739  0.0011  0.4874  0.1521
  965SOL     OW 3857   2.204   2.689   0.625  0.0591  0.4574  0.0635
  965SOL    HW1 3858   2.153   2.622   0.585  0.4055 -0.8790  0.8302
  965SOL    HW2 3859   2.250   2.647   0.698  0.7193  0.9194  0.0471
  965SOL     MW 3860   2.203   2.675   0.629  0.1919  0.3420  0.1625
  966SOL     OW 3861   2.667   2.652   2.443 -0.6091  0.1979 -0.4714
  966SOL    HW1 3862   2.615   2.672   2.366 -0.2732  0.5439  1.6604
  966SOL    HW2 3863   2.672   2.552   2.433 -0.2969 -0.9196 -0.5016
  966SOL     MW 3864   2.661   2.642   2.431 -0.5236  0.0961 -0.1941
  967SOL     OW 3865   2.878   3.011   2.910 -0.3798  0.6997 -0.5509
  967SOL    HW1 3866   2.830   2.948   2.966 -2.1557 -0.3008 -0.9626
  967SOL    HW2 3867   2.810   3.032   2.843  1.2640 -1.4283 -1.8111
  967SOL     MW 3868   2.863   3.006   2.908 -0.3972  0.2870 -0.7715
  968SOL     OW 3869   3.023   2.590   2.959  0.5832  0.0618 -0.8003
  968SOL    HW1 3870   2.976   2.655   2.906  1.5872 -2.4897 -0.7941
  968SOL    HW2 3871   3.005   2.521   2.892 -0.0581  0.4995 -1.3660
  968SOL     MW 3872   3.014   2.590   2.943  0.6311 -0.2171 -0.8741
  969SOL     OW 3873   1.528   2.102   1.723 -0.3714  0.5509 -0.3598
  969SOL    HW1 3874   1.588   2.033   1.722 -3.5322 -0.3484  0.2269
  969SOL    HW2 3875   1.489   2.104   1.813 -1.1578  2.0009  1.9153
  969SOL     MW 3876   1.531   2.093   1.735 -0.8922  0.6235  0.0178
  970SOL     OW 3877   1.642   1.713   1.859  0.5311 -0.2731 -0.3368
  970SOL    HW1 3878   1.681   1.696   1.944  2.3347 -0.6495 -2.2161
  970SOL    HW2 3879   1.551   1.727   1.876  2.0747 -2.3275  0.5532
  970SOL     MW 3880   1.635   1.713   1.872  0.9727 -0.5938 -0.4674
  971SOL     OW 3881   1.812   0.068   2.356 -0.1526 -0.6263  0.6202
  971SOL    HW1 3882   1.842   0.004   2.290  0.4638 -4.6599 -4.4981
  971SOL    HW2 3883   1.875   0.143   2.345 -1.9023  0.0553  0.2526
  971SOL     MW 3884   1.824   0.070   2.346 -0.3021 -1.0686 -0.1036
  972SOL     OW 3885   0.286   2.796   2.525  0.0353  0.0044  0.1261
  972SOL    HW1 3886   0.305   2.720   2.576 -0.1403  0.7437 -0.7280
  972SOL    HW2 3887   0.359   2.852   2.547  0.6167  2.0295 -0.2934
  972SOL     MW 3888   0.298   2.793   2.534  0.0888  0.3691 -0.0419
  973SOL     OW 3889   2.640   0.012   2.086 -0.0305  0.2439 -0.2188
  973SOL    HW1 3890   2.668  -0.076   2.065  0.9246  0.1604 -1.2022
  973SOL    HW2 3891   2.616   0.050   2.005  0.9157  1.2081  2.8479
  973SOL     MW 3892   2.641   0.005   2.072  0.2204  0.3601  0.0561
  974SOL     OW 3893   2.112   0.290   2.780 -0.1547 -0.3469  0.3423
  974SOL    HW1 3894   2.190   0.244   2.757 -1.0078 -2.2264  1.2643
  974SOL    HW2 3895   2.062   0.216   2.812  3.5938  0.6440  1.1022
  974SOL     MW 3896   2.115   0.274   2.781  0.2273 -0.4641  0.5642
  975SOL     OW 3897   2.212   2.540   2.542 -0.2640  0.0444 -0.4849
  975SOL    HW1 3898   2.298   2.562   2.569  0.0980 -0.4854 -0.7208
  975SOL    HW2 3899   2.164   2.623   2.534  0.4600  0.2206 -2.9861
  975SOL     MW 3900   2.217   2.554   2.545 -0.1207 -0.0023 -0.8461
  976SOL     OW 3901   0.210   0.354   1.704  0.1867  1.1803 -0.2232
  976SOL    HW1 3902   0.269   0.278   1.739 -0.0229 -2.1837  2.4716
  976SOL    HW2 3903   0.123   0.323   1.694  1.1622 -0.0908 -2.2174
  976SOL     MW 3904   0.206   0.340   1.707  0.2878  0.5687 -0.1308
  977SOL     OW 3905   1.717   2.743   2.471  0.3286 -0.4644 -0.1837
  977SOL    HW1 3906   1.723   2.647   2.478 -0.3514  1.4176 -1.4559
  977SOL    HW2 3907   1.806   2.759   2.441  0.1723 -0.1819 -0.2529
  977SOL     MW 3908   1.730   2.732   2.468  0.2182 -0.1788 -0.3607
   3.10000   3.10000   3.10000
