977 TIP4P/2005f water molecules t=   1.71000 step= 1710
 3908
    1SOL     OW    1   0.391   0.780   0.111  0.2151 -0.1811 -0.1695
    1SOL    HW1    2   0.333   0.768   0.037 -0.9067  3.6302  2.7241
    1SOL    HW2    3   0.434   0.701   0.148  0.3433 -0.7237 -0.5464
    1SOL     MW    4   0.389   0.768   0.106  0.0840  0.2502  0.1625
    2SOL     OW    5   0.312   3.010   1.083 -0.0577  0.2345 -0.2326
    2SOL    HW1    6   0.366   3.091   1.066 -0.7248 -0.0327 -1.0431
    2SOL    HW2    7   0.219   3.034   1.072  0.6117  1.1454 -0.8131
    2SOL     MW    8   0.307   3.024   1.080 -0.0574  0.3194 -0.4161
    3SOL     OW    9   2.671   0.333   0.981  0.4737 -0.1577  0.1716
    3SOL    HW1   10   2.722   0.401   0.934 -2.7325 -2.8951  0.8484
    3SOL    HW2   11   2.688   0.352   1.079 -0.2833  1.9912 -1.4782
    3SOL     MW   12   2.680   0.344   0.987 -0.0492 -0.2353  0.0432
    4SOL     OW   13   2.950   1.712   0.510 -0.4232 -0.1192 -0.1822
    4SOL    HW1   14   2.908   1.796   0.477 -0.2426  1.2995 -0.2397
    4SOL    HW2   15   3.009   1.679   0.442 -1.4482 -0.1306 -2.0579
    4SOL     MW   16   2.952   1.719   0.497 -0.5346  0.0664 -0.4373
    5SOL     OW   17   1.594   1.408   0.618 -0.2867 -0.2784 -0.2157
    5SOL    HW1   18   1.628   1.404   0.708 -1.9755  0.9388  3.2445
    5SOL    HW2   19   1.524   1.467   0.628 -0.0118 -1.0069  2.3810
    5SOL     MW   20   1.589   1.415   0.631 -0.4732 -0.2139  0.5834
    6SOL     OW   21   0.772   1.440   0.610 -0.0147 -0.3331 -0.5020
    6SOL    HW1   22   0.671   1.444   0.601  0.6051  1.1014  3.4918
    6SOL    HW2   23   0.783   1.350   0.644 -0.9761  0.3293 -2.0062
    6SOL     MW   24   0.760   1.429   0.614 -0.0598 -0.0565 -0.1735
    7SOL     OW   25   1.945   1.073   0.004  0.3468 -0.4550  0.0847
    7SOL    HW1   26   2.006   1.130  -0.035 -1.1287 -1.7024  2.6246
    7SOL    HW2   27   1.954   1.077   0.107  2.6285  0.5652  0.9037
    7SOL     MW   28   1.954   1.081   0.013  0.4531 -0.4850  0.5278
    8SOL     OW   29   0.793   1.465   1.065  0.1449 -0.1383 -0.5559
    8SOL    HW1   30   0.869   1.505   1.097 -2.2443 -1.3342  1.1166
    8SOL    HW2   31   0.771   1.386   1.117  0.3295  1.8981 -1.3631
    8SOL     MW   32   0.800   1.459   1.076 -0.1460 -0.0274 -0.4417
    9SOL     OW   33   0.927   0.515   1.317 -0.2654  0.4283 -0.5220
    9SOL    HW1   34   0.861   0.437   1.300 -1.9097 -0.6437  1.6482
    9SOL    HW2   35   0.986   0.467   1.373  0.0973  1.6987 -0.6110
    9SOL     MW   36   0.926   0.498   1.322 -0.4345  0.4545 -0.2474
   10SOL     OW   37   0.288   0.841   0.482 -0.1717 -0.5557  0.1740
   10SOL    HW1   38   0.383   0.859   0.460 -0.7087 -2.2876 -1.2644
   10SOL    HW2   39   0.272   0.862   0.577  1.7398  0.1412  2.0795
   10SOL     MW   40   0.299   0.846   0.492  0.0097 -0.6923  0.2357
   11SOL     OW   41   0.774   1.127   1.490  0.0358  0.3586  0.4003
   11SOL    HW1   42   0.846   1.156   1.552  0.4357  2.9957 -1.7759
   11SOL    HW2   43   0.800   1.044   1.444 -2.3262 -1.5020 -3.1444
   11SOL     MW   44   0.787   1.120   1.492 -0.2231  0.4610 -0.3545
   12SOL     OW   45   0.036   1.079   0.904  0.4964  0.2633  0.6597
   12SOL    HW1   46   0.075   1.160   0.943  0.8373 -0.1938 -1.3280
   12SOL    HW2   47  -0.014   1.111   0.832 -0.3224  0.0636 -0.8675
   12SOL     MW   48   0.034   1.094   0.900  0.4333  0.1767  0.1959
   13SOL     OW   49   1.809   1.409   1.318  0.4848 -0.4145 -0.7600
   13SOL    HW1   50   1.835   1.326   1.285  1.6356  0.3701  1.5990
   13SOL    HW2   51   1.865   1.476   1.283 -1.5525  0.7117  0.0088
   13SOL     MW   52   1.820   1.407   1.309  0.3679 -0.1624 -0.3473
   14SOL     OW   53   0.546   0.329   1.781  0.3696 -0.0429  0.9615
   14SOL    HW1   54   0.484   0.257   1.765  0.3653 -2.3996 -1.2580
   14SOL    HW2   55   0.623   0.309   1.725  0.8390  0.5019  1.6783
   14SOL     MW   56   0.548   0.317   1.771  0.4310 -0.2820  0.7632
   15SOL     OW   57   2.002   0.418   0.990 -0.1832  0.1522 -0.4682
   15SOL    HW1   58   2.048   0.489   1.036 -0.5252  0.4593  0.2843
   15SOL    HW2   59   2.050   0.433   0.908 -0.2892  1.8167  2.1588
   15SOL     MW   60   2.014   0.429   0.985 -0.2423  0.4123 -0.0223
   16SOL     OW   61   0.266   1.818   0.285 -0.1494 -0.2210 -0.2639
   16SOL    HW1   62   0.348   1.775   0.310 -2.5441  0.8353 -0.8559
   16SOL    HW2   63   0.282   1.904   0.320  1.3339 -1.5559  1.1570
   16SOL     MW   64   0.279   1.823   0.293 -0.2697 -0.2578 -0.1546
   17SOL     OW   65   1.121   0.869   1.419  0.3399 -0.9397 -0.4214
   17SOL    HW1   66   1.156   0.873   1.513 -1.5286 -0.3230  0.2997
   17SOL    HW2   67   1.024   0.853   1.424  2.5802  0.2560 -2.6335
   17SOL     MW   68   1.113   0.868   1.432  0.3889 -0.7006 -0.6181
   18SOL     OW   69   0.061   1.646   0.327 -0.4359 -0.1068  0.5801
   18SOL    HW1   70   0.132   1.714   0.340 -0.6291  1.0706 -0.3592
   18SOL    HW2   71   0.055   1.608   0.240 -1.0870 -1.1981 -0.9605
   18SOL     MW   72   0.070   1.650   0.317 -0.5473 -0.0955  0.2529
   19SOL     OW   73   0.106   1.322   0.977  0.0791  0.3723 -0.2449
   19SOL    HW1   74   0.144   1.339   0.892  3.5774 -0.3567  2.3635
   19SOL    HW2   75   0.016   1.356   0.977 -1.4907 -0.7779  0.4095
   19SOL     MW   76   0.099   1.328   0.966  0.3336  0.1244  0.1856
   20SOL     OW   77   0.433   2.113   1.262  0.2665 -0.0489 -0.3693
   20SOL    HW1   78   0.379   2.045   1.215  0.3981 -2.4066  2.6680
   20SOL    HW2   79   0.401   2.124   1.357 -0.6447  2.8720  0.2307
   20SOL     MW   80   0.421   2.105   1.268  0.1636  0.0254  0.1106
   21SOL     OW   81   0.557   0.882   0.407  0.1413  0.5162  0.2355
   21SOL    HW1   82   0.619   0.912   0.463 -0.6891 -0.8651 -0.2205
   21SOL    HW2   83   0.600   0.859   0.322  0.6181 -1.1617 -0.3382
   21SOL     MW   84   0.571   0.883   0.403  0.0946  0.1125  0.0996
   22SOL     OW   85   1.549   0.706   1.023  0.1935  0.4966 -0.2985
   22SOL    HW1   86   1.525   0.669   0.938  0.6809 -2.6684  2.3720
   22SOL    HW2   87   1.465   0.747   1.053 -0.4298 -0.7900  0.9231
   22SOL     MW   88   1.535   0.706   1.015  0.1756 -0.0908  0.2150
   23SOL     OW   89   3.042   0.818   0.736  0.2013 -0.0248  0.6672
   23SOL    HW1   90   3.101   0.754   0.783 -1.6217 -3.2589 -1.3288
   23SOL    HW2   91   3.096   0.895   0.734 -0.6443  0.0144  0.2666
   23SOL     MW   92   3.057   0.820   0.742 -0.1508 -0.4464  0.3510
   24SOL     OW   93   2.075   2.178   0.070 -0.2514 -0.7021  0.0703
   24SOL    HW1   94   2.069   2.189   0.167  0.9419 -1.4240  1.6191
   24SOL    HW2   95   2.127   2.097   0.056  1.6553 -0.9931  1.4563
   24SOL     MW   96   2.081   2.169   0.081  0.1576 -0.8358  0.4575
   25SOL     OW   97   0.205   1.442   0.421  0.2019  0.1335 -0.2983
   25SOL    HW1   98   0.136   1.509   0.398  3.1274 -1.1647  2.8276
   25SOL    HW2   99   0.259   1.434   0.348 -1.1714  0.6670  0.0529
   25SOL     MW  100   0.203   1.450   0.408  0.4067  0.0326  0.1605
   26SOL     OW  101   1.994   1.059   0.284  0.4746  0.3281 -0.2453
   26SOL    HW1  102   1.951   1.118   0.348  1.0271  2.2210 -1.3976
   26SOL    HW2  103   2.074   1.104   0.250  0.8403 -2.3284 -1.2520
   26SOL     MW  104   1.999   1.072   0.288  0.5957  0.2274 -0.5302
   27SOL     OW  105   1.857   1.370   0.123 -0.0638 -0.3577 -0.6974
   27SOL    HW1  106   1.812   1.446   0.158  0.7341  1.1747 -1.3485
   27SOL    HW2  107   1.902   1.347   0.203 -0.4341 -0.1717 -1.6752
   27SOL     MW  108   1.857   1.377   0.138 -0.0074 -0.1309 -0.9123
   28SOL     OW  109   0.413   0.931   2.030  0.1235 -0.0458  0.5832
   28SOL    HW1  110   0.445   0.920   2.120  1.3413  0.9400  3.5082
   28SOL    HW2  111   0.316   0.915   2.045 -1.3320 -2.5387  1.9177
   28SOL     MW  112   0.404   0.927   2.044  0.0921 -0.2446  1.1452
   29SOL     OW  113   0.190   1.437   0.741 -0.6321  0.3781 -0.1785
   29SOL    HW1  114   0.223   1.533   0.728  0.0560 -1.2588 -1.4815
   29SOL    HW2  115   0.213   1.390   0.663 -1.4778  0.9531  0.2043
   29SOL     MW  116   0.197   1.444   0.729 -0.6529  0.2380 -0.2999
   30SOL     OW  117   0.708   1.267   1.227  0.3164  0.6021  0.3489
   30SOL    HW1  118   0.617   1.290   1.253  1.0700 -1.2488  1.2917
   30SOL    HW2  119   0.736   1.219   1.309 -0.0489  2.8295 -0.5895
   30SOL     MW  120   0.700   1.264   1.241  0.3676  0.6518  0.3495
   31SOL     OW  121   0.511   0.279   0.221  0.1580 -0.5116 -0.0035
   31SOL    HW1  122   0.534   0.207   0.285 -1.5507 -0.8559  1.0362
   31SOL    HW2  123   0.497   0.226   0.139 -2.0594  0.2904  2.9320
   31SOL     MW  124   0.512   0.263   0.219 -0.3600 -0.4512  0.5210
   32SOL     OW  125   2.708   0.954   1.074  0.0061  0.5072 -0.3344
   32SOL    HW1  126   2.655   0.877   1.073 -3.3233 -1.9580  0.7334
   32SOL    HW2  127   2.799   0.925   1.067  0.9152 -2.2200  2.0775
   32SOL     MW  128   2.713   0.940   1.073 -0.3132 -0.1779  0.1247
   33SOL     OW  129   1.622   1.238   0.409 -0.4337  0.1152 -0.0857
   33SOL    HW1  130   1.705   1.204   0.429 -3.2599 -2.6350  2.9339
   33SOL    HW2  131   1.595   1.298   0.477 -0.6822  2.3937 -1.6611
   33SOL     MW  132   1.629   1.241   0.421 -0.8394  0.0530  0.1049
   34SOL     OW  133   1.162   1.985   1.144  0.3193  0.1033  0.6176
   34SOL    HW1  134   1.077   1.982   1.188  1.5832 -0.4409 -1.9891
   34SOL    HW2  135   1.231   2.000   1.210 -3.5859 -0.0480  0.4180
   34SOL     MW  136   1.160   1.987   1.159 -0.0292  0.0115  0.2474
   35SOL     OW  137   0.358   0.148   1.762  0.2013 -0.1954 -0.9173
   35SOL    HW1  138   0.378   0.116   1.853 -2.2010  0.4918  0.6670
   35SOL    HW2  139   0.334   0.074   1.704 -2.3494 -0.6559 -3.6958
   35SOL     MW  140   0.358   0.134   1.767 -0.4522 -0.1655 -1.0749
   36SOL     OW  141   1.922   1.980   0.601  0.0985  0.1277 -0.1969
   36SOL    HW1  142   1.890   1.958   0.513 -2.6522  0.3399  2.5761
   36SOL    HW2  143   1.981   1.910   0.634 -0.6393 -2.7316  1.0156
   36SOL     MW  144   1.926   1.968   0.594 -0.3617 -0.2216  0.3290
   37SOL     OW  145   1.807   2.089   1.006 -0.3225  0.1238 -0.2692
   37SOL    HW1  146   1.750   2.047   0.942 -3.0670  0.9808  0.2432
   37SOL    HW2  147   1.751   2.104   1.080  2.5631  0.3646  0.3000
   37SOL     MW  148   1.792   2.085   1.007 -0.3039  0.2686 -0.1265
   38SOL     OW  149   2.801   0.965   0.053 -0.3752 -0.2181 -0.3962
   38SOL    HW1  150   2.841   0.933   0.135  1.2460  1.0155 -1.9141
   38SOL    HW2  151   2.868   0.953  -0.018  0.8490 -0.4652 -3.1838
   38SOL     MW  152   2.815   0.960   0.054  0.0002 -0.0879 -0.9643
   39SOL     OW  153   1.520   0.664   0.760  0.4470  0.1646 -0.6963
   39SOL    HW1  154   1.484   0.573   0.753  1.6735 -0.8352 -2.6708
   39SOL    HW2  155   1.454   0.724   0.736  2.4950 -0.6711  0.4727
   39SOL     MW  156   1.507   0.660   0.756  0.8790 -0.0776 -0.8026
   40SOL     OW  157   1.256   1.891   0.236 -0.4554 -0.2860 -0.0535
   40SOL    HW1  158   1.314   1.822   0.274  2.5490  1.5095  1.3574
   40SOL    HW2  159   1.237   1.942   0.318  0.2761  0.3620  0.0761
   40SOL     MW  160   1.261   1.889   0.252  0.0375  0.0364  0.1497
   41SOL     OW  161   0.495   0.557   1.523 -0.1668 -0.6847  0.3488
   41SOL    HW1  162   0.563   0.622   1.499  1.0109  3.8923 -0.0105
   41SOL    HW2  163   0.407   0.579   1.476  0.9780  2.2702 -0.4793
   41SOL     MW  164   0.493   0.569   1.514  0.1397  0.3091  0.1921
   42SOL     OW  165   1.215   2.938   1.988  0.2161 -0.8906  0.2302
   42SOL    HW1  166   1.150   2.962   2.050 -3.0394  0.0745 -1.8161
   42SOL    HW2  167   1.283   2.885   2.029  1.7453  0.7351  0.0051
   42SOL     MW  168   1.215   2.934   2.002 -0.0116 -0.5488 -0.0695
   43SOL     OW  169   1.415   0.099   1.691 -0.5436  0.2874 -0.0622
   43SOL    HW1  170   1.486   0.066   1.631  0.5812 -1.3463  0.4678
   43SOL    HW2  171   1.343   0.027   1.688  2.7256 -2.2517  0.3935
   43SOL     MW  172   1.415   0.085   1.683  0.0362 -0.2632  0.0679
   44SOL     OW  173   1.239   0.808   1.020 -0.6331  0.2930 -0.3349
   44SOL    HW1  174   1.217   0.898   1.037 -0.3133 -0.2965  1.3669
   44SOL    HW2  175   1.204   0.760   1.097  0.6577  0.9807 -0.2599
   44SOL     MW  176   1.232   0.814   1.032 -0.4206  0.3059 -0.1005
   45SOL     OW  177   1.300   0.847   0.727 -0.0394 -0.4691 -0.0526
   45SOL    HW1  178   1.262   0.816   0.807  1.4852  2.1184  0.6064
   45SOL    HW2  179   1.255   0.814   0.648  0.2455  0.4681 -2.7431
   45SOL     MW  180   1.289   0.838   0.727  0.1993 -0.0040 -0.3207
   46SOL     OW  181   0.439   1.135   0.655 -0.1448 -0.0738  0.2639
   46SOL    HW1  182   0.476   1.167   0.569  0.1123  0.9999 -0.2986
   46SOL    HW2  183   0.474   1.198   0.717 -0.2153 -1.7532  0.3691
   46SOL     MW  184   0.449   1.147   0.652 -0.1201 -0.1537  0.2035
   47SOL     OW  185   0.094   2.022   1.900  0.2070 -0.7717  0.2332
   47SOL    HW1  186   0.094   1.941   1.846 -1.8719  1.1171  0.1388
   47SOL    HW2  187   0.059   2.000   1.987  2.8734 -0.8525 -2.3100
   47SOL     MW  188   0.090   2.008   1.904  0.2845 -0.5332 -0.1148
   48SOL     OW  189   1.216   0.501   1.008  0.3551  0.0536 -0.3345
   48SOL    HW1  190   1.184   0.446   0.938 -2.4897  1.2806  1.0738
   48SOL    HW2  191   1.166   0.581   1.014 -1.8077 -1.1686 -1.2181
   48SOL     MW  192   1.206   0.504   0.999 -0.3056  0.0543 -0.2653
   49SOL     OW  193   1.687   0.688   1.571  0.0094  0.1721  0.0035
   49SOL    HW1  194   1.737   0.629   1.627 -0.4530 -1.0005  0.3023
   49SOL    HW2  195   1.714   0.659   1.485  0.4866  1.9544  0.3948
   49SOL     MW  196   1.697   0.676   1.567  0.0114  0.2525  0.0946
   50SOL     OW  197   1.306   1.216   0.617 -0.2195  0.0790  0.0376
   50SOL    HW1  198   1.218   1.215   0.673 -0.2229 -1.2208 -1.2750
   50SOL    HW2  199   1.368   1.150   0.664  1.1927 -2.3968  2.4518
   50SOL     MW  200   1.303   1.207   0.630 -0.0336 -0.4191  0.1830
   51SOL     OW  201   0.324   2.892   0.847  0.5087  0.6905  0.4200
   51SOL    HW1  202   0.411   2.853   0.847 -0.8843  1.8413  2.3865
   51SOL    HW2  203   0.320   2.934   0.932  3.7807 -0.8568 -2.4897
   51SOL     MW  204   0.335   2.892   0.858  0.7566  0.6382  0.2955
   52SOL     OW  205   0.786   1.817   0.480 -0.0077  0.1288 -0.0307
   52SOL    HW1  206   0.768   1.908   0.514 -0.9095  0.9846  1.3526
   52SOL    HW2  207   0.829   1.822   0.394  1.0236  0.9205  1.2296
   52SOL     MW  208   0.789   1.830   0.473  0.0094  0.3462  0.3181
   53SOL     OW  209   0.494   2.148   0.591  0.0569 -0.5645  0.1735
   53SOL    HW1  210   0.439   2.122   0.512 -2.1638 -2.3284  1.9625
   53SOL    HW2  211   0.468   2.237   0.595 -1.4198 -3.3868  1.2868
   53SOL     MW  212   0.484   2.156   0.581 -0.4309 -1.1696  0.5564
   54SOL     OW  213   2.043   0.977   0.745 -0.3060 -0.4438 -0.0108
   54SOL    HW1  214   2.081   0.992   0.660 -2.4797  0.2772  0.0902
   54SOL    HW2  215   2.007   0.888   0.741  0.9849  0.5394  1.4588
   54SOL     MW  216   2.043   0.967   0.733 -0.4225 -0.2190  0.1964
   55SOL     OW  217   0.435   1.519   1.714  0.0820  0.5337  0.5172
   55SOL    HW1  218   0.383   1.562   1.648 -1.0981 -0.3406  1.1577
   55SOL    HW2  219   0.519   1.502   1.662 -0.4889  0.1985  0.1176
   55SOL     MW  220   0.440   1.522   1.698 -0.1490  0.3742  0.5490
   56SOL     OW  221   0.650   0.925   0.141 -0.6975 -0.2098 -0.4114
   56SOL    HW1  222   0.660   1.019   0.133 -1.4377 -0.8471  2.1676
   56SOL    HW2  223   0.571   0.887   0.101 -0.4262  0.4581 -0.7492
   56SOL     MW  224   0.641   0.933   0.134 -0.7594 -0.2058 -0.1157
   57SOL     OW  225   1.096   1.283   1.153 -0.0314  0.1689 -0.2985
   57SOL    HW1  226   1.190   1.306   1.170 -1.5583 -0.4094  1.3115
   57SOL    HW2  227   1.075   1.224   1.233  0.0758 -0.4626 -1.6212
   57SOL     MW  228   1.106   1.278   1.166 -0.2187  0.0093 -0.2606
   58SOL     OW  229   0.458   1.270   1.298 -0.3308 -0.1259  0.4662
   58SOL    HW1  230   0.441   1.363   1.313  2.8774  0.6974 -2.0768
   58SOL    HW2  231   0.486   1.239   1.388 -2.0077  1.5271 -0.9592
   58SOL     MW  232   0.460   1.278   1.312 -0.1287  0.2008 -0.0574
   59SOL     OW  233   1.439   1.681   0.388  0.4544  0.1067 -0.0561
   59SOL    HW1  234   1.491   1.726   0.449 -1.7716  1.2162  0.1586
   59SOL    HW2  235   1.353   1.655   0.429 -4.0860  0.2069  0.5290
   59SOL     MW  236   1.434   1.683   0.401 -0.4383  0.2663  0.0494
   60SOL     OW  237   3.102   0.183   1.628 -0.2359  0.5221  0.0145
   60SOL    HW1  238   3.019   0.218   1.654  0.9747 -0.5731  1.1812
   60SOL    HW2  239   3.116   0.120   1.705 -0.1518 -0.6062  4.2302
   60SOL     MW  240   3.093   0.179   1.642 -0.0651  0.2287  0.7246
   61SOL     OW  241   1.954   1.339   2.982  0.2306 -0.1375  0.0863
   61SOL    HW1  242   1.925   1.354   3.073 -0.5981  1.1386 -0.9300
   61SOL    HW2  243   2.047   1.307   2.990  0.7678  2.4636  0.9273
   61SOL     MW  244   1.962   1.337   2.996  0.1922  0.3741  0.0632
   62SOL     OW  245   0.587   1.711   0.660 -0.1495 -0.3943  0.0891
   62SOL    HW1  246   0.681   1.694   0.652  0.1348  0.9261  0.3410
   62SOL    HW2  247   0.548   1.627   0.675  0.0836  0.3021 -0.4429
   62SOL     MW  248   0.595   1.698   0.661 -0.0813 -0.1282  0.0522
   63SOL     OW  249   1.733   0.716   0.614 -0.6694 -0.2390 -0.1035
   63SOL    HW1  250   1.707   0.803   0.578 -0.2933  0.9035 -0.7861
   63SOL    HW2  251   1.652   0.693   0.668  1.1732 -1.4882 -1.0615
   63SOL     MW  252   1.719   0.724   0.616 -0.3767 -0.2531 -0.3200
   64SOL     OW  253   0.278   1.674   0.705  0.0717  0.2682 -0.3509
   64SOL    HW1  254   0.333   1.752   0.699  1.7567  0.0306 -1.4114
   64SOL    HW2  255   0.198   1.725   0.723 -3.0563  1.7836  1.1170
   64SOL     MW  256   0.275   1.691   0.706 -0.1187  0.4368 -0.2972
   65SOL     OW  257   1.490   2.292   0.387  0.0956  0.2527  0.1377
   65SOL    HW1  258   1.575   2.335   0.387 -0.0700 -3.6957 -2.3276
   65SOL    HW2  259   1.431   2.320   0.463 -1.7288  0.0117 -0.5954
   65SOL     MW  260   1.494   2.301   0.397 -0.1670 -0.3001 -0.2843
   66SOL     OW  261   0.390   0.592   0.505 -0.2820  0.1568  0.6009
   66SOL    HW1  262   0.434   0.585   0.418  0.6367 -0.4499 -1.3904
   66SOL    HW2  263   0.371   0.682   0.507 -0.4609 -0.1880  1.7093
   66SOL     MW  264   0.393   0.603   0.494 -0.1844  0.0312  0.4844
   67SOL     OW  265   1.428   0.052   1.978 -0.6525  0.5362 -0.6153
   67SOL    HW1  266   1.468   0.074   1.895  1.8952 -0.9357  0.4320
   67SOL    HW2  267   1.358  -0.013   1.958 -1.5568 -2.3143 -1.0015
   67SOL     MW  268   1.424   0.046   1.964 -0.4356 -0.0341 -0.5281
   68SOL     OW  269   0.756   0.075   2.945  0.3268  0.3255 -0.7196
   68SOL    HW1  270   0.763   0.141   2.875 -1.3378 -0.2148  1.0311
   68SOL    HW2  271   0.837   0.065   2.991  0.5737 -0.2014  2.9266
   68SOL     MW  272   0.768   0.082   2.941  0.1398  0.1847 -0.0075
   69SOL     OW  273   1.091   0.266   1.947  0.0468  0.8332  0.4594
   69SOL    HW1  274   1.176   0.275   1.995  3.7642 -1.2620 -0.5784
   69SOL    HW2  275   1.041   0.203   2.000 -0.5584  2.9660  1.2293
   69SOL     MW  276   1.095   0.259   1.960  0.4574  0.8381  0.4241
   70SOL     OW  277   0.507   1.737   1.102  0.0517  0.0721  0.2759
   70SOL    HW1  278   0.596   1.755   1.082  0.9973  0.4608  0.8023
   70SOL    HW2  279   0.507   1.660   1.040  1.5570 -1.0752  1.0555
   70SOL     MW  280   0.519   1.729   1.091  0.3751 -0.0280  0.4482
   71SOL     OW  281   1.540   0.555   1.271  0.1099 -0.1289  0.3323
   71SOL    HW1  282   1.489   0.627   1.325 -1.7672  0.5179  1.3298
   71SOL    HW2  283   1.547   0.583   1.180 -0.7641 -2.2227  0.3153
   71SOL     MW  284   1.534   0.568   1.266 -0.2531 -0.3198  0.4617
   72SOL     OW  285   0.803   1.833   1.000 -0.2262 -0.6173  0.1342
   72SOL    HW1  286   0.779   1.910   0.940 -1.8321 -0.2400  0.0137
   72SOL    HW2  287   0.852   1.760   0.957  1.8480 -0.1078 -2.7376
   72SOL     MW  288   0.807   1.833   0.987 -0.1644 -0.5003 -0.2606
   73SOL     OW  289   1.123   0.682   1.223 -0.0902  0.9342 -0.9184
   73SOL    HW1  290   1.054   0.610   1.236  1.8912  2.4018  2.4650
   73SOL    HW2  291   1.103   0.750   1.293 -1.6120 -0.8726  1.8293
   73SOL     MW  292   1.111   0.682   1.234 -0.0295  0.8894 -0.1094
   74SOL     OW  293   2.772   0.089   0.976 -0.2716 -0.0052  0.0944
   74SOL    HW1  294   2.858   0.122   0.950  1.2251 -2.9057  0.1060
   74SOL    HW2  295   2.727   0.172   0.975  2.0703 -0.5358 -2.1783
   74SOL     MW  296   2.777   0.104   0.973  0.2348 -0.4579 -0.2040
   75SOL     OW  297   1.519   1.352   0.159 -0.2246 -0.4361  0.3632
   75SOL    HW1  298   1.567   1.278   0.120  1.6536 -0.8483  1.5686
   75SOL    HW2  299   1.533   1.341   0.259 -0.8986 -0.4894  1.2009
   75SOL     MW  300   1.527   1.341   0.167 -0.0658 -0.4975  0.6327
   76SOL     OW  301   3.031   0.688   0.491  0.2023 -0.1177 -1.4214
   76SOL    HW1  302   3.046   0.739   0.576 -0.1544  0.6204  1.8542
   76SOL    HW2  303   3.116   0.646   0.476 -1.7953 -0.0406 -0.4483
   76SOL     MW  304   3.044   0.689   0.500 -0.1083 -0.0102 -0.8608
   77SOL     OW  305   0.830   0.622   0.452 -0.0517 -0.3700 -0.3149
   77SOL    HW1  306   0.786   0.656   0.373  0.7977  1.4413 -0.0152
   77SOL    HW2  307   0.829   0.524   0.437  0.5828 -0.9885  2.2345
   77SOL     MW  308   0.824   0.614   0.440  0.1441 -0.2126  0.0610
   78SOL     OW  309   0.778   0.876   1.087 -0.0565 -0.5103 -0.1341
   78SOL    HW1  310   0.770   0.950   1.032  0.6313 -2.0081  0.3729
   78SOL    HW2  311   0.695   0.869   1.135 -0.2126  1.3175  1.1110
   78SOL     MW  312   0.766   0.885   1.086  0.0136 -0.4667  0.0971
   79SOL     OW  313   1.848   1.503   0.544  0.2780 -0.0767 -0.5903
   79SOL    HW1  314   1.758   1.481   0.564 -0.1623 -0.3923  1.4458
   79SOL    HW2  315   1.891   1.454   0.617 -0.1635  2.3211 -0.5808
   79SOL     MW  316   1.841   1.493   0.556  0.1617  0.1980 -0.3204
   80SOL     OW  317   0.157   0.988   0.300  0.8220 -0.7512 -0.3227
   80SOL    HW1  318   0.121   0.925   0.240 -1.7915 -0.7133 -2.0867
   80SOL    HW2  319   0.205   0.930   0.364 -0.1721 -1.5830 -1.7094
   80SOL     MW  320   0.159   0.972   0.301  0.3460 -0.8559 -0.7384
   81SOL     OW  321   1.822   1.874   0.365  1.2280  0.3271 -0.1688
   81SOL    HW1  322   1.804   1.784   0.342 -1.3542  3.9603 -0.1395
   81SOL    HW2  323   1.774   1.922   0.287 -0.7954 -0.9581 -0.4972
   81SOL     MW  324   1.813   1.868   0.351  0.6203  0.6369 -0.2082
   82SOL     OW  325   0.967   1.040   0.554 -0.0435 -0.0322  0.3894
   82SOL    HW1  326   0.914   1.076   0.483 -1.3488  0.6767  0.7763
   82SOL    HW2  327   0.908   0.971   0.583  3.1515 -1.7727 -2.0521
   82SOL     MW  328   0.952   1.035   0.549  0.2058 -0.1683  0.1183
   83SOL     OW  329   0.035   0.741   1.569 -0.3603  0.4893  0.1065
   83SOL    HW1  330   0.039   0.832   1.518 -0.6183 -0.9657  3.0602
   83SOL    HW2  331   0.101   0.681   1.526 -0.6626 -1.1459  0.4083
   83SOL     MW  332   0.044   0.745   1.557 -0.4342  0.0816  0.5360
   84SOL     OW  333   0.034   0.170   0.937 -0.3632  0.0402 -0.1485
   84SOL    HW1  334   0.044   0.258   0.975  0.2695 -0.5500 -0.5683
   84SOL    HW2  335   0.032   0.094   1.002 -1.0803  1.3815 -1.1814
   84SOL     MW  336   0.035   0.172   0.951 -0.3743  0.1393 -0.3401
   85SOL     OW  337   0.327   0.494   0.774  0.2383 -0.0642  0.0567
   85SOL    HW1  338   0.361   0.512   0.688 -2.5552  0.1355  0.0633
   85SOL    HW2  339   0.298   0.402   0.770  1.8245  1.4649  0.8937
   85SOL     MW  340   0.328   0.485   0.762  0.0790  0.1639  0.1680
   86SOL     OW  341   1.233   0.270   1.154  0.7882  0.1621  0.2712
   86SOL    HW1  342   1.215   0.360   1.123 -0.5392 -1.1836  1.4745
   86SOL    HW2  343   1.323   0.271   1.190  1.2969 -0.5128 -2.0767
   86SOL     MW  344   1.243   0.282   1.155  0.6802 -0.1045  0.1202
   87SOL     OW  345   1.036   1.542   1.175 -0.2900  0.3803 -0.2922
   87SOL    HW1  346   1.097   1.586   1.116  2.7211 -4.1802 -2.7857
   87SOL    HW2  347   1.056   1.448   1.162  1.4038 -0.9273  1.2141
   87SOL     MW  348   1.046   1.535   1.165  0.3308 -0.3940 -0.4225
   88SOL     OW  349   1.193   1.078   0.989 -0.8449 -0.0385 -0.4217
   88SOL    HW1  350   1.290   1.095   1.002 -0.7345 -0.0543 -1.0923
   88SOL    HW2  351   1.150   1.126   1.061  1.4427  0.0811  2.4128
   88SOL     MW  352   1.200   1.087   1.000 -0.5285 -0.0248 -0.1362
   89SOL     OW  353   1.777   0.693   0.218 -0.0214 -0.3292 -0.5595
   89SOL    HW1  354   1.726   0.635   0.274 -1.7021  0.1629  0.4335
   89SOL    HW2  355   1.833   0.748   0.273 -2.7435  0.7623 -0.4114
   89SOL     MW  356   1.778   0.692   0.232 -0.6023 -0.1203 -0.4089
   90SOL     OW  357   0.783   1.230   2.856  0.0205 -0.2649  0.0156
   90SOL    HW1  358   0.821   1.142   2.850 -0.0229  1.8238 -0.3905
   90SOL    HW2  359   0.810   1.268   2.939 -0.4792 -0.0099 -2.5713
   90SOL     MW  360   0.792   1.224   2.866 -0.0511  0.0443 -0.3793
   91SOL     OW  361   2.214   0.613   0.473  0.6619  0.6317  0.5035
   91SOL    HW1  362   2.289   0.656   0.426 -0.3812  1.5447  2.5652
   91SOL    HW2  363   2.216   0.517   0.446 -0.2017  0.1649  3.1224
   91SOL     MW  364   2.224   0.606   0.464  0.4103  0.6906  1.1211
   92SOL     OW  365   1.633   0.964   0.523  0.0144 -0.2871 -0.5864
   92SOL    HW1  366   1.588   1.004   0.595  1.0625 -1.1297 -2.7244
   92SOL    HW2  367   1.581   1.004   0.458  1.7587  0.6605  1.5034
   92SOL     MW  368   1.620   0.975   0.524  0.3828 -0.2732 -0.5928
   93SOL     OW  369   1.065   0.289   0.367  0.4811 -0.1673  0.5959
   93SOL    HW1  370   0.973   0.309   0.377 -0.0846 -2.2545  0.1337
   93SOL    HW2  371   1.080   0.337   0.282  1.6741  0.6337  0.4688
   93SOL     MW  372   1.054   0.298   0.357  0.5638 -0.3370  0.5181
   94SOL     OW  373   1.889   1.385   1.584  0.8006  0.0261  0.6673
   94SOL    HW1  374   1.878   1.399   1.486 -3.2459  2.4326  3.6573
   94SOL    HW2  375   1.893   1.289   1.601 -0.6838 -1.0065  0.2406
   94SOL     MW  376   1.888   1.375   1.573  0.0709  0.2074  1.0055
   95SOL     OW  377   0.596   1.553   0.923  0.3041  0.0394  0.1676
   95SOL    HW1  378   0.663   1.503   0.976 -2.9784  0.7276 -1.3741
   95SOL    HW2  379   0.544   1.488   0.875  0.9933 -0.4245  1.1025
   95SOL     MW  380   0.598   1.538   0.924 -0.0380  0.0690  0.0875
   96SOL     OW  381   1.336   1.863   1.682 -0.7831 -0.0717  0.0148
   96SOL    HW1  382   1.248   1.852   1.731 -0.2330  1.4906  2.4369
   96SOL    HW2  383   1.350   1.773   1.648 -0.5128  1.0331 -2.7907
   96SOL     MW  384   1.326   1.849   1.684 -0.6749  0.2802 -0.0358
   97SOL     OW  385   1.093   1.564   0.836  0.1883  0.2936 -0.0804
   97SOL    HW1  386   1.118   1.631   0.905  1.5736  0.0663  0.4768
   97SOL    HW2  387   1.004   1.590   0.807 -1.1696 -0.4323 -0.9676
   97SOL     MW  388   1.084   1.576   0.841  0.1919  0.1678 -0.1239
   98SOL     OW  389   1.331   1.406   1.190  0.0861  0.0299  0.8824
   98SOL    HW1  390   1.378   1.450   1.264 -0.4602  0.3440 -0.7689
   98SOL    HW2  391   1.381   1.426   1.111  0.5073 -2.3348 -1.8261
   98SOL     MW  392   1.343   1.415   1.189  0.0696 -0.2406  0.3071
   99SOL     OW  393   1.503   0.298   1.338  0.3799  0.5159 -0.0767
   99SOL    HW1  394   1.528   0.391   1.322  0.3920 -2.6727  2.6066
   99SOL    HW2  395   1.468   0.297   1.434 -0.5228  0.7978  1.1091
   99SOL     MW  396   1.502   0.310   1.349  0.2624  0.1324  0.4338
  100SOL     OW  397   1.056   1.141   1.373 -0.2134  0.5086  0.0211
  100SOL    HW1  398   1.109   1.188   1.439  0.7145  1.9621  0.3695
  100SOL    HW2  399   1.062   1.044   1.396 -2.2401 -1.0564  0.5376
  100SOL     MW  400   1.064   1.135   1.385 -0.3584  0.4939  0.1352
  101SOL     OW  401   0.544   1.217   0.413  0.0970  0.2840  0.3528
  101SOL    HW1  402   0.468   1.180   0.355 -3.0530  0.4255 -2.8607
  101SOL    HW2  403   0.625   1.180   0.381  0.4155  0.5663 -0.1526
  101SOL     MW  404   0.544   1.207   0.401 -0.2766  0.3400 -0.1379
  102SOL     OW  405   2.957   0.626   1.105  0.1898 -0.6281  0.1989
  102SOL    HW1  406   2.990   0.712   1.106 -1.3162 -2.9000 -1.8810
  102SOL    HW2  407   2.892   0.613   1.180 -1.7500  0.8391 -0.3388
  102SOL     MW  408   2.953   0.635   1.115 -0.2648 -0.7343 -0.1464
  103SOL     OW  409   1.858   0.264   1.786 -0.1256 -0.8046 -0.3505
  103SOL    HW1  410   1.871   0.171   1.779  1.9820  1.5272 -0.2595
  103SOL    HW2  411   1.834   0.275   1.882  1.4165 -1.2868  0.0043
  103SOL     MW  412   1.856   0.253   1.798  0.3559 -0.5606 -0.2916
  104SOL     OW  413   0.045   1.535   1.665 -0.0708  0.1790  0.3300
  104SOL    HW1  414   0.104   1.472   1.721 -0.7124  1.3679 -0.2770
  104SOL    HW2  415  -0.043   1.505   1.666  2.3080  0.4212  2.1924
  104SOL     MW  416   0.041   1.523   1.673  0.1585  0.3678  0.4957
  105SOL     OW  417   0.014   1.229   0.404  0.7667 -0.0034  0.2108
  105SOL    HW1  418   0.048   1.140   0.400  1.4464  1.2425  1.3237
  105SOL    HW2  419   0.091   1.277   0.434 -1.2349 -0.6706 -0.5688
  105SOL     MW  420   0.028   1.224   0.407  0.5923  0.0729  0.2547
  106SOL     OW  421   0.781   0.291   0.831  0.2420 -0.4395  0.1949
  106SOL    HW1  422   0.711   0.345   0.875 -1.9615 -1.4790  0.9288
  106SOL    HW2  423   0.842   0.353   0.800 -0.1511 -0.0559  0.0076
  106SOL     MW  424   0.780   0.306   0.833 -0.1006 -0.5261  0.2670
  107SOL     OW  425   0.815   2.212   2.890 -0.3637 -0.0784  0.2038
  107SOL    HW1  426   0.723   2.217   2.904 -1.5941  0.0504  1.5728
  107SOL    HW2  427   0.847   2.160   2.968 -0.9631  0.2442  0.1538
  107SOL     MW  428   0.807   2.206   2.902 -0.6051 -0.0189  0.3778
  108SOL     OW  429   1.360   1.572   1.633 -1.0040 -0.1139 -0.2428
  108SOL    HW1  430   1.311   1.532   1.566  2.3254  1.4270 -3.1936
  108SOL    HW2  431   1.431   1.504   1.647  1.2171 -2.7016  2.4909
  108SOL     MW  432   1.363   1.558   1.626 -0.2717 -0.2520 -0.2715
  109SOL     OW  433   2.031   0.759   0.342  0.1022  0.1448  0.4124
  109SOL    HW1  434   2.050   0.856   0.355  1.1123 -0.9069  1.7081
  109SOL    HW2  435   2.096   0.710   0.395 -0.1929 -0.6587  0.4984
  109SOL     MW  436   2.042   0.765   0.351  0.1965 -0.1000  0.5947
  110SOL     OW  437   0.411   1.932   0.745 -0.0331  0.9260 -0.2765
  110SOL    HW1  438   0.479   1.875   0.718 -0.9995 -1.0822  1.8708
  110SOL    HW2  439   0.420   2.013   0.691  2.1547 -1.2464  0.9965
  110SOL     MW  440   0.421   1.935   0.734  0.1281  0.3744  0.1748
  111SOL     OW  441   0.863   0.867   1.356  0.1552  0.2038 -0.5345
  111SOL    HW1  442   0.845   0.861   1.263 -2.3646  1.0782 -0.1120
  111SOL    HW2  443   0.814   0.796   1.393  2.5763  1.3475  0.4482
  111SOL     MW  444   0.854   0.857   1.348  0.1422  0.4701 -0.3491
  112SOL     OW  445   1.403   1.104   1.596 -0.0106  0.1227  0.3648
  112SOL    HW1  446   1.321   1.153   1.596  1.3534  0.1826  0.9005
  112SOL    HW2  447   1.371   1.017   1.620 -0.6336  0.0878  0.7711
  112SOL     MW  448   1.388   1.099   1.599  0.0871  0.1260  0.4891
  113SOL     OW  449   1.229   3.007   1.725  0.2696 -0.0290  0.3170
  113SOL    HW1  450   1.216   2.962   1.811 -2.2189  1.1165  0.6201
  113SOL    HW2  451   1.190   2.954   1.660  2.2531  0.2060  0.0041
  113SOL     MW  452   1.222   2.994   1.728  0.2029  0.1532  0.3157
  114SOL     OW  453   0.319   2.870   1.770  1.5126  0.2266 -0.3948
  114SOL    HW1  454   0.409   2.920   1.769  0.8362 -1.9889 -1.7197
  114SOL    HW2  455   0.262   2.918   1.831  0.8887  1.3353  0.2815
  114SOL     MW  456   0.323   2.883   1.778  1.3410  0.0805 -0.4804
  115SOL     OW  457   0.527   0.848   1.189  1.0651 -0.0492 -0.6170
  115SOL    HW1  458   0.509   0.755   1.191  0.4345 -0.4953  0.1673
  115SOL    HW2  459   0.455   0.888   1.250  0.2057 -0.7067  3.6605
  115SOL     MW  460   0.516   0.841   1.197  0.8685 -0.1948  0.0508
  116SOL     OW  461   0.709   1.124   0.948 -0.2830  0.1479  0.0704
  116SOL    HW1  462   0.762   1.165   0.869  0.9166 -1.5643 -1.6796
  116SOL    HW2  463   0.728   1.178   1.022 -1.7207  0.3817  0.6121
  116SOL     MW  464   0.718   1.136   0.947 -0.3144 -0.0472 -0.0891
  117SOL     OW  465   1.129   1.292   0.803  0.0621  0.6540 -0.0268
  117SOL    HW1  466   1.153   1.227   0.868 -0.0549 -1.5404  0.2368
  117SOL    HW2  467   1.119   1.388   0.840  1.3556  1.2474 -1.1652
  117SOL     MW  468   1.131   1.296   0.816  0.2173  0.4428 -0.1422
  118SOL     OW  469   3.047   2.938   1.807  0.9305 -0.2678  0.2995
  118SOL    HW1  470   3.087   3.021   1.824  0.1009  0.1982 -2.4043
  118SOL    HW2  471   2.955   2.968   1.799 -0.5576  0.5782 -0.5597
  118SOL     MW  472   3.040   2.953   1.808  0.6247 -0.0947 -0.1706
  119SOL     OW  473   0.369   1.546   1.241  0.0109  0.2206  0.4020
  119SOL    HW1  474   0.419   1.616   1.193  1.5976 -1.6457  2.1109
  119SOL    HW2  475   0.280   1.530   1.206  0.6641 -1.1531  1.8407
  119SOL     MW  476   0.364   1.553   1.230  0.3065 -0.2069  0.8173
  120SOL     OW  477   0.271   0.829   0.993  0.0468 -0.0682 -0.0936
  120SOL    HW1  478   0.283   0.870   1.079 -1.2376  4.8657 -1.5845
  120SOL    HW2  479   0.355   0.833   0.948  0.7670  0.3611  0.6848
  120SOL     MW  480   0.284   0.835   0.999 -0.0277  0.6394 -0.1876
  121SOL     OW  481   1.774   1.126   1.611  0.1872 -0.3352 -0.0307
  121SOL    HW1  482   1.722   1.172   1.544 -0.1525 -0.5933 -0.9164
  121SOL    HW2  483   1.819   1.061   1.561  1.4747 -2.0207  2.5259
  121SOL     MW  484   1.773   1.123   1.595  0.3123 -0.5917  0.1898
  122SOL     OW  485   0.108   0.633   0.850 -0.2923  1.3097  0.2276
  122SOL    HW1  486   0.168   0.588   0.794 -0.9367 -0.5229  0.7156
  122SOL    HW2  487   0.154   0.693   0.904 -1.7403 -1.5752  1.2941
  122SOL     MW  488   0.122   0.635   0.850 -0.5684  0.6873  0.4327
  123SOL     OW  489   1.869   1.097   0.529  0.2221 -0.0251  0.0486
  123SOL    HW1  490   1.793   1.038   0.514 -1.8603  1.8413 -0.3987
  123SOL    HW2  491   1.898   1.079   0.619  0.5740  0.7562 -0.5778
  123SOL     MW  492   1.863   1.087   0.539 -0.0062  0.3242 -0.0931
  124SOL     OW  493   0.607   0.451   0.955  0.5105  0.4041 -0.6451
  124SOL    HW1  494   0.525   0.449   0.904 -1.9262  1.9253  1.5587
  124SOL    HW2  495   0.635   0.545   0.959  2.0050  0.0398  2.2741
  124SOL     MW  496   0.600   0.463   0.948  0.3862  0.5568  0.0308
  125SOL     OW  497   0.684   1.712   1.769 -0.3015 -0.8284 -0.5951
  125SOL    HW1  498   0.688   1.706   1.674  0.5539  1.0016 -1.2655
  125SOL    HW2  499   0.628   1.795   1.778  1.3690 -1.3621 -2.9028
  125SOL     MW  500   0.677   1.722   1.758  0.0318 -0.6573 -0.9881
  126SOL     OW  501   2.127   1.540   1.909 -0.2361  0.2701  0.1419
  126SOL    HW1  502   2.189   1.603   1.877 -2.6563  1.2295  1.1436
  126SOL    HW2  503   2.187   1.474   1.941 -1.4448  0.3973  0.0048
  126SOL     MW  504   2.143   1.539   1.909 -0.7149  0.4135  0.2560
  127SOL     OW  505   0.530   0.785   1.809 -0.7061 -0.2474  0.0414
  127SOL    HW1  506   0.630   0.788   1.796  2.1092  0.2790  2.2539
  127SOL    HW2  507   0.508   0.848   1.872 -0.8022  1.1270  0.3082
  127SOL     MW  508   0.540   0.794   1.815 -0.3473  0.0034  0.3685
  128SOL     OW  509   1.744   0.713   2.893 -0.3653  0.6806 -0.2090
  128SOL    HW1  510   1.788   0.700   2.810  0.3087  2.1242 -3.8839
  128SOL    HW2  511   1.715   0.802   2.892 -1.2294  1.3928  1.2654
  128SOL     MW  512   1.746   0.723   2.882 -0.3904  0.9651 -0.4993
  129SOL     OW  513   1.569   0.867   0.187 -0.2172 -0.6331 -0.2132
  129SOL    HW1  514   1.510   0.794   0.186 -0.7157 -0.4104  2.0719
  129SOL    HW2  515   1.653   0.826   0.182  0.9090 -1.0561  1.6299
  129SOL     MW  516   1.572   0.852   0.186 -0.1344 -0.6596  0.3315
  130SOL     OW  517   0.830   1.466   0.329 -0.0996  0.2360  0.8877
  130SOL    HW1  518   0.824   1.451   0.422 -1.0516 -2.7958 -1.7123
  130SOL    HW2  519   0.928   1.481   0.320  3.5636  2.6852 -1.0533
  130SOL     MW  520   0.842   1.466   0.340  0.2581  0.1591  0.2886
  131SOL     OW  521   0.066   0.800   0.107  0.3404  0.3783  0.7871
  131SOL    HW1  522   0.023   0.831   0.034 -0.3952 -1.5928  1.6725
  131SOL    HW2  523   0.128   0.735   0.077 -0.3814 -0.5092 -0.6980
  131SOL     MW  524   0.069   0.796   0.094  0.1481  0.0011  0.7080
  132SOL     OW  525   2.752   0.086   1.246 -0.1515  0.0231 -0.0730
  132SOL    HW1  526   2.772   0.077   1.153 -1.2965 -0.8172 -3.1321
  132SOL    HW2  527   2.662   0.064   1.268 -1.2603 -0.2666  2.5225
  132SOL     MW  528   2.743   0.081   1.236 -0.4489 -0.1260 -0.1342
  133SOL     OW  529   1.029   0.126   1.671 -0.3785 -0.5500  0.3829
  133SOL    HW1  530   1.097   0.055   1.668  0.3666 -0.4305 -0.2284
  133SOL    HW2  531   1.041   0.172   1.751 -0.7762 -0.6009 -0.2397
  133SOL     MW  532   1.040   0.123   1.681 -0.3327 -0.5409  0.2201
  134SOL     OW  533   1.410   2.471   1.461 -0.4942  0.5129 -0.5064
  134SOL    HW1  534   1.360   2.538   1.415 -0.2563  4.3872  0.2786
  134SOL    HW2  535   1.429   2.503   1.548 -0.3686 -1.3321 -3.6250
  134SOL     MW  536   1.406   2.484   1.466 -0.4462  0.7806 -0.8143
  135SOL     OW  537   3.022   0.980   2.961  0.0626 -0.0990 -0.3373
  135SOL    HW1  538   3.118   1.005   2.974  0.9343  0.7684 -1.2365
  135SOL    HW2  539   2.990   1.071   2.935  0.5163  1.0838  2.3844
  135SOL     MW  540   3.030   0.996   2.959  0.2374  0.1715 -0.0968
  136SOL     OW  541   0.193   1.973   0.871 -0.3739 -0.1446  0.0728
  136SOL    HW1  542   0.113   1.927   0.846 -0.1979  2.6110  2.9423
  136SOL    HW2  543   0.271   1.946   0.817 -0.8186 -0.0708 -0.4962
  136SOL     MW  544   0.193   1.963   0.861 -0.4094  0.2287  0.3763
  137SOL     OW  545   0.752   2.075   0.586 -0.5481 -0.1360  0.2544
  137SOL    HW1  546   0.776   2.069   0.681  1.4103  2.3927  1.5552
  137SOL    HW2  547   0.657   2.106   0.585 -0.5836 -2.7813  1.5733
  137SOL     MW  548   0.742   2.079   0.598 -0.2944 -0.1514  0.6001
  138SOL     OW  549   0.468   0.577   1.174 -0.2801  0.0923 -0.9018
  138SOL    HW1  550   0.382   0.548   1.184  1.3338  0.8242 -2.8049
  138SOL    HW2  551   0.516   0.525   1.106  0.0973  1.3694 -0.2773
  138SOL     MW  552   0.463   0.566   1.166 -0.0174  0.3574 -1.0705
  139SOL     OW  553   2.845   0.535   1.358 -0.0290 -0.0859  0.3238
  139SOL    HW1  554   2.917   0.470   1.344 -0.1893  0.2796  0.5097
  139SOL    HW2  555   2.851   0.573   1.447  1.3989  1.0845 -1.4656
  139SOL     MW  556   2.856   0.531   1.368  0.1382  0.1167  0.1122
  140SOL     OW  557   0.872   0.454   1.959  0.1765  0.3901 -0.6144
  140SOL    HW1  558   0.941   0.389   1.935  1.1070  1.1456 -0.8818
  140SOL    HW2  559   0.890   0.484   2.046 -1.3800  1.3813 -0.3871
  140SOL     MW  560   0.883   0.450   1.967  0.0939  0.6206 -0.6197
  141SOL     OW  561   1.057   0.617   1.654  0.5541  0.3599  0.4598
  141SOL    HW1  562   1.063   0.532   1.608  0.9784 -0.8904  2.0092
  141SOL    HW2  563   1.112   0.672   1.607 -0.6859 -0.6547  1.3347
  141SOL     MW  564   1.065   0.613   1.642  0.4465  0.0611  0.7797
  142SOL     OW  565   0.864   1.207   0.745 -0.1935  0.0916  0.0491
  142SOL    HW1  566   0.907   1.148   0.680  0.1556  3.0775 -0.5186
  142SOL    HW2  567   0.948   1.250   0.767  0.6397 -0.0709 -3.2166
  142SOL     MW  568   0.881   1.205   0.739 -0.0375  0.4641 -0.4567
  143SOL     OW  569   1.827   0.730   1.031  0.1170  0.6448 -0.0397
  143SOL    HW1  570   1.870   0.724   0.948  1.4504 -0.9164 -0.2367
  143SOL    HW2  571   1.734   0.719   1.011 -0.8309 -1.8152  3.6069
  143SOL     MW  572   1.820   0.728   1.017  0.1678  0.1142  0.4155
  144SOL     OW  573   0.258   1.318   1.728 -0.4776 -0.1398  0.1201
  144SOL    HW1  574   0.305   1.406   1.725 -2.0814  0.4920 -0.8761
  144SOL    HW2  575   0.298   1.266   1.796  0.0260  0.1670 -2.8484
  144SOL     MW  576   0.269   1.323   1.736 -0.6228 -0.0160 -0.4030
  145SOL     OW  577   0.199   0.487   1.233  0.7649  0.0704 -0.9573
  145SOL    HW1  578   0.231   0.395   1.221  1.1702 -0.2573 -0.0621
  145SOL    HW2  579   0.137   0.495   1.160 -1.5752  2.1719 -2.4148
  145SOL     MW  580   0.195   0.476   1.222  0.5096  0.3044 -1.0315
  146SOL     OW  581   0.780   1.932   1.488 -0.4419  0.1516  0.7918
  146SOL    HW1  582   0.810   1.963   1.396  0.1090  1.9395  0.5337
  146SOL    HW2  583   0.742   1.841   1.475  1.3174 -0.3027  0.1319
  146SOL     MW  584   0.779   1.924   1.474 -0.1371  0.3276  0.6707
  147SOL     OW  585   0.471   0.499   2.918  0.2300  0.1574  0.5376
  147SOL    HW1  586   0.416   0.477   2.994  0.0362 -3.5970  0.3602
  147SOL    HW2  587   0.421   0.562   2.866  0.6962 -0.1760  0.9350
  147SOL     MW  588   0.457   0.504   2.921  0.2659 -0.3819  0.5666
  148SOL     OW  589   0.061   0.922   1.364 -0.4680 -0.1969  0.6569
  148SOL    HW1  590   0.150   0.949   1.338  1.1925  2.2135  0.6810
  148SOL    HW2  591   0.007   0.999   1.368 -0.4677 -1.3004 -0.4822
  148SOL     MW  592   0.066   0.936   1.361 -0.2488 -0.0245  0.5098
  149SOL     OW  593   1.607   1.181   1.380 -0.4191  0.2574  0.0109
  149SOL    HW1  594   1.551   1.140   1.450  2.8923  2.0970 -2.1666
  149SOL    HW2  595   1.587   1.274   1.380  0.2610 -0.0472 -1.8239
  149SOL     MW  596   1.597   1.188   1.389  0.1075  0.4599 -0.5185
  150SOL     OW  597   1.730   1.469   0.877 -0.0614  0.0587 -0.5953
  150SOL    HW1  598   1.788   1.393   0.886  2.2446  1.4399 -2.3884
  150SOL    HW2  599   1.785   1.538   0.839  1.9703 -1.1651 -0.2486
  150SOL     MW  600   1.745   1.468   0.873  0.5109  0.0795 -0.7861
  151SOL     OW  601   1.643   1.886   0.828 -0.3937 -0.2855 -0.0684
  151SOL    HW1  602   1.604   1.859   0.742 -1.2331  0.6852  1.5477
  151SOL    HW2  603   1.586   1.840   0.890 -0.9018  0.4298  0.3606
  151SOL     MW  604   1.631   1.876   0.825 -0.5715 -0.0630  0.2014
  152SOL     OW  605   0.644   1.423   1.560  0.1077  0.3856  0.0064
  152SOL    HW1  606   0.705   1.438   1.494  0.7155 -2.5512 -0.9482
  152SOL    HW2  607   0.647   1.324   1.560 -0.3557 -1.3048 -0.7671
  152SOL     MW  608   0.652   1.412   1.551  0.1267 -0.2249 -0.2216
  153SOL     OW  609   2.586   1.213   0.716 -0.3762  0.5208 -0.0136
  153SOL    HW1  610   2.654   1.175   0.661 -1.6622 -1.9785  2.3245
  153SOL    HW2  611   2.533   1.130   0.743  0.3207 -2.5097  1.2972
  153SOL     MW  612   2.588   1.197   0.712 -0.4539 -0.2088  0.4678
  154SOL     OW  613   0.120   1.782   1.783 -0.3586 -0.0856 -0.1193
  154SOL    HW1  614   0.068   1.697   1.773  1.5327  2.1682 -0.2964
  154SOL    HW2  615   0.212   1.763   1.796  1.2793  3.4080  0.9693
  154SOL     MW  616   0.125   1.768   1.783  0.1070  0.6727  0.0010
  155SOL     OW  617   1.224   0.703   0.282  0.0639 -0.2283  0.8121
  155SOL    HW1  618   1.207   0.681   0.371 -0.6774 -1.1218 -3.2977
  155SOL    HW2  619   1.197   0.798   0.287 -0.0140  2.1169  0.7317
  155SOL     MW  620   1.218   0.713   0.295 -0.0442 -0.0367  0.2593
  156SOL     OW  621   1.554   0.010   1.084  0.3025 -0.0475 -0.1618
  156SOL    HW1  622   1.606   0.044   1.152 -1.1462 -1.0017 -2.1867
  156SOL    HW2  623   1.579  -0.082   1.071 -1.0446 -0.4696 -2.3638
  156SOL     MW  624   1.564   0.002   1.091 -0.0664 -0.2291 -0.7195
  157SOL     OW  625   1.325   1.136   0.187 -0.1973 -0.3141  0.5335
  157SOL    HW1  626   1.359   1.064   0.244 -0.2096 -0.7817 -1.0400
  157SOL    HW2  627   1.389   1.201   0.196  1.1384 -0.9250  0.3966
  157SOL     MW  628   1.338   1.135   0.196 -0.0227 -0.4564  0.3078
  158SOL     OW  629   0.400   1.666   2.229 -0.6203 -0.3051  0.1074
  158SOL    HW1  630   0.451   1.738   2.193 -1.0772  0.0770 -0.8315
  158SOL    HW2  631   0.326   1.663   2.167 -1.2569 -3.6424 -0.2737
  158SOL     MW  632   0.397   1.675   2.216 -0.7646 -0.6950 -0.0667
  159SOL     OW  633   1.199   1.645   0.545 -0.1470  0.9123 -0.3724
  159SOL    HW1  634   1.143   1.625   0.468 -0.7740  0.3415  0.8281
  159SOL    HW2  635   1.140   1.700   0.603 -0.6514 -0.4065  0.8105
  159SOL     MW  636   1.184   1.649   0.543 -0.2962  0.6629 -0.0579
  160SOL     OW  637   0.511   1.158   1.521 -0.1711 -0.6762 -0.1870
  160SOL    HW1  638   0.446   1.096   1.561  2.7815 -0.0737  0.3690
  160SOL    HW2  639   0.601   1.127   1.537 -1.1161 -3.8990 -0.7451
  160SOL     MW  640   0.514   1.146   1.528  0.0938 -1.0219 -0.1873
  161SOL     OW  641   0.448   2.248   2.685  0.4054  0.5838  0.1447
  161SOL    HW1  642   0.367   2.304   2.659  0.9695  0.6062 -1.5847
  161SOL    HW2  643   0.464   2.179   2.622  1.5324 -0.0205  2.1947
  161SOL     MW  644   0.440   2.246   2.673  0.6285  0.5070  0.1870
  162SOL     OW  645   1.084   1.815   1.788  0.6037  0.0784 -0.1416
  162SOL    HW1  646   1.091   1.888   1.853 -0.7775 -2.6548 -0.2267
  162SOL    HW2  647   1.004   1.776   1.813  1.8188 -0.1268  0.7998
  162SOL     MW  648   1.074   1.819   1.800  0.5818 -0.3093 -0.0286
  163SOL     OW  649   2.121   3.092   0.842  0.1835 -0.2209 -0.0530
  163SOL    HW1  650   2.100   3.146   0.769  1.5495 -1.0227 -2.3137
  163SOL    HW2  651   2.099   2.999   0.809  1.0678  0.3654 -1.2843
  163SOL     MW  652   2.116   3.087   0.828  0.4804 -0.2493 -0.5137
  164SOL     OW  653   0.281   0.235   0.839  0.0261 -0.1276  0.7813
  164SOL    HW1  654   0.186   0.225   0.859  0.8785  1.7347  1.5158
  164SOL    HW2  655   0.300   0.166   0.778 -0.9066 -0.9100  1.5864
  164SOL     MW  656   0.271   0.225   0.834  0.0155  0.0149  0.9844
  165SOL     OW  657   1.198   1.317   0.400 -0.5102  0.1788 -0.0914
  165SOL    HW1  658   1.231   1.279   0.491  0.7637  0.3076  2.2795
  165SOL    HW2  659   1.202   1.244   0.340 -1.4073 -0.1410  3.9824
  165SOL     MW  660   1.203   1.302   0.404 -0.4605  0.1536  0.7589
  166SOL     OW  661   0.444   1.167   1.050 -1.2537 -0.2550 -0.0143
  166SOL    HW1  662   0.433   1.208   1.139  3.9502  0.2195 -1.2543
  166SOL    HW2  663   0.540   1.149   1.037  1.1139  0.3359  0.4434
  166SOL     MW  664   0.455   1.170   1.060 -0.2547 -0.1144 -0.1175
  167SOL     OW  665   0.817   1.167   0.338  0.6788 -0.0882  0.8125
  167SOL    HW1  666   0.802   1.258   0.316 -1.9269  0.5725 -0.9892
  167SOL    HW2  667   0.852   1.140   0.251 -0.0103 -2.4077 -0.4542
  167SOL     MW  668   0.820   1.176   0.324  0.2441 -0.3071  0.4076
  168SOL     OW  669   1.707   1.636   3.041 -0.2236  0.7237  0.2269
  168SOL    HW1  670   1.646   1.711   3.019 -2.5965 -1.5818 -0.6439
  168SOL    HW2  671   1.669   1.556   2.999  3.1944 -0.6483 -1.4329
  168SOL     MW  672   1.694   1.635   3.033 -0.0857  0.2385 -0.1070
  169SOL     OW  673   0.337   0.980   1.315 -0.0529 -0.3246 -0.0201
  169SOL    HW1  674   0.346   0.965   1.406 -1.7024 -1.1830  0.3270
  169SOL    HW2  675   0.375   1.063   1.293 -0.2663 -0.1615  2.7889
  169SOL     MW  676   0.343   0.989   1.324 -0.2987 -0.4164  0.3963
  170SOL     OW  677   1.130   1.506   1.469  0.1750 -0.0102  0.1960
  170SOL    HW1  678   1.115   1.587   1.521  1.3570 -1.7339  1.4420
  170SOL    HW2  679   1.115   1.531   1.379 -2.2932 -0.0508 -0.0173
  170SOL     MW  680   1.126   1.520   1.464  0.0053 -0.2430  0.3323
  171SOL     OW  681   0.515   1.443   0.575  0.2343  0.0052  0.0050
  171SOL    HW1  682   0.455   1.511   0.536 -4.2575  1.7375 -1.2319
  171SOL    HW2  683   0.534   1.361   0.511  1.8377 -0.6064 -1.7397
  171SOL     MW  684   0.510   1.442   0.561 -0.1468  0.1531 -0.3884
  172SOL     OW  685   0.752   0.299   1.285 -0.3854  0.3831  0.5949
  172SOL    HW1  686   0.751   0.252   1.203  0.8484  0.0201  3.0103
  172SOL    HW2  687   0.815   0.238   1.334  0.0047 -1.6669  3.3881
  172SOL     MW  688   0.760   0.285   1.280 -0.1711  0.0647  1.2821
  173SOL     OW  689   0.552   1.710   0.336 -0.5668  0.7538  0.4263
  173SOL    HW1  690   0.559   1.628   0.290 -1.1566  4.2834  2.2140
  173SOL    HW2  691   0.624   1.714   0.396 -1.7369 -1.7250 -0.4322
  173SOL     MW  692   0.562   1.700   0.338 -0.7990  0.8924  0.5489
  174SOL     OW  693   1.908   0.920   1.481 -0.5218  0.7486 -0.6164
  174SOL    HW1  694   1.866   0.842   1.515 -2.9541  3.4049 -0.8132
  174SOL    HW2  695   1.893   0.916   1.387  2.2019  0.4636  0.3064
  174SOL     MW  696   1.900   0.909   1.473 -0.4834  1.0615 -0.5206
  175SOL     OW  697   0.570   1.477   0.187 -0.3084 -0.4893 -0.0379
  175SOL    HW1  698   0.538   1.390   0.202  2.2102 -0.8962  0.0729
  175SOL    HW2  699   0.662   1.477   0.187  0.6315  0.8710  3.1080
  175SOL     MW  700   0.578   1.466   0.189  0.1479 -0.3635  0.3918
  176SOL     OW  701   0.091   1.518   1.181 -0.4427  0.2161 -0.1623
  176SOL    HW1  702   0.086   1.452   1.106  1.0567 -2.9163  0.2050
  176SOL    HW2  703   0.039   1.475   1.249 -1.5707  0.8033  1.6525
  176SOL     MW  704   0.083   1.503   1.180 -0.3937 -0.1197  0.1256
  177SOL     OW  705   0.505   0.287   1.426  0.3978 -0.6881 -0.4203
  177SOL    HW1  706   0.570   0.283   1.352 -2.2820 -0.3921 -1.8520
  177SOL    HW2  707   0.514   0.384   1.455 -2.7056 -1.1778  1.8130
  177SOL     MW  708   0.515   0.299   1.420 -0.3652 -0.7136 -0.3145
  178SOL     OW  709   3.061   0.524   3.017  0.3390  0.5290 -0.3738
  178SOL    HW1  710   2.975   0.578   3.013 -1.8824  2.4093 -0.5192
  178SOL    HW2  711   3.079   0.516   2.923  0.8166 -1.9526  2.5017
  178SOL     MW  712   3.052   0.530   3.004  0.1089  0.4497 -0.0136
  179SOL     OW  713   1.554   1.476   1.396  0.1829  0.1365  0.1825
  179SOL    HW1  714   1.576   1.471   1.493  2.8131 -0.1869  0.8206
  179SOL    HW2  715   1.647   1.468   1.357 -2.4559  0.9830 -2.8976
  179SOL     MW  716   1.569   1.474   1.404  0.1818  0.2055 -0.1397
  180SOL     OW  717   0.012   0.253   0.418  0.2565 -0.8183  0.2095
  180SOL    HW1  718  -0.063   0.286   0.374 -1.1485  0.1419 -1.7660
  180SOL    HW2  719   0.070   0.332   0.418  1.6524  1.5690 -0.0784
  180SOL     MW  720   0.009   0.268   0.412  0.2553 -0.3766 -0.0891
  181SOL     OW  721   1.073   1.331   0.002  0.8636  0.4707  0.1194
  181SOL    HW1  722   1.140   1.393   0.036 -0.9099  1.4914  0.9412
  181SOL    HW2  723   1.125   1.253  -0.025 -3.4437  0.6450  1.7829
  181SOL     MW  724   1.089   1.329   0.003  0.0613  0.6284  0.4473
  182SOL     OW  725   0.377   0.922   1.599  0.0135 -0.3481 -0.5102
  182SOL    HW1  726   0.295   0.923   1.640  1.4898 -2.3883 -0.6229
  182SOL    HW2  727   0.403   0.832   1.620 -2.1555  0.5480 -1.0111
  182SOL     MW  728   0.369   0.910   1.607 -0.0779 -0.4990 -0.5912
  183SOL     OW  729   1.575   1.762   1.276  0.2583 -0.1762 -0.5064
  183SOL    HW1  730   1.668   1.781   1.287 -2.5127 -0.0258  1.7676
  183SOL    HW2  731   1.553   1.695   1.342  0.4964 -1.0748  1.2409
  183SOL     MW  732   1.584   1.755   1.286 -0.0759 -0.2749  0.0242
  184SOL     OW  733   0.821   0.661   1.771  0.1025 -1.1025  0.1739
  184SOL    HW1  734   0.917   0.647   1.749  0.6593 -1.0490 -1.5226
  184SOL    HW2  735   0.799   0.588   1.831  1.5877 -2.6523 -2.2992
  184SOL     MW  736   0.831   0.650   1.776  0.3720 -1.2999 -0.3762
  185SOL     OW  737   1.137   0.961   1.878 -0.0731  0.0091 -0.7739
  185SOL    HW1  738   1.116   0.881   1.934  1.8233 -0.8092  2.5942
  185SOL    HW2  739   1.183   1.021   1.943 -0.7947  0.9901  1.4373
  185SOL     MW  740   1.140   0.958   1.894  0.0819  0.0306 -0.0378
  186SOL     OW  741   0.263   1.614   1.522  0.0542 -0.4408  0.0282
  186SOL    HW1  742   0.272   1.577   1.433 -0.8784  1.1182 -2.1469
  186SOL    HW2  743   0.170   1.590   1.545 -1.1293  0.6144 -0.2522
  186SOL     MW  744   0.252   1.606   1.513 -0.2250 -0.0959 -0.2958
  187SOL     OW  745   1.383   0.783   1.375 -0.1586  0.4288 -0.4085
  187SOL    HW1  746   1.368   0.819   1.462  0.4472  0.0505 -1.1686
  187SOL    HW2  747   1.298   0.777   1.330  1.4694 -0.4315 -1.4774
  187SOL     MW  748   1.370   0.787   1.380  0.1361  0.2654 -0.6498
  188SOL     OW  749   1.889   1.233   0.908 -0.5881  0.1986  0.5932
  188SOL    HW1  750   1.891   1.220   1.007 -0.3828 -0.8904  2.1114
  188SOL    HW2  751   1.914   1.146   0.883 -0.0108  0.4124 -1.5354
  188SOL     MW  752   1.893   1.220   0.918 -0.4848  0.0831  0.5126
  189SOL     OW  753   0.701   0.704   0.887  0.1086 -0.2058  0.0573
  189SOL    HW1  754   0.624   0.743   0.854  0.6586  1.0683  3.6572
  189SOL    HW2  755   0.735   0.759   0.957 -0.5920  1.4216 -1.0511
  189SOL     MW  756   0.695   0.717   0.892  0.0887  0.1770  0.3860
  190SOL     OW  757   1.861   0.285   2.056  0.4315 -0.4374 -0.3099
  190SOL    HW1  758   1.862   0.273   2.155  0.1543 -0.8834 -2.7784
  190SOL    HW2  759   1.949   0.333   2.051  3.6453 -1.3366  0.3179
  190SOL     MW  760   1.873   0.290   2.068  0.8190 -0.6149 -0.5528
  191SOL     OW  761   1.565   0.958   1.212 -0.1533  0.2127  0.3103
  191SOL    HW1  762   1.561   1.033   1.271  0.3509 -1.9621  0.9754
  191SOL    HW2  763   1.505   0.894   1.250 -1.2106  1.8248 -1.5451
  191SOL     MW  764   1.556   0.960   1.225 -0.2262  0.1384  0.1533
  192SOL     OW  765   0.506   2.182   2.948  0.1105 -0.5145  0.9437
  192SOL    HW1  766   0.452   2.239   2.893  0.9652  0.6025 -0.0685
  192SOL    HW2  767   0.483   2.105   2.902  1.1683  0.9464 -2.4095
  192SOL     MW  768   0.496   2.180   2.935  0.3628 -0.1744  0.3677
  193SOL     OW  769   0.832   1.636   0.802  0.3642 -0.1636 -0.2505
  193SOL    HW1  770   0.760   1.599   0.866 -1.6465 -0.7932  5.6317
  193SOL    HW2  771   0.832   1.554   0.745  1.3585  0.6353  2.0507
  193SOL     MW  772   0.823   1.620   0.803  0.2301 -0.1412  0.8292
  194SOL     OW  773   0.427   1.347   0.833 -0.6149  0.4111  0.1055
  194SOL    HW1  774   0.412   1.296   0.919  2.5969 -1.3079  3.8419
  194SOL    HW2  775   0.341   1.363   0.791 -1.5443 -1.6741 -1.3457
  194SOL     MW  776   0.414   1.343   0.839 -0.3138 -0.0908  0.4070
  195SOL     OW  777   1.221   1.101   3.012 -0.5636  0.3002  0.1092
  195SOL    HW1  778   1.288   1.069   3.072  0.4388  0.2179  1.9185
  195SOL    HW2  779   1.160   1.029   3.002 -3.4724  2.0247 -1.5514
  195SOL     MW  780   1.222   1.087   3.019 -0.8151  0.5169  0.1289
  196SOL     OW  781   2.237   1.015   0.522 -0.1200  0.0988 -0.3695
  196SOL    HW1  782   2.273   1.006   0.431  1.0171  3.1043 -4.0432
  196SOL    HW2  783   2.244   1.107   0.539  0.7455 -2.6809 -0.6709
  196SOL     MW  784   2.243   1.026   0.512  0.1442  0.1286 -0.8940
  197SOL     OW  785   0.610   1.338   2.159  0.0394  0.0088 -0.1687
  197SOL    HW1  786   0.650   1.251   2.136 -0.9716 -1.1815  0.2124
  197SOL    HW2  787   0.665   1.394   2.108  2.4771 -1.5184  0.4027
  197SOL     MW  788   0.623   1.334   2.149  0.2276 -0.3498 -0.0431
  198SOL     OW  789   2.939   1.395   1.013  0.0736 -0.7901  0.2051
  198SOL    HW1  790   2.919   1.489   0.996 -1.8620  1.5826  1.3600
  198SOL    HW2  791   2.867   1.344   0.986  0.8729  1.2178  0.8402
  198SOL     MW  792   2.927   1.401   1.008 -0.0764 -0.2122  0.4412
  199SOL     OW  793   0.656   1.268   1.827  0.2365 -0.1268 -0.2616
  199SOL    HW1  794   0.567   1.252   1.858 -1.0073 -0.3311  1.0002
  199SOL    HW2  795   0.647   1.349   1.787  0.3589 -0.7600 -0.1479
  199SOL     MW  796   0.643   1.277   1.826  0.0886 -0.2373 -0.0801
  200SOL     OW  797   1.845   2.957   1.293  0.0436  0.5463  0.1160
  200SOL    HW1  798   1.902   2.968   1.210  3.2099  1.3613 -1.0989
  200SOL    HW2  799   1.807   3.040   1.306  1.1842 -4.4675  0.1731
  200SOL     MW  800   1.847   2.969   1.284  0.6119 -0.0077 -0.0367
  201SOL     OW  801   1.199   0.296   0.820  0.1929 -0.1082 -0.2485
  201SOL    HW1  802   1.140   0.224   0.802  0.5281 -0.0831  1.4562
  201SOL    HW2  803   1.262   0.269   0.890 -1.2361 -2.2176  0.5346
  201SOL     MW  804   1.199   0.283   0.827  0.0486 -0.3832  0.0797
  202SOL     OW  805   1.495   1.726   1.007 -0.3159  0.0872  0.4978
  202SOL    HW1  806   1.483   1.636   0.984 -0.1227  4.2375 -0.2253
  202SOL    HW2  807   1.541   1.722   1.095 -1.1848  0.9744  3.4970
  202SOL     MW  808   1.499   1.714   1.016 -0.4050  0.7518  0.7981
  203SOL     OW  809   3.028   0.345   1.305  0.5332  0.3126  0.1693
  203SOL    HW1  810   3.073   0.256   1.296  0.4399 -2.7073  0.2132
  203SOL    HW2  811   3.104   0.406   1.306  1.7076  0.6313 -1.4157
  203SOL     MW  812   3.044   0.342   1.304  0.6759 -0.0438 -0.0340
  204SOL     OW  813   0.986   1.812   0.670 -0.1646  0.0384 -0.1810
  204SOL    HW1  814   0.915   1.787   0.732  2.3481  0.7845  2.4029
  204SOL    HW2  815   0.937   1.807   0.588 -3.4126  1.4274 -0.5659
  204SOL     MW  816   0.970   1.808   0.667 -0.2616  0.3201  0.1092
  205SOL     OW  817   1.423   3.036   1.326 -0.0910  0.1076  0.2658
  205SOL    HW1  818   1.457   3.048   1.236  0.5411  1.3038  0.8129
  205SOL    HW2  819   1.355   3.104   1.333 -0.4548 -0.2164 -0.7008
  205SOL     MW  820   1.418   3.047   1.315 -0.0556  0.2227  0.2105
  206SOL     OW  821   0.381   2.926   1.333 -0.2673 -0.2215 -0.0407
  206SOL    HW1  822   0.365   2.973   1.250 -2.8591 -0.7484 -1.0294
  206SOL    HW2  823   0.477   2.930   1.352  0.4469  2.8978  0.9681
  206SOL     MW  824   0.391   2.933   1.325 -0.5150  0.1205 -0.0381
  207SOL     OW  825   0.891   1.743   0.227  0.4233 -0.3314  0.3064
  207SOL    HW1  826   0.968   1.782   0.192 -1.9973  1.8619 -1.5295
  207SOL    HW2  827   0.909   1.656   0.263 -0.9121 -2.6277 -0.5008
  207SOL     MW  828   0.904   1.737   0.227 -0.0723 -0.3450 -0.0423
  208SOL     OW  829   0.782   1.556   1.331 -0.0489 -0.1019  0.3521
  208SOL    HW1  830   0.868   1.570   1.301 -3.0740  0.5990 -4.8073
  208SOL    HW2  831   0.736   1.553   1.246 -0.8947  0.1184 -1.0224
  208SOL     MW  832   0.787   1.558   1.316 -0.5596  0.0196 -0.5100
  209SOL     OW  833   1.604   0.494   2.836  0.0134 -0.5479 -0.1440
  209SOL    HW1  834   1.637   0.562   2.895  1.3313  0.4570  0.2996
  209SOL    HW2  835   1.677   0.428   2.824  0.6217  1.9910 -1.0293
  209SOL     MW  836   1.618   0.494   2.842  0.2676 -0.0803 -0.2023
  210SOL     OW  837   1.467   1.442   0.947  0.3192 -0.6486  0.3951
  210SOL    HW1  838   1.561   1.438   0.926  1.7369  1.7134  1.0249
  210SOL    HW2  839   1.419   1.468   0.864 -1.4577 -0.2901  0.6552
  210SOL     MW  840   1.473   1.445   0.934  0.2718 -0.2897  0.5125
  211SOL     OW  841   1.737   0.430   0.900  0.4513  0.6897 -0.1897
  211SOL    HW1  842   1.743   0.434   0.796 -2.1559  2.5595 -0.7870
  211SOL    HW2  843   1.816   0.462   0.943  0.7743  3.1224  1.3220
  211SOL     MW  844   1.748   0.435   0.892  0.1500  1.2573 -0.0691
  212SOL     OW  845   0.370   1.154   0.228  0.0737  0.3321 -0.4374
  212SOL    HW1  846   0.304   1.087   0.245  1.0169  0.7189  2.1048
  212SOL    HW2  847   0.416   1.111   0.160 -0.3320  1.4163  0.0571
  212SOL     MW  848   0.368   1.140   0.221  0.1446  0.5262 -0.0367
  213SOL     OW  849   0.367   1.851   3.007  0.1015 -0.5895  0.0752
  213SOL    HW1  850   0.420   1.893   3.079  0.5372  1.5239  2.4786
  213SOL    HW2  851   0.398   1.886   2.919  0.6192  0.0018 -2.3853
  213SOL     MW  852   0.378   1.861   3.005  0.2273 -0.2326  0.0677
  214SOL     OW  853   0.601   0.350   2.114  0.5843  0.7901 -0.2095
  214SOL    HW1  854   0.519   0.403   2.104  0.6973 -4.8151  0.1430
  214SOL    HW2  855   0.667   0.368   2.051 -0.0099 -0.9941  1.2664
  214SOL     MW  856   0.599   0.360   2.104  0.5208 -0.1849  0.0317
  215SOL     OW  857   0.499   0.535   2.515  0.6647 -0.0749  0.1922
  215SOL    HW1  858   0.464   0.575   2.434  1.2570 -0.3451 -3.7120
  215SOL    HW2  859   0.464   0.448   2.495 -3.2265 -0.1019  0.8611
  215SOL     MW  860   0.490   0.528   2.501  0.2294 -0.1141 -0.2347
  216SOL     OW  861   2.888   3.084   2.754 -0.3941  0.0556  0.5663
  216SOL    HW1  862   2.846   3.101   2.839 -0.2502  3.9936  0.6193
  216SOL    HW2  863   2.922   3.167   2.709  0.7057 -2.4280  1.8252
  216SOL     MW  864   2.887   3.097   2.759 -0.2300  0.2475  0.7394
  217SOL     OW  865   1.004   1.083   0.132 -0.3934 -0.0949 -0.7056
  217SOL    HW1  866   1.031   1.025   0.064 -0.0906  1.2253 -1.4420
  217SOL    HW2  867   1.052   1.163   0.103 -2.1174 -0.5262  2.2492
  217SOL     MW  868   1.014   1.086   0.119 -0.5809  0.0224 -0.4129
  218SOL     OW  869   0.856   1.343   2.622 -0.1331  0.5415 -0.6050
  218SOL    HW1  870   0.832   1.299   2.707  1.6155 -1.4946 -2.5903
  218SOL    HW2  871   0.945   1.378   2.635 -0.3635 -2.7474  1.2387
  218SOL     MW  872   0.865   1.342   2.635  0.0672 -0.1611 -0.6237
  219SOL     OW  873   1.053   0.453   2.604  0.1025  0.3480 -0.0174
  219SOL    HW1  874   1.118   0.519   2.628  1.0885  1.7906 -0.9058
  219SOL    HW2  875   0.974   0.506   2.574  1.4407 -1.2765 -0.8830
  219SOL     MW  876   1.051   0.469   2.603  0.4091  0.3240 -0.2488
  220SOL     OW  877   1.723   0.489   2.199 -0.4328  0.3220  0.5202
  220SOL    HW1  878   1.654   0.540   2.150  0.9679 -0.3542 -1.5938
  220SOL    HW2  879   1.768   0.439   2.131 -0.4476 -1.5475  0.6949
  220SOL     MW  880   1.720   0.489   2.183 -0.2499 -0.0139  0.2643
  221SOL     OW  881   0.390   1.376   2.942  0.2728  0.0465 -0.4442
  221SOL    HW1  882   0.444   1.300   2.924 -0.1732 -0.0467  1.4605
  221SOL    HW2  883   0.417   1.453   2.889  0.7429  4.8185  0.9981
  221SOL     MW  884   0.401   1.376   2.933  0.2759  0.6638 -0.0026
  222SOL     OW  885   0.516   0.937   2.717 -0.0013 -0.1792 -0.0339
  222SOL    HW1  886   0.425   0.920   2.688  0.4456 -0.2176 -1.1111
  222SOL    HW2  887   0.558   0.854   2.737  3.0533 -0.2900  2.0935
  222SOL     MW  888   0.510   0.924   2.716  0.4607 -0.1989  0.1046
  223SOL     OW  889   3.093   2.036   2.537 -0.0256  0.2810  0.2789
  223SOL    HW1  890   3.104   2.019   2.629 -0.1423  0.8376  1.2618
  223SOL    HW2  891   3.121   2.129   2.526  0.6626 -1.1847  0.8992
  223SOL     MW  892   3.098   2.046   2.548  0.0498  0.1610  0.4905
  224SOL     OW  893   1.456   0.698   2.441  0.1115  0.1304  0.0620
  224SOL    HW1  894   1.539   0.664   2.463 -1.4674 -0.0410 -1.0732
  224SOL    HW2  895   1.473   0.790   2.468  1.7336 -0.1586  1.6007
  224SOL     MW  896   1.469   0.706   2.448  0.1172  0.0697  0.1152
  225SOL     OW  897   2.953   1.480   2.267  0.2377  0.4296 -0.4653
  225SOL    HW1  898   2.996   1.561   2.237  1.6065  0.4028 -3.6950
  225SOL    HW2  899   2.885   1.510   2.325 -0.6025 -1.0809 -1.6875
  225SOL     MW  900   2.950   1.494   2.270  0.3074  0.2268 -1.0527
  226SOL     OW  901   0.429   1.536   2.679  0.0074  0.2569 -0.0393
  226SOL    HW1  902   0.508   1.573   2.639  0.2652  0.9914  1.0959
  226SOL    HW2  903   0.370   1.618   2.677 -1.3744  0.6523 -1.1129
  226SOL     MW  904   0.432   1.552   2.673 -0.1409  0.4060 -0.0312
  227SOL     OW  905   0.547   1.123   2.912 -0.4910  0.2060  0.5081
  227SOL    HW1  906   0.628   1.170   2.889 -2.7547 -0.4374 -0.3643
  227SOL    HW2  907   0.524   1.055   2.840 -0.9089  0.3733  2.5021
  227SOL     MW  908   0.555   1.120   2.900 -0.8448  0.1432  0.6561
  228SOL     OW  909   0.740   1.122   2.058  0.3707 -0.6361  0.1191
  228SOL    HW1  910   0.708   1.166   1.977  2.0940 -1.1214  1.6764
  228SOL    HW2  911   0.826   1.163   2.075 -0.7934  0.0526 -0.0373
  228SOL     MW  912   0.747   1.133   2.049  0.4445 -0.6093  0.3039
  229SOL     OW  913   0.216   0.562   3.094 -0.8608  0.1900  0.1117
  229SOL    HW1  914   0.126   0.554   3.070  2.8661  0.2315  0.4301
  229SOL    HW2  915   0.224   0.490   3.161  1.3339 -0.7363  0.2533
  229SOL     MW  916   0.205   0.552   3.100 -0.0795  0.0732  0.1724
  230SOL     OW  917   1.762   1.363   2.040 -0.9990  0.5610  0.2416
  230SOL    HW1  918   1.717   1.325   2.112  1.4114  0.6722  0.7987
  230SOL    HW2  919   1.731   1.321   1.958  2.5881 -2.3243 -0.2326
  230SOL     MW  920   1.752   1.353   2.039 -0.2077  0.1950  0.2525
  231SOL     OW  921   2.725   1.241   2.243  0.5811  0.1327 -0.0588
  231SOL    HW1  922   2.761   1.316   2.285 -0.6466  3.6845 -1.9097
  231SOL    HW2  923   2.674   1.281   2.174 -1.4765  2.0099 -0.0847
  231SOL     MW  924   2.723   1.256   2.239  0.1476  0.8490 -0.3064
  232SOL     OW  925   2.295   0.882   1.927  0.0186  0.5463 -0.0432
  232SOL    HW1  926   2.209   0.892   1.899  1.6447 -1.6756  0.7102
  232SOL    HW2  927   2.289   0.842   2.014 -2.1510 -0.2390  1.8359
  232SOL     MW  928   2.282   0.878   1.935 -0.0531  0.1496  0.3042
  233SOL     OW  929   2.110   0.426   2.068 -0.5784  0.1785 -0.7139
  233SOL    HW1  930   2.173   0.353   2.049  1.9189 -4.2077 -0.5572
  233SOL    HW2  931   2.136   0.463   2.159 -0.1301 -0.0344  0.2115
  233SOL     MW  932   2.122   0.422   2.078 -0.1898 -0.4283 -0.5711
  234SOL     OW  933   0.234   1.064   2.659  0.1364 -0.0995  0.3369
  234SOL    HW1  934   0.170   1.075   2.586  1.0495  1.7151  0.9998
  234SOL    HW2  935   0.283   1.150   2.661 -0.6507  0.3566 -1.1206
  234SOL     MW  936   0.232   1.077   2.649  0.1530  0.2001  0.2321
  235SOL     OW  937   1.153   3.047   2.812 -0.3238  0.4336  0.3969
  235SOL    HW1  938   1.184   3.033   2.904 -0.7444  2.1428  1.2680
  235SOL    HW2  939   1.108   3.133   2.817  0.3471  0.5570  0.3886
  235SOL     MW  940   1.151   3.057   2.825 -0.2908  0.6754  0.5108
  236SOL     OW  941   2.967   0.611   0.217  0.6508 -0.2700  0.2600
  236SOL    HW1  942   2.966   0.652   0.305 -1.0235  0.1098  1.1284
  236SOL    HW2  943   3.030   0.647   0.160  0.7135 -1.2836 -0.9520
  236SOL     MW  944   2.975   0.621   0.221  0.4382 -0.3536  0.2147
  237SOL     OW  945   1.904   1.085   2.152 -0.1156 -0.8250 -0.5574
  237SOL    HW1  946   1.810   1.116   2.139 -1.7593 -1.2822 -1.0631
  237SOL    HW2  947   1.930   1.067   2.066 -3.0575  0.0508  1.9382
  237SOL     MW  948   1.895   1.087   2.139 -0.7206 -0.7698 -0.2949
  238SOL     OW  949   1.070   1.728   2.937  0.5189 -0.1533  0.1835
  238SOL    HW1  950   0.991   1.678   2.940  1.4742  2.6099 -1.1142
  238SOL    HW2  951   1.137   1.660   2.925 -2.6249 -2.9754 -0.3159
  238SOL     MW  952   1.069   1.713   2.936  0.2302 -0.1611 -0.0536
  239SOL     OW  953   1.198   1.312   2.353  0.1966  0.4374  0.1985
  239SOL    HW1  954   1.122   1.282   2.307  1.3203  0.6088  1.3517
  239SOL    HW2  955   1.190   1.266   2.436 -2.0449  0.3973 -2.6849
  239SOL     MW  956   1.187   1.302   2.358  0.0491  0.4548 -0.0298
  240SOL     OW  957   0.571   0.878   2.280 -0.0465  0.1571 -0.0415
  240SOL    HW1  958   0.598   0.924   2.365  2.4208  0.7808  3.2727
  240SOL    HW2  959   0.653   0.854   2.242  1.2189  0.9508 -1.8651
  240SOL     MW  960   0.585   0.881   2.286  0.4460  0.3441  0.1552
  241SOL     OW  961   0.684   0.435   3.096  0.1306 -0.2539  0.2490
  241SOL    HW1  962   0.714   0.515   3.140 -0.2039  0.2001 -0.1714
  241SOL    HW2  963   0.609   0.471   3.041  2.6978  0.1276  0.2039
  241SOL     MW  964   0.678   0.451   3.094  0.4252 -0.1436  0.1876
  242SOL     OW  965   1.494   1.660   2.304  0.2955 -0.5383  0.0534
  242SOL    HW1  966   1.441   1.742   2.310 -0.6406  2.8908  0.2906
  242SOL    HW2  967   1.445   1.613   2.238  0.4226 -0.0300  0.3965
  242SOL     MW  968   1.480   1.665   2.296  0.1888 -0.0188  0.1300
  243SOL     OW  969   1.023   0.335   2.363  0.0316 -0.1645  0.0326
  243SOL    HW1  970   1.104   0.284   2.338 -2.2181 -2.6396  0.6828
  243SOL    HW2  971   1.039   0.381   2.447 -1.7944  2.0683  0.5322
  243SOL     MW  972   1.035   0.334   2.371 -0.5061 -0.1965  0.1843
  244SOL     OW  973   0.120   0.750   2.377 -0.3774  0.4461 -0.0968
  244SOL    HW1  974   0.106   0.839   2.364 -0.5800 -1.4158 -2.1657
  244SOL    HW2  975   0.211   0.739   2.354 -3.1624  2.0712  1.1647
  244SOL     MW  976   0.130   0.760   2.372 -0.7716  0.4149 -0.2033
  245SOL     OW  977   1.274   0.180   2.398  0.0941 -0.9492  0.5630
  245SOL    HW1  978   1.366   0.162   2.352  2.5313  3.3085  1.9585
  245SOL    HW2  979   1.283   0.149   2.490 -1.0964  0.8526 -0.9299
  245SOL     MW  980   1.287   0.174   2.404  0.2586 -0.1497  0.5502
  246SOL     OW  981   1.212   1.133   2.081  0.2942  0.5093  0.2382
  246SOL    HW1  982   1.129   1.114   2.135 -1.7534  1.2651  0.6643
  246SOL    HW2  983   1.290   1.121   2.140  0.5162  0.7534  3.8557
  246SOL     MW  984   1.211   1.129   2.096  0.0533  0.6412  0.7717
  247SOL     OW  985   0.760   0.665   0.165  0.0655  0.4048  0.7319
  247SOL    HW1  986   0.740   0.759   0.138  0.2341  0.7456 -0.8713
  247SOL    HW2  987   0.857   0.652   0.142  1.0231  1.0070 -1.2292
  247SOL     MW  988   0.770   0.676   0.159  0.2141  0.5292  0.2616
  248SOL     OW  989   0.300   1.335   2.561  0.5493  0.5387  0.1583
  248SOL    HW1  990   0.330   1.343   2.470 -1.4821  1.0254  1.9994
  248SOL    HW2  991   0.352   1.401   2.605 -2.3631  2.1264  1.0060
  248SOL     MW  992   0.311   1.345   2.555 -0.1030  0.8124  0.5131
  249SOL     OW  993   3.007   1.945   2.791  0.7086 -0.3735 -0.0211
  249SOL    HW1  994   2.981   1.890   2.719  0.7159 -1.1947  0.5866
  249SOL    HW2  995   3.049   1.883   2.851  1.3926  0.3986  0.0522
  249SOL     MW  996   3.009   1.930   2.790  0.7998 -0.3800  0.0688
  250SOL     OW  997   2.227   0.786   2.181  0.3395 -0.2033 -0.1155
  250SOL    HW1  998   2.196   0.696   2.208 -0.7008 -4.9148 -0.2095
  250SOL    HW2  999   2.266   0.836   2.252  2.0811 -1.1515 -2.1142
  250SOL     MW 1000   2.228   0.781   2.194  0.4320 -0.9500 -0.3916
  251SOL     OW 1001   0.141   0.888   2.039  0.3447 -0.2001 -0.1448
  251SOL    HW1 1002   0.104   0.813   2.084  1.9470  1.7672 -2.4809
  251SOL    HW2 1003   0.133   0.876   1.943  1.6584  1.2121  1.3713
  251SOL     MW 1004   0.135   0.877   2.032  0.7294  0.2458 -0.2530
  252SOL     OW 1005   1.707   0.990   2.871  0.3779  0.0718  0.3675
  252SOL    HW1 1006   1.750   1.015   2.951  1.0276 -0.9540 -0.4442
  252SOL    HW2 1007   1.787   0.995   2.808 -2.1676  0.6498 -2.0836
  252SOL     MW 1008   1.723   0.994   2.873  0.1278  0.0127 -0.0630
  253SOL     OW 1009   1.157   1.712   2.495 -0.4899 -0.4316  0.1644
  253SOL    HW1 1010   1.128   1.657   2.419 -1.1647 -1.4389  0.1589
  253SOL    HW2 1011   1.073   1.759   2.529  3.3729  1.0785  0.4332
  253SOL     MW 1012   1.142   1.711   2.490 -0.0693 -0.3653  0.1991
  254SOL     OW 1013   0.970   1.135   2.206  0.4303 -0.3082  0.0313
  254SOL    HW1 1014   0.963   1.043   2.235 -2.1745  1.1174  1.4539
  254SOL    HW2 1015   0.896   1.172   2.262 -2.1056  0.3605  1.1253
  254SOL     MW 1016   0.959   1.128   2.217 -0.2479 -0.0319  0.3633
  255SOL     OW 1017   0.840   2.556   2.148  0.3343 -0.7739  0.4402
  255SOL    HW1 1018   0.776   2.488   2.130 -1.8563  1.7816 -0.2786
  255SOL    HW2 1019   0.926   2.523   2.168 -1.9446  4.8394 -1.1126
  255SOL     MW 1020   0.843   2.543   2.148 -0.2554  0.3039  0.1405
  256SOL     OW 1021   1.293   2.783   3.019  0.2649  0.4835  0.6867
  256SOL    HW1 1022   1.265   2.693   3.032  0.2519 -0.3677  3.5622
  256SOL    HW2 1023   1.364   2.769   2.951  1.6391 -0.5478  0.1734
  256SOL     MW 1024   1.299   2.769   3.011  0.4445  0.2351  0.9984
  257SOL     OW 1025   0.044   1.888   0.099 -0.0273  0.4654 -0.5458
  257SOL    HW1 1026   0.104   1.829   0.151  0.8604  0.0110  1.0710
  257SOL    HW2 1027   0.083   1.912   0.017 -2.9749  1.4191  0.8633
  257SOL     MW 1028   0.057   1.884   0.095 -0.2990  0.5313 -0.1465
  258SOL     OW 1029   0.669   1.005   2.497  0.0776  0.2111  0.2434
  258SOL    HW1 1030   0.672   1.088   2.453 -2.7624  2.2514  0.7875
  258SOL    HW2 1031   0.620   1.002   2.577  3.0936 -0.0643  2.1194
  258SOL     MW 1032   0.663   1.016   2.502  0.1009  0.4439  0.5627
  259SOL     OW 1033   0.816   0.446   2.232 -0.9452 -0.3329 -0.1014
  259SOL    HW1 1034   0.731   0.395   2.225 -0.6871  0.5350  0.2368
  259SOL    HW2 1035   0.875   0.387   2.279 -1.6964  0.8841  2.3656
  259SOL     MW 1036   0.813   0.432   2.237 -1.0102 -0.0578  0.2688
  260SOL     OW 1037   0.643   0.137   1.590 -0.0367 -0.6911 -0.0026
  260SOL    HW1 1038   0.577   0.167   1.533  2.4040 -1.8267  1.4343
  260SOL    HW2 1039   0.720   0.124   1.533 -0.5028 -2.1501 -0.6180
  260SOL     MW 1040   0.645   0.139   1.575  0.2238 -1.0335  0.1058
  261SOL     OW 1041   1.047   0.734   1.999 -0.3511 -0.2659  0.7954
  261SOL    HW1 1042   1.093   0.682   2.058  0.2136  2.9713 -0.2650
  261SOL    HW2 1043   0.991   0.676   1.947 -0.0794  0.8902  0.8473
  261SOL     MW 1044   1.045   0.719   2.000 -0.2408  0.3137  0.6623
  262SOL     OW 1045   1.149   0.340   0.108 -0.1059 -0.3209  0.1515
  262SOL    HW1 1046   1.248   0.355   0.087  0.8227 -2.2630  0.3188
  262SOL    HW2 1047   1.113   0.298   0.029  0.9575  0.4507 -0.4358
  262SOL     MW 1048   1.158   0.336   0.095  0.1569 -0.4754  0.0961
  263SOL     OW 1049   0.405   0.025   2.530  0.1797 -0.2141 -0.5700
  263SOL    HW1 1050   0.319   0.057   2.545  0.4528  0.1210 -0.7245
  263SOL    HW2 1051   0.439   0.053   2.449  2.4793 -2.3181  0.5802
  263SOL     MW 1052   0.398   0.033   2.522  0.5191 -0.4474 -0.4386
  264SOL     OW 1053   1.531   1.498   1.890  0.0399  0.3382 -0.0664
  264SOL    HW1 1054   1.486   1.423   1.929  0.6993  0.1650 -1.4108
  264SOL    HW2 1055   1.615   1.508   1.943  1.7264  0.1944  1.3398
  264SOL     MW 1056   1.536   1.489   1.902  0.3494  0.2964 -0.0582
  265SOL     OW 1057   0.728   2.826   2.297  0.1760 -0.4670  0.0768
  265SOL    HW1 1058   0.785   2.751   2.303  0.4106  1.4811 -1.0990
  265SOL    HW2 1059   0.704   2.848   2.390 -0.6006 -0.0932  0.0245
  265SOL     MW 1060   0.733   2.819   2.310  0.1045 -0.1606 -0.0852
  266SOL     OW 1061   0.830   0.882   2.142  0.1158  0.0443 -0.0814
  266SOL    HW1 1062   0.796   0.957   2.092 -3.1783 -1.7489 -2.0255
  266SOL    HW2 1063   0.894   0.839   2.073  1.1529 -0.3132 -3.9374
  266SOL     MW 1064   0.834   0.887   2.126 -0.1820 -0.2394 -0.8466
  267SOL     OW 1065   1.393   1.688   2.650  0.3576  0.2094 -0.1804
  267SOL    HW1 1066   1.458   1.633   2.595  0.8521 -0.5529 -2.6339
  267SOL    HW2 1067   1.325   1.706   2.589  0.6221  2.2777  1.6608
  267SOL     MW 1068   1.393   1.683   2.634  0.4577  0.3817 -0.2612
  268SOL     OW 1069   0.121   0.900   1.777 -0.1630 -0.2656 -0.3370
  268SOL    HW1 1070   0.030   0.936   1.769  1.0829  0.4637 -0.7680
  268SOL    HW2 1071   0.111   0.825   1.714  2.9450 -2.4247 -1.3755
  268SOL     MW 1072   0.108   0.895   1.768  0.4115 -0.4543 -0.5309
  269SOL     OW 1073   1.346   1.877   2.314  0.4442 -0.1208  0.5433
  269SOL    HW1 1074   1.378   1.963   2.330  2.0734 -1.3684  2.4074
  269SOL    HW2 1075   1.274   1.871   2.372  0.9022  1.4128  0.1411
  269SOL     MW 1076   1.341   1.887   2.324  0.7196 -0.0830  0.7362
  270SOL     OW 1077   1.100   0.354   1.525  0.2251  0.6502 -0.1622
  270SOL    HW1 1078   1.070   0.271   1.560  0.9027  0.4428 -0.3315
  270SOL    HW2 1079   1.193   0.358   1.553 -1.2993 -0.1138 -2.3556
  270SOL     MW 1080   1.109   0.344   1.533  0.1133  0.5220 -0.4739
  271SOL     OW 1081   0.897   0.090   2.484 -0.4354 -0.3975  0.2728
  271SOL    HW1 1082   0.943   0.056   2.563  1.7831  0.1603 -1.2809
  271SOL    HW2 1083   0.945   0.168   2.448  0.5619 -2.0299  1.6171
  271SOL     MW 1084   0.910   0.096   2.490 -0.0111 -0.5393  0.2451
  272SOL     OW 1085   1.463   2.777   2.807 -0.1950 -0.4074 -0.9158
  272SOL    HW1 1086   1.409   2.793   2.733 -0.6098  0.6025  0.3752
  272SOL    HW2 1087   1.521   2.859   2.815  1.3603 -0.9274 -0.7449
  272SOL     MW 1088   1.464   2.790   2.798 -0.0445 -0.3428 -0.7229
  273SOL     OW 1089   1.460   0.826   2.808  0.6070 -0.0221  0.1243
  273SOL    HW1 1090   1.530   0.767   2.801 -0.9735 -0.9548  1.7625
  273SOL    HW2 1091   1.499   0.915   2.813  1.9178  0.0698 -0.5546
  273SOL     MW 1092   1.475   0.830   2.808  0.5714 -0.1331  0.2509
  274SOL     OW 1093   1.442   0.632   0.124 -0.0139 -0.0569 -0.0120
  274SOL    HW1 1094   1.504   0.579   0.174 -0.3316 -2.5045 -2.1864
  274SOL    HW2 1095   1.367   0.652   0.185 -0.8831 -0.7715 -0.3533
  274SOL     MW 1096   1.440   0.628   0.138 -0.1705 -0.4741 -0.3439
  275SOL     OW 1097   1.829   0.543   1.738  0.1747  0.7621 -0.2474
  275SOL    HW1 1098   1.880   0.565   1.821 -0.4044  1.7749  0.5868
  275SOL    HW2 1099   1.817   0.444   1.745  0.9248 -1.1841  0.4861
  275SOL     MW 1100   1.834   0.533   1.750  0.1973  0.6390 -0.0406
  276SOL     OW 1101   0.398   1.206   1.932 -0.6356 -0.3057 -0.1205
  276SOL    HW1 1102   0.408   1.115   1.965 -0.2687 -1.9732  1.0523
  276SOL    HW2 1103   0.358   1.252   2.007 -2.1355  1.9745  1.0031
  276SOL     MW 1104   0.394   1.200   1.946 -0.7851 -0.2249  0.1825
  277SOL     OW 1105   1.999   1.133   2.467  0.5333 -0.4625  0.5497
  277SOL    HW1 1106   2.034   1.222   2.482 -1.4508  1.9234  2.7769
  277SOL    HW2 1107   1.963   1.137   2.376 -3.2353  1.8033  1.1346
  277SOL     MW 1108   1.999   1.145   2.457 -0.2257  0.1513  0.9207
  278SOL     OW 1109   1.416   0.608   1.672  0.7202 -0.2148 -0.2298
  278SOL    HW1 1110   1.423   0.567   1.766  0.2681  1.7591 -2.2232
  278SOL    HW2 1111   1.497   0.653   1.653  0.5728  0.7937 -3.0890
  278SOL     MW 1112   1.428   0.608   1.682  0.6411  0.1787 -0.8700
  279SOL     OW 1113   0.513   0.108   2.253 -0.0956  0.4347 -0.1072
  279SOL    HW1 1114   0.601   0.057   2.271  0.4225 -1.8451 -3.7865
  279SOL    HW2 1115   0.548   0.190   2.221  1.4991 -0.6106  0.0647
  279SOL     MW 1116   0.529   0.112   2.251  0.1832 -0.0040 -0.5699
  280SOL     OW 1117   1.437   1.038   2.225 -0.6881 -0.5966 -0.3157
  280SOL    HW1 1118   1.483   0.979   2.169  0.8265 -1.1562 -0.1458
  280SOL    HW2 1119   1.456   1.021   2.317 -0.1132  0.8579 -0.3177
  280SOL     MW 1120   1.445   1.028   2.230 -0.4124 -0.4786 -0.2936
  281SOL     OW 1121   1.299   1.118   2.743  0.3556 -0.4857  0.4222
  281SOL    HW1 1122   1.375   1.179   2.738 -0.0222  0.3239  1.4947
  281SOL    HW2 1123   1.289   1.096   2.838  1.1549 -0.9399  1.9317
  281SOL     MW 1124   1.308   1.123   2.755  0.4112 -0.4388  0.7628
  282SOL     OW 1125   1.179   1.284   1.630 -0.2422  0.5313  0.4776
  282SOL    HW1 1126   1.158   1.359   1.579 -0.8344  3.5468 -1.5658
  282SOL    HW2 1127   1.087   1.254   1.661 -1.1097 -1.3741 -0.9167
  282SOL     MW 1128   1.164   1.290   1.627 -0.4348  0.6778  0.0241
  283SOL     OW 1129   0.810   1.389   3.095 -0.2473 -0.0162 -0.1984
  283SOL    HW1 1130   0.907   1.380   3.106 -0.0853 -0.7018  2.0253
  283SOL    HW2 1131   0.804   1.471   3.046 -1.3500  0.5341 -2.2912
  283SOL     MW 1132   0.822   1.399   3.090 -0.3714 -0.0341 -0.1811
  284SOL     OW 1133   0.375   0.674   2.330 -0.3860 -0.1635  0.7901
  284SOL    HW1 1134   0.440   0.741   2.305  1.0778  1.2056  0.4386
  284SOL    HW2 1135   0.365   0.633   2.243 -3.0794  2.6693 -1.5006
  284SOL     MW 1136   0.382   0.677   2.315 -0.5482  0.3909  0.4415
  285SOL     OW 1137   0.875   0.828   2.848  0.0494  0.1804  0.2225
  285SOL    HW1 1138   0.895   0.888   2.777 -0.7608 -0.0950 -0.4364
  285SOL    HW2 1139   0.807   0.764   2.814  0.3129 -1.1767 -0.3344
  285SOL     MW 1140   0.868   0.827   2.834 -0.0228 -0.0350  0.0621
  286SOL     OW 1141   1.088   1.479   2.680 -0.1906 -0.1596  0.4062
  286SOL    HW1 1142   1.156   1.417   2.666 -1.2074  1.7948  1.2264
  286SOL    HW2 1143   1.134   1.564   2.667 -0.7667  3.3581 -0.1218
  286SOL     MW 1144   1.103   1.482   2.677 -0.4008  0.5624  0.4447
  287SOL     OW 1145   1.146   0.969   0.344  0.0105 -0.3102 -0.3437
  287SOL    HW1 1146   1.089   0.968   0.422 -1.6106 -1.2030  2.1136
  287SOL    HW2 1147   1.105   1.028   0.273  1.2015  1.7279 -0.3584
  287SOL     MW 1148   1.133   0.976   0.345 -0.0463 -0.1591 -0.0214
  288SOL     OW 1149   1.495   0.648   2.143 -0.2042  0.7498 -0.2555
  288SOL    HW1 1150   1.423   0.668   2.194  2.6385 -0.6736 -1.6903
  288SOL    HW2 1151   1.527   0.728   2.091  2.1853  0.4394 -2.7535
  288SOL     MW 1152   1.490   0.661   2.143  0.4861  0.5211 -0.7744
  289SOL     OW 1153   0.923   0.948   2.618  0.5837  0.3771 -0.2504
  289SOL    HW1 1154   0.975   0.891   2.560  0.2192 -2.6503 -2.6082
  289SOL    HW2 1155   0.845   0.979   2.564  4.5997  0.2517  1.4065
  289SOL     MW 1156   0.920   0.945   2.603  1.0654 -0.0389 -0.3429
  290SOL     OW 1157   0.761   0.643   1.499 -0.2980 -0.3955  0.5313
  290SOL    HW1 1158   0.812   0.595   1.434 -2.2749 -0.9840  0.4994
  290SOL    HW2 1159   0.796   0.628   1.585 -0.9033  0.5493 -0.3413
  290SOL     MW 1160   0.773   0.635   1.502 -0.6387 -0.3485  0.4119
  291SOL     OW 1161   0.240   0.313   0.171  0.0306  0.0116  0.6468
  291SOL    HW1 1162   0.333   0.306   0.201  0.1270 -1.4037  0.0841
  291SOL    HW2 1163   0.226   0.219   0.145 -1.6942 -0.9959 -1.6631
  291SOL     MW 1164   0.250   0.300   0.172 -0.1843 -0.3081  0.2678
  292SOL     OW 1165   1.013   0.614   0.100 -0.1899 -0.8455 -0.3567
  292SOL    HW1 1166   1.064   0.671   0.164  1.8041 -2.1123  2.3090
  292SOL    HW2 1167   1.065   0.534   0.094 -1.2528 -0.2230  0.9662
  292SOL     MW 1168   1.027   0.611   0.108 -0.0671 -0.9305  0.1696
  293SOL     OW 1169   0.112   0.074   2.579  0.2117  0.4166 -0.6498
  293SOL    HW1 1170   0.089   0.032   2.500 -0.0803  0.5760  1.4437
  293SOL    HW2 1171   0.027   0.119   2.601  0.1986  0.5702 -0.0655
  293SOL     MW 1172   0.098   0.074   2.571  0.1714  0.4579 -0.2965
  294SOL     OW 1173   1.345   0.448   2.357 -0.3501  0.0807 -0.1377
  294SOL    HW1 1174   1.383   0.526   2.399  1.8596  0.5417  1.4214
  294SOL    HW2 1175   1.322   0.388   2.431  1.2345 -2.7067  0.4726
  294SOL     MW 1176   1.347   0.450   2.373  0.1505 -0.2262  0.1485
  295SOL     OW 1177   0.854   0.596   2.498  0.1731  0.2713 -1.0798
  295SOL    HW1 1178   0.816   0.552   2.421  1.4739 -0.1118  1.0360
  295SOL    HW2 1179   0.786   0.624   2.560 -0.3520 -1.6395 -2.7544
  295SOL     MW 1180   0.840   0.594   2.496  0.2754 -0.0314 -1.0216
  296SOL     OW 1181   1.328   0.298   2.075  0.5924  0.3195  0.2724
  296SOL    HW1 1182   1.377   0.222   2.037  0.5864  0.8481  0.9706
  296SOL    HW2 1183   1.339   0.290   2.168 -0.0097 -3.3483 -0.2732
  296SOL     MW 1184   1.336   0.287   2.082  0.5122 -0.0947  0.2925
  297SOL     OW 1185   1.363   0.336   1.584  0.0933 -0.5673 -0.6846
  297SOL    HW1 1186   1.376   0.421   1.625  0.9589  0.8892 -1.6198
  297SOL    HW2 1187   1.362   0.266   1.653 -6.5023  0.7757 -0.5156
  297SOL     MW 1188   1.364   0.338   1.599 -0.6627 -0.1980 -0.7857
  298SOL     OW 1189   1.613   0.869   2.053  0.9687  0.1867  0.0961
  298SOL    HW1 1190   1.645   0.911   1.971 -1.1118  1.4584  4.0739
  298SOL    HW2 1191   1.691   0.836   2.093 -1.3893  0.3071 -1.4136
  298SOL     MW 1192   1.628   0.870   2.047  0.3831  0.3704  0.4217
  299SOL     OW 1193   0.622   1.185   0.078  0.5275 -0.5349 -0.8572
  299SOL    HW1 1194   0.598   1.150  -0.012  0.2413  2.9195 -0.9555
  299SOL    HW2 1195   0.668   1.266   0.047 -2.3674  1.0705 -4.2225
  299SOL     MW 1196   0.625   1.191   0.062  0.1078  0.1327 -1.3142
  300SOL     OW 1197   1.105   1.135   2.555 -0.0924  0.0320 -0.1184
  300SOL    HW1 1198   1.021   1.087   2.566 -0.9246  0.6122  0.0951
  300SOL    HW2 1199   1.159   1.120   2.637  0.1870 -0.7559 -0.8342
  300SOL     MW 1200   1.101   1.126   2.567 -0.1654  0.0046 -0.1847
  301SOL     OW 1201   1.499   1.036   0.754  0.5992 -0.7250  0.6722
  301SOL    HW1 1202   1.486   1.069   0.843 -1.6566 -1.0116  1.3490
  301SOL    HW2 1203   1.436   0.960   0.740  0.2609 -1.5696 -1.6851
  301SOL     MW 1204   1.489   1.030   0.764  0.2569 -0.8742  0.4505
  302SOL     OW 1205   0.202   1.578   2.042  0.8958  0.2074  0.0872
  302SOL    HW1 1206   0.193   1.493   2.077  0.5784  3.0332  0.5747
  302SOL    HW2 1207   0.123   1.623   2.069  0.7733 -3.7447  0.2150
  302SOL     MW 1208   0.191   1.573   2.050  0.8378  0.0588  0.1684
  303SOL     OW 1209   0.303   1.766   2.709 -0.7465 -0.3343  0.3595
  303SOL    HW1 1210   0.273   1.782   2.620 -2.3312  2.5170 -0.3632
  303SOL    HW2 1211   0.225   1.791   2.762 -2.9510  0.8620  0.6366
  303SOL     MW 1212   0.289   1.771   2.705 -1.2465  0.1998  0.3007
  304SOL     OW 1213   0.523   2.057   2.470  0.2713  0.1269 -0.2070
  304SOL    HW1 1214   0.602   2.115   2.456  3.5110  0.5649 -0.4229
  304SOL    HW2 1215   0.550   1.975   2.429 -1.0504  0.0712 -3.7902
  304SOL     MW 1216   0.537   2.054   2.463  0.5244  0.1774 -0.7083
  305SOL     OW 1217   1.156   0.649   0.549  0.1956  0.0722 -0.1695
  305SOL    HW1 1218   1.057   0.649   0.545 -0.5255  0.0332  0.7842
  305SOL    HW2 1219   1.180   0.557   0.553  2.1048 -3.3412  0.7325
  305SOL     MW 1220   1.146   0.637   0.549  0.3524 -0.3833  0.0754
  306SOL     OW 1221   1.089   1.543   0.308  0.4658  0.3601 -0.1276
  306SOL    HW1 1222   1.125   1.455   0.336  0.6502 -0.9317  2.1513
  306SOL    HW2 1223   1.144   1.572   0.238  0.0566  1.3816  0.4803
  306SOL     MW 1224   1.101   1.535   0.302  0.4361  0.3244  0.2533
  307SOL     OW 1225   1.449   0.503   1.914  0.3510  0.1315  0.0071
  307SOL    HW1 1226   1.389   0.439   1.953  0.0163  0.5253 -1.4384
  307SOL    HW2 1227   1.473   0.555   1.993 -1.0051  1.2946 -0.0444
  307SOL     MW 1228   1.444   0.502   1.930  0.1279  0.3369 -0.1904
  308SOL     OW 1229   2.253   0.536   2.741  0.4230  0.8634  0.4337
  308SOL    HW1 1230   2.345   0.560   2.767  1.3571 -2.7549  2.2838
  308SOL    HW2 1231   2.206   0.617   2.725  2.4870  0.1872 -1.9674
  308SOL     MW 1232   2.259   0.550   2.742  0.8186  0.2968  0.3610
  309SOL     OW 1233   0.515   0.549   0.247  0.0544 -0.1496  0.1276
  309SOL    HW1 1234   0.596   0.597   0.250  0.4701 -1.1633  1.9843
  309SOL    HW2 1235   0.526   0.464   0.208 -4.3497 -0.6400  1.4523
  309SOL     MW 1236   0.527   0.544   0.242 -0.4719 -0.3481  0.5473
  310SOL     OW 1237   0.403   0.531   1.866 -0.0297 -0.2559 -0.1339
  310SOL    HW1 1238   0.463   0.465   1.824 -0.9071  0.4860 -2.6953
  310SOL    HW2 1239   0.438   0.616   1.831  0.0321  2.0569 -2.3825
  310SOL     MW 1240   0.416   0.534   1.856 -0.1373  0.1471 -0.7686
  311SOL     OW 1241   1.966   0.639   1.956  0.3533  0.2355 -0.2196
  311SOL    HW1 1242   1.953   0.697   2.029  1.3540 -2.3836 -0.7301
  311SOL    HW2 1243   2.031   0.570   1.991 -2.0301 -1.5460 -0.3687
  311SOL     MW 1244   1.973   0.638   1.970  0.1708 -0.3451 -0.3066
  312SOL     OW 1245   1.707   2.458   0.149 -0.2954  0.4423  0.4051
  312SOL    HW1 1246   1.730   2.454   0.240  0.7668 -0.4069  0.9004
  312SOL    HW2 1247   1.648   2.532   0.147  0.3252 -1.5005 -1.6588
  312SOL     MW 1248   1.702   2.467   0.161 -0.0733  0.0739  0.1981
  313SOL     OW 1249   0.140   1.142   3.039  0.1705  0.4886  0.1136
  313SOL    HW1 1250   0.089   1.193   3.110  0.4461  1.1162  0.0076
  313SOL    HW2 1251   0.159   1.216   2.980  0.7470  2.0612 -2.1801
  313SOL     MW 1252   0.136   1.159   3.041  0.2829  0.7789 -0.2030
  314SOL     OW 1253   2.186   2.925   0.032 -0.0807 -0.6919 -0.3951
  314SOL    HW1 1254   2.126   2.924  -0.049  0.4520  0.1778 -0.7960
  314SOL    HW2 1255   2.235   3.001   0.028 -3.9416 -5.2141  1.1258
  314SOL     MW 1256   2.184   2.935   0.021 -0.5198 -1.1738 -0.2473
  315SOL     OW 1257   1.536   1.852   3.003 -0.0474 -0.1372  0.5586
  315SOL    HW1 1258   1.479   1.913   3.051  1.4761  1.6418  1.5310
  315SOL    HW2 1259   1.574   1.921   2.938  1.8959  0.0217  2.3168
  315SOL     MW 1260   1.534   1.869   3.000  0.4100  0.1185  0.9189
  316SOL     OW 1261   1.201   0.649   2.691  0.0432  0.2691 -0.1982
  316SOL    HW1 1262   1.286   0.687   2.705  1.0921  2.2510 -0.7955
  316SOL    HW2 1263   1.157   0.644   2.783 -1.2493  0.8671 -1.9494
  316SOL     MW 1264   1.206   0.653   2.705  0.0110  0.6095 -0.5081
  317SOL     OW 1265   0.689   1.588   2.642  0.3345 -0.0786 -0.5945
  317SOL    HW1 1266   0.724   1.501   2.651  1.2322 -3.2061  0.8260
  317SOL    HW2 1267   0.698   1.606   2.547 -0.1898 -1.0492  2.5351
  317SOL     MW 1268   0.695   1.579   2.631  0.3838 -0.6193  0.0059
  318SOL     OW 1269   1.367   0.382   2.906  0.2419  0.1609 -0.9690
  318SOL    HW1 1270   1.285   0.417   2.865  0.5861  0.3046 -0.2878
  318SOL    HW2 1271   1.436   0.418   2.846  2.7326  0.8755 -1.3802
  318SOL     MW 1272   1.365   0.391   2.893  0.6160  0.2742 -0.9333
  319SOL     OW 1273   0.787   0.478   2.830 -0.1037  0.9935  0.1052
  319SOL    HW1 1274   0.768   0.399   2.773 -1.8764 -2.5687  1.5823
  319SOL    HW2 1275   0.765   0.456   2.919  1.3855  2.8248 -3.5269
  319SOL     MW 1276   0.782   0.465   2.834 -0.1411  0.7651 -0.1791
  320SOL     OW 1277   1.041   1.323   1.990 -0.4892  0.1978  0.1359
  320SOL    HW1 1278   1.088   1.264   2.044 -1.6287  1.8430  0.9910
  320SOL    HW2 1279   1.106   1.390   1.959  2.5976 -2.8788  0.1706
  320SOL     MW 1280   1.056   1.324   1.993 -0.2323  0.0089  0.2533
  321SOL     OW 1281   1.060   0.872   3.050 -0.5734  0.0345  0.0713
  321SOL    HW1 1282   0.992   0.838   2.988 -1.2172  1.6664 -2.0065
  321SOL    HW2 1283   1.139   0.812   3.041  1.0189  3.8418  0.5138
  321SOL     MW 1284   1.062   0.860   3.041 -0.4483  0.7522 -0.1445
  322SOL     OW 1285   1.253   0.859   1.659  0.2845  0.3049  0.1918
  322SOL    HW1 1286   1.314   0.790   1.677  0.5455  2.3994 -0.7390
  322SOL    HW2 1287   1.223   0.888   1.746 -1.2973 -0.7405 -0.8944
  322SOL     MW 1288   1.257   0.854   1.673  0.1103  0.4433 -0.0743
  323SOL     OW 1289   1.212   1.528   1.902 -0.6735 -0.2275 -0.1984
  323SOL    HW1 1290   1.247   1.544   1.814  0.3371  0.7319  0.8755
  323SOL    HW2 1291   1.218   1.615   1.942  1.8761 -0.8280  2.2105
  323SOL     MW 1292   1.218   1.541   1.896 -0.2038 -0.1801  0.2611
  324SOL     OW 1293   1.431   0.980   2.523 -0.1669 -0.6675  0.0415
  324SOL    HW1 1294   1.369   1.008   2.583  4.2938 -4.6646 -1.1381
  324SOL    HW2 1295   1.523   1.005   2.548 -0.8952 -0.4822  2.2292
  324SOL     MW 1296   1.435   0.987   2.534  0.3255 -1.1704  0.1745
  325SOL     OW 1297   1.047   0.530   2.913  0.5814  0.0050  0.1231
  325SOL    HW1 1298   1.049   0.610   2.961  0.9471 -1.6535  2.7903
  325SOL    HW2 1299   0.954   0.523   2.879 -1.7015  1.6872 -0.3380
  325SOL     MW 1300   1.035   0.540   2.915  0.3285  0.0081  0.4142
  326SOL     OW 1301   0.383   1.383   2.314  0.3023 -0.1745  0.7337
  326SOL    HW1 1302   0.468   1.376   2.269  0.7350 -0.6540 -0.2995
  326SOL    HW2 1303   0.370   1.480   2.323 -1.4666  3.2917  0.9200
  326SOL     MW 1304   0.392   1.395   2.309  0.1260  0.2196  0.6220
  327SOL     OW 1305   1.993   0.786   2.423 -0.0483 -0.3749  0.4005
  327SOL    HW1 1306   1.929   0.730   2.463  0.2157  0.7580 -0.2270
  327SOL    HW2 1307   2.007   0.857   2.484 -0.8469 -1.3816 -0.8547
  327SOL     MW 1308   1.987   0.788   2.436 -0.1188 -0.3583  0.1521
  328SOL     OW 1309   0.217   1.327   2.107 -0.2181  0.7849  0.5872
  328SOL    HW1 1310   0.142   1.262   2.088  1.8766 -1.3260 -3.4200
  328SOL    HW2 1311   0.243   1.328   2.195  0.6391 -0.8844  0.1279
  328SOL     MW 1312   0.211   1.318   2.116  0.1714  0.2861 -0.0021
  329SOL     OW 1313   0.058   0.101   1.363 -0.0054 -0.5860 -0.4683
  329SOL    HW1 1314   0.038   0.144   1.448  2.2917  1.5272  2.4806
  329SOL    HW2 1315   0.144   0.147   1.340 -1.8084 -0.5262  1.3047
  329SOL     MW 1316   0.067   0.113   1.371  0.0598 -0.2993  0.1547
  330SOL     OW 1317   0.381   0.052   2.014 -0.2645  0.2571 -0.2718
  330SOL    HW1 1318   0.442   0.085   2.083  2.0632 -0.1139 -1.9185
  330SOL    HW2 1319   0.365  -0.038   2.049  2.0175  1.0085  2.0992
  330SOL     MW 1320   0.387   0.045   2.028  0.3437  0.3073 -0.1762
  331SOL     OW 1321   0.772   1.262   2.377 -0.1975 -0.4664 -0.3369
  331SOL    HW1 1322   0.703   1.298   2.330  1.1640  3.4477  0.8996
  331SOL    HW2 1323   0.805   1.315   2.450 -0.0302 -1.5015 -1.2779
  331SOL     MW 1324   0.767   1.273   2.380  0.0042 -0.0866 -0.2979
  332SOL     OW 1325   1.360   1.650   2.930 -0.5666  0.2941  0.0483
  332SOL    HW1 1326   1.366   1.654   2.831  0.3343 -1.1929 -2.0051
  332SOL    HW2 1327   1.425   1.715   2.963  0.4570 -2.0098 -1.3081
  332SOL     MW 1328   1.370   1.659   2.921 -0.3127 -0.2061 -0.4016
  333SOL     OW 1329   1.678   1.354   2.918  0.4594  0.6239 -0.0653
  333SOL    HW1 1330   1.773   1.369   2.909 -0.4461 -1.1907  2.7185
  333SOL    HW2 1331   1.665   1.297   2.997  0.4164 -1.5278  2.4143
  333SOL     MW 1332   1.689   1.348   2.927  0.3343  0.1006  0.6291
  334SOL     OW 1333   1.342   3.092   2.621  0.5951  0.1583 -0.4589
  334SOL    HW1 1334   1.265   3.065   2.681 -1.0106  0.6337 -0.4023
  334SOL    HW2 1335   1.388   3.156   2.673 -0.8749  0.1359 -2.3832
  334SOL     MW 1336   1.338   3.097   2.636  0.1893  0.2181 -0.7053
  335SOL     OW 1337   1.278   0.729   3.005 -0.1981  0.0667 -0.2885
  335SOL    HW1 1338   1.315   0.648   3.053 -0.3153 -0.5178  2.5525
  335SOL    HW2 1339   1.332   0.763   2.934 -2.3634 -0.2119  3.5779
  335SOL     MW 1340   1.290   0.723   3.002 -0.4993 -0.0472  0.5965
  336SOL     OW 1341   0.925   1.167   1.719 -0.5182 -0.4232  0.0876
  336SOL    HW1 1342   0.863   1.225   1.765 -2.9753  2.0649  1.1409
  336SOL    HW2 1343   0.927   1.086   1.767  1.6924  1.0338 -2.3134
  336SOL     MW 1344   0.917   1.164   1.731 -0.5507  0.0973 -0.0902
  337SOL     OW 1345   0.491   1.952   2.780 -0.0106  0.2008  0.2103
  337SOL    HW1 1346   0.435   1.911   2.715 -0.5192  1.1338 -0.2064
  337SOL    HW2 1347   0.582   1.916   2.762  0.4713  1.4432 -1.6689
  337SOL     MW 1348   0.496   1.942   2.769 -0.0141  0.4879 -0.0926
  338SOL     OW 1349   1.053   0.785   2.454 -0.2020 -0.2843  0.2069
  338SOL    HW1 1350   0.983   0.716   2.465 -0.8483  1.7857  1.0742
  338SOL    HW2 1351   1.116   0.757   2.515 -0.9677 -0.3581 -1.4348
  338SOL     MW 1352   1.052   0.772   2.464 -0.3883 -0.0209  0.1047
  339SOL     OW 1353   1.408   1.243   1.911  0.0165  0.6406  0.5539
  339SOL    HW1 1354   1.411   1.201   1.826 -2.1570  1.6172 -1.7058
  339SOL    HW2 1355   1.323   1.220   1.951 -1.2443  0.0547 -0.1550
  339SOL     MW 1356   1.397   1.234   1.905 -0.4366  0.6922  0.1622
  340SOL     OW 1357   1.290   1.485   0.067 -0.2248 -0.3381 -0.3110
  340SOL    HW1 1358   1.329   1.544  -0.003  2.9947 -0.6463  1.5905
  340SOL    HW2 1359   1.364   1.435   0.093 -0.6355  1.3579  4.6709
  340SOL     MW 1360   1.305   1.486   0.061  0.1458 -0.1550  0.5972
  341SOL     OW 1361   0.134   1.362   2.792  0.1799 -0.0025  0.6014
  341SOL    HW1 1362   0.214   1.372   2.837 -3.0040  0.2955 -0.3667
  341SOL    HW2 1363   0.167   1.356   2.700  0.4626  0.0255 -0.3404
  341SOL     MW 1364   0.149   1.362   2.785 -0.2029  0.0405  0.3494
  342SOL     OW 1365   1.414   0.340   0.073 -0.3482  0.0947 -0.1296
  342SOL    HW1 1366   1.491   0.377   0.119 -1.8560 -2.2104 -0.1593
  342SOL    HW2 1367   1.416   0.359  -0.020 -2.4889 -1.4733 -1.3970
  342SOL     MW 1368   1.424   0.347   0.067 -0.8296 -0.4163 -0.3007
  343SOL     OW 1369   0.236   0.231   2.144 -0.3546 -0.2698  0.2718
  343SOL    HW1 1370   0.274   0.153   2.103  3.1722 -0.6108 -1.7805
  343SOL    HW2 1371   0.141   0.215   2.149  0.4385 -1.6124 -0.8511
  343SOL     MW 1372   0.229   0.218   2.139  0.2153 -0.4919 -0.1471
  344SOL     OW 1373   1.703   1.985   0.142  0.4443  0.4243  0.9650
  344SOL    HW1 1374   1.729   2.078   0.120  0.8817 -3.2240 -0.3624
  344SOL    HW2 1375   1.631   1.952   0.079 -2.1907 -3.7812 -1.6497
  344SOL     MW 1376   1.697   1.993   0.131  0.1543 -0.6119  0.4449
  345SOL     OW 1377   0.691   1.646   2.366 -0.5918 -0.2405 -0.4778
  345SOL    HW1 1378   0.597   1.636   2.364  1.2051 -1.9932  1.5067
  345SOL    HW2 1379   0.723   1.580   2.302  0.4519 -1.5113 -0.6866
  345SOL     MW 1380   0.683   1.636   2.357 -0.2170 -0.6394 -0.2435
  346SOL     OW 1381   1.653   1.118   0.035  0.5929  0.3054  0.0536
  346SOL    HW1 1382   1.744   1.136   0.026 -0.9074  4.1459  1.4187
  346SOL    HW2 1383   1.628   1.033   0.073 -1.7870  0.2882 -0.7367
  346SOL     MW 1384   1.662   1.109   0.039  0.0809  0.8098  0.1294
  347SOL     OW 1385   1.163   0.614   2.219  0.0995 -0.1530 -0.3802
  347SOL    HW1 1386   1.219   0.541   2.253  3.3991 -1.1538  0.7665
  347SOL    HW2 1387   1.132   0.674   2.287 -0.0183 -0.0904 -0.7039
  347SOL     MW 1388   1.167   0.612   2.232  0.5193 -0.2768 -0.2716
  348SOL     OW 1389   1.337   2.538   1.916  0.1448  0.3243  0.1295
  348SOL    HW1 1390   1.347   2.465   1.985  0.3178  1.3127 -0.7627
  348SOL    HW2 1391   1.335   2.620   1.968 -1.4130 -2.4940 -2.1821
  348SOL     MW 1392   1.338   2.540   1.932 -0.0379  0.0829 -0.2932
  349SOL     OW 1393   1.477   0.154   2.786 -0.0682  0.2345  0.1931
  349SOL    HW1 1394   1.457   0.218   2.852 -0.8351  1.2714  1.7243
  349SOL    HW2 1395   1.531   0.074   2.813 -2.0809 -1.0394  0.6736
  349SOL     MW 1396   1.482   0.152   2.798 -0.4350  0.2032  0.4585
  350SOL     OW 1397   1.821   0.654   2.641  0.3748 -0.3418  0.2087
  350SOL    HW1 1398   1.774   0.609   2.571  1.4739  1.2659  0.9449
  350SOL    HW2 1399   1.852   0.584   2.706 -3.0577 -2.0796  0.8366
  350SOL     MW 1400   1.819   0.639   2.640  0.0669 -0.3590  0.3887
  351SOL     OW 1401   0.080   1.154   1.579 -0.1988  0.6258 -0.7611
  351SOL    HW1 1402   0.035   1.127   1.660  3.1661 -0.3023  0.9095
  351SOL    HW2 1403   0.150   1.209   1.614 -0.2390 -1.1859  1.1731
  351SOL     MW 1404   0.083   1.158   1.595  0.2399  0.2643 -0.2855
  352SOL     OW 1405   0.753   1.822   2.781 -0.0452  0.7828  0.2614
  352SOL    HW1 1406   0.760   1.807   2.877 -3.3826  1.6951 -0.5802
  352SOL    HW2 1407   0.707   1.748   2.747 -2.3953  2.4624 -2.4734
  352SOL     MW 1408   0.748   1.810   2.789 -0.7956  1.1248 -0.2105
  353SOL     OW 1409   0.010   2.583   2.636 -0.4499  0.6058 -0.4276
  353SOL    HW1 1410   0.094   2.532   2.637 -2.2723 -0.2910 -0.0153
  353SOL    HW2 1411   0.024   2.657   2.576 -0.7556 -0.1412 -1.2071
  353SOL     MW 1412   0.023   2.586   2.628 -0.7306  0.3889 -0.4761
  354SOL     OW 1413   0.378   2.420   0.853 -0.1834 -0.3497 -1.1147
  354SOL    HW1 1414   0.418   2.401   0.934 -0.6103  0.5284 -1.2393
  354SOL    HW2 1415   0.309   2.362   0.851 -0.8641  2.0996  1.3497
  354SOL     MW 1416   0.374   2.410   0.864 -0.3295  0.0893 -0.8060
  355SOL     OW 1417   0.062   2.209   0.396  0.7325  0.6603  0.2960
  355SOL    HW1 1418  -0.028   2.169   0.396 -1.3950  2.0491 -1.5813
  355SOL    HW2 1419   0.049   2.264   0.471  0.0538  0.6087  0.0697
  355SOL     MW 1420   0.048   2.211   0.406  0.3622  0.8367  0.0184
  356SOL     OW 1421   0.745   2.964   1.060  0.0592  0.2289 -0.1730
  356SOL    HW1 1422   0.813   2.974   0.990  1.1134 -1.3341  0.8668
  356SOL    HW2 1423   0.680   2.917   1.006 -1.2182  1.6476 -1.9701
  356SOL     MW 1424   0.746   2.959   1.044  0.0297  0.2099 -0.2729
  357SOL     OW 1425   1.842   2.807   0.452  0.2758 -0.5112 -0.6345
  357SOL    HW1 1426   1.828   2.795   0.545 -0.1788  0.9777 -1.1935
  357SOL    HW2 1427   1.919   2.751   0.435  0.3206  1.8940  3.0785
  357SOL     MW 1428   1.850   2.798   0.462  0.2217  0.0026 -0.2184
  358SOL     OW 1429   0.436   0.150   1.073  0.3972 -0.3725 -0.1851
  358SOL    HW1 1430   0.533   0.158   1.052  0.2345  1.0667  0.3293
  358SOL    HW2 1431   0.388   0.189   0.997 -0.2548 -0.9078 -0.6801
  358SOL     MW 1432   0.443   0.157   1.060  0.2897 -0.2532 -0.1825
  359SOL     OW 1433   0.896   2.987   1.848 -0.3127  0.2804 -0.1210
  359SOL    HW1 1434   0.924   2.911   1.894  1.5755 -1.3058  2.5591
  359SOL    HW2 1435   0.906   2.972   1.754 -1.9306 -1.3620  1.6226
  359SOL     MW 1436   0.901   2.975   1.842 -0.2770 -0.1456  0.4627
  360SOL     OW 1437   0.580   2.794   0.913  0.3833  0.0789 -0.2549
  360SOL    HW1 1438   0.598   2.742   0.836  2.7180  1.5613  0.1463
  360SOL    HW2 1439   0.573   2.728   0.988  1.2742 -0.6437  1.1226
  360SOL     MW 1440   0.581   2.778   0.913  0.8089  0.1792 -0.0202
  361SOL     OW 1441   0.224   2.703   1.356 -0.7128 -0.3911  0.2330
  361SOL    HW1 1442   0.179   2.755   1.416  2.5516  1.0669 -2.6169
  361SOL    HW2 1443   0.302   2.763   1.333 -0.8993  1.8700 -1.5786
  361SOL     MW 1444   0.228   2.718   1.361 -0.3067  0.0996 -0.3821
  362SOL     OW 1445   1.371   2.423   0.608  0.0552 -0.0891 -0.0704
  362SOL    HW1 1446   1.419   2.368   0.670  0.0017 -1.8100  1.6133
  362SOL    HW2 1447   1.431   2.494   0.588  1.8424 -1.5747  0.9094
  362SOL     MW 1448   1.385   2.425   0.614  0.2839 -0.5121  0.2810
  363SOL     OW 1449   0.309   3.102   0.683 -0.8916  0.0349  0.1621
  363SOL    HW1 1450   0.310   3.023   0.744 -0.1054 -1.0570  1.7015
  363SOL    HW2 1451   0.218   3.112   0.647 -1.9213  3.5518  1.4997
  363SOL     MW 1452   0.297   3.093   0.686 -0.9237  0.3548  0.5417
  364SOL     OW 1453   0.799   0.199   0.127 -0.1753 -0.1446  0.1019
  364SOL    HW1 1454   0.742   0.130   0.165  0.1577 -2.7478 -0.0865
  364SOL    HW2 1455   0.758   0.242   0.058  3.1133 -0.2705  0.7249
  364SOL     MW 1456   0.786   0.195   0.123  0.3026 -0.5047  0.1593
  365SOL     OW 1457   0.876   2.008   1.226 -0.1547  0.4316  0.4967
  365SOL    HW1 1458   0.879   2.098   1.210  2.8056 -1.1729  3.3357
  365SOL    HW2 1459   0.865   1.962   1.138 -1.0759  1.8359  1.5060
  365SOL     MW 1460   0.875   2.014   1.212  0.1144  0.4052  1.0044
  366SOL     OW 1461   2.934   2.648   0.943  0.0656  0.2689 -0.4307
  366SOL    HW1 1462   2.990   2.649   1.024 -1.5066 -0.0200 -1.5082
  366SOL    HW2 1463   2.990   2.672   0.869 -3.4402  0.0343 -0.4639
  366SOL     MW 1464   2.949   2.651   0.944 -0.6044  0.1999 -0.5773
  367SOL     OW 1465   1.218   2.990   1.000  0.8426  0.5189  0.5581
  367SOL    HW1 1466   1.285   3.038   0.959 -1.4717 -1.4970  0.4831
  367SOL    HW2 1467   1.178   2.952   0.919  1.3397 -0.0924 -3.5387
  367SOL     MW 1468   1.222   2.991   0.984  0.6028  0.1723  0.0077
  368SOL     OW 1469   1.719   0.438   0.637 -0.2104  0.6280 -0.3726
  368SOL    HW1 1470   1.777   0.369   0.611 -1.1687  0.7968  0.7520
  368SOL    HW2 1471   1.742   0.518   0.585 -0.2210  0.4803 -0.8980
  368SOL     MW 1472   1.730   0.440   0.627 -0.3382  0.6308 -0.2935
  369SOL     OW 1473   0.150   2.395   1.748 -0.3147 -0.4327 -0.7972
  369SOL    HW1 1474   0.244   2.403   1.762  2.2401 -1.7370  0.6806
  369SOL    HW2 1475   0.124   2.493   1.741 -0.4611  0.3045  0.3066
  369SOL     MW 1476   0.159   2.409   1.749  0.0031 -0.5076 -0.4566
  370SOL     OW 1477   0.705   0.123   1.045 -0.9831 -0.5048 -0.1036
  370SOL    HW1 1478   0.754   0.149   0.962 -2.0425 -2.1780 -1.4333
  370SOL    HW2 1479   0.736   0.029   1.074 -3.4039 -2.2133 -0.6809
  370SOL     MW 1480   0.716   0.114   1.038 -1.4423 -0.9510 -0.3552
  371SOL     OW 1481   1.167   2.889   1.471 -0.5629  0.2716 -0.1135
  371SOL    HW1 1482   1.162   2.801   1.435 -2.4130  0.3403 -2.3451
  371SOL    HW2 1483   1.146   2.944   1.394  0.2596  3.5217  2.3581
  371SOL     MW 1484   1.164   2.885   1.456 -0.6985  0.7095 -0.0818
  372SOL     OW 1485   0.810   2.338   0.487  0.3048  0.5849 -0.5452
  372SOL    HW1 1486   0.749   2.268   0.509 -0.2057  0.0724 -1.0597
  372SOL    HW2 1487   0.837   2.308   0.399 -2.0583 -1.1049 -0.4856
  372SOL     MW 1488   0.806   2.325   0.478 -0.0743  0.2943 -0.6052
  373SOL     OW 1489   2.859   3.005   1.413  0.0400  0.3609 -0.0056
  373SOL    HW1 1490   2.924   2.968   1.351  1.6847 -1.8554  0.5253
  373SOL    HW2 1491   2.843   3.080   1.366  0.1147 -1.6215  1.1485
  373SOL     MW 1492   2.866   3.010   1.398  0.2668 -0.1931  0.2167
  374SOL     OW 1493   1.599   0.467   0.283  0.0968  0.7155 -0.1862
  374SOL    HW1 1494   1.679   0.416   0.267  3.1992 -0.2553 -0.8875
  374SOL    HW2 1495   1.560   0.428   0.361 -2.6110  0.3060 -0.7427
  374SOL     MW 1496   1.604   0.455   0.291  0.1489  0.5334 -0.3522
  375SOL     OW 1497   1.042   2.111   2.270  0.6284 -0.6972 -0.1543
  375SOL    HW1 1498   1.068   2.095   2.357 -1.8347 -1.0522 -1.5312
  375SOL    HW2 1499   0.981   2.042   2.250  1.2664 -0.1892 -0.7553
  375SOL     MW 1500   1.037   2.100   2.279  0.3876 -0.6770 -0.4153
  376SOL     OW 1501   0.791   2.508   0.123  0.6453  0.5773  0.1419
  376SOL    HW1 1502   0.724   2.459   0.166  0.4974  0.1961 -0.2974
  376SOL    HW2 1503   0.800   2.462   0.038  1.4531 -1.1101 -0.1001
  376SOL     MW 1504   0.783   2.495   0.117  0.7324  0.3044  0.0520
  377SOL     OW 1505   1.355   2.058   0.929  0.5277  0.2577 -0.1467
  377SOL    HW1 1506   1.276   2.035   0.887  0.2477 -1.7237  0.1415
  377SOL    HW2 1507   1.349   2.012   1.013  1.5563  1.1698 -2.0247
  377SOL     MW 1508   1.344   2.049   0.935  0.6265  0.1166 -0.3565
  378SOL     OW 1509   0.885   2.852   1.535 -0.2803  0.3627  0.6858
  378SOL    HW1 1510   0.895   2.763   1.554  1.4613  0.9831 -3.0350
  378SOL    HW2 1511   0.967   2.870   1.484  1.1981 -5.4532 -2.7426
  378SOL     MW 1512   0.897   2.843   1.531  0.1446 -0.3228 -0.2575
  379SOL     OW 1513   1.089   1.604   2.246 -0.2493 -0.4643  0.8393
  379SOL    HW1 1514   0.997   1.586   2.241 -0.1436  0.4277  0.1256
  379SOL    HW2 1515   1.143   1.525   2.260 -2.0336 -2.9122 -1.4786
  379SOL     MW 1516   1.084   1.591   2.247 -0.4708 -0.6696  0.4393
  380SOL     OW 1517   0.889   0.104   1.449  0.1364 -0.0755  0.3705
  380SOL    HW1 1518   0.940   0.040   1.405  0.7999  3.4094  1.5410
  380SOL    HW2 1519   0.933   0.118   1.539 -1.6026  0.0253  0.7849
  380SOL     MW 1520   0.901   0.097   1.455 -0.0055  0.3976  0.5796
  381SOL     OW 1521   0.813   2.055   0.855  0.2349  0.4665  0.3257
  381SOL    HW1 1522   0.908   2.050   0.840  2.5731  1.2523 -0.0854
  381SOL    HW2 1523   0.802   2.129   0.920  0.9527 -1.7465 -0.6230
  381SOL     MW 1524   0.824   2.064   0.862  0.6381  0.2782  0.1463
  382SOL     OW 1525   0.838   0.152   0.597  0.3136 -0.2008 -0.7400
  382SOL    HW1 1526   0.810   0.190   0.682 -2.5808 -0.2075  1.0882
  382SOL    HW2 1527   0.812   0.056   0.600  0.0467  0.4403 -3.2248
  382SOL     MW 1528   0.831   0.144   0.608 -0.1035 -0.1171 -0.8266
  383SOL     OW 1529   0.630   0.027   0.328  0.5585 -0.7808 -0.4094
  383SOL    HW1 1530   0.654  -0.029   0.256  1.6838  0.1020  0.6598
  383SOL    HW2 1531   0.556  -0.008   0.378  1.6794 -0.4937 -1.0710
  383SOL     MW 1532   0.623   0.015   0.325  0.8548 -0.6264 -0.3556
  384SOL     OW 1533   0.749   2.985   0.633  0.3689 -0.0445  0.1713
  384SOL    HW1 1534   0.816   2.955   0.698 -1.0057  2.8970 -3.1938
  384SOL    HW2 1535   0.699   2.903   0.611  1.0923 -0.0756 -4.3832
  384SOL     MW 1536   0.751   2.970   0.639  0.2830  0.3395 -0.8736
  385SOL     OW 1537   1.345   2.085   1.527 -0.6010  0.2271 -0.2262
  385SOL    HW1 1538   1.419   2.120   1.576 -1.7576 -1.6136  0.2413
  385SOL    HW2 1539   1.317   2.010   1.581  1.8202  1.4383  0.5068
  385SOL     MW 1540   1.351   2.080   1.541 -0.4342  0.1440 -0.0678
  386SOL     OW 1541   1.463   0.440   0.903  0.3686  0.6257 -0.1795
  386SOL    HW1 1542   1.416   0.477   0.976 -0.0793 -1.2112  0.7632
  386SOL    HW2 1543   1.550   0.422   0.938  0.1585  1.1747 -2.1505
  386SOL     MW 1544   1.468   0.443   0.917  0.2818  0.4558 -0.3152
  387SOL     OW 1545   0.792   2.216   1.594 -0.0675  0.2129  0.2340
  387SOL    HW1 1546   0.864   2.242   1.539 -3.0265  0.0961  2.3289
  387SOL    HW2 1547   0.797   2.117   1.593  2.1124  1.0785  0.6554
  387SOL     MW 1548   0.802   2.206   1.587 -0.1703  0.3117  0.5660
  388SOL     OW 1549   1.476   2.747   1.403 -0.0766 -0.0662  0.9194
  388SOL    HW1 1550   1.418   2.826   1.382  0.5523 -0.3185 -1.0640
  388SOL    HW2 1551   1.480   2.703   1.316  0.7643  1.4331  0.3835
  388SOL     MW 1552   1.469   2.752   1.388  0.1173  0.0983  0.5870
  389SOL     OW 1553   0.502   0.138   3.066 -0.5123 -0.1741  0.0020
  389SOL    HW1 1554   0.587   0.103   3.030 -0.4176  0.5004 -1.9073
  389SOL    HW2 1555   0.469   0.185   2.986 -2.2964  2.7871 -1.4973
  389SOL     MW 1556   0.509   0.139   3.051 -0.7352  0.3056 -0.4477
  390SOL     OW 1557   1.367   0.031   0.754 -0.3354 -0.1430 -0.0062
  390SOL    HW1 1558   1.387   0.019   0.657  2.1444  0.0581 -0.2943
  390SOL    HW2 1559   1.451   0.070   0.772  0.8220  1.1969  0.3166
  390SOL     MW 1560   1.381   0.034   0.743  0.1445  0.0603 -0.0016
  391SOL     OW 1561   0.339   2.186   1.504 -0.3657  0.1828  0.1416
  391SOL    HW1 1562   0.374   2.173   1.594 -1.1337  0.8071 -0.7248
  391SOL    HW2 1563   0.278   2.260   1.518 -1.2209  0.2813  0.7288
  391SOL     MW 1564   0.335   2.194   1.518 -0.5799  0.2782  0.1048
  392SOL     OW 1565   1.957   2.218   0.316 -0.0464 -0.6682 -0.1570
  392SOL    HW1 1566   2.032   2.271   0.345 -1.2772  0.7275 -1.9619
  392SOL    HW2 1567   1.887   2.280   0.330  0.3147 -1.4979 -1.5380
  392SOL     MW 1568   1.958   2.233   0.322 -0.1611 -0.5936 -0.5774
  393SOL     OW 1569   0.250   2.968   2.865 -0.3671 -0.6021  0.0576
  393SOL    HW1 1570   0.315   2.923   2.812  1.4593  0.4814 -1.0641
  393SOL    HW2 1571   0.260   3.065   2.857 -0.3070 -0.9320 -0.3947
  393SOL     MW 1572   0.260   2.975   2.857 -0.1182 -0.5026 -0.1500
  394SOL     OW 1573   1.047   1.780   1.507 -0.3266  0.2238  0.3787
  394SOL    HW1 1574   1.050   1.803   1.604  1.6984  2.2627  0.9725
  394SOL    HW2 1575   0.978   1.830   1.468  0.5106  1.4737 -1.1066
  394SOL     MW 1576   1.038   1.790   1.515  0.0511  0.6577  0.2611
  395SOL     OW 1577   0.917   2.947   2.707  0.3460 -0.1697  0.7089
  395SOL    HW1 1578   0.978   3.010   2.761  0.6086 -0.2950  1.4575
  395SOL    HW2 1579   0.985   2.897   2.656 -0.7784 -1.4423 -0.5649
  395SOL     MW 1580   0.934   2.948   2.708  0.2323 -0.3542  0.6396
  396SOL     OW 1581   0.761   1.904   2.363  0.3031  0.4514 -0.1825
  396SOL    HW1 1582   0.830   1.892   2.431  3.0259  0.8583  1.7510
  396SOL    HW2 1583   0.720   1.820   2.342 -1.3395  1.1926 -0.9052
  396SOL     MW 1584   0.764   1.891   2.369  0.4456  0.6029 -0.0227
  397SOL     OW 1585   0.979   2.309   1.386  0.4799  0.3120  0.0114
  397SOL    HW1 1586   0.996   2.347   1.303 -0.2762  0.1537  0.1020
  397SOL    HW2 1587   1.063   2.304   1.434  1.9826 -0.2840  5.5248
  397SOL     MW 1588   0.992   2.314   1.381  0.5784  0.2124  0.7508
  398SOL     OW 1589   0.630   2.717   0.648 -0.1081  0.3473  0.7452
  398SOL    HW1 1590   0.572   2.717   0.573  3.7814 -1.1479  0.2625
  398SOL    HW2 1591   0.703   2.652   0.631 -1.3015 -1.2186 -0.0904
  398SOL     MW 1592   0.632   2.708   0.636  0.2476 -0.0566  0.5712
  399SOL     OW 1593   0.326   2.096   0.349  0.6508 -0.0938  0.6539
  399SOL    HW1 1594   0.243   2.141   0.371  1.9159  0.0505  1.5430
  399SOL    HW2 1595   0.367   2.139   0.273  0.9957  1.7311 -0.9551
  399SOL     MW 1596   0.320   2.107   0.342  0.8633  0.1660  0.5589
  400SOL     OW 1597   0.604   1.907   0.074 -0.3484  0.5291  0.0691
  400SOL    HW1 1598   0.565   2.000   0.082  0.4501 -0.7723 -1.2286
  400SOL    HW2 1599   0.594   1.862   0.158 -1.2838 -1.3636 -2.3159
  400SOL     MW 1600   0.598   1.913   0.086 -0.3665  0.1077 -0.4168
  401SOL     OW 1601   0.829   2.077   0.026  0.5392  0.0611 -0.7147
  401SOL    HW1 1602   0.914   2.031   0.048  0.2408  0.6036  0.3943
  401SOL    HW2 1603   0.761   2.019   0.066 -0.8820 -0.1855  0.0438
  401SOL     MW 1604   0.831   2.064   0.034  0.3123  0.1002 -0.4683
  402SOL     OW 1605   0.559   3.014   1.756  0.3061  0.0873  0.6270
  402SOL    HW1 1606   0.636   2.995   1.810 -0.4378  1.8758  0.3271
  402SOL    HW2 1607   0.572   3.102   1.722  1.6080  0.4750 -1.6840
  402SOL     MW 1608   0.571   3.023   1.759  0.3797  0.3744  0.2825
  403SOL     OW 1609   0.147   0.525   0.395  0.3114  0.1366 -0.3536
  403SOL    HW1 1610   0.231   0.535   0.446  2.3607 -0.0673  1.7393
  403SOL    HW2 1611   0.166   0.493   0.310  1.5299 -0.9468  3.7332
  403SOL     MW 1612   0.161   0.522   0.391  0.7426 -0.0332  0.4617
  404SOL     OW 1613   0.935   2.944   0.848 -0.4871  0.7413 -0.1913
  404SOL    HW1 1614   1.004   2.884   0.829 -0.0022  0.6147  0.0256
  404SOL    HW2 1615   0.984   3.023   0.851  0.2279 -0.2847  1.4410
  404SOL     MW 1616   0.951   2.946   0.846 -0.3288  0.5892  0.0527
  405SOL     OW 1617   0.508   2.463   1.513  0.2741 -0.0097 -0.0776
  405SOL    HW1 1618   0.529   2.536   1.458 -0.1107  4.2125  3.0891
  405SOL    HW2 1619   0.546   2.391   1.461  0.8485 -1.7004 -2.9040
  405SOL     MW 1620   0.516   2.463   1.499  0.2991  0.3243 -0.0327
  406SOL     OW 1621   0.411   2.359   1.124  0.2464 -0.0153 -0.3000
  406SOL    HW1 1622   0.319   2.372   1.094 -0.4984 -0.6576 -0.8616
  406SOL    HW2 1623   0.411   2.269   1.163 -0.9967  2.0391  1.0596
  406SOL     MW 1624   0.399   2.349   1.125 -0.0159  0.1710 -0.1947
  407SOL     OW 1625   0.050   2.650   1.171  0.3644 -0.2866 -0.2706
  407SOL    HW1 1626   0.118   2.679   1.228 -1.5596  0.4948  1.0016
  407SOL    HW2 1627   0.104   2.639   1.093 -1.6369 -0.3974 -0.9957
  407SOL     MW 1628   0.066   2.652   1.168 -0.1535 -0.1981 -0.1984
  408SOL     OW 1629   2.126   2.124   0.755  0.3342  0.4992 -0.3492
  408SOL    HW1 1630   2.071   2.182   0.821 -1.4346  0.6718 -0.1194
  408SOL    HW2 1631   2.047   2.075   0.712 -2.7463 -0.7180  1.0191
  408SOL     MW 1632   2.109   2.125   0.758 -0.3056  0.3614 -0.1384
  409SOL     OW 1633   1.623   0.127   0.829 -0.0640 -0.7047 -0.2472
  409SOL    HW1 1634   1.688   0.197   0.838  1.9214 -0.6371  1.5489
  409SOL    HW2 1635   1.612   0.098   0.918  2.5536  0.1714 -0.3315
  409SOL     MW 1636   1.631   0.132   0.842  0.5433 -0.5802 -0.0214
  410SOL     OW 1637   1.085   2.414   1.147  0.0413  0.2043 -0.1962
  410SOL    HW1 1638   1.021   2.442   1.083  0.1822 -2.3958 -2.0105
  410SOL    HW2 1639   1.159   2.386   1.097 -0.5774  1.5894  2.0584
  410SOL     MW 1640   1.086   2.414   1.132 -0.0217  0.0440 -0.1381
  411SOL     OW 1641   2.010   2.951   2.907 -0.1220  0.2520  0.1396
  411SOL    HW1 1642   1.981   2.904   2.828 -1.7396 -1.7133  1.3457
  411SOL    HW2 1643   1.977   3.040   2.899  1.3297  0.0218 -0.1343
  411SOL     MW 1644   2.001   2.956   2.895 -0.1439 -0.0377  0.2626
  412SOL     OW 1645   1.049   2.227   0.596  0.7815  0.0942 -0.1275
  412SOL    HW1 1646   1.077   2.309   0.642 -1.3479  0.5510  2.1595
  412SOL    HW2 1647   0.952   2.234   0.585 -0.7311  1.7583 -1.1009
  412SOL     MW 1648   1.040   2.238   0.600  0.3010  0.3740  0.0458
  413SOL     OW 1649   0.602   2.712   0.077  0.2343 -0.2723 -0.9333
  413SOL    HW1 1650   0.654   2.629   0.107  1.1478  0.7907 -1.3905
  413SOL    HW2 1651   0.637   2.719  -0.009  2.5213 -1.3670  0.4046
  413SOL     MW 1652   0.614   2.702   0.070  0.6566 -0.2765 -0.8171
  414SOL     OW 1653   1.997   3.032   1.072 -0.0280 -0.2174 -0.0595
  414SOL    HW1 1654   2.013   3.110   1.123  2.2304 -1.0884 -1.0879
  414SOL    HW2 1655   1.986   3.055   0.976  1.8588 -0.2364 -1.6910
  414SOL     MW 1656   1.998   3.046   1.066  0.5189 -0.3349 -0.4104
  415SOL     OW 1657   1.612   2.822   1.115 -0.3232  0.1816 -0.2388
  415SOL    HW1 1658   1.657   2.840   1.198  0.1789  2.7112 -0.4456
  415SOL    HW2 1659   1.681   2.774   1.065 -1.7197 -3.0098  2.4357
  415SOL     MW 1660   1.627   2.818   1.119 -0.4412  0.0943  0.0868
  416SOL     OW 1661   0.624   1.701   1.484  0.8957  0.3125 -0.7491
  416SOL    HW1 1662   0.527   1.717   1.484 -2.4790 -0.2251  0.1105
  416SOL    HW2 1663   0.644   1.637   1.419 -2.2322  1.6888 -1.5529
  416SOL     MW 1664   0.614   1.695   1.476  0.0377  0.4231 -0.7418
  417SOL     OW 1665   0.975   0.015   2.099 -0.8925  0.2628  0.2260
  417SOL    HW1 1666   0.885   0.030   2.133 -0.4106  0.3884  0.4640
  417SOL    HW2 1667   0.963  -0.017   2.010  0.8503  2.8220  1.4687
  417SOL     MW 1668   0.961   0.013   2.092 -0.5990  0.6170  0.4214
  418SOL     OW 1669   0.740   2.939   0.144 -0.5815 -0.6225  0.5730
  418SOL    HW1 1670   0.816   2.912   0.091 -1.2693 -0.0818 -0.1973
  418SOL    HW2 1671   0.673   2.866   0.132 -0.0116 -1.3401  0.5948
  418SOL     MW 1672   0.741   2.926   0.135 -0.5970 -0.6458  0.4743
  419SOL     OW 1673   0.598   2.675   1.350  0.1600 -0.2617 -0.0782
  419SOL    HW1 1674   0.593   2.763   1.397  0.1205  1.1952  0.0481
  419SOL    HW2 1675   0.678   2.632   1.384  4.0146 -0.9567 -3.4597
  419SOL     MW 1676   0.608   2.681   1.361  0.6633 -0.1612 -0.5077
  420SOL     OW 1677   0.794   2.241   1.035 -0.1261 -0.2930  0.3782
  420SOL    HW1 1678   0.756   2.249   1.121  1.1361 -1.3619  1.7190
  420SOL    HW2 1679   0.819   2.331   1.006 -0.1406 -2.0105  1.2501
  420SOL     MW 1680   0.792   2.254   1.042  0.0385 -0.6606  0.6701
  421SOL     OW 1681   2.897   0.179   0.049  0.0623  0.3541  0.5250
  421SOL    HW1 1682   2.845   0.105   0.017  2.1170 -0.1168 -0.2259
  421SOL    HW2 1683   2.975   0.136   0.078  0.4990  3.0985  0.5779
  421SOL     MW 1684   2.900   0.164   0.048  0.3910  0.6541  0.4329
  422SOL     OW 1685   0.877   2.500   0.978  0.3349  0.1314 -0.3188
  422SOL    HW1 1686   0.800   2.556   0.994  2.4420 -1.1238 -0.5275
  422SOL    HW2 1687   0.926   2.531   0.903  0.4257 -1.1549  2.0409
  422SOL     MW 1688   0.873   2.511   0.970  0.6249 -0.2039 -0.0350
  423SOL     OW 1689   1.471   0.062   0.473  0.1298 -0.1106  0.2131
  423SOL    HW1 1690   1.534   0.055   0.399  2.9838 -2.4809 -0.3771
  423SOL    HW2 1691   1.478   0.158   0.483 -0.0706 -2.3291  1.0448
  423SOL     MW 1692   1.480   0.074   0.465  0.4799 -0.7161  0.2450
  424SOL     OW 1693   0.646   2.268   1.363 -0.0233  0.1058 -0.5942
  424SOL    HW1 1694   0.594   2.201   1.320  3.0079 -0.2208  0.8064
  424SOL    HW2 1695   0.667   2.234   1.449 -0.5643  0.0414 -2.4420
  424SOL     MW 1696   0.642   2.255   1.368  0.3053  0.0542 -0.6532
  425SOL     OW 1697   1.689   2.793   2.032  0.2404 -0.2173  0.0755
  425SOL    HW1 1698   1.701   2.826   1.942 -0.1623  0.6982 -1.5049
  425SOL    HW2 1699   1.747   2.718   2.041  0.4784  0.0488 -0.8415
  425SOL     MW 1700   1.698   2.787   2.021  0.2187 -0.0614 -0.2540
  426SOL     OW 1701   0.878   1.712   1.961  0.1813 -0.0949  0.4547
  426SOL    HW1 1702   0.799   1.716   1.907 -0.5870  1.2413 -1.1520
  426SOL    HW2 1703   0.870   1.784   2.023  2.1123 -1.3029 -0.8047
  426SOL     MW 1704   0.866   1.722   1.962  0.3347 -0.0780  0.0766
  427SOL     OW 1705   0.395   1.727   1.894  0.1825 -0.1077  0.2650
  427SOL    HW1 1706   0.448   1.665   1.850 -1.5444  4.0774  0.8500
  427SOL    HW2 1707   0.329   1.677   1.940 -0.1296 -0.6534  3.1515
  427SOL     MW 1708   0.393   1.712   1.894 -0.0865  0.3725  0.7230
  428SOL     OW 1709   0.587   2.578   1.094  0.4311 -0.1969  0.3024
  428SOL    HW1 1710   0.533   2.498   1.101  0.6671 -3.0338  3.8164
  428SOL    HW2 1711   0.571   2.622   1.179 -0.5073 -1.6954 -2.0351
  428SOL     MW 1712   0.578   2.573   1.106  0.3384 -0.7689  0.4577
  429SOL     OW 1713   1.155   2.719   1.094  0.0233  0.2221 -0.4991
  429SOL    HW1 1714   1.070   2.701   1.130  0.4900  1.2650  0.4194
  429SOL    HW2 1715   1.168   2.814   1.091 -2.7253  0.5042  0.5149
  429SOL     MW 1716   1.146   2.729   1.099 -0.2777  0.3969 -0.2441
  430SOL     OW 1717   1.163   2.773   0.770 -0.0230  0.4577  0.8731
  430SOL    HW1 1718   1.165   2.677   0.788 -1.6539 -2.2183 -0.1043
  430SOL    HW2 1719   1.123   2.785   0.683  1.6510 -1.1951  2.0484
  430SOL     MW 1720   1.158   2.762   0.761 -0.0173 -0.1134  0.8992
  431SOL     OW 1721   0.304   1.923   1.111 -0.1301 -0.3213 -0.3591
  431SOL    HW1 1722   0.378   1.865   1.101  3.9051 -1.3957 -0.9198
  431SOL    HW2 1723   0.280   1.960   1.023 -1.3563  2.3097  0.4123
  431SOL     MW 1724   0.311   1.920   1.098  0.2405 -0.1159 -0.3313
  432SOL     OW 1725   0.054   3.084   1.122 -0.3078 -0.5535 -0.3024
  432SOL    HW1 1726   0.085   3.110   1.211  0.0170  0.7296  2.0752
  432SOL    HW2 1727   0.024   2.997   1.128  3.0734  1.1478  0.8355
  432SOL     MW 1728   0.054   3.076   1.135  0.1812 -0.1597  0.1614
  433SOL     OW 1729   0.628   2.928   1.464 -0.1975  0.5226  0.1230
  433SOL    HW1 1730   0.603   2.946   1.557 -0.4811 -1.3038  1.3305
  433SOL    HW2 1731   0.728   2.900   1.484  2.4925 -0.7461  1.3002
  433SOL     MW 1732   0.638   2.927   1.479  0.1200  0.1142  0.4376
  434SOL     OW 1733   1.523   2.832   1.635 -0.2448 -0.1814  0.7761
  434SOL    HW1 1734   1.431   2.854   1.653 -0.6978 -2.5583  1.2606
  434SOL    HW2 1735   1.529   2.787   1.549  0.6270 -1.4577  1.3609
  434SOL     MW 1736   1.512   2.829   1.626 -0.1895 -0.6634  0.9172
  435SOL     OW 1737   2.743   1.741   0.207 -0.5767 -0.6503  0.2161
  435SOL    HW1 1738   2.786   1.808   0.151  1.4858  1.9530 -0.5076
  435SOL    HW2 1739   2.652   1.754   0.201  0.0150 -1.0315 -0.3908
  435SOL     MW 1740   2.737   1.752   0.199 -0.2265 -0.3571  0.0406
  436SOL     OW 1741   1.325   2.717   0.316 -0.3253  0.1050 -0.1413
  436SOL    HW1 1742   1.373   2.697   0.394 -1.4938 -1.4595  1.0548
  436SOL    HW2 1743   1.279   2.795   0.343  2.7482  1.5519  0.9177
  436SOL     MW 1744   1.325   2.725   0.330 -0.0740  0.0895  0.1563
  437SOL     OW 1745   1.009   3.041   1.280 -1.0861  0.5274  0.1825
  437SOL    HW1 1746   1.009   3.107   1.209  0.6748  1.1065  2.5568
  437SOL    HW2 1747   0.951   2.972   1.254 -1.2706  0.2989 -2.3266
  437SOL     MW 1748   1.001   3.041   1.268 -0.8781  0.5737  0.1647
  438SOL     OW 1749   0.905   2.711   1.919 -0.3067 -0.1785  0.5649
  438SOL    HW1 1750   0.901   2.642   1.991  2.4356  0.9973  1.9557
  438SOL    HW2 1751   0.855   2.672   1.847  0.3699 -0.9518 -3.2346
  438SOL     MW 1752   0.897   2.697   1.919  0.1444 -0.1254  0.2471
  439SOL     OW 1753   1.205   2.079   0.438 -0.8872  0.1493  0.1476
  439SOL    HW1 1754   1.163   2.126   0.515 -0.5557 -0.3718  0.2384
  439SOL    HW2 1755   1.175   2.140   0.365  1.3588  1.6696  0.9900
  439SOL     MW 1756   1.195   2.093   0.439 -0.5471  0.2812  0.2707
  440SOL     OW 1757   1.746   2.919   3.020 -0.5133 -0.8885 -0.3525
  440SOL    HW1 1758   1.762   2.895   3.113  1.2750 -0.9340 -0.7445
  440SOL    HW2 1759   1.833   2.932   2.988  0.9049 -1.0843 -2.4653
  440SOL     MW 1760   1.760   2.918   3.028 -0.0902 -0.9204 -0.6830
  441SOL     OW 1761   0.468   2.645   0.430  0.9815  0.3265  0.0663
  441SOL    HW1 1762   0.412   2.571   0.394  0.5055 -1.9325 -1.4843
  441SOL    HW2 1763   0.423   2.725   0.412 -1.0433  0.9848 -1.8788
  441SOL     MW 1764   0.455   2.646   0.423  0.6516  0.1153 -0.3949
  442SOL     OW 1765   0.029   2.342   0.641 -0.2302 -0.2919 -0.0599
  442SOL    HW1 1766   0.025   2.439   0.637 -0.8446  2.0925 -1.2525
  442SOL    HW2 1767  -0.061   2.324   0.665 -0.8740 -0.3373 -0.7443
  442SOL     MW 1768   0.017   2.353   0.643 -0.3962  0.0167 -0.3076
  443SOL     OW 1769   1.479   1.757   1.901 -0.0714 -0.6521  1.0647
  443SOL    HW1 1770   1.442   1.799   1.824  3.0335  0.0070  3.5666
  443SOL    HW2 1771   1.488   1.663   1.885 -1.1263  1.5048 -0.7274
  443SOL     MW 1772   1.475   1.750   1.889  0.1990 -0.2805  1.1583
  444SOL     OW 1773   0.980   2.587   1.613 -0.4757 -0.5504 -0.4563
  444SOL    HW1 1774   1.057   2.550   1.657  0.3511  1.8461  0.0782
  444SOL    HW2 1775   0.904   2.584   1.675 -2.0188  0.2355  0.1461
  444SOL     MW 1776   0.980   2.582   1.627 -0.5702 -0.1305 -0.3063
  445SOL     OW 1777   1.244   0.134   1.410 -0.2613 -1.1875 -0.1370
  445SOL    HW1 1778   1.288   0.207   1.455  1.5150 -0.7553  0.0136
  445SOL    HW2 1779   1.182   0.168   1.343 -1.2608 -0.0627  0.4979
  445SOL     MW 1780   1.242   0.148   1.407 -0.1588 -0.9821 -0.0333
  446SOL     OW 1781   2.781   2.865   1.033  0.1717  0.2414  0.1502
  446SOL    HW1 1782   2.722   2.922   0.978  0.6097  0.9006 -0.1788
  446SOL    HW2 1783   2.836   2.816   0.978  1.1884  1.7073  3.3379
  446SOL     MW 1784   2.780   2.866   1.019  0.3636  0.5218  0.5274
  447SOL     OW 1785   0.034   1.934   1.560 -0.6736 -0.0050  0.1424
  447SOL    HW1 1786   0.049   1.852   1.615  1.7912 -0.1651 -1.5761
  447SOL    HW2 1787  -0.025   1.916   1.480 -0.4735 -0.1392 -1.4559
  447SOL     MW 1788   0.028   1.921   1.556 -0.3220 -0.0439 -0.2952
  448SOL     OW 1789   1.721   2.397   1.666 -0.2154 -0.9608  0.1296
  448SOL    HW1 1790   1.682   2.313   1.663  0.4526 -1.7286 -2.1073
  448SOL    HW2 1791   1.647   2.458   1.666  0.7469  2.6740 -0.7724
  448SOL     MW 1792   1.706   2.394   1.666 -0.0003 -0.5825 -0.2846
  449SOL     OW 1793   0.892   2.954   0.403  0.4842  0.5214 -0.2028
  449SOL    HW1 1794   0.825   2.946   0.336  1.0647 -3.4739 -0.0732
  449SOL    HW2 1795   0.837   2.965   0.481  0.4401 -1.0408 -0.8977
  449SOL     MW 1796   0.876   2.954   0.405  0.5550 -0.2119 -0.2774
  450SOL     OW 1797   1.147   2.494   0.783 -0.3036 -0.4876  0.1677
  450SOL    HW1 1798   1.178   2.435   0.860 -1.0827  1.0107  1.9111
  450SOL    HW2 1799   1.207   2.480   0.709 -0.0324  1.2729 -0.7792
  450SOL     MW 1800   1.159   2.485   0.783 -0.3706 -0.0577  0.2728
  451SOL     OW 1801   0.523   1.930   1.684  0.1018  0.7945  0.0311
  451SOL    HW1 1802   0.582   1.960   1.617  0.8173  2.2392 -0.9470
  451SOL    HW2 1803   0.435   1.932   1.636 -1.8626  0.7512 -1.0218
  451SOL     MW 1804   0.519   1.935   1.669 -0.0630  0.9794 -0.2369
  452SOL     OW 1805   0.343   2.635   0.014  0.6574  0.1757  0.1676
  452SOL    HW1 1806   0.416   2.688   0.046  0.4022  2.7837 -1.8224
  452SOL    HW2 1807   0.279   2.711   0.002 -2.8145  0.7216  0.7726
  452SOL     MW 1808   0.344   2.652   0.017  0.1657  0.5918 -0.0151
  453SOL     OW 1809   0.272   3.035   1.570 -0.3326 -0.7206  0.2230
  453SOL    HW1 1810   0.287   2.965   1.636 -3.5265 -0.7305  0.6579
  453SOL    HW2 1811   0.306   2.999   1.486  0.5898 -0.5508 -0.8599
  453SOL     MW 1812   0.279   3.021   1.568 -0.6323 -0.6995  0.1375
  454SOL     OW 1813   0.934   2.763   1.231 -0.2649  0.4333 -0.6047
  454SOL    HW1 1814   0.878   2.694   1.281  2.0016 -0.0926 -0.8374
  454SOL    HW2 1815   0.869   2.794   1.169 -1.8759 -0.5826  0.9888
  454SOL     MW 1816   0.918   2.758   1.229 -0.1784  0.2299 -0.4251
  455SOL     OW 1817   1.776   2.868   0.187  0.8147 -0.2160  0.0357
  455SOL    HW1 1818   1.820   2.848   0.268 -0.9919  0.2506 -0.2854
  455SOL    HW2 1819   1.694   2.808   0.189 -0.7111  0.0999  4.5212
  455SOL     MW 1820   1.771   2.858   0.198  0.3751 -0.1128  0.5852
  456SOL     OW 1821   2.765   0.270   1.462 -0.0404 -0.0966 -0.2499
  456SOL    HW1 1822   2.786   0.198   1.397  0.6165 -1.0692  1.3136
  456SOL    HW2 1823   2.824   0.340   1.440  1.2128  0.9167 -1.0068
  456SOL     MW 1824   2.776   0.270   1.451  0.2116 -0.0912 -0.1435
  457SOL     OW 1825   0.791   1.683   3.028  0.4611 -0.8181 -0.3852
  457SOL    HW1 1826   0.699   1.661   3.025  2.0951  1.6334  1.0403
  457SOL    HW2 1827   0.796   1.712   3.119 -0.6968 -0.2354  0.4673
  457SOL     MW 1828   0.780   1.684   3.039  0.5239 -0.4177 -0.0846
  458SOL     OW 1829   1.366   1.490   0.713 -0.1332 -0.2684 -0.2540
  458SOL    HW1 1830   1.298   1.552   0.683  2.6257 -2.0228  0.7007
  458SOL    HW2 1831   1.342   1.408   0.673  0.4716 -0.4625 -0.2585
  458SOL     MW 1832   1.354   1.488   0.704  0.3106 -0.5255 -0.1287
  459SOL     OW 1833   1.619   3.087   0.254  0.9663  0.0025 -0.1528
  459SOL    HW1 1834   1.670   3.005   0.237  0.7797 -1.0183 -1.7688
  459SOL    HW2 1835   1.555   3.093   0.183 -1.4599 -0.2727 -0.0702
  459SOL     MW 1836   1.617   3.077   0.242  0.6215 -0.1685 -0.3551
  460SOL     OW 1837   1.774   2.230   0.653 -0.1244  0.0136 -0.4068
  460SOL    HW1 1838   1.690   2.214   0.698  1.7304  0.4162 -1.0179
  460SOL    HW2 1839   1.810   2.140   0.632  0.2652  0.0762  0.1505
  460SOL     MW 1840   1.768   2.216   0.657  0.1718  0.0750 -0.4139
  461SOL     OW 1841   0.415   2.428   0.584 -0.5827 -0.0591  0.0068
  461SOL    HW1 1842   0.462   2.510   0.562  1.7654  0.7851 -0.4611
  461SOL    HW2 1843   0.400   2.441   0.678  1.8708 -1.7948 -0.7331
  461SOL     MW 1844   0.419   2.441   0.593  0.0508 -0.1767 -0.1526
  462SOL     OW 1845   0.285   0.229   1.274  0.5186  0.2708 -0.3425
  462SOL    HW1 1846   0.333   0.209   1.193  0.2005  0.1126 -1.6430
  462SOL    HW2 1847   0.345   0.252   1.344  1.8163 -0.9273 -1.4835
  462SOL     MW 1848   0.299   0.229   1.272  0.6478  0.0919 -0.6647
  463SOL     OW 1849   1.071   0.060   0.763  0.1299 -0.4828  0.1480
  463SOL    HW1 1850   1.164   0.064   0.730  2.2591 -0.5997  1.0331
  463SOL    HW2 1851   1.022   0.065   0.682 -1.6200 -0.6127  0.5657
  463SOL     MW 1852   1.077   0.061   0.748  0.1799 -0.5153  0.3199
  464SOL     OW 1853   0.762   3.103   2.266 -0.0338  0.0154 -0.4044
  464SOL    HW1 1854   0.766   3.007   2.259 -0.3973  0.9069  1.1723
  464SOL    HW2 1855   0.833   3.130   2.330  0.7434 -1.0629 -3.6362
  464SOL     MW 1856   0.772   3.094   2.274  0.0208 -0.0093 -0.6228
  465SOL     OW 1857   0.796   0.364   0.412  0.6614  0.5152  0.0057
  465SOL    HW1 1858   0.800   0.298   0.483 -1.5778 -1.0006 -0.8488
  465SOL    HW2 1859   0.746   0.327   0.335 -2.5699 -1.2381 -0.2790
  465SOL     MW 1860   0.790   0.351   0.411 -0.0604  0.0839 -0.1446
  466SOL     OW 1861   1.096   2.032   0.803 -0.1932 -0.1269  0.2943
  466SOL    HW1 1862   1.080   1.948   0.770  1.1545  2.6529  2.1520
  466SOL    HW2 1863   1.071   2.095   0.730  1.5827  1.6657  1.5522
  466SOL     MW 1864   1.091   2.029   0.789  0.2190  0.4764  0.7054
  467SOL     OW 1865   1.304   2.323   0.954  0.4668  0.6038 -0.3370
  467SOL    HW1 1866   1.391   2.340   0.990  0.6789 -0.0817 -0.0949
  467SOL    HW2 1867   1.318   2.229   0.945 -0.6071  0.8341 -4.6217
  467SOL     MW 1868   1.317   2.313   0.957  0.3531  0.5437 -0.8704
  468SOL     OW 1869   0.506   2.681   1.882 -0.0465  0.7281 -0.0198
  468SOL    HW1 1870   0.467   2.595   1.880 -0.5491 -0.4915  4.1438
  468SOL    HW2 1871   0.462   2.725   1.800 -2.8019  1.1649  0.1920
  468SOL     MW 1872   0.495   2.676   1.871 -0.4764  0.6248  0.5575
  469SOL     OW 1873   0.350   2.100   1.845 -0.7436 -0.0741 -0.3380
  469SOL    HW1 1874   0.257   2.080   1.858  1.5287 -2.1079  0.1137
  469SOL    HW2 1875   0.389   2.019   1.804 -2.3739 -1.6546 -0.3092
  469SOL     MW 1876   0.343   2.086   1.841 -0.6589 -0.5510 -0.2746
  470SOL     OW 1877   3.054   2.596   0.095  0.4050 -0.4759 -0.2822
  470SOL    HW1 1878   2.975   2.598   0.153  1.4457 -0.6545 -0.0118
  470SOL    HW2 1879   3.021   2.633   0.011 -1.0224 -0.9991  0.9129
  470SOL     MW 1880   3.039   2.601   0.091  0.3540 -0.5685 -0.0889
  471SOL     OW 1881   1.175   2.613   1.379  0.2466  0.0689  0.1150
  471SOL    HW1 1882   1.100   2.577   1.428 -1.1560 -0.8410 -1.9736
  471SOL    HW2 1883   1.159   2.595   1.284  2.0214 -0.5327 -2.4094
  471SOL     MW 1884   1.163   2.606   1.373  0.2957 -0.1305 -0.4937
  472SOL     OW 1885   2.887   2.111   0.343  0.8774 -0.1569 -0.3022
  472SOL    HW1 1886   2.854   2.076   0.261 -0.0482  0.2267 -0.8455
  472SOL    HW2 1887   2.870   2.040   0.401  1.9019 -3.2462  0.2993
  472SOL     MW 1888   2.881   2.097   0.340  0.8904 -0.5139 -0.2945
  473SOL     OW 1889   0.830   2.550   1.404  0.5956 -0.5982 -0.1269
  473SOL    HW1 1890   0.825   2.456   1.382  1.5671 -2.1054  1.5913
  473SOL    HW2 1891   0.865   2.553   1.496  1.6290 -0.9114 -1.5227
  473SOL     MW 1892   0.834   2.538   1.413  0.8602 -0.8384 -0.0844
  474SOL     OW 1893   0.663   2.313   1.809 -0.3358 -0.1298  0.1537
  474SOL    HW1 1894   0.741   2.321   1.864 -0.0072 -0.3880 -0.7929
  474SOL    HW2 1895   0.698   2.278   1.729 -2.2894 -1.8245  3.6540
  474SOL     MW 1896   0.678   2.310   1.806 -0.5502 -0.3875  0.4906
  475SOL     OW 1897   1.589   3.072   1.521 -0.3987  0.1208  0.0336
  475SOL    HW1 1898   1.520   3.065   1.451  0.0425 -0.6880 -1.6515
  475SOL    HW2 1899   1.586   2.976   1.533  2.5748  0.6158 -0.3567
  475SOL     MW 1900   1.579   3.058   1.513  0.0518  0.0794 -0.2402
  476SOL     OW 1901   1.444   2.629   1.167  0.2733  0.1963  0.6753
  476SOL    HW1 1902   1.361   2.677   1.147  0.0006 -2.4871 -0.3406
  476SOL    HW2 1903   1.508   2.703   1.141  1.6992  1.3416  1.0001
  476SOL     MW 1904   1.442   2.645   1.161  0.4254 -0.0066  0.5841
  477SOL     OW 1905   0.834   2.549   0.639 -0.4091 -0.4848  0.4880
  477SOL    HW1 1906   0.910   2.592   0.603 -2.9940  0.8039  1.2334
  477SOL    HW2 1907   0.828   2.468   0.593  2.3123 -1.3760  0.8303
  477SOL     MW 1908   0.843   2.544   0.628 -0.3911 -0.4324  0.6315
  478SOL     OW 1909   0.213   2.636   0.949  0.1735 -1.0187  0.0565
  478SOL    HW1 1910   0.243   2.719   0.904  0.9223  0.3517  1.1179
  478SOL    HW2 1911   0.277   2.571   0.921 -0.5390  0.9187 -1.8652
  478SOL     MW 1912   0.225   2.639   0.939  0.1783 -0.5823 -0.0570
  479SOL     OW 1913   1.398   2.001   1.267 -0.4962  0.0602 -0.2590
  479SOL    HW1 1914   1.368   2.028   1.356  1.7469 -2.8530  0.0120
  479SOL    HW2 1915   1.459   1.928   1.283 -0.2826  2.5007 -1.8094
  479SOL     MW 1916   1.402   1.995   1.281 -0.1721 -0.0021 -0.4278
  480SOL     OW 1917   2.012   2.447   1.334  0.1646 -0.6758  0.5071
  480SOL    HW1 1918   2.002   2.351   1.333 -0.2411  0.4825 -2.3421
  480SOL    HW2 1919   2.040   2.464   1.242 -0.6539 -0.2527 -3.5552
  480SOL     MW 1920   2.014   2.437   1.322  0.0031 -0.4672 -0.4048
  481SOL     OW 1921   1.047   0.105   1.085 -0.1525  0.1381  0.0434
  481SOL    HW1 1922   1.101   0.051   1.029  1.5982  2.4623  0.1113
  481SOL    HW2 1923   1.107   0.175   1.108 -1.1619  0.4566 -0.7487
  481SOL     MW 1924   1.062   0.107   1.081 -0.0547  0.4868 -0.0521
  482SOL     OW 1925   1.084   0.006   0.275 -0.6264  0.5842 -0.1595
  482SOL    HW1 1926   1.008  -0.047   0.318 -0.9331 -0.1414 -0.2268
  482SOL    HW2 1927   1.083   0.097   0.310 -0.6119  2.8604  0.5427
  482SOL     MW 1928   1.074   0.011   0.286 -0.6650  0.7888 -0.0757
  483SOL     OW 1929   0.419   3.002   0.440  0.1640  0.0214  0.2502
  483SOL    HW1 1930   0.345   3.012   0.380 -0.9580 -0.4586 -2.1006
  483SOL    HW2 1931   0.386   3.034   0.521  0.3848  2.4223  1.3685
  483SOL     MW 1932   0.405   3.007   0.443  0.0451  0.2748  0.0876
  484SOL     OW 1933   1.859   1.967   1.492 -0.7726  0.8642 -0.6620
  484SOL    HW1 1934   1.905   2.044   1.460  1.7639 -2.6120  0.7095
  484SOL    HW2 1935   1.821   2.003   1.570 -1.4150  1.3739  0.2261
  484SOL     MW 1936   1.860   1.982   1.498 -0.5227  0.4728 -0.3639
  485SOL     OW 1937   0.575   2.388   0.242  0.1203  0.1601  0.4305
  485SOL    HW1 1938   0.583   2.411   0.330  1.7391 -0.3314 -1.9048
  485SOL    HW2 1939   0.477   2.386   0.225 -0.4464 -0.5572  0.6431
  485SOL     MW 1940   0.563   2.391   0.251  0.2591  0.0006  0.1504
  486SOL     OW 1941   0.188   2.423   1.492  0.2321 -0.1948 -0.1650
  486SOL    HW1 1942   0.246   2.500   1.479  0.1099  1.1109 -1.9096
  486SOL    HW2 1943   0.176   2.418   1.588  1.6266 -1.9983 -1.5651
  486SOL     MW 1944   0.194   2.432   1.503  0.4000 -0.2604 -0.5799
  487SOL     OW 1945   1.208   1.720   1.023  0.0044  0.0771 -0.5105
  487SOL    HW1 1946   1.177   1.808   1.056 -0.1883  3.0892  1.3500
  487SOL    HW2 1947   1.304   1.725   1.036 -0.0626  2.3801  2.9941
  487SOL     MW 1948   1.217   1.732   1.029 -0.0298  0.7784  0.1974
  488SOL     OW 1949   1.601   1.813   0.552 -0.4508 -0.1218 -0.1286
  488SOL    HW1 1950   1.691   1.823   0.518  1.6217  0.1015  2.0095
  488SOL    HW2 1951   1.562   1.901   0.523 -2.3304 -0.9080 -0.5889
  488SOL     MW 1952   1.607   1.826   0.543 -0.4254 -0.1961  0.0928
  489SOL     OW 1953   0.795   0.829   0.605  0.1572  0.0658  0.1252
  489SOL    HW1 1954   0.781   0.750   0.547 -0.2516  0.9253 -0.3129
  489SOL    HW2 1955   0.800   0.789   0.691 -0.7340 -1.6021 -0.2869
  489SOL     MW 1956   0.794   0.813   0.609 -0.0143 -0.0408  0.0131
  490SOL     OW 1957   1.479   2.047   0.514 -0.1788 -0.6215  0.2889
  490SOL    HW1 1958   1.482   2.127   0.456 -0.4849  0.7484 -1.8016
  490SOL    HW2 1959   1.385   2.024   0.510  1.7786  1.6642  0.2885
  490SOL     MW 1960   1.467   2.055   0.506  0.0391 -0.1392  0.0130
  491SOL     OW 1961   1.273   2.961   0.430 -0.5790  0.1080 -0.0205
  491SOL    HW1 1962   1.358   3.017   0.421  2.4327  1.3037 -1.5395
  491SOL    HW2 1963   1.205   3.018   0.397 -1.2836 -1.3604  0.6993
  491SOL     MW 1964   1.275   2.976   0.424 -0.2746  0.0720 -0.1260
  492SOL     OW 1965   1.534   2.217   0.744  0.0948  0.6642  0.5675
  492SOL    HW1 1966   1.507   2.158   0.677 -0.0620  0.5422  1.8228
  492SOL    HW2 1967   1.522   2.173   0.823  0.9621  0.7925 -1.1167
  492SOL     MW 1968   1.529   2.204   0.745  0.1886  0.6651  0.5109
  493SOL     OW 1969   0.173   2.997   0.313  0.6402 -0.1607 -0.2495
  493SOL    HW1 1970   0.128   3.047   0.385 -0.7925  1.1589 -2.2833
  493SOL    HW2 1971   0.169   3.053   0.242 -1.4459 -0.6832 -0.7311
  493SOL     MW 1972   0.167   3.011   0.313  0.1759 -0.0555 -0.5814
  494SOL     OW 1973   0.405   2.457   1.755  0.0612  0.4000 -0.0014
  494SOL    HW1 1974   0.479   2.401   1.780 -2.2674 -0.7999 -0.2767
  494SOL    HW2 1975   0.432   2.476   1.665  1.1038  0.1476  1.2248
  494SOL     MW 1976   0.419   2.452   1.746 -0.1085  0.2084  0.1241
  495SOL     OW 1977   2.838   1.724   2.583  0.2177  0.6283 -0.3398
  495SOL    HW1 1978   2.795   1.813   2.583 -1.3029  3.1033  0.2225
  495SOL    HW2 1979   2.815   1.692   2.679  1.3031  1.9885  0.2772
  495SOL     MW 1980   2.829   1.731   2.595  0.1603  1.1343 -0.1842
  496SOL     OW 1981   2.937   2.369   2.674 -0.0300 -0.1549 -0.1853
  496SOL    HW1 1982   2.987   2.325   2.745  0.5916 -0.2449 -3.4004
  496SOL    HW2 1983   2.992   2.439   2.640 -1.5071  2.8202  2.2717
  496SOL     MW 1984   2.951   2.372   2.679 -0.1429  0.2257 -0.2853
  497SOL     OW 1985   1.583   2.197   2.622 -0.5178  0.0026  0.3626
  497SOL    HW1 1986   1.523   2.125   2.599 -1.4007 -1.6580  0.8705
  497SOL    HW2 1987   1.625   2.173   2.707  1.7448 -2.0576 -1.1252
  497SOL     MW 1988   1.580   2.184   2.630 -0.3358 -0.4883  0.2333
  498SOL     OW 1989   1.472   2.687   2.380  0.5657  0.2760  0.3719
  498SOL    HW1 1990   1.433   2.599   2.374 -1.2892  0.3969  0.7280
  498SOL    HW2 1991   1.563   2.680   2.386  0.3267 -1.1074 -0.4461
  498SOL     MW 1992   1.479   2.675   2.380  0.2894  0.1094  0.3109
  499SOL     OW 1993   1.011   0.163   3.051 -0.0322  0.3545 -0.2494
  499SOL    HW1 1994   0.949   0.170   3.117  1.3353 -1.6263 -2.2384
  499SOL    HW2 1995   1.082   0.105   3.086 -2.5273 -1.3644 -4.2370
  499SOL     MW 1996   1.012   0.156   3.064 -0.1810 -0.1336 -1.0380
  500SOL     OW 1997   1.079   2.488   2.744 -1.1171  0.0932 -0.1231
  500SOL    HW1 1998   1.156   2.492   2.802  0.4093  0.5416  0.0590
  500SOL    HW2 1999   1.007   2.468   2.801 -1.5163  1.5044 -1.3816
  500SOL     MW 2000   1.080   2.486   2.759 -0.9684  0.3386 -0.2651
  501SOL     OW 2001   1.790   2.195   3.080 -0.1942  0.2745 -0.0374
  501SOL    HW1 2002   1.759   2.282   3.099 -2.3381 -1.0105 -1.1956
  501SOL    HW2 2003   1.881   2.188   3.114 -2.1981 -0.0525  1.5462
  501SOL     MW 2004   1.798   2.205   3.087 -0.7414  0.0618  0.0187
  502SOL     OW 2005   0.152   2.807   3.069 -0.0815 -0.4915 -0.5165
  502SOL    HW1 2006   0.099   2.765   3.003  1.1720  2.8654 -0.3697
  502SOL    HW2 2007   0.198   2.882   3.017 -1.7780  0.5379 -0.7804
  502SOL     MW 2008   0.151   2.811   3.054 -0.1400  0.0872 -0.5319
  503SOL     OW 2009   0.989   2.858   2.164 -0.6016  0.1887 -0.1125
  503SOL    HW1 2010   0.932   2.822   2.097  0.6735  1.9035  2.5692
  503SOL    HW2 2011   0.976   2.948   2.140  0.3670 -3.6286  0.7877
  503SOL     MW 2012   0.980   2.865   2.152 -0.3056 -0.0887  0.3601
  504SOL     OW 2013   0.040   2.729   2.142 -0.1019  1.0074  0.2499
  504SOL    HW1 2014   0.050   2.650   2.092  1.1083 -1.3891  2.3036
  504SOL    HW2 2015   0.065   2.711   2.233  1.3699 -1.6977  2.5720
  504SOL     MW 2016   0.045   2.716   2.147  0.2520  0.3343  0.8273
  505SOL     OW 2017   1.702   2.707   2.671  0.2571  0.8176 -0.4273
  505SOL    HW1 2018   1.699   2.667   2.584  0.6353  0.4930  2.1295
  505SOL    HW2 2019   1.617   2.697   2.719 -0.6510 -1.8906 -0.5245
  505SOL     MW 2020   1.690   2.700   2.666  0.1872  0.4175 -0.1028
  506SOL     OW 2021   1.605   3.016   2.813  0.2667  0.2247 -0.1992
  506SOL    HW1 2022   1.660   2.997   2.892  0.9325 -0.9606 -0.4968
  506SOL    HW2 2023   1.661   3.010   2.733 -0.6688  1.1691 -0.0812
  506SOL     MW 2024   1.620   3.013   2.813  0.2311  0.1929 -0.2229
  507SOL     OW 2025   0.846   2.740   2.853  0.0290  0.2156  0.0126
  507SOL    HW1 2026   0.868   2.803   2.788 -0.9640 -2.6718  3.8571
  507SOL    HW2 2027   0.770   2.790   2.878  1.3018 -0.6431  0.4415
  507SOL     MW 2028   0.839   2.755   2.848  0.0659 -0.2787  0.5764
  508SOL     OW 2029   1.130   2.047   2.531 -0.1768  0.0557  0.3032
  508SOL    HW1 2030   1.213   2.034   2.580 -1.0911 -3.3522 -0.0918
  508SOL    HW2 2031   1.105   2.134   2.563  0.4962 -1.1195  0.7537
  508SOL     MW 2032   1.137   2.057   2.541 -0.2086 -0.5490  0.3105
  509SOL     OW 2033   0.616   2.556   2.934 -0.2903  0.0038  0.4511
  509SOL    HW1 2034   0.602   2.589   2.846  3.5632  0.1698  2.8980
  509SOL    HW2 2035   0.530   2.546   2.969 -0.0967 -2.2117 -1.5414
  509SOL     MW 2036   0.603   2.559   2.927  0.2437 -0.2666  0.5111
  510SOL     OW 2037   1.524   2.560   1.717 -0.4473  0.1561  0.7451
  510SOL    HW1 2038   1.548   2.646   1.696 -1.2959  0.6961 -0.2083
  510SOL    HW2 2039   1.483   2.565   1.801 -0.1078 -0.8256 -0.7717
  510SOL     MW 2040   1.521   2.572   1.725 -0.5145  0.0978  0.4192
  511SOL     OW 2041   0.398   2.607   2.427 -0.4313  0.2667  0.1083
  511SOL    HW1 2042   0.455   2.553   2.489 -3.7241  1.2357  0.7804
  511SOL    HW2 2043   0.445   2.633   2.342  0.7108 -1.4809 -2.6924
  511SOL     MW 2044   0.412   2.603   2.424 -0.7151  0.1639 -0.1726
  512SOL     OW 2045   1.011   1.975   2.820 -0.0073 -0.0304 -0.1887
  512SOL    HW1 2046   0.927   2.001   2.855 -0.4379  0.9027 -0.0889
  512SOL    HW2 2047   1.036   1.888   2.852  0.0143  0.8816  1.6509
  512SOL     MW 2048   1.003   1.967   2.829 -0.0613  0.2130  0.0672
  513SOL     OW 2049   1.445   2.404   2.394 -0.5050 -0.2796  0.0853
  513SOL    HW1 2050   1.538   2.407   2.405  0.1603  1.0776 -3.3728
  513SOL    HW2 2051   1.429   2.310   2.388  1.8750 -0.5251  1.5707
  513SOL     MW 2052   1.456   2.392   2.395 -0.1032 -0.1330 -0.1750
  514SOL     OW 2053   0.244   2.448   2.622 -0.0647 -0.3409 -0.2205
  514SOL    HW1 2054   0.288   2.504   2.563 -0.4032 -0.8889 -0.1589
  514SOL    HW2 2055   0.268   2.473   2.716 -0.0300  0.9171 -1.1300
  514SOL     MW 2056   0.253   2.459   2.627 -0.1048 -0.2472 -0.3324
  515SOL     OW 2057   1.082   2.042   1.959  0.6874 -0.2557  0.3968
  515SOL    HW1 2058   1.019   2.117   1.943  1.0969 -3.2604  0.9592
  515SOL    HW2 2059   1.115   2.048   2.044 -0.3789 -0.1560  0.6540
  515SOL     MW 2060   1.078   2.052   1.968  0.6007 -0.6390  0.5049
  516SOL     OW 2061   1.468   2.517   3.078  0.3898  0.1609  0.2357
  516SOL    HW1 2062   1.500   2.523   2.983  0.0202  2.0958 -0.6901
  516SOL    HW2 2063   1.374   2.495   3.069 -2.4217  0.9061 -2.8223
  516SOL     MW 2064   1.460   2.515   3.065 -0.0299  0.5145 -0.2900
  517SOL     OW 2065   0.602   2.400   2.144  0.0601  0.4003 -0.2626
  517SOL    HW1 2066   0.573   2.487   2.163  1.4424 -1.0227 -1.8212
  517SOL    HW2 2067   0.535   2.346   2.115  0.5594  0.8740  0.9413
  517SOL     MW 2068   0.589   2.404   2.143  0.3084  0.2751 -0.3094
  518SOL     OW 2069   1.900   0.100   2.937  0.0318 -0.5553  0.4802
  518SOL    HW1 2070   1.859   0.165   2.878 -1.0275 -1.1259  2.0350
  518SOL    HW2 2071   1.842   0.103   3.014 -2.1453 -0.4035 -0.6433
  518SOL     MW 2072   1.887   0.109   2.939 -0.3952 -0.6105  0.5371
  519SOL     OW 2073   0.737   2.575   1.752  0.4106  0.1721  0.2188
  519SOL    HW1 2074   0.730   2.489   1.785  1.3213 -2.5505 -0.6483
  519SOL    HW2 2075   0.660   2.620   1.786  0.5298  0.6670 -0.2315
  519SOL     MW 2076   0.726   2.570   1.761  0.5465 -0.1218  0.0450
  520SOL     OW 2077   1.261   2.110   2.947 -0.5437  0.0480 -0.4266
  520SOL    HW1 2078   1.192   2.048   2.930  0.2811 -0.0893 -2.1180
  520SOL    HW2 2079   1.316   2.070   3.015 -2.3627  0.6193 -1.3413
  520SOL     MW 2080   1.259   2.097   2.954 -0.6749  0.1053 -0.7704
  521SOL     OW 2081   1.733   2.039   2.246 -0.0011 -0.2280 -0.3331
  521SOL    HW1 2082   1.742   2.066   2.155 -3.0988  0.4710 -0.1475
  521SOL    HW2 2083   1.745   1.944   2.257 -2.7909 -1.4831 -0.8298
  521SOL     MW 2084   1.736   2.030   2.236 -0.7779 -0.3014 -0.3742
  522SOL     OW 2085   2.832   2.547   2.184  0.1170 -0.3226 -0.3802
  522SOL    HW1 2086   2.903   2.500   2.222 -1.9923  1.4271 -1.0965
  522SOL    HW2 2087   2.797   2.606   2.248 -0.4812 -2.7600 -0.7209
  522SOL     MW 2088   2.837   2.549   2.198 -0.2402 -0.4133 -0.5197
  523SOL     OW 2089   0.859   1.491   2.114  0.2565 -0.0813  0.0409
  523SOL    HW1 2090   0.866   1.570   2.057 -2.2071 -2.2148 -1.6239
  523SOL    HW2 2091   0.938   1.442   2.079 -0.1336 -1.1481 -0.6777
  523SOL     MW 2092   0.871   1.495   2.102 -0.1200 -0.5035 -0.2736
  524SOL     OW 2093   0.891   2.466   2.947 -0.2019  0.2467  0.3279
  524SOL    HW1 2094   0.822   2.534   2.940 -0.8090  2.5036 -2.0260
  524SOL    HW2 2095   0.855   2.379   2.933  0.0308  0.4813  0.2262
  524SOL     MW 2096   0.877   2.464   2.945 -0.2513  0.5754  0.0039
  525SOL     OW 2097   0.348   2.259   2.072  0.0372  0.1048  0.2356
  525SOL    HW1 2098   0.328   2.205   2.157 -1.0890 -2.4869 -0.9296
  525SOL    HW2 2099   0.355   2.191   1.997 -0.8112  0.9941 -0.7153
  525SOL     MW 2100   0.346   2.243   2.073 -0.2233 -0.1198 -0.0436
  526SOL     OW 2101   0.651   2.084   2.014 -0.6576 -0.3226  0.9336
  526SOL    HW1 2102   0.635   2.141   1.937 -1.3235 -0.5345  2.6640
  526SOL    HW2 2103   0.601   2.128   2.080  0.1033 -2.0157 -1.7971
  526SOL     MW 2104   0.642   2.098   2.013 -0.6451 -0.5739  0.8016
  527SOL     OW 2105   1.352   1.971   2.042  0.3022 -0.3599  0.0873
  527SOL    HW1 2106   1.339   1.913   2.113  0.3114 -0.3027 -0.5853
  527SOL    HW2 2107   1.393   1.906   1.984  0.1403 -0.6428 -1.1704
  527SOL     MW 2108   1.356   1.954   2.044  0.2821 -0.3897 -0.1674
  528SOL     OW 2109   0.658   2.915   2.925 -0.2183  0.4955  0.2377
  528SOL    HW1 2110   0.697   3.001   2.922 -0.9310 -0.2635  2.7470
  528SOL    HW2 2111   0.596   2.910   2.854 -0.2345  2.7421 -1.2843
  528SOL     MW 2112   0.655   2.926   2.915 -0.3144  0.6918  0.3680
  529SOL     OW 2113   0.928   2.270   1.912  0.8308 -0.3395  0.8856
  529SOL    HW1 2114   0.955   2.310   1.993 -1.3929  2.2179  1.0274
  529SOL    HW2 2115   0.994   2.297   1.844 -2.4303 -0.1084  0.6027
  529SOL     MW 2116   0.941   2.279   1.914  0.1071  0.0284  0.8670
  530SOL     OW 2117   1.211   2.419   2.986  0.1433 -0.3689  0.2113
  530SOL    HW1 2118   1.139   2.456   3.049  1.5251  1.1454 -0.7543
  530SOL    HW2 2119   1.210   2.323   2.979 -0.1646  1.1332 -0.9441
  530SOL     MW 2120   1.201   2.412   2.993  0.2850  0.0291 -0.0685
  531SOL     OW 2121   0.935   1.856   2.571 -0.5175 -0.2202 -0.0055
  531SOL    HW1 2122   0.997   1.926   2.576  1.8308 -0.0110 -2.0284
  531SOL    HW2 2123   0.898   1.852   2.668 -3.7497  0.8204 -2.3271
  531SOL     MW 2124   0.938   1.865   2.585 -0.6341 -0.0553 -0.5787
  532SOL     OW 2125   1.778   0.290   2.769  0.6747 -0.5543 -0.0832
  532SOL    HW1 2126   1.716   0.263   2.705  0.9585 -1.5939 -1.1505
  532SOL    HW2 2127   1.867   0.288   2.724  1.7757 -0.3732 -1.7072
  532SOL     MW 2128   1.782   0.286   2.755  0.8574 -0.6676 -0.4383
  533SOL     OW 2129   1.873   2.646   3.069  0.9848 -0.6031  0.1417
  533SOL    HW1 2130   1.829   2.576   3.118  0.0227 -1.6042  1.0689
  533SOL    HW2 2131   1.809   2.708   3.061  0.2584 -2.1629  3.1994
  533SOL     MW 2132   1.859   2.645   3.074  0.7620 -0.9410  0.6675
  534SOL     OW 2133   1.740   2.389   2.481 -0.2322 -0.2716 -0.2032
  534SOL    HW1 2134   1.707   2.308   2.530 -1.6915  0.5340  1.5885
  534SOL    HW2 2135   1.832   2.400   2.515  1.9838 -0.4944 -0.3639
  534SOL     MW 2136   1.747   2.380   2.492 -0.1323 -0.1947  0.0120
  535SOL     OW 2137   1.882   2.404   1.903  0.3007  0.4320 -0.4582
  535SOL    HW1 2138   1.831   2.403   1.822 -0.2467  1.1738 -1.7348
  535SOL    HW2 2139   1.968   2.392   1.862 -0.5389 -0.5962 -1.3115
  535SOL     MW 2140   1.887   2.402   1.887  0.1177  0.3942 -0.7392
  536SOL     OW 2141   0.543   1.849   2.090 -0.2986  0.9654 -0.1511
  536SOL    HW1 2142   0.502   1.808   2.011 -0.3579  1.6506  0.7347
  536SOL    HW2 2143   0.599   1.924   2.064  1.0184 -2.7745  2.6446
  536SOL     MW 2144   0.545   1.853   2.076 -0.1327  0.5624  0.3346
  537SOL     OW 2145   1.086   0.221   2.775 -0.1450  0.3835  0.4179
  537SOL    HW1 2146   1.037   0.232   2.860  0.9538  2.3229  0.5900
  537SOL    HW2 2147   1.057   0.298   2.719 -0.2868  1.8788 -0.5750
  537SOL     MW 2148   1.076   0.233   2.778 -0.0187  0.8366  0.3096
  538SOL     OW 2149   1.454   0.063   0.040 -0.5174  0.2123 -0.0457
  538SOL    HW1 2150   1.421   0.150   0.062 -1.9692  0.2188  2.7618
  538SOL    HW2 2151   1.385   0.007   0.061  0.1432 -0.3850 -0.2313
  538SOL     MW 2152   1.441   0.067   0.046 -0.6218  0.1343  0.3002
  539SOL     OW 2153   0.689   2.799   2.561 -0.1807 -0.1878  0.1788
  539SOL    HW1 2154   0.765   2.845   2.595 -1.0423  1.8357 -1.4377
  539SOL    HW2 2155   0.691   2.705   2.568 -1.5490 -1.5151  0.6437
  539SOL     MW 2156   0.700   2.793   2.566 -0.4749 -0.0959  0.0269
  540SOL     OW 2157   0.250   2.475   2.904 -0.0167  0.0919  0.1099
  540SOL    HW1 2158   0.238   2.535   2.982 -2.3547  3.0406 -0.2196
  540SOL    HW2 2159   0.218   2.387   2.941  0.1534 -0.2561  0.6387
  540SOL     MW 2160   0.244   2.471   2.919 -0.3028  0.4350  0.1362
  541SOL     OW 2161   0.218   2.935   2.118  0.0995 -0.3127 -0.0530
  541SOL    HW1 2162   0.149   2.868   2.103 -0.4331  1.7682  1.5426
  541SOL    HW2 2163   0.258   2.915   2.202  1.8194  0.2244  2.0614
  541SOL     MW 2164   0.214   2.923   2.127  0.2561  0.0327  0.4365
  542SOL     OW 2165   0.990   2.263   2.639  0.2281 -0.1167 -0.9633
  542SOL    HW1 2166   0.944   2.224   2.716 -1.3400 -0.8182 -1.9832
  542SOL    HW2 2167   1.044   2.341   2.678 -1.3203  1.4637 -0.7418
  542SOL     MW 2168   0.991   2.268   2.654 -0.1831 -0.0007 -1.0686
  543SOL     OW 2169   1.636   2.451   2.800 -0.2868 -0.1503  0.0047
  543SOL    HW1 2170   1.588   2.407   2.726 -2.4469 -2.2920 -1.1636
  543SOL    HW2 2171   1.683   2.515   2.746 -0.8866 -1.1381 -0.0028
  543SOL     MW 2172   1.636   2.454   2.783 -0.6509 -0.5632 -0.1504
  544SOL     OW 2173   0.726   0.242   2.694 -0.5961  0.7147 -0.1964
  544SOL    HW1 2174   0.633   0.214   2.710 -1.0169  2.8993  0.6404
  544SOL    HW2 2175   0.761   0.208   2.610  0.1273  0.8245  0.9568
  544SOL     MW 2176   0.718   0.234   2.685 -0.5562  1.0174  0.0661
  545SOL     OW 2177   1.488   2.122   2.319 -0.0583  0.1895  0.2266
  545SOL    HW1 2178   1.471   2.176   2.243  1.4373  0.4500 -1.2857
  545SOL    HW2 2179   1.586   2.088   2.312  0.4787 -2.1950 -0.3981
  545SOL     MW 2180   1.499   2.125   2.308  0.2099 -0.0908 -0.0553
  546SOL     OW 2181   2.862   1.976   0.091  0.5585 -0.2737  0.0631
  546SOL    HW1 2182   2.882   2.062   0.055 -3.0709 -0.4818 -0.0407
  546SOL    HW2 2183   2.954   1.942   0.104 -2.1403  0.0423  1.9980
  546SOL     MW 2184   2.876   1.983   0.088 -0.2764 -0.2595  0.3047
  547SOL     OW 2185   0.225   0.053   0.085  0.2097  0.1973 -0.1379
  547SOL    HW1 2186   0.303   0.050   0.035 -1.9361 -0.0265  0.6069
  547SOL    HW2 2187   0.149   0.015   0.034 -2.1136 -0.2364 -0.2879
  547SOL     MW 2188   0.225   0.048   0.072 -0.3800  0.1105 -0.0594
  548SOL     OW 2189   0.314   2.449   0.209 -0.2214  0.9383 -0.2513
  548SOL    HW1 2190   0.311   2.516   0.139  1.7513 -0.3130 -1.8317
  548SOL    HW2 2191   0.230   2.397   0.197  2.1533  1.6928  1.7925
  548SOL     MW 2192   0.302   2.451   0.198  0.3522  0.8728 -0.1902
  549SOL     OW 2193   0.873   1.924   2.136 -0.4281 -0.4145 -0.6938
  549SOL    HW1 2194   0.819   1.989   2.086  1.9280 -0.7837 -0.5727
  549SOL    HW2 2195   0.830   1.916   2.231 -0.2077 -0.1708  3.1421
  549SOL     MW 2196   0.860   1.931   2.142 -0.0882 -0.4310 -0.1717
  550SOL     OW 2197   1.906   1.748   2.514  0.4106 -0.5932  0.1129
  550SOL    HW1 2198   1.837   1.751   2.443  1.2116 -0.5659 -0.8644
  550SOL    HW2 2199   1.883   1.812   2.587  0.5999 -1.6944 -0.3878
  550SOL     MW 2200   1.894   1.757   2.514  0.5412 -0.7349 -0.0821
  551SOL     OW 2201   0.888   2.215   0.256  0.5571 -0.0644 -0.1753
  551SOL    HW1 2202   0.984   2.215   0.246 -2.5909  1.8237 -3.3292
  551SOL    HW2 2203   0.865   2.184   0.173  2.0926  0.3131  2.0349
  551SOL     MW 2204   0.898   2.211   0.244  0.3443  0.2346 -0.2998
  552SOL     OW 2205   1.750   1.780   2.283 -0.1588 -0.3619 -0.5374
  552SOL    HW1 2206   1.663   1.736   2.286 -4.4102 -3.4217  0.2813
  552SOL    HW2 2207   1.801   1.749   2.203 -2.9467 -2.7225 -1.9680
  552SOL     MW 2208   1.745   1.770   2.273 -1.0876 -1.0771 -0.6182
  553SOL     OW 2209   1.203   2.306   1.546  0.3790 -0.1861 -0.0403
  553SOL    HW1 2210   1.249   2.216   1.541 -0.4987 -0.8057 -1.7860
  553SOL    HW2 2211   1.268   2.364   1.507  0.5730  1.4538 -0.6800
  553SOL     MW 2212   1.217   2.301   1.540  0.2888 -0.0515 -0.3550
  554SOL     OW 2213   0.483   2.906   2.723  0.4100  0.1211 -0.0102
  554SOL    HW1 2214   0.450   2.972   2.659 -1.1423 -0.8028  2.5524
  554SOL    HW2 2215   0.568   2.883   2.684  0.5628 -0.3475 -0.4847
  554SOL     MW 2216   0.490   2.912   2.709  0.2253 -0.0626  0.2653
  555SOL     OW 2217   0.574   2.483   2.594  0.2889  0.3185  0.6428
  555SOL    HW1 2218   0.549   2.404   2.647 -4.1693  0.1704 -0.7310
  555SOL    HW2 2219   0.645   2.456   2.529 -0.7810 -0.4214  1.0468
  555SOL     MW 2220   0.580   2.469   2.593 -0.4405  0.2014  0.5149
  556SOL     OW 2221   1.055   1.900   0.048  0.6397 -0.6555 -0.0124
  556SOL    HW1 2222   1.065   1.845  -0.029  0.4933 -0.9872 -0.8300
  556SOL    HW2 2223   1.130   1.889   0.102  0.2297 -0.4828  0.5016
  556SOL     MW 2224   1.066   1.891   0.045  0.5663 -0.6765 -0.0525
  557SOL     OW 2225   1.030   2.717   0.532  0.1566  0.2353  0.5523
  557SOL    HW1 2226   1.060   2.662   0.452  3.1310  1.5454 -0.1369
  557SOL    HW2 2227   0.995   2.798   0.490  2.6598  0.4912 -1.4443
  557SOL     MW 2228   1.029   2.721   0.516  0.8793  0.4419  0.1980
  558SOL     OW 2229   0.181   2.226   3.040  0.4978 -0.2794  0.6551
  558SOL    HW1 2230   0.115   2.193   2.981  0.7427  1.4017 -1.8201
  558SOL    HW2 2231   0.137   2.254   3.116  0.5462 -2.8530  0.3465
  558SOL     MW 2232   0.167   2.226   3.042  0.5365 -0.3972  0.2878
  559SOL     OW 2233   1.058   2.354   2.137  0.4196  0.1444  0.1924
  559SOL    HW1 2234   1.148   2.377   2.128 -1.2186 -0.8430 -1.6585
  559SOL    HW2 2235   1.054   2.262   2.173  0.3874  0.3743  1.9375
  559SOL     MW 2236   1.069   2.345   2.141  0.1992  0.0444  0.1785
  560SOL     OW 2237   2.086   2.679   0.146  0.6783 -0.4069  0.4139
  560SOL    HW1 2238   2.130   2.749   0.095  3.8443  0.2365  0.9587
  560SOL    HW2 2239   2.006   2.652   0.099  0.8308  0.6900 -0.4283
  560SOL     MW 2240   2.081   2.684   0.133  1.1162 -0.1773  0.3746
  561SOL     OW 2241   0.499   2.161   0.106  0.4134  0.6490  0.2246
  561SOL    HW1 2242   0.485   2.169   0.011 -1.6056  1.8356  1.7426
  561SOL    HW2 2243   0.538   2.249   0.125 -2.0251 -0.9663  0.9656
  561SOL     MW 2244   0.502   2.174   0.096 -0.1747  0.5924  0.5226
  562SOL     OW 2245   0.682   2.233   2.337  0.1760  0.4302  0.6043
  562SOL    HW1 2246   0.636   2.295   2.281 -1.7637 -0.2008  1.2737
  562SOL    HW2 2247   0.771   2.248   2.349  0.8487  0.7054  2.5940
  562SOL     MW 2248   0.688   2.243   2.331  0.0088  0.3832  0.9551
  563SOL     OW 2249   1.239   0.379   0.555  0.0099 -0.0925 -0.0700
  563SOL    HW1 2250   1.179   0.339   0.487  2.0377  0.3399 -3.4448
  563SOL    HW2 2251   1.237   0.324   0.644  0.5934 -3.6161  4.2490
  563SOL     MW 2252   1.231   0.366   0.558  0.3544 -0.5004  0.0546
  564SOL     OW 2253   1.028   2.632   2.359 -0.1981  0.4346  0.0548
  564SOL    HW1 2254   1.040   2.687   2.284 -0.5010 -0.3491 -3.1049
  564SOL    HW2 2255   1.064   2.671   2.441  0.6990  0.6712 -0.6397
  564SOL     MW 2256   1.034   2.645   2.360 -0.1197  0.3624 -0.4537
  565SOL     OW 2257   2.765   2.846   2.541 -0.0260  0.1119  0.0661
  565SOL    HW1 2258   2.722   2.918   2.496  0.6741  0.9294  0.8153
  565SOL    HW2 2259   2.766   2.762   2.486 -0.7986 -1.3099 -0.5680
  565SOL     MW 2260   2.759   2.844   2.528 -0.0356  0.0322  0.0813
  566SOL     OW 2261   2.186   1.957   2.351  0.3708  0.1402  0.0300
  566SOL    HW1 2262   2.178   1.903   2.272 -0.3490 -0.5286  3.5684
  566SOL    HW2 2263   2.255   2.018   2.320 -0.8790 -0.7527  0.2523
  566SOL     MW 2264   2.194   1.958   2.337  0.1110 -0.0658  0.5262
  567SOL     OW 2265   1.210   3.012   0.043 -0.2770  0.0687  0.5597
  567SOL    HW1 2266   1.173   3.013   0.134 -0.4980 -1.2127 -0.3901
  567SOL    HW2 2267   1.235   2.917   0.023 -1.7006 -2.6755 -1.3258
  567SOL     MW 2268   1.208   3.000   0.053 -0.4940 -0.4624  0.1856
  568SOL     OW 2269   1.667   2.058   2.880 -0.3848 -0.1767 -0.7445
  568SOL    HW1 2270   1.721   2.110   2.950 -0.4484 -0.8871  1.1479
  568SOL    HW2 2271   1.738   1.999   2.843  1.4920  0.7701 -0.3459
  568SOL     MW 2272   1.683   2.057   2.885 -0.1456 -0.1455 -0.4422
  569SOL     OW 2273   0.124   2.275   2.447  0.1109 -0.5822 -0.6041
  569SOL    HW1 2274   0.072   2.329   2.385 -0.5214  1.1790  2.4222
  569SOL    HW2 2275   0.163   2.331   2.516 -1.5793 -3.9114 -0.3584
  569SOL     MW 2276   0.123   2.290   2.448 -0.1956 -0.7891 -0.1724
  570SOL     OW 2277   1.494   0.341   0.502 -0.5442  0.2771 -0.1352
  570SOL    HW1 2278   1.398   0.366   0.523 -3.5972  1.3128 -2.5796
  570SOL    HW2 2279   1.553   0.380   0.566 -1.3185 -2.2787 -1.0504
  570SOL     MW 2280   1.489   0.349   0.513 -1.0492  0.0766 -0.5784
  571SOL     OW 2281   1.342   2.382   2.137  0.0217 -0.0026  0.2431
  571SOL    HW1 2282   1.389   2.414   2.218 -0.1637 -0.6647  1.1328
  571SOL    HW2 2283   1.399   2.322   2.088 -1.6193  0.3348  0.8885
  571SOL     MW 2284   1.356   2.378   2.141 -0.2192 -0.0455  0.4456
  572SOL     OW 2285   1.067   2.567   0.073  0.3256 -0.6293  0.3942
  572SOL    HW1 2286   1.040   2.650   0.028 -0.9597  4.3977 -0.1800
  572SOL    HW2 2287   0.979   2.528   0.096  2.0996  0.9253  1.7533
  572SOL     MW 2288   1.051   2.573   0.070  0.3901  0.2391  0.4977
  573SOL     OW 2289   1.150   2.243   0.211  0.4984  0.1840  0.3337
  573SOL    HW1 2290   1.239   2.239   0.177 -0.8843 -0.4419 -0.3688
  573SOL    HW2 2291   1.154   2.336   0.243 -0.7340  1.2620 -0.8197
  573SOL     MW 2292   1.163   2.255   0.211  0.1534  0.2437  0.0888
  574SOL     OW 2293   1.134   2.505   0.322  0.0589 -0.4325 -0.2240
  574SOL    HW1 2294   1.211   2.557   0.317  0.9656  3.1120 -0.4708
  574SOL    HW2 2295   1.102   2.528   0.230 -0.7524 -1.0093  3.8647
  574SOL     MW 2296   1.140   2.515   0.309  0.0715 -0.0410  0.2829
  575SOL     OW 2297   3.065   2.178   1.640 -0.0490 -0.2338  0.0140
  575SOL    HW1 2298   3.092   2.089   1.612 -0.4264 -1.5475  2.6322
  575SOL    HW2 2299   3.141   2.211   1.687 -0.7955  4.0453 -0.0932
  575SOL     MW 2300   3.079   2.171   1.643 -0.1973  0.1574  0.3453
  576SOL     OW 2301   2.864   1.883   1.978  0.2775 -0.1764 -0.2766
  576SOL    HW1 2302   2.897   1.963   1.930  0.4134  0.4446  1.1826
  576SOL    HW2 2303   2.793   1.855   1.914 -1.9218 -0.7044 -3.1341
  576SOL     MW 2304   2.859   1.890   1.963  0.0052 -0.1642 -0.4611
  577SOL     OW 2305   2.122   0.198   0.005 -0.4451 -0.9495 -0.1428
  577SOL    HW1 2306   2.061   0.196  -0.067  0.2771 -0.1153 -2.4327
  577SOL    HW2 2307   2.082   0.142   0.076  2.8568  0.2032 -0.3568
  577SOL     MW 2308   2.109   0.190   0.005  0.0858 -0.6874 -0.4732
  578SOL     OW 2309   1.962   2.122   2.378  0.2804  0.6739  0.0144
  578SOL    HW1 2310   1.898   2.104   2.306  0.7242  1.0899 -0.4699
  578SOL    HW2 2311   2.043   2.069   2.372  0.1673 -0.0626  2.9375
  578SOL     MW 2312   1.964   2.112   2.367  0.3240  0.6316  0.3361
  579SOL     OW 2313   0.860   2.448   2.475 -0.3442  0.0787 -0.2243
  579SOL    HW1 2314   0.916   2.397   2.531  1.1694  0.7169 -2.6622
  579SOL    HW2 2315   0.908   2.510   2.416  1.1849 -1.0032 -0.4602
  579SOL     MW 2316   0.874   2.449   2.474  0.0572  0.0202 -0.5771
  580SOL     OW 2317   0.959   2.840   3.090  0.2877  0.5881 -0.5686
  580SOL    HW1 2318   1.032   2.902   3.090  0.8961  1.4659  0.0741
  580SOL    HW2 2319   0.938   2.808   3.003 -0.7809 -1.9183  1.0152
  580SOL     MW 2320   0.966   2.844   3.078  0.2270  0.3732 -0.2748
  581SOL     OW 2321   1.120   2.421   1.772 -0.2040  0.4026 -0.0709
  581SOL    HW1 2322   1.195   2.454   1.817  0.1691  2.4637 -1.7036
  581SOL    HW2 2323   1.158   2.376   1.694  1.8783  0.7302 -3.6900
  581SOL     MW 2324   1.135   2.419   1.767  0.1199  0.7178 -0.7639
  582SOL     OW 2325   3.099   2.904   2.671  0.0056  0.2089 -0.4497
  582SOL    HW1 2326   3.020   2.947   2.714  1.0089  1.5690 -1.7712
  582SOL    HW2 2327   3.173   2.932   2.727  0.5720  2.3834 -3.4549
  582SOL     MW 2328   3.098   2.914   2.684  0.2127  0.6753 -1.0205
  583SOL     OW 2329   1.970   2.382   2.620 -0.0481  0.1642 -0.4614
  583SOL    HW1 2330   2.066   2.403   2.615  0.4203 -1.0111  0.5519
  583SOL    HW2 2331   1.962   2.299   2.665  0.3223 -0.6120  0.3022
  583SOL     MW 2332   1.982   2.374   2.626  0.0626 -0.0933 -0.2269
  584SOL     OW 2333   0.142   1.897   2.200 -0.0226 -0.5363 -0.1634
  584SOL    HW1 2334   0.166   1.854   2.284  1.2665  2.3601 -1.4321
  584SOL    HW2 2335   0.199   1.972   2.195  0.8280 -1.1690  1.8795
  584SOL     MW 2336   0.152   1.902   2.210  0.2597 -0.2376 -0.0612
  585SOL     OW 2337   1.566   2.703   0.160 -0.0443  0.3521 -0.0549
  585SOL    HW1 2338   1.537   2.658   0.082 -0.4501 -0.1191  2.8433
  585SOL    HW2 2339   1.479   2.714   0.206  0.1110 -0.5356  2.9241
  585SOL     MW 2340   1.551   2.699   0.156 -0.0773  0.1728  0.7206
  586SOL     OW 2341   1.336   2.828   2.573 -0.0068 -0.9019  0.0156
  586SOL    HW1 2342   1.384   2.792   2.491  0.2167 -0.6467 -2.0478
  586SOL    HW2 2343   1.355   2.921   2.567  0.1582  3.0783 -0.1993
  586SOL     MW 2344   1.344   2.835   2.561  0.0445 -0.3431 -0.2850
  587SOL     OW 2345   1.353   1.461   2.167 -0.4876 -0.6959  0.1164
  587SOL    HW1 2346   1.324   1.385   2.211 -1.7413  0.4334 -0.7595
  587SOL    HW2 2347   1.324   1.453   2.080  3.8123  1.5299  0.6475
  587SOL     MW 2348   1.346   1.450   2.161 -0.0857 -0.2532  0.0709
  588SOL     OW 2349   1.365   1.997   2.674 -0.2380  0.4623  0.8245
  588SOL    HW1 2350   1.379   1.905   2.699 -0.0029 -2.1938 -0.8508
  588SOL    HW2 2351   1.336   2.046   2.749  1.0336 -0.2119  0.8844
  588SOL     MW 2352   1.363   1.991   2.687 -0.0392  0.0229  0.6113
  589SOL     OW 2353   1.420   2.022   0.055  0.1345 -0.0243 -0.2939
  589SOL    HW1 2354   1.432   2.119   0.086  0.9685  1.0141 -0.1755
  589SOL    HW2 2355   1.370   1.979   0.126 -1.3274  0.6006 -3.0535
  589SOL     MW 2356   1.415   2.029   0.068  0.0516  0.1952 -0.6424
  590SOL     OW 2357   0.537   2.658   2.185 -0.2222 -0.0291  0.0130
  590SOL    HW1 2358   0.531   2.689   2.098  2.7281 -1.1509 -0.9517
  590SOL    HW2 2359   0.598   2.717   2.232  1.7968 -0.3937  0.1333
  590SOL     MW 2360   0.544   2.670   2.180  0.4334 -0.2252 -0.0984
  591SOL     OW 2361   2.234   0.692   0.118  0.2804 -0.2039  0.3327
  591SOL    HW1 2362   2.153   0.692   0.173 -3.4485  0.5676  4.3915
  591SOL    HW2 2363   2.202   0.743   0.043  0.7837 -1.3522  1.0928
  591SOL     MW 2364   2.219   0.699   0.115 -0.1452 -0.2536  0.9685
  592SOL     OW 2365   1.676   2.944   0.826 -0.2602 -0.5148  0.1382
  592SOL    HW1 2366   1.676   3.039   0.834 -0.8628 -2.1451 -2.6030
  592SOL    HW2 2367   1.751   2.928   0.775 -1.1022  1.1579 -1.3178
  592SOL     MW 2368   1.686   2.954   0.820 -0.4508 -0.5092 -0.4156
  593SOL     OW 2369   1.956   0.701   0.796 -0.3543  0.5311 -0.1128
  593SOL    HW1 2370   1.873   0.696   0.737 -0.6931 -2.7755 -2.1131
  593SOL    HW2 2371   1.998   0.615   0.781 -0.8773 -0.6197 -1.2188
  593SOL     MW 2372   1.950   0.689   0.786 -0.4680 -0.0570 -0.5227
  594SOL     OW 2373   2.766   1.031   1.411  1.3453  0.2860  0.6917
  594SOL    HW1 2374   2.853   1.065   1.385  0.6312 -1.1784 -1.6318
  594SOL    HW2 2375   2.711   1.019   1.330  2.4821 -1.4647 -2.8467
  594SOL     MW 2376   2.770   1.034   1.397  1.4011 -0.1382 -0.0817
  595SOL     OW 2377   0.505   0.921   0.839  0.4019  0.2704 -0.2399
  595SOL    HW1 2378   0.482   0.984   0.773  0.2350 -0.7852 -0.9352
  595SOL    HW2 2379   0.533   0.963   0.915  0.1042  0.3957  1.3298
  595SOL     MW 2380   0.505   0.935   0.840  0.3406  0.1477 -0.1246
  596SOL     OW 2381   2.461   1.353   0.490  0.1422  0.5922  0.2302
  596SOL    HW1 2382   2.465   1.438   0.445 -1.2052 -0.5835 -0.4450
  596SOL    HW2 2383   2.516   1.357   0.567  1.2679 -0.3291 -0.2103
  596SOL     MW 2384   2.469   1.365   0.494  0.1130  0.3155  0.0830
  597SOL     OW 2385   2.238   0.622   1.559  1.1273  0.1607  0.4495
  597SOL    HW1 2386   2.286   0.576   1.625  1.1208  0.0189  0.3132
  597SOL    HW2 2387   2.173   0.561   1.517 -0.4289 -5.1642 -0.6572
  597SOL     MW 2388   2.236   0.608   1.562  0.9211 -0.5606  0.2855
  598SOL     OW 2389   2.601   1.044   2.897  0.0588 -0.0862  0.3751
  598SOL    HW1 2390   2.570   0.957   2.870  0.3739 -0.1429 -0.8753
  598SOL    HW2 2391   2.698   1.049   2.896 -1.5551 -2.6345 -0.8284
  598SOL     MW 2392   2.610   1.033   2.893 -0.1126 -0.4299  0.0514
  599SOL     OW 2393   3.083   0.419   2.259  0.1994  0.0011  0.3850
  599SOL    HW1 2394   3.098   0.443   2.350  0.6733  2.3795 -5.0134
  599SOL    HW2 2395   3.078   0.501   2.208 -1.9732  0.7555 -1.3876
  599SOL     MW 2396   3.084   0.433   2.265 -0.0247  0.4144 -0.5611
  600SOL     OW 2397   1.847   1.715   0.825 -0.0777  0.4445  0.0079
  600SOL    HW1 2398   1.881   1.752   0.904 -0.8936 -0.4747 -0.9808
  600SOL    HW2 2399   1.776   1.776   0.803  1.0000  1.7525  0.2499
  600SOL     MW 2400   1.842   1.728   0.833 -0.0432  0.4958 -0.0906
  601SOL     OW 2401   2.556   0.732   0.824 -0.0208  0.2441  0.3385
  601SOL    HW1 2402   2.534   0.702   0.911  2.5275  0.4045  0.1395
  601SOL    HW2 2403   2.496   0.678   0.764 -1.8308  0.6058 -2.9602
  601SOL     MW 2404   2.545   0.721   0.827  0.0766  0.3130 -0.1230
  602SOL     OW 2405   2.264   1.899   0.749 -0.2220 -0.0896 -0.0881
  602SOL    HW1 2406   2.199   1.828   0.710 -0.8540 -3.0909  0.5243
  602SOL    HW2 2407   2.211   1.981   0.749 -1.8417  0.9057  0.3691
  602SOL     MW 2408   2.248   1.900   0.744 -0.5191 -0.3543  0.0531
  603SOL     OW 2409   2.961   1.392   1.950  0.3811 -0.3940  0.1344
  603SOL    HW1 2410   2.934   1.416   2.040 -0.4776  0.7199  1.3874
  603SOL    HW2 2411   3.011   1.310   1.964 -0.0404  2.2095 -3.1591
  603SOL     MW 2412   2.964   1.384   1.964  0.2122  0.0965 -0.1348
  604SOL     OW 2413   2.020   1.377   0.389  0.2613 -0.3289  0.1041
  604SOL    HW1 2414   2.082   1.355   0.461 -0.0388  1.2069 -0.5515
  604SOL    HW2 2415   1.949   1.420   0.434  0.7697 -1.8670  2.8178
  604SOL     MW 2416   2.019   1.379   0.404  0.2888 -0.3292  0.3757
  605SOL     OW 2417   2.411   1.451   0.808  0.1871 -0.0361 -0.3947
  605SOL    HW1 2418   2.443   1.508   0.738  0.6320 -1.3760  0.5166
  605SOL    HW2 2419   2.453   1.368   0.792  0.6545 -0.8045  0.3916
  605SOL     MW 2420   2.421   1.448   0.796  0.3074 -0.3143 -0.1707
  606SOL     OW 2421   2.660   1.742   1.804  0.6089 -0.6094 -0.1062
  606SOL    HW1 2422   2.565   1.742   1.807 -0.7252  0.3023 -1.9473
  606SOL    HW2 2423   2.670   1.639   1.809 -1.4018 -1.5742  1.0657
  606SOL     MW 2424   2.649   1.729   1.805  0.1676 -0.6164 -0.1945
  607SOL     OW 2425   2.377   0.989   3.062  0.1757 -0.5766 -0.1036
  607SOL    HW1 2426   2.455   1.034   3.030 -0.2549  0.5414  1.6797
  607SOL    HW2 2427   2.404   0.992   3.158  0.4793 -0.8361  0.8993
  607SOL     MW 2428   2.391   0.995   3.070  0.1590 -0.4633  0.2640
  608SOL     OW 2429   1.863   0.233   0.530  0.6725  0.5871  0.3733
  608SOL    HW1 2430   1.846   0.259   0.444 -0.9131 -2.1024  1.9884
  608SOL    HW2 2431   1.836   0.136   0.531  1.6998 -1.8431 -3.1536
  608SOL     MW 2432   1.857   0.223   0.519  0.5988 -0.0884  0.1211
  609SOL     OW 2433   2.123   1.884   3.085 -0.2450 -0.3907 -0.1966
  609SOL    HW1 2434   2.050   1.838   3.041 -0.2139 -0.0341  2.2047
  609SOL    HW2 2435   2.093   1.871   3.176 -1.0665 -0.5362  0.9224
  609SOL     MW 2436   2.109   1.876   3.091 -0.3493 -0.3629  0.2678
  610SOL     OW 2437   1.843   0.918   1.197  0.1906 -0.4769  0.3758
  610SOL    HW1 2438   1.855   0.846   1.136 -1.0366 -0.6981  1.8816
  610SOL    HW2 2439   1.742   0.920   1.206 -0.0862  2.1271 -1.1301
  610SOL     MW 2440   1.831   0.909   1.190 -0.0078 -0.1625  0.3758
  611SOL     OW 2441   2.480   1.642   0.603 -0.0840  0.5205  0.4032
  611SOL    HW1 2442   2.555   1.626   0.539  1.3926 -0.4092  1.2685
  611SOL    HW2 2443   2.444   1.727   0.589 -1.8763 -3.2494  2.1844
  611SOL     MW 2444   2.485   1.651   0.592 -0.1257 -0.0995  0.7524
  612SOL     OW 2445   2.935   2.945   0.346 -0.7139 -0.4128 -0.2695
  612SOL    HW1 2446   2.930   2.973   0.434  1.3333 -0.3588  0.5061
  612SOL    HW2 2447   2.996   2.870   0.355  2.1806 -2.4901  0.4094
  612SOL     MW 2448   2.942   2.939   0.359 -0.0619 -0.6797 -0.0776
  613SOL     OW 2449   1.457   1.130   1.014 -0.5996 -0.4745 -0.2307
  613SOL    HW1 2450   1.481   1.220   1.020  1.5216 -1.4194  0.1561
  613SOL    HW2 2451   1.523   1.090   1.068  0.0611  0.9292 -0.3364
  613SOL     MW 2452   1.469   1.137   1.022 -0.2326 -0.4139 -0.1936
  614SOL     OW 2453   2.035   0.462   1.395  0.0426  0.1376 -0.5587
  614SOL    HW1 2454   2.019   0.419   1.475 -2.0069 -0.3637 -1.2986
  614SOL    HW2 2455   1.958   0.504   1.360 -0.3554 -0.4329 -0.2666
  614SOL     MW 2456   2.022   0.462   1.401 -0.2803 -0.0038 -0.6178
  615SOL     OW 2457   2.408   0.729   0.324  0.4244  0.7298  0.2071
  615SOL    HW1 2458   2.477   0.663   0.341  0.2366 -0.3288 -2.7987
  615SOL    HW2 2459   2.360   0.702   0.236 -2.9549 -0.4582 -0.5300
  615SOL     MW 2460   2.411   0.717   0.315 -0.0463  0.4334 -0.2867
  616SOL     OW 2461   2.560   0.425   1.605  0.2475  0.1989 -0.0302
  616SOL    HW1 2462   2.585   0.342   1.571  0.9195  1.7594  1.4255
  616SOL    HW2 2463   2.528   0.468   1.527 -0.0700 -3.0564 -1.4323
  616SOL     MW 2464   2.559   0.419   1.590  0.2943 -0.0247 -0.0231
  617SOL     OW 2465   2.858   0.544   1.873 -0.8525  0.0982  0.4345
  617SOL    HW1 2466   2.785   0.551   1.935 -0.1893 -1.7842 -0.1620
  617SOL    HW2 2467   2.857   0.458   1.839 -2.3133  2.3684 -1.5898
  617SOL     MW 2468   2.848   0.533   1.876 -0.9577  0.1493  0.0887
  618SOL     OW 2469   2.801   0.226   2.006 -0.1679  0.1171 -0.4535
  618SOL    HW1 2470   2.728   0.231   2.072 -2.9581 -2.2220  1.9148
  618SOL    HW2 2471   2.886   0.212   2.061  0.2209 -0.7434  2.0059
  618SOL     MW 2472   2.802   0.225   2.022 -0.4848 -0.3051  0.1834
  619SOL     OW 2473   2.712   0.702   0.100 -0.3218 -0.2239 -0.6329
  619SOL    HW1 2474   2.732   0.791   0.100 -1.3409 -1.5372  1.2875
  619SOL    HW2 2475   2.791   0.662   0.144  0.7732  1.0904  1.9112
  619SOL     MW 2476   2.725   0.708   0.105 -0.3118 -0.2238 -0.0439
  620SOL     OW 2477   2.212   1.047   0.951  0.3981 -0.5080  0.0047
  620SOL    HW1 2478   2.301   1.047   0.912  0.2094 -0.0716 -0.5543
  620SOL    HW2 2479   2.165   1.017   0.875 -0.7204  3.2164 -0.3163
  620SOL     MW 2480   2.218   1.043   0.936  0.2256  0.0409 -0.1114
  621SOL     OW 2481   1.507   2.211   2.005 -0.0344  0.3705  0.4414
  621SOL    HW1 2482   1.471   2.125   2.032  3.3989  0.9016 -2.4298
  621SOL    HW2 2483   1.603   2.190   2.004 -0.1852  1.7106 -1.9450
  621SOL     MW 2484   1.515   2.197   2.008  0.3987  0.6174 -0.2523
  622SOL     OW 2485   2.624   0.272   0.220  0.2331  0.1825 -0.4990
  622SOL    HW1 2486   2.709   0.318   0.243  1.0551  0.4119 -2.0844
  622SOL    HW2 2487   2.636   0.178   0.226  0.9658  2.4181 -0.9370
  622SOL     MW 2488   2.637   0.266   0.224  0.4382  0.5078 -0.7660
  623SOL     OW 2489   2.362   2.760   0.842 -0.3681  0.2138 -0.8197
  623SOL    HW1 2490   2.436   2.812   0.846 -0.4604 -0.5165 -0.3424
  623SOL    HW2 2491   2.313   2.781   0.930 -0.5104 -2.3226  0.0538
  623SOL     MW 2492   2.365   2.770   0.854 -0.3991 -0.2172 -0.6415
  624SOL     OW 2493   2.155   1.527   3.068 -0.0426 -0.0859 -0.0313
  624SOL    HW1 2494   2.090   1.461   3.050  3.1167  1.7651  0.5799
  624SOL    HW2 2495   2.109   1.601   3.039 -2.2640 -0.7586 -0.3320
  624SOL     MW 2496   2.140   1.528   3.062  0.0812  0.0696  0.0096
  625SOL     OW 2497   2.188   1.889   1.015  0.0766  0.4699  0.3424
  625SOL    HW1 2498   2.216   1.813   1.067 -1.8044  0.8582  1.6143
  625SOL    HW2 2499   2.200   1.868   0.921 -0.9753 -1.7798 -0.8591
  625SOL     MW 2500   2.193   1.876   1.010 -0.3104  0.2243  0.3517
  626SOL     OW 2501   0.189   1.825   2.468  0.5404  0.1781 -0.0135
  626SOL    HW1 2502   0.142   1.744   2.460  3.8994  1.5976 -0.6504
  626SOL    HW2 2503   0.127   1.894   2.451  0.1505  1.4539  0.2125
  626SOL     MW 2504   0.175   1.824   2.465  0.9321  0.5337 -0.0677
  627SOL     OW 2505   2.584   0.826   2.576  0.6217 -0.9945  0.2433
  627SOL    HW1 2506   2.507   0.863   2.622 -0.7068 -1.7589  3.2904
  627SOL    HW2 2507   2.547   0.784   2.498 -0.1494 -0.2321  0.1884
  627SOL     MW 2508   2.569   0.825   2.572  0.3447 -0.9948  0.6381
  628SOL     OW 2509   2.322   1.371   1.288  0.2091  0.7670  0.4765
  628SOL    HW1 2510   2.263   1.300   1.259  1.5633  1.8309  0.3337
  628SOL    HW2 2511   2.388   1.372   1.221  1.0396  4.0222  1.6313
  628SOL     MW 2512   2.323   1.362   1.275  0.4973  1.3369  0.6100
  629SOL     OW 2513   1.812   0.616   1.312  0.2801  0.3853  0.1282
  629SOL    HW1 2514   1.851   0.644   1.231  0.1605 -2.2312  0.8757
  629SOL    HW2 2515   1.723   0.590   1.284  0.9837  0.2929  1.0559
  629SOL     MW 2516   1.805   0.616   1.298  0.3572  0.0279  0.3493
  630SOL     OW 2517   2.420   1.891   3.040 -0.3231  0.3682  0.4734
  630SOL    HW1 2518   2.412   1.969   2.992  0.2540 -3.2300 -0.9340
  630SOL    HW2 2519   2.333   1.860   3.067  0.4645 -3.4242  0.3702
  630SOL     MW 2520   2.408   1.897   3.037 -0.1431 -0.6069  0.2741
  631SOL     OW 2521   2.091   1.822   1.509 -0.0779  0.5132 -0.2188
  631SOL    HW1 2522   2.069   1.750   1.561 -0.3368  1.5676 -0.5530
  631SOL    HW2 2523   2.013   1.877   1.497  0.7992  1.1285 -2.9932
  631SOL     MW 2524   2.078   1.820   1.514  0.0037  0.7335 -0.6289
  632SOL     OW 2525   0.313   1.878   1.546  0.3972 -0.1066 -0.5839
  632SOL    HW1 2526   0.238   1.934   1.539  4.2296 -2.4876 -0.8115
  632SOL    HW2 2527   0.280   1.793   1.524 -1.1709  1.9915  2.4067
  632SOL     MW 2528   0.299   1.874   1.542  0.6959 -0.1439 -0.2194
  633SOL     OW 2529   2.584   0.516   0.396 -0.0694 -0.2373 -0.2557
  633SOL    HW1 2530   2.667   0.506   0.445 -1.1740 -1.4647 -0.5739
  633SOL    HW2 2531   2.555   0.431   0.356 -1.9993  1.6898 -0.0050
  633SOL     MW 2532   2.591   0.504   0.397 -0.4698 -0.1450 -0.2646
  634SOL     OW 2533   2.634   3.089   0.610  0.5640 -0.4440 -0.4529
  634SOL    HW1 2534   2.639   3.180   0.591 -0.0108 -0.6016  0.0674
  634SOL    HW2 2535   2.624   3.050   0.524  1.6900  0.2850 -0.1103
  634SOL     MW 2536   2.634   3.096   0.596  0.6367 -0.3686 -0.3391
  635SOL     OW 2537   2.635   0.054   1.897  0.6235  0.4116 -0.2749
  635SOL    HW1 2538   2.681   0.012   1.816 -2.9937  0.5014 -1.0489
  635SOL    HW2 2539   2.700   0.113   1.935  2.3689 -0.1487 -1.6317
  635SOL     MW 2540   2.650   0.056   1.892  0.3765  0.3495 -0.5560
  636SOL     OW 2541   2.697   1.716   0.751 -0.1494 -0.3301 -0.5690
  636SOL    HW1 2542   2.614   1.699   0.706 -1.0699 -2.8482  0.5160
  636SOL    HW2 2543   2.666   1.777   0.819 -1.5470 -0.8328 -1.5852
  636SOL     MW 2544   2.682   1.722   0.754 -0.4553 -0.7287 -0.5599
  637SOL     OW 2545   2.852   1.486   0.685  0.1344 -0.1685  0.1515
  637SOL    HW1 2546   2.923   1.537   0.645 -0.6991  0.5396 -1.4204
  637SOL    HW2 2547   2.796   1.557   0.729 -0.2217  0.9516 -0.1807
  637SOL     MW 2548   2.854   1.502   0.685 -0.0226  0.0727 -0.0997
  638SOL     OW 2549   2.805   0.522   0.566  0.7090  0.0964 -1.1167
  638SOL    HW1 2550   2.871   0.583   0.542 -1.5303 -0.8416  1.9925
  638SOL    HW2 2551   2.811   0.540   0.660 -0.3221 -0.3120 -2.3015
  638SOL     MW 2552   2.815   0.532   0.575  0.2775 -0.0813 -0.8628
  639SOL     OW 2553   1.753   3.070   0.541  0.9965 -0.3875  0.1883
  639SOL    HW1 2554   1.652   3.069   0.547  1.1304  0.7378 -1.1449
  639SOL    HW2 2555   1.786   3.007   0.472 -2.7685 -0.4368  0.7973
  639SOL     MW 2556   1.744   3.062   0.532  0.5174 -0.2455  0.0927
  640SOL     OW 2557   0.286   1.420   0.095  0.0677  0.5163 -0.3778
  640SOL    HW1 2558   0.349   1.437   0.018  0.0311 -0.7580  1.7489
  640SOL    HW2 2559   0.290   1.327   0.108 -0.6237  1.0828  2.8756
  640SOL     MW 2560   0.295   1.410   0.087 -0.0284  0.4229  0.3321
  641SOL     OW 2561   2.228   0.347   0.410 -0.1527 -0.7588  0.0850
  641SOL    HW1 2562   2.286   0.303   0.352  1.2814  0.7296  0.3718
  641SOL    HW2 2563   2.231   0.291   0.490  3.6828  1.9521 -0.0281
  641SOL     MW 2564   2.236   0.334   0.413  0.5426 -0.2047  0.1079
  642SOL     OW 2565   0.088   0.018   0.543  0.6504 -0.3955 -0.2536
  642SOL    HW1 2566   0.063   0.111   0.520  0.8121  0.2734 -0.3054
  642SOL    HW2 2567   0.005  -0.001   0.591  0.6334 -3.3226 -2.4990
  642SOL     MW 2568   0.074   0.028   0.546  0.6695 -0.6934 -0.5567
  643SOL     OW 2569   2.092   0.320   1.656  0.2181 -0.4034  0.4041
  643SOL    HW1 2570   2.014   0.300   1.710 -0.0618 -0.4584  0.4079
  643SOL    HW2 2571   2.130   0.239   1.625  0.7754 -1.6954 -0.3917
  643SOL     MW 2572   2.086   0.307   1.659  0.2547 -0.5812  0.2996
  644SOL     OW 2573   2.633   1.891   0.964  0.2941  0.0143 -0.1415
  644SOL    HW1 2574   2.618   1.831   1.038 -1.1806  1.1024  1.1260
  644SOL    HW2 2575   2.577   1.970   0.982 -0.9062  2.0739 -1.1116
  644SOL     MW 2576   2.624   1.894   0.976 -0.0588  0.4296 -0.1023
  645SOL     OW 2577   2.790   0.876   0.759  0.4256  1.0337  0.0331
  645SOL    HW1 2578   2.877   0.834   0.777 -0.3283 -0.6095  0.0529
  645SOL    HW2 2579   2.719   0.814   0.775 -0.1491 -0.0109  2.8581
  645SOL     MW 2580   2.792   0.862   0.764  0.2503  0.6790  0.4084
  646SOL     OW 2581   0.163   2.248   0.856  0.1522  0.4905  0.1233
  646SOL    HW1 2582   0.166   2.144   0.856  0.7654  0.4694  0.8940
  646SOL    HW2 2583   0.112   2.268   0.779 -1.5360 -1.0510  2.7918
  646SOL     MW 2584   0.157   2.237   0.846  0.0104  0.2844  0.5770
  647SOL     OW 2585   2.779   0.536   2.999  0.3043  0.2676 -0.0595
  647SOL    HW1 2586   2.724   0.457   3.006 -1.8186 -1.7308 -0.2833
  647SOL    HW2 2587   2.758   0.595   3.073 -1.4326 -0.4418 -1.1007
  647SOL     MW 2588   2.769   0.534   3.010 -0.2050 -0.0897 -0.2264
  648SOL     OW 2589   2.226   0.647   1.132 -0.2812 -0.3388  0.2763
  648SOL    HW1 2590   2.228   0.560   1.173 -1.0986  1.8875 -2.5564
  648SOL    HW2 2591   2.242   0.709   1.200 -0.8117 -1.2536 -0.3425
  648SOL     MW 2592   2.229   0.643   1.146 -0.4590 -0.1657 -0.1791
  649SOL     OW 2593   2.397   2.705   1.266 -0.0453  0.0126  0.4128
  649SOL    HW1 2594   2.488   2.730   1.273 -2.3002  0.3796  1.3218
  649SOL    HW2 2595   2.396   2.610   1.286  0.9140 -0.7712  3.4337
  649SOL     MW 2596   2.409   2.696   1.270 -0.2162 -0.0424  0.9313
  650SOL     OW 2597   2.761   0.257   0.558 -0.3357  0.3087 -0.0545
  650SOL    HW1 2598   2.792   0.346   0.578 -0.4837 -0.4746  0.4846
  650SOL    HW2 2599   2.807   0.235   0.476 -3.3771  2.0656 -2.7620
  650SOL     MW 2600   2.771   0.266   0.550 -0.7565  0.4372 -0.3406
  651SOL     OW 2601   0.046   0.436   1.024  0.4536  0.0356 -0.2544
  651SOL    HW1 2602   0.064   0.499   0.948  1.2592 -0.2049  0.4795
  651SOL    HW2 2603  -0.029   0.478   1.070 -1.4675  0.1267  1.4428
  651SOL     MW 2604   0.038   0.450   1.020  0.3064  0.0159  0.0663
  652SOL     OW 2605   2.388   1.433   3.009  0.0874  0.5997 -0.0391
  652SOL    HW1 2606   2.434   1.491   2.952 -0.6653 -1.8690 -2.3273
  652SOL    HW2 2607   2.303   1.482   3.027 -1.0153  1.6841  0.9406
  652SOL     MW 2608   2.383   1.447   3.004 -0.1574  0.4170 -0.2118
  653SOL     OW 2609   1.826   0.332   0.265 -0.0440  0.3493 -0.5103
  653SOL    HW1 2610   1.821   0.261   0.198 -0.2111  0.9777 -0.0633
  653SOL    HW2 2611   1.865   0.409   0.225  2.4902 -0.4471 -2.2912
  653SOL     MW 2612   1.830   0.333   0.250  0.2683  0.3272 -0.6863
  654SOL     OW 2613   2.438   0.997   0.780  0.1756  0.5594 -0.3781
  654SOL    HW1 2614   2.396   0.998   0.694 -1.5787 -0.7275 -1.9469
  654SOL    HW2 2615   2.471   0.904   0.804  1.9983 -2.2313  1.1588
  654SOL     MW 2616   2.437   0.985   0.772  0.1846  0.0214 -0.3823
  655SOL     OW 2617   2.887   0.910   0.315 -0.2450  0.0850 -0.7548
  655SOL    HW1 2618   2.850   0.969   0.378 -0.3528 -0.6637 -1.4589
  655SOL    HW2 2619   2.955   0.866   0.365  0.4305 -0.3841 -0.7848
  655SOL     MW 2620   2.891   0.912   0.330 -0.1701 -0.0756 -0.8517
  656SOL     OW 2621   1.815   2.642   1.413 -0.4060  0.1518  0.0746
  656SOL    HW1 2622   1.867   2.720   1.417 -1.3724 -0.0185  0.9666
  656SOL    HW2 2623   1.869   2.575   1.368  0.1149 -0.3170  0.5071
  656SOL     MW 2624   1.829   2.644   1.407 -0.4648  0.0675  0.2494
  657SOL     OW 2625   0.091   1.793   1.151  0.4490 -0.0030 -0.3439
  657SOL    HW1 2626   0.180   1.831   1.152  1.1534 -3.0370  0.6700
  657SOL    HW2 2627   0.095   1.704   1.183 -1.3463 -1.4368 -5.0723
  657SOL     MW 2628   0.103   1.786   1.156  0.3051 -0.5925 -0.8340
  658SOL     OW 2629   2.667   1.369   0.227 -0.6768  0.4767 -0.2300
  658SOL    HW1 2630   2.666   1.292   0.282 -1.0573 -0.6044  2.4382
  658SOL    HW2 2631   2.691   1.449   0.275  0.7809  1.6857  1.2368
  658SOL     MW 2632   2.670   1.369   0.240 -0.5347  0.4936  0.3155
  659SOL     OW 2633   2.145   1.457   1.032 -0.0841 -0.4857 -0.3014
  659SOL    HW1 2634   2.199   1.376   1.031 -2.2850 -0.5519  0.9357
  659SOL    HW2 2635   2.100   1.460   1.113 -0.2657  3.2936  0.9794
  659SOL     MW 2636   2.146   1.446   1.043 -0.3985  0.0042  0.0308
  660SOL     OW 2637   2.088   1.554   1.631 -0.5627 -0.8226 -0.5190
  660SOL    HW1 2638   2.115   1.573   1.722  3.7815  0.0723 -2.7199
  660SOL    HW2 2639   2.021   1.483   1.626 -1.3744 -1.4832 -1.4742
  660SOL     MW 2640   2.083   1.547   1.642 -0.0967 -0.7917 -0.9354
  661SOL     OW 2641   2.399   0.986   0.254 -0.2335 -0.1196 -0.1131
  661SOL    HW1 2642   2.482   1.028   0.290 -1.8976  2.3585  0.7129
  661SOL    HW2 2643   2.412   0.894   0.294 -1.8097 -1.3683  1.2145
  661SOL     MW 2644   2.412   0.980   0.264 -0.6610  0.0426  0.1711
  662SOL     OW 2645   2.587   2.954   0.853  0.0512  0.4118 -0.4668
  662SOL    HW1 2646   2.529   3.014   0.897  0.0954 -0.4843 -2.4421
  662SOL    HW2 2647   2.619   3.005   0.775 -2.4728 -0.4891  1.2392
  662SOL     MW 2648   2.583   2.969   0.848 -0.2760  0.1747 -0.5024
  663SOL     OW 2649   2.703   1.569   0.427  0.2270 -0.5919 -0.5027
  663SOL    HW1 2650   2.736   1.619   0.350  1.6349  0.0488 -1.9644
  663SOL    HW2 2651   2.765   1.587   0.490 -1.0136 -0.1192 -3.2635
  663SOL     MW 2652   2.715   1.578   0.425  0.2491 -0.4450 -1.0598
  664SOL     OW 2653   2.540   1.480   1.515  0.4783 -0.3048  0.6452
  664SOL    HW1 2654   2.520   1.570   1.479 -2.0219 -1.5262 -3.0378
  664SOL    HW2 2655   2.451   1.444   1.532  2.4902 -1.7522 -0.6941
  664SOL     MW 2656   2.526   1.487   1.513  0.4139 -0.6570 -0.0174
  665SOL     OW 2657   2.848   0.833   2.102 -0.3416 -0.2301 -0.3778
  665SOL    HW1 2658   2.784   0.860   2.034  0.7428 -2.1533 -0.9392
  665SOL    HW2 2659   2.910   0.777   2.054 -0.3841  0.3917 -2.3812
  665SOL     MW 2660   2.848   0.829   2.087 -0.2041 -0.4018 -0.7162
  666SOL     OW 2661   2.774   3.019   1.698  0.1014 -0.1491  0.0578
  666SOL    HW1 2662   2.786   3.031   1.606  1.3085 -0.0196 -0.8424
  666SOL    HW2 2663   2.715   2.944   1.702 -1.2124 -0.8193  0.8570
  666SOL     MW 2664   2.768   3.011   1.686  0.0873 -0.2204  0.0445
  667SOL     OW 2665   2.001   2.740   1.742 -0.0857  0.2966 -0.3959
  667SOL    HW1 2666   2.050   2.697   1.813 -2.2643  1.3867 -1.9235
  667SOL    HW2 2667   2.063   2.808   1.719  0.0999 -0.5843  0.4067
  667SOL     MW 2668   2.016   2.743   1.748 -0.3487  0.3242 -0.4915
  668SOL     OW 2669   2.772   0.572   0.846 -0.0472  0.1522 -0.1195
  668SOL    HW1 2670   2.825   0.620   0.915  1.7549 -1.1080 -2.2112
  668SOL    HW2 2671   2.693   0.621   0.845 -1.0851  0.8238  0.8115
  668SOL     MW 2672   2.769   0.584   0.855  0.0536  0.0745 -0.2727
  669SOL     OW 2673   0.204   0.981   0.693 -0.2534 -0.0997 -0.3438
  669SOL    HW1 2674   0.171   1.007   0.782 -1.0319 -2.5525 -1.4659
  669SOL    HW2 2675   0.288   1.037   0.673  0.1843 -1.1944 -2.3663
  669SOL     MW 2676   0.211   0.992   0.702 -0.2984 -0.5678 -0.7587
  670SOL     OW 2677   2.889   0.340   0.269 -0.5222  0.4062 -0.0327
  670SOL    HW1 2678   2.896   0.287   0.185 -1.2362 -2.5707  0.9400
  670SOL    HW2 2679   2.937   0.424   0.260  3.5046  0.8288  0.9817
  670SOL     MW 2680   2.896   0.344   0.256 -0.0851  0.0692  0.2295
  671SOL     OW 2681   2.009   3.037   1.500  0.2298 -0.0005 -0.2244
  671SOL    HW1 2682   1.961   2.996   1.424  0.7370 -0.2858 -3.0663
  671SOL    HW2 2683   1.950   3.026   1.574  0.6749  1.2893  0.7297
  671SOL     MW 2684   1.995   3.030   1.500  0.3555  0.1320 -0.4735
  672SOL     OW 2685   1.881   1.756   1.301 -0.3871  0.5686 -0.4461
  672SOL    HW1 2686   1.896   1.834   1.357 -0.3998 -2.7162 -0.5292
  672SOL    HW2 2687   1.899   1.788   1.203  0.0532  1.3094 -2.7899
  672SOL     MW 2688   1.886   1.771   1.295 -0.3307  0.2329 -0.7663
  673SOL     OW 2689   2.790   1.077   0.573  0.4121 -0.3493 -0.0497
  673SOL    HW1 2690   2.786   0.991   0.626 -2.4330 -4.0540  1.0846
  673SOL    HW2 2691   2.863   1.121   0.604 -0.7454 -2.0876  0.9419
  673SOL     MW 2692   2.799   1.071   0.584 -0.1160 -1.0675  0.2308
  674SOL     OW 2693   2.459   0.006   1.249 -0.0608 -0.0528 -0.6894
  674SOL    HW1 2694   2.409   0.041   1.172  0.2945  0.1592 -1.1283
  674SOL    HW2 2695   2.455  -0.089   1.249 -1.4115 -2.0573  1.2252
  674SOL     MW 2696   2.452  -0.002   1.239 -0.1921 -0.2893 -0.4947
  675SOL     OW 2697   3.024   0.896   1.096 -0.2690  0.1243 -0.3633
  675SOL    HW1 2698   3.079   0.919   1.173  0.3901  1.1893 -0.8301
  675SOL    HW2 2699   3.077   0.938   1.018  2.9615 -0.3702  1.9265
  675SOL     MW 2700   3.038   0.904   1.096  0.2442  0.1996 -0.1228
  676SOL     OW 2701   2.895   1.442   1.702 -0.4336  0.0302 -0.1930
  676SOL    HW1 2702   2.875   1.361   1.652  1.1291  2.2941 -0.8581
  676SOL    HW2 2703   2.921   1.416   1.785 -0.9123  0.4659 -0.8628
  676SOL     MW 2704   2.896   1.428   1.706 -0.2906  0.3864 -0.3692
  677SOL     OW 2705   2.456   0.615   1.956  0.3156  0.7327 -0.3897
  677SOL    HW1 2706   2.407   0.547   1.899 -0.4975  0.8464 -0.9491
  677SOL    HW2 2707   2.474   0.691   1.897  0.4216  2.2403 -2.9287
  677SOL     MW 2708   2.452   0.616   1.941  0.2223  0.9466 -0.7985
  678SOL     OW 2709   2.402   1.602   0.325 -0.3775 -0.7453 -0.2786
  678SOL    HW1 2710   2.335   1.594   0.393  0.8435 -0.3838  1.0905
  678SOL    HW2 2711   2.381   1.533   0.259  2.0385 -0.0190  0.9471
  678SOL     MW 2712   2.390   1.592   0.325  0.1024 -0.6017  0.0637
  679SOL     OW 2713   2.259   0.409   1.257  0.2798  0.3807  0.4218
  679SOL    HW1 2714   2.213   0.336   1.211 -0.1178  1.9250  1.0616
  679SOL    HW2 2715   2.190   0.428   1.320 -0.0919 -1.7086 -2.6948
  679SOL     MW 2716   2.244   0.402   1.259  0.1783  0.3088  0.0950
  680SOL     OW 2717   2.472   0.106   1.509  0.5841  0.3001  0.0774
  680SOL    HW1 2718   2.372   0.119   1.519  0.0897 -1.0874  0.9552
  680SOL    HW2 2719   2.484   0.055   1.432  0.2096  0.4732 -2.9829
  680SOL     MW 2720   2.460   0.101   1.500  0.4694  0.1399 -0.2105
  681SOL     OW 2721   0.250   0.600   1.467  0.0367 -0.2203  0.5095
  681SOL    HW1 2722   0.256   0.530   1.531  1.0769 -0.7789 -0.8525
  681SOL    HW2 2723   0.219   0.551   1.383 -1.7746  3.7662 -2.1133
  681SOL     MW 2724   0.247   0.585   1.464 -0.0651  0.2320 -0.0163
  682SOL     OW 2725   0.070   2.841   1.543 -0.6237  0.2289  0.0242
  682SOL    HW1 2726   0.139   2.906   1.519 -0.7996  1.9334 -0.7763
  682SOL    HW2 2727  -0.000   2.881   1.589 -3.2837 -0.1014  0.6662
  682SOL     MW 2728   0.070   2.855   1.546 -0.9979  0.4102  0.0033
  683SOL     OW 2729   2.077   0.798   3.003  0.2086  0.4191 -0.1275
  683SOL    HW1 2730   2.009   0.743   3.042 -1.3720  0.7266 -3.8088
  683SOL    HW2 2731   2.050   0.889   3.030 -4.0628  0.5792  2.7484
  683SOL     MW 2732   2.064   0.803   3.012 -0.5635  0.4808 -0.2338
  684SOL     OW 2733   2.051   1.749   0.654 -0.4558  0.4234  0.3419
  684SOL    HW1 2734   2.069   1.686   0.580 -1.2270  0.4619  0.7277
  684SOL    HW2 2735   1.982   1.701   0.705  2.7221  0.1973  1.5434
  684SOL     MW 2736   2.044   1.734   0.651 -0.1382  0.3986  0.5514
  685SOL     OW 2737   2.684   1.708   1.185 -0.1178  0.1413  0.1178
  685SOL    HW1 2738   2.728   1.661   1.252  0.7556  0.8296 -2.5018
  685SOL    HW2 2739   2.610   1.652   1.183 -0.0307  0.8826  0.7252
  685SOL     MW 2740   2.680   1.694   1.193  0.0089  0.3299 -0.1477
  686SOL     OW 2741   2.882   0.666   1.614 -0.2862  0.0415  0.0816
  686SOL    HW1 2742   2.876   0.623   1.696  0.6812  0.3086 -2.4482
  686SOL    HW2 2743   2.973   0.707   1.615 -0.7643  0.0869  1.6285
  686SOL     MW 2744   2.893   0.666   1.625 -0.2217  0.0827 -0.0481
  687SOL     OW 2745   2.115   0.206   1.151 -0.6199 -0.6053  0.1437
  687SOL    HW1 2746   2.162   0.159   1.086  2.1433  1.2017  0.3850
  687SOL    HW2 2747   2.076   0.285   1.106  0.4111 -1.7838 -1.0663
  687SOL     MW 2748   2.116   0.210   1.136 -0.1193 -0.5224  0.0159
  688SOL     OW 2749   2.462   0.585   1.419 -0.0392  0.2122  0.3943
  688SOL    HW1 2750   2.431   0.520   1.357  3.0452  0.5006 -0.3758
  688SOL    HW2 2751   2.378   0.607   1.469 -0.1596 -0.8194  0.6924
  688SOL     MW 2752   2.447   0.579   1.418  0.3518  0.1141  0.3320
  689SOL     OW 2753   2.510   0.738   2.977 -0.0348 -0.2139  0.0887
  689SOL    HW1 2754   2.446   0.788   3.029 -1.3277 -1.0050 -0.0369
  689SOL    HW2 2755   2.574   0.715   3.047  2.4881  0.3508  1.7049
  689SOL     MW 2756   2.510   0.741   2.993  0.1275 -0.2438  0.2853
  690SOL     OW 2757   2.021   0.888   1.832  0.8003  0.1051 -0.0362
  690SOL    HW1 2758   2.011   0.794   1.849  1.1039 -0.4689 -1.9858
  690SOL    HW2 2759   2.050   0.891   1.740 -0.6694  1.5842  0.8545
  690SOL     MW 2760   2.024   0.876   1.822  0.6464  0.2245 -0.1759
  691SOL     OW 2761   2.419   0.301   0.883  0.4242  0.0872  0.0826
  691SOL    HW1 2762   2.507   0.304   0.917 -1.6530  0.3416 -0.3287
  691SOL    HW2 2763   2.410   0.389   0.857 -0.1244 -0.3727 -1.9398
  691SOL     MW 2764   2.429   0.313   0.884  0.0778  0.0601 -0.2385
  692SOL     OW 2765   2.846   1.602   1.434 -0.6614  0.2611 -0.2096
  692SOL    HW1 2766   2.844   1.593   1.529  1.0144  1.2501 -2.4498
  692SOL    HW2 2767   2.895   1.683   1.413  0.2489 -1.3200  1.0420
  692SOL     MW 2768   2.852   1.612   1.444 -0.3202  0.1830 -0.3400
  693SOL     OW 2769   2.333   0.391   0.025 -0.2432 -0.0110 -0.6728
  693SOL    HW1 2770   2.265   0.338  -0.014  1.2594  1.9425  2.6210
  693SOL    HW2 2771   2.313   0.479  -0.000 -1.9696  2.1489  0.3921
  693SOL     MW 2772   2.321   0.396   0.016 -0.2728  0.5318 -0.0977
  694SOL     OW 2773   1.900   1.176   1.176  0.0962  0.1590  0.3873
  694SOL    HW1 2774   1.991   1.167   1.192 -1.0074  2.5473  3.4129
  694SOL    HW2 2775   1.866   1.085   1.183 -0.0810  4.4566  0.6591
  694SOL     MW 2776   1.907   1.163   1.179 -0.0728  1.0412  0.8224
  695SOL     OW 2777   2.946   1.402   1.277 -0.3679 -0.4226  0.9294
  695SOL    HW1 2778   2.936   1.409   1.182 -0.7954 -0.8479 -2.2020
  695SOL    HW2 2779   2.916   1.484   1.321 -0.2009  0.0252 -2.2851
  695SOL     MW 2780   2.940   1.414   1.270 -0.4023 -0.4196  0.0921
  696SOL     OW 2781   2.014   1.423   0.784 -0.1591 -0.2651 -0.3484
  696SOL    HW1 2782   2.047   1.468   0.859 -0.9310  3.3841 -1.2040
  696SOL    HW2 2783   1.993   1.335   0.820  0.5840 -0.0509  0.3987
  696SOL     MW 2784   2.016   1.417   0.798 -0.1629  0.2447 -0.3627
  697SOL     OW 2785   2.942   1.063   2.241  0.1515 -0.0414 -0.6915
  697SOL    HW1 2786   2.860   1.118   2.245 -3.2713  0.8318  0.2041
  697SOL    HW2 2787   2.909   0.983   2.208  0.1755  1.4098 -0.9933
  697SOL     MW 2788   2.927   1.060   2.237 -0.2969  0.2653 -0.6131
  698SOL     OW 2789   2.598   0.331   3.052  0.1138  0.6511  0.6885
  698SOL    HW1 2790   2.513   0.358   3.083  0.2282 -0.7958  0.5974
  698SOL    HW2 2791   2.640   0.299   3.135  0.0504  0.1944 -1.3715
  698SOL     MW 2792   2.592   0.330   3.067  0.1205  0.4000  0.4047
  699SOL     OW 2793   1.897   1.614   2.072 -0.2695 -0.3697 -0.3736
  699SOL    HW1 2794   1.860   1.533   2.101  0.9416  0.1468  1.9282
  699SOL    HW2 2795   1.977   1.572   2.034  1.9526  1.7095 -1.2023
  699SOL     MW 2796   1.902   1.598   2.071  0.1835 -0.0272 -0.1792
  700SOL     OW 2797   2.666   0.846   1.604  0.0484  0.2186 -0.0237
  700SOL    HW1 2798   2.716   0.910   1.551 -2.1708  2.9624 -1.3488
  700SOL    HW2 2799   2.727   0.776   1.612 -1.1302  0.5763 -0.5235
  700SOL     MW 2800   2.681   0.845   1.598 -0.3999  0.6278 -0.2645
  701SOL     OW 2801   1.695   1.109   2.512 -0.1742 -0.6618 -0.2232
  701SOL    HW1 2802   1.780   1.102   2.546 -1.2138 -1.2878  2.8845
  701SOL    HW2 2803   1.658   1.175   2.568  1.0060 -0.1164 -0.9048
  701SOL     MW 2804   1.702   1.117   2.524 -0.1557 -0.6724  0.0969
  702SOL     OW 2805   2.093   0.470   0.715 -0.3329  0.2698 -0.7442
  702SOL    HW1 2806   2.087   0.375   0.691  0.7335 -0.8143 -1.7887
  702SOL    HW2 2807   2.142   0.507   0.640 -2.0262 -0.7370 -1.0882
  702SOL     MW 2808   2.099   0.462   0.702 -0.4156 -0.0061 -0.9274
  703SOL     OW 2809   2.716   1.257   0.954 -0.0811 -0.0895  0.1763
  703SOL    HW1 2810   2.678   1.248   0.867 -0.4714  3.1012  0.3240
  703SOL    HW2 2811   2.699   1.182   1.008 -1.0417  3.8341  1.0960
  703SOL     MW 2812   2.709   1.246   0.949 -0.2593  0.8492  0.3171
  704SOL     OW 2813   3.079   1.248   0.116  0.2852  0.3371  0.1639
  704SOL    HW1 2814   2.992   1.243   0.072 -0.6569 -0.3987 -2.3727
  704SOL    HW2 2815   3.063   1.264   0.210  1.1120  0.9665 -0.4479
  704SOL     MW 2816   3.065   1.249   0.123  0.2700  0.3231 -0.2515
  705SOL     OW 2817   2.053   1.548   1.300 -0.2848 -0.2667  0.1671
  705SOL    HW1 2818   2.013   1.635   1.306  0.4673 -1.3152  0.2975
  705SOL    HW2 2819   2.104   1.541   1.378 -0.8410  0.4860 -0.9134
  705SOL     MW 2820   2.054   1.558   1.311 -0.2589 -0.3057  0.0417
  706SOL     OW 2821   3.005   1.227   0.682  0.0090 -0.0937  0.7783
  706SOL    HW1 2822   3.054   1.247   0.599 -1.2380  0.0958 -0.7910
  706SOL    HW2 2823   2.961   1.309   0.703  2.3637  2.0219  1.3057
  706SOL     MW 2824   3.006   1.240   0.674  0.1551  0.2104  0.6408
  707SOL     OW 2825   2.368   0.034   0.963 -0.2924 -0.1543  0.2501
  707SOL    HW1 2826   2.381   0.124   0.931 -0.0885  1.5165 -2.8163
  707SOL    HW2 2827   2.278   0.005   0.929 -1.5800  0.5451  3.2850
  707SOL     MW 2828   2.358   0.042   0.954 -0.4354  0.1584  0.2460
  708SOL     OW 2829   2.410   1.379   0.179 -0.2344  0.0570 -0.4437
  708SOL    HW1 2830   2.500   1.394   0.204 -0.5089 -0.8177 -2.1930
  708SOL    HW2 2831   2.421   1.389   0.083 -2.1224 -0.6640  0.9591
  708SOL     MW 2832   2.423   1.383   0.170 -0.5197 -0.1535 -0.4894
  709SOL     OW 2833   1.750   1.651   0.220 -0.6609  0.0530 -0.6334
  709SOL    HW1 2834   1.746   1.658   0.125  0.9344  0.0244 -1.4612
  709SOL    HW2 2835   1.658   1.633   0.251  0.6441 -1.5277 -0.0536
  709SOL     MW 2836   1.737   1.650   0.212 -0.2783 -0.1594 -0.6661
  710SOL     OW 2837   2.189   1.176   1.191 -0.0372 -0.0023  0.1542
  710SOL    HW1 2838   2.182   1.117   1.108  0.1710  0.4553  1.3739
  710SOL    HW2 2839   2.211   1.109   1.266  1.6389 -2.4877 -0.2008
  710SOL     MW 2840   2.191   1.159   1.190  0.2114 -0.2699  0.2683
  711SOL     OW 2841   2.400   0.145   1.768 -0.2883 -0.5313  0.2281
  711SOL    HW1 2842   2.481   0.164   1.822 -0.3250 -1.9492 -0.1688
  711SOL    HW2 2843   2.434   0.100   1.686  2.8059  1.2929 -0.8075
  711SOL     MW 2844   2.415   0.142   1.764  0.1151 -0.4777  0.0391
  712SOL     OW 2845   1.892   0.605   3.092 -0.3026 -0.1065  0.0274
  712SOL    HW1 2846   1.828   0.643   3.025  2.3132 -1.7918  0.6864
  712SOL    HW2 2847   1.850   0.633   3.175 -0.2138 -0.6058  2.1507
  712SOL     MW 2848   1.878   0.614   3.094  0.0542 -0.3947  0.3945
  713SOL     OW 2849   2.519   0.688   1.086 -0.1458 -0.2449  0.0869
  713SOL    HW1 2850   2.502   0.605   1.136  0.0764  0.4932  0.4487
  713SOL    HW2 2851   2.469   0.749   1.139  3.1886 -0.4252  0.5390
  713SOL     MW 2852   2.510   0.685   1.099  0.3235 -0.1713  0.1943
  714SOL     OW 2853   2.223   0.159   1.982 -0.1073 -0.0252  0.4656
  714SOL    HW1 2854   2.281   0.130   2.055 -1.0738 -1.4875  3.4163
  714SOL    HW2 2855   2.261   0.135   1.899 -0.6100 -1.2665  0.7376
  714SOL     MW 2856   2.236   0.152   1.981 -0.3011 -0.3819  0.8908
  715SOL     OW 2857   1.810   2.024   1.753  0.3022 -0.1289 -0.2279
  715SOL    HW1 2858   1.900   2.052   1.744 -1.3914 -1.4815 -1.0417
  715SOL    HW2 2859   1.795   1.931   1.790 -1.7112 -1.3147 -0.5983
  715SOL     MW 2860   1.820   2.015   1.757 -0.1869 -0.4638 -0.3841
  716SOL     OW 2861   2.412   0.566   0.667  0.3447  0.0674 -0.1157
  716SOL    HW1 2862   2.450   0.479   0.629  0.6916 -3.1040  0.1408
  716SOL    HW2 2863   2.332   0.580   0.617  2.4913 -2.3662  2.2974
  716SOL     MW 2864   2.406   0.556   0.655  0.6737 -0.6722  0.2365
  717SOL     OW 2865   2.832   1.607   2.821  0.1715  0.5435  0.2621
  717SOL    HW1 2866   2.915   1.588   2.859 -0.3248 -3.0549 -0.5298
  717SOL    HW2 2867   2.796   1.679   2.879 -0.8628 -0.5946 -1.6137
  717SOL     MW 2868   2.838   1.614   2.834 -0.0304 -0.0814 -0.0899
  718SOL     OW 2869   2.646   1.339   1.272 -0.0248  0.0079 -0.5443
  718SOL    HW1 2870   2.616   1.384   1.350 -1.7687  1.3332  0.1245
  718SOL    HW2 2871   2.738   1.341   1.287  1.0267  0.8201 -1.6028
  718SOL     MW 2872   2.654   1.345   1.285 -0.1162  0.2899 -0.5957
  719SOL     OW 2873   2.209   1.303   0.578 -0.4002 -0.1361 -0.4727
  719SOL    HW1 2874   2.292   1.341   0.565 -1.8989  1.0324  1.1105
  719SOL    HW2 2875   2.190   1.346   0.661  3.4503 -0.3084 -1.6783
  719SOL     MW 2876   2.218   1.314   0.587 -0.0899 -0.0046 -0.4229
  720SOL     OW 2877   2.831   1.255   0.027 -0.3692  0.8251 -0.0054
  720SOL    HW1 2878   2.819   1.161   0.035 -0.3956  0.2432 -3.0651
  720SOL    HW2 2879   2.774   1.297   0.091 -0.3245  1.7041  1.5834
  720SOL     MW 2880   2.822   1.248   0.037 -0.3668  0.8643 -0.1995
  721SOL     OW 2881   2.515   0.853   1.365  0.9512 -0.5055  0.2424
  721SOL    HW1 2882   2.495   0.759   1.387 -0.1717 -1.5899 -0.7204
  721SOL    HW2 2883   2.538   0.898   1.452 -0.8674  1.7660  1.4652
  721SOL     MW 2884   2.515   0.847   1.379  0.5631 -0.3489  0.2767
  722SOL     OW 2885   2.591   1.137   0.381 -0.0950  0.1596 -0.1499
  722SOL    HW1 2886   2.536   1.206   0.424 -1.0739 -2.2083  1.6882
  722SOL    HW2 2887   2.661   1.119   0.442 -2.3294 -5.5817 -0.1418
  722SOL     MW 2888   2.593   1.144   0.395 -0.5190 -0.9103  0.0937
  723SOL     OW 2889   2.276   1.343   1.562 -0.2352 -0.2094 -0.5712
  723SOL    HW1 2890   2.297   1.333   1.470  1.2975  2.6143 -0.0723
  723SOL    HW2 2891   2.222   1.420   1.593 -1.8993  2.5251  0.7467
  723SOL     MW 2892   2.272   1.352   1.554 -0.2525  0.5240 -0.3315
  724SOL     OW 2893   2.494   0.319   0.606  0.0607  0.1519  0.2246
  724SOL    HW1 2894   2.457   0.285   0.689  1.0419 -1.2545 -0.5063
  724SOL    HW2 2895   2.587   0.303   0.611 -0.2669 -0.0989 -0.6653
  724SOL     MW 2896   2.502   0.313   0.618  0.1469 -0.0667  0.0108
  725SOL     OW 2897   2.619   0.420   1.250 -0.1614  0.0010 -0.1941
  725SOL    HW1 2898   2.684   0.487   1.282 -0.5998 -2.0315  0.6407
  725SOL    HW2 2899   2.640   0.346   1.303 -1.5127  1.1006 -0.9019
  725SOL     MW 2900   2.630   0.419   1.261 -0.3975 -0.1221 -0.1774
  726SOL     OW 2901   2.498   2.501   0.456 -0.1961  0.0943 -0.0320
  726SOL    HW1 2902   2.502   2.594   0.432  0.5370  1.2879  1.0627
  726SOL    HW2 2903   2.487   2.515   0.553  0.0615  1.2394  0.9417
  726SOL     MW 2904   2.497   2.515   0.466 -0.0654  0.4029  0.2409
  727SOL     OW 2905   2.862   0.293   1.727  0.2187 -0.3871  0.1961
  727SOL    HW1 2906   2.822   0.282   1.641 -1.4451 -0.1992  0.5046
  727SOL    HW2 2907   2.810   0.249   1.791  2.4495  1.6502 -2.0177
  727SOL     MW 2908   2.850   0.286   1.724  0.2935 -0.0935 -0.0553
  728SOL     OW 2909   2.845   1.180   2.849 -0.0481 -0.2125 -0.0964
  728SOL    HW1 2910   2.813   1.222   2.765 -1.2853 -1.2257  2.2690
  728SOL    HW2 2911   2.836   1.240   2.921  0.6158 -0.0412  0.0027
  728SOL     MW 2912   2.840   1.194   2.847 -0.1238 -0.3236  0.2288
  729SOL     OW 2913   2.508   1.511   1.113  0.2737  0.3041 -0.0570
  729SOL    HW1 2914   2.548   1.446   1.175 -2.4455 -1.8088  0.2267
  729SOL    HW2 2915   2.518   1.473   1.025  2.0423  0.8006  0.9003
  729SOL     MW 2916   2.515   1.498   1.110  0.1483  0.0908  0.1068
  730SOL     OW 2917   2.222   1.162   0.183  0.2603 -0.3988  0.4616
  730SOL    HW1 2918   2.283   1.094   0.204  1.6136  0.2219 -1.1699
  730SOL    HW2 2919   2.277   1.241   0.183 -1.7956  2.3029  0.4705
  730SOL     MW 2920   2.237   1.163   0.186  0.1676  0.0396  0.2475
  731SOL     OW 2921   2.747   2.064   2.869  0.1405 -0.2429  0.4958
  731SOL    HW1 2922   2.668   2.056   2.808  1.6050  2.5133 -1.3382
  731SOL    HW2 2923   2.826   2.044   2.816 -1.5439 -1.8277 -3.1083
  731SOL     MW 2924   2.747   2.061   2.854  0.1115 -0.0883 -0.2217
  732SOL     OW 2925   2.255   0.991   1.362  0.4193 -0.2361  0.0093
  732SOL    HW1 2926   2.236   0.945   1.449  0.9609 -0.2229  1.3554
  732SOL    HW2 2927   2.349   0.985   1.348 -1.6752  2.0656  0.7598
  732SOL     MW 2928   2.265   0.984   1.371  0.2144  0.0693  0.2860
  733SOL     OW 2929   2.384   2.783   3.013  0.2943 -0.5955 -0.0446
  733SOL    HW1 2930   2.316   2.820   3.073  1.0897 -1.4108 -0.3855
  733SOL    HW2 2931   2.368   2.683   3.001 -0.9628 -0.2331 -0.9262
  733SOL     MW 2932   2.373   2.775   3.019  0.2334 -0.6552 -0.2059
  734SOL     OW 2933   1.551   0.265   2.550 -0.8221  0.3000 -0.4634
  734SOL    HW1 2934   1.495   0.248   2.626  0.0755 -0.9649 -0.1344
  734SOL    HW2 2935   1.566   0.182   2.506  1.0215  1.7725 -0.6956
  734SOL     MW 2936   1.545   0.252   2.555 -0.4605  0.3274 -0.4506
  735SOL     OW 2937   2.978   0.940   2.701  0.3946 -0.4423  0.4010
  735SOL    HW1 2938   2.985   0.842   2.693 -0.1441 -2.8307 -0.6185
  735SOL    HW2 2939   2.982   0.954   2.797 -1.0860 -2.8945 -0.1822
  735SOL     MW 2940   2.979   0.929   2.713  0.1282 -1.0810  0.1896
  736SOL     OW 2941   0.135   0.586   2.583 -0.1369 -0.0785 -0.3304
  736SOL    HW1 2942   0.146   0.647   2.504  1.3535  0.0119 -0.0331
  736SOL    HW2 2943   0.159   0.500   2.543  1.6036  1.8941  0.1370
  736SOL     MW 2944   0.139   0.583   2.567  0.2894  0.1937 -0.2295
  737SOL     OW 2945   2.985   0.657   2.641  0.1613 -0.4324  0.6968
  737SOL    HW1 2946   2.914   0.647   2.570 -1.9703 -0.2962 -0.0173
  737SOL    HW2 2947   3.067   0.636   2.604 -2.3229 -0.7263 -0.6843
  737SOL     MW 2948   2.986   0.653   2.627 -0.4477 -0.4532  0.4204
  738SOL     OW 2949   0.125   0.480   1.874 -0.3679 -0.4788  0.0877
  738SOL    HW1 2950   0.223   0.490   1.868 -0.1710 -1.2725  0.5333
  738SOL    HW2 2951   0.093   0.435   1.795 -1.4856  0.4293 -2.4137
  738SOL     MW 2952   0.133   0.475   1.863 -0.4894 -0.4637 -0.1836
  739SOL     OW 2953   2.476   1.003   2.106 -0.4937 -0.2620  0.3914
  739SOL    HW1 2954   2.406   0.990   2.047  1.9392 -1.7231  2.7401
  739SOL    HW2 2955   2.548   0.987   2.046 -0.2764  1.6512  1.1860
  739SOL     MW 2956   2.476   0.999   2.090 -0.1441 -0.2023  0.8062
  740SOL     OW 2957   0.106   1.823   2.928  0.4343 -0.2216 -0.1562
  740SOL    HW1 2958   0.076   1.730   2.939 -0.3792 -1.6716  0.5243
  740SOL    HW2 2959   0.187   1.825   2.977 -0.6237  0.9405 -0.3292
  740SOL     MW 2960   0.113   1.811   2.936  0.1873 -0.2596 -0.0892
  741SOL     OW 2961   2.211   1.135   2.713 -0.9462  0.0052 -0.4228
  741SOL    HW1 2962   2.170   1.201   2.662  0.7598 -2.4806  3.0392
  741SOL    HW2 2963   2.215   1.163   2.807 -0.7374 -1.2874 -0.0157
  741SOL     MW 2964   2.206   1.147   2.719 -0.6936 -0.4933  0.0877
  742SOL     OW 2965   1.655   1.218   2.259 -1.1735  0.5306  0.3070
  742SOL    HW1 2966   1.576   1.165   2.240  0.1489 -0.2998  0.5034
  742SOL    HW2 2967   1.673   1.210   2.354  3.0901 -1.8649 -1.7313
  742SOL     MW 2968   1.647   1.210   2.269 -0.4365  0.1050  0.0640
  743SOL     OW 2969   2.485   1.238   2.700  0.0589  0.2256  0.4788
  743SOL    HW1 2970   2.402   1.205   2.721  2.6141  0.8866 -1.5755
  743SOL    HW2 2971   2.545   1.185   2.752  0.9072 -1.9118  1.3138
  743SOL     MW 2972   2.482   1.226   2.710  0.5080  0.0308  0.3179
  744SOL     OW 2973   2.699   0.870   1.874 -0.3185 -0.4550  0.8847
  744SOL    HW1 2974   2.679   0.960   1.842 -2.7482 -1.6087 -0.4937
  744SOL    HW2 2975   2.707   0.832   1.786 -1.0129 -1.6227  3.0665
  744SOL     MW 2976   2.697   0.877   1.858 -0.7307 -0.7613  0.9907
  745SOL     OW 2977   1.690   0.498   2.458 -0.4194 -0.2479  0.5731
  745SOL    HW1 2978   1.700   0.515   2.358  2.5763  0.3117 -0.3185
  745SOL    HW2 2979   1.627   0.427   2.461  0.4772 -1.3088  0.2085
  745SOL     MW 2980   1.683   0.491   2.445  0.0942 -0.3140  0.4074
  746SOL     OW 2981   1.607   1.436   1.643  0.4051  0.1994  0.4209
  746SOL    HW1 2982   1.698   1.424   1.624 -0.9735  1.1458 -1.4973
  746SOL    HW2 2983   1.586   1.450   1.736 -1.1718 -1.0933 -2.5900
  746SOL     MW 2984   1.616   1.436   1.653  0.0151  0.1537 -0.2295
  747SOL     OW 2985   2.632   1.136   1.817  0.3556  0.1861  0.2742
  747SOL    HW1 2986   2.534   1.128   1.799 -0.8977 -0.0752 -0.5212
  747SOL    HW2 2987   2.636   1.208   1.885  1.1274  2.7340 -2.2513
  747SOL     MW 2988   2.620   1.145   1.824  0.2921  0.4878 -0.1640
  748SOL     OW 2989   0.050   0.071   1.898  0.0000 -0.2537  0.2363
  748SOL    HW1 2990   0.138   0.099   1.899 -0.5640  3.0305 -1.1286
  748SOL    HW2 2991   0.002   0.133   1.962 -2.3614  1.1066 -0.0301
  748SOL     MW 2992   0.055   0.083   1.906 -0.3859  0.3591  0.0211
  749SOL     OW 2993   2.511   0.616   2.740  0.5566  1.0308  0.2508
  749SOL    HW1 2994   2.537   0.675   2.670  1.5816 -1.6377 -0.4639
  749SOL    HW2 2995   2.529   0.671   2.820  0.0194  0.9505 -1.3640
  749SOL     MW 2996   2.517   0.631   2.741  0.6210  0.6681 -0.0566
  750SOL     OW 2997   2.045   3.072   1.995 -0.3451  0.2777  0.0158
  750SOL    HW1 2998   2.112   3.143   1.997 -0.3298  0.9747 -1.9796
  750SOL    HW2 2999   2.109   3.000   1.998 -0.5212  1.9596 -0.9947
  750SOL     MW 3000   2.062   3.072   1.996 -0.3663  0.5916 -0.3808
  751SOL     OW 3001   0.197   0.305   2.456  0.9967 -0.4741 -0.2016
  751SOL    HW1 3002   0.159   0.218   2.482  0.6660  0.0542 -1.2485
  751SOL    HW2 3003   0.221   0.309   2.366  0.9028 -1.1574 -0.5022
  751SOL     MW 3004   0.195   0.294   2.447  0.9406 -0.4946 -0.3794
  752SOL     OW 3005   2.127   0.798   2.735 -0.0421  0.3224 -0.2324
  752SOL    HW1 3006   2.213   0.836   2.715  0.0967  0.9544 -1.4271
  752SOL    HW2 3007   2.097   0.812   2.826 -0.2293  0.4267  0.4845
  752SOL     MW 3008   2.135   0.805   2.744 -0.0484  0.4195 -0.2954
  753SOL     OW 3009   2.862   0.193   2.385 -1.0433 -0.2935 -0.2560
  753SOL    HW1 3010   2.819   0.105   2.367 -2.8343 -1.9680  0.1362
  753SOL    HW2 3011   2.813   0.252   2.329  0.3537  1.8480  1.2114
  753SOL     MW 3012   2.850   0.189   2.375 -1.0953 -0.2319 -0.0106
  754SOL     OW 3013   2.229   2.978   2.588  0.1879 -0.6347 -0.1346
  754SOL    HW1 3014   2.253   2.964   2.495 -3.4654 -1.1758 -1.6554
  754SOL    HW2 3015   2.305   2.935   2.634  2.1461  1.4369  1.2117
  754SOL     MW 3016   2.242   2.971   2.582 -0.0357 -0.4328 -0.1576
  755SOL     OW 3017   2.715   1.532   2.455  0.1264  0.2931 -0.4330
  755SOL    HW1 3018   2.730   1.457   2.515  0.7450 -0.4283  0.0065
  755SOL    HW2 3019   2.777   1.606   2.486  0.1687  2.0430 -2.6302
  755SOL     MW 3020   2.725   1.532   2.467  0.2136  0.4288 -0.6649
  756SOL     OW 3021   2.212   1.220   2.984 -0.1152 -0.2828 -0.5332
  756SOL    HW1 3022   2.279   1.289   3.000 -2.3720 -0.5622  0.7240
  756SOL    HW2 3023   2.256   1.136   3.011 -0.7621  1.8140  0.1098
  756SOL     MW 3024   2.227   1.218   2.989 -0.4983 -0.0430 -0.2825
  757SOL     OW 3025   2.159   0.887   1.604  0.3309  0.0966  0.6657
  757SOL    HW1 3026   2.171   0.792   1.607  1.7345  1.0257 -0.6807
  757SOL    HW2 3027   2.079   0.913   1.553 -1.7954  0.3003 -2.7709
  757SOL     MW 3028   2.150   0.877   1.598  0.2356  0.2461  0.0346
  758SOL     OW 3029   2.214   1.858   2.610 -0.5442  0.5701 -0.3032
  758SOL    HW1 3030   2.188   1.901   2.533 -1.0257 -2.6002  1.3679
  758SOL    HW2 3031   2.308   1.843   2.599 -1.1906 -0.2125  0.2938
  758SOL     MW 3032   2.223   1.862   2.598 -0.6930  0.0486 -0.0039
  759SOL     OW 3033   1.552   1.265   2.685 -0.4815  0.2785  0.1714
  759SOL    HW1 3034   1.542   1.360   2.653 -0.3877 -0.0437  0.9064
  759SOL    HW2 3035   1.581   1.268   2.778 -0.8230 -0.8421  0.7100
  759SOL     MW 3036   1.554   1.278   2.693 -0.5142  0.0882  0.3395
  760SOL     OW 3037   2.509   1.972   2.735 -0.4493  0.2085  0.2326
  760SOL    HW1 3038   2.517   1.883   2.695  1.2299  0.9008 -2.3618
  760SOL    HW2 3039   2.521   2.034   2.664  1.6540 -2.9155 -2.3200
  760SOL     MW 3040   2.511   1.968   2.721  0.0497 -0.1124 -0.4465
  761SOL     OW 3041   2.153   0.389   2.520 -0.2584  0.8943  0.3220
  761SOL    HW1 3042   2.114   0.316   2.564  2.6311 -1.2658  2.6114
  761SOL    HW2 3043   2.211   0.433   2.591  2.1096 -0.9938  0.2838
  761SOL     MW 3044   2.155   0.385   2.535  0.4353  0.3602  0.6190
  762SOL     OW 3045   3.019   0.193   2.133  0.2075  0.2148  0.9233
  762SOL    HW1 3046   3.049   0.135   2.202  0.9386  3.8409  0.5224
  762SOL    HW2 3047   3.003   0.284   2.176 -2.2618  0.6143 -0.8476
  762SOL     MW 3048   3.021   0.198   2.148 -0.0218  0.7460  0.6367
  763SOL     OW 3049   2.320   1.033   2.346 -0.0228 -0.3647 -0.3769
  763SOL    HW1 3050   2.400   1.025   2.292  2.4950 -2.2723  2.8457
  763SOL    HW2 3051   2.341   1.119   2.393  0.8596  4.6599 -0.6108
  763SOL     MW 3052   2.333   1.043   2.345  0.4258  0.0465  0.0174
  764SOL     OW 3053   0.466   0.245   2.804 -0.6934  0.2331  0.4475
  764SOL    HW1 3054   0.370   0.230   2.787 -0.9602  2.2398 -1.9705
  764SOL    HW2 3055   0.464   0.340   2.813  1.3905  0.6475  0.8402
  764SOL     MW 3056   0.453   0.256   2.803 -0.4536  0.5526  0.1803
  765SOL     OW 3057   2.742   3.059   2.357  0.4185 -0.4005  0.0829
  765SOL    HW1 3058   2.700   3.064   2.271 -1.9197 -1.0423  2.9489
  765SOL    HW2 3059   2.822   3.004   2.340  1.0737  0.6200 -0.1580
  765SOL     MW 3060   2.747   3.053   2.344  0.1965 -0.3505  0.4292
  766SOL     OW 3061   1.873   2.963   2.170  0.0858 -0.3436  0.3910
  766SOL    HW1 3062   1.923   3.029   2.116  1.2151  1.8343  0.1079
  766SOL    HW2 3063   1.814   2.925   2.103 -1.1817  2.0302  0.2890
  766SOL     MW 3064   1.871   2.967   2.154  0.0675  0.2570  0.3402
  767SOL     OW 3065   2.697   0.585   2.098  0.3134 -0.9190 -0.0486
  767SOL    HW1 3066   2.722   0.679   2.104 -0.1141 -0.2833  1.7611
  767SOL    HW2 3067   2.612   0.574   2.047 -1.6349  2.7268  0.2779
  767SOL     MW 3068   2.689   0.596   2.092 -0.0000 -0.3541  0.2332
  768SOL     OW 3069   3.096   1.570   2.943 -0.3411 -0.6945 -1.2451
  768SOL    HW1 3070   3.092   1.537   3.042 -0.6916 -4.2315  1.9317
  768SOL    HW2 3071   3.130   1.493   2.894 -0.6515  3.0527  2.0430
  768SOL     MW 3072   3.100   1.556   2.950 -0.4283 -0.6668 -0.3922
  769SOL     OW 3073   2.463   0.687   2.362  0.3828  0.2318  0.5588
  769SOL    HW1 3074   2.369   0.660   2.358 -1.3151  0.2923 -2.9514
  769SOL    HW2 3075   2.470   0.726   2.276  1.3608 -1.9756 -0.1198
  769SOL     MW 3076   2.451   0.688   2.351  0.2878 -0.0514  0.0061
  770SOL     OW 3077   0.017   1.637   2.574 -1.2085  0.0492 -0.2021
  770SOL    HW1 3078  -0.072   1.635   2.569 -0.4132 -3.6758 -2.5451
  770SOL    HW2 3079   0.042   1.554   2.621  4.3875  1.1298  0.2858
  770SOL     MW 3080   0.009   1.626   2.579 -0.3652 -0.2997 -0.4468
  771SOL     OW 3081   3.058   0.602   2.070  0.0502 -0.1883 -0.2062
  771SOL    HW1 3082   2.978   0.583   2.018 -1.9412 -1.7120  0.0128
  771SOL    HW2 3083   3.136   0.566   2.013  2.6920  1.1320 -0.8485
  771SOL     MW 3084   3.058   0.594   2.056  0.1360 -0.2151 -0.2621
  772SOL     OW 3085   0.066   0.011   2.302 -0.0118  0.4344 -0.1056
  772SOL    HW1 3086  -0.010  -0.040   2.301  0.2571  0.2049  1.3902
  772SOL    HW2 3087   0.121  -0.022   2.229 -0.6384  0.3437 -1.7998
  772SOL     MW 3088   0.063  -0.000   2.292 -0.0590  0.3922 -0.1318
  773SOL     OW 3089   2.414   2.864   2.753  0.4511  0.0874 -0.0583
  773SOL    HW1 3090   2.420   2.785   2.699 -0.6972  1.2310 -2.8020
  773SOL    HW2 3091   2.393   2.831   2.839 -0.9060 -2.2550  0.3182
  773SOL     MW 3092   2.412   2.849   2.757  0.1205 -0.0708 -0.3706
  774SOL     OW 3093   2.345   1.159   1.726  0.1222  0.1827 -0.0641
  774SOL    HW1 3094   2.327   1.225   1.656 -0.8107  0.6992 -0.3326
  774SOL    HW2 3095   2.294   1.084   1.718  0.1126  1.2202 -0.5883
  774SOL     MW 3096   2.336   1.158   1.716 -0.0022  0.3878 -0.1687
  775SOL     OW 3097   2.332   2.883   2.324  0.3261  0.3139  0.0323
  775SOL    HW1 3098   2.347   2.967   2.279 -0.8684  3.0748 -0.3246
  775SOL    HW2 3099   2.391   2.813   2.299 -0.7726  0.7117 -0.5868
  775SOL     MW 3100   2.342   2.885   2.315  0.0236  0.7307 -0.0965
  776SOL     OW 3101   0.023   1.511   0.093  0.0616  0.3064  0.4731
  776SOL    HW1 3102   0.114   1.485   0.088 -0.4192 -1.7881 -0.2253
  776SOL    HW2 3103  -0.023   1.427   0.105  2.1620  0.2345 -2.1759
  776SOL     MW 3104   0.029   1.496   0.094  0.2753  0.0205  0.0314
  777SOL     OW 3105   2.980   1.033   1.747 -0.0217 -0.5838  0.4860
  777SOL    HW1 3106   2.925   1.100   1.697  0.7638 -0.2323 -5.4219
  777SOL    HW2 3107   2.922   0.985   1.802 -1.1837 -1.9135 -1.6922
  777SOL     MW 3108   2.965   1.036   1.747 -0.0714 -0.7129 -0.5809
  778SOL     OW 3109   2.887   0.430   2.765 -0.0757 -0.7662 -0.1111
  778SOL    HW1 3110   2.847   0.460   2.851 -0.5931 -1.1853  0.4065
  778SOL    HW2 3111   2.917   0.509   2.722  1.2855 -1.9122  0.0684
  778SOL     MW 3112   2.886   0.445   2.771  0.0357 -0.9727 -0.0191
  779SOL     OW 3113   2.124   0.571   2.313 -0.1952 -0.3989  0.3479
  779SOL    HW1 3114   2.094   0.652   2.346 -2.3378  1.8636 -2.1813
  779SOL    HW2 3115   2.110   0.514   2.383 -1.8733  2.5521 -2.1656
  779SOL     MW 3116   2.118   0.574   2.326 -0.6993  0.2890 -0.3175
  780SOL     OW 3117   0.225   0.137   2.825 -0.1709 -0.1910  0.2485
  780SOL    HW1 3118   0.174   0.175   2.896  0.8660  1.6529  0.3621
  780SOL    HW2 3119   0.167   0.102   2.752 -1.9994 -0.8451 -0.6789
  780SOL     MW 3120   0.211   0.137   2.825 -0.2753 -0.0340  0.1411
  781SOL     OW 3121   3.072   1.334   2.508 -0.0246  0.3805 -0.3162
  781SOL    HW1 3122   3.071   1.389   2.432 -1.5465  0.3071 -0.7406
  781SOL    HW2 3123   3.090   1.247   2.485 -0.0168  3.3919 -2.4948
  781SOL     MW 3124   3.074   1.330   2.495 -0.2244  0.7681 -0.6596
  782SOL     OW 3125   0.518   1.626   3.052 -0.4901 -0.4966 -0.0516
  782SOL    HW1 3126   0.474   1.712   3.048  0.2729  0.2699 -0.3818
  782SOL    HW2 3127   0.521   1.611   3.152 -1.0503 -1.1022  2.4245
  782SOL     MW 3128   0.512   1.635   3.064 -0.4633 -0.4754  0.2315
  783SOL     OW 3129   2.787   0.552   2.480 -0.0501  0.1587  0.1174
  783SOL    HW1 3130   2.763   0.533   2.388 -2.3924 -2.2360 -0.5681
  783SOL    HW2 3131   2.734   0.495   2.531 -0.3168  0.6836 -2.1593
  783SOL     MW 3132   2.777   0.542   2.475 -0.3943 -0.0880 -0.2734
  784SOL     OW 3133   0.254   0.910   2.919 -0.5703 -0.0632 -0.1792
  784SOL    HW1 3134   0.255   0.979   2.985 -1.2964  4.8968  0.7587
  784SOL    HW2 3135   0.247   0.974   2.848  1.5975 -1.7854  1.7711
  784SOL     MW 3136   0.253   0.928   2.918 -0.3801  0.3640  0.2018
  785SOL     OW 3137   0.369   0.480   2.133 -0.3396 -0.2547 -0.6367
  785SOL    HW1 3138   0.378   0.518   2.046 -0.4263 -1.9634  1.2610
  785SOL    HW2 3139   0.319   0.398   2.128  1.9515  2.2045 -1.7795
  785SOL     MW 3140   0.364   0.474   2.121 -0.0488 -0.1557 -0.5371
  786SOL     OW 3141   1.972   0.476   2.865 -0.2282  0.3842 -0.1832
  786SOL    HW1 3142   1.974   0.526   2.944  2.3632  0.0230 -0.6737
  786SOL    HW2 3143   2.060   0.492   2.826 -0.9932 -0.1762  3.0572
  786SOL     MW 3144   1.984   0.485   2.871  0.0128  0.2626  0.1796
  787SOL     OW 3145   2.416   0.178   2.897  0.6663  0.7141  0.2881
  787SOL    HW1 3146   2.459   0.109   2.849  1.3507 -0.1231 -1.0674
  787SOL    HW2 3147   2.480   0.238   2.926  0.1094 -1.3125  1.6103
  787SOL     MW 3148   2.430   0.177   2.894  0.6831  0.3363  0.2837
  788SOL     OW 3149   2.966   2.922   2.276  0.0207 -0.2842  0.2312
  788SOL    HW1 3150   2.955   2.847   2.211  1.7382 -2.0179  0.7975
  788SOL    HW2 3151   3.033   2.887   2.336 -0.4488 -0.1382  2.1795
  788SOL     MW 3152   2.974   2.908   2.275  0.1854 -0.4937  0.5630
  789SOL     OW 3153   0.036   0.231   3.005 -0.8603  0.0936  1.0048
  789SOL    HW1 3154  -0.056   0.264   2.990 -0.8473  1.4785 -1.7886
  789SOL    HW2 3155   0.070   0.287   3.071  0.7501 -0.5631 -0.8953
  789SOL     MW 3156   0.028   0.243   3.012 -0.6461  0.1897  0.3856
  790SOL     OW 3157   0.006   1.047   2.454  0.3778  0.3355  0.7368
  790SOL    HW1 3158  -0.028   1.012   2.533 -0.8387  0.2845 -1.6053
  790SOL    HW2 3159  -0.061   1.028   2.388  0.3696  0.8550  1.6381
  790SOL     MW 3160  -0.008   1.040   2.456  0.2162  0.3973  0.5467
  791SOL     OW 3161   2.638   0.396   2.643  0.2603 -0.0433 -0.2571
  791SOL    HW1 3162   2.575   0.452   2.680  0.2662  0.4169 -2.3199
  791SOL    HW2 3163   2.720   0.407   2.691  1.2265  2.6422 -2.5366
  791SOL     MW 3164   2.640   0.405   2.654  0.3886  0.3718 -0.8300
  792SOL     OW 3165   2.378   0.240   2.394  0.4787 -0.1782 -0.0346
  792SOL    HW1 3166   2.294   0.289   2.421  0.0486 -2.4544  0.1829
  792SOL    HW2 3167   2.416   0.203   2.473  1.6308  2.4990 -2.0146
  792SOL     MW 3168   2.372   0.241   2.408  0.5739 -0.1253 -0.2671
  793SOL     OW 3169   1.761   1.004   1.873 -0.7015  0.6179 -0.3477
  793SOL    HW1 3170   1.768   1.042   1.791  1.1197 -0.1239 -0.5380
  793SOL    HW2 3171   1.840   0.949   1.874 -3.2461 -0.7631  0.8983
  793SOL     MW 3172   1.773   1.002   1.862 -0.7970  0.3378 -0.2084
  794SOL     OW 3173   1.427   2.287   0.127 -0.2857 -0.0626  0.3174
  794SOL    HW1 3174   1.452   2.367   0.078 -1.4303  0.7977 -1.7025
  794SOL    HW2 3175   1.461   2.306   0.214 -0.5479  1.5710 -0.7294
  794SOL     MW 3176   1.435   2.300   0.132 -0.4713  0.2664 -0.0872
  795SOL     OW 3177   2.327   0.932   2.597  0.6888  0.0380 -0.4483
  795SOL    HW1 3178   2.288   1.009   2.637 -0.0319 -2.6609 -0.8087
  795SOL    HW2 3179   2.323   0.958   2.504  1.5267  0.3905 -0.8467
  795SOL     MW 3180   2.321   0.946   2.590  0.7042 -0.2715 -0.5484
  796SOL     OW 3181   0.318   0.676   2.765 -0.3676  0.1847 -0.1669
  796SOL    HW1 3182   0.270   0.743   2.815  1.0517 -0.0104  1.5132
  796SOL    HW2 3183   0.258   0.651   2.696  1.1308 -0.6254  0.8090
  796SOL     MW 3184   0.304   0.682   2.763  0.0174  0.0521  0.1835
  797SOL     OW 3185   2.597   0.119   2.567 -0.2221 -0.1810 -0.0698
  797SOL    HW1 3186   2.629   0.211   2.587  0.9944  2.8732  1.7929
  797SOL    HW2 3187   2.667   0.071   2.522 -0.3779 -0.5730  0.4934
  797SOL     MW 3188   2.610   0.125   2.564 -0.0822  0.1703  0.2503
  798SOL     OW 3189   2.361   0.059   2.186  0.7125 -0.1033 -0.4184
  798SOL    HW1 3190   2.395   0.114   2.258  0.1308 -0.1882  0.9946
  798SOL    HW2 3191   2.441   0.007   2.158 -0.2206 -1.9715 -0.8388
  798SOL     MW 3192   2.376   0.059   2.191  0.5127 -0.3610 -0.2874
  799SOL     OW 3193   2.482   2.927   0.199  0.0027  0.1614 -0.2048
  799SOL    HW1 3194   2.512   2.880   0.121  1.1322  0.1468  0.4143
  799SOL    HW2 3195   2.447   3.009   0.167 -0.5412 -1.4826  2.4010
  799SOL     MW 3196   2.481   2.932   0.184  0.0800 -0.0575  0.2207
  800SOL     OW 3197   1.902   3.099   1.766 -0.1851  0.0503 -0.2721
  800SOL    HW1 3198   1.843   3.026   1.787  0.0243  0.3189  0.8506
  800SOL    HW2 3199   1.966   3.097   1.842  1.0355  1.0486 -0.6058
  800SOL     MW 3200   1.903   3.089   1.779  0.0036  0.2174 -0.1680
  801SOL     OW 3201   2.800   1.290   2.565  0.1767 -0.4160  0.1767
  801SOL    HW1 3202   2.801   1.192   2.549  1.6109 -0.9865  1.7246
  801SOL    HW2 3203   2.891   1.310   2.545  1.0495 -0.0282  1.4659
  801SOL     MW 3204   2.812   1.280   2.560  0.4811 -0.4401  0.5510
  802SOL     OW 3205   2.559   1.517   2.766  0.0518 -0.3943  0.3316
  802SOL    HW1 3206   2.545   1.430   2.730 -1.1098 -0.4076 -1.4556
  802SOL    HW2 3207   2.647   1.507   2.806 -0.5965  0.2003 -0.8389
  802SOL     MW 3208   2.569   1.505   2.766 -0.1870 -0.3176 -0.0586
  803SOL     OW 3209   2.309   1.298   1.962 -0.3269  0.1263  0.2123
  803SOL    HW1 3210   2.273   1.238   2.025 -2.2332 -0.6384  0.3822
  803SOL    HW2 3211   2.321   1.246   1.878  2.4968 -0.6652  0.8765
  803SOL     MW 3212   2.306   1.283   1.959 -0.2059 -0.0790  0.3223
  804SOL     OW 3213   2.352   0.049   0.033  0.0980  0.1079  0.4464
  804SOL    HW1 3214   2.273   0.106   0.025 -1.0331 -2.8759 -0.1449
  804SOL    HW2 3215   2.393   0.082  -0.049 -0.0208  1.6621 -0.7134
  804SOL     MW 3216   2.347   0.061   0.021 -0.0669 -0.0807  0.2153
  805SOL     OW 3217   2.769   1.023   2.537 -0.3372  0.1449 -0.3643
  805SOL    HW1 3218   2.720   0.939   2.524  1.4417 -0.3517 -1.7070
  805SOL    HW2 3219   2.840   0.995   2.600 -1.4290 -2.6369  1.1679
  805SOL     MW 3220   2.772   1.009   2.544 -0.2465 -0.2876 -0.3393
  806SOL     OW 3221   2.677   0.354   2.246  0.2679 -0.0371 -0.6544
  806SOL    HW1 3222   2.592   0.356   2.293 -0.1413 -0.4801  0.6650
  806SOL    HW2 3223   2.670   0.441   2.205  2.6660 -0.0810 -2.1277
  806SOL     MW 3224   2.665   0.366   2.247  0.5303 -0.1013 -0.6747
  807SOL     OW 3225   0.026   1.144   2.038  0.0555  0.2415  0.6406
  807SOL    HW1 3226   0.068   1.060   2.011 -0.6276 -0.1992 -0.2845
  807SOL    HW2 3227  -0.034   1.111   2.108 -1.8974  1.5475  2.1583
  807SOL     MW 3228   0.024   1.128   2.044 -0.2923  0.3556  0.7188
  808SOL     OW 3229   2.569   3.086   2.795  0.2512  0.1841 -0.2263
  808SOL    HW1 3230   2.568   2.990   2.780 -0.6811 -1.5935  1.7941
  808SOL    HW2 3231   2.586   3.133   2.713  0.7117 -0.3131  3.1772
  808SOL     MW 3232   2.571   3.080   2.782  0.1890 -0.1161  0.4893
  809SOL     OW 3233   2.489   1.250   2.416  0.0916 -0.2482  0.0998
  809SOL    HW1 3234   2.505   1.228   2.510  1.8853 -1.6332 -1.9453
  809SOL    HW2 3235   2.568   1.264   2.369  0.6145 -0.8288 -0.8938
  809SOL     MW 3236   2.501   1.249   2.422  0.3972 -0.5075 -0.3011
  810SOL     OW 3237   2.162   1.188   2.175  0.5221  0.1765 -0.2900
  810SOL    HW1 3238   2.211   1.131   2.237 -2.5692  1.1286  1.5067
  810SOL    HW2 3239   2.074   1.147   2.167 -0.6971 -1.2688 -1.1283
  810SOL     MW 3240   2.157   1.175   2.182 -0.0467  0.1114 -0.1636
  811SOL     OW 3241   1.470   0.103   2.254 -0.2067  0.3519  0.1585
  811SOL    HW1 3242   1.561   0.097   2.278  0.3472 -1.4102  3.1691
  811SOL    HW2 3243   1.458   0.095   2.153 -1.5478 -1.7565 -1.9660
  811SOL     MW 3244   1.480   0.101   2.243 -0.3106 -0.1588  0.2754
  812SOL     OW 3245   1.399   2.769   2.103  0.4877  0.0235  0.4136
  812SOL    HW1 3246   1.483   2.783   2.052 -0.6667 -0.3100 -1.8477
  812SOL    HW2 3247   1.431   2.762   2.194  0.8621  1.8361  0.6242
  812SOL     MW 3248   1.414   2.770   2.109  0.3848  0.2186  0.1430
  813SOL     OW 3249   1.856   0.760   2.165 -0.1828 -0.2085 -0.0185
  813SOL    HW1 3250   1.829   0.678   2.202  1.6545  0.1415 -0.1731
  813SOL    HW2 3251   1.892   0.815   2.234  2.8069  2.5602 -0.5739
  813SOL     MW 3252   1.857   0.757   2.179  0.4541  0.2030 -0.1122
  814SOL     OW 3253   2.798   1.218   1.620 -0.2538 -0.4371  0.1488
  814SOL    HW1 3254   2.722   1.195   1.683 -1.3020 -3.1037 -1.6384
  814SOL    HW2 3255   2.784   1.171   1.536 -0.0418  3.0955 -0.9772
  814SOL     MW 3256   2.786   1.209   1.617 -0.3641 -0.3228 -0.2356
  815SOL     OW 3257   2.468   1.645   2.345  0.4098 -0.0707 -0.4504
  815SOL    HW1 3258   2.386   1.601   2.352 -2.5105  0.1736  1.9883
  815SOL    HW2 3259   2.535   1.583   2.374 -0.2788  1.8797 -3.9053
  815SOL     MW 3260   2.466   1.631   2.349 -0.0663  0.2188 -0.5845
  816SOL     OW 3261   0.670   0.701   2.703 -0.0489 -0.6442 -0.5456
  816SOL    HW1 3262   0.693   0.621   2.745  0.3972  0.2850 -2.7840
  816SOL    HW2 3263   0.592   0.682   2.641 -0.8322 -0.4692  1.3284
  816SOL     MW 3264   0.662   0.688   2.700 -0.0934 -0.4985 -0.5937
  817SOL     OW 3265   3.022   1.149   1.371 -0.6485  0.2222 -0.4336
  817SOL    HW1 3266   3.080   1.174   1.445  0.1942 -3.6213  0.5202
  817SOL    HW2 3267   3.014   1.228   1.313 -1.7929  0.9560 -4.1726
  817SOL     MW 3268   3.028   1.163   1.373 -0.6883 -0.1881 -0.8011
  818SOL     OW 3269   1.913   0.967   2.683 -0.0319 -0.4109  0.2196
  818SOL    HW1 3270   1.945   1.040   2.635  0.9819  0.2121  0.5355
  818SOL    HW2 3271   1.994   0.920   2.700  0.6666  1.4001 -0.9272
  818SOL     MW 3272   1.928   0.971   2.679  0.1940 -0.0897  0.1099
  819SOL     OW 3273   1.844   0.272   2.345  0.6803 -0.3337 -0.5503
  819SOL    HW1 3274   1.789   0.340   2.382  0.1483  1.0586  0.7077
  819SOL    HW2 3275   1.899   0.239   2.418 -0.6527 -1.7377 -1.8023
  819SOL     MW 3276   1.844   0.277   2.359  0.4343 -0.3353 -0.5495
  820SOL     OW 3277   2.479   1.732   2.618  0.3521  0.7055  0.1569
  820SOL    HW1 3278   2.489   1.659   2.677  2.6872 -0.8046 -0.6783
  820SOL    HW2 3279   2.472   1.682   2.534 -0.9197  1.5997 -3.5907
  820SOL     MW 3280   2.479   1.716   2.615  0.4924  0.6243 -0.4477
  821SOL     OW 3281   2.575   1.331   2.008 -0.0548 -0.1263 -0.9469
  821SOL    HW1 3282   2.574   1.406   1.946 -0.0023 -0.3074 -1.4738
  821SOL    HW2 3283   2.486   1.310   2.018  0.7413  0.5855  0.7372
  821SOL     MW 3284   2.563   1.338   2.001  0.0572 -0.0563 -0.7943
  822SOL     OW 3285   2.917   2.678   1.392  0.1800 -0.3797  0.8119
  822SOL    HW1 3286   2.855   2.746   1.368  0.3130 -0.8389  0.0544
  822SOL    HW2 3287   2.986   2.720   1.438 -0.5225 -1.5031 -1.8502
  822SOL     MW 3288   2.918   2.692   1.395  0.1048 -0.5885  0.3607
  823SOL     OW 3289   2.324   0.439   1.749  0.3808  0.7342 -0.0177
  823SOL    HW1 3290   2.407   0.391   1.732 -0.7506  0.1479 -2.8698
  823SOL    HW2 3291   2.254   0.378   1.717  0.5694 -1.1269 -1.5061
  823SOL     MW 3292   2.326   0.425   1.742  0.2564  0.4113 -0.5904
  824SOL     OW 3293   2.122   1.363   2.570 -0.2923  0.8516  0.8902
  824SOL    HW1 3294   2.167   1.395   2.488  0.2474  2.9410 -0.0202
  824SOL    HW2 3295   2.092   1.448   2.615  0.5819  1.7299  0.9645
  824SOL     MW 3296   2.124   1.378   2.565 -0.1057  1.2432  0.7799
  825SOL     OW 3297   2.145   2.396   0.379 -0.9237 -0.0430 -0.5293
  825SOL    HW1 3298   2.194   2.442   0.311  1.4495 -0.6232 -3.5630
  825SOL    HW2 3299   2.205   2.369   0.449 -0.6915  1.9788 -2.8453
  825SOL     MW 3300   2.159   2.399   0.379 -0.5800  0.1472 -1.2352
  826SOL     OW 3301   1.743   2.375   0.408 -0.3550  0.8831  0.2780
  826SOL    HW1 3302   1.752   2.302   0.475  1.4425  0.3379  2.2730
  826SOL    HW2 3303   1.753   2.453   0.471  2.8778  1.1829  2.8343
  826SOL     MW 3304   1.745   2.376   0.425  0.3087  0.8508  0.8785
  827SOL     OW 3305   1.938   2.288   0.860  0.4412 -0.1839 -0.3327
  827SOL    HW1 3306   1.875   2.270   0.785 -0.8595 -1.0368  0.7110
  827SOL    HW2 3307   1.891   2.229   0.925 -3.6304 -0.3645  1.6358
  827SOL     MW 3308   1.923   2.278   0.859 -0.2676 -0.3202  0.0648
  828SOL     OW 3309   0.055   2.601   0.559  0.5386  0.2728 -0.2934
  828SOL    HW1 3310   0.136   2.554   0.564  0.5263 -1.6023 -1.1088
  828SOL    HW2 3311   0.032   2.624   0.465  0.5664  1.3628  0.2590
  828SOL     MW 3312   0.063   2.598   0.547  0.5407  0.1692 -0.3281
  829SOL     OW 3313   2.997   2.887   1.215 -0.5019  0.0259 -0.7160
  829SOL    HW1 3314   2.932   2.880   1.152 -0.3065 -1.1879  1.8511
  829SOL    HW2 3315   3.048   2.807   1.218 -2.1496  0.3631  1.2435
  829SOL     MW 3316   2.995   2.876   1.207 -0.6935 -0.0898 -0.1187
  830SOL     OW 3317   2.501   2.779   1.985  1.0335 -0.1490  0.2887
  830SOL    HW1 3318   2.419   2.825   1.970 -3.0898  0.8844 -1.4365
  830SOL    HW2 3319   2.535   2.760   1.897 -1.8494 -2.6427  0.7193
  830SOL     MW 3320   2.495   2.782   1.971  0.1091 -0.3417  0.1179
  831SOL     OW 3321   2.458   2.433   1.214 -0.0963  0.0639  0.6712
  831SOL    HW1 3322   2.438   2.358   1.279  0.7688 -3.9003  0.6719
  831SOL    HW2 3323   2.553   2.435   1.196 -0.0978  0.3404 -0.6828
  831SOL     MW 3324   2.468   2.423   1.220  0.0176 -0.4227  0.4927
  832SOL     OW 3325   2.421   2.121   1.912  0.3420  0.0608  0.3155
  832SOL    HW1 3326   2.458   2.208   1.911  3.0518  1.8960 -1.0520
  832SOL    HW2 3327   2.488   2.067   1.865 -1.1518  0.6627 -2.7422
  832SOL     MW 3328   2.434   2.125   1.906  0.5025  0.3823 -0.2684
  833SOL     OW 3329   1.628   2.539   0.838 -0.0890 -0.7173  0.1754
  833SOL    HW1 3330   1.602   2.473   0.913  0.3699 -5.1684 -4.3369
  833SOL    HW2 3331   1.565   2.617   0.837 -2.1874  0.5081 -0.9426
  833SOL     MW 3332   1.616   2.540   0.848 -0.3053 -1.1429 -0.5675
  834SOL     OW 3333   2.256   2.369   0.646  0.0039  0.1377  0.3607
  834SOL    HW1 3334   2.233   2.281   0.683 -0.2363 -2.5697  1.0020
  834SOL    HW2 3335   2.346   2.377   0.653 -0.9782  2.5918 -0.0221
  834SOL     MW 3336   2.265   2.358   0.652 -0.1574  0.1043  0.3948
  835SOL     OW 3337   1.787   2.533   0.613  0.9224 -0.1855 -0.1284
  835SOL    HW1 3338   1.734   2.561   0.684  2.3245 -2.3613  1.0275
  835SOL    HW2 3339   1.844   2.459   0.644  2.3443  0.5285  3.4267
  835SOL     MW 3340   1.787   2.527   0.627  1.2950 -0.3784  0.4932
  836SOL     OW 3341   2.097   2.086   1.710  0.3406 -0.3685  0.7302
  836SOL    HW1 3342   2.178   2.041   1.717 -1.5405  0.1565  1.2469
  836SOL    HW2 3343   2.110   2.172   1.752  0.0983  0.8219 -1.8904
  836SOL     MW 3344   2.109   2.092   1.717  0.0604 -0.1421  0.4526
  837SOL     OW 3345   2.102   0.172   0.624 -0.3300  0.1318 -0.3751
  837SOL    HW1 3346   2.028   0.198   0.578  2.9778  0.0255 -1.2537
  837SOL    HW2 3347   2.132   0.102   0.567  0.0959  0.7310 -1.0337
  837SOL     MW 3348   2.096   0.166   0.610  0.1626  0.1968 -0.5779
  838SOL     OW 3349   2.912   2.055   0.899  0.5138 -0.0320 -0.0404
  838SOL    HW1 3350   2.830   2.010   0.899 -0.9176 -0.4369 -0.9236
  838SOL    HW2 3351   2.932   2.053   0.996 -1.0827  2.8596 -0.0915
  838SOL     MW 3352   2.904   2.049   0.912  0.1143  0.2961 -0.1637
  839SOL     OW 3353   1.550   2.390   1.049 -0.7782  0.3015  0.2619
  839SOL    HW1 3354   1.521   2.463   1.098 -1.0700 -0.6050 -0.7029
  839SOL    HW2 3355   1.545   2.316   1.123  0.1642 -0.0275 -0.5677
  839SOL     MW 3356   1.546   2.390   1.065 -0.6923  0.1385  0.0251
  840SOL     OW 3357   2.433   2.105   2.329  0.1903  0.1119 -0.3846
  840SOL    HW1 3358   2.369   2.178   2.311 -3.0453 -0.5512  0.4691
  840SOL    HW2 3359   2.488   2.134   2.403  1.2461  0.4211  0.8999
  840SOL     MW 3360   2.431   2.118   2.336 -0.0973  0.0652 -0.1025
  841SOL     OW 3361   2.328   2.289   0.118  0.1213  0.0809  0.1843
  841SOL    HW1 3362   2.337   2.365   0.061 -1.2907 -0.0416 -2.2434
  841SOL    HW2 3363   2.241   2.258   0.092  0.9220 -2.0729  2.7393
  841SOL     MW 3364   2.318   2.295   0.107  0.0407 -0.2194  0.2011
  842SOL     OW 3365   2.634   1.916   1.454  0.1401  0.3892  0.8311
  842SOL    HW1 3366   2.566   1.853   1.439  0.7905 -0.5928  1.6517
  842SOL    HW2 3367   2.642   1.963   1.368 -0.5525 -1.3840 -0.9419
  842SOL     MW 3368   2.626   1.914   1.441  0.1345  0.0257  0.7054
  843SOL     OW 3369   2.640   2.778   1.756  0.2685  0.3748  0.5308
  843SOL    HW1 3370   2.735   2.759   1.777  2.5721 -3.7436 -1.0338
  843SOL    HW2 3371   2.608   2.689   1.720  1.0981 -1.3987  0.2848
  843SOL     MW 3372   2.648   2.764   1.754  0.6819 -0.4025  0.2919
  844SOL     OW 3373   2.705   2.329   1.099 -0.4462  0.1461 -0.4947
  844SOL    HW1 3374   2.700   2.373   1.015 -2.3234 -0.3488  0.9269
  844SOL    HW2 3375   2.779   2.368   1.150  1.5911 -1.7281 -1.3180
  844SOL     MW 3376   2.714   2.340   1.095 -0.4251 -0.1664 -0.4158
  845SOL     OW 3377   2.862   2.598   0.292 -0.2032  0.0171  0.2499
  845SOL    HW1 3378   2.825   2.522   0.333  1.5243  0.4633 -1.1582
  845SOL    HW2 3379   2.873   2.670   0.348  0.3445  0.4106 -1.2180
  845SOL     MW 3380   2.858   2.597   0.305  0.0970  0.1279 -0.1296
  846SOL     OW 3381   1.470   2.761   0.795  0.0307 -0.0994 -0.1184
  846SOL    HW1 3382   1.518   2.843   0.817 -0.4687  0.2601  0.7334
  846SOL    HW2 3383   1.376   2.778   0.797  0.8688 -0.3004 -2.0013
  846SOL     MW 3384   1.464   2.774   0.798  0.0753 -0.0785 -0.2544
  847SOL     OW 3385   2.475   1.848   0.225 -0.6316 -0.1412  0.0648
  847SOL    HW1 3386   2.430   1.766   0.265 -0.4087 -1.2355 -0.2512
  847SOL    HW2 3387   2.452   1.848   0.122 -0.0437  2.1647 -0.7689
  847SOL     MW 3388   2.466   1.837   0.217 -0.5246  0.0187 -0.0869
  848SOL     OW 3389   2.684   2.055   1.200 -0.0443 -0.1918 -0.5273
  848SOL    HW1 3390   2.721   2.135   1.158 -0.8263 -0.1087  2.3474
  848SOL    HW2 3391   2.686   1.986   1.134  0.1525 -2.7603  4.5156
  848SOL     MW 3392   2.689   2.057   1.186 -0.1215 -0.5198  0.5174
  849SOL     OW 3393   1.955   2.850   0.812 -0.6403 -0.1233  0.5273
  849SOL    HW1 3394   1.899   2.811   0.881  1.6224 -0.6875  3.2442
  849SOL    HW2 3395   2.016   2.778   0.789 -0.2941 -2.5691  1.0523
  849SOL     MW 3396   1.956   2.835   0.818 -0.2961 -0.5204  0.9551
  850SOL     OW 3397   2.310   1.894   1.623  0.0810  0.7092 -0.2010
  850SOL    HW1 3398   2.228   1.888   1.567  2.6288 -2.3326  0.4084
  850SOL    HW2 3399   2.345   1.987   1.609  0.8998  3.4028 -0.1194
  850SOL     MW 3400   2.304   1.906   1.614  0.5252  0.6633 -0.1098
  851SOL     OW 3401   2.487   2.220   0.382  0.9686 -0.2298  0.4078
  851SOL    HW1 3402   2.527   2.200   0.296  1.4128 -3.5809 -1.3498
  851SOL    HW2 3403   2.468   2.315   0.369  0.8343 -0.9137 -0.6944
  851SOL     MW 3404   2.490   2.230   0.369  1.0095 -0.7622  0.0305
  852SOL     OW 3405   2.292   2.004   0.365 -0.3674 -0.4009 -0.3384
  852SOL    HW1 3406   2.310   2.096   0.363 -1.0997 -0.1425 -1.7435
  852SOL    HW2 3407   2.345   1.971   0.291 -2.4049  1.8894 -0.0264
  852SOL     MW 3408   2.301   2.012   0.355 -0.7329 -0.0646 -0.4826
  853SOL     OW 3409   2.530   2.372   1.923  0.5266 -0.1278 -0.1883
  853SOL    HW1 3410   2.505   2.430   1.851 -0.8837 -0.9592 -1.0640
  853SOL    HW2 3411   2.626   2.381   1.941 -1.6492 -1.5819  0.2349
  853SOL     MW 3412   2.539   2.381   1.916  0.0534 -0.4294 -0.2480
  854SOL     OW 3413   2.888   2.288   0.734  0.7736 -0.3989 -0.4122
  854SOL    HW1 3414   2.821   2.252   0.676 -1.1456  1.1273  3.6928
  854SOL    HW2 3415   2.899   2.214   0.799  0.4759 -0.3783  2.0955
  854SOL     MW 3416   2.881   2.274   0.735  0.4811 -0.1948  0.4603
  855SOL     OW 3417   2.781   2.382   0.428  0.2801  0.4167 -0.4104
  855SOL    HW1 3418   2.697   2.353   0.466  2.7621  1.2732  1.8301
  855SOL    HW2 3419   2.830   2.302   0.408 -0.5898  1.5704  0.8668
  855SOL     MW 3420   2.776   2.368   0.430  0.4928  0.6819  0.0537
  856SOL     OW 3421   2.058   1.858   0.233 -0.1872  0.2328 -0.0768
  856SOL    HW1 3422   1.974   1.878   0.279  0.2696 -0.0526  0.1964
  856SOL    HW2 3423   2.123   1.898   0.291  2.9249 -0.2267 -1.8188
  856SOL     MW 3424   2.055   1.866   0.247  0.2837  0.1345 -0.2706
  857SOL     OW 3425   2.471   1.950   0.579 -0.0023 -0.3757  0.2935
  857SOL    HW1 3426   2.413   1.982   0.504 -1.4334 -1.8255 -0.0124
  857SOL    HW2 3427   2.396   1.945   0.649 -2.2687  1.1375  1.8213
  857SOL     MW 3428   2.453   1.953   0.579 -0.4902 -0.3673  0.4547
  858SOL     OW 3429   2.897   2.686   1.785 -0.2822  0.6847  0.2755
  858SOL    HW1 3430   2.977   2.731   1.815 -0.0871 -2.8062  2.2130
  858SOL    HW2 3431   2.922   2.608   1.734 -0.6897  1.3754  1.7114
  858SOL     MW 3432   2.911   2.682   1.782 -0.3102  0.3153  0.7206
  859SOL     OW 3433   1.815   2.690   0.987 -0.8305  0.1536 -0.7793
  859SOL    HW1 3434   1.750   2.638   0.936 -2.1086 -0.7854 -2.2417
  859SOL    HW2 3435   1.882   2.632   1.018  1.7156 -3.0031 -1.2412
  859SOL     MW 3436   1.815   2.676   0.984 -0.6632 -0.3867 -1.0332
  860SOL     OW 3437   2.612   2.581   0.156  0.2633 -0.2008 -0.3919
  860SOL    HW1 3438   2.696   2.572   0.209 -1.2417 -1.0044  0.2035
  860SOL    HW2 3439   2.626   2.655   0.099  0.0337  1.0988 -2.3548
  860SOL     MW 3440   2.625   2.589   0.155  0.0344 -0.1354 -0.5723
  861SOL     OW 3441   1.630   2.140   1.201 -0.1180  0.0417 -0.1726
  861SOL    HW1 3442   1.635   2.222   1.248 -2.4471  1.9814 -1.0468
  861SOL    HW2 3443   1.548   2.095   1.225 -0.8776 -1.9237 -1.8095
  861SOL     MW 3444   1.620   2.145   1.210 -0.5255  0.0383 -0.5039
  862SOL     OW 3445   2.435   1.723   1.429 -0.7364 -0.1642  0.0883
  862SOL    HW1 3446   2.373   1.759   1.491  1.8042 -1.3292 -1.2622
  862SOL    HW2 3447   2.386   1.682   1.359  0.1948  2.4231 -1.2934
  862SOL     MW 3448   2.420   1.722   1.428 -0.2784  0.0234 -0.2722
  863SOL     OW 3449   2.966   1.714   0.976 -0.7129  0.2449 -0.2109
  863SOL    HW1 3450   3.061   1.715   0.997 -1.0403  0.0470 -0.6510
  863SOL    HW2 3451   2.919   1.752   1.048 -2.0417  0.2794 -1.3427
  863SOL     MW 3452   2.973   1.719   0.989 -0.9314  0.2234 -0.4183
  864SOL     OW 3453   0.021   1.774   0.754  0.2243 -0.6047  0.3885
  864SOL    HW1 3454  -0.055   1.753   0.810 -1.3356  0.5829 -0.7587
  864SOL    HW2 3455  -0.026   1.788   0.676  0.1157  0.9100  1.8026
  864SOL     MW 3456   0.005   1.773   0.751  0.0041 -0.2482  0.4237
  865SOL     OW 3457   2.568   2.163   0.103 -0.1726 -0.2519  0.2906
  865SOL    HW1 3458   2.530   2.075   0.090 -0.5007  0.6238 -0.0129
  865SOL    HW2 3459   2.483   2.207   0.094  1.3069 -1.2466  1.8436
  865SOL     MW 3460   2.552   2.157   0.100 -0.0207 -0.2676  0.4555
  866SOL     OW 3461   2.700   2.358   1.534  0.6146 -0.4743 -0.2637
  866SOL    HW1 3462   2.687   2.274   1.572 -2.6768  0.5784  0.6455
  866SOL    HW2 3463   2.729   2.347   1.440  2.0481 -0.1141 -2.5517
  866SOL     MW 3464   2.702   2.345   1.526  0.3695 -0.2879 -0.4456
  867SOL     OW 3465   0.100   2.642   1.733 -0.1830  0.3203  0.0204
  867SOL    HW1 3466   0.181   2.677   1.776  1.9951 -1.0397 -0.1213
  867SOL    HW2 3467   0.086   2.692   1.650 -0.0238  1.1875 -1.7501
  867SOL     MW 3468   0.108   2.653   1.728  0.1254  0.2553 -0.2319
  868SOL     OW 3469   2.746   2.698   0.561 -0.3414  0.1631  0.6354
  868SOL    HW1 3470   2.710   2.610   0.533 -0.3860 -4.2553 -0.7440
  868SOL    HW2 3471   2.676   2.759   0.542 -2.4613 -1.1433  1.3212
  868SOL     MW 3472   2.732   2.694   0.555 -0.6270 -0.5922  0.5438
  869SOL     OW 3473   2.009   2.473   1.049 -0.7337 -0.1659 -0.1138
  869SOL    HW1 3474   2.082   2.502   0.997  1.7125  0.2133  2.3398
  869SOL    HW2 3475   1.973   2.412   0.981 -1.5514 -2.4009 -0.6848
  869SOL     MW 3476   2.014   2.469   1.033 -0.5189 -0.4107  0.1346
  870SOL     OW 3477   2.236   3.079   0.473 -0.3025 -0.0662 -0.1839
  870SOL    HW1 3478   2.320   3.101   0.439 -1.1942 -2.0494 -1.7456
  870SOL    HW2 3479   2.247   3.002   0.527  2.6555 -0.1439  2.0367
  870SOL     MW 3480   2.249   3.072   0.476 -0.0299 -0.3381 -0.0969
  871SOL     OW 3481   2.483   2.110   0.894 -0.0627 -0.3253  0.4560
  871SOL    HW1 3482   2.417   2.044   0.872  1.4540 -0.5852  0.5575
  871SOL    HW2 3483   2.429   2.182   0.920 -0.0878  0.0588  0.6562
  871SOL     MW 3484   2.467   2.111   0.894  0.1341 -0.3089  0.4958
  872SOL     OW 3485   2.126   2.536   1.585  0.0289 -0.2216  1.1889
  872SOL    HW1 3486   2.071   2.582   1.649  0.4542 -1.0181  1.5278
  872SOL    HW2 3487   2.060   2.521   1.515 -2.3451  0.8949 -0.9636
  872SOL     MW 3488   2.110   2.540   1.584 -0.2282 -0.1793  0.9496
  873SOL     OW 3489   2.867   2.143   1.818  0.0067  0.8414 -0.5175
  873SOL    HW1 3490   2.852   2.228   1.867  1.4956 -0.5813  1.1119
  873SOL    HW2 3491   2.952   2.154   1.772 -0.3735  2.5659  0.3721
  873SOL     MW 3492   2.876   2.156   1.818  0.1530  0.8813 -0.1852
  874SOL     OW 3493   2.247   1.393   2.336  0.1394  0.3980 -0.4199
  874SOL    HW1 3494   2.212   1.323   2.273 -3.0109 -0.2019 -1.3789
  874SOL    HW2 3495   2.332   1.374   2.354 -0.7673 -0.4814 -0.0819
  874SOL     MW 3496   2.254   1.381   2.330 -0.3959  0.2028 -0.5018
  875SOL     OW 3497   2.388   2.369   0.945  0.0981 -0.1261  0.0680
  875SOL    HW1 3498   2.424   2.443   0.894 -1.4545 -0.5877 -1.7982
  875SOL    HW2 3499   2.409   2.391   1.037  1.5591 -0.1298  2.8265
  875SOL     MW 3500   2.395   2.382   0.950  0.0860 -0.1875  0.1857
  876SOL     OW 3501   3.076   2.242   1.300 -0.3324 -0.0025  0.1258
  876SOL    HW1 3502   3.144   2.306   1.271 -0.8748  2.3912  1.9707
  876SOL    HW2 3503   3.090   2.226   1.390 -1.9237 -1.6441 -1.0184
  876SOL     MW 3504   3.087   2.248   1.308 -0.6140  0.0967  0.2183
  877SOL     OW 3505   0.026   2.738   0.327 -0.6022 -0.0591 -0.0370
  877SOL    HW1 3506   0.077   2.817   0.320  0.0941 -2.6747 -1.9751
  877SOL    HW2 3507   0.013   2.694   0.240 -1.9566 -3.9696 -0.9979
  877SOL     MW 3508   0.031   2.743   0.315 -0.6890 -0.9202 -0.4195
  878SOL     OW 3509   2.261   1.679   1.170 -0.0264 -0.7315 -0.5169
  878SOL    HW1 3510   2.177   1.628   1.214 -0.9010 -0.0100  0.3294
  878SOL    HW2 3511   2.297   1.617   1.109 -0.8522 -0.3735 -1.7943
  878SOL     MW 3512   2.255   1.664   1.168 -0.2507 -0.5890 -0.5738
  879SOL     OW 3513   2.728   2.473   0.843  0.0340  0.1738 -0.0068
  879SOL    HW1 3514   2.787   2.546   0.859 -1.1465 -1.5839  0.1483
  879SOL    HW2 3515   2.784   2.415   0.782 -0.4566  2.2458 -1.4729
  879SOL     MW 3516   2.743   2.475   0.837 -0.1865  0.2153 -0.1798
  880SOL     OW 3517   2.582   2.215   0.667 -0.0252  0.0013  0.4858
  880SOL    HW1 3518   2.551   2.178   0.753  0.9710  0.2796 -1.4145
  880SOL    HW2 3519   2.575   2.152   0.600  2.7693 -2.4734 -0.8604
  880SOL     MW 3520   2.577   2.202   0.670  0.4750 -0.2885  0.0575
  881SOL     OW 3521   2.983   2.778   0.692  0.1132  0.1897  0.2364
  881SOL    HW1 3522   2.903   2.740   0.647  1.9110 -1.3325  1.5401
  881SOL    HW2 3523   3.067   2.750   0.648 -0.7403  0.2402  3.2335
  881SOL     MW 3524   2.984   2.769   0.680  0.2378 -0.0045  0.8038
  882SOL     OW 3525   2.250   2.894   1.938 -0.5664  0.5463 -0.0725
  882SOL    HW1 3526   2.248   2.908   1.841 -2.7756  0.5391 -0.3080
  882SOL    HW2 3527   2.206   2.812   1.956  0.5375  0.4832 -0.1043
  882SOL     MW 3528   2.244   2.885   1.928 -0.7122  0.5370 -0.1078
  883SOL     OW 3529   2.433   2.154   1.303  0.4359 -0.4896  0.1045
  883SOL    HW1 3530   2.518   2.131   1.270  1.6571  1.6766 -0.6678
  883SOL    HW2 3531   2.368   2.131   1.228  2.7448 -1.2955 -2.3401
  883SOL     MW 3532   2.435   2.148   1.289  0.9017 -0.3101 -0.3200
  884SOL     OW 3533   1.925   1.837   1.052 -0.3176  0.1405  0.0819
  884SOL    HW1 3534   1.858   1.906   1.039  0.1280 -0.5716  0.8964
  884SOL    HW2 3535   2.008   1.871   1.019 -0.0475 -1.1334 -0.4445
  884SOL     MW 3536   1.927   1.851   1.046 -0.2232 -0.1216  0.1199
  885SOL     OW 3537   2.914   2.435   1.689  0.9229  0.0554 -0.2544
  885SOL    HW1 3538   2.979   2.373   1.662 -2.2304 -1.8197  0.0212
  885SOL    HW2 3539   2.838   2.410   1.636 -0.9401 -3.6090 -0.5656
  885SOL     MW 3540   2.913   2.423   1.678  0.2611 -0.6755 -0.2591
  886SOL     OW 3541   2.889   2.431   1.273  0.3360 -0.3358 -0.1773
  886SOL    HW1 3542   2.962   2.375   1.285 -0.1553 -1.4305 -1.2829
  886SOL    HW2 3543   2.914   2.516   1.322  0.0898  3.4270  0.4999
  886SOL     MW 3544   2.902   2.435   1.281  0.2387  0.0162 -0.2339
  887SOL     OW 3545   2.333   2.708   1.555 -0.3957 -0.3190  0.6892
  887SOL    HW1 3546   2.360   2.719   1.462 -3.3686  2.3368 -1.3775
  887SOL    HW2 3547   2.251   2.653   1.551 -1.4720  0.6623  1.6537
  887SOL     MW 3548   2.326   2.702   1.542 -0.9299  0.1609  0.5437
  888SOL     OW 3549   2.052   2.160   1.403 -0.2462  0.1702  0.6274
  888SOL    HW1 3550   2.108   2.131   1.332 -2.0144 -0.0508 -0.7849
  888SOL    HW2 3551   2.112   2.189   1.468  2.4832  0.6027 -0.6005
  888SOL     MW 3552   2.067   2.160   1.402 -0.1194  0.1981  0.2790
  889SOL     OW 3553   2.284   1.911   2.048  0.0854 -0.6652  0.7859
  889SOL    HW1 3554   2.356   1.864   2.096  1.0445  0.6893  1.0674
  889SOL    HW2 3555   2.328   1.985   1.998 -0.7442 -0.9976 -1.2236
  889SOL     MW 3556   2.299   1.915   2.048  0.1025 -0.5304  0.5579
  890SOL     OW 3557   0.052   2.349   0.172 -0.0749  0.0905  0.0503
  890SOL    HW1 3558   0.009   2.436   0.172 -1.0287  0.7009 -0.4567
  890SOL    HW2 3559   0.059   2.306   0.252 -0.4921  1.3666  0.1468
  890SOL     MW 3560   0.047   2.355   0.182 -0.2558  0.3394 -0.0039
  891SOL     OW 3561   3.010   2.018   1.169 -0.0322 -0.7881  0.2639
  891SOL    HW1 3562   3.083   1.961   1.158 -0.8658 -3.4699 -0.3507
  891SOL    HW2 3563   3.034   2.107   1.210 -2.4650  2.1389 -1.4846
  891SOL     MW 3564   3.023   2.023   1.173 -0.4632 -0.7558 -0.0479
  892SOL     OW 3565   2.481   2.382   2.793 -0.0158 -0.6423 -0.0163
  892SOL    HW1 3566   2.447   2.307   2.836  0.5014  0.9399 -0.0160
  892SOL    HW2 3567   2.568   2.399   2.834  1.7732  1.0475  0.4922
  892SOL     MW 3568   2.488   2.374   2.804  0.2885 -0.2106  0.0508
  893SOL     OW 3569   1.645   2.333   1.379 -0.0496 -0.4056  0.1197
  893SOL    HW1 3570   1.563   2.388   1.399 -1.0433  0.9707 -0.8529
  893SOL    HW2 3571   1.699   2.357   1.455 -2.2512  1.0516  1.0155
  893SOL     MW 3572   1.641   2.343   1.392 -0.4712 -0.0317  0.1095
  894SOL     OW 3573   2.763   1.896   0.470  0.1163  1.0494  0.5111
  894SOL    HW1 3574   2.677   1.905   0.519  0.7943  1.5018 -2.2607
  894SOL    HW2 3575   2.736   1.860   0.390  0.1791  2.3334  0.0326
  894SOL     MW 3576   2.748   1.892   0.466  0.2140  1.2785  0.0822
  895SOL     OW 3577   2.257   2.115   1.117 -0.0837 -0.7745  0.0704
  895SOL    HW1 3578   2.207   2.179   1.062 -0.7333 -0.6743 -1.3142
  895SOL    HW2 3579   2.240   2.024   1.079 -2.5119 -3.5106 -0.2474
  895SOL     MW 3580   2.248   2.112   1.104 -0.4898 -1.1223 -0.1542
  896SOL     OW 3581   2.229   2.785   1.064  0.1449  0.7277  0.0112
  896SOL    HW1 3582   2.263   2.745   1.147 -1.2928  0.0457 -1.3288
  896SOL    HW2 3583   2.148   2.837   1.077  0.3163  0.7919  1.2248
  896SOL     MW 3584   2.223   2.786   1.077 -0.0222  0.6462 -0.0055
  897SOL     OW 3585   3.083   3.022   0.007  0.2237  0.4113  0.0896
  897SOL    HW1 3586   3.139   2.945   0.027  1.8882 -2.0859  1.5784
  897SOL    HW2 3587   3.041   3.004  -0.077  0.2715  1.0295 -3.8124
  897SOL     MW 3588   3.084   3.010  -0.002  0.4497  0.1634 -0.2288
  898SOL     OW 3589   2.188   0.141   1.454  0.2501  0.3876 -0.0436
  898SOL    HW1 3590   2.127   0.069   1.468 -0.8456  0.1830 -2.5451
  898SOL    HW2 3591   2.153   0.190   1.376  0.4977  1.5022  1.7473
  898SOL     MW 3592   2.175   0.138   1.446  0.1382  0.5077 -0.1373
  899SOL     OW 3593   2.918   3.020   0.618  0.4920 -0.0639  0.7554
  899SOL    HW1 3594   2.919   2.939   0.669  1.7212 -0.3451 -1.6513
  899SOL    HW2 3595   2.838   3.068   0.650  0.8529  3.4093  0.8539
  899SOL     MW 3596   2.907   3.016   0.629  0.7018  0.3572  0.4509
  900SOL     OW 3597   0.141   2.372   1.102  0.9848  0.6734 -0.1869
  900SOL    HW1 3598   0.071   2.435   1.095  0.4227  1.5672  1.4992
  900SOL    HW2 3599   0.121   2.307   1.033  0.0378  0.2400 -0.7864
  900SOL     MW 3600   0.129   2.372   1.092  0.7857  0.7341 -0.0435
  901SOL     OW 3601   1.752   2.878   1.782  0.8476 -0.1624 -0.0424
  901SOL    HW1 3602   1.829   2.838   1.756 -1.7163  3.3759 -0.1434
  901SOL    HW2 3603   1.683   2.868   1.720  2.6693  1.4067 -0.7954
  901SOL     MW 3604   1.753   2.871   1.771  0.7497  0.5115 -0.1551
  902SOL     OW 3605   2.644   2.109   1.664  0.0988 -0.1403  1.0156
  902SOL    HW1 3606   2.651   2.019   1.625  0.6372  0.6247 -1.4940
  902SOL    HW2 3607   2.726   2.120   1.714  1.6290 -0.1484  1.0399
  902SOL     MW 3608   2.656   2.098   1.666  0.3717 -0.0404  0.6877
  903SOL     OW 3609   1.514   2.646   0.538 -0.0775 -0.1634 -0.2704
  903SOL    HW1 3610   1.605   2.623   0.521  0.8326  1.9030  0.1664
  903SOL    HW2 3611   1.493   2.684   0.629 -0.0268  1.0979  3.9353
  903SOL     MW 3612   1.523   2.648   0.548  0.0493  0.2756  0.3421
  904SOL     OW 3613   2.516   2.542   1.694 -0.0603 -0.0259 -0.1517
  904SOL    HW1 3614   2.450   2.601   1.648  0.6872  0.4596 -1.3730
  904SOL    HW2 3615   2.556   2.489   1.626  0.1727  1.1220 -2.5314
  904SOL     MW 3616   2.513   2.543   1.679  0.0691  0.1896 -0.6268
  905SOL     OW 3617   2.337   2.476   2.090 -0.0454  0.3850  0.1463
  905SOL    HW1 3618   2.405   2.440   2.032 -0.5520  0.1179 -3.2034
  905SOL    HW2 3619   2.310   2.391   2.143  1.7690 -0.2292  1.5331
  905SOL     MW 3620   2.342   2.460   2.090  0.1271  0.2687 -0.1126
  906SOL     OW 3621   2.491   2.526   0.736 -0.2155  0.1557 -0.8173
  906SOL    HW1 3622   2.577   2.496   0.760 -1.9698  0.3470 -1.8597
  906SOL    HW2 3623   2.475   2.604   0.785 -0.6983 -0.8785 -0.5162
  906SOL     MW 3624   2.500   2.533   0.745 -0.5107  0.0445 -0.9151
  907SOL     OW 3625   2.659   2.823   1.302 -0.1783 -1.0723  0.0410
  907SOL    HW1 3626   2.705   2.891   1.357  0.7999 -0.1977 -1.0175
  907SOL    HW2 3627   2.697   2.831   1.216  1.3254  0.3686  4.3201
  907SOL     MW 3628   2.670   2.833   1.298  0.1491 -0.7668  0.4659
  908SOL     OW 3629   2.689   2.375   0.004 -0.4089 -0.5604 -0.5174
  908SOL    HW1 3630   2.665   2.295   0.055  0.2435  1.0367 -0.5196
  908SOL    HW2 3631   2.653   2.440   0.075 -1.1429 -0.3721  1.1585
  908SOL     MW 3632   2.681   2.373   0.020 -0.4197 -0.3248 -0.2966
  909SOL     OW 3633   1.685   0.092   1.318  0.3810  0.3887  0.4350
  909SOL    HW1 3634   1.652   0.186   1.318 -1.4081  0.4927 -0.7867
  909SOL    HW2 3635   1.654   0.050   1.403 -0.1238 -1.1217 -1.3091
  909SOL     MW 3636   1.677   0.099   1.329  0.0783  0.2032  0.0437
  910SOL     OW 3637   2.126   1.642   0.384  0.4373 -0.2923  0.2651
  910SOL    HW1 3638   2.084   1.561   0.341 -1.7592  1.4517  0.4957
  910SOL    HW2 3639   2.102   1.713   0.325  0.6089 -0.9137 -1.2412
  910SOL     MW 3640   2.118   1.641   0.371  0.1702 -0.1442  0.0968
  911SOL     OW 3641   2.367   2.166   1.567  0.5964  0.6135 -0.3537
  911SOL    HW1 3642   2.455   2.181   1.587  0.5550 -0.4103  0.3185
  911SOL    HW2 3643   2.375   2.167   1.466  1.4032 -0.1985  0.6980
  911SOL     MW 3644   2.380   2.168   1.556  0.6974  0.3713 -0.1262
  912SOL     OW 3645   2.919   1.865   1.380  0.0647 -0.1056  0.1510
  912SOL    HW1 3646   2.933   1.918   1.299 -0.8957  4.9147 -1.8350
  912SOL    HW2 3647   2.836   1.897   1.404  2.4871 -2.2350 -1.6994
  912SOL     MW 3648   2.910   1.876   1.372  0.2576  0.2758 -0.3552
  913SOL     OW 3649   2.692   0.016   0.254  0.1166  0.6814  0.1747
  913SOL    HW1 3650   2.778  -0.024   0.262 -0.8485 -0.8786 -0.4954
  913SOL    HW2 3651   2.624  -0.056   0.239  2.6782  0.2056 -1.4846
  913SOL     MW 3652   2.695   0.001   0.253  0.3272  0.4128 -0.1326
  914SOL     OW 3653   2.698   1.805   2.947 -0.4326  0.0315  0.4785
  914SOL    HW1 3654   2.715   1.897   2.953  0.1412 -2.4202  1.5069
  914SOL    HW2 3655   2.601   1.795   2.940 -1.2947  0.1809  0.7245
  914SOL     MW 3656   2.688   1.816   2.947 -0.4707 -0.2723  0.6467
  915SOL     OW 3657   1.811   0.114   0.105 -0.6135 -0.2640 -0.2689
  915SOL    HW1 3658   1.882   0.060   0.139  0.7992 -0.4202 -0.0030
  915SOL    HW2 3659   1.737   0.076   0.146  0.8447 -0.9726  0.4219
  915SOL     MW 3660   1.811   0.102   0.115 -0.2347 -0.3781 -0.1427
  916SOL     OW 3661   1.776   2.160   1.977  0.4176 -0.6069 -0.2297
  916SOL    HW1 3662   1.831   2.237   1.952 -2.5880 -1.6784 -0.6096
  916SOL    HW2 3663   1.785   2.105   1.896  2.1178 -1.0670 -0.2131
  916SOL     MW 3664   1.784   2.163   1.963  0.2454 -0.8090 -0.2776
  917SOL     OW 3665   2.551   2.204   2.582 -0.2753 -0.6215 -0.2494
  917SOL    HW1 3666   2.515   2.270   2.640 -0.3801 -1.5532 -2.4464
  917SOL    HW2 3667   2.626   2.242   2.547 -0.2464 -1.9059  2.9030
  917SOL     MW 3668   2.556   2.217   2.585 -0.2853 -0.9139 -0.1234
  918SOL     OW 3669   2.060   1.599   2.674 -0.4952 -0.2583  0.9844
  918SOL    HW1 3670   1.999   1.636   2.613 -1.3514 -0.1857 -1.0133
  918SOL    HW2 3671   2.125   1.666   2.674 -0.8754 -3.0917  0.7949
  918SOL     MW 3672   2.061   1.613   2.666 -0.6583 -0.6226  0.6959
  919SOL     OW 3673   3.047   2.433   2.282 -0.4120  0.1352  0.6424
  919SOL    HW1 3674   3.012   2.342   2.269 -0.2086 -1.8309 -3.1670
  919SOL    HW2 3675   3.082   2.448   2.196  1.9098 -0.8215  4.2157
  919SOL     MW 3676   3.047   2.423   2.269 -0.0789 -0.2505  0.6112
  920SOL     OW 3677   2.639   2.806   3.076  0.0615  0.6699  0.6294
  920SOL    HW1 3678   2.547   2.793   3.052 -0.4890 -1.2898  0.2940
  920SOL    HW2 3679   2.683   2.760   3.004 -0.9881  2.5582  2.3662
  920SOL     MW 3680   2.633   2.798   3.064 -0.1496  0.6605  0.8143
  921SOL     OW 3681   2.454   2.605   2.642 -0.5324 -0.3201 -0.6104
  921SOL    HW1 3682   2.541   2.603   2.607 -0.3420 -0.8049  2.0238
  921SOL    HW2 3683   2.461   2.519   2.684 -0.6854 -0.8530 -0.8497
  921SOL     MW 3684   2.466   2.593   2.643 -0.5274 -0.4544 -0.2944
  922SOL     OW 3685   2.083   2.652   0.421 -0.1479 -0.3761  0.0065
  922SOL    HW1 3686   2.091   2.683   0.331  0.1407 -0.2849  1.3486
  922SOL    HW2 3687   2.102   2.558   0.420 -0.6269  3.8646 -2.9838
  922SOL     MW 3688   2.087   2.644   0.409 -0.1730  0.1954 -0.2110
  923SOL     OW 3689   2.202   2.914   1.670  0.1574 -0.1156 -0.4282
  923SOL    HW1 3690   2.266   2.855   1.621 -0.6481  1.4302 -1.2064
  923SOL    HW2 3691   2.136   2.952   1.610  0.6427  1.5528 -0.0484
  923SOL     MW 3692   2.202   2.911   1.656  0.1152  0.3085 -0.4808
  924SOL     OW 3693   1.088   2.732   2.624  0.5348 -0.0698 -0.1957
  924SOL    HW1 3694   1.182   2.753   2.619  0.4537  0.8828 -0.8637
  924SOL    HW2 3695   1.087   2.653   2.677  1.4837 -0.6826  2.6100
  924SOL     MW 3696   1.100   2.724   2.630  0.6493 -0.0250  0.0863
  925SOL     OW 3697   2.998   0.226   2.625  0.1915 -0.6830 -0.3324
  925SOL    HW1 3698   2.947   0.240   2.546 -0.3510 -1.2010 -0.8377
  925SOL    HW2 3699   2.983   0.309   2.672  1.4618  2.3290  1.2159
  925SOL     MW 3700   2.989   0.239   2.621  0.2875 -0.3539 -0.1948
  926SOL     OW 3701   2.795   2.390   1.960 -0.0425  0.8101  0.5796
  926SOL    HW1 3702   2.802   2.451   2.034 -2.6038 -0.8457 -0.5864
  926SOL    HW2 3703   2.828   2.436   1.878  0.4194 -0.2446  0.2221
  926SOL     MW 3704   2.801   2.404   1.959 -0.3195  0.4525  0.3786
  927SOL     OW 3705   2.412   0.125   0.297  0.1243 -0.6480  0.2497
  927SOL    HW1 3706   2.475   0.201   0.310  1.6560  0.0758  1.0570
  927SOL    HW2 3707   2.395   0.123   0.197  1.5849  0.5852 -1.4388
  927SOL     MW 3708   2.418   0.135   0.286  0.5191 -0.3898  0.1335
  928SOL     OW 3709   2.154   2.337   1.812  0.0049 -0.0559  0.2689
  928SOL    HW1 3710   2.195   2.373   1.732 -0.6523  1.4766  0.3154
  928SOL    HW2 3711   2.229   2.300   1.862 -0.0369 -1.3871  1.7998
  928SOL     MW 3712   2.170   2.337   1.808 -0.0873 -0.0293  0.4770
  929SOL     OW 3713   2.754   2.345   2.448  0.0910 -0.0862 -0.8192
  929SOL    HW1 3714   2.777   2.299   2.360  1.0977  3.0302 -1.3573
  929SOL    HW2 3715   2.834   2.356   2.497  3.1511 -0.9952 -1.7811
  929SOL     MW 3716   2.768   2.340   2.443  0.6276  0.2050 -1.0171
  930SOL     OW 3717   2.001   2.808   2.674 -0.0459  0.3466 -0.1311
  930SOL    HW1 3718   2.024   2.722   2.702 -2.5939 -1.0218  0.2249
  930SOL    HW2 3719   2.072   2.865   2.654  0.2513  1.6121  0.8741
  930SOL     MW 3720   2.013   2.804   2.675 -0.3429  0.3330  0.0485
  931SOL     OW 3721   0.046   2.796   2.432  0.2179  0.2986 -0.4141
  931SOL    HW1 3722   0.019   2.850   2.518 -1.6241  1.7680  1.8147
  931SOL    HW2 3723   0.136   2.827   2.418 -1.2301 -0.0272  0.7269
  931SOL     MW 3724   0.054   2.808   2.441 -0.2162  0.4494  0.0305
  932SOL     OW 3725   2.800   1.983   2.513 -0.7601 -0.0147 -0.5784
  932SOL    HW1 3726   2.892   2.008   2.530 -1.4070  1.7077  2.2915
  932SOL    HW2 3727   2.789   1.974   2.418  2.6522 -0.1364 -0.5453
  932SOL     MW 3728   2.810   1.985   2.502 -0.3953  0.1965 -0.1954
  933SOL     OW 3729   2.092   2.800   2.207  0.2465 -0.1681  0.0782
  933SOL    HW1 3730   2.163   2.838   2.251  0.2798  0.4058  1.3850
  933SOL    HW2 3731   2.021   2.860   2.196 -3.9337  1.1381  1.4973
  933SOL     MW 3732   2.092   2.813   2.211 -0.3007  0.0800  0.4378
  934SOL     OW 3733   2.016   2.668   2.428 -0.0870  0.2704  0.3496
  934SOL    HW1 3734   2.028   2.715   2.506  0.6841 -1.6783 -1.1104
  934SOL    HW2 3735   2.054   2.722   2.348  1.3454 -0.5168 -0.3290
  934SOL     MW 3736   2.023   2.681   2.428  0.2038 -0.0906  0.0675
  935SOL     OW 3737   2.636   1.481   1.778  0.0020 -0.0320  0.0744
  935SOL    HW1 3738   2.722   1.454   1.745 -0.4817  0.0645 -1.1249
  935SOL    HW2 3739   2.592   1.464   1.693  1.2188  1.2359  1.2471
  935SOL     MW 3740   2.642   1.475   1.763  0.0987  0.1480  0.0709
  936SOL     OW 3741   2.940   2.237   0.025 -0.1118  0.0346  0.5450
  936SOL    HW1 3742   3.009   2.264   0.080 -2.1062 -1.9637 -0.5342
  936SOL    HW2 3743   2.890   2.315   0.005  0.7744 -3.5168 -1.7611
  936SOL     MW 3744   2.943   2.251   0.030 -0.2580 -0.6976  0.0983
  937SOL     OW 3745   1.953   2.132   2.660 -0.1552 -0.0922 -0.6099
  937SOL    HW1 3746   2.038   2.101   2.688 -1.3228  1.0996  0.4543
  937SOL    HW2 3747   1.951   2.125   2.566  1.9400  0.1481  0.7720
  937SOL     MW 3748   1.964   2.127   2.652 -0.0328  0.0967 -0.2872
  938SOL     OW 3749   2.295   1.732   1.839 -0.7306  0.6693  0.5444
  938SOL    HW1 3750   2.286   1.793   1.758  0.4764  0.8434 -0.5458
  938SOL    HW2 3751   2.295   1.785   1.926  1.3490  0.6397 -0.4032
  938SOL     MW 3752   2.294   1.747   1.840 -0.2969  0.6883  0.2755
  939SOL     OW 3753   2.761   1.954   2.236 -0.6261  0.5793 -0.4304
  939SOL    HW1 3754   2.797   1.936   2.147  1.5938  0.1622 -0.7790
  939SOL    HW2 3755   2.671   1.912   2.234  0.7226 -1.4547 -1.0209
  939SOL     MW 3756   2.754   1.946   2.224 -0.1553  0.2559 -0.5543
  940SOL     OW 3757   2.171   0.126   2.755 -0.5713  0.1714  0.7294
  940SOL    HW1 3758   2.198   0.038   2.722 -0.7688 -2.1988 -2.0067
  940SOL    HW2 3759   2.246   0.170   2.794  0.7873 -1.5803  0.0972
  940SOL     MW 3760   2.185   0.120   2.756 -0.4181 -0.3724  0.2850
  941SOL     OW 3761   0.123   2.460   2.027 -0.0067  0.1345  0.1494
  941SOL    HW1 3762   0.169   2.387   2.061 -3.4441 -0.6990  1.7831
  941SOL    HW2 3763   0.124   2.454   1.931 -2.8235 -2.0050  1.8665
  941SOL     MW 3764   0.129   2.449   2.019 -0.8319 -0.2578  0.5915
  942SOL     OW 3765   2.854   2.222   2.207 -0.8567 -0.4380  0.3969
  942SOL    HW1 3766   2.814   2.263   2.131  1.9496 -1.0083  0.4956
  942SOL    HW2 3767   2.822   2.127   2.223 -1.0503 -2.4120 -0.4744
  942SOL     MW 3768   2.844   2.215   2.199 -0.5120 -0.7737  0.2950
  943SOL     OW 3769   0.303   2.130   2.315  0.2696  0.5225 -0.1483
  943SOL    HW1 3770   0.241   2.173   2.375  1.5184 -0.2982 -3.7523
  943SOL    HW2 3771   0.389   2.123   2.357 -1.3958  1.4963 -0.0215
  943SOL     MW 3772   0.306   2.135   2.329  0.2146  0.5427 -0.6071
  944SOL     OW 3773   2.128   2.643   1.961 -0.2468 -0.3738  0.3518
  944SOL    HW1 3774   2.208   2.609   2.005  1.6002 -1.3202  0.0005
  944SOL    HW2 3775   2.054   2.630   2.014  0.0280  1.1162  2.3083
  944SOL     MW 3776   2.129   2.636   1.974  0.0332 -0.3020  0.5636
  945SOL     OW 3777   2.799   2.761   2.830 -0.5414 -0.4136  0.0747
  945SOL    HW1 3778   2.780   2.668   2.830 -1.3789 -1.6728 -0.6843
  945SOL    HW2 3779   2.774   2.790   2.739 -2.2992 -4.0619  2.5139
  945SOL     MW 3780   2.793   2.753   2.818 -0.8839 -1.0611  0.2964
  946SOL     OW 3781   2.465   2.658   2.233  0.1853  0.2611  0.2779
  946SOL    HW1 3782   2.497   2.702   2.154  1.5569  3.1158 -2.9396
  946SOL    HW2 3783   2.405   2.598   2.193  1.8067 -0.0310 -0.8917
  946SOL     MW 3784   2.462   2.656   2.217  0.5802  0.5992 -0.3009
  947SOL     OW 3785   2.038   0.006   0.221  0.3394 -0.3579  0.6289
  947SOL    HW1 3786   2.073  -0.079   0.186 -1.9320  1.8918  1.2962
  947SOL    HW2 3787   2.083   0.030   0.305  1.2283  0.7580  0.9081
  947SOL     MW 3788   2.049  -0.002   0.227  0.1570  0.0862  0.7538
  948SOL     OW 3789   1.796   3.004   2.621  0.1939  0.1425 -0.0620
  948SOL    HW1 3790   1.805   2.905   2.623  0.8539  0.7053 -0.6546
  948SOL    HW2 3791   1.772   3.033   2.532  0.2664  0.9897  0.3664
  948SOL     MW 3792   1.794   2.994   2.609  0.2906  0.3286 -0.0836
  949SOL     OW 3793   2.507   1.864   2.198  0.5668 -0.2070 -0.0996
  949SOL    HW1 3794   2.503   1.776   2.237 -2.3404  0.1449  1.0667
  949SOL    HW2 3795   2.481   1.928   2.266  1.6040 -1.7543 -0.3000
  949SOL     MW 3796   2.503   1.860   2.212  0.3201 -0.3647  0.0279
  950SOL     OW 3797   2.335   2.524   2.996 -0.2445 -0.9604 -0.0220
  950SOL    HW1 3798   2.367   2.486   2.916 -2.4790  0.2748 -0.4273
  950SOL    HW2 3799   2.248   2.529   2.971  0.6760 -1.0808 -0.8329
  950SOL     MW 3800   2.328   2.519   2.982 -0.4179 -0.8133 -0.1825
  951SOL     OW 3801   3.046   2.193   2.887 -0.3984  0.3912 -0.1421
  951SOL    HW1 3802   3.003   2.193   2.975 -1.2855 -1.3820  1.1813
  951SOL    HW2 3803   3.016   2.106   2.862  2.0511  0.7872  1.6382
  951SOL     MW 3804   3.037   2.182   2.896 -0.1922  0.2095  0.2674
  952SOL     OW 3805   3.022   1.720   2.144  0.2474  0.1625  0.1854
  952SOL    HW1 3806   2.969   1.761   2.074 -0.2945  3.1650 -0.4285
  952SOL    HW2 3807   3.098   1.782   2.164 -2.0178  1.4233  0.7643
  952SOL     MW 3808   3.025   1.734   2.137 -0.1230  0.7250  0.1807
  953SOL     OW 3809   1.969   1.724   2.932  0.3921  0.3602 -0.1577
  953SOL    HW1 3810   1.876   1.708   2.962 -0.8370 -1.4049 -1.5542
  953SOL    HW2 3811   1.974   1.678   2.847 -1.6511  3.1756 -0.5676
  953SOL     MW 3812   1.958   1.716   2.925 -0.0396  0.4988 -0.3960
  954SOL     OW 3813   2.383   2.150   2.897 -0.7184 -0.2224 -0.6330
  954SOL    HW1 3814   2.294   2.113   2.889 -1.6180  0.4641  2.1920
  954SOL    HW2 3815   2.438   2.093   2.841  1.5967 -1.9758 -0.9671
  954SOL     MW 3816   2.378   2.138   2.889 -0.5316 -0.3631 -0.3044
  955SOL     OW 3817   1.588   1.512   2.549 -0.4066  0.4718  0.0540
  955SOL    HW1 3818   1.581   1.525   2.448  2.0344 -2.4144 -1.4925
  955SOL    HW2 3819   1.661   1.566   2.567 -0.4289 -2.1065 -0.2956
  955SOL     MW 3820   1.596   1.520   2.538 -0.0875 -0.2491 -0.1962
  956SOL     OW 3821   2.733   2.484   2.856 -0.0825 -0.2853 -0.2153
  956SOL    HW1 3822   2.713   2.442   2.935 -1.9379 -1.8069 -2.3675
  956SOL    HW2 3823   2.799   2.434   2.808  1.1748 -0.1008  0.4758
  956SOL     MW 3824   2.739   2.472   2.860 -0.1614 -0.4617 -0.4081
  957SOL     OW 3825   2.265   2.821   0.597 -0.5161 -0.4909 -0.0824
  957SOL    HW1 3826   2.196   2.764   0.573  1.3265  4.7302 -1.7278
  957SOL    HW2 3827   2.309   2.785   0.681 -0.8498 -1.9382  3.3315
  957SOL     MW 3828   2.262   2.809   0.605 -0.3170  0.0070  0.1510
  958SOL     OW 3829   2.078   2.566   2.895  0.3588 -0.1298  0.0635
  958SOL    HW1 3830   2.031   2.484   2.891 -1.4671 -1.6602 -1.0105
  958SOL    HW2 3831   2.009   2.623   2.932 -0.4827 -0.9213  0.2508
  958SOL     MW 3832   2.063   2.563   2.900  0.0068 -0.4362 -0.0535
  959SOL     OW 3833   2.511   2.811   0.457  0.0149 -0.0768 -0.2099
  959SOL    HW1 3834   2.503   2.811   0.363  0.4931 -1.2955  0.8662
  959SOL    HW2 3835   2.421   2.833   0.489  0.8520  0.4216  0.3016
  959SOL     MW 3836   2.498   2.814   0.448  0.1884 -0.1718 -0.0004
  960SOL     OW 3837   1.921   2.387   2.260  0.0306  0.3308  0.1865
  960SOL    HW1 3838   1.918   2.294   2.281 -0.9977 -1.3368 -1.4980
  960SOL    HW2 3839   1.868   2.422   2.333 -0.0202 -0.0157  1.8414
  960SOL     MW 3840   1.913   2.379   2.273 -0.1118  0.0651  0.1826
  961SOL     OW 3841   2.235   2.315   2.314 -0.1974  0.3788  0.0702
  961SOL    HW1 3842   2.141   2.304   2.307 -1.3333  2.8277  1.1387
  961SOL    HW2 3843   2.231   2.385   2.376  0.1826 -0.5642  1.5512
  961SOL     MW 3844   2.222   2.323   2.321 -0.2971  0.5775  0.4066
  962SOL     OW 3845   2.152   2.015   2.844  0.1079  0.1896 -0.8087
  962SOL    HW1 3846   2.145   1.977   2.934  0.0704 -0.1739 -1.1797
  962SOL    HW2 3847   2.188   1.948   2.789 -1.8317  2.1143  4.4195
  962SOL     MW 3848   2.156   2.001   2.848 -0.1530  0.3956 -0.1679
  963SOL     OW 3849   1.888   2.617   2.081 -0.2212  0.1404 -0.1054
  963SOL    HW1 3850   1.894   2.554   2.157 -0.2584  0.7070  0.0603
  963SOL    HW2 3851   1.866   2.549   2.011  0.5731 -1.5604 -1.6269
  963SOL     MW 3852   1.886   2.600   2.082 -0.1213 -0.0092 -0.2843
  964SOL     OW 3853   1.833   1.891   2.735 -0.1307 -0.4305 -0.0376
  964SOL    HW1 3854   1.871   1.978   2.710 -1.1502  0.1179  0.9857
  964SOL    HW2 3855   1.880   1.847   2.800  1.2343 -0.6602 -0.3703
  964SOL     MW 3856   1.844   1.896   2.741 -0.0852 -0.3884  0.0535
  965SOL     OW 3857   2.101   2.607   0.813 -0.7086 -0.3126  0.0456
  965SOL    HW1 3858   2.123   2.536   0.750  1.1210 -0.7015 -0.7859
  965SOL    HW2 3859   2.192   2.636   0.838 -1.1679 -0.1724  3.4689
  965SOL     MW 3860   2.116   2.601   0.808 -0.5278 -0.3454  0.3876
  966SOL     OW 3861   2.678   2.609   2.414 -0.2798  0.3186 -0.2006
  966SOL    HW1 3862   2.594   2.619   2.365 -1.6221 -1.0040  3.8124
  966SOL    HW2 3863   2.693   2.517   2.437 -0.3643 -0.7617 -1.1055
  966SOL     MW 3864   2.669   2.598   2.410 -0.4680  0.0016  0.2095
  967SOL     OW 3865   2.731   3.064   3.020 -0.4405  0.3174  0.1171
  967SOL    HW1 3866   2.729   2.969   3.054 -0.3763  1.3932  1.5512
  967SOL    HW2 3867   2.668   3.050   2.948 -2.3436  1.5390 -0.5828
  967SOL     MW 3868   2.722   3.050   3.015 -0.6831  0.6205  0.2140
  968SOL     OW 3869   3.070   2.695   2.914  0.4653  0.2620 -0.2117
  968SOL    HW1 3870   2.989   2.745   2.895 -0.9551  1.9708 -0.4593
  968SOL    HW2 3871   3.082   2.649   2.827 -0.7879 -1.3201 -0.1177
  968SOL     MW 3872   3.061   2.695   2.900  0.1125  0.2787 -0.2319
  969SOL     OW 3873   1.553   2.173   1.695  0.1838 -0.5570 -0.4167
  969SOL    HW1 3874   1.609   2.098   1.695 -0.8304 -0.9808  0.8728
  969SOL    HW2 3875   1.517   2.177   1.787 -0.9518 -0.4022  3.4442
  969SOL     MW 3876   1.555   2.163   1.707 -0.0998 -0.5925  0.2628
  970SOL     OW 3877   1.745   1.811   1.911  0.0839  0.0096 -0.1278
  970SOL    HW1 3878   1.800   1.744   1.950  0.5688 -0.3062  0.5092
  970SOL    HW2 3879   1.651   1.791   1.918 -0.0553  0.4968 -3.8903
  970SOL     MW 3880   1.740   1.799   1.917  0.1295  0.0322 -0.5402
  971SOL     OW 3881   1.733   0.020   2.344  0.8946  0.1339  0.1125
  971SOL    HW1 3882   1.793  -0.030   2.276 -1.3777 -1.3923 -0.4392
  971SOL    HW2 3883   1.773   0.108   2.356 -0.9327  3.3052 -1.7048
  971SOL     MW 3884   1.746   0.025   2.336  0.3537  0.3509 -0.2001
  972SOL     OW 3885   0.305   2.882   2.399 -0.0705 -0.6136 -0.0100
  972SOL    HW1 3886   0.354   2.801   2.389 -1.4187  0.2092  0.7629
  972SOL    HW2 3887   0.368   2.942   2.432 -0.7592 -1.7534  0.7154
  972SOL     MW 3888   0.320   2.879   2.402 -0.3393 -0.6554  0.1876
  973SOL     OW 3889   2.596   3.007   2.116 -0.1010 -0.5194  0.6144
  973SOL    HW1 3890   2.557   2.928   2.072 -2.2133  0.3328 -0.2792
  973SOL    HW2 3891   2.609   3.047   2.034 -2.8053  2.1642 -0.3104
  973SOL     MW 3892   2.593   3.002   2.099 -0.7365 -0.0529  0.3745
  974SOL     OW 3893   1.944   0.159   2.603 -0.0490 -0.1827  0.1120
  974SOL    HW1 3894   2.021   0.137   2.654 -1.9640  1.2259  0.1861
  974SOL    HW2 3895   1.887   0.086   2.618  0.2935  1.2619  0.3598
  974SOL     MW 3896   1.947   0.146   2.612 -0.2565  0.1937  0.1545
  975SOL     OW 3897   2.209   2.496   2.525 -0.0523  0.0094  0.1371
  975SOL    HW1 3898   2.276   2.558   2.555  0.0700  0.0174 -0.0034
  975SOL    HW2 3899   2.141   2.540   2.482 -1.0907 -0.9015 -0.9505
  975SOL     MW 3900   2.209   2.510   2.523 -0.1732 -0.1098 -0.0249
  976SOL     OW 3901   0.198   0.366   1.595 -0.3888  0.3101 -0.5390
  976SOL    HW1 3902   0.277   0.337   1.644 -0.0195  2.5336  0.1486
  976SOL    HW2 3903   0.135   0.303   1.627 -0.0846 -0.0136 -1.1441
  976SOL     MW 3904   0.200   0.354   1.606 -0.2999  0.5608 -0.5281
  977SOL     OW 3905   1.757   2.762   2.387 -0.0542 -0.2373  0.2548
  977SOL    HW1 3906   1.848   2.745   2.409 -0.3828  1.5100 -4.0099
  977SOL    HW2 3907   1.774   2.844   2.340 -3.4466  0.2313  0.8875
  977SOL     MW 3908   1.771   2.770   2.384 -0.5452  0.0550 -0.2244
   3.10000   3.10000   3.10000
