977 TIP4P/2005f water molecules t=   0.36000 step= 360
 3908
    1SOL     OW    1   0.288   0.770   0.048 -0.3539  0.0109 -0.2037
    1SOL    HW1    2   0.290   0.825  -0.033  0.8109 -0.5028 -1.9132
    1SOL    HW2    3   0.249   0.685   0.026  1.1074  0.7996  1.3622
    1SOL     MW    4   0.283   0.766   0.034 -0.0074  0.0472 -0.2226
    2SOL     OW    5   0.295   3.054   1.171 -0.2457 -0.1423  0.4166
    2SOL    HW1    6   0.338   3.132   1.131 -2.4915 -0.8288  2.5697
    2SOL    HW2    7   0.201   3.076   1.161  0.3919  0.3817 -0.0774
    2SOL     MW    8   0.288   3.067   1.165 -0.4579 -0.1638  0.6355
    3SOL     OW    9   2.676   0.387   0.902  0.6735 -0.3171 -0.0378
    3SOL    HW1   10   2.710   0.462   0.850  0.4066  1.0822 -1.9531
    3SOL    HW2   11   2.667   0.415   0.987  0.8128 -1.7271 -2.7798
    3SOL     MW   12   2.680   0.401   0.906  0.6567 -0.3185 -0.6523
    4SOL     OW   13   3.060   1.786   0.568  0.2287 -0.8259 -0.4965
    4SOL    HW1   14   2.986   1.828   0.521 -2.1240  1.2649 -2.8986
    4SOL    HW2   15   3.101   1.729   0.505 -1.8657 -0.1443 -2.9747
    4SOL     MW   16   3.056   1.784   0.553 -0.3580 -0.4601 -1.1404
    5SOL     OW   17   1.699   1.430   0.560  0.1103  0.2706  0.5583
    5SOL    HW1   18   1.752   1.387   0.623  1.6745  1.1837  2.2952
    5SOL    HW2   19   1.609   1.427   0.581  1.7055  0.2649 -0.1725
    5SOL     MW   20   1.694   1.424   0.571  0.5272  0.3903  0.6911
    6SOL     OW   21   0.868   1.392   0.625  0.5973  0.1480  0.2724
    6SOL    HW1   22   0.780   1.396   0.659 -0.2878  1.8848 -0.0286
    6SOL    HW2   23   0.912   1.317   0.669 -0.8425 -0.1760 -1.8004
    6SOL     MW   24   0.862   1.383   0.635  0.2905  0.3344 -0.0408
    7SOL     OW   25   1.990   1.053   0.040  0.1321  0.3944 -0.0899
    7SOL    HW1   26   2.021   1.105  -0.031 -0.0288 -3.4108 -0.5257
    7SOL    HW2   27   2.042   1.084   0.114 -0.9822  1.1440  3.0220
    7SOL     MW   28   2.001   1.064   0.040 -0.0362 -0.0088  0.2632
    8SOL     OW   29   0.993   1.335   1.020 -0.4173  0.4443 -0.0232
    8SOL    HW1   30   1.054   1.275   1.062 -0.0664  2.1958  1.6745
    8SOL    HW2   31   0.926   1.271   0.987 -0.4092 -4.0118 -3.0117
    8SOL     MW   32   0.992   1.319   1.021 -0.3699  0.0875 -0.1935
    9SOL     OW   33   1.043   0.458   1.351  0.1996 -0.3490  0.0242
    9SOL    HW1   34   0.987   0.391   1.310  0.1770 -0.6980 -1.4386
    9SOL    HW2   35   1.071   0.430   1.441 -0.8255  1.2494  2.3171
    9SOL     MW   36   1.039   0.445   1.358  0.0614 -0.1842  0.1337
   10SOL     OW   37   0.311   0.786   0.453 -0.1395 -0.2721 -0.3195
   10SOL    HW1   38   0.403   0.824   0.421 -0.2530 -1.9490  0.5865
   10SOL    HW2   39   0.292   0.824   0.539 -2.8020 -2.4973 -0.8062
   10SOL     MW   40   0.320   0.796   0.460 -0.5058 -0.7870 -0.2642
   11SOL     OW   41   0.840   1.082   1.607 -0.9004  0.0576 -0.4035
   11SOL    HW1   42   0.844   1.101   1.700  0.7557 -0.1873  0.3850
   11SOL    HW2   43   0.811   0.985   1.589 -2.9825  0.3611  2.4405
   11SOL     MW   44   0.837   1.072   1.617 -0.9566  0.0654  0.0758
   12SOL     OW   45   0.018   1.140   0.835  0.2844 -0.8330  0.2940
   12SOL    HW1   46   0.010   1.221   0.890 -0.5777  1.3010  0.6292
   12SOL    HW2   47  -0.034   1.175   0.759 -3.2570 -1.7009  2.2422
   12SOL     MW   48   0.010   1.155   0.832 -0.2966 -0.6659  0.5953
   13SOL     OW   49   1.887   1.415   1.364 -0.6152 -0.2222 -0.1236
   13SOL    HW1   50   1.917   1.371   1.282 -0.9545 -1.2848 -0.3070
   13SOL    HW2   51   1.878   1.503   1.338  0.6947 -4.1962  0.2419
   13SOL     MW   52   1.890   1.421   1.350 -0.4871 -0.8867 -0.0996
   14SOL     OW   53   0.613   0.318   1.806 -0.0482 -0.6838 -0.4285
   14SOL    HW1   54   0.578   0.251   1.751 -0.1902 -0.1787 -0.6906
   14SOL    HW2   55   0.698   0.293   1.839  0.9928  0.0701  1.6487
   14SOL     MW   56   0.619   0.305   1.803  0.0704 -0.5177 -0.1890
   15SOL     OW   57   2.014   0.542   0.954  0.2118 -0.1496  0.3031
   15SOL    HW1   58   2.012   0.551   1.053  0.1929 -0.3035  0.2104
   15SOL    HW2   59   2.083   0.478   0.929  0.3772 -0.3210 -0.2378
   15SOL     MW   60   2.023   0.535   0.964  0.2311 -0.1925  0.2195
   16SOL     OW   61   0.207   1.754   0.337 -0.1763 -0.2377  0.0700
   16SOL    HW1   62   0.296   1.733   0.318 -1.1339 -1.3881  1.4285
   16SOL    HW2   63   0.206   1.853   0.361 -0.8315 -0.5618  0.3474
   16SOL     MW   64   0.219   1.764   0.337 -0.3891 -0.4322  0.2859
   17SOL     OW   65   1.049   0.811   1.491 -0.8483 -0.1820  0.5372
   17SOL    HW1   66   1.099   0.806   1.576  0.9943  2.0209 -1.0872
   17SOL    HW2   67   0.961   0.775   1.511  0.4940  3.0974  0.1595
   17SOL     MW   68   1.044   0.806   1.505 -0.4281  0.5414  0.2731
   18SOL     OW   69   0.060   1.550   0.428  0.8949  0.4608  0.6456
   18SOL    HW1   70   0.121   1.602   0.378 -2.6596 -2.4150 -0.2826
   18SOL    HW2   71   0.033   1.479   0.368 -1.0629 -1.4451  1.9039
   18SOL     MW   72   0.065   1.548   0.414  0.1676 -0.1701  0.6891
   19SOL     OW   73   0.107   1.344   1.041  0.1015  0.3637  0.0957
   19SOL    HW1   74   0.133   1.369   0.957 -0.3822  2.0922  2.0758
   19SOL    HW2   75   0.012   1.357   1.045  0.6476  0.0744 -1.3802
   19SOL     MW   76   0.098   1.349   1.030  0.1097  0.5535  0.1622
   20SOL     OW   77   0.463   2.121   1.297  0.0433 -0.3891 -0.4195
   20SOL    HW1   78   0.399   2.064   1.241 -1.0697 -1.8150  2.4883
   20SOL    HW2   79   0.401   2.171   1.356 -0.6101  1.3738 -0.6244
   20SOL     MW   80   0.446   2.120   1.297 -0.1898 -0.3447 -0.0629
   21SOL     OW   81   0.549   0.889   0.346 -0.2939  0.0904  0.3074
   21SOL    HW1   82   0.602   0.833   0.399 -0.1732  2.1042  0.2782
   21SOL    HW2   83   0.550   0.842   0.261  0.4862 -0.7155 -0.4942
   21SOL     MW   84   0.556   0.876   0.341 -0.1750  0.2498  0.1978
   22SOL     OW   85   1.530   0.576   1.126 -0.1671  0.3790 -0.2380
   22SOL    HW1   86   1.569   0.543   1.044  2.3520  1.0802  3.4449
   22SOL    HW2   87   1.452   0.627   1.112 -1.4466  1.6130 -1.3523
   22SOL     MW   88   1.525   0.578   1.113 -0.0035  0.6343  0.1009
   23SOL     OW   89   3.053   0.738   0.729 -0.1596  0.5397 -0.4818
   23SOL    HW1   90   3.109   0.662   0.755  0.7630  1.9195 -0.2537
   23SOL    HW2   91   3.114   0.812   0.721  1.5326 -3.3595  1.0976
   23SOL     MW   92   3.068   0.738   0.732  0.1854  0.2073 -0.2433
   24SOL     OW   93   2.016   2.191   0.035 -0.5481  0.0926  0.3465
   24SOL    HW1   94   2.001   2.177   0.132 -0.8824  1.7290  0.5422
   24SOL    HW2   95   2.093   2.141   0.020  1.0196 -0.0162 -1.1863
   24SOL     MW   96   2.024   2.183   0.046 -0.3853  0.2942  0.1701
   25SOL     OW   97   0.283   1.406   0.522  0.4662 -0.0306 -0.4681
   25SOL    HW1   98   0.194   1.452   0.498 -1.1937  2.8123 -0.0827
   25SOL    HW2   99   0.338   1.416   0.449  1.0047 -0.2390 -1.0209
   25SOL     MW  100   0.278   1.413   0.509  0.3182  0.3170 -0.4902
   26SOL     OW  101   2.053   0.931   0.433 -0.4287 -0.1205  0.3560
   26SOL    HW1  102   1.955   0.941   0.449 -3.0344  1.2567  1.7293
   26SOL    HW2  103   2.067   0.984   0.351  0.3013 -0.5796 -0.0757
   26SOL     MW  104   2.042   0.939   0.424 -0.6762  0.0006  0.4803
   27SOL     OW  105   1.988   1.388   0.261 -0.0503 -0.2983  0.6671
   27SOL    HW1  106   1.898   1.355   0.278 -0.3941 -2.6198 -0.3612
   27SOL    HW2  107   2.009   1.468   0.310  1.1135  2.2682 -1.0738
   27SOL     MW  108   1.979   1.394   0.270  0.0579 -0.2659  0.3017
   28SOL     OW  109   0.398   1.005   1.909 -0.4473  0.7277  0.4687
   28SOL    HW1  110   0.347   0.933   1.947 -0.0739 -1.8194  0.6558
   28SOL    HW2  111   0.435   1.054   1.980  0.6871  4.0411 -4.8340
   28SOL     MW  112   0.397   1.002   1.924 -0.2484  0.8288 -0.2062
   29SOL     OW  113   0.241   1.424   0.822  0.1513 -0.4231  0.0515
   29SOL    HW1  114   0.252   1.519   0.844 -1.2188 -0.0056 -2.3491
   29SOL    HW2  115   0.254   1.418   0.729 -3.2746 -1.2641 -2.8605
   29SOL     MW  116   0.245   1.436   0.813 -0.4815 -0.4790 -0.6494
   30SOL     OW  117   0.895   1.041   1.156 -0.0688 -0.0414  0.8135
   30SOL    HW1  118   0.815   1.071   1.206  1.5552  1.1215  1.0606
   30SOL    HW2  119   0.966   1.043   1.220  0.1796 -0.5338 -1.4763
   30SOL     MW  120   0.894   1.045   1.171  0.1783  0.0471  0.5440
   31SOL     OW  121   0.450   0.275   0.242 -0.5731  0.0999 -0.2126
   31SOL    HW1  122   0.463   0.193   0.299  1.1186  1.5842 -0.6895
   31SOL    HW2  123   0.438   0.236   0.156 -1.0478 -1.9401 -2.4496
   31SOL     MW  124   0.450   0.259   0.238 -0.4125  0.0266 -0.5707
   32SOL     OW  125   2.716   1.058   1.092  0.3338 -0.2050 -0.2464
   32SOL    HW1  126   2.673   0.968   1.097  2.3312 -2.2556  2.7352
   32SOL    HW2  127   2.813   1.044   1.085  0.2470 -1.1373 -0.7224
   32SOL     MW  128   2.723   1.045   1.092  0.5859 -0.5986  0.0842
   33SOL     OW  129   1.736   1.283   0.328  0.0557  0.5912  0.3757
   33SOL    HW1  130   1.755   1.197   0.363 -0.7117  0.4139 -1.5048
   33SOL    HW2  131   1.744   1.335   0.407  1.9703  0.9309 -0.4691
   33SOL     MW  132   1.740   1.279   0.343  0.2070  0.6126  0.0161
   34SOL     OW  133   1.227   1.840   1.106 -0.5505 -0.0046 -0.9116
   34SOL    HW1  134   1.142   1.849   1.144  2.5910  0.0390 -1.6969
   34SOL    HW2  135   1.289   1.884   1.173  1.8397  1.3497  1.8987
   34SOL     MW  136   1.224   1.847   1.120  0.1793  0.1798 -0.6444
   35SOL     OW  137   0.336   0.100   1.834 -0.3583  0.1521 -0.7043
   35SOL    HW1  138   0.379   0.082   1.919  0.2635  0.7441 -2.9919
   35SOL    HW2  139   0.357   0.024   1.775 -1.8310  3.3873 -1.0013
   35SOL     MW  140   0.344   0.088   1.838 -0.4705  0.6570 -1.0453
   36SOL     OW  141   1.878   1.971   0.564 -0.3557  0.1910 -0.6556
   36SOL    HW1  142   1.894   1.993   0.471 -0.1310  1.3072 -1.3247
   36SOL    HW2  143   1.897   1.877   0.569 -0.8814 -1.1176  0.6969
   36SOL     MW  144   1.883   1.962   0.552 -0.3954  0.1656 -0.5654
   37SOL     OW  145   1.728   2.055   0.966 -0.3796 -0.1404 -0.2099
   37SOL    HW1  146   1.668   2.004   0.919  0.7383  1.0473 -2.3726
   37SOL    HW2  147   1.681   2.072   1.057  0.0807 -0.3310  4.0652
   37SOL     MW  148   1.714   2.050   0.972 -0.1714 -0.0088  0.0688
   38SOL     OW  149   2.846   0.948   0.189 -0.2279 -0.4394 -0.3012
   38SOL    HW1  150   2.884   0.955   0.273 -0.4425  1.0811  0.8345
   38SOL    HW2  151   2.917   0.899   0.145 -0.7060  0.5804  0.9818
   38SOL     MW  152   2.861   0.942   0.194 -0.3193 -0.1042  0.0180
   39SOL     OW  153   1.469   0.677   0.812 -0.0272 -0.2879 -0.5473
   39SOL    HW1  154   1.430   0.589   0.807  0.7104 -0.2796 -1.5610
   39SOL    HW2  155   1.426   0.708   0.892 -0.2981  0.1102  0.8375
   39SOL     MW  156   1.458   0.669   0.822  0.0344 -0.2343 -0.4983
   40SOL     OW  157   1.276   1.865   0.261 -0.1031 -0.2538 -0.1418
   40SOL    HW1  158   1.304   1.792   0.315 -0.9191  1.1589 -0.3467
   40SOL    HW2  159   1.238   1.930   0.319  0.9253 -1.8774  1.5390
   40SOL     MW  160   1.275   1.864   0.275 -0.0750 -0.2816  0.0530
   41SOL     OW  161   0.593   0.545   1.588 -0.2657 -0.3771  0.1137
   41SOL    HW1  162   0.679   0.559   1.559 -0.8053 -1.2669 -0.8124
   41SOL    HW2  163   0.597   0.485   1.664  0.9369  0.3820  0.3470
   41SOL     MW  164   0.605   0.539   1.594 -0.1782 -0.3943  0.0223
   42SOL     OW  165   1.304   3.074   1.961 -0.3132 -0.6859  0.5670
   42SOL    HW1  166   1.217   3.051   1.997 -0.8941 -4.6201  2.0293
   42SOL    HW2  167   1.360   2.997   1.977 -1.6641  0.9470  1.5254
   42SOL     MW  168   1.300   3.060   1.968 -0.5681 -0.9895  0.8864
   43SOL     OW  169   1.596   0.217   1.651  0.2589  0.0955  0.5907
   43SOL    HW1  170   1.635   0.186   1.567  2.2127 -1.5290 -0.2500
   43SOL    HW2  171   1.521   0.156   1.666 -1.7820 -3.9097  1.3458
   43SOL     MW  172   1.592   0.205   1.642  0.2474 -0.6473  0.5794
   44SOL     OW  173   1.316   0.755   1.094 -0.0040  0.0831 -0.5922
   44SOL    HW1  174   1.316   0.848   1.080 -0.6215  0.2034  1.0186
   44SOL    HW2  175   1.282   0.742   1.183 -0.5357 -0.9066 -0.1282
   44SOL     MW  176   1.311   0.765   1.104 -0.1556 -0.0316 -0.3185
   45SOL     OW  177   1.145   0.689   0.764  0.3512  0.3323  0.7597
   45SOL    HW1  178   1.076   0.686   0.827  1.9669  0.8100  0.7909
   45SOL    HW2  179   1.137   0.608   0.700  2.6537 -3.0611  0.0420
   45SOL     MW  180   1.135   0.678   0.764  0.8682 -0.0524  0.6691
   46SOL     OW  181   0.571   1.150   0.545 -0.4039 -0.2278 -0.5381
   46SOL    HW1  182   0.580   1.167   0.450 -1.0064 -0.8935  1.7440
   46SOL    HW2  183   0.661   1.116   0.571  2.8114  2.8858  0.7179
   46SOL     MW  184   0.584   1.148   0.536 -0.0591  0.0952 -0.0713
   47SOL     OW  185   0.153   1.931   1.840  0.1678  0.0330 -0.5877
   47SOL    HW1  186   0.194   1.864   1.787 -0.9389  3.3667 -0.1485
   47SOL    HW2  187   0.158   1.903   1.933  0.7380 -1.0241 -1.4454
   47SOL     MW  188   0.159   1.918   1.845  0.0970  0.3334 -0.6429
   48SOL     OW  189   1.057   0.649   1.017  0.0091 -0.0770 -0.3415
   48SOL    HW1  190   1.007   0.670   1.096  1.2222  0.9396  2.1589
   48SOL    HW2  191   1.156   0.668   1.022  2.7271 -1.9023 -1.5994
   48SOL     MW  192   1.063   0.654   1.028  0.5278 -0.1837 -0.1775
   49SOL     OW  193   1.867   0.747   1.604 -1.2454  0.3028  0.4860
   49SOL    HW1  194   1.808   0.728   1.671  2.7912  0.4903  1.0012
   49SOL    HW2  195   1.923   0.669   1.593 -3.0152  0.7534 -1.0165
   49SOL     MW  196   1.866   0.734   1.611 -0.9463  0.3869  0.3557
   50SOL     OW  197   1.256   1.000   0.511 -0.6281  0.3538 -0.3729
   50SOL    HW1  198   1.232   1.047   0.599 -0.2374 -0.3739  0.0503
   50SOL    HW2  199   1.297   0.923   0.541  3.3460 -0.3766 -3.8681
   50SOL     MW  200   1.258   0.996   0.526 -0.0522  0.1614 -0.7782
   51SOL     OW  201   0.358   2.846   0.977 -0.3734  0.2397  0.3672
   51SOL    HW1  202   0.450   2.847   0.960 -0.6357 -1.3969  0.8243
   51SOL    HW2  203   0.346   2.911   1.050 -1.4473 -0.0432 -1.5457
   51SOL     MW  204   0.369   2.855   0.984 -0.5497 -0.0135  0.1751
   52SOL     OW  205   0.828   1.776   0.392 -0.0499 -0.4806  0.2328
   52SOL    HW1  206   0.787   1.842   0.445  1.3024  0.7787  0.7000
   52SOL    HW2  207   0.820   1.796   0.301 -0.1393 -0.7598 -1.2264
   52SOL     MW  208   0.821   1.788   0.387  0.1168 -0.3513  0.1019
   53SOL     OW  209   0.466   2.067   0.570  0.4006  0.0246 -0.1268
   53SOL    HW1  210   0.427   2.035   0.479  2.6609  0.1494  1.7194
   53SOL    HW2  211   0.471   2.159   0.584 -1.1820  1.8835 -0.9059
   53SOL     MW  212   0.461   2.075   0.560  0.4900  0.2863  0.0140
   54SOL     OW  213   2.194   0.814   0.913 -0.3241  0.2223 -0.4579
   54SOL    HW1  214   2.206   0.724   0.882  0.6558  0.9204 -1.1514
   54SOL    HW2  215   2.102   0.837   0.894  1.2261  0.3845 -4.0441
   54SOL     MW  216   2.184   0.805   0.907  0.0097  0.3358 -1.0226
   55SOL     OW  217   0.540   1.486   1.557  0.1447 -0.3182  0.4284
   55SOL    HW1  218   0.510   1.542   1.484  0.5845 -0.7791  0.8491
   55SOL    HW2  219   0.632   1.461   1.539  1.3245  1.5669 -0.0834
   55SOL     MW  220   0.548   1.490   1.545  0.3584 -0.1303  0.4164
   56SOL     OW  221   0.595   0.767   0.097  0.1766 -0.0539 -0.6048
   56SOL    HW1  222   0.623   0.844   0.052  0.7884 -1.7063  0.7526
   56SOL    HW2  223   0.517   0.743   0.054  2.1184 -1.1921  0.3139
   56SOL     MW  224   0.588   0.774   0.086  0.5135 -0.4221 -0.3045
   57SOL     OW  225   1.256   1.235   1.186 -0.1496  0.2524  0.9034
   57SOL    HW1  226   1.347   1.260   1.167 -0.7308  2.3184 -1.7511
   57SOL    HW2  227   1.258   1.184   1.270  1.4405  1.5254 -0.8266
   57SOL     MW  228   1.268   1.232   1.195 -0.0165  0.6930  0.3249
   58SOL     OW  229   0.681   1.114   1.310 -0.4815  0.2589  0.1639
   58SOL    HW1  230   0.642   1.196   1.290  1.2752 -1.4551  0.9459
   58SOL    HW2  231   0.635   1.089   1.389 -0.7907 -2.1019  0.7435
   58SOL     MW  232   0.669   1.121   1.318 -0.2905 -0.2787  0.3436
   59SOL     OW  233   1.564   1.638   0.309  0.7630  0.1055  0.0906
   59SOL    HW1  234   1.620   1.584   0.361 -0.8496 -0.6759  2.6762
   59SOL    HW2  235   1.478   1.634   0.359  2.4365 -0.9034  0.9928
   59SOL     MW  236   1.560   1.630   0.323  0.7710 -0.1307  0.5508
   60SOL     OW  237   3.077   0.157   1.659  0.2340  0.8660  0.2940
   60SOL    HW1  238   2.986   0.190   1.659 -0.7847 -1.2658  2.9666
   60SOL    HW2  239   3.062   0.064   1.657 -0.9750  0.8778 -2.0362
   60SOL     MW  240   3.063   0.149   1.658 -0.0599  0.5863  0.3392
   61SOL     OW  241   1.975   1.492   3.092 -0.3504 -0.3227 -0.4773
   61SOL    HW1  242   1.981   1.479   3.185  0.7261  1.3452 -1.5337
   61SOL    HW2  243   2.018   1.416   3.044  0.0884 -0.1771 -1.6842
   61SOL     MW  244   1.981   1.481   3.098 -0.1505 -0.0835 -0.7759
   62SOL     OW  245   0.600   1.618   0.574  0.4598  0.0515  0.2577
   62SOL    HW1  246   0.668   1.581   0.503  0.9047 -1.7844 -1.8587
   62SOL    HW2  247   0.577   1.538   0.620  2.2198  2.4608 -1.3580
   62SOL     MW  248   0.606   1.602   0.571  0.7507  0.1271 -0.2347
   63SOL     OW  249   1.703   0.738   0.660 -0.1771  0.2725  0.2102
   63SOL    HW1  250   1.661   0.775   0.583 -1.1518  1.0360 -0.1903
   63SOL    HW2  251   1.643   0.749   0.735 -1.6668 -2.9015  1.1549
   63SOL     MW  252   1.690   0.744   0.660 -0.5022 -0.0455  0.2820
   64SOL     OW  253   0.246   1.678   0.916  0.0928  0.1905 -1.1491
   64SOL    HW1  254   0.320   1.710   0.852  1.2504  0.2242 -0.3770
   64SOL    HW2  255   0.169   1.717   0.880  0.5292 -1.6333 -0.0416
   64SOL     MW  256   0.245   1.687   0.903  0.3031 -0.0457 -0.9011
   65SOL     OW  257   1.539   2.287   0.326  0.3660  0.1688 -0.0706
   65SOL    HW1  258   1.619   2.246   0.284 -0.1793 -3.2579 -0.5072
   65SOL    HW2  259   1.574   2.338   0.407  0.3599  4.6383  2.1792
   65SOL     MW  260   1.555   2.289   0.331  0.2933  0.3064  0.1687
   66SOL     OW  261   0.314   0.525   0.529  0.3619 -0.0564 -0.1075
   66SOL    HW1  262   0.396   0.500   0.481  1.1580  0.4972 -1.1107
   66SOL    HW2  263   0.303   0.613   0.488  2.8673  0.5852  0.4019
   66SOL     MW  264   0.323   0.534   0.517  0.7975  0.1013 -0.1727
   67SOL     OW  265   1.536   0.124   2.030 -0.1178 -0.2589  0.0306
   67SOL    HW1  266   1.568   0.176   1.956  0.5043 -1.7994 -1.5237
   67SOL    HW2  267   1.461   0.084   1.998  2.1946  2.1140  1.9425
   67SOL     MW  268   1.531   0.126   2.016  0.2693 -0.1491  0.0778
   68SOL     OW  269   0.624   0.069   2.937  0.0710 -0.3193  0.0014
   68SOL    HW1  270   0.600   0.059   2.846 -0.8322 -2.7256  1.0577
   68SOL    HW2  271   0.627   0.161   2.957 -0.7573  1.3454 -2.0813
   68SOL     MW  272   0.621   0.080   2.928 -0.1574 -0.4172 -0.1341
   69SOL     OW  273   1.016   0.202   1.950  0.1167 -0.3104 -0.2265
   69SOL    HW1  274   1.098   0.211   2.003 -2.5248  2.2366  2.3649
   69SOL    HW2  275   0.992   0.108   1.961 -3.0707  1.5511  0.9855
   69SOL     MW  276   1.024   0.191   1.959 -0.6524  0.2713  0.2753
   70SOL     OW  277   0.575   1.842   1.135 -0.2201  0.3131 -0.0381
   70SOL    HW1  278   0.555   1.755   1.103 -2.3759  0.3651 -2.2012
   70SOL    HW2  279   0.647   1.872   1.090 -0.0896  0.1062  2.5228
   70SOL     MW  280   0.582   1.835   1.125 -0.4874  0.2927  0.0144
   71SOL     OW  281   1.744   0.674   1.247  0.4628 -0.3584  0.3697
   71SOL    HW1  282   1.729   0.652   1.339 -1.3391 -2.1513  1.3865
   71SOL    HW2  283   1.659   0.666   1.201 -1.0794 -1.3010 -2.2213
   71SOL     MW  284   1.731   0.670   1.253  0.0216 -0.7193  0.1620
   72SOL     OW  285   0.841   1.788   0.970  0.0953 -0.4539 -0.0110
   72SOL    HW1  286   0.796   1.835   0.896 -0.5637 -0.1272  0.7823
   72SOL    HW2  287   0.823   1.694   0.962 -0.3574  1.4260  1.2029
   72SOL     MW  288   0.833   1.782   0.959 -0.0514 -0.1627  0.2538
   73SOL     OW  289   1.240   0.661   1.360 -0.0121  0.4265  0.2533
   73SOL    HW1  290   1.174   0.590   1.364 -0.0625 -0.0436 -0.3478
   73SOL    HW2  291   1.185   0.732   1.389  0.7985 -0.7296  1.6497
   73SOL     MW  292   1.224   0.661   1.364  0.0882  0.2119  0.3582
   74SOL     OW  293   2.806   0.161   0.993  0.7311  0.5354 -0.2458
   74SOL    HW1  294   2.771   0.113   0.921  2.0253  0.0352 -1.8025
   74SOL    HW2  295   2.794   0.254   0.964 -1.2847  1.7224  1.8071
   74SOL     MW  296   2.799   0.167   0.979  0.6359  0.6260 -0.1803
   75SOL     OW  297   1.589   1.326   0.093 -0.0738  0.2388  0.4488
   75SOL    HW1  298   1.632   1.332   0.179 -1.0140  1.1928 -0.7938
   75SOL    HW2  299   1.619   1.239   0.062 -1.6104 -0.3269  3.9955
   75SOL     MW  300   1.599   1.315   0.100 -0.4006  0.2900  0.7528
   76SOL     OW  301   2.951   0.658   0.468  0.3323  0.0556  0.2955
   76SOL    HW1  302   2.980   0.684   0.558  0.8147  0.5080 -0.4312
   76SOL    HW2  303   3.028   0.599   0.450  0.4286 -0.4659 -2.0781
   76SOL     MW  304   2.965   0.653   0.477  0.4087  0.0465 -0.1136
   77SOL     OW  305   0.877   0.444   0.488 -0.8985  0.3801 -0.6848
   77SOL    HW1  306   0.801   0.480   0.445 -2.3397 -1.2712  0.2125
   77SOL    HW2  307   0.848   0.349   0.506  2.4078  0.6570 -0.7726
   77SOL     MW  308   0.863   0.436   0.484 -0.6524  0.1987 -0.5780
   78SOL     OW  309   0.770   0.764   1.195  0.0005  0.3718 -0.1780
   78SOL    HW1  310   0.693   0.760   1.136  0.1179  1.0037  2.6655
   78SOL    HW2  311   0.785   0.860   1.202 -2.2624  1.0813  0.5544
   78SOL     MW  312   0.762   0.776   1.188 -0.2826  0.5488  0.2938
   79SOL     OW  313   1.934   1.698   0.608  0.7405  0.2483  0.4454
   79SOL    HW1  314   1.846   1.666   0.572  0.5021 -0.8485 -2.2617
   79SOL    HW2  315   1.926   1.711   0.704 -0.7058  0.2938  1.6193
   79SOL     MW  316   1.921   1.696   0.616  0.5182  0.1096  0.2431
   80SOL     OW  317   0.152   1.018   0.323  0.6122  0.3672  0.7174
   80SOL    HW1  318   0.059   0.989   0.351 -0.9513 -2.1440  1.9171
   80SOL    HW2  319   0.208   0.942   0.342  1.6468  1.8493 -1.9373
   80SOL     MW  320   0.147   1.004   0.329  0.5424  0.2314  0.5254
   81SOL     OW  321   1.886   1.891   0.225 -0.0474 -0.0178  0.6382
   81SOL    HW1  322   1.829   1.830   0.171 -0.3986  2.2351 -1.3593
   81SOL    HW2  323   1.832   1.974   0.211 -0.9110 -0.0430 -0.3097
   81SOL     MW  324   1.872   1.894   0.216 -0.2077  0.2761  0.2496
   82SOL     OW  325   0.807   1.015   0.561  0.2200  0.6163 -0.0909
   82SOL    HW1  326   0.858   1.042   0.486 -1.2264  1.6348  1.6604
   82SOL    HW2  327   0.771   0.925   0.527 -0.8546 -0.3415  0.9822
   82SOL     MW  328   0.809   1.007   0.547 -0.1126  0.6243  0.2818
   83SOL     OW  329   0.142   0.614   1.362  0.2201 -0.2776 -0.6431
   83SOL    HW1  330   0.132   0.714   1.372 -0.1101  1.3860  1.7235
   83SOL    HW2  331   0.203   0.581   1.429  3.3373  1.3315  1.3403
   83SOL     MW  332   0.149   0.623   1.372  0.5878  0.1542 -0.0692
   84SOL     OW  333   0.090   0.269   0.994  0.6085  0.1382 -0.3112
   84SOL    HW1  334   0.018   0.304   0.940 -0.3766 -0.9635 -0.7882
   84SOL    HW2  335   0.051   0.199   1.051  0.4790 -1.2152 -2.6144
   84SOL     MW  336   0.075   0.265   0.994  0.4614 -0.1857 -0.6780
   85SOL     OW  337   0.414   0.441   0.752  0.0643 -0.1635  0.1423
   85SOL    HW1  338   0.390   0.485   0.675 -2.0117  1.1200  2.0176
   85SOL    HW2  339   0.366   0.361   0.759  5.6727 -0.4992  2.3942
   85SOL     MW  340   0.404   0.437   0.743  0.5304 -0.0384  0.6869
   86SOL     OW  341   1.200   0.432   1.118  0.1129 -0.1505 -0.0075
   86SOL    HW1  342   1.133   0.475   1.061 -0.3376 -3.4469  1.4167
   86SOL    HW2  343   1.174   0.442   1.212 -0.7499 -0.7269  0.6891
   86SOL     MW  344   1.188   0.439   1.123 -0.0604 -0.6615  0.2724
   87SOL     OW  345   1.216   1.501   1.234 -0.1439 -0.0068 -0.0277
   87SOL    HW1  346   1.233   1.541   1.145  0.5725  1.0057  0.5431
   87SOL    HW2  347   1.237   1.411   1.222 -1.2048  0.5664 -1.0481
   87SOL     MW  348   1.221   1.494   1.221 -0.1894  0.2024 -0.0870
   88SOL     OW  349   1.313   1.009   1.008 -0.4343 -0.5912 -0.0091
   88SOL    HW1  350   1.403   1.013   1.045 -0.6093 -1.0648  1.1943
   88SOL    HW2  351   1.274   1.090   1.044  0.3576 -0.9055  0.5230
   88SOL     MW  352   1.320   1.020   1.017 -0.3529 -0.6952  0.2199
   89SOL     OW  353   1.742   0.651   0.346 -0.4210 -0.0924  0.3498
   89SOL    HW1  354   1.792   0.603   0.416  0.0780 -0.7044  0.1679
   89SOL    HW2  355   1.814   0.693   0.297  0.1125  0.0852  0.0333
   89SOL     MW  356   1.758   0.650   0.349 -0.2847 -0.1497  0.2840
   90SOL     OW  357   0.698   1.220   2.789 -0.6376  0.4238  0.6348
   90SOL    HW1  358   0.733   1.133   2.786 -1.6015 -0.4172  0.9949
   90SOL    HW2  359   0.701   1.254   2.886 -1.9404  4.6460  0.0792
   90SOL     MW  360   0.703   1.213   2.801 -0.9367  0.8699  0.6090
   91SOL     OW  361   2.105   0.665   0.548  0.0906  0.1807  0.7630
   91SOL    HW1  362   2.060   0.746   0.508 -0.0770 -1.8022 -2.2341
   91SOL    HW2  363   2.121   0.602   0.479  3.5181  0.8654 -0.1683
   91SOL     MW  364   2.101   0.667   0.533  0.5207  0.0094  0.2447
   92SOL     OW  365   1.562   0.856   0.431 -0.1660  0.7012 -0.0798
   92SOL    HW1  366   1.488   0.808   0.473  0.5827 -2.0472  2.7449
   92SOL    HW2  367   1.602   0.789   0.375 -1.2533  1.5626  2.0499
   92SOL     MW  368   1.558   0.841   0.429 -0.2107  0.4522  0.5739
   93SOL     OW  369   1.062   0.291   0.331 -0.4299  0.9064  0.1135
   93SOL    HW1  370   1.000   0.361   0.355 -2.0864 -1.6055 -0.1764
   93SOL    HW2  371   1.086   0.313   0.242  2.5299 -1.1391 -1.1812
   93SOL     MW  372   1.057   0.303   0.323 -0.2579  0.3051 -0.0956
   94SOL     OW  373   1.909   1.310   1.656 -0.2135  0.2347 -0.2766
   94SOL    HW1  374   1.934   1.325   1.568  0.7389  1.8323 -2.2806
   94SOL    HW2  375   1.902   1.214   1.667 -0.8107 -3.1005  1.1311
   94SOL     MW  376   1.911   1.299   1.646 -0.1667  0.0054 -0.3553
   95SOL     OW  377   0.796   1.524   0.964 -0.6216 -0.0484 -0.1721
   95SOL    HW1  378   0.880   1.484   0.969 -0.0604 -2.4189 -2.6816
   95SOL    HW2  379   0.751   1.529   1.054 -1.2541 -0.4647  1.1452
   95SOL     MW  380   0.801   1.519   0.976 -0.6310 -0.4161 -0.3294
   96SOL     OW  381   1.244   1.807   1.596  0.2580 -0.1405 -0.0088
   96SOL    HW1  382   1.152   1.773   1.593 -4.7664  0.2315 -2.6991
   96SOL    HW2  383   1.297   1.763   1.531 -0.7814  0.2124 -1.2789
   96SOL     MW  384   1.239   1.796   1.587 -0.5421 -0.0449 -0.5313
   97SOL     OW  385   1.221   1.411   0.812 -0.2876  0.0732 -0.5154
   97SOL    HW1  386   1.252   1.440   0.897  2.9587 -0.3214  1.3339
   97SOL    HW2  387   1.151   1.469   0.786  1.7698 -0.1503  1.8605
   97SOL     MW  388   1.216   1.423   0.820  0.4121 -0.0084  0.0421
   98SOL     OW  389   1.515   1.320   1.123 -0.0207  0.7667 -0.6094
   98SOL    HW1  390   1.556   1.377   1.190 -0.0576 -0.4006  0.0429
   98SOL    HW2  391   1.552   1.350   1.039  0.0587 -0.2428 -0.3163
   98SOL     MW  392   1.526   1.331   1.121 -0.0151  0.4795 -0.4847
   99SOL     OW  393   1.520   0.322   1.291 -0.2575  0.0849 -0.0179
   99SOL    HW1  394   1.522   0.391   1.229  0.2309  1.5791 -2.2246
   99SOL    HW2  395   1.505   0.358   1.381  1.8892  1.5992 -0.3476
   99SOL     MW  396   1.518   0.336   1.295  0.0902  0.4818 -0.3525
  100SOL     OW  397   1.036   1.082   1.417 -0.2027 -0.0136  0.5246
  100SOL    HW1  398   0.964   1.115   1.468 -0.0818 -0.9732  0.0122
  100SOL    HW2  399   1.036   0.987   1.440 -0.8608  0.1075  0.4268
  100SOL     MW  400   1.026   1.074   1.427 -0.2736 -0.1242  0.4441
  101SOL     OW  401   0.624   1.145   0.268 -0.2463 -0.2888 -0.5068
  101SOL    HW1  402   0.596   1.054   0.297  0.7253 -0.5879  0.3967
  101SOL    HW2  403   0.561   1.169   0.200 -1.5805 -0.9316 -2.5980
  101SOL     MW  404   0.612   1.136   0.263 -0.2941 -0.4131 -0.6635
  102SOL     OW  405   2.952   0.590   0.998 -0.0797 -0.1648  0.2561
  102SOL    HW1  406   2.998   0.664   0.977 -1.1834 -0.5927 -0.6995
  102SOL    HW2  407   2.999   0.543   1.064 -0.7194  0.4051 -1.7578
  102SOL     MW  408   2.964   0.594   1.004 -0.3097 -0.1460 -0.1357
  103SOL     OW  409   1.627   0.380   1.862  0.3383  0.0781  0.0840
  103SOL    HW1  410   1.608   0.325   1.779 -0.0938 -0.5703  0.8279
  103SOL    HW2  411   1.710   0.351   1.897 -0.8723  3.1654 -2.0197
  103SOL     MW  412   1.635   0.369   1.856  0.1216  0.3999 -0.0954
  104SOL     OW  413   0.172   1.864   1.399  0.6243 -0.0728  0.0953
  104SOL    HW1  414   0.254   1.820   1.384  1.8877  0.1771 -0.2032
  104SOL    HW2  415   0.095   1.812   1.358 -2.1629  2.3622 -0.3352
  104SOL     MW  416   0.173   1.851   1.392  0.4232  0.2815 -0.0009
  105SOL     OW  417   0.175   1.166   0.561 -0.0787  0.1005 -0.1484
  105SOL    HW1  418   0.185   1.117   0.481 -0.9587 -0.3782  0.4659
  105SOL    HW2  419   0.229   1.251   0.551 -2.9086  2.3441  2.2559
  105SOL     MW  420   0.183   1.171   0.549 -0.5682  0.3334  0.2499
  106SOL     OW  421   0.853   0.324   0.940 -0.5824 -0.1996  0.2052
  106SOL    HW1  422   0.795   0.387   0.900 -1.7425 -1.3109  1.9587
  106SOL    HW2  423   0.939   0.325   0.898 -0.7019  1.6987  1.3406
  106SOL     MW  424   0.856   0.332   0.930 -0.7512 -0.0958  0.5864
  107SOL     OW  425   0.818   2.183   3.014  0.2177 -0.3723 -0.5273
  107SOL    HW1  426   0.791   2.093   2.986  0.7887 -0.5029  2.5369
  107SOL    HW2  427   0.894   2.179   3.073  1.5832  0.9295 -3.3974
  107SOL     MW  428   0.824   2.170   3.018  0.4732 -0.2178 -0.5017
  108SOL     OW  429   1.376   1.613   1.423 -0.5273  0.5690  0.0157
  108SOL    HW1  430   1.344   1.577   1.342  0.6811  0.1938 -0.6937
  108SOL    HW2  431   1.312   1.572   1.468  2.1769 -0.4822 -2.4701
  108SOL     MW  432   1.364   1.603   1.419 -0.0110  0.3808 -0.4059
  109SOL     OW  433   1.945   0.771   0.193  0.3259  0.6312 -0.5468
  109SOL    HW1  434   1.991   0.708   0.136 -0.0917 -4.0592 -1.3267
  109SOL    HW2  435   2.013   0.801   0.258  1.3406 -1.1945 -1.7178
  109SOL     MW  436   1.960   0.767   0.194  0.4047 -0.2285 -0.8042
  110SOL     OW  437   0.424   1.810   0.709  0.4375  0.1729  0.2420
  110SOL    HW1  438   0.485   1.751   0.665  0.4845 -2.5938  1.3288
  110SOL    HW2  439   0.423   1.896   0.656 -2.0930  1.1421 -1.3720
  110SOL     MW  440   0.432   1.814   0.697  0.1098 -0.0643  0.1725
  111SOL     OW  441   0.731   0.847   1.512 -0.1273 -0.2092 -0.0899
  111SOL    HW1  442   0.736   0.811   1.421  1.6365 -0.1500  0.0891
  111SOL    HW2  443   0.644   0.819   1.536  0.6693 -0.9133 -0.2343
  111SOL     MW  444   0.720   0.839   1.503  0.2105 -0.2943 -0.0853
  112SOL     OW  445   1.327   1.073   1.717  0.4799 -0.2995  0.6688
  112SOL    HW1  446   1.255   1.141   1.721  0.7014 -2.1226  2.5888
  112SOL    HW2  447   1.294   0.988   1.728  0.3808  1.4128  0.3709
  112SOL     MW  448   1.313   1.071   1.719  0.4960 -0.3141  0.8829
  113SOL     OW  449   1.372   0.045   1.710 -0.1815 -0.9170 -0.0379
  113SOL    HW1  450   1.341   0.018   1.801 -1.2562 -1.3914  0.3044
  113SOL    HW2  451   1.327  -0.018   1.653 -0.3302 -0.7072  2.3586
  113SOL     MW  452   1.362   0.033   1.714 -0.3429 -0.9519  0.3235
  114SOL     OW  453   0.486   2.820   1.839  0.8385  0.2396  0.5248
  114SOL    HW1  454   0.454   2.869   1.918  0.4578  1.8991  0.3707
  114SOL    HW2  455   0.460   2.873   1.764  0.0858 -0.3822 -0.6156
  114SOL     MW  456   0.478   2.834   1.839  0.6889  0.3765  0.3540
  115SOL     OW  457   0.458   0.827   1.125 -0.2940  0.3753  0.4590
  115SOL    HW1  458   0.470   0.740   1.147  0.6137  0.8863 -0.5071
  115SOL    HW2  459   0.408   0.867   1.202  0.5315  1.7615  0.8799
  115SOL     MW  460   0.453   0.821   1.138 -0.0653  0.6256  0.3871
  116SOL     OW  461   0.753   1.030   0.909 -0.3546  0.5087 -0.3313
  116SOL    HW1  462   0.817   1.069   0.855  0.5002  1.0368  2.8575
  116SOL    HW2  463   0.806   1.019   0.985 -0.6252  2.1677  1.6699
  116SOL     MW  464   0.768   1.034   0.912 -0.2775  0.7973  0.3535
  117SOL     OW  465   1.221   1.118   0.742 -0.1357  0.1400  0.1761
  117SOL    HW1  466   1.237   1.058   0.815 -1.8513  0.8756 -2.6062
  117SOL    HW2  467   1.256   1.207   0.770  1.7580 -0.5134  0.5881
  117SOL     MW  468   1.228   1.122   0.755 -0.1122  0.1509 -0.1367
  118SOL     OW  469   3.051   3.001   1.697 -0.1158 -0.1152  0.4997
  118SOL    HW1  470   3.091   3.014   1.785 -0.1196  2.8709  2.4566
  118SOL    HW2  471   2.954   3.011   1.706  2.3593 -2.8749  0.5788
  118SOL     MW  472   3.044   3.004   1.710  0.2103 -0.0853  0.7683
  119SOL     OW  473   0.533   1.322   1.203 -0.1596 -0.0467 -0.4834
  119SOL    HW1  474   0.524   1.353   1.113  1.3749  0.8200  0.7080
  119SOL    HW2  475   0.443   1.279   1.215 -3.5103  0.9813  3.0423
  119SOL     MW  476   0.520   1.320   1.192 -0.3992  0.2033  0.1389
  120SOL     OW  477   0.207   0.691   0.925 -0.2566  0.0885 -0.0011
  120SOL    HW1  478   0.239   0.640   0.999 -0.3425  0.9243 -0.8974
  120SOL    HW2  479   0.206   0.783   0.954  1.8241  1.7303  0.4117
  120SOL     MW  480   0.211   0.696   0.938  0.0066  0.4154 -0.0649
  121SOL     OW  481   1.824   1.046   1.710  0.4230  0.3831  0.0762
  121SOL    HW1  482   1.730   1.021   1.727 -0.5662 -0.8655  0.4820
  121SOL    HW2  483   1.850   0.974   1.651 -1.8360  1.9486  0.1692
  121SOL     MW  484   1.815   1.033   1.705 -0.0056  0.4249  0.1420
  122SOL     OW  485   0.103   0.511   0.760  0.6079 -0.2438 -0.0035
  122SOL    HW1  486   0.167   0.458   0.714  1.4950  1.5573  0.1463
  122SOL    HW2  487   0.156   0.562   0.819 -0.4151 -0.3485  0.0670
  122SOL     MW  488   0.118   0.510   0.761  0.5900 -0.0200  0.0256
  123SOL     OW  489   1.788   1.027   0.466  0.1734  0.2873 -0.3202
  123SOL    HW1  490   1.712   0.964   0.458  3.0430 -2.0581 -3.2093
  123SOL    HW2  491   1.811   1.036   0.564 -1.1484 -0.2714  1.4465
  123SOL     MW  492   1.781   1.020   0.478  0.3776 -0.0959 -0.4683
  124SOL     OW  493   0.663   0.511   0.860  0.3659 -0.1007  0.3052
  124SOL    HW1  494   0.575   0.474   0.822 -0.8666  1.7251 -0.3267
  124SOL    HW2  495   0.671   0.600   0.828  0.0364 -2.4473 -1.5407
  124SOL     MW  496   0.653   0.518   0.851  0.1598 -0.1694 -0.0217
  125SOL     OW  497   0.693   1.717   1.666  0.0917 -0.0922  0.0253
  125SOL    HW1  498   0.615   1.649   1.663  1.2893 -0.9907 -1.9055
  125SOL    HW2  499   0.661   1.809   1.673 -0.1123  0.3868  1.2472
  125SOL     MW  500   0.678   1.720   1.667  0.2228 -0.1476 -0.0682
  126SOL     OW  501   2.106   1.609   1.968 -0.4451 -0.1723 -0.4101
  126SOL    HW1  502   2.177   1.678   1.963 -0.2136 -0.0877  2.2810
  126SOL    HW2  503   2.151   1.528   1.993  1.5940 -0.4608  2.8868
  126SOL     MW  504   2.121   1.607   1.970 -0.1455 -0.1992  0.3800
  127SOL     OW  505   0.624   0.742   1.874  0.0349  0.1920 -0.4184
  127SOL    HW1  506   0.703   0.715   1.910  0.7832  1.4991 -2.6988
  127SOL    HW2  507   0.609   0.832   1.914 -0.6556 -0.5566  0.1064
  127SOL     MW  508   0.633   0.750   1.884  0.0425  0.2657 -0.6500
  128SOL     OW  509   1.816   0.745   2.896  0.0501  0.0494  0.4774
  128SOL    HW1  510   1.836   0.724   2.805 -0.2972  1.5964  0.7375
  128SOL    HW2  511   1.773   0.832   2.881  0.6584 -1.1063 -0.8190
  128SOL     MW  512   1.813   0.754   2.882  0.0845  0.1010  0.3406
  129SOL     OW  513   1.483   0.990   0.211 -0.5235  0.3492 -0.3466
  129SOL    HW1  514   1.429   0.915   0.213  2.8794  0.8473  2.3735
  129SOL    HW2  515   1.542   0.982   0.286  0.0564  0.8257 -1.4841
  129SOL     MW  516   1.484   0.979   0.221  0.0020  0.4778 -0.1378
  130SOL     OW  517   0.745   1.468   0.385 -0.5898 -0.4896  0.4812
  130SOL    HW1  518   0.795   1.421   0.460  1.0351  0.2678  2.4294
  130SOL    HW2  519   0.813   1.501   0.330 -1.0563  0.6767  0.7220
  130SOL     MW  520   0.761   1.466   0.388 -0.4369 -0.2358  0.7700
  131SOL     OW  521   3.063   0.785   0.082  0.0403  0.3027  0.0242
  131SOL    HW1  522   3.040   0.842  -0.002  0.2702  1.2882 -3.6650
  131SOL    HW2  523   3.156   0.797   0.090  2.4773  2.0425  2.1616
  131SOL     MW  524   3.072   0.794   0.072  0.3922  0.6623 -0.1805
  132SOL     OW  525   2.768   0.158   1.268  0.0998 -0.0397 -0.1045
  132SOL    HW1  526   2.785   0.169   1.174 -1.2502  0.7665  0.8906
  132SOL    HW2  527   2.672   0.149   1.275  0.7822  0.6789  0.2965
  132SOL     MW  528   2.758   0.158   1.256  0.0117  0.1615  0.0797
  133SOL     OW  529   1.125   0.177   1.696 -0.4131 -0.3679 -0.0172
  133SOL    HW1  530   1.195   0.112   1.699 -0.2224 -0.5375 -1.5599
  133SOL    HW2  531   1.088   0.182   1.782  2.0795 -0.2530  1.0010
  133SOL     MW  532   1.129   0.169   1.708 -0.0591 -0.3751 -0.0864
  134SOL     OW  533   1.365   2.514   1.396  0.3864  0.2080 -0.2224
  134SOL    HW1  534   1.286   2.573   1.376  2.2586  1.1663 -2.1428
  134SOL    HW2  535   1.405   2.532   1.488  0.1999  2.8143  2.1561
  134SOL     MW  536   1.360   2.524   1.405  0.6088  0.6783 -0.1619
  135SOL     OW  537   3.028   0.983   2.966 -0.1825  0.5274 -0.3547
  135SOL    HW1  538   3.082   1.050   3.005  0.3345 -0.0470  1.8046
  135SOL    HW2  539   2.946   1.035   2.932  1.4016  0.9354  0.1347
  135SOL     MW  540   3.025   0.999   2.967  0.0947  0.5055 -0.0052
  136SOL     OW  541   0.292   2.002   0.865 -0.2529 -0.4719  0.6045
  136SOL    HW1  542   0.224   1.952   0.821 -0.2426  3.1918 -0.9949
  136SOL    HW2  543   0.366   2.015   0.812 -0.4702  1.2761 -1.3327
  136SOL     MW  544   0.292   1.997   0.852 -0.2802  0.2421  0.1378
  137SOL     OW  545   0.746   2.004   0.533  0.7042 -0.4041 -0.6998
  137SOL    HW1  546   0.766   2.002   0.626 -2.2829 -0.0046  2.3587
  137SOL    HW2  547   0.656   2.039   0.530 -0.4041  1.0553 -2.4569
  137SOL     MW  548   0.737   2.008   0.545  0.1638 -0.1588 -0.5281
  138SOL     OW  549   0.537   0.563   1.086 -0.4100 -0.0637  0.2733
  138SOL    HW1  550   0.447   0.544   1.077  0.4043 -1.8295  1.5705
  138SOL    HW2  551   0.587   0.544   0.998  1.4917 -1.2416 -0.5264
  138SOL     MW  552   0.532   0.558   1.073 -0.0517 -0.4521  0.3389
  139SOL     OW  553   2.723   0.475   1.402 -0.0079 -0.3163  0.0192
  139SOL    HW1  554   2.801   0.415   1.383  0.0019  1.1095 -3.7171
  139SOL    HW2  555   2.764   0.563   1.381 -3.1322  0.7298 -3.9086
  139SOL     MW  556   2.739   0.479   1.396 -0.4188  0.0099 -0.9920
  140SOL     OW  557   0.858   0.371   2.091 -0.3362  0.9006 -0.5559
  140SOL    HW1  558   0.897   0.309   2.030 -0.6048  0.0042  1.2802
  140SOL    HW2  559   0.916   0.372   2.168 -0.6134 -0.1086  1.9778
  140SOL     MW  560   0.871   0.363   2.093 -0.4082  0.6491  0.0207
  141SOL     OW  561   1.013   0.608   1.729  0.0561 -0.4503 -0.1419
  141SOL    HW1  562   1.062   0.532   1.686  0.1704 -1.4803  0.5392
  141SOL    HW2  563   1.084   0.674   1.732  3.8358  0.1878 -1.9026
  141SOL     MW  564   1.029   0.607   1.724  0.5699 -0.5020 -0.2844
  142SOL     OW  565   0.950   1.175   0.751  0.4962 -0.6873  0.0055
  142SOL    HW1  566   0.932   1.120   0.666  1.3991  1.3942 -3.6771
  142SOL    HW2  567   1.049   1.177   0.760 -2.4117 -0.3922 -2.2867
  142SOL     MW  568   0.961   1.168   0.741  0.2317 -0.3737 -0.7828
  143SOL     OW  569   1.849   0.884   1.099 -0.6003 -0.6985 -0.4943
  143SOL    HW1  570   1.867   0.849   1.013 -2.0542 -1.4877  0.2770
  143SOL    HW2  571   1.811   0.812   1.148 -1.5377  0.0127  0.4543
  143SOL     MW  572   1.847   0.870   1.094 -0.9158 -0.7088 -0.2674
  144SOL     OW  573   0.180   1.162   1.536  0.9478  0.0748 -0.1310
  144SOL    HW1  574   0.276   1.154   1.534  0.0222 -3.2571 -1.3183
  144SOL    HW2  575   0.162   1.192   1.626  3.5757 -0.6437 -0.8565
  144SOL     MW  576   0.190   1.165   1.547  1.1724 -0.4596 -0.3833
  145SOL     OW  577   0.254   0.459   1.082 -0.3119 -0.9575 -0.1178
  145SOL    HW1  578   0.287   0.411   1.160  0.7896 -0.0490  0.1588
  145SOL    HW2  579   0.193   0.403   1.024  1.7804  3.5294 -0.2731
  145SOL     MW  580   0.250   0.445   1.085  0.1095 -0.2456 -0.1018
  146SOL     OW  581   0.888   1.897   1.389 -0.0368  0.4896  0.6458
  146SOL    HW1  582   0.930   1.943   1.310  1.8369  4.5046  2.0210
  146SOL    HW2  583   0.790   1.901   1.372 -2.7769 -0.9194 -1.3528
  146SOL     MW  584   0.880   1.904   1.377 -0.1511  0.8335  0.5635
  147SOL     OW  585   0.391   0.425   2.893  0.0069 -0.4311  0.1317
  147SOL    HW1  586   0.337   0.415   2.971  3.8380  1.4685 -1.0301
  147SOL    HW2  587   0.349   0.494   2.839  0.6580  0.6916  1.5077
  147SOL     MW  588   0.378   0.433   2.896  0.5983 -0.0324  0.1600
  148SOL     OW  589   0.025   0.921   1.337  0.0345 -0.3920  0.4552
  148SOL    HW1  590   0.121   0.949   1.338  3.0650  0.8796 -0.9373
  148SOL    HW2  591  -0.014   0.932   1.428  1.6150 -2.1970  0.9070
  148SOL     MW  592   0.033   0.926   1.349  0.6429 -0.4623  0.3311
  149SOL     OW  593   1.412   1.174   1.449 -0.0480  0.3159  0.6046
  149SOL    HW1  594   1.391   1.112   1.525 -3.0376  1.7567  0.0137
  149SOL    HW2  595   1.500   1.213   1.466  1.2928  1.1193 -0.0100
  149SOL     MW  596   1.421   1.171   1.461 -0.2655  0.6120  0.4455
  150SOL     OW  597   1.821   1.285   0.788 -0.2210 -0.5427  0.0594
  150SOL    HW1  598   1.841   1.198   0.761  0.7530  1.1594  0.1832
  150SOL    HW2  599   1.885   1.295   0.858  2.7023 -1.0141  0.8447
  150SOL     MW  600   1.832   1.275   0.794  0.2932 -0.3803  0.1793
  151SOL     OW  601   1.647   1.832   0.862  0.1640  0.5276  0.2667
  151SOL    HW1  602   1.585   1.818   0.791  3.5658 -1.6335 -0.0854
  151SOL    HW2  603   1.611   1.771   0.929  2.1654  2.7083  0.0057
  151SOL     MW  604   1.634   1.822   0.862  0.8769  0.5302  0.1858
  152SOL     OW  605   0.793   1.344   1.529 -0.1745 -0.4859 -0.2338
  152SOL    HW1  606   0.793   1.244   1.529 -1.1974  1.5229 -0.1913
  152SOL    HW2  607   0.871   1.368   1.483  0.5437 -2.4959  0.5736
  152SOL     MW  608   0.804   1.334   1.523 -0.2147 -0.4860 -0.1216
  153SOL     OW  609   2.664   1.227   0.717 -0.1718  0.1249 -0.2825
  153SOL    HW1  610   2.735   1.209   0.651 -3.8232 -0.2639 -2.5612
  153SOL    HW2  611   2.601   1.141   0.721 -1.9837  0.6103 -0.3116
  153SOL     MW  612   2.665   1.213   0.709 -0.8927  0.1376 -0.5870
  154SOL     OW  613   0.332   1.761   1.686 -0.1399  0.0268 -0.0199
  154SOL    HW1  614   0.339   1.739   1.589 -0.4970 -1.9251  1.3094
  154SOL    HW2  615   0.342   1.683   1.743  3.6648 -1.3660 -1.4560
  154SOL     MW  616   0.334   1.748   1.681  0.3149 -0.4145 -0.0340
  155SOL     OW  617   1.098   0.679   0.298 -0.4116 -0.3997 -0.5360
  155SOL    HW1  618   1.114   0.642   0.385  0.5739  1.9018  1.4421
  155SOL    HW2  619   1.062   0.765   0.323 -0.1293  0.1759  0.3501
  155SOL     MW  620   1.095   0.686   0.313 -0.2443 -0.0201 -0.1581
  156SOL     OW  621   1.483   3.025   1.035 -0.0425 -0.1558  0.4085
  156SOL    HW1  622   1.502   3.112   1.061  0.7278 -1.9040 -2.9511
  156SOL    HW2  623   1.495   2.970   1.111 -0.3363  0.3883 -0.8756
  156SOL     MW  624   1.487   3.029   1.049  0.0204 -0.3147 -0.2042
  157SOL     OW  625   1.358   1.211   0.153 -0.1139 -0.5313  0.4337
  157SOL    HW1  626   1.418   1.129   0.156  1.7081 -1.2003 -1.9745
  157SOL    HW2  627   1.428   1.276   0.124 -1.4048 -0.4654  1.8351
  157SOL     MW  628   1.375   1.209   0.150 -0.0439 -0.6109  0.3008
  158SOL     OW  629   0.425   1.670   2.264  0.4341 -0.1921 -0.1680
  158SOL    HW1  630   0.412   1.738   2.200  0.8450 -1.0327 -1.0795
  158SOL    HW2  631   0.337   1.631   2.257 -1.4743  0.6336  1.8579
  158SOL     MW  632   0.411   1.674   2.254  0.2365 -0.1940 -0.0210
  159SOL     OW  633   1.317   1.664   0.454 -0.3390  0.2860  0.0034
  159SOL    HW1  634   1.269   1.588   0.420  1.5754  1.9351 -0.2889
  159SOL    HW2  635   1.244   1.727   0.483 -0.1715  2.2279  2.1947
  159SOL     MW  636   1.301   1.662   0.453 -0.0643  0.7598  0.2540
  160SOL     OW  637   0.465   1.086   1.552  0.3911  0.4363  0.1399
  160SOL    HW1  638   0.477   1.021   1.617 -0.8734  2.0640  0.1472
  160SOL    HW2  639   0.475   1.162   1.609  1.0332  1.7544 -0.4933
  160SOL     MW  640   0.468   1.087   1.568  0.3090  0.8250  0.0573
  161SOL     OW  641   0.560   2.112   2.693 -0.5750  0.2686 -0.9612
  161SOL    HW1  642   0.474   2.136   2.723  1.0257  1.4946  0.0096
  161SOL    HW2  643   0.558   2.081   2.607  0.3859  2.1220  0.8620
  161SOL     MW  644   0.549   2.111   2.685 -0.2370  0.6749 -0.5925
  162SOL     OW  645   0.994   1.669   1.783 -0.3482  0.0475 -0.4239
  162SOL    HW1  646   1.026   1.757   1.772  2.2876 -4.9421  1.8983
  162SOL    HW2  647   0.916   1.672   1.833  2.4166  2.0327 -0.2008
  162SOL     MW  648   0.988   1.681   1.788  0.3644 -0.3489 -0.0881
  163SOL     OW  649   2.117   0.193   0.964  0.2702  0.2646  0.0623
  163SOL    HW1  650   2.135   0.177   0.877 -0.5360  1.7085  2.1538
  163SOL    HW2  651   2.060   0.121   0.995  0.7957 -0.2936 -0.3179
  163SOL     MW  652   2.112   0.182   0.957  0.2332  0.3815  0.2881
  164SOL     OW  653   0.243   0.235   0.771  0.1175  0.2357 -1.0260
  164SOL    HW1  654   0.174   0.242   0.840 -0.3524  0.6340  2.2293
  164SOL    HW2  655   0.250   0.144   0.751 -1.1652  1.1914 -1.2341
  164SOL     MW  656   0.235   0.224   0.778 -0.1138  0.4143 -0.6240
  165SOL     OW  657   1.370   1.243   0.424  0.0478  0.1272  0.3700
  165SOL    HW1  658   1.353   1.169   0.480  1.1450  2.2199  1.4557
  165SOL    HW2  659   1.378   1.210   0.334 -0.6597 -1.3041 -0.7022
  165SOL     MW  660   1.369   1.229   0.419  0.0992  0.2144  0.3718
  166SOL     OW  661   0.483   1.055   0.951  0.0793 -0.3600 -0.4868
  166SOL    HW1  662   0.456   0.982   1.010  1.4824 -3.0478  1.3332
  166SOL    HW2  663   0.578   1.056   0.948  0.3788 -1.2234  2.5206
  166SOL     MW  664   0.492   1.045   0.958  0.3040 -0.8286  0.1501
  167SOL     OW  665   0.887   1.142   0.262 -0.0143  0.0726  0.0690
  167SOL    HW1  666   0.796   1.143   0.273 -0.0227  1.0517  1.3294
  167SOL    HW2  667   0.912   1.165   0.168  1.9426 -0.6380 -0.0391
  167SOL     MW  668   0.878   1.145   0.251  0.2428  0.1080  0.2210
  168SOL     OW  669   1.695   1.738   2.873 -0.3573 -0.0633 -0.0894
  168SOL    HW1  670   1.653   1.800   2.936  1.0308 -1.8011  2.3062
  168SOL    HW2  671   1.688   1.647   2.916 -2.1593  0.2995 -2.4116
  168SOL     MW  672   1.688   1.734   2.887 -0.4119 -0.2447 -0.0797
  169SOL     OW  673   0.330   0.951   1.339  0.1262  0.1761  0.1545
  169SOL    HW1  674   0.387   0.935   1.414 -2.2030 -3.4430 -0.4314
  169SOL    HW2  675   0.352   1.044   1.317  1.0828  1.0087 -0.7850
  169SOL     MW  676   0.341   0.961   1.346 -0.0549 -0.1915 -0.0468
  170SOL     OW  677   1.060   1.467   1.471  0.8047  0.2678 -0.4647
  170SOL    HW1  678   0.996   1.537   1.433 -2.4942  1.6252 -1.2609
  170SOL    HW2  679   1.115   1.447   1.401 -0.9738 -0.8881 -0.6605
  170SOL     MW  680   1.059   1.474   1.456  0.1348  0.2944 -0.5956
  171SOL     OW  681   0.609   1.396   0.714 -0.2988 -0.1255 -0.1655
  171SOL    HW1  682   0.576   1.371   0.804 -1.0674  0.1857 -1.7584
  171SOL    HW2  683   0.589   1.318   0.666 -1.9052  0.5510  0.5642
  171SOL     MW  684   0.602   1.382   0.720 -0.6122  0.0048 -0.2794
  172SOL     OW  685   0.865   0.321   1.204 -0.2236  0.1296  0.0668
  172SOL    HW1  686   0.863   0.342   1.103  2.1941  0.0425 -1.5147
  172SOL    HW2  687   0.777   0.347   1.241  0.0841 -1.4886 -0.0583
  172SOL     MW  688   0.853   0.327   1.196  0.1360 -0.0954 -0.1583
  173SOL     OW  689   0.479   1.731   0.360 -0.2618  0.0511  0.1084
  173SOL    HW1  690   0.453   1.639   0.340  0.1848  0.2970 -0.7577
  173SOL    HW2  691   0.507   1.735   0.452  2.8642  2.1803  0.2667
  173SOL     MW  692   0.479   1.719   0.370  0.2096  0.3644  0.0150
  174SOL     OW  693   2.008   0.938   1.481 -0.1634  0.2306 -0.7929
  174SOL    HW1  694   1.948   0.870   1.507 -4.3030  1.5492  0.2137
  174SOL    HW2  695   1.960   0.985   1.416 -0.4962 -0.4776  2.7609
  174SOL     MW  696   1.993   0.936   1.476 -0.7535  0.3112 -0.1912
  175SOL     OW  697   0.486   1.443   0.315 -0.1198  0.4692  0.1729
  175SOL    HW1  698   0.473   1.422   0.224  2.1300 -1.6560 -2.0001
  175SOL    HW2  699   0.579   1.452   0.328  1.0706 -0.9836  0.8629
  175SOL     MW  700   0.497   1.442   0.305  0.3341 -0.0029 -0.0228
  176SOL     OW  701   0.290   1.230   1.215 -0.9091  0.7743 -0.6721
  176SOL    HW1  702   0.218   1.220   1.149  0.2346  3.4494 -0.4956
  176SOL    HW2  703   0.270   1.311   1.250  0.3470 -1.9905 -1.1128
  176SOL     MW  704   0.278   1.240   1.211 -0.5925  0.7624 -0.7069
  177SOL     OW  705   0.627   0.432   1.316  0.0590 -1.1361  0.3169
  177SOL    HW1  706   0.616   0.502   1.241  1.4335  1.9767  0.1713
  177SOL    HW2  707   0.624   0.475   1.405  2.7314 -1.4234  3.0426
  177SOL     MW  708   0.625   0.446   1.318  0.5930 -0.7633  0.6573
  178SOL     OW  709   3.087   0.412   2.937 -0.4548  0.2407 -1.1183
  178SOL    HW1  710   3.027   0.437   3.016 -0.4830  1.1142  0.4722
  178SOL    HW2  711   3.032   0.431   2.867 -2.0865 -2.4829  1.3085
  178SOL     MW  712   3.072   0.418   2.938 -0.6738 -0.0034 -0.5883
  179SOL     OW  713   1.652   1.307   1.484  0.6565 -0.3127 -0.6183
  179SOL    HW1  714   1.635   1.372   1.551 -1.1737  1.2586  1.4505
  179SOL    HW2  715   1.746   1.312   1.468  0.3811  0.4113  2.9120
  179SOL     MW  716   1.662   1.316   1.491  0.3787 -0.0099  0.1205
  180SOL     OW  717   3.007   0.243   0.464 -0.7562 -1.3502 -0.3108
  180SOL    HW1  718   2.976   0.248   0.369  0.0716 -0.7172 -2.6387
  180SOL    HW2  719   3.050   0.327   0.475  0.4024  0.9438 -0.2075
  180SOL     MW  720   3.009   0.255   0.453 -0.4941 -0.9640 -0.6043
  181SOL     OW  721   1.107   1.453   3.064  0.0175  0.2815 -0.2092
  181SOL    HW1  722   1.149   1.527   3.109  0.7301  1.5407 -1.4964
  181SOL    HW2  723   1.164   1.445   2.988 -2.1563 -1.6344 -0.0021
  181SOL     MW  724   1.120   1.462   3.060 -0.1753  0.1949 -0.3517
  182SOL     OW  725   0.460   0.823   1.628 -0.4124  0.0997  0.4283
  182SOL    HW1  726   0.371   0.805   1.664 -0.5561  0.0841  1.5471
  182SOL    HW2  727   0.517   0.779   1.690 -0.6905  0.6163 -0.0718
  182SOL     MW  728   0.455   0.815   1.641 -0.4681  0.1658  0.5100
  183SOL     OW  729   1.628   1.520   1.291 -1.0141 -0.3546 -0.4463
  183SOL    HW1  730   1.551   1.551   1.344 -1.9245  0.0448  2.1673
  183SOL    HW2  731   1.681   1.474   1.353 -0.1784  0.2706 -0.0940
  183SOL     MW  732   1.625   1.518   1.306 -1.0239 -0.2194 -0.0550
  184SOL     OW  733   0.863   0.617   1.997 -0.0601  0.1235  0.1407
  184SOL    HW1  734   0.919   0.634   1.919 -1.4387 -0.1911  1.2059
  184SOL    HW2  735   0.854   0.526   2.014  0.3681  3.6768  0.8001
  184SOL     MW  736   0.869   0.607   1.989 -0.1855  0.5508  0.3683
  185SOL     OW  737   1.105   0.936   1.974 -0.2691 -0.3591  0.4761
  185SOL    HW1  738   1.104   0.861   2.038 -2.3406 -1.7582  3.4145
  185SOL    HW2  739   1.173   1.002   2.004  0.6489 -3.1040  0.7648
  185SOL     MW  740   1.114   0.935   1.986 -0.4213 -0.9059  0.9019
  186SOL     OW  741   0.395   1.679   1.414 -0.0160  0.3917 -0.0917
  186SOL    HW1  742   0.464   1.706   1.357 -0.0700  0.7213 -1.6516
  186SOL    HW2  743   0.348   1.610   1.370  1.1683 -0.6963 -0.6280
  186SOL     MW  744   0.398   1.674   1.401  0.1331  0.2917 -0.3683
  187SOL     OW  745   1.513   0.689   1.453 -0.1514  0.3182 -0.4815
  187SOL    HW1  746   1.502   0.705   1.548 -0.3019  1.6264 -0.0010
  187SOL    HW2  747   1.420   0.687   1.418 -0.7292  1.6996  1.0266
  187SOL     MW  748   1.499   0.691   1.461 -0.2475  0.6731 -0.2191
  188SOL     OW  749   1.908   1.047   0.711  0.5574  0.3397 -0.2616
  188SOL    HW1  750   1.910   0.978   0.775 -1.0782  2.6057 -0.9640
  188SOL    HW2  751   1.998   1.072   0.691 -1.4851 -0.8696  0.3845
  188SOL     MW  752   1.920   1.041   0.717  0.0721  0.4791 -0.2691
  189SOL     OW  753   0.659   0.786   0.801  0.0762 -0.0297 -0.3456
  189SOL    HW1  754   0.599   0.850   0.777  0.5316 -0.1789  3.0297
  189SOL    HW2  755   0.728   0.846   0.837  2.6977 -1.3573  3.2415
  189SOL     MW  756   0.660   0.802   0.803  0.4822 -0.2246  0.5730
  190SOL     OW  757   1.871   0.296   1.968  0.0666 -1.0475 -0.0042
  190SOL    HW1  758   1.894   0.222   1.915 -2.8092 -1.0771  3.2283
  190SOL    HW2  759   1.938   0.367   1.948  0.7291  0.1644  0.4994
  190SOL     MW  760   1.883   0.296   1.959 -0.2255 -0.8915  0.4887
  191SOL     OW  761   1.637   0.942   1.363 -0.3998 -0.1625 -0.8442
  191SOL    HW1  762   1.558   0.996   1.357  1.8295  0.2061 -0.8581
  191SOL    HW2  763   1.597   0.856   1.379 -1.2980  0.3843 -1.4934
  191SOL     MW  764   1.621   0.938   1.365 -0.2242 -0.0417 -0.9317
  192SOL     OW  765   0.750   1.982   2.829 -0.4273  0.4890 -0.3581
  192SOL    HW1  766   0.698   2.047   2.778 -1.4872 -1.9860 -0.7630
  192SOL    HW2  767   0.689   1.910   2.842  1.8766 -0.6036  1.1600
  192SOL     MW  768   0.735   1.981   2.824 -0.2632  0.0183 -0.2112
  193SOL     OW  769   1.043   1.594   0.752 -0.8309  0.5000 -0.1131
  193SOL    HW1  770   1.064   1.623   0.844  0.9451 -0.3731  3.1246
  193SOL    HW2  771   0.960   1.543   0.744 -1.4255 -0.8771 -1.6972
  193SOL     MW  772   1.035   1.591   0.763 -0.6750  0.2031  0.1051
  194SOL     OW  773   0.480   1.362   0.943  0.2752  0.0396  0.4387
  194SOL    HW1  774   0.465   1.267   0.958 -1.3160 -2.3157  0.9999
  194SOL    HW2  775   0.406   1.383   0.887 -2.8404 -1.3663  1.0233
  194SOL     MW  776   0.468   1.352   0.937 -0.3458 -0.4566  0.5899
  195SOL     OW  777   1.272   1.141   2.992  0.2112 -0.1250 -0.0773
  195SOL    HW1  778   1.295   1.170   3.080  0.4387 -2.3207  2.4930
  195SOL    HW2  779   1.198   1.080   3.007 -1.7595  0.6142 -0.6006
  195SOL     MW  780   1.265   1.137   3.006 -0.0188 -0.3172  0.1927
  196SOL     OW  781   2.189   1.107   0.658  0.2892  0.3662  0.6669
  196SOL    HW1  782   2.155   1.075   0.573 -2.6961  1.9186  1.1539
  196SOL    HW2  783   2.178   1.201   0.666  1.6742 -1.6200  2.3114
  196SOL     MW  784   2.183   1.115   0.648  0.0781  0.3090  0.9481
  197SOL     OW  785   0.582   1.250   2.000  0.3958 -0.1994 -0.4816
  197SOL    HW1  786   0.634   1.167   2.001  0.7291 -0.2601  1.5870
  197SOL    HW2  787   0.576   1.271   1.911  1.5450 -1.7673  2.2746
  197SOL     MW  788   0.588   1.242   1.988  0.5914 -0.4143  0.1550
  198SOL     OW  789   2.951   1.404   1.033 -0.0944  0.3108 -0.4104
  198SOL    HW1  790   2.928   1.490   1.001 -1.7535  0.8536 -0.4966
  198SOL    HW2  791   2.887   1.334   1.000 -0.9920 -3.4748 -2.4846
  198SOL     MW  792   2.940   1.406   1.024 -0.4317 -0.1171 -0.6954
  199SOL     OW  793   0.514   1.283   1.736 -0.5692  0.0527 -0.1658
  199SOL    HW1  794   0.424   1.284   1.768  2.3821 -1.8997  1.0509
  199SOL    HW2  795   0.521   1.369   1.687  2.4323  2.5090 -2.0253
  199SOL     MW  796   0.503   1.295   1.733  0.2162  0.1192 -0.2506
  200SOL     OW  797   1.891   3.098   1.375 -0.1687  0.4660  0.3906
  200SOL    HW1  798   1.908   3.105   1.277 -1.9944 -2.1332 -1.2770
  200SOL    HW2  799   1.797   3.080   1.381 -0.1775 -1.8614  2.1907
  200SOL     MW  800   1.881   3.096   1.363 -0.4107 -0.1840  0.4081
  201SOL     OW  801   1.086   0.306   0.827  0.0324 -0.1440 -0.1407
  201SOL    HW1  802   1.079   0.207   0.806 -1.0016  2.2588  3.1362
  201SOL    HW2  803   1.102   0.346   0.737 -0.9284 -1.2544  0.8412
  201SOL     MW  804   1.087   0.298   0.812 -0.2308  0.0265  0.4212
  202SOL     OW  805   1.548   1.632   1.044 -0.0937  0.4328 -0.1438
  202SOL    HW1  806   1.592   1.573   0.980  0.1923  1.1076  1.5871
  202SOL    HW2  807   1.576   1.599   1.127 -0.3714  0.9041 -0.7311
  202SOL     MW  808   1.558   1.620   1.046 -0.0926  0.5840  0.0071
  203SOL     OW  809   0.002   0.446   1.199  0.6421  0.1145 -0.0891
  203SOL    HW1  810   0.063   0.408   1.139 -1.6614  0.8843 -2.7357
  203SOL    HW2  811   0.058   0.494   1.258 -2.6786  1.9618 -1.9610
  203SOL     MW  812   0.017   0.447   1.199 -0.1000  0.4598 -0.6852
  204SOL     OW  813   1.061   1.764   0.512 -0.2692  0.0574 -0.1440
  204SOL    HW1  814   1.052   1.691   0.577  2.4878  0.3019 -2.2113
  204SOL    HW2  815   0.984   1.747   0.452 -1.1589  0.2996  1.0469
  204SOL     MW  816   1.050   1.752   0.513 -0.0229  0.1216 -0.2596
  205SOL     OW  817   1.387   0.091   1.330  0.1693  0.2316  0.4169
  205SOL    HW1  818   1.314   0.100   1.266  2.0313 -0.8295  1.6064
  205SOL    HW2  819   1.440   0.168   1.321  0.1286  0.3277 -2.4862
  205SOL     MW  820   1.384   0.102   1.320  0.4096  0.1043  0.1908
  206SOL     OW  821   0.476   3.066   1.387 -0.3813 -0.2690  0.3909
  206SOL    HW1  822   0.417   3.053   1.311 -0.3436  1.4067  3.3443
  206SOL    HW2  823   0.539   3.000   1.386 -4.0177 -0.4144  0.7747
  206SOL     MW  824   0.476   3.056   1.377 -0.8561 -0.0671  0.8312
  207SOL     OW  825   0.960   1.563   0.252  0.2042  0.3107 -0.1774
  207SOL    HW1  826   0.982   1.650   0.213 -0.4322  0.4485 -2.0231
  207SOL    HW2  827   1.043   1.524   0.298  1.2397 -0.0635  1.7746
  207SOL     MW  828   0.974   1.569   0.253  0.2569  0.2795 -0.1634
  208SOL     OW  829   0.674   1.563   1.196  0.6047  0.0501 -0.1249
  208SOL    HW1  830   0.729   1.587   1.264 -0.3258  0.2299 -1.6946
  208SOL    HW2  831   0.628   1.480   1.212 -1.4665  0.2835  2.3174
  208SOL     MW  832   0.675   1.556   1.207  0.2087  0.1046 -0.0098
  209SOL     OW  833   1.488   0.541   2.814  1.0178  0.0720 -0.0502
  209SOL    HW1  834   1.524   0.565   2.901  0.8212 -3.6818  0.4237
  209SOL    HW2  835   1.564   0.491   2.779 -1.6854  1.2746 -0.0177
  209SOL     MW  836   1.503   0.537   2.821  0.6352 -0.2646  0.0166
  210SOL     OW  837   1.584   1.407   0.875  0.1733  0.7121  0.2134
  210SOL    HW1  838   1.665   1.371   0.839 -0.4472 -1.5972  0.3968
  210SOL    HW2  839   1.529   1.392   0.802  1.2230  0.3794  1.1359
  210SOL     MW  840   1.588   1.400   0.860  0.2299  0.3635  0.3593
  211SOL     OW  841   1.715   0.484   0.936  0.4455 -0.0062 -0.1781
  211SOL    HW1  842   1.671   0.455   0.858  0.0233 -0.8055  2.1250
  211SOL    HW2  843   1.811   0.485   0.927 -3.4543 -1.2235 -1.5392
  211SOL     MW  844   1.722   0.480   0.925 -0.1248 -0.2723 -0.0538
  212SOL     OW  845   0.248   1.110   0.078  0.4040  0.2034  0.0947
  212SOL    HW1  846   0.204   1.095   0.160  0.9916  1.6229  1.0842
  212SOL    HW2  847   0.333   1.067   0.088  1.2431  0.2893  1.9274
  212SOL     MW  848   0.254   1.103   0.090  0.5922  0.4020  0.4670
  213SOL     OW  849   0.442   1.674   3.092 -0.2969 -0.1640  0.1030
  213SOL    HW1  850   0.504   1.723   3.142 -0.6058  1.4444 -1.8324
  213SOL    HW2  851   0.472   1.695   3.003  1.5871  1.0205 -2.6500
  213SOL     MW  852   0.454   1.683   3.087 -0.0891  0.2045 -0.5156
  214SOL     OW  853   0.653   0.246   2.279 -0.2406 -0.3495 -0.3756
  214SOL    HW1  854   0.581   0.285   2.235 -0.6469  0.1115 -2.2475
  214SOL    HW2  855   0.738   0.268   2.236  2.9185 -0.5845 -1.5190
  214SOL     MW  856   0.655   0.254   2.267  0.1226 -0.3197 -0.7734
  215SOL     OW  857   0.476   0.750   2.610 -0.1796 -0.3077 -0.6199
  215SOL    HW1  858   0.490   0.705   2.529 -0.4755 -0.4204  2.1812
  215SOL    HW2  859   0.398   0.706   2.647  0.1253  1.9082  2.3030
  215SOL     MW  860   0.467   0.738   2.604 -0.1784 -0.0302  0.1354
  216SOL     OW  861   3.077   3.062   2.735  0.0161 -0.6042  0.0204
  216SOL    HW1  862   3.009   3.025   2.800 -1.0081 -0.8297  4.6544
  216SOL    HW2  863   3.023   3.139   2.714 -0.7752  0.1957 -3.4684
  216SOL     MW  864   3.061   3.067   2.741 -0.2234 -0.5284  0.1715
  217SOL     OW  865   0.965   1.212   3.099 -0.4199  0.5808  0.5347
  217SOL    HW1  866   0.989   1.118   3.090  1.8001  0.7795 -1.7825
  217SOL    HW2  867   1.050   1.269   3.119  1.7549  0.0863  1.1650
  217SOL     MW  868   0.979   1.207   3.101  0.1600  0.5418  0.3121
  218SOL     OW  869   0.905   1.318   2.499 -0.0780 -0.6534  0.5289
  218SOL    HW1  870   0.919   1.238   2.549 -0.8334 -3.9859  2.0407
  218SOL    HW2  871   1.000   1.327   2.476  2.0678 -0.2238  0.5490
  218SOL     MW  872   0.919   1.308   2.502  0.1055 -1.0364  0.7310
  219SOL     OW  873   1.033   0.446   2.498  0.0505  0.1981  0.6484
  219SOL    HW1  874   1.103   0.495   2.455 -1.6505  2.7001 -1.9744
  219SOL    HW2  875   0.983   0.521   2.536  0.0199 -1.8092  1.7245
  219SOL     MW  876   1.035   0.463   2.497 -0.1780  0.2634  0.4443
  220SOL     OW  877   1.757   0.495   2.218 -0.0359 -0.5395 -0.2966
  220SOL    HW1  878   1.681   0.538   2.182  1.2190 -0.3221 -2.4175
  220SOL    HW2  879   1.772   0.431   2.143 -1.6626 -1.5199 -1.0543
  220SOL     MW  880   1.749   0.492   2.203 -0.0850 -0.6402 -0.6764
  221SOL     OW  881   0.403   1.379   2.899 -0.2106 -0.3316  0.0774
  221SOL    HW1  882   0.417   1.286   2.887 -0.0912 -2.2860  1.2110
  221SOL    HW2  883   0.418   1.405   2.808  0.2891  1.3436 -3.5564
  221SOL     MW  884   0.407   1.370   2.886 -0.1289 -0.3685 -0.2524
  222SOL     OW  885   0.308   0.966   2.637  0.3782 -0.1117  0.3045
  222SOL    HW1  886   0.263   0.986   2.550 -0.6041  1.7185 -1.3670
  222SOL    HW2  887   0.374   0.905   2.607 -2.4591  2.3466 -0.2064
  222SOL     MW  888   0.311   0.960   2.621 -0.1257  0.4541  0.0166
  223SOL     OW  889  -0.002   2.005   2.598 -0.0318 -0.0956 -0.3232
  223SOL    HW1  890   0.080   1.954   2.639 -0.2461 -0.3289  0.8733
  223SOL    HW2  891   0.034   2.087   2.549  0.2654 -0.9469  4.1688
  223SOL     MW  892   0.013   2.009   2.597 -0.0209 -0.2387  0.4273
  224SOL     OW  893   1.469   0.824   2.612 -0.3695 -0.2536 -0.0177
  224SOL    HW1  894   1.433   0.848   2.694 -1.4264  1.2581  0.4119
  224SOL    HW2  895   1.505   0.902   2.572 -0.6146 -0.6266 -3.3729
  224SOL     MW  896   1.469   0.838   2.618 -0.5413 -0.1034 -0.4037
  225SOL     OW  897   2.933   1.487   2.250  0.4992 -0.0080  0.4703
  225SOL    HW1  898   2.957   1.548   2.177  0.0905 -0.8789 -2.2147
  225SOL    HW2  899   2.885   1.537   2.320  2.0983  0.9873 -1.1852
  225SOL     MW  900   2.930   1.502   2.249  0.6563  0.0084 -0.1024
  226SOL     OW  901   0.384   1.465   2.628  0.1867 -0.8212  0.2266
  226SOL    HW1  902   0.477   1.452   2.628 -2.1027  1.8690 -1.0058
  226SOL    HW2  903   0.383   1.558   2.630  1.8740 -2.0690  0.2594
  226SOL     MW  904   0.396   1.475   2.628  0.1073 -0.6309  0.0684
  227SOL     OW  905   0.445   1.100   2.837  0.5554 -0.4279 -0.5593
  227SOL    HW1  906   0.523   1.132   2.798 -0.0465  0.3138  0.4899
  227SOL    HW2  907   0.395   1.047   2.766  0.6221 -1.3648 -4.2739
  227SOL     MW  908   0.449   1.097   2.822  0.4848 -0.4537 -0.9110
  228SOL     OW  909   0.685   0.994   1.983  0.1498  0.3940  0.4283
  228SOL    HW1  910   0.765   1.033   1.949 -1.7008 -2.4567  0.9774
  228SOL    HW2  911   0.709   0.964   2.076 -0.2267  0.4731  0.5034
  228SOL     MW  912   0.699   0.995   1.991 -0.1440  0.0283  0.5106
  229SOL     OW  913   0.203   0.478   3.089 -0.6197  0.8025  0.0429
  229SOL    HW1  914   0.129   0.438   3.041  1.9054 -0.8467 -0.2635
  229SOL    HW2  915   0.205   0.420   3.171  1.9453  1.5265 -1.9150
  229SOL     MW  916   0.194   0.465   3.093  0.0519  0.6805 -0.2559
  230SOL     OW  917   1.775   1.365   2.076 -0.0338  0.6126 -0.6208
  230SOL    HW1  918   1.767   1.354   2.172  0.6955 -2.2622 -0.3236
  230SOL    HW2  919   1.802   1.276   2.055 -1.7648  2.3990 -0.2399
  230SOL     MW  920   1.778   1.352   2.086 -0.1659  0.4690 -0.5313
  231SOL     OW  921   2.758   1.284   2.135 -0.3295  0.4117  0.1284
  231SOL    HW1  922   2.798   1.368   2.152 -0.3298  0.9719 -0.6358
  231SOL    HW2  923   2.678   1.318   2.095  1.3437  1.1933  1.8660
  231SOL     MW  924   2.753   1.300   2.132 -0.1088  0.5887  0.2569
  232SOL     OW  925   2.281   0.892   2.112  0.4415 -0.4137  0.3312
  232SOL    HW1  926   2.206   0.923   2.059 -0.8233 -1.9321  3.0462
  232SOL    HW2  927   2.246   0.904   2.207 -1.8055  0.1651 -0.4301
  232SOL     MW  928   2.266   0.897   2.118 -0.0218 -0.5377  0.5890
  233SOL     OW  929   2.049   0.523   1.944  0.0141  0.8690 -0.1085
  233SOL    HW1  930   2.093   0.567   1.867 -2.1717 -2.1851  0.6182
  233SOL    HW2  931   2.112   0.533   2.015  0.4057 -2.5730 -0.1615
  233SOL     MW  932   2.063   0.530   1.943 -0.2226  0.0119 -0.0196
  234SOL     OW  933   0.281   0.984   2.326 -0.1482 -0.2841 -0.4975
  234SOL    HW1  934   0.190   1.017   2.344 -1.5876 -0.8794  0.8365
  234SOL    HW2  935   0.347   1.054   2.349 -0.0716  0.0728  1.0099
  234SOL     MW  936   0.278   0.998   2.331 -0.3280 -0.3155 -0.1226
  235SOL     OW  937   1.037   3.052   2.796  0.1932  0.0315 -0.1410
  235SOL    HW1  938   1.070   2.991   2.860  2.4571  1.7707 -2.0303
  235SOL    HW2  939   1.014   3.131   2.849  1.9453 -0.4052 -0.0156
  235SOL     MW  940   1.038   3.054   2.811  0.7231  0.2034 -0.3738
  236SOL     OW  941   2.932   0.512   0.031  0.2258  0.2655  0.0689
  236SOL    HW1  942   2.848   0.530  -0.019 -2.2648 -1.9198 -1.0890
  236SOL    HW2  943   2.966   0.604   0.054 -0.0121  0.4539  1.0909
  236SOL     MW  944   2.925   0.526   0.027 -0.1342  0.0020  0.0510
  237SOL     OW  945   1.749   0.878   2.176  0.2248  0.1476  0.2550
  237SOL    HW1  946   1.787   0.968   2.154 -0.4278  1.6646 -1.1513
  237SOL    HW2  947   1.769   0.875   2.271 -0.4655 -1.2207 -0.4198
  237SOL     MW  948   1.756   0.890   2.186  0.0476  0.1672 -0.0196
  238SOL     OW  949   1.089   1.736   2.965 -0.8450 -0.0106 -0.3014
  238SOL    HW1  950   1.064   1.659   2.918  0.0943  1.0111 -1.1478
  238SOL    HW2  951   1.188   1.753   2.959 -0.8295  0.1110  1.1063
  238SOL     MW  952   1.099   1.728   2.958 -0.7190  0.1403 -0.2274
  239SOL     OW  953   1.149   1.403   2.316 -0.4235  0.0978  0.0795
  239SOL    HW1  954   1.145   1.447   2.403 -1.1524  3.0192 -0.3931
  239SOL    HW2  955   1.220   1.336   2.316  2.6455  1.3941 -0.6335
  239SOL     MW  956   1.158   1.400   2.328 -0.1147  0.6543 -0.0769
  240SOL     OW  957   0.639   0.883   2.273  0.1277  0.0472 -0.3823
  240SOL    HW1  958   0.630   0.955   2.330  0.3827 -3.1138  0.0007
  240SOL    HW2  959   0.733   0.857   2.255  2.5048 -3.7084 -2.0677
  240SOL     MW  960   0.650   0.889   2.278  0.4750 -0.8654 -0.5541
  241SOL     OW  961   0.628   0.338   2.998  0.2275 -0.4210 -0.1275
  241SOL    HW1  962   0.644   0.389   3.081 -2.6143  3.3473 -1.9785
  241SOL    HW2  963   0.547   0.377   2.961  0.0857 -1.1678  0.6505
  241SOL     MW  964   0.620   0.350   3.004 -0.1662 -0.0223 -0.2691
  242SOL     OW  965   1.500   1.748   2.322  0.1340  0.3641 -0.2952
  242SOL    HW1  966   1.474   1.824   2.375 -2.5742  0.9696 -0.2747
  242SOL    HW2  967   1.429   1.732   2.261 -0.3376 -0.1528  2.1630
  242SOL     MW  968   1.487   1.756   2.321 -0.2856  0.3758  0.0318
  243SOL     OW  969   0.938   0.211   2.336  0.0830 -0.2001 -0.2310
  243SOL    HW1  970   1.027   0.183   2.344  0.6127  1.3268 -1.1791
  243SOL    HW2  971   0.935   0.276   2.401  3.7638 -4.2606  0.3433
  243SOL     MW  972   0.950   0.215   2.346  0.6385 -0.5344 -0.2803
  244SOL     OW  973   0.199   0.717   2.309  0.1630  0.7635  0.1128
  244SOL    HW1  974   0.222   0.806   2.312 -2.7423 -1.6615  0.3475
  244SOL    HW2  975   0.285   0.676   2.306  2.0959  0.8777  0.6897
  244SOL     MW  976   0.213   0.723   2.309  0.0347  0.4586  0.2199
  245SOL     OW  977   1.221   0.197   2.336 -0.6971  1.0911  0.4678
  245SOL    HW1  978   1.254   0.110   2.364  1.7647 -0.0793  1.2315
  245SOL    HW2  979   1.246   0.260   2.402  1.4120  0.6195 -0.7995
  245SOL     MW  980   1.229   0.194   2.348 -0.0940  0.8744  0.4014
  246SOL     OW  981   1.239   1.159   2.096  1.3499  0.2759 -0.0391
  246SOL    HW1  982   1.181   1.111   2.161 -1.8195  0.6730  0.6957
  246SOL    HW2  983   1.327   1.156   2.139 -1.1561 -1.6339 -1.5321
  246SOL     MW  984   1.243   1.152   2.110  0.6011  0.0763 -0.1392
  247SOL     OW  985   0.701   0.522   0.103  0.4848 -0.1212  0.1276
  247SOL    HW1  986   0.673   0.613   0.092 -0.0628  0.6458  1.9712
  247SOL    HW2  987   0.797   0.527   0.085 -0.2115  1.1264 -0.4675
  247SOL     MW  988   0.710   0.535   0.099  0.3207  0.1446  0.2923
  248SOL     OW  989   0.430   1.194   2.461  0.2349 -0.0171  0.8869
  248SOL    HW1  990   0.447   1.271   2.411 -0.0923 -1.2175  1.1961
  248SOL    HW2  991   0.363   1.215   2.520 -1.2046 -2.8849  1.2368
  248SOL     MW  992   0.423   1.207   2.462  0.0018 -0.5538  0.9739
  249SOL     OW  993   0.194   1.850   2.715  0.3361  0.1362 -0.4423
  249SOL    HW1  994   0.152   1.765   2.688 -1.0824  0.2745  2.4514
  249SOL    HW2  995   0.208   1.828   2.808 -1.5041  1.8610  0.7141
  249SOL     MW  996   0.190   1.836   2.724 -0.0938  0.3820  0.0921
  250SOL     OW  997   2.164   0.892   2.349 -0.1901 -0.3209  0.0197
  250SOL    HW1  998   2.209   0.798   2.344  0.0057 -3.4450 -0.5618
  250SOL    HW2  999   2.214   0.940   2.420 -1.0151  1.1202 -0.8191
  250SOL     MW 1000   2.177   0.886   2.358 -0.2731 -0.5429 -0.1677
  251SOL     OW 1001   0.187   0.816   1.999  0.2214 -0.7017  0.5401
  251SOL    HW1 1002   0.175   0.736   2.041  1.7532 -1.4417 -1.2173
  251SOL    HW2 1003   0.178   0.798   1.902  3.4011  1.7916 -2.2976
  251SOL     MW 1004   0.184   0.803   1.992  0.8431 -0.4703 -0.0661
  252SOL     OW 1005   1.708   1.016   2.826 -0.1778 -0.1176  0.0902
  252SOL    HW1 1006   1.724   1.099   2.870 -0.1459  1.5479  1.2319
  252SOL    HW2 1007   1.771   1.022   2.756 -0.4325 -0.4774  0.9068
  252SOL     MW 1008   1.718   1.028   2.823 -0.2072  0.0547  0.3486
  253SOL     OW 1009   1.157   1.733   2.538  0.1972 -0.1818 -0.1706
  253SOL    HW1 1010   1.155   1.772   2.447 -0.4828  0.2180 -1.2557
  253SOL    HW2 1011   1.068   1.758   2.574  2.0583 -2.3183 -2.9273
  253SOL     MW 1012   1.145   1.742   2.531  0.3530 -0.4109 -0.6775
  254SOL     OW 1013   1.047   1.049   2.273  0.4906  0.7049 -0.7063
  254SOL    HW1 1014   1.001   0.968   2.247  0.2074  0.8217 -2.4148
  254SOL    HW2 1015   0.977   1.111   2.276  2.3169  0.8446 -3.9667
  254SOL     MW 1016   1.032   1.047   2.270  0.6942  0.7387 -1.3619
  255SOL     OW 1017   0.806   2.423   2.212  0.3140  0.3875 -0.0216
  255SOL    HW1 1018   0.726   2.378   2.239  1.7016 -2.8599  1.9906
  255SOL    HW2 1019   0.841   2.456   2.298  1.8653  2.7639 -1.1906
  255SOL     MW 1020   0.800   2.421   2.227  0.7017  0.2726  0.0897
  256SOL     OW 1021   1.149   2.825   2.911 -0.5509  0.0240 -0.1454
  256SOL    HW1 1022   1.164   2.735   2.934  1.2247  1.1170 -3.3332
  256SOL    HW2 1023   1.237   2.840   2.861  0.5005 -2.0670 -3.4216
  256SOL     MW 1024   1.163   2.815   2.907 -0.1779 -0.1077 -0.9983
  257SOL     OW 1025   0.125   1.864   0.097  0.2934  0.2248  0.4861
  257SOL    HW1 1026   0.127   1.815   0.180  0.3463  1.6557 -3.0467
  257SOL    HW2 1027   0.121   1.796   0.031 -1.7806  1.9649  1.1681
  257SOL     MW 1028   0.125   1.849   0.099  0.0267  0.6432  0.1099
  258SOL     OW 1029   0.683   1.088   2.454  0.3916  0.7043  0.4406
  258SOL    HW1 1030   0.739   1.116   2.387  1.0903 -1.5708  1.2764
  258SOL    HW2 1031   0.598   1.145   2.456 -1.4934  1.5307  2.1409
  258SOL     MW 1032   0.679   1.100   2.446  0.2351  0.5132  0.7752
  259SOL     OW 1033   0.703   0.492   2.406 -0.1411 -0.0252 -0.4714
  259SOL    HW1 1034   0.620   0.539   2.426  1.1890  3.6898 -0.4913
  259SOL    HW2 1035   0.675   0.404   2.377  0.8133  0.6122 -2.2368
  259SOL     MW 1036   0.688   0.487   2.405  0.1603  0.5491 -0.7069
  260SOL     OW 1037   0.581   0.113   1.604  0.1186  0.0713  0.1749
  260SOL    HW1 1038   0.533   0.093   1.521 -0.4115  2.3635 -0.9114
  260SOL    HW2 1039   0.672   0.124   1.578 -0.9823 -0.3813 -1.0337
  260SOL     MW 1040   0.586   0.112   1.589 -0.0966  0.3140 -0.1279
  261SOL     OW 1041   1.136   0.700   2.106  0.2982  1.1908 -0.9602
  261SOL    HW1 1042   1.167   0.684   2.196 -2.7021  1.2448 -0.8039
  261SOL    HW2 1043   1.191   0.643   2.054 -0.4300 -1.3301 -0.9466
  261SOL     MW 1044   1.147   0.690   2.111 -0.1938  0.8653 -0.9378
  262SOL     OW 1045   1.141   0.341   0.070  0.0922 -0.7033 -0.0070
  262SOL    HW1 1046   1.230   0.326   0.090  0.0910  0.5534  0.5571
  262SOL    HW2 1047   1.094   0.256   0.057  0.3744  0.2992  0.8251
  262SOL     MW 1048   1.146   0.328   0.071  0.1293 -0.4052  0.1772
  263SOL     OW 1049   0.462   3.027   2.554 -0.0402 -0.0720 -0.3149
  263SOL    HW1 1050   0.377   3.069   2.535 -1.4436 -0.7399 -1.7298
  263SOL    HW2 1051   0.495   3.026   2.466 -1.4938 -0.8023  0.0642
  263SOL     MW 1052   0.455   3.033   2.540 -0.4172 -0.2565 -0.4516
  264SOL     OW 1053   1.540   1.367   1.934 -0.0290 -0.6529 -0.1445
  264SOL    HW1 1054   1.466   1.358   1.991  1.0246  1.2797 -0.8006
  264SOL    HW2 1055   1.625   1.359   1.982 -0.1669  0.7336  1.1972
  264SOL     MW 1056   1.541   1.365   1.948  0.0918 -0.2149 -0.0540
  265SOL     OW 1057   0.692   2.679   2.249  0.0395 -0.9841  0.6198
  265SOL    HW1 1058   0.719   2.600   2.199 -0.0647 -4.5836 -1.0715
  265SOL    HW2 1059   0.740   2.674   2.328 -1.2451  0.0749 -2.4125
  265SOL     MW 1060   0.702   2.668   2.253 -0.1437 -1.3193 -0.0034
  266SOL     OW 1061   0.881   0.804   2.213 -0.4226 -0.2543 -0.4393
  266SOL    HW1 1062   0.876   0.744   2.137  1.4438 -1.2583  1.8750
  266SOL    HW2 1063   0.893   0.751   2.294  0.3702  1.4265 -1.4092
  266SOL     MW 1064   0.882   0.789   2.214 -0.0718 -0.1650 -0.2619
  267SOL     OW 1065   1.386   1.781   2.692  0.0854 -0.4540  0.1194
  267SOL    HW1 1066   1.463   1.735   2.661  1.7042 -1.9918 -3.2494
  267SOL    HW2 1067   1.308   1.766   2.635 -2.7191  0.6557 -0.4423
  267SOL     MW 1068   1.386   1.773   2.680 -0.0711 -0.5105 -0.3992
  268SOL     OW 1069   0.212   0.755   1.731  0.1615  0.0742  0.0136
  268SOL    HW1 1070   0.146   0.811   1.690  0.4896  2.1302  1.7167
  268SOL    HW2 1071   0.227   0.681   1.672  2.3365  2.5702  4.1244
  268SOL     MW 1072   0.206   0.752   1.717  0.4917  0.6748  0.7807
  269SOL     OW 1073   1.407   1.969   2.463 -0.5680 -0.0076  0.3129
  269SOL    HW1 1074   1.399   1.986   2.558 -5.5914 -3.7992  4.3814
  269SOL    HW2 1075   1.333   2.008   2.427 -1.0000  3.1105 -2.0976
  269SOL     MW 1076   1.396   1.976   2.471 -1.2878 -0.0965  0.5317
  270SOL     OW 1077   1.149   0.417   1.582  0.3041 -0.2399 -0.3768
  270SOL    HW1 1078   1.132   0.327   1.615  1.5264 -2.6896  1.4800
  270SOL    HW2 1079   1.241   0.424   1.566 -0.1494  0.0938  0.0014
  270SOL     MW 1080   1.159   0.406   1.584  0.4056 -0.5191 -0.0819
  271SOL     OW 1081   0.828   3.055   2.395 -0.2150 -0.4467  0.3025
  271SOL    HW1 1082   0.876   2.993   2.448  0.0248 -0.3458 -1.9435
  271SOL    HW2 1083   0.883   3.127   2.369  1.9489 -1.6339 -0.0718
  271SOL     MW 1084   0.841   3.056   2.399  0.1021 -0.5900 -0.0432
  272SOL     OW 1085   1.395   2.921   2.849  0.5332 -0.5884  0.1797
  272SOL    HW1 1086   1.365   2.987   2.783 -0.7527 -0.4770 -3.1309
  272SOL    HW2 1087   1.431   2.969   2.921  0.4423  1.9766 -0.5572
  272SOL     MW 1088   1.396   2.936   2.850  0.3516 -0.2353 -0.3543
  273SOL     OW 1089   1.430   0.947   2.876  0.1468 -0.0130 -0.1475
  273SOL    HW1 1090   1.519   0.965   2.860  0.1297 -2.8632 -0.7993
  273SOL    HW2 1091   1.396   1.028   2.913 -0.6232  0.0878 -1.1520
  273SOL     MW 1092   1.437   0.960   2.879  0.0430 -0.3758 -0.3660
  274SOL     OW 1093   1.336   0.754   0.184  0.3858  0.0136 -0.0424
  274SOL    HW1 1094   1.392   0.680   0.212  3.2385  0.6959  2.3551
  274SOL    HW2 1095   1.248   0.733   0.223 -0.3339 -2.9854  2.5664
  274SOL     MW 1096   1.332   0.741   0.193  0.6672 -0.2921  0.6181
  275SOL     OW 1097   1.713   0.703   1.832  0.5351 -0.4506  0.4369
  275SOL    HW1 1098   1.785   0.738   1.889  1.0418 -2.7269 -0.4222
  275SOL    HW2 1099   1.715   0.607   1.839  0.3330  1.0577 -1.5605
  275SOL     MW 1100   1.723   0.695   1.840  0.5753 -0.5519  0.0600
  276SOL     OW 1101   0.229   1.206   1.795  0.1831  0.2284  0.2161
  276SOL    HW1 1102   0.290   1.140   1.822  0.1764  0.5123 -0.0522
  276SOL    HW2 1103   0.166   1.210   1.866  0.2755  1.8579 -2.4532
  276SOL     MW 1104   0.229   1.198   1.808  0.1944  0.4809 -0.1715
  277SOL     OW 1105   1.932   1.354   2.625  0.3554 -0.3155 -0.2164
  277SOL    HW1 1106   1.975   1.435   2.640 -0.5166  1.2427  1.8155
  277SOL    HW2 1107   1.995   1.288   2.612 -3.4772  0.3167 -2.6712
  277SOL     MW 1108   1.946   1.356   2.625 -0.2653 -0.0265 -0.2722
  278SOL     OW 1109   1.441   0.715   1.729 -0.3523  0.8348 -0.0225
  278SOL    HW1 1110   1.387   0.651   1.778  0.5955  0.7999  0.5167
  278SOL    HW2 1111   1.523   0.736   1.780 -1.2020 -0.0727  1.3654
  278SOL     MW 1112   1.445   0.710   1.742 -0.3393  0.7105  0.2318
  279SOL     OW 1113   0.565   3.078   2.233 -0.5392  0.4187 -0.1175
  279SOL    HW1 1114   0.652   3.070   2.195 -0.8046  4.0526  0.5093
  279SOL    HW2 1115   0.569   3.168   2.271  1.6336  1.2168 -2.7702
  279SOL     MW 1116   0.577   3.089   2.233 -0.2876  1.0034 -0.3848
  280SOL     OW 1117   1.493   1.156   2.207 -0.7341  0.0915 -0.2448
  280SOL    HW1 1118   1.506   1.074   2.161  0.7163 -0.2058  1.8128
  280SOL    HW2 1119   1.529   1.132   2.293  3.6036  0.0238  0.5169
  280SOL     MW 1120   1.500   1.142   2.212  0.0296  0.0434  0.1272
  281SOL     OW 1121   1.279   1.371   2.819  0.0871 -0.3533 -0.3146
  281SOL    HW1 1122   1.372   1.397   2.800 -0.0304 -1.7644 -1.1207
  281SOL    HW2 1123   1.290   1.285   2.859  2.2761 -1.8372  0.2405
  281SOL     MW 1124   1.293   1.363   2.821  0.3604 -0.7352 -0.3477
  282SOL     OW 1125   1.138   1.312   1.689 -0.0170 -0.4547 -0.1473
  282SOL    HW1 1126   1.118   1.365   1.608  0.4000 -1.4240 -1.6542
  282SOL    HW2 1127   1.058   1.261   1.692 -1.0619  2.3109  0.1789
  282SOL     MW 1128   1.125   1.312   1.679 -0.0999 -0.2177 -0.3031
  283SOL     OW 1129   0.695   1.259   3.046 -0.3232  0.2713 -0.3850
  283SOL    HW1 1130   0.789   1.250   3.041 -1.6071  0.1462 -5.4963
  283SOL    HW2 1131   0.680   1.339   3.090 -2.2433 -1.5810 -1.7223
  283SOL     MW 1132   0.705   1.269   3.051 -0.7459  0.0104 -1.2358
  284SOL     OW 1133   0.458   0.632   2.351  0.3701  0.2927  0.3347
  284SOL    HW1 1134   0.504   0.706   2.313 -1.9400 -0.4210  0.7788
  284SOL    HW2 1135   0.447   0.553   2.296  2.3858  2.1043  1.4978
  284SOL     MW 1136   0.462   0.631   2.339  0.3312  0.4376  0.5467
  285SOL     OW 1137   0.861   0.983   2.875  0.0556 -0.1515  0.2933
  285SOL    HW1 1138   0.910   1.024   2.806  1.1543  3.5589 -0.6792
  285SOL    HW2 1139   0.837   0.887   2.863  0.2949 -0.7922  1.3714
  285SOL     MW 1140   0.865   0.975   2.864  0.2321  0.2535  0.3072
  286SOL     OW 1141   1.171   1.449   2.588 -0.0709  0.3209  0.2023
  286SOL    HW1 1142   1.203   1.437   2.676 -1.2138 -1.9558 -2.4511
  286SOL    HW2 1143   1.155   1.545   2.584 -0.5222  1.1408  0.4236
  286SOL     MW 1144   1.173   1.460   2.599 -0.2813  0.1287 -0.1186
  287SOL     OW 1145   1.037   0.936   0.352 -0.2912 -0.0403 -0.3605
  287SOL    HW1 1146   1.110   0.982   0.398 -1.5956 -1.3139 -0.1781
  287SOL    HW2 1147   0.989   1.012   0.313  1.3769 -1.5206 -1.0191
  287SOL     MW 1148   1.040   0.952   0.353 -0.2432 -0.4037 -0.4234
  288SOL     OW 1149   1.528   0.653   2.114  0.5218  0.1755 -0.3299
  288SOL    HW1 1150   1.495   0.665   2.211 -0.0089 -1.0080 -2.0873
  288SOL    HW2 1151   1.486   0.727   2.067  1.4605  0.0590 -2.8320
  288SOL     MW 1152   1.518   0.664   2.121  0.5756  0.0040 -0.8919
  289SOL     OW 1153   0.942   1.062   2.626  0.7187 -1.0219  0.0888
  289SOL    HW1 1154   0.989   1.006   2.571 -0.7095  2.2857  0.4366
  289SOL    HW2 1155   0.854   1.052   2.588 -1.2044 -0.7995 -0.5306
  289SOL     MW 1156   0.937   1.053   2.614  0.2765 -0.5561  0.0530
  290SOL     OW 1157   0.856   0.565   1.507  0.1814  0.0145 -0.4121
  290SOL    HW1 1158   0.919   0.520   1.449  1.2742 -2.1014 -0.5466
  290SOL    HW2 1159   0.904   0.563   1.588 -0.1718 -0.3226 -0.1908
  290SOL     MW 1160   0.871   0.559   1.510  0.2790 -0.3091 -0.4006
  291SOL     OW 1161   0.167   0.331   0.223 -0.1701 -0.3925  0.2807
  291SOL    HW1 1162   0.238   0.264   0.225  1.8177 -0.9101 -2.6420
  291SOL    HW2 1163   0.085   0.293   0.188 -1.7184  1.3972 -0.8904
  291SOL     MW 1164   0.166   0.318   0.218 -0.1121 -0.2247 -0.2594
  292SOL     OW 1165   0.972   0.560   0.110  0.0469 -0.1335  0.1102
  292SOL    HW1 1166   1.027   0.605   0.175  0.6280 -1.1563 -1.1701
  292SOL    HW2 1167   1.022   0.485   0.080 -1.1242  1.9448 -1.9285
  292SOL     MW 1168   0.986   0.556   0.115 -0.0309  0.0057 -0.3277
  293SOL     OW 1169   0.244   0.074   2.499 -0.2638  0.6123 -0.0380
  293SOL    HW1 1170   0.164   0.051   2.451  0.9593  2.1849 -2.5949
  293SOL    HW2 1171   0.210   0.120   2.576 -0.3544 -0.0968  2.5141
  293SOL     MW 1172   0.229   0.077   2.503 -0.1144  0.7262 -0.0386
  294SOL     OW 1173   1.466   0.639   2.382  0.6598  0.5591 -0.1869
  294SOL    HW1 1174   1.503   0.681   2.468  2.6287  2.3625  1.6255
  294SOL    HW2 1175   1.482   0.540   2.390 -0.3155  0.7117  0.2890
  294SOL     MW 1176   1.473   0.631   2.394  0.7909  0.8172  0.1150
  295SOL     OW 1177   0.870   0.677   2.511  0.4395  0.5744  0.4250
  295SOL    HW1 1178   0.823   0.614   2.458 -1.0751 -0.2779  1.0070
  295SOL    HW2 1179   0.826   0.689   2.601 -0.9156 -1.2446 -0.4187
  295SOL     MW 1180   0.858   0.670   2.516  0.0609  0.2219  0.3904
  296SOL     OW 1181   1.324   0.299   2.079 -0.4392 -0.4238  0.0102
  296SOL    HW1 1182   1.422   0.275   2.088  3.0305 -2.4554  0.1432
  296SOL    HW2 1183   1.289   0.276   2.167 -0.1682 -1.9570  1.8256
  296SOL     MW 1184   1.332   0.292   2.092  0.0543 -0.8942  0.2673
  297SOL     OW 1185   1.432   0.431   1.523 -0.5488 -0.2256  0.4612
  297SOL    HW1 1186   1.463   0.519   1.504 -0.0319 -2.2162 -0.2486
  297SOL    HW2 1187   1.502   0.392   1.577  1.7246  2.9161  1.5499
  297SOL     MW 1188   1.445   0.437   1.528 -0.1807 -0.0737  0.5112
  298SOL     OW 1189   1.503   0.910   2.051 -0.3625  0.0409 -0.4160
  298SOL    HW1 1190   1.526   0.961   1.972 -2.2392  1.5240  1.3000
  298SOL    HW2 1191   1.589   0.900   2.100  0.0618  0.4052  0.3199
  298SOL     MW 1192   1.517   0.916   2.047 -0.5541  0.2846 -0.0925
  299SOL     OW 1193   0.515   1.080   3.104 -0.4561  0.4810 -0.2106
  299SOL    HW1 1194   0.580   1.156   3.108  1.8789  3.1909  3.0052
  299SOL    HW2 1195   0.488   1.076   3.010  0.8740 -0.7969  1.2345
  299SOL     MW 1196   0.520   1.089   3.092  0.0275  0.6700  0.4043
  300SOL     OW 1197   1.263   1.152   2.515  0.3880  0.0025 -0.1917
  300SOL    HW1 1198   1.229   1.066   2.497  1.4727  3.9137  1.6576
  300SOL    HW2 1199   1.197   1.185   2.577 -0.4629 -0.2096  0.7277
  300SOL     MW 1200   1.250   1.145   2.520  0.4189  0.4906  0.1736
  301SOL     OW 1201   1.356   0.746   0.584  0.0272  0.6409 -0.0350
  301SOL    HW1 1202   1.411   0.729   0.662  0.7954  0.1300 -1.3991
  301SOL    HW2 1203   1.263   0.723   0.611 -0.4647  3.5494  0.8259
  301SOL     MW 1204   1.351   0.741   0.598  0.0637  0.9572 -0.1014
  302SOL     OW 1205   0.124   1.470   1.983 -0.0639  0.2997  0.5273
  302SOL    HW1 1206   0.136   1.410   2.056 -3.1919 -2.2589 -1.7602
  302SOL    HW2 1207   0.045   1.514   2.007  0.0544  1.6782 -3.0386
  302SOL     MW 1208   0.116   1.468   1.996 -0.4610  0.1440 -0.2450
  303SOL     OW 1209   0.395   1.761   2.560 -0.0435  0.2537 -0.1467
  303SOL    HW1 1210   0.375   1.723   2.475 -1.3360 -1.0810  1.8549
  303SOL    HW2 1211   0.320   1.807   2.592  1.8987 -1.9652 -1.2451
  303SOL     MW 1212   0.382   1.762   2.553  0.0422 -0.2152 -0.0275
  304SOL     OW 1213   0.599   2.089   2.420  1.1153  0.0753  0.1177
  304SOL    HW1 1214   0.604   2.182   2.402 -2.3570  0.4532  2.0628
  304SOL    HW2 1215   0.681   2.050   2.414 -0.7994 -0.9007  0.4053
  304SOL     MW 1216   0.610   2.096   2.417  0.4045 -0.0036  0.4123
  305SOL     OW 1217   1.131   0.548   0.541  0.1737 -0.4352 -0.0430
  305SOL    HW1 1218   1.042   0.505   0.528 -3.9594  0.5054  1.9223
  305SOL    HW2 1219   1.192   0.475   0.558 -0.4194 -2.9402 -0.0561
  305SOL     MW 1220   1.127   0.533   0.542 -0.4499 -0.6416  0.2146
  306SOL     OW 1221   1.226   1.454   0.320 -0.1996  0.2661  0.1823
  306SOL    HW1 1222   1.263   1.377   0.364 -1.0638 -0.7768  0.9034
  306SOL    HW2 1223   1.251   1.450   0.226 -0.8037  1.9828  4.2396
  306SOL     MW 1224   1.234   1.443   0.313 -0.3933  0.3550  0.8128
  307SOL     OW 1225   1.313   0.547   1.944  0.2655 -0.2772 -0.0452
  307SOL    HW1 1226   1.327   0.454   1.942 -0.9521  2.5393 -1.3820
  307SOL    HW2 1227   1.391   0.564   2.000  0.2439 -3.9008 -0.2755
  307SOL     MW 1228   1.325   0.537   1.951  0.1020 -0.3837 -0.2519
  308SOL     OW 1229   2.118   0.642   2.667 -0.4488 -0.2946 -0.3099
  308SOL    HW1 1230   2.100   0.576   2.727 -0.5692  0.2782 -0.7330
  308SOL    HW2 1231   2.173   0.716   2.698  0.0276  4.5114 -1.9902
  308SOL     MW 1232   2.123   0.643   2.679 -0.4019  0.4151 -0.5874
  309SOL     OW 1233   0.599   0.508   0.433  0.5331 -0.6120 -0.2597
  309SOL    HW1 1234   0.624   0.431   0.478  0.6298  0.4665 -0.6120
  309SOL    HW2 1235   0.593   0.494   0.338 -0.5203 -0.9604  0.3960
  309SOL     MW 1236   0.601   0.496   0.427  0.4069 -0.5157 -0.2197
  310SOL     OW 1237   0.456   0.495   1.926  0.0682  0.2694  0.1649
  310SOL    HW1 1238   0.521   0.421   1.903 -0.7696 -1.0983  1.8505
  310SOL    HW2 1239   0.508   0.573   1.929 -1.0368 -0.4450  0.3157
  310SOL     MW 1240   0.471   0.495   1.924 -0.1882 -0.0053  0.4072
  311SOL     OW 1241   1.925   0.775   1.988 -0.0858 -0.1885 -0.1510
  311SOL    HW1 1242   1.856   0.773   2.061 -3.0276 -0.9584 -0.8649
  311SOL    HW2 1243   1.964   0.691   1.996 -0.9949 -0.3739 -0.5805
  311SOL     MW 1244   1.921   0.764   1.998 -0.5939 -0.3145 -0.3019
  312SOL     OW 1245   1.774   2.526   0.018  0.1242  0.1624  0.7451
  312SOL    HW1 1246   1.813   2.518   0.103  1.8265 -2.2741  0.0106
  312SOL    HW2 1247   1.677   2.515   0.014  2.7893 -0.7512 -0.6907
  312SOL     MW 1248   1.766   2.524   0.029  0.7004 -0.2796  0.4587
  313SOL     OW 1249   0.096   1.221   2.937 -0.2067 -0.4596 -0.1957
  313SOL    HW1 1250   0.174   1.180   2.968 -0.2116 -0.7722 -1.3758
  313SOL    HW2 1251   0.119   1.254   2.851 -0.5916 -2.4268 -0.4839
  313SOL     MW 1252   0.110   1.220   2.930 -0.2581 -0.7604 -0.3895
  314SOL     OW 1253   2.134   3.017   2.975 -0.0135 -0.2752  0.2162
  314SOL    HW1 1254   2.092   3.088   2.920 -0.4661 -1.2669  0.7146
  314SOL    HW2 1255   2.184   3.065   3.037  0.3948 -3.4038  1.7379
  314SOL     MW 1256   2.135   3.033   2.976 -0.0193 -0.8188  0.4827
  315SOL     OW 1257   1.551   1.948   3.036 -0.3586 -0.0348  0.0411
  315SOL    HW1 1258   1.481   2.001   3.077  2.6981 -2.9544  0.8427
  315SOL    HW2 1259   1.603   2.013   2.977  0.2484  2.9522  0.7296
  315SOL     MW 1260   1.549   1.964   3.034  0.1248 -0.0259  0.2377
  316SOL     OW 1261   1.254   0.649   2.730  0.1419  0.0806 -0.3121
  316SOL    HW1 1262   1.339   0.617   2.763  0.9668 -0.3103  3.4260
  316SOL    HW2 1263   1.187   0.616   2.791 -3.7889  0.4470 -0.0217
  316SOL     MW 1264   1.256   0.640   2.743 -0.2679  0.0774  0.2194
  317SOL     OW 1265   0.666   1.427   2.631  0.0416 -0.1692  0.8720
  317SOL    HW1 1266   0.677   1.343   2.671  1.0261  0.6712  1.0703
  317SOL    HW2 1267   0.719   1.419   2.558  1.8256 -0.5753 -0.3799
  317SOL     MW 1268   0.674   1.415   2.627  0.4069 -0.1119  0.7330
  318SOL     OW 1269   1.323   0.344   2.895  0.4934  0.2751 -0.6786
  318SOL    HW1 1270   1.228   0.382   2.886 -2.3022  0.1421  1.2364
  318SOL    HW2 1271   1.382   0.413   2.868  2.8306 -0.0290 -0.6484
  318SOL     MW 1272   1.318   0.358   2.890  0.4329  0.2174 -0.4219
  319SOL     OW 1273   0.814   0.428   2.799 -0.4772  0.1940  1.0035
  319SOL    HW1 1274   0.798   0.382   2.714 -1.1991  0.9191 -0.7285
  319SOL    HW2 1275   0.747   0.397   2.863 -1.6986 -0.8882 -0.5391
  319SOL     MW 1276   0.803   0.418   2.796 -0.7336  0.1469  0.5715
  320SOL     OW 1277   1.027   1.336   2.049  0.1384 -0.2955  0.9769
  320SOL    HW1 1278   1.109   1.290   2.089  0.6392 -0.7198  2.4376
  320SOL    HW2 1279   1.058   1.409   1.990  1.0403  0.2052  4.0608
  320SOL     MW 1280   1.042   1.340   2.047  0.3235 -0.2854  1.5765
  321SOL     OW 1281   1.087   0.952   3.022 -0.6118 -0.3326  0.0854
  321SOL    HW1 1282   1.002   0.964   2.972 -1.6444 -0.6304 -1.1344
  321SOL    HW2 1283   1.118   0.865   2.998 -3.4677 -0.9851  1.5894
  321SOL     MW 1284   1.080   0.942   3.012 -1.1249 -0.4580  0.1229
  322SOL     OW 1285   1.199   0.827   1.727  0.3371  0.4933 -0.0732
  322SOL    HW1 1286   1.289   0.798   1.749  0.3761 -1.0042  2.6973
  322SOL    HW2 1287   1.166   0.860   1.812  1.2477  0.2239  0.0050
  322SOL     MW 1288   1.207   0.827   1.741  0.4624  0.2602  0.3026
  323SOL     OW 1289   1.163   1.503   1.888 -0.0429  0.5772 -0.4878
  323SOL    HW1 1290   1.173   1.436   1.822 -0.6856  4.1550  2.6308
  323SOL    HW2 1291   1.096   1.561   1.842  0.1726  1.0335 -1.6542
  323SOL     MW 1292   1.155   1.501   1.873 -0.0993  1.1095 -0.2302
  324SOL     OW 1293   1.517   1.085   2.493 -0.0654 -0.2130  0.1723
  324SOL    HW1 1294   1.430   1.118   2.522  1.4192 -2.8820 -1.0178
  324SOL    HW2 1295   1.574   1.137   2.551 -2.1992 -0.5339 -3.9913
  324SOL     MW 1296   1.513   1.096   2.505 -0.1511 -0.6075 -0.5341
  325SOL     OW 1297   1.097   0.497   2.879  0.2647 -0.1167  0.1444
  325SOL    HW1 1298   1.105   0.536   2.964  1.5360 -0.0362 -2.5234
  325SOL    HW2 1299   1.006   0.475   2.856 -1.9991  2.2048  1.4983
  325SOL     MW 1300   1.086   0.499   2.887  0.1338  0.2002 -0.0290
  326SOL     OW 1301   0.431   1.329   2.219  0.3301  0.0782 -0.0026
  326SOL    HW1 1302   0.489   1.291   2.151 -1.3538 -1.4568  0.2521
  326SOL    HW2 1303   0.464   1.414   2.238  0.1999  0.1678 -0.5590
  326SOL     MW 1304   0.443   1.335   2.212  0.0907 -0.1125 -0.0424
  327SOL     OW 1305   1.894   0.897   2.416  0.1378  0.6914 -0.4639
  327SOL    HW1 1306   1.888   0.840   2.489  0.2399 -0.2674 -1.4375
  327SOL    HW2 1307   1.984   0.908   2.382  1.2419  1.1102 -2.3883
  327SOL     MW 1308   1.905   0.891   2.421  0.2969  0.6202 -0.8463
  328SOL     OW 1309   0.138   1.288   2.216  0.4795 -1.0217  0.2947
  328SOL    HW1 1310   0.124   1.204   2.171  0.7504  0.2166  1.1025
  328SOL    HW2 1311   0.230   1.295   2.228  0.5758 -1.2043 -0.6377
  328SOL     MW 1312   0.148   1.278   2.211  0.5279 -0.8824  0.2783
  329SOL     OW 1313   0.138   0.173   1.381  0.0522 -0.3918  0.3567
  329SOL    HW1 1314   0.102   0.227   1.442  1.2651  1.0728 -0.3916
  329SOL    HW2 1315   0.221   0.214   1.357 -2.3942 -2.5674 -0.9438
  329SOL     MW 1316   0.145   0.186   1.386 -0.1106 -0.4856  0.0864
  330SOL     OW 1317   0.388   2.970   2.045 -0.3993 -0.0131 -0.0182
  330SOL    HW1 1318   0.457   3.012   2.099  0.5070 -2.0353 -2.4338
  330SOL    HW2 1319   0.313   2.981   2.094  2.0252 -0.3593 -1.8625
  330SOL     MW 1320   0.388   2.977   2.059  0.0401 -0.3256 -0.5803
  331SOL     OW 1321   0.824   1.223   2.276 -0.0659  0.7220 -0.5299
  331SOL    HW1 1322   0.814   1.278   2.204 -2.1086 -1.1385 -0.6352
  331SOL    HW2 1323   0.854   1.274   2.355  3.1272 -0.1752 -1.2593
  331SOL     MW 1324   0.826   1.237   2.277  0.0859  0.3581 -0.6401
  332SOL     OW 1325   1.353   1.779   2.978 -0.0295 -0.2067  0.1220
  332SOL    HW1 1326   1.381   1.770   2.886  1.4378  0.8904  1.0842
  332SOL    HW2 1327   1.417   1.843   3.011  1.2452  1.2414  0.1184
  332SOL     MW 1328   1.365   1.786   2.971  0.3323  0.1291  0.2485
  333SOL     OW 1329   1.714   1.480   2.998  0.2616 -0.4566 -0.2675
  333SOL    HW1 1330   1.797   1.494   3.046  2.1978 -2.2535  1.5469
  333SOL    HW2 1331   1.665   1.418   3.050 -1.3166  1.6429  0.3487
  333SOL     MW 1332   1.719   1.473   3.011  0.3089 -0.4167  0.0532
  334SOL     OW 1333   1.261   3.080   2.636  0.5743 -0.6099  0.1460
  334SOL    HW1 1334   1.178   3.091   2.682  3.9307 -0.2576 -0.6121
  334SOL    HW2 1335   1.305   3.168   2.652 -0.8479  1.9174  1.2856
  334SOL     MW 1336   1.256   3.093   2.644  0.8295 -0.2300  0.1963
  335SOL     OW 1337   1.266   0.739   3.006  0.1803  0.1988  1.0674
  335SOL    HW1 1338   1.277   0.757   3.102  0.7007  2.9757  1.9977
  335SOL    HW2 1339   1.330   0.780   2.954  0.0912  0.8826  1.0347
  335SOL     MW 1340   1.276   0.747   3.012  0.2372  0.6554  1.1858
  336SOL     OW 1341   0.912   1.128   1.898  0.3264 -0.6486  0.3556
  336SOL    HW1 1342   0.952   1.205   1.930 -1.2889 -0.2860  0.5858
  336SOL    HW2 1343   0.987   1.067   1.905  0.5097 -2.3667  2.5598
  336SOL     MW 1344   0.927   1.130   1.903  0.1375 -0.8274  0.6768
  337SOL     OW 1345   0.525   1.774   2.839 -0.4889  0.2310  0.0817
  337SOL    HW1 1346   0.508   1.807   2.755 -2.7352 -0.5010  0.6228
  337SOL    HW2 1347   0.581   1.697   2.814  0.8608  1.6775  0.8344
  337SOL     MW 1348   0.530   1.768   2.824 -0.6072  0.3253  0.2524
  338SOL     OW 1349   1.113   0.830   2.547  0.1524  0.3200  0.5587
  338SOL    HW1 1350   1.038   0.771   2.552  1.1955  1.2064 -0.2077
  338SOL    HW2 1351   1.178   0.802   2.609  5.2486 -0.2114 -2.1875
  338SOL     MW 1352   1.112   0.819   2.556  0.9624  0.3669  0.0952
  339SOL     OW 1353   1.581   1.064   1.836  0.4213 -0.4741 -0.1582
  339SOL    HW1 1354   1.497   1.083   1.790  1.9163 -1.8546 -0.0148
  339SOL    HW2 1355   1.590   1.141   1.893 -1.1306  1.4609  1.7640
  339SOL     MW 1356   1.571   1.076   1.838  0.4138 -0.4009  0.1144
  340SOL     OW 1357   1.345   1.591   0.110  0.2504 -0.3242 -0.0634
  340SOL    HW1 1358   1.388   1.628   0.031  2.4781  1.3459 -0.8122
  340SOL    HW2 1359   1.416   1.574   0.169 -1.0946 -2.1034  1.6358
  340SOL     MW 1360   1.360   1.594   0.107  0.3668 -0.3386  0.0620
  341SOL     OW 1361   0.146   1.306   2.695 -0.2361 -0.0431  0.2683
  341SOL    HW1 1362   0.212   1.366   2.666  1.3001  0.1348 -0.6893
  341SOL    HW2 1363   0.081   1.319   2.622 -2.5447 -0.6013 -0.4378
  341SOL     MW 1364   0.146   1.315   2.681 -0.3380 -0.0933  0.0488
  342SOL     OW 1365   1.419   0.333   0.067  0.3510 -0.0156  0.4926
  342SOL    HW1 1366   1.463   0.400   0.125 -0.7081  0.7389 -0.4285
  342SOL    HW2 1367   1.405   0.379  -0.021 -0.6093 -1.5409 -0.9659
  342SOL     MW 1368   1.423   0.348   0.063  0.0845 -0.1173  0.1787
  343SOL     OW 1369   0.202   0.280   2.307 -0.0870 -0.4679 -0.2493
  343SOL    HW1 1370   0.246   0.219   2.369  0.0031  1.8892 -0.0633
  343SOL    HW2 1371   0.154   0.218   2.244 -1.5908  0.9385  0.3944
  343SOL     MW 1372   0.201   0.264   2.307 -0.2735  0.0287 -0.1399
  344SOL     OW 1373   1.703   2.088   0.196 -0.0887 -0.4382  0.3938
  344SOL    HW1 1374   1.705   2.129   0.111  0.0199  2.2762  0.6214
  344SOL    HW2 1375   1.616   2.037   0.197 -2.7139 -1.8300  0.3962
  344SOL     MW 1376   1.692   2.087   0.185 -0.4207 -0.2637  0.4242
  345SOL     OW 1377   0.669   1.611   2.347 -0.0697 -0.2762  0.1847
  345SOL    HW1 1378   0.575   1.622   2.317  0.5795  0.9883  0.1513
  345SOL    HW2 1379   0.717   1.555   2.283  1.7976  2.6172 -1.6995
  345SOL     MW 1380   0.663   1.605   2.335  0.2624  0.2724 -0.0683
  346SOL     OW 1381   1.676   1.079   0.016  0.1261 -0.1497 -0.4476
  346SOL    HW1 1382   1.758   1.034   0.028  1.5347 -0.2261  1.7707
  346SOL    HW2 1383   1.607   1.033   0.060 -0.4713  4.4345 -0.6657
  346SOL     MW 1384   1.677   1.067   0.024  0.2332  0.4451 -0.1837
  347SOL     OW 1385   1.193   0.639   2.364  0.1259  0.8186 -0.0535
  347SOL    HW1 1386   1.291   0.651   2.390 -0.4861 -0.0575  0.4846
  347SOL    HW2 1387   1.154   0.708   2.421 -0.9304  1.7065  1.3411
  347SOL     MW 1388   1.201   0.650   2.375 -0.0942  0.8201  0.2015
  348SOL     OW 1389   1.332   2.614   1.894 -0.4391 -0.1992 -0.0008
  348SOL    HW1 1390   1.380   2.533   1.906  1.5853  1.8218 -3.5153
  348SOL    HW2 1391   1.372   2.675   1.949 -0.5052 -2.8359 -0.8345
  348SOL     MW 1392   1.343   2.612   1.903 -0.1807 -0.2804 -0.5745
  349SOL     OW 1393   1.378   0.216   2.661  0.1755  0.4584 -0.0247
  349SOL    HW1 1394   1.356   0.267   2.744 -3.0680 -0.8192  1.5437
  349SOL    HW2 1395   1.472   0.188   2.658 -0.1534 -1.9814 -1.0934
  349SOL     MW 1396   1.387   0.219   2.671 -0.2959 -0.0321  0.0412
  350SOL     OW 1397   1.834   0.681   2.627  0.3701 -0.6748  0.2770
  350SOL    HW1 1398   1.793   0.605   2.580 -0.0006 -1.2822  0.9265
  350SOL    HW2 1399   1.929   0.674   2.619  1.0696  3.1009 -2.6713
  350SOL     MW 1400   1.841   0.670   2.620  0.4135 -0.2568 -0.0263
  351SOL     OW 1401   0.038   0.940   1.612  0.6983 -0.3387  0.3286
  351SOL    HW1 1402  -0.018   0.985   1.672  0.9954 -0.0709 -0.1136
  351SOL    HW2 1403   0.098   1.010   1.585  1.2710  0.4302  0.6577
  351SOL     MW 1404   0.039   0.956   1.616  0.8131 -0.2019  0.3137
  352SOL     OW 1405   0.728   1.635   2.772 -0.1778  0.3645 -0.4497
  352SOL    HW1 1406   0.775   1.604   2.852  0.0192  0.6389  4.0439
  352SOL    HW2 1407   0.699   1.558   2.718  0.0574 -1.8633  2.3684
  352SOL     MW 1408   0.730   1.621   2.776 -0.1208  0.1068  0.5150
  353SOL     OW 1409   2.998   2.415   2.734 -0.0543 -0.0659 -0.9429
  353SOL    HW1 1410   3.091   2.398   2.707  0.8071 -0.1686 -1.7137
  353SOL    HW2 1411   2.973   2.501   2.698  1.0236  1.1288  1.3152
  353SOL     MW 1412   3.007   2.424   2.726  0.2016  0.0782 -0.7467
  354SOL     OW 1413   0.415   2.384   0.861  0.2997  0.0560  0.4174
  354SOL    HW1 1414   0.427   2.375   0.954  1.6500 -1.5617 -1.9706
  354SOL    HW2 1415   0.337   2.328   0.849  0.0310  1.2339  0.0701
  354SOL     MW 1416   0.406   2.375   0.872  0.4424 -0.0020  0.0565
  355SOL     OW 1417   0.070   2.198   0.376  0.1492 -0.3512  0.1994
  355SOL    HW1 1418  -0.019   2.160   0.375 -1.7168 -0.1751 -0.2982
  355SOL    HW2 1419   0.070   2.249   0.453 -1.8234 -2.2540  1.3206
  355SOL     MW 1420   0.058   2.199   0.386 -0.3573 -0.5790  0.2817
  356SOL     OW 1421   0.843   2.956   1.021  0.7055 -0.0982 -0.0241
  356SOL    HW1 1422   0.897   2.957   0.937  1.1492  1.2250 -2.1008
  356SOL    HW2 1423   0.766   2.900   1.003  2.4406  0.6026 -0.9801
  356SOL     MW 1424   0.840   2.948   1.008  0.9930  0.1689 -0.4242
  357SOL     OW 1425   1.779   2.903   0.361 -0.2265 -0.6775  0.3800
  357SOL    HW1 1426   1.734   2.852   0.425  2.1024  1.5341 -1.4075
  357SOL    HW2 1427   1.862   2.855   0.352  1.4748 -0.7570  0.3569
  357SOL     MW 1428   1.784   2.890   0.369  0.3052 -0.3962  0.1411
  358SOL     OW 1429   0.398   0.156   1.016  0.0910  0.0985  0.1285
  358SOL    HW1 1430   0.486   0.154   0.984  2.5164 -1.9183  0.3668
  358SOL    HW2 1431   0.346   0.181   0.944  2.5465 -0.9730 -0.8255
  358SOL     MW 1432   0.403   0.159   1.002  0.7350 -0.3090  0.0341
  359SOL     OW 1433   0.970   2.821   1.830 -0.1300  0.2505 -0.2449
  359SOL    HW1 1434   0.993   2.726   1.837  2.9356  3.7509  0.9253
  359SOL    HW2 1435   1.003   2.831   1.740  0.2549 -0.5624 -0.2229
  359SOL     MW 1436   0.977   2.809   1.819  0.3253  0.6051 -0.0876
  360SOL     OW 1437   0.615   2.785   0.979  0.0775 -0.4625  0.9908
  360SOL    HW1 1438   0.635   2.737   0.900  1.4231 -0.0772  0.6927
  360SOL    HW2 1439   0.593   2.712   1.043 -2.4142  3.0348  1.7547
  360SOL     MW 1440   0.615   2.769   0.977 -0.0737  0.0498  1.0523
  361SOL     OW 1441   0.174   2.735   1.373  0.6941 -0.5972 -0.0285
  361SOL    HW1 1442   0.179   2.818   1.417 -2.7193 -0.1846  0.4814
  361SOL    HW2 1443   0.264   2.703   1.369 -2.5844 -1.6807  0.9389
  361SOL     MW 1444   0.187   2.742   1.378 -0.1889 -0.6857  0.1665
  362SOL     OW 1445   1.501   2.437   0.594  0.0560 -0.1608  0.1439
  362SOL    HW1 1446   1.532   2.358   0.633  0.9211  1.5884  1.7345
  362SOL    HW2 1447   1.472   2.496   0.663 -1.9820 -2.2760 -2.5052
  362SOL     MW 1448   1.501   2.435   0.608 -0.0987 -0.2091  0.0042
  363SOL     OW 1449   0.234   3.042   0.749  0.2564  0.2603 -0.0308
  363SOL    HW1 1450   0.213   3.003   0.837 -0.0937 -0.5823 -0.5172
  363SOL    HW2 1451   0.149   3.049   0.701 -0.6000 -2.4325 -1.0530
  363SOL     MW 1452   0.220   3.038   0.754  0.0972 -0.2062 -0.2298
  364SOL     OW 1453   0.689   0.176   0.169 -0.6335  0.1804  0.6301
  364SOL    HW1 1454   0.648   0.088   0.155  1.7662 -2.2736 -1.6785
  364SOL    HW2 1455   0.610   0.225   0.187 -4.5717 -0.0743 -0.1205
  364SOL     MW 1456   0.673   0.171   0.170 -0.8365 -0.1770  0.2264
  365SOL     OW 1457   0.957   1.964   1.121 -0.4249 -0.2509 -0.4731
  365SOL    HW1 1458   0.940   2.047   1.077 -1.8237  1.9138  0.1560
  365SOL    HW2 1459   0.925   1.896   1.063  0.0747  2.2768  0.8554
  365SOL     MW 1460   0.951   1.966   1.107 -0.5436  0.3682 -0.2148
  366SOL     OW 1461   2.865   2.668   0.988  0.1490 -0.2491 -0.2887
  366SOL    HW1 1462   2.955   2.666   1.028 -2.8443 -0.7003 -1.5131
  366SOL    HW2 1463   2.888   2.669   0.897 -1.1855  0.3185  1.8919
  366SOL     MW 1464   2.880   2.668   0.981 -0.4220 -0.2337 -0.1625
  367SOL     OW 1465   1.274   2.858   0.871 -0.0171 -0.5655  0.4080
  367SOL    HW1 1466   1.199   2.907   0.917 -0.8305 -0.4999  0.4034
  367SOL    HW2 1467   1.231   2.816   0.787 -0.5475 -0.7482  0.4990
  367SOL     MW 1468   1.258   2.859   0.866 -0.1944 -0.5809  0.4194
  368SOL     OW 1469   1.667   0.457   0.656 -0.3891  0.2755  0.3850
  368SOL    HW1 1470   1.753   0.424   0.638 -1.1947 -0.4234 -2.3330
  368SOL    HW2 1471   1.681   0.553   0.652  0.1877  2.1875 -2.1435
  368SOL     MW 1472   1.680   0.465   0.653 -0.4193  0.4356 -0.3072
  369SOL     OW 1473   0.133   2.481   1.733 -0.2396 -0.4052  0.1876
  369SOL    HW1 1474   0.217   2.432   1.752 -2.0865 -1.4249 -0.0706
  369SOL    HW2 1475   0.138   2.559   1.779 -0.8979 -2.3359 -1.3943
  369SOL     MW 1476   0.145   2.485   1.742 -0.5701 -0.7945 -0.0552
  370SOL     OW 1477   0.667   0.107   0.966  0.3698  0.1647  0.2859
  370SOL    HW1 1478   0.732   0.178   0.971  0.6429 -0.2785 -1.0868
  370SOL    HW2 1479   0.711   0.040   1.021  0.8337 -0.5284  0.5089
  370SOL     MW 1480   0.681   0.108   0.974  0.4670  0.0148  0.1342
  371SOL     OW 1481   1.315   2.979   1.503  0.0502  0.1185 -0.4003
  371SOL    HW1 1482   1.256   2.920   1.454 -2.6663 -1.7067 -0.8611
  371SOL    HW2 1483   1.318   3.064   1.449 -1.3249 -0.7655 -1.8014
  371SOL     MW 1484   1.308   2.982   1.490 -0.4896 -0.2389 -0.6459
  372SOL     OW 1485   0.825   2.267   0.503 -0.2517  0.0063 -0.2595
  372SOL    HW1 1486   0.795   2.173   0.505 -0.1334 -1.3354  0.8044
  372SOL    HW2 1487   0.835   2.273   0.405  1.2677  0.7317 -0.2431
  372SOL     MW 1488   0.822   2.255   0.490 -0.0357 -0.0750 -0.1170
  373SOL     OW 1489   2.870   3.027   1.429  0.5713 -0.4599 -0.0573
  373SOL    HW1 1490   2.918   2.996   1.351  0.2478  0.7343  0.9707
  373SOL    HW2 1491   2.815   3.105   1.406  1.0303  1.2778 -0.9091
  373SOL     MW 1492   2.869   3.033   1.415  0.5891 -0.0731 -0.0340
  374SOL     OW 1493   1.494   0.519   0.249 -0.1497  0.4545  0.1246
  374SOL    HW1 1494   1.586   0.537   0.264  3.1249  1.6958  2.5103
  374SOL    HW2 1495   1.476   0.503   0.344  3.0266  1.1499 -0.6908
  374SOL     MW 1496   1.503   0.519   0.264  0.7014  0.7101  0.3318
  375SOL     OW 1497   1.154   2.102   2.273 -0.0961  0.1833  0.6082
  375SOL    HW1 1498   1.137   2.124   2.370 -0.8205  0.2075 -0.1839
  375SOL    HW2 1499   1.142   2.005   2.269  1.2672 -0.1972  0.6868
  375SOL     MW 1500   1.150   2.092   2.285 -0.0118  0.1363  0.5141
  376SOL     OW 1501   0.643   2.545   0.126 -0.4091  0.1523 -0.0782
  376SOL    HW1 1502   0.664   2.471   0.185  6.2289 -2.8537 -1.2793
  376SOL    HW2 1503   0.607   2.505   0.046  2.6833 -2.4461 -0.1387
  376SOL     MW 1504   0.641   2.530   0.123  0.8748 -0.5871 -0.2446
  377SOL     OW 1505   1.237   2.029   0.897  0.8340 -0.0428 -0.3306
  377SOL    HW1 1506   1.168   2.001   0.835  1.7829 -1.4053  0.0241
  377SOL    HW2 1507   1.234   1.958   0.967  0.6135  0.8141  1.5189
  377SOL     MW 1508   1.228   2.016   0.898  0.9301 -0.1095 -0.0398
  378SOL     OW 1509   0.990   2.804   1.544  0.4931 -0.3940  0.6729
  378SOL    HW1 1510   0.920   2.729   1.549  0.9580 -1.2157  1.8817
  378SOL    HW2 1511   0.951   2.877   1.493  0.7246  0.3243  0.0642
  378SOL     MW 1512   0.975   2.804   1.538  0.5850 -0.4076  0.7521
  379SOL     OW 1513   1.079   1.838   2.279  0.5046 -0.3369 -0.3863
  379SOL    HW1 1514   0.991   1.845   2.316 -0.5959 -0.2521  0.7122
  379SOL    HW2 1515   1.066   1.753   2.229 -1.6130 -1.8762  0.9957
  379SOL     MW 1516   1.066   1.828   2.277  0.0800 -0.5288 -0.0590
  380SOL     OW 1517   0.886   0.201   1.520 -0.3192 -0.7140 -0.4895
  380SOL    HW1 1518   0.915   0.159   1.435  0.2598  1.4614 -0.0489
  380SOL    HW2 1519   0.962   0.172   1.580  0.2031  1.2635  1.1860
  380SOL     MW 1520   0.900   0.191   1.517 -0.1739 -0.1661 -0.2103
  381SOL     OW 1521   0.808   2.009   0.799 -0.5248 -0.2636 -0.1020
  381SOL    HW1 1522   0.902   1.985   0.780 -1.3009 -0.4934  0.8080
  381SOL    HW2 1523   0.811   2.076   0.872 -1.5984 -1.2374 -0.5941
  381SOL     MW 1524   0.821   2.015   0.806 -0.7689 -0.4224 -0.0468
  382SOL     OW 1525   0.743   0.009   0.711  0.6922 -0.0982  0.0574
  382SOL    HW1 1526   0.687   0.045   0.782 -1.2781  0.2154 -0.6404
  382SOL    HW2 1527   0.691  -0.059   0.667 -0.9981 -0.4542 -2.0773
  382SOL     MW 1528   0.729   0.005   0.714  0.2092 -0.1038 -0.3163
  383SOL     OW 1529   0.479   0.047   0.379 -0.1977  0.2481  0.0174
  383SOL    HW1 1530   0.546  -0.024   0.358  0.0824  1.3465  0.6475
  383SOL    HW2 1531   0.401  -0.002   0.393 -0.9802  1.4221  1.5117
  383SOL     MW 1532   0.478   0.031   0.378 -0.2640  0.5479  0.2977
  384SOL     OW 1533   0.589   2.889   0.584  0.3726  0.1178  0.2826
  384SOL    HW1 1534   0.617   2.805   0.615 -0.5185  3.3939 -0.7053
  384SOL    HW2 1535   0.497   2.873   0.569 -0.6536 -0.1507 -0.0197
  384SOL     MW 1536   0.581   2.876   0.586  0.1197  0.5146  0.1124
  385SOL     OW 1537   1.318   2.077   1.562 -0.2628 -0.2086  0.1754
  385SOL    HW1 1538   1.402   2.084   1.620  3.5848 -1.5065 -1.5782
  385SOL    HW2 1539   1.274   1.988   1.582 -0.1772 -0.3614 -0.3836
  385SOL     MW 1540   1.323   2.066   1.573  0.2562 -0.4000 -0.1297
  386SOL     OW 1541   1.368   0.414   0.898 -0.2463 -0.5933 -0.8387
  386SOL    HW1 1542   1.277   0.387   0.881 -0.0719  3.1454 -0.1778
  386SOL    HW2 1543   1.390   0.394   0.991 -0.2334 -2.6229 -1.6006
  386SOL     MW 1544   1.359   0.408   0.908 -0.2216 -0.3678 -0.8520
  387SOL     OW 1545   0.841   2.186   1.491 -0.1141 -0.1419 -0.6522
  387SOL    HW1 1546   0.909   2.227   1.449 -3.2665  0.9007 -1.2892
  387SOL    HW2 1547   0.862   2.090   1.491 -1.3941  1.9195 -0.5300
  387SOL     MW 1548   0.853   2.178   1.485 -0.6989  0.2676 -0.7201
  388SOL     OW 1549   1.501   2.801   1.209 -0.5602  0.1263 -0.4364
  388SOL    HW1 1550   1.419   2.753   1.200 -0.0469 -0.2225 -0.1118
  388SOL    HW2 1551   1.566   2.765   1.152  0.3170  0.4395  1.3414
  388SOL     MW 1552   1.499   2.790   1.200 -0.3768  0.1216 -0.1590
  389SOL     OW 1553   0.376   0.187   3.093  0.4416 -0.4414  0.6133
  389SOL    HW1 1554   0.432   0.159   3.023 -0.8886 -0.8569 -0.7875
  389SOL    HW2 1555   0.288   0.181   3.059 -3.2394  2.9872 -1.5005
  389SOL     MW 1556   0.372   0.183   3.080 -0.2196 -0.0439  0.1496
  390SOL     OW 1557   1.350   0.050   0.611  0.2353 -0.3675  0.5146
  390SOL    HW1 1558   1.429   0.094   0.587  1.0101 -1.3622 -0.7510
  390SOL    HW2 1559   1.349   0.043   0.709 -1.4694 -1.6754  0.8500
  390SOL     MW 1560   1.360   0.055   0.621  0.1126 -0.6713  0.3919
  391SOL     OW 1561   0.300   2.275   1.462 -0.0680 -0.0373  0.3846
  391SOL    HW1 1562   0.239   2.209   1.497 -0.3892 -1.2426  0.4977
  391SOL    HW2 1563   0.234   2.344   1.461  1.1707 -0.6415  0.5217
  391SOL     MW 1564   0.283   2.276   1.466  0.0530 -0.2761  0.4176
  392SOL     OW 1565   1.990   2.179   0.333  0.0994  0.4444  0.0053
  392SOL    HW1 1566   1.918   2.241   0.361 -1.7706  0.5726  3.5003
  392SOL    HW2 1567   2.070   2.205   0.381  0.1542  0.7400 -0.1610
  392SOL     MW 1568   1.991   2.191   0.343 -0.1401  0.5003  0.4445
  393SOL     OW 1569   0.253   3.003   2.849 -0.2434 -0.0405 -0.6476
  393SOL    HW1 1570   0.311   3.068   2.823  1.3108 -0.1724 -1.6424
  393SOL    HW2 1571   0.165   3.024   2.816 -1.5162 -0.0222 -1.9408
  393SOL     MW 1572   0.249   3.014   2.841 -0.2063 -0.0555 -0.9495
  394SOL     OW 1573   0.832   1.634   1.417  0.1855 -0.0316  0.5060
  394SOL    HW1 1574   0.787   1.647   1.504 -1.5144  0.7462 -1.8247
  394SOL    HW2 1575   0.865   1.728   1.394 -2.2219  1.4605  2.3003
  394SOL     MW 1576   0.830   1.649   1.425 -0.3564  0.2679  0.4353
  395SOL     OW 1577   0.929   2.872   2.597 -0.1362  0.1954  0.5323
  395SOL    HW1 1578   0.944   2.944   2.656  1.8888  0.9165 -0.8459
  395SOL    HW2 1579   1.025   2.839   2.598 -0.7643 -0.2693  2.9075
  395SOL     MW 1580   0.944   2.877   2.605  0.0481  0.2292  0.6639
  396SOL     OW 1581   0.769   1.858   2.385  0.2568 -0.3715  0.5373
  396SOL    HW1 1582   0.814   1.849   2.468  3.9109  0.5338 -0.3720
  396SOL    HW2 1583   0.728   1.771   2.377 -0.5648 -1.2191  2.6641
  396SOL     MW 1584   0.770   1.846   2.395  0.6305 -0.3639  0.6979
  397SOL     OW 1585   1.007   2.332   1.344 -0.2222 -0.0234  0.2388
  397SOL    HW1 1586   1.035   2.397   1.278  4.2500  0.4779 -1.3290
  397SOL    HW2 1587   1.072   2.323   1.412  0.8952 -1.3085 -0.0466
  397SOL     MW 1588   1.019   2.339   1.344  0.5153 -0.1268 -0.0057
  398SOL     OW 1589   0.672   2.673   0.723  0.5127  0.4971  0.1492
  398SOL    HW1 1590   0.625   2.587   0.726 -0.3575 -2.4403 -3.3566
  398SOL    HW2 1591   0.752   2.641   0.690  1.0085 -2.9149 -0.3501
  398SOL     MW 1592   0.676   2.657   0.719  0.4633 -0.3406 -0.3792
  399SOL     OW 1593   0.271   2.017   0.375 -0.2421 -0.5330  0.5276
  399SOL    HW1 1594   0.207   2.089   0.380 -0.0153  1.0792  1.0391
  399SOL    HW2 1595   0.343   2.036   0.305  0.3410 -0.6853 -0.3819
  399SOL     MW 1596   0.272   2.029   0.366 -0.1352 -0.3404  0.4751
  400SOL     OW 1597   0.611   1.844   0.148 -0.1366 -0.1376 -0.2455
  400SOL    HW1 1598   0.593   1.937   0.141 -0.5018 -0.5075  0.2438
  400SOL    HW2 1599   0.578   1.812   0.231 -1.0786  1.0139 -1.0337
  400SOL     MW 1600   0.604   1.852   0.158 -0.3091 -0.0345 -0.2850
  401SOL     OW 1601   0.975   2.075   0.142 -0.7067  0.4677  1.3281
  401SOL    HW1 1602   0.997   1.975   0.148 -0.6543  0.4358 -1.5982
  401SOL    HW2 1603   1.031   2.109   0.210  0.3452  0.4458  2.1103
  401SOL     MW 1604   0.985   2.066   0.151 -0.5610  0.4606  1.0452
  402SOL     OW 1605   0.729   2.890   1.724 -0.4742  0.5214 -0.5894
  402SOL    HW1 1606   0.650   2.871   1.771 -0.5138 -0.1815  3.6456
  402SOL    HW2 1607   0.801   2.891   1.790 -0.3307  3.7044 -1.4237
  402SOL     MW 1608   0.728   2.887   1.739 -0.4605  0.8486 -0.1407
  403SOL     OW 1609   0.058   0.496   0.435  0.0767 -0.3616  0.3008
  403SOL    HW1 1610   0.142   0.526   0.478 -0.0035 -1.5939 -1.3287
  403SOL    HW2 1611   0.092   0.449   0.351 -2.9352  0.4002  0.3817
  403SOL     MW 1612   0.073   0.494   0.429 -0.3313 -0.4236  0.0965
  404SOL     OW 1613   0.996   2.895   0.797  0.1950 -0.0220  0.1651
  404SOL    HW1 1614   1.047   2.835   0.743  1.6566 -1.1747 -1.0279
  404SOL    HW2 1615   1.003   2.984   0.754  1.2792 -1.9240  1.2140
  404SOL     MW 1616   1.004   2.899   0.784  0.5309 -0.4250  0.1461
  405SOL     OW 1617   0.481   2.476   1.551  0.1421  0.0503  0.3398
  405SOL    HW1 1618   0.483   2.556   1.486 -1.3125  0.7187 -1.0362
  405SOL    HW2 1619   0.426   2.420   1.507  0.7796  1.0599  1.7687
  405SOL     MW 1620   0.474   2.479   1.537  0.0343  0.2717  0.3468
  406SOL     OW 1621   0.411   2.358   1.141 -0.1304 -1.0574 -0.2008
  406SOL    HW1 1622   0.315   2.353   1.169 -1.3441  0.9949 -2.8933
  406SOL    HW2 1623   0.450   2.279   1.181  0.0821  2.7615  0.0655
  406SOL     MW 1624   0.403   2.347   1.150 -0.2625 -0.2827 -0.5209
  407SOL     OW 1625   0.034   2.704   1.107  0.3838  0.2382  0.0749
  407SOL    HW1 1626   0.085   2.700   1.191 -0.9037 -1.1739 -1.2329
  407SOL    HW2 1627   0.098   2.662   1.036  1.4364  3.2898 -3.5331
  407SOL     MW 1628   0.049   2.698   1.109  0.3528  0.4545 -0.5737
  408SOL     OW 1629   2.135   2.121   0.596  0.1707 -0.4374  0.7611
  408SOL    HW1 1630   2.115   2.180   0.677 -1.2570 -0.9882 -0.0090
  408SOL    HW2 1631   2.061   2.052   0.596 -0.8909 -0.6781 -0.7782
  408SOL     MW 1632   2.123   2.120   0.607 -0.1577 -0.5419  0.4564
  409SOL     OW 1633   1.317   0.077   0.889 -0.0003 -0.7114  0.0697
  409SOL    HW1 1634   1.362   0.162   0.910 -2.4783 -0.1773  0.6124
  409SOL    HW2 1635   1.370   0.001   0.917 -0.0489 -0.4532  0.0009
  409SOL     MW 1636   1.330   0.078   0.896 -0.3336 -0.6069  0.1322
  410SOL     OW 1637   1.084   2.519   1.069  0.0128  0.5325  0.1800
  410SOL    HW1 1638   1.009   2.490   1.012 -0.7515 -0.4107 -0.0692
  410SOL    HW2 1639   1.150   2.450   1.036 -0.5737 -1.4453  1.8536
  410SOL     MW 1640   1.083   2.506   1.057 -0.1654  0.1471  0.3679
  411SOL     OW 1641   1.968   0.111   2.835  0.0214  0.0113 -0.8652
  411SOL    HW1 1642   1.926   0.073   2.759 -1.4658  1.5515  0.8628
  411SOL    HW2 1643   1.905   0.104   2.911 -3.3252  1.0711  1.2086
  411SOL     MW 1644   1.954   0.105   2.835 -0.6164  0.3543 -0.3636
  412SOL     OW 1645   1.097   2.202   0.571  0.3968 -0.3517  0.3407
  412SOL    HW1 1646   1.147   2.265   0.624 -0.5372  0.5169  2.1022
  412SOL    HW2 1647   1.027   2.257   0.544  2.9260  1.5280 -2.0049
  412SOL     MW 1648   1.094   2.217   0.575  0.6073  0.0109  0.2636
  413SOL     OW 1649   0.551   2.797   0.153 -0.5775 -0.1520 -0.4117
  413SOL    HW1 1650   0.578   2.700   0.154 -1.2822 -2.4527 -3.2567
  413SOL    HW2 1651   0.576   2.820   0.067  1.8413 -0.6429  0.3120
  413SOL     MW 1652   0.558   2.787   0.142 -0.3514 -0.5203 -0.6916
  414SOL     OW 1653   1.975   3.068   1.082 -0.2622  0.1698 -0.0704
  414SOL    HW1 1654   1.928   3.045   0.999  0.8579  0.0086 -0.6457
  414SOL    HW2 1655   2.040   2.996   1.088 -0.2639  2.1445  0.4440
  414SOL     MW 1656   1.977   3.055   1.072 -0.1147  0.4091 -0.0784
  415SOL     OW 1657   1.719   2.667   1.050  0.3257 -0.1329 -0.1192
  415SOL    HW1 1658   1.660   2.603   1.098 -3.2594  0.1650 -0.0530
  415SOL    HW2 1659   1.788   2.673   1.109  0.4932  2.2785 -1.2016
  415SOL     MW 1660   1.720   2.659   1.064 -0.1252  0.2246 -0.2533
  416SOL     OW 1661   0.628   1.918   1.384 -0.0937 -0.2258  0.1492
  416SOL    HW1 1662   0.559   1.984   1.364 -1.2063  0.3275  1.6151
  416SOL    HW2 1663   0.629   1.868   1.297  0.3286  0.6301 -0.2034
  416SOL     MW 1664   0.619   1.920   1.370 -0.1848 -0.0399  0.2961
  417SOL     OW 1665   1.025   3.043   1.994  0.0372  0.5214  0.4569
  417SOL    HW1 1666   0.951   3.011   2.050 -0.8135  2.5470  0.2120
  417SOL    HW2 1667   1.015   2.973   1.932  0.7346  2.3288  0.2336
  417SOL     MW 1668   1.014   3.030   1.994  0.0170  1.0271  0.3951
  418SOL     OW 1669   0.709   3.000   0.218  0.0651  0.0797 -0.0333
  418SOL    HW1 1670   0.770   2.974   0.152  1.7850  0.4296  0.1069
  418SOL    HW2 1671   0.650   2.923   0.222  2.7469  0.0395 -1.5130
  418SOL     MW 1672   0.709   2.987   0.210  0.6459  0.1206 -0.2100
  419SOL     OW 1673   0.445   2.699   1.371 -0.3495  0.0901 -0.1510
  419SOL    HW1 1674   0.515   2.753   1.401  0.6078 -2.2922  0.3833
  419SOL    HW2 1675   0.473   2.657   1.288  1.5553 -1.6726  1.1605
  419SOL     MW 1676   0.458   2.701   1.364  0.0282 -0.4568  0.0925
  420SOL     OW 1677   0.839   2.182   1.001 -0.8045  0.5576 -0.1957
  420SOL    HW1 1678   0.793   2.189   1.084 -0.4902 -1.5380  0.0564
  420SOL    HW2 1679   0.861   2.274   0.987  0.5065  0.2910  0.9129
  420SOL     MW 1680   0.836   2.195   1.010 -0.5901  0.2459 -0.0162
  421SOL     OW 1681   2.950   0.083   0.019 -0.1967 -0.4132  0.0365
  421SOL    HW1 1682   2.930   0.018  -0.043  0.4929 -1.0902  1.2069
  421SOL    HW2 1683   2.984   0.035   0.095 -1.5171  3.1795 -0.5406
  421SOL     MW 1684   2.952   0.068   0.021 -0.2799 -0.0285  0.1148
  422SOL     OW 1685   0.899   2.441   0.892  0.0606 -0.2429  0.3583
  422SOL    HW1 1686   0.836   2.507   0.917  0.7030 -0.4385  0.6615
  422SOL    HW2 1687   0.919   2.449   0.801 -1.6477 -2.1945  0.0210
  422SOL     MW 1688   0.893   2.451   0.883 -0.0800 -0.5262  0.3538
  423SOL     OW 1689   1.578   0.175   0.493 -0.3605 -0.0810 -0.0477
  423SOL    HW1 1690   1.547   0.164   0.404  0.2193 -0.4832  0.4536
  423SOL    HW2 1691   1.574   0.266   0.520  0.1868  0.0581  0.5953
  423SOL     MW 1692   1.574   0.185   0.485 -0.2118 -0.1157  0.1033
  424SOL     OW 1693   0.722   2.228   1.250 -0.2137  0.3678  0.0373
  424SOL    HW1 1694   0.634   2.216   1.284 -2.6615  0.8974 -0.7765
  424SOL    HW2 1695   0.778   2.201   1.327  0.0028  1.3325 -1.2094
  424SOL     MW 1696   0.718   2.223   1.264 -0.5081  0.5649 -0.2345
  425SOL     OW 1697   1.755   2.859   1.993  0.3248 -0.1645 -0.6739
  425SOL    HW1 1698   1.777   2.854   1.901 -0.7632  0.2992  1.0678
  425SOL    HW2 1699   1.766   2.768   2.022 -2.6113 -1.0478 -0.1767
  425SOL     MW 1700   1.759   2.846   1.985 -0.2061 -0.2198 -0.3785
  426SOL     OW 1701   0.764   1.637   1.921  0.2767  0.6631  0.4315
  426SOL    HW1 1702   0.733   1.649   1.835 -1.8070  0.4251  0.0638
  426SOL    HW2 1703   0.751   1.719   1.965 -0.9128  1.2829  1.0396
  426SOL     MW 1704   0.758   1.649   1.916 -0.1552  0.7135  0.4633
  427SOL     OW 1705   0.399   1.574   1.867 -0.1121  0.2088  0.4122
  427SOL    HW1 1706   0.436   1.624   1.935 -4.5384 -2.8220  0.0008
  427SOL    HW2 1707   0.313   1.549   1.896 -0.7314  3.1698 -0.7303
  427SOL     MW 1708   0.393   1.577   1.880 -0.7778  0.1996  0.2071
  428SOL     OW 1709   0.571   2.586   1.151 -0.2243  0.0881 -0.5081
  428SOL    HW1 1710   0.648   2.560   1.203 -0.6269 -1.5338  1.5700
  428SOL    HW2 1711   0.536   2.502   1.120  0.4737 -3.0346  1.0212
  428SOL     MW 1712   0.577   2.571   1.153 -0.1853 -0.5379 -0.0322
  429SOL     OW 1713   1.326   2.643   1.041 -0.5907 -0.3760 -0.2970
  429SOL    HW1 1714   1.246   2.597   1.058 -0.2492  2.1057  1.3164
  429SOL    HW2 1715   1.307   2.717   0.979  2.2782  1.0774  1.2308
  429SOL     MW 1716   1.313   2.647   1.035 -0.1671  0.1432  0.1175
  430SOL     OW 1717   1.175   2.713   0.670 -0.7403 -0.5578 -0.8214
  430SOL    HW1 1718   1.201   2.623   0.684  0.5707  1.5967 -1.1349
  430SOL    HW2 1719   1.115   2.720   0.593 -0.9315  0.6420  0.2693
  430SOL     MW 1720   1.170   2.702   0.662 -0.5925 -0.1152 -0.7189
  431SOL     OW 1721   0.308   1.956   1.152  0.4496  0.2265 -0.2671
  431SOL    HW1 1722   0.383   1.914   1.103 -1.9887 -1.0815  1.7369
  431SOL    HW2 1723   0.250   1.993   1.086  2.2964  3.5667 -0.4043
  431SOL     MW 1724   0.310   1.956   1.137  0.3716  0.4947 -0.0208
  432SOL     OW 1725   0.054   0.049   1.147 -0.4392  0.3247  0.3436
  432SOL    HW1 1726   0.076   0.079   1.238  1.4732 -1.5758 -2.3629
  432SOL    HW2 1727   0.023  -0.040   1.159  2.5759 -1.4120 -0.9134
  432SOL     MW 1728   0.053   0.041   1.161  0.2109 -0.1552 -0.1794
  433SOL     OW 1729   0.664   2.867   1.466 -0.7500  0.1436  0.0740
  433SOL    HW1 1730   0.681   2.856   1.563 -2.0384 -1.8214 -1.7834
  433SOL    HW2 1731   0.750   2.889   1.428  0.9125  1.9600 -0.4203
  433SOL     MW 1732   0.678   2.869   1.474 -0.7007  0.1240 -0.2363
  434SOL     OW 1733   1.557   2.819   1.496 -0.1026  0.0334  1.3305
  434SOL    HW1 1734   1.475   2.862   1.516  0.3677 -0.9997  3.5872
  434SOL    HW2 1735   1.542   2.784   1.404  0.3165  1.2698 -1.2997
  434SOL     MW 1736   1.544   2.820   1.487  0.0148  0.0602  1.2812
  435SOL     OW 1737   2.863   1.790   0.237  0.0056 -0.1489 -0.6570
  435SOL    HW1 1738   2.915   1.858   0.184  1.8603  0.5060  0.9772
  435SOL    HW2 1739   2.847   1.713   0.170  0.1531  1.5210 -0.9268
  435SOL     MW 1740   2.868   1.789   0.222  0.2698  0.1578 -0.4770
  436SOL     OW 1741   1.399   2.754   0.312  0.0634  0.2301 -0.0015
  436SOL    HW1 1742   1.454   2.742   0.388  1.4370 -2.1716 -1.7490
  436SOL    HW2 1743   1.348   2.840   0.324 -1.5864 -0.4222  0.2087
  436SOL     MW 1744   1.400   2.764   0.323  0.0270 -0.1728 -0.2044
  437SOL     OW 1745   0.885   2.938   1.316  0.2413  0.2015  0.5956
  437SOL    HW1 1746   0.908   3.033   1.308 -2.1770  1.5291 -0.6154
  437SOL    HW2 1747   0.863   2.913   1.228 -0.4801 -0.8588  2.1669
  437SOL     MW 1748   0.885   2.947   1.303 -0.1729  0.2368  0.6431
  438SOL     OW 1749   0.855   2.588   1.997  0.1305  0.3563  0.2908
  438SOL    HW1 1750   0.849   2.534   2.072  2.2875  2.9131 -1.6496
  438SOL    HW2 1751   0.793   2.547   1.935  1.5259  0.6326 -0.8389
  438SOL     MW 1752   0.846   2.576   1.998  0.5992  0.7301 -0.1143
  439SOL     OW 1753   1.166   2.171   0.312  0.0790  0.1281  0.0985
  439SOL    HW1 1754   1.138   2.178   0.411  1.0639  1.5036  0.1970
  439SOL    HW2 1755   1.143   2.258   0.283 -0.3858 -0.8174  1.0738
  439SOL     MW 1756   1.159   2.183   0.321  0.1476  0.1848  0.2402
  440SOL     OW 1757   1.637   2.972   3.010 -0.6742 -0.3425  0.1025
  440SOL    HW1 1758   1.605   2.971   3.100 -1.2239  0.0272 -1.5783
  440SOL    HW2 1759   1.694   2.897   3.004  0.2645 -0.1130  0.4575
  440SOL     MW 1760   1.640   2.962   3.021 -0.6229 -0.2634 -0.0724
  441SOL     OW 1761   0.309   2.563   0.534 -0.1604 -0.3316 -0.2981
  441SOL    HW1 1762   0.338   2.546   0.437 -0.0091  2.3903  0.1578
  441SOL    HW2 1763   0.306   2.661   0.553  2.8084  0.9124  1.7565
  441SOL     MW 1764   0.313   2.573   0.523  0.2512  0.1917  0.0331
  442SOL     OW 1765   0.013   2.334   0.634 -0.6560 -0.5954 -0.6387
  442SOL    HW1 1766   0.008   2.427   0.615  0.9175 -1.7395  2.0419
  442SOL    HW2 1767  -0.065   2.309   0.683  1.5054  2.1793  1.0069
  442SOL     MW 1768   0.002   2.343   0.638 -0.1632 -0.3803 -0.0679
  443SOL     OW 1769   1.333   1.698   1.821  0.2701  0.2275  0.1453
  443SOL    HW1 1770   1.302   1.750   1.742  3.0453  4.1009 -3.3997
  443SOL    HW2 1771   1.283   1.615   1.827  0.7098  0.4522  0.3970
  443SOL     MW 1772   1.322   1.694   1.811  0.6942  0.7682 -0.2892
  444SOL     OW 1773   0.825   2.569   1.595 -0.0336 -0.0924 -0.0118
  444SOL    HW1 1774   0.895   2.550   1.653  0.3813  2.2527  0.2553
  444SOL    HW2 1775   0.754   2.517   1.617  0.8649  0.8310  1.0660
  444SOL     MW 1776   0.825   2.560   1.606  0.1397  0.3389  0.1657
  445SOL     OW 1777   0.979   0.090   1.289 -0.0835 -0.1130  0.0470
  445SOL    HW1 1778   0.927   0.145   1.231  0.9953 -1.3943  1.7277
  445SOL    HW2 1779   1.073   0.101   1.260  1.4729 -2.3874 -3.6181
  445SOL     MW 1780   0.984   0.099   1.278  0.2642 -0.5821 -0.2148
  446SOL     OW 1781   2.778   2.931   1.014 -0.4315 -0.5946 -0.2127
  446SOL    HW1 1782   2.692   2.940   0.969 -1.1693 -1.0440 -1.0441
  446SOL    HW2 1783   2.802   2.837   0.993  0.4541  0.2498 -0.6897
  446SOL     MW 1784   2.770   2.920   1.006 -0.4120 -0.5425 -0.3854
  447SOL     OW 1785   3.025   2.049   1.763  0.4802 -0.1649  0.7241
  447SOL    HW1 1786   3.098   1.988   1.787  0.2706  1.1090 -2.8606
  447SOL    HW2 1787   2.990   2.000   1.688  0.6611  0.7276  1.0201
  447SOL     MW 1788   3.030   2.034   1.757  0.4764  0.1209  0.2902
  448SOL     OW 1789   1.695   2.328   1.656  0.0438 -0.0504 -0.4387
  448SOL    HW1 1790   1.625   2.259   1.677 -0.5559  1.0222  2.2316
  448SOL    HW2 1791   1.649   2.410   1.629 -0.0814  4.1136  1.4736
  448SOL     MW 1792   1.680   2.330   1.655 -0.0518  0.6405  0.1659
  449SOL     OW 1793   0.829   2.914   0.439 -0.5415  0.1689  0.6686
  449SOL    HW1 1794   0.802   2.938   0.349 -2.3268 -1.4371  0.3970
  449SOL    HW2 1795   0.754   2.931   0.494  1.0710 -0.1507 -0.4021
  449SOL     MW 1796   0.816   2.920   0.435 -0.5643 -0.0851  0.4915
  450SOL     OW 1797   1.220   2.410   0.699 -0.2588  0.0013  0.2768
  450SOL    HW1 1798   1.216   2.380   0.788  0.9683 -1.7999 -2.7883
  450SOL    HW2 1799   1.314   2.401   0.684 -1.3193 -1.4996  2.2359
  450SOL     MW 1800   1.232   2.405   0.708 -0.2368 -0.4343  0.1309
  451SOL     OW 1801   0.604   1.976   1.677 -0.0237  0.6834 -0.4313
  451SOL    HW1 1802   0.643   2.067   1.692 -1.6174  1.3405  1.1962
  451SOL    HW2 1803   0.614   1.956   1.584  0.1292  2.3943 -0.4636
  451SOL     MW 1804   0.611   1.985   1.667 -0.2138  0.9958 -0.2208
  452SOL     OW 1805   0.295   2.728   0.148 -0.0782  0.3320  0.3928
  452SOL    HW1 1806   0.388   2.752   0.161  2.2199  0.2728  1.6852
  452SOL    HW2 1807   0.291   2.722   0.053  0.7896  0.0602  2.7079
  452SOL     MW 1808   0.307   2.731   0.137  0.3395  0.2883  0.8687
  453SOL     OW 1809   0.382   2.982   1.654  0.1639  0.2644  0.5780
  453SOL    HW1 1810   0.432   3.021   1.585  2.2745 -1.0353 -0.5712
  453SOL    HW2 1811   0.301   2.981   1.608  0.9449  3.0315  2.4196
  453SOL     MW 1812   0.378   2.987   1.639  0.5455  0.4580  0.6693
  454SOL     OW 1813   1.085   2.795   1.113  0.3605  0.0457 -0.8862
  454SOL    HW1 1814   1.076   2.699   1.089 -1.0281 -2.2439  1.1057
  454SOL    HW2 1815   1.031   2.836   1.049  2.2923  0.2895 -3.0400
  454SOL     MW 1816   1.076   2.788   1.102  0.4321 -0.2242 -0.9076
  455SOL     OW 1817   1.583   2.942   0.176 -0.6277 -0.0248  0.2192
  455SOL    HW1 1818   1.657   2.927   0.227 -1.6233  0.6797  0.2513
  455SOL    HW2 1819   1.520   2.877   0.208 -2.1694  0.6805  0.3277
  455SOL     MW 1820   1.584   2.932   0.187 -0.9625  0.1612  0.2378
  456SOL     OW 1821   2.961   0.326   1.396 -0.0084  0.7805 -0.2013
  456SOL    HW1 1822   2.954   0.235   1.371  0.6404 -1.1138 -0.6532
  456SOL    HW2 1823   3.003   0.377   1.312  0.1598 -2.0776 -0.6632
  456SOL     MW 1824   2.965   0.321   1.381  0.0994  0.1535 -0.3219
  457SOL     OW 1825   0.843   1.548   2.999 -0.4819 -0.3522 -0.0224
  457SOL    HW1 1826   0.798   1.557   3.083 -1.3841 -1.1187  1.7116
  457SOL    HW2 1827   0.914   1.492   3.018 -2.5146  1.8035  0.9109
  457SOL     MW 1828   0.846   1.542   3.013 -0.8691 -0.1689  0.3295
  458SOL     OW 1829   1.435   1.401   0.627 -0.1283 -0.2185 -0.1232
  458SOL    HW1 1830   1.353   1.427   0.667 -1.8725 -1.8959  0.2470
  458SOL    HW2 1831   1.404   1.346   0.550 -0.0041 -1.5674  0.7168
  458SOL     MW 1832   1.420   1.397   0.622 -0.3420 -0.6178  0.0364
  459SOL     OW 1833   1.550   0.128   0.216 -0.0016  0.4219  0.0895
  459SOL    HW1 1834   1.520   0.038   0.225  0.5360 -0.1492  1.5898
  459SOL    HW2 1835   1.502   0.182   0.148 -0.6079 -0.7972 -1.4183
  459SOL     MW 1836   1.540   0.124   0.208 -0.0107  0.1857  0.0885
  460SOL     OW 1837   1.686   2.163   0.579 -0.3320 -0.2530  0.3182
  460SOL    HW1 1838   1.630   2.134   0.640  1.0680 -2.7219  0.3564
  460SOL    HW2 1839   1.745   2.083   0.565 -2.4364 -0.2653  2.0181
  460SOL     MW 1840   1.686   2.148   0.585 -0.4250 -0.5804  0.5475
  461SOL     OW 1841   0.514   2.362   0.600  0.5862  0.7351 -0.3295
  461SOL    HW1 1842   0.492   2.447   0.576  0.8195  0.6539  0.2356
  461SOL    HW2 1843   0.480   2.352   0.687 -0.6595 -0.7197 -1.7065
  461SOL     MW 1844   0.507   2.372   0.609  0.4527  0.5324 -0.4366
  462SOL     OW 1845   0.346   0.324   1.288 -0.1777  0.2689 -0.4391
  462SOL    HW1 1846   0.385   0.264   1.224 -2.9872  1.6591  0.3961
  462SOL    HW2 1847   0.417   0.383   1.301 -1.0090  2.8174 -2.8264
  462SOL     MW 1848   0.360   0.324   1.281 -0.6581  0.7886 -0.6439
  463SOL     OW 1849   1.004   0.050   0.700 -0.4876  0.1121 -0.0486
  463SOL    HW1 1850   1.037   0.034   0.608  2.8703 -0.4760  1.3357
  463SOL    HW2 1851   0.907   0.062   0.694  0.3147  0.7612  0.9305
  463SOL     MW 1852   0.996   0.049   0.687  0.0613  0.1202  0.2632
  464SOL     OW 1853   0.786   2.935   2.141 -0.1004 -0.1887 -0.6880
  464SOL    HW1 1854   0.773   2.842   2.138  0.3443  1.1125 -1.8770
  464SOL    HW2 1855   0.790   2.954   2.242 -4.0436  0.6660  3.1044
  464SOL     MW 1856   0.785   2.926   2.154 -0.5620  0.0957 -0.3445
  465SOL     OW 1857   0.752   0.207   0.484  0.2336  0.0036  0.2726
  465SOL    HW1 1858   0.750   0.130   0.538  0.4151 -0.2678  2.0778
  465SOL    HW2 1859   0.718   0.192   0.395 -1.5681 -0.7759 -0.2429
  465SOL     MW 1860   0.747   0.195   0.480  0.0198 -0.1351  0.4427
  466SOL     OW 1861   1.057   1.959   0.695  0.2403 -0.2198 -0.2052
  466SOL    HW1 1862   1.054   1.893   0.624 -0.5173 -1.6701  0.8468
  466SOL    HW2 1863   1.060   2.044   0.646  0.8686  0.0761 -2.3123
  466SOL     MW 1864   1.057   1.962   0.679  0.2232 -0.3722 -0.3444
  467SOL     OW 1865   1.255   2.305   0.933 -0.4735 -0.8608 -0.0328
  467SOL    HW1 1866   1.345   2.315   0.963 -0.5529 -1.7950 -3.2321
  467SOL    HW2 1867   1.235   2.209   0.936  1.0697  1.6085 -2.3700
  467SOL     MW 1868   1.264   2.294   0.937 -0.2804 -0.6582 -0.7633
  468SOL     OW 1869   0.320   2.620   1.969  0.0792 -0.1025  0.2570
  468SOL    HW1 1870   0.332   2.539   1.917  1.8492 -0.4278  0.3832
  468SOL    HW2 1871   0.377   2.690   1.938 -2.2276 -0.4314  0.4425
  468SOL     MW 1872   0.329   2.619   1.958  0.0083 -0.1888  0.2982
  469SOL     OW 1873   0.402   2.079   1.826 -0.4112  0.1852  0.1326
  469SOL    HW1 1874   0.324   2.019   1.825  0.3817 -1.6298 -0.2835
  469SOL    HW2 1875   0.466   2.036   1.761 -0.7645  0.9499  0.4359
  469SOL     MW 1876   0.400   2.066   1.817 -0.3532  0.0466  0.1177
  470SOL     OW 1877   3.056   2.508   0.154 -0.4284  0.5830 -0.7742
  470SOL    HW1 1878   2.971   2.480   0.190  0.4320  1.9784  0.7488
  470SOL    HW2 1879   3.037   2.532   0.062  1.7436 -2.4047 -0.8432
  470SOL     MW 1880   3.042   2.507   0.146 -0.0283  0.3729 -0.5824
  471SOL     OW 1881   1.174   2.702   1.362  0.1749 -0.0132  0.0796
  471SOL    HW1 1882   1.106   2.722   1.428 -0.8493  2.8808 -0.4419
  471SOL    HW2 1883   1.132   2.740   1.287  0.1904  1.3000 -0.5677
  471SOL     MW 1884   1.160   2.709   1.361  0.0419  0.5419 -0.0746
  472SOL     OW 1885   2.921   2.125   0.329  0.0939  0.0413 -0.3298
  472SOL    HW1 1886   2.940   2.069   0.252 -1.1426  0.4162  1.0364
  472SOL    HW2 1887   2.898   2.067   0.396 -1.0444 -1.5749 -0.6301
  472SOL     MW 1888   2.920   2.110   0.328 -0.2195 -0.1225 -0.1892
  473SOL     OW 1889   0.800   2.551   1.280  0.2532  0.0488 -0.0895
  473SOL    HW1 1890   0.802   2.457   1.283 -1.4037 -1.2809  1.7860
  473SOL    HW2 1891   0.810   2.571   1.372 -0.0249 -0.0071 -0.6555
  473SOL     MW 1892   0.802   2.541   1.292 -0.0021 -0.1340  0.0832
  474SOL     OW 1893   0.839   2.209   1.788 -0.0982 -0.0147  0.5205
  474SOL    HW1 1894   0.931   2.228   1.800  2.2718  1.3182 -1.7762
  474SOL    HW2 1895   0.832   2.230   1.690 -1.0759 -0.5653 -0.6795
  474SOL     MW 1896   0.850   2.214   1.777  0.0855  0.0886  0.0591
  475SOL     OW 1897   1.629   3.079   1.416 -0.1854  0.0690 -0.3467
  475SOL    HW1 1898   1.563   3.126   1.368  1.6360  0.3725  0.1923
  475SOL    HW2 1899   1.580   3.004   1.453  1.2890  0.0831 -1.0813
  475SOL     MW 1900   1.614   3.075   1.415  0.2494  0.1109 -0.3725
  476SOL     OW 1901   1.425   2.595   0.812  0.4261  0.4000  0.4998
  476SOL    HW1 1902   1.394   2.597   0.903  0.7597 -3.7567 -0.0190
  476SOL    HW2 1903   1.469   2.684   0.808 -0.6293  2.8072 -1.7186
  476SOL     MW 1904   1.427   2.607   0.823  0.3309  0.1691  0.1387
  477SOL     OW 1905   0.880   2.499   0.624  0.4159  0.4650  1.4197
  477SOL    HW1 1906   0.920   2.556   0.555 -2.8498 -2.7809  0.6702
  477SOL    HW2 1907   0.833   2.415   0.584 -2.2334  1.4950 -1.2385
  477SOL     MW 1908   0.879   2.496   0.610 -0.3645  0.1726  0.9701
  478SOL     OW 1909   0.241   2.596   0.942  0.1298  0.3829 -0.5983
  478SOL    HW1 1910   0.303   2.662   0.971 -0.8489  1.6063  1.8850
  478SOL    HW2 1911   0.296   2.528   0.900 -0.8662 -0.9188 -2.6626
  478SOL     MW 1912   0.256   2.595   0.940 -0.1307  0.3725 -0.5430
  479SOL     OW 1913   1.399   1.951   1.311 -0.6084 -0.2079  0.3863
  479SOL    HW1 1914   1.361   2.011   1.372  0.8246  1.6090 -0.5566
  479SOL    HW2 1915   1.480   1.914   1.349  0.2492 -1.1566  0.0377
  479SOL     MW 1916   1.405   1.954   1.324 -0.3062 -0.0934  0.2159
  480SOL     OW 1917   1.810   2.353   1.285  0.5968 -0.9400  0.1612
  480SOL    HW1 1918   1.815   2.261   1.318 -0.2810  0.4686 -0.7314
  480SOL    HW2 1919   1.834   2.344   1.189  0.9038 -0.2363 -2.9108
  480SOL     MW 1920   1.814   2.339   1.277  0.5215 -0.6613 -0.3619
  481SOL     OW 1921   1.220   0.150   1.147  0.3510  0.1429 -0.4749
  481SOL    HW1 1922   1.244   0.119   1.061  1.8809  1.0887 -2.2934
  481SOL    HW2 1923   1.192   0.243   1.134 -0.8815 -0.0762 -1.7730
  481SOL     MW 1924   1.219   0.158   1.134  0.3902  0.2387 -0.8861
  482SOL     OW 1925   1.028   0.023   0.438  0.4262  0.4144 -0.0437
  482SOL    HW1 1926   0.955  -0.037   0.433  3.1885 -1.4850  1.0434
  482SOL    HW2 1927   0.998   0.104   0.397  0.4246 -0.6893 -2.2523
  482SOL     MW 1928   1.014   0.026   0.432  0.7904  0.0181 -0.1916
  483SOL     OW 1929   0.324   2.846   0.580  0.4865 -0.1029  0.9414
  483SOL    HW1 1930   0.255   2.877   0.514 -0.9572  0.5626 -1.8771
  483SOL    HW2 1931   0.303   2.902   0.653  1.9612 -0.2250 -1.6056
  483SOL     MW 1932   0.312   2.857   0.581  0.4906 -0.0312  0.2335
  484SOL     OW 1933   1.650   1.868   1.409  0.0895  0.0847 -0.1262
  484SOL    HW1 1934   1.718   1.920   1.381  0.2853 -2.0391  1.8204
  484SOL    HW2 1935   1.670   1.869   1.505  2.0947  0.1067  1.1107
  484SOL     MW 1936   1.662   1.875   1.418  0.3799 -0.1926  0.2939
  485SOL     OW 1937   0.546   2.325   0.304  0.4665 -0.1934  0.6942
  485SOL    HW1 1938   0.550   2.338   0.401  2.2070 -0.9491 -0.3141
  485SOL    HW2 1939   0.479   2.383   0.258 -1.8134 -1.4850 -2.9172
  485SOL     MW 1940   0.538   2.334   0.311  0.3954 -0.4635  0.0846
  486SOL     OW 1941   0.089   2.481   1.467  0.4413 -0.1154 -0.3745
  486SOL    HW1 1942   0.086   2.576   1.443 -0.2099  1.7827  0.3801
  486SOL    HW2 1943   0.123   2.495   1.556 -0.7336 -1.4218 -3.1997
  486SOL     MW 1944   0.093   2.496   1.475  0.2004 -0.0373 -0.6477
  487SOL     OW 1945   1.277   1.600   1.004 -0.2305 -0.3566 -0.7298
  487SOL    HW1 1946   1.250   1.694   1.027 -1.6765 -0.0840 -0.1752
  487SOL    HW2 1947   1.371   1.612   1.015  0.2681  0.5256 -0.3264
  487SOL     MW 1948   1.286   1.614   1.008 -0.3555 -0.2042 -0.6034
  488SOL     OW 1949   1.498   1.819   0.623  0.1643  0.4610 -0.0133
  488SOL    HW1 1950   1.481   1.908   0.586  1.5191  1.2539  1.3959
  488SOL    HW2 1951   1.435   1.757   0.583  0.2996 -2.0876  0.3508
  488SOL     MW 1952   1.487   1.823   0.613  0.3609  0.2294  0.2207
  489SOL     OW 1953   0.691   0.749   0.521  0.2685  0.1138  0.0258
  489SOL    HW1 1954   0.655   0.663   0.490  1.3137  0.7528  0.1792
  489SOL    HW2 1955   0.687   0.735   0.615 -0.3726  1.8753  1.0349
  489SOL     MW 1956   0.686   0.736   0.529  0.3218  0.4305  0.1792
  490SOL     OW 1957   1.406   2.087   0.428  0.2539  0.1958 -0.3639
  490SOL    HW1 1958   1.482   2.144   0.415 -0.9379  0.6132 -0.7699
  490SOL    HW2 1959   1.332   2.132   0.384 -0.3365 -0.1484 -0.4019
  490SOL     MW 1960   1.406   2.100   0.420  0.0187  0.2054 -0.4225
  491SOL     OW 1961   1.254   2.987   0.371 -0.6101  0.2001  0.1658
  491SOL    HW1 1962   1.292   3.034   0.442 -0.1768 -2.1692  1.5156
  491SOL    HW2 1963   1.158   3.008   0.376  1.9667  0.3577  0.4231
  491SOL     MW 1964   1.246   2.996   0.381 -0.2129 -0.0917  0.3778
  492SOL     OW 1965   1.445   2.144   0.709 -0.1045  0.1063 -0.0638
  492SOL    HW1 1966   1.416   2.134   0.618  2.1648 -0.1269 -1.5620
  492SOL    HW2 1967   1.392   2.089   0.765 -0.9365 -2.2215  0.3845
  492SOL     MW 1968   1.434   2.135   0.705  0.0851 -0.2316 -0.2024
  493SOL     OW 1969   0.213   2.990   0.346 -0.6348 -0.1368 -0.3216
  493SOL    HW1 1970   0.134   2.986   0.398  1.8704 -2.8138  1.6576
  493SOL    HW2 1971   0.183   3.008   0.256 -2.9563 -0.1359  0.6938
  493SOL     MW 1972   0.198   2.991   0.341 -0.6106 -0.4899  0.0735
  494SOL     OW 1973   0.375   2.393   1.789  0.0338  0.5528 -0.2569
  494SOL    HW1 1974   0.397   2.301   1.784  0.5585 -1.3259  3.0589
  494SOL    HW2 1975   0.430   2.431   1.713  1.3207 -0.9223 -2.6459
  494SOL     MW 1976   0.385   2.386   1.778  0.2728  0.1103 -0.1346
  495SOL     OW 1977   2.896   1.633   2.726 -0.0756 -0.2468  0.8236
  495SOL    HW1 1978   2.874   1.717   2.772 -1.4917  1.2563  1.8852
  495SOL    HW2 1979   2.874   1.567   2.793 -2.4731  1.6754  0.8832
  495SOL     MW 1980   2.890   1.636   2.741 -0.5788  0.2051  0.9715
  496SOL     OW 1981   2.758   2.273   2.726 -0.1072 -0.0915  0.1838
  496SOL    HW1 1982   2.779   2.181   2.736 -1.2459 -1.3201  0.8997
  496SOL    HW2 1983   2.847   2.319   2.741 -0.0693  2.0171  2.7774
  496SOL     MW 1984   2.773   2.267   2.729 -0.2524  0.0246  0.6205
  497SOL     OW 1985   1.494   2.335   2.544  0.1450  0.3316 -0.2277
  497SOL    HW1 1986   1.516   2.267   2.470 -0.5399 -1.3419  1.0739
  497SOL    HW2 1987   1.460   2.279   2.618  0.2673 -0.7905 -0.6137
  497SOL     MW 1988   1.492   2.319   2.544  0.0708 -0.0373 -0.1069
  498SOL     OW 1989   1.450   2.776   2.297  0.4310  0.0912 -0.0070
  498SOL    HW1 1990   1.447   2.686   2.266 -0.4276  0.1995 -0.2322
  498SOL    HW2 1991   1.537   2.776   2.345 -1.0142  1.7251  0.7324
  498SOL     MW 1992   1.461   2.764   2.299  0.1270  0.3211  0.0609
  499SOL     OW 1993   0.952   0.111   0.083  0.1330  0.5430  0.3015
  499SOL    HW1 1994   0.863   0.136   0.119 -2.7645 -0.6767  2.3341
  499SOL    HW2 1995   0.958   0.013   0.082  1.4487  0.2445  1.4458
  499SOL     MW 1996   0.941   0.101   0.087 -0.0757  0.3427  0.7206
  500SOL     OW 1997   1.037   2.522   2.738  0.2467 -0.6491  0.7479
  500SOL    HW1 1998   1.090   2.481   2.806 -0.0060  0.6063 -0.3672
  500SOL    HW2 1999   0.990   2.598   2.776  0.3634  2.4324  0.6258
  500SOL     MW 2000   1.038   2.526   2.752  0.2288 -0.0769  0.5847
  501SOL     OW 2001   1.739   2.251   3.077 -0.2639 -0.8548  0.5841
  501SOL    HW1 2002   1.754   2.345   3.085 -0.5058 -0.1469 -0.7402
  501SOL    HW2 2003   1.828   2.211   3.088 -0.2722 -1.1810  1.7939
  501SOL     MW 2004   1.752   2.258   3.079 -0.2969 -0.8045  0.5690
  502SOL     OW 2005   0.259   2.705   2.969 -0.1556 -0.3561  0.3478
  502SOL    HW1 2006   0.177   2.664   2.953 -0.9045  0.6824  1.2415
  502SOL    HW2 2007   0.273   2.774   2.901  0.5216 -0.7623 -1.2910
  502SOL     MW 2008   0.250   2.709   2.958 -0.1651 -0.2727  0.2495
  503SOL     OW 2009   1.149   2.576   2.106  0.0280  0.5080  0.5173
  503SOL    HW1 2010   1.210   2.601   2.033  0.4889  2.1772  0.3199
  503SOL    HW2 2011   1.068   2.620   2.075  1.9473 -1.4201 -1.6062
  503SOL     MW 2012   1.147   2.585   2.092  0.3421  0.4739  0.2111
  504SOL     OW 2013   0.070   2.656   2.163  0.0721 -0.2130 -0.2057
  504SOL    HW1 2014   0.132   2.614   2.101 -0.9546  1.6055 -0.1521
  504SOL    HW2 2015   0.002   2.590   2.178 -3.6456 -0.0379  0.9621
  504SOL     MW 2016   0.069   2.642   2.157 -0.5539  0.0500 -0.0446
  505SOL     OW 2017   1.604   2.782   2.739  0.0388 -0.4987 -0.2713
  505SOL    HW1 2018   1.624   2.806   2.651 -0.3877  0.8514 -0.8422
  505SOL    HW2 2019   1.540   2.851   2.777 -1.9010 -0.2480 -1.9280
  505SOL     MW 2020   1.598   2.794   2.733 -0.2734 -0.2875 -0.5652
  506SOL     OW 2021   1.592   0.060   2.762 -0.3569 -0.4387  0.4281
  506SOL    HW1 2022   1.617   0.019   2.847  1.6439 -0.9939  3.6117
  506SOL    HW2 2023   1.664   0.028   2.708 -1.6831  2.7419  1.7257
  506SOL     MW 2024   1.604   0.051   2.766 -0.2679 -0.0923  1.0193
  507SOL     OW 2025   0.868   2.725   2.813  0.0097 -0.0895  0.5141
  507SOL    HW1 2026   0.890   2.792   2.746 -2.0005  1.0939  0.3469
  507SOL    HW2 2027   0.779   2.694   2.794 -1.4128  0.7430  2.4043
  507SOL     MW 2028   0.859   2.729   2.802 -0.4432  0.1765  0.7414
  508SOL     OW 2029   1.155   2.107   2.592  0.2235 -0.1700  0.3852
  508SOL    HW1 2030   1.237   2.125   2.630  0.4980 -1.0059  0.6244
  508SOL    HW2 2031   1.102   2.075   2.664 -1.1954 -1.9843  0.0193
  508SOL     MW 2032   1.159   2.105   2.607  0.0725 -0.5197  0.3685
  509SOL     OW 2033   0.642   2.569   2.793  0.4783 -0.1200  0.0574
  509SOL    HW1 2034   0.631   2.492   2.737 -3.1639  1.5369  0.6145
  509SOL    HW2 2035   0.556   2.610   2.779 -2.0940 -0.0366 -0.9108
  509SOL     MW 2036   0.629   2.564   2.784 -0.3416  0.1096  0.0032
  510SOL     OW 2037   1.511   2.560   1.622  0.2487 -0.0066  0.2216
  510SOL    HW1 2038   1.556   2.644   1.598  1.7287 -1.7220  0.9314
  510SOL    HW2 2039   1.491   2.562   1.712  1.8339  0.1309 -0.3500
  510SOL     MW 2040   1.514   2.572   1.631  0.6531 -0.2148  0.2398
  511SOL     OW 2041   0.355   2.515   2.555  0.2450 -0.2260  0.4539
  511SOL    HW1 2042   0.442   2.473   2.553 -0.7165  0.6300  0.1474
  511SOL    HW2 2043   0.331   2.524   2.461  0.2048 -0.2132 -1.7423
  511SOL     MW 2044   0.364   2.510   2.542  0.1128 -0.1114  0.1237
  512SOL     OW 2045   1.026   1.970   2.848  0.0686  0.4002  0.5816
  512SOL    HW1 2046   0.938   1.984   2.879  0.2637  1.2463  1.1937
  512SOL    HW2 2047   1.030   1.875   2.882  1.1236 -1.8355 -1.6818
  512SOL     MW 2048   1.015   1.959   2.856  0.2335  0.2169  0.3637
  513SOL     OW 2049   1.528   2.516   2.200  0.4876  0.8260 -0.6474
  513SOL    HW1 2050   1.599   2.567   2.164  0.9156 -0.2990  2.0289
  513SOL    HW2 2051   1.553   2.463   2.277  2.4476 -0.6531  1.4774
  513SOL     MW 2052   1.540   2.516   2.205  0.8027  0.4824 -0.0140
  514SOL     OW 2053   0.165   2.343   2.673 -1.1114  0.1109 -0.3304
  514SOL    HW1 2054   0.231   2.408   2.640 -1.2004  0.4806  0.6212
  514SOL    HW2 2055   0.229   2.300   2.736 -0.5683  0.2655 -1.7888
  514SOL     MW 2056   0.182   2.346   2.677 -1.0515  0.1801 -0.3973
  515SOL     OW 2057   1.089   1.963   1.821  0.1773 -0.7361 -0.1106
  515SOL    HW1 2058   1.079   2.056   1.807  0.0987  1.9999 -0.6910
  515SOL    HW2 2059   1.133   1.954   1.908 -0.8263  2.3415 -3.0721
  515SOL     MW 2060   1.093   1.974   1.830  0.0345  0.0310 -0.5779
  516SOL     OW 2061   1.295   2.598   2.944  0.2835 -0.0672 -0.1112
  516SOL    HW1 2062   1.327   2.617   2.854 -0.0506  1.4892 -0.5212
  516SOL    HW2 2063   1.239   2.523   2.943  0.2473 -0.7694 -1.2624
  516SOL     MW 2064   1.292   2.591   2.932  0.2346  0.0455 -0.3172
  517SOL     OW 2065   0.553   2.356   2.283  0.2670  0.4443  0.3670
  517SOL    HW1 2066   0.507   2.441   2.284  0.3837  1.3147  2.1694
  517SOL    HW2 2067   0.490   2.308   2.231 -1.3237  0.3623  0.2286
  517SOL     MW 2068   0.538   2.361   2.276  0.0725  0.5483  0.5865
  518SOL     OW 2069   1.813   0.101   3.075  0.0263 -0.6068  0.5276
  518SOL    HW1 2070   1.802   0.125   3.164 -0.1236 -0.9658 -2.2148
  518SOL    HW2 2071   1.755   0.027   3.062 -0.6940  0.6567 -0.7122
  518SOL     MW 2072   1.804   0.094   3.085 -0.0885 -0.4874  0.0021
  519SOL     OW 2073   0.657   2.429   1.874  0.0375  0.4666 -0.8831
  519SOL    HW1 2074   0.690   2.336   1.875  0.0601  0.4300 -2.4802
  519SOL    HW2 2075   0.570   2.427   1.908  1.8890  0.5372 -0.0124
  519SOL     MW 2076   0.650   2.417   1.879  0.2848  0.4711 -0.9789
  520SOL     OW 2077   1.231   2.125   2.935  0.1766 -0.2591  0.0771
  520SOL    HW1 2078   1.166   2.064   2.900  0.0028 -2.1283 -2.4870
  520SOL    HW2 2079   1.254   2.102   3.027  0.2271  0.3502 -0.8479
  520SOL     MW 2080   1.226   2.114   2.942  0.1603 -0.4254 -0.3833
  521SOL     OW 2081   1.773   2.032   2.255  0.4212  0.5485  0.0551
  521SOL    HW1 2082   1.805   2.052   2.165  0.5675 -0.1268 -1.0839
  521SOL    HW2 2083   1.762   1.940   2.264  2.1765  0.1741  0.4503
  521SOL     MW 2084   1.776   2.022   2.244  0.6721  0.4100 -0.0430
  522SOL     OW 2085   2.877   2.540   2.229  0.2989 -0.0242  0.0257
  522SOL    HW1 2086   2.903   2.509   2.319  2.6246 -3.2149  1.6092
  522SOL    HW2 2087   2.860   2.637   2.223  0.6016  2.1109 -0.7188
  522SOL     MW 2088   2.878   2.549   2.240  0.6457 -0.1634  0.1364
  523SOL     OW 2089   0.819   1.492   2.151 -0.0322 -0.0713  0.1291
  523SOL    HW1 2090   0.801   1.527   2.065  0.4428 -2.4286  1.0786
  523SOL    HW2 2091   0.903   1.447   2.139 -0.6428 -0.4438 -1.1800
  523SOL     MW 2092   0.828   1.491   2.138 -0.0501 -0.4315  0.0816
  524SOL     OW 2093   0.632   2.404   2.993  0.0206 -0.5170  0.0409
  524SOL    HW1 2094   0.646   2.467   2.920 -0.6781  1.4142 -1.7239
  524SOL    HW2 2095   0.694   2.339   2.985  0.3755  1.7589 -2.4303
  524SOL     MW 2096   0.642   2.403   2.982 -0.0248  0.0381 -0.5180
  525SOL     OW 2097   0.393   2.189   2.116  0.5911  0.1020 -0.1962
  525SOL    HW1 2098   0.385   2.121   2.178  2.4619  3.8119  0.9951
  525SOL    HW2 2099   0.433   2.153   2.042 -0.0323  0.6798  1.2866
  525SOL     MW 2100   0.397   2.175   2.115  0.7557  0.6677  0.1566
  526SOL     OW 2101   0.708   2.123   2.005 -0.2724  0.0425  0.2778
  526SOL    HW1 2102   0.771   2.143   1.919 -2.6060 -1.9515 -1.2120
  526SOL    HW2 2103   0.770   2.146   2.077  0.8257 -0.2961  2.0537
  526SOL     MW 2104   0.724   2.129   2.003 -0.4354 -0.2652  0.3156
  527SOL     OW 2105   1.283   1.905   2.006 -0.1345 -0.0356  0.0660
  527SOL    HW1 2106   1.246   1.836   2.065 -1.2431 -2.0455 -1.4972
  527SOL    HW2 2107   1.315   1.849   1.936 -1.2251  0.5616 -1.1499
  527SOL     MW 2108   1.282   1.888   2.004 -0.4247 -0.2220 -0.3007
  528SOL     OW 2109   0.625   2.900   2.989  0.1224  0.4191 -0.9123
  528SOL    HW1 2110   0.640   2.992   2.965 -2.6035 -2.6675 -1.1622
  528SOL    HW2 2111   0.579   2.860   2.913  2.2808  0.1693 -0.1969
  528SOL     MW 2112   0.621   2.907   2.976  0.0475 -0.0211 -0.8509
  529SOL     OW 2113   1.121   2.230   1.778 -0.2212 -0.6713  0.4979
  529SOL    HW1 2114   1.172   2.249   1.856 -1.1347 -0.5744 -0.5742
  529SOL    HW2 2115   1.187   2.229   1.713  0.3081 -1.2756  1.9271
  529SOL     MW 2116   1.136   2.233   1.780 -0.2719 -0.7383  0.5450
  530SOL     OW 2117   1.145   2.385   2.965 -0.1237  0.5242 -0.4174
  530SOL    HW1 2118   1.098   2.411   3.041 -0.6595  0.4563 -0.3649
  530SOL    HW2 2119   1.174   2.297   2.968  1.1079  1.2516 -1.7474
  530SOL     MW 2120   1.143   2.377   2.976 -0.0319  0.6112 -0.5860
  531SOL     OW 2121   0.906   1.819   2.639  0.0778 -0.1735 -0.2547
  531SOL    HW1 2122   0.897   1.903   2.687 -1.5100  0.5363  0.5264
  531SOL    HW2 2123   0.847   1.757   2.678  2.0692 -0.1431  1.0218
  531SOL     MW 2124   0.897   1.822   2.651  0.1311 -0.0758  0.0168
  532SOL     OW 2125   1.669   0.327   2.870 -0.5330 -0.2704 -0.1471
  532SOL    HW1 2126   1.651   0.252   2.824  0.4811  1.7058 -0.6251
  532SOL    HW2 2127   1.699   0.298   2.956 -0.5733  1.9179  0.3843
  532SOL     MW 2128   1.670   0.314   2.875 -0.4045  0.2791 -0.1400
  533SOL     OW 2129   1.780   2.735   2.959  0.5091 -0.3184  0.1404
  533SOL    HW1 2130   1.787   2.658   3.016  1.4695  1.2855 -2.3467
  533SOL    HW2 2131   1.711   2.709   2.897  1.8281 -0.5392 -1.9057
  533SOL     MW 2132   1.772   2.722   2.959  0.8099 -0.1359 -0.4577
  534SOL     OW 2133   1.750   2.477   2.514 -0.3014 -0.4779 -0.1278
  534SOL    HW1 2134   1.691   2.415   2.553 -0.7769  1.2155 -0.9419
  534SOL    HW2 2135   1.836   2.477   2.565  2.5855 -2.0258  0.1786
  534SOL     MW 2136   1.753   2.469   2.526  0.0167 -0.4587 -0.1948
  535SOL     OW 2137   1.813   2.349   1.908  0.4767  0.1152 -0.0234
  535SOL    HW1 2138   1.745   2.344   1.835  0.2675  0.7923  0.2491
  535SOL    HW2 2139   1.897   2.389   1.876  0.5744  3.0037  1.6218
  535SOL     MW 2140   1.815   2.354   1.894  0.4620  0.5856  0.2297
  536SOL     OW 2141   0.442   1.833   2.025  0.4840 -0.4700 -0.4195
  536SOL    HW1 2142   0.444   1.852   1.930  3.2265  1.6039  0.8973
  536SOL    HW2 2143   0.527   1.856   2.066  1.8951 -1.1935 -1.5262
  536SOL     MW 2144   0.454   1.839   2.018  1.0320 -0.2918 -0.3917
  537SOL     OW 2145   0.992   0.183   2.927  0.8675 -0.2541 -0.8258
  537SOL    HW1 2146   0.960   0.168   3.015 -0.6352  0.5264  0.3193
  537SOL    HW2 2147   0.928   0.244   2.885 -1.3117  1.7800 -0.1232
  537SOL     MW 2148   0.979   0.189   2.933  0.3817  0.1172 -0.5820
  538SOL     OW 2149   1.310   0.045   3.047  0.0775 -0.0800 -0.3413
  538SOL    HW1 2150   1.233   0.080   3.005  2.3093 -1.5604  0.8682
  538SOL    HW2 2151   1.370   0.114   3.046 -2.0881  0.5587 -1.6174
  538SOL     MW 2152   1.308   0.059   3.041  0.0863 -0.1911 -0.3500
  539SOL     OW 2153   0.716   2.693   2.533 -0.4996  0.1474  0.0343
  539SOL    HW1 2154   0.777   2.766   2.528  0.8095 -1.6989 -2.3205
  539SOL    HW2 2155   0.769   2.618   2.557  3.0130  0.2011  0.4763
  539SOL     MW 2156   0.731   2.693   2.536  0.1365 -0.0891 -0.2180
  540SOL     OW 2157   0.361   2.233   2.845 -0.0298  0.4184 -0.2487
  540SOL    HW1 2158   0.426   2.289   2.885 -2.0967 -0.8527 -0.8392
  540SOL    HW2 2159   0.331   2.175   2.919  1.1672  0.6103  0.4392
  540SOL     MW 2160   0.365   2.233   2.860 -0.1446  0.2760 -0.2358
  541SOL     OW 2161   0.187   2.874   2.274  0.0609 -0.1814  0.0400
  541SOL    HW1 2162   0.152   2.795   2.230  0.1990  0.2915  0.6841
  541SOL    HW2 2163   0.239   2.829   2.343 -0.8661 -2.8221  0.8670
  541SOL     MW 2164   0.189   2.858   2.277 -0.0432 -0.4674  0.2341
  542SOL     OW 2165   0.889   2.278   2.746  0.1146  0.1511 -0.6187
  542SOL    HW1 2166   0.911   2.237   2.826  1.9392 -1.6773  0.9134
  542SOL    HW2 2167   0.933   2.365   2.761  0.3683 -0.6004 -1.4135
  542SOL     MW 2168   0.897   2.284   2.759  0.3888 -0.1893 -0.5214
  543SOL     OW 2169   1.396   2.606   2.672  0.1295 -0.7943  0.2412
  543SOL    HW1 2170   1.418   2.525   2.628 -0.4201  0.0001 -0.5684
  543SOL    HW2 2171   1.482   2.657   2.675  2.0731 -2.0527 -0.2693
  543SOL     MW 2172   1.410   2.602   2.667  0.3134 -0.8555  0.0671
  544SOL     OW 2173   0.703   0.113   2.611 -0.0876  0.7748  1.0161
  544SOL    HW1 2174   0.619   0.072   2.602 -2.8162 -2.7191 -0.0880
  544SOL    HW2 2175   0.742   0.108   2.526  1.6308  3.7514 -0.2338
  544SOL     MW 2176   0.697   0.107   2.598 -0.2208  0.7065  0.7055
  545SOL     OW 2177   1.547   2.165   2.333 -0.6419 -0.6163 -0.0055
  545SOL    HW1 2178   1.485   2.103   2.361  1.3293  3.2668 -1.1198
  545SOL    HW2 2179   1.633   2.130   2.302  2.7038  1.2994  0.7770
  545SOL     MW 2180   1.550   2.152   2.333  0.0596  0.1488 -0.0493
  546SOL     OW 2181   2.990   2.000   0.091 -0.0576 -0.4152  0.0448
  546SOL    HW1 2182   2.979   2.068   0.022  1.2279 -1.1341 -2.7474
  546SOL    HW2 2183   3.079   1.945   0.074  2.1372 -1.4909  1.7667
  546SOL     MW 2184   3.001   2.001   0.080  0.4016 -0.6520 -0.0965
  547SOL     OW 2185   0.130   2.935   0.065  0.2907  0.4883  0.1281
  547SOL    HW1 2186   0.170   2.927  -0.022 -0.9729 -0.1831  0.5873
  547SOL    HW2 2187   0.183   2.872   0.118 -1.3285 -1.4601  3.2386
  547SOL     MW 2188   0.142   2.925   0.060 -0.0896  0.1426  0.5991
  548SOL     OW 2189   0.324   2.501   0.265 -0.3447  0.3580 -0.2016
  548SOL    HW1 2190   0.291   2.587   0.235 -2.1351  1.1558  1.0164
  548SOL    HW2 2191   0.252   2.433   0.255 -0.2793 -1.0368  0.3411
  548SOL     MW 2192   0.310   2.503   0.259 -0.5723  0.2792  0.0307
  549SOL     OW 2193   0.694   1.866   2.119 -0.0674  0.7312 -0.5744
  549SOL    HW1 2194   0.727   1.959   2.102  1.3005  5.1251  1.2722
  549SOL    HW2 2195   0.727   1.857   2.209 -0.8086 -0.5076 -0.7740
  549SOL     MW 2196   0.703   1.877   2.128  0.0153  1.1475 -0.3571
  550SOL     OW 2197   1.829   1.743   2.558  0.0508  0.0778  0.4801
  550SOL    HW1 2198   1.825   1.759   2.468 -1.6070  0.7242  0.3901
  550SOL    HW2 2199   1.812   1.828   2.590 -0.4729 -1.7985  0.6703
  550SOL     MW 2200   1.826   1.756   2.550 -0.2370 -0.0845  0.4933
  551SOL     OW 2201   0.871   2.311   0.257  0.2725  0.0073 -0.4543
  551SOL    HW1 2202   0.948   2.361   0.233  1.7975 -0.8957  0.2694
  551SOL    HW2 2203   0.854   2.243   0.192  0.9114  1.5850 -1.5656
  551SOL     MW 2204   0.879   2.308   0.246  0.5580  0.0963 -0.5055
  552SOL     OW 2205   1.764   1.774   2.284  1.0058 -0.2094  0.0254
  552SOL    HW1 2206   1.672   1.757   2.284  2.4871  1.7393  0.6242
  552SOL    HW2 2207   1.786   1.710   2.211 -2.2549  1.7488  1.0471
  552SOL     MW 2208   1.755   1.763   2.274  0.7710  0.3061  0.2392
  553SOL     OW 2209   1.214   2.331   1.534 -0.2951 -0.3083  0.3267
  553SOL    HW1 2210   1.258   2.248   1.514 -1.1559 -1.3608 -1.0904
  553SOL    HW2 2211   1.262   2.395   1.479  0.9208  1.0459  0.7914
  553SOL     MW 2212   1.226   2.328   1.524 -0.2482 -0.2685  0.2011
  554SOL     OW 2213   0.557   2.825   2.707  0.2937 -0.0234 -0.0428
  554SOL    HW1 2214   0.530   2.908   2.661  2.3547  0.5329 -0.3704
  554SOL    HW2 2215   0.612   2.781   2.651  0.8218  4.3697 -0.3243
  554SOL     MW 2216   0.561   2.830   2.693  0.6353  0.6296 -0.1232
  555SOL     OW 2217   0.589   2.378   2.610  0.5004 -0.2106 -0.4354
  555SOL    HW1 2218   0.601   2.289   2.644  0.2140 -2.3368 -0.3349
  555SOL    HW2 2219   0.666   2.404   2.564 -0.7870  0.6203  2.5323
  555SOL     MW 2220   0.601   2.370   2.608  0.2928 -0.3815 -0.0306
  556SOL     OW 2221   1.042   1.789   0.138 -0.3309 -0.5696  0.1199
  556SOL    HW1 2222   1.058   1.735   0.057  1.1479 -1.1483  0.4167
  556SOL    HW2 2223   1.128   1.809   0.168 -1.7029  1.5984  2.1366
  556SOL     MW 2224   1.055   1.784   0.131 -0.3168 -0.3599  0.4251
  557SOL     OW 2225   0.999   2.688   0.482 -0.5491  0.1582 -0.2278
  557SOL    HW1 2226   1.053   2.683   0.401 -2.3251  0.6312 -0.2426
  557SOL    HW2 2227   0.951   2.778   0.467 -0.6506  0.4613  1.7116
  557SOL     MW 2228   1.000   2.699   0.469 -0.7968  0.2606  0.0261
  558SOL     OW 2229   0.287   2.116   3.080 -0.1338  0.2125  0.0215
  558SOL    HW1 2230   0.267   2.032   3.111 -2.7501  1.4940  1.1442
  558SOL    HW2 2231   0.217   2.161   3.119  0.3668 -1.1747  0.1135
  558SOL     MW 2232   0.275   2.111   3.089 -0.4130  0.1985  0.1817
  559SOL     OW 2233   1.181   2.301   2.060 -0.1930 -0.0726 -0.1066
  559SOL    HW1 2234   1.156   2.397   2.073  1.3172  2.4313 -0.3636
  559SOL    HW2 2235   1.174   2.249   2.141 -0.8955  1.4808 -1.9830
  559SOL     MW 2236   1.177   2.307   2.072 -0.0864  0.4627 -0.3881
  560SOL     OW 2237   1.966   2.874   0.014  0.4981 -1.2634 -0.4567
  560SOL    HW1 2238   2.021   2.941  -0.034 -1.9167  1.0477  0.6271
  560SOL    HW2 2239   1.901   2.838  -0.052 -0.7737 -1.2648  1.2135
  560SOL     MW 2240   1.965   2.878  -0.001  0.0117 -0.9587 -0.0933
  561SOL     OW 2241   0.474   2.091   0.200  0.3669 -0.1503  0.8006
  561SOL    HW1 2242   0.430   2.108   0.116 -2.1049  4.4419 -4.3367
  561SOL    HW2 2243   0.498   2.174   0.241  0.8197 -2.7785  1.2988
  561SOL     MW 2244   0.471   2.104   0.194  0.1005  0.1088  0.1885
  562SOL     OW 2245   0.894   2.163   2.196  0.1915  0.3112 -0.6178
  562SOL    HW1 2246   0.873   2.254   2.213  0.8686 -0.7915  0.7398
  562SOL    HW2 2247   0.989   2.170   2.207  0.6463 -0.8411 -0.6220
  562SOL     MW 2248   0.904   2.176   2.199  0.3408  0.0137 -0.4392
  563SOL     OW 2249   1.220   0.284   0.578 -0.2218  0.2779 -0.0691
  563SOL    HW1 2250   1.183   0.262   0.489 -0.1593 -1.4003 -0.8021
  563SOL    HW2 2251   1.258   0.199   0.609 -0.7134 -1.8863 -0.2470
  563SOL     MW 2252   1.220   0.270   0.570 -0.2784 -0.2291 -0.1893
  564SOL     OW 2253   1.017   2.594   2.369  0.3196 -0.2341  0.3815
  564SOL    HW1 2254   1.067   2.600   2.287 -1.5779 -1.3188  0.1099
  564SOL    HW2 2255   1.056   2.663   2.418 -1.8350 -2.3629  1.4654
  564SOL     MW 2256   1.029   2.604   2.365 -0.2150 -0.6581  0.4887
  565SOL     OW 2257   2.925   2.632   2.598 -0.0548 -0.3166 -0.6168
  565SOL    HW1 2258   2.978   2.710   2.581  1.9685  3.8066  0.1058
  565SOL    HW2 2259   2.848   2.661   2.543  1.1370  0.5857  1.7572
  565SOL     MW 2260   2.921   2.646   2.589  0.3694  0.3465 -0.2082
  566SOL     OW 2261   2.254   1.939   2.356  0.0567 -0.1450 -0.2583
  566SOL    HW1 2262   2.268   1.951   2.261 -0.2162  1.4552 -1.2224
  566SOL    HW2 2263   2.300   2.017   2.396  0.6237  0.1083 -0.9262
  566SOL     MW 2264   2.262   1.951   2.349  0.0955  0.0996 -0.4736
  567SOL     OW 2265   1.195   2.916   0.039  0.3993 -0.4183  0.2455
  567SOL    HW1 2266   1.250   2.995   0.009 -0.2163  0.2901 -1.6912
  567SOL    HW2 2267   1.185   2.866  -0.044  0.7226 -1.6036  0.3377
  567SOL     MW 2268   1.201   2.920   0.024  0.3607 -0.4813  0.0021
  568SOL     OW 2269   1.649   2.131   2.845 -0.1743 -0.1671  0.4047
  568SOL    HW1 2270   1.685   2.192   2.917  1.4406  0.2268  0.0629
  568SOL    HW2 2271   1.716   2.098   2.786 -1.3804  1.5464  2.7498
  568SOL     MW 2272   1.663   2.135   2.847 -0.1204  0.1110  0.6690
  569SOL     OW 2273   0.100   2.173   2.427  0.6477  0.3598 -0.3163
  569SOL    HW1 2274   0.062   2.231   2.360 -1.3389 -1.6675  1.5295
  569SOL    HW2 2275   0.136   2.241   2.489  1.7526  0.8598 -2.7274
  569SOL     MW 2276   0.100   2.190   2.427  0.5314  0.1583 -0.3909
  570SOL     OW 2277   1.425   0.423   0.490 -0.2370  0.0262  0.5336
  570SOL    HW1 2278   1.346   0.374   0.521 -2.0388  1.1488  0.4300
  570SOL    HW2 2279   1.483   0.436   0.561 -2.7451  3.4274 -4.1677
  570SOL     MW 2280   1.422   0.418   0.503 -0.8057  0.6231 -0.1003
  571SOL     OW 2281   1.475   2.398   1.950  0.0947 -0.1077 -0.6737
  571SOL    HW1 2282   1.513   2.443   2.026 -0.3546 -1.0053 -1.9276
  571SOL    HW2 2283   1.438   2.318   1.988  0.6395 -0.1204 -0.4462
  571SOL     MW 2284   1.475   2.393   1.965  0.1073 -0.2278 -0.8091
  572SOL     OW 2285   0.924   2.600   3.083  0.0162  0.3606  0.0914
  572SOL    HW1 2286   0.907   2.638   2.997  1.0170  0.2416 -0.0117
  572SOL    HW2 2287   0.842   2.573   3.123  1.4871  1.8347 -1.2587
  572SOL     MW 2288   0.910   2.602   3.077  0.3423  0.5394 -0.1004
  573SOL     OW 2289   1.113   2.417   0.197  0.3270 -0.2269 -0.1115
  573SOL    HW1 2290   1.207   2.387   0.187 -0.3509  1.0685  1.3853
  573SOL    HW2 2291   1.131   2.514   0.200  1.7310  3.7895  0.0999
  573SOL     MW 2292   1.127   2.426   0.196  0.4228  0.4739  0.1139
  574SOL     OW 2293   1.155   2.678   0.246 -0.2326 -0.4466  0.4628
  574SOL    HW1 2294   1.248   2.690   0.278 -2.8150  0.0294  1.5975
  574SOL    HW2 2295   1.152   2.754   0.185  1.2808  2.0557 -1.1266
  574SOL     MW 2296   1.167   2.690   0.242 -0.3736 -0.0536  0.4028
  575SOL     OW 2297   3.051   2.322   1.877 -0.4148 -0.1773 -0.6698
  575SOL    HW1 2298   3.055   2.246   1.817  4.3836 -2.1236 -1.5685
  575SOL    HW2 2299   3.118   2.386   1.843  0.7685 -0.7183 -1.1112
  575SOL     MW 2300   3.060   2.321   1.865  0.3744 -0.5055 -0.8466
  576SOL     OW 2301   2.812   1.830   2.044 -0.7899  0.6640  0.3968
  576SOL    HW1 2302   2.813   1.921   2.013 -1.8940 -1.0039  1.6099
  576SOL    HW2 2303   2.720   1.799   2.036 -0.3575 -1.0317  1.3303
  576SOL     MW 2304   2.800   1.838   2.039 -0.8786  0.2202  0.6800
  577SOL     OW 2305   2.087   0.241   0.080  0.3693  0.5558  0.1274
  577SOL    HW1 2306   2.023   0.298   0.049  0.2215  0.0390 -2.8874
  577SOL    HW2 2307   2.034   0.192   0.152  0.4436  0.1881  1.6176
  577SOL     MW 2308   2.071   0.242   0.086  0.3596  0.4391 -0.0737
  578SOL     OW 2309   2.035   2.093   2.384 -0.0718 -0.6702  0.0735
  578SOL    HW1 2310   1.951   2.044   2.366 -0.6600  0.8331  2.8882
  578SOL    HW2 2311   2.105   2.026   2.364  1.4843  0.4811 -1.2091
  578SOL     MW 2312   2.034   2.078   2.379  0.0559 -0.3199  0.2757
  579SOL     OW 2313   0.845   2.423   2.502 -0.2506 -0.2289 -0.7831
  579SOL    HW1 2314   0.852   2.378   2.585  1.9119 -1.1891 -1.8651
  579SOL    HW2 2315   0.930   2.469   2.484 -1.8313  1.1302  0.6636
  579SOL     MW 2316   0.857   2.423   2.510 -0.1738 -0.1763 -0.7350
  580SOL     OW 2317   0.910   2.926   0.027 -1.0744  0.2730  0.0879
  580SOL    HW1 2318   1.005   2.900   0.050  1.2090  1.9948  1.2160
  580SOL    HW2 2319   0.868   2.859  -0.026 -0.0587  2.7948  1.7659
  580SOL     MW 2320   0.917   2.914   0.023 -0.6391  0.8329  0.4582
  581SOL     OW 2321   1.098   2.526   1.730 -0.4241 -0.5250 -0.6743
  581SOL    HW1 2322   1.189   2.550   1.717 -0.8475  1.5210  3.2216
  581SOL    HW2 2323   1.095   2.428   1.722 -0.9444  0.3397 -1.4400
  581SOL     MW 2324   1.109   2.516   1.728 -0.5486 -0.1409 -0.2613
  582SOL     OW 2325   0.011   2.836   2.553  0.0399 -0.2698 -0.7379
  582SOL    HW1 2326   0.006   2.897   2.624 -2.7445 -1.6209 -2.2442
  582SOL    HW2 2327   0.108   2.813   2.535  2.1145  0.3214  0.4477
  582SOL     MW 2328   0.023   2.841   2.560 -0.0537 -0.3701 -0.7803
  583SOL     OW 2329   1.983   2.455   2.642 -0.1181  0.3304 -0.0885
  583SOL    HW1 2330   2.052   2.496   2.587  3.3918 -2.1261 -3.4544
  583SOL    HW2 2331   1.989   2.360   2.638  1.2717 -2.0993  2.0957
  583SOL     MW 2332   1.993   2.448   2.634  0.5284 -0.3143 -0.2444
  584SOL     OW 2333   0.190   1.850   2.111 -0.1588  0.1888  0.5305
  584SOL    HW1 2334   0.281   1.842   2.077  1.6600 -1.6910  0.6910
  584SOL    HW2 2335   0.198   1.907   2.190 -0.4770  1.3766 -2.0860
  584SOL     MW 2336   0.203   1.856   2.117  0.0392  0.0975  0.2064
  585SOL     OW 2337   1.493   2.557   0.033 -0.0566 -0.0741  0.3538
  585SOL    HW1 2338   1.417   2.570  -0.026 -1.1491  2.2281 -0.5197
  585SOL    HW2 2339   1.481   2.620   0.111  0.5768  0.1652  1.5359
  585SOL     MW 2340   1.482   2.567   0.035 -0.1172  0.2612  0.3945
  586SOL     OW 2341   1.237   3.007   2.377 -0.2316 -0.4309 -0.1569
  586SOL    HW1 2342   1.318   2.955   2.356  0.3092  1.4858 -0.6318
  586SOL    HW2 2343   1.243   3.022   2.475  0.4380 -1.2153  3.0801
  586SOL     MW 2344   1.249   3.002   2.387 -0.0719 -0.2815  0.2076
  587SOL     OW 2345   1.232   1.624   2.138  0.4694  0.2697 -0.4391
  587SOL    HW1 2346   1.214   1.547   2.195  0.5899 -0.5223 -1.1184
  587SOL    HW2 2347   1.217   1.592   2.053 -1.2514 -1.0932 -1.3478
  587SOL     MW 2348   1.228   1.609   2.134  0.2582 -0.0146 -0.6486
  588SOL     OW 2349   1.416   2.113   2.730 -0.2277 -0.3410 -0.1247
  588SOL    HW1 2350   1.502   2.101   2.760  0.3781  0.3657 -1.4575
  588SOL    HW2 2351   1.351   2.113   2.803 -0.2711 -0.4351 -2.0195
  588SOL     MW 2352   1.419   2.112   2.743 -0.1535 -0.2602 -0.5506
  589SOL     OW 2353   1.356   2.066   0.069  0.1787 -0.0440  0.0816
  589SOL    HW1 2354   1.353   2.158   0.102 -3.4095  1.5243 -2.6325
  589SOL    HW2 2355   1.351   2.002   0.141  0.6181  1.0047  0.2915
  589SOL     MW 2356   1.355   2.069   0.083 -0.2367  0.3013 -0.2488
  590SOL     OW 2357   0.422   2.612   2.242 -0.3103 -0.1030 -0.0315
  590SOL    HW1 2358   0.379   2.634   2.159  0.7258 -1.1636 -0.5228
  590SOL    HW2 2359   0.506   2.655   2.246 -1.3160  0.8298  2.6135
  590SOL     MW 2360   0.427   2.621   2.231 -0.3063 -0.1199  0.2527
  591SOL     OW 2361   2.301   0.708   3.076  0.5093 -0.1535  0.8170
  591SOL    HW1 2362   2.223   0.761   3.059 -1.6737 -1.1555  2.0453
  591SOL    HW2 2363   2.371   0.761   3.040  1.3596  0.8298  0.1652
  591SOL     MW 2364   2.300   0.722   3.069  0.3335 -0.1560  0.8931
  592SOL     OW 2365   1.848   3.002   0.845  0.0190  0.6503  0.0002
  592SOL    HW1 2366   1.844   3.055   0.768  2.1460 -2.4096 -1.0823
  592SOL    HW2 2367   1.868   2.905   0.832 -1.6016 -0.9278 -0.3550
  592SOL     MW 2368   1.850   2.996   0.833  0.0858  0.0384 -0.1895
  593SOL     OW 2369   1.907   0.784   0.859 -0.2478 -0.7482  0.4363
  593SOL    HW1 2370   1.855   0.744   0.787 -0.7778 -2.6217 -1.4741
  593SOL    HW2 2371   1.957   0.714   0.899  0.7524  0.8487  0.1211
  593SOL     MW 2372   1.906   0.769   0.855 -0.1858 -0.7847  0.1426
  594SOL     OW 2373   2.722   1.123   1.370  0.0631  0.0646  0.5613
  594SOL    HW1 2374   2.803   1.176   1.369  0.2782  2.4066 -0.3385
  594SOL    HW2 2375   2.724   1.105   1.277 -2.6696 -1.3339  0.5746
  594SOL     MW 2376   2.733   1.127   1.358 -0.2691  0.1891  0.4444
  595SOL     OW 2377   0.453   0.938   0.717 -0.1425  0.3576 -0.6447
  595SOL    HW1 2378   0.494   0.996   0.656  0.0027 -0.4759  1.9632
  595SOL    HW2 2379   0.458   0.978   0.803 -1.7643 -1.8964 -1.1439
  595SOL     MW 2380   0.459   0.951   0.720 -0.3374 -0.0498 -0.3665
  596SOL     OW 2381   2.436   1.365   0.587 -0.0733  0.5352  0.2340
  596SOL    HW1 2382   2.454   1.459   0.587 -2.1575  2.2434 -0.5824
  596SOL    HW2 2383   2.502   1.326   0.643 -0.8988 -0.8364  1.5435
  596SOL     MW 2384   2.447   1.372   0.594 -0.4572  0.5796  0.2990
  597SOL     OW 2385   2.186   0.659   1.732 -0.1854 -0.2477 -0.3118
  597SOL    HW1 2386   2.257   0.596   1.751 -1.7474 -0.9465  0.6111
  597SOL    HW2 2387   2.171   0.659   1.638 -2.6762  0.6379  2.0559
  597SOL     MW 2388   2.193   0.650   1.722 -0.7201 -0.2230  0.1224
  598SOL     OW 2389   2.599   1.016   2.856  0.2380 -0.3393 -0.6536
  598SOL    HW1 2390   2.636   0.983   2.767 -0.6616  2.7402  0.0614
  598SOL    HW2 2391   2.670   1.077   2.892  2.1297  2.2623 -2.4131
  598SOL     MW 2392   2.613   1.020   2.849  0.3689  0.4103 -0.7914
  599SOL     OW 2393   2.928   0.349   2.017 -0.0590 -0.2760  0.2461
  599SOL    HW1 2394   2.895   0.365   2.107  1.3872  0.7229 -1.8385
  599SOL    HW2 2395   2.974   0.431   1.997  2.4663 -2.2792 -0.5072
  599SOL     MW 2396   2.930   0.362   2.026  0.4650 -0.4085 -0.1283
  600SOL     OW 2397   1.891   1.726   0.888 -0.1056  0.1607 -0.3922
  600SOL    HW1 2398   1.894   1.692   0.979 -0.2269  0.7080 -0.2330
  600SOL    HW2 2399   1.806   1.772   0.876  2.3359 -0.8497  1.4685
  600SOL     MW 2400   1.880   1.728   0.898  0.2005  0.0996 -0.1257
  601SOL     OW 2401   2.537   0.809   0.864 -0.5034  0.0817 -0.3896
  601SOL    HW1 2402   2.532   0.801   0.964 -1.2893  0.1598 -0.9582
  601SOL    HW2 2403   2.480   0.748   0.829  1.4806 -0.5305  0.1274
  601SOL     MW 2404   2.529   0.800   0.872 -0.3453  0.0112 -0.3964
  602SOL     OW 2405   2.315   1.920   0.700  0.4837 -0.2024  0.5204
  602SOL    HW1 2406   2.250   1.868   0.752 -2.0088  0.8691 -1.3118
  602SOL    HW2 2407   2.264   1.974   0.636 -0.1017 -1.1847 -2.0588
  602SOL     MW 2408   2.299   1.920   0.698  0.0776 -0.1907 -0.0617
  603SOL     OW 2409   2.983   1.403   1.789  0.4811  0.0024 -0.0366
  603SOL    HW1 2410   3.063   1.429   1.833 -2.5051  0.2143 -0.9118
  603SOL    HW2 2411   2.983   1.310   1.790  0.1654 -1.0769 -1.1549
  603SOL     MW 2412   2.993   1.394   1.795  0.0454 -0.1121 -0.2997
  604SOL     OW 2413   2.116   1.591   0.445  0.0031  0.1539 -0.1607
  604SOL    HW1 2414   2.128   1.508   0.488 -0.8283  1.2929  1.0357
  604SOL    HW2 2415   2.070   1.645   0.510  0.6733 -0.2592 -0.0015
  604SOL     MW 2416   2.112   1.587   0.459 -0.0182  0.2497  0.0182
  605SOL     OW 2417   2.673   1.571   0.860  0.3223  0.0418 -0.3091
  605SOL    HW1 2418   2.601   1.605   0.810  3.0863 -0.2621  1.1616
  605SOL    HW2 2419   2.635   1.503   0.917  4.2638 -0.9962 -2.0398
  605SOL     MW 2420   2.658   1.567   0.861  1.2070 -0.1352 -0.3434
  606SOL     OW 2421   2.569   1.764   1.982  0.4949  0.0682 -0.8916
  606SOL    HW1 2422   2.477   1.796   1.970  0.0353 -1.5851  1.6983
  606SOL    HW2 2423   2.574   1.703   1.907  2.1272 -0.4379  0.1358
  606SOL     MW 2424   2.557   1.760   1.970  0.6496 -0.2167 -0.4144
  607SOL     OW 2425   2.354   1.003   3.005 -0.1758 -0.0543  0.1788
  607SOL    HW1 2426   2.428   0.984   2.948  0.6378  2.5893  0.9348
  607SOL    HW2 2427   2.392   1.040   3.091 -3.5940  1.3730  0.7519
  607SOL     MW 2428   2.369   1.005   3.009 -0.5195  0.4828  0.3542
  608SOL     OW 2429   1.887   0.296   0.562 -0.4441  0.5956  0.2202
  608SOL    HW1 2430   1.903   0.347   0.485  1.7128  0.6623  0.2268
  608SOL    HW2 2431   1.872   0.208   0.516  0.7853 -2.6515 -0.6913
  608SOL     MW 2432   1.887   0.291   0.546  0.0027  0.1760  0.1008
  609SOL     OW 2433   2.161   1.947   3.047 -0.1068 -0.0000 -0.2131
  609SOL    HW1 2434   2.081   1.911   3.003  0.1157 -0.3475  0.6670
  609SOL    HW2 2435   2.156   1.936   3.142 -1.1205  0.6617 -1.4274
  609SOL     MW 2436   2.150   1.941   3.053 -0.2112  0.0415 -0.2572
  610SOL     OW 2437   1.857   1.063   1.302  0.8165  0.2027 -0.9231
  610SOL    HW1 2438   1.873   1.000   1.228  0.3684 -0.0746  0.1894
  610SOL    HW2 2439   1.782   1.021   1.347 -2.1619  2.2992 -0.7556
  610SOL     MW 2440   1.850   1.049   1.298  0.3644  0.4428 -0.7542
  611SOL     OW 2441   2.448   1.652   0.706 -0.2249  0.2881 -0.4591
  611SOL    HW1 2442   2.423   1.735   0.742 -0.3001 -1.2864  4.0572
  611SOL    HW2 2443   2.471   1.667   0.608  1.8563  0.6520  0.8764
  611SOL     MW 2444   2.448   1.665   0.698  0.0398  0.1284  0.3130
  612SOL     OW 2445   2.788   2.845   0.469  0.1808  0.0529  0.2805
  612SOL    HW1 2446   2.819   2.885   0.554  2.2389 -1.9555 -0.5388
  612SOL    HW2 2447   2.868   2.800   0.439 -0.7382 -0.9194  1.3302
  612SOL     MW 2448   2.802   2.844   0.476  0.3311 -0.3404  0.3109
  613SOL     OW 2449   1.554   1.052   1.097 -0.1814 -0.5135 -0.5624
  613SOL    HW1 2450   1.545   1.146   1.124  0.8128 -1.8813 -2.0612
  613SOL    HW2 2451   1.614   1.010   1.160 -1.5845  0.4359  0.5920
  613SOL     MW 2452   1.561   1.059   1.109 -0.2353 -0.5687 -0.6078
  614SOL     OW 2453   2.052   0.568   1.503  0.5955  0.1553  0.5387
  614SOL    HW1 2454   2.038   0.498   1.566 -1.6359 -2.3387 -0.1632
  614SOL    HW2 2455   2.057   0.538   1.411  0.2266  0.9561 -0.5301
  614SOL     MW 2456   2.051   0.555   1.499  0.2524 -0.0681  0.3051
  615SOL     OW 2457   2.263   0.841   0.222 -0.5918 -0.3179  0.1240
  615SOL    HW1 2458   2.308   0.791   0.286 -1.8354  0.9589  1.3671
  615SOL    HW2 2459   2.267   0.786   0.147 -0.5829  0.2673  1.6729
  615SOL     MW 2460   2.270   0.827   0.221 -0.7547 -0.0722  0.4924
  616SOL     OW 2461   2.529   0.427   1.617 -0.0813 -0.3989  0.0112
  616SOL    HW1 2462   2.482   0.364   1.561  1.7312 -1.0857 -0.7998
  616SOL    HW2 2463   2.604   0.445   1.555  0.9034  2.9983  1.7539
  616SOL     MW 2464   2.533   0.421   1.601  0.2878 -0.0413  0.1341
  617SOL     OW 2465   2.858   0.580   1.723 -0.6994  0.2689  0.6009
  617SOL    HW1 2466   2.813   0.646   1.768  0.3698  0.6208  0.9964
  617SOL    HW2 2467   2.813   0.498   1.744  1.5592 -0.2804 -1.7313
  617SOL     MW 2468   2.846   0.578   1.732 -0.2604  0.2429  0.3453
  618SOL     OW 2469   2.672   0.351   1.896  0.6531 -0.3853  0.0011
  618SOL    HW1 2470   2.652   0.440   1.924  0.9340 -0.3217 -2.4712
  618SOL    HW2 2471   2.762   0.344   1.926 -0.7592  0.7821  1.3361
  618SOL     MW 2472   2.681   0.362   1.903  0.5038 -0.2229 -0.1490
  619SOL     OW 2473   2.584   0.789   0.164  0.3131 -0.6248 -0.0257
  619SOL    HW1 2474   2.659   0.827   0.217 -1.0507 -0.5745  1.2884
  619SOL    HW2 2475   2.529   0.734   0.228 -0.9819 -3.1375 -0.1613
  619SOL     MW 2476   2.587   0.787   0.179 -0.0377 -0.9497  0.1298
  620SOL     OW 2477   2.295   1.086   0.938  0.1850 -0.3970 -0.6234
  620SOL    HW1 2478   2.329   1.154   0.880  1.4511  0.2445  1.4804
  620SOL    HW2 2479   2.310   0.998   0.901  0.1347  0.8430 -0.0925
  620SOL     MW 2480   2.301   1.083   0.926  0.3454 -0.1488 -0.2758
  621SOL     OW 2481   1.485   2.115   2.001  0.0562 -0.5802 -0.3253
  621SOL    HW1 2482   1.417   2.063   2.032  1.2016  1.8588  2.5711
  621SOL    HW2 2483   1.552   2.100   2.066  1.1457  2.0316  1.4895
  621SOL     MW 2484   1.485   2.106   2.014  0.3510  0.0862  0.2963
  622SOL     OW 2485   2.628   0.135   0.221  0.7904 -0.1231  0.4976
  622SOL    HW1 2486   2.717   0.140   0.258 -1.4211  2.1811  1.3803
  622SOL    HW2 2487   2.619   0.037   0.196 -1.1475  0.4660 -0.0320
  622SOL     MW 2488   2.639   0.123   0.222  0.2429  0.2586  0.5442
  623SOL     OW 2489   2.348   2.739   0.879 -0.1689 -0.8072  0.4761
  623SOL    HW1 2490   2.397   2.819   0.875 -0.0336 -0.6485  0.2624
  623SOL    HW2 2491   2.275   2.758   0.935  0.0338 -1.5581  1.1759
  623SOL     MW 2492   2.345   2.752   0.886 -0.1243 -0.8854  0.5402
  624SOL     OW 2493   2.260   1.656   3.046  0.4190  0.0289 -0.0592
  624SOL    HW1 2494   2.177   1.619   3.072 -2.1300  0.0382 -0.1337
  624SOL    HW2 2495   2.239   1.748   3.052 -0.7600 -0.3852  1.2011
  624SOL     MW 2496   2.246   1.663   3.050 -0.0728 -0.0245  0.0973
  625SOL     OW 2497   2.122   1.949   1.059 -0.0846  0.4205  0.4449
  625SOL    HW1 2498   2.193   1.924   1.116 -0.3208 -1.0859 -2.3593
  625SOL    HW2 2499   2.131   1.890   0.986 -1.0352  0.2923 -0.2609
  625SOL     MW 2500   2.133   1.938   1.057 -0.2412  0.2049 -0.0182
  626SOL     OW 2501   0.175   1.566   2.338  0.7526  0.6415 -0.7583
  626SOL    HW1 2502   0.157   1.477   2.345 -2.6615  3.4913 -1.8218
  626SOL    HW2 2503   0.126   1.606   2.409 -0.4637 -0.0830  0.2667
  626SOL     MW 2504   0.167   1.559   2.348  0.1417  0.9219 -0.7633
  627SOL     OW 2505   2.475   0.825   2.593  0.4950  0.0207  0.7183
  627SOL    HW1 2506   2.404   0.893   2.579  2.4941  2.7304  2.3562
  627SOL    HW2 2507   2.450   0.757   2.530  2.9925  2.2030 -3.1816
  627SOL     MW 2508   2.462   0.825   2.583  1.0883  0.6661  0.4198
  628SOL     OW 2509   2.259   1.366   1.359 -0.2405 -0.3958  0.2988
  628SOL    HW1 2510   2.233   1.293   1.310  0.4018 -0.3200  3.5051
  628SOL    HW2 2511   2.352   1.354   1.380  1.2993  0.5751 -0.1603
  628SOL     MW 2512   2.268   1.355   1.356  0.0474 -0.2577  0.6612
  629SOL     OW 2513   2.005   0.545   1.228 -0.3548 -0.2874 -0.0128
  629SOL    HW1 2514   2.076   0.616   1.213  1.4406  0.5386  0.5535
  629SOL    HW2 2515   1.920   0.589   1.229  0.9850  2.4034  1.3356
  629SOL     MW 2516   2.003   0.560   1.226  0.0589  0.1766  0.2398
  630SOL     OW 2517   2.511   1.810   3.026 -0.3167  0.2246 -0.6611
  630SOL    HW1 2518   2.459   1.878   2.983 -2.0008  1.9590 -1.7222
  630SOL    HW2 2519   2.453   1.744   3.049  0.3740 -0.7389 -0.4685
  630SOL     MW 2520   2.497   1.810   3.023 -0.4478  0.3263 -0.7757
  631SOL     OW 2521   1.978   1.805   1.568  0.1680  0.2516 -0.1797
  631SOL    HW1 2522   1.985   1.716   1.609  3.5727  0.5145  0.9769
  631SOL    HW2 2523   1.945   1.779   1.480  0.8580 -0.2360 -1.5848
  631SOL     MW 2524   1.975   1.789   1.562  0.7082  0.2220 -0.2125
  632SOL     OW 2525   0.131   2.089   1.535 -0.4212 -0.3229 -0.6272
  632SOL    HW1 2526   0.084   2.074   1.623 -0.9979  1.7704  1.3129
  632SOL    HW2 2527   0.153   2.004   1.486 -1.4169  1.3643 -0.7259
  632SOL     MW 2528   0.128   2.076   1.540 -0.6287  0.1759 -0.3842
  633SOL     OW 2529   2.420   0.669   0.357 -0.0157 -0.3765  0.2260
  633SOL    HW1 2530   2.490   0.655   0.422  2.9327 -1.8856 -0.5809
  633SOL    HW2 2531   2.379   0.581   0.366  0.5787  0.6313  1.0490
  633SOL     MW 2532   2.424   0.656   0.367  0.4518 -0.4427  0.2282
  634SOL     OW 2533   2.651   3.097   0.664 -0.0559  0.4962  0.5406
  634SOL    HW1 2534   2.718   3.162   0.653  0.2908  0.2451 -0.6276
  634SOL    HW2 2535   2.597   3.092   0.581 -1.1784  1.0613 -0.8309
  634SOL     MW 2536   2.652   3.105   0.652 -0.1583  0.5376  0.2055
  635SOL     OW 2537   2.589   0.083   1.803  0.0353 -0.4249  0.2672
  635SOL    HW1 2538   2.662   0.042   1.756  0.6817  0.7076 -1.3155
  635SOL    HW2 2539   2.621   0.165   1.842  3.7315 -1.5725 -0.9776
  635SOL     MW 2540   2.603   0.088   1.802  0.6082 -0.4269 -0.1059
  636SOL     OW 2541   2.928   1.678   0.962 -0.7888  0.7182 -0.1216
  636SOL    HW1 2542   2.831   1.662   0.957 -1.7748 -3.0426  1.5539
  636SOL    HW2 2543   2.948   1.728   1.042  0.2735 -1.8297  2.3065
  636SOL     MW 2544   2.918   1.682   0.972 -0.7787 -0.1142  0.4199
  637SOL     OW 2545   2.873   1.494   0.676 -0.2063  0.2779 -0.0919
  637SOL    HW1 2546   2.942   1.542   0.713 -2.2615 -0.3972 -0.9540
  637SOL    HW2 2547   2.796   1.520   0.731 -0.8902 -0.2135 -0.3770
  637SOL     MW 2548   2.872   1.504   0.688 -0.5677  0.1240 -0.2433
  638SOL     OW 2549   2.664   0.635   0.512  0.4009 -0.3474  0.2562
  638SOL    HW1 2550   2.753   0.631   0.484  0.6738 -0.5087  0.2141
  638SOL    HW2 2551   2.670   0.645   0.605  1.3006  1.1465 -0.7941
  638SOL     MW 2552   2.677   0.636   0.521  0.5556 -0.1716  0.1120
  639SOL     OW 2553   1.833   0.035   0.526 -0.6931  0.3750 -0.5921
  639SOL    HW1 2554   1.742   0.039   0.514  1.2758 -1.0740 -1.2583
  639SOL    HW2 2555   1.852  -0.043   0.473  1.6081  1.3586 -1.1419
  639SOL     MW 2556   1.824   0.025   0.518 -0.1297  0.3136 -0.7525
  640SOL     OW 2557   0.338   1.358   0.062 -0.3364  0.1032 -0.0143
  640SOL    HW1 2558   0.365   1.361  -0.033  0.1192 -1.3951 -1.4090
  640SOL    HW2 2559   0.317   1.266   0.072 -1.7720  2.1951 -1.8547
  640SOL     MW 2560   0.339   1.347   0.051 -0.4657  0.1815 -0.4411
  641SOL     OW 2561   2.264   0.458   0.377 -0.1978  0.1368 -0.3957
  641SOL    HW1 2562   2.273   0.431   0.286  1.3577  0.5427  0.4395
  641SOL    HW2 2563   2.327   0.405   0.422  0.6758  0.1291 -0.8111
  641SOL     MW 2564   2.273   0.447   0.371  0.1227  0.1893 -0.3403
  642SOL     OW 2565   0.022   3.081   0.565  0.4247  0.1032  0.1326
  642SOL    HW1 2566   0.017   3.165   0.520  1.1892 -0.7767  0.3532
  642SOL    HW2 2567  -0.064   3.085   0.614 -0.5204 -0.5784  0.9175
  642SOL     MW 2568   0.010   3.093   0.566  0.4008 -0.1028  0.2652
  643SOL     OW 2569   2.023   0.344   1.692  0.1031 -0.0468  0.5640
  643SOL    HW1 2570   2.099   0.326   1.746 -0.0863  1.7201  0.3091
  643SOL    HW2 2571   2.024   0.292   1.611  2.8718 -0.3409  1.8152
  643SOL     MW 2572   2.033   0.335   1.689  0.4434  0.1476  0.6955
  644SOL     OW 2573   2.710   1.885   1.037 -0.3535  0.5314  0.3295
  644SOL    HW1 2574   2.681   1.818   1.104  3.2981 -1.1359  1.6818
  644SOL    HW2 2575   2.634   1.903   0.986 -0.5939  1.3538  2.8765
  644SOL     MW 2576   2.696   1.879   1.039  0.0966  0.4199  0.8440
  645SOL     OW 2577   2.828   0.891   0.654  0.1495  0.1564  0.3211
  645SOL    HW1 2578   2.901   0.846   0.691  1.0173 -0.7443 -0.2329
  645SOL    HW2 2579   2.757   0.833   0.639  1.6438 -2.7655 -1.9843
  645SOL     MW 2580   2.828   0.878   0.657  0.4612 -0.3480 -0.0561
  646SOL     OW 2581   0.177   2.256   0.864 -0.4139  0.2793  0.3409
  646SOL    HW1 2582   0.210   2.164   0.843  2.6091  0.8732 -2.5716
  646SOL    HW2 2583   0.132   2.279   0.776 -0.5604 -1.3814  0.7608
  646SOL     MW 2584   0.175   2.247   0.850 -0.0344  0.1386  0.0120
  647SOL     OW 2585   2.694   0.527   2.974 -0.6181 -0.4761 -0.0976
  647SOL    HW1 2586   2.642   0.481   3.044  0.3690  0.1796  3.2870
  647SOL    HW2 2587   2.667   0.614   2.978 -2.2805 -3.6583 -0.7096
  647SOL     MW 2588   2.683   0.532   2.984 -0.7072 -0.8094  0.2682
  648SOL     OW 2589   2.185   0.722   1.165 -0.1140  0.2370  0.0097
  648SOL    HW1 2590   2.167   0.763   1.084 -0.4335 -2.0704  1.0858
  648SOL    HW2 2591   2.210   0.794   1.225 -1.2751 -0.9650  1.4598
  648SOL     MW 2592   2.186   0.737   1.163 -0.3093 -0.2260  0.3430
  649SOL     OW 2593   2.399   2.732   1.263  0.3106  0.3371 -0.1805
  649SOL    HW1 2594   2.475   2.785   1.240  0.0669 -1.8028  1.2015
  649SOL    HW2 2595   2.398   2.660   1.200  0.8367 -2.0449  3.7254
  649SOL     MW 2596   2.409   2.729   1.251  0.3478 -0.2595  0.5172
  650SOL     OW 2597   2.811   0.236   0.664  0.0121 -0.3002  0.3714
  650SOL    HW1 2598   2.863   0.287   0.730  3.1688 -1.0622  0.3975
  650SOL    HW2 2599   2.875   0.230   0.589 -2.1461  0.1353 -0.4606
  650SOL     MW 2600   2.826   0.242   0.662  0.1438 -0.3433  0.2651
  651SOL     OW 2601   2.989   0.370   0.841 -0.9313  0.4488  0.0757
  651SOL    HW1 2602   3.064   0.430   0.806 -0.0898 -0.8776  0.0550
  651SOL    HW2 2603   2.940   0.434   0.892  0.9834  0.9501 -1.4636
  651SOL     MW 2604   2.993   0.386   0.843 -0.5677  0.3399 -0.1302
  652SOL     OW 2605   2.396   1.410   2.969  0.5658  0.7703 -0.0287
  652SOL    HW1 2606   2.466   1.421   2.906 -2.3614  0.3510  0.5968
  652SOL    HW2 2607   2.366   1.503   2.973  0.5536 -0.1834 -0.7888
  652SOL     MW 2608   2.401   1.423   2.961  0.1780  0.5892 -0.0464
  653SOL     OW 2609   1.954   0.427   0.335  0.0024 -0.1356 -0.6072
  653SOL    HW1 2610   1.898   0.359   0.303 -2.6781  1.8949  0.0178
  653SOL    HW2 2611   2.043   0.399   0.333  0.1240  1.0481 -1.5364
  653SOL     MW 2612   1.959   0.415   0.331 -0.3352  0.2885 -0.6474
  654SOL     OW 2613   2.471   1.040   0.731  0.1405 -0.3106  0.4483
  654SOL    HW1 2614   2.380   1.045   0.701 -0.0973  3.0413 -0.6665
  654SOL    HW2 2615   2.485   0.957   0.775 -0.2332 -0.4758  0.7839
  654SOL     MW 2616   2.461   1.030   0.733  0.0598  0.1099  0.3455
  655SOL     OW 2617   3.001   0.919   0.414 -0.4668  0.0954 -0.3591
  655SOL    HW1 2618   2.931   0.946   0.475  0.1545 -2.0161  0.6013
  655SOL    HW2 2619   3.009   0.822   0.436 -0.4096 -1.9278  0.9668
  655SOL     MW 2620   2.993   0.910   0.425 -0.3773 -0.4502 -0.0575
  656SOL     OW 2621   1.954   2.725   1.220  0.1336 -0.8708 -0.4451
  656SOL    HW1 2622   1.966   2.768   1.303  0.1458 -1.5965  2.2040
  656SOL    HW2 2623   1.965   2.637   1.250  0.4716  2.1919  1.3648
  656SOL     MW 2624   1.957   2.719   1.235  0.1798 -0.5625  0.1432
  657SOL     OW 2625   0.229   1.526   1.234 -0.4393 -0.0095 -0.0601
  657SOL    HW1 2626   0.136   1.501   1.246 -0.3369  2.0872 -0.9912
  657SOL    HW2 2627   0.242   1.544   1.142 -0.0576  0.4567  1.2520
  657SOL     MW 2628   0.218   1.525   1.224 -0.3754  0.3286 -0.0098
  658SOL     OW 2629   2.712   1.392   0.252  0.1071 -0.3464  0.0419
  658SOL    HW1 2630   2.647   1.341   0.299  0.1591 -1.7439 -0.1862
  658SOL    HW2 2631   2.750   1.461   0.305  2.3440 -0.8824 -0.9897
  658SOL     MW 2632   2.709   1.394   0.265  0.4091 -0.6015 -0.1243
  659SOL     OW 2633   2.283   1.543   1.050  0.4498 -0.5612  0.0395
  659SOL    HW1 2634   2.352   1.494   1.083 -2.9394  3.3097 -0.6506
  659SOL    HW2 2635   2.244   1.569   1.135  0.5522 -0.8131  1.3255
  659SOL     MW 2636   2.287   1.540   1.065  0.0161 -0.0837  0.1181
  660SOL     OW 2637   2.068   1.566   1.681  0.3973 -0.0823  0.3621
  660SOL    HW1 2638   2.092   1.570   1.778  0.3421  1.0280 -1.4622
  660SOL    HW2 2639   2.010   1.494   1.683  0.6742  1.5984 -0.0522
  660SOL     MW 2640   2.064   1.557   1.694  0.4266  0.2860  0.0667
  661SOL     OW 2641   2.397   1.114   0.173  0.4780  0.4993 -0.4658
  661SOL    HW1 2642   2.469   1.145   0.224  2.1104 -0.0716 -1.2664
  661SOL    HW2 2643   2.381   1.022   0.197  0.4199  0.9455 -1.5020
  661SOL     MW 2644   2.405   1.106   0.183  0.6857  0.4829 -0.7081
  662SOL     OW 2645   2.523   2.970   0.871  0.3349 -0.2649  0.3952
  662SOL    HW1 2646   2.473   3.030   0.930 -0.4407 -2.0862 -1.7193
  662SOL    HW2 2647   2.545   3.026   0.797  0.9284 -0.0371 -0.3376
  662SOL     MW 2648   2.520   2.985   0.869  0.3109 -0.4751  0.0195
  663SOL     OW 2649   2.811   1.564   0.426  0.7629  0.1423  0.0617
  663SOL    HW1 2650   2.862   1.634   0.385 -0.0412 -1.9302  1.2825
  663SOL    HW2 2651   2.842   1.549   0.512  1.5778  0.1549 -2.5550
  663SOL     MW 2652   2.822   1.571   0.432  0.7643 -0.1295 -0.1224
  664SOL     OW 2653   2.492   1.595   1.544 -0.4354  0.0462  0.2136
  664SOL    HW1 2654   2.453   1.675   1.509  2.3771 -2.0838 -1.8551
  664SOL    HW2 2655   2.415   1.542   1.550  0.4742 -2.6327 -1.4041
  664SOL     MW 2656   2.477   1.599   1.540  0.0557 -0.5883 -0.2728
  665SOL     OW 2657   2.878   0.801   2.056  0.0495  0.3703  0.4606
  665SOL    HW1 2658   2.870   0.843   1.974 -2.4067 -3.3393 -1.7781
  665SOL    HW2 2659   2.941   0.733   2.034 -0.3343 -1.7599  0.3717
  665SOL     MW 2660   2.885   0.797   2.042 -0.3252 -0.4002  0.1535
  666SOL     OW 2661   2.789   3.034   1.683 -0.3878  0.6004  0.1290
  666SOL    HW1 2662   2.793   3.009   1.589 -0.0599 -1.0151  0.8252
  666SOL    HW2 2663   2.732   2.967   1.727 -2.4243 -0.3625  2.4105
  666SOL     MW 2664   2.782   3.022   1.676 -0.6132  0.2602  0.5219
  667SOL     OW 2665   1.968   2.714   1.615  0.2159 -0.3696  0.1729
  667SOL    HW1 2666   1.992   2.632   1.660  1.1284  0.0690 -0.3120
  667SOL    HW2 2667   2.053   2.763   1.626 -1.3111 -0.7656 -0.7177
  667SOL     MW 2668   1.982   2.710   1.623  0.1348 -0.3640 -0.0086
  668SOL     OW 2669   2.741   0.615   0.768  0.0418  0.0174  0.0987
  668SOL    HW1 2670   2.809   0.631   0.833 -0.9893  0.4405 -2.7357
  668SOL    HW2 2671   2.678   0.687   0.790  2.6795 -1.4543 -0.0923
  668SOL     MW 2672   2.741   0.627   0.780  0.2538 -0.1210 -0.3005
  669SOL     OW 2673   0.179   0.915   0.717  0.1743  0.7329 -0.4543
  669SOL    HW1 2674   0.151   1.007   0.728  0.3532  1.5260 -0.0032
  669SOL    HW2 2675   0.280   0.918   0.739 -0.6330  0.9492 -2.2461
  669SOL     MW 2676   0.189   0.928   0.721  0.0914  0.8661 -0.6312
  670SOL     OW 2677   2.944   0.288   0.192  0.1249  0.1264  0.0008
  670SOL    HW1 2678   2.936   0.220   0.118  0.4945 -1.9254 -0.1616
  670SOL    HW2 2679   2.934   0.375   0.143 -1.4005  0.1345 -1.6052
  670SOL     MW 2680   2.941   0.290   0.175 -0.0276 -0.1432 -0.2325
  671SOL     OW 2681   2.160   3.081   1.606 -0.1270  0.0390 -0.1106
  671SOL    HW1 2682   2.134   3.154   1.548 -2.5065 -5.1074 -0.9509
  671SOL    HW2 2683   2.072   3.080   1.661 -0.2298 -1.8863  0.9204
  671SOL     MW 2684   2.145   3.091   1.605 -0.4545 -0.8940 -0.0854
  672SOL     OW 2685   1.866   1.709   1.339  0.2659  0.2511 -0.3048
  672SOL    HW1 2686   1.774   1.722   1.362 -3.7872  0.1844  0.2510
  672SOL    HW2 2687   1.864   1.759   1.259  1.8747 -1.0533  2.4147
  672SOL     MW 2688   1.854   1.718   1.332 -0.0566  0.0702  0.1273
  673SOL     OW 2689   2.771   1.111   0.495 -0.2326 -0.0121 -0.0227
  673SOL    HW1 2690   2.765   1.061   0.578 -0.4450  0.9977  0.2281
  673SOL    HW2 2691   2.858   1.166   0.493  1.3078  1.0902  1.2136
  673SOL     MW 2692   2.782   1.112   0.505 -0.0574  0.2666  0.1735
  674SOL     OW 2693   2.484   0.083   1.271 -0.0963 -0.1609 -0.8220
  674SOL    HW1 2694   2.454   0.099   1.180  3.0586  1.9023  1.9469
  674SOL    HW2 2695   2.520  -0.009   1.274 -0.6578  1.1888 -0.7292
  674SOL     MW 2696   2.485   0.073   1.259  0.2459  0.2894 -0.4444
  675SOL     OW 2697   2.994   1.033   1.114  0.3672 -0.3948 -0.3854
  675SOL    HW1 2698   3.038   1.019   1.198 -1.5751 -1.4140 -1.7092
  675SOL    HW2 2699   3.064   1.055   1.052  0.4090  2.7481  2.8750
  675SOL     MW 2700   3.009   1.034   1.117  0.1165 -0.1146 -0.1299
  676SOL     OW 2701   2.798   1.503   1.609  0.5093  0.3204 -0.0537
  676SOL    HW1 2702   2.760   1.425   1.578  0.4002 -0.3636 -1.7055
  676SOL    HW2 2703   2.886   1.472   1.640 -0.8905  0.5601 -3.3738
  676SOL     MW 2704   2.805   1.488   1.609  0.3102  0.2618 -0.7097
  677SOL     OW 2705   2.420   0.805   1.889 -0.0242 -0.2456  0.0608
  677SOL    HW1 2706   2.369   0.733   1.850 -2.0071 -2.1291 -1.1322
  677SOL    HW2 2707   2.383   0.816   1.974 -3.1077 -1.5306  1.1063
  677SOL     MW 2708   2.409   0.797   1.895 -0.6926 -0.6637  0.0414
  678SOL     OW 2709   2.545   1.594   0.464 -0.5856 -0.0909  0.4171
  678SOL    HW1 2710   2.507   1.666   0.411  0.7825  3.8956 -0.4234
  678SOL    HW2 2711   2.639   1.596   0.446  1.0723 -3.3007 -3.5195
  678SOL     MW 2712   2.552   1.604   0.455 -0.1864  0.0116 -0.2132
  679SOL     OW 2713   2.353   0.491   1.094 -0.6361  0.2525  0.0596
  679SOL    HW1 2714   2.306   0.423   1.146 -0.5592 -2.5473 -0.9304
  679SOL    HW2 2715   2.297   0.567   1.113 -0.7838  1.2234  3.2474
  679SOL     MW 2716   2.339   0.492   1.104 -0.6454  0.0112  0.3496
  680SOL     OW 2717   2.381   0.265   1.450 -0.0912  0.6520 -0.5465
  680SOL    HW1 2718   2.362   0.212   1.533 -0.6480 -4.9879  0.5025
  680SOL    HW2 2719   2.395   0.191   1.390 -0.1008 -1.0127  1.9769
  680SOL     MW 2720   2.380   0.248   1.453 -0.1660 -0.3118 -0.0751
  681SOL     OW 2721   0.293   0.542   1.588  0.4329 -0.0553  0.0251
  681SOL    HW1 2722   0.275   0.450   1.608 -2.7240  0.5373  1.5346
  681SOL    HW2 2723   0.384   0.546   1.578 -1.4920  0.4398  1.9536
  681SOL     MW 2724   0.303   0.530   1.589 -0.2376  0.0882  0.4787
  682SOL     OW 2725   0.144   2.988   1.498 -0.3560 -0.0754 -0.2578
  682SOL    HW1 2726   0.165   3.074   1.451  0.6833  0.9907 -1.6657
  682SOL    HW2 2727   0.064   3.007   1.557 -1.5462 -4.3198  0.1530
  682SOL     MW 2728   0.136   3.002   1.499 -0.3759 -0.4947 -0.3893
  683SOL     OW 2729   2.060   0.816   3.005  0.6493 -0.0487  0.3579
  683SOL    HW1 2730   1.980   0.778   2.970  1.7027  0.1719 -1.7219
  683SOL    HW2 2731   2.030   0.872   3.072 -2.0280 -1.2610  0.6779
  683SOL     MW 2732   2.046   0.818   3.009  0.4350 -0.1796  0.1257
  684SOL     OW 2733   2.167   1.767   0.854  0.2103  0.0451  0.2521
  684SOL    HW1 2734   2.074   1.744   0.852  2.3327 -1.0438  2.4735
  684SOL    HW2 2735   2.217   1.683   0.868 -0.8468  1.6892  0.7589
  684SOL     MW 2736   2.162   1.753   0.855  0.3509  0.1184  0.6121
  685SOL     OW 2737   2.563   1.735   1.221  0.0806  0.0119  0.1838
  685SOL    HW1 2738   2.634   1.735   1.282  0.0784  2.0892 -1.0510
  685SOL    HW2 2739   2.560   1.647   1.187 -4.1988 -0.6139  0.4449
  685SOL     MW 2740   2.572   1.724   1.225 -0.4843  0.2034  0.0554
  686SOL     OW 2741   2.892   0.713   1.491 -0.1052  0.2154 -0.2940
  686SOL    HW1 2742   2.888   0.673   1.579  1.0247 -2.3879  0.2883
  686SOL    HW2 2743   2.975   0.692   1.449 -3.9465 -0.9070 -2.1148
  686SOL     MW 2744   2.902   0.705   1.497 -0.4630 -0.2762 -0.4574
  687SOL     OW 2745   2.168   0.315   1.209  0.0833 -0.0952  0.0828
  687SOL    HW1 2746   2.152   0.267   1.124 -4.4807 -2.2689  0.1604
  687SOL    HW2 2747   2.098   0.381   1.199 -1.2012 -2.6573  2.5651
  687SOL     MW 2748   2.157   0.318   1.196 -0.6883 -0.7200  0.4205
  688SOL     OW 2749   2.380   0.555   1.453  0.7657  0.2007  0.4299
  688SOL    HW1 2750   2.439   0.524   1.527  1.3738 -1.4087 -0.4964
  688SOL    HW2 2751   2.369   0.469   1.417 -2.1335  0.8425  1.3510
  688SOL     MW 2752   2.386   0.539   1.458  0.4634  0.0731  0.4292
  689SOL     OW 2753   2.585   0.772   2.987 -0.2591 -0.5034 -0.2037
  689SOL    HW1 2754   2.613   0.862   2.964 -0.4266  0.1036  2.6880
  689SOL    HW2 2755   2.578   0.765   3.088  0.7391  0.7915  2.2800
  689SOL     MW 2756   2.587   0.783   2.998 -0.1495 -0.2525  0.5055
  690SOL     OW 2757   2.090   0.972   1.957  0.4014 -0.0759 -0.5621
  690SOL    HW1 2758   2.024   0.899   1.970  0.0113  0.4028 -1.2178
  690SOL    HW2 2759   2.120   0.964   1.861  2.8570 -1.2192 -2.0754
  690SOL     MW 2760   2.086   0.961   1.946  0.6739 -0.1636 -0.8483
  691SOL     OW 2761   2.455   0.244   0.825 -0.3520  0.0895 -0.2209
  691SOL    HW1 2762   2.536   0.291   0.850 -1.3639 -0.0682 -0.5432
  691SOL    HW2 2763   2.378   0.309   0.849 -2.4924  1.1816  2.2225
  691SOL     MW 2764   2.456   0.259   0.831 -0.7679  0.2128  0.0589
  692SOL     OW 2765   2.802   1.703   1.400  0.3453  0.1777  0.6096
  692SOL    HW1 2766   2.774   1.661   1.479  3.2794  0.6208 -0.9231
  692SOL    HW2 2767   2.845   1.782   1.419 -3.0235 -3.2640  1.4623
  692SOL     MW 2768   2.804   1.708   1.413  0.2879 -0.2180  0.5199
  693SOL     OW 2769   2.281   0.458   0.092  0.5837  0.4070 -0.0140
  693SOL    HW1 2770   2.212   0.402   0.091  4.6022  2.6183 -0.3122
  693SOL    HW2 2771   2.258   0.537   0.039 -1.7489  0.8135 -0.0197
  693SOL     MW 2772   2.269   0.461   0.085  0.8061  0.7524 -0.0541
  694SOL     OW 2773   1.966   1.256   1.137 -0.1727 -0.5468 -0.6508
  694SOL    HW1 2774   2.048   1.207   1.144 -0.7471 -1.7636 -0.7974
  694SOL    HW2 2775   1.897   1.210   1.189 -1.7627  1.7706  1.0967
  694SOL     MW 2776   1.968   1.244   1.144 -0.4582 -0.4016 -0.4396
  695SOL     OW 2777   2.947   1.453   1.300 -0.0268 -0.1637  0.3745
  695SOL    HW1 2778   2.937   1.454   1.201 -0.2052 -2.2436 -1.8203
  695SOL    HW2 2779   2.927   1.544   1.325  0.2522  1.6315 -1.4812
  695SOL     MW 2780   2.943   1.465   1.290 -0.0135 -0.2012 -0.1599
  696SOL     OW 2781   2.075   1.394   0.907  0.5845 -0.0431  0.0465
  696SOL    HW1 2782   2.133   1.443   0.963  3.0822  1.9836 -2.7890
  696SOL    HW2 2783   2.047   1.329   0.972 -0.0734 -2.1268  2.3860
  696SOL     MW 2784   2.079   1.392   0.923  0.8273 -0.0506 -0.0189
  697SOL     OW 2785   2.870   1.000   2.264  0.3429  1.1235 -0.5790
  697SOL    HW1 2786   2.823   1.081   2.234  0.7071 -1.3518  0.3712
  697SOL    HW2 2787   2.864   0.932   2.194  1.9756  0.7688 -0.3344
  697SOL     MW 2788   2.863   1.001   2.251  0.6063  0.7501 -0.4214
  698SOL     OW 2789   2.531   0.342   0.030 -0.1462  0.1532 -0.2802
  698SOL    HW1 2790   2.452   0.381   0.059 -2.3773 -0.3955 -3.0147
  698SOL    HW2 2791   2.570   0.296   0.105  2.6508  0.3567  2.7489
  698SOL     MW 2792   2.526   0.341   0.043 -0.0716  0.1077 -0.2413
  699SOL     OW 2793   1.859   1.624   2.067  0.4723  0.0982 -0.1199
  699SOL    HW1 2794   1.831   1.531   2.074  1.2474  2.1193  0.5013
  699SOL    HW2 2795   1.955   1.623   2.046  0.1529  0.1566 -0.1584
  699SOL     MW 2796   1.868   1.612   2.065  0.5325  0.3726 -0.0430
  700SOL     OW 2797   2.721   0.908   1.551 -0.0166 -0.4356  0.2823
  700SOL    HW1 2798   2.741   0.968   1.481 -0.8653 -2.2854 -0.9281
  700SOL    HW2 2799   2.781   0.837   1.542 -0.7899  2.5701 -0.0373
  700SOL     MW 2800   2.731   0.907   1.541 -0.2306 -0.2831  0.0804
  701SOL     OW 2801   1.675   1.287   2.631 -0.1737 -0.1825  0.1175
  701SOL    HW1 2802   1.770   1.313   2.626  0.1447 -0.8266  0.3734
  701SOL    HW2 2803   1.626   1.355   2.677  2.2171 -0.2114 -1.4275
  701SOL     MW 2804   1.681   1.299   2.637  0.1838 -0.2713 -0.0526
  702SOL     OW 2805   2.253   0.436   0.810 -0.5952 -0.7329  0.2717
  702SOL    HW1 2806   2.209   0.373   0.746 -0.4443 -0.7541 -1.5774
  702SOL    HW2 2807   2.289   0.515   0.764  2.5566  0.5570  2.0704
  702SOL     MW 2808   2.252   0.438   0.796 -0.1594 -0.5655  0.2651
  703SOL     OW 2809   2.658   1.284   0.972  0.3423  0.5734  0.3272
  703SOL    HW1 2810   2.647   1.268   0.878 -1.2264 -3.7138  2.2886
  703SOL    HW2 2811   2.679   1.193   1.009  3.8969 -1.0494  1.1385
  703SOL     MW 2812   2.659   1.270   0.965  0.6043 -0.2064  0.6930
  704SOL     OW 2813   0.018   1.315   0.257 -0.4098  0.1266  0.0377
  704SOL    HW1 2814  -0.066   1.280   0.221 -1.7515  1.2253  3.8718
  704SOL    HW2 2815   0.095   1.258   0.238  3.9939  1.7399  0.9248
  704SOL     MW 2816   0.017   1.303   0.250 -0.0058  0.4844  0.6606
  705SOL     OW 2817   2.147   1.592   1.269 -0.2745  0.8570 -0.6370
  705SOL    HW1 2818   2.063   1.611   1.313 -2.8183  2.4837 -0.6012
  705SOL    HW2 2819   2.189   1.501   1.299  1.7615  0.8762 -0.3889
  705SOL     MW 2820   2.141   1.583   1.279 -0.3415  1.0742 -0.5996
  706SOL     OW 2821   3.007   1.242   0.594  0.1493  0.2495 -0.0259
  706SOL    HW1 2822   3.091   1.250   0.553 -0.1807 -1.9763  0.0257
  706SOL    HW2 2823   2.972   1.325   0.622  0.2726 -0.1784  0.5663
  706SOL     MW 2824   3.013   1.254   0.592  0.1220 -0.1006  0.0590
  707SOL     OW 2825   2.386   0.058   1.004 -0.2265  0.0122 -0.3968
  707SOL    HW1 2826   2.420   0.122   0.942 -0.2292 -0.1939 -0.1607
  707SOL    HW2 2827   2.298   0.093   1.008  1.5129 -0.0531 -0.2826
  707SOL     MW 2828   2.379   0.071   0.996  0.0027 -0.0236 -0.3506
  708SOL     OW 2829   2.536   1.560   0.086 -0.0649  0.9253  0.3730
  708SOL    HW1 2830   2.571   1.522   0.161  1.4510 -0.8933 -2.4014
  708SOL    HW2 2831   2.503   1.484   0.032 -0.6996  2.7361 -1.1204
  708SOL     MW 2832   2.536   1.545   0.089  0.0513  0.9242 -0.1901
  709SOL     OW 2833   1.683   1.790   0.089 -0.5095  0.1685 -0.2053
  709SOL    HW1 2834   1.644   1.852   0.034  1.4842 -2.6960  1.1622
  709SOL    HW2 2835   1.619   1.740   0.142 -2.2387 -1.1147 -1.9357
  709SOL     MW 2836   1.670   1.792   0.089 -0.4746 -0.3787 -0.2532
  710SOL     OW 2837   2.218   1.159   1.175 -0.8918 -0.4388 -0.0532
  710SOL    HW1 2838   2.240   1.133   1.080  0.9694  0.5262  0.6975
  710SOL    HW2 2839   2.227   1.070   1.222 -0.5701 -2.4077  0.4395
  710SOL     MW 2840   2.222   1.144   1.169 -0.6038 -0.5712  0.1108
  711SOL     OW 2841   2.345   0.161   1.682 -0.3608 -0.3045  0.3497
  711SOL    HW1 2842   2.433   0.124   1.706 -1.4040 -2.3056 -2.0599
  711SOL    HW2 2843   2.305   0.069   1.658 -2.3448 -2.3591  0.0527
  711SOL     MW 2844   2.352   0.144   1.682 -0.7602 -0.8396 -0.0074
  712SOL     OW 2845   1.632   0.595   3.042  0.3332  0.6745  0.2410
  712SOL    HW1 2846   1.693   0.652   2.995  0.4703 -1.6729  0.0783
  712SOL    HW2 2847   1.582   0.645   3.105  5.6752  1.0549 -0.6390
  712SOL     MW 2848   1.633   0.609   3.044  1.0561  0.4150  0.1034
  713SOL     OW 2849   2.585   0.819   1.143 -0.1814  0.5831 -0.3899
  713SOL    HW1 2850   2.613   0.728   1.160  0.7883 -0.4063  0.0823
  713SOL    HW2 2851   2.550   0.842   1.235  1.5490  0.9237  0.0425
  713SOL     MW 2852   2.584   0.810   1.157  0.1749  0.4975 -0.2706
  714SOL     OW 2853   2.248   0.141   1.974 -0.6463 -0.2715 -0.3192
  714SOL    HW1 2854   2.312   0.114   2.044 -0.5634  1.3944  0.9649
  714SOL    HW2 2855   2.289   0.155   1.889  2.0998  0.6175 -0.1287
  714SOL     MW 2856   2.262   0.139   1.972 -0.2731  0.0656 -0.1246
  715SOL     OW 2857   1.761   1.908   1.718 -0.5992  0.2234  0.3203
  715SOL    HW1 2858   1.837   1.855   1.681  1.4696 -0.4033 -2.4613
  715SOL    HW2 2859   1.711   1.845   1.777 -1.6494 -1.6360 -0.6403
  715SOL     MW 2860   1.765   1.892   1.721 -0.4648 -0.1046 -0.1735
  716SOL     OW 2861   2.368   0.638   0.679  0.8067 -0.3753  0.4188
  716SOL    HW1 2862   2.409   0.562   0.633  0.9067 -1.6366 -0.8453
  716SOL    HW2 2863   2.287   0.651   0.627  1.7446  1.8825  0.8943
  716SOL     MW 2864   2.363   0.630   0.666  0.9437 -0.2438  0.3148
  717SOL     OW 2865   2.830   1.456   2.949  0.2265  0.0936 -0.2129
  717SOL    HW1 2866   2.924   1.429   2.961  0.7491  1.3458 -0.5252
  717SOL    HW2 2867   2.816   1.529   3.019  1.5834  0.9691  0.6970
  717SOL     MW 2868   2.841   1.462   2.960  0.4745  0.3743 -0.1341
  718SOL     OW 2869   2.532   1.328   1.402  0.2512 -0.1981 -0.1098
  718SOL    HW1 2870   2.554   1.372   1.479 -0.7967 -1.9985 -2.0213
  718SOL    HW2 2871   2.612   1.275   1.382  0.1436  0.1468  0.4049
  718SOL     MW 2872   2.546   1.327   1.410  0.0987 -0.3901 -0.2941
  719SOL     OW 2873   2.156   1.369   0.648 -0.5352  0.2958 -0.0783
  719SOL    HW1 2874   2.254   1.391   0.644  2.5377 -4.0033  2.7394
  719SOL    HW2 2875   2.141   1.377   0.745  2.2079 -0.6588  0.5051
  719SOL     MW 2876   2.167   1.373   0.661  0.2322 -0.3974  0.3704
  720SOL     OW 2877   2.893   1.222   0.139  0.1295  0.1031 -0.0242
  720SOL    HW1 2878   2.852   1.136   0.155  0.6007 -0.5805  2.4313
  720SOL    HW2 2879   2.817   1.276   0.164 -2.2197  1.8855 -0.7814
  720SOL     MW 2880   2.877   1.218   0.145 -0.1183  0.2481  0.1999
  721SOL     OW 2881   2.504   0.803   1.411 -0.0267 -0.0743 -0.4569
  721SOL    HW1 2882   2.450   0.740   1.458  3.0598  3.8281  2.9705
  721SOL    HW2 2883   2.565   0.829   1.479 -3.6316  1.3777  0.3452
  721SOL     MW 2884   2.505   0.798   1.427 -0.0951  0.6321  0.1012
  722SOL     OW 2885   2.548   1.194   0.371  0.3693 -0.1738  0.1372
  722SOL    HW1 2886   2.501   1.228   0.441 -0.5413 -1.4149 -2.2544
  722SOL    HW2 2887   2.609   1.141   0.422 -1.9076 -1.3280 -0.1924
  722SOL     MW 2888   2.550   1.191   0.387 -0.0512 -0.4898 -0.2218
  723SOL     OW 2889   2.293   1.399   1.637 -0.3952 -0.2901 -0.0726
  723SOL    HW1 2890   2.263   1.372   1.549 -2.7891 -0.5898  0.2722
  723SOL    HW2 2891   2.230   1.465   1.660  0.2981 -1.6104 -0.4308
  723SOL     MW 2892   2.281   1.404   1.628 -0.6196 -0.5038 -0.0744
  724SOL     OW 2893   2.449   0.374   0.558 -0.1507 -0.4777  0.4651
  724SOL    HW1 2894   2.443   0.310   0.627  0.3195 -2.1586 -0.3236
  724SOL    HW2 2895   2.542   0.372   0.534 -0.1503  2.6346  2.3499
  724SOL     MW 2896   2.460   0.365   0.564 -0.0886 -0.2888  0.6097
  725SOL     OW 2897   2.602   0.533   1.142 -0.5672  0.0094  0.0031
  725SOL    HW1 2898   2.608   0.491   1.223 -1.6024 -1.6370  1.2592
  725SOL    HW2 2899   2.504   0.529   1.130 -0.2574 -0.0007 -1.3868
  725SOL     MW 2900   2.590   0.527   1.151 -0.6629 -0.2091 -0.0146
  726SOL     OW 2901   2.573   2.417   0.522  0.2169 -0.0128 -0.5561
  726SOL    HW1 2902   2.531   2.488   0.468 -1.7414  1.2328  0.7423
  726SOL    HW2 2903   2.533   2.424   0.605 -3.6777 -0.9588 -0.4395
  726SOL     MW 2904   2.562   2.427   0.526 -0.5554  0.0267 -0.3694
  727SOL     OW 2905   2.784   0.274   1.638  0.2601 -0.1181 -0.0048
  727SOL    HW1 2906   2.810   0.332   1.572  0.8978 -1.4502  1.4632
  727SOL    HW2 2907   2.697   0.307   1.666 -0.9665 -0.4445  0.4420
  727SOL     MW 2908   2.776   0.286   1.633  0.1824 -0.3370  0.2478
  728SOL     OW 2909   2.790   1.168   2.973 -0.0912  0.2362 -0.8437
  728SOL    HW1 2910   2.769   1.245   2.921 -1.4365  4.1509  1.2399
  728SOL    HW2 2911   2.814   1.206   3.057  0.6094 -1.2155  0.4266
  728SOL     MW 2912   2.790   1.183   2.977 -0.1763  0.5611 -0.4012
  729SOL     OW 2913   2.538   1.446   1.148 -0.0866 -0.1699  0.5126
  729SOL    HW1 2914   2.527   1.415   1.234 -0.1482  2.1380 -0.7874
  729SOL    HW2 2915   2.598   1.396   1.094  1.0945  2.2836  1.1890
  729SOL     MW 2916   2.544   1.435   1.152  0.0611  0.4583  0.4303
  730SOL     OW 2917   2.139   1.163   0.265 -0.0797 -0.6895  0.6978
  730SOL    HW1 2918   2.229   1.159   0.234  3.6128 -1.2765  1.7021
  730SOL    HW2 2919   2.110   1.254   0.269  0.0584 -0.9883  0.2423
  730SOL     MW 2920   2.147   1.175   0.262  0.4257 -0.8064  0.7702
  731SOL     OW 2921   2.832   1.842   2.917  0.0535  0.6207  0.0632
  731SOL    HW1 2922   2.745   1.890   2.924  0.5543  1.8307 -4.7228
  731SOL    HW2 2923   2.892   1.911   2.891 -0.8899  0.1333  1.6135
  731SOL     MW 2924   2.828   1.857   2.915 -0.0049  0.7160 -0.3637
  732SOL     OW 2925   2.269   0.929   1.317  0.2840 -0.3008 -0.7032
  732SOL    HW1 2926   2.230   0.939   1.403  2.0618  0.2131  1.2556
  732SOL    HW2 2927   2.362   0.925   1.341  4.5251  1.5958  0.2292
  732SOL     MW 2928   2.276   0.930   1.331  1.0781  0.0173 -0.3217
  733SOL     OW 2929   2.326   2.840   3.044  0.0520 -0.0915  0.4642
  733SOL    HW1 2930   2.268   2.897   2.994  1.2676  0.1482 -1.8587
  733SOL    HW2 2931   2.280   2.754   3.039  2.2873  0.5048 -3.5566
  733SOL     MW 2932   2.312   2.836   3.036  0.5073  0.0188 -0.3728
  734SOL     OW 2933   1.501   0.379   2.437 -0.1132  0.1347 -0.0572
  734SOL    HW1 2934   1.459   0.351   2.513  2.5937 -1.4678  0.2778
  734SOL    HW2 2935   1.523   0.296   2.391  2.4534  1.2975  0.4896
  734SOL     MW 2936   1.498   0.364   2.441  0.5826  0.0767  0.0591
  735SOL     OW 2937   3.096   0.907   2.662 -0.3113  0.7705 -0.4135
  735SOL    HW1 2938   3.027   0.850   2.629  0.2244  1.8757 -0.1673
  735SOL    HW2 2939   3.059   0.966   2.725  0.8904  0.6044 -0.5431
  735SOL     MW 2940   3.082   0.907   2.666 -0.0820  0.8944 -0.3981
  736SOL     OW 2941   0.051   0.594   2.489  0.1101 -0.1141 -0.2970
  736SOL    HW1 2942   0.108   0.631   2.417  1.8214  0.0466  0.5693
  736SOL    HW2 2943   0.024   0.502   2.468 -2.3847 -0.8823 -1.1337
  736SOL     MW 2944   0.055   0.587   2.477  0.0068 -0.1943 -0.2931
  737SOL     OW 2945   2.909   0.712   2.565  0.6147  0.3138  0.8666
  737SOL    HW1 2946   2.851   0.674   2.496 -0.0094  2.7459  0.3881
  737SOL    HW2 2947   2.993   0.677   2.534 -0.2882 -1.7227  2.5624
  737SOL     MW 2948   2.912   0.703   2.552  0.4132  0.3660  1.0272
  738SOL     OW 2949   0.176   0.463   1.987 -0.0730  0.6494 -0.0783
  738SOL    HW1 2950   0.260   0.472   1.946 -0.6277  0.2804  0.7886
  738SOL    HW2 2951   0.163   0.379   1.944  3.3364 -2.6543  1.0623
  738SOL     MW 2952   0.185   0.453   1.976  0.3037  0.1648  0.1866
  739SOL     OW 2953   2.537   0.984   2.151 -0.0779 -0.1292  0.1026
  739SOL    HW1 2954   2.448   0.946   2.136 -0.5358 -4.5947  0.3295
  739SOL    HW2 2955   2.567   1.033   2.075  1.1215  0.2156  2.4573
  739SOL     MW 2956   2.529   0.986   2.139  0.0199 -0.6729  0.4432
  740SOL     OW 2957   0.181   1.693   2.978 -0.4123  0.5437  0.0699
  740SOL    HW1 2958   0.122   1.616   2.980  1.5667 -0.9406  0.6998
  740SOL    HW2 2959   0.257   1.655   3.017 -0.2240  2.2067  0.2643
  740SOL     MW 2960   0.183   1.677   2.983 -0.1264  0.5673  0.1787
  741SOL     OW 2961   2.221   1.205   2.740  0.3152 -0.0613  0.2780
  741SOL    HW1 2962   2.227   1.300   2.707 -0.4279 -0.3990 -4.2880
  741SOL    HW2 2963   2.192   1.194   2.830  1.9028  0.2287  0.1835
  741SOL     MW 2964   2.218   1.216   2.748  0.4266 -0.0676 -0.3369
  742SOL     OW 2965   1.676   1.353   2.334 -0.0204 -0.0158 -0.6137
  742SOL    HW1 2966   1.616   1.285   2.303 -1.4969 -0.0426 -2.0727
  742SOL    HW2 2967   1.670   1.348   2.435 -1.3272 -1.0199  1.5535
  742SOL     MW 2968   1.667   1.344   2.343 -0.3876 -0.1518 -0.5202
  743SOL     OW 2969   2.486   1.214   2.700 -0.7889  0.0124 -0.1933
  743SOL    HW1 2970   2.390   1.227   2.734 -3.9488 -0.3522 -1.6716
  743SOL    HW2 2971   2.516   1.152   2.766  3.1188  1.4268 -0.4326
  743SOL     MW 2972   2.477   1.208   2.713 -0.6902  0.1509 -0.4199
  744SOL     OW 2973   2.759   0.908   1.820  0.1705 -0.3425  0.4345
  744SOL    HW1 2974   2.678   0.946   1.847 -0.3549 -2.8127  2.8762
  744SOL    HW2 2975   2.762   0.913   1.724 -0.7975  2.3473  0.3269
  744SOL     MW 2976   2.748   0.914   1.811 -0.0266 -0.3135  0.7425
  745SOL     OW 2977   1.758   0.473   2.488  0.1070  0.2821  0.4285
  745SOL    HW1 2978   1.746   0.474   2.391 -1.1609 -0.8467  1.2335
  745SOL    HW2 2979   1.689   0.421   2.531  2.3193 -2.7564 -1.2630
  745SOL     MW 2980   1.748   0.466   2.481  0.2316 -0.2677  0.3116
  746SOL     OW 2981   1.559   1.482   1.675 -0.4160 -0.6284 -0.1758
  746SOL    HW1 2982   1.592   1.566   1.704  0.8283 -0.1889  0.1437
  746SOL    HW2 2983   1.558   1.437   1.762 -1.4078  0.4142 -1.6066
  746SOL     MW 2984   1.563   1.487   1.690 -0.3827 -0.4328 -0.3224
  747SOL     OW 2985   2.583   1.107   1.903 -0.4541 -0.4233  0.7709
  747SOL    HW1 2986   2.513   1.102   1.845  3.4081  1.0145 -1.4244
  747SOL    HW2 2987   2.568   1.197   1.945 -3.0739 -1.1179  1.5119
  747SOL     MW 2988   2.572   1.119   1.901 -0.2902 -0.3252  0.5790
  748SOL     OW 2989   0.106   3.094   1.929 -0.4197 -0.4137 -0.2976
  748SOL    HW1 2990   0.194   3.128   1.904  0.4721  2.3736 -0.5612
  748SOL    HW2 2991   0.062   3.162   1.978  0.0367 -1.0263 -1.7783
  748SOL     MW 2992   0.112   3.108   1.932 -0.2418 -0.1268 -0.5277
  749SOL     OW 2993   2.386   0.638   2.789 -0.1863 -0.2417 -0.1856
  749SOL    HW1 2994   2.409   0.727   2.751  1.4052  1.8430  0.1291
  749SOL    HW2 2995   2.449   0.633   2.864  1.1149  0.0861  3.5281
  749SOL     MW 2996   2.397   0.649   2.794  0.1953  0.0766  0.3459
  750SOL     OW 2997   2.124   3.009   1.944 -0.2680 -0.3648  0.1523
  750SOL    HW1 2998   2.171   3.098   1.958 -0.3399  3.6862 -0.0363
  750SOL    HW2 2999   2.205   2.944   1.938  0.4928  1.4389 -2.4683
  750SOL     MW 3000   2.141   3.012   1.945 -0.1771  0.4076 -0.2184
  751SOL     OW 3001   3.066   0.344   2.422  0.5282 -0.2406 -0.3245
  751SOL    HW1 3002   2.993   0.353   2.359 -0.5446  1.3723 -1.3205
  751SOL    HW2 3003   3.143   0.314   2.378 -1.5242 -0.5276  0.7424
  751SOL     MW 3004   3.066   0.341   2.408  0.1159 -0.0657 -0.3152
  752SOL     OW 3005   2.131   0.923   2.760  0.4854 -0.5162  0.2435
  752SOL    HW1 3006   2.200   0.984   2.779 -0.6190 -0.7792  1.0580
  752SOL    HW2 3007   2.105   0.899   2.853  1.7515  1.1887  1.4749
  752SOL     MW 3008   2.137   0.928   2.775  0.5067 -0.3260  0.5135
  753SOL     OW 3009   2.830   0.374   2.280 -0.3830  0.3451  0.4734
  753SOL    HW1 3010   2.773   0.299   2.279 -1.0014 -1.1291 -1.2316
  753SOL    HW2 3011   2.778   0.449   2.306 -0.1309 -1.7734  0.1297
  753SOL     MW 3012   2.816   0.374   2.283 -0.4313 -0.1289  0.2031
  754SOL     OW 3013   2.300   2.957   2.631  0.2820  0.0095  0.3084
  754SOL    HW1 3014   2.326   2.953   2.537 -1.2906 -1.6202  1.5695
  754SOL    HW2 3015   2.361   2.908   2.688  0.0504 -0.2547  0.5932
  754SOL     MW 3016   2.312   2.950   2.626  0.0440 -0.2404  0.5124
  755SOL     OW 3017   2.791   1.593   2.454  0.1998 -0.3415 -0.1077
  755SOL    HW1 3018   2.737   1.515   2.463 -1.1426  2.3680  2.9496
  755SOL    HW2 3019   2.816   1.618   2.544 -0.9467  1.3912  1.5195
  755SOL     MW 3020   2.787   1.586   2.467 -0.1286  0.2446  0.5104
  756SOL     OW 3021   2.159   1.267   3.007 -0.3746 -0.3432 -0.4359
  756SOL    HW1 3022   2.221   1.348   3.008  0.4248 -0.3164  0.6405
  756SOL    HW2 3023   2.221   1.205   3.051  0.7189  1.3256 -0.1999
  756SOL     MW 3024   2.175   1.269   3.013 -0.1249 -0.1195 -0.2627
  757SOL     OW 3025   2.172   0.949   1.701 -0.2729  0.3113 -0.4422
  757SOL    HW1 3026   2.222   0.866   1.699  1.9555  2.1298  0.1506
  757SOL    HW2 3027   2.110   0.947   1.627 -1.8695 -0.8268 -2.9198
  757SOL     MW 3028   2.171   0.938   1.691 -0.1895  0.4011 -0.6909
  758SOL     OW 3029   2.247   1.853   2.628 -0.0426 -0.8648  0.5440
  758SOL    HW1 3030   2.247   1.873   2.539  0.0155  1.6144  1.9716
  758SOL    HW2 3031   2.326   1.797   2.648 -0.4170  0.2847  1.0397
  758SOL     MW 3032   2.258   1.848   2.619 -0.0844 -0.3860  0.7977
  759SOL     OW 3033   1.542   1.465   2.788  0.1597  0.4524  0.1327
  759SOL    HW1 3034   1.586   1.521   2.717 -0.1662  3.5652  0.6421
  759SOL    HW2 3035   1.608   1.471   2.861  2.4630  0.2558  2.3188
  759SOL     MW 3036   1.557   1.473   2.788  0.4206  0.8372  0.4883
  760SOL     OW 3037   2.608   1.978   2.722  0.5332 -0.4428 -0.3638
  760SOL    HW1 3038   2.548   1.908   2.701 -0.5693  0.6218 -0.2776
  760SOL    HW2 3039   2.691   1.959   2.676  1.4114 -0.8523 -3.5528
  760SOL     MW 3040   2.611   1.966   2.713  0.5036 -0.3564 -0.7731
  761SOL     OW 3041   2.199   0.448   2.470  0.3668 -0.2856 -0.0843
  761SOL    HW1 3042   2.113   0.403   2.465 -0.3377  1.1532  3.2114
  761SOL    HW2 3043   2.196   0.518   2.535  0.7792 -0.0163  1.1948
  761SOL     MW 3044   2.187   0.451   2.478  0.3283 -0.0602  0.5193
  762SOL     OW 3045   0.024   0.177   2.101  0.0257  0.1283 -0.5129
  762SOL    HW1 3046  -0.018   0.112   2.158  1.6142 -2.1411 -0.0383
  762SOL    HW2 3047  -0.052   0.230   2.074 -0.0922 -0.4071  0.2267
  762SOL     MW 3048   0.008   0.175   2.105  0.2197 -0.2418 -0.3527
  763SOL     OW 3049   2.456   1.165   2.318 -0.0363 -0.1334  0.5081
  763SOL    HW1 3050   2.487   1.108   2.244 -1.0475 -1.1464 -2.7604
  763SOL    HW2 3051   2.537   1.202   2.345 -0.0037  0.7140 -0.2468
  763SOL     MW 3052   2.470   1.162   2.312 -0.1654 -0.1552 -0.0227
  764SOL     OW 3053   0.393   0.160   2.796  0.3454  0.8907  0.0257
  764SOL    HW1 3054   0.300   0.173   2.786 -1.7417  1.6638  3.7101
  764SOL    HW2 3055   0.421   0.247   2.783  0.5673  0.3324 -0.4487
  764SOL     MW 3056   0.384   0.173   2.793  0.0993  0.9190  0.4492
  765SOL     OW 3057   2.689   0.117   2.295  0.2753  0.1665  0.0256
  765SOL    HW1 3058   2.660   0.091   2.208 -0.8356 -0.0483 -0.0396
  765SOL    HW2 3059   2.749   0.041   2.317  1.0892  0.7566  2.7198
  765SOL     MW 3060   2.693   0.104   2.287  0.2361  0.2160  0.3724
  766SOL     OW 3061   1.910   3.060   2.113 -0.5899 -0.1472 -0.6056
  766SOL    HW1 3062   1.986   3.031   2.059  1.3570 -0.4848  0.8015
  766SOL    HW2 3063   1.836   3.015   2.067 -3.0614 -1.5731 -0.9295
  766SOL     MW 3064   1.910   3.050   2.099 -0.6592 -0.3799 -0.4627
  767SOL     OW 3065   2.639   0.649   1.940  0.0593  0.3601 -0.7470
  767SOL    HW1 3066   2.706   0.715   1.963  2.1067 -0.1283  0.9346
  767SOL    HW2 3067   2.568   0.703   1.900  2.0598  0.9677 -0.7432
  767SOL     MW 3068   2.638   0.665   1.937  0.5934  0.3758 -0.5246
  768SOL     OW 3069  -0.001   1.475   2.987  0.2968 -0.2131  0.1281
  768SOL    HW1 3070   0.035   1.496   3.076 -0.6411 -4.3692 -1.1492
  768SOL    HW2 3071   0.044   1.390   2.962 -1.0617 -3.1263 -1.5835
  768SOL     MW 3072   0.009   1.467   2.995 -0.0061 -1.1458 -0.2663
  769SOL     OW 3073   2.330   0.680   2.376  0.3007  0.2644  0.2966
  769SOL    HW1 3074   2.324   0.591   2.410 -1.0860 -1.7230 -1.5187
  769SOL    HW2 3075   2.381   0.689   2.292  0.9223  1.7737 -0.9276
  769SOL     MW 3076   2.336   0.670   2.369  0.1998  0.2013 -0.1044
  770SOL     OW 3077   0.059   1.606   2.611  0.3990  0.5366  0.2915
  770SOL    HW1 3078  -0.034   1.626   2.619  1.5798 -1.5857  0.6288
  770SOL    HW2 3079   0.079   1.537   2.669  1.7143  0.4558 -1.8257
  770SOL     MW 3080   0.049   1.599   2.620  0.7284  0.2459  0.0567
  771SOL     OW 3081   3.023   0.604   1.942 -0.3394 -0.5610 -0.4646
  771SOL    HW1 3082   3.009   0.589   1.843 -1.8145 -0.3971 -0.9154
  771SOL    HW2 3083   3.109   0.574   1.959 -2.6378  3.6603  1.4768
  771SOL     MW 3084   3.033   0.598   1.931 -0.8373  0.0176 -0.2679
  772SOL     OW 3085   0.019   3.078   2.335 -0.3326 -0.2087 -0.2194
  772SOL    HW1 3086  -0.046   3.034   2.391 -0.1943 -4.0857  0.9095
  772SOL    HW2 3087   0.069   3.002   2.301 -3.3456 -0.7087  0.8302
  772SOL     MW 3088   0.017   3.062   2.338 -0.7119 -0.7862  0.0681
  773SOL     OW 3089   2.492   2.834   2.809 -0.0666 -0.7499  0.2055
  773SOL    HW1 3090   2.510   2.762   2.751  1.6775  1.0971 -0.8459
  773SOL    HW2 3091   2.460   2.799   2.898 -0.8219 -0.9084  2.4871
  773SOL     MW 3092   2.490   2.820   2.813  0.0638 -0.5271  0.3678
  774SOL     OW 3093   2.332   1.157   1.764 -0.0837  0.4800  0.6730
  774SOL    HW1 3094   2.308   1.244   1.726 -0.7857  1.1710 -0.0853
  774SOL    HW2 3095   2.274   1.086   1.717 -2.6969  3.3026 -0.6921
  774SOL     MW 3096   2.321   1.159   1.753 -0.5211  0.9436  0.3929
  775SOL     OW 3097   2.278   2.944   2.322 -0.5652  0.4551  0.2220
  775SOL    HW1 3098   2.287   3.037   2.295 -1.9158 -0.5323 -1.0964
  775SOL    HW2 3099   2.357   2.900   2.292 -2.1585  0.2203 -0.5334
  775SOL     MW 3100   2.289   2.951   2.315 -0.9536  0.2938 -0.0516
  776SOL     OW 3101   0.131   1.525   0.130  0.3023  0.4472 -0.1107
  776SOL    HW1 3102   0.215   1.491   0.097  0.0124  0.3561 -1.8192
  776SOL    HW2 3103   0.084   1.446   0.170  1.3464 -2.1509 -0.8362
  776SOL     MW 3104   0.136   1.510   0.131  0.4018  0.0924 -0.4318
  777SOL     OW 3105   2.979   1.104   1.744  0.2070 -0.0498  0.0269
  777SOL    HW1 3106   2.949   1.156   1.667 -1.3777  1.6184 -2.6501
  777SOL    HW2 3107   2.905   1.073   1.797  0.1155  1.8120 -0.9385
  777SOL     MW 3108   2.965   1.106   1.741 -0.0141  0.4160 -0.4537
  778SOL     OW 3109   2.861   0.447   2.765 -0.3273 -0.4363  0.0953
  778SOL    HW1 3110   2.786   0.457   2.828 -0.1307 -1.5982 -0.3101
  778SOL    HW2 3111   2.853   0.527   2.712  0.9168  2.3925  3.6944
  778SOL     MW 3112   2.850   0.459   2.767 -0.1372 -0.2164  0.5167
  779SOL     OW 3113   2.271   0.472   2.114  0.1098  1.1742  0.2458
  779SOL    HW1 3114   2.234   0.522   2.187 -0.7808 -0.1576 -1.8253
  779SOL    HW2 3115   2.236   0.380   2.107  0.5006 -0.3873 -2.2963
  779SOL     MW 3116   2.261   0.467   2.122  0.0439  0.7925 -0.3628
  780SOL     OW 3117   0.153   0.239   2.692 -0.5558  0.2539 -0.4725
  780SOL    HW1 3118   0.064   0.236   2.704  1.8188 -0.5945 -0.4920
  780SOL    HW2 3119   0.176   0.320   2.656  2.5527 -1.1556 -0.5539
  780SOL     MW 3120   0.144   0.249   2.689  0.1676 -0.0440 -0.4858
  781SOL     OW 3121   3.050   1.323   2.492 -0.1744 -0.0227 -0.0036
  781SOL    HW1 3122   3.018   1.401   2.448 -0.9708 -3.0209 -1.4720
  781SOL    HW2 3123   3.093   1.275   2.418 -0.1733 -0.6116 -1.0792
  781SOL     MW 3124   3.052   1.327   2.477 -0.2793 -0.4960 -0.3393
  782SOL     OW 3125   0.645   1.495   0.090 -0.5336  0.1325 -0.7785
  782SOL    HW1 3126   0.562   1.527   0.066  2.9664  0.5846  0.8505
  782SOL    HW2 3127   0.648   1.541   0.172 -1.0778  2.1201 -0.9169
  782SOL     MW 3128   0.634   1.506   0.098 -0.1436  0.4544 -0.5818
  783SOL     OW 3129   2.690   0.583   2.400 -1.0515  0.6208 -0.1380
  783SOL    HW1 3130   2.634   0.623   2.328  0.1515  3.9285 -1.4101
  783SOL    HW2 3131   2.633   0.556   2.479 -0.1617  0.6131  1.0196
  783SOL     MW 3132   2.675   0.585   2.401 -0.7754  1.0562 -0.1531
  784SOL     OW 3133   0.192   0.857   2.876  0.1244 -0.0780  0.5034
  784SOL    HW1 3134   0.101   0.882   2.887  3.0191 -0.3803  0.9830
  784SOL    HW2 3135   0.209   0.867   2.784 -1.2895 -0.2482 -1.5034
  784SOL     MW 3136   0.182   0.862   2.865  0.3197 -0.1404  0.3019
  785SOL     OW 3137   0.464   0.422   2.181  0.3596  0.0998  0.0770
  785SOL    HW1 3138   0.461   0.461   2.091 -1.1996  1.3962  1.9758
  785SOL    HW2 3139   0.369   0.410   2.206  0.7014 -3.5434  0.5359
  785SOL     MW 3140   0.451   0.426   2.173  0.1990 -0.2098  0.3881
  786SOL     OW 3141   1.901   0.424   3.049  0.1261 -0.1002 -1.0105
  786SOL    HW1 3142   1.814   0.470   3.070 -1.4110 -0.0311 -0.2373
  786SOL    HW2 3143   1.915   0.438   2.955  0.7454  0.5290 -0.0500
  786SOL     MW 3144   1.891   0.432   3.039  0.0050 -0.0081 -0.7818
  787SOL     OW 3145   2.465   0.139   2.922  0.0637 -0.6726  0.5534
  787SOL    HW1 3146   2.541   0.094   2.895  3.5153  0.4264 -1.5608
  787SOL    HW2 3147   2.495   0.216   2.971 -0.3093  1.5992 -0.5149
  787SOL     MW 3148   2.479   0.143   2.925  0.4699 -0.2279  0.1335
  788SOL     OW 3149   2.831   3.024   2.412 -0.0708  0.6054 -0.2345
  788SOL    HW1 3150   2.845   3.005   2.503  0.0359 -0.9876 -0.1199
  788SOL    HW2 3151   2.844   2.942   2.362 -0.2203 -0.6476 -0.2975
  788SOL     MW 3152   2.835   3.010   2.418 -0.0764  0.2299 -0.2277
  789SOL     OW 3153   0.088   0.200   3.061  0.0370 -0.0921 -0.3936
  789SOL    HW1 3154   0.011   0.141   3.066  1.0623 -3.1791  1.9815
  789SOL    HW2 3155   0.049   0.261   3.002 -3.5883 -0.2398  1.1289
  789SOL     MW 3156   0.073   0.200   3.054 -0.3061 -0.5189  0.1207
  790SOL     OW 3157   3.105   1.056   2.396 -0.1171  0.2618 -0.3387
  790SOL    HW1 3158   3.079   1.035   2.489 -1.3387 -1.0380  1.1885
  790SOL    HW2 3159   3.025   1.023   2.343 -2.1469 -0.7144 -0.9797
  790SOL     MW 3160   3.091   1.049   2.401 -0.5461 -0.0385 -0.2218
  791SOL     OW 3161   2.535   0.482   2.596  0.5075  0.0072 -0.2975
  791SOL    HW1 3162   2.478   0.530   2.654 -1.5995 -1.3690  1.8283
  791SOL    HW2 3163   2.527   0.390   2.620 -3.9326 -1.5750  0.1841
  791SOL     MW 3164   2.527   0.476   2.607 -0.3563 -0.3832  0.0465
  792SOL     OW 3165   2.347   0.241   2.435 -0.1447 -0.1816 -0.0583
  792SOL    HW1 3166   2.308   0.326   2.435  1.9386  0.1825  1.0260
  792SOL    HW2 3167   2.321   0.200   2.517 -0.9119 -1.2006 -0.8134
  792SOL     MW 3168   2.338   0.247   2.446  0.0290 -0.2680 -0.0148
  793SOL     OW 3169   1.834   1.091   2.010  0.8680  0.0598 -0.2219
  793SOL    HW1 3170   1.798   1.065   1.929 -0.3128 -1.1575 -0.5445
  793SOL    HW2 3171   1.925   1.064   1.988  3.3172 -1.4461 -0.5043
  793SOL     MW 3172   1.841   1.084   1.996  1.0354 -0.2995 -0.3018
  794SOL     OW 3173   1.361   2.335   0.135 -0.1691  0.4936  0.1411
  794SOL    HW1 3174   1.389   2.418   0.106 -1.1388  3.8143  1.1473
  794SOL    HW2 3175   1.409   2.315   0.219 -3.3535 -1.0587  2.6675
  794SOL     MW 3176   1.371   2.344   0.142 -0.7172  0.7269  0.6072
  795SOL     OW 3177   2.317   1.043   2.531  0.0879 -0.2235 -0.3404
  795SOL    HW1 3178   2.262   1.101   2.582  1.7827 -1.7346  1.3353
  795SOL    HW2 3179   2.382   1.094   2.477  1.6850  0.0080 -2.4198
  795SOL     MW 3180   2.318   1.058   2.530  0.5223 -0.3923 -0.3937
  796SOL     OW 3181   0.246   0.623   2.686  0.4956  0.2042  0.8617
  796SOL    HW1 3182   0.193   0.682   2.738  0.3874 -1.2178  0.3469
  796SOL    HW2 3183   0.187   0.596   2.617  1.5477  1.7763 -0.9481
  796SOL     MW 3184   0.231   0.627   2.684  0.6201  0.2240  0.5550
  797SOL     OW 3185   2.595   0.163   2.578 -0.1425  0.0356 -0.1555
  797SOL    HW1 3186   2.519   0.177   2.516 -6.6002 -0.2143 -1.0226
  797SOL    HW2 3187   2.673   0.144   2.526 -0.6037 -2.2467  0.5445
  797SOL     MW 3188   2.595   0.163   2.563 -1.0554 -0.2985 -0.1776
  798SOL     OW 3189   2.378   0.068   2.202 -0.4177  1.0389 -0.2088
  798SOL    HW1 3190   2.392   0.144   2.261  1.3338 -1.6306 -1.1193
  798SOL    HW2 3191   2.456   0.031   2.160 -0.0601 -2.0601  3.0371
  798SOL     MW 3192   2.390   0.073   2.205 -0.1394  0.2778  0.0994
  799SOL     OW 3193   2.565   2.987   0.140  0.0463  0.0014  0.2549
  799SOL    HW1 3194   2.480   2.964   0.093 -1.8712 -0.7558  1.9865
  799SOL    HW2 3195   2.531   2.978   0.230 -1.0724  0.9863  1.8472
  799SOL     MW 3196   2.549   2.982   0.145 -0.3543  0.0314  0.6935
  800SOL     OW 3197   1.943   3.085   1.758 -0.0779  0.6755 -0.6663
  800SOL    HW1 3198   1.875   3.019   1.755  1.2140  0.1817 -0.7286
  800SOL    HW2 3199   2.007   3.064   1.833 -2.5771  3.0621 -0.2544
  800SOL     MW 3200   1.943   3.073   1.767 -0.2372  0.9253 -0.6201
  801SOL     OW 3201   2.804   1.227   2.598 -0.7141 -0.0931 -0.4283
  801SOL    HW1 3202   2.785   1.134   2.581  1.9669  1.4189 -0.9578
  801SOL    HW2 3203   2.898   1.238   2.575  1.1588 -1.2919  0.3062
  801SOL     MW 3204   2.814   1.216   2.592 -0.1132 -0.0518 -0.4013
  802SOL     OW 3205   2.594   1.474   2.781  0.0075 -0.2030  0.2734
  802SOL    HW1 3206   2.583   1.391   2.741  1.6243  2.8682 -0.9017
  802SOL    HW2 3207   2.679   1.459   2.824 -3.7051 -0.3217  0.2724
  802SOL     MW 3208   2.604   1.461   2.781 -0.2690  0.1866  0.1182
  803SOL     OW 3209   2.279   1.375   2.043  0.0128  0.0182  0.0421
  803SOL    HW1 3210   2.254   1.367   2.136 -0.1615 -1.3541 -0.8090
  803SOL    HW2 3211   2.265   1.291   2.004  0.6398  0.3336  0.4688
  803SOL     MW 3212   2.274   1.363   2.050  0.0725 -0.1213 -0.0139
  804SOL     OW 3213   2.297   0.054   0.049  0.0588 -0.1166  0.1250
  804SOL    HW1 3214   2.234   0.126   0.053  0.4643 -0.7341 -0.1364
  804SOL    HW2 3215   2.372   0.079  -0.007 -1.0025  0.5918  1.1881
  804SOL     MW 3216   2.298   0.067   0.042 -0.0277 -0.1046  0.2308
  805SOL     OW 3217   2.739   0.928   2.636 -0.2634  0.7635 -0.0010
  805SOL    HW1 3218   2.672   0.876   2.596  0.6760  3.0794  0.7346
  805SOL    HW2 3219   2.818   0.875   2.620  1.8340  1.1913 -1.4269
  805SOL     MW 3220   2.740   0.914   2.629  0.1373  1.1255 -0.0921
  806SOL     OW 3221   2.549   0.682   2.189 -0.7722  0.1117  0.7650
  806SOL    HW1 3222   2.582   0.666   2.100 -0.7965 -0.2026  1.4344
  806SOL    HW2 3223   2.542   0.778   2.179 -2.7975 -0.9412 -2.1533
  806SOL     MW 3224   2.552   0.692   2.176 -1.0426 -0.0687  0.4683
  807SOL     OW 3225   0.090   1.067   2.048 -0.1515  0.4403  0.0093
  807SOL    HW1 3226   0.159   1.005   2.058 -2.6296 -2.0535 -2.3532
  807SOL    HW2 3227   0.022   1.029   2.094  3.2058  0.9525  0.0429
  807SOL     MW 3228   0.090   1.054   2.056 -0.0355  0.1789 -0.2980
  808SOL     OW 3229   2.654   3.079   2.799 -0.7985  0.0110 -0.4722
  808SOL    HW1 3230   2.587   3.021   2.830  0.4226  1.6764  1.4375
  808SOL    HW2 3231   2.610   3.126   2.725 -0.1040 -2.6578 -1.0192
  808SOL     MW 3232   2.639   3.077   2.793 -0.5458 -0.1214 -0.2924
  809SOL     OW 3233   2.662   1.337   2.408 -1.1656 -0.2726  0.3165
  809SOL    HW1 3234   2.718   1.287   2.476 -0.8211 -3.5085 -0.4841
  809SOL    HW2 3235   2.701   1.309   2.320  0.9529  0.5328  1.9307
  809SOL     MW 3236   2.674   1.327   2.406 -0.8406 -0.5933  0.4239
  810SOL     OW 3237   2.246   1.326   2.299  0.2004 -0.2794  0.0265
  810SOL    HW1 3238   2.320   1.263   2.291 -1.9528 -0.0691  3.4264
  810SOL    HW2 3239   2.181   1.283   2.350 -0.7060  0.2398 -0.4381
  810SOL     MW 3240   2.247   1.312   2.305 -0.2033 -0.1831  0.4138
  811SOL     OW 3241   1.560   0.145   2.313 -0.4350 -0.3621  0.0092
  811SOL    HW1 3242   1.655   0.138   2.321 -0.1414  0.5022 -0.7135
  811SOL    HW2 3243   1.542   0.124   2.224 -2.4114 -0.6674 -0.5981
  811SOL     MW 3244   1.570   0.141   2.303 -0.6570 -0.2884 -0.1663
  812SOL     OW 3245   1.483   2.818   2.026 -0.0019  0.0185 -0.5409
  812SOL    HW1 3246   1.576   2.850   2.021  0.7782 -2.9754 -0.1321
  812SOL    HW2 3247   1.467   2.810   2.121  0.9986 -0.0072  0.5259
  812SOL     MW 3248   1.493   2.821   2.038  0.2331 -0.3799 -0.3462
  813SOL     OW 3249   1.999   0.609   2.240 -0.2639  0.3386 -0.2327
  813SOL    HW1 3250   1.918   0.561   2.237 -3.8879 -0.4674  1.4457
  813SOL    HW2 3251   1.975   0.693   2.273  0.2893 -2.8252 -0.3622
  813SOL     MW 3252   1.985   0.614   2.244 -0.6691 -0.1852 -0.0283
  814SOL     OW 3253   2.723   1.217   1.645  0.4410  0.2556 -0.1131
  814SOL    HW1 3254   2.681   1.219   1.729  2.1326  2.2656 -2.7854
  814SOL    HW2 3255   2.674   1.149   1.598 -0.1546 -0.3037  0.1186
  814SOL     MW 3256   2.711   1.209   1.650  0.5856  0.4470 -0.4351
  815SOL     OW 3257   2.565   1.775   2.392  0.6372  0.5249 -0.3480
  815SOL    HW1 3258   2.520   1.705   2.350 -1.0990 -1.9204 -1.5498
  815SOL    HW2 3259   2.647   1.748   2.428  1.2835 -0.1533  0.5410
  815SOL     MW 3260   2.570   1.762   2.391  0.4934  0.1128 -0.3892
  816SOL     OW 3261   0.746   0.702   2.745 -0.5342  0.0319 -0.9666
  816SOL    HW1 3262   0.768   0.617   2.775  3.1119  2.7439  0.5270
  816SOL    HW2 3263   0.646   0.708   2.729  3.4039 -1.3309 -0.4317
  816SOL     MW 3264   0.736   0.692   2.747  0.4665  0.2099 -0.6989
  817SOL     OW 3265   2.988   1.235   1.468 -0.1950 -0.3214  0.2443
  817SOL    HW1 3266   3.076   1.205   1.477  0.7945 -0.6226 -0.5360
  817SOL    HW2 3267   2.989   1.327   1.425 -0.6895 -0.6045 -1.0970
  817SOL     MW 3268   3.000   1.243   1.463 -0.1297 -0.3985 -0.0356
  818SOL     OW 3269   1.933   1.040   2.631  0.0426  0.6126  0.2080
  818SOL    HW1 3270   1.935   0.993   2.541 -1.5099 -2.0793 -2.2325
  818SOL    HW2 3271   2.010   1.003   2.679 -2.3217  1.1444  2.6702
  818SOL     MW 3272   1.943   1.029   2.625 -0.4742  0.3276  0.2109
  819SOL     OW 3273   1.981   0.300   2.504  0.2468 -0.5410  0.5728
  819SOL    HW1 3274   1.897   0.353   2.502 -1.4457 -0.0669 -1.4266
  819SOL    HW2 3275   2.020   0.299   2.594  1.5778 -1.3288  0.7844
  819SOL     MW 3276   1.975   0.307   2.515  0.1991 -0.5824  0.3369
  820SOL     OW 3277   2.451   1.693   2.664  0.2331  0.4040  0.6753
  820SOL    HW1 3278   2.507   1.635   2.719  1.2321  2.7258  1.9112
  820SOL    HW2 3279   2.484   1.689   2.574  0.1098  1.6091  1.0906
  820SOL     MW 3280   2.463   1.685   2.659  0.3487  0.8693  0.8931
  821SOL     OW 3281   2.545   1.355   1.986 -0.5252 -0.2365 -0.0580
  821SOL    HW1 3282   2.576   1.426   1.921 -3.0741 -0.1938  3.2211
  821SOL    HW2 3283   2.449   1.367   2.000 -2.0197  2.9037  1.1544
  821SOL     MW 3284   2.536   1.366   1.979 -1.0587  0.1835  0.5346
  822SOL     OW 3285   2.866   2.698   1.464 -0.5031 -0.8364 -0.4936
  822SOL    HW1 3286   2.899   2.671   1.552 -1.2972 -0.4567  3.0205
  822SOL    HW2 3287   2.919   2.773   1.439 -1.9408 -2.5659 -0.3799
  822SOL     MW 3288   2.877   2.704   1.472 -0.7976 -1.0145 -0.0149
  823SOL     OW 3289   2.392   0.509   1.831  0.5033 -0.4157 -0.1421
  823SOL    HW1 3290   2.454   0.442   1.784  3.6185 -1.2822  1.2830
  823SOL    HW2 3291   2.402   0.485   1.927 -1.2730 -2.9101  1.4624
  823SOL     MW 3292   2.402   0.497   1.837  0.6799 -0.8591  0.2576
  824SOL     OW 3293   2.255   1.451   2.650 -0.5460  0.2823 -0.4955
  824SOL    HW1 3294   2.337   1.477   2.610 -0.1085 -1.5348 -2.0175
  824SOL    HW2 3295   2.200   1.526   2.642  0.5982 -0.5527  0.8502
  824SOL     MW 3296   2.258   1.464   2.644 -0.3373 -0.0676 -0.5187
  825SOL     OW 3297   1.898   2.561   0.256  0.1669  0.2981 -0.1970
  825SOL    HW1 3298   1.846   2.486   0.300  0.4314 -0.8958 -0.2313
  825SOL    HW2 3299   1.978   2.525   0.221 -0.0471  0.9250  3.1244
  825SOL     MW 3300   1.902   2.546   0.257  0.1735  0.2233  0.2367
  826SOL     OW 3301   1.799   2.376   0.462  0.5078  0.0746  0.3261
  826SOL    HW1 3302   1.762   2.300   0.509  0.9372 -2.4827 -1.2884
  826SOL    HW2 3303   1.782   2.449   0.515  2.3987  0.3908  0.3938
  826SOL     MW 3304   1.792   2.376   0.475  0.8139 -0.2211  0.1220
  827SOL     OW 3305   1.884   2.184   0.798  0.4396  0.1622 -0.0364
  827SOL    HW1 3306   1.840   2.180   0.715 -1.1169 -0.8489  1.7125
  827SOL    HW2 3307   1.819   2.145   0.851 -1.1026 -1.0308 -2.1427
  827SOL     MW 3308   1.870   2.178   0.794  0.0308 -0.1286 -0.0835
  828SOL     OW 3309   0.027   2.614   0.576  0.2646 -0.1251 -0.3243
  828SOL    HW1 3310   0.118   2.612   0.547 -1.0377  1.2402 -0.1078
  828SOL    HW2 3311  -0.011   2.652   0.497  0.1101  0.2618  1.0042
  828SOL     MW 3312   0.034   2.618   0.562  0.0724  0.1061 -0.1204
  829SOL     OW 3313   2.997   2.929   1.209 -0.1606  0.2352  0.1676
  829SOL    HW1 3314   2.941   2.946   1.133 -0.8855 -2.7714  0.1308
  829SOL    HW2 3315   3.060   2.859   1.183 -0.5580  2.1459 -1.0984
  829SOL     MW 3316   2.998   2.922   1.195 -0.3087  0.0906 -0.0043
  830SOL     OW 3317   2.582   2.828   2.026 -0.1619  0.6437 -0.2378
  830SOL    HW1 3318   2.490   2.838   1.989  2.8951  2.5349  1.5922
  830SOL    HW2 3319   2.639   2.801   1.951 -2.6303 -3.3900  0.2263
  830SOL     MW 3320   2.578   2.825   2.011 -0.0843  0.3610  0.0648
  831SOL     OW 3321   2.339   2.461   1.161  0.0412  0.1385  0.0296
  831SOL    HW1 3322   2.301   2.423   1.243  0.8451  0.9215 -0.9572
  831SOL    HW2 3323   2.434   2.439   1.163 -0.2887  0.5344  0.4956
  831SOL     MW 3324   2.347   2.453   1.172  0.1037  0.2941 -0.0391
  832SOL     OW 3325   2.358   2.192   1.867 -0.0809  0.3322  0.0652
  832SOL    HW1 3326   2.389   2.268   1.917 -0.5769  0.4944  2.2257
  832SOL    HW2 3327   2.437   2.135   1.850  1.2343  0.3523 -0.4116
  832SOL     MW 3328   2.373   2.194   1.871  0.0272  0.3562  0.2873
  833SOL     OW 3329   1.731   2.457   0.872 -0.3001  0.3610  0.1943
  833SOL    HW1 3330   1.653   2.404   0.892  0.1497 -0.2351  1.2543
  833SOL    HW2 3331   1.732   2.534   0.929  1.7499 -4.2171 -2.3051
  833SOL     MW 3332   1.721   2.460   0.882  0.0297 -0.3217  0.0044
  834SOL     OW 3333   2.050   2.441   0.582 -0.5168  0.0478 -0.4044
  834SOL    HW1 3334   1.969   2.421   0.542  1.6801 -0.8198 -1.3630
  834SOL    HW2 3335   2.109   2.392   0.525  0.3117  0.5081 -1.1712
  834SOL     MW 3336   2.047   2.432   0.569 -0.1177 -0.0060 -0.6321
  835SOL     OW 3337   1.773   2.601   0.618  0.7108  0.8746 -0.0662
  835SOL    HW1 3338   1.754   2.555   0.702 -0.4925 -1.6773  1.8609
  835SOL    HW2 3339   1.852   2.645   0.659 -0.2154 -0.7145  1.2814
  835SOL     MW 3340   1.781   2.601   0.635  0.4299  0.3282  0.3658
  836SOL     OW 3341   1.917   2.184   1.590  0.4241  0.4670  0.1571
  836SOL    HW1 3342   1.997   2.233   1.620  3.1560 -1.3351  1.1559
  836SOL    HW2 3343   1.842   2.247   1.604  1.0188  0.9704  2.6737
  836SOL     MW 3344   1.917   2.199   1.596  0.8630  0.2956  0.6209
  837SOL     OW 3345   2.146   0.234   0.680  0.4447 -0.2024  0.1015
  837SOL    HW1 3346   2.052   0.245   0.653  0.6478 -0.7623 -0.9182
  837SOL    HW2 3347   2.177   0.158   0.627 -2.0324 -1.2636 -1.4138
  837SOL     MW 3348   2.138   0.226   0.669  0.1447 -0.4163 -0.2329
  838SOL     OW 3349   2.929   2.038   0.934  0.2431  0.0280 -0.2299
  838SOL    HW1 3350   2.852   1.988   0.963  0.0510  0.6591  0.0344
  838SOL    HW2 3351   2.991   1.967   0.920  2.1879 -0.8002 -0.0516
  838SOL     MW 3352   2.927   2.022   0.936  0.4744  0.0020 -0.1715
  839SOL     OW 3353   1.509   2.309   1.040 -0.3618 -0.3521 -0.2230
  839SOL    HW1 3354   1.512   2.389   1.096 -1.4177 -0.8478 -0.5661
  839SOL    HW2 3355   1.528   2.234   1.099 -0.4992  1.7067 -3.2814
  839SOL     MW 3356   1.512   2.310   1.055 -0.5193 -0.1459 -0.6718
  840SOL     OW 3357   2.358   2.162   2.473 -0.0224  0.0952  0.0630
  840SOL    HW1 3358   2.287   2.214   2.435  0.4230  0.4516  0.5412
  840SOL    HW2 3359   2.362   2.214   2.549 -0.9131  1.4654 -3.8982
  840SOL     MW 3360   2.349   2.176   2.478 -0.0812  0.3230 -0.3965
  841SOL     OW 3361   2.132   2.448   0.129  0.6463 -0.4028 -0.1706
  841SOL    HW1 3362   2.165   2.520   0.075  1.7554  1.1475  2.1339
  841SOL    HW2 3363   2.106   2.377   0.068 -0.1845 -1.4194 -2.3501
  841SOL     MW 3364   2.133   2.448   0.114  0.6830 -0.3323 -0.1541
  842SOL     OW 3365   2.644   2.090   1.529 -0.5695 -0.0426 -0.0287
  842SOL    HW1 3366   2.587   2.049   1.596 -1.3533 -0.2399 -0.1967
  842SOL    HW2 3367   2.593   2.069   1.448 -1.4142 -1.5558  2.3155
  842SOL     MW 3368   2.630   2.082   1.527 -0.7843 -0.2683  0.2584
  843SOL     OW 3369   2.702   2.801   1.759  0.4922  0.3518 -0.3003
  843SOL    HW1 3370   2.794   2.761   1.735  0.6648 -1.1514  0.2903
  843SOL    HW2 3371   2.636   2.732   1.736  2.9952  0.7531  2.2504
  843SOL     MW 3372   2.705   2.786   1.753  0.8452  0.2064  0.1142
  844SOL     OW 3373   2.605   2.361   1.163 -0.5286 -0.4899 -0.3163
  844SOL    HW1 3374   2.647   2.356   1.076  0.7038 -1.5529  1.8564
  844SOL    HW2 3375   2.670   2.403   1.226  1.4747  0.9894 -1.6136
  844SOL     MW 3376   2.619   2.366   1.160 -0.1017 -0.4350 -0.2008
  845SOL     OW 3377   2.830   2.497   0.302 -0.0691 -0.1951  0.1316
  845SOL    HW1 3378   2.790   2.414   0.317 -0.5454  1.0991  1.2969
  845SOL    HW2 3379   2.841   2.544   0.385  1.4307 -0.2156 -3.7583
  845SOL     MW 3380   2.826   2.492   0.315  0.0659 -0.0270 -0.2279
  846SOL     OW 3381   1.543   2.844   0.817 -0.5403 -0.1564  0.2361
  846SOL    HW1 3382   1.605   2.877   0.881 -1.0683  0.4271  0.1462
  846SOL    HW2 3383   1.458   2.878   0.847 -3.4036  0.6271 -0.6614
  846SOL     MW 3384   1.540   2.853   0.830 -0.9878  0.0240  0.1059
  847SOL     OW 3385   2.617   1.902   0.197  0.1741  0.2352  0.1783
  847SOL    HW1 3386   2.698   1.864   0.219 -0.2678 -1.7342 -0.4151
  847SOL    HW2 3387   2.595   1.876   0.112  0.6975 -1.5324 -0.4737
  847SOL     MW 3388   2.625   1.894   0.188  0.1849 -0.2578  0.0140
  848SOL     OW 3389   2.492   2.141   1.299 -0.5579  0.2637  0.4024
  848SOL    HW1 3390   2.565   2.200   1.258  0.2985  2.5447 -1.7799
  848SOL    HW2 3391   2.468   2.077   1.237  2.5595  0.7527 -0.4726
  848SOL     MW 3392   2.499   2.140   1.286 -0.0336  0.6291 -0.0010
  849SOL     OW 3393   1.986   2.750   0.802 -0.1983  0.2811 -0.2366
  849SOL    HW1 3394   2.001   2.686   0.870 -1.5826  2.5213  1.5337
  849SOL    HW2 3395   2.058   2.732   0.742  1.4675  0.3648 -2.6017
  849SOL     MW 3396   1.998   2.739   0.803 -0.1612  0.5877 -0.3151
  850SOL     OW 3397   2.187   1.972   1.685 -0.1016  0.1261  0.3548
  850SOL    HW1 3398   2.105   1.937   1.643 -0.6197 -0.4993 -3.1466
  850SOL    HW2 3399   2.165   2.066   1.694  0.3926 -1.2257 -1.5886
  850SOL     MW 3400   2.174   1.980   1.681 -0.1047 -0.1348 -0.3636
  851SOL     OW 3401   2.219   2.367   0.363  0.4184  0.1884  0.3135
  851SOL    HW1 3402   2.177   2.402   0.290 -1.8167 -3.4541 -0.6304
  851SOL    HW2 3403   2.299   2.420   0.352  0.0070  1.4648  0.1175
  851SOL     MW 3404   2.224   2.379   0.352  0.0692 -0.1238  0.1631
  852SOL     OW 3405   2.273   2.148   0.160  0.0128  0.4248 -0.1767
  852SOL    HW1 3406   2.250   2.217   0.218 -0.4247 -0.5258  0.1021
  852SOL    HW2 3407   2.367   2.165   0.136 -0.5900 -0.6444 -1.7600
  852SOL     MW 3408   2.283   2.159   0.164 -0.1245  0.1583 -0.3488
  853SOL     OW 3409   2.455   2.447   1.976  0.3001  0.0035  0.0464
  853SOL    HW1 3410   2.459   2.502   1.899 -0.0235 -0.8273  1.0591
  853SOL    HW2 3411   2.546   2.437   2.019 -1.0835 -1.0241 -1.0489
  853SOL     MW 3412   2.467   2.453   1.971  0.0748 -0.2417  0.0355
  854SOL     OW 3413   2.889   2.239   0.744 -0.2015  0.3272  0.2044
  854SOL    HW1 3414   2.804   2.228   0.703  1.6206 -0.8520 -1.0602
  854SOL    HW2 3415   2.895   2.163   0.806 -0.5169  0.7728  0.9593
  854SOL     MW 3416   2.879   2.227   0.747 -0.0027  0.2304  0.1371
  855SOL     OW 3417   2.688   2.245   0.313 -0.3702 -0.6480  0.2190
  855SOL    HW1 3418   2.648   2.261   0.395  0.2684  0.3985  3.1362
  855SOL    HW2 3419   2.778   2.206   0.325 -0.6798  0.2259 -1.7695
  855SOL     MW 3420   2.695   2.242   0.325 -0.3268 -0.3946  0.3416
  856SOL     OW 3421   2.169   1.894   0.221  0.3329  0.5088  0.7885
  856SOL    HW1 3422   2.074   1.899   0.228  0.0847  0.5297 -0.3745
  856SOL    HW2 3423   2.206   1.983   0.229 -0.0829  2.8180  0.4016
  856SOL     MW 3424   2.162   1.906   0.223  0.2453  0.8163  0.5840
  857SOL     OW 3425   2.538   1.911   0.470  0.0918  0.3654 -0.0878
  857SOL    HW1 3426   2.532   1.933   0.382 -0.3042  2.3676  3.6317
  857SOL    HW2 3427   2.455   1.866   0.500 -0.8584 -2.2593  2.9367
  857SOL     MW 3428   2.526   1.908   0.462 -0.0858  0.2832  0.8020
  858SOL     OW 3429   2.911   2.629   1.717 -0.2762  0.1608 -0.2871
  858SOL    HW1 3430   2.995   2.662   1.756  0.5500 -0.9762 -1.7820
  858SOL    HW2 3431   2.882   2.558   1.771 -0.7089  2.4111 -3.1834
  858SOL     MW 3432   2.918   2.624   1.729 -0.2243  0.3077 -0.8665
  859SOL     OW 3433   2.087   2.485   0.841  0.3048  0.4727 -0.3274
  859SOL    HW1 3434   2.066   2.463   0.751 -0.5102  0.1270 -2.1508
  859SOL    HW2 3435   2.143   2.410   0.872  3.8104  1.1108 -1.4733
  859SOL     MW 3436   2.091   2.473   0.834  0.6598  0.5113 -0.7192
  860SOL     OW 3437   2.653   2.608   0.141 -0.2067 -0.7949  0.3981
  860SOL    HW1 3438   2.725   2.570   0.203  0.8479  1.5023 -1.4105
  860SOL    HW2 3439   2.687   2.691   0.113 -1.8282 -2.8517 -0.4257
  860SOL     MW 3440   2.667   2.614   0.145 -0.2815 -0.7632  0.0508
  861SOL     OW 3441   1.595   2.105   1.196  0.1816  0.7460  0.0156
  861SOL    HW1 3442   1.659   2.136   1.259  1.8185  1.7333  1.6021
  861SOL    HW2 3443   1.534   2.044   1.246 -0.6117  0.7598  2.2734
  861SOL     MW 3444   1.595   2.101   1.211  0.2929  0.8781  0.5228
  862SOL     OW 3445   2.399   1.855   1.529  0.0530  0.6506 -0.3501
  862SOL    HW1 3446   2.330   1.873   1.591  0.4360 -2.1430  0.7976
  862SOL    HW2 3447   2.371   1.852   1.435  4.2261 -0.0040  0.3825
  862SOL     MW 3448   2.386   1.857   1.525  0.6542  0.1956 -0.1020
  863SOL     OW 3449   3.055   1.789   1.202  0.0175 -0.1076  0.3896
  863SOL    HW1 3450   3.134   1.790   1.147  0.7917 -0.9512 -0.1626
  863SOL    HW2 3451   3.033   1.872   1.232  0.6315 -1.6406 -1.6400
  863SOL     MW 3452   3.063   1.800   1.199  0.2006 -0.4212  0.0490
  864SOL     OW 3453   0.031   1.831   0.838  0.3749  0.1145 -0.5925
  864SOL    HW1 3454  -0.037   1.771   0.868 -1.5357  2.2048  0.7716
  864SOL    HW2 3455   0.020   1.831   0.737  1.5817 -0.4893 -2.3339
  864SOL     MW 3456   0.021   1.823   0.828  0.2820  0.3107 -0.6423
  865SOL     OW 3457   2.538   2.177   0.060 -0.1277  0.0343  0.4620
  865SOL    HW1 3458   2.569   2.110   0.122  2.2237  1.4426 -5.1999
  865SOL    HW2 3459   2.502   2.140  -0.021 -1.7255 -1.2981 -0.0698
  865SOL     MW 3460   2.537   2.163   0.058 -0.0283  0.0443 -0.3552
  866SOL     OW 3461   2.653   2.351   1.612 -0.4105 -0.3579  0.3050
  866SOL    HW1 3462   2.657   2.254   1.611 -1.5504 -0.8577  2.4544
  866SOL    HW2 3463   2.679   2.384   1.527 -1.6944  2.4879  1.6382
  866SOL     MW 3464   2.657   2.343   1.601 -0.7303 -0.0484  0.7645
  867SOL     OW 3465   0.031   2.750   1.826 -0.5201  0.1747 -0.0645
  867SOL    HW1 3466   0.095   2.769   1.888 -0.5272  0.0786 -3.1658
  867SOL    HW2 3467   0.035   2.820   1.764 -1.5624  1.0604 -1.4447
  867SOL     MW 3468   0.040   2.761   1.826 -0.6585  0.2789 -0.6558
  868SOL     OW 3469   2.800   2.586   0.559 -0.1853  0.2574 -0.1127
  868SOL    HW1 3470   2.722   2.529   0.562 -1.2876  0.7139  0.1946
  868SOL    HW2 3471   2.772   2.676   0.531  1.7099  0.9348 -1.0385
  868SOL     MW 3472   2.786   2.590   0.556 -0.0807  0.4070 -0.1943
  869SOL     OW 3473   1.943   2.337   1.050  0.1124 -0.1062 -0.4803
  869SOL    HW1 3474   1.988   2.408   1.003 -0.2024 -0.8285  0.1779
  869SOL    HW2 3475   1.897   2.292   0.972 -0.7885  1.9483  2.3352
  869SOL     MW 3476   1.943   2.340   1.033 -0.0480  0.0696 -0.0220
  870SOL     OW 3477   2.219   0.020   0.519 -0.2828 -0.1417 -0.2094
  870SOL    HW1 3478   2.268   0.045   0.445 -2.8398 -0.4716  1.6571
  870SOL    HW2 3479   2.264  -0.057   0.547 -0.3294  1.2644  0.2576
  870SOL     MW 3480   2.231   0.013   0.513 -0.6263  0.0003  0.0985
  871SOL     OW 3481   2.476   1.976   0.917  0.1639 -0.2675  0.2950
  871SOL    HW1 3482   2.436   1.964   0.833 -0.4706  0.7552  0.7313
  871SOL    HW2 3483   2.452   2.063   0.951 -0.8605  0.1609  0.4394
  871SOL     MW 3484   2.468   1.986   0.910 -0.0550 -0.0760  0.3716
  872SOL     OW 3485   2.009   2.511   1.384  0.3368  0.0935  0.6988
  872SOL    HW1 3486   1.964   2.549   1.452  0.9431  1.9394 -3.6562
  872SOL    HW2 3487   1.956   2.443   1.344 -0.2115 -0.1553  2.1215
  872SOL     MW 3488   1.996   2.507   1.388  0.3445  0.3042  0.3119
  873SOL     OW 3489   2.830   2.061   1.940  0.1032 -0.1973  0.0660
  873SOL    HW1 3490   2.846   2.125   2.004 -1.6433  0.0089  0.1072
  873SOL    HW2 3491   2.908   2.068   1.877  0.6951  3.1211  0.9702
  873SOL     MW 3492   2.842   2.070   1.940 -0.0491  0.2677  0.1908
  874SOL     OW 3493   2.427   1.510   2.387  0.0890 -0.2095  0.3630
  874SOL    HW1 3494   2.353   1.450   2.358 -0.6332 -2.6524 -0.1543
  874SOL    HW2 3495   2.504   1.448   2.384  0.6337 -2.8881 -0.5916
  874SOL     MW 3496   2.428   1.494   2.383  0.0656 -0.8853  0.1688
  875SOL     OW 3497   2.325   2.282   0.956  0.2205 -0.1528  0.4262
  875SOL    HW1 3498   2.371   2.335   0.890 -2.5608 -0.0567 -0.3953
  875SOL    HW2 3499   2.310   2.342   1.029 -1.1818  3.0689  0.0528
  875SOL     MW 3500   2.329   2.297   0.957 -0.3315  0.2850  0.2686
  876SOL     OW 3501   3.041   2.322   1.290  0.4316  0.0950 -0.8185
  876SOL    HW1 3502   3.113   2.335   1.221 -1.0492  1.5822  1.2001
  876SOL    HW2 3503   3.093   2.370   1.357  1.6380 -2.1546 -1.6209
  876SOL     MW 3504   3.057   2.330   1.290  0.3954 -0.0056 -0.6580
  877SOL     OW 3505   3.019   2.722   0.352  0.6160 -0.3944  0.3246
  877SOL    HW1 3506   3.024   2.806   0.308 -1.1511 -0.1728  0.6835
  877SOL    HW2 3507   3.010   2.658   0.283 -2.1927  1.0178  0.9009
  877SOL     MW 3508   3.019   2.724   0.337  0.0123 -0.1789  0.4480
  878SOL     OW 3509   2.297   1.828   1.245 -0.0023 -0.1606 -0.7691
  878SOL    HW1 3510   2.248   1.751   1.283 -0.8556  2.0867 -2.1946
  878SOL    HW2 3511   2.379   1.787   1.215 -1.0054  0.8467  0.3062
  878SOL     MW 3512   2.302   1.812   1.246 -0.2472  0.2688 -0.8153
  879SOL     OW 3513   2.740   2.429   0.902 -0.5265  0.0288  0.6098
  879SOL    HW1 3514   2.783   2.509   0.938 -3.3313 -1.9426 -0.6666
  879SOL    HW2 3515   2.806   2.374   0.861  0.7537 -0.5187 -2.2316
  879SOL     MW 3516   2.754   2.432   0.901 -0.7277 -0.3035  0.0665
  880SOL     OW 3517   2.615   2.145   0.677 -0.0652  1.2436  0.5026
  880SOL    HW1 3518   2.606   2.101   0.761 -0.1101  0.2075 -2.5983
  880SOL    HW2 3519   2.580   2.076   0.614  0.6697  0.3279 -2.1459
  880SOL     MW 3520   2.609   2.130   0.680  0.0259  0.9861 -0.2560
  881SOL     OW 3521   2.948   2.688   0.746  0.5408  0.1682  0.1253
  881SOL    HW1 3522   2.887   2.641   0.690 -2.1172  2.2352  1.5077
  881SOL    HW2 3523   3.037   2.685   0.704  0.2985 -1.1307 -2.4237
  881SOL     MW 3524   2.952   2.682   0.733  0.1581  0.2695 -0.0286
  882SOL     OW 3525   2.311   2.838   1.945  0.2175 -0.1883  0.7314
  882SOL    HW1 3526   2.298   2.837   1.849  0.3508  0.9344 -0.2314
  882SOL    HW2 3527   2.253   2.763   1.967 -0.3512  0.5972  0.6045
  882SOL     MW 3528   2.302   2.828   1.935  0.1601  0.0635  0.5877
  883SOL     OW 3529   2.272   2.280   1.393  0.1613  0.5260  0.6678
  883SOL    HW1 3530   2.351   2.224   1.367  2.6456 -0.1862  1.0541
  883SOL    HW2 3531   2.199   2.223   1.362 -1.3061 -1.0611 -0.6228
  883SOL     MW 3532   2.273   2.265   1.386  0.2955  0.2226  0.5485
  884SOL     OW 3533   1.875   1.880   1.131  0.1984 -0.2407  0.1564
  884SOL    HW1 3534   1.804   1.911   1.072  0.1951  2.9100 -0.8269
  884SOL    HW2 3535   1.956   1.907   1.096 -1.9514  0.7367  1.5790
  884SOL     MW 3536   1.876   1.887   1.119 -0.0857  0.3040  0.2143
  885SOL     OW 3537   2.806   2.410   1.852  0.0452 -0.0621  0.0664
  885SOL    HW1 3538   2.885   2.355   1.860  2.7448 -1.1385  2.2322
  885SOL    HW2 3539   2.758   2.374   1.777 -0.1661  0.6507 -3.0297
  885SOL     MW 3540   2.810   2.398   1.843  0.3735 -0.1101 -0.0563
  886SOL     OW 3541   2.784   2.455   1.338 -0.2723  0.1057 -0.0936
  886SOL    HW1 3542   2.857   2.393   1.327  0.4601  0.9285  0.1349
  886SOL    HW2 3543   2.817   2.537   1.371 -2.4561 -1.6217  1.9610
  886SOL     MW 3544   2.798   2.458   1.341 -0.4638 -0.0137  0.2077
  887SOL     OW 3545   2.298   2.616   1.492 -0.0569  0.0846 -0.0710
  887SOL    HW1 3546   2.329   2.663   1.410 -1.3265  1.6898  1.1568
  887SOL    HW2 3547   2.210   2.589   1.465  0.7615  2.2579 -1.0267
  887SOL     MW 3548   2.291   2.618   1.477 -0.1164  0.5831 -0.0351
  888SOL     OW 3549   1.826   2.098   1.348  0.7027  0.0967  0.4956
  888SOL    HW1 3550   1.902   2.072   1.291 -0.4691  0.8896 -1.0526
  888SOL    HW2 3551   1.858   2.114   1.438 -0.2645  0.5557  2.1681
  888SOL     MW 3552   1.840   2.096   1.352  0.4205  0.2619  0.5120
  889SOL     OW 3553   2.357   2.007   2.085 -0.3261 -0.3621 -0.1111
  889SOL    HW1 3554   2.441   2.033   2.124  0.8492  0.6454 -3.9378
  889SOL    HW2 3555   2.331   2.082   2.026  1.6297  0.4800 -2.3645
  889SOL     MW 3556   2.365   2.020   2.083  0.0870 -0.1181 -0.9133
  890SOL     OW 3557   0.091   2.282   0.121 -0.0970 -0.1688  0.4357
  890SOL    HW1 3558   0.061   2.372   0.134 -1.2379 -1.1166  1.3853
  890SOL    HW2 3559   0.087   2.244   0.211 -0.6990  1.1247 -0.7568
  890SOL     MW 3560   0.087   2.289   0.135 -0.3269 -0.1232  0.4036
  891SOL     OW 3561   3.039   2.049   1.276  0.0506 -0.5583 -0.1363
  891SOL    HW1 3562   3.111   2.046   1.341  2.0734  1.5875  1.9052
  891SOL    HW2 3563   3.031   2.141   1.257 -3.7176 -0.4649 -0.7473
  891SOL     MW 3564   3.048   2.061   1.282 -0.1797 -0.2628  0.0524
  892SOL     OW 3565   2.352   2.421   2.962 -0.3508  0.1017 -0.5595
  892SOL    HW1 3566   2.392   2.384   3.040  0.7006 -0.6099  1.3530
  892SOL    HW2 3567   2.432   2.424   2.905  1.6290 -1.6557 -0.6070
  892SOL     MW 3568   2.368   2.416   2.965  0.0492 -0.2240 -0.3134
  893SOL     OW 3569   1.584   2.507   1.235 -0.2099 -0.2610  0.2183
  893SOL    HW1 3570   1.512   2.492   1.308 -1.9562 -0.8100  2.3277
  893SOL    HW2 3571   1.652   2.446   1.273  0.0221 -1.2788 -1.4806
  893SOL     MW 3572   1.584   2.497   1.249 -0.4097 -0.4678  0.2724
  894SOL     OW 3573   2.837   1.919   0.476 -0.1156 -0.1098 -0.4521
  894SOL    HW1 3574   2.761   1.907   0.530  3.1201  1.8157 -1.6062
  894SOL    HW2 3575   2.819   1.864   0.393  0.2452  0.5523 -0.3437
  894SOL     MW 3576   2.825   1.910   0.472  0.3589  0.2316 -0.5901
  895SOL     OW 3577   2.095   2.160   1.235  0.0016 -0.0046  1.0088
  895SOL    HW1 3578   2.051   2.221   1.174 -1.2788  1.2119  0.4684
  895SOL    HW2 3579   2.116   2.095   1.167  1.3658  1.1568  0.8877
  895SOL     MW 3580   2.092   2.159   1.218  0.0127  0.3091  0.9215
  896SOL     OW 3581   2.179   2.821   1.104 -0.3975  0.1351  0.5483
  896SOL    HW1 3582   2.257   2.805   1.156 -1.7783 -0.1855 -0.3249
  896SOL    HW2 3583   2.108   2.763   1.140 -1.4878 -2.6451 -0.0021
  896SOL     MW 3584   2.180   2.812   1.115 -0.7236 -0.2740  0.3605
  897SOL     OW 3585   2.986   2.970   0.193  0.3557 -0.2755 -0.0600
  897SOL    HW1 3586   3.061   2.960   0.133  1.9560 -0.9934  1.7378
  897SOL    HW2 3587   2.910   2.928   0.160 -0.3628  1.1748 -3.6951
  897SOL     MW 3588   2.986   2.963   0.181  0.4721 -0.1789 -0.3024
  898SOL     OW 3589   2.092   0.203   1.456 -0.2563 -0.2329 -0.1585
  898SOL    HW1 3590   2.027   0.142   1.414  0.1822  1.4337 -1.5224
  898SOL    HW2 3591   2.134   0.255   1.387 -0.1422  0.1293 -0.6202
  898SOL     MW 3592   2.089   0.202   1.441 -0.1834  0.0347 -0.3993
  899SOL     OW 3593   2.877   2.944   0.694 -0.0124 -0.0811 -0.1859
  899SOL    HW1 3594   2.909   2.865   0.738  0.6105  0.0877 -0.0097
  899SOL    HW2 3595   2.785   2.968   0.724  0.4096  0.4293  0.4788
  899SOL     MW 3596   2.869   2.937   0.704  0.1255  0.0085 -0.0750
  900SOL     OW 3597   0.131   2.351   1.106 -0.2420 -0.1716  0.2216
  900SOL    HW1 3598   0.081   2.421   1.067  0.9365 -1.2339 -1.1988
  900SOL    HW2 3599   0.145   2.300   1.024  1.9116  0.7675 -1.0618
  900SOL     MW 3600   0.126   2.353   1.090  0.1976 -0.1878 -0.1351
  901SOL     OW 3601   1.774   2.886   1.711  0.5417  0.7440 -0.1232
  901SOL    HW1 3602   1.825   2.821   1.661  0.5554  1.3673  0.5200
  901SOL    HW2 3603   1.702   2.901   1.645 -1.8653  2.2916 -0.5365
  901SOL     MW 3604   1.771   2.879   1.696  0.2260  1.0305 -0.0929
  902SOL     OW 3605   2.577   2.022   1.851  0.0069  0.7009  0.1856
  902SOL    HW1 3606   2.570   1.929   1.882  1.4388 -0.5138 -1.1379
  902SOL    HW2 3607   2.669   2.028   1.880 -2.7942 -2.1362 -0.3173
  902SOL     MW 3608   2.588   2.011   1.859 -0.1738  0.1663 -0.0554
  903SOL     OW 3609   1.592   2.780   0.541 -0.9143 -0.1958 -0.5522
  903SOL    HW1 3610   1.639   2.699   0.563  1.4953  2.6855  3.9291
  903SOL    HW2 3611   1.569   2.829   0.625 -0.1447 -0.9364 -0.8981
  903SOL     MW 3612   1.595   2.776   0.555 -0.4949  0.0866 -0.0065
  904SOL     OW 3613   2.482   2.569   1.722 -0.0075 -0.3916  0.4857
  904SOL    HW1 3614   2.415   2.586   1.656 -0.9660  0.9407  0.0837
  904SOL    HW2 3615   2.551   2.516   1.682 -1.1802  1.7447  2.1108
  904SOL     MW 3616   2.482   2.564   1.708 -0.2887  0.0660  0.6471
  905SOL     OW 3617   2.314   2.565   2.189 -0.3153 -0.5861 -0.0841
  905SOL    HW1 3618   2.358   2.530   2.111 -0.8310  1.6226 -1.6714
  905SOL    HW2 3619   2.280   2.481   2.237 -1.9981 -1.1700  1.2182
  905SOL     MW 3620   2.315   2.550   2.185 -0.6054 -0.3717 -0.1217
  906SOL     OW 3621   2.473   2.465   0.760 -0.9249  0.1657  0.4233
  906SOL    HW1 3622   2.561   2.434   0.787 -0.2310  1.6397  1.0012
  906SOL    HW2 3623   2.475   2.554   0.799 -1.6393 -0.8799  0.4768
  906SOL     MW 3624   2.485   2.473   0.768 -0.9276  0.2222  0.5066
  907SOL     OW 3625   2.635   2.928   1.249 -0.2614  0.6433  0.2729
  907SOL    HW1 3626   2.697   2.904   1.316  0.7536  0.8976  0.5440
  907SOL    HW2 3627   2.685   2.944   1.168  1.8915 -0.2438 -1.4834
  907SOL     MW 3628   2.650   2.927   1.247  0.1565  0.5598  0.0769
  908SOL     OW 3629   2.721   2.383   0.015  0.1739 -0.5340 -0.5032
  908SOL    HW1 3630   2.664   2.316   0.057 -0.3626 -2.9247  3.6190
  908SOL    HW2 3631   2.690   2.462   0.056  0.9207  3.4576 -0.3126
  908SOL     MW 3632   2.709   2.385   0.026  0.2016 -0.3228  0.0658
  909SOL     OW 3633   1.596   0.178   1.046 -0.4622 -0.6965  0.4663
  909SOL    HW1 3634   1.674   0.220   1.017 -0.5558  0.2352  1.2844
  909SOL    HW2 3635   1.585   0.217   1.134 -0.3745 -0.2610  1.7319
  909SOL     MW 3636   1.604   0.188   1.053 -0.4630 -0.5161  0.7412
  910SOL     OW 3637   2.308   1.780   0.420  0.2644  0.0211 -0.2117
  910SOL    HW1 3638   2.253   1.699   0.435  0.2289 -0.8918 -0.2541
  910SOL    HW2 3639   2.266   1.819   0.346  1.2263  1.5241  2.3037
  910SOL     MW 3640   2.295   1.774   0.412  0.3867  0.0989  0.1146
  911SOL     OW 3641   2.174   2.299   1.664  0.4111 -0.2083 -0.1212
  911SOL    HW1 3642   2.243   2.255   1.722  2.3344 -1.1331  2.0580
  911SOL    HW2 3643   2.215   2.290   1.575  1.8549 -1.3594  0.0332
  911SOL     MW 3644   2.189   2.292   1.660  0.8553 -0.4822  0.1867
  912SOL     OW 3645   2.898   1.952   1.513 -0.0576  0.7187  0.1624
  912SOL    HW1 3646   2.928   2.000   1.437 -4.0822  0.3288 -0.2011
  912SOL    HW2 3647   2.812   1.990   1.517 -1.5512  1.2073 -1.3795
  912SOL     MW 3648   2.890   1.963   1.503 -0.7857  0.7317 -0.0890
  913SOL     OW 3649   2.532   2.945   0.417 -0.4841  0.2230 -0.1389
  913SOL    HW1 3650   2.607   2.898   0.456  1.2789 -0.1415 -0.9311
  913SOL    HW2 3651   2.463   2.875   0.415 -2.1646  0.8688 -0.5253
  913SOL     MW 3652   2.533   2.930   0.422 -0.4732  0.2601 -0.2944
  914SOL     OW 3653   2.778   1.656   0.030  0.0880 -0.0691  0.3607
  914SOL    HW1 3654   2.770   1.715  -0.050 -4.0823 -0.7702  1.5524
  914SOL    HW2 3655   2.690   1.635   0.053  1.4618  2.5319 -1.5058
  914SOL     MW 3656   2.765   1.661   0.023 -0.2810  0.1816  0.2717
  915SOL     OW 3657   1.837   0.184   0.243 -0.1035  0.3507  0.4518
  915SOL    HW1 3658   1.877   0.101   0.269 -2.8640 -2.2997 -0.3494
  915SOL    HW2 3659   1.740   0.166   0.255 -1.4424 -0.8896 -0.8339
  915SOL     MW 3660   1.829   0.170   0.248 -0.6444 -0.1626  0.1764
  916SOL     OW 3661   1.801   2.084   1.975 -0.4166  0.0329 -0.2865
  916SOL    HW1 3662   1.778   2.175   1.953 -0.3093 -0.9320  0.1933
  916SOL    HW2 3663   1.805   2.036   1.892 -1.7748 -2.7867 -0.7481
  916SOL     MW 3664   1.798   2.089   1.961 -0.5817 -0.4664 -0.2841
  917SOL     OW 3665   2.348   2.336   2.696  1.0759 -0.7114  0.2931
  917SOL    HW1 3666   2.328   2.298   2.781 -1.7863  0.1760  0.8403
  917SOL    HW2 3667   2.309   2.421   2.696  1.2011 -0.1740  0.4771
  917SOL     MW 3668   2.340   2.342   2.707  0.7148 -0.5234  0.3895
  918SOL     OW 3669   2.060   1.663   2.671 -0.5814  0.0356 -0.0802
  918SOL    HW1 3670   1.977   1.678   2.620 -0.3226 -0.3444  0.1503
  918SOL    HW2 3671   2.131   1.728   2.646 -1.1442 -0.8655  4.1879
  918SOL     MW 3672   2.059   1.674   2.661 -0.6215 -0.1334  0.5133
  919SOL     OW 3673   0.002   2.371   2.268  0.0396 -0.6367  0.1161
  919SOL    HW1 3674  -0.086   2.333   2.232  1.3310  1.4090  2.2725
  919SOL    HW2 3675   0.061   2.363   2.195  0.9677  1.0732  0.9127
  919SOL     MW 3676  -0.002   2.365   2.253  0.3324 -0.1412  0.5057
  920SOL     OW 3677   2.762   2.839   0.027 -0.0144  0.3294 -0.3906
  920SOL    HW1 3678   2.688   2.902   0.037  0.5489 -0.9907  0.6760
  920SOL    HW2 3679   2.733   2.786  -0.049  3.2665  0.1099  0.2147
  920SOL     MW 3680   2.748   2.840   0.018  0.4928  0.1263 -0.1700
  921SOL     OW 3681   2.494   2.625   2.657 -0.1512  0.1970 -0.5461
  921SOL    HW1 3682   2.562   2.630   2.590 -2.5287 -0.6964 -0.1294
  921SOL    HW2 3683   2.531   2.571   2.724  1.5221 -0.6747  3.3497
  921SOL     MW 3684   2.508   2.618   2.657 -0.2442 -0.0359  0.0229
  922SOL     OW 3685   2.040   2.798   0.279 -0.2110 -0.9946  0.3851
  922SOL    HW1 3686   2.021   2.832   0.185 -0.9933 -0.5088  0.5352
  922SOL    HW2 3687   1.990   2.713   0.271 -1.6936  3.0483 -0.4341
  922SOL     MW 3688   2.031   2.791   0.265 -0.5098 -0.3971  0.2968
  923SOL     OW 3689   2.218   2.820   1.665  0.3212 -0.1669  0.4888
  923SOL    HW1 3690   2.275   2.775   1.600 -0.8201 -2.0144  2.1025
  923SOL    HW2 3691   2.207   2.916   1.640  1.2006 -0.9522 -0.2188
  923SOL     MW 3692   2.224   2.827   1.653  0.2866 -0.5143  0.6083
  924SOL     OW 3693   1.175   2.777   2.532  0.2830 -0.2567  0.5783
  924SOL    HW1 3694   1.188   2.839   2.457  0.5320 -1.1185 -0.6051
  924SOL    HW2 3695   1.256   2.727   2.560 -1.1266 -0.7131  1.0547
  924SOL     MW 3696   1.188   2.778   2.526  0.1299 -0.4307  0.4851
  925SOL     OW 3697   2.941   0.200   2.641  0.0317  0.5865 -0.7671
  925SOL    HW1 3698   2.975   0.252   2.572 -3.6048 -1.2532 -0.2833
  925SOL    HW2 3699   2.913   0.267   2.710  0.4157 -1.8771 -0.6162
  925SOL     MW 3700   2.942   0.215   2.641 -0.3974  0.0187 -0.6833
  926SOL     OW 3701   2.698   2.398   2.091  0.3543 -0.1798 -0.4392
  926SOL    HW1 3702   2.755   2.454   2.146  0.3811 -1.9573  0.3557
  926SOL    HW2 3703   2.753   2.404   2.009  1.2584  2.6157  0.8852
  926SOL     MW 3704   2.713   2.406   2.087  0.4771 -0.0455 -0.1596
  927SOL     OW 3705   2.361   0.138   0.306 -0.1264 -0.1546  0.0072
  927SOL    HW1 3706   2.453   0.162   0.311  2.7036 -1.3473 -1.4592
  927SOL    HW2 3707   2.350   0.094   0.216 -1.7065 -1.3515 -0.6224
  927SOL     MW 3708   2.372   0.135   0.294  0.0385 -0.4699 -0.2694
  928SOL     OW 3709   1.996   2.499   1.784  0.1504 -0.1068  0.3167
  928SOL    HW1 3710   2.031   2.425   1.731 -1.6057  0.2867  0.3062
  928SOL    HW2 3711   2.060   2.525   1.855  0.6260  1.0244  1.0497
  928SOL     MW 3712   2.009   2.492   1.787 -0.0185  0.0944  0.4120
  929SOL     OW 3713   2.756   2.373   2.467 -0.2053  0.4695 -0.2424
  929SOL    HW1 3714   2.801   2.323   2.397  0.6512 -0.1753 -2.7216
  929SOL    HW2 3715   2.763   2.322   2.547 -1.0943  2.0279  2.6343
  929SOL     MW 3716   2.763   2.359   2.469 -0.2096  0.5900 -0.1900
  930SOL     OW 3717   2.028   2.908   2.680  0.1893  0.1253  0.5184
  930SOL    HW1 3718   2.027   2.825   2.729 -1.7495  0.4935  1.2187
  930SOL    HW2 3719   2.124   2.929   2.679 -1.5333 -0.9961 -0.7607
  930SOL     MW 3720   2.040   2.900   2.687 -0.2938  0.0259  0.4420
  931SOL     OW 3721   2.945   2.803   2.238  0.1110  0.0121  0.3163
  931SOL    HW1 3722   3.022   2.754   2.257 -1.0585 -3.1347 -0.2463
  931SOL    HW2 3723   2.961   2.813   2.142  0.4330  0.4424  0.0230
  931SOL     MW 3724   2.957   2.798   2.227 -0.0008 -0.3463  0.2034
  932SOL     OW 3725   2.815   1.931   2.562 -0.4431 -0.0449  0.3171
  932SOL    HW1 3726   2.905   1.929   2.593 -0.7153  1.4879 -0.3003
  932SOL    HW2 3727   2.833   1.943   2.471  1.5811  0.5628 -1.4228
  932SOL     MW 3728   2.829   1.932   2.554 -0.2119  0.2375  0.0061
  933SOL     OW 3729   2.033   2.811   2.218  0.2206 -0.0785  0.2435
  933SOL    HW1 3730   2.111   2.866   2.210  0.1919 -1.5470 -1.1431
  933SOL    HW2 3731   1.969   2.864   2.169  3.0339  1.4136 -2.9711
  933SOL     MW 3732   2.035   2.825   2.210  0.5880 -0.0754 -0.3636
  934SOL     OW 3733   2.040   2.732   2.486 -0.0152  0.8019 -0.4854
  934SOL    HW1 3734   2.039   2.800   2.555  1.1939  0.0787  1.9863
  934SOL    HW2 3735   2.053   2.776   2.398  1.1249 -2.1747 -0.0148
  934SOL     MW 3736   2.042   2.747   2.483  0.2947  0.3137 -0.0972
  935SOL     OW 3737   2.608   1.546   1.819  0.2688 -0.4174  0.2549
  935SOL    HW1 3738   2.682   1.527   1.762 -3.0450  2.4686 -1.0927
  935SOL    HW2 3739   2.549   1.569   1.753  1.4847 -1.6851 -0.8106
  935SOL     MW 3740   2.610   1.546   1.803 -0.0080 -0.2039 -0.0635
  936SOL     OW 3741   2.951   2.246   3.062  0.1480 -0.1793  0.0846
  936SOL    HW1 3742   3.026   2.262   3.126 -2.0017 -1.9270  3.0033
  936SOL    HW2 3743   2.874   2.284   3.097  1.4241 -0.4296  0.7574
  936SOL     MW 3744   2.951   2.253   3.075  0.0327 -0.4429  0.5585
  937SOL     OW 3745   1.989   2.184   2.619  0.7329 -0.1893  0.4373
  937SOL    HW1 3746   2.069   2.157   2.664  1.8418  1.6221  0.2656
  937SOL    HW2 3747   1.998   2.145   2.530  1.5050 -1.6254  0.5125
  937SOL     MW 3748   2.001   2.175   2.613  0.9810 -0.1398  0.4246
  938SOL     OW 3749   2.302   1.809   1.903  0.1501 -0.1637  0.3636
  938SOL    HW1 3750   2.268   1.854   1.823  0.3931 -1.7853 -2.7892
  938SOL    HW2 3751   2.305   1.875   1.969  0.1440 -3.6701 -1.2617
  938SOL     MW 3752   2.298   1.824   1.901  0.1813 -0.8403 -0.2669
  939SOL     OW 3753   2.812   1.953   2.297  0.5886  0.6916 -0.2765
  939SOL    HW1 3754   2.828   1.899   2.219 -2.3536 -1.4745 -1.6051
  939SOL    HW2 3755   2.716   1.970   2.287 -0.0901  1.3620  0.5575
  939SOL     MW 3756   2.801   1.948   2.286  0.1109  0.4943 -0.3417
  940SOL     OW 3757   2.319   0.127   2.700  0.6183 -0.1066 -0.0292
  940SOL    HW1 3758   2.312   0.036   2.669 -1.5604  0.6844 -5.4705
  940SOL    HW2 3759   2.361   0.136   2.785  0.6283  0.1339 -2.5034
  940SOL     MW 3760   2.324   0.116   2.707  0.3321  0.0295 -1.0736
  941SOL     OW 3761   0.161   2.328   2.044  0.9729 -0.4637 -0.3125
  941SOL    HW1 3762   0.233   2.273   2.062 -1.5172  2.3410  1.4573
  941SOL    HW2 3763   0.088   2.280   2.003  4.1027  1.1080  0.4710
  941SOL     MW 3764   0.161   2.315   2.041  1.0573  0.1137  0.0244
  942SOL     OW 3765   2.870   2.208   2.185 -0.1001 -0.7139  0.5110
  942SOL    HW1 3766   2.796   2.263   2.140 -1.3767  2.1984 -0.3539
  942SOL    HW2 3767   2.832   2.128   2.214  1.5647  0.8090  1.9840
  942SOL     MW 3768   2.855   2.205   2.183 -0.0489 -0.1287  0.5912
  943SOL     OW 3769   0.324   2.034   2.334  0.6649 -0.0949  0.0234
  943SOL    HW1 3770   0.255   2.094   2.376  1.4963  2.6959  0.6628
  943SOL    HW2 3771   0.412   2.052   2.377  2.0063  2.9485 -2.6401
  943SOL     MW 3772   0.327   2.044   2.345  0.9516  0.6749 -0.2437
  944SOL     OW 3773   2.127   2.625   2.008  0.2653 -0.3618  0.5024
  944SOL    HW1 3774   2.193   2.579   2.066  2.2062  0.1996 -1.6315
  944SOL    HW2 3775   2.073   2.673   2.070 -1.0617  0.5319  0.0870
  944SOL     MW 3776   2.128   2.625   2.024  0.3463 -0.1698  0.1661
  945SOL     OW 3777   2.775   2.675   2.876  0.5436 -0.0322 -0.2386
  945SOL    HW1 3778   2.729   2.595   2.860 -0.8154  3.1171  0.3053
  945SOL    HW2 3779   2.813   2.703   2.795  0.5861 -0.0876 -0.1866
  945SOL     MW 3780   2.774   2.668   2.863  0.3699  0.3760 -0.1600
  946SOL     OW 3781   2.502   2.757   2.289 -0.5794  0.1120 -0.6236
  946SOL    HW1 3782   2.536   2.803   2.213 -1.4852  0.3305  0.1597
  946SOL    HW2 3783   2.461   2.683   2.251  0.8622 -2.1691 -1.5578
  946SOL     MW 3784   2.501   2.753   2.274 -0.5087 -0.1601 -0.6435
  947SOL     OW 3785   2.032   3.073   0.284 -0.1901 -0.2352 -1.2522
  947SOL    HW1 3786   2.062   2.988   0.255  0.1053  0.9989  3.2723
  947SOL    HW2 3787   2.083   3.097   0.368  0.7781  3.6109  3.9151
  947SOL     MW 3788   2.043   3.065   0.291 -0.0234  0.4351  0.0265
  948SOL     OW 3789   1.814   3.063   2.635  0.3622 -0.2655  0.1921
  948SOL    HW1 3790   1.885   2.994   2.642 -0.8344 -2.4147  0.6496
  948SOL    HW2 3791   1.834   3.123   2.565 -0.7453  2.4751  0.3284
  948SOL     MW 3792   1.826   3.062   2.627  0.0582 -0.1875  0.2705
  949SOL     OW 3793   2.565   2.034   2.298  0.2016  0.3898 -0.0500
  949SOL    HW1 3794   2.545   1.943   2.330 -0.6359 -0.1155  1.9961
  949SOL    HW2 3795   2.525   2.083   2.373  1.5977 -1.8536  0.3681
  949SOL     MW 3796   2.557   2.028   2.312  0.2753  0.0272  0.2751
  950SOL     OW 3797   2.196   2.618   3.026 -0.4883 -0.5173 -0.6204
  950SOL    HW1 3798   2.249   2.538   2.996  2.4819 -1.6104  1.8382
  950SOL    HW2 3799   2.126   2.646   2.963  0.3744 -0.9420  1.4029
  950SOL     MW 3800   2.194   2.611   3.013  0.0174 -0.7176 -0.0290
  951SOL     OW 3801   2.958   2.065   2.821  0.4056  0.1016  0.3429
  951SOL    HW1 3802   2.998   2.130   2.879  0.5910 -0.6016  3.3842
  951SOL    HW2 3803   3.022   2.051   2.743 -2.1316 -0.0197 -0.0079
  951SOL     MW 3804   2.972   2.072   2.818  0.0953 -0.0072  0.6979
  952SOL     OW 3805   3.032   1.680   2.045  0.3154  0.2353 -0.2474
  952SOL    HW1 3806   2.953   1.735   2.034  0.1495  1.0147 -1.5571
  952SOL    HW2 3807   3.102   1.726   2.083 -0.1621  0.5202  0.0525
  952SOL     MW 3808   3.031   1.693   2.049  0.2305  0.3758 -0.3807
  953SOL     OW 3809   1.981   1.826   2.889  1.0597 -0.3239  0.5038
  953SOL    HW1 3810   1.914   1.766   2.910 -1.3494  2.6357  0.0801
  953SOL    HW2 3811   2.034   1.767   2.842  0.8766  1.4695  0.9350
  953SOL     MW 3812   1.979   1.810   2.885  0.7177  0.3032  0.5048
  954SOL     OW 3813   2.443   2.107   2.901  0.4368  0.3254  0.5458
  954SOL    HW1 3814   2.359   2.113   2.848 -0.2938 -0.8965 -3.7599
  954SOL    HW2 3815   2.510   2.081   2.834 -1.6089  2.3384 -1.8031
  954SOL     MW 3816   2.441   2.105   2.885  0.0705  0.4298 -0.3322
  955SOL     OW 3817   1.602   1.610   2.574 -0.1750 -0.3877 -0.5593
  955SOL    HW1 3818   1.559   1.632   2.484 -0.3551  0.4857 -3.0308
  955SOL    HW2 3819   1.698   1.639   2.579 -0.5522  0.8217 -0.0048
  955SOL     MW 3820   1.609   1.616   2.563 -0.2485 -0.1129 -0.8122
  956SOL     OW 3821   2.617   2.462   2.855 -0.2647  0.5240 -0.5209
  956SOL    HW1 3822   2.657   2.412   2.928  2.5207  0.0646  0.3217
  956SOL    HW2 3823   2.632   2.393   2.785  0.2765 -0.3687 -1.5875
  956SOL     MW 3824   2.624   2.446   2.855  0.1742  0.3456 -0.5505
  957SOL     OW 3825   2.291   2.792   0.395 -0.0797 -0.0119 -0.2286
  957SOL    HW1 3826   2.199   2.782   0.350 -1.5574  2.8371  2.2095
  957SOL    HW2 3827   2.277   2.754   0.488 -0.1185 -1.0268 -0.1954
  957SOL     MW 3828   2.277   2.786   0.402 -0.2798  0.2301  0.0974
  958SOL     OW 3829   2.009   2.675   2.815  0.0529 -0.0204 -0.2803
  958SOL    HW1 3830   2.010   2.595   2.756  1.5613  0.2994  2.1874
  958SOL    HW2 3831   1.918   2.702   2.834  3.6205 -2.8078 -2.7627
  958SOL     MW 3832   1.997   2.668   2.810  0.7226 -0.3460 -0.2822
  959SOL     OW 3833   2.425   2.565   0.316  0.0936 -0.1748 -0.3643
  959SOL    HW1 3834   2.493   2.590   0.251  1.7734 -0.7938 -0.1506
  959SOL    HW2 3835   2.359   2.642   0.318 -2.6825  1.1197  0.3498
  959SOL     MW 3836   2.425   2.579   0.307 -0.0510 -0.0857 -0.2419
  960SOL     OW 3837   1.925   2.382   2.308 -0.0560 -0.1635  0.0946
  960SOL    HW1 3838   1.917   2.288   2.299 -2.5278 -2.3704  0.2825
  960SOL    HW2 3839   1.846   2.407   2.357 -0.7389 -1.3538  0.7539
  960SOL     MW 3840   1.914   2.373   2.313 -0.4723 -0.6118  0.2063
  961SOL     OW 3841   2.207   2.364   2.352 -0.5081 -0.4702  0.2516
  961SOL    HW1 3842   2.114   2.344   2.362 -1.3227 -3.6143 -2.3351
  961SOL    HW2 3843   2.235   2.433   2.419  2.9125 -1.2975 -1.3806
  961SOL     MW 3844   2.198   2.370   2.362 -0.1642 -0.9942 -0.3050
  962SOL     OW 3845   2.203   2.079   2.783 -0.1942  0.3441 -0.6207
  962SOL    HW1 3846   2.168   2.081   2.870 -0.0482  0.8467  0.0114
  962SOL    HW2 3847   2.220   1.995   2.748  2.0235 -0.2929  0.5635
  962SOL     MW 3848   2.201   2.068   2.790  0.1177  0.3264 -0.3810
  963SOL     OW 3849   1.775   2.587   2.092  0.2152  0.0248 -0.9859
  963SOL    HW1 3850   1.841   2.542   2.139  0.4623 -0.8919  2.7685
  963SOL    HW2 3851   1.781   2.551   2.010  1.3544 -0.2699  0.3125
  963SOL     MW 3852   1.785   2.576   2.087  0.3981 -0.1350 -0.3192
  964SOL     OW 3853   1.834   1.987   2.706  0.2863 -0.1413  0.2852
  964SOL    HW1 3854   1.883   2.067   2.670  0.9872  3.4784 -3.2704
  964SOL    HW2 3855   1.895   1.926   2.757  1.9753  0.8758  0.5100
  964SOL     MW 3856   1.849   1.990   2.708  0.6016  0.4705 -0.1543
  965SOL     OW 3857   2.200   2.675   0.626 -0.0277 -0.1446 -0.1004
  965SOL    HW1 3858   2.165   2.602   0.581  1.5031  1.9569 -0.7711
  965SOL    HW2 3859   2.255   2.639   0.696  2.0948 -2.5507 -1.6801
  965SOL     MW 3860   2.203   2.660   0.629  0.4543 -0.1848 -0.3973
  966SOL     OW 3861   2.678   2.654   2.469 -0.2168 -0.1976  0.2244
  966SOL    HW1 3862   2.608   2.689   2.407 -1.5203 -1.4423  0.0747
  966SOL    HW2 3863   2.680   2.560   2.447  0.3982  0.3819  0.5187
  966SOL     MW 3864   2.669   2.646   2.458 -0.3077 -0.2854  0.2435
  967SOL     OW 3865   2.892   2.990   2.922  0.5521  0.0906 -0.1163
  967SOL    HW1 3866   2.870   2.914   2.974  0.6405 -0.8230  2.4943
  967SOL    HW2 3867   2.806   3.017   2.878 -0.4656 -1.1101 -1.9520
  967SOL     MW 3868   2.878   2.984   2.923  0.4295 -0.1884 -0.0140
  968SOL     OW 3869   2.997   2.579   2.987 -0.0393  0.4100  0.3006
  968SOL    HW1 3870   2.916   2.620   2.947 -2.1251  2.2001 -1.5217
  968SOL    HW2 3871   2.982   2.505   2.933 -2.3748  1.6796  0.7439
  968SOL     MW 3872   2.984   2.575   2.975 -0.6226  0.8137  0.1186
  969SOL     OW 3873   1.528   2.108   1.728 -0.1199 -0.3127  0.0320
  969SOL    HW1 3874   1.595   2.047   1.700 -1.8349 -0.1531  1.2093
  969SOL    HW2 3875   1.526   2.097   1.829  0.7345 -1.0492  2.7970
  969SOL     MW 3876   1.536   2.098   1.737 -0.2335 -0.3888  0.5522
  970SOL     OW 3877   1.638   1.719   1.873 -0.2317  0.2411  0.3023
  970SOL    HW1 3878   1.665   1.675   1.952 -1.8849 -1.5554  0.4069
  970SOL    HW2 3879   1.541   1.701   1.870 -0.4176  2.2206 -2.0787
  970SOL     MW 3880   1.629   1.711   1.883 -0.4743  0.2653  0.0019
  971SOL     OW 3881   1.831   0.127   2.358 -0.3030 -0.3472 -0.3387
  971SOL    HW1 3882   1.857   0.083   2.282 -2.3309 -3.5456 -1.0724
  971SOL    HW2 3883   1.910   0.181   2.390  1.5411  3.6526  1.7091
  971SOL     MW 3884   1.844   0.128   2.353 -0.3272 -0.2415 -0.1653
  972SOL     OW 3885   0.276   2.777   2.511  0.0555  0.3250 -0.4328
  972SOL    HW1 3886   0.309   2.695   2.555 -3.0048 -0.3621  0.1385
  972SOL    HW2 3887   0.347   2.841   2.528 -1.3545  0.1543  1.7614
  972SOL     MW 3888   0.289   2.775   2.519 -0.5343  0.2118 -0.0679
  973SOL     OW 3889   2.599   3.098   2.054  0.5606 -0.6039 -0.0983
  973SOL    HW1 3890   2.601   3.005   2.051  2.1092  0.6195  0.8239
  973SOL    HW2 3891   2.610   3.126   1.964 -0.3893 -0.8399  1.3194
  973SOL     MW 3892   2.601   3.090   2.042  0.6396 -0.4736  0.2104
  974SOL     OW 3893   2.119   0.337   2.752 -0.2394 -0.8171  0.4961
  974SOL    HW1 3894   2.207   0.301   2.743 -1.5802 -0.4218 -1.3499
  974SOL    HW2 3895   2.070   0.265   2.782  2.0048 -1.3934  0.9032
  974SOL     MW 3896   2.124   0.323   2.755 -0.1202 -0.8410  0.3062
  975SOL     OW 3897   2.248   2.564   2.562 -0.4892  0.0231  0.2189
  975SOL    HW1 3898   2.321   2.608   2.599  1.1708 -1.1800 -0.5208
  975SOL    HW2 3899   2.188   2.630   2.526 -0.3419  0.3923  1.6072
  975SOL     MW 3900   2.250   2.579   2.562 -0.2507 -0.0870  0.3045
  976SOL     OW 3901   0.218   0.310   1.696 -0.1518  0.9401 -0.0727
  976SOL    HW1 3902   0.282   0.241   1.734  2.3974 -2.7186 -0.3429
  976SOL    HW2 3903   0.136   0.265   1.666  0.5300  0.0447  3.6355
  976SOL     MW 3904   0.216   0.295   1.697  0.2745  0.3393  0.3809
  977SOL     OW 3905   1.704   2.748   2.488  0.1481  0.1484  0.0078
  977SOL    HW1 3906   1.720   2.654   2.515 -2.1594 -0.7881 -0.2678
  977SOL    HW2 3907   1.794   2.774   2.475  0.2676  0.2278  3.6772
  977SOL     MW 3908   1.718   2.739   2.490 -0.1406  0.0353  0.4556
   3.10000   3.10000   3.10000
