977 TIP4P/2005f water molecules t=   1.96000 step= 1960
 3908
    1SOL     OW    1   0.447   0.725   0.175  0.0383 -0.2017  0.0398
    1SOL    HW1    2   0.381   0.719   0.107 -1.7075  0.0616 -0.2462
    1SOL    HW2    3   0.473   0.642   0.216 -0.2104 -0.6030  2.2641
    1SOL     MW    4   0.442   0.713   0.171 -0.2249 -0.2199  0.2955
    2SOL     OW    5   0.274   2.977   1.150 -0.0163  0.0536 -0.2555
    2SOL    HW1    6   0.345   3.036   1.121  0.6145  0.1360  2.6423
    2SOL    HW2    7   0.187   3.012   1.130  0.7095 -2.2646 -2.6668
    2SOL     MW    8   0.272   2.989   1.144  0.1627 -0.2414 -0.1914
    3SOL     OW    9   2.693   0.357   0.868 -0.0754 -0.3034  0.0086
    3SOL    HW1   10   2.697   0.448   0.835 -0.4112  1.8009 -1.3353
    3SOL    HW2   11   2.675   0.368   0.960  0.1586 -2.6267 -4.7316
    3SOL     MW   12   2.691   0.370   0.875 -0.0888 -0.3323 -0.7941
    4SOL     OW   13   2.931   1.725   0.557  0.1877 -0.9228  0.6314
    4SOL    HW1   14   2.878   1.803   0.539  0.6468 -2.1120 -0.1799
    4SOL    HW2   15   2.988   1.716   0.470  0.4108  0.7875 -0.0839
    4SOL     MW   16   2.931   1.734   0.543  0.2777 -0.8540  0.4300
    5SOL     OW   17   1.615   1.468   0.624 -0.1132  0.3794  0.2609
    5SOL    HW1   18   1.641   1.450   0.715 -1.2216 -1.4046  1.0943
    5SOL    HW2   19   1.524   1.495   0.640  2.7026 -0.8147  0.1899
    5SOL     MW   20   1.607   1.469   0.638  0.1121 -0.0135  0.3615
    6SOL     OW   21   0.758   1.437   0.627 -0.1364  0.3381  0.3146
    6SOL    HW1   22   0.694   1.420   0.561 -1.6568 -2.2480  0.3789
    6SOL    HW2   23   0.783   1.353   0.662  0.3247  1.1255  0.0507
    6SOL     MW   24   0.753   1.424   0.623 -0.2761  0.1008  0.2882
    7SOL     OW   25   1.988   1.024   0.049 -0.6521 -0.1924  0.3283
    7SOL    HW1   26   2.070   1.074   0.082  0.2326  2.5394  0.7557
    7SOL    HW2   27   1.940   1.022   0.132 -2.7395  0.2720  3.1468
    7SOL     MW   28   1.992   1.030   0.065 -0.8108  0.2293  0.7566
    8SOL     OW   29   0.872   1.405   0.991  0.4228  0.6669  0.3416
    8SOL    HW1   30   0.896   1.494   1.020  0.3300 -0.5892 -1.2338
    8SOL    HW2   31   0.906   1.345   1.060 -0.8549 -5.5120 -1.0801
    8SOL     MW   32   0.880   1.409   1.004  0.2420 -0.3141 -0.0538
    9SOL     OW   33   0.878   0.538   1.303  0.2619 -0.0533  0.1610
    9SOL    HW1   34   0.826   0.467   1.272  2.9424 -0.1245 -0.0543
    9SOL    HW2   35   0.948   0.504   1.355 -1.4519  1.4083  2.0410
    9SOL     MW   36   0.881   0.524   1.306  0.3894  0.1302  0.3807
   10SOL     OW   37   0.321   0.844   0.497  0.0063 -0.0500 -0.2586
   10SOL    HW1   38   0.407   0.888   0.492  1.6051  0.1701  0.9375
   10SOL    HW2   39   0.282   0.873   0.578 -0.3190 -0.9449 -1.1338
   10SOL     MW   40   0.327   0.853   0.507  0.1743 -0.1390 -0.2163
   11SOL     OW   41   0.729   1.092   1.450 -0.0512 -0.3860 -0.2341
   11SOL    HW1   42   0.794   1.117   1.518  0.8381 -1.5580 -0.9487
   11SOL    HW2   43   0.751   1.005   1.423 -2.1101 -0.1842  1.7928
   11SOL     MW   44   0.741   1.084   1.456 -0.2055 -0.5140 -0.0609
   12SOL     OW   45   3.094   1.074   0.905  0.2696  0.4515 -0.1484
   12SOL    HW1   46   3.117   1.160   0.928 -1.2609  0.5349 -1.7336
   12SOL    HW2   47   3.091   1.072   0.810  1.8263  0.9474  1.1265
   12SOL     MW   48   3.096   1.085   0.895  0.2731  0.5279 -0.1894
   13SOL     OW   49   1.871   1.412   1.291  0.3193 -0.4138  0.1418
   13SOL    HW1   50   1.905   1.339   1.236 -1.0101 -0.7030  0.8742
   13SOL    HW2   51   1.918   1.494   1.273  3.3854 -1.1055 -1.4173
   13SOL     MW   52   1.882   1.413   1.281  0.5485 -0.5432  0.0327
   14SOL     OW   53   0.569   0.247   1.869 -0.5022  0.0107 -0.2268
   14SOL    HW1   54   0.636   0.198   1.817 -1.5972 -1.0659  1.4712
   14SOL    HW2   55   0.533   0.310   1.807  1.7037 -0.7025  0.4667
   14SOL     MW   56   0.573   0.248   1.854 -0.3557 -0.2255  0.0887
   15SOL     OW   57   1.988   0.414   0.973 -0.3239  0.1224  0.3413
   15SOL    HW1   58   2.021   0.489   1.022  1.4526  1.0242  1.3169
   15SOL    HW2   59   2.036   0.436   0.887 -2.4637 -1.8487 -2.1718
   15SOL     MW   60   1.999   0.427   0.968 -0.3718 -0.0187  0.1385
   16SOL     OW   61   0.210   1.830   0.256 -0.5011 -0.2037  0.2809
   16SOL    HW1   62   0.296   1.777   0.246 -1.0984  2.0873  1.3436
   16SOL    HW2   63   0.230   1.906   0.314 -2.0315  1.7374  0.9654
   16SOL     MW   64   0.224   1.833   0.263 -0.7818  0.3547  0.5114
   17SOL     OW   65   1.127   0.832   1.384 -0.1365 -0.5617 -0.2772
   17SOL    HW1   66   1.147   0.806   1.474  3.0783 -0.5867  1.3403
   17SOL    HW2   67   1.032   0.838   1.389 -2.6385 -3.7208 -1.4282
   17SOL     MW   68   1.117   0.829   1.396 -0.0425 -0.9818 -0.2157
   18SOL     OW   69   0.007   1.659   0.354  0.3434  0.7717 -0.2284
   18SOL    HW1   70   0.072   1.723   0.328 -0.5508  1.7911  1.5855
   18SOL    HW2   71  -0.020   1.624   0.270  0.0698  0.6376  1.0584
   18SOL     MW   72   0.012   1.663   0.340  0.1893  0.8885  0.1807
   19SOL     OW   73   0.079   1.386   0.938 -0.2743 -0.4311 -0.1988
   19SOL    HW1   74   0.081   1.405   0.846 -0.9272  2.6736  2.3534
   19SOL    HW2   75  -0.016   1.391   0.963 -2.5938  1.7826  1.3034
   19SOL     MW   76   0.067   1.389   0.929 -0.6665  0.2706  0.3361
   20SOL     OW   77   0.463   2.124   1.262  0.3761  0.2026 -0.1765
   20SOL    HW1   78   0.411   2.040   1.250  0.5634 -1.5710  0.4393
   20SOL    HW2   79   0.425   2.160   1.343  1.4898  2.4330  3.1083
   20SOL     MW   80   0.451   2.118   1.271  0.5477  0.2628  0.3382
   21SOL     OW   81   0.586   0.944   0.461  0.7631  0.2553 -0.1988
   21SOL    HW1   82   0.620   0.878   0.519 -1.1754  0.4392  0.3553
   21SOL    HW2   83   0.648   0.953   0.390 -1.7125  1.8083  2.2663
   21SOL     MW   84   0.599   0.937   0.459  0.1807  0.4845  0.1995
   22SOL     OW   85   1.539   0.773   0.942 -0.0313  0.2053 -0.3011
   22SOL    HW1   86   1.533   0.744   0.853 -2.3056 -1.4360  1.0832
   22SOL    HW2   87   1.452   0.809   0.966  0.7814 -1.1412  0.7610
   22SOL     MW   88   1.527   0.774   0.933 -0.2242 -0.1889  0.0217
   23SOL     OW   89   3.091   0.824   0.695 -0.6061 -0.1392  0.6100
   23SOL    HW1   90   3.143   0.753   0.739  0.1609  0.7609  1.6522
   23SOL    HW2   91   3.141   0.910   0.704  2.6349  3.1123  0.5862
   23SOL     MW   92   3.104   0.826   0.702 -0.0773  0.4086  0.7444
   24SOL     OW   93   2.018   2.178   0.030  0.6384 -0.1915 -0.3619
   24SOL    HW1   94   1.971   2.162   0.120  0.4455  0.1459 -2.5539
   24SOL    HW2   95   2.025   2.086  -0.009 -2.5554 -0.6699 -1.3254
   24SOL     MW   96   2.013   2.164   0.037  0.1915 -0.2101 -0.7783
   25SOL     OW   97   0.215   1.490   0.401 -0.2378  1.1123 -0.0356
   25SOL    HW1   98   0.148   1.552   0.406  1.3955  2.5063 -2.4280
   25SOL    HW2   99   0.235   1.458   0.319  3.6773 -0.2826  0.0814
   25SOL     MW  100   0.209   1.494   0.391  0.4943  1.1122 -0.3358
   26SOL     OW  101   1.956   1.013   0.334  0.5318  0.1400  0.1861
   26SOL    HW1  102   1.909   1.049   0.411  0.2543  0.8762 -1.8307
   26SOL    HW2  103   2.016   1.090   0.316 -1.9589  0.9468 -0.6530
   26SOL     MW  104   1.958   1.028   0.342  0.1666  0.3436 -0.1907
   27SOL     OW  105   1.855   1.339   0.158  0.1641 -0.3119  0.6508
   27SOL    HW1  106   1.796   1.395   0.214  0.9285  0.3550  1.7856
   27SOL    HW2  107   1.936   1.345   0.212  1.4696  3.3551 -0.6588
   27SOL     MW  108   1.858   1.347   0.173  0.4372  0.2599  0.6277
   28SOL     OW  109   0.433   0.912   2.058  0.0277 -0.0617 -0.2915
   28SOL    HW1  110   0.470   0.891   2.139 -1.2620 -0.8799 -1.5964
   28SOL    HW2  111   0.338   0.885   2.050 -2.6468 -1.8641 -1.0072
   28SOL     MW  112   0.425   0.906   2.068 -0.4954 -0.4075 -0.5581
   29SOL     OW  113   0.188   1.444   0.690  0.4634  0.0090 -0.1356
   29SOL    HW1  114   0.174   1.532   0.653 -0.6790 -2.0146 -0.8051
   29SOL    HW2  115   0.206   1.388   0.617  1.0447 -1.3413  1.3984
   29SOL     MW  116   0.189   1.448   0.675  0.3894 -0.4361 -0.0215
   30SOL     OW  117   0.730   1.257   1.239 -0.0680 -0.4683 -0.2259
   30SOL    HW1  118   0.640   1.223   1.245  1.2022 -0.6019  0.5142
   30SOL    HW2  119   0.773   1.208   1.316 -1.7997  0.9635  2.4782
   30SOL     MW  120   0.724   1.246   1.250 -0.1289 -0.2970  0.2285
   31SOL     OW  121   0.444   0.254   0.193 -0.4533  0.0517  0.5357
   31SOL    HW1  122   0.491   0.183   0.234 -2.1671  2.6120 -0.3895
   31SOL    HW2  123   0.438   0.220   0.101  0.9706  0.6277  2.1642
   31SOL     MW  124   0.449   0.240   0.186 -0.4915  0.4655  0.6285
   32SOL     OW  125   2.719   0.979   1.054 -0.0685 -0.3463 -0.0963
   32SOL    HW1  126   2.713   0.886   1.052  2.1641 -1.3225 -2.4684
   32SOL    HW2  127   2.782   0.988   1.128 -3.7092 -1.9995 -2.0093
   32SOL     MW  128   2.726   0.968   1.064 -0.2543 -0.6932 -0.6617
   33SOL     OW  129   1.632   1.334   0.397  0.3072  0.6548  0.3657
   33SOL    HW1  130   1.711   1.294   0.425  0.2738  1.3438  0.5599
   33SOL    HW2  131   1.611   1.392   0.475  0.1220  4.0029 -2.2307
   33SOL     MW  132   1.640   1.336   0.411  0.2783  1.1874  0.0487
   34SOL     OW  133   1.156   1.993   1.174  0.5505 -0.5312 -0.1795
   34SOL    HW1  134   1.080   1.993   1.232 -1.3452 -0.1143 -2.2962
   34SOL    HW2  135   1.230   1.964   1.237  0.9691  0.0715  4.8670
   34SOL     MW  136   1.156   1.989   1.190  0.3556 -0.3967  0.2071
   35SOL     OW  137   0.355   0.114   1.670 -0.1537 -0.3333 -0.0919
   35SOL    HW1  138   0.377   0.091   1.762 -2.3548  0.6306  1.3869
   35SOL    HW2  139   0.289   0.046   1.647  0.7906 -1.7820 -0.2052
   35SOL     MW  140   0.349   0.102   1.679 -0.3195 -0.3973  0.0883
   36SOL     OW  141   1.930   2.015   0.606 -0.4778 -0.0246  0.3080
   36SOL    HW1  142   1.900   1.968   0.527 -1.4410 -0.9575  0.4532
   36SOL    HW2  143   1.960   1.937   0.650 -0.4946  1.6976 -2.1912
   36SOL     MW  144   1.930   1.998   0.601 -0.6071  0.0795 -0.0026
   37SOL     OW  145   1.708   2.037   0.947 -0.3050 -0.4155  0.2483
   37SOL    HW1  146   1.656   1.979   0.890  1.0634 -1.3214  1.6093
   37SOL    HW2  147   1.650   2.090   1.003  0.6430 -0.0989 -2.0282
   37SOL     MW  148   1.693   2.036   0.947  0.0006 -0.4932  0.1275
   38SOL     OW  149   2.845   0.981   0.074 -0.1607  0.1128  0.6171
   38SOL    HW1  150   2.908   0.974   0.143 -0.6097  0.9763 -1.5216
   38SOL    HW2  151   2.885   0.979  -0.019 -1.1980  0.7454  2.0321
   38SOL     MW  152   2.859   0.980   0.071 -0.3568  0.3102  0.5216
   39SOL     OW  153   1.510   0.571   0.668 -0.5451 -0.3051 -0.2205
   39SOL    HW1  154   1.501   0.513   0.744 -0.6163 -2.3083 -3.1564
   39SOL    HW2  155   1.434   0.623   0.656  2.6401 -1.4657 -1.1853
   39SOL     MW  156   1.499   0.570   0.677 -0.1342 -0.7225 -0.7351
   40SOL     OW  157   1.266   1.867   0.226 -0.4763 -0.2849  0.1649
   40SOL    HW1  158   1.306   1.790   0.265 -0.8453 -0.2814 -1.3943
   40SOL    HW2  159   1.231   1.919   0.303  0.8949  0.3621  1.6378
   40SOL     MW  160   1.267   1.863   0.242 -0.3441 -0.1991  0.1535
   41SOL     OW  161   0.478   0.503   1.545  1.0010  0.0137 -0.7218
   41SOL    HW1  162   0.559   0.548   1.505 -0.3140  2.6008 -0.0474
   41SOL    HW2  163   0.396   0.539   1.507 -0.3456  0.0473  2.7194
   41SOL     MW  164   0.478   0.514   1.535  0.6498  0.3595 -0.1788
   42SOL     OW  165   1.284   2.906   1.983  0.1739  0.6779 -0.2504
   42SOL    HW1  166   1.234   2.907   2.061  2.0418  2.2902 -1.0716
   42SOL    HW2  167   1.366   2.861   2.009  3.2380 -1.0079  1.0265
   42SOL     MW  168   1.289   2.900   1.996  0.8246  0.6682 -0.1903
   43SOL     OW  169   1.406   0.152   1.693  0.3800  0.4182 -0.0674
   43SOL    HW1  170   1.485   0.107   1.670  1.1739 -0.4767  0.2995
   43SOL    HW2  171   1.350   0.087   1.655 -1.4731  0.8502  1.8152
   43SOL     MW  172   1.409   0.138   1.685  0.2403  0.3572  0.2294
   44SOL     OW  173   1.186   0.859   0.952 -0.1099 -0.0296  0.2513
   44SOL    HW1  174   1.171   0.952   0.975  2.1281 -0.2286 -0.2075
   44SOL    HW2  175   1.123   0.806   1.003 -1.1208 -0.8704  1.2938
   44SOL     MW  176   1.175   0.865   0.962  0.0520 -0.1668  0.3283
   45SOL     OW  177   1.301   0.785   0.705 -0.4541  0.2365 -0.3421
   45SOL    HW1  178   1.247   0.819   0.775 -0.1867  1.6432  1.1237
   45SOL    HW2  179   1.239   0.744   0.636 -0.4178 -1.0776 -1.5147
   45SOL     MW  180   1.286   0.784   0.705 -0.4141  0.2487 -0.3034
   46SOL     OW  181   0.446   1.133   0.699 -0.0482  0.2589 -0.0448
   46SOL    HW1  182   0.494   1.145   0.618  3.4079 -0.7511 -1.9878
   46SOL    HW2  183   0.448   1.224   0.746 -2.6745  0.2953  0.2216
   46SOL     MW  184   0.452   1.146   0.695  0.0613  0.1304 -0.2660
   47SOL     OW  185   0.131   2.022   1.938 -0.2469  0.1667  0.2737
   47SOL    HW1  186   0.104   1.942   1.884 -2.8235 -1.8829 -0.6755
   47SOL    HW2  187   0.173   1.985   2.012 -0.4477 -0.4563  0.4262
   47SOL     MW  188   0.133   2.007   1.941 -0.6133 -0.1859  0.1686
   48SOL     OW  189   1.287   0.517   1.037 -0.1120  0.3516  0.2408
   48SOL    HW1  190   1.236   0.469   0.970  2.0207  2.9982 -0.4057
   48SOL    HW2  191   1.225   0.581   1.067 -0.7763  0.1962  0.8007
   48SOL     MW  192   1.272   0.519   1.032  0.0817  0.6803  0.2294
   49SOL     OW  193   1.769   0.702   1.530  0.6459 -0.0462 -0.0038
   49SOL    HW1  194   1.806   0.650   1.602  2.8373  1.9426  0.9940
   49SOL    HW2  195   1.792   0.650   1.452 -0.5309 -1.2667 -2.2545
   49SOL     MW  196   1.777   0.688   1.529  0.7798  0.0552 -0.1691
   50SOL     OW  197   1.269   1.244   0.609 -1.0343  0.4004  0.1409
   50SOL    HW1  198   1.191   1.253   0.672  2.0437  3.2701 -1.1838
   50SOL    HW2  199   1.314   1.164   0.641  1.1289 -0.0908  1.3654
   50SOL     MW  200   1.265   1.235   0.621 -0.3428  0.7142  0.1276
   51SOL     OW  201   0.319   2.896   0.868 -0.3179 -0.4081  0.3187
   51SOL    HW1  202   0.411   2.867   0.868 -0.3914 -0.3231  0.7301
   51SOL    HW2  203   0.310   2.944   0.950  0.7717  0.4653 -0.2959
   51SOL     MW  204   0.330   2.899   0.878 -0.1838 -0.2816  0.2919
   52SOL     OW  205   0.802   1.847   0.457  0.0795 -0.1302  0.3565
   52SOL    HW1  206   0.793   1.944   0.462 -2.1610  0.6714 -1.3114
   52SOL    HW2  207   0.783   1.826   0.364 -0.5197  0.7872 -0.3809
   52SOL     MW  208   0.798   1.857   0.445 -0.2952  0.0966  0.0391
   53SOL     OW  209   0.464   2.155   0.636 -0.4547 -0.0114  0.0490
   53SOL    HW1  210   0.386   2.124   0.590  0.9317  0.1752  1.0046
   53SOL    HW2  211   0.484   2.240   0.599 -1.6550  0.6182  1.8216
   53SOL     MW  212   0.456   2.162   0.625 -0.4302  0.0963  0.4090
   54SOL     OW  213   2.030   0.974   0.680 -0.7921 -0.4789 -0.2735
   54SOL    HW1  214   2.118   0.974   0.646 -0.7826 -0.5143  3.0272
   54SOL    HW2  215   1.987   0.891   0.673  1.4288 -0.6698 -0.3944
   54SOL     MW  216   2.036   0.963   0.674 -0.4978 -0.5088  0.1461
   55SOL     OW  217   0.426   1.535   1.731 -0.0257  0.0316  0.4155
   55SOL    HW1  218   0.385   1.574   1.650 -0.5511 -0.3137 -0.2458
   55SOL    HW2  219   0.506   1.491   1.702 -0.1969 -2.9797 -0.2326
   55SOL     MW  220   0.431   1.534   1.717 -0.1176 -0.4113  0.2427
   56SOL     OW  221   0.698   0.921   0.202 -0.0560 -0.3936  0.2896
   56SOL    HW1  222   0.665   1.002   0.160  1.3404 -0.7834  0.4249
   56SOL    HW2  223   0.617   0.869   0.208  1.6839  1.1278 -0.3831
   56SOL     MW  224   0.683   0.925   0.197  0.3578 -0.2443  0.2187
   57SOL     OW  225   1.076   1.334   1.203  0.1359 -0.2089  0.0063
   57SOL    HW1  226   1.167   1.361   1.224 -2.6028  2.3049 -0.2068
   57SOL    HW2  227   1.062   1.268   1.273 -0.8626  0.8580  0.8746
   57SOL     MW  228   1.086   1.329   1.215 -0.3572  0.2635  0.0928
   58SOL     OW  229   0.423   1.235   1.302 -0.0947 -0.0072 -0.1719
   58SOL    HW1  230   0.389   1.328   1.314 -0.8589 -0.1392 -0.0888
   58SOL    HW2  231   0.426   1.209   1.392 -2.5940  1.7895  1.3120
   58SOL     MW  232   0.419   1.244   1.316 -0.5253  0.2125  0.0348
   59SOL     OW  233   1.484   1.668   0.394  0.2947  0.3942  0.2763
   59SOL    HW1  234   1.527   1.741   0.427  0.0323 -0.6420 -1.2834
   59SOL    HW2  235   1.401   1.666   0.445  2.9750  1.1406 -1.5966
   59SOL     MW  236   1.479   1.678   0.405  0.6138  0.3560 -0.1766
   60SOL     OW  237   3.043   0.150   1.599 -0.0276  0.2024 -0.3230
   60SOL    HW1  238   2.961   0.201   1.615  1.2293 -2.1357 -0.3977
   60SOL    HW2  239   3.080   0.137   1.683 -1.7595 -1.1776 -2.7549
   60SOL     MW  240   3.037   0.155   1.612 -0.0902 -0.2882 -0.6537
   61SOL     OW  241   1.976   1.379   3.020  0.3734  0.2469  0.5394
   61SOL    HW1  242   1.958   1.354   3.113 -2.1732 -1.5378 -3.0042
   61SOL    HW2  243   2.017   1.302   2.979  2.0402 -0.5981 -2.3709
   61SOL     MW  244   1.979   1.365   3.027  0.2573 -0.1001 -0.3121
   62SOL     OW  245   0.538   1.806   0.528 -0.3907 -0.0275 -0.5183
   62SOL    HW1  246   0.635   1.815   0.530  2.5004 -0.6951 -0.7679
   62SOL    HW2  247   0.516   1.714   0.525 -0.3677 -0.4894 -0.4710
   62SOL     MW  248   0.548   1.795   0.528 -0.0062 -0.1765 -0.5450
   63SOL     OW  249   1.700   0.667   0.511 -0.2086 -0.3485 -0.0931
   63SOL    HW1  250   1.680   0.760   0.524 -1.6933 -1.0672  1.0499
   63SOL    HW2  251   1.616   0.631   0.548 -0.3479 -0.9868 -1.2600
   63SOL     MW  252   1.686   0.674   0.518 -0.4229 -0.5275 -0.0963
   64SOL     OW  253   0.190   1.704   0.630  0.0971  0.2402  0.0157
   64SOL    HW1  254   0.261   1.768   0.632 -1.1415  3.5974 -0.4748
   64SOL    HW2  255   0.125   1.754   0.686 -0.5490  0.5374  3.4931
   64SOL     MW  256   0.191   1.719   0.637 -0.1516  0.7223  0.4098
   65SOL     OW  257   1.570   2.332   0.394 -0.1033 -0.2064  0.3619
   65SOL    HW1  258   1.651   2.369   0.423 -1.8485 -0.7299 -0.4652
   65SOL    HW2  259   1.509   2.357   0.464 -1.0134  1.4996  1.9912
   65SOL     MW  260   1.572   2.340   0.407 -0.4536 -0.0503  0.4677
   66SOL     OW  261   0.396   0.583   0.523 -0.4238  0.2089  0.0868
   66SOL    HW1  262   0.476   0.567   0.471 -1.9337 -0.0141  0.7954
   66SOL    HW2  263   0.372   0.678   0.514  0.3055  0.3829 -1.8191
   66SOL     MW  264   0.404   0.593   0.515 -0.5268  0.2024 -0.0712
   67SOL     OW  265   1.355   0.098   1.947  0.0662  0.2497 -0.5326
   67SOL    HW1  266   1.363   0.131   1.857  1.5057  0.8276 -0.4085
   67SOL    HW2  267   1.324   0.010   1.938  3.2476 -0.0009 -1.4379
   67SOL     MW  268   1.352   0.091   1.934  0.6759  0.2929 -0.6357
   68SOL     OW  269   0.802   0.102   2.835  0.2167  0.2695  0.0622
   68SOL    HW1  270   0.794   0.187   2.795 -0.2502 -0.1048  1.1715
   68SOL    HW2  271   0.876   0.114   2.898  0.2958  1.5464  2.4289
   68SOL     MW  272   0.811   0.115   2.838  0.1656  0.3886  0.5208
   69SOL     OW  273   1.082   0.258   1.969 -0.2365 -0.0888 -0.0196
   69SOL    HW1  274   1.180   0.260   1.966  1.3921  0.7426 -0.8909
   69SOL    HW2  275   1.048   0.197   2.043 -0.6727  1.1756 -1.1324
   69SOL     MW  276   1.091   0.250   1.978 -0.0792  0.1877 -0.2814
   70SOL     OW  277   0.549   1.658   1.130  0.1940  0.0535  0.4763
   70SOL    HW1  278   0.631   1.696   1.164  0.2716 -3.7297  0.7323
   70SOL    HW2  279   0.585   1.597   1.065  0.9235 -1.3506 -3.0917
   70SOL     MW  280   0.564   1.655   1.126  0.3005 -0.6309  0.0393
   71SOL     OW  281   1.568   0.645   1.226 -0.4377  0.2665  0.2197
   71SOL    HW1  282   1.521   0.710   1.279 -2.9375  2.8646  0.0750
   71SOL    HW2  283   1.580   0.689   1.148  2.1885  0.7319  0.9285
   71SOL     MW  284   1.563   0.659   1.223 -0.4210  0.6707  0.2941
   72SOL     OW  285   0.785   1.823   1.089 -0.1849 -0.4128 -0.0595
   72SOL    HW1  286   0.795   1.869   1.007 -0.2472 -0.5208  0.4375
   72SOL    HW2  287   0.817   1.737   1.067 -1.0798 -0.2773  0.3243
   72SOL     MW  288   0.790   1.818   1.075 -0.3112 -0.4092  0.0567
   73SOL     OW  289   1.087   0.680   1.138  0.0330  1.0753  0.4578
   73SOL    HW1  290   0.997   0.652   1.150  0.9046 -1.7750  1.5028
   73SOL    HW2  291   1.098   0.739   1.221 -0.4826  0.1498  1.3242
   73SOL     MW  292   1.077   0.684   1.150  0.0800  0.5771  0.7100
   74SOL     OW  293   2.815   0.111   0.982 -0.1044  0.5452 -0.0646
   74SOL    HW1  294   2.903   0.136   0.953 -0.0930  1.3788  1.8178
   74SOL    HW2  295   2.761   0.165   0.925 -0.2278 -0.0300  1.1974
   74SOL     MW  296   2.819   0.122   0.970 -0.1192  0.5793  0.3503
   75SOL     OW  297   1.459   1.316   0.192  0.1899 -0.2918  0.2568
   75SOL    HW1  298   1.529   1.265   0.152 -1.6226  0.2794  2.0981
   75SOL    HW2  299   1.504   1.328   0.275  1.5345 -0.1233 -0.9759
   75SOL     MW  300   1.474   1.311   0.197  0.1282 -0.1942  0.3371
   76SOL     OW  301   3.019   0.675   0.451  0.0825  0.0305 -0.6786
   76SOL    HW1  302   3.027   0.741   0.523 -1.9372 -2.0874  1.4336
   76SOL    HW2  303   3.101   0.626   0.444 -0.5547  1.1870 -0.6178
   76SOL     MW  304   3.031   0.678   0.460 -0.2681 -0.0964 -0.3919
   77SOL     OW  305   0.862   0.590   0.444  0.4744  0.2793 -0.1283
   77SOL    HW1  306   0.837   0.611   0.354 -0.2333 -0.8381  1.2935
   77SOL    HW2  307   0.832   0.493   0.449 -1.3847 -0.1350  1.3477
   77SOL     MW  308   0.855   0.580   0.433  0.1357  0.0772  0.2540
   78SOL     OW  309   0.761   0.868   1.109 -0.8286 -0.2739  0.1246
   78SOL    HW1  310   0.777   0.951   1.064 -0.7959  0.7040 -0.8892
   78SOL    HW2  311   0.671   0.875   1.147  0.5224  0.3855  0.9351
   78SOL     MW  312   0.751   0.879   1.108 -0.6460 -0.0579  0.0977
   79SOL     OW  313   1.928   1.498   0.589  0.5907  0.3400  0.5213
   79SOL    HW1  314   1.837   1.501   0.626 -1.3132 -1.6686  0.8247
   79SOL    HW2  315   1.976   1.448   0.658 -2.6406 -1.0542 -0.7793
   79SOL     MW  316   1.922   1.492   0.603 -0.0868 -0.1089  0.3897
   80SOL     OW  317   0.229   0.994   0.280  0.2506 -0.4297 -0.7206
   80SOL    HW1  318   0.163   0.945   0.227 -1.0281  0.7223 -2.9238
   80SOL    HW2  319   0.259   0.936   0.355  0.4890 -1.2014 -1.0453
   80SOL     MW  320   0.224   0.980   0.283  0.1133 -0.3795 -1.0541
   81SOL     OW  321   1.763   1.821   0.262 -0.0953  0.0324 -0.2591
   81SOL    HW1  322   1.718   1.731   0.245  0.0547  1.8741 -0.9121
   81SOL    HW2  323   1.711   1.885   0.216 -1.4583  0.6247  0.2517
   81SOL     MW  324   1.750   1.817   0.254 -0.2553  0.3535 -0.2779
   82SOL     OW  325   0.937   1.020   0.549 -0.3490  0.3426 -0.6202
   82SOL    HW1  326   0.886   1.083   0.493  0.9870  0.1867 -1.3972
   82SOL    HW2  327   0.871   0.951   0.566 -0.2340  0.5744 -0.6341
   82SOL     MW  328   0.922   1.019   0.544 -0.1576  0.3526 -0.7245
   83SOL     OW  329   0.015   0.724   1.479  0.0994  0.7762 -0.9372
   83SOL    HW1  330   0.005   0.786   1.407  0.1066  3.5243 -1.1779
   83SOL    HW2  331   0.096   0.674   1.455 -1.3363 -1.3681 -1.3711
   83SOL     MW  332   0.024   0.726   1.467 -0.0891  0.8559 -1.0262
   84SOL     OW  333  -0.001   0.197   0.929  0.0425 -0.4541 -0.3697
   84SOL    HW1  334   0.004   0.291   0.968 -0.5847 -0.1725  1.9008
   84SOL    HW2  335   0.018   0.133   1.000  2.9798 -2.0906  0.6584
   84SOL     MW  336   0.002   0.201   0.944  0.3473 -0.6329  0.0655
   85SOL     OW  337   0.378   0.461   0.767  0.6922  0.4000 -0.2052
   85SOL    HW1  338   0.375   0.493   0.673  2.6079  0.4716 -1.8415
   85SOL    HW2  339   0.337   0.371   0.776 -1.7137 -0.0580 -0.4959
   85SOL     MW  340   0.372   0.453   0.756  0.6275  0.3490 -0.4594
   86SOL     OW  341   1.291   0.241   1.210 -0.2804 -0.5863  0.1236
   86SOL    HW1  342   1.254   0.305   1.145 -0.0041 -0.1876 -2.0728
   86SOL    HW2  343   1.382   0.279   1.219  1.1814 -0.4395 -2.6677
   86SOL     MW  344   1.298   0.255   1.203 -0.0511 -0.5143 -0.5344
   87SOL     OW  345   0.952   1.586   1.195 -0.3274 -0.1833  0.3167
   87SOL    HW1  346   1.011   1.653   1.150 -3.7537 -0.4858 -1.7809
   87SOL    HW2  347   0.999   1.503   1.195 -1.0077 -0.1739  0.6016
   87SOL     MW  348   0.966   1.584   1.189 -0.8692 -0.2220  0.0775
   88SOL     OW  349   1.186   1.118   1.015  0.7501 -0.2638  0.3434
   88SOL    HW1  350   1.272   1.124   0.981  1.5973  0.8296  1.5116
   88SOL    HW2  351   1.171   1.180   1.086 -1.1551 -0.7048  0.9797
   88SOL     MW  352   1.195   1.127   1.020  0.6105 -0.1777  0.5815
   89SOL     OW  353   1.794   0.727   0.221  0.1361 -0.4387  0.0080
   89SOL    HW1  354   1.732   0.687   0.280 -0.2310 -1.4041  1.5612
   89SOL    HW2  355   1.878   0.727   0.278  0.0696  1.4061  0.4704
   89SOL     MW  356   1.797   0.722   0.236  0.0789 -0.3227  0.2740
   90SOL     OW  357   0.748   1.185   2.767 -1.0727 -0.5120  0.0221
   90SOL    HW1  358   0.812   1.123   2.743 -2.1702  1.1649 -2.1726
   90SOL    HW2  359   0.781   1.222   2.847  0.8886 -2.7583 -1.0507
   90SOL     MW  360   0.761   1.182   2.775 -0.9587 -0.5871 -0.4090
   91SOL     OW  361   2.246   0.624   0.531 -0.5175  0.2679  0.2256
   91SOL    HW1  362   2.289   0.693   0.483 -3.2821  0.5479  0.3070
   91SOL    HW2  363   2.278   0.544   0.490 -2.5161 -0.4803  1.0901
   91SOL     MW  364   2.256   0.622   0.519 -1.1460  0.2061  0.3504
   92SOL     OW  365   1.652   0.938   0.495 -0.0200  0.4309  0.2634
   92SOL    HW1  366   1.579   0.978   0.547 -0.9179 -0.9204  0.0404
   92SOL    HW2  367   1.627   0.956   0.401  0.0500 -0.6276 -1.9507
   92SOL     MW  368   1.639   0.945   0.490 -0.1292  0.1129 -0.0582
   93SOL     OW  369   1.098   0.216   0.389  0.2194 -0.4624 -0.4074
   93SOL    HW1  370   1.006   0.246   0.398 -0.2318  2.2553  0.8595
   93SOL    HW2  371   1.125   0.259   0.304 -2.9249  3.9182  0.3527
   93SOL     MW  372   1.089   0.225   0.379 -0.2550  0.4741 -0.1400
   94SOL     OW  373   1.899   1.381   1.554  0.0373  0.3048 -0.7345
   94SOL    HW1  374   1.903   1.366   1.456 -1.8625 -0.6225 -1.6085
   94SOL    HW2  375   1.874   1.288   1.590 -2.7200 -2.1500 -1.4809
   94SOL     MW  376   1.896   1.367   1.546 -0.5772 -0.1414 -0.9483
   95SOL     OW  377   0.619   1.501   0.931  0.3999 -0.0762 -0.1579
   95SOL    HW1  378   0.695   1.446   0.941  1.9288 -2.0164 -1.2278
   95SOL    HW2  379   0.543   1.447   0.893 -0.6171  0.3314  1.0832
   95SOL     MW  380   0.619   1.486   0.927  0.4674 -0.2784 -0.1353
   96SOL     OW  381   1.305   1.825   1.728 -0.3772  0.1510  0.8240
   96SOL    HW1  382   1.231   1.819   1.787 -2.2070  0.7881  0.7533
   96SOL    HW2  383   1.314   1.747   1.674 -0.4147 -2.3504  1.8365
   96SOL     MW  384   1.297   1.814   1.729 -0.6236 -0.0950  0.9483
   97SOL     OW  385   1.076   1.553   0.845  0.0034 -0.2518  0.1148
   97SOL    HW1  386   1.106   1.619   0.906 -3.3908  0.1603 -1.6573
   97SOL    HW2  387   0.988   1.584   0.829  0.4880  1.0038 -0.6713
   97SOL     MW  388   1.069   1.566   0.851 -0.3805 -0.0318 -0.2227
   98SOL     OW  389   1.372   1.410   1.216  0.2935  0.3440  0.1241
   98SOL    HW1  390   1.435   1.420   1.282 -0.9816 -0.5507 -0.1861
   98SOL    HW2  391   1.413   1.382   1.133  1.5533 -1.0803  0.7000
   98SOL     MW  392   1.386   1.407   1.214  0.2915  0.0381  0.1592
   99SOL     OW  393   1.549   0.341   1.291  0.1693  0.2361  0.0400
   99SOL    HW1  394   1.549   0.435   1.283  0.4160 -1.9880 -2.8884
   99SOL    HW2  395   1.495   0.332   1.374  0.2930  0.5511 -0.1483
   99SOL     MW  396   1.542   0.352   1.301  0.2182 -0.0158 -0.3712
  100SOL     OW  397   1.071   1.151   1.397 -0.2852 -0.6433 -0.5556
  100SOL    HW1  398   1.071   1.188   1.485  0.8198  0.8267 -2.5118
  100SOL    HW2  399   1.105   1.060   1.395 -1.8705  0.9397  1.5401
  100SOL     MW  400   1.076   1.144   1.408 -0.3486 -0.2405 -0.5372
  101SOL     OW  401   0.558   1.247   0.474  0.0902  0.0391  0.1073
  101SOL    HW1  402   0.504   1.258   0.397 -2.9645  0.9644 -0.2916
  101SOL    HW2  403   0.631   1.210   0.427  1.3229  2.1124 -0.9049
  101SOL     MW  404   0.560   1.243   0.457 -0.1502  0.4347 -0.0789
  102SOL     OW  405   2.900   0.600   1.042  0.5624  0.1943 -0.7643
  102SOL    HW1  406   2.958   0.684   1.052 -1.7967 -0.5792 -0.5355
  102SOL    HW2  407   2.858   0.603   1.134 -1.0910  1.4999 -0.0669
  102SOL     MW  408   2.902   0.612   1.055  0.0330  0.2645 -0.6421
  103SOL     OW  409   1.892   0.266   1.785 -0.1067  0.1035  0.3556
  103SOL    HW1  410   1.871   0.189   1.735 -0.8067  1.2266  0.6911
  103SOL    HW2  411   1.876   0.245   1.876 -0.6089  2.5102 -1.1515
  103SOL     MW  412   1.887   0.253   1.790 -0.2653  0.5692  0.2011
  104SOL     OW  413   0.053   1.546   1.671  0.1233 -0.0339  0.2245
  104SOL    HW1  414   0.108   1.471   1.688  1.9543 -0.6366 -3.3493
  104SOL    HW2  415  -0.032   1.513   1.692  0.7139  2.5680 -0.9654
  104SOL     MW  416   0.049   1.532   1.676  0.4428  0.2299 -0.4041
  105SOL     OW  417   0.138   1.205   0.421  0.3316  0.0529  0.9252
  105SOL    HW1  418   0.153   1.117   0.385 -0.7639 -0.2691 -0.6315
  105SOL    HW2  419   0.214   1.249   0.388  0.3930  1.5870  0.5083
  105SOL     MW  420   0.150   1.199   0.412  0.1952  0.2128  0.6648
  106SOL     OW  421   0.859   0.235   0.871 -0.3049  0.1572  0.3933
  106SOL    HW1  422   0.813   0.315   0.836 -1.1058  0.6461  2.1040
  106SOL    HW2  423   0.954   0.246   0.880  1.4008  1.1813 -1.9235
  106SOL     MW  424   0.866   0.247   0.867 -0.1856  0.3568  0.3134
  107SOL     OW  425   0.804   2.164   2.880  0.3196 -0.7574 -0.1076
  107SOL    HW1  426   0.712   2.200   2.893 -1.0131 -0.2622  0.9289
  107SOL    HW2  427   0.805   2.092   2.946  1.9465 -1.5783  2.9439
  107SOL     MW  428   0.792   2.159   2.891  0.3585 -0.8004  0.4318
  108SOL     OW  429   1.323   1.542   1.649 -0.0563 -0.6264  0.0273
  108SOL    HW1  430   1.265   1.501   1.588 -1.0938  2.7670  3.7619
  108SOL    HW2  431   1.410   1.508   1.633  1.2119  1.5453  4.1774
  108SOL     MW  432   1.327   1.532   1.639 -0.0258  0.1078  1.0676
  109SOL     OW  433   2.014   0.753   0.375  0.0336  0.0355 -0.5191
  109SOL    HW1  434   1.998   0.845   0.369  0.0947 -0.8871 -0.5114
  109SOL    HW2  435   2.052   0.741   0.459 -1.3388 -1.9217  0.1780
  109SOL     MW  436   2.017   0.763   0.386 -0.1394 -0.3445 -0.4261
  110SOL     OW  437   0.392   1.901   0.739 -0.0391  0.3649 -0.9652
  110SOL    HW1  438   0.447   1.876   0.663 -0.1479  1.9516  0.0232
  110SOL    HW2  439   0.419   1.988   0.754 -0.7554 -0.7578 -1.7940
  110SOL     MW  440   0.403   1.909   0.731 -0.1479  0.4261 -0.9441
  111SOL     OW  441   0.854   0.852   1.368  0.0794 -0.3604  0.1304
  111SOL    HW1  442   0.822   0.861   1.275 -1.9719  2.0606 -0.8948
  111SOL    HW2  443   0.789   0.788   1.402 -2.5817  0.8293  0.6571
  111SOL     MW  444   0.841   0.845   1.360 -0.5423  0.1160  0.0646
  112SOL     OW  445   1.307   1.162   1.656 -0.5784  0.2823  0.1522
  112SOL    HW1  446   1.221   1.198   1.635 -2.6053  1.5193 -0.8682
  112SOL    HW2  447   1.303   1.064   1.666  1.3042 -0.9419  0.2162
  112SOL     MW  448   1.295   1.154   1.655 -0.5974  0.2840  0.0260
  113SOL     OW  449   1.250   2.994   1.713  0.3731  0.3365 -0.0191
  113SOL    HW1  450   1.217   2.933   1.781  0.0544 -1.5203  0.0170
  113SOL    HW2  451   1.200   2.963   1.635  0.6649 -2.4101 -0.3486
  113SOL     MW  452   1.239   2.982   1.712  0.3695 -0.2709 -0.0578
  114SOL     OW  453   0.333   2.888   1.850 -0.1579 -0.4322  0.0829
  114SOL    HW1  454   0.403   2.955   1.855 -0.0514  0.6223 -5.9656
  114SOL    HW2  455   0.273   2.906   1.923 -1.1484  0.5774 -3.0833
  114SOL     MW  456   0.334   2.899   1.860 -0.2745 -0.1599 -1.1329
  115SOL     OW  457   0.494   0.865   1.172 -0.1357 -0.1593 -0.3836
  115SOL    HW1  458   0.493   0.778   1.130  1.2182  0.2972 -0.1306
  115SOL    HW2  459   0.455   0.854   1.264  1.4074 -0.8862 -0.2026
  115SOL     MW  460   0.489   0.852   1.178  0.2466 -0.1950 -0.3263
  116SOL     OW  461   0.723   1.099   0.984  0.3536 -0.2654 -0.1185
  116SOL    HW1  462   0.737   1.132   0.894  0.4626  1.2451 -0.2463
  116SOL    HW2  463   0.715   1.180   1.037  1.7797  2.1509  0.0022
  116SOL     MW  464   0.724   1.114   0.979  0.5561  0.2527 -0.1194
  117SOL     OW  465   1.091   1.262   0.807 -0.0335  0.4903 -0.0309
  117SOL    HW1  466   1.104   1.208   0.881  1.0675  1.0502  0.0896
  117SOL    HW2  467   1.069   1.346   0.844 -2.0986 -1.2212 -0.1719
  117SOL     MW  468   1.090   1.266   0.822 -0.1607  0.3383 -0.0336
  118SOL     OW  469   3.078   2.927   1.852 -0.6270 -0.3705  0.0362
  118SOL    HW1  470   3.106   3.003   1.898 -0.8651  0.3866  4.4360
  118SOL    HW2  471   3.000   2.956   1.798 -1.6868 -1.0991 -0.9629
  118SOL     MW  472   3.071   2.941   1.851 -0.7983 -0.3667  0.4849
  119SOL     OW  473   0.374   1.515   1.285  0.5080  0.0699 -0.0879
  119SOL    HW1  474   0.441   1.559   1.226  2.7535 -2.0158 -0.9114
  119SOL    HW2  475   0.286   1.531   1.246  0.0486 -0.6121 -1.8349
  119SOL     MW  476   0.371   1.523   1.272  0.7437 -0.2953 -0.4271
  120SOL     OW  477   0.295   0.869   0.951  0.1445 -0.6725  0.1908
  120SOL    HW1  478   0.322   0.855   1.042 -2.7054  2.6732  0.5032
  120SOL    HW2  479   0.385   0.898   0.925  0.0364  0.9438  0.4087
  120SOL     MW  480   0.311   0.871   0.959 -0.2458 -0.0178  0.2608
  121SOL     OW  481   1.760   1.149   1.622 -0.1877  0.0684  0.2319
  121SOL    HW1  482   1.670   1.149   1.588 -0.8460  1.2833 -0.8640
  121SOL    HW2  483   1.807   1.085   1.565 -1.6653  1.1356 -1.2028
  121SOL     MW  484   1.755   1.140   1.610 -0.4695  0.3695 -0.1020
  122SOL     OW  485   0.167   0.627   0.816  0.6617 -0.0984 -0.5638
  122SOL    HW1  486   0.227   0.548   0.794 -0.0124 -0.0959 -2.9033
  122SOL    HW2  487   0.222   0.684   0.867 -1.0437  1.9233 -0.5914
  122SOL     MW  488   0.182   0.624   0.820  0.3478  0.1687 -0.8761
  123SOL     OW  489   1.827   1.128   0.561 -0.4192 -0.2930 -0.3116
  123SOL    HW1  490   1.766   1.056   0.543 -0.6487  0.2646 -2.7686
  123SOL    HW2  491   1.906   1.089   0.608 -0.6621  1.7275  2.4957
  123SOL     MW  492   1.830   1.113   0.565 -0.4815  0.0472 -0.2654
  124SOL     OW  493   0.678   0.482   0.808  0.1847 -0.1371  0.1133
  124SOL    HW1  494   0.588   0.468   0.795 -0.4092  1.3510 -1.9362
  124SOL    HW2  495   0.695   0.577   0.816  0.6903  1.3557  0.7599
  124SOL     MW  496   0.669   0.493   0.807  0.1731  0.2562 -0.0718
  125SOL     OW  497   0.655   1.770   1.739 -0.0422 -0.2822  0.3023
  125SOL    HW1  498   0.666   1.746   1.649  0.7767 -1.7747  2.4441
  125SOL    HW2  499   0.626   1.866   1.733 -0.7784  0.5260  0.7674
  125SOL     MW  500   0.652   1.779   1.726 -0.0313 -0.3725  0.6462
  126SOL     OW  501   2.098   1.552   1.859 -0.6894  0.4909 -0.2748
  126SOL    HW1  502   2.151   1.636   1.860 -0.7945  0.8643 -2.1008
  126SOL    HW2  503   2.163   1.482   1.875  0.6266  1.5448  0.3827
  126SOL     MW  504   2.114   1.554   1.862 -0.5296  0.6792 -0.4290
  127SOL     OW  505   0.545   0.789   1.842  0.3017 -0.1615  0.1380
  127SOL    HW1  506   0.631   0.840   1.846  0.3783  4.8498  0.9340
  127SOL    HW2  507   0.505   0.834   1.922 -2.7073  0.6335  0.7240
  127SOL     MW  508   0.551   0.801   1.853 -0.0852  0.6046  0.3203
  128SOL     OW  509   1.745   0.733   2.863  0.2842  0.0189  0.1789
  128SOL    HW1  510   1.793   0.713   2.781 -0.4812  0.1133  0.3972
  128SOL    HW2  511   1.740   0.830   2.870 -2.5349  0.0466 -0.0457
  128SOL     MW  512   1.751   0.743   2.853 -0.1888  0.0350  0.1780
  129SOL     OW  513   1.632   0.952   0.171  0.0976 -0.2247  0.6172
  129SOL    HW1  514   1.545   0.930   0.145  0.5573  2.5531  0.3905
  129SOL    HW2  515   1.673   0.870   0.186 -2.1839 -1.4029 -0.6829
  129SOL     MW  516   1.626   0.938   0.169 -0.1428 -0.0136  0.4158
  130SOL     OW  517   0.871   1.461   0.378 -0.3036 -0.1507  0.2516
  130SOL    HW1  518   0.858   1.479   0.473  1.4045 -0.0615  2.6549
  130SOL    HW2  519   0.966   1.460   0.361  2.8023  1.8128  0.4735
  130SOL     MW  520   0.881   1.463   0.388  0.3316  0.1201  0.5980
  131SOL     OW  521   0.054   0.839   0.052 -0.4031 -0.1856  0.0703
  131SOL    HW1  522   0.043   0.881  -0.030  1.6583  0.4202  1.7253
  131SOL    HW2  523   0.104   0.755   0.033 -0.7908  1.3295  1.3691
  131SOL     MW  524   0.059   0.834   0.039 -0.1823  0.0942  0.4600
  132SOL     OW  525   2.690   0.072   1.235 -0.3423  0.2635 -0.4969
  132SOL    HW1  526   2.748   0.084   1.159 -0.0828  3.4221  0.5505
  132SOL    HW2  527   2.606   0.025   1.209  0.1042  1.5709  2.2815
  132SOL     MW  528   2.687   0.067   1.222 -0.2492  0.8527  0.0078
  133SOL     OW  529   1.084   0.138   1.722  0.3595  0.2598  0.7214
  133SOL    HW1  530   1.123   0.049   1.729 -1.7285 -2.1746  0.0538
  133SOL    HW2  531   1.087   0.166   1.813  0.5653  0.9991 -1.4885
  133SOL     MW  532   1.090   0.130   1.735  0.1111  0.0361  0.3418
  134SOL     OW  533   1.407   2.473   1.478 -0.2889 -0.1787 -0.1090
  134SOL    HW1  534   1.348   2.551   1.462 -0.0527  0.9536 -1.2298
  134SOL    HW2  535   1.433   2.494   1.574 -0.3459  0.7627  3.8695
  134SOL     MW  536   1.403   2.486   1.489 -0.2652  0.0949  0.2681
  135SOL     OW  537   2.981   1.008   2.923 -0.1847 -0.1643 -0.1653
  135SOL    HW1  538   3.052   1.052   2.962 -1.1513 -4.0207 -2.5600
  135SOL    HW2  539   2.932   1.079   2.873  3.4285  2.2333 -1.6742
  135SOL     MW  540   2.984   1.023   2.921  0.1645 -0.3568 -0.6803
  136SOL     OW  541   0.138   1.991   0.840  0.3853 -0.0339 -0.3293
  136SOL    HW1  542   0.070   1.929   0.823  0.2550 -0.3258  1.3701
  136SOL    HW2  543   0.218   1.959   0.801 -2.5102 -2.7015 -0.3851
  136SOL     MW  544   0.140   1.979   0.833 -0.0139 -0.4244 -0.1124
  137SOL     OW  545   0.738   2.102   0.629 -0.2052 -0.0315  0.2561
  137SOL    HW1  546   0.775   2.076   0.712  0.5385 -0.2381  0.6842
  137SOL    HW2  547   0.641   2.110   0.642  0.2892 -0.5449  0.9264
  137SOL     MW  548   0.730   2.099   0.642 -0.0419 -0.1265  0.4010
  138SOL     OW  549   0.525   0.622   1.041  0.0671 -0.3858 -0.5966
  138SOL    HW1  550   0.481   0.542   1.022  1.5157 -1.1209 -0.7302
  138SOL    HW2  551   0.600   0.615   0.990 -3.3038 -1.4896  2.4079
  138SOL     MW  552   0.529   0.611   1.032 -0.1866 -0.6284 -0.2178
  139SOL     OW  553   2.820   0.478   1.319 -0.3428 -0.0067  0.1251
  139SOL    HW1  554   2.920   0.463   1.312 -0.3570 -1.1610 -0.6009
  139SOL    HW2  555   2.810   0.527   1.403 -2.0613  0.0518 -1.4070
  139SOL     MW  556   2.832   0.482   1.329 -0.5714 -0.1513 -0.1728
  140SOL     OW  557   0.886   0.488   1.954 -0.4953 -0.3810  0.2582
  140SOL    HW1  558   0.940   0.409   1.970 -0.7818 -2.0243  1.8804
  140SOL    HW2  559   0.849   0.504   2.036  0.2035 -0.5889 -1.2606
  140SOL     MW  560   0.888   0.480   1.967 -0.4409 -0.6253  0.2718
  141SOL     OW  561   1.131   0.683   1.714 -0.1785  0.0232  0.1183
  141SOL    HW1  562   1.145   0.624   1.631 -0.7307 -0.0790  0.4942
  141SOL    HW2  563   1.194   0.653   1.777  2.6508  0.0516  0.7716
  141SOL     MW  564   1.141   0.671   1.711  0.1220  0.0135  0.2541
  142SOL     OW  565   0.816   1.198   0.724 -0.0085  0.4051 -0.1343
  142SOL    HW1  566   0.854   1.137   0.665  1.1920  0.9897 -1.3331
  142SOL    HW2  567   0.892   1.248   0.759  0.6848  1.9645 -0.1610
  142SOL     MW  568   0.831   1.197   0.721  0.2414  0.6880 -0.2960
  143SOL     OW  569   1.809   0.820   1.023 -0.2038  1.0840 -0.4048
  143SOL    HW1  570   1.874   0.776   0.973 -2.7096  0.1788  2.0476
  143SOL    HW2  571   1.725   0.794   0.987 -1.3446 -1.1137 -1.0641
  143SOL     MW  572   1.807   0.811   1.012 -0.6849  0.6746 -0.1682
  144SOL     OW  573   0.239   1.341   1.753  0.0953 -0.0418  0.1320
  144SOL    HW1  574   0.313   1.397   1.744 -0.8957 -2.5329 -1.3718
  144SOL    HW2  575   0.229   1.327   1.843 -3.2302 -0.3396 -2.6336
  144SOL     MW  576   0.248   1.346   1.763 -0.4743 -0.4098 -0.4313
  145SOL     OW  577   0.225   0.486   1.189  0.3390 -0.0898  0.2125
  145SOL    HW1  578   0.267   0.402   1.199 -1.5273  0.5161  0.1577
  145SOL    HW2  579   0.157   0.475   1.117  1.2261 -2.0822 -1.4239
  145SOL     MW  580   0.221   0.473   1.181  0.2098 -0.2727 -0.0106
  146SOL     OW  581   0.801   1.971   1.555  0.0368 -0.4066 -0.2629
  146SOL    HW1  582   0.854   2.004   1.479 -2.0923 -0.8184 -0.3375
  146SOL    HW2  583   0.770   1.885   1.527 -1.1094 -0.6774  0.3652
  146SOL     MW  584   0.804   1.964   1.542 -0.3953 -0.4966 -0.1899
  147SOL     OW  585   0.388   0.517   3.012  0.0795 -0.1094 -0.3431
  147SOL    HW1  586   0.294   0.537   3.040 -1.2540  0.8770 -0.3558
  147SOL    HW2  587   0.384   0.544   2.917  0.5564  0.5549 -0.6671
  147SOL     MW  588   0.375   0.524   3.003 -0.0335  0.1084 -0.3875
  148SOL     OW  589   0.042   0.909   1.270  0.2345  0.1079 -0.2005
  148SOL    HW1  590   0.136   0.901   1.296  2.8379  1.3830  1.5968
  148SOL    HW2  591   0.021   1.002   1.281  1.0079 -1.6826  0.6458
  148SOL     MW  592   0.052   0.920   1.275  0.6800  0.0399  0.1483
  149SOL     OW  593   1.526   1.188   1.455  0.7066 -0.5104 -0.2253
  149SOL    HW1  594   1.446   1.187   1.508 -3.3319  0.3992  1.0106
  149SOL    HW2  595   1.558   1.280   1.454  2.9419 -0.0878  0.4146
  149SOL     MW  596   1.520   1.200   1.462  0.4687 -0.3347  0.0222
  150SOL     OW  597   1.723   1.430   0.884  0.1064 -0.2465 -0.4649
  150SOL    HW1  598   1.774   1.355   0.918  0.9210  0.3914  2.3882
  150SOL    HW2  599   1.778   1.513   0.880 -0.6012  0.9556  1.5921
  150SOL     MW  600   1.737   1.431   0.888  0.1205 -0.0037  0.1829
  151SOL     OW  601   1.606   1.833   0.799 -0.4399 -0.3704 -0.4400
  151SOL    HW1  602   1.612   1.817   0.704  1.2859  4.9689  0.5185
  151SOL    HW2  603   1.530   1.794   0.832  1.3572 -0.9957 -0.5625
  151SOL     MW  604   1.597   1.825   0.791  0.0249  0.2516 -0.3297
  152SOL     OW  605   0.638   1.379   1.629 -0.1554 -0.2678 -0.1615
  152SOL    HW1  606   0.691   1.401   1.551  2.5955  2.3215 -1.0699
  152SOL    HW2  607   0.575   1.316   1.593  0.0487  2.6379  1.9984
  152SOL     MW  608   0.636   1.373   1.614  0.2345  0.4572  0.0036
  153SOL     OW  609   2.625   1.232   0.718 -0.0602 -0.2701 -0.1253
  153SOL    HW1  610   2.701   1.220   0.660 -1.5885 -0.2008  0.4504
  153SOL    HW2  611   2.585   1.147   0.719  2.3627  3.0224 -0.5408
  153SOL     MW  612   2.630   1.220   0.710  0.0578  0.1734 -0.1042
  154SOL     OW  613   0.144   1.799   1.780  0.8464  0.4439  0.3078
  154SOL    HW1  614   0.103   1.709   1.750  0.2318 -2.4231  0.4843
  154SOL    HW2  615   0.235   1.793   1.815  0.9728 -1.0914 -1.1269
  154SOL     MW  616   0.151   1.786   1.780  0.7820 -0.1370  0.1418
  155SOL     OW  617   1.167   0.710   0.284 -0.0411  0.3661  0.2902
  155SOL    HW1  618   1.144   0.675   0.365 -2.8945 -0.0408 -4.3514
  155SOL    HW2  619   1.150   0.810   0.291 -0.1219  2.4803  0.4107
  155SOL     MW  620   1.162   0.719   0.295 -0.4283  0.5914 -0.3063
  156SOL     OW  621   1.570   3.091   1.115  0.3270 -0.4701 -0.1946
  156SOL    HW1  622   1.605   3.144   1.193  3.6861  2.5625  1.7271
  156SOL    HW2  623   1.597   3.002   1.135  0.5617  1.4347 -0.4382
  156SOL     MW  624   1.578   3.086   1.128  0.8012  0.1813  0.0268
  157SOL     OW  625   1.285   1.100   0.166  0.1920 -0.5362  0.4318
  157SOL    HW1  626   1.275   1.030   0.230  0.7690 -1.5046  1.0068
  157SOL    HW2  627   1.347   1.169   0.187  0.0272  0.4706 -1.5704
  157SOL     MW  628   1.291   1.100   0.177  0.2464 -0.5311  0.2435
  158SOL     OW  629   0.296   1.626   2.361 -0.5589 -0.2843 -0.3497
  158SOL    HW1  630   0.314   1.660   2.277 -0.6673 -0.5260  1.4750
  158SOL    HW2  631   0.207   1.643   2.388  0.1045  0.4188  1.5531
  158SOL     MW  632   0.287   1.633   2.353 -0.4857 -0.2234  0.1421
  159SOL     OW  633   1.234   1.726   0.489 -0.0898 -0.0178  0.0046
  159SOL    HW1  634   1.194   1.655   0.435 -1.0896 -1.3136  0.6409
  159SOL    HW2  635   1.152   1.765   0.530 -0.6676  2.6097  1.6223
  159SOL     MW  636   1.218   1.722   0.487 -0.2979  0.1579  0.3020
  160SOL     OW  637   0.495   1.176   1.556  0.3138 -0.3636 -0.5344
  160SOL    HW1  638   0.451   1.120   1.620 -0.9969  3.7320 -0.5635
  160SOL    HW2  639   0.576   1.127   1.535  3.4832 -1.1906 -0.6958
  160SOL     MW  640   0.500   1.162   1.562  0.5591  0.0676 -0.5595
  161SOL     OW  641   0.500   2.278   2.677 -0.0361  0.4206 -0.1051
  161SOL    HW1  642   0.416   2.325   2.669  2.5776 -0.1665  2.4385
  161SOL    HW2  643   0.513   2.225   2.596  2.1080 -2.4922 -2.2772
  161SOL     MW  644   0.490   2.277   2.666  0.5916 -0.0412 -0.0561
  162SOL     OW  645   1.070   1.811   1.878  0.3484 -0.2357  0.3018
  162SOL    HW1  646   1.096   1.888   1.925 -2.4582 -0.5961  1.5528
  162SOL    HW2  647   0.990   1.766   1.908 -0.4575  0.1754  0.1107
  162SOL     MW  648   1.063   1.815   1.888 -0.1282 -0.2290  0.4417
  163SOL     OW  649   2.058   3.061   0.814 -0.7185  0.2937  0.4812
  163SOL    HW1  650   2.055   3.126   0.740 -1.5879  0.5956  2.0889
  163SOL    HW2  651   2.009   2.986   0.783  2.8421  1.2556  0.7295
  163SOL     MW  652   2.051   3.060   0.800 -0.3634  0.4604  0.7261
  164SOL     OW  653   0.252   0.232   0.798  0.5542  0.0820  0.4132
  164SOL    HW1  654   0.165   0.206   0.837  1.6943  0.6702  1.4746
  164SOL    HW2  655   0.258   0.168   0.727  1.0335 -0.7970 -0.2584
  164SOL     MW  656   0.241   0.220   0.794  0.7678  0.0437  0.4646
  165SOL     OW  657   1.113   1.263   0.327 -0.4404 -0.3805 -1.2028
  165SOL    HW1  658   1.152   1.230   0.410 -1.0678 -0.4405  1.2797
  165SOL    HW2  659   1.153   1.233   0.252 -1.6959 -2.7521  0.3506
  165SOL     MW  660   1.124   1.255   0.328 -0.6888 -0.7013 -0.6703
  166SOL     OW  661   0.330   1.177   1.039  0.2806 -0.3428 -0.3208
  166SOL    HW1  662   0.355   1.202   1.132 -0.8561  1.5691 -0.0648
  166SOL    HW2  663   0.276   1.103   1.052 -0.5500  0.2768 -0.2545
  166SOL     MW  664   0.326   1.170   1.053  0.0210 -0.0088 -0.2783
  167SOL     OW  665   0.793   1.179   0.366  0.6551  0.4259 -0.4190
  167SOL    HW1  666   0.837   1.264   0.374  3.3889  2.4501  3.7460
  167SOL    HW2  667   0.812   1.146   0.277 -0.6582  0.6533 -1.2878
  167SOL     MW  668   0.801   1.186   0.355  0.8425  0.7230  0.0159
  168SOL     OW  669   1.706   1.655   3.058  0.4658 -0.1555 -0.3732
  168SOL    HW1  670   1.641   1.725   3.065  2.2827  0.0950  2.5800
  168SOL    HW2  671   1.659   1.586   3.009 -0.0863  0.1220 -0.7603
  168SOL     MW  672   1.691   1.655   3.052  0.6327 -0.0858 -0.0346
  169SOL     OW  673   0.290   0.860   1.363 -0.6497 -0.3986  0.7830
  169SOL    HW1  674   0.289   0.776   1.411  0.3231  2.3375 -0.0976
  169SOL    HW2  675   0.303   0.934   1.423  1.1556 -3.7784  3.5722
  169SOL     MW  676   0.291   0.859   1.378 -0.2831 -0.4836  1.0348
  170SOL     OW  677   1.059   1.569   1.472 -0.4743  0.2199  0.5938
  170SOL    HW1  678   1.021   1.637   1.532  0.6434  1.1020 -2.4397
  170SOL    HW2  679   1.015   1.594   1.397 -1.2035 -0.7620  4.5765
  170SOL     MW  680   1.048   1.581   1.470 -0.4231  0.2067  0.7190
  171SOL     OW  681   0.461   1.539   0.516 -0.3367  0.3437  0.7322
  171SOL    HW1  682   0.363   1.533   0.504  0.3811 -0.1934 -2.1874
  171SOL    HW2  683   0.462   1.516   0.605 -1.5893  1.9712  0.1656
  171SOL     MW  684   0.448   1.535   0.527 -0.4073  0.4876  0.2722
  172SOL     OW  685   0.792   0.285   1.294 -0.2538 -0.0232 -0.4841
  172SOL    HW1  686   0.772   0.199   1.259 -3.0865  2.3172  1.0048
  172SOL    HW2  687   0.855   0.276   1.367  2.8278  2.1981  0.8834
  172SOL     MW  688   0.797   0.273   1.299 -0.2210  0.5786 -0.1072
  173SOL     OW  689   0.475   1.766   0.269 -0.0247  0.3241  0.0909
  173SOL    HW1  690   0.508   1.682   0.241 -0.8162  1.0425  0.4683
  173SOL    HW2  691   0.509   1.777   0.360  1.9057 -0.8135 -0.7379
  173SOL     MW  692   0.484   1.756   0.277  0.1256  0.2688  0.0313
  174SOL     OW  693   1.909   0.946   1.478 -0.6257  0.1479  0.5735
  174SOL    HW1  694   1.875   0.854   1.496 -1.8712 -2.5178  0.1709
  174SOL    HW2  695   1.859   0.954   1.394 -0.1023  1.0749 -1.8666
  174SOL     MW  696   1.898   0.935   1.469 -0.7209 -0.0815  0.1985
  175SOL     OW  697   0.600   1.505   0.242 -0.1020 -0.0060  0.1655
  175SOL    HW1  698   0.562   1.495   0.329  0.5334  0.1586 -2.3664
  175SOL    HW2  699   0.687   1.532   0.267 -2.2164  2.0771 -2.0310
  175SOL     MW  700   0.607   1.507   0.257 -0.2971  0.2905 -0.4583
  176SOL     OW  701   0.136   1.504   1.178 -0.4252 -0.5767 -0.6313
  176SOL    HW1  702   0.125   1.465   1.089 -1.2487  0.7885  0.3245
  176SOL    HW2  703   0.059   1.484   1.229  1.6269  0.0947 -2.3533
  176SOL     MW  704   0.124   1.496   1.173 -0.2631 -0.3080 -0.7324
  177SOL     OW  705   0.547   0.256   1.451 -0.5295 -0.3000 -0.6129
  177SOL    HW1  706   0.628   0.261   1.404 -1.0562 -0.9990  0.9402
  177SOL    HW2  707   0.523   0.345   1.475  0.9181 -0.7937  1.4848
  177SOL     MW  708   0.554   0.268   1.448 -0.4080 -0.4574 -0.1312
  178SOL     OW  709   0.011   0.680   2.898  0.6566  0.7269 -0.3957
  178SOL    HW1  710  -0.020   0.632   2.820 -0.9094  2.3896  2.5599
  178SOL    HW2  711   0.088   0.734   2.865 -0.9650 -1.3323  0.5434
  178SOL     MW  712   0.017   0.681   2.883  0.2360  0.6746  0.1181
  179SOL     OW  713   1.587   1.470   1.400 -0.4195 -0.2164  0.1946
  179SOL    HW1  714   1.607   1.503   1.486  3.0213 -0.3012 -0.3395
  179SOL    HW2  715   1.672   1.443   1.364  0.3210  3.6614  0.3275
  179SOL     MW  716   1.601   1.471   1.407  0.1322  0.2840  0.1417
  180SOL     OW  717   0.014   0.216   0.405 -0.5251  0.0004 -0.3634
  180SOL    HW1  718  -0.042   0.262   0.338 -1.2867 -1.6031 -2.3697
  180SOL    HW2  719   0.024   0.270   0.479 -1.4311 -2.8273 -0.8619
  180SOL     MW  720   0.008   0.229   0.406 -0.7451 -0.5843 -0.6939
  181SOL     OW  721   1.048   1.327   0.009 -0.4078  0.3323 -0.2553
  181SOL    HW1  722   1.075   1.414   0.009 -0.7293 -0.2519  0.3055
  181SOL    HW2  723   1.099   1.269  -0.052  2.8947 -0.2810 -1.5638
  181SOL     MW  724   1.059   1.331   0.001 -0.0145  0.1743 -0.3540
  182SOL     OW  725   0.378   0.958   1.707  0.6249  0.4639  0.8039
  182SOL    HW1  726   0.287   0.925   1.713  1.7824 -1.5571 -1.7000
  182SOL    HW2  727   0.439   0.899   1.759  2.1530  1.8773 -1.9323
  182SOL     MW  728   0.374   0.946   1.715  0.9792  0.3837  0.1125
  183SOL     OW  729   1.522   1.736   1.242  0.3103  0.0231 -0.2156
  183SOL    HW1  730   1.610   1.762   1.266  1.2509 -1.1794 -0.1342
  183SOL    HW2  731   1.513   1.650   1.275 -0.7407 -2.4142  2.9810
  183SOL     MW  732   1.532   1.728   1.249  0.2958 -0.4571  0.2169
  184SOL     OW  733   0.860   0.639   1.716 -0.3132 -0.0489  0.3951
  184SOL    HW1  734   0.954   0.652   1.715 -1.0808 -0.2084  1.3668
  184SOL    HW2  735   0.853   0.576   1.787  2.8029  0.0005  0.1056
  184SOL     MW  736   0.872   0.632   1.725 -0.0033 -0.0635  0.4851
  185SOL     OW  737   1.084   0.952   1.833 -0.1071  0.2954 -0.6763
  185SOL    HW1  738   1.070   0.864   1.863 -1.4269 -0.8760  2.6240
  185SOL    HW2  739   1.102   0.997   1.921  0.8771 -0.2486  1.0819
  185SOL     MW  740   1.084   0.947   1.848 -0.1514  0.0691 -0.0089
  186SOL     OW  741   0.277   1.640   1.526 -0.6498 -0.0747  0.0875
  186SOL    HW1  742   0.308   1.604   1.445 -1.7821 -0.8085  2.4651
  186SOL    HW2  743   0.186   1.609   1.535 -0.6591 -2.2616 -0.0309
  186SOL     MW  744   0.269   1.631   1.516 -0.8005 -0.4600  0.3856
  187SOL     OW  745   1.421   0.865   1.342  0.1310  0.1609 -0.5544
  187SOL    HW1  746   1.424   0.900   1.433  1.4674 -0.8289  0.6069
  187SOL    HW2  747   1.336   0.832   1.326  1.9423 -0.8129 -0.0984
  187SOL     MW  748   1.410   0.865   1.352  0.5463 -0.0982 -0.3410
  188SOL     OW  749   1.864   1.205   0.930  0.1199 -0.5177  0.1123
  188SOL    HW1  750   1.919   1.191   1.008 -0.1490  0.5807  0.6583
  188SOL    HW2  751   1.859   1.120   0.884 -1.6385 -0.5463  0.8423
  188SOL     MW  752   1.870   1.192   0.934 -0.1476 -0.3766  0.2806
  189SOL     OW  753   0.747   0.757   0.855  0.1740 -0.0893  0.6785
  189SOL    HW1  754   0.669   0.814   0.843 -0.2307 -1.4088  1.7276
  189SOL    HW2  755   0.771   0.776   0.942 -0.6110  1.1185 -0.6748
  189SOL     MW  756   0.740   0.767   0.865  0.0171 -0.1040  0.6384
  190SOL     OW  757   1.844   0.325   2.063 -0.2659  0.3006  0.4107
  190SOL    HW1  758   1.873   0.288   2.147  2.3304  0.9231  1.3561
  190SOL    HW2  759   1.926   0.379   2.043 -2.2842  2.1100  2.5470
  190SOL     MW  760   1.859   0.328   2.071 -0.1896  0.6214  0.8173
  191SOL     OW  761   1.506   1.084   1.195  0.4505  0.2355 -0.3449
  191SOL    HW1  762   1.515   1.154   1.266 -1.2325  1.4609  1.2525
  191SOL    HW2  763   1.479   1.007   1.249 -0.5727 -0.7483  2.2361
  191SOL     MW  764   1.504   1.083   1.212  0.0934  0.2674  0.2064
  192SOL     OW  765   0.534   2.207   2.929 -0.1420 -0.3697  0.1536
  192SOL    HW1  766   0.505   2.238   2.840  2.7039  1.5426  0.7221
  192SOL    HW2  767   0.547   2.115   2.922 -1.5406  0.8498  0.1473
  192SOL     MW  768   0.532   2.199   2.916  0.0489  0.0435  0.2278
  193SOL     OW  769   0.836   1.657   0.777  0.6877 -0.8499 -0.1595
  193SOL    HW1  770   0.747   1.680   0.819 -2.3097  1.8318  3.9122
  193SOL    HW2  771   0.822   1.565   0.736 -2.0097  0.0609 -2.7322
  193SOL     MW  772   0.822   1.648   0.777 -0.0636 -0.3759  0.0383
  194SOL     OW  773   0.401   1.356   0.829 -0.1858 -0.0919  0.3043
  194SOL    HW1  774   0.370   1.289   0.896 -0.9896  1.2835 -2.8090
  194SOL    HW2  775   0.323   1.381   0.780 -0.1415  1.2341  0.4503
  194SOL     MW  776   0.386   1.351   0.832 -0.2860  0.2645 -0.0872
  195SOL     OW  777   1.211   1.144   3.016  0.0721  0.1156  0.1034
  195SOL    HW1  778   1.256   1.136   3.101  0.7279  3.9283  2.2345
  195SOL    HW2  779   1.149   1.069   3.010  2.6124 -0.3295 -1.6294
  195SOL     MW  780   1.209   1.133   3.026  0.4938  0.5599  0.1560
  196SOL     OW  781   2.268   0.969   0.534  0.2627  0.1311  0.1189
  196SOL    HW1  782   2.304   0.938   0.449  1.6045 -0.3062  2.9311
  196SOL    HW2  783   2.225   1.054   0.520  1.8163 -1.0053  1.4262
  196SOL     MW  784   2.267   0.976   0.521  0.6447 -0.0765  0.6624
  197SOL     OW  785   0.651   1.242   2.230  0.6361 -0.3555  0.8235
  197SOL    HW1  786   0.704   1.207   2.156 -1.9159  0.2815  0.9353
  197SOL    HW2  787   0.645   1.334   2.217  0.5899  0.0953  0.2468
  197SOL     MW  788   0.657   1.249   2.219  0.2933 -0.2119  0.7621
  198SOL     OW  789   2.901   1.382   1.057 -0.2198 -0.2198  0.3204
  198SOL    HW1  790   2.893   1.470   1.026  0.8244 -1.8421 -1.7093
  198SOL    HW2  791   2.813   1.336   1.037 -2.2429 -3.0713 -1.7681
  198SOL     MW  792   2.888   1.388   1.051 -0.3490 -0.8101 -0.2229
  199SOL     OW  793   0.661   1.196   1.825 -0.2701 -0.2615  1.0823
  199SOL    HW1  794   0.570   1.177   1.866  1.5257  2.4548  0.2485
  199SOL    HW2  795   0.638   1.258   1.749 -0.0684 -2.9602  4.1036
  199SOL     MW  796   0.646   1.202   1.820 -0.0066 -0.2592  1.3709
  200SOL     OW  797   1.899   2.964   1.303  0.7378  0.4925  0.3101
  200SOL    HW1  798   1.957   2.979   1.221 -0.5074 -0.2617 -1.7628
  200SOL    HW2  799   1.826   3.030   1.308 -0.1559 -0.0666 -0.3786
  200SOL     MW  800   1.897   2.974   1.293  0.4556  0.3192 -0.0542
  201SOL     OW  801   1.215   0.329   0.845  0.3268 -0.1249 -0.3830
  201SOL    HW1  802   1.184   0.242   0.823 -0.5923  1.7165 -1.1813
  201SOL    HW2  803   1.313   0.335   0.853 -0.1741  2.2188 -2.7871
  201SOL     MW  804   1.224   0.318   0.843  0.1395  0.4273 -0.8055
  202SOL     OW  805   1.388   1.673   0.993 -0.1882  0.7545 -0.3168
  202SOL    HW1  806   1.380   1.579   0.982  0.3844 -1.7281 -0.9502
  202SOL    HW2  807   1.434   1.692   1.079  0.6947 -0.8042  0.8652
  202SOL     MW  808   1.393   1.663   1.003  0.0038  0.2213 -0.2444
  203SOL     OW  809   3.088   0.442   1.325 -0.9379  0.4204 -0.2011
  203SOL    HW1  810   3.099   0.345   1.341  1.6219 -0.8472 -2.1957
  203SOL    HW2  811   3.173   0.454   1.281 -0.0606 -2.2923  0.0297
  203SOL     MW  812   3.101   0.431   1.321 -0.4844 -0.1047 -0.4338
  204SOL     OW  813   1.027   1.812   0.631 -0.2557  0.1691 -0.1965
  204SOL    HW1  814   0.979   1.746   0.680 -1.8242 -0.5114  0.3301
  204SOL    HW2  815   0.960   1.848   0.574 -0.6463 -0.8981 -0.0877
  204SOL     MW  816   1.012   1.808   0.630 -0.5142 -0.0615 -0.1127
  205SOL     OW  817   1.372   2.995   1.377 -0.3908 -0.0142  0.1783
  205SOL    HW1  818   1.359   2.966   1.289  0.6008  0.9615 -1.7105
  205SOL    HW2  819   1.325   3.076   1.390 -1.6609 -0.1287 -1.5911
  205SOL     MW  820   1.364   3.002   1.368 -0.4276  0.0994 -0.3044
  206SOL     OW  821   0.326   2.873   1.386 -0.1378 -0.0400  0.2741
  206SOL    HW1  822   0.307   2.914   1.300 -1.0268 -0.7447  0.1652
  206SOL    HW2  823   0.419   2.865   1.396  0.0138  0.6649  2.4216
  206SOL     MW  824   0.336   2.878   1.376 -0.2351 -0.0399  0.5431
  207SOL     OW  825   0.832   1.708   0.221 -0.5372 -0.2883  0.3092
  207SOL    HW1  826   0.900   1.755   0.173 -0.3548 -1.8706 -1.1761
  207SOL    HW2  827   0.873   1.636   0.269  0.2201  0.9311  0.5803
  207SOL     MW  828   0.846   1.704   0.221 -0.4132 -0.3362  0.1490
  208SOL     OW  829   0.754   1.514   1.368 -0.4633 -0.4436 -0.1329
  208SOL    HW1  830   0.836   1.516   1.312  1.3659 -3.2387 -2.5477
  208SOL    HW2  831   0.722   1.425   1.355 -0.1616  3.5815  1.3529
  208SOL     MW  832   0.760   1.503   1.359 -0.1822 -0.2813 -0.2554
  209SOL     OW  833   1.597   0.480   2.811  0.0257 -0.4701 -0.2200
  209SOL    HW1  834   1.627   0.554   2.858  0.2350 -1.1927 -3.0588
  209SOL    HW2  835   1.675   0.424   2.796 -1.9121 -2.3472  2.1413
  209SOL     MW  836   1.612   0.482   2.815 -0.2023 -0.8131 -0.2830
  210SOL     OW  837   1.446   1.414   0.909 -0.1748  0.0873 -0.3556
  210SOL    HW1  838   1.543   1.429   0.890  1.3910 -1.1301 -0.2441
  210SOL    HW2  839   1.400   1.457   0.833 -0.4450 -2.0001 -2.4754
  210SOL     MW  840   1.453   1.422   0.897 -0.0039 -0.3487 -0.6206
  211SOL     OW  841   1.751   0.325   0.862 -0.0474 -1.8255 -0.0481
  211SOL    HW1  842   1.784   0.349   0.779 -0.6732 -1.3377  2.9170
  211SOL    HW2  843   1.834   0.338   0.908  3.0301 -1.4413  1.3520
  211SOL     MW  844   1.766   0.330   0.857  0.2761 -1.7105  0.5278
  212SOL     OW  845   0.401   1.192   0.224 -0.0875 -0.2637  0.0173
  212SOL    HW1  846   0.351   1.111   0.233 -1.3291 -0.6019  0.8980
  212SOL    HW2  847   0.477   1.172   0.166  3.8649 -0.0377 -5.7024
  212SOL     MW  848   0.405   1.179   0.218  0.2702 -0.2785 -0.6212
  213SOL     OW  849   0.412   1.796   3.080  0.0556 -0.4690 -0.1841
  213SOL    HW1  850   0.452   1.849   3.152 -3.1751 -0.8412  1.6652
  213SOL    HW2  851   0.446   1.831   2.993  0.8560 -0.6767 -0.2994
  213SOL     MW  852   0.422   1.807   3.078 -0.2650 -0.5455  0.0447
  214SOL     OW  853   0.592   0.335   2.130  0.3912 -0.4907  0.5851
  214SOL    HW1  854   0.524   0.403   2.130 -1.4977  0.6451 -0.2996
  214SOL    HW2  855   0.602   0.290   2.040  0.0924  0.9179  1.4886
  214SOL     MW  856   0.584   0.338   2.118  0.1025 -0.1550  0.5876
  215SOL     OW  857   0.595   0.587   2.510  0.8188  0.2121  0.2780
  215SOL    HW1  858   0.528   0.635   2.468  1.4806  0.8746 -0.7493
  215SOL    HW2  859   0.583   0.494   2.510 -2.1700 -1.3965  1.8194
  215SOL     MW  860   0.585   0.581   2.504  0.5118  0.0873  0.3458
  216SOL     OW  861   2.926   3.059   2.810 -0.9119 -0.5843 -0.3239
  216SOL    HW1  862   2.833   3.044   2.821  0.9185  1.2826 -1.7890
  216SOL    HW2  863   2.929   3.117   2.737  0.5277  0.9113  1.2732
  216SOL     MW  864   2.914   3.064   2.802 -0.4805 -0.1406 -0.3065
  217SOL     OW  865   0.912   1.103   0.136  0.2555 -0.0943 -0.3963
  217SOL    HW1  866   0.923   1.027   0.082 -1.5287 -0.1890  0.1492
  217SOL    HW2  867   0.967   1.177   0.095  1.7052  1.0402  2.2260
  217SOL     MW  868   0.921   1.103   0.123  0.2113  0.0429  0.0217
  218SOL     OW  869   0.826   1.421   2.598 -0.2767  0.5279 -0.2967
  218SOL    HW1  870   0.786   1.351   2.655 -0.3766  0.9746  0.9366
  218SOL    HW2  871   0.912   1.449   2.642  2.0401  0.4422 -1.1737
  218SOL     MW  872   0.832   1.415   2.611  0.0158  0.5755 -0.2497
  219SOL     OW  873   1.073   0.428   2.498 -0.6853 -0.4334 -0.3812
  219SOL    HW1  874   1.147   0.453   2.439  2.0182  0.3496 -1.2615
  219SOL    HW2  875   1.017   0.504   2.500  0.3541  0.4075 -0.6122
  219SOL     MW  876   1.075   0.442   2.491 -0.1915 -0.2191 -0.5279
  220SOL     OW  877   1.646   0.495   2.182 -0.5092 -0.2557 -0.0049
  220SOL    HW1  878   1.571   0.544   2.156  2.3606  0.3526 -1.5028
  220SOL    HW2  879   1.674   0.436   2.114  1.0399 -0.5826 -0.1731
  220SOL     MW  880   1.640   0.494   2.170  0.0739 -0.2186 -0.2247
  221SOL     OW  881   0.335   1.369   2.942 -0.1635 -0.0760 -0.0665
  221SOL    HW1  882   0.375   1.288   2.914  0.0711  2.2106  0.2788
  221SOL    HW2  883   0.374   1.440   2.890  0.4734  2.6801 -0.5794
  221SOL     MW  884   0.345   1.368   2.931 -0.0485  0.5893 -0.0886
  222SOL     OW  885   0.503   0.911   2.707  0.0901 -0.1306 -0.3907
  222SOL    HW1  886   0.414   0.896   2.676  0.8217  0.0020 -2.2487
  222SOL    HW2  887   0.541   0.829   2.735 -1.3793 -0.8257 -1.7336
  222SOL     MW  888   0.497   0.898   2.706 -0.0072 -0.2048 -0.8130
  223SOL     OW  889   3.034   2.058   2.565 -0.1772 -0.0298  0.1883
  223SOL    HW1  890   3.028   2.060   2.663 -2.2047 -1.5041  0.8756
  223SOL    HW2  891   3.083   2.129   2.526 -0.6556  2.1058  0.1594
  223SOL     MW  892   3.040   2.068   2.573 -0.5078  0.0574  0.2752
  224SOL     OW  893   1.440   0.569   2.419  0.1205 -0.1328  0.4151
  224SOL    HW1  894   1.488   0.512   2.481  1.8488 -3.0522  0.4719
  224SOL    HW2  895   1.442   0.659   2.456 -0.1209  0.1198  0.8126
  224SOL     MW  896   1.446   0.574   2.432  0.3167 -0.4847  0.4751
  225SOL     OW  897   2.908   1.500   2.179  0.2035 -0.1622 -0.3725
  225SOL    HW1  898   2.955   1.579   2.154 -0.6986 -2.1895  0.1656
  225SOL    HW2  899   2.846   1.529   2.247 -2.7555 -1.3830  0.2778
  225SOL     MW  900   2.906   1.515   2.185 -0.3059 -0.5908 -0.2157
  226SOL     OW  901   0.440   1.553   2.750 -0.2247 -0.5513  0.5547
  226SOL    HW1  902   0.525   1.558   2.708 -0.7234  1.0159  0.3716
  226SOL    HW2  903   0.405   1.638   2.724  0.6581 -0.1741 -0.5990
  226SOL     MW  904   0.447   1.565   2.741 -0.1740 -0.2947  0.3783
  227SOL     OW  905   0.501   1.149   2.875  0.0138  0.5451  0.5176
  227SOL    HW1  906   0.586   1.158   2.825  1.9671  2.0256 -0.8012
  227SOL    HW2  907   0.467   1.065   2.835  0.1881 -1.7523 -1.5813
  227SOL     MW  908   0.508   1.139   2.863  0.2945  0.4373  0.0667
  228SOL     OW  909   0.793   1.122   2.039 -0.5062  0.6191 -0.0719
  228SOL    HW1  910   0.740   1.159   1.970  1.8258  0.1178 -0.2587
  228SOL    HW2  911   0.878   1.162   2.021 -1.6695 -0.0116 -0.3936
  228SOL     MW  912   0.797   1.132   2.028 -0.3520  0.4698 -0.1390
  229SOL     OW  913   0.148   0.576   0.034 -1.1172  0.1074  0.2181
  229SOL    HW1  914   0.096   0.549  -0.046 -0.3139 -0.6110  0.3742
  229SOL    HW2  915   0.132   0.512   0.103  1.4995 -3.1107 -0.6591
  229SOL     MW  916   0.139   0.564   0.033 -0.6660 -0.4120  0.1230
  230SOL     OW  917   1.738   1.397   2.186 -0.4384 -0.1334  0.1984
  230SOL    HW1  918   1.664   1.362   2.235 -1.3248 -1.0120  1.9044
  230SOL    HW2  919   1.800   1.333   2.214 -1.8125  1.9296  1.3022
  230SOL     MW  920   1.736   1.384   2.196 -0.7367  0.0228  0.5691
  231SOL     OW  921   2.721   1.219   2.193  0.5989 -0.2931 -0.4455
  231SOL    HW1  922   2.787   1.284   2.166  0.0963  0.7797 -0.4453
  231SOL    HW2  923   2.659   1.218   2.117 -1.8601 -0.9331  2.6287
  231SOL     MW  924   2.722   1.227   2.179  0.2081 -0.2360 -0.0399
  232SOL     OW  925   2.281   0.879   2.011  0.1110 -0.5596 -0.3038
  232SOL    HW1  926   2.201   0.896   1.957 -2.3247  3.3835 -0.3318
  232SOL    HW2  927   2.256   0.816   2.080  3.1531  0.3310  0.4321
  232SOL     MW  928   2.267   0.873   2.013  0.1910  0.0782 -0.2104
  233SOL     OW  929   2.109   0.456   2.027  0.1893  0.0323 -0.4693
  233SOL    HW1  930   2.185   0.414   2.011 -1.4186  0.5400 -2.1304
  233SOL    HW2  931   2.103   0.475   2.121 -1.8849 -0.6836  0.5643
  233SOL     MW  932   2.118   0.453   2.037 -0.2966  0.0048 -0.5521
  234SOL     OW  933   0.261   1.043   2.629 -0.4962 -0.0179 -0.1545
  234SOL    HW1  934   0.192   1.030   2.567 -0.8270 -0.7622  2.6801
  234SOL    HW2  935   0.291   1.128   2.616  1.2376 -2.1389  1.3702
  234SOL     MW  936   0.256   1.053   2.619 -0.3111 -0.3959  0.4207
  235SOL     OW  937   1.125   0.051   2.815  0.9017  0.5718 -0.0521
  235SOL    HW1  938   1.123   0.026   2.909 -2.0366 -0.4851  2.0622
  235SOL    HW2  939   1.094   0.143   2.803  0.4349 -0.5370 -0.2681
  235SOL     MW  940   1.121   0.060   2.825  0.4524  0.2860  0.1984
  236SOL     OW  941   2.971   0.624   0.157  0.5551 -0.0989  0.2954
  236SOL    HW1  942   2.958   0.638   0.252  0.5814  0.8221  2.6877
  236SOL    HW2  943   3.020   0.705   0.129  0.8770 -1.4750  0.1576
  236SOL     MW  944   2.976   0.636   0.166  0.6010 -0.1590  0.5929
  237SOL     OW  945   1.933   1.127   2.136  0.0401 -0.2082  0.4928
  237SOL    HW1  946   1.859   1.075   2.166  1.0603  0.8879 -4.5231
  237SOL    HW2  947   2.003   1.063   2.140 -0.6389  3.5288 -0.5257
  237SOL     MW  948   1.932   1.111   2.141  0.0851  0.4294 -0.3034
  238SOL     OW  949   1.107   1.694   2.918  0.3760 -0.1162  0.6316
  238SOL    HW1  950   1.084   1.629   2.845  2.5321 -0.9471  0.5440
  238SOL    HW2  951   1.199   1.675   2.932 -1.0842  2.9487  3.6309
  238SOL     MW  952   1.116   1.683   2.910  0.4678  0.1785  1.0158
  239SOL     OW  953   1.189   1.288   2.395  0.3249  0.4220  0.4975
  239SOL    HW1  954   1.102   1.315   2.379  0.9841 -0.8606 -0.9524
  239SOL    HW2  955   1.197   1.295   2.489  0.7686  0.6854 -0.4154
  239SOL     MW  956   1.178   1.293   2.405  0.4704  0.2875  0.1858
  240SOL     OW  957   0.603   0.853   2.313  0.1142  0.3327 -0.6077
  240SOL    HW1  958   0.630   0.903   2.397 -1.2160 -1.4078  0.6672
  240SOL    HW2  959   0.673   0.839   2.253 -0.6509 -0.1876  0.0837
  240SOL     MW  960   0.616   0.858   2.316 -0.1622  0.0344 -0.3483
  241SOL     OW  961   0.668   0.455  -0.001 -0.5114 -0.3514 -0.0365
  241SOL    HW1  962   0.696   0.539   0.049  2.4053 -0.8221  0.8027
  241SOL    HW2  963   0.575   0.466  -0.016 -0.8064 -1.0978 -0.3152
  241SOL     MW  964   0.659   0.467   0.004 -0.1655 -0.5120  0.0375
  242SOL     OW  965   1.486   1.613   2.288 -0.2255  0.3240  0.0143
  242SOL    HW1  966   1.435   1.688   2.317 -0.5924 -1.4484  0.8233
  242SOL    HW2  967   1.421   1.562   2.239 -1.1896 -0.5346  0.2559
  242SOL     MW  968   1.471   1.616   2.285 -0.4011 -0.0231  0.1529
  243SOL     OW  969   0.960   0.179   2.463 -0.1120 -0.1040  0.2873
  243SOL    HW1  970   1.048   0.142   2.446 -0.5915  0.9647  0.7482
  243SOL    HW2  971   0.976   0.269   2.468  2.0183 -2.9329 -0.9180
  243SOL     MW  972   0.974   0.186   2.461  0.1058 -0.3363  0.1891
  244SOL     OW  973   0.098   0.750   2.359 -0.2134 -1.0744 -0.9545
  244SOL    HW1  974   0.081   0.833   2.400 -1.6681  0.1327 -0.1414
  244SOL    HW2  975   0.193   0.753   2.351  4.0701 -0.1201 -0.5251
  244SOL     MW  976   0.108   0.761   2.363  0.1599 -0.7892 -0.7905
  245SOL     OW  977   1.212   0.107   2.392 -0.2627 -0.0246 -0.1704
  245SOL    HW1  978   1.252   0.070   2.317  0.3046  0.2833 -1.5109
  245SOL    HW2  979   1.242   0.058   2.463 -1.7340  2.5328 -0.9406
  245SOL     MW  980   1.221   0.096   2.392 -0.3820  0.3534 -0.4489
  246SOL     OW  981   1.167   1.064   2.102  0.1656 -0.6455  0.6305
  246SOL    HW1  982   1.101   1.050   2.168  2.0019  0.9123  2.6198
  246SOL    HW2  983   1.249   1.044   2.149  1.2959  0.8941 -0.7946
  246SOL     MW  984   1.169   1.060   2.117  0.5570 -0.2368  0.7049
  247SOL     OW  985   0.768   0.652   0.153  0.2536  0.3922  0.0356
  247SOL    HW1  986   0.760   0.751   0.160 -0.0933  0.2182  0.7411
  247SOL    HW2  987   0.855   0.639   0.113 -3.8679 -0.4175  1.6422
  247SOL     MW  988   0.779   0.663   0.148 -0.3360  0.2624  0.3407
  248SOL     OW  989   0.362   1.305   2.600  0.1846 -0.1632 -0.3803
  248SOL    HW1  990   0.379   1.317   2.507 -1.9092 -0.1426 -0.9816
  248SOL    HW2  991   0.385   1.387   2.641 -0.9965  0.7980  0.5963
  248SOL     MW  992   0.368   1.317   2.593 -0.2475 -0.0337 -0.3308
  249SOL     OW  993   3.030   1.861   2.790  0.1740 -0.2359 -0.2000
  249SOL    HW1  994   2.959   1.802   2.807 -1.2597 -1.5550  1.1030
  249SOL    HW2  995   3.099   1.809   2.824  0.1696  1.7331 -0.3585
  249SOL     MW  996   3.030   1.846   2.796 -0.0157 -0.1501 -0.0490
  250SOL     OW  997   2.301   0.699   2.232  0.8157  0.0881  0.3930
  250SOL    HW1  998   2.223   0.645   2.255 -1.9940  0.9987  1.6193
  250SOL    HW2  999   2.304   0.761   2.298 -3.7482 -0.2645  1.5110
  250SOL     MW 1000   2.291   0.700   2.244 -0.1571  0.1617  0.7023
  251SOL     OW 1001   0.132   0.887   1.966 -0.4723 -0.2946 -0.3333
  251SOL    HW1 1002   0.086   0.805   1.988  0.3650  2.6636 -1.7318
  251SOL    HW2 1003   0.122   0.890   1.868 -2.5761 -0.7338  0.0461
  251SOL     MW 1004   0.125   0.877   1.956 -0.6394  0.0377 -0.4678
  252SOL     OW 1005   1.737   1.015   2.910  0.5837 -0.4016  0.0753
  252SOL    HW1 1006   1.749   1.076   2.985 -0.3625  0.2378  0.6598
  252SOL    HW2 1007   1.787   1.047   2.828  0.3075 -1.8325 -0.6797
  252SOL     MW 1008   1.745   1.027   2.909  0.4224 -0.5060  0.0528
  253SOL     OW 1009   1.121   1.675   2.564 -0.7492  0.1494 -0.0976
  253SOL    HW1 1010   1.122   1.619   2.489 -0.6247 -1.0616 -0.0844
  253SOL    HW2 1011   1.074   1.754   2.546  0.4136 -2.0953  1.5710
  253SOL     MW 1012   1.115   1.678   2.552 -0.5794 -0.3065  0.1243
  254SOL     OW 1013   0.971   1.003   2.273 -0.3059 -0.9822 -0.5715
  254SOL    HW1 1014   0.933   0.925   2.236  1.4752  0.9987  1.1251
  254SOL    HW2 1015   0.900   1.067   2.281 -0.4435 -0.0526 -0.8552
  254SOL     MW 1016   0.957   1.001   2.269 -0.0891 -0.5982 -0.3851
  255SOL     OW 1017   0.865   2.434   2.151  0.0981  0.0839 -0.4388
  255SOL    HW1 1018   0.770   2.403   2.128  0.1333 -1.2352  1.2831
  255SOL    HW2 1019   0.916   2.352   2.180  0.0857 -1.9194 -1.7076
  255SOL     MW 1020   0.859   2.419   2.152  0.1011 -0.3545 -0.3790
  256SOL     OW 1021   1.322   2.797   3.065  0.1841 -0.7283  0.1982
  256SOL    HW1 1022   1.358   2.754   3.140 -0.9117 -0.3637  0.7709
  256SOL    HW2 1023   1.371   2.768   2.983 -1.7767  0.9659 -2.0702
  256SOL     MW 1024   1.333   2.788   3.064 -0.2192 -0.4567 -0.0255
  257SOL     OW 1025   0.102   1.953   0.060  0.3369 -0.3201  0.6620
  257SOL    HW1 1026   0.165   1.905   0.122  2.1357 -0.8883 -2.2246
  257SOL    HW2 1027   0.103   1.890  -0.017  0.9113  0.6332 -0.7285
  257SOL     MW 1028   0.110   1.938   0.058  0.6500 -0.2693  0.0976
  258SOL     OW 1029   0.710   0.963   2.517  0.3224  0.0388  0.3142
  258SOL    HW1 1030   0.738   1.060   2.510 -0.8269 -0.9308 -0.7367
  258SOL    HW2 1031   0.665   0.966   2.598 -1.0864 -2.4322 -2.0173
  258SOL     MW 1032   0.707   0.976   2.527 -0.0151 -0.4152 -0.1321
  259SOL     OW 1033   0.807   0.438   2.260  0.0115  0.4438 -0.1873
  259SOL    HW1 1034   0.727   0.400   2.224 -0.0899  2.2464  1.0639
  259SOL    HW2 1035   0.861   0.368   2.295  1.1397 -1.3241  0.4968
  259SOL     MW 1036   0.804   0.424   2.260  0.1470  0.4484  0.0680
  260SOL     OW 1037   0.660   0.088   1.637 -0.0868  0.2681  0.9743
  260SOL    HW1 1038   0.588   0.135   1.602 -1.8748 -0.7015  1.0228
  260SOL    HW2 1039   0.734   0.133   1.603  2.0709 -2.2039 -0.8431
  260SOL     MW 1040   0.660   0.100   1.628 -0.0380 -0.1860  0.7409
  261SOL     OW 1041   1.010   0.720   2.022  0.4313  0.5912  0.2646
  261SOL    HW1 1042   1.093   0.693   2.060  0.2217  0.9457  2.3212
  261SOL    HW2 1043   0.975   0.635   1.984 -1.9020 -1.1879 -1.3679
  261SOL     MW 1044   1.016   0.705   2.022  0.0958  0.4032  0.3205
  262SOL     OW 1045   1.142   0.331   0.148 -0.1141  0.1269  0.1963
  262SOL    HW1 1046   1.232   0.327   0.111 -0.7530  0.4165  0.9487
  262SOL    HW2 1047   1.097   0.271   0.090  0.9593 -0.9126 -0.2820
  262SOL     MW 1048   1.148   0.322   0.136 -0.0568  0.0279  0.2325
  263SOL     OW 1049   0.356   0.021   2.460  0.2061  0.2201 -0.3857
  263SOL    HW1 1050   0.274   0.071   2.466  0.1783  1.6272  1.8471
  263SOL    HW2 1051   0.399   0.056   2.373  0.2372  2.5070 -1.4150
  263SOL     MW 1052   0.351   0.032   2.449  0.2065  0.7075 -0.2269
  264SOL     OW 1053   1.540   1.476   1.982  0.1884  0.1877  0.6134
  264SOL    HW1 1054   1.472   1.413   1.995 -1.1376  3.2087 -0.6462
  264SOL    HW2 1055   1.621   1.433   2.020 -1.9094 -0.7559 -1.0317
  264SOL     MW 1056   1.542   1.462   1.988 -0.2634  0.4618  0.2301
  265SOL     OW 1057   0.711   2.780   2.325 -1.0048 -0.1154 -0.1834
  265SOL    HW1 1058   0.797   2.760   2.286  0.1240  1.2468 -1.6262
  265SOL    HW2 1059   0.719   2.793   2.422  0.6891 -1.5889  1.0758
  265SOL     MW 1060   0.724   2.779   2.333 -0.6324 -0.1301 -0.2076
  266SOL     OW 1061   0.789   0.858   2.107  0.3410 -0.2095 -0.6297
  266SOL    HW1 1062   0.799   0.951   2.084  0.7509 -1.3935  1.2972
  266SOL    HW2 1063   0.868   0.809   2.074 -0.6293  0.1602 -0.6081
  266SOL     MW 1064   0.801   0.864   2.099  0.2670 -0.3170 -0.3726
  267SOL     OW 1065   1.342   1.747   2.709 -0.5716  0.6855 -0.3025
  267SOL    HW1 1066   1.405   1.697   2.658 -2.5294 -1.2102  0.3581
  267SOL    HW2 1067   1.256   1.715   2.672  0.8247  2.2931 -0.4417
  267SOL     MW 1068   1.339   1.736   2.697 -0.6457  0.6475 -0.2337
  268SOL     OW 1069   0.089   0.886   1.684  0.0322 -0.0280  0.4081
  268SOL    HW1 1070  -0.003   0.915   1.696  0.5081 -1.2689 -0.9461
  268SOL    HW2 1071   0.073   0.821   1.608 -0.9370 -2.0514 -0.7308
  268SOL     MW 1072   0.075   0.881   1.676 -0.0329 -0.4587  0.0791
  269SOL     OW 1073   1.320   1.801   2.393 -0.3825 -0.0960  0.0947
  269SOL    HW1 1074   1.388   1.856   2.432  2.0065 -0.8729 -2.0866
  269SOL    HW2 1075   1.291   1.750   2.466 -3.6053  0.1090 -2.5865
  269SOL     MW 1076   1.325   1.802   2.408 -0.4925 -0.1715 -0.5469
  270SOL     OW 1077   1.109   0.485   1.536  0.3449 -0.2533 -0.6332
  270SOL    HW1 1078   1.067   0.409   1.573  0.5552 -0.2768  0.7100
  270SOL    HW2 1079   1.194   0.451   1.523 -1.4889  0.9632  2.7465
  270SOL     MW 1080   1.115   0.471   1.539  0.1307 -0.0959 -0.0101
  271SOL     OW 1081   0.717   0.108   2.546 -0.1283  0.0020 -0.4357
  271SOL    HW1 1082   0.736   0.074   2.632 -0.6593 -0.1812 -0.9739
  271SOL    HW2 1083   0.799   0.145   2.513 -1.5650 -0.4728 -2.7577
  271SOL     MW 1084   0.730   0.109   2.553 -0.3879 -0.0848 -0.8131
  272SOL     OW 1085   1.479   2.795   2.849 -0.2990 -0.2904  0.3431
  272SOL    HW1 1086   1.432   2.796   2.762 -2.7448  1.6798 -2.7201
  272SOL    HW2 1087   1.534   2.877   2.859 -0.3303 -0.9733 -1.5051
  272SOL     MW 1088   1.480   2.806   2.839 -0.6258 -0.1206 -0.3049
  273SOL     OW 1089   1.428   0.792   2.836 -0.2487  0.6067  0.2816
  273SOL    HW1 1090   1.515   0.762   2.859 -2.1909 -2.5787  1.8062
  273SOL    HW2 1091   1.438   0.884   2.815 -0.5546 -0.0813  0.6117
  273SOL     MW 1092   1.441   0.800   2.837 -0.5453  0.0956  0.5263
  274SOL     OW 1093   1.418   0.687   0.165  0.4703  1.1440  0.3107
  274SOL    HW1 1094   1.479   0.615   0.190  1.2360  2.4984 -1.1728
  274SOL    HW2 1095   1.330   0.665   0.214  0.2921 -0.2545  0.6090
  274SOL     MW 1096   1.414   0.675   0.175  0.5478  1.1382  0.1543
  275SOL     OW 1097   1.896   0.548   1.711  0.1138 -0.4281 -0.1814
  275SOL    HW1 1098   1.920   0.618   1.769  2.6041  0.4467  0.3414
  275SOL    HW2 1099   1.885   0.466   1.760  0.5404 -1.6648 -0.3736
  275SOL     MW 1100   1.898   0.546   1.725  0.4986 -0.4758 -0.1378
  276SOL     OW 1101   0.435   1.161   1.957  0.6697 -0.5365 -0.3250
  276SOL    HW1 1102   0.421   1.081   2.004 -0.9580  0.6902 -2.4316
  276SOL    HW2 1103   0.378   1.220   2.010 -0.6506  0.0620 -0.2545
  276SOL     MW 1104   0.426   1.158   1.970  0.2807 -0.2957 -0.5936
  277SOL     OW 1105   1.995   1.164   2.439  0.2087  0.0255 -0.2140
  277SOL    HW1 1106   2.035   1.239   2.488  0.3164  0.3873  2.8331
  277SOL    HW2 1107   1.919   1.190   2.393  3.5833  2.2793 -1.2412
  277SOL     MW 1108   1.990   1.177   2.439  0.6682  0.3706  0.0525
  278SOL     OW 1109   1.460   0.631   1.606  0.5924  0.4747  0.1315
  278SOL    HW1 1110   1.452   0.608   1.708 -0.3311  0.1602  0.4726
  278SOL    HW2 1111   1.556   0.635   1.588  0.7298  1.5844 -1.5565
  278SOL     MW 1112   1.472   0.629   1.617  0.4887  0.5796 -0.0462
  279SOL     OW 1113   0.511   0.074   2.217 -0.0977 -0.0568  0.8378
  279SOL    HW1 1114   0.598   0.026   2.248  0.5379  0.0033 -3.1448
  279SOL    HW2 1115   0.524   0.167   2.207  1.0410 -1.6484 -0.4996
  279SOL     MW 1116   0.524   0.080   2.220  0.1364 -0.2589  0.1359
  280SOL     OW 1117   1.437   0.992   2.251  0.7365  0.2969  0.0087
  280SOL    HW1 1118   1.518   0.959   2.211  0.3047 -0.3049 -1.3656
  280SOL    HW2 1119   1.428   0.925   2.318  0.4484  0.7932  1.1975
  280SOL     MW 1120   1.446   0.979   2.254  0.6415  0.2830 -0.0158
  281SOL     OW 1121   1.384   1.075   2.784 -0.0893 -0.1366  0.6076
  281SOL    HW1 1122   1.442   1.146   2.764 -1.0303  2.0012  1.2403
  281SOL    HW2 1123   1.348   1.084   2.869 -0.5611  0.8748 -0.6801
  281SOL     MW 1124   1.387   1.085   2.792 -0.2757  0.2789  0.5212
  282SOL     OW 1125   1.066   1.314   1.616  0.0417 -0.0989  0.0923
  282SOL    HW1 1126   1.048   1.393   1.573 -0.2109  0.2002  1.5762
  282SOL    HW2 1127   0.986   1.291   1.662 -0.0602 -2.6586  1.0232
  282SOL     MW 1128   1.053   1.321   1.616 -0.0051 -0.3972  0.4109
  283SOL     OW 1129   0.791   1.301   3.004 -0.5372 -0.0552  0.6390
  283SOL    HW1 1130   0.885   1.321   3.024 -0.5786  3.4131  0.0398
  283SOL    HW2 1131   0.742   1.383   3.003 -0.8216 -1.8325  2.7959
  283SOL     MW 1132   0.797   1.314   3.007 -0.5802  0.1679  0.8446
  284SOL     OW 1133   0.379   0.709   2.358 -0.1613  0.2687 -0.0523
  284SOL    HW1 1134   0.470   0.751   2.348  0.2565  0.5139  3.0151
  284SOL    HW2 1135   0.370   0.650   2.284 -0.2592  0.9189 -1.1980
  284SOL     MW 1136   0.390   0.707   2.347 -0.1191  0.3869  0.2012
  285SOL     OW 1137   0.876   0.923   2.776  0.0073 -0.0518 -0.4905
  285SOL    HW1 1138   0.937   0.940   2.698 -1.4932 -2.1726 -0.9255
  285SOL    HW2 1139   0.818   0.844   2.747 -0.1607 -1.8421 -0.8330
  285SOL     MW 1140   0.877   0.915   2.762 -0.2129 -0.5678 -0.5931
  286SOL     OW 1141   1.056   1.497   2.742  0.0968  0.7062 -0.2491
  286SOL    HW1 1142   1.111   1.423   2.728  0.5744  1.6567  0.4204
  286SOL    HW2 1143   1.075   1.563   2.675 -1.4818 -1.9820  2.1377
  286SOL     MW 1144   1.066   1.496   2.731 -0.0485  0.4769  0.1542
  287SOL     OW 1145   1.097   0.964   0.330  0.1444 -0.0556  0.1553
  287SOL    HW1 1146   1.062   0.985   0.414 -1.8754 -1.0454 -1.5956
  287SOL    HW2 1147   1.043   1.013   0.265  1.8563 -0.4055 -2.0862
  287SOL     MW 1148   1.086   0.974   0.333  0.1037 -0.2324 -0.3715
  288SOL     OW 1149   1.504   0.726   2.091 -0.4023 -0.0759 -0.2441
  288SOL    HW1 1150   1.418   0.762   2.116  4.7325 -1.2811  1.5155
  288SOL    HW2 1151   1.566   0.793   2.116  2.3930 -0.4236 -0.6043
  288SOL     MW 1152   1.501   0.740   2.098  0.6440 -0.2808 -0.0595
  289SOL     OW 1153   1.032   1.022   2.568  0.4787 -0.0669  0.1096
  289SOL    HW1 1154   1.050   0.942   2.517  1.2823 -0.7917 -1.1323
  289SOL    HW2 1155   0.982   1.069   2.503 -0.2518 -0.3508 -3.3023
  289SOL     MW 1156   1.027   1.018   2.552  0.4884 -0.2000 -0.5044
  290SOL     OW 1157   0.694   0.660   1.466  0.3381 -0.1580  0.3158
  290SOL    HW1 1158   0.739   0.595   1.413 -0.6779 -0.1668  1.4103
  290SOL    HW2 1159   0.757   0.672   1.539 -2.3303  1.2206 -1.3431
  290SOL     MW 1160   0.708   0.653   1.468 -0.1480  0.0228  0.2413
  291SOL     OW 1161   0.164   0.346   0.205 -0.4532  0.1857 -0.1151
  291SOL    HW1 1162   0.255   0.332   0.227  1.3451 -0.0286  0.0088
  291SOL    HW2 1163   0.119   0.289   0.266  1.1486  0.2771  0.8862
  291SOL     MW 1164   0.170   0.337   0.216 -0.0046  0.1695  0.0333
  292SOL     OW 1165   1.027   0.600   0.090  0.3731  0.3184  0.2821
  292SOL    HW1 1166   1.081   0.649   0.150 -1.8633  1.8503 -0.5477
  292SOL    HW2 1167   1.056   0.505   0.093 -0.9766 -0.5664 -0.9756
  292SOL     MW 1168   1.038   0.594   0.098 -0.1000  0.4038  0.0067
  293SOL     OW 1169   0.086   0.125   2.510 -0.7276  0.6353 -0.3186
  293SOL    HW1 1170   0.060   0.070   2.435  0.2071 -2.2445  0.4207
  293SOL    HW2 1171   0.001   0.131   2.559  0.8090 -2.5059 -2.5031
  293SOL     MW 1172   0.071   0.119   2.506 -0.4015 -0.1591 -0.5093
  294SOL     OW 1173   1.247   0.423   2.289 -0.0468 -0.6874 -0.3258
  294SOL    HW1 1174   1.324   0.467   2.330 -1.9738 -1.0959 -1.8060
  294SOL    HW2 1175   1.215   0.342   2.329 -0.1470 -1.9261 -0.1563
  294SOL     MW 1176   1.253   0.418   2.300 -0.3143 -0.9047 -0.4988
  295SOL     OW 1177   0.900   0.651   2.469  0.3387 -0.5277 -0.4559
  295SOL    HW1 1178   0.855   0.592   2.406 -0.0113 -0.7045  1.7594
  295SOL    HW2 1179   0.831   0.696   2.516  1.3709 -0.2139 -1.2940
  295SOL     MW 1180   0.885   0.649   2.467  0.4287 -0.5097 -0.2742
  296SOL     OW 1181   1.370   0.369   2.041 -0.4685 -0.5215  0.2320
  296SOL    HW1 1182   1.390   0.280   2.031  0.7361 -0.7102  0.7345
  296SOL    HW2 1183   1.328   0.383   2.126  0.6497  1.2951  0.7903
  296SOL     MW 1184   1.367   0.359   2.051 -0.1620 -0.3067  0.3720
  297SOL     OW 1185   1.354   0.372   1.537 -0.1458 -0.3312  0.3322
  297SOL    HW1 1186   1.393   0.443   1.587  1.1122 -0.7898 -2.2496
  297SOL    HW2 1187   1.379   0.293   1.587 -2.6799  1.8950 -0.1941
  297SOL     MW 1188   1.363   0.371   1.550 -0.3142 -0.0980 -0.0779
  298SOL     OW 1189   1.678   0.928   2.132 -0.0423 -0.2010  0.2868
  298SOL    HW1 1190   1.697   0.957   2.040  2.4644  1.2843 -0.9648
  298SOL    HW2 1191   1.745   0.857   2.146  1.2990 -0.6612 -0.1266
  298SOL     MW 1192   1.689   0.922   2.122  0.4654 -0.0657  0.0671
  299SOL     OW 1193   0.616   1.136   0.058 -0.1417 -0.2560 -0.0323
  299SOL    HW1 1194   0.591   1.109  -0.034 -0.3777  0.2368  0.8730
  299SOL    HW2 1195   0.685   1.195   0.026  0.1114  0.6807 -0.6550
  299SOL     MW 1196   0.622   1.140   0.041 -0.1394 -0.0674  0.0050
  300SOL     OW 1197   1.200   1.241   2.662  0.2309  0.5142 -0.3007
  300SOL    HW1 1198   1.133   1.178   2.651  0.9069  3.8387 -1.3175
  300SOL    HW2 1199   1.264   1.194   2.713 -0.6486  0.1789 -0.9878
  300SOL     MW 1200   1.200   1.226   2.667  0.2041  0.9086 -0.5255
  301SOL     OW 1201   1.431   1.032   0.662 -0.3522 -0.5586 -0.3395
  301SOL    HW1 1202   1.454   1.057   0.748  2.3851 -0.1790 -0.7497
  301SOL    HW2 1203   1.379   0.951   0.662 -3.1571 -1.5920 -0.2640
  301SOL     MW 1204   1.427   1.025   0.673 -0.3611 -0.6449 -0.3836
  302SOL     OW 1205   0.236   1.587   2.084  0.1130  0.3361  0.4760
  302SOL    HW1 1206   0.242   1.494   2.088  0.6724 -0.6229  1.9869
  302SOL    HW2 1207   0.142   1.612   2.087  0.0020  0.5241  0.5808
  302SOL     MW 1208   0.225   1.578   2.085  0.1722  0.2344  0.6892
  303SOL     OW 1209   0.315   1.819   2.692  0.4374  0.4904  0.0260
  303SOL    HW1 1210   0.276   1.868   2.619  1.2650  1.2570 -3.0444
  303SOL    HW2 1211   0.251   1.822   2.770  1.6184  2.0279  1.5597
  303SOL     MW 1212   0.302   1.826   2.693  0.7024  0.7944 -0.1767
  304SOL     OW 1213   0.562   2.130   2.449  0.4770  0.3731  0.3220
  304SOL    HW1 1214   0.608   2.210   2.410 -0.1968 -2.9449 -2.4505
  304SOL    HW2 1215   0.630   2.062   2.459  0.4151  0.1932 -0.9261
  304SOL     MW 1216   0.577   2.132   2.445  0.3799 -0.0884 -0.2085
  305SOL     OW 1217   1.125   0.608   0.526 -0.0310 -0.0140 -0.0852
  305SOL    HW1 1218   1.030   0.612   0.506  0.9350 -2.5782 -1.5983
  305SOL    HW2 1219   1.148   0.509   0.510  3.3412 -3.1298 -1.3687
  305SOL     MW 1220   1.115   0.595   0.521  0.5414 -0.7634 -0.4542
  306SOL     OW 1221   1.129   1.530   0.307  0.1320  0.2285  0.1417
  306SOL    HW1 1222   1.143   1.430   0.320  0.8175  0.4918 -3.4523
  306SOL    HW2 1223   1.196   1.562   0.242 -0.6653 -0.0806 -1.3787
  306SOL     MW 1224   1.139   1.521   0.300  0.1172  0.2225 -0.5331
  307SOL     OW 1225   1.420   0.576   1.876 -0.3829  1.0360  0.0172
  307SOL    HW1 1226   1.406   0.496   1.932  0.9287  1.7643  1.0073
  307SOL    HW2 1227   1.458   0.636   1.943 -2.9952  1.0885 -2.6096
  307SOL     MW 1228   1.423   0.573   1.892 -0.5545  1.1391 -0.1987
  308SOL     OW 1229   2.258   0.586   2.714 -0.4002 -0.1252 -0.3263
  308SOL    HW1 1230   2.348   0.589   2.744  0.6988  0.8527  0.5463
  308SOL    HW2 1231   2.222   0.675   2.724  1.4584  0.6439 -0.7160
  308SOL     MW 1232   2.265   0.598   2.720 -0.0100  0.1053 -0.2626
  309SOL     OW 1233   0.560   0.522   0.296  0.0405 -0.2560  0.2609
  309SOL    HW1 1234   0.650   0.536   0.262  0.1117 -3.7430 -2.2396
  309SOL    HW2 1235   0.526   0.444   0.243  4.1414 -1.9063 -2.2448
  309SOL     MW 1236   0.567   0.513   0.284  0.5910 -0.9338 -0.3996
  310SOL     OW 1237   0.406   0.541   1.828  0.2419  0.1348  0.3290
  310SOL    HW1 1238   0.409   0.528   1.732 -0.2813  2.3250 -0.5560
  310SOL    HW2 1239   0.451   0.626   1.833 -1.7683  0.8867 -0.3264
  310SOL     MW 1240   0.412   0.551   1.816 -0.0924  0.5230  0.1257
  311SOL     OW 1241   2.000   0.697   1.918  0.2568 -0.3841  0.3812
  311SOL    HW1 1242   1.924   0.694   1.980  0.5909 -0.7780  0.6987
  311SOL    HW2 1243   2.054   0.619   1.947  0.3578 -3.0297  2.3116
  311SOL     MW 1244   1.997   0.686   1.930  0.3142 -0.7851  0.6778
  312SOL     OW 1245   1.770   2.406   0.172  0.1907 -1.0944  0.4272
  312SOL    HW1 1246   1.799   2.417   0.265 -0.3178 -0.9028  1.3496
  312SOL    HW2 1247   1.689   2.464   0.159  1.4323 -0.1764  1.1341
  312SOL     MW 1248   1.763   2.415   0.182  0.2874 -0.9480  0.6422
  313SOL     OW 1249   0.063   1.157   3.049  0.0608  0.7552 -0.5558
  313SOL    HW1 1250   0.045   1.169   3.141  0.4959 -1.0249 -1.2735
  313SOL    HW2 1251   0.053   1.244   3.004 -1.4790  0.7245  1.0017
  313SOL     MW 1252   0.060   1.170   3.055 -0.0850  0.5163 -0.4450
  314SOL     OW 1253   2.225   2.862   3.063 -0.2105 -0.2204 -0.3275
  314SOL    HW1 1254   2.129   2.880   3.050  1.8805 -2.5101  0.0465
  314SOL    HW2 1255   2.263   2.942   3.068 -1.5759 -3.6567  0.7396
  314SOL     MW 1256   2.217   2.875   3.062 -0.1147 -0.9759 -0.1374
  315SOL     OW 1257   1.512   1.856   3.029 -0.1845 -0.0529  0.1163
  315SOL    HW1 1258   1.443   1.920   3.048 -3.5884  0.8910 -0.3638
  315SOL    HW2 1259   1.563   1.900   2.965 -1.8974 -1.6169  0.3055
  315SOL     MW 1260   1.510   1.870   3.023 -0.8596 -0.1347  0.0779
  316SOL     OW 1261   1.220   0.690   2.691  0.1119 -0.0192 -0.5015
  316SOL    HW1 1262   1.296   0.722   2.733  1.8549 -0.4408  2.9301
  316SOL    HW2 1263   1.171   0.655   2.763  2.8529 -2.0653  0.3441
  316SOL     MW 1264   1.223   0.690   2.706  0.7035 -0.3448  0.0628
  317SOL     OW 1265   0.647   1.643   2.543 -0.0110 -0.0657 -0.0619
  317SOL    HW1 1266   0.719   1.579   2.556 -0.4448 -1.7060 -1.0427
  317SOL    HW2 1267   0.627   1.633   2.451 -1.8464 -2.7737 -3.0259
  317SOL     MW 1268   0.654   1.633   2.532 -0.3104 -0.6394 -0.5824
  318SOL     OW 1269   1.362   0.389   2.852 -0.1117 -0.6473  0.0336
  318SOL    HW1 1270   1.295   0.457   2.833 -0.9350  2.4314 -0.1440
  318SOL    HW2 1271   1.447   0.426   2.825 -2.1363 -1.3096  0.7909
  318SOL     MW 1272   1.364   0.403   2.846 -0.4875 -0.3285  0.1101
  319SOL     OW 1273   0.825   0.486   2.863 -0.4655  0.0451 -0.3283
  319SOL    HW1 1274   0.770   0.441   2.808 -0.6513  2.3897  2.2468
  319SOL    HW2 1275   0.776   0.471   2.941  0.0279  2.5376  1.6421
  319SOL     MW 1276   0.811   0.478   2.866 -0.4249  0.6833  0.2714
  320SOL     OW 1277   1.006   1.288   2.042 -0.0073  0.5232  0.4072
  320SOL    HW1 1278   1.084   1.242   2.076  0.2110  1.7148  2.5370
  320SOL    HW2 1279   1.045   1.344   1.973  1.0387 -0.5776 -1.7646
  320SOL     MW 1280   1.021   1.290   2.037  0.1595  0.5351  0.4017
  321SOL     OW 1281   1.015   0.944   3.025  0.2023 -0.3397  0.0744
  321SOL    HW1 1282   0.972   0.946   2.932 -3.5898  2.5486  1.5975
  321SOL    HW2 1283   1.105   0.903   3.031  1.2830  0.4163  2.8995
  321SOL     MW 1284   1.021   0.939   3.014 -0.1555  0.1412  0.6481
  322SOL     OW 1285   1.315   0.889   1.636 -0.1099  0.5372 -0.4091
  322SOL    HW1 1286   1.368   0.811   1.633 -2.7404  0.3309 -1.7440
  322SOL    HW2 1287   1.238   0.858   1.683 -0.0948  1.1938 -0.6145
  322SOL     MW 1288   1.312   0.875   1.642 -0.4550  0.5966 -0.6124
  323SOL     OW 1289   1.123   1.518   1.907 -0.1866 -0.2499  0.0442
  323SOL    HW1 1290   1.209   1.483   1.890 -0.5874  0.3968 -1.9125
  323SOL    HW2 1291   1.121   1.607   1.870  0.4185 -0.5017  1.0103
  323SOL     MW 1292   1.134   1.525   1.900 -0.1596 -0.1978 -0.0865
  324SOL     OW 1293   1.424   0.841   2.481  0.0525 -0.8352 -0.4604
  324SOL    HW1 1294   1.321   0.860   2.489 -0.3821  2.2390 -1.3279
  324SOL    HW2 1295   1.480   0.902   2.525 -2.1710 -1.0852  0.3605
  324SOL     MW 1296   1.418   0.851   2.488 -0.2982 -0.4626 -0.4666
  325SOL     OW 1297   1.090   0.539   2.903 -0.3266 -0.0493  0.0109
  325SOL    HW1 1298   1.103   0.578   2.992 -0.0546  0.4636  1.4983
  325SOL    HW2 1299   0.992   0.538   2.896 -2.0885 -1.8041 -2.8807
  325SOL     MW 1300   1.079   0.544   2.914 -0.5232 -0.2132 -0.1744
  326SOL     OW 1301   0.388   1.352   2.344  0.1692 -0.1106  0.0488
  326SOL    HW1 1302   0.485   1.355   2.338 -0.1135 -1.1830 -0.7160
  326SOL    HW2 1303   0.365   1.443   2.350  2.4276  0.8227  2.6262
  326SOL     MW 1304   0.398   1.364   2.344  0.4299 -0.1289  0.2880
  327SOL     OW 1305   1.955   0.739   2.421 -0.0640 -0.3131 -0.0201
  327SOL    HW1 1306   1.941   0.694   2.506 -1.1418  0.9943  1.9178
  327SOL    HW2 1307   1.983   0.826   2.446 -0.0891  0.6815 -0.2353
  327SOL     MW 1308   1.957   0.745   2.435 -0.2095 -0.0094  0.2072
  328SOL     OW 1309   0.261   1.307   2.109 -0.3392 -0.1143  0.2890
  328SOL    HW1 1310   0.186   1.254   2.112  2.6490  1.1875  0.9680
  328SOL    HW2 1311   0.289   1.311   2.199  0.6005 -2.5091  0.4653
  328SOL     MW 1312   0.255   1.300   2.121  0.1791 -0.2585  0.4018
  329SOL     OW 1313   0.030   0.160   1.341  0.3169  0.0966  0.3786
  329SOL    HW1 1314   0.003   0.138   1.438 -0.0042  0.4390 -1.1957
  329SOL    HW2 1315   0.121   0.135   1.331 -0.1995  2.4683 -1.3259
  329SOL     MW 1316   0.038   0.154   1.353  0.2064  0.4547 -0.0540
  330SOL     OW 1317   0.332   0.098   1.954 -0.1160  0.3324 -0.2015
  330SOL    HW1 1318   0.426   0.125   1.952 -0.5187  2.3445 -2.3883
  330SOL    HW2 1319   0.320   0.022   2.011 -0.0023  0.9573 -0.7643
  330SOL     MW 1320   0.343   0.092   1.961 -0.1541  0.6803 -0.5643
  331SOL     OW 1321   0.819   1.200   2.436  0.1681  0.0844  0.5878
  331SOL    HW1 1322   0.753   1.223   2.360  0.0237 -4.3685 -2.6184
  331SOL    HW2 1323   0.809   1.292   2.480  4.2743 -1.3121  0.1145
  331SOL     MW 1324   0.809   1.215   2.432  0.6908 -0.6874  0.1023
  332SOL     OW 1325   1.388   1.631   2.959  0.4781 -0.0370  0.5871
  332SOL    HW1 1326   1.397   1.631   2.864 -2.6738  0.2298 -0.7920
  332SOL    HW2 1327   1.434   1.710   2.996  3.5118 -0.6810  0.6007
  332SOL     MW 1328   1.395   1.641   2.951  0.4625 -0.0867  0.4070
  333SOL     OW 1329   1.711   1.403   2.905 -0.2155  1.2643  0.1698
  333SOL    HW1 1330   1.794   1.407   2.957  1.2557 -0.1157  0.2871
  333SOL    HW2 1331   1.661   1.325   2.940  0.2057 -0.2044 -1.2975
  333SOL     MW 1332   1.716   1.393   2.916  0.0342  0.8884 -0.0083
  334SOL     OW 1333   1.306   3.047   2.611 -0.7199 -0.1867 -0.2386
  334SOL    HW1 1334   1.223   3.083   2.643 -2.4397  1.8138  2.9121
  334SOL    HW2 1335   1.370   3.099   2.663 -1.8229  0.6476 -1.8809
  334SOL     MW 1336   1.303   3.058   2.622 -1.0924  0.1873 -0.0396
  335SOL     OW 1337   1.258   0.804   3.052 -0.2482  0.2091  0.5296
  335SOL    HW1 1338   1.312   0.755   3.121  0.9146  1.5981 -2.8802
  335SOL    HW2 1339   1.320   0.815   2.973  2.5610 -1.0772 -0.4071
  335SOL     MW 1340   1.273   0.799   3.051  0.2758  0.2227 -0.0439
  336SOL     OW 1341   0.874   1.119   1.685  0.4572  0.1544 -1.1223
  336SOL    HW1 1342   0.798   1.132   1.739  0.0606 -0.9208  0.4994
  336SOL    HW2 1343   0.937   1.058   1.734  0.9119 -2.5225  0.5175
  336SOL     MW 1344   0.872   1.113   1.698  0.4648 -0.3406 -0.6920
  337SOL     OW 1345   0.526   1.922   2.866 -0.1830  0.1771 -0.4379
  337SOL    HW1 1346   0.466   1.898   2.793 -1.1379 -3.4077  1.2994
  337SOL    HW2 1347   0.612   1.889   2.844  1.2394 -0.8615  1.4059
  337SOL     MW 1348   0.529   1.915   2.853 -0.1213 -0.4329  0.0346
  338SOL     OW 1349   1.136   0.790   2.456 -0.0175  0.2426 -0.1350
  338SOL    HW1 1350   1.048   0.747   2.447  2.1472  2.1870 -0.8246
  338SOL    HW2 1351   1.162   0.755   2.545  0.2692  1.8758 -1.2629
  338SOL     MW 1352   1.128   0.780   2.467  0.3059  0.7147 -0.3748
  339SOL     OW 1353   1.311   1.254   1.969 -0.5174 -0.4193  0.6184
  339SOL    HW1 1354   1.288   1.227   1.879  0.4722  0.6222  0.4073
  339SOL    HW2 1355   1.295   1.175   2.015  1.2992  0.3709 -0.9740
  339SOL     MW 1356   1.306   1.240   1.963 -0.1471 -0.1776  0.3804
  340SOL     OW 1357   1.339   1.544   0.120 -0.3255  0.1724  0.3936
  340SOL    HW1 1358   1.354   1.581   0.026  0.9843  0.2189 -0.5256
  340SOL    HW2 1359   1.383   1.457   0.123 -0.0481 -0.8244  2.7857
  340SOL     MW 1360   1.347   1.537   0.108 -0.1161  0.0470  0.5879
  341SOL     OW 1361   0.067   1.396   2.841 -0.2928 -0.3753 -0.2731
  341SOL    HW1 1362   0.167   1.383   2.862  2.6795  1.7473  2.8825
  341SOL    HW2 1363   0.065   1.436   2.754 -1.1076  2.1305 -0.4327
  341SOL     MW 1364   0.080   1.399   2.832 -0.0082  0.2354  0.1222
  342SOL     OW 1365   1.372   0.354   0.040  0.3029 -0.0579 -0.1687
  342SOL    HW1 1366   1.444   0.400   0.087  3.4693  1.0798 -0.1785
  342SOL    HW2 1367   1.372   0.382  -0.051 -2.1567  1.0003  0.7965
  342SOL     MW 1368   1.382   0.364   0.034  0.3962  0.2319 -0.0426
  343SOL     OW 1369   0.247   0.293   2.095  0.3906  0.1673  0.7067
  343SOL    HW1 1370   0.283   0.221   2.042 -0.2451 -1.4543 -0.2842
  343SOL    HW2 1371   0.155   0.302   2.065  0.0227 -0.8589 -1.3394
  343SOL     MW 1372   0.240   0.284   2.084  0.2582 -0.1820  0.3060
  344SOL     OW 1373   1.666   2.082   0.180 -0.2338  0.5248 -0.1939
  344SOL    HW1 1374   1.709   2.112   0.095  0.7506  2.3047 -1.9159
  344SOL    HW2 1375   1.612   2.161   0.205 -1.0459  5.8359  4.7079
  344SOL     MW 1376   1.665   2.096   0.172 -0.2111  1.4604  0.2256
  345SOL     OW 1377   0.607   1.579   2.272 -0.3196  0.4675 -0.3057
  345SOL    HW1 1378   0.540   1.632   2.233  0.4153 -2.7961 -2.7241
  345SOL    HW2 1379   0.676   1.576   2.208 -0.8459 -0.1958  1.6513
  345SOL     MW 1380   0.608   1.586   2.258 -0.2921 -0.0506 -0.3666
  346SOL     OW 1381   1.652   1.190   0.027 -0.1211 -0.1697 -0.1623
  346SOL    HW1 1382   1.729   1.218   0.075 -1.3440 -2.4800 -3.0267
  346SOL    HW2 1383   1.641   1.102   0.048 -3.5121  0.5498  0.0975
  346SOL     MW 1384   1.661   1.182   0.036 -0.7299 -0.3796 -0.5059
  347SOL     OW 1385   1.242   0.741   2.202 -0.3437  0.0895  0.2035
  347SOL    HW1 1386   1.279   0.657   2.227 -0.4253 -0.5420  1.1421
  347SOL    HW2 1387   1.202   0.767   2.284 -0.1900  0.8128 -2.2618
  347SOL     MW 1388   1.242   0.734   2.216 -0.3342  0.1016  0.0020
  348SOL     OW 1389   1.286   2.536   1.943  0.0769  0.2602  0.0938
  348SOL    HW1 1390   1.277   2.457   2.003 -1.8006 -1.1648  1.4303
  348SOL    HW2 1391   1.338   2.586   1.997 -0.4180 -0.2051  0.2414
  348SOL     MW 1392   1.292   2.532   1.958 -0.2361  0.0108  0.2896
  349SOL     OW 1393   1.445   0.118   2.769  0.2248  0.1309 -0.2292
  349SOL    HW1 1394   1.411   0.187   2.828  2.0226 -2.4515 -1.2064
  349SOL    HW2 1395   1.481   0.051   2.827 -0.3161 -0.5451  1.9587
  349SOL     MW 1396   1.445   0.118   2.784  0.3907 -0.2990 -0.0695
  350SOL     OW 1397   1.880   0.620   2.661 -0.2176  0.4661  0.0027
  350SOL    HW1 1398   1.825   0.555   2.610 -1.6207 -0.5426 -3.2014
  350SOL    HW2 1399   1.938   0.561   2.721  1.9961  0.1824 -0.0465
  350SOL     MW 1400   1.880   0.604   2.662 -0.1107  0.2956 -0.4266
  351SOL     OW 1401   0.159   1.109   1.557  0.8076 -0.3313  0.2361
  351SOL    HW1 1402   0.135   1.028   1.607 -1.0866 -1.8190 -2.3344
  351SOL    HW2 1403   0.205   1.162   1.621  2.7581 -1.4220 -0.4435
  351SOL     MW 1404   0.162   1.105   1.572  0.8150 -0.6715 -0.1927
  352SOL     OW 1405   0.771   1.792   2.815 -0.2519 -0.4608 -0.1637
  352SOL    HW1 1406   0.795   1.736   2.892  0.9645 -0.7317 -0.1163
  352SOL    HW2 1407   0.745   1.737   2.742  0.6713  2.9905 -2.3151
  352SOL     MW 1408   0.771   1.777   2.816  0.0304 -0.0412 -0.4413
  353SOL     OW 1409   3.088   2.538   2.681  0.1703 -0.9062 -0.1034
  353SOL    HW1 1410   3.175   2.505   2.661  0.7856  1.9108  0.8720
  353SOL    HW2 1411   3.088   2.616   2.620 -1.9033 -1.0201 -2.7145
  353SOL     MW 1412   3.100   2.544   2.670 -0.0221 -0.5496 -0.3192
  354SOL     OW 1413   0.349   2.438   0.814  0.0689  0.6094  0.2280
  354SOL    HW1 1414   0.374   2.423   0.908 -1.1839 -0.6064  2.6670
  354SOL    HW2 1415   0.273   2.378   0.805  1.5412 -0.6699 -2.5314
  354SOL     MW 1416   0.342   2.428   0.825  0.0978  0.2802  0.1857
  355SOL     OW 1417   0.108   2.273   0.358 -0.4834  0.6765 -0.4204
  355SOL    HW1 1418   0.048   2.203   0.366  1.6902  0.3754  2.0960
  355SOL    HW2 1419   0.108   2.321   0.439 -2.1643  0.1903  2.9860
  355SOL     MW 1420   0.101   2.270   0.369 -0.4184  0.5726  0.3611
  356SOL     OW 1421   0.764   2.947   1.007  0.2765 -0.0528  0.1991
  356SOL    HW1 1422   0.811   2.978   0.927  1.4518 -2.2055 -0.6636
  356SOL    HW2 1423   0.705   2.882   0.975  0.0152  1.1676  4.2474
  356SOL     MW 1424   0.762   2.942   0.992  0.3971 -0.1758  0.6194
  357SOL     OW 1425   1.885   2.816   0.438  0.1825  0.1086  0.2933
  357SOL    HW1 1426   1.859   2.786   0.524  0.0215 -0.5882  0.2831
  357SOL    HW2 1427   1.957   2.756   0.419 -0.5724 -0.9135 -0.5090
  357SOL     MW 1428   1.891   2.804   0.447  0.0617 -0.1182  0.1861
  358SOL     OW 1429   0.371   0.124   1.012 -0.2251  0.1962 -0.2683
  358SOL    HW1 1430   0.469   0.130   0.994  1.4331  0.6679 -0.4692
  358SOL    HW2 1431   0.326   0.168   0.938 -2.9239 -0.3543 -0.3598
  358SOL     MW 1432   0.378   0.130   1.000 -0.3624  0.1858 -0.3069
  359SOL     OW 1433   0.894   2.944   1.914 -0.5505  0.3548 -0.1860
  359SOL    HW1 1434   0.882   2.858   1.962 -1.6872 -0.2888  2.0056
  359SOL    HW2 1435   0.882   2.915   1.821  0.8171 -0.6516  3.0996
  359SOL     MW 1436   0.891   2.929   1.908 -0.5200  0.1371  0.5366
  360SOL     OW 1437   0.562   2.765   0.890  0.3588  0.3195 -0.4533
  360SOL    HW1 1438   0.627   2.743   0.824 -1.7721  0.1260 -1.0857
  360SOL    HW2 1439   0.560   2.692   0.949 -0.8835  0.5947  2.1299
  360SOL     MW 1440   0.570   2.753   0.889 -0.0863  0.3303 -0.1959
  361SOL     OW 1441   0.097   2.717   1.334 -0.3641 -0.2062 -0.2140
  361SOL    HW1 1442   0.061   2.775   1.406 -2.1421  2.4009  1.0331
  361SOL    HW2 1443   0.181   2.758   1.317  1.2722  0.8597 -1.6465
  361SOL     MW 1444   0.103   2.730   1.341 -0.3828  0.2784 -0.2385
  362SOL     OW 1445   1.413   2.423   0.575  0.1999  0.1255 -0.2112
  362SOL    HW1 1446   1.448   2.348   0.628 -0.2384 -0.9324  1.0455
  362SOL    HW2 1447   1.470   2.504   0.581  0.1272  1.6886 -1.0891
  362SOL     MW 1448   1.425   2.424   0.582  0.1325  0.1921 -0.1612
  363SOL     OW 1449   0.344   3.090   0.658 -0.1915 -0.3704  0.2656
  363SOL    HW1 1450   0.331   3.015   0.710  1.9412 -1.7804  0.5308
  363SOL    HW2 1451   0.277   3.080   0.593  0.8100  2.1554 -0.1699
  363SOL     MW 1452   0.333   3.079   0.656  0.2220 -0.2232  0.2431
  364SOL     OW 1453   0.788   0.259   0.143  0.0038  0.4758 -0.7578
  364SOL    HW1 1454   0.730   0.181   0.156 -0.9840 -1.7604 -2.1897
  364SOL    HW2 1455   0.737   0.327   0.100  1.0823 -1.5189  0.8870
  364SOL     MW 1456   0.774   0.258   0.139  0.0157 -0.0825 -0.7297
  365SOL     OW 1457   0.902   2.010   1.287  0.4956  0.3289 -0.2125
  365SOL    HW1 1458   0.885   2.098   1.238  3.3394  0.1451 -1.5855
  365SOL    HW2 1459   0.857   1.946   1.225  0.5027  4.1620  0.5352
  365SOL     MW 1460   0.894   2.013   1.272  0.8718  0.8104 -0.2950
  366SOL     OW 1461   2.872   2.637   0.962 -0.6565 -0.4139 -0.5815
  366SOL    HW1 1462   2.960   2.605   1.004  0.5934  2.4190 -3.2892
  366SOL    HW2 1463   2.899   2.674   0.879  0.5365  0.2584  0.0053
  366SOL     MW 1464   2.887   2.638   0.956 -0.3341  0.0486 -0.8613
  367SOL     OW 1465   1.310   3.065   0.994 -0.1456  0.3995 -0.0416
  367SOL    HW1 1466   1.382   3.107   1.032 -2.7823  0.4576 -0.6071
  367SOL    HW2 1467   1.326   3.083   0.904  0.3856 -3.1463  2.9823
  367SOL     MW 1468   1.321   3.073   0.987 -0.4234 -0.0607  0.2827
  368SOL     OW 1469   1.759   0.382   0.584  0.4126  0.5415 -0.1072
  368SOL    HW1 1470   1.816   0.337   0.527  0.0555  1.7959 -1.2660
  368SOL    HW2 1471   1.760   0.473   0.562 -0.0864  2.9522 -1.9966
  368SOL     MW 1472   1.767   0.388   0.574  0.2997  1.0251 -0.5094
  369SOL     OW 1473   0.191   2.456   1.770  0.5891  0.4550 -0.1830
  369SOL    HW1 1474   0.285   2.438   1.756 -1.3625 -0.0595 -1.2307
  369SOL    HW2 1475   0.177   2.546   1.740 -1.2514 -0.6338  0.4233
  369SOL     MW 1476   0.202   2.466   1.764  0.0888  0.2434 -0.2413
  370SOL     OW 1477   0.661   0.122   1.046 -0.2823 -0.3852 -0.3640
  370SOL    HW1 1478   0.734   0.188   1.038  0.6106 -1.7789  0.9093
  370SOL    HW2 1479   0.708   0.042   1.023  1.4283 -0.5564 -0.2079
  370SOL     MW 1480   0.677   0.120   1.042  0.0612 -0.5917 -0.1754
  371SOL     OW 1481   1.108   2.897   1.482 -0.1537 -0.0837 -0.4979
  371SOL    HW1 1482   1.143   2.817   1.443 -0.3413 -0.6323  2.7618
  371SOL    HW2 1483   1.147   2.970   1.432  1.5258  1.1713 -0.2411
  371SOL     MW 1484   1.117   2.896   1.470  0.0431  0.0095 -0.0339
  372SOL     OW 1485   0.831   2.299   0.478  0.2351  0.0193  0.0425
  372SOL    HW1 1486   0.789   2.225   0.528  0.7982  0.3251  0.0346
  372SOL    HW2 1487   0.860   2.273   0.390  0.4006  1.0274 -0.2077
  372SOL     MW 1488   0.829   2.286   0.473  0.3312  0.1927  0.0085
  373SOL     OW 1489   2.802   2.963   1.406  0.5356  0.0961  0.1261
  373SOL    HW1 1490   2.874   2.919   1.353 -1.5313  0.4328 -1.6658
  373SOL    HW2 1491   2.774   3.035   1.353 -0.6244 -0.1220  2.8199
  373SOL     MW 1492   2.808   2.967   1.392  0.1099  0.1118  0.2451
  374SOL     OW 1493   1.553   0.445   0.206 -0.1776 -0.2304 -0.4173
  374SOL    HW1 1494   1.642   0.431   0.172 -0.6176 -0.0343  0.3863
  374SOL    HW2 1495   1.548   0.405   0.287  0.8942  1.0697  0.8793
  374SOL     MW 1496   1.564   0.438   0.212 -0.0942 -0.0330 -0.1402
  375SOL     OW 1497   1.095   2.001   2.184  0.0427 -0.4589  0.7686
  375SOL    HW1 1498   1.123   2.021   2.272 -0.5779 -0.2516 -1.0403
  375SOL    HW2 1499   0.999   1.978   2.186  1.3544  0.4338 -0.2955
  375SOL     MW 1500   1.086   2.001   2.196  0.1339 -0.3138  0.3895
  376SOL     OW 1501   0.806   2.534   0.100  0.0674  0.1260  0.1386
  376SOL    HW1 1502   0.741   2.473   0.156 -2.0200 -1.8214  2.7944
  376SOL    HW2 1503   0.808   2.488   0.018  0.5941  0.0030 -1.3140
  376SOL     MW 1504   0.798   2.520   0.096 -0.1385 -0.1472  0.2973
  377SOL     OW 1505   1.315   2.082   0.970 -0.2233 -0.4101 -0.0099
  377SOL    HW1 1506   1.239   2.066   0.915  0.0422  1.2553 -2.4856
  377SOL    HW2 1507   1.277   2.073   1.063  0.9583 -1.6848  0.1348
  377SOL     MW 1508   1.300   2.078   0.975 -0.0324 -0.3585 -0.3174
  378SOL     OW 1509   0.860   2.868   1.641 -0.0623  0.1300  0.9724
  378SOL    HW1 1510   0.869   2.780   1.673  0.8406  2.3681  0.7895
  378SOL    HW2 1511   0.926   2.881   1.568  2.6331  0.9914  0.7786
  378SOL     MW 1512   0.870   2.858   1.635  0.4125  0.5390  0.9227
  379SOL     OW 1513   1.039   1.537   2.342 -0.2318 -0.4648  0.1544
  379SOL    HW1 1514   0.967   1.532   2.278 -0.8927  0.5943  0.1720
  379SOL    HW2 1515   1.101   1.493   2.291 -1.7921  0.4898  1.2180
  379SOL     MW 1516   1.038   1.530   2.327 -0.5249 -0.1991  0.2971
  380SOL     OW 1517   0.920   0.188   1.513 -0.4264  0.6554 -0.8415
  380SOL    HW1 1518   0.907   0.109   1.456  0.1330 -0.0609 -1.5012
  380SOL    HW2 1519   0.965   0.149   1.587 -1.0144  1.0604  0.9285
  380SOL     MW 1520   0.925   0.172   1.515 -0.4301  0.6143 -0.6950
  381SOL     OW 1521   0.826   2.043   0.897 -0.2431 -0.5831  0.3516
  381SOL    HW1 1522   0.923   2.038   0.892 -1.1510  1.9663  1.5719
  381SOL    HW2 1523   0.797   2.094   0.971 -0.7684 -1.0059  1.3714
  381SOL     MW 1524   0.835   2.049   0.906 -0.4322 -0.3025  0.6472
  382SOL     OW 1525   0.836   0.099   0.636 -0.0315  0.6218  0.5513
  382SOL    HW1 1526   0.838   0.142   0.722  0.4140  0.5484 -0.6370
  382SOL    HW2 1527   0.808   0.005   0.657  1.5386 -3.2056  0.1499
  382SOL     MW 1528   0.833   0.093   0.650  0.2345  0.1072  0.3415
  383SOL     OW 1529   0.666   0.030   0.232 -0.0813  0.0554 -0.3921
  383SOL    HW1 1530   0.699  -0.049   0.185 -1.3181 -0.3214 -3.9254
  383SOL    HW2 1531   0.627   0.002   0.312 -1.3264  1.2006 -3.9361
  383SOL     MW 1532   0.665   0.016   0.236 -0.4088  0.1568 -1.3259
  384SOL     OW 1533   0.810   2.932   0.660  0.6943 -0.2811  0.6588
  384SOL    HW1 1534   0.893   2.938   0.712 -0.8751 -0.5349  0.1769
  384SOL    HW2 1535   0.774   2.844   0.682 -2.5131  0.6146  1.4890
  384SOL     MW 1536   0.816   2.921   0.670  0.0640 -0.1964  0.7048
  385SOL     OW 1537   1.366   2.039   1.579 -0.1353 -0.3370  0.0727
  385SOL    HW1 1538   1.444   2.073   1.629  4.5140 -0.1287 -0.6684
  385SOL    HW2 1539   1.329   1.975   1.642 -1.3689 -0.3009  1.5775
  385SOL     MW 1540   1.372   2.035   1.594  0.3153 -0.3047  0.1734
  386SOL     OW 1541   1.496   0.407   0.894  0.6701  0.0819  0.5446
  386SOL    HW1 1542   1.468   0.463   0.967 -1.2324 -1.4244 -0.4617
  386SOL    HW2 1543   1.590   0.377   0.899 -0.4966 -0.9985 -0.2021
  386SOL     MW 1544   1.505   0.411   0.904  0.2651 -0.2594  0.3133
  387SOL     OW 1545   0.816   2.279   1.559 -0.0387 -0.2973  0.2671
  387SOL    HW1 1546   0.902   2.303   1.503  0.7392 -1.9357 -2.8433
  387SOL    HW2 1547   0.822   2.184   1.582 -1.7356  2.7234  1.1404
  387SOL     MW 1548   0.828   2.270   1.555 -0.1599 -0.1149 -0.0281
  388SOL     OW 1549   1.503   2.785   1.532 -0.1065  0.0636 -0.3618
  388SOL    HW1 1550   1.449   2.816   1.457 -2.4805 -0.2112 -0.6071
  388SOL    HW2 1551   1.584   2.748   1.494  0.4263  0.0973 -0.5015
  388SOL     MW 1552   1.507   2.784   1.517 -0.3494  0.0318 -0.4126
  389SOL     OW 1553   0.410   0.116   3.057 -0.5555  0.4168  0.6685
  389SOL    HW1 1554   0.469   0.046   3.024  1.0505 -1.5129 -0.5090
  389SOL    HW2 1555   0.425   0.189   2.993  0.9748  0.0540  0.1277
  389SOL     MW 1556   0.420   0.116   3.044 -0.1417  0.1144  0.4418
  390SOL     OW 1557   1.351   3.079   0.694  0.1583  0.2593 -0.4435
  390SOL    HW1 1558   1.331   3.060   0.599  0.9469 -1.8543  1.0637
  390SOL    HW2 1559   1.436   3.105   0.705 -0.9161  0.6074  1.2689
  390SOL     MW 1560   1.359   3.080   0.683  0.1206  0.0264 -0.0187
  391SOL     OW 1561   0.322   2.200   1.501  0.0803  1.0100 -0.6729
  391SOL    HW1 1562   0.322   2.206   1.596  1.8607  4.0816 -1.3289
  391SOL    HW2 1563   0.267   2.281   1.478  1.3350  1.0791  2.4334
  391SOL     MW 1564   0.315   2.211   1.510  0.4808  1.4244 -0.3496
  392SOL     OW 1565   1.945   2.102   0.286 -0.4722  0.3282 -0.2660
  392SOL    HW1 1566   1.977   2.188   0.327 -1.6867  1.4440 -1.8104
  392SOL    HW2 1567   1.850   2.098   0.301  1.0198  1.5691 -0.8561
  392SOL     MW 1568   1.937   2.113   0.294 -0.4356  0.6391 -0.5476
  393SOL     OW 1569   0.248   2.968   2.789 -0.2634  0.5095 -0.4063
  393SOL    HW1 1570   0.329   2.954   2.746 -0.8828 -0.2355  1.5379
  393SOL    HW2 1571   0.268   3.042   2.847 -1.0707 -0.6808  0.3394
  393SOL     MW 1572   0.262   2.976   2.791 -0.4516  0.2542 -0.0514
  394SOL     OW 1573   0.965   1.760   1.632  0.3120 -0.5723 -0.1169
  394SOL    HW1 1574   1.006   1.783   1.717  2.7957  2.1603  0.9673
  394SOL    HW2 1575   0.921   1.843   1.610 -0.3434  0.4797  0.2678
  394SOL     MW 1576   0.965   1.774   1.640  0.5532 -0.0730  0.0769
  395SOL     OW 1577   0.945   2.945   2.703 -0.4493 -0.2299  0.0323
  395SOL    HW1 1578   1.009   3.021   2.723 -0.6388 -1.9668 -2.5619
  395SOL    HW2 1579   0.997   2.866   2.680  0.7082 -1.1862 -1.1787
  395SOL     MW 1580   0.960   2.944   2.703 -0.3216 -0.5852 -0.4698
  396SOL     OW 1581   0.731   1.892   2.430 -0.0446 -0.6393  1.0193
  396SOL    HW1 1582   0.824   1.909   2.456  1.0408 -2.3690  1.7392
  396SOL    HW2 1583   0.722   1.807   2.469  0.7949 -1.2132 -0.1453
  396SOL     MW 1584   0.742   1.883   2.438  0.2094 -0.9432  0.9606
  397SOL     OW 1585   1.054   2.315   1.418  0.1985  0.4353  0.3620
  397SOL    HW1 1586   1.100   2.361   1.348  0.8421 -2.3538 -1.3915
  397SOL    HW2 1587   1.128   2.311   1.478 -3.4179  0.4975  0.0076
  397SOL     MW 1588   1.070   2.321   1.416 -0.1937  0.0755  0.0839
  398SOL     OW 1589   0.723   2.687   0.691  0.1534 -0.8879  0.6698
  398SOL    HW1 1590   0.650   2.677   0.631  3.8929  0.5666 -0.2411
  398SOL    HW2 1591   0.789   2.623   0.663 -1.1695 -0.2112  1.5696
  398SOL     MW 1592   0.722   2.677   0.679  0.4722 -0.6067  0.6683
  399SOL     OW 1593   0.316   2.106   0.365  0.7227  0.2404 -0.4347
  399SOL    HW1 1594   0.249   2.171   0.361  0.6992  0.9778  0.0854
  399SOL    HW2 1595   0.387   2.142   0.319 -0.4628  0.5153 -1.2418
  399SOL     MW 1596   0.317   2.120   0.358  0.5632  0.3740 -0.4726
  400SOL     OW 1597   0.612   1.956   0.152  0.4447 -0.0627 -0.0285
  400SOL    HW1 1598   0.552   2.033   0.154  2.7905  0.9300 -0.8111
  400SOL    HW2 1599   0.556   1.895   0.201  0.4903 -1.9925  0.6082
  400SOL     MW 1600   0.597   1.958   0.159  0.7602 -0.1863 -0.0477
  401SOL     OW 1601   0.851   2.033   0.029  0.6718  0.7883  0.5549
  401SOL    HW1 1602   0.901   1.955   0.007 -1.5255 -2.2461 -1.7730
  401SOL    HW2 1603   0.760   2.003   0.051 -1.3332 -1.5158  1.4145
  401SOL     MW 1604   0.845   2.019   0.029  0.1173  0.0840  0.3611
  402SOL     OW 1605   0.580   3.040   1.861 -0.0792  0.1057 -0.1463
  402SOL    HW1 1606   0.642   2.982   1.906  1.9408  2.1571  2.5549
  402SOL    HW2 1607   0.632   3.097   1.802  0.3778 -4.5365 -1.5355
  402SOL     MW 1608   0.595   3.040   1.859  0.2476 -0.2361  0.0268
  403SOL     OW 1609   0.141   0.510   0.448  0.5164  0.0031  0.1106
  403SOL    HW1 1610   0.227   0.542   0.473 -4.2496  2.2750  0.1049
  403SOL    HW2 1611   0.149   0.471   0.363 -1.4944  0.3958 -1.1143
  403SOL     MW 1612   0.153   0.509   0.440 -0.3777  0.3547 -0.0518
  404SOL     OW 1613   1.012   2.989   0.837  0.3153  0.0847  0.2475
  404SOL    HW1 1614   1.074   2.924   0.800  2.9458  3.6232 -0.9771
  404SOL    HW2 1615   1.047   3.077   0.803  1.9744  0.7064  0.9009
  404SOL     MW 1616   1.024   2.992   0.828  0.8813  0.6336  0.1721
  405SOL     OW 1617   0.497   2.505   1.484 -0.3887 -0.3749 -0.6071
  405SOL    HW1 1618   0.487   2.581   1.433 -2.1702 -0.8310 -1.0903
  405SOL    HW2 1619   0.542   2.435   1.441  0.2935  0.8333  0.9797
  405SOL     MW 1620   0.502   2.505   1.472 -0.5338 -0.2756 -0.4615
  406SOL     OW 1621   0.423   2.324   1.051  0.2339  0.3042 -0.3495
  406SOL    HW1 1622   0.344   2.362   1.099 -0.6408 -1.1355  0.9614
  406SOL    HW2 1623   0.437   2.241   1.093  0.0029  1.5704  0.6568
  406SOL     MW 1624   0.415   2.318   1.063  0.0881  0.2813 -0.0438
  407SOL     OW 1625   0.015   2.619   1.055  0.1814  0.1918 -0.0078
  407SOL    HW1 1626   0.044   2.646   1.142  1.6846  0.2455  1.0504
  407SOL    HW2 1627   0.072   2.655   0.984  1.5408 -1.9791 -0.6301
  407SOL     MW 1628   0.026   2.627   1.057  0.5591 -0.0875  0.0497
  408SOL     OW 1629   2.104   2.209   0.722 -0.1525  0.1902  0.6139
  408SOL    HW1 1630   2.052   2.249   0.795 -2.3060 -0.4225 -1.3209
  408SOL    HW2 1631   2.046   2.159   0.664  0.2567  1.0793 -2.6285
  408SOL     MW 1632   2.090   2.207   0.724 -0.3827  0.2266 -0.0691
  409SOL     OW 1633   1.630   0.070   0.820  0.1246  0.6486 -0.0194
  409SOL    HW1 1634   1.651   0.164   0.820  1.1792  0.1098  0.9483
  409SOL    HW2 1635   1.633   0.048   0.918 -1.6456 -0.3618  0.9937
  409SOL     MW 1636   1.633   0.080   0.833  0.0302  0.4442  0.2419
  410SOL     OW 1637   1.103   2.461   1.184  0.0814  0.5848 -0.0379
  410SOL    HW1 1638   1.027   2.457   1.127 -1.0859 -0.0876 -0.6443
  410SOL    HW2 1639   1.176   2.417   1.141 -2.2608  0.2443  1.1028
  410SOL     MW 1640   1.102   2.455   1.171 -0.3816  0.4512  0.0326
  411SOL     OW 1641   1.988   2.948   2.942  0.1332 -0.0229 -0.1271
  411SOL    HW1 1642   2.036   2.941   2.860 -1.4000 -0.1462  1.8261
  411SOL    HW2 1643   1.959   3.042   2.954 -0.5503 -0.1287 -2.7240
  411SOL     MW 1644   1.991   2.960   2.933 -0.1593 -0.0532 -0.2120
  412SOL     OW 1645   1.098   2.246   0.648  0.1656 -0.7940 -0.0655
  412SOL    HW1 1646   1.155   2.318   0.678 -0.0451 -0.4458 -2.3396
  412SOL    HW2 1647   1.017   2.301   0.635  0.4722 -1.8698  0.0295
  412SOL     MW 1648   1.095   2.263   0.650  0.1783 -0.8900 -0.3530
  413SOL     OW 1649   0.576   2.671   0.074 -0.8220 -0.1355  0.2621
  413SOL    HW1 1650   0.661   2.631   0.099 -2.9068  0.8880 -1.1672
  413SOL    HW2 1651   0.562   2.636  -0.015  1.5776 -2.7361 -0.4005
  413SOL     MW 1652   0.586   2.661   0.066 -0.7805 -0.3436 -0.0139
  414SOL     OW 1653   2.078   3.025   1.089  0.2794  0.6838  0.1506
  414SOL    HW1 1654   2.140   3.093   1.101  1.0428 -1.7971 -2.1127
  414SOL    HW2 1655   2.039   3.048   1.004 -0.2160  1.1324  1.1839
  414SOL     MW 1656   2.081   3.037   1.079  0.3148  0.4156 -0.0117
  415SOL     OW 1657   1.656   2.841   1.198 -0.3114  0.0089  0.8600
  415SOL    HW1 1658   1.731   2.864   1.258 -0.8529  1.8164 -0.0415
  415SOL    HW2 1659   1.697   2.771   1.137  0.3438 -0.3429 -0.8848
  415SOL     MW 1660   1.671   2.834   1.198 -0.2964  0.2010  0.5108
  416SOL     OW 1661   0.681   1.748   1.451 -0.3550  0.2112  0.8202
  416SOL    HW1 1662   0.588   1.771   1.423  2.0740  1.0832  1.8429
  416SOL    HW2 1663   0.721   1.667   1.411  0.2389 -2.9082  1.1741
  416SOL     MW 1664   0.674   1.741   1.442  0.0438 -0.0853  1.0019
  417SOL     OW 1665   0.939   0.081   2.096  0.2117  0.0083  0.3005
  417SOL    HW1 1666   0.881   0.053   2.166 -1.8169 -1.7434  0.1297
  417SOL    HW2 1667   0.912   0.013   2.032 -1.7958 -1.1091 -2.5594
  417SOL     MW 1668   0.928   0.068   2.097 -0.3208 -0.3702 -0.0994
  418SOL     OW 1669   0.753   2.868   0.166  0.3019  0.5765 -0.5376
  418SOL    HW1 1670   0.815   2.813   0.118 -1.1100  0.2352  1.5701
  418SOL    HW2 1671   0.680   2.811   0.161  1.9033  2.3442 -2.8544
  418SOL     MW 1672   0.751   2.853   0.159  0.3269  0.7647 -0.5652
  419SOL     OW 1673   0.623   2.706   1.308 -0.2833  0.0851 -0.5800
  419SOL    HW1 1674   0.632   2.782   1.365 -1.3145  3.1689 -3.0839
  419SOL    HW2 1675   0.682   2.643   1.341 -1.9070  1.9545 -2.2974
  419SOL     MW 1676   0.632   2.708   1.320 -0.6336  0.7386 -1.1369
  420SOL     OW 1677   0.825   2.228   1.150 -0.2048  0.1391 -0.0878
  420SOL    HW1 1678   0.789   2.271   1.225  0.3797 -0.8607 -1.5746
  420SOL    HW2 1679   0.841   2.299   1.088  2.8211  0.0608  0.2823
  420SOL     MW 1680   0.822   2.243   1.152  0.2715 -0.0031 -0.2351
  421SOL     OW 1681   2.916   0.126   0.050 -0.1336  0.0408 -0.5364
  421SOL    HW1 1682   2.821   0.119   0.039  1.3492  0.9636  0.6083
  421SOL    HW2 1683   2.962   0.065   0.003 -0.9356  0.4705  2.4074
  421SOL     MW 1684   2.910   0.117   0.042 -0.0437  0.2192  0.0030
  422SOL     OW 1685   0.877   2.453   0.973 -0.1593 -0.1205  0.2215
  422SOL    HW1 1686   0.791   2.492   0.976 -1.7954  0.8627  1.4927
  422SOL    HW2 1687   0.906   2.463   0.886 -1.4052  1.1414  0.8125
  422SOL     MW 1688   0.869   2.460   0.962 -0.5395  0.1757  0.4672
  423SOL     OW 1689   1.575   0.066   0.466 -0.0924  0.3242 -0.3573
  423SOL    HW1 1690   1.603   0.015   0.390 -2.7172 -2.5055 -0.5708
  423SOL    HW2 1691   1.557   0.156   0.446  0.5373  0.0850 -0.0027
  423SOL     MW 1692   1.577   0.071   0.453 -0.3556 -0.0807 -0.3387
  424SOL     OW 1693   0.654   2.319   1.361 -0.5425  0.0512 -0.0973
  424SOL    HW1 1694   0.613   2.238   1.330 -0.3808  0.9509 -0.1936
  424SOL    HW2 1695   0.719   2.297   1.436  2.5849  0.9291 -0.8190
  424SOL     MW 1696   0.657   2.306   1.367 -0.1086  0.2857 -0.2052
  425SOL     OW 1697   1.754   2.804   2.035  0.4107 -0.0068  0.0920
  425SOL    HW1 1698   1.769   2.816   1.938 -1.1201 -4.0055 -0.4513
  425SOL    HW2 1699   1.792   2.715   2.053  3.2325 -0.6499  1.3003
  425SOL     MW 1700   1.761   2.794   2.024  0.5810 -0.6192  0.1797
  426SOL     OW 1701   0.807   1.756   1.947 -0.2014 -0.0577  0.4076
  426SOL    HW1 1702   0.757   1.780   1.864  0.5082  0.9550  2.1817
  426SOL    HW2 1703   0.773   1.826   2.002 -4.8053 -0.6581  1.0718
  426SOL     MW 1704   0.796   1.769   1.943 -0.7152 -0.0033  0.7293
  427SOL     OW 1705   0.392   1.767   1.887 -0.4260 -0.0669  0.1615
  427SOL    HW1 1706   0.457   1.753   1.826  0.5627  1.4554 -1.0614
  427SOL    HW2 1707   0.370   1.676   1.915 -2.0117 -0.9946  0.4173
  427SOL     MW 1708   0.398   1.753   1.883 -0.5048  0.0116  0.0339
  428SOL     OW 1709   0.628   2.538   1.042 -0.5638  0.0549 -0.3559
  428SOL    HW1 1710   0.551   2.487   1.026 -0.2335 -1.0564  1.8865
  428SOL    HW2 1711   0.631   2.541   1.141  0.8342 -2.4260  0.5883
  428SOL     MW 1712   0.618   2.532   1.053 -0.3358 -0.4191  0.0645
  429SOL     OW 1713   1.259   2.817   1.070 -0.2188 -0.0922  0.1258
  429SOL    HW1 1714   1.167   2.819   1.092  0.2718  0.7477 -0.4936
  429SOL    HW2 1715   1.280   2.913   1.047 -1.8519 -0.7439  0.6542
  429SOL     MW 1716   1.249   2.830   1.070 -0.3695 -0.0674  0.1138
  430SOL     OW 1717   1.201   2.804   0.779  0.1532 -0.6088  0.1348
  430SOL    HW1 1718   1.212   2.771   0.873  0.8001  0.7851  1.4452
  430SOL    HW2 1719   1.162   2.735   0.720 -1.9565  0.3252 -3.7014
  430SOL     MW 1720   1.198   2.790   0.784 -0.0398 -0.3017 -0.1985
  431SOL     OW 1721   0.361   1.876   1.110  0.1401 -0.1715 -0.4104
  431SOL    HW1 1722   0.421   1.799   1.101  2.8306  1.1976 -0.3474
  431SOL    HW2 1723   0.361   1.899   1.022 -0.3983 -1.1253 -0.8485
  431SOL     MW 1724   0.369   1.869   1.097  0.4240 -0.1167 -0.4599
  432SOL     OW 1725   0.026   3.093   1.119 -0.1682 -0.7776 -0.1881
  432SOL    HW1 1726  -0.015   3.162   1.181 -3.1021  3.1885 -0.7124
  432SOL    HW2 1727  -0.050   3.042   1.100  2.6071  1.5226  1.0588
  432SOL     MW 1728   0.011   3.095   1.125 -0.1891  0.0492 -0.0928
  433SOL     OW 1729   0.631   2.937   1.488 -0.4319  0.4419  0.1073
  433SOL    HW1 1730   0.627   3.031   1.492  0.3442  1.6418 -1.8823
  433SOL    HW2 1731   0.701   2.907   1.546 -1.2233  1.4828 -2.7415
  433SOL     MW 1732   0.640   2.946   1.496 -0.4339  0.7376 -0.5311
  434SOL     OW 1733   1.493   2.811   1.807  0.2623  0.0206  0.1478
  434SOL    HW1 1734   1.411   2.854   1.832  1.9437 -1.2883  4.1226
  434SOL    HW2 1735   1.482   2.813   1.714  0.0092  4.0549  1.0108
  434SOL     MW 1736   1.480   2.817   1.798  0.4507  0.3802  0.7861
  435SOL     OW 1737   2.724   1.804   0.298  0.3287  0.3161  0.7920
  435SOL    HW1 1738   2.795   1.828   0.235  1.7258  4.8095 -0.9670
  435SOL    HW2 1739   2.651   1.810   0.240  2.1454 -0.7807 -1.0181
  435SOL     MW 1740   2.723   1.808   0.282  0.7527  0.7642  0.3211
  436SOL     OW 1741   1.386   2.782   0.346  0.8297  0.0055 -0.1591
  436SOL    HW1 1742   1.455   2.749   0.409 -1.8440  0.5502 -3.2830
  436SOL    HW2 1743   1.354   2.868   0.375  1.9931  1.5361 -0.0188
  436SOL     MW 1744   1.391   2.789   0.359  0.6305  0.2793 -0.5527
  437SOL     OW 1745   0.877   3.100   1.308 -0.1226 -0.5211  0.1610
  437SOL    HW1 1746   0.945   3.127   1.240 -0.4463  1.2067 -0.7545
  437SOL    HW2 1747   0.890   3.009   1.315 -1.7177  0.5896 -1.6802
  437SOL     MW 1748   0.888   3.091   1.300 -0.3757 -0.1466 -0.2027
  438SOL     OW 1749   0.836   2.690   2.034 -0.2861 -0.0725  0.6775
  438SOL    HW1 1750   0.856   2.613   2.094  0.2069 -1.5554 -2.6447
  438SOL    HW2 1751   0.801   2.643   1.959 -1.9479  0.8949 -2.0966
  438SOL     MW 1752   0.834   2.674   2.032 -0.4403 -0.1405 -0.1269
  439SOL     OW 1753   1.182   2.082   0.405  0.6150  0.0753 -0.4322
  439SOL    HW1 1754   1.140   2.125   0.477  1.7746 -1.2168  0.5690
  439SOL    HW2 1755   1.189   2.153   0.342  1.0764 -1.0823  1.6250
  439SOL     MW 1756   1.177   2.097   0.407  0.8288 -0.2479 -0.0287
  440SOL     OW 1757   1.823   2.748   3.053  0.4852  0.1032  0.3453
  440SOL    HW1 1758   1.799   2.789   3.138  0.1141 -1.9677 -1.0781
  440SOL    HW2 1759   1.875   2.805   3.004 -0.3771  0.6355  0.8267
  440SOL     MW 1760   1.827   2.761   3.058  0.3225 -0.0998  0.2210
  441SOL     OW 1761   0.501   2.705   0.466 -0.3249  0.2070  0.0894
  441SOL    HW1 1762   0.430   2.689   0.399  1.2542  1.1101  0.1701
  441SOL    HW2 1763   0.524   2.801   0.455  0.2810  3.0042  0.2558
  441SOL     MW 1764   0.495   2.715   0.455 -0.0366  0.6952  0.1220
  442SOL     OW 1765   0.017   2.421   0.619 -0.4771 -0.6082 -0.2826
  442SOL    HW1 1766   0.016   2.498   0.570  0.7562 -0.4925  1.4209
  442SOL    HW2 1767  -0.071   2.413   0.654 -0.6498 -0.7425 -0.4023
  442SOL     MW 1768   0.005   2.430   0.617 -0.3372 -0.6106 -0.0736
  443SOL     OW 1769   1.473   1.766   1.936 -0.0574 -0.5085 -0.0753
  443SOL    HW1 1770   1.423   1.775   1.857 -0.0981 -1.2905  0.0408
  443SOL    HW2 1771   1.497   1.670   1.936 -0.3101  0.5968  2.1198
  443SOL     MW 1772   1.470   1.755   1.926 -0.0961 -0.4658  0.2296
  444SOL     OW 1773   0.876   2.587   1.634 -0.5729 -0.2737  0.0374
  444SOL    HW1 1774   0.953   2.536   1.659  0.0226  0.4411  0.6845
  444SOL    HW2 1775   0.803   2.547   1.682  0.3631 -0.1712  0.1931
  444SOL     MW 1776   0.877   2.575   1.644 -0.3708 -0.1659  0.1433
  445SOL     OW 1777   1.184   0.091   1.427  0.7450 -0.2230  0.7292
  445SOL    HW1 1778   1.106   0.137   1.460  0.4429  0.9013 -2.8439
  445SOL    HW2 1779   1.207   0.148   1.353  1.9698  0.8326  1.2504
  445SOL     MW 1780   1.177   0.105   1.422  0.8667  0.0646  0.3265
  446SOL     OW 1781   2.679   2.805   1.056 -0.0964 -0.3027 -0.1954
  446SOL    HW1 1782   2.639   2.855   0.983  0.2957  2.5946 -1.8536
  446SOL    HW2 1783   2.746   2.753   1.012  0.7820  0.8433 -3.0320
  446SOL     MW 1784   2.682   2.805   1.041  0.0713  0.2308 -0.7884
  447SOL     OW 1785   0.064   1.963   1.580 -0.2159 -0.1878  0.5449
  447SOL    HW1 1786   0.093   1.893   1.647  0.6855 -2.7785 -1.2273
  447SOL    HW2 1787  -0.020   1.935   1.539 -3.7564  1.1599 -1.8710
  447SOL     MW 1788   0.056   1.950   1.583 -0.5641 -0.3518 -0.0076
  448SOL     OW 1789   1.713   2.375   1.677  0.9026  0.0433  0.2964
  448SOL    HW1 1790   1.701   2.281   1.673  0.2642  0.9083  0.4705
  448SOL    HW2 1791   1.623   2.413   1.686  0.8767 -0.1817 -1.6450
  448SOL     MW 1792   1.700   2.367   1.678  0.8150  0.1277  0.0632
  449SOL     OW 1793   0.930   2.908   0.376 -0.1653  0.2341  0.0422
  449SOL    HW1 1794   0.862   2.888   0.308  0.5376 -2.4604 -0.6778
  449SOL    HW2 1795   0.883   2.906   0.462 -0.7275  0.7957 -1.6080
  449SOL     MW 1796   0.915   2.905   0.378 -0.1467 -0.0473 -0.2705
  450SOL     OW 1797   1.201   2.465   0.744  0.6977  0.4892 -0.0770
  450SOL    HW1 1798   1.249   2.471   0.823  0.9058 -0.8560  0.8596
  450SOL    HW2 1799   1.273   2.486   0.674  0.2665  0.3844  0.9583
  450SOL     MW 1800   1.217   2.469   0.745  0.6682  0.2979  0.1831
  451SOL     OW 1801   0.552   2.021   1.675  1.0282  0.4708 -0.4382
  451SOL    HW1 1802   0.637   2.035   1.640  1.3019 -1.0150 -0.1247
  451SOL    HW2 1803   0.499   1.973   1.607  1.1061 -1.2685 -0.0148
  451SOL     MW 1804   0.557   2.017   1.661  1.0746  0.0453 -0.3410
  452SOL     OW 1805   0.303   2.641   0.005  0.5322  0.1182 -0.2021
  452SOL    HW1 1806   0.396   2.655   0.014  2.3540 -3.7587  1.2432
  452SOL    HW2 1807   0.253   2.709  -0.034  2.9168 -2.0174  1.1612
  452SOL     MW 1808   0.309   2.652   0.001  1.0872 -0.6751  0.1684
  453SOL     OW 1809   0.194   2.998   1.588  0.2649  0.3655  0.5261
  453SOL    HW1 1810   0.238   2.974   1.668 -0.5998 -0.2362 -0.3479
  453SOL    HW2 1811   0.241   2.950   1.519 -1.2308  1.4460 -2.1263
  453SOL     MW 1812   0.206   2.988   1.590 -0.0465  0.4287  0.0609
  454SOL     OW 1813   0.951   2.822   1.167  0.1892  0.5494 -0.1258
  454SOL    HW1 1814   0.932   2.727   1.191  0.9030  1.3237 -0.9839
  454SOL    HW2 1815   0.872   2.855   1.119  0.4166  1.0782 -1.2912
  454SOL     MW 1816   0.938   2.814   1.164  0.3134  0.7213 -0.3927
  455SOL     OW 1817   1.754   2.810   0.203 -0.3934  0.3636  0.3745
  455SOL    HW1 1818   1.799   2.815   0.287  0.8450  1.3229 -3.7928
  455SOL    HW2 1819   1.699   2.729   0.201  0.8656  0.7217  1.6387
  455SOL     MW 1820   1.752   2.800   0.214 -0.0639  0.5374 -0.0086
  456SOL     OW 1821   2.793   0.227   1.448  0.3947  0.1087 -0.1933
  456SOL    HW1 1822   2.733   0.173   1.399  0.6127 -2.0189 -0.3198
  456SOL    HW2 1823   2.811   0.302   1.391 -1.2924 -0.8887 -0.5667
  456SOL     MW 1824   2.788   0.230   1.434  0.2009 -0.3036 -0.2593
  457SOL     OW 1825   0.819   1.621   3.042  0.0909 -0.5481  0.0846
  457SOL    HW1 1826   0.723   1.590   3.048 -1.5356 -0.4658 -1.2815
  457SOL    HW2 1827   0.832   1.647   3.134 -1.1532 -0.7527 -0.2964
  457SOL     MW 1828   0.808   1.620   3.055 -0.2879 -0.5642 -0.1459
  458SOL     OW 1829   1.331   1.515   0.686  0.4950  0.4418  0.0874
  458SOL    HW1 1830   1.255   1.542   0.728  0.0676 -1.0049  0.4776
  458SOL    HW2 1831   1.300   1.422   0.660 -2.1209 -0.5529 -2.4773
  458SOL     MW 1832   1.317   1.506   0.688  0.0935  0.1197 -0.1995
  459SOL     OW 1833   1.602   3.049   0.219  0.4603 -0.0346 -0.5388
  459SOL    HW1 1834   1.640   2.967   0.191 -1.6732  0.0876  1.2506
  459SOL    HW2 1835   1.532   3.081   0.156  0.0874 -1.4001 -0.3971
  459SOL     MW 1836   1.598   3.042   0.207  0.1296 -0.1987 -0.2840
  460SOL     OW 1837   1.763   2.235   0.652 -0.6688  0.1658  0.1735
  460SOL    HW1 1838   1.682   2.233   0.695  0.5990  1.9592 -2.7585
  460SOL    HW2 1839   1.797   2.147   0.648 -0.2345  3.2264  0.5042
  460SOL     MW 1840   1.757   2.223   0.657 -0.4442  0.8062 -0.1697
  461SOL     OW 1841   0.463   2.421   0.556  0.5392 -0.7144  0.1847
  461SOL    HW1 1842   0.481   2.506   0.525  1.4578 -1.7343  3.1507
  461SOL    HW2 1843   0.416   2.437   0.636  1.4370  0.6483  2.6143
  461SOL     MW 1844   0.460   2.434   0.562  0.7788 -0.6692  0.8966
  462SOL     OW 1845   0.334   0.241   1.278  0.5401  0.2999 -0.1242
  462SOL    HW1 1846   0.358   0.208   1.190 -0.2696 -0.1708  1.3793
  462SOL    HW2 1847   0.408   0.243   1.336  0.0964 -2.6430  1.1588
  462SOL     MW 1848   0.347   0.237   1.274  0.3747 -0.1505  0.2435
  463SOL     OW 1849   1.116   0.113   0.728  0.0447  0.2060  0.3895
  463SOL    HW1 1850   1.203   0.089   0.699 -0.5919  0.6487 -1.5498
  463SOL    HW2 1851   1.055   0.121   0.653 -0.6702 -0.3570 -2.0609
  463SOL     MW 1852   1.119   0.111   0.714 -0.1336  0.1901 -0.1897
  464SOL     OW 1853   0.724   3.047   2.316 -0.3481  0.4271  0.6758
  464SOL    HW1 1854   0.743   2.948   2.323  2.3271  0.6377 -1.1861
  464SOL    HW2 1855   0.701   3.079   2.399 -0.3190  3.4299 -1.7141
  464SOL     MW 1856   0.724   3.038   2.328  0.0087  0.8511  0.1148
  465SOL     OW 1857   0.867   0.328   0.406  0.0345  0.1731  0.6825
  465SOL    HW1 1858   0.828   0.269   0.476  0.5835 -1.6327  0.5970
  465SOL    HW2 1859   0.824   0.320   0.321  2.2288  1.7762  1.1252
  465SOL     MW 1860   0.856   0.319   0.404  0.3964  0.1463  0.7296
  466SOL     OW 1861   1.108   2.037   0.812 -0.4593 -0.6291  0.0774
  466SOL    HW1 1862   1.099   1.948   0.758 -0.4815 -0.1043 -6.2269
  466SOL    HW2 1863   1.096   2.115   0.746 -0.7146  1.1494  0.2658
  466SOL     MW 1864   1.105   2.035   0.796 -0.4959 -0.3252 -0.7296
  467SOL     OW 1865   1.296   2.330   1.057  0.5054 -0.3063  0.5496
  467SOL    HW1 1866   1.384   2.375   1.044 -1.3159  0.8891  2.0570
  467SOL    HW2 1867   1.309   2.239   1.022 -0.5724 -0.4485  0.7144
  467SOL     MW 1868   1.310   2.324   1.050  0.1229 -0.1673  0.7702
  468SOL     OW 1869   0.409   2.650   1.968 -0.5262 -0.8042 -0.0087
  468SOL    HW1 1870   0.425   2.598   1.896  1.1408  0.3986  1.4163
  468SOL    HW2 1871   0.383   2.743   1.935 -2.3762  3.4053 -2.3562
  468SOL     MW 1872   0.408   2.656   1.954 -0.5504 -0.0901 -0.1304
  469SOL     OW 1873   0.340   2.176   1.778 -0.0629  0.4412  0.0993
  469SOL    HW1 1874   0.274   2.115   1.802  0.8803  3.4961  2.4831
  469SOL    HW2 1875   0.426   2.125   1.776  0.3121  0.3326  0.2052
  469SOL     MW 1876   0.343   2.161   1.781  0.1110  0.8299  0.4278
  470SOL     OW 1877   3.046   2.603   0.119  0.5918  0.0186  0.1020
  470SOL    HW1 1878   2.952   2.623   0.152 -1.6213  1.5049 -0.0050
  470SOL    HW2 1879   3.041   2.604   0.023 -1.1704  1.1597  0.2167
  470SOL     MW 1880   3.033   2.606   0.111  0.0673  0.3652  0.1030
  471SOL     OW 1881   1.241   2.679   1.372  0.1639  0.4056  0.8483
  471SOL    HW1 1882   1.190   2.619   1.315  2.7578  0.3224 -0.4099
  471SOL    HW2 1883   1.330   2.674   1.333 -1.1969  0.5438 -2.3442
  471SOL     MW 1884   1.246   2.670   1.360  0.3266  0.4128  0.2611
  472SOL     OW 1885   2.979   2.125   0.372 -0.0775 -0.3748  0.6385
  472SOL    HW1 1886   2.959   2.082   0.288 -1.2470 -0.8978 -0.5791
  472SOL    HW2 1887   2.930   2.081   0.451 -0.5009  1.1372  1.3944
  472SOL     MW 1888   2.970   2.113   0.371 -0.2877 -0.2443  0.5776
  473SOL     OW 1889   0.881   2.582   1.357  0.3194  0.3234  0.2990
  473SOL    HW1 1890   0.944   2.511   1.349  1.3761  0.6954  1.6693
  473SOL    HW2 1891   0.879   2.596   1.456 -0.4997  2.9276 -1.6033
  473SOL     MW 1892   0.889   2.575   1.369  0.3507  0.7161  0.2288
  474SOL     OW 1893   0.795   2.252   1.851  0.5506 -0.0813  0.8582
  474SOL    HW1 1894   0.891   2.266   1.865 -0.3584  0.0396 -1.7542
  474SOL    HW2 1895   0.779   2.283   1.760 -1.4374 -0.0175 -1.8916
  474SOL     MW 1896   0.805   2.258   1.841  0.1684 -0.0569  0.1507
  475SOL     OW 1897   1.584   3.089   1.551  0.6428  0.1938  0.1380
  475SOL    HW1 1898   1.509   3.044   1.500 -2.7147  0.6070 -0.9043
  475SOL    HW2 1899   1.633   3.012   1.577  2.2590  0.5405  0.0286
  475SOL     MW 1900   1.580   3.073   1.548  0.4131  0.2940 -0.0139
  476SOL     OW 1901   1.439   2.675   1.208  1.1773  0.4055 -0.4509
  476SOL    HW1 1902   1.372   2.735   1.174  2.2436 -1.5750 -0.2239
  476SOL    HW2 1903   1.519   2.723   1.220 -0.7413  0.8019 -0.8202
  476SOL     MW 1904   1.441   2.689   1.205  1.0649  0.1965 -0.4697
  477SOL     OW 1905   0.866   2.461   0.661  0.2023 -0.6387  0.2412
  477SOL    HW1 1906   0.947   2.508   0.635 -0.0585 -0.7065  1.3689
  477SOL    HW2 1907   0.842   2.404   0.586  0.0767 -1.5029 -0.2336
  477SOL     MW 1908   0.873   2.460   0.648  0.1514 -0.7617  0.3273
  478SOL     OW 1909   0.171   2.678   0.839 -0.4882  0.3623 -0.1298
  478SOL    HW1 1910   0.226   2.757   0.852  0.2542  2.1880  0.3772
  478SOL    HW2 1911   0.230   2.604   0.828 -2.9578  0.0367 -0.4395
  478SOL     MW 1912   0.186   2.678   0.839 -0.7161  0.5602 -0.1038
  479SOL     OW 1913   1.403   1.982   1.302 -0.1448 -0.1890 -0.0484
  479SOL    HW1 1914   1.398   1.997   1.398 -2.8474 -0.3980 -0.8476
  479SOL    HW2 1915   1.450   1.900   1.281  0.4438  2.2580  1.8224
  479SOL     MW 1916   1.408   1.973   1.312 -0.4238  0.1063  0.0930
  480SOL     OW 1917   1.897   2.454   1.348 -0.2497  0.3872 -0.2634
  480SOL    HW1 1918   1.946   2.378   1.366  1.2139 -0.8911  2.0178
  480SOL    HW2 1919   1.923   2.486   1.261 -0.4194 -0.5861  0.0615
  480SOL     MW 1920   1.907   2.449   1.339 -0.0790  0.0901  0.0804
  481SOL     OW 1921   1.075   0.066   1.104 -0.2567 -0.0026 -0.1238
  481SOL    HW1 1922   1.059   0.001   1.034 -1.7393 -0.6456 -1.4247
  481SOL    HW2 1923   1.165   0.092   1.098 -0.5370  0.6563 -1.0134
  481SOL     MW 1924   1.085   0.061   1.094 -0.4893 -0.0005 -0.4128
  482SOL     OW 1925   1.101   3.089   0.251  0.6964 -0.3738  0.6458
  482SOL    HW1 1926   1.056   3.021   0.296  2.8087 -2.8936 -1.4890
  482SOL    HW2 1927   1.082   3.174   0.300 -0.1979  0.8516 -1.0208
  482SOL     MW 1928   1.093   3.091   0.264  0.8571 -0.5446  0.1443
  483SOL     OW 1929   0.510   3.019   0.414  0.3582 -0.0710 -0.7897
  483SOL    HW1 1930   0.439   2.993   0.357 -0.8528 -0.6160  1.0428
  483SOL    HW2 1931   0.472   3.027   0.502  0.7415 -3.1550 -0.8491
  483SOL     MW 1932   0.496   3.016   0.418  0.2490 -0.5498 -0.5558
  484SOL     OW 1933   1.892   2.035   1.450  0.1759 -0.0167  0.3792
  484SOL    HW1 1934   1.910   2.128   1.435 -0.1380  0.1463  1.3087
  484SOL    HW2 1935   1.870   2.016   1.544  0.4196 -0.1767  2.7067
  484SOL     MW 1936   1.891   2.045   1.461  0.1666 -0.0163  0.8089
  485SOL     OW 1937   0.627   2.415   0.250 -0.3503  0.1087 -0.3279
  485SOL    HW1 1938   0.628   2.404   0.345 -0.6981 -1.6990 -3.2357
  485SOL    HW2 1939   0.551   2.475   0.230 -1.0971  0.0229  1.8470
  485SOL     MW 1940   0.617   2.422   0.260 -0.4948 -0.1412 -0.4246
  486SOL     OW 1941   0.145   2.405   1.469 -0.1560  0.3843 -0.7249
  486SOL    HW1 1942   0.164   2.500   1.464 -2.0946  2.7714  1.5902
  486SOL    HW2 1943   0.093   2.386   1.550  0.8472 -1.7600  0.6935
  486SOL     MW 1944   0.140   2.415   1.479 -0.2794  0.4163 -0.2323
  487SOL     OW 1945   1.134   1.731   1.060 -0.6798  0.3304  0.0651
  487SOL    HW1 1946   1.131   1.815   1.091  1.7550 -2.2146 -0.2955
  487SOL    HW2 1947   1.227   1.722   1.035  0.6633  0.6651  0.2650
  487SOL     MW 1948   1.146   1.741   1.061 -0.1813  0.0387  0.0439
  488SOL     OW 1949   1.637   1.882   0.485 -0.2050  0.3211 -0.2736
  488SOL    HW1 1950   1.691   1.856   0.402 -1.8877 -0.4928 -0.7323
  488SOL    HW2 1951   1.587   1.962   0.458  0.9801  0.4597 -0.8573
  488SOL     MW 1952   1.638   1.889   0.471 -0.2707  0.2320 -0.4112
  489SOL     OW 1953   0.777   0.811   0.598  0.0535 -0.7335 -0.0950
  489SOL    HW1 1954   0.812   0.731   0.560 -3.5345  0.8321  1.2003
  489SOL    HW2 1955   0.795   0.803   0.696  0.8632  1.1628 -2.3402
  489SOL     MW 1956   0.784   0.800   0.606 -0.3131 -0.2767 -0.2203
  490SOL     OW 1957   1.461   2.088   0.453  0.6952 -0.0285 -0.0065
  490SOL    HW1 1958   1.496   2.166   0.413 -0.3288 -2.2874 -0.1107
  490SOL    HW2 1959   1.361   2.088   0.447 -1.1128 -0.5275  1.4029
  490SOL     MW 1960   1.452   2.098   0.447  0.3216 -0.3924  0.1657
  491SOL     OW 1961   1.323   3.022   0.444 -0.4945 -0.3517 -0.0906
  491SOL    HW1 1962   1.412   3.075   0.445  2.2920 -0.9202 -1.8489
  491SOL    HW2 1963   1.268   3.062   0.375  0.1364  2.1520  0.4455
  491SOL     MW 1964   1.328   3.034   0.435 -0.0436 -0.0964 -0.2519
  492SOL     OW 1965   1.481   2.187   0.710  0.1672 -0.3400 -0.4094
  492SOL    HW1 1966   1.473   2.126   0.628 -0.4919  0.3177 -3.0338
  492SOL    HW2 1967   1.468   2.141   0.790  0.7984  0.2158 -0.7057
  492SOL     MW 1968   1.478   2.173   0.709  0.1635 -0.1799 -0.7947
  493SOL     OW 1969   0.289   2.971   0.263  0.1613 -0.1238  0.0475
  493SOL    HW1 1970   0.241   2.985   0.346 -2.4038 -0.5908 -2.3166
  493SOL    HW2 1971   0.255   3.033   0.196  0.0239 -0.4730  1.3083
  493SOL     MW 1972   0.278   2.981   0.265 -0.1953 -0.2315 -0.0981
  494SOL     OW 1973   0.446   2.451   1.741 -0.5818  0.2076  0.2413
  494SOL    HW1 1974   0.457   2.354   1.749  0.4879  0.2921 -1.5158
  494SOL    HW2 1975   0.458   2.469   1.636  2.0439  2.5203 -0.3145
  494SOL     MW 1976   0.449   2.440   1.728 -0.0942  0.5239 -0.0638
  495SOL     OW 1977   2.817   1.751   2.573 -0.1886 -0.2010  0.3133
  495SOL    HW1 1978   2.813   1.848   2.547  2.5344  2.0793 -1.1875
  495SOL    HW2 1979   2.800   1.734   2.664  1.0231 -1.9444 -3.5074
  495SOL     MW 1980   2.814   1.762   2.581  0.3305 -0.1302 -0.3889
  496SOL     OW 1981   2.880   2.353   2.639  0.1218  0.4437 -0.1031
  496SOL    HW1 1982   2.924   2.278   2.672 -0.3672  2.1304 -1.1465
  496SOL    HW2 1983   2.952   2.417   2.621  0.4544 -0.8789 -0.0165
  496SOL     MW 1984   2.895   2.351   2.641  0.1012  0.4918 -0.2293
  497SOL     OW 1985   1.552   2.230   2.681 -0.2052  0.2694  0.2097
  497SOL    HW1 1986   1.488   2.197   2.618  2.3102  2.8810 -1.9033
  497SOL    HW2 1987   1.581   2.154   2.727  1.4525  1.6746 -2.1220
  497SOL     MW 1988   1.548   2.216   2.678  0.3454  0.7993 -0.3768
  498SOL     OW 1989   1.457   2.661   2.360 -0.2505 -0.3130  0.5475
  498SOL    HW1 1990   1.430   2.568   2.345  0.3721  1.0057 -0.4040
  498SOL    HW2 1991   1.550   2.661   2.374 -1.8522 -1.8844  1.2959
  498SOL     MW 1992   1.466   2.649   2.360 -0.3797 -0.3464  0.5207
  499SOL     OW 1993   0.988   0.161   3.069  0.0710  0.3573 -0.3843
  499SOL    HW1 1994   0.919   0.189   3.130  1.1046  1.6307  2.2617
  499SOL    HW2 1995   1.007   0.071   3.080 -0.3880 -1.1252 -2.2620
  499SOL     MW 1996   0.982   0.152   3.078  0.1468  0.3297 -0.2829
  500SOL     OW 1997   1.006   2.529   2.775  0.1808  0.0970 -0.2571
  500SOL    HW1 1998   1.071   2.502   2.843 -1.0986  1.9659  2.1704
  500SOL    HW2 1999   0.924   2.518   2.828 -0.2032 -0.1311  0.9931
  500SOL     MW 2000   1.004   2.524   2.791 -0.0387  0.3135  0.2281
  501SOL     OW 2001   1.755   2.181   3.056 -0.3052 -0.0526 -0.1277
  501SOL    HW1 2002   1.713   2.268   3.041 -0.0003  1.0629 -2.0505
  501SOL    HW2 2003   1.845   2.195   3.068 -0.4871  0.4383 -0.2642
  501SOL     MW 2004   1.761   2.195   3.056 -0.2890  0.1594 -0.3994
  502SOL     OW 2005   0.113   2.798   2.944 -0.2491 -0.2014 -0.4973
  502SOL    HW1 2006   0.057   2.736   2.898 -2.8025 -0.8939  2.1674
  502SOL    HW2 2007   0.164   2.850   2.877 -0.6910 -0.1738  1.5366
  502SOL     MW 2008   0.112   2.797   2.929 -0.6443 -0.2891  0.1226
  503SOL     OW 2009   1.087   2.938   2.173  0.5953  0.1124  0.2880
  503SOL    HW1 2010   1.011   2.893   2.134  1.8982  0.7605 -0.9031
  503SOL    HW2 2011   1.060   3.025   2.194 -2.4545 -2.8582 -0.3343
  503SOL     MW 2012   1.073   2.944   2.171  0.3648 -0.1940  0.0487
  504SOL     OW 2013   0.128   2.707   2.106 -0.3285  0.2567 -0.3422
  504SOL    HW1 2014   0.171   2.628   2.088 -1.5936  0.3654 -1.5262
  504SOL    HW2 2015   0.045   2.694   2.069  1.6868 -2.6625 -1.0321
  504SOL     MW 2016   0.122   2.695   2.099 -0.2295 -0.1141 -0.5894
  505SOL     OW 2017   1.715   2.683   2.712  0.3160 -0.5461  0.0256
  505SOL    HW1 2018   1.742   2.676   2.622 -2.6322  1.5675  0.8446
  505SOL    HW2 2019   1.640   2.744   2.714 -0.3001 -2.9499  2.2377
  505SOL     MW 2020   1.709   2.690   2.700 -0.1543 -0.5844  0.4255
  506SOL     OW 2021   1.677   3.017   2.868  0.7773  0.5346 -0.3672
  506SOL    HW1 2022   1.738   2.951   2.901  0.5167 -0.6812 -1.4225
  506SOL    HW2 2023   1.713   3.037   2.781  0.2902  0.1263 -0.4846
  506SOL     MW 2024   1.690   3.011   2.861  0.6787  0.3203 -0.5219
  507SOL     OW 2025   0.789   2.867   2.925 -0.2517  0.4277 -0.1198
  507SOL    HW1 2026   0.841   2.914   2.856  0.5200  1.2258 -1.5501
  507SOL    HW2 2027   0.725   2.930   2.950  0.3231 -3.1362 -1.6818
  507SOL     MW 2028   0.788   2.881   2.920 -0.0741  0.0627 -0.5146
  508SOL     OW 2029   1.113   2.077   2.437  0.5604 -0.3958 -0.4320
  508SOL    HW1 2030   1.182   2.069   2.506 -2.1221  2.2389  1.5315
  508SOL    HW2 2031   1.051   2.131   2.485  2.0290 -1.3683 -2.0813
  508SOL     MW 2032   1.114   2.083   2.452  0.4003 -0.1765 -0.3905
  509SOL     OW 2033   0.568   2.573   2.898 -0.0449  0.1870  0.4234
  509SOL    HW1 2034   0.628   2.590   2.824 -0.2500  0.7755 -0.5215
  509SOL    HW2 2035   0.483   2.539   2.868  1.7774  1.7983 -2.6252
  509SOL     MW 2036   0.565   2.571   2.884  0.1685  0.4772 -0.1035
  510SOL     OW 2037   1.482   2.504   1.728  0.1287 -0.1528  0.4239
  510SOL    HW1 2038   1.502   2.598   1.743  0.5168  0.1524  0.1883
  510SOL    HW2 2039   1.444   2.472   1.808  0.2103  1.2873 -0.8602
  510SOL     MW 2040   1.479   2.512   1.740  0.1907  0.0774  0.2234
  511SOL     OW 2041   0.420   2.622   2.491  0.1899  0.4394  0.1491
  511SOL    HW1 2042   0.506   2.600   2.525  0.4673  0.5939 -3.4877
  511SOL    HW2 2043   0.445   2.641   2.394  0.1333  0.4694  0.1293
  511SOL     MW 2044   0.435   2.622   2.483  0.2190  0.4638 -0.3334
  512SOL     OW 2045   0.998   1.920   2.807  0.4642 -0.2003  0.1351
  512SOL    HW1 2046   0.912   1.877   2.799  0.6361 -1.1824  1.0004
  512SOL    HW2 2047   1.038   1.854   2.863  0.3766 -0.7292 -0.0123
  512SOL     MW 2048   0.992   1.906   2.813  0.4753 -0.3997  0.2298
  513SOL     OW 2049   1.481   2.396   2.366  0.5230  0.1340  0.0278
  513SOL    HW1 2050   1.539   2.428   2.433  1.9204 -1.2395  0.8911
  513SOL    HW2 2051   1.508   2.305   2.353  3.2048  0.0029 -0.0148
  513SOL     MW 2052   1.493   2.388   2.373  1.0613 -0.0645  0.1361
  514SOL     OW 2053   0.239   2.405   2.623  0.1508  0.2189  0.7201
  514SOL    HW1 2054   0.265   2.479   2.571  0.3354  0.0547  0.2274
  514SOL    HW2 2055   0.242   2.430   2.713 -1.8865  0.2150 -0.0903
  514SOL     MW 2056   0.243   2.418   2.628 -0.0937  0.1967  0.5482
  515SOL     OW 2057   1.194   2.052   1.921  0.3162 -0.4160 -0.0572
  515SOL    HW1 2058   1.174   2.146   1.912 -0.2657  1.6793 -0.4198
  515SOL    HW2 2059   1.196   2.038   2.021 -2.4236  0.3652  1.8696
  515SOL     MW 2060   1.192   2.063   1.933 -0.1221 -0.0364  0.1491
  516SOL     OW 2061   1.432   2.477   3.040 -0.1958 -0.2053 -0.2146
  516SOL    HW1 2062   1.495   2.480   2.965 -0.4313 -0.7768  1.2401
  516SOL    HW2 2063   1.339   2.471   3.008  1.4937  3.4477 -0.1121
  516SOL     MW 2064   1.428   2.476   3.026 -0.0040  0.2013 -0.0091
  517SOL     OW 2065   0.595   2.412   2.080 -0.1629 -0.0568  0.1543
  517SOL    HW1 2066   0.590   2.502   2.063 -2.3233  0.1414 -2.1375
  517SOL    HW2 2067   0.509   2.382   2.039  0.6249  0.6470 -0.8000
  517SOL     MW 2068   0.583   2.420   2.073 -0.3440  0.0622 -0.2740
  518SOL     OW 2069   1.904   0.090   3.013  0.3739  0.5637 -0.0983
  518SOL    HW1 2070   1.824   0.122   2.965  2.3064  1.6198  1.2350
  518SOL    HW2 2071   1.880   0.080   3.109  1.5909  0.0418  0.1947
  518SOL     MW 2072   1.891   0.093   3.019  0.7894  0.6342  0.1163
  519SOL     OW 2073   0.706   2.524   1.839 -0.3984 -0.5786  0.8747
  519SOL    HW1 2074   0.752   2.434   1.853 -2.1591  2.0460 -2.3650
  519SOL    HW2 2075   0.618   2.501   1.798  3.7159 -0.6689 -0.3933
  519SOL     MW 2076   0.700   2.509   1.836 -0.0878 -0.2442  0.2799
  520SOL     OW 2077   1.165   2.158   2.900 -0.2690 -0.4403  0.2051
  520SOL    HW1 2078   1.101   2.093   2.879  0.7941  0.1963  0.3588
  520SOL    HW2 2079   1.218   2.112   2.963 -1.1922  1.3405 -1.9671
  520SOL     MW 2080   1.164   2.144   2.906 -0.2505 -0.1213 -0.0613
  521SOL     OW 2081   1.785   1.971   2.239  0.3822 -0.8564  0.0502
  521SOL    HW1 2082   1.795   1.988   2.147  2.6288 -2.0313  1.1723
  521SOL    HW2 2083   1.796   1.878   2.248 -1.3217  0.6850 -0.6628
  521SOL     MW 2084   1.788   1.961   2.228  0.4538 -0.8081  0.1042
  522SOL     OW 2085   2.877   2.602   2.232 -0.4391  0.1292 -0.3462
  522SOL    HW1 2086   2.944   2.532   2.259  0.5174  1.8555 -0.4779
  522SOL    HW2 2087   2.830   2.614   2.314  1.0234 -0.6478  0.5973
  522SOL     MW 2088   2.880   2.595   2.246 -0.1200  0.2544 -0.2391
  523SOL     OW 2089   0.828   1.515   2.093 -0.1100  0.1929  0.1236
  523SOL    HW1 2090   0.830   1.601   2.048 -1.1712 -1.1102 -1.2272
  523SOL    HW2 2091   0.908   1.469   2.067 -0.9754  1.4216 -0.3314
  523SOL     MW 2092   0.839   1.520   2.084 -0.3642  0.1831 -0.1146
  524SOL     OW 2093   0.816   2.423   2.950 -0.2767 -0.0851 -0.4133
  524SOL    HW1 2094   0.730   2.433   2.911 -2.3231 -3.7405 -0.8890
  524SOL    HW2 2095   0.824   2.329   2.933 -1.8700  1.2415  0.4365
  524SOL     MW 2096   0.805   2.412   2.943 -0.7569 -0.3923 -0.3639
  525SOL     OW 2097   0.338   2.276   2.028  0.2049  0.5534  0.1050
  525SOL    HW1 2098   0.349   2.222   2.103 -0.5671  1.0965  1.1967
  525SOL    HW2 2099   0.310   2.217   1.956 -2.8712 -1.0143 -0.1890
  525SOL     MW 2100   0.336   2.261   2.028 -0.3028  0.4182  0.2103
  526SOL     OW 2101   0.659   2.125   2.073  0.0340  0.0416 -0.5445
  526SOL    HW1 2102   0.698   2.150   1.987  2.3803 -2.6523  0.0070
  526SOL    HW2 2103   0.604   2.196   2.097  1.2907  0.8520 -3.1232
  526SOL     MW 2104   0.657   2.138   2.065  0.5094 -0.2069 -0.8120
  527SOL     OW 2105   1.396   1.963   2.156 -0.2912 -0.6067 -0.1988
  527SOL    HW1 2106   1.309   1.939   2.184 -1.1807 -1.8454  1.0019
  527SOL    HW2 2107   1.421   1.895   2.095 -0.9880  0.3604  0.7983
  527SOL     MW 2108   1.388   1.951   2.152 -0.5005 -0.6425  0.0911
  528SOL     OW 2109   0.584   3.077   2.926 -0.0282  0.1011 -0.3994
  528SOL    HW1 2110   0.656   3.137   2.898  1.0785 -1.0292 -0.3693
  528SOL    HW2 2111   0.578   3.018   2.851  0.5832 -0.8003  1.4612
  528SOL     MW 2112   0.593   3.077   2.913  0.1985 -0.1670 -0.1499
  529SOL     OW 2113   1.046   2.300   1.940  0.1915 -0.1210 -0.2432
  529SOL    HW1 2114   1.072   2.332   2.029 -0.2183 -0.6336 -0.3551
  529SOL    HW2 2115   1.087   2.358   1.871  0.9971  0.9889  2.5701
  529SOL     MW 2116   1.054   2.312   1.943  0.2437 -0.0422  0.1132
  530SOL     OW 2117   1.169   2.440   2.986  0.2486  0.1345 -0.3776
  530SOL    HW1 2118   1.137   2.469   3.075 -1.2858 -0.6585  1.3274
  530SOL    HW2 2119   1.160   2.343   2.974  0.7860 -0.4934 -1.6547
  530SOL     MW 2120   1.163   2.431   2.996  0.1171 -0.0529 -0.3211
  531SOL     OW 2121   0.959   1.881   2.542  0.5231 -0.0381 -0.3361
  531SOL    HW1 2122   1.013   1.941   2.493  1.2402 -1.8253 -0.9614
  531SOL    HW2 2123   0.955   1.914   2.635 -0.6285 -0.1737  3.7261
  531SOL     MW 2124   0.966   1.893   2.548  0.4658 -0.2918  0.1174
  532SOL     OW 2125   1.799   0.237   2.815  0.3361  0.5341  0.4097
  532SOL    HW1 2126   1.758   0.209   2.735  0.4162  3.1096  3.1160
  532SOL    HW2 2127   1.893   0.227   2.803  1.0820  0.6435  0.6149
  532SOL     MW 2128   1.806   0.232   2.803  0.4451  0.8883  0.7939
  533SOL     OW 2129   1.967   2.524   3.096 -0.2698  0.0669 -0.7838
  533SOL    HW1 2130   1.909   2.464   3.143  0.1526  0.3793 -0.8833
  533SOL    HW2 2131   1.915   2.605   3.091  0.0444  1.8725  2.3009
  533SOL     MW 2132   1.952   2.527   3.101 -0.1726  0.3463 -0.3900
  534SOL     OW 2133   1.706   2.402   2.549  0.3210  0.6459  0.4520
  534SOL    HW1 2134   1.646   2.338   2.588 -0.1189  0.0134  1.5459
  534SOL    HW2 2135   1.787   2.410   2.599  0.4315 -0.5014  0.0515
  534SOL     MW 2136   1.709   2.395   2.561  0.2776  0.4111  0.5435
  535SOL     OW 2137   1.876   2.325   1.898 -0.2507 -0.4659  0.2480
  535SOL    HW1 2138   1.821   2.361   1.824  0.1477 -1.0976  2.6602
  535SOL    HW2 2139   1.968   2.343   1.874 -1.0141 -0.7939  4.5424
  535SOL     MW 2140   1.881   2.332   1.885 -0.2989 -0.5925  1.1329
  536SOL     OW 2141   0.481   1.891   2.115 -0.2371  0.2901  0.4657
  536SOL    HW1 2142   0.462   1.859   2.026  0.3682 -1.2416 -1.5091
  536SOL    HW2 2143   0.540   1.963   2.105 -0.2398  0.4353 -0.2768
  536SOL     MW 2144   0.486   1.896   2.102 -0.1576  0.1072  0.1072
  537SOL     OW 2145   1.041   0.299   2.765 -0.1344 -0.1168 -0.3507
  537SOL    HW1 2146   1.075   0.363   2.822  2.4531 -0.3596  0.4265
  537SOL    HW2 2147   1.080   0.325   2.685 -0.0564  0.6725 -0.4311
  537SOL     MW 2148   1.051   0.311   2.762  0.2173 -0.0447 -0.2588
  538SOL     OW 2149   1.430   0.073   0.014  0.4306  0.1137 -0.0368
  538SOL    HW1 2150   1.429   0.166   0.036 -0.2174  1.5134 -3.8856
  538SOL    HW2 2151   1.344   0.036   0.020  1.4145  0.8339 -1.3656
  538SOL     MW 2152   1.418   0.080   0.018  0.4749  0.3934 -0.7200
  539SOL     OW 2153   0.716   2.845   2.587 -0.4364 -0.3125 -0.3856
  539SOL    HW1 2154   0.795   2.895   2.605 -0.3879 -1.3755 -0.6823
  539SOL    HW2 2155   0.717   2.766   2.649  1.0910 -3.7481  0.3452
  539SOL     MW 2156   0.726   2.841   2.598 -0.2285 -0.9061 -0.3283
  540SOL     OW 2157   0.298   2.469   2.879  0.0330  0.6616  0.3270
  540SOL    HW1 2158   0.281   2.530   2.949 -2.0004 -1.4839  1.9006
  540SOL    HW2 2159   0.291   2.384   2.920  1.1936  0.6127 -0.2923
  540SOL     MW 2160   0.295   2.466   2.894 -0.0822  0.3721  0.4529
  541SOL     OW 2161   0.271   2.951   2.131 -0.2716  0.1490  0.9365
  541SOL    HW1 2162   0.220   2.869   2.125 -2.5701  1.2221  1.8676
  541SOL    HW2 2163   0.335   2.931   2.202  2.4163 -0.9094 -0.0093
  541SOL     MW 2164   0.273   2.937   2.140 -0.2202  0.1510  0.9345
  542SOL     OW 2165   0.942   2.260   2.663 -0.1346  0.3674  0.5072
  542SOL    HW1 2166   0.887   2.207   2.725  0.3051 -1.0413  2.9203
  542SOL    HW2 2167   0.979   2.333   2.712 -2.4478  0.2599  0.6988
  542SOL     MW 2168   0.940   2.263   2.678 -0.3818  0.1674  0.8509
  543SOL     OW 2169   1.641   2.464   2.867  0.3376  0.0855  0.4196
  543SOL    HW1 2170   1.591   2.407   2.801  0.6082 -2.0701 -1.2762
  543SOL    HW2 2171   1.656   2.546   2.820  2.7822 -0.0401  0.7894
  543SOL     MW 2172   1.636   2.467   2.852  0.6958 -0.2155  0.2447
  544SOL     OW 2173   0.664   0.324   2.718  1.0582  0.3534 -0.6161
  544SOL    HW1 2174   0.584   0.316   2.764  0.0924 -0.9702 -1.1515
  544SOL    HW2 2175   0.660   0.264   2.646 -1.6633  1.0213  0.7701
  544SOL     MW 2176   0.653   0.315   2.715  0.5717  0.2669 -0.5039
  545SOL     OW 2177   1.544   2.115   2.389 -0.5257 -0.2069  0.4001
  545SOL    HW1 2178   1.498   2.048   2.345  2.1575 -0.5136  0.0621
  545SOL    HW2 2179   1.635   2.084   2.370  2.8283 -0.3655 -0.8565
  545SOL     MW 2180   1.550   2.102   2.380  0.2709 -0.2683  0.1897
  546SOL     OW 2181   2.924   1.966   0.149  0.2167 -0.2741 -0.3606
  546SOL    HW1 2182   2.908   2.049   0.104  2.3580 -0.2752  1.6543
  546SOL    HW2 2183   3.010   1.937   0.116  1.8274  0.4193 -1.6655
  546SOL     MW 2184   2.933   1.973   0.139  0.7117 -0.1827 -0.2669
  547SOL     OW 2185   0.174   0.069   0.100 -0.4248  0.2909  0.0560
  547SOL    HW1 2186   0.256   0.087   0.046  0.7880 -1.7547  0.1344
  547SOL    HW2 2187   0.114   0.018   0.050  0.5621 -1.4351  3.3116
  547SOL     MW 2188   0.177   0.065   0.086 -0.1346 -0.2067  0.4959
  548SOL     OW 2189   0.367   2.569   0.268 -0.2154 -0.5009  0.4068
  548SOL    HW1 2190   0.332   2.591   0.178 -1.4967 -1.0038 -0.3691
  548SOL    HW2 2191   0.346   2.475   0.285  1.5248  1.2062 -1.1239
  548SOL     MW 2192   0.359   2.559   0.259 -0.1548 -0.3420  0.1025
  549SOL     OW 2193   0.818   1.945   2.166 -0.2197 -0.0015  0.3160
  549SOL    HW1 2194   0.764   2.022   2.138 -0.6426  3.1162  0.4521
  549SOL    HW2 2195   0.780   1.938   2.253  0.5148  2.3361  0.3479
  549SOL     MW 2196   0.806   1.954   2.174 -0.1786  0.7183  0.3382
  550SOL     OW 2197   1.778   1.652   2.514 -0.4671  0.0447 -0.3670
  550SOL    HW1 2198   1.776   1.672   2.417 -0.9495  4.9101 -2.4178
  550SOL    HW2 2199   1.775   1.745   2.546  1.7706 -0.2873 -1.3883
  550SOL     MW 2200   1.777   1.667   2.505 -0.2355  0.6429 -0.7723
  551SOL     OW 2201   0.916   2.229   0.229  0.3069 -0.1479  0.2364
  551SOL    HW1 2202   1.005   2.257   0.230 -1.8173  0.9383  1.2672
  551SOL    HW2 2203   0.911   2.164   0.153 -2.1404 -0.6838 -3.3742
  551SOL     MW 2204   0.927   2.224   0.219 -0.2962 -0.0753 -0.1039
  552SOL     OW 2205   1.775   1.699   2.221 -0.0268  0.1897  0.1959
  552SOL    HW1 2206   1.684   1.657   2.231 -1.5010 -1.3673  1.1985
  552SOL    HW2 2207   1.824   1.670   2.141  3.9241  1.5920  1.0917
  552SOL     MW 2208   1.770   1.690   2.212  0.3000  0.1693  0.4464
  553SOL     OW 2209   1.262   2.265   1.619  0.2566 -0.5419  0.1636
  553SOL    HW1 2210   1.291   2.175   1.604 -1.1790  0.1604 -2.3875
  553SOL    HW2 2211   1.338   2.319   1.578  0.6010 -1.0718 -0.4374
  553SOL     MW 2212   1.276   2.260   1.612  0.1126 -0.5192 -0.2523
  554SOL     OW 2213   0.501   2.989   2.669 -0.2586  0.5483  0.0134
  554SOL    HW1 2214   0.488   3.065   2.613 -0.0746  2.4203 -0.6335
  554SOL    HW2 2215   0.576   2.936   2.632 -2.7826 -0.7329 -0.1684
  554SOL     MW 2216   0.509   2.992   2.656 -0.5673  0.6262 -0.0959
  555SOL     OW 2217   0.664   2.530   2.626  0.0786 -0.0225 -0.5420
  555SOL    HW1 2218   0.624   2.440   2.642  0.2853 -3.3214  0.8033
  555SOL    HW2 2219   0.738   2.506   2.571  0.2625  0.2541 -0.9836
  555SOL     MW 2220   0.668   2.515   2.621  0.1301 -0.4213 -0.4227
  556SOL     OW 2221   1.048   1.810   0.065  0.4557 -0.1443  0.0824
  556SOL    HW1 2222   1.086   1.777  -0.018  0.3979  0.0243 -0.8724
  556SOL    HW2 2223   1.118   1.851   0.112 -2.0872 -0.2889  0.1653
  556SOL     MW 2224   1.062   1.811   0.060  0.1126 -0.1412 -0.0327
  557SOL     OW 2225   1.044   2.692   0.566 -0.0242 -0.4436 -0.5950
  557SOL    HW1 2226   1.088   2.641   0.498  3.5388 -0.3002 -0.3458
  557SOL    HW2 2227   1.021   2.770   0.511 -2.4037  2.7173 -2.3022
  557SOL     MW 2228   1.047   2.696   0.550  0.1320 -0.0076 -0.7874
  558SOL     OW 2229   0.179   2.214   3.000 -0.5605 -0.1397 -0.0163
  558SOL    HW1 2230   0.150   2.124   3.025 -3.5643 -0.7533 -1.0517
  558SOL    HW2 2231   0.138   2.268   3.075  0.1355  1.5600  3.6742
  558SOL     MW 2232   0.170   2.209   3.014 -0.8650  0.0036  0.3340
  559SOL     OW 2233   1.076   2.268   2.230  0.2976  0.1975 -0.7338
  559SOL    HW1 2234   1.165   2.294   2.209  2.1693  0.4554  0.2324
  559SOL    HW2 2235   1.078   2.180   2.190  1.2642 -0.4370 -0.0365
  559SOL     MW 2236   1.088   2.260   2.222  0.6721  0.1478 -0.5143
  560SOL     OW 2237   2.153   2.645   0.155 -0.1161 -0.2961  0.2644
  560SOL    HW1 2238   2.207   2.699   0.095 -2.5574  1.8194  1.4094
  560SOL    HW2 2239   2.093   2.598   0.096  1.0627  1.2649 -0.2245
  560SOL     MW 2240   2.152   2.646   0.139 -0.2827  0.1890  0.3510
  561SOL     OW 2241   0.491   2.205   0.145 -0.4892 -0.0813 -0.4048
  561SOL    HW1 2242   0.426   2.251   0.093 -0.6233  0.4469 -0.0626
  561SOL    HW2 2243   0.563   2.261   0.180  0.1956  0.0144  0.8050
  561SOL     MW 2244   0.492   2.218   0.143 -0.4165  0.0010 -0.2000
  562SOL     OW 2245   0.637   2.364   2.343 -0.6631  0.5672 -0.3248
  562SOL    HW1 2246   0.613   2.386   2.247  2.4505  1.8110 -2.6373
  562SOL    HW2 2247   0.725   2.411   2.348 -0.7462 -0.0784 -1.4399
  562SOL     MW 2248   0.645   2.373   2.331 -0.2633  0.6461 -0.7770
  563SOL     OW 2249   1.251   0.352   0.582 -0.0090 -0.1280 -0.2212
  563SOL    HW1 2250   1.195   0.301   0.525 -4.5610 -0.8676  1.6523
  563SOL    HW2 2251   1.230   0.346   0.682 -0.5003  0.0375  0.2348
  563SOL     MW 2252   1.241   0.344   0.588 -0.6744 -0.2038  0.0862
  564SOL     OW 2253   0.974   2.742   2.352  0.3517 -0.2911 -0.1609
  564SOL    HW1 2254   1.029   2.816   2.325  2.3066  1.3953  0.6405
  564SOL    HW2 2255   1.008   2.720   2.449  0.1161  1.1156 -0.0279
  564SOL     MW 2256   0.986   2.749   2.361  0.5785  0.1170 -0.0376
  565SOL     OW 2257   2.764   2.743   2.617  0.3845 -0.6824  0.2191
  565SOL    HW1 2258   2.769   2.826   2.571  1.2798 -0.0457 -0.2291
  565SOL    HW2 2259   2.716   2.691   2.547  1.3463 -4.4228 -4.7413
  565SOL     MW 2260   2.759   2.747   2.602  0.6296 -1.0919 -0.4945
  566SOL     OW 2261   2.167   1.899   2.343 -0.1017 -0.1800 -0.7166
  566SOL    HW1 2262   2.180   1.850   2.267 -0.6901 -0.2427  0.3481
  566SOL    HW2 2263   2.240   1.967   2.347 -0.5813 -1.1814 -1.5505
  566SOL     MW 2264   2.178   1.901   2.334 -0.2426 -0.3203 -0.6862
  567SOL     OW 2265   1.174   3.074   3.087 -0.2828  0.4016 -0.2242
  567SOL    HW1 2266   1.161   3.067   3.183 -0.4589 -0.5991 -1.8869
  567SOL    HW2 2267   1.227   3.001   3.049 -0.7774 -2.0775 -2.4658
  567SOL     MW 2268   1.179   3.064   3.095 -0.3713 -0.0575 -0.7394
  568SOL     OW 2269   1.649   2.030   2.849  0.1321  0.0850 -0.5198
  568SOL    HW1 2270   1.704   2.082   2.907  1.1491 -1.8831 -0.0413
  568SOL    HW2 2271   1.704   1.989   2.783 -2.6252 -2.7177  0.9116
  568SOL     MW 2272   1.664   2.031   2.848 -0.0975 -0.5445 -0.2678
  569SOL     OW 2273   0.119   2.251   2.430 -0.6613  0.2989  0.2783
  569SOL    HW1 2274   0.084   2.316   2.375 -2.8292 -3.9339 -0.8789
  569SOL    HW2 2275   0.140   2.297   2.513  1.6335 -3.1509  0.1199
  569SOL     MW 2276   0.117   2.266   2.434 -0.6445 -0.7147  0.1047
  570SOL     OW 2277   1.512   0.325   0.454  0.0096  0.3784 -0.0746
  570SOL    HW1 2278   1.430   0.359   0.496  0.1406 -1.2266  1.0769
  570SOL    HW2 2279   1.587   0.350   0.517  0.6183  0.1104  0.7281
  570SOL     MW 2280   1.511   0.333   0.468  0.1072  0.1313  0.1833
  571SOL     OW 2281   1.316   2.319   2.131 -0.5265 -0.5333 -0.1056
  571SOL    HW1 2282   1.370   2.346   2.207 -0.0365 -1.4219  1.5629
  571SOL    HW2 2283   1.376   2.265   2.079 -0.7466 -0.3156  3.3957
  571SOL     MW 2284   1.331   2.315   2.134 -0.4909 -0.6219  0.5765
  572SOL     OW 2285   1.083   2.577   0.124 -0.5811 -0.3556 -0.1171
  572SOL    HW1 2286   1.072   2.664   0.092 -2.9842 -5.4369  1.1945
  572SOL    HW2 2287   0.987   2.551   0.139 -1.9787 -0.0432  2.4045
  572SOL     MW 2288   1.069   2.585   0.122 -1.0826 -0.9848  0.3886
  573SOL     OW 2289   1.178   2.329   0.284 -0.7533  0.2207 -0.4090
  573SOL    HW1 2290   1.262   2.318   0.234  1.0166  3.1538 -1.9879
  573SOL    HW2 2291   1.178   2.415   0.328 -0.7967 -0.3766 -0.1941
  573SOL     MW 2292   1.189   2.339   0.284 -0.5255  0.5289 -0.5890
  574SOL     OW 2293   1.183   2.578   0.377  0.3582 -0.1770  0.1260
  574SOL    HW1 2294   1.257   2.636   0.385 -1.8984  0.2047 -1.2134
  574SOL    HW2 2295   1.153   2.581   0.289  0.2244  2.5301  1.4118
  574SOL     MW 2296   1.188   2.586   0.367  0.0428  0.2305  0.1190
  575SOL     OW 2297   0.038   2.200   1.720  0.2617 -0.4802  0.7490
  575SOL    HW1 2298   0.067   2.127   1.667  0.3143 -0.2733  0.3436
  575SOL    HW2 2299   0.094   2.196   1.795 -1.0664  0.5619  1.9838
  575SOL     MW 2300   0.049   2.190   1.723  0.0934 -0.3154  0.8584
  576SOL     OW 2301   2.903   1.854   1.928 -0.3125 -0.2381  0.3672
  576SOL    HW1 2302   2.951   1.925   1.881  1.8927 -0.6643  0.6437
  576SOL    HW2 2303   2.822   1.831   1.874  2.7598  0.8594 -0.0149
  576SOL     MW 2304   2.899   1.860   1.915  0.3838 -0.1495  0.3532
  577SOL     OW 2305   2.129   0.151   0.063 -0.2420 -0.6407  0.2210
  577SOL    HW1 2306   2.063   0.146  -0.006 -2.1259  1.2883 -0.8058
  577SOL    HW2 2307   2.087   0.101   0.135  0.6569 -0.2062 -1.3757
  577SOL     MW 2308   2.115   0.144   0.064 -0.3720 -0.3288 -0.1252
  578SOL     OW 2309   1.976   2.099   2.361  0.4265 -0.0349  0.1893
  578SOL    HW1 2310   1.899   2.049   2.335 -5.2805  2.1248  1.4757
  578SOL    HW2 2311   2.045   2.024   2.348  0.9890 -2.5381  0.1472
  578SOL     MW 2312   1.975   2.083   2.356 -0.2523 -0.0802  0.3535
  579SOL     OW 2313   0.879   2.453   2.460  0.0370 -0.1347  0.4723
  579SOL    HW1 2314   0.927   2.382   2.510  1.0507 -3.5433  3.2293
  579SOL    HW2 2315   0.932   2.478   2.384  1.1129  0.5432 -0.9367
  579SOL     MW 2316   0.892   2.447   2.457  0.3127 -0.4950  0.6501
  580SOL     OW 2317   0.979   2.805   3.093 -0.2747  0.2008  0.5633
  580SOL    HW1 2318   1.037   2.875   3.118  1.1455  0.2656 -1.5871
  580SOL    HW2 2319   0.909   2.861   3.037  0.5502  0.3270 -0.1790
  580SOL     MW 2320   0.977   2.822   3.089  0.0215  0.2260  0.1816
  581SOL     OW 2321   1.117   2.458   1.742  0.1874  0.4006 -0.2644
  581SOL    HW1 2322   1.168   2.519   1.802 -1.2953  1.8289 -0.3506
  581SOL    HW2 2323   1.176   2.390   1.707  1.5813  0.3903  1.5118
  581SOL     MW 2324   1.131   2.457   1.746  0.1757  0.5877 -0.0414
  582SOL     OW 2325   3.094   2.934   2.664  0.2688 -0.3865  0.5034
  582SOL    HW1 2326   3.034   2.970   2.733  1.8356 -0.8216 -1.2607
  582SOL    HW2 2327   3.181   2.972   2.691  2.2150  3.7273 -3.4022
  582SOL     MW 2328   3.098   2.944   2.677  0.7323  0.0989 -0.2447
  583SOL     OW 2329   1.967   2.378   2.666  0.2156  0.1218  0.0439
  583SOL    HW1 2330   2.026   2.401   2.594  0.9555 -1.2802  0.7268
  583SOL    HW2 2331   1.935   2.286   2.644 -1.7489 -0.7004 -1.6178
  583SOL     MW 2332   1.971   2.369   2.654  0.0541 -0.1716 -0.0853
  584SOL     OW 2333   0.208   1.876   2.178  0.3134  0.2157  0.1795
  584SOL    HW1 2334   0.206   1.895   2.275 -0.0014  1.0567 -2.3650
  584SOL    HW2 2335   0.297   1.861   2.149 -0.1023 -0.6518 -3.0328
  584SOL     MW 2336   0.219   1.876   2.187  0.2170  0.2122 -0.5801
  585SOL     OW 2337   1.555   2.588   0.183 -0.0446 -0.7691  0.0331
  585SOL    HW1 2338   1.512   2.560   0.095 -0.6300 -3.8074  0.8890
  585SOL    HW2 2339   1.490   2.645   0.220  1.7067 -1.6643 -0.3384
  585SOL     MW 2340   1.541   2.592   0.176  0.1092 -1.2880  0.0970
  586SOL     OW 2341   1.353   2.774   2.592  0.6917  0.3819  0.0326
  586SOL    HW1 2342   1.385   2.727   2.515  1.2189 -0.3581  4.7175
  586SOL    HW2 2343   1.336   2.872   2.570 -0.5544 -0.9186 -0.7149
  586SOL     MW 2344   1.355   2.781   2.579  0.5969  0.1127  0.5521
  587SOL     OW 2345   1.281   1.522   2.158 -0.2201  0.0440  0.0388
  587SOL    HW1 2346   1.292   1.433   2.126  1.6227  1.0116 -0.8649
  587SOL    HW2 2347   1.236   1.574   2.096 -2.7604  1.1838  0.1439
  587SOL     MW 2348   1.277   1.517   2.145 -0.3121  0.3220 -0.0665
  588SOL     OW 2349   1.296   2.046   2.639  0.0276 -0.1054 -0.1493
  588SOL    HW1 2350   1.296   1.956   2.671 -0.3563  0.7099 -2.4673
  588SOL    HW2 2351   1.304   2.099   2.717 -0.7231 -1.0726 -0.0463
  588SOL     MW 2352   1.297   2.041   2.654 -0.1221 -0.1254 -0.4416
  589SOL     OW 2353   1.323   2.056   0.020 -0.4365  0.1719 -0.5773
  589SOL    HW1 2354   1.389   2.105   0.065 -0.6413 -0.4341 -1.3949
  589SOL    HW2 2355   1.294   1.994   0.083  0.1486  0.4141 -0.4479
  589SOL     MW 2356   1.328   2.054   0.035 -0.3863  0.1239 -0.6681
  590SOL     OW 2357   0.482   2.676   2.220  0.3283 -0.0598  0.4003
  590SOL    HW1 2358   0.458   2.670   2.121  0.0506 -1.6941  0.9241
  590SOL    HW2 2359   0.582   2.701   2.226  1.7754 -1.0965 -0.2716
  590SOL     MW 2360   0.492   2.679   2.208  0.4826 -0.4122  0.3808
  591SOL     OW 2361   2.209   0.667   0.172  0.1313 -0.5115  0.2267
  591SOL    HW1 2362   2.145   0.675   0.236  2.3344  0.0678 -0.9968
  591SOL    HW2 2363   2.181   0.721   0.100 -1.7660 -0.5473  2.5729
  591SOL     MW 2364   2.197   0.675   0.171  0.1716 -0.4398  0.3749
  592SOL     OW 2365   1.652   2.928   0.715  0.2275  0.0648 -0.3902
  592SOL    HW1 2366   1.643   3.015   0.751  0.0238 -1.1755 -0.3562
  592SOL    HW2 2367   1.736   2.895   0.760  2.3624  0.6582 -3.0763
  592SOL     MW 2368   1.662   2.935   0.725  0.4823 -0.0205 -0.7402
  593SOL     OW 2369   1.897   0.717   0.680 -0.0605 -0.4667  0.0212
  593SOL    HW1 2370   1.823   0.685   0.633  0.4474  2.5659  0.6160
  593SOL    HW2 2371   1.954   0.639   0.700 -1.8105 -0.3569  0.1226
  593SOL     MW 2372   1.895   0.702   0.676 -0.2244 -0.0521  0.1131
  594SOL     OW 2373   2.836   1.112   1.369 -0.4111  0.2592 -0.2541
  594SOL    HW1 2374   2.924   1.152   1.353  0.9522  2.0799  0.6646
  594SOL    HW2 2375   2.771   1.187   1.352 -0.9489 -1.6961  0.7543
  594SOL     MW 2376   2.839   1.127   1.365 -0.3022  0.2414  0.0002
  595SOL     OW 2377   0.532   0.932   0.861 -0.4304  0.0002  0.0943
  595SOL    HW1 2378   0.508   1.001   0.793 -0.4559  1.2629  0.2168
  595SOL    HW2 2379   0.581   0.986   0.930  0.3990 -3.2403  1.0119
  595SOL     MW 2380   0.535   0.948   0.861 -0.3243 -0.2608  0.2315
  596SOL     OW 2381   2.423   1.315   0.495 -0.3911 -0.0031 -0.0749
  596SOL    HW1 2382   2.416   1.391   0.435 -2.5574 -2.2122 -3.3970
  596SOL    HW2 2383   2.435   1.341   0.585  1.1333 -1.7333 -0.0127
  596SOL     MW 2384   2.423   1.328   0.499 -0.4758 -0.5229 -0.5050
  597SOL     OW 2385   2.242   0.685   1.649 -0.2528  0.2491 -0.7035
  597SOL    HW1 2386   2.247   0.617   1.723 -1.0194 -1.4818  1.7700
  597SOL    HW2 2387   2.174   0.652   1.598  0.9520  0.5670  2.5807
  597SOL     MW 2388   2.234   0.671   1.652 -0.1950  0.0627  0.0562
  598SOL     OW 2389   2.587   0.997   2.864  0.5523  0.2082  0.1780
  598SOL    HW1 2390   2.606   0.942   2.785 -1.5993  0.0277 -0.6010
  598SOL    HW2 2391   2.676   1.027   2.888  1.1569 -2.2231 -0.4956
  598SOL     MW 2392   2.601   0.993   2.857  0.3482 -0.1364 -0.0136
  599SOL     OW 2393   3.001   0.544   2.224  0.2780  0.4451  0.5331
  599SOL    HW1 2394   3.077   0.599   2.245 -2.1784 -0.7489 -1.5708
  599SOL    HW2 2395   3.006   0.567   2.129 -0.0499  2.6671 -2.9865
  599SOL     MW 2396   3.012   0.554   2.215 -0.0894  0.5808 -0.2088
  600SOL     OW 2397   1.840   1.667   0.846  0.1644 -0.5018  0.2286
  600SOL    HW1 2398   1.879   1.725   0.915  1.4820 -3.5295  1.9942
  600SOL    HW2 2399   1.769   1.723   0.819  0.2149  0.5445 -1.0039
  600SOL     MW 2400   1.836   1.682   0.851  0.3449 -0.7632  0.2989
  601SOL     OW 2401   2.541   0.780   0.857 -0.2128  0.2688 -0.0076
  601SOL    HW1 2402   2.556   0.762   0.956 -0.3825  0.1974  0.6869
  601SOL    HW2 2403   2.490   0.698   0.830 -0.9450 -2.6514  1.1889
  601SOL     MW 2404   2.536   0.767   0.866 -0.3318 -0.1259  0.2419
  602SOL     OW 2405   2.242   1.968   0.777  0.5833  0.4129  0.3442
  602SOL    HW1 2406   2.192   1.899   0.742 -0.8382 -0.0571 -0.8822
  602SOL    HW2 2407   2.207   2.055   0.748  0.4648 -1.2844  0.8454
  602SOL     MW 2408   2.231   1.970   0.768  0.3801  0.1270  0.2485
  603SOL     OW 2409   3.030   1.333   1.982  0.0147 -0.1759  0.2618
  603SOL    HW1 2410   2.972   1.392   2.041 -0.6194  1.9106  0.8354
  603SOL    HW2 2411   3.056   1.261   2.041 -1.2205 -1.3068 -1.2065
  603SOL     MW 2412   3.026   1.331   1.997 -0.2319 -0.0498  0.1438
  604SOL     OW 2413   2.029   1.368   0.356 -0.1048 -0.4590 -0.2019
  604SOL    HW1 2414   2.087   1.311   0.413  1.5289  1.2764  1.1138
  604SOL    HW2 2415   1.970   1.393   0.425  1.6127  2.5441  1.1509
  604SOL     MW 2416   2.029   1.364   0.373  0.3374  0.1662  0.1502
  605SOL     OW 2417   2.446   1.446   0.793  0.2922 -0.0298 -0.0748
  605SOL    HW1 2418   2.469   1.519   0.735 -0.2176 -0.2015  0.0704
  605SOL    HW2 2419   2.506   1.371   0.779  3.1345  2.0248  2.6711
  605SOL     MW 2420   2.457   1.445   0.783  0.5999  0.2186  0.3066
  606SOL     OW 2421   2.685   1.804   1.764 -0.2164  0.0683 -0.1629
  606SOL    HW1 2422   2.608   1.852   1.783  1.3128  0.5947  2.0303
  606SOL    HW2 2423   2.681   1.722   1.807  0.5208  1.1113 -1.2203
  606SOL     MW 2424   2.674   1.799   1.772  0.0827  0.2754 -0.0130
  607SOL     OW 2425   2.396   1.036   3.078 -0.0070  0.3130 -0.1505
  607SOL    HW1 2426   2.474   0.985   3.043 -0.1582  1.1623  1.3102
  607SOL    HW2 2427   2.417   1.046   3.174  1.0022  0.7648  0.1025
  607SOL     MW 2428   2.409   1.030   3.086  0.1062  0.4847  0.0756
  608SOL     OW 2429   1.917   0.235   0.423  0.2856  0.0864 -0.5501
  608SOL    HW1 2430   1.878   0.262   0.343  0.7505 -0.1808  1.3078
  608SOL    HW2 2431   1.889   0.139   0.431  3.0687 -1.0758  0.1563
  608SOL     MW 2432   1.908   0.225   0.414  0.7141 -0.1022 -0.2118
  609SOL     OW 2433   2.089   1.916   3.070  0.3273  0.2328 -0.0410
  609SOL    HW1 2434   2.078   1.838   3.018 -1.7551 -0.4745  1.2756
  609SOL    HW2 2435   2.072   1.876   3.157 -0.6258 -1.4992 -2.2340
  609SOL     MW 2436   2.086   1.900   3.075 -0.0732 -0.0890 -0.1566
  610SOL     OW 2437   1.773   0.971   1.243 -0.4710  0.2126 -0.2032
  610SOL    HW1 2438   1.760   0.916   1.157 -0.7777  2.8669 -5.5028
  610SOL    HW2 2439   1.692   1.015   1.242  0.2304  1.1211  0.3521
  610SOL     MW 2440   1.761   0.970   1.231 -0.4189  0.6827 -0.8292
  611SOL     OW 2441   2.477   1.673   0.563  0.5027 -0.0311  0.2447
  611SOL    HW1 2442   2.438   1.641   0.482 -1.8686  0.5584 -0.3639
  611SOL    HW2 2443   2.478   1.771   0.555  2.4081  1.4891  1.7371
  611SOL     MW 2444   2.472   1.681   0.551  0.4413  0.2472  0.3613
  612SOL     OW 2445   2.903   2.855   0.370  0.5227  0.7452 -0.5155
  612SOL    HW1 2446   2.926   2.879   0.457 -1.8239 -1.0879 -0.0376
  612SOL    HW2 2447   2.986   2.855   0.320 -0.0570  1.0402  2.5298
  612SOL     MW 2448   2.917   2.858   0.375  0.1366  0.5423 -0.0507
  613SOL     OW 2449   1.453   1.120   0.928 -0.1168 -0.2908  0.1774
  613SOL    HW1 2450   1.448   1.218   0.913 -1.8904  0.6963  0.5067
  613SOL    HW2 2451   1.487   1.101   1.018  1.9091 -1.4066 -3.2734
  613SOL     MW 2452   1.457   1.131   0.938 -0.0835 -0.3078 -0.2344
  614SOL     OW 2453   2.106   0.541   1.447  0.5038  0.8378  0.2039
  614SOL    HW1 2454   2.104   0.476   1.524  1.6305  0.1053  0.8036
  614SOL    HW2 2455   2.017   0.542   1.404  2.5185 -0.9682  2.2928
  614SOL     MW 2456   2.094   0.532   1.451  0.9182  0.5029  0.5587
  615SOL     OW 2457   2.421   0.738   0.341 -0.0220  0.0925 -0.0997
  615SOL    HW1 2458   2.510   0.690   0.340  2.4483  1.4493 -1.4028
  615SOL    HW2 2459   2.364   0.694   0.272  0.7031 -3.5067 -0.6598
  615SOL     MW 2460   2.425   0.726   0.332  0.3996 -0.2033 -0.3455
  616SOL     OW 2461   2.562   0.370   1.661 -0.0198 -0.0688  0.1363
  616SOL    HW1 2462   2.513   0.298   1.626 -1.1170 -1.5668  0.1986
  616SOL    HW2 2463   2.548   0.449   1.607 -0.0887 -1.5353  0.8528
  616SOL     MW 2464   2.553   0.371   1.650 -0.1737 -0.4599  0.2390
  617SOL     OW 2465   2.815   0.596   1.779  0.4779  0.7453  0.0981
  617SOL    HW1 2466   2.751   0.616   1.853 -0.1173  0.6280  0.0174
  617SOL    HW2 2467   2.818   0.498   1.777 -0.7446 -1.8383  1.3170
  617SOL     MW 2468   2.807   0.586   1.789  0.2381  0.3889  0.2483
  618SOL     OW 2469   2.863   0.201   1.997  0.1758  0.0365  0.1595
  618SOL    HW1 2470   2.800   0.222   2.064 -1.4030  3.1033 -1.4022
  618SOL    HW2 2471   2.949   0.199   2.037  1.4389 -3.2314 -2.9818
  618SOL     MW 2472   2.866   0.204   2.011  0.1341  0.0099 -0.4610
  619SOL     OW 2473   2.735   0.725   0.039  0.1451  0.1339 -0.1658
  619SOL    HW1 2474   2.757   0.813   0.064 -0.6354 -0.7903  1.7954
  619SOL    HW2 2475   2.796   0.672   0.079 -0.5470  0.8486 -1.5867
  619SOL     MW 2476   2.746   0.730   0.048 -0.0492  0.1062 -0.0945
  620SOL     OW 2477   2.224   0.991   0.873 -0.2849 -0.4122 -0.1001
  620SOL    HW1 2478   2.293   0.981   0.810  1.3679  2.3127 -0.0648
  620SOL    HW2 2479   2.146   1.015   0.823  1.0407  1.2434  0.4941
  620SOL     MW 2480   2.223   0.993   0.858  0.1081  0.1658 -0.0171
  621SOL     OW 2481   1.508   2.167   2.000  0.2135 -0.2208  0.1844
  621SOL    HW1 2482   1.451   2.095   2.028 -0.3756 -1.1801 -4.3180
  621SOL    HW2 2483   1.590   2.130   2.030  1.4002  0.3910 -2.2336
  621SOL     MW 2484   1.511   2.153   2.008  0.2923 -0.2666 -0.7287
  622SOL     OW 2485   2.629   0.298   0.193 -0.0122  0.1004  0.2724
  622SOL    HW1 2486   2.720   0.308   0.201 -1.3240 -0.6424  1.1129
  622SOL    HW2 2487   2.615   0.212   0.164  0.0508  2.5119 -0.6911
  622SOL     MW 2488   2.639   0.288   0.190 -0.1769  0.3205  0.2562
  623SOL     OW 2489   2.338   2.736   0.818  0.0937 -0.8714 -0.5240
  623SOL    HW1 2490   2.404   2.790   0.777  0.5401 -1.8492 -2.6507
  623SOL    HW2 2491   2.324   2.780   0.910 -1.9417 -3.9334  3.6938
  623SOL     MW 2492   2.345   2.749   0.825 -0.1159 -1.4044 -0.2481
  624SOL     OW 2493   2.135   1.613   3.012  0.1563  0.7844 -0.2448
  624SOL    HW1 2494   2.083   1.532   3.003 -0.5247  0.0170  0.5417
  624SOL    HW2 2495   2.205   1.586   3.077  0.2358  0.5364  2.8306
  624SOL     MW 2496   2.137   1.599   3.019  0.0769  0.6504  0.2647
  625SOL     OW 2497   2.131   1.958   1.025 -0.1473  0.4595 -0.1275
  625SOL    HW1 2498   2.181   1.890   1.067 -0.0829  1.3863 -1.7318
  625SOL    HW2 2499   2.146   1.955   0.929  1.3883  1.3435 -0.4377
  625SOL     MW 2500   2.140   1.948   1.018  0.0638  0.6984 -0.3801
  626SOL     OW 2501   0.124   1.851   2.469 -0.0081 -0.0265  0.2146
  626SOL    HW1 2502   0.074   1.776   2.506 -1.9926 -1.6485  1.0067
  626SOL    HW2 2503   0.077   1.935   2.477 -2.2816  2.3044 -2.4993
  626SOL     MW 2504   0.111   1.852   2.475 -0.5699  0.0670 -0.0390
  627SOL     OW 2505   2.607   0.848   2.606 -0.3968  0.7278  0.4689
  627SOL    HW1 2506   2.513   0.869   2.590 -0.7978 -0.1511  0.5559
  627SOL    HW2 2507   2.620   0.765   2.555  0.8322 -0.8698 -1.0305
  627SOL     MW 2508   2.596   0.840   2.597 -0.2875  0.4011  0.2826
  628SOL     OW 2509   2.350   1.367   1.268  0.4190  0.0939  0.1638
  628SOL    HW1 2510   2.329   1.282   1.232 -1.2495  0.9571 -3.6133
  628SOL    HW2 2511   2.413   1.402   1.207 -0.1608  0.7012 -1.9468
  628SOL     MW 2512   2.355   1.360   1.255  0.1224  0.2879 -0.6130
  629SOL     OW 2513   1.848   0.582   1.265  0.2320  0.0206 -0.6933
  629SOL    HW1 2514   1.908   0.639   1.215  0.8257 -0.4316 -0.2189
  629SOL    HW2 2515   1.756   0.605   1.249  0.5975 -0.7604 -1.0941
  629SOL     MW 2516   1.844   0.592   1.257  0.3585 -0.1421 -0.6836
  630SOL     OW 2517   2.358   1.961   3.069 -0.3692 -0.0378  0.1590
  630SOL    HW1 2518   2.385   1.978   2.979 -0.1889 -1.9387 -0.5318
  630SOL    HW2 2519   2.271   1.937   3.057  2.2044  0.0834  1.3346
  630SOL     MW 2520   2.350   1.960   3.056 -0.0059 -0.2726  0.2230
  631SOL     OW 2521   2.105   1.883   1.486  0.1564 -0.3687  0.0037
  631SOL    HW1 2522   2.067   1.798   1.496  0.8284 -0.6367  2.3045
  631SOL    HW2 2523   2.035   1.944   1.455 -0.0560  0.4634 -0.2076
  631SOL     MW 2524   2.091   1.880   1.483  0.2170 -0.2943  0.2794
  632SOL     OW 2525   0.386   1.890   1.472  0.1777  0.1090 -0.5681
  632SOL    HW1 2526   0.316   1.957   1.467 -1.7229  2.2009  0.4792
  632SOL    HW2 2527   0.326   1.816   1.491 -1.1085 -1.3859  1.5177
  632SOL     MW 2528   0.369   1.889   1.474 -0.2427  0.1878 -0.1547
  633SOL     OW 2529   2.642   0.575   0.364  0.4302 -0.2181 -0.1840
  633SOL    HW1 2530   2.721   0.574   0.420  1.1411 -0.2591  0.3760
  633SOL    HW2 2531   2.650   0.491   0.317  0.8173 -3.1833  1.6920
  633SOL     MW 2532   2.654   0.564   0.365  0.5751 -0.6148  0.1374
  634SOL     OW 2533   2.747   0.019   0.636  0.7452  0.2813 -0.1519
  634SOL    HW1 2534   2.766   0.112   0.615 -0.7547  2.0391 -0.0767
  634SOL    HW2 2535   2.714  -0.005   0.550 -1.2408  2.0463  1.0070
  634SOL     MW 2536   2.745   0.028   0.622  0.2853  0.7461  0.0109
  635SOL     OW 2537   2.672   0.052   1.809  0.3731 -0.3673 -0.3069
  635SOL    HW1 2538   2.738  -0.004   1.774  3.6217  0.7704  0.3013
  635SOL    HW2 2539   2.721   0.114   1.861  1.4833 -2.2361 -0.7952
  635SOL     MW 2540   2.688   0.053   1.811  0.9482 -0.4638 -0.2911
  636SOL     OW 2541   2.700   1.631   0.735  0.1774 -0.0412 -0.1505
  636SOL    HW1 2542   2.655   1.634   0.649 -1.1856  0.4989 -0.9581
  636SOL    HW2 2543   2.681   1.716   0.777  0.6275 -0.5590  2.9671
  636SOL     MW 2544   2.692   1.643   0.729  0.0570 -0.0383  0.1543
  637SOL     OW 2545   2.958   1.452   0.693 -0.1016  0.7710 -0.5098
  637SOL    HW1 2546   3.015   1.515   0.659  0.3390  1.7123  1.3865
  637SOL    HW2 2547   2.881   1.504   0.712 -0.0678  1.6561  0.3712
  637SOL     MW 2548   2.956   1.467   0.691 -0.0390  1.0120 -0.1433
  638SOL     OW 2549   2.826   0.532   0.560 -0.3059  0.4406  0.3194
  638SOL    HW1 2550   2.893   0.579   0.509 -1.4144 -1.3993 -0.3884
  638SOL    HW2 2551   2.821   0.564   0.652  2.1823 -0.6306  0.1126
  638SOL     MW 2552   2.834   0.542   0.565 -0.1239  0.0565  0.1987
  639SOL     OW 2553   1.853   3.089   0.489  0.4238 -0.3729 -0.4559
  639SOL    HW1 2554   1.767   3.095   0.521  3.9996 -0.9730 -2.3923
  639SOL    HW2 2555   1.855   3.000   0.455 -1.4624  0.6992  0.9304
  639SOL     MW 2556   1.842   3.078   0.489  0.6467 -0.3106 -0.5285
  640SOL     OW 2557   0.302   1.430   0.107  0.2297 -0.6072 -0.3486
  640SOL    HW1 2558   0.339   1.437   0.017 -2.2722 -0.3309  1.5220
  640SOL    HW2 2559   0.333   1.347   0.137 -2.6597  1.4383 -0.6900
  640SOL     MW 2560   0.311   1.420   0.099 -0.4816 -0.3009 -0.1468
  641SOL     OW 2561   2.365   0.401   0.415  0.2435  0.3033 -0.0775
  641SOL    HW1 2562   2.357   0.348   0.338  1.4825 -0.7584 -1.1860
  641SOL    HW2 2563   2.392   0.335   0.480  3.6230  0.1940  0.6291
  641SOL     MW 2564   2.367   0.385   0.413  0.8529  0.1488 -0.1305
  642SOL     OW 2565   0.109   3.057   0.484 -0.2872  0.1844  0.6547
  642SOL    HW1 2566   0.075   3.148   0.463  2.5401 -0.0765 -0.3324
  642SOL    HW2 2567   0.030   3.013   0.512  0.2393 -1.3788  0.2527
  642SOL     MW 2568   0.094   3.064   0.485  0.1553 -0.0563  0.4714
  643SOL     OW 2569   2.147   0.340   1.642  0.2599  0.0693 -0.2646
  643SOL    HW1 2570   2.077   0.326   1.712  1.1262  2.8668  1.3139
  643SOL    HW2 2571   2.135   0.270   1.579 -3.6697  0.1533  0.5680
  643SOL     MW 2572   2.136   0.329   1.643 -0.1443  0.4495  0.0536
  644SOL     OW 2573   2.686   1.889   0.942 -0.2525 -0.4470  0.1047
  644SOL    HW1 2574   2.669   1.847   1.021  0.2783  2.9055 -1.6206
  644SOL    HW2 2575   2.629   1.964   0.943  1.5746 -0.4311  0.4033
  644SOL     MW 2576   2.676   1.893   0.953  0.0586 -0.0026 -0.0835
  645SOL     OW 2577   2.823   0.970   0.790 -0.5276 -0.6298 -0.2417
  645SOL    HW1 2578   2.892   0.906   0.792  0.6131  1.8478  0.8363
  645SOL    HW2 2579   2.798   0.987   0.881  1.4975 -3.8598  0.7721
  645SOL     MW 2580   2.829   0.964   0.803 -0.1099 -0.7291  0.0343
  646SOL     OW 2581   0.114   2.268   0.867 -0.3483  0.0781 -0.0093
  646SOL    HW1 2582   0.133   2.182   0.854  0.7122 -0.3734  1.5262
  646SOL    HW2 2583   0.061   2.309   0.795 -0.9319  0.6992 -0.4019
  646SOL     MW 2584   0.110   2.262   0.856 -0.2854  0.1004  0.1415
  647SOL     OW 2585   2.782   0.423   3.022 -0.7941 -0.3988  0.5112
  647SOL    HW1 2586   2.693   0.427   3.050  1.7827 -1.2016  3.1542
  647SOL    HW2 2587   2.803   0.514   3.029 -2.9289 -1.2833  1.1549
  647SOL     MW 2588   2.773   0.435   3.027 -0.7357 -0.6214  0.9449
  648SOL     OW 2589   2.077   0.634   1.097 -0.7054  0.0529 -0.4170
  648SOL    HW1 2590   2.153   0.604   1.151  0.0796 -0.3667 -1.4699
  648SOL    HW2 2591   2.116   0.703   1.041 -0.0378  2.6272  0.6999
  648SOL     MW 2592   2.092   0.639   1.096 -0.5138  0.3372 -0.4086
  649SOL     OW 2593   2.398   2.637   1.291  0.0787  0.3651 -0.1211
  649SOL    HW1 2594   2.481   2.685   1.303 -0.2506 -1.1035  2.4757
  649SOL    HW2 2595   2.428   2.552   1.247  0.0693 -1.6580  0.6273
  649SOL     MW 2596   2.413   2.632   1.286  0.0340 -0.0956  0.3203
  650SOL     OW 2597   2.774   0.270   0.531  0.4109 -0.3425  0.2704
  650SOL    HW1 2598   2.814   0.353   0.564  1.1659 -0.8033 -1.6416
  650SOL    HW2 2599   2.813   0.256   0.444  0.5845  0.3767 -0.3761
  650SOL     MW 2600   2.785   0.279   0.524  0.5334 -0.3084 -0.0672
  651SOL     OW 2601   0.034   0.454   1.004  0.5635 -0.0632  0.3668
  651SOL    HW1 2602   0.060   0.505   0.926  1.1697  2.3392 -1.0440
  651SOL    HW2 2603  -0.045   0.504   1.038 -1.3711  1.5274  1.2250
  651SOL     MW 2604   0.027   0.467   0.998  0.3882  0.4637  0.2939
  652SOL     OW 2605   2.341   1.419   2.899  0.5592  0.2589  0.3933
  652SOL    HW1 2606   2.415   1.449   2.846 -0.1238 -1.3259 -0.0461
  652SOL    HW2 2607   2.267   1.474   2.883 -1.4718 -0.8777  1.6444
  652SOL     MW 2608   2.341   1.431   2.890  0.2011 -0.1002  0.5004
  653SOL     OW 2609   1.831   0.392   0.181 -0.3371  0.0087 -0.5236
  653SOL    HW1 2610   1.820   0.303   0.145 -1.7534  1.2403 -0.6373
  653SOL    HW2 2611   1.856   0.442   0.101 -1.1042  0.6779 -1.9329
  653SOL     MW 2612   1.833   0.386   0.165 -0.6252  0.2595 -0.7246
  654SOL     OW 2613   2.462   1.024   0.723  0.1409  0.9118 -0.5242
  654SOL    HW1 2614   2.410   0.982   0.650 -1.1113 -1.5383 -0.7058
  654SOL    HW2 2615   2.496   0.941   0.776  3.4125  0.7804 -1.2802
  654SOL     MW 2616   2.460   1.007   0.721  0.4073  0.5712 -0.6479
  655SOL     OW 2617   3.009   0.942   0.340  1.0401 -0.3337  0.5119
  655SOL    HW1 2618   2.948   0.973   0.404  0.7599  1.4601  1.4287
  655SOL    HW2 2619   3.032   0.850   0.359  0.8922 -0.4359 -0.0444
  655SOL     MW 2620   3.004   0.934   0.351  0.9836 -0.1105  0.5595
  656SOL     OW 2621   1.738   2.663   1.427  0.2785 -0.0739 -0.4495
  656SOL    HW1 2622   1.831   2.668   1.446 -0.8344 -1.9148  2.6045
  656SOL    HW2 2623   1.736   2.577   1.386  1.7518 -1.0047 -0.7102
  656SOL     MW 2624   1.750   2.653   1.424  0.3261 -0.4396 -0.0810
  657SOL     OW 2625   0.104   1.798   1.133 -0.0728  0.5254  0.0558
  657SOL    HW1 2626   0.195   1.829   1.147  1.0378  2.7826 -0.0885
  657SOL    HW2 2627   0.116   1.703   1.145  1.6999  0.1837  4.5940
  657SOL     MW 2628   0.118   1.789   1.136  0.3076  0.7781  0.6355
  658SOL     OW 2629   2.613   1.350   0.203 -0.1819  0.6863 -0.4864
  658SOL    HW1 2630   2.611   1.268   0.261 -1.7334  1.4426  2.8612
  658SOL    HW2 2631   2.654   1.415   0.260 -0.7334 -2.3862 -1.4215
  658SOL     MW 2632   2.618   1.348   0.218 -0.4594  0.3807 -0.1681
  659SOL     OW 2633   2.151   1.433   0.998  0.6876  0.3527 -0.6367
  659SOL    HW1 2634   2.203   1.388   1.068  3.2607  0.4574  1.4261
  659SOL    HW2 2635   2.111   1.511   1.044 -1.8919  1.7496 -2.4885
  659SOL     MW 2636   2.153   1.438   1.013  0.6868  0.5508 -0.6089
  660SOL     OW 2637   2.054   1.593   1.572 -0.1505 -0.4562 -0.0527
  660SOL    HW1 2638   2.064   1.581   1.665 -0.9717 -1.4452 -0.5136
  660SOL    HW2 2639   1.988   1.514   1.564 -1.7067  0.2024 -1.0704
  660SOL     MW 2640   2.047   1.581   1.583 -0.4642 -0.4998 -0.2478
  661SOL     OW 2641   2.394   1.013   0.271 -0.3678  0.4144 -0.8266
  661SOL    HW1 2642   2.478   1.049   0.302  2.6480  2.0626 -0.6203
  661SOL    HW2 2643   2.403   0.918   0.288  1.1188 -2.1015 -0.1750
  661SOL     MW 2644   2.407   1.005   0.277  0.2262  0.2999 -0.7134
  662SOL     OW 2645   2.530   2.990   0.781  0.3668 -0.2860  0.3206
  662SOL    HW1 2646   2.467   3.049   0.825 -0.9388  0.2743 -2.8502
  662SOL    HW2 2647   2.597   3.047   0.736  2.3054 -1.0513 -2.0846
  662SOL     MW 2648   2.531   3.005   0.781  0.4503 -0.3130 -0.4151
  663SOL     OW 2649   2.752   1.540   0.393  0.1727  0.0756 -0.0547
  663SOL    HW1 2650   2.737   1.623   0.349  2.0864 -2.2441 -0.5713
  663SOL    HW2 2651   2.782   1.566   0.480 -0.5670 -0.2740 -4.3422
  663SOL     MW 2652   2.754   1.555   0.398  0.3276 -0.2766 -0.6886
  664SOL     OW 2653   2.522   1.509   1.591 -0.3151  0.4269  0.4366
  664SOL    HW1 2654   2.524   1.596   1.550 -1.6099  1.5204  1.4646
  664SOL    HW2 2655   2.440   1.468   1.565  0.4314  0.1689 -3.0298
  664SOL     MW 2656   2.511   1.515   1.582 -0.3875  0.5371  0.1149
  665SOL     OW 2657   2.844   0.792   2.182 -0.7150  0.3174  0.3107
  665SOL    HW1 2658   2.850   0.799   2.088 -1.2033  1.4251  0.9537
  665SOL    HW2 2659   2.899   0.711   2.201  1.1002  1.3867 -2.0628
  665SOL     MW 2660   2.852   0.782   2.172 -0.5399  0.6046  0.0824
  666SOL     OW 2661   2.834   2.960   1.687  0.2438  0.0279  0.0444
  666SOL    HW1 2662   2.826   2.970   1.592  2.9630  0.9001  1.0074
  666SOL    HW2 2663   2.780   2.880   1.723  0.2641 -3.1288  1.4233
  666SOL     MW 2664   2.826   2.951   1.679  0.6053 -0.2735  0.3534
  667SOL     OW 2665   1.971   2.687   1.724  0.0500 -0.3497 -0.2364
  667SOL    HW1 2666   1.991   2.682   1.821 -2.2240 -0.8345 -0.2011
  667SOL    HW2 2667   2.050   2.730   1.686 -2.7047 -1.0120  2.3750
  667SOL     MW 2668   1.984   2.692   1.732 -0.6135 -0.5011  0.1128
  668SOL     OW 2669   2.750   0.605   0.808  0.3544  0.0379  0.0894
  668SOL    HW1 2670   2.805   0.601   0.888  0.9004 -1.6994 -0.3016
  668SOL    HW2 2671   2.680   0.668   0.818 -0.6217 -0.0878 -2.5178
  668SOL     MW 2672   2.748   0.613   0.820  0.2976 -0.2079 -0.3062
  669SOL     OW 2673   0.221   0.979   0.727  0.7407  0.0954  0.4486
  669SOL    HW1 2674   0.230   0.935   0.817 -0.0535  0.9425  0.0326
  669SOL    HW2 2675   0.290   1.049   0.717  0.3245 -2.8222  1.2110
  669SOL     MW 2676   0.231   0.982   0.737  0.5810 -0.1778  0.4943
  670SOL     OW 2677   2.928   0.332   0.235  0.0079 -0.1489 -0.4552
  670SOL    HW1 2678   2.943   0.266   0.159  0.2792  1.0850  0.3456
  670SOL    HW2 2679   2.940   0.420   0.197  2.4485 -2.2162  1.0205
  670SOL     MW 2680   2.932   0.335   0.220  0.3657 -0.2589 -0.1548
  671SOL     OW 2681   2.076   3.030   1.518 -0.0119 -0.3400 -0.2182
  671SOL    HW1 2682   2.013   2.998   1.454  0.5388  0.2237  0.1721
  671SOL    HW2 2683   2.018   3.054   1.589 -0.3838 -1.3193 -1.4936
  671SOL     MW 2684   2.060   3.029   1.519  0.0117 -0.3948 -0.3349
  672SOL     OW 2685   1.793   1.821   1.293 -0.2651 -0.1772  0.2101
  672SOL    HW1 2686   1.820   1.909   1.337 -1.2476  0.0913 -1.0945
  672SOL    HW2 2687   1.818   1.818   1.203  0.5418 -0.4769  0.5915
  672SOL     MW 2688   1.800   1.833   1.287 -0.2882 -0.1813  0.0883
  673SOL     OW 2689   2.824   1.088   0.543 -0.4397 -0.0835 -0.0156
  673SOL    HW1 2690   2.816   1.032   0.618  0.2581 -0.1035  3.3313
  673SOL    HW2 2691   2.902   1.138   0.568  0.6007 -3.9625  1.2452
  673SOL     MW 2692   2.834   1.087   0.556 -0.2103 -0.5979  0.5923
  674SOL     OW 2693   2.470   3.046   1.147 -0.3954  0.1884 -0.7184
  674SOL    HW1 2694   2.412   3.068   1.071  1.1703 -0.1356 -0.5853
  674SOL    HW2 2695   2.507   2.958   1.121 -0.0717 -1.0122 -3.1352
  674SOL     MW 2696   2.467   3.038   1.134 -0.1461 -0.0128 -1.0197
  675SOL     OW 2697   3.022   0.834   1.037  0.0462 -0.6329 -0.1712
  675SOL    HW1 2698   3.095   0.840   1.105 -0.8323  3.6101  2.6541
  675SOL    HW2 2699   3.037   0.913   0.976  1.0652  3.3060 -0.5677
  675SOL     MW 2700   3.033   0.846   1.038  0.0647  0.4466  0.1493
  676SOL     OW 2701   2.906   1.391   1.759  0.1945  0.0176  0.4705
  676SOL    HW1 2702   2.872   1.318   1.711 -0.0977 -3.5106  0.8170
  676SOL    HW2 2703   2.952   1.356   1.830  0.4178 -0.5203 -2.5125
  676SOL     MW 2704   2.908   1.377   1.762  0.1854 -0.5189  0.1226
  677SOL     OW 2705   2.489   0.720   1.894 -0.5654 -0.2217  0.7560
  677SOL    HW1 2706   2.422   0.652   1.870 -1.7104 -1.2984 -2.5069
  677SOL    HW2 2707   2.438   0.790   1.943  0.7529 -0.6037 -0.7494
  677SOL     MW 2708   2.474   0.720   1.897 -0.5425 -0.4142  0.1269
  678SOL     OW 2709   2.382   1.559   0.318 -0.4445  0.0038 -0.0415
  678SOL    HW1 2710   2.293   1.584   0.343  0.5405 -0.9562  0.3047
  678SOL    HW2 2711   2.374   1.508   0.233  0.2330  0.1039  0.4115
  678SOL     MW 2712   2.369   1.556   0.310 -0.2252 -0.1097  0.0640
  679SOL     OW 2713   2.284   0.473   1.256  0.1165  0.0930  0.4503
  679SOL    HW1 2714   2.269   0.383   1.225  0.7357  1.9451 -1.0750
  679SOL    HW2 2715   2.227   0.488   1.330  0.0581  0.1164  0.4721
  679SOL     MW 2716   2.274   0.463   1.262  0.1905  0.3404  0.2519
  680SOL     OW 2717   2.397   0.189   1.495 -0.3860  0.5159 -0.0283
  680SOL    HW1 2718   2.307   0.192   1.476  1.9237  1.6350  0.0235
  680SOL    HW2 2719   2.421   0.097   1.476  0.8071 -3.6362  0.8324
  680SOL     MW 2720   2.388   0.178   1.490  0.0762  0.1158  0.0921
  681SOL     OW 2721   0.229   0.582   1.441 -0.2671 -0.4319 -0.2604
  681SOL    HW1 2722   0.190   0.514   1.488 -2.0034  0.5587 -3.7136
  681SOL    HW2 2723   0.228   0.547   1.346  1.7457 -0.4863 -1.4172
  681SOL     MW 2724   0.224   0.568   1.435 -0.2306 -0.3084 -0.8687
  682SOL     OW 2725   3.052   2.847   1.550  0.6015 -0.0329 -0.1024
  682SOL    HW1 2726   3.108   2.922   1.571 -2.5829 -1.4121 -0.1414
  682SOL    HW2 2727   2.975   2.875   1.602  4.0570  3.5300  3.5096
  682SOL     MW 2728   3.049   2.861   1.560  0.6373  0.2552  0.3690
  683SOL     OW 2729   2.126   0.772   3.033  0.1903 -0.6308 -0.0021
  683SOL    HW1 2730   2.050   0.709   3.032  0.0052  2.3904  0.4153
  683SOL    HW2 2731   2.067   0.841   3.075 -3.2395 -0.6907 -0.1952
  683SOL     MW 2732   2.108   0.773   3.039 -0.2866 -0.2401  0.0275
  684SOL     OW 2733   2.043   1.784   0.678 -0.1222  0.0556 -0.3119
  684SOL    HW1 2734   2.076   1.736   0.598 -0.9792  1.9451 -0.8991
  684SOL    HW2 2735   1.978   1.724   0.721 -1.6743  0.5876  2.0203
  684SOL     MW 2736   2.039   1.770   0.673 -0.4400  0.3751 -0.0816
  685SOL     OW 2737   2.613   1.734   1.147 -0.0040 -0.2291 -0.2053
  685SOL    HW1 2738   2.679   1.715   1.212 -0.5726 -2.6110 -0.5814
  685SOL    HW2 2739   2.577   1.654   1.117 -1.0833 -1.5241  0.9306
  685SOL     MW 2740   2.617   1.721   1.152 -0.2214 -0.7142 -0.1051
  686SOL     OW 2741   2.864   0.645   1.529  0.2647 -0.1715 -0.5673
  686SOL    HW1 2742   2.856   0.609   1.617  0.4019 -1.1982  1.6807
  686SOL    HW2 2743   2.958   0.655   1.506 -0.4704  2.8509  0.5822
  686SOL     MW 2744   2.875   0.642   1.538  0.1858  0.0918 -0.1191
  687SOL     OW 2745   2.191   0.236   1.151  0.0669  0.2896  0.8490
  687SOL    HW1 2746   2.254   0.209   1.083  0.9695  0.7404 -0.5312
  687SOL    HW2 2747   2.132   0.271   1.090 -0.3966 -1.5964  0.9143
  687SOL     MW 2748   2.191   0.237   1.134  0.1248  0.1002  0.6755
  688SOL     OW 2749   2.442   0.583   1.490 -0.5668  0.0956 -0.3682
  688SOL    HW1 2750   2.410   0.526   1.420 -1.3691  0.5492 -2.2256
  688SOL    HW2 2751   2.366   0.605   1.550 -1.4740 -0.2087  0.1161
  688SOL     MW 2752   2.428   0.578   1.489 -0.7923  0.1153 -0.5493
  689SOL     OW 2753   2.472   0.741   3.002 -0.6473 -0.9258 -0.4524
  689SOL    HW1 2754   2.384   0.753   3.038 -0.6443 -0.9044  1.4157
  689SOL    HW2 2755   2.539   0.738   3.069  0.4309  3.0911  0.7116
  689SOL     MW 2756   2.469   0.743   3.015 -0.5046 -0.3930 -0.0523
  690SOL     OW 2757   2.050   0.966   1.850  0.2632 -0.2124  0.1368
  690SOL    HW1 2758   2.037   0.872   1.846  0.1350 -1.6973  0.6479
  690SOL    HW2 2759   2.082   0.988   1.764  1.0521  0.4702  3.1936
  690SOL     MW 2760   2.053   0.956   1.838  0.3503 -0.3183  0.6075
  691SOL     OW 2761   2.431   0.281   0.872 -0.1451 -0.1911 -0.6237
  691SOL    HW1 2762   2.529   0.284   0.855 -1.8262  1.3261  0.4882
  691SOL    HW2 2763   2.418   0.377   0.862  0.8221  2.8122 -1.6604
  691SOL     MW 2764   2.442   0.294   0.868 -0.2393  0.4053 -0.6138
  692SOL     OW 2765   2.763   1.656   1.380  0.0794  0.0749  0.2094
  692SOL    HW1 2766   2.733   1.616   1.459 -0.0868  1.4060 -1.5859
  692SOL    HW2 2767   2.835   1.711   1.405  1.9239  2.2770 -4.5222
  692SOL     MW 2768   2.769   1.658   1.394  0.3009  0.5411 -0.6518
  693SOL     OW 2769   2.197   0.416   3.080  0.0895  0.3805  0.1033
  693SOL    HW1 2770   2.185   0.337   3.129 -0.8492 -1.6052  1.7125
  693SOL    HW2 2771   2.166   0.485   3.140 -3.9175 -1.0806 -1.3354
  693SOL     MW 2772   2.192   0.415   3.094 -0.5631 -0.0743  0.1258
  694SOL     OW 2773   1.966   1.174   1.176 -0.4123 -0.1105 -0.2017
  694SOL    HW1 2774   2.061   1.143   1.182 -0.1121  1.2068 -1.0127
  694SOL    HW2 2775   1.902   1.100   1.199  1.0956 -1.7916 -1.0947
  694SOL     MW 2776   1.970   1.160   1.180 -0.1738 -0.1585 -0.4265
  695SOL     OW 2777   2.932   1.418   1.326  0.6476 -0.5632  0.5899
  695SOL    HW1 2778   2.896   1.402   1.235  0.9463  0.6866 -2.1406
  695SOL    HW2 2779   2.906   1.507   1.338 -1.3102 -2.6998 -0.6458
  695SOL     MW 2780   2.924   1.428   1.316  0.4287 -0.6802  0.0666
  696SOL     OW 2781   2.064   1.318   0.747  0.5786  0.0093  0.6285
  696SOL    HW1 2782   2.119   1.379   0.802 -0.5042 -0.0981  2.4178
  696SOL    HW2 2783   1.988   1.283   0.795 -1.7810 -0.3662 -1.5020
  696SOL     MW 2784   2.061   1.321   0.760  0.1244 -0.0544  0.5835
  697SOL     OW 2785   2.920   1.035   2.262 -0.3122 -0.3008  0.1112
  697SOL    HW1 2786   2.848   1.103   2.240 -1.1505  0.1899 -0.7726
  697SOL    HW2 2787   2.883   0.945   2.256  0.6760  1.9834  0.4692
  697SOL     MW 2788   2.906   1.032   2.258 -0.2924  0.0653  0.0418
  698SOL     OW 2789   2.488   0.368   3.067 -0.5345  0.5672 -0.1501
  698SOL    HW1 2790   2.406   0.408   3.086  4.2321 -0.6952  0.7274
  698SOL    HW2 2791   2.527   0.352   3.157 -1.0430  1.2858  1.5234
  698SOL     MW 2792   2.482   0.371   3.082  0.0273  0.4954  0.1865
  699SOL     OW 2793   1.862   1.549   1.996  0.4027 -0.7889  0.1144
  699SOL    HW1 2794   1.867   1.470   2.050  1.7615  0.7598 -0.8522
  699SOL    HW2 2795   1.955   1.556   1.964  2.7180  1.4621  1.9125
  699SOL     MW 2796   1.875   1.539   1.999  0.8875 -0.2875  0.2241
  700SOL     OW 2797   2.730   0.891   1.570  0.0829  0.1658 -0.5066
  700SOL    HW1 2798   2.786   0.932   1.508 -0.1295 -2.8754  0.5605
  700SOL    HW2 2799   2.768   0.804   1.577 -0.6769 -1.0696 -1.4707
  700SOL     MW 2800   2.742   0.885   1.563 -0.0454 -0.3985 -0.4931
  701SOL     OW 2801   1.645   1.057   2.555  0.5740  0.3359 -0.0232
  701SOL    HW1 2802   1.730   1.021   2.588 -2.0082  0.5187 -1.1162
  701SOL    HW2 2803   1.617   1.120   2.623 -1.4845 -5.0077 -0.5645
  701SOL     MW 2804   1.652   1.061   2.569 -0.0383 -0.3450 -0.2389
  702SOL     OW 2805   2.085   0.492   0.718 -0.0509 -0.3304  0.3946
  702SOL    HW1 2806   2.085   0.400   0.690  1.8541  2.8410 -0.6815
  702SOL    HW2 2807   2.145   0.543   0.659  1.1760 -2.0307  0.4983
  702SOL     MW 2808   2.093   0.487   0.706  0.3624 -0.1363  0.2663
  703SOL     OW 2809   2.655   1.242   1.013  0.1528  0.0750 -0.0117
  703SOL    HW1 2810   2.660   1.227   0.919 -1.2152  0.3991 -0.2574
  703SOL    HW2 2811   2.645   1.150   1.042  0.2611  1.0129  0.2094
  703SOL     MW 2812   2.655   1.228   1.004 -0.0134  0.2415 -0.0150
  704SOL     OW 2813   3.081   1.262   0.202 -0.0558 -0.3723  0.0404
  704SOL    HW1 2814   2.994   1.257   0.238  0.4483  3.4647 -2.9275
  704SOL    HW2 2815   3.135   1.247   0.281 -1.2331 -0.1253 -0.6173
  704SOL     MW 2816   3.076   1.260   0.217 -0.1446  0.1665 -0.4379
  705SOL     OW 2817   2.045   1.638   1.304 -0.3323  0.4234 -0.6385
  705SOL    HW1 2818   1.973   1.711   1.298 -2.0908  1.8818  1.8752
  705SOL    HW2 2819   2.069   1.630   1.396  0.2919  0.8495  1.4850
  705SOL     MW 2820   2.039   1.647   1.315 -0.4820  0.6720 -0.0266
  706SOL     OW 2821   3.050   1.200   0.638 -0.0843  0.1097  0.1061
  706SOL    HW1 2822   3.093   1.213   0.551  2.2745 -0.2707 -1.5289
  706SOL    HW2 2823   3.032   1.291   0.661  1.7382  0.5204 -0.6098
  706SOL     MW 2824   3.054   1.214   0.629  0.4674  0.1137 -0.2041
  707SOL     OW 2825   2.325   0.043   0.943 -0.1568  0.1344  0.2081
  707SOL    HW1 2826   2.366   0.129   0.915 -0.6759  0.5806 -2.2076
  707SOL    HW2 2827   2.251   0.031   0.891 -1.2681 -3.2217  0.5300
  707SOL     MW 2828   2.320   0.053   0.933 -0.3720 -0.2495 -0.0681
  708SOL     OW 2829   2.383   1.423   0.070 -0.0866 -0.0602 -0.0176
  708SOL    HW1 2830   2.467   1.396   0.107 -0.5852  0.9049  1.5850
  708SOL    HW2 2831   2.401   1.424  -0.024  0.7678  1.2335 -0.9695
  708SOL     MW 2832   2.396   1.419   0.062 -0.0396  0.2379  0.0683
  709SOL     OW 2833   1.674   1.575   0.217 -0.4990 -0.3641 -0.5058
  709SOL    HW1 2834   1.662   1.597   0.123 -0.0806 -1.5635 -1.5017
  709SOL    HW2 2835   1.585   1.589   0.265 -0.5998 -2.5565 -1.0044
  709SOL     MW 2836   1.661   1.580   0.211 -0.4571 -0.8116 -0.7030
  710SOL     OW 2837   2.232   1.127   1.138 -0.5248 -0.8299  0.2168
  710SOL    HW1 2838   2.251   1.081   1.056  1.3030 -0.0400 -1.5184
  710SOL    HW2 2839   2.275   1.075   1.210 -0.3661  0.6946  4.6694
  710SOL     MW 2840   2.240   1.114   1.137 -0.2627 -0.5245  0.5753
  711SOL     OW 2841   2.383   0.112   1.754 -0.0960  0.5111  0.0566
  711SOL    HW1 2842   2.479   0.104   1.775 -1.3253 -1.7022  0.5540
  711SOL    HW2 2843   2.360   0.164   1.679 -2.4037 -0.9024  0.6488
  711SOL     MW 2844   2.393   0.118   1.747 -0.5627  0.0326  0.2003
  712SOL     OW 2845   1.887   0.639   3.070 -0.0122  0.2918  0.0983
  712SOL    HW1 2846   1.841   0.675   2.997  1.3239  0.3133 -0.9840
  712SOL    HW2 2847   1.835   0.681   3.144  2.1467  0.7220 -0.5427
  712SOL     MW 2848   1.874   0.649   3.070  0.4489  0.3514 -0.1290
  713SOL     OW 2849   2.590   0.706   1.111 -0.1724  0.2064  0.3947
  713SOL    HW1 2850   2.588   0.614   1.113  0.1288  1.5115 -0.1745
  713SOL    HW2 2851   2.577   0.744   1.200 -1.1616 -0.5641  0.7027
  713SOL     MW 2852   2.588   0.699   1.123 -0.2632  0.2769  0.3602
  714SOL     OW 2853   2.274   0.206   1.981  0.4846  0.1041  0.0982
  714SOL    HW1 2854   2.305   0.160   2.060  0.4101  0.4252  0.4286
  714SOL    HW2 2855   2.305   0.144   1.914 -1.3923 -0.7222  2.1522
  714SOL     MW 2856   2.283   0.192   1.983  0.2271  0.0375  0.4128
  715SOL     OW 2857   1.838   1.976   1.715  0.3591  0.0824  0.0145
  715SOL    HW1 2858   1.930   2.007   1.741  1.4618 -1.3913 -0.3836
  715SOL    HW2 2859   1.816   1.891   1.750 -0.4933 -0.3063  0.1353
  715SOL     MW 2860   1.847   1.969   1.723  0.3921 -0.1633 -0.0221
  716SOL     OW 2861   2.435   0.544   0.733  0.0331 -0.0726 -0.1240
  716SOL    HW1 2862   2.510   0.521   0.684 -3.1070  1.0787  0.9071
  716SOL    HW2 2863   2.365   0.561   0.676 -1.1493 -2.7980  1.0122
  716SOL     MW 2864   2.436   0.543   0.719 -0.5372 -0.2803  0.1619
  717SOL     OW 2865   2.774   1.665   2.820 -0.0243  0.1604  0.1063
  717SOL    HW1 2866   2.845   1.617   2.861  0.3416  1.2095 -0.0836
  717SOL    HW2 2867   2.718   1.679   2.892  0.8675 -3.9916  1.3876
  717SOL     MW 2868   2.776   1.660   2.835  0.1416 -0.2490  0.2503
  718SOL     OW 2869   2.656   1.309   1.362  0.7522  0.2010  0.6728
  718SOL    HW1 2870   2.563   1.310   1.328 -0.2210 -0.7067 -1.0605
  718SOL    HW2 2871   2.680   1.396   1.389 -2.5831  1.2923  1.5061
  718SOL     MW 2872   2.647   1.320   1.361  0.1837  0.2252  0.5540
  719SOL     OW 2873   2.178   1.217   0.530  0.1586 -0.6570 -0.2835
  719SOL    HW1 2874   2.267   1.243   0.500 -1.1055 -0.2518  1.3216
  719SOL    HW2 2875   2.158   1.274   0.614  1.0345  1.1902 -0.2672
  719SOL     MW 2876   2.187   1.228   0.537  0.1074 -0.3598 -0.0696
  720SOL     OW 2877   2.817   1.249   0.044 -0.4361 -0.2063  0.4406
  720SOL    HW1 2878   2.816   1.149   0.056 -0.3121 -1.4719 -0.2652
  720SOL    HW2 2879   2.751   1.289   0.101 -1.7953 -0.0306  1.0169
  720SOL     MW 2880   2.808   1.241   0.053 -0.5991 -0.3501  0.4235
  721SOL     OW 2881   2.543   0.803   1.359 -0.2376 -0.5024  0.0322
  721SOL    HW1 2882   2.506   0.720   1.393  0.3817 -1.8538 -1.8606
  721SOL    HW2 2883   2.598   0.845   1.425  1.7269  0.7731  2.7431
  721SOL     MW 2884   2.545   0.798   1.372  0.1033 -0.5124  0.1402
  722SOL     OW 2885   2.608   1.141   0.373  0.7048  0.4691  0.3759
  722SOL    HW1 2886   2.546   1.182   0.436  1.8978 -0.2450  0.8863
  722SOL    HW2 2887   2.672   1.098   0.429  0.3617 -2.0801 -1.5834
  722SOL     MW 2888   2.608   1.141   0.389  0.8169  0.0386  0.1847
  723SOL     OW 2889   2.264   1.374   1.553 -0.1727  1.1535 -0.3260
  723SOL    HW1 2890   2.289   1.364   1.460 -2.1218 -0.5777 -0.9267
  723SOL    HW2 2891   2.181   1.417   1.562  1.7588 -2.1375  2.4629
  723SOL     MW 2892   2.256   1.378   1.542 -0.1750  0.4909 -0.0373
  724SOL     OW 2893   2.438   0.221   0.602 -0.0122 -0.5383  0.1395
  724SOL    HW1 2894   2.416   0.238   0.694 -1.2486 -3.4888  2.1038
  724SOL    HW2 2895   2.527   0.257   0.585 -0.8362  1.1058  1.2884
  724SOL     MW 2896   2.447   0.228   0.612 -0.2840 -0.7107  0.5502
  725SOL     OW 2897   2.627   0.387   1.144 -0.0794 -0.1476 -0.3415
  725SOL    HW1 2898   2.689   0.417   1.210 -2.2891  0.7487 -2.6635
  725SOL    HW2 2899   2.602   0.302   1.173 -0.5726 -0.9127  0.1014
  725SOL     MW 2900   2.632   0.380   1.157 -0.4361 -0.1303 -0.5894
  726SOL     OW 2901   2.459   2.461   0.426 -0.4426 -0.1566 -0.1403
  726SOL    HW1 2902   2.496   2.550   0.418 -0.1997 -1.6575 -1.6649
  726SOL    HW2 2903   2.372   2.475   0.445 -0.5812 -0.0644  1.2838
  726SOL     MW 2904   2.453   2.474   0.427 -0.4288 -0.3425 -0.1536
  727SOL     OW 2905   2.848   0.311   1.740 -0.3394 -0.4192  0.0559
  727SOL    HW1 2906   2.756   0.310   1.710 -1.6341  1.7103 -0.5010
  727SOL    HW2 2907   2.855   0.280   1.834  0.0884 -1.7134  3.9523
  727SOL     MW 2908   2.837   0.307   1.749 -0.4538 -0.3090  0.4965
  728SOL     OW 2909   2.800   1.230   2.871  0.0731  0.2980  0.2791
  728SOL    HW1 2910   2.876   1.291   2.856 -1.3305  0.4933  1.7696
  728SOL    HW2 2911   2.782   1.242   2.963 -0.8244  1.3096 -2.0242
  728SOL     MW 2912   2.808   1.240   2.881 -0.2305  0.4572  0.1719
  729SOL     OW 2913   2.513   1.501   1.053 -1.1054 -0.0190 -0.0459
  729SOL    HW1 2914   2.593   1.447   1.054 -0.8159 -0.6000 -0.1241
  729SOL    HW2 2915   2.470   1.478   0.968  0.0191  0.3305 -1.1282
  729SOL     MW 2916   2.518   1.491   1.042 -0.9188 -0.0495 -0.1990
  730SOL     OW 2917   2.163   1.161   0.201  0.0761  0.0033  0.0180
  730SOL    HW1 2918   2.244   1.105   0.219  1.9564 -0.7216  0.4607
  730SOL    HW2 2919   2.189   1.236   0.148  0.7556  2.3071  0.8769
  730SOL     MW 2920   2.177   1.164   0.196  0.4139  0.2117  0.1897
  731SOL     OW 2921   2.782   1.970   2.938  0.3613  0.0634  0.5184
  731SOL    HW1 2922   2.751   1.977   2.844 -1.9576  0.0439 -1.9358
  731SOL    HW2 2923   2.869   2.010   2.933  1.8385  0.5290 -0.1655
  731SOL     MW 2924   2.789   1.976   2.925  0.2503  0.1223  0.1043
  732SOL     OW 2925   2.336   0.994   1.333 -0.2595  0.3505 -0.1150
  732SOL    HW1 2926   2.290   0.950   1.403  0.6642  0.3516 -3.8246
  732SOL    HW2 2927   2.409   0.934   1.317 -0.8069  0.3964 -0.3107
  732SOL     MW 2928   2.339   0.980   1.340 -0.2098  0.3567 -0.6303
  733SOL     OW 2929   2.403   2.687   2.976  0.1052 -0.1295 -0.1124
  733SOL    HW1 2930   2.340   2.758   3.006  1.6677  2.8958  0.1987
  733SOL    HW2 2931   2.363   2.603   2.971  0.2770  1.4260 -1.1815
  733SOL     MW 2932   2.390   2.685   2.979  0.3340  0.4749 -0.2124
  734SOL     OW 2933   1.528   0.260   2.535  0.3474 -0.3405  0.2563
  734SOL    HW1 2934   1.505   0.234   2.624  0.5625  0.0131  1.2444
  734SOL    HW2 2935   1.466   0.223   2.473  0.0319 -0.3539  2.5538
  734SOL     MW 2936   1.517   0.252   2.539  0.3341 -0.2956  0.6898
  735SOL     OW 2937   3.036   0.876   2.660 -0.0223  0.4203 -0.5212
  735SOL    HW1 2938   3.011   0.784   2.644  3.3024 -2.0771  0.2332
  735SOL    HW2 2939   3.049   0.883   2.753 -0.3265  2.1360 -0.2702
  735SOL     MW 2940   3.034   0.865   2.670  0.3762  0.3172 -0.3885
  736SOL     OW 2941   0.154   0.581   2.552  0.4351  0.0088  0.6389
  736SOL    HW1 2942   0.141   0.647   2.481  0.0470  1.7873 -0.7560
  736SOL    HW2 2943   0.215   0.522   2.504  1.8881  1.8193  0.1957
  736SOL     MW 2944   0.160   0.582   2.536  0.5756  0.4824  0.3963
  737SOL     OW 2945   2.993   0.584   2.643 -0.0568  0.4609  0.1272
  737SOL    HW1 2946   2.930   0.592   2.567 -0.0957  4.3442 -0.4326
  737SOL    HW2 2947   3.077   0.564   2.599 -0.9411  1.3175  2.1410
  737SOL     MW 2948   2.996   0.582   2.627 -0.1786  1.0862  0.3191
  738SOL     OW 2949   0.139   0.425   1.865  0.3574  0.9735 -0.4136
  738SOL    HW1 2950   0.228   0.451   1.877 -0.4384 -1.5453  0.0535
  738SOL    HW2 2951   0.145   0.426   1.767  1.1698 -1.8824 -0.3283
  738SOL     MW 2952   0.151   0.428   1.854  0.3595  0.2644 -0.3407
  739SOL     OW 2953   2.501   0.958   2.113 -0.1888 -0.0397  0.6878
  739SOL    HW1 2954   2.436   0.926   2.051 -1.3814 -3.2049 -0.8027
  739SOL    HW2 2955   2.572   0.964   2.053 -0.2578  0.4187  0.5747
  739SOL     MW 2956   2.502   0.955   2.097 -0.3552 -0.3968  0.4762
  740SOL     OW 2957   0.192   1.809   2.938 -0.0083 -0.5825  0.2530
  740SOL    HW1 2958   0.181   1.722   2.966  3.3912  2.5863  0.8242
  740SOL    HW2 2959   0.273   1.828   2.996  0.9829  2.0051  1.5371
  740SOL     MW 2960   0.201   1.800   2.949  0.5710  0.1770  0.4978
  741SOL     OW 2961   2.302   1.185   2.708  0.2275  0.1492 -0.0251
  741SOL    HW1 2962   2.232   1.234   2.657 -0.7807  1.5236 -1.3083
  741SOL    HW2 2963   2.262   1.183   2.797  1.1941  0.1313 -1.2404
  741SOL     MW 2964   2.287   1.191   2.713  0.2220  0.3282 -0.3548
  742SOL     OW 2965   1.528   1.257   2.385  0.2659  0.7110  0.3956
  742SOL    HW1 2966   1.437   1.226   2.403 -2.2185  0.5782 -0.7964
  742SOL    HW2 2967   1.576   1.176   2.388 -1.0873  0.0487 -0.5013
  742SOL     MW 2968   1.522   1.243   2.388 -0.2404  0.6061  0.1200
  743SOL     OW 2969   2.564   1.234   2.688  0.0127  0.5930 -0.3151
  743SOL    HW1 2970   2.465   1.201   2.699 -1.2891  1.9253  2.9840
  743SOL    HW2 2971   2.624   1.180   2.743  0.3199  0.0420 -1.9671
  743SOL     MW 2972   2.559   1.222   2.697 -0.1185  0.6961 -0.0978
  744SOL     OW 2973   2.695   0.911   1.920  0.7060  0.3340 -0.7777
  744SOL    HW1 2974   2.666   1.004   1.900 -0.5876  0.7439 -0.7903
  744SOL    HW2 2975   2.659   0.869   1.844  0.3833 -0.4598 -0.8680
  744SOL     MW 2976   2.686   0.918   1.908  0.4928  0.2834 -0.7913
  745SOL     OW 2977   1.726   0.453   2.472 -0.1156 -0.4775 -0.3070
  745SOL    HW1 2978   1.713   0.470   2.379  1.0755  3.3590 -0.0182
  745SOL    HW2 2979   1.670   0.374   2.493 -0.3994 -2.0834 -0.9189
  745SOL     MW 2980   1.717   0.445   2.462  0.0041 -0.1832 -0.3496
  746SOL     OW 2981   1.611   1.555   1.680  0.2544  0.7736  0.3204
  746SOL    HW1 2982   1.662   1.631   1.709 -0.8006 -0.7883 -2.5743
  746SOL    HW2 2983   1.627   1.491   1.753  1.3662  2.5378  2.0689
  746SOL     MW 2984   1.620   1.556   1.694  0.2619  0.8003  0.1692
  747SOL     OW 2985   2.571   1.119   1.807 -0.8656  0.3987 -0.1076
  747SOL    HW1 2986   2.495   1.112   1.749 -1.1276  2.1600 -2.1927
  747SOL    HW2 2987   2.547   1.194   1.853 -0.7433 -0.0110 -2.8287
  747SOL     MW 2988   2.558   1.128   1.805 -0.8840  0.5770 -0.7418
  748SOL     OW 2989   0.070   0.129   1.851 -0.0875 -0.2101  0.0422
  748SOL    HW1 2990   0.152   0.093   1.881  2.3338 -2.2199 -2.6297
  748SOL    HW2 2991   0.084   0.222   1.857  1.3804 -1.2682 -0.2352
  748SOL     MW 2992   0.083   0.137   1.856  0.4257 -0.6149 -0.3469
  749SOL     OW 2993   2.561   0.604   2.789 -0.6082  0.6818 -0.3942
  749SOL    HW1 2994   2.582   0.685   2.736 -0.3916  2.0553  0.3552
  749SOL    HW2 2995   2.533   0.635   2.876 -0.8354 -0.0426 -2.1340
  749SOL     MW 2996   2.560   0.619   2.793 -0.6096  0.7675 -0.5249
  750SOL     OW 2997   2.070   3.093   1.941  0.7353 -0.1003  0.0891
  750SOL    HW1 2998   2.131   3.168   1.945  1.7246 -0.2343 -2.0103
  750SOL    HW2 2999   2.134   3.020   1.936  2.5438 -1.0876 -2.3439
  750SOL     MW 3000   2.087   3.093   1.941  1.1045 -0.2483 -0.5089
  751SOL     OW 3001   0.281   0.347   2.375 -0.4170 -0.4567 -0.3658
  751SOL    HW1 3002   0.234   0.274   2.424  1.0212  0.7049  2.3020
  751SOL    HW2 3003   0.247   0.330   2.283  0.7340 -1.0090 -2.0036
  751SOL     MW 3004   0.270   0.335   2.369 -0.0754 -0.3763 -0.2299
  752SOL     OW 3005   2.132   0.830   2.729 -0.1622  0.1524 -0.5721
  752SOL    HW1 3006   2.208   0.868   2.678  1.0305 -0.4380 -3.7328
  752SOL    HW2 3007   2.152   0.839   2.823 -0.1017  0.1488  1.1139
  752SOL     MW 3008   2.145   0.836   2.735  0.0031  0.0741 -0.7666
  753SOL     OW 3009   2.781   0.109   2.437 -0.5858  0.1789 -0.0677
  753SOL    HW1 3010   2.758   0.015   2.431  2.0344  1.4022 -0.2753
  753SOL    HW2 3011   2.762   0.146   2.351  1.3009 -0.5713  0.2397
  753SOL     MW 3012   2.776   0.102   2.425  0.0088  0.2413 -0.0545
  754SOL     OW 3013   2.282   2.947   2.635 -0.7707  0.2178  0.2531
  754SOL    HW1 3014   2.261   2.920   2.543  1.5554  1.0942 -0.0252
  754SOL    HW2 3015   2.363   2.901   2.650  0.2115  0.5787 -2.5242
  754SOL     MW 3016   2.290   2.937   2.625 -0.3342  0.3810 -0.1500
  755SOL     OW 3017   2.735   1.555   2.433 -0.3114  0.3139  0.1220
  755SOL    HW1 3018   2.751   1.474   2.481  1.8087 -0.8215  1.8344
  755SOL    HW2 3019   2.782   1.620   2.486 -0.7879 -1.6389 -1.9543
  755SOL     MW 3020   2.743   1.553   2.446 -0.0945 -0.0935  0.0740
  756SOL     OW 3021   2.197   1.196   2.964 -0.0713  0.2037 -0.6083
  756SOL    HW1 3022   2.278   1.252   2.950  1.3501 -1.0501 -2.0654
  756SOL    HW2 3023   2.234   1.116   3.004 -0.6446  0.8107 -0.2199
  756SOL     MW 3024   2.212   1.193   2.968  0.0406  0.1183 -0.7493
  757SOL     OW 3025   2.167   0.950   1.569 -0.1740  0.4208 -0.1447
  757SOL    HW1 3026   2.188   0.860   1.602 -0.4935  2.0051  2.2524
  757SOL    HW2 3027   2.075   0.947   1.527 -2.5552 -1.7119  0.2169
  757SOL     MW 3028   2.158   0.938   1.568 -0.5304  0.3484  0.2193
  758SOL     OW 3029   2.200   1.781   2.609 -0.5263 -0.8813 -0.1627
  758SOL    HW1 3030   2.200   1.834   2.527  0.4033  0.1132 -1.3900
  758SOL    HW2 3031   2.288   1.761   2.631 -1.7882 -0.6084 -1.2567
  758SOL     MW 3032   2.212   1.785   2.601 -0.5701 -0.7140 -0.4689
  759SOL     OW 3033   1.558   1.293   2.705 -0.1601 -1.1007 -0.4823
  759SOL    HW1 3034   1.550   1.341   2.620 -0.8380 -0.8229 -0.1583
  759SOL    HW2 3035   1.617   1.352   2.762  0.6233  1.1177 -1.6047
  759SOL     MW 3036   1.565   1.307   2.701 -0.1462 -0.7713 -0.5876
  760SOL     OW 3037   2.673   1.956   2.696  0.1489 -0.0187  0.1781
  760SOL    HW1 3038   2.632   1.867   2.667  0.8112 -0.9331  2.2246
  760SOL    HW2 3039   2.687   2.004   2.616  2.2285 -2.2380 -1.8283
  760SOL     MW 3040   2.669   1.951   2.682  0.5107 -0.4321  0.1834
  761SOL     OW 3041   2.217   0.370   2.538 -0.1491 -0.1986  0.1013
  761SOL    HW1 3042   2.150   0.326   2.588 -3.9950 -1.4571 -2.0759
  761SOL    HW2 3043   2.227   0.452   2.587  2.1309 -1.4904 -0.6821
  761SOL     MW 3044   2.210   0.375   2.551 -0.3557 -0.5351 -0.2893
  762SOL     OW 3045   3.077   0.272   2.139 -0.2834  0.5153 -0.4545
  762SOL    HW1 3046   3.101   0.197   2.198 -3.1503 -1.7203 -0.9150
  762SOL    HW2 3047   3.040   0.344   2.190 -1.1887  1.4805  0.2547
  762SOL     MW 3048   3.075   0.272   2.154 -0.7811  0.3477 -0.4216
  763SOL     OW 3049   2.375   1.026   2.335  0.1321 -0.2225  0.0928
  763SOL    HW1 3050   2.422   1.006   2.255 -2.2621  1.0383 -0.5086
  763SOL    HW2 3051   2.425   1.100   2.366 -2.7929 -1.2093  1.6335
  763SOL     MW 3052   2.388   1.033   2.328 -0.5697 -0.1863  0.2167
  764SOL     OW 3053   0.432   0.297   2.856 -0.7341  0.4311 -0.0890
  764SOL    HW1 3054   0.343   0.262   2.829 -1.0149  2.3870 -0.5401
  764SOL    HW2 3055   0.401   0.365   2.915  0.8876 -0.9503  1.1249
  764SOL     MW 3056   0.416   0.301   2.860 -0.5572  0.5069  0.0116
  765SOL     OW 3057   2.734   2.953   2.387  0.3259 -0.3549 -0.2345
  765SOL    HW1 3058   2.679   2.978   2.312 -0.1720 -1.2668 -2.1187
  765SOL    HW2 3059   2.822   2.931   2.356 -0.4032 -2.2224 -0.0946
  765SOL     MW 3060   2.738   2.954   2.373  0.1640 -0.7216 -0.4647
  766SOL     OW 3061   1.915   2.999   2.144 -0.4159 -0.0492 -0.0510
  766SOL    HW1 3062   1.957   3.039   2.067 -0.2177  2.0229 -1.5428
  766SOL    HW2 3063   1.856   2.937   2.111 -0.4258  0.1560 -2.7928
  766SOL     MW 3064   1.912   2.996   2.130 -0.3910  0.2512 -0.6095
  767SOL     OW 3065   2.657   0.602   2.076  0.2651  0.0104 -0.0706
  767SOL    HW1 3066   2.696   0.668   2.133  1.8466 -2.7712  0.6186
  767SOL    HW2 3067   2.586   0.642   2.022  0.1228 -1.5765 -0.4382
  767SOL     MW 3068   2.653   0.616   2.077  0.4550 -0.5660 -0.0282
  768SOL     OW 3069   2.979   1.556   2.956 -0.2703  0.2756 -0.0092
  768SOL    HW1 3070   2.999   1.547   3.053  1.3269  0.0411  1.4720
  768SOL    HW2 3071   3.049   1.513   2.917 -0.4724  1.7413  3.9791
  768SOL     MW 3072   2.991   1.549   2.963 -0.0862  0.4380  0.7125
  769SOL     OW 3073   2.526   0.631   2.432  0.6541 -0.3065  0.1109
  769SOL    HW1 3074   2.468   0.612   2.360  0.0213  3.1504  3.4212
  769SOL    HW2 3075   2.610   0.637   2.385  0.4791 -1.7630  2.1082
  769SOL     MW 3076   2.530   0.629   2.416  0.5475 -0.0426  0.8111
  770SOL     OW 3077   3.057   1.611   2.519  0.1424  0.0430 -0.4493
  770SOL    HW1 3078   2.972   1.660   2.524  1.0834 -1.1355  4.3598
  770SOL    HW2 3079   3.034   1.524   2.489 -1.5673 -3.4124  0.0847
  770SOL     MW 3080   3.043   1.606   2.515  0.0409 -0.5684  0.2557
  771SOL     OW 3081   3.067   0.619   1.961 -0.4462  0.2396 -0.7774
  771SOL    HW1 3082   3.027   0.657   1.887  0.3555  1.9197  0.3991
  771SOL    HW2 3083   3.105   0.547   1.914  1.2728  3.1675 -0.6967
  771SOL     MW 3084   3.067   0.614   1.945 -0.1136  0.8476 -0.6115
  772SOL     OW 3085   0.027   3.089   2.259 -0.1793 -0.3236 -0.5527
  772SOL    HW1 3086  -0.029   3.015   2.280 -0.8628 -1.5891  0.1192
  772SOL    HW2 3087   0.120   3.054   2.254  1.7785 -0.8780 -1.1642
  772SOL     MW 3088   0.032   3.075   2.261 -0.0111 -0.5637 -0.5448
  773SOL     OW 3089   2.503   2.795   2.743  0.0546 -0.1783 -0.5917
  773SOL    HW1 3090   2.489   2.736   2.667 -0.8834 -0.7347  1.5946
  773SOL    HW2 3091   2.477   2.751   2.825  2.8699  0.2549 -2.4296
  773SOL     MW 3092   2.497   2.782   2.744  0.3023 -0.1945 -0.5457
  774SOL     OW 3093   2.313   1.154   1.717  0.5776 -0.0040 -0.1127
  774SOL    HW1 3094   2.305   1.231   1.656  0.2038 -1.0889 -1.1774
  774SOL    HW2 3095   2.289   1.084   1.657  1.8208  1.9777 -1.2879
  774SOL     MW 3096   2.309   1.155   1.701  0.6923  0.1143 -0.4082
  775SOL     OW 3097   2.305   2.926   2.354  0.5492  0.1961 -0.3763
  775SOL    HW1 3098   2.329   3.013   2.325  0.0884 -1.2045 -1.5318
  775SOL    HW2 3099   2.366   2.870   2.315 -1.7975 -1.3807 -2.2277
  775SOL     MW 3100   2.316   2.930   2.345  0.1788 -0.1967 -0.7731
  776SOL     OW 3101   0.025   1.509   0.093 -0.0480 -0.7792 -0.1215
  776SOL    HW1 3102   0.120   1.486   0.070  2.0020 -1.4068 -1.2271
  776SOL    HW2 3103  -0.019   1.423   0.122  2.1316  1.4018  1.9773
  776SOL     MW 3104   0.032   1.494   0.094  0.5101 -0.5742  0.0095
  777SOL     OW 3105   2.960   0.996   1.789  0.0519  0.4526 -0.1553
  777SOL    HW1 3106   2.910   1.045   1.732  0.7232  0.5934  2.4403
  777SOL    HW2 3107   2.892   0.965   1.847  1.1122  4.7350 -0.8282
  777SOL     MW 3108   2.944   0.998   1.789  0.2804  1.0362  0.0984
  778SOL     OW 3109   2.905   0.368   2.794  0.3978 -0.0736 -0.3337
  778SOL    HW1 3110   2.845   0.388   2.866  0.4722 -2.1974  0.3825
  778SOL    HW2 3111   2.947   0.453   2.764  2.0001  2.9862  0.5853
  778SOL     MW 3112   2.902   0.382   2.799  0.6190  0.0499 -0.1180
  779SOL     OW 3113   2.094   0.516   2.315  0.2540 -0.1746 -0.0552
  779SOL    HW1 3114   2.034   0.579   2.357  0.3034  1.0033 -2.7481
  779SOL    HW2 3115   2.141   0.457   2.373 -1.9925 -3.2285 -2.7355
  779SOL     MW 3116   2.092   0.517   2.328 -0.0359 -0.4221 -0.7642
  780SOL     OW 3117   0.207   0.156   2.793  0.2072  0.3521  0.0893
  780SOL    HW1 3118   0.146   0.183   2.863 -1.8477  0.5756 -0.1406
  780SOL    HW2 3119   0.154   0.146   2.717  1.8406  1.7373  0.8537
  780SOL     MW 3120   0.192   0.158   2.792  0.1516  0.5643  0.1598
  781SOL     OW 3121   3.053   1.338   2.368  0.6737 -0.1994  0.0715
  781SOL    HW1 3122   3.041   1.402   2.298  0.3606 -0.7257  3.1387
  781SOL    HW2 3123   3.139   1.304   2.354 -2.4176  1.0777 -3.2655
  781SOL     MW 3124   3.063   1.342   2.357  0.2245 -0.1003  0.0359
  782SOL     OW 3125   0.554   1.518   3.074 -0.5604  0.0709  0.1843
  782SOL    HW1 3126   0.499   1.592   3.045 -0.6908 -0.9963  1.9738
  782SOL    HW2 3127   0.545   1.505   3.169  0.3842  0.3679 -2.7249
  782SOL     MW 3128   0.545   1.526   3.083 -0.4530 -0.0307  0.0366
  783SOL     OW 3129   2.810   0.585   2.454 -0.7976  0.0098  0.5349
  783SOL    HW1 3130   2.852   0.552   2.372  0.9693  2.7143 -1.7289
  783SOL    HW2 3131   2.765   0.500   2.476  1.6424 -1.4799 -1.0040
  783SOL     MW 3132   2.809   0.570   2.446 -0.2425  0.1701  0.0332
  784SOL     OW 3133   0.212   0.916   2.861  0.0151 -0.0753 -0.4351
  784SOL    HW1 3134   0.233   0.992   2.919  0.8317 -1.5758 -1.5789
  784SOL    HW2 3135   0.211   0.953   2.777 -1.2595 -3.7932  1.1601
  784SOL     MW 3136   0.214   0.931   2.857 -0.0454 -0.7638 -0.3755
  785SOL     OW 3137   0.350   0.549   2.127  0.5114  0.2556  0.0004
  785SOL    HW1 3138   0.357   0.560   2.031 -2.0645  0.8267 -1.3151
  785SOL    HW2 3139   0.298   0.473   2.118  3.2315 -0.0446  0.2745
  785SOL     MW 3140   0.344   0.540   2.113  0.5304  0.2913 -0.1370
  786SOL     OW 3141   2.038   0.462   2.825  0.3431 -0.2716 -0.1982
  786SOL    HW1 3142   2.069   0.427   2.907  1.0726 -1.3922 -0.1285
  786SOL    HW2 3143   2.128   0.509   2.799  1.2837  0.7839  1.6996
  786SOL     MW 3144   2.054   0.464   2.832  0.5635 -0.2802  0.0614
  787SOL     OW 3145   2.479   0.147   2.899  0.4375 -0.2661 -0.4776
  787SOL    HW1 3146   2.530   0.159   2.816  1.0478 -0.0741 -1.0510
  787SOL    HW2 3147   2.477   0.234   2.946  1.0070  0.2295  0.3267
  787SOL     MW 3148   2.485   0.160   2.894  0.5932 -0.1754 -0.4471
  788SOL     OW 3149   2.975   2.877   2.296  0.2253 -0.0217  0.1383
  788SOL    HW1 3150   2.955   2.807   2.233 -0.5066  0.0355  1.1245
  788SOL    HW2 3151   3.027   2.844   2.365 -1.3684 -2.1588 -0.8056
  788SOL     MW 3152   2.980   2.863   2.297 -0.0815 -0.2961  0.1439
  789SOL     OW 3153   0.075   0.281   3.033  0.4292 -0.1615 -0.2231
  789SOL    HW1 3154  -0.013   0.246   3.037  0.3235 -1.3644 -0.5954
  789SOL    HW2 3155   0.109   0.276   3.118 -0.1704  0.9304 -0.0235
  789SOL     MW 3156   0.068   0.276   3.045  0.3361 -0.1761 -0.2459
  790SOL     OW 3157   0.033   1.024   2.454  0.3608 -0.3218  0.4643
  790SOL    HW1 3158  -0.020   0.977   2.523  0.5401 -2.0753 -0.4040
  790SOL    HW2 3159  -0.030   1.051   2.391  0.2784  2.1138  1.4752
  790SOL     MW 3160   0.018   1.022   2.454  0.3735 -0.2318  0.4831
  791SOL     OW 3161   2.690   0.416   2.642 -0.4229  0.7007  0.5189
  791SOL    HW1 3162   2.638   0.482   2.693  0.4122 -1.8327  1.0058
  791SOL    HW2 3163   2.769   0.402   2.693 -2.3924 -1.9100 -0.5386
  791SOL     MW 3164   2.694   0.423   2.655 -0.5726  0.0220  0.4436
  792SOL     OW 3165   2.452   0.265   2.370  0.6662 -0.0188  0.6190
  792SOL    HW1 3166   2.370   0.300   2.413  1.4714 -0.2771 -2.2059
  792SOL    HW2 3167   2.498   0.222   2.442  3.9432 -0.3533 -0.4078
  792SOL     MW 3168   2.447   0.264   2.385  1.2048 -0.0970  0.1108
  793SOL     OW 3169   1.755   1.011   1.878  0.4456  0.2276 -0.6395
  793SOL    HW1 3170   1.716   1.069   1.805  0.1729  2.3945  0.2825
  793SOL    HW2 3171   1.852   1.032   1.879 -1.5717 -1.1029  0.8156
  793SOL     MW 3172   1.763   1.022   1.868  0.1435  0.3380 -0.3258
  794SOL     OW 3173   1.420   2.302   0.155 -0.1532 -0.1633 -0.2327
  794SOL    HW1 3174   1.418   2.351   0.068 -0.4683  1.7758  1.8590
  794SOL    HW2 3175   1.474   2.352   0.219 -0.6360  0.3852  1.2937
  794SOL     MW 3176   1.427   2.315   0.152 -0.2585  0.1649  0.2447
  795SOL     OW 3177   2.345   0.933   2.584 -0.2341 -0.1871  0.0824
  795SOL    HW1 3178   2.333   1.013   2.633 -0.5825 -1.9394  3.1354
  795SOL    HW2 3179   2.349   0.971   2.493  0.2576  1.5465  1.1701
  795SOL     MW 3180   2.344   0.948   2.578 -0.2152 -0.1895  0.6287
  796SOL     OW 3181   0.282   0.663   2.772 -0.5925  0.4102 -0.0382
  796SOL    HW1 3182   0.253   0.748   2.803 -0.1883  0.2036 -2.3504
  796SOL    HW2 3183   0.237   0.635   2.690  2.2481  0.1162 -1.0221
  796SOL     MW 3184   0.272   0.670   2.765 -0.1644  0.3442 -0.4731
  797SOL     OW 3185   2.583   0.161   2.607 -0.3095 -0.2171 -0.0892
  797SOL    HW1 3186   2.608   0.252   2.623  3.4379  1.9968  1.3676
  797SOL    HW2 3187   2.646   0.140   2.533 -0.2807 -1.5681  0.6627
  797SOL     MW 3188   2.595   0.170   2.599  0.1887 -0.1033  0.2022
  798SOL     OW 3189   2.339   0.065   2.225 -0.3943 -0.1855 -0.0383
  798SOL    HW1 3190   2.375   0.131   2.290 -0.6171  0.8293 -0.3447
  798SOL    HW2 3191   2.422   0.029   2.189 -0.6865 -1.2906  0.6973
  798SOL     MW 3192   2.355   0.069   2.229 -0.4622 -0.1974  0.0183
  799SOL     OW 3193   2.526   2.882   0.195 -0.2314 -0.3530  0.3860
  799SOL    HW1 3194   2.573   2.852   0.117  0.6392 -0.0764  0.0579
  799SOL    HW2 3195   2.446   2.927   0.162 -0.1102  1.2448 -0.7247
  799SOL     MW 3196   2.522   2.884   0.181 -0.1006 -0.1057  0.1962
  800SOL     OW 3197   1.903   3.086   1.726 -0.4834 -0.3073  0.3337
  800SOL    HW1 3198   1.839   3.012   1.734 -2.7381  1.5114 -1.7817
  800SOL    HW2 3199   1.965   3.085   1.797  0.5226  0.9766 -0.6609
  800SOL     MW 3200   1.903   3.076   1.737 -0.6482  0.1021 -0.0767
  801SOL     OW 3201   2.845   1.318   2.562  0.2616 -0.5801 -0.3257
  801SOL    HW1 3202   2.824   1.230   2.591 -0.4433  0.3725 -1.2627
  801SOL    HW2 3203   2.924   1.306   2.505 -0.6213 -0.5831 -1.9006
  801SOL     MW 3204   2.853   1.305   2.558  0.0521 -0.4548 -0.6571
  802SOL     OW 3205   2.569   1.513   2.756 -0.1050 -0.1084  0.0201
  802SOL    HW1 3206   2.613   1.427   2.740 -0.0268 -0.5713  1.2463
  802SOL    HW2 3207   2.655   1.568   2.764  2.3204  0.3146 -1.9097
  802SOL     MW 3208   2.586   1.509   2.755  0.2253 -0.1137 -0.0728
  803SOL     OW 3209   2.248   1.330   1.964  0.5372 -0.0263  0.3971
  803SOL    HW1 3210   2.214   1.291   2.052  0.2374  0.9043  1.2266
  803SOL    HW2 3211   2.263   1.259   1.901 -0.3256  1.9448 -1.5393
  803SOL     MW 3212   2.245   1.315   1.967  0.3838  0.3565  0.2510
  804SOL     OW 3213   2.370   3.083   0.052 -0.0303  0.4387 -0.0896
  804SOL    HW1 3214   2.301   3.158   0.044 -0.8723 -0.8872  1.6778
  804SOL    HW2 3215   2.441   3.106  -0.006  1.1557 -0.4196  1.7025
  804SOL     MW 3216   2.371   3.096   0.044  0.0151  0.1505  0.3801
  805SOL     OW 3217   2.801   1.035   2.631 -0.5065 -0.3144  0.4127
  805SOL    HW1 3218   2.728   0.970   2.614 -2.6544  0.5369 -0.7444
  805SOL    HW2 3219   2.881   0.979   2.620  0.9642  0.4093 -1.8105
  805SOL     MW 3220   2.802   1.019   2.628 -0.5958 -0.1066 -0.0333
  806SOL     OW 3221   2.655   0.329   2.190  0.4035 -0.1759  0.1284
  806SOL    HW1 3222   2.569   0.325   2.240 -1.0876  0.3376  0.9537
  806SOL    HW2 3223   2.664   0.415   2.154 -0.3322  2.3722 -0.8181
  806SOL     MW 3224   2.645   0.340   2.192  0.1097  0.2281  0.1124
  807SOL     OW 3225   0.061   1.096   2.123 -0.2327 -0.7803 -0.2405
  807SOL    HW1 3226   0.080   1.031   2.056  2.3060 -0.7322 -0.1796
  807SOL    HW2 3227  -0.005   1.059   2.181 -1.7278 -2.3462 -0.2802
  807SOL     MW 3228   0.055   1.083   2.122 -0.0950 -0.9805 -0.2377
  808SOL     OW 3229   2.652   3.049   2.763  0.0957 -0.7287 -0.6662
  808SOL    HW1 3230   2.591   2.976   2.760 -0.7952  0.0424 -1.4740
  808SOL    HW2 3231   2.618   3.118   2.704  1.5059  0.5924 -2.9637
  808SOL     MW 3232   2.640   3.049   2.755  0.1642 -0.4527 -1.0759
  809SOL     OW 3233   2.542   1.239   2.410  0.3882  0.1433  0.3089
  809SOL    HW1 3234   2.580   1.243   2.493  3.1064  1.2858 -0.7835
  809SOL    HW2 3235   2.614   1.222   2.351  0.7741  2.4688 -1.9133
  809SOL     MW 3236   2.556   1.237   2.413  0.7978  0.6009 -0.1284
  810SOL     OW 3237   2.206   1.242   2.249 -0.4077  0.0006  0.2472
  810SOL    HW1 3238   2.269   1.165   2.263  1.7048 -0.1432  2.2247
  810SOL    HW2 3239   2.122   1.215   2.290 -0.4658  0.0871 -0.5059
  810SOL     MW 3240   2.203   1.228   2.256 -0.1366 -0.0069  0.4088
  811SOL     OW 3241   1.486   0.060   2.243  0.1820 -0.0171  0.5458
  811SOL    HW1 3242   1.573   0.020   2.253 -0.7117 -1.6568  0.5107
  811SOL    HW2 3243   1.479   0.049   2.154 -0.5499  0.6675  1.2768
  811SOL     MW 3244   1.497   0.053   2.232 -0.0325 -0.1431  0.6376
  812SOL     OW 3245   1.483   2.745   2.104  0.1680 -0.3755  0.1748
  812SOL    HW1 3246   1.572   2.758   2.076  0.5827 -1.3639 -0.2484
  812SOL    HW2 3247   1.487   2.713   2.193  1.6234 -0.0826  0.1838
  812SOL     MW 3248   1.496   2.742   2.112  0.4148 -0.4672  0.1202
  813SOL     OW 3249   1.853   0.707   2.141  0.1813  0.8611  0.1569
  813SOL    HW1 3250   1.794   0.631   2.143 -0.6249 -1.1450  0.8019
  813SOL    HW2 3251   1.884   0.691   2.232 -3.2570  0.9576  1.4298
  813SOL     MW 3252   1.849   0.695   2.153 -0.3787  0.6092  0.4100
  814SOL     OW 3253   2.810   1.172   1.641  0.2042  0.0705  0.8287
  814SOL    HW1 3254   2.732   1.128   1.678 -1.8082  0.7978  1.7348
  814SOL    HW2 3255   2.822   1.152   1.550 -1.5988  1.7857  2.0662
  814SOL     MW 3256   2.802   1.164   1.633 -0.2992  0.3928  1.1116
  815SOL     OW 3257   2.495   1.671   2.365 -0.4944  0.3655 -0.2746
  815SOL    HW1 3258   2.434   1.596   2.368  3.9765  1.0449 -1.0347
  815SOL    HW2 3259   2.578   1.617   2.366  0.8387 -2.7562  1.6265
  815SOL     MW 3260   2.498   1.654   2.366  0.2714  0.0433 -0.1241
  816SOL     OW 3261   0.687   0.717   2.757  0.4776  0.7630  0.6992
  816SOL    HW1 3262   0.719   0.652   2.819  1.7803  0.6618  2.3389
  816SOL    HW2 3263   0.651   0.668   2.675  3.8619 -0.1006 -0.7572
  816SOL     MW 3264   0.686   0.702   2.754  1.0960  0.6357  0.7234
  817SOL     OW 3265  -0.000   1.185   1.333  0.4522  0.0118  0.0990
  817SOL    HW1 3266   0.055   1.173   1.407 -0.3628  2.5021 -1.7073
  817SOL    HW2 3267  -0.002   1.281   1.329  1.3620  2.6378  0.3465
  817SOL     MW 3268   0.007   1.196   1.342  0.4647  0.6869 -0.1067
  818SOL     OW 3269   1.914   1.023   2.668  0.1478  0.0657 -0.0719
  818SOL    HW1 3270   1.948   1.077   2.592 -0.7610  0.9910 -2.3703
  818SOL    HW2 3271   1.989   0.972   2.702  1.2005 -0.5751 -0.2157
  818SOL     MW 3272   1.928   1.024   2.662  0.1667  0.1033 -0.3941
  819SOL     OW 3273   1.966   0.183   2.331  0.2106 -0.0877 -0.0513
  819SOL    HW1 3274   2.030   0.127   2.283  3.6786 -1.5644 -0.1893
  819SOL    HW2 3275   2.001   0.203   2.420 -0.5693 -2.8364 -0.5860
  819SOL     MW 3276   1.979   0.178   2.336  0.5653 -0.6452 -0.1400
  820SOL     OW 3277   2.475   1.743   2.633 -0.0293 -0.0959 -0.0271
  820SOL    HW1 3278   2.502   1.655   2.666  1.2357  1.4726  1.0871
  820SOL    HW2 3279   2.487   1.736   2.539 -1.4501 -1.4242  0.5507
  820SOL     MW 3280   2.480   1.730   2.625 -0.0499 -0.0642  0.1962
  821SOL     OW 3281   2.524   1.328   2.006  0.0154 -0.3481 -0.1433
  821SOL    HW1 3282   2.548   1.407   1.961  0.6743 -0.2886  0.1236
  821SOL    HW2 3283   2.424   1.335   2.014 -0.8029  0.4465  1.0208
  821SOL     MW 3284   2.514   1.339   2.002 -0.0056 -0.2354  0.0455
  822SOL     OW 3285   2.902   2.624   1.433 -0.2130  0.1284 -0.1757
  822SOL    HW1 3286   2.817   2.648   1.392  1.2298  0.5506  0.7290
  822SOL    HW2 3287   2.951   2.702   1.452 -3.3530 -1.3132  0.0741
  822SOL     MW 3288   2.897   2.637   1.430 -0.4370 -0.0061 -0.0233
  823SOL     OW 3289   2.364   0.482   1.818  0.1545 -0.4121  0.5453
  823SOL    HW1 3290   2.448   0.444   1.785 -0.7721 -2.2300 -2.0119
  823SOL    HW2 3291   2.300   0.406   1.804 -1.5292 -0.5521  0.8946
  823SOL     MW 3292   2.367   0.467   1.812 -0.1899 -0.6704  0.2540
  824SOL     OW 3293   2.128   1.358   2.564  0.8732  0.4684 -0.3969
  824SOL    HW1 3294   2.192   1.394   2.502  0.8119 -1.8121  4.1121
  824SOL    HW2 3295   2.074   1.425   2.605 -1.2280 -1.9597 -0.0846
  824SOL     MW 3296   2.129   1.372   2.561  0.5879 -0.1529  0.2392
  825SOL     OW 3297   2.087   2.320   0.366 -0.3297  0.2445 -0.1216
  825SOL    HW1 3298   2.134   2.339   0.289 -1.4175 -0.2036 -0.5889
  825SOL    HW2 3299   2.153   2.299   0.427  0.4036  2.4810 -1.8780
  825SOL     MW 3300   2.102   2.319   0.364 -0.3765  0.4805 -0.4150
  826SOL     OW 3301   1.815   2.447   0.454  1.0760 -0.1573  0.1179
  826SOL    HW1 3302   1.813   2.377   0.516  0.1590 -0.0689 -0.0169
  826SOL    HW2 3303   1.904   2.471   0.457  1.2257  1.1900  0.9618
  826SOL     MW 3304   1.826   2.441   0.463  0.9747  0.0321  0.2114
  827SOL     OW 3305   1.884   2.240   0.899 -0.5446  0.0505  0.2554
  827SOL    HW1 3306   1.858   2.249   0.807 -0.8580 -0.0897  0.9981
  827SOL    HW2 3307   1.820   2.170   0.928  0.3768 -1.5400  2.2139
  827SOL     MW 3308   1.872   2.232   0.891 -0.4644 -0.1779  0.6118
  828SOL     OW 3309   0.057   2.670   0.517 -0.1630  0.3852  0.0945
  828SOL    HW1 3310   0.109   2.726   0.578  1.0986  0.4043  0.7567
  828SOL    HW2 3311   0.073   2.705   0.431  1.2884 -0.2551  1.7332
  828SOL     MW 3312   0.066   2.682   0.513  0.1949  0.3033  0.3981
  829SOL     OW 3313   2.937   2.892   1.144 -0.5980  0.4961 -0.5424
  829SOL    HW1 3314   2.843   2.902   1.113  0.4633 -0.0085  1.6508
  829SOL    HW2 3315   2.974   2.813   1.096 -0.1527 -0.7184 -0.2883
  829SOL     MW 3316   2.930   2.883   1.134 -0.3992  0.2693 -0.2195
  830SOL     OW 3317   2.519   2.864   2.012 -0.4084  0.6422  0.1834
  830SOL    HW1 3318   2.432   2.893   1.966  0.7071  2.6965 -0.3483
  830SOL    HW2 3319   2.568   2.822   1.939  1.6295 -0.1349  0.1404
  830SOL     MW 3320   2.514   2.862   1.996  0.0076  0.8107  0.1076
  831SOL     OW 3321   2.446   2.405   1.185 -0.3389 -0.7644 -0.4985
  831SOL    HW1 3322   2.438   2.333   1.254  3.3691 -3.5294  2.5416
  831SOL    HW2 3323   2.533   2.401   1.141  2.2206  1.3501  2.0660
  831SOL     MW 3324   2.456   2.395   1.188  0.4880 -0.8502  0.2410
  832SOL     OW 3325   2.403   2.138   1.888 -0.0161 -0.4972 -0.1626
  832SOL    HW1 3326   2.424   2.229   1.920 -0.4113  0.9332 -0.4968
  832SOL    HW2 3327   2.489   2.111   1.862  1.4408 -0.4796 -3.2980
  832SOL     MW 3328   2.417   2.146   1.889  0.1240 -0.3062 -0.6204
  833SOL     OW 3329   1.619   2.497   0.835  0.0833  0.1068  0.5169
  833SOL    HW1 3330   1.591   2.447   0.913 -1.1368  1.5402 -1.4584
  833SOL    HW2 3331   1.563   2.575   0.833  1.0576 -0.1653  2.3577
  833SOL     MW 3332   1.608   2.501   0.845  0.0509  0.2600  0.4991
  834SOL     OW 3333   2.229   2.421   0.620  0.3462  0.4566  0.3622
  834SOL    HW1 3334   2.188   2.338   0.651  2.0000 -1.0445 -3.3753
  834SOL    HW2 3335   2.322   2.428   0.658 -3.0132 -0.8536 -0.6376
  834SOL     MW 3336   2.236   2.411   0.629  0.1212  0.0857 -0.2628
  835SOL     OW 3337   1.865   2.628   0.703  0.7888 -0.0892  0.1075
  835SOL    HW1 3338   1.803   2.571   0.752 -2.3026 -2.9833  2.3931
  835SOL    HW2 3339   1.947   2.602   0.733  0.9226  3.9538  0.9417
  835SOL     MW 3340   1.868   2.617   0.713  0.3986  0.0624  0.5191
  836SOL     OW 3341   2.071   2.069   1.816  0.0271  0.4712  0.5234
  836SOL    HW1 3342   2.129   2.000   1.850 -0.8177 -0.2854 -0.2263
  836SOL    HW2 3343   2.109   2.157   1.825 -1.3052  2.3419 -0.8904
  836SOL     MW 3344   2.084   2.071   1.822 -0.2601  0.6182  0.2379
  837SOL     OW 3345   2.080   0.188   0.650  0.2824 -0.2416 -0.9417
  837SOL    HW1 3346   2.011   0.201   0.586 -0.5344 -0.6138  0.2360
  837SOL    HW2 3347   2.139   0.135   0.597  0.7191  1.6038  0.8088
  837SOL     MW 3348   2.079   0.183   0.635  0.2322 -0.0472 -0.5553
  838SOL     OW 3349   2.938   2.055   0.951 -0.7332  0.2422  0.3720
  838SOL    HW1 3350   2.859   2.004   0.921 -0.0169 -0.5262  2.7304
  838SOL    HW2 3351   2.962   2.012   1.034 -1.3115 -0.7765  0.0169
  838SOL     MW 3352   2.931   2.043   0.958 -0.7150  0.0064  0.6363
  839SOL     OW 3353   1.529   2.452   1.089  0.6999  0.3074  0.0908
  839SOL    HW1 3354   1.486   2.534   1.130  2.4865 -1.4335  1.1476
  839SOL    HW2 3355   1.526   2.376   1.148  1.4916 -3.1736  2.7797
  839SOL     MW 3356   1.523   2.452   1.102  1.0401 -0.3816  0.5850
  840SOL     OW 3357   2.364   2.098   2.325 -0.0689  0.0515 -0.0452
  840SOL    HW1 3358   2.297   2.165   2.295 -2.3693  0.2438 -0.2905
  840SOL    HW2 3359   2.412   2.136   2.401  1.1076 -2.7360 -0.7675
  840SOL     MW 3360   2.361   2.112   2.331 -0.2172 -0.2909 -0.1729
  841SOL     OW 3361   2.230   2.333   0.104 -0.7598 -0.1832 -0.2559
  841SOL    HW1 3362   2.233   2.401   0.036  0.3306  1.0268 -1.2847
  841SOL    HW2 3363   2.155   2.276   0.079 -1.0727  0.7429  0.0939
  841SOL     MW 3364   2.220   2.335   0.092 -0.6572  0.0986 -0.3455
  842SOL     OW 3365   2.682   1.968   1.495  0.5265  0.2570  0.4046
  842SOL    HW1 3366   2.627   1.888   1.476  3.3647 -0.9935 -0.7181
  842SOL    HW2 3367   2.679   2.014   1.413  0.2242 -0.0295 -0.1911
  842SOL     MW 3368   2.674   1.963   1.481  0.8611  0.0542  0.1779
  843SOL     OW 3369   2.714   2.749   1.818  0.8122 -0.0769  0.1109
  843SOL    HW1 3370   2.798   2.729   1.858  1.9607 -1.3768  0.1330
  843SOL    HW2 3371   2.682   2.673   1.763  2.2284  1.8665  0.0710
  843SOL     MW 3372   2.721   2.736   1.816  1.1506  0.0080  0.1086
  844SOL     OW 3373   2.699   2.363   1.124 -0.0513 -0.2130  0.1477
  844SOL    HW1 3374   2.720   2.408   1.038  1.9170  1.1144  0.3315
  844SOL    HW2 3375   2.774   2.375   1.175 -1.0463 -1.9876  1.2871
  844SOL     MW 3376   2.711   2.371   1.119  0.0771 -0.2720  0.3223
  845SOL     OW 3377   2.816   2.616   0.256 -0.0953  0.0864 -0.9824
  845SOL    HW1 3378   2.831   2.528   0.301  3.2533 -1.6889  1.2484
  845SOL    HW2 3379   2.857   2.686   0.309  0.0337  1.4475  0.7058
  845SOL     MW 3380   2.824   2.613   0.269  0.3635  0.0318 -0.4653
  846SOL     OW 3381   1.465   2.740   0.782  0.3450  0.4880 -0.2278
  846SOL    HW1 3382   1.522   2.814   0.764  0.8970  0.1094  0.0667
  846SOL    HW2 3383   1.376   2.775   0.759  0.4905 -0.8546  1.4698
  846SOL     MW 3384   1.461   2.754   0.776  0.4370  0.2609  0.0350
  847SOL     OW 3385   2.428   1.827   0.232  0.1839  0.0413  0.0051
  847SOL    HW1 3386   2.401   1.738   0.247 -1.6820 -2.6311 -2.5916
  847SOL    HW2 3387   2.373   1.860   0.159 -3.2499  1.1167 -2.3247
  847SOL     MW 3388   2.417   1.820   0.224 -0.5153 -0.1694 -0.6449
  848SOL     OW 3389   2.722   2.105   1.230 -0.3578 -0.0255 -0.2945
  848SOL    HW1 3390   2.711   2.202   1.214  0.1348  2.3352 -1.3876
  848SOL    HW2 3391   2.815   2.093   1.238 -0.3542 -0.0623  4.1125
  848SOL     MW 3392   2.733   2.116   1.229 -0.2923  0.2811  0.1428
  849SOL     OW 3393   1.863   2.854   0.835  0.0515  0.4732 -0.1353
  849SOL    HW1 3394   1.849   2.814   0.923 -2.1539 -1.0530  1.5862
  849SOL    HW2 3395   1.883   2.766   0.787 -1.3145 -0.1007 -0.6825
  849SOL     MW 3396   1.864   2.837   0.840 -0.4197  0.1961  0.0197
  850SOL     OW 3397   2.326   1.924   1.614  0.1139 -0.3754  0.4527
  850SOL    HW1 3398   2.248   1.904   1.555 -0.8245 -0.7345  1.3429
  850SOL    HW2 3399   2.325   2.023   1.616  0.1549  0.7186 -2.5677
  850SOL     MW 3400   2.315   1.934   1.606 -0.0045 -0.2784  0.1716
  851SOL     OW 3401   2.591   2.236   0.380 -0.5650 -0.1933 -0.2995
  851SOL    HW1 3402   2.559   2.214   0.294 -3.0580 -0.5851  0.7292
  851SOL    HW2 3403   2.525   2.302   0.404 -1.6217  1.5629  1.3836
  851SOL     MW 3404   2.578   2.242   0.372 -1.0333 -0.0133  0.0583
  852SOL     OW 3405   2.346   2.050   0.393  0.3793  0.3005  0.3114
  852SOL    HW1 3406   2.413   2.110   0.366 -0.0049  1.0310 -0.6208
  852SOL    HW2 3407   2.366   1.963   0.346  0.0525 -0.4561  1.6702
  852SOL     MW 3408   2.358   2.046   0.383  0.2855  0.2970  0.3677
  853SOL     OW 3409   2.510   2.386   1.923 -0.2230  0.3098  0.4581
  853SOL    HW1 3410   2.534   2.419   1.835  3.5857 -0.2793 -0.2172
  853SOL    HW2 3411   2.591   2.400   1.972 -0.3251  0.1213  1.7868
  853SOL     MW 3412   2.524   2.392   1.918  0.2661  0.2072  0.5443
  854SOL     OW 3413   2.882   2.283   0.744  0.3146  0.1816 -0.0052
  854SOL    HW1 3414   2.815   2.221   0.704  1.4975 -0.9917  0.2741
  854SOL    HW2 3415   2.922   2.231   0.818 -0.7336  1.5421 -0.4936
  854SOL     MW 3416   2.878   2.268   0.748  0.3324  0.2063 -0.0328
  855SOL     OW 3417   2.820   2.382   0.412  0.0455 -0.2075  0.2767
  855SOL    HW1 3418   2.734   2.348   0.383 -0.0661  0.7280 -0.7821
  855SOL    HW2 3419   2.875   2.305   0.400  0.2438  0.9500 -1.6945
  855SOL     MW 3420   2.816   2.367   0.406  0.0569  0.0686 -0.1231
  856SOL     OW 3421   2.058   1.835   0.250 -0.0011 -0.3266 -0.4219
  856SOL    HW1 3422   1.962   1.826   0.254  1.7178  1.4361  2.4915
  856SOL    HW2 3423   2.068   1.928   0.271 -1.2677 -1.4927  1.9806
  856SOL     MW 3424   2.046   1.846   0.253  0.0586 -0.2479  0.2795
  857SOL     OW 3425   2.474   1.967   0.596 -0.7284  0.4429  0.1676
  857SOL    HW1 3426   2.432   1.999   0.517  0.9205  2.4152 -0.3012
  857SOL    HW2 3427   2.402   1.959   0.657 -0.7100 -3.1712  3.2398
  857SOL     MW 3428   2.459   1.970   0.594 -0.5084  0.2263  0.5111
  858SOL     OW 3429   2.976   2.679   1.917 -0.0422 -0.1852  0.5162
  858SOL    HW1 3430   3.033   2.757   1.903  1.1700  0.3447 -1.3921
  858SOL    HW2 3431   3.010   2.615   1.852  0.4910  2.0338 -0.2792
  858SOL     MW 3432   2.988   2.681   1.907  0.1881  0.1775  0.1595
  859SOL     OW 3433   1.777   2.654   1.044 -0.0382  0.2476  0.6636
  859SOL    HW1 3434   1.703   2.606   1.007 -2.3339  0.0443 -2.0543
  859SOL    HW2 3435   1.844   2.585   1.048 -0.3847 -3.3461 -1.5282
  859SOL     MW 3436   1.776   2.639   1.040 -0.3868 -0.2534  0.0158
  860SOL     OW 3437   2.649   2.552   0.045  0.0286  0.2139 -0.3376
  860SOL    HW1 3438   2.663   2.577   0.136 -1.5812  1.4168 -1.8054
  860SOL    HW2 3439   2.676   2.618  -0.020 -1.8447 -1.0344  1.2474
  860SOL     MW 3440   2.654   2.564   0.048 -0.4310  0.2079 -0.3221
  861SOL     OW 3441   1.567   2.195   1.168 -0.3736  0.2119 -0.3116
  861SOL    HW1 3442   1.595   2.228   1.258  1.3699 -1.1587  0.8583
  861SOL    HW2 3443   1.498   2.134   1.194 -0.4640  0.7737 -1.8469
  861SOL     MW 3444   1.562   2.191   1.183 -0.1555  0.1052 -0.3598
  862SOL     OW 3445   2.506   1.768   1.453  0.6406  0.0878 -0.3448
  862SOL    HW1 3446   2.423   1.800   1.499 -1.0956 -0.5924 -1.1367
  862SOL    HW2 3447   2.481   1.780   1.359 -0.7321 -3.5119 -1.0360
  862SOL     MW 3448   2.492   1.774   1.447  0.2304 -0.4769 -0.5405
  863SOL     OW 3449   2.886   1.633   0.971 -0.0794  0.5593 -0.1512
  863SOL    HW1 3450   2.835   1.678   1.035  1.6466 -1.6638  1.0282
  863SOL    HW2 3451   2.829   1.621   0.894  0.7467  2.5618  0.3753
  863SOL     MW 3452   2.872   1.637   0.970  0.2573  0.5302  0.0739
  864SOL     OW 3453   3.057   1.777   0.789 -0.3220 -0.4321 -0.0727
  864SOL    HW1 3454   3.012   1.732   0.858  0.3275  1.5228  0.8354
  864SOL    HW2 3455   2.997   1.792   0.714 -0.0128  3.3434  1.6415
  864SOL     MW 3456   3.043   1.773   0.788 -0.1955  0.3240  0.2732
  865SOL     OW 3457   2.457   2.168   0.110 -0.9989  0.2789  0.0042
  865SOL    HW1 3458   2.434   2.086   0.068 -0.4349 -1.2651 -0.5707
  865SOL    HW2 3459   2.391   2.237   0.090 -2.3569  2.1823 -1.8616
  865SOL     MW 3460   2.445   2.166   0.101 -1.1037  0.3263 -0.3178
  866SOL     OW 3461   2.718   2.328   1.529 -0.0478  0.2097  0.3776
  866SOL    HW1 3462   2.694   2.244   1.561 -0.0807 -0.9843  2.5184
  866SOL    HW2 3463   2.780   2.328   1.450  0.5679 -0.1390 -2.4918
  866SOL     MW 3464   2.723   2.317   1.523  0.0291  0.0061  0.2815
  867SOL     OW 3465   0.128   2.715   1.696 -0.5922  0.6837 -0.1715
  867SOL    HW1 3466   0.125   2.786   1.756 -2.0811 -2.2744  0.4521
  867SOL    HW2 3467   0.048   2.731   1.650 -1.4992 -1.3432 -1.4319
  867SOL     MW 3468   0.117   2.726   1.698 -0.9083  0.0260 -0.2556
  868SOL     OW 3469   2.738   2.586   0.562 -0.3401 -0.3162  0.1042
  868SOL    HW1 3470   2.766   2.508   0.514  1.3857 -1.3915 -1.4451
  868SOL    HW2 3471   2.678   2.636   0.512 -0.4650 -1.2701  0.1527
  868SOL     MW 3472   2.734   2.582   0.549 -0.1289 -0.5840 -0.0938
  869SOL     OW 3473   1.953   2.465   1.061  0.5009 -0.7513  0.7715
  869SOL    HW1 3474   2.023   2.481   0.997 -1.0968  1.2251 -2.7254
  869SOL    HW2 3475   1.919   2.381   1.029 -4.0011  0.5546  1.7153
  869SOL     MW 3476   1.958   2.456   1.048 -0.3039 -0.3182  0.4347
  870SOL     OW 3477   2.173   3.095   0.461  0.1783 -0.9299 -0.0892
  870SOL    HW1 3478   2.240   3.147   0.421  1.1779  2.6459 -0.0621
  870SOL    HW2 3479   2.206   3.009   0.485 -1.0054  1.3825  0.5695
  870SOL     MW 3480   2.186   3.090   0.459  0.1540 -0.1530  0.0012
  871SOL     OW 3481   2.475   2.058   0.913  0.6379  0.1736 -0.0997
  871SOL    HW1 3482   2.398   2.002   0.882  1.2789  0.8995  0.8941
  871SOL    HW2 3483   2.450   2.146   0.952  1.0985 -1.5730  0.5447
  871SOL     MW 3484   2.461   2.062   0.914  0.7833  0.0389  0.1165
  872SOL     OW 3485   2.107   2.477   1.617 -0.2894  0.3593  0.0769
  872SOL    HW1 3486   2.047   2.548   1.641 -1.3436 -1.2457 -0.0031
  872SOL    HW2 3487   2.064   2.419   1.553 -1.1670 -2.0710  1.2979
  872SOL     MW 3488   2.093   2.479   1.612 -0.5443 -0.1731  0.2275
  873SOL     OW 3489   2.875   2.107   1.832 -0.1646 -0.4172  0.0560
  873SOL    HW1 3490   2.866   2.159   1.913 -0.7468  0.9096  0.0764
  873SOL    HW2 3491   2.960   2.132   1.803  0.3444 -0.5860  1.0613
  873SOL     MW 3492   2.885   2.117   1.839 -0.1742 -0.2644  0.1914
  874SOL     OW 3493   2.344   1.435   2.381  0.0380  0.5969  0.3700
  874SOL    HW1 3494   2.288   1.368   2.323  1.8416  0.3842 -0.3925
  874SOL    HW2 3495   2.414   1.377   2.414 -2.5767  2.9102  0.9340
  874SOL     MW 3496   2.346   1.418   2.377 -0.0690  0.8741  0.3438
  875SOL     OW 3497   2.326   2.287   0.993 -0.2380 -0.0406 -0.0200
  875SOL    HW1 3498   2.343   2.347   0.919 -2.0289 -1.1467 -0.5110
  875SOL    HW2 3499   2.369   2.336   1.062  0.2278 -1.2459 -0.2259
  875SOL     MW 3500   2.334   2.302   0.992 -0.4128 -0.3456 -0.1120
  876SOL     OW 3501   0.046   2.190   1.287 -0.1216 -0.1955 -0.0187
  876SOL    HW1 3502   0.071   2.253   1.218  5.0336  1.4936  1.1593
  876SOL    HW2 3503   0.078   2.240   1.365 -1.1636 -1.6334  0.5125
  876SOL     MW 3504   0.054   2.205   1.288  0.4211 -0.1624  0.2068
  877SOL     OW 3505   0.077   2.803   0.268  0.4140 -0.1080 -0.4153
  877SOL    HW1 3506   0.163   2.839   0.250 -2.3621  0.9432  3.2145
  877SOL    HW2 3507   0.061   2.733   0.203  3.2597  0.9990  0.7751
  877SOL     MW 3508   0.087   2.798   0.257  0.4232  0.1767  0.2207
  878SOL     OW 3509   2.261   1.750   1.153  0.2097  0.0537  0.5567
  878SOL    HW1 3510   2.212   1.702   1.224  1.9221  1.8982  1.3173
  878SOL    HW2 3511   2.321   1.683   1.144 -1.2668  0.4986 -0.3546
  878SOL     MW 3512   2.263   1.735   1.162  0.2408  0.3558  0.5368
  879SOL     OW 3513   2.690   2.460   0.868 -0.2662  0.0254  0.0443
  879SOL    HW1 3514   2.775   2.510   0.884 -0.9922  0.8526 -0.3923
  879SOL    HW2 3515   2.718   2.384   0.817 -2.0308  0.5822 -1.4068
  879SOL     MW 3516   2.705   2.457   0.863 -0.5948  0.2080 -0.2048
  880SOL     OW 3517   2.629   2.178   0.698  0.4654 -0.2804 -0.5819
  880SOL    HW1 3518   2.557   2.130   0.734 -2.5070 -1.4764 -0.2861
  880SOL    HW2 3519   2.613   2.202   0.608 -0.5579  0.0750  3.0024
  880SOL     MW 3520   2.617   2.175   0.691 -0.0618 -0.3913 -0.0699
  881SOL     OW 3521   2.948   2.684   0.704 -0.4844 -0.4969  0.6665
  881SOL    HW1 3522   2.873   2.654   0.655 -0.4530 -0.1737  2.9037
  881SOL    HW2 3523   3.026   2.668   0.647  1.4800 -1.0284 -2.6308
  881SOL     MW 3524   2.949   2.678   0.690 -0.2211 -0.5244  0.5266
  882SOL     OW 3525   2.271   2.903   1.900  0.5755  0.1900 -0.0205
  882SOL    HW1 3526   2.268   2.881   1.807 -1.5938 -1.2634 -0.2290
  882SOL    HW2 3527   2.214   2.837   1.930  0.6834 -1.4184  0.3672
  882SOL     MW 3528   2.263   2.891   1.891  0.3035 -0.2140  0.0032
  883SOL     OW 3529   2.424   2.181   1.334 -0.3658  0.1829  0.1973
  883SOL    HW1 3530   2.508   2.148   1.308  1.1122  1.0106  1.0336
  883SOL    HW2 3531   2.352   2.139   1.282  1.3690 -2.7852 -0.8297
  883SOL     MW 3532   2.426   2.171   1.324  0.0581 -0.0995  0.1721
  884SOL     OW 3533   1.889   1.834   1.031  0.1680 -0.1161 -0.5794
  884SOL    HW1 3534   1.827   1.915   1.008 -1.4708  1.9768  1.0954
  884SOL    HW2 3535   1.975   1.878   1.044  0.4920  0.7429 -0.8927
  884SOL     MW 3536   1.892   1.851   1.030 -0.0055  0.2734 -0.3998
  885SOL     OW 3537   2.908   2.462   1.722  0.0691 -0.1128  0.1789
  885SOL    HW1 3538   2.978   2.401   1.722 -1.2392  1.7661  0.7858
  885SOL    HW2 3539   2.851   2.434   1.651 -0.6535 -0.1531 -0.6906
  885SOL     MW 3540   2.909   2.450   1.712 -0.1989  0.1298  0.1443
  886SOL     OW 3541   2.909   2.369   1.315  0.5091 -0.2546  0.8644
  886SOL    HW1 3542   2.986   2.312   1.329  0.9201  0.0232  1.2541
  886SOL    HW2 3543   2.934   2.453   1.358  2.8897 -1.4119 -2.5855
  886SOL     MW 3544   2.923   2.373   1.322  0.8774 -0.3706  0.4606
  887SOL     OW 3545   2.332   2.594   1.557  0.3661 -0.7382 -0.1812
  887SOL    HW1 3546   2.348   2.612   1.463  1.0300 -0.1910  1.1210
  887SOL    HW2 3547   2.256   2.538   1.565  0.6582  1.0695 -0.7128
  887SOL     MW 3548   2.324   2.589   1.546  0.4923 -0.4275 -0.0795
  888SOL     OW 3549   2.062   2.255   1.462 -0.1059  0.6055  0.3199
  888SOL    HW1 3550   2.095   2.220   1.381  0.3638  0.9221 -0.8521
  888SOL    HW2 3551   2.127   2.240   1.524  1.5897  1.1910 -1.7757
  888SOL     MW 3552   2.075   2.249   1.459  0.1798  0.7245 -0.1113
  889SOL     OW 3553   2.299   1.934   2.059 -0.0041  0.3145 -0.4352
  889SOL    HW1 3554   2.372   1.906   2.112 -0.0468  1.5006 -0.9787
  889SOL    HW2 3555   2.336   2.016   2.019  0.0653 -0.9911 -1.6353
  889SOL     MW 3556   2.313   1.941   2.061 -0.0006  0.2987 -0.6653
  890SOL     OW 3557   0.048   2.354   0.103  0.0850  0.0358 -0.3779
  890SOL    HW1 3558   0.004   2.439   0.115 -0.9394  0.4700 -2.5261
  890SOL    HW2 3559   0.069   2.328   0.193  0.8785  2.0351  1.2313
  890SOL     MW 3560   0.045   2.362   0.116  0.0545  0.3568 -0.4490
  891SOL     OW 3561   3.002   1.965   1.210  0.1054  0.1811  0.1222
  891SOL    HW1 3562   3.065   1.896   1.179  1.3017  0.5126  1.3484
  891SOL    HW2 3563   3.053   2.048   1.234 -0.5608 -1.1278 -0.6352
  891SOL     MW 3564   3.017   1.967   1.209  0.1753  0.0521  0.1841
  892SOL     OW 3565   2.424   2.343   2.754 -0.1135  0.2068  0.1846
  892SOL    HW1 3566   2.417   2.244   2.779  0.3034 -1.2054  2.3044
  892SOL    HW2 3567   2.519   2.350   2.760 -1.6646 -0.9609  2.1819
  892SOL     MW 3568   2.436   2.331   2.758 -0.2631 -0.1336  0.7278
  893SOL     OW 3569   1.636   2.352   1.378 -0.0149  0.4654  0.1613
  893SOL    HW1 3570   1.561   2.404   1.410 -1.4451  3.0651 -0.3377
  893SOL    HW2 3571   1.723   2.372   1.414  1.6719 -2.3804 -1.4229
  893SOL     MW 3572   1.637   2.361   1.387  0.0189  0.4329 -0.1136
  894SOL     OW 3573   2.795   1.979   0.534 -0.0354  0.4172  0.2977
  894SOL    HW1 3574   2.724   2.012   0.598 -1.0894  0.9020 -0.8601
  894SOL    HW2 3575   2.745   1.925   0.471  1.0922 -0.6652 -1.5816
  894SOL     MW 3576   2.779   1.976   0.534 -0.0257  0.3384 -0.1030
  895SOL     OW 3577   2.175   2.171   1.210 -0.2768  0.0138  0.5278
  895SOL    HW1 3578   2.194   2.239   1.148 -2.9049 -2.7626  0.2617
  895SOL    HW2 3579   2.182   2.090   1.151 -0.0328 -0.3478  0.5047
  895SOL     MW 3580   2.178   2.170   1.194 -0.5913 -0.4002  0.4897
  896SOL     OW 3581   2.355   2.816   1.078  0.1538  0.5433  0.3601
  896SOL    HW1 3582   2.350   2.733   1.132 -2.8150 -0.7957 -0.5369
  896SOL    HW2 3583   2.344   2.884   1.143  1.2550 -2.0036  0.7931
  896SOL     MW 3584   2.353   2.814   1.094 -0.0926  0.0306  0.2989
  897SOL     OW 3585   0.011   3.050   3.015 -0.2865 -0.3535 -0.1697
  897SOL    HW1 3586   0.049   2.959   3.008 -1.2065  1.7607 -0.1991
  897SOL    HW2 3587  -0.029   3.059   2.927  2.7404 -2.0708  1.4275
  897SOL     MW 3588   0.010   3.039   3.003 -0.0085 -0.3011  0.0371
  898SOL     OW 3589   2.136   0.167   1.428 -0.1226  0.1658 -0.4601
  898SOL    HW1 3590   2.126   0.068   1.444  0.9159 -0.7394 -2.0360
  898SOL    HW2 3591   2.129   0.174   1.330  0.6327 -2.5108  0.3215
  898SOL     MW 3592   2.133   0.155   1.417  0.1141 -0.3068 -0.5649
  899SOL     OW 3593   2.981   2.955   0.632 -0.9721  0.1625  0.0676
  899SOL    HW1 3594   2.960   2.868   0.671  0.5322  2.5304  0.0292
  899SOL    HW2 3595   2.915   3.018   0.645  2.9250 -0.2662 -2.5589
  899SOL     MW 3596   2.970   2.952   0.639 -0.2595  0.4184 -0.2840
  900SOL     OW 3597   0.139   2.389   1.088 -0.3847  0.1268 -0.8841
  900SOL    HW1 3598   0.093   2.471   1.063 -1.2366  0.7032 -1.1902
  900SOL    HW2 3599   0.131   2.336   1.005 -1.7535  0.6496 -2.3910
  900SOL     MW 3600   0.132   2.393   1.074 -0.6777  0.2718 -1.1233
  901SOL     OW 3601   1.766   2.863   1.762 -0.0896  0.3910  0.0327
  901SOL    HW1 3602   1.809   2.787   1.725  3.8629 -2.3422 -0.0561
  901SOL    HW2 3603   1.671   2.830   1.774 -0.8805 -1.6730 -1.2988
  901SOL     MW 3604   1.759   2.849   1.759  0.3275 -0.2419 -0.1547
  902SOL     OW 3605   2.631   2.099   1.708  0.0894  0.7401 -0.1550
  902SOL    HW1 3606   2.644   2.032   1.634  3.4296 -2.8448  0.3054
  902SOL    HW2 3607   2.719   2.098   1.751 -0.7048 -0.8178  2.8829
  902SOL     MW 3608   2.645   2.090   1.704  0.4253  0.0615  0.3065
  903SOL     OW 3609   1.574   2.642   0.536  0.4023 -0.5673 -0.3620
  903SOL    HW1 3610   1.662   2.606   0.532  1.4765  1.6760  2.7251
  903SOL    HW2 3611   1.566   2.699   0.614  1.9212  2.2238  2.5179
  903SOL     MW 3612   1.584   2.645   0.546  0.7445  0.0969  0.4253
  904SOL     OW 3613   2.577   2.530   1.684  0.7051 -0.2659  0.1673
  904SOL    HW1 3614   2.508   2.564   1.630 -0.7640  1.2491 -0.0838
  904SOL    HW2 3615   2.619   2.463   1.631 -1.5847 -2.0838  1.0730
  904SOL     MW 3616   2.573   2.525   1.670  0.2092 -0.3059  0.2537
  905SOL     OW 3617   2.329   2.517   2.061 -0.2527 -0.1319 -0.1885
  905SOL    HW1 3618   2.402   2.475   2.012  0.2065  0.4851 -0.7952
  905SOL    HW2 3619   2.297   2.456   2.130 -0.1806 -1.0483 -0.2500
  905SOL     MW 3620   2.334   2.503   2.064 -0.1826 -0.1714 -0.2767
  906SOL     OW 3621   2.420   2.467   0.817  0.6931  0.7100 -0.4633
  906SOL    HW1 3622   2.518   2.453   0.823  1.7045  2.0207  3.3015
  906SOL    HW2 3623   2.423   2.563   0.813 -0.2641 -1.3516 -0.8239
  906SOL     MW 3624   2.434   2.478   0.817  0.7003  0.6110 -0.0142
  907SOL     OW 3625   2.651   2.752   1.314 -0.2443 -0.1137  0.1965
  907SOL    HW1 3626   2.703   2.821   1.351 -2.9244 -3.4784 -0.4077
  907SOL    HW2 3627   2.653   2.758   1.218 -2.2269 -1.2200 -3.0823
  907SOL     MW 3628   2.658   2.762   1.306 -0.8595 -0.7036 -0.3158
  908SOL     OW 3629   2.680   2.292   3.068 -0.2777 -0.2811  0.1885
  908SOL    HW1 3630   2.605   2.253   3.090  2.0494  2.3629 -2.5490
  908SOL    HW2 3631   2.665   2.388   3.099 -0.9481 -0.7616 -0.8914
  908SOL     MW 3632   2.668   2.299   3.075 -0.0591  0.0044 -0.3151
  909SOL     OW 3633   1.710   0.096   1.333 -0.4354 -0.0537  0.8670
  909SOL    HW1 3634   1.709   0.189   1.319  2.0828 -0.3129  0.1489
  909SOL    HW2 3635   1.649   0.086   1.405  2.4921  0.8902 -0.1216
  909SOL     MW 3636   1.702   0.107   1.341  0.2831  0.0366  0.6418
  910SOL     OW 3637   2.157   1.657   0.462  0.1846  0.4729 -0.3910
  910SOL    HW1 3638   2.104   1.576   0.472 -1.0347 -0.7121 -0.4750
  910SOL    HW2 3639   2.120   1.702   0.385  2.8541  0.2725  2.0479
  910SOL     MW 3640   2.145   1.652   0.453  0.3760  0.2901 -0.0803
  911SOL     OW 3641   2.327   2.190   1.613 -1.3012  0.4799  0.4272
  911SOL    HW1 3642   2.391   2.197   1.685  0.6540 -3.2877  1.4182
  911SOL    HW2 3643   2.368   2.194   1.533 -1.5281  0.3838 -0.3141
  911SOL     MW 3644   2.341   2.191   1.612 -1.0732 -0.0298  0.4601
  912SOL     OW 3645   2.935   1.866   1.455  0.4018  0.5712  0.1773
  912SOL    HW1 3646   2.971   1.896   1.364  0.2818  2.2733 -0.6985
  912SOL    HW2 3647   2.840   1.897   1.457 -0.7311 -2.2240  0.3906
  912SOL     MW 3648   2.927   1.874   1.443  0.2365  0.4270  0.0899
  913SOL     OW 3649   2.704   3.074   0.351  0.2375 -0.6990  0.6402
  913SOL    HW1 3650   2.785   3.030   0.323  1.0151 -1.2536 -0.6069
  913SOL    HW2 3651   2.636   3.020   0.319 -1.3109  0.6800  2.4014
  913SOL     MW 3652   2.705   3.061   0.343  0.1358 -0.5903  0.7081
  914SOL     OW 3653   2.643   1.788   3.081 -0.0550  0.0241  0.5198
  914SOL    HW1 3654   2.706   1.856   3.052 -3.5519  0.7890 -2.2047
  914SOL    HW2 3655   2.559   1.831   3.097 -0.9846  2.7826  0.4471
  914SOL     MW 3656   2.640   1.803   3.079 -0.6390  0.4890  0.1508
  915SOL     OW 3657   1.813   0.096   0.182 -0.1755  0.7373 -0.1782
  915SOL    HW1 3658   1.877   0.037   0.234 -1.6674 -3.6869  1.3844
  915SOL    HW2 3659   1.727   0.052   0.184  0.3744 -1.5303 -0.4517
  915SOL     MW 3660   1.810   0.082   0.189 -0.2998 -0.1456 -0.0081
  916SOL     OW 3661   1.786   2.080   1.975 -0.0586 -0.6488  0.0964
  916SOL    HW1 3662   1.822   2.169   1.954 -0.9240 -0.0022  3.3079
  916SOL    HW2 3663   1.811   2.027   1.903 -0.0452  2.2347 -1.3233
  916SOL     MW 3664   1.794   2.085   1.963 -0.1710 -0.1830  0.3328
  917SOL     OW 3665   2.501   2.203   2.529 -0.2620 -0.1952  0.1127
  917SOL    HW1 3666   2.478   2.268   2.601 -0.7426  0.7589  2.0530
  917SOL    HW2 3667   2.580   2.237   2.486  0.7149  3.0784 -3.7191
  917SOL     MW 3668   2.509   2.216   2.533 -0.1965  0.3626 -0.1369
  918SOL     OW 3669   2.022   1.590   2.675  0.0845  0.0076 -0.2366
  918SOL    HW1 3670   1.949   1.609   2.614 -0.2339 -1.6775  0.0773
  918SOL    HW2 3671   2.080   1.663   2.659 -0.9694 -2.3452  0.9270
  918SOL     MW 3672   2.020   1.602   2.665 -0.0965 -0.5252 -0.0416
  919SOL     OW 3673   3.047   2.382   2.229 -0.2823 -0.5167 -0.4716
  919SOL    HW1 3674   2.969   2.330   2.223 -1.2223 -1.0075 -0.8125
  919SOL    HW2 3675   3.095   2.373   2.145  2.5548 -1.6256 -0.6432
  919SOL     MW 3676   3.043   2.374   2.217 -0.0320 -0.7278 -0.5392
  920SOL     OW 3677   2.619   2.868   3.039  0.6022 -0.4829  0.0638
  920SOL    HW1 3678   2.558   2.801   3.012  0.4161  1.5017  0.1519
  920SOL    HW2 3679   2.700   2.856   2.987  1.6304 -1.8419  1.1149
  920SOL     MW 3680   2.622   2.857   3.029  0.7133 -0.4004  0.2141
  921SOL     OW 3681   2.396   2.596   2.564 -0.1926  0.1241 -0.4331
  921SOL    HW1 3682   2.478   2.593   2.511  0.4449 -3.6462 -1.1272
  921SOL    HW2 3683   2.414   2.547   2.641  1.8869  0.9917  0.2957
  921SOL     MW 3684   2.409   2.589   2.567  0.1659 -0.2589 -0.4286
  922SOL     OW 3685   2.129   2.653   0.427  0.4849 -0.2042  0.0420
  922SOL    HW1 3686   2.132   2.667   0.333 -0.1517  1.1280  1.2923
  922SOL    HW2 3687   2.152   2.565   0.449 -0.3133 -2.1567  5.3449
  922SOL     MW 3688   2.133   2.643   0.418  0.2956 -0.2860  0.9066
  923SOL     OW 3689   2.194   2.811   1.646 -0.5172 -0.1632  0.0377
  923SOL    HW1 3690   2.257   2.745   1.603  0.2632  0.6654  1.8572
  923SOL    HW2 3691   2.154   2.867   1.579 -2.9152 -3.3627  0.7939
  923SOL     MW 3692   2.197   2.809   1.632 -0.7306 -0.4760  0.3775
  924SOL     OW 3693   1.084   2.722   2.610 -0.0316  0.2559  0.1118
  924SOL    HW1 3694   1.182   2.730   2.610  0.6163 -0.5547  1.7707
  924SOL    HW2 3695   1.062   2.655   2.677  1.3208 -1.9289  2.5253
  924SOL     MW 3696   1.094   2.714   2.619  0.2323 -0.1393  0.6491
  925SOL     OW 3697   2.953   0.154   2.633  0.1326  0.4758  0.1306
  925SOL    HW1 3698   2.893   0.150   2.557 -1.1998  1.9627 -1.6165
  925SOL    HW2 3699   2.928   0.231   2.685  1.9693 -1.2325 -0.1424
  925SOL     MW 3700   2.941   0.164   2.630  0.1992  0.4466 -0.1359
  926SOL     OW 3701   2.788   2.420   1.983 -0.0777  0.2805  0.4821
  926SOL    HW1 3702   2.816   2.506   2.031  0.5941  1.8250  1.8235
  926SOL    HW2 3703   2.823   2.432   1.895  1.6475  1.7783  1.1154
  926SOL     MW 3704   2.796   2.433   1.978  0.2386  0.6819  0.7426
  927SOL     OW 3705   2.370   0.121   0.305  0.1306  0.1410  0.1841
  927SOL    HW1 3706   2.453   0.120   0.355  0.7315 -1.7607 -1.3031
  927SOL    HW2 3707   2.384   0.074   0.226  1.2261  0.5190  1.0944
  927SOL     MW 3708   2.383   0.115   0.301  0.3544 -0.0600  0.1080
  928SOL     OW 3709   2.167   2.351   1.853 -0.2903  0.4781 -0.5291
  928SOL    HW1 3710   2.144   2.399   1.774 -1.8990  2.0620  0.9457
  928SOL    HW2 3711   2.244   2.396   1.886 -1.3330 -4.2607  4.5015
  928SOL     MW 3712   2.174   2.363   1.847 -0.6401  0.0618  0.3292
  929SOL     OW 3713   2.693   2.359   2.430 -0.3434 -0.3746  0.3028
  929SOL    HW1 3714   2.702   2.308   2.349  1.9693  1.4581 -1.3126
  929SOL    HW2 3715   2.775   2.348   2.483  2.1475  2.1728  0.9139
  929SOL     MW 3716   2.705   2.351   2.426  0.2904  0.2033  0.1703
  930SOL     OW 3717   2.047   2.819   2.689 -0.2194  0.0587 -0.4693
  930SOL    HW1 3718   2.055   2.740   2.743  0.6619  2.9779  1.3102
  930SOL    HW2 3719   2.138   2.849   2.682 -0.1510  1.2902 -0.3601
  930SOL     MW 3720   2.060   2.812   2.696 -0.0941  0.6064 -0.2201
  931SOL     OW 3721   0.031   2.730   2.483  0.1142 -0.5707  0.3129
  931SOL    HW1 3722   0.005   2.805   2.536 -1.9113  0.1146  2.1863
  931SOL    HW2 3723   0.119   2.754   2.460 -0.6518 -2.0416  0.7133
  931SOL     MW 3724   0.039   2.743   2.487 -0.2541 -0.6744  0.6129
  932SOL     OW 3725   2.773   2.014   2.450  1.0863 -0.1746 -0.3856
  932SOL    HW1 3726   2.858   2.054   2.462 -0.8950 -0.1977  0.2301
  932SOL    HW2 3727   2.765   2.002   2.355 -0.8625 -1.0439 -0.9021
  932SOL     MW 3728   2.783   2.018   2.439  0.5677 -0.2923 -0.3725
  933SOL     OW 3729   2.084   2.802   2.252 -0.3985  0.2817  0.1799
  933SOL    HW1 3730   2.149   2.859   2.296  0.7536 -0.3716  2.5640
  933SOL    HW2 3731   2.014   2.862   2.222  4.0563  1.4240 -0.3741
  933SOL     MW 3732   2.084   2.817   2.254  0.3413  0.3462  0.4214
  934SOL     OW 3733   1.991   2.659   2.466 -0.0313  0.0174  0.2958
  934SOL    HW1 3734   1.998   2.713   2.541  0.8425  3.0580  0.6962
  934SOL    HW2 3735   2.043   2.695   2.397 -3.4316 -0.9915 -0.3549
  934SOL     MW 3736   1.999   2.671   2.467 -0.3647  0.2854  0.2628
  935SOL     OW 3737   2.664   1.532   1.821  0.2856 -0.1807 -0.1316
  935SOL    HW1 3738   2.745   1.487   1.796 -0.4978  0.0540 -1.4176
  935SOL    HW2 3739   2.606   1.518   1.746  0.2602  1.5128  1.6374
  935SOL     MW 3740   2.667   1.524   1.808  0.1789  0.0737 -0.0679
  936SOL     OW 3741   2.926   2.202   0.014  0.3201 -0.5343 -0.5126
  936SOL    HW1 3742   2.989   2.256   0.065 -3.7754  0.7835 -4.5903
  936SOL    HW2 3743   2.844   2.253   0.006 -2.2338 -0.4741 -1.8218
  936SOL     MW 3744   2.924   2.216   0.020 -0.5572 -0.3525 -1.2233
  937SOL     OW 3745   1.945   2.116   2.627 -0.8006 -0.0449 -0.2229
  937SOL    HW1 3746   2.031   2.116   2.673 -0.4098 -0.1467 -0.9865
  937SOL    HW2 3747   1.967   2.112   2.533  1.4578 -1.3863 -1.3410
  937SOL     MW 3748   1.960   2.115   2.620 -0.4511 -0.2353 -0.4711
  938SOL     OW 3749   2.214   1.812   1.839 -0.1618 -0.3502  0.2655
  938SOL    HW1 3750   2.244   1.856   1.764  0.7533 -1.2958  0.3342
  938SOL    HW2 3751   2.269   1.834   1.918 -0.7823 -3.4056 -3.2811
  938SOL     MW 3752   2.225   1.821   1.840 -0.1229 -0.8781 -0.1934
  939SOL     OW 3753   2.755   2.001   2.091 -0.2284  0.4746 -0.6343
  939SOL    HW1 3754   2.811   1.941   2.038  1.0844  2.5262 -1.0801
  939SOL    HW2 3755   2.679   1.951   2.113  0.7608 -0.4985 -0.7419
  939SOL     MW 3756   2.752   1.987   2.087  0.0754  0.6169 -0.7073
  940SOL     OW 3757   2.208   0.085   2.781  0.1769 -0.2377 -0.1858
  940SOL    HW1 3758   2.258   0.030   2.717  0.8829  1.6477  3.4662
  940SOL    HW2 3759   2.284   0.122   2.823 -0.8550 -0.7043  0.6003
  940SOL     MW 3760   2.225   0.083   2.778  0.1339 -0.0505  0.3997
  941SOL     OW 3761   0.090   2.407   2.011  0.0129 -0.9278 -0.1539
  941SOL    HW1 3762   0.178   2.365   2.026 -1.0535  0.4836 -1.9831
  941SOL    HW2 3763   0.099   2.433   1.917  0.1754  2.6319 -2.1586
  941SOL     MW 3764   0.103   2.405   2.001 -0.1064 -0.2719 -0.6597
  942SOL     OW 3765   2.817   2.241   2.181  0.6254 -0.3930 -0.5338
  942SOL    HW1 3766   2.787   2.292   2.100  0.9935 -0.9849  3.5284
  942SOL    HW2 3767   2.805   2.145   2.149  1.1351  1.0984  2.2889
  942SOL     MW 3768   2.811   2.235   2.166  0.7412 -0.2743  0.3746
  943SOL     OW 3769   0.351   2.200   2.270  0.0821 -0.0678  0.0374
  943SOL    HW1 3770   0.273   2.207   2.325 -1.2943 -0.9592  1.0566
  943SOL    HW2 3771   0.414   2.161   2.330 -0.4662  0.1472  0.0413
  943SOL     MW 3772   0.349   2.196   2.286 -0.1719 -0.1570  0.1724
  944SOL     OW 3773   2.121   2.664   1.983 -0.3134  0.0727  0.3803
  944SOL    HW1 3774   2.198   2.618   2.016  1.3341 -2.7206 -0.5025
  944SOL    HW2 3775   2.079   2.700   2.062 -0.4779 -1.4104 -2.3712
  944SOL     MW 3776   2.126   2.663   1.998 -0.1177 -0.4915 -0.0992
  945SOL     OW 3777   2.745   2.670   2.876 -0.0167 -0.1815 -0.1951
  945SOL    HW1 3778   2.698   2.574   2.869 -0.9341 -2.3225 -0.5020
  945SOL    HW2 3779   2.729   2.709   2.787 -0.3712 -0.6059 -0.6039
  945SOL     MW 3780   2.737   2.663   2.863 -0.1845 -0.5200 -0.2895
  946SOL     OW 3781   2.472   2.698   2.215  0.0647 -0.1794 -0.4229
  946SOL    HW1 3782   2.490   2.753   2.132 -2.3458 -1.4020  3.5350
  946SOL    HW2 3783   2.407   2.629   2.179  0.6092  1.2418  0.9013
  946SOL     MW 3784   2.466   2.696   2.199 -0.1815 -0.1532  0.2740
  947SOL     OW 3785   2.032   3.057   0.225  0.2772  0.2159  1.0863
  947SOL    HW1 3786   2.029   2.964   0.191  4.5508  1.2709  2.2557
  947SOL    HW2 3787   2.079   3.066   0.310  2.2321 -1.8201  0.5033
  947SOL     MW 3788   2.038   3.046   0.232  1.0990  0.0865  1.1637
  948SOL     OW 3789   1.832   3.024   2.625  0.3671 -0.1222  0.2879
  948SOL    HW1 3790   1.874   2.939   2.639 -0.0762  0.2295 -0.8772
  948SOL    HW2 3791   1.795   3.036   2.536 -0.6105 -0.2977 -0.1142
  948SOL     MW 3792   1.833   3.015   2.615  0.1797 -0.0990  0.0812
  949SOL     OW 3793   2.537   1.884   2.207  0.2125 -0.2296  0.4363
  949SOL    HW1 3794   2.524   1.800   2.256 -0.2373  0.1442  0.4994
  949SOL    HW2 3795   2.502   1.952   2.264  0.5721 -0.8420  0.8781
  949SOL     MW 3796   2.531   1.882   2.221  0.2006 -0.2611  0.5029
  950SOL     OW 3797   2.256   2.440   2.956 -0.1770  0.1811  0.1204
  950SOL    HW1 3798   2.315   2.396   2.896  0.5724 -0.2683  0.7723
  950SOL    HW2 3799   2.172   2.462   2.910 -0.6324  0.4286 -1.2005
  950SOL     MW 3800   2.253   2.437   2.942 -0.1382  0.1545  0.0322
  951SOL     OW 3801   3.043   2.216   2.851  0.2404 -0.3249 -0.1766
  951SOL    HW1 3802   2.989   2.207   2.925  0.1663 -0.8782  0.4599
  951SOL    HW2 3803   3.119   2.261   2.884 -3.4181  1.9284 -1.1078
  951SOL     MW 3804   3.046   2.221   2.865 -0.2521 -0.1006 -0.2155
  952SOL     OW 3805   3.078   1.705   2.102  0.2829 -0.4327 -0.5017
  952SOL    HW1 3806   3.034   1.745   2.022  1.5673  0.4127 -1.6847
  952SOL    HW2 3807   3.129   1.775   2.146 -2.0534 -0.7711  2.3501
  952SOL     MW 3808   3.079   1.720   2.098  0.1441 -0.3658 -0.2816
  953SOL     OW 3809   1.876   1.762   2.838 -0.4588  0.0206  0.3895
  953SOL    HW1 3810   1.827   1.723   2.909  2.0869 -1.4049 -1.3557
  953SOL    HW2 3811   1.937   1.692   2.808 -2.6401 -2.1809 -2.2306
  953SOL     MW 3812   1.878   1.748   2.843 -0.4107 -0.4579 -0.1865
  954SOL     OW 3813   2.428   2.081   2.801  0.4421 -0.3704 -0.2312
  954SOL    HW1 3814   2.336   2.053   2.796  0.7436 -1.6132 -1.4488
  954SOL    HW2 3815   2.488   2.023   2.749  1.5723  1.7359  1.5149
  954SOL     MW 3816   2.424   2.070   2.793  0.6310 -0.2565 -0.1615
  955SOL     OW 3817   1.498   1.552   2.562 -0.1274 -0.1302 -0.2182
  955SOL    HW1 3818   1.504   1.546   2.472  2.7457  2.7391 -0.4703
  955SOL    HW2 3819   1.590   1.564   2.584 -1.6287 -0.0675 -3.4666
  955SOL     MW 3820   1.511   1.552   2.553  0.0536  0.2566 -0.6801
  956SOL     OW 3821   2.685   2.408   2.824 -0.1671  0.4990  0.1897
  956SOL    HW1 3822   2.686   2.345   2.901  3.5118  1.4882  0.6284
  956SOL    HW2 3823   2.763   2.382   2.773 -2.1010 -1.1895 -0.1067
  956SOL     MW 3824   2.695   2.396   2.827  0.0631  0.4068  0.2084
  957SOL     OW 3825   2.280   2.849   0.523 -0.0814  0.7902 -0.0996
  957SOL    HW1 3826   2.225   2.784   0.471 -2.0597 -1.3084  2.9543
  957SOL    HW2 3827   2.260   2.834   0.614 -0.3890 -0.1674  3.1488
  957SOL     MW 3828   2.270   2.839   0.528 -0.3830  0.3869  0.7319
  958SOL     OW 3829   2.046   2.600   2.842 -0.2135 -0.4582 -0.0166
  958SOL    HW1 3830   2.017   2.528   2.789 -1.6243  1.3299  3.6923
  958SOL    HW2 3831   1.991   2.590   2.919 -0.0688 -1.2546 -1.3477
  958SOL     MW 3832   2.035   2.589   2.845 -0.3805 -0.3273  0.2971
  959SOL     OW 3833   2.522   2.744   0.455  0.0745 -0.8480  0.2669
  959SOL    HW1 3834   2.526   2.799   0.375 -0.0778  1.2959  4.1666
  959SOL    HW2 3835   2.447   2.780   0.500  0.0788 -0.4681  0.4502
  959SOL     MW 3836   2.513   2.756   0.451  0.0550 -0.5150  0.8056
  960SOL     OW 3837   1.868   2.358   2.322 -0.1327 -0.4208 -0.3389
  960SOL    HW1 3838   1.900   2.268   2.347 -2.0609 -0.9980  3.1552
  960SOL    HW2 3839   1.808   2.382   2.395 -3.3457  0.6932  1.6587
  960SOL     MW 3840   1.865   2.349   2.335 -0.8110 -0.3500  0.3857
  961SOL     OW 3841   2.201   2.316   2.243  0.0318 -0.3613 -0.1873
  961SOL    HW1 3842   2.121   2.270   2.217 -0.6733 -0.9119 -0.9129
  961SOL    HW2 3843   2.181   2.378   2.320  0.2084  0.3905 -0.1543
  961SOL     MW 3844   2.188   2.318   2.250 -0.0379 -0.3347 -0.2787
  962SOL     OW 3845   2.166   2.023   2.778  0.4060 -0.8525  0.3014
  962SOL    HW1 3846   2.121   1.983   2.852  0.5316 -1.3896  3.0089
  962SOL    HW2 3847   2.159   1.947   2.720  3.1481  1.7351  1.5781
  962SOL     MW 3848   2.159   2.008   2.780  0.7844 -0.5820  0.8271
  963SOL     OW 3849   1.833   2.548   2.086 -0.2260  0.1579 -0.1476
  963SOL    HW1 3850   1.855   2.503   2.169  0.7483  0.2040 -0.5873
  963SOL    HW2 3851   1.833   2.476   2.025 -0.7517  0.9547 -0.7216
  963SOL     MW 3852   1.836   2.532   2.089 -0.1668  0.2691 -0.2813
  964SOL     OW 3853   1.764   1.897   2.640 -0.1334  0.6534  0.1067
  964SOL    HW1 3854   1.839   1.948   2.628 -1.6675  1.2024  1.6236
  964SOL    HW2 3855   1.788   1.845   2.721  0.5764 -1.1902  0.2394
  964SOL     MW 3856   1.777   1.897   2.649 -0.2422  0.4826  0.3243
  965SOL     OW 3857   2.120   2.566   0.839  0.0626  0.1709 -1.0698
  965SOL    HW1 3858   2.154   2.497   0.782  0.4556  1.8466 -2.7262
  965SOL    HW2 3859   2.195   2.625   0.829 -0.3698  1.3801 -4.2265
  965SOL     MW 3860   2.135   2.565   0.830  0.0574  0.5516 -1.7048
  966SOL     OW 3861   2.645   2.625   2.407 -0.3559  0.1612  0.1020
  966SOL    HW1 3862   2.582   2.644   2.334 -0.5628  0.2555  3.6020
  966SOL    HW2 3863   2.668   2.530   2.402  2.3541  1.6322 -2.1910
  966SOL     MW 3864   2.640   2.615   2.397 -0.0257  0.3677  0.2612
  967SOL     OW 3865   2.645   0.041   3.104 -0.0917 -0.1484 -0.4699
  967SOL    HW1 3866   2.629  -0.052   3.113 -0.6547  4.0292  0.6823
  967SOL    HW2 3867   2.602   0.075   3.023 -1.0452 -1.1027  2.2353
  967SOL     MW 3868   2.637   0.033   3.094 -0.2918  0.2769  0.0390
  968SOL     OW 3869   3.001   2.597   2.936 -0.1053 -0.5476  0.2724
  968SOL    HW1 3870   2.910   2.608   2.899 -1.6995 -0.1431 -3.1118
  968SOL    HW2 3871   3.042   2.545   2.865 -0.8639 -4.6312 -0.7686
  968SOL     MW 3872   2.994   2.592   2.922 -0.4157 -1.0330 -0.3115
  969SOL     OW 3873   1.596   2.128   1.729 -0.2645  0.7660  0.2104
  969SOL    HW1 3874   1.658   2.058   1.721 -0.8591  1.6540  0.5092
  969SOL    HW2 3875   1.562   2.127   1.817  1.6814  1.4440 -2.6918
  969SOL     MW 3876   1.600   2.119   1.739 -0.0862  0.9726 -0.1331
  970SOL     OW 3877   1.726   1.755   1.840 -0.5794 -0.2657 -0.6640
  970SOL    HW1 3878   1.773   1.696   1.898  0.4230 -0.1224 -0.6488
  970SOL    HW2 3879   1.652   1.780   1.893  0.8162 -2.0759 -1.3948
  970SOL     MW 3880   1.722   1.751   1.855 -0.2630 -0.4856 -0.7584
  971SOL     OW 3881   1.775   3.083   2.355 -0.2687 -0.4907 -0.1496
  971SOL    HW1 3882   1.819   3.046   2.275 -0.4196 -0.5076 -0.2242
  971SOL    HW2 3883   1.819   3.165   2.361  1.0669 -2.1262  1.9567
  971SOL     MW 3884   1.786   3.089   2.345 -0.1124 -0.7087  0.1184
  972SOL     OW 3885   0.269   2.873   2.435 -0.6389  0.3691 -0.0205
  972SOL    HW1 3886   0.329   2.808   2.467  0.8886  1.5793  0.6081
  972SOL    HW2 3887   0.307   2.959   2.456 -0.9636 -1.5941 -1.7064
  972SOL     MW 3888   0.282   2.876   2.442 -0.4802  0.2697 -0.1600
  973SOL     OW 3889   2.616   3.076   2.152 -0.2213  0.8954  0.0227
  973SOL    HW1 3890   2.586   2.996   2.101  0.0419  0.6195 -0.0147
  973SOL    HW2 3891   2.700   3.082   2.112  0.7855  1.9111  0.2135
  973SOL     MW 3892   2.623   3.067   2.140 -0.0537  0.9930  0.0429
  974SOL     OW 3893   2.003   0.160   2.605  0.1040  0.2757  0.1415
  974SOL    HW1 3894   2.069   0.123   2.668 -0.9334 -0.3280 -1.0146
  974SOL    HW2 3895   1.943   0.084   2.596 -1.0585  0.8553  1.2833
  974SOL     MW 3896   2.003   0.145   2.612 -0.1862  0.2725  0.1396
  975SOL     OW 3897   2.154   2.432   2.484 -0.1956  0.2099 -0.4769
  975SOL    HW1 3898   2.236   2.484   2.503  1.5649  0.6276 -1.6158
  975SOL    HW2 3899   2.101   2.505   2.461  0.7193 -2.1076  0.8507
  975SOL     MW 3900   2.158   2.449   2.483  0.1574 -0.0407 -0.4520
  976SOL     OW 3901   0.161   0.350   1.605  0.2229 -0.2073 -0.4035
  976SOL    HW1 3902   0.245   0.303   1.601  0.7608  1.3290  1.6164
  976SOL    HW2 3903   0.091   0.283   1.592 -0.1488  1.1627  2.3679
  976SOL     MW 3904   0.163   0.335   1.603  0.2448  0.1762  0.2287
  977SOL     OW 3905   1.722   2.745   2.413 -0.7449  0.1961  0.3809
  977SOL    HW1 3906   1.810   2.703   2.429  0.8109 -1.3751  1.5371
  977SOL    HW2 3907   1.739   2.823   2.368 -3.1989 -1.8642 -1.2926
  977SOL     MW 3908   1.736   2.749   2.409 -0.8634 -0.2830  0.3126
   3.10000   3.10000   3.10000
