977 TIP4P/2005f water molecules t=   1.85000 step= 1850
 3908
    1SOL     OW    1   0.401   0.767   0.115  0.7085 -0.0898  0.8993
    1SOL    HW1    2   0.335   0.751   0.050  2.4686  2.6201 -3.0912
    1SOL    HW2    3   0.407   0.679   0.158  0.4782 -0.2216  0.3130
    1SOL     MW    4   0.393   0.753   0.112  0.9103  0.2504  0.2954
    2SOL     OW    5   0.274   2.987   1.101 -0.3586  0.0999  0.2039
    2SOL    HW1    6   0.321   3.073   1.104  1.4107  0.5227 -1.0370
    2SOL    HW2    7   0.185   3.020   1.096  1.2907  0.2669  1.2168
    2SOL     MW    8   0.269   3.003   1.101  0.0924  0.1777  0.1738
    3SOL     OW    9   2.708   0.325   0.938  0.3398 -0.1031 -0.5843
    3SOL    HW1   10   2.742   0.406   0.896 -0.7558 -2.7908 -1.2973
    3SOL    HW2   11   2.697   0.355   1.035  1.4069  2.0345  5.3673
    3SOL     MW   12   2.711   0.340   0.945  0.3360 -0.1757  0.1069
    4SOL     OW   13   2.945   1.716   0.542  0.4538  0.3958 -0.2190
    4SOL    HW1   14   2.907   1.791   0.492 -1.5205  1.4213 -0.1093
    4SOL    HW2   15   3.015   1.670   0.491  0.1849 -1.4790 -0.8392
    4SOL     MW   16   2.950   1.719   0.529  0.1578  0.2837 -0.2864
    5SOL     OW   17   1.616   1.454   0.613  0.4068  0.5111  0.1069
    5SOL    HW1   18   1.657   1.432   0.697  0.0165  0.9973  1.3984
    5SOL    HW2   19   1.525   1.462   0.627 -1.9212  1.0362 -0.3713
    5SOL     MW   20   1.610   1.452   0.626  0.0482  0.6445  0.2142
    6SOL     OW   21   0.778   1.420   0.605 -0.1896 -0.1872 -0.0455
    6SOL    HW1   22   0.690   1.427   0.575 -2.7124  2.4686  1.6052
    6SOL    HW2   23   0.773   1.341   0.662 -0.6237  0.3673  0.7789
    6SOL     MW   24   0.766   1.410   0.609 -0.5797  0.2364  0.2810
    7SOL     OW   25   1.973   1.032   0.032  0.7347 -0.2709 -0.2265
    7SOL    HW1   26   2.049   1.083   0.041  0.4749 -0.1785 -0.4365
    7SOL    HW2   27   1.938   1.022   0.128 -0.0045  2.3589  3.0715
    7SOL     MW   28   1.979   1.037   0.046  0.6029  0.0883  0.1809
    8SOL     OW   29   0.831   1.392   0.993  0.5375 -0.3761 -0.4630
    8SOL    HW1   30   0.909   1.443   1.013 -2.0664 -1.6052  0.4902
    8SOL    HW2   31   0.805   1.370   1.083 -0.1330  0.6320  1.5625
    8SOL     MW   32   0.838   1.396   1.007  0.1055 -0.4053 -0.0700
    9SOL     OW   33   0.884   0.543   1.298 -0.4235 -0.2009 -0.5013
    9SOL    HW1   34   0.862   0.452   1.278  0.2553  0.6388 -0.9345
    9SOL    HW2   35   0.957   0.532   1.358  0.8831  1.3302 -1.1447
    9SOL     MW   36   0.891   0.530   1.303 -0.1615  0.1119 -0.6434
   10SOL     OW   37   0.314   0.808   0.508 -0.0848 -0.1243  0.4188
   10SOL    HW1   38   0.399   0.858   0.506  1.4090  0.4993 -0.9623
   10SOL    HW2   39   0.262   0.863   0.569 -0.0500 -2.2322 -1.5863
   10SOL     MW   40   0.319   0.822   0.516  0.1169 -0.3201 -0.0280
   11SOL     OW   41   0.747   1.120   1.498 -0.0489 -0.0599 -0.1373
   11SOL    HW1   42   0.792   1.136   1.582 -1.3712 -2.4287  3.2670
   11SOL    HW2   43   0.774   1.034   1.457 -0.9014 -0.5167 -0.5232
   11SOL     MW   44   0.757   1.111   1.504 -0.3359 -0.4327  0.2610
   12SOL     OW   45   0.031   1.088   0.913 -1.0079 -0.0112 -0.2754
   12SOL    HW1   46   0.063   1.175   0.938  0.5593  1.5262 -0.9666
   12SOL    HW2   47  -0.026   1.108   0.831  0.2825 -1.6740 -0.6325
   12SOL     MW   48   0.028   1.102   0.906 -0.6309 -0.0277 -0.4137
   13SOL     OW   49   1.843   1.415   1.317  0.1435  0.2925 -0.6719
   13SOL    HW1   50   1.865   1.322   1.288 -1.0393 -0.0818 -0.7444
   13SOL    HW2   51   1.911   1.469   1.276 -0.9402  1.0649 -0.7167
   13SOL     MW   52   1.855   1.410   1.308 -0.1555  0.3450 -0.6874
   14SOL     OW   53   0.587   0.267   1.830  0.2160 -0.1976  0.2787
   14SOL    HW1   54   0.615   0.191   1.781  0.9026  0.6797  2.2501
   14SOL    HW2   55   0.633   0.339   1.794 -2.5714 -1.6280 -0.5178
   14SOL     MW   56   0.597   0.267   1.819 -0.0612 -0.2706  0.4337
   15SOL     OW   57   2.052   0.424   0.947 -0.3055 -0.8611  0.0528
   15SOL    HW1   58   2.092   0.501   0.992  0.1353 -1.2102 -0.8368
   15SOL    HW2   59   2.062   0.446   0.849  2.5808  2.8760 -0.6304
   15SOL     MW   60   2.059   0.437   0.940  0.1335 -0.4141 -0.1547
   16SOL     OW   61   0.203   1.836   0.260  0.1127  0.1524  0.1684
   16SOL    HW1   62   0.274   1.790   0.218  3.0380 -0.0574 -1.7305
   16SOL    HW2   63   0.248   1.908   0.307 -0.1602 -0.5568  1.2990
   16SOL     MW   64   0.218   1.840   0.261  0.4626  0.0311  0.0671
   17SOL     OW   65   1.120   0.893   1.405  0.2133 -0.3217 -0.3750
   17SOL    HW1   66   1.147   0.874   1.497 -1.0468 -1.0091  1.4906
   17SOL    HW2   67   1.018   0.889   1.401  0.1629 -0.8786  1.0075
   17SOL     MW   68   1.110   0.890   1.417  0.0404 -0.4859  0.0535
   18SOL     OW   69   0.045   1.643   0.361 -0.9271 -0.5769  0.0008
   18SOL    HW1   70   0.108   1.722   0.347 -0.6786 -0.6210  0.8342
   18SOL    HW2   71   0.025   1.599   0.279  0.2959 -0.7533  1.1218
   18SOL     MW   72   0.051   1.648   0.349 -0.7330 -0.6060  0.2586
   19SOL     OW   73   0.075   1.372   0.961 -0.3351  0.6276  0.1897
   19SOL    HW1   74   0.093   1.396   0.870 -0.6123 -0.4802 -1.7298
   19SOL    HW2   75  -0.020   1.371   0.971 -1.4640 -0.0081 -0.4704
   19SOL     MW   76   0.065   1.375   0.950 -0.5206  0.3976 -0.1506
   20SOL     OW   77   0.448   2.119   1.272  0.0429  0.0820  0.2103
   20SOL    HW1   78   0.397   2.054   1.225 -1.0690 -1.1650  0.0893
   20SOL    HW2   79   0.406   2.134   1.356 -2.5091 -1.6840 -2.4253
   20SOL     MW   80   0.436   2.112   1.277 -0.4405 -0.3155 -0.1534
   21SOL     OW   81   0.565   0.924   0.445  0.2634 -0.0512  0.1784
   21SOL    HW1   82   0.620   0.873   0.500 -0.9152  4.4886 -1.8143
   21SOL    HW2   83   0.608   0.915   0.356  0.7462 -2.1121  0.6187
   21SOL     MW   84   0.578   0.916   0.440  0.1716  0.2758 -0.0264
   22SOL     OW   85   1.544   0.728   0.980 -0.1980  0.2485 -0.6456
   22SOL    HW1   86   1.556   0.702   0.887  0.5084 -1.2057 -0.8794
   22SOL    HW2   87   1.453   0.765   0.983  0.9545  2.3843 -0.8177
   22SOL     MW   88   1.533   0.730   0.968  0.0473  0.3384 -0.6991
   23SOL     OW   89   3.085   0.809   0.690  0.4399 -0.2677  0.0773
   23SOL    HW1   90   3.149   0.746   0.734 -0.0434 -2.0588  0.7593
   23SOL    HW2   91   3.146   0.883   0.678  0.3039  2.5985  1.1281
   23SOL     MW   92   3.101   0.810   0.694  0.3582 -0.1259  0.3059
   24SOL     OW   93   2.055   2.145   0.073 -0.9654  0.5069  0.4011
   24SOL    HW1   94   2.018   2.115   0.159  1.0964  1.0406 -1.0546
   24SOL    HW2   95   2.101   2.067   0.056 -0.5095  1.8347 -0.1068
   24SOL     MW   96   2.056   2.131   0.082 -0.6332  0.7525  0.1420
   25SOL     OW   97   0.228   1.453   0.386 -0.1234 -0.2811 -0.4856
   25SOL    HW1   98   0.159   1.533   0.400 -2.1748  4.8286  2.4746
   25SOL    HW2   99   0.266   1.471   0.305  1.6066 -0.8990  2.2070
   25SOL     MW  100   0.224   1.466   0.377 -0.1658  0.3115  0.2602
   26SOL     OW  101   1.968   1.030   0.307 -0.5085  0.0311  0.2988
   26SOL    HW1  102   1.940   1.065   0.395  0.3624 -1.3176  1.4250
   26SOL    HW2  103   2.035   1.087   0.268 -0.1827 -0.6394 -1.8069
   26SOL     MW  104   1.973   1.042   0.314 -0.3506 -0.2353  0.1695
   27SOL     OW  105   1.858   1.373   0.122 -0.1121  0.0875  0.5334
   27SOL    HW1  106   1.800   1.446   0.150  0.4856  1.3337  1.3481
   27SOL    HW2  107   1.922   1.373   0.193  0.5519  1.7527 -0.6970
   27SOL     MW  108   1.859   1.383   0.135  0.0544  0.4717  0.4785
   28SOL     OW  109   0.440   0.935   2.065 -0.0688 -0.2342  0.6753
   28SOL    HW1  110   0.455   0.914   2.157  0.8604 -1.6647  1.4638
   28SOL    HW2  111   0.360   0.889   2.047 -0.5089  4.2509  0.6703
   28SOL     MW  112   0.432   0.926   2.074 -0.0043  0.1688  0.7787
   29SOL     OW  113   0.173   1.426   0.697  0.1440 -0.2174 -0.3018
   29SOL    HW1  114   0.199   1.518   0.705  0.3458 -1.8045 -0.5348
   29SOL    HW2  115   0.157   1.411   0.604 -2.9351  1.0552 -0.5174
   29SOL     MW  116   0.174   1.436   0.686 -0.2357 -0.2589 -0.3610
   30SOL     OW  117   0.709   1.266   1.227 -0.9443 -0.0071 -0.0378
   30SOL    HW1  118   0.616   1.284   1.223  0.1030 -0.1089 -0.9056
   30SOL    HW2  119   0.724   1.241   1.316  0.1883  0.2237 -1.9013
   30SOL     MW  120   0.699   1.265   1.238 -0.6567  0.0099 -0.3982
   31SOL     OW  121   0.495   0.258   0.192  0.1265  0.1153 -0.3948
   31SOL    HW1  122   0.497   0.193   0.257  1.4610  2.4931 -1.0352
   31SOL    HW2  123   0.467   0.210   0.111  0.6293 -0.2438  1.0050
   31SOL     MW  124   0.492   0.243   0.190  0.3689  0.3817 -0.2946
   32SOL     OW  125   2.755   0.997   1.089 -0.1066  0.4836  0.3673
   32SOL    HW1  126   2.692   0.922   1.079 -2.2373 -3.4554 -1.1913
   32SOL    HW2  127   2.848   0.971   1.061  2.9695  0.6198 -0.6301
   32SOL     MW  128   2.759   0.984   1.084  0.0182 -0.0181  0.0300
   33SOL     OW  129   1.624   1.224   0.416  0.2875  0.4152 -0.0970
   33SOL    HW1  130   1.716   1.231   0.405 -0.1567 -0.1504 -1.9468
   33SOL    HW2  131   1.605   1.281   0.492  1.9667 -0.3053  2.4861
   33SOL     MW  132   1.634   1.232   0.425  0.4505  0.2455 -0.0002
   34SOL     OW  133   1.146   1.993   1.191  0.3532 -0.0083 -0.2566
   34SOL    HW1  134   1.054   2.003   1.218 -0.4149  0.1098  1.1821
   34SOL    HW2  135   1.203   2.010   1.260  0.4831  0.7005  3.2608
   34SOL     MW  136   1.142   1.997   1.203  0.2690  0.1008  0.3973
   35SOL     OW  137   0.316   0.148   1.670  0.2177  0.1305 -0.0161
   35SOL    HW1  138   0.371   0.174   1.743  2.5651 -1.1669 -0.6986
   35SOL    HW2  139   0.281   0.060   1.679 -1.9630  2.6057 -0.2591
   35SOL     MW  140   0.319   0.140   1.681  0.2397  0.2859 -0.1382
   36SOL     OW  141   1.953   1.997   0.577  0.1249 -0.0162 -0.2369
   36SOL    HW1  142   1.946   2.012   0.480  0.8432  3.1856 -3.9295
   36SOL    HW2  143   1.987   1.908   0.606 -0.6686  0.5096 -1.8568
   36SOL     MW  144   1.957   1.988   0.568  0.1150  0.4756 -0.9378
   37SOL     OW  145   1.730   2.081   0.952 -0.1820 -0.2106  0.7857
   37SOL    HW1  146   1.670   2.013   0.910  1.5233  0.5266 -0.6346
   37SOL    HW2  147   1.707   2.095   1.040 -3.2243 -0.8117 -2.6169
   37SOL     MW  148   1.719   2.074   0.958 -0.3584 -0.1926  0.1494
   38SOL     OW  149   2.815   0.987   0.037  0.6174 -0.6488  0.4746
   38SOL    HW1  150   2.868   0.979   0.117 -1.1959  1.7536  1.0671
   38SOL    HW2  151   2.884   0.990  -0.039  1.0674 -0.8712 -0.5886
   38SOL     MW  152   2.831   0.987   0.037  0.4375 -0.3612  0.4125
   39SOL     OW  153   1.552   0.649   0.729 -0.4216 -0.2930 -0.4621
   39SOL    HW1  154   1.518   0.560   0.727  0.2721  1.3945  4.2844
   39SOL    HW2  155   1.482   0.706   0.704  1.1909 -2.3553 -1.5732
   39SOL     MW  156   1.538   0.644   0.726 -0.1173 -0.3425  0.0175
   40SOL     OW  157   1.277   1.874   0.240 -0.0533  0.1166  0.2007
   40SOL    HW1  158   1.353   1.835   0.277  0.4808 -0.1563 -1.6605
   40SOL    HW2  159   1.232   1.904   0.319  1.9598  0.2856 -0.4818
   40SOL     MW  160   1.281   1.873   0.256  0.2828  0.1029 -0.1349
   41SOL     OW  161   0.512   0.501   1.592  0.0191  0.1833 -0.1082
   41SOL    HW1  162   0.577   0.551   1.532  1.5346  1.6552  0.4440
   41SOL    HW2  163   0.419   0.531   1.590 -2.6800 -0.7395 -1.8042
   41SOL     MW  164   0.508   0.512   1.584 -0.1370  0.2558 -0.2591
   42SOL     OW  165   1.240   2.908   1.995 -0.0318  0.2549 -0.0602
   42SOL    HW1  166   1.166   2.905   2.053  0.4224  2.2240 -4.5445
   42SOL    HW2  167   1.319   2.854   2.032 -0.4751 -0.4662  1.4146
   42SOL     MW  168   1.240   2.900   2.007 -0.0304  0.4195 -0.4573
   43SOL     OW  169   1.383   0.130   1.698 -0.1174  0.2100  0.1708
   43SOL    HW1  170   1.455   0.117   1.634 -1.7540  0.7117 -1.8566
   43SOL    HW2  171   1.335   0.048   1.707  0.7191 -1.5661 -3.3829
   43SOL     MW  172   1.386   0.117   1.690 -0.2230  0.0419 -0.5656
   44SOL     OW  173   1.205   0.839   0.954 -0.1951  0.1532 -0.4745
   44SOL    HW1  174   1.166   0.922   0.974 -0.8986 -1.3863  2.5982
   44SOL    HW2  175   1.158   0.779   1.012  0.6282 -1.1307 -1.0934
   44SOL     MW  176   1.194   0.842   0.964 -0.1793 -0.2193 -0.1507
   45SOL     OW  177   1.306   0.795   0.691  0.1077 -0.5108  0.1288
   45SOL    HW1  178   1.270   0.786   0.780 -0.5943 -1.7976  1.1496
   45SOL    HW2  179   1.238   0.759   0.622  0.7705 -2.0552 -2.6037
   45SOL     MW  180   1.292   0.789   0.694  0.1026 -0.8844 -0.0970
   46SOL     OW  181   0.419   1.132   0.673  0.1564 -0.1956  0.0999
   46SOL    HW1  182   0.472   1.155   0.597 -1.9657  1.0978 -2.2251
   46SOL    HW2  183   0.432   1.208   0.735 -0.6341  0.3192  0.1282
   46SOL     MW  184   0.427   1.145   0.671 -0.2279  0.0430 -0.2031
   47SOL     OW  185   0.113   1.977   1.956  0.8649  0.6192 -0.4473
   47SOL    HW1  186   0.098   1.908   1.894 -0.9798 -0.5490 -0.1309
   47SOL    HW2  187   0.146   1.926   2.035 -0.1883 -1.6703  0.8670
   47SOL     MW  188   0.115   1.961   1.958  0.4825  0.1630 -0.2321
   48SOL     OW  189   1.273   0.491   1.050  0.6494  0.1289  0.3919
   48SOL    HW1  190   1.214   0.444   0.990 -0.3483 -1.8776  2.5687
   48SOL    HW2  191   1.231   0.566   1.091 -0.0709 -1.7800  2.3399
   48SOL     MW  192   1.260   0.495   1.047  0.4227 -0.3877  0.9361
   49SOL     OW  193   1.704   0.724   1.546 -0.6321 -0.4530 -0.1496
   49SOL    HW1  194   1.759   0.670   1.611  0.4430 -1.5858 -2.3911
   49SOL    HW2  195   1.739   0.689   1.465 -0.0373 -1.8583  0.4371
   49SOL     MW  196   1.716   0.712   1.544 -0.4118 -0.7879 -0.3679
   50SOL     OW  197   1.314   1.200   0.632 -0.4313  0.4450 -0.6616
   50SOL    HW1  198   1.251   1.206   0.709  3.0995  0.4235 -2.1304
   50SOL    HW2  199   1.384   1.139   0.656  0.7363  0.5189  1.6594
   50SOL     MW  200   1.315   1.193   0.645  0.1886  0.4519 -0.5492
   51SOL     OW  201   0.353   2.908   0.846 -0.0311  0.5847 -0.0829
   51SOL    HW1  202   0.430   2.855   0.874  0.1823 -1.5291  2.5208
   51SOL    HW2  203   0.316   2.937   0.931 -0.7962  1.6032 -0.2578
   51SOL     MW  204   0.358   2.905   0.861 -0.1039  0.4402  0.2376
   52SOL     OW  205   0.808   1.841   0.476  0.5284  0.5361 -0.2182
   52SOL    HW1  206   0.780   1.925   0.516 -1.0137 -0.5573  0.1439
   52SOL    HW2  207   0.835   1.850   0.384 -1.0649 -0.9720 -1.8579
   52SOL     MW  208   0.808   1.853   0.469  0.1147  0.1928 -0.3868
   53SOL     OW  209   0.481   2.154   0.580 -0.4098 -0.2915 -0.0725
   53SOL    HW1  210   0.429   2.107   0.510 -1.5806 -1.1007  1.7670
   53SOL    HW2  211   0.443   2.245   0.584 -0.1517  1.0564 -0.1105
   53SOL     MW  212   0.469   2.160   0.571 -0.5302 -0.2204  0.1652
   54SOL     OW  213   2.046   0.993   0.711  0.1582 -0.1830 -0.5532
   54SOL    HW1  214   2.096   0.995   0.630  0.1262  1.1368  0.1027
   54SOL    HW2  215   2.013   0.904   0.716 -1.1753 -0.4984 -0.8718
   54SOL     MW  216   2.048   0.982   0.701 -0.0219 -0.0505 -0.5087
   55SOL     OW  217   0.430   1.524   1.732  0.2163  0.1552 -0.1735
   55SOL    HW1  218   0.370   1.562   1.662 -1.4662  0.7524 -1.2226
   55SOL    HW2  219   0.515   1.549   1.704  0.6518  0.1963  0.0277
   55SOL     MW  220   0.433   1.532   1.719  0.0518  0.2394 -0.2854
   56SOL     OW  221   0.660   0.913   0.179 -0.1138 -0.3025  0.4828
   56SOL    HW1  222   0.683   1.002   0.146  0.5752  0.8640 -0.5296
   56SOL    HW2  223   0.577   0.882   0.150  0.1105  0.2067  0.7701
   56SOL     MW  224   0.652   0.921   0.171  0.0067 -0.0814  0.3871
   57SOL     OW  225   1.102   1.323   1.182 -0.0717  0.1516  0.1079
   57SOL    HW1  226   1.197   1.326   1.181 -1.3661  0.6728  1.2076
   57SOL    HW2  227   1.084   1.270   1.264 -0.1282  2.4762  2.6114
   57SOL     MW  228   1.112   1.316   1.192 -0.2499  0.5271  0.5833
   58SOL     OW  229   0.440   1.243   1.293  0.5961 -0.1299  0.6758
   58SOL    HW1  230   0.410   1.329   1.321  2.7570  0.3943 -3.0167
   58SOL    HW2  231   0.449   1.193   1.369 -0.5594  0.3408 -1.5187
   58SOL     MW  232   0.437   1.248   1.307  0.7288  0.0014 -0.1009
   59SOL     OW  233   1.480   1.674   0.384  0.7254 -0.4007 -0.0348
   59SOL    HW1  234   1.525   1.731   0.437  0.4397  0.2672 -0.0010
   59SOL    HW2  235   1.393   1.657   0.427 -0.6601  0.9524 -0.6750
   59SOL     MW  236   1.474   1.679   0.397  0.5049 -0.1341 -0.1148
   60SOL     OW  237   3.076   0.165   1.629 -0.3172  0.0926 -0.0731
   60SOL    HW1  238   2.993   0.201   1.663 -0.5134 -1.1633  0.9550
   60SOL    HW2  239   3.119   0.136   1.715 -1.8113 -3.4152 -3.9176
   60SOL     MW  240   3.071   0.166   1.645 -0.5402 -0.5359 -0.4447
   61SOL     OW  241   1.988   1.347   2.995  0.4010 -0.0396  0.0400
   61SOL    HW1  242   1.930   1.357   3.080 -0.9032  0.0762 -0.8503
   61SOL    HW2  243   2.055   1.288   3.015 -2.9848  1.4067  0.9367
   61SOL     MW  244   1.989   1.341   3.009 -0.2178  0.1665  0.0409
   62SOL     OW  245   0.562   1.756   0.596 -0.4909  0.6533 -0.7478
   62SOL    HW1  246   0.637   1.774   0.544  1.1231 -0.3166 -0.5747
   62SOL    HW2  247   0.539   1.667   0.568 -0.7869 -0.1869  0.3557
   62SOL     MW  248   0.569   1.747   0.585 -0.3170  0.4144 -0.5794
   63SOL     OW  249   1.720   0.668   0.525 -0.1139 -0.4010 -0.5542
   63SOL    HW1  250   1.698   0.755   0.493 -1.2398 -0.7726  0.3139
   63SOL    HW2  251   1.658   0.649   0.598 -1.1664 -3.3619  1.3068
   63SOL     MW  252   1.709   0.677   0.530 -0.4013 -0.8407 -0.1942
   64SOL     OW  253   0.217   1.706   0.643 -0.5556  0.2306 -0.3356
   64SOL    HW1  254   0.266   1.767   0.701  0.4694  1.8819 -0.5915
   64SOL    HW2  255   0.125   1.716   0.673 -3.3609  0.0788  1.0448
   64SOL     MW  256   0.211   1.715   0.655 -0.7905  0.4284 -0.1872
   65SOL     OW  257   1.503   2.315   0.394  0.6100  0.3736 -0.2278
   65SOL    HW1  258   1.580   2.374   0.401  2.3668 -0.3854  0.0767
   65SOL    HW2  259   1.442   2.351   0.465 -0.0773 -0.7749  1.6812
   65SOL     MW  260   1.505   2.327   0.404  0.7511  0.1219  0.0643
   66SOL     OW  261   0.381   0.542   0.537 -0.0854  0.7416 -0.2049
   66SOL    HW1  262   0.439   0.520   0.459 -1.2081 -0.6691  1.1785
   66SOL    HW2  263   0.363   0.636   0.530  1.9648  1.0659  2.1859
   66SOL     MW  264   0.386   0.552   0.526  0.0370  0.5983  0.2931
   67SOL     OW  265   1.334   0.051   1.994 -0.0970  0.0175  0.1864
   67SOL    HW1  266   1.355   0.047   1.900 -1.9367  0.0258  1.7643
   67SOL    HW2  267   1.293  -0.032   2.018  0.5690  1.4193  0.4372
   67SOL     MW  268   1.331   0.039   1.985 -0.2519  0.2036  0.4277
   68SOL     OW  269   0.786   0.100   2.876  0.6899  0.2879 -0.4641
   68SOL    HW1  270   0.757   0.177   2.824 -1.0055  0.8740 -0.5336
   68SOL    HW2  271   0.849   0.137   2.936 -1.3069 -1.9135 -0.3657
   68SOL     MW  272   0.790   0.115   2.877  0.2027  0.0747 -0.4603
   69SOL     OW  273   1.104   0.270   1.968 -0.2515  0.3956 -0.3693
   69SOL    HW1  274   1.184   0.245   2.019 -0.6772  1.1644 -1.6345
   69SOL    HW2  275   1.041   0.201   2.005 -0.2385 -2.5628 -1.1356
   69SOL     MW  276   1.106   0.258   1.980 -0.3059  0.1067 -0.6373
   70SOL     OW  277   0.539   1.705   1.140 -0.0617 -0.0658 -0.3111
   70SOL    HW1  278   0.612   1.766   1.137 -0.7301  0.7633  2.7710
   70SOL    HW2  279   0.544   1.661   1.054 -2.4056 -5.5723  1.0441
   70SOL     MW  280   0.550   1.707   1.128 -0.4591 -0.6830  0.2744
   71SOL     OW  281   1.570   0.593   1.214  0.0380  0.8079 -0.5859
   71SOL    HW1  282   1.517   0.672   1.242  2.7623 -1.6173 -0.9036
   71SOL    HW2  283   1.597   0.603   1.120  1.1173  0.9728 -0.1199
   71SOL     MW  284   1.566   0.605   1.206  0.5398  0.5097 -0.5663
   72SOL     OW  285   0.789   1.842   1.045  0.2202  0.4115  0.5789
   72SOL    HW1  286   0.801   1.922   0.993  0.3446 -2.2616  1.4607
   72SOL    HW2  287   0.857   1.778   1.024  1.5439  1.5260  1.5323
   72SOL     MW  288   0.800   1.844   1.035  0.4113  0.2059  0.8210
   73SOL     OW  289   1.073   0.676   1.137  0.0424 -0.3524 -0.2022
   73SOL    HW1  290   1.000   0.616   1.168 -4.0612  0.4563  1.4540
   73SOL    HW2  291   1.075   0.749   1.191 -0.9293 -3.2319 -3.1889
   73SOL     MW  292   1.064   0.678   1.149 -0.6272 -0.6256 -0.3778
   74SOL     OW  293   2.825   0.091   0.974  0.2707  0.2579  0.3287
   74SOL    HW1  294   2.910   0.118   0.936  1.0407  1.6025  2.3727
   74SOL    HW2  295   2.776   0.173   0.952  1.3613  2.1904 -1.7786
   74SOL     MW  296   2.830   0.105   0.966  0.5162  0.6903  0.3204
   75SOL     OW  297   1.480   1.317   0.169 -0.3709 -0.0414 -0.0117
   75SOL    HW1  298   1.535   1.275   0.101 -1.2452 -0.1815 -2.4699
   75SOL    HW2  299   1.505   1.284   0.254  0.1924 -1.4617 -2.1718
   75SOL     MW  300   1.491   1.308   0.172 -0.4120 -0.2473 -0.6210
   76SOL     OW  301   3.059   0.694   0.416 -0.4142 -0.4291 -0.9204
   76SOL    HW1  302   3.046   0.736   0.505 -3.9265  0.7579 -1.2677
   76SOL    HW2  303   3.130   0.635   0.435  0.7223 -0.3707  0.2712
   76SOL     MW  304   3.067   0.691   0.430 -0.7277 -0.2648 -0.8090
   77SOL     OW  305   0.872   0.603   0.445 -1.0940 -0.8493 -0.9213
   77SOL    HW1  306   0.852   0.631   0.352  0.8649 -0.0780 -0.3156
   77SOL    HW2  307   0.866   0.506   0.438 -0.1501  0.3648  2.8464
   77SOL     MW  308   0.869   0.594   0.432 -0.7110 -0.5873 -0.3443
   78SOL     OW  309   0.817   0.880   1.085 -0.8655  0.0569  0.0401
   78SOL    HW1  310   0.793   0.961   1.041  2.0505 -0.7992  0.8625
   78SOL    HW2  311   0.728   0.863   1.122  1.1215  0.2421  2.2483
   78SOL     MW  312   0.802   0.888   1.084 -0.2186 -0.0316  0.4400
   79SOL     OW  313   1.869   1.509   0.539 -0.2776  0.0511  0.4084
   79SOL    HW1  314   1.779   1.486   0.561  1.3202  0.2988  0.6463
   79SOL    HW2  315   1.925   1.484   0.612 -0.3680 -0.6203  2.5029
   79SOL     MW  316   1.865   1.502   0.552 -0.0787 -0.0048  0.7161
   80SOL     OW  317   0.226   0.991   0.289 -0.0076 -0.2983  0.0351
   80SOL    HW1  318   0.179   0.946   0.215  1.0551 -0.6102  0.8410
   80SOL    HW2  319   0.248   0.919   0.350  0.2934 -1.2217  0.4990
   80SOL     MW  320   0.222   0.976   0.287  0.1723 -0.4613  0.2027
   81SOL     OW  321   1.816   1.821   0.342 -0.3266 -0.1898 -0.9166
   81SOL    HW1  322   1.790   1.740   0.298 -0.0529 -2.1148 -3.3956
   81SOL    HW2  323   1.781   1.889   0.288 -0.7103  2.4950 -1.0980
   81SOL     MW  324   1.808   1.819   0.329 -0.3411 -0.0895 -1.2676
   82SOL     OW  325   0.975   1.021   0.565 -0.0354  0.1569 -0.1388
   82SOL    HW1  326   0.937   1.098   0.516 -1.5815  1.9562  0.1531
   82SOL    HW2  327   0.912   0.950   0.564  0.1899  1.4862 -2.0171
   82SOL     MW  328   0.962   1.021   0.559 -0.2097  0.5697 -0.3481
   83SOL     OW  329   3.089   0.736   1.541 -0.0173 -0.1121 -0.5244
   83SOL    HW1  330   3.067   0.802   1.471  2.7350  0.3246 -0.5463
   83SOL    HW2  331   3.167   0.681   1.513  2.2849 -1.2548 -1.8990
   83SOL     MW  332   3.097   0.737   1.528  0.6496 -0.2053 -0.7087
   84SOL     OW  333   3.073   0.172   0.907 -0.1549  0.1446  0.3585
   84SOL    HW1  334   3.060   0.260   0.955 -1.7514  0.2173  0.4969
   84SOL    HW2  335   3.096   0.112   0.976 -1.8462 -1.1540 -2.6872
   84SOL     MW  336   3.074   0.175   0.922 -0.5887 -0.0172 -0.0251
   85SOL     OW  337   0.358   0.481   0.796  0.2016  0.0361 -0.3576
   85SOL    HW1  338   0.366   0.488   0.698 -0.2990 -1.3988 -0.7472
   85SOL    HW2  339   0.324   0.390   0.808 -1.2195  0.3907  0.1197
   85SOL     MW  340   0.355   0.470   0.785 -0.0519 -0.1064 -0.3460
   86SOL     OW  341   1.282   0.269   1.214 -0.1492 -0.0237  0.0716
   86SOL    HW1  342   1.274   0.357   1.181 -1.9886  0.3977 -1.3185
   86SOL    HW2  343   1.372   0.268   1.246  0.6509 -1.8532 -0.3302
   86SOL     MW  344   1.293   0.281   1.214 -0.2864 -0.2094 -0.1648
   87SOL     OW  345   1.015   1.578   1.182 -0.8147  0.1629  0.4553
   87SOL    HW1  346   1.079   1.628   1.129  2.2752 -3.3275 -0.1854
   87SOL    HW2  347   1.046   1.484   1.173  0.6436 -2.9130  0.1932
   87SOL     MW  348   1.027   1.572   1.174 -0.2146 -0.7035  0.3362
   88SOL     OW  349   1.154   1.125   1.004  0.3315  0.3513  0.7121
   88SOL    HW1  350   1.250   1.114   1.007 -1.5999 -1.5597  0.2187
   88SOL    HW2  351   1.134   1.183   1.078 -0.1980  1.1565  1.6264
   88SOL     MW  352   1.164   1.131   1.014  0.0068  0.2054  0.7677
   89SOL     OW  353   1.793   0.724   0.223 -0.1042  0.5514 -0.4161
   89SOL    HW1  354   1.734   0.658   0.268 -0.8310 -0.8856  0.6012
   89SOL    HW2  355   1.871   0.731   0.279  0.7704 -1.0465  0.3252
   89SOL     MW  356   1.796   0.716   0.236 -0.0847  0.1509 -0.1841
   90SOL     OW  357   0.767   1.186   2.784  0.8607 -0.4587 -0.5247
   90SOL    HW1  358   0.809   1.103   2.770 -1.3551  1.1348 -2.4430
   90SOL    HW2  359   0.798   1.209   2.871 -0.6343 -1.2510 -2.2309
   90SOL     MW  360   0.776   1.178   2.794  0.3711 -0.3530 -1.0029
   91SOL     OW  361   2.259   0.596   0.537  0.2712  0.5761  0.6007
   91SOL    HW1  362   2.297   0.660   0.473 -1.8446 -0.1260  0.2600
   91SOL    HW2  363   2.262   0.510   0.484  0.9968 -0.1921 -0.7625
   91SOL     MW  364   2.265   0.593   0.521  0.0878  0.3821  0.3759
   92SOL     OW  365   1.651   0.957   0.475  0.1639  0.0405 -0.1564
   92SOL    HW1  366   1.590   0.960   0.552 -1.7384  2.9688 -0.0101
   92SOL    HW2  367   1.609   1.028   0.423  0.9009 -1.8325  1.1849
   92SOL     MW  368   1.638   0.967   0.478  0.0101  0.1797  0.0399
   93SOL     OW  369   1.102   0.242   0.403  0.5909 -0.5372  0.0241
   93SOL    HW1  370   1.019   0.276   0.431  0.9780  0.3351 -1.6846
   93SOL    HW2  371   1.113   0.271   0.310  1.2028 -2.2714 -0.7275
   93SOL     MW  372   1.093   0.250   0.395  0.7227 -0.6509 -0.3005
   94SOL     OW  373   1.917   1.388   1.578 -0.1168 -0.5311  0.3557
   94SOL    HW1  374   1.890   1.403   1.489  1.6215  0.9576 -0.1158
   94SOL    HW2  375   1.879   1.310   1.613 -0.1444  3.4062  1.7092
   94SOL     MW  376   1.909   1.380   1.571  0.1089  0.1848  0.4720
   95SOL     OW  377   0.595   1.527   0.931  0.4966 -0.1864  0.2321
   95SOL    HW1  378   0.681   1.484   0.931 -1.6877  0.1301 -1.5731
   95SOL    HW2  379   0.530   1.457   0.909 -2.3324 -1.3127 -0.8921
   95SOL     MW  380   0.598   1.512   0.928 -0.1649 -0.2933 -0.1544
   96SOL     OW  381   1.345   1.837   1.708 -0.2909 -0.2516 -0.0649
   96SOL    HW1  382   1.256   1.830   1.748 -0.7379 -0.3390 -2.5615
   96SOL    HW2  383   1.351   1.745   1.686 -2.6689 -1.2147 -0.6888
   96SOL     MW  384   1.334   1.824   1.710 -0.6636 -0.3902 -0.4766
   97SOL     OW  385   1.088   1.564   0.831 -0.2815 -0.1553  0.1276
   97SOL    HW1  386   1.144   1.628   0.879  2.4040 -1.5028  0.5795
   97SOL    HW2  387   0.997   1.602   0.825  1.2181  1.5358 -2.5245
   97SOL     MW  388   1.084   1.577   0.837  0.2707 -0.1100 -0.1627
   98SOL     OW  389   1.363   1.393   1.221 -0.1491 -0.1331 -0.7144
   98SOL    HW1  390   1.429   1.438   1.279  2.5858 -1.3536  2.0971
   98SOL    HW2  391   1.395   1.423   1.135 -0.9848  0.2189  0.7147
   98SOL     MW  392   1.376   1.403   1.217  0.1015 -0.2477 -0.1549
   99SOL     OW  393   1.553   0.332   1.306 -0.2144 -0.0284  0.4639
   99SOL    HW1  394   1.564   0.418   1.265 -0.4086  0.5261 -1.4740
   99SOL    HW2  395   1.504   0.348   1.392  0.2319  1.1129  0.4435
   99SOL     MW  396   1.548   0.345   1.312 -0.1811  0.1954  0.2055
  100SOL     OW  397   1.087   1.158   1.388  0.2699  0.1363 -0.0559
  100SOL    HW1  398   1.087   1.201   1.474 -3.9571 -0.3484  1.2144
  100SOL    HW2  399   1.105   1.067   1.401  0.1169  1.8102 -1.2295
  100SOL     MW  400   1.090   1.151   1.401 -0.3080  0.2932 -0.0431
  101SOL     OW  401   0.539   1.235   0.457 -0.5405  0.8332  0.7515
  101SOL    HW1  402   0.475   1.212   0.380  0.9211  3.8801 -0.7464
  101SOL    HW2  403   0.625   1.195   0.448 -0.0416 -1.2811 -1.0429
  101SOL     MW  404   0.542   1.227   0.446 -0.2818  0.9563  0.3171
  102SOL     OW  405   2.885   0.602   1.075 -0.0870 -0.1181 -0.1911
  102SOL    HW1  406   2.925   0.690   1.069 -2.6414 -1.4319 -1.2902
  102SOL    HW2  407   2.860   0.576   1.159 -2.4967 -0.4503  0.6774
  102SOL     MW  408   2.887   0.610   1.085 -0.7419 -0.3353 -0.2215
  103SOL     OW  409   1.868   0.281   1.761  0.6688 -0.2105  0.0829
  103SOL    HW1  410   1.882   0.192   1.721 -1.0615 -0.9083  1.2480
  103SOL    HW2  411   1.865   0.260   1.855  0.9662  1.1910 -1.6653
  103SOL     MW  412   1.869   0.266   1.768  0.4797 -0.1177  0.0060
  104SOL     OW  413   0.053   1.523   1.676 -0.2737  0.0898  0.1170
  104SOL    HW1  414   0.104   1.443   1.703 -0.9021  2.3610 -0.4659
  104SOL    HW2  415  -0.044   1.498   1.691 -0.2879 -2.3914 -0.7988
  104SOL     MW  416   0.047   1.509   1.682 -0.3585  0.0621 -0.0807
  105SOL     OW  417   0.091   1.198   0.439  0.0554  0.1089  0.1493
  105SOL    HW1  418   0.134   1.129   0.388  1.2677 -0.0079  1.2047
  105SOL    HW2  419   0.149   1.270   0.421  0.3969 -0.3032 -2.7288
  105SOL     MW  420   0.104   1.199   0.430  0.2604  0.0391 -0.0912
  106SOL     OW  421   0.816   0.247   0.851  0.4871 -0.1474  0.5226
  106SOL    HW1  422   0.743   0.313   0.867  0.0908  1.1337  1.7269
  106SOL    HW2  423   0.874   0.304   0.802  1.8421 -0.9450 -2.6679
  106SOL     MW  424   0.814   0.263   0.846  0.6136 -0.0836  0.2605
  107SOL     OW  425   0.802   2.198   2.876  0.2818 -0.1928 -0.1897
  107SOL    HW1  426   0.711   2.188   2.897 -1.7245 -1.6141 -0.1609
  107SOL    HW2  427   0.849   2.155   2.945 -0.6564  1.0391 -0.4567
  107SOL     MW  428   0.796   2.191   2.888 -0.1067 -0.2178 -0.2212
  108SOL     OW  429   1.307   1.546   1.634 -0.0710 -0.0841  0.0323
  108SOL    HW1  430   1.244   1.561   1.558  1.5747 -0.3763 -2.8107
  108SOL    HW2  431   1.379   1.502   1.580  1.6387 -0.7664 -2.2113
  108SOL     MW  432   1.308   1.542   1.617  0.3717 -0.2126 -0.6389
  109SOL     OW  433   2.040   0.767   0.355 -0.0186 -0.1429  0.4396
  109SOL    HW1  434   2.028   0.861   0.370  0.9904 -3.6913  2.8277
  109SOL    HW2  435   2.083   0.727   0.429  0.7245 -0.9352  0.6110
  109SOL     MW  436   2.044   0.774   0.366  0.2126 -0.7156  0.7773
  110SOL     OW  437   0.401   1.898   0.793 -0.1303 -0.4369  0.1560
  110SOL    HW1  438   0.464   1.824   0.785  0.2108 -1.2320 -0.2123
  110SOL    HW2  439   0.446   1.968   0.739 -0.5109  3.1113 -0.4755
  110SOL     MW  440   0.415   1.898   0.785 -0.1355 -0.0737  0.0241
  111SOL     OW  441   0.851   0.880   1.364  0.5523  0.0956  0.2132
  111SOL    HW1  442   0.846   0.877   1.266  0.0861 -2.2196 -0.8831
  111SOL    HW2  443   0.796   0.806   1.382  1.5633  2.4582 -0.7108
  111SOL     MW  444   0.843   0.870   1.353  0.6242  0.1018 -0.0534
  112SOL     OW  445   1.342   1.155   1.666 -0.0798  0.3996  0.9520
  112SOL    HW1  446   1.257   1.199   1.655  0.2102 -1.2598  0.4973
  112SOL    HW2  447   1.324   1.063   1.660 -0.0354  0.4099  0.8400
  112SOL     MW  448   1.329   1.149   1.664 -0.0357  0.1820  0.8773
  113SOL     OW  449   1.223   2.975   1.730 -0.1283 -0.1678  0.1475
  113SOL    HW1  450   1.208   2.931   1.815  2.7423  1.9679  2.0836
  113SOL    HW2  451   1.205   2.915   1.659  0.0963 -0.2841  0.0506
  113SOL     MW  452   1.218   2.961   1.732  0.2801  0.0986  0.3902
  114SOL     OW  453   0.354   2.898   1.792 -0.7327 -0.1674  0.1964
  114SOL    HW1  454   0.438   2.927   1.820 -3.6341 -1.1369  0.7139
  114SOL    HW2  455   0.306   2.928   1.870  1.1630 -0.2085  2.5224
  114SOL     MW  456   0.359   2.906   1.806 -0.8654 -0.3007  0.5716
  115SOL     OW  457   0.563   0.884   1.174 -0.1329 -0.1476 -0.4082
  115SOL    HW1  458   0.527   0.801   1.146 -0.6284  2.4509  0.5023
  115SOL    HW2  459   0.490   0.924   1.222 -0.4583  0.7449  3.6955
  115SOL     MW  460   0.548   0.878   1.177 -0.2412  0.3130  0.2534
  116SOL     OW  461   0.686   1.115   1.006  0.6074  0.1464  0.0437
  116SOL    HW1  462   0.746   1.152   0.938 -3.5101  1.9774 -0.9537
  116SOL    HW2  463   0.720   1.153   1.090 -0.5846 -2.3711  0.0081
  116SOL     MW  464   0.698   1.124   1.008 -0.0931  0.0558 -0.0926
  117SOL     OW  465   1.096   1.302   0.777 -0.4958 -0.4053 -0.3577
  117SOL    HW1  466   1.125   1.255   0.851 -1.0923  1.1362  0.8990
  117SOL    HW2  467   1.093   1.401   0.794  0.2350 -0.0615 -2.2242
  117SOL     MW  468   1.099   1.309   0.789 -0.4781 -0.1566 -0.4382
  118SOL     OW  469   3.087   2.967   1.815  0.7020  0.3301  0.3467
  118SOL    HW1  470   3.115   3.050   1.852 -1.3951 -1.9605  1.4552
  118SOL    HW2  471   2.994   2.988   1.802  2.7613  1.1713 -0.0948
  118SOL     MW  472   3.079   2.980   1.818  0.6970  0.1389  0.4347
  119SOL     OW  473   0.382   1.521   1.285  0.3810 -0.6611  0.3695
  119SOL    HW1  474   0.436   1.595   1.263  1.3907 -0.0015  1.8066
  119SOL    HW2  475   0.304   1.523   1.228  0.4346  0.2387 -0.4120
  119SOL     MW  476   0.379   1.531   1.275  0.5213 -0.4553  0.4560
  120SOL     OW  477   0.295   0.883   0.969 -0.1912 -0.4705 -0.5791
  120SOL    HW1  478   0.273   0.961   1.021  0.0414 -2.6909  1.7839
  120SOL    HW2  479   0.380   0.895   0.925  1.2990  1.4855  2.5606
  120SOL     MW  480   0.303   0.895   0.970  0.0361 -0.5054  0.1469
  121SOL     OW  481   1.753   1.108   1.602  0.0874 -0.0467  0.2520
  121SOL    HW1  482   1.702   1.134   1.524  1.1117  2.0571 -0.5537
  121SOL    HW2  483   1.819   1.042   1.573  3.9667 -0.9190  1.0119
  121SOL     MW  484   1.755   1.103   1.588  0.7344  0.1158  0.2460
  122SOL     OW  485   0.161   0.678   0.875 -0.2826  0.4076 -0.2269
  122SOL    HW1  486   0.236   0.617   0.844  1.3083  0.7211 -0.8284
  122SOL    HW2  487   0.202   0.742   0.938 -1.0537 -4.2757  0.5230
  122SOL     MW  488   0.176   0.678   0.879 -0.1745 -0.1690 -0.2073
  123SOL     OW  489   1.850   1.118   0.542 -0.4335  0.1279  0.1845
  123SOL    HW1  490   1.781   1.050   0.521 -1.2866  2.1252  1.3110
  123SOL    HW2  491   1.889   1.097   0.627 -0.8535  0.4454  1.0658
  123SOL     MW  492   1.846   1.106   0.551 -0.6015  0.4333  0.4494
  124SOL     OW  493   0.649   0.451   0.840  1.0823  0.1518 -0.7301
  124SOL    HW1  494   0.560   0.465   0.798 -1.3484 -1.4789  0.0306
  124SOL    HW2  495   0.681   0.540   0.838 -0.6412 -0.6810  0.4365
  124SOL     MW  496   0.642   0.465   0.835  0.5342 -0.1732 -0.4758
  125SOL     OW  497   0.675   1.723   1.720 -0.5141  0.7790 -0.1621
  125SOL    HW1  498   0.687   1.709   1.625  0.3050  0.4301 -3.2020
  125SOL    HW2  499   0.608   1.794   1.733 -1.0823  0.8722 -0.8997
  125SOL     MW  500   0.668   1.731   1.709 -0.4810  0.7453 -0.6605
  126SOL     OW  501   2.121   1.553   1.879  0.1561 -0.0409 -0.7713
  126SOL    HW1  502   2.173   1.632   1.862 -0.5355  2.6990 -0.1732
  126SOL    HW2  503   2.177   1.481   1.910 -0.0206 -0.3834  0.2609
  126SOL     MW  504   2.135   1.554   1.881  0.0415  0.2754 -0.5562
  127SOL     OW  505   0.505   0.775   1.842  0.5368 -0.6258 -0.0698
  127SOL    HW1  506   0.597   0.793   1.808  0.8450  1.6924 -2.1393
  127SOL    HW2  507   0.495   0.824   1.920 -0.1008  1.6220  0.1943
  127SOL     MW  508   0.516   0.784   1.848  0.4933 -0.0233 -0.3080
  128SOL     OW  509   1.752   0.756   2.865 -0.2654  0.5938 -0.1599
  128SOL    HW1  510   1.787   0.745   2.774 -1.6771  1.1314  0.6495
  128SOL    HW2  511   1.736   0.853   2.867 -1.1157  1.6658 -1.3430
  128SOL     MW  512   1.754   0.768   2.853 -0.5638  0.8061 -0.2092
  129SOL     OW  513   1.596   0.934   0.157  0.5550  0.6395 -0.0543
  129SOL    HW1  514   1.565   0.857   0.113  0.6219  2.3602 -1.0260
  129SOL    HW2  515   1.648   0.899   0.231  0.6145  0.7372 -1.0737
  129SOL     MW  516   1.599   0.919   0.161  0.5716  0.8795 -0.3170
  130SOL     OW  517   0.875   1.449   0.326  0.2064  0.4104  0.0973
  130SOL    HW1  518   0.879   1.439   0.417  0.7861 -1.7157  0.1039
  130SOL    HW2  519   0.960   1.483   0.301 -3.0368  0.4831 -2.7098
  130SOL     MW  520   0.887   1.452   0.334 -0.1450  0.1395 -0.2722
  131SOL     OW  521   0.064   0.812   0.077  0.0020  0.4602 -0.5866
  131SOL    HW1  522   0.053   0.833  -0.012  0.2943  1.3721 -0.6106
  131SOL    HW2  523   0.114   0.724   0.071 -0.9305 -0.7339 -0.9694
  131SOL     MW  524   0.069   0.804   0.065 -0.0825  0.4230 -0.6403
  132SOL     OW  525   2.732   0.078   1.232  0.1220 -0.3077 -0.3949
  132SOL    HW1  526   2.772   0.065   1.146 -1.0509 -0.2509 -2.4466
  132SOL    HW2  527   2.639   0.089   1.218  2.4787  0.2749 -1.6467
  132SOL     MW  528   2.725   0.078   1.219  0.2782 -0.2234 -0.8308
  133SOL     OW  529   1.067   0.114   1.743  0.3124  0.3449 -0.0977
  133SOL    HW1  530   1.118   0.034   1.749 -0.7233 -0.1820 -0.7630
  133SOL    HW2  531   1.087   0.171   1.822 -0.1557 -2.1991  0.3643
  133SOL     MW  532   1.077   0.111   1.754  0.1140 -0.0603 -0.1245
  134SOL     OW  533   1.409   2.500   1.456  0.0360 -0.3828  0.0567
  134SOL    HW1  534   1.400   2.568   1.393 -1.5254 -2.8084  0.4170
  134SOL    HW2  535   1.436   2.536   1.548  3.3623  0.9961  1.7459
  134SOL     MW  536   1.412   2.513   1.460  0.2689 -0.5209  0.3271
  135SOL     OW  537   3.013   1.011   2.930 -0.2391 -0.2785 -0.4304
  135SOL    HW1  538   3.078   1.055   2.980 -1.4714 -0.8943 -1.2111
  135SOL    HW2  539   2.957   1.089   2.900 -2.2965  0.5156 -2.2896
  135SOL     MW  540   3.014   1.027   2.933 -0.6731 -0.2550 -0.7787
  136SOL     OW  541   0.151   2.001   0.860 -0.1798 -0.1141 -0.1820
  136SOL    HW1  542   0.076   1.933   0.851 -1.6472  1.9972  0.8237
  136SOL    HW2  543   0.232   1.958   0.830  1.0778  1.8628  0.8903
  136SOL     MW  544   0.152   1.986   0.855 -0.2075  0.4253  0.0922
  137SOL     OW  545   0.743   2.076   0.602  0.2821 -0.2662  0.4749
  137SOL    HW1  546   0.785   2.089   0.689 -1.1433 -2.2389 -0.2666
  137SOL    HW2  547   0.649   2.101   0.613  0.8183  0.0821 -0.3061
  137SOL     MW  548   0.737   2.081   0.615  0.1648 -0.4805  0.2740
  138SOL     OW  549   0.513   0.605   1.070  0.6499  0.3576 -0.2714
  138SOL    HW1  550   0.423   0.584   1.089 -1.5719  0.7632 -1.3645
  138SOL    HW2  551   0.544   0.548   1.006 -0.8630  0.3321 -1.1035
  138SOL     MW  552   0.505   0.595   1.064  0.1572  0.4077 -0.5254
  139SOL     OW  553   2.860   0.489   1.337 -0.0411 -0.1881 -0.5720
  139SOL    HW1  554   2.954   0.465   1.350  1.6292 -0.5050 -1.3162
  139SOL    HW2  555   2.839   0.548   1.410  0.5042  0.0886 -1.2854
  139SOL     MW  556   2.869   0.493   1.348  0.2512 -0.1934 -0.7643
  140SOL     OW  557   0.904   0.485   1.954  0.2226 -0.5771 -0.3351
  140SOL    HW1  558   0.985   0.437   1.952 -0.6978 -1.5372 -2.7045
  140SOL    HW2  559   0.861   0.459   2.037 -0.9379 -2.4231  1.9720
  140SOL     MW  560   0.909   0.475   1.965 -0.0520 -0.9473 -0.3434
  141SOL     OW  561   1.112   0.661   1.718 -0.0155  0.6117  0.3907
  141SOL    HW1  562   1.124   0.588   1.654 -1.6461  1.0453  0.8813
  141SOL    HW2  563   1.160   0.626   1.793  2.6870 -0.2920  1.7329
  141SOL     MW  564   1.120   0.646   1.720  0.1259  0.5497  0.6325
  142SOL     OW  565   0.841   1.171   0.764 -0.4273 -0.4040  0.2444
  142SOL    HW1  566   0.891   1.103   0.716 -0.9393  1.3073  0.9981
  142SOL    HW2  567   0.918   1.223   0.804  2.1391  0.7351  1.0284
  142SOL     MW  568   0.857   1.169   0.763 -0.1562 -0.0279  0.4473
  143SOL     OW  569   1.836   0.727   1.054 -0.1062 -0.0822 -0.3449
  143SOL    HW1  570   1.892   0.684   0.990 -0.2193  3.9066  0.4473
  143SOL    HW2  571   1.747   0.725   1.012 -1.6995  2.5440 -2.1170
  143SOL     MW  572   1.832   0.721   1.040 -0.3314  0.7906 -0.4742
  144SOL     OW  573   0.240   1.327   1.757 -0.3536  0.3551 -0.3244
  144SOL    HW1  574   0.305   1.400   1.762  0.1222 -3.2500  1.2285
  144SOL    HW2  575   0.276   1.253   1.802  0.1175  0.4534  1.4607
  144SOL     MW  576   0.253   1.327   1.764 -0.2287 -0.1076  0.1160
  145SOL     OW  577   0.226   0.492   1.178 -0.0140 -0.2845  0.0451
  145SOL    HW1  578   0.258   0.407   1.208 -1.1378  3.2846  1.8850
  145SOL    HW2  579   0.168   0.462   1.103  1.5146 -0.9618 -3.5588
  145SOL     MW  580   0.223   0.477   1.172  0.0394  0.0971 -0.1876
  146SOL     OW  581   0.792   1.971   1.548  0.0227  0.7789  0.4965
  146SOL    HW1  582   0.852   2.004   1.485 -0.7652  1.4375 -1.8230
  146SOL    HW2  583   0.734   1.916   1.490 -0.3330 -1.5881  1.2297
  146SOL     MW  584   0.792   1.968   1.532 -0.1282  0.5535  0.2872
  147SOL     OW  585   0.435   0.529   3.006  0.2312 -0.1868 -0.1985
  147SOL    HW1  586   0.347   0.542   3.046  0.7359 -0.5988  3.7143
  147SOL    HW2  587   0.422   0.572   2.919 -0.4608 -0.3805 -0.2257
  147SOL     MW  588   0.422   0.536   3.000  0.2065 -0.2667  0.3142
  148SOL     OW  589   0.012   0.882   1.314  0.0425 -0.3188  0.0904
  148SOL    HW1  590   0.105   0.863   1.315  0.0549  0.1730 -1.5337
  148SOL    HW2  591   0.007   0.975   1.336  0.1771  1.7407  1.3840
  148SOL     MW  592   0.024   0.892   1.317  0.0619  0.0178  0.0468
  149SOL     OW  593   1.529   1.215   1.440 -0.4105  0.3238  0.0159
  149SOL    HW1  594   1.474   1.189   1.521 -3.5803  0.3307  3.2093
  149SOL    HW2  595   1.519   1.310   1.427 -0.4674  1.0838 -0.5257
  149SOL     MW  596   1.520   1.224   1.449 -0.8362  0.4250  0.3658
  150SOL     OW  597   1.707   1.455   0.880 -0.4686 -0.3171  0.1963
  150SOL    HW1  598   1.778   1.398   0.895  1.7221  3.3325  0.3231
  150SOL    HW2  599   1.752   1.539   0.881  1.7606 -0.1695 -2.0515
  150SOL     MW  600   1.722   1.459   0.882  0.1146  0.1839 -0.0835
  151SOL     OW  601   1.590   1.855   0.820 -0.0638 -0.4500 -0.4834
  151SOL    HW1  602   1.573   1.838   0.725 -1.3757 -1.3861  0.1724
  151SOL    HW2  603   1.524   1.798   0.864 -1.3649 -1.0046 -1.0260
  151SOL     MW  604   1.579   1.846   0.813 -0.4086 -0.6467 -0.4685
  152SOL     OW  605   0.654   1.422   1.594  0.1778  0.4684 -0.0074
  152SOL    HW1  606   0.697   1.451   1.515 -4.0616 -2.7857 -0.1648
  152SOL    HW2  607   0.600   1.342   1.572  0.9614  0.8436 -1.7619
  152SOL     MW  608   0.653   1.415   1.581 -0.2781  0.0886 -0.2597
  153SOL     OW  609   2.612   1.210   0.731  0.2502 -0.0384  0.2577
  153SOL    HW1  610   2.685   1.181   0.681 -0.8177 -0.5972  0.8230
  153SOL    HW2  611   2.550   1.142   0.746  0.4006 -2.3236  0.4927
  153SOL     MW  612   2.614   1.198   0.726  0.1291 -0.4137  0.3632
  154SOL     OW  613   0.123   1.783   1.762 -0.3266  0.1559  0.2705
  154SOL    HW1  614   0.095   1.687   1.724 -1.7292 -1.3598  0.1240
  154SOL    HW2  615   0.223   1.787   1.771  1.0847 -0.9140 -0.0121
  154SOL     MW  616   0.132   1.771   1.758 -0.3255 -0.1852  0.2139
  155SOL     OW  617   1.162   0.693   0.293 -0.3769  0.0221  0.1546
  155SOL    HW1  618   1.137   0.672   0.384  1.5178  2.2229 -3.5082
  155SOL    HW2  619   1.143   0.791   0.283  1.4519  3.7657  1.0944
  155SOL     MW  620   1.156   0.703   0.303  0.1144  0.8064 -0.2047
  156SOL     OW  621   1.570   0.009   1.099  0.0775 -0.4586 -0.2938
  156SOL    HW1  622   1.619   0.044   1.178  4.0150 -0.2751  2.4079
  156SOL    HW2  623   1.605  -0.082   1.085 -0.1306  1.2598 -1.5119
  156SOL     MW  624   1.581   0.002   1.107  0.5696 -0.2077 -0.0980
  157SOL     OW  625   1.258   1.147   0.159 -0.2499 -0.1064 -0.3474
  157SOL    HW1  626   1.250   1.080   0.232  1.7634  2.5203  1.4196
  157SOL    HW2  627   1.350   1.166   0.158  2.0245 -1.4450  0.9418
  157SOL     MW  628   1.269   1.141   0.168  0.3158  0.0636  0.0559
  158SOL     OW  629   0.357   1.649   2.315 -0.7416 -0.2788  0.6493
  158SOL    HW1  630   0.329   1.692   2.235 -2.3698 -0.2657 -0.2189
  158SOL    HW2  631   0.299   1.697   2.375  2.1756  2.1267  3.0681
  158SOL     MW  632   0.346   1.661   2.313 -0.5716  0.0403  0.8539
  159SOL     OW  633   1.210   1.722   0.496 -0.0122  0.0621 -0.4524
  159SOL    HW1  634   1.177   1.667   0.425  0.2248 -1.7003  0.1661
  159SOL    HW2  635   1.137   1.760   0.539  1.2327 -0.5352  0.0957
  159SOL     MW  636   1.196   1.720   0.492  0.1833 -0.2492 -0.2985
  160SOL     OW  637   0.482   1.153   1.533 -0.6450  0.4253 -0.0161
  160SOL    HW1  638   0.441   1.106   1.612  1.4857 -1.6259  1.4680
  160SOL    HW2  639   0.571   1.125   1.519  0.5359 -0.9933  0.1766
  160SOL     MW  640   0.488   1.143   1.542 -0.2081 -0.0325  0.2051
  161SOL     OW  641   0.488   2.306   2.662  0.2647 -0.0445 -0.5366
  161SOL    HW1  642   0.405   2.359   2.648 -3.7071  0.6343 -0.8246
  161SOL    HW2  643   0.473   2.232   2.607 -1.6648  1.0592  0.3140
  161SOL     MW  644   0.475   2.303   2.653 -0.5139  0.1906 -0.4624
  162SOL     OW  645   1.097   1.804   1.828  0.3835  0.1240  0.4040
  162SOL    HW1  646   1.122   1.893   1.867  1.3343  0.2310  1.7681
  162SOL    HW2  647   1.011   1.791   1.876 -2.4072  2.8222  2.9614
  162SOL     MW  648   1.089   1.814   1.840  0.1408  0.4941  0.9214
  163SOL     OW  649   2.131   3.035   0.805 -0.1067 -0.1592 -0.1223
  163SOL    HW1  650   2.090   3.114   0.769 -1.1674 -0.1460  0.5685
  163SOL    HW2  651   2.071   2.961   0.783 -2.5215 -1.4699 -1.1864
  163SOL     MW  652   2.118   3.036   0.797 -0.5653 -0.3304 -0.1716
  164SOL     OW  653   0.219   0.232   0.798 -0.4844 -0.8512 -0.5425
  164SOL    HW1  654   0.121   0.213   0.821 -0.7471 -0.8630 -1.4304
  164SOL    HW2  655   0.255   0.164   0.739  1.0538 -1.6101 -0.7611
  164SOL     MW  656   0.211   0.220   0.793 -0.3161 -0.9529 -0.6885
  165SOL     OW  657   1.152   1.291   0.375 -0.1359  0.2215  0.3918
  165SOL    HW1  658   1.166   1.248   0.453 -0.9485  0.5569  0.9158
  165SOL    HW2  659   1.206   1.240   0.309 -0.3707 -1.6091 -1.1139
  165SOL     MW  660   1.161   1.279   0.377 -0.2741  0.0242  0.2623
  166SOL     OW  661   0.345   1.168   1.057 -0.6341  0.8741 -0.2709
  166SOL    HW1  662   0.362   1.173   1.152  1.1948  1.3545  0.4655
  166SOL    HW2  663   0.424   1.139   1.018  0.9959  0.0759 -0.3620
  166SOL     MW  664   0.358   1.165   1.065 -0.1777  0.8322 -0.1858
  167SOL     OW  665   0.798   1.165   0.393  0.0507 -0.7243  0.3653
  167SOL    HW1  666   0.825   1.261   0.387 -0.8760 -0.4526 -1.4791
  167SOL    HW2  667   0.831   1.143   0.307 -1.5034 -0.2089  0.9733
  167SOL     MW  668   0.806   1.175   0.381 -0.2767 -0.6204  0.2022
  168SOL     OW  669   1.685   1.637   3.046 -0.3183  0.6281  0.5131
  168SOL    HW1  670   1.605   1.690   3.028 -3.0511 -1.7427 -0.2002
  168SOL    HW2  671   1.678   1.552   3.000  0.1108  1.0185  0.1185
  168SOL     MW  672   1.673   1.632   3.037 -0.6222  0.3668  0.3669
  169SOL     OW  673   0.302   0.926   1.346 -0.0831 -0.6323  0.2796
  169SOL    HW1  674   0.339   0.862   1.402  2.4328 -2.3192 -1.8350
  169SOL    HW2  675   0.291   1.006   1.394  0.1623  1.3287  2.0242
  169SOL     MW  676   0.305   0.928   1.360  0.2812 -0.5961  0.2308
  170SOL     OW  677   1.099   1.565   1.460 -0.3068  0.1184 -0.1253
  170SOL    HW1  678   1.040   1.625   1.503  0.5933 -0.6956  1.9230
  170SOL    HW2  679   1.098   1.572   1.364  2.8997  2.5728 -1.6590
  170SOL     MW  680   1.091   1.574   1.453  0.2350  0.3348 -0.0574
  171SOL     OW  681   0.488   1.512   0.515  0.2508 -0.3720 -0.6237
  171SOL    HW1  682   0.401   1.533   0.496  0.8581  2.4949 -1.7687
  171SOL    HW2  683   0.505   1.420   0.525 -0.0406  2.5924  2.3733
  171SOL     MW  684   0.479   1.503   0.514  0.2925  0.3973 -0.3793
  172SOL     OW  685   0.766   0.294   1.276  0.2901  0.0204  0.4859
  172SOL    HW1  686   0.751   0.225   1.209  3.1237 -3.0509 -0.7811
  172SOL    HW2  687   0.812   0.234   1.336 -0.3768  3.6192  0.9461
  172SOL     MW  688   0.770   0.277   1.275  0.5760  0.0900  0.3794
  173SOL     OW  689   0.501   1.764   0.304  0.0583 -0.5848 -0.5077
  173SOL    HW1  690   0.524   1.666   0.295  2.5716  0.1869 -0.5841
  173SOL    HW2  691   0.509   1.795   0.395 -3.1897  0.8928  0.4901
  173SOL     MW  692   0.505   1.755   0.315 -0.0386 -0.2880 -0.3862
  174SOL     OW  693   1.920   0.891   1.510  0.3516  0.4473 -0.0862
  174SOL    HW1  694   1.844   0.841   1.539  1.2894 -0.7598 -1.3486
  174SOL    HW2  695   1.909   0.896   1.413 -0.8974  2.9598 -3.2744
  174SOL     MW  696   1.909   0.885   1.501  0.3105  0.6195 -0.6734
  175SOL     OW  697   0.597   1.483   0.226 -0.0817  0.1710  0.3520
  175SOL    HW1  698   0.537   1.432   0.279  0.0543  0.7752  1.0644
  175SOL    HW2  699   0.690   1.474   0.252  0.5219  2.1396  0.4025
  175SOL     MW  700   0.601   1.475   0.237  0.0159  0.5105  0.4527
  176SOL     OW  701   0.092   1.504   1.225 -0.1175 -0.1464 -0.5738
  176SOL    HW1  702   0.087   1.455   1.139 -3.1280 -1.5693  0.5811
  176SOL    HW2  703   0.012   1.482   1.270 -0.7662  3.8454  2.2856
  176SOL     MW  704   0.081   1.495   1.219 -0.6003  0.1926 -0.0441
  177SOL     OW  705   0.518   0.267   1.428  0.5127  0.5177  0.1979
  177SOL    HW1  706   0.573   0.292   1.354  2.4160 -0.0902  0.5143
  177SOL    HW2  707   0.516   0.348   1.477  2.2155 -0.5060  1.8402
  177SOL     MW  708   0.525   0.281   1.425  0.9885  0.3024  0.4563
  178SOL     OW  709   0.007   0.616   2.947  0.0988  0.8774 -0.5533
  178SOL    HW1  710  -0.070   0.600   2.993 -1.7982  0.9927 -2.2535
  178SOL    HW2  711  -0.029   0.621   2.865  3.7999 -0.7158 -0.4179
  178SOL     MW  712  -0.008   0.614   2.942  0.3368  0.6824 -0.7597
  179SOL     OW  713   1.563   1.481   1.367  0.5266 -0.1513 -0.0067
  179SOL    HW1  714   1.579   1.486   1.465 -1.7591  1.6261 -0.3546
  179SOL    HW2  715   1.655   1.458   1.346 -0.3593  0.1897 -0.1359
  179SOL     MW  716   1.577   1.479   1.377  0.1081  0.1282 -0.0697
  180SOL     OW  717   0.048   0.238   0.431  0.1463 -0.4461  0.1769
  180SOL    HW1  718  -0.032   0.277   0.389  0.1317  1.3201  1.7819
  180SOL    HW2  719   0.096   0.320   0.443  1.1946  0.5130  0.3575
  180SOL     MW  720   0.044   0.254   0.427  0.2827 -0.0865  0.4125
  181SOL     OW  721   1.085   1.332   0.041  0.1494 -0.4897  0.0751
  181SOL    HW1  722   1.134   1.322   0.119 -3.0888  1.2404  2.8801
  181SOL    HW2  723   1.129   1.276  -0.021  2.4345 -0.0986 -1.7754
  181SOL     MW  724   1.097   1.323   0.043  0.0237 -0.2098  0.2011
  182SOL     OW  725   0.356   0.889   1.614 -0.2011  0.8521  0.0510
  182SOL    HW1  726   0.269   0.908   1.653  2.0406  0.1310  2.0302
  182SOL    HW2  727   0.395   0.848   1.689 -0.7664  0.2162  1.3693
  182SOL     MW  728   0.350   0.886   1.629  0.0201  0.6731  0.4861
  183SOL     OW  729   1.546   1.738   1.278  0.1048 -0.2256 -0.2698
  183SOL    HW1  730   1.637   1.755   1.287 -0.8419  1.8050  0.7913
  183SOL    HW2  731   1.530   1.665   1.346  1.0580 -0.0123 -0.7351
  183SOL     MW  732   1.556   1.730   1.288  0.1056  0.0704 -0.1912
  184SOL     OW  733   0.843   0.630   1.713  0.3838  0.2338 -0.7744
  184SOL    HW1  734   0.929   0.673   1.701 -1.3690 -1.0539 -0.3853
  184SOL    HW2  735   0.858   0.582   1.796  0.3493  0.9410 -1.0047
  184SOL     MW  736   0.856   0.629   1.722  0.1480  0.1572 -0.7534
  185SOL     OW  737   1.079   0.964   1.871 -0.4425 -0.3534 -0.1821
  185SOL    HW1  738   1.060   0.876   1.914 -1.7523  0.9256 -1.7168
  185SOL    HW2  739   1.113   1.017   1.943 -1.9008  2.2402  0.7423
  185SOL     MW  740   1.081   0.959   1.886 -0.8077  0.1576 -0.2626
  186SOL     OW  741   0.265   1.629   1.527  0.4984  0.3672 -0.3073
  186SOL    HW1  742   0.287   1.574   1.452  3.7144  1.0610  1.1584
  186SOL    HW2  743   0.184   1.589   1.564  0.9854  1.5692 -0.0099
  186SOL     MW  744   0.257   1.616   1.522  0.9870  0.6173 -0.0746
  187SOL     OW  745   1.409   0.829   1.358 -0.0371  0.5220  0.4577
  187SOL    HW1  746   1.429   0.838   1.451 -1.7698  0.7211 -0.8026
  187SOL    HW2  747   1.314   0.832   1.369 -0.1266  1.1509 -1.8655
  187SOL     MW  748   1.399   0.830   1.372 -0.2775  0.6312 -0.0151
  188SOL     OW  749   1.855   1.220   0.928  0.4618 -0.1874 -0.2005
  188SOL    HW1  750   1.896   1.227   1.016  0.0902 -0.4543 -0.4118
  188SOL    HW2  751   1.833   1.126   0.923 -0.3387 -0.9537  0.3711
  188SOL     MW  752   1.857   1.209   0.939  0.3072 -0.3237 -0.1530
  189SOL     OW  753   0.727   0.714   0.854  0.0004  0.2392 -0.0206
  189SOL    HW1  754   0.658   0.775   0.853  0.8596 -1.1011  0.8782
  189SOL    HW2  755   0.782   0.749   0.928  1.9116 -0.3346 -0.0302
  189SOL     MW  756   0.725   0.727   0.863  0.3659 -0.0134  0.0967
  190SOL     OW  757   1.884   0.278   2.038  0.3636  0.5063 -0.1864
  190SOL    HW1  758   1.855   0.236   2.122 -2.2128 -0.7734  0.0610
  190SOL    HW2  759   1.948   0.347   2.059  0.0578  0.9437 -0.8983
  190SOL     MW  760   1.888   0.282   2.052 -0.0166  0.3952 -0.2477
  191SOL     OW  761   1.521   1.047   1.229 -0.6460  0.3143 -0.2674
  191SOL    HW1  762   1.509   1.124   1.289 -0.7341  1.7941  1.8842
  191SOL    HW2  763   1.466   0.980   1.269 -0.1711 -0.6004  1.4856
  191SOL     MW  764   1.512   1.048   1.242 -0.5949  0.3889  0.2478
  192SOL     OW  765   0.504   2.199   2.954  0.2245  0.0295 -0.0189
  192SOL    HW1  766   0.504   2.255   2.874  1.2215 -1.2376 -1.9269
  192SOL    HW2  767   0.490   2.115   2.906  1.8153  0.2868  2.1301
  192SOL     MW  768   0.502   2.195   2.937  0.5660 -0.1037  0.0129
  193SOL     OW  769   0.833   1.668   0.792 -0.2618  0.2220 -0.1936
  193SOL    HW1  770   0.732   1.670   0.805 -1.1714  1.6822  0.7925
  193SOL    HW2  771   0.827   1.612   0.723  0.2181  2.7235  0.1412
  193SOL     MW  772   0.819   1.661   0.784 -0.3185  0.7447 -0.0193
  194SOL     OW  773   0.384   1.335   0.838  0.1234 -0.2826  0.1094
  194SOL    HW1  774   0.345   1.288   0.905 -1.3206  1.6957  1.4750
  194SOL    HW2  775   0.311   1.365   0.783  2.6163 -1.5437 -1.2786
  194SOL     MW  776   0.369   1.332   0.839  0.2618 -0.1879  0.1064
  195SOL     OW  777   1.228   1.119   2.986  0.2212 -0.0488 -0.9013
  195SOL    HW1  778   1.249   1.105   3.079  0.6151  2.4645  0.7694
  195SOL    HW2  779   1.152   1.054   2.974 -1.5370 -2.6963 -3.8017
  195SOL     MW  780   1.221   1.108   2.997  0.0412 -0.0665 -1.0635
  196SOL     OW  781   2.248   0.983   0.522 -0.1022 -0.5502  0.4034
  196SOL    HW1  782   2.299   0.961   0.443 -0.7041  1.5835 -3.5476
  196SOL    HW2  783   2.221   1.071   0.506  2.5879 -0.1860 -1.4736
  196SOL     MW  784   2.251   0.992   0.509  0.1733 -0.2206 -0.3655
  197SOL     OW  785   0.611   1.318   2.178 -0.4038 -0.5759  0.1755
  197SOL    HW1  786   0.647   1.255   2.114  1.3498 -1.1773 -0.6442
  197SOL    HW2  787   0.670   1.396   2.159  3.3326  0.2182  1.2955
  197SOL     MW  788   0.624   1.320   2.167  0.3205 -0.5505  0.2151
  198SOL     OW  789   2.920   1.395   1.020 -0.0808 -1.3428  0.6746
  198SOL    HW1  790   2.903   1.485   0.984 -0.2623 -1.7533 -0.1354
  198SOL    HW2  791   2.833   1.340   0.998 -1.1112  0.4269 -2.0961
  198SOL     MW  792   2.906   1.399   1.012 -0.2407 -1.1635  0.2022
  199SOL     OW  793   0.651   1.237   1.817 -0.0999 -0.7565  0.6164
  199SOL    HW1  794   0.559   1.225   1.832  2.5893 -0.6909  0.8395
  199SOL    HW2  795   0.654   1.316   1.752 -0.5049 -0.9527 -0.8374
  199SOL     MW  796   0.640   1.246   1.810  0.2014 -0.7737  0.4540
  200SOL     OW  797   1.849   2.964   1.294  0.4546 -0.0124  0.5001
  200SOL    HW1  798   1.921   2.956   1.223  0.2822 -0.1092 -1.1511
  200SOL    HW2  799   1.821   3.053   1.278  1.4028 -1.9461 -0.2892
  200SOL     MW  800   1.855   2.975   1.282  0.5569 -0.2803  0.1781
  201SOL     OW  801   1.185   0.296   0.853  0.1240  0.1025  0.0015
  201SOL    HW1  802   1.154   0.216   0.816  1.0233  1.4369  1.5576
  201SOL    HW2  803   1.273   0.269   0.883  0.0179 -2.2872  0.9015
  201SOL     MW  804   1.192   0.282   0.852  0.2286 -0.0367  0.3255
  202SOL     OW  805   1.458   1.709   1.011 -0.5989 -0.8813 -0.1420
  202SOL    HW1  806   1.476   1.619   0.974 -1.0771  0.2064  0.0830
  202SOL    HW2  807   1.488   1.700   1.103 -0.2177 -2.5437  2.0768
  202SOL     MW  808   1.464   1.696   1.018 -0.6117 -0.9571  0.1804
  203SOL     OW  809   0.016   0.412   1.346  0.0622  0.0405  0.2519
  203SOL    HW1  810   0.022   0.324   1.319 -0.2180  1.3751  1.7492
  203SOL    HW2  811   0.081   0.458   1.290 -1.1391  1.2987  0.0426
  203SOL     MW  812   0.025   0.406   1.335 -0.1333  0.3826  0.4219
  204SOL     OW  813   1.002   1.842   0.657  0.0954 -0.0282  0.0228
  204SOL    HW1  814   0.963   1.791   0.729 -2.1865  0.7508 -0.1755
  204SOL    HW2  815   0.940   1.835   0.581  2.0388 -0.3299 -2.3315
  204SOL     MW  816   0.989   1.834   0.656  0.0508  0.0347 -0.3140
  205SOL     OW  817   1.391   3.009   1.319 -0.5618 -0.1360  1.3529
  205SOL    HW1  818   1.422   3.025   1.231  0.9055  1.0521  0.6164
  205SOL    HW2  819   1.321   3.074   1.336 -2.4687 -3.3759  0.1234
  205SOL     MW  820   1.386   3.020   1.309 -0.6198 -0.4067  1.0935
  206SOL     OW  821   0.361   2.880   1.371 -0.4317 -0.6445  0.3437
  206SOL    HW1  822   0.364   2.920   1.285  0.2581  0.2479  0.7404
  206SOL    HW2  823   0.445   2.901   1.409  0.6292 -0.0042  0.2645
  206SOL     MW  824   0.372   2.888   1.364 -0.2007 -0.4422  0.3856
  207SOL     OW  825   0.866   1.733   0.222 -0.0550 -0.3804 -0.2298
  207SOL    HW1  826   0.951   1.759   0.181  0.5486  0.5864  1.7545
  207SOL    HW2  827   0.868   1.640   0.244 -2.4973 -1.4479  1.2228
  207SOL     MW  828   0.877   1.724   0.219 -0.2976 -0.3937  0.2237
  208SOL     OW  829   0.789   1.511   1.362 -0.0274 -0.4686  0.4641
  208SOL    HW1  830   0.870   1.551   1.334 -4.0877 -1.0830  1.3657
  208SOL    HW2  831   0.775   1.443   1.289  1.2354 -0.3406  0.0285
  208SOL     MW  832   0.798   1.507   1.348 -0.3965 -0.5328  0.5256
  209SOL     OW  833   1.613   0.478   2.827 -0.1450  0.2735 -0.1086
  209SOL    HW1  834   1.665   0.557   2.840  2.4208  1.3403  0.2849
  209SOL    HW2  835   1.649   0.432   2.751  0.2692  1.3442 -0.3369
  209SOL     MW  836   1.624   0.482   2.819  0.2482  0.5555 -0.0868
  210SOL     OW  837   1.454   1.412   0.964 -0.7268 -0.0552 -0.9237
  210SOL    HW1  838   1.546   1.426   0.951 -2.7989  0.8909  1.0564
  210SOL    HW2  839   1.420   1.438   0.876 -0.2131 -0.3416 -0.8645
  210SOL     MW  840   1.461   1.417   0.950 -0.9324  0.0319 -0.6546
  211SOL     OW  841   1.747   0.468   0.888  0.1200 -0.7564 -0.3525
  211SOL    HW1  842   1.759   0.480   0.798  1.1571  1.9974  0.3878
  211SOL    HW2  843   1.823   0.446   0.932 -2.3097 -0.0769 -2.9680
  211SOL     MW  844   1.759   0.467   0.882 -0.0637 -0.3034 -0.5999
  212SOL     OW  845   0.396   1.212   0.217  0.3181  0.5715  0.5102
  212SOL    HW1  846   0.367   1.121   0.219  3.0486  2.1412  0.2905
  212SOL    HW2  847   0.476   1.199   0.151  0.0382 -2.6526 -0.0673
  212SOL     MW  848   0.403   1.198   0.209  0.6414  0.3532  0.4050
  213SOL     OW  849   0.424   1.787   3.048  0.0999  0.0731  0.4099
  213SOL    HW1  850   0.474   1.842   3.107 -0.2978 -1.0037  1.6921
  213SOL    HW2  851   0.444   1.844   2.969  1.0643  2.1189  1.0647
  213SOL     MW  852   0.434   1.802   3.045  0.1747  0.2010  0.6655
  214SOL     OW  853   0.567   0.362   2.122 -0.3759  0.3124  0.0358
  214SOL    HW1  854   0.499   0.434   2.114  1.1119 -0.3308  2.1203
  214SOL    HW2  855   0.581   0.341   2.024  1.2114 -0.4780  0.1168
  214SOL     MW  856   0.560   0.369   2.108  0.0298  0.1232  0.3215
  215SOL     OW  857   0.517   0.515   2.486  0.6121  1.3886 -0.1098
  215SOL    HW1  858   0.460   0.567   2.431  2.3817  0.8731  0.5303
  215SOL    HW2  859   0.453   0.449   2.502  2.3539 -1.1697  1.5454
  215SOL     MW  860   0.501   0.513   2.481  1.0754  0.9830  0.1931
  216SOL     OW  861   2.917   3.093   2.850 -0.0923 -0.1178  0.6401
  216SOL    HW1  862   2.835   3.046   2.833 -1.0194  0.3070 -0.2906
  216SOL    HW2  863   2.932   3.154   2.785  3.9244 -0.9347  1.6898
  216SOL     MW  864   2.908   3.095   2.839  0.3153 -0.1695  0.6558
  217SOL     OW  865   0.948   1.092   0.150  0.0108 -0.2758 -0.0754
  217SOL    HW1  866   0.968   1.044   0.070  0.6110  3.3184  0.4304
  217SOL    HW2  867   0.990   1.175   0.130 -0.4734  2.6977 -0.5695
  217SOL     MW  868   0.956   1.097   0.136  0.0261  0.5907 -0.0738
  218SOL     OW  869   0.827   1.385   2.606 -0.7968  0.8034 -0.3871
  218SOL    HW1  870   0.802   1.322   2.672 -0.8574  0.6765 -2.2800
  218SOL    HW2  871   0.916   1.408   2.638 -0.0502 -0.9430  2.9244
  218SOL     MW  872   0.836   1.380   2.619 -0.7063  0.5562 -0.1999
  219SOL     OW  873   1.048   0.470   2.557  0.8091 -0.1009 -0.1758
  219SOL    HW1  874   1.107   0.531   2.603 -1.6261 -3.0383 -2.6645
  219SOL    HW2  875   0.970   0.519   2.530 -0.6216 -2.9592 -0.0971
  219SOL     MW  876   1.046   0.484   2.560  0.2991 -0.8656 -0.4938
  220SOL     OW  877   1.677   0.495   2.219 -0.3352 -0.0738  0.3808
  220SOL    HW1  878   1.603   0.549   2.185 -1.7828 -1.3802  0.3857
  220SOL    HW2  879   1.698   0.430   2.153  1.2297 -1.2584 -0.3616
  220SOL     MW  880   1.670   0.494   2.206 -0.3197 -0.4025  0.2835
  221SOL     OW  881   0.369   1.378   2.948 -0.3719 -0.3063 -0.2268
  221SOL    HW1  882   0.413   1.294   2.915  0.2899 -1.3247 -0.6659
  221SOL    HW2  883   0.435   1.450   2.921 -1.9698  1.3773 -0.6082
  221SOL     MW  884   0.384   1.376   2.940 -0.4954 -0.2185 -0.3350
  222SOL     OW  885   0.520   0.910   2.735 -0.0541 -0.2122  0.0222
  222SOL    HW1  886   0.427   0.887   2.726  0.1472  1.0095 -2.3643
  222SOL    HW2  887   0.563   0.822   2.734  0.0567  0.0868  1.3934
  222SOL     MW  888   0.513   0.896   2.734 -0.0129 -0.0115 -0.1117
  223SOL     OW  889   3.037   2.032   2.513  0.1948  0.1982  0.5529
  223SOL    HW1  890   3.030   2.054   2.604  2.1585  3.3277 -1.7171
  223SOL    HW2  891   3.060   2.110   2.463 -0.7655 -3.1147 -2.6626
  223SOL     MW  892   3.039   2.045   2.519  0.3272  0.1740 -0.1708
  224SOL     OW  893   1.466   0.641   2.418 -0.3219 -0.4723 -0.2068
  224SOL    HW1  894   1.541   0.606   2.473  1.0402  0.7470  0.0966
  224SOL    HW2  895   1.464   0.730   2.448 -1.1827 -0.9016 -0.7834
  224SOL     MW  896   1.476   0.648   2.429 -0.2558 -0.3681 -0.2428
  225SOL     OW  897   2.939   1.502   2.182 -0.2972  0.3208 -0.3960
  225SOL    HW1  898   2.984   1.586   2.154 -1.0103  0.3987  2.2705
  225SOL    HW2  899   2.871   1.514   2.246  0.6529  0.3689  0.7377
  225SOL     MW  900   2.936   1.514   2.187 -0.2659  0.3374  0.1054
  226SOL     OW  901   0.457   1.567   2.693  0.0487  0.1236 -0.0860
  226SOL    HW1  902   0.534   1.598   2.644  1.9879 -1.3644  0.8679
  226SOL    HW2  903   0.388   1.632   2.681 -0.7877 -2.8487 -0.0520
  226SOL     MW  904   0.458   1.580   2.685  0.1942 -0.4649  0.0444
  227SOL     OW  905   0.526   1.149   2.883 -0.1361  0.0763  0.4624
  227SOL    HW1  906   0.602   1.195   2.843 -2.2086  0.5314  1.4854
  227SOL    HW2  907   0.520   1.068   2.832 -1.2174 -1.5250 -1.9270
  227SOL     MW  908   0.535   1.144   2.871 -0.5522 -0.0749  0.2821
  228SOL     OW  909   0.786   1.099   2.022  0.2905  0.2051 -0.2327
  228SOL    HW1  910   0.744   1.135   1.949 -2.9819 -1.6969 -0.6856
  228SOL    HW2  911   0.877   1.127   2.013  1.2256 -0.8874 -0.7986
  228SOL     MW  912   0.792   1.108   2.011 -0.0178 -0.1900 -0.3672
  229SOL     OW  913   0.191   0.555   0.029 -0.7763  0.2689 -0.2067
  229SOL    HW1  914   0.121   0.558  -0.045  0.9626  1.7410 -0.3213
  229SOL    HW2  915   0.164   0.491   0.099  0.0726  2.1567  2.0261
  229SOL     MW  916   0.178   0.547   0.028 -0.4349  0.7122  0.0728
  230SOL     OW  917   1.764   1.347   2.136  0.4293 -0.1766  0.9958
  230SOL    HW1  918   1.674   1.309   2.156 -1.7353 -2.2779 -4.5827
  230SOL    HW2  919   1.829   1.276   2.160  0.3160 -1.1022 -0.9953
  230SOL     MW  920   1.761   1.333   2.142  0.1287 -0.5760 -0.0029
  231SOL     OW  921   2.720   1.279   2.222 -0.2660 -0.6849  0.5728
  231SOL    HW1  922   2.799   1.326   2.200 -1.6123  0.6395 -2.5311
  231SOL    HW2  923   2.669   1.306   2.142 -0.0018  0.9907 -2.5768
  231SOL     MW  924   2.724   1.289   2.209 -0.4087 -0.2891 -0.2523
  232SOL     OW  925   2.279   0.886   1.974 -0.5061  0.1855  0.3982
  232SOL    HW1  926   2.201   0.877   1.915 -2.1106 -1.2710  2.7192
  232SOL    HW2  927   2.253   0.835   2.053  0.5637 -0.1379 -0.7551
  232SOL     MW  928   2.265   0.878   1.977 -0.5767 -0.0494  0.5523
  233SOL     OW  929   2.100   0.443   2.061 -0.0418 -0.1276  0.5177
  233SOL    HW1  930   2.162   0.377   2.045 -3.3450  2.7435 -0.0103
  233SOL    HW2  931   2.121   0.474   2.146  2.3057  0.4911 -4.0210
  233SOL     MW  932   2.111   0.438   2.070 -0.1679  0.3328 -0.1508
  234SOL     OW  933   0.261   1.056   2.639  0.0977  0.0977 -0.4045
  234SOL    HW1  934   0.191   1.071   2.575  1.0593  3.2147 -3.1541
  234SOL    HW2  935   0.304   1.135   2.643 -1.3412 -1.1207 -1.0434
  234SOL     MW  936   0.257   1.068   2.631  0.0347  0.3482 -0.8516
  235SOL     OW  937   1.142   0.025   2.825 -0.5664  0.2039 -0.1804
  235SOL    HW1  938   1.171   0.023   2.917 -2.8581 -0.0713 -0.3491
  235SOL    HW2  939   1.129   0.119   2.811  1.3450  2.1259 -0.3890
  235SOL     MW  940   1.144   0.037   2.835 -0.6166  0.4212 -0.2302
  236SOL     OW  941   2.961   0.601   0.180  0.2689  0.5186  0.3796
  236SOL    HW1  942   2.978   0.629   0.269 -1.1354 -1.0092 -0.2098
  236SOL    HW2  943   3.002   0.662   0.123 -3.6837  1.5628  2.0001
  236SOL     MW  944   2.969   0.613   0.184 -0.4379  0.4548  0.5156
  237SOL     OW  945   1.899   1.113   2.111  0.0411  0.8075  0.1227
  237SOL    HW1  946   1.826   1.077   2.176 -2.0529  0.3586  2.5037
  237SOL    HW2  947   1.865   1.106   2.022 -1.8655 -0.0222  1.5064
  237SOL     MW  948   1.885   1.107   2.108 -0.4867  0.6388  0.6194
  238SOL     OW  949   1.091   1.718   2.899  0.0577  0.1074 -0.0541
  238SOL    HW1  950   1.035   1.645   2.920  1.3415  1.6356 -1.9970
  238SOL    HW2  951   1.183   1.686   2.915  0.2810 -1.8328  2.7501
  238SOL     MW  952   1.096   1.704   2.904  0.2566  0.0531  0.0595
  239SOL     OW  953   1.170   1.292   2.356 -0.0249 -0.4472  0.1274
  239SOL    HW1  954   1.084   1.327   2.364  0.3983 -0.8080  2.2806
  239SOL    HW2  955   1.199   1.266   2.444 -0.6702 -0.3688  1.1695
  239SOL     MW  956   1.163   1.293   2.369 -0.0542 -0.4844  0.5490
  240SOL     OW  957   0.572   0.845   2.315 -0.1462 -0.1424  0.0075
  240SOL    HW1  958   0.626   0.883   2.385  2.0383 -0.9911 -2.3701
  240SOL    HW2  959   0.639   0.812   2.266 -2.2631 -2.4741 -0.8614
  240SOL     MW  960   0.588   0.845   2.318 -0.1373 -0.5620 -0.4208
  241SOL     OW  961   0.691   0.453   0.001 -0.8694 -0.1687 -0.4684
  241SOL    HW1  962   0.720   0.511   0.072 -1.5549  2.2596 -0.6711
  241SOL    HW2  963   0.610   0.494  -0.031  2.3089  0.7465  3.3813
  241SOL     MW  964   0.685   0.466   0.006 -0.5405  0.2724  0.0128
  242SOL     OW  965   1.500   1.614   2.295  0.1944  0.1595  0.0501
  242SOL    HW1  966   1.445   1.690   2.320 -1.2775  1.0900 -3.7937
  242SOL    HW2  967   1.442   1.557   2.249  4.0213 -0.4535 -0.0916
  242SOL     MW  968   1.485   1.617   2.292  0.5051  0.2013 -0.4758
  243SOL     OW  969   0.969   0.247   2.400 -0.1983 -0.4958  0.4559
  243SOL    HW1  970   1.037   0.184   2.380 -1.8281 -0.1953  1.0051
  243SOL    HW2  971   1.013   0.315   2.457 -1.2404 -0.3008 -1.4207
  243SOL     MW  972   0.984   0.248   2.405 -0.5508 -0.4304  0.2808
  244SOL     OW  973   0.111   0.787   2.389  0.3751 -0.0111 -0.0597
  244SOL    HW1  974   0.108   0.871   2.428  1.7650  1.1565  0.8496
  244SOL    HW2  975   0.205   0.768   2.365  3.3652  0.7833  1.5659
  244SOL     MW  976   0.123   0.795   2.391  0.9530  0.2478  0.2747
  245SOL     OW  977   1.272   0.111   2.402  0.6139 -0.6267 -0.4613
  245SOL    HW1  978   1.327   0.082   2.335 -2.1840 -0.8135 -0.2985
  245SOL    HW2  979   1.297   0.056   2.475 -1.4494 -0.3312 -3.6872
  245SOL     MW  980   1.282   0.100   2.403 -0.0275 -0.6124 -0.8655
  246SOL     OW  981   1.184   1.100   2.084  0.0179 -0.7076 -0.0914
  246SOL    HW1  982   1.115   1.087   2.152 -0.5252 -2.1110  1.2239
  246SOL    HW2  983   1.255   1.060   2.140  0.9972 -2.3996  0.8940
  246SOL     MW  984   1.184   1.093   2.100  0.0755 -1.1160  0.2121
  247SOL     OW  985   0.778   0.642   0.185  0.1422 -0.0948  0.3373
  247SOL    HW1  986   0.753   0.736   0.174  0.5662  1.8912  0.0413
  247SOL    HW2  987   0.858   0.623   0.130  2.8218  1.3264 -1.2274
  247SOL     MW  988   0.785   0.652   0.176  0.5517  0.3547  0.0918
  248SOL     OW  989   0.335   1.334   2.620  0.6448  0.0778  0.3746
  248SOL    HW1  990   0.349   1.327   2.527  0.7167  1.3543 -0.1046
  248SOL    HW2  991   0.373   1.419   2.642 -1.2224  0.3403 -0.1682
  248SOL     MW  992   0.342   1.344   2.611  0.4079  0.2809  0.2397
  249SOL     OW  993   3.030   1.921   2.797  0.0248 -0.0937 -0.0501
  249SOL    HW1  994   2.974   1.845   2.787 -1.3803 -1.0037  2.2146
  249SOL    HW2  995   3.078   1.910   2.879  0.3917 -1.8933 -0.1857
  249SOL     MW  996   3.029   1.910   2.806 -0.1122 -0.4512  0.2308
  250SOL     OW  997   2.272   0.715   2.188 -0.1499 -0.6819  0.3694
  250SOL    HW1  998   2.205   0.660   2.220  2.7307  1.7641 -2.3142
  250SOL    HW2  999   2.344   0.717   2.261 -0.0071  1.0138  0.0837
  250SOL     MW 1000   2.273   0.708   2.202  0.2490 -0.1354 -0.0224
  251SOL     OW 1001   0.175   0.872   2.024 -0.1504 -0.1832 -0.3762
  251SOL    HW1 1002   0.141   0.790   2.040  1.3919  1.9078 -0.6150
  251SOL    HW2 1003   0.131   0.904   1.947  2.0477  1.4783 -2.0185
  251SOL     MW 1004   0.165   0.865   2.016  0.3431  0.3119 -0.6244
  252SOL     OW 1005   1.702   1.035   2.880 -0.3492 -0.2732  0.1558
  252SOL    HW1 1006   1.713   1.046   2.974  2.0673 -1.2749 -1.0551
  252SOL    HW2 1007   1.789   1.039   2.855  0.5958  0.0021 -0.6975
  252SOL     MW 1008   1.715   1.037   2.889  0.0943 -0.3690 -0.1165
  253SOL     OW 1009   1.141   1.673   2.544 -0.2384 -0.1879 -0.0599
  253SOL    HW1 1010   1.135   1.638   2.449 -1.3231 -2.0140 -2.6987
  253SOL    HW2 1011   1.062   1.733   2.538  1.4450  0.7184  1.8651
  253SOL     MW 1012   1.130   1.677   2.530 -0.1594 -0.3093 -0.1541
  254SOL     OW 1013   0.982   1.048   2.259  0.3327  0.0024  0.5907
  254SOL    HW1 1014   0.917   0.981   2.237 -1.3316 -1.3733  0.2257
  254SOL    HW2 1015   0.932   1.122   2.298 -0.7642 -0.4785 -1.5363
  254SOL     MW 1016   0.967   1.049   2.261 -0.0316 -0.2426  0.2619
  255SOL     OW 1017   0.855   2.487   2.138  0.0356 -0.3454 -0.1840
  255SOL    HW1 1018   0.788   2.435   2.102  0.7182  1.0041  0.2176
  255SOL    HW2 1019   0.928   2.442   2.191  1.6953  1.9871  0.9466
  255SOL     MW 1020   0.856   2.474   2.141  0.3447  0.1404  0.0182
  256SOL     OW 1021   1.349   2.795   3.066  0.1626  0.5379 -0.1712
  256SOL    HW1 1022   1.339   2.703   3.085 -0.3277  0.8164 -2.3152
  256SOL    HW2 1023   1.378   2.790   2.976  0.6032 -1.0096  1.3814
  256SOL     MW 1024   1.351   2.782   3.057  0.1561  0.3704 -0.2492
  257SOL     OW 1025   0.058   1.965   0.055 -0.3085  0.5324 -0.7273
  257SOL    HW1 1026   0.099   1.922   0.128  1.8690  2.2415  0.9815
  257SOL    HW2 1027   0.086   1.923  -0.027 -0.1914  1.6385 -0.8475
  257SOL     MW 1028   0.067   1.954   0.054 -0.0057  0.9038 -0.5177
  258SOL     OW 1029   0.692   0.991   2.519  0.2751 -0.3110  0.6233
  258SOL    HW1 1030   0.689   1.076   2.475  1.4100  2.6569  0.9895
  258SOL    HW2 1031   0.627   0.969   2.593 -2.0621 -1.0397  0.3044
  258SOL     MW 1032   0.683   0.999   2.523  0.1165 -0.0155  0.6296
  259SOL     OW 1033   0.810   0.412   2.250 -0.0008 -0.2669  0.5579
  259SOL    HW1 1034   0.719   0.395   2.229  2.7978  0.1876 -0.8586
  259SOL    HW2 1035   0.834   0.335   2.306 -1.7138 -0.1973  0.6738
  259SOL     MW 1036   0.801   0.400   2.254  0.1424 -0.1977  0.3863
  260SOL     OW 1037   0.642   0.076   1.610  0.4069 -0.5288 -0.0297
  260SOL    HW1 1038   0.602   0.131   1.545  4.5772  2.4722  1.9845
  260SOL    HW2 1039   0.739   0.085   1.594 -2.6600  0.8136  0.8888
  260SOL     MW 1040   0.650   0.084   1.599  0.5525  0.0443  0.3572
  261SOL     OW 1041   1.018   0.735   2.015  0.2599  0.7490  0.6385
  261SOL    HW1 1042   1.093   0.718   2.075  1.3915  0.7967 -2.8806
  261SOL    HW2 1043   0.975   0.652   1.989  0.4504 -1.4647 -3.1678
  261SOL     MW 1044   1.022   0.722   2.019  0.4344  0.4632 -0.3280
  262SOL     OW 1045   1.122   0.305   0.142 -0.6761  0.5090  0.2439
  262SOL    HW1 1046   1.218   0.305   0.120  0.1686 -2.9961  2.3999
  262SOL    HW2 1047   1.073   0.276   0.065 -0.5956  0.6654 -0.3003
  262SOL     MW 1048   1.128   0.301   0.129 -0.5540  0.0672  0.4565
  263SOL     OW 1049   0.410  -0.002   2.470 -0.6054  0.1723  0.6069
  263SOL    HW1 1050   0.375   0.074   2.509 -1.6774  0.2505 -1.0716
  263SOL    HW2 1051   0.454   0.023   2.393 -0.3949 -1.9367  0.9462
  263SOL     MW 1052   0.411   0.011   2.465 -0.7190 -0.0957  0.4302
  264SOL     OW 1053   1.551   1.477   1.906 -0.2894 -0.6447  0.4659
  264SOL    HW1 1054   1.482   1.411   1.932  1.0755 -2.1224  1.2814
  264SOL    HW2 1055   1.623   1.459   1.966  0.4409  0.7141 -5.4453
  264SOL     MW 1056   1.551   1.466   1.918 -0.0130 -0.6604 -0.2064
  265SOL     OW 1057   0.711   2.780   2.322 -0.1499 -0.4447  0.7041
  265SOL    HW1 1058   0.776   2.709   2.321  0.1889 -0.4126  2.2006
  265SOL    HW2 1059   0.704   2.803   2.417 -1.2387  3.4347  0.4348
  265SOL     MW 1060   0.718   2.773   2.334 -0.2488  0.0714  0.8660
  266SOL     OW 1061   0.817   0.861   2.160 -0.2419 -0.3498 -0.5465
  266SOL    HW1 1062   0.801   0.932   2.100  0.2525 -1.4283 -0.8289
  266SOL    HW2 1063   0.903   0.825   2.120  0.1749 -0.2406 -0.1706
  266SOL     MW 1064   0.827   0.866   2.147 -0.1217 -0.4777 -0.5342
  267SOL     OW 1065   1.382   1.749   2.672  0.2569  0.0339  0.6224
  267SOL    HW1 1066   1.453   1.708   2.629 -1.0178  1.1916  0.3245
  267SOL    HW2 1067   1.300   1.708   2.636 -3.0266 -1.5229 -0.3117
  267SOL     MW 1068   1.381   1.738   2.662 -0.3445 -0.0188  0.4598
  268SOL     OW 1069   0.099   0.919   1.736 -0.5072  0.0251 -0.2113
  268SOL    HW1 1070   0.015   0.957   1.756 -1.9910 -2.5123  0.2922
  268SOL    HW2 1071   0.069   0.846   1.675  1.2277 -2.1898 -3.9455
  268SOL     MW 1072   0.084   0.914   1.731 -0.4741 -0.6019 -0.6376
  269SOL     OW 1073   1.376   1.840   2.394 -0.1132 -0.7145  0.3567
  269SOL    HW1 1074   1.404   1.918   2.445 -1.9848 -0.8700  2.6294
  269SOL    HW2 1075   1.291   1.828   2.435  0.0722  1.1820  4.0691
  269SOL     MW 1076   1.369   1.849   2.406 -0.3357 -0.4848  1.1464
  270SOL     OW 1077   1.095   0.451   1.520  0.2327  0.2633  0.2048
  270SOL    HW1 1078   1.032   0.388   1.551  1.5082 -0.6854  1.8849
  270SOL    HW2 1079   1.178   0.408   1.511 -3.5635  1.6700 -0.9956
  270SOL     MW 1080   1.098   0.437   1.523 -0.0999  0.3237  0.2681
  271SOL     OW 1081   0.782   0.077   2.539 -1.0398 -0.0782  0.5927
  271SOL    HW1 1082   0.827   0.044   2.617 -1.8278  2.5028  1.1355
  271SOL    HW2 1083   0.841   0.125   2.485 -1.3929  1.1081  4.7927
  271SOL     MW 1084   0.796   0.079   2.542 -1.1904  0.4189  1.2185
  272SOL     OW 1085   1.455   2.771   2.814 -0.4560  0.2947  0.2333
  272SOL    HW1 1086   1.409   2.778   2.735  0.4999  0.6781 -0.7116
  272SOL    HW2 1087   1.523   2.845   2.804  0.8565 -0.0323 -0.0408
  272SOL     MW 1088   1.458   2.782   2.802 -0.1567  0.3021  0.0724
  273SOL     OW 1089   1.461   0.815   2.810 -0.1056 -0.6501 -0.0897
  273SOL    HW1 1090   1.554   0.807   2.811  0.4097  2.3435 -2.0461
  273SOL    HW2 1091   1.448   0.912   2.800 -0.7635 -0.1179 -0.4776
  273SOL     MW 1092   1.472   0.827   2.809 -0.1244 -0.1849 -0.3990
  274SOL     OW 1093   1.402   0.629   0.117 -0.1854  0.2557 -0.0472
  274SOL    HW1 1094   1.481   0.588   0.154  1.9936  2.6790  0.8411
  274SOL    HW2 1095   1.344   0.634   0.198  1.3340  1.6574  0.7936
  274SOL     MW 1096   1.405   0.624   0.133  0.3026  0.7604  0.1809
  275SOL     OW 1097   1.847   0.554   1.695  0.5039  0.0097  0.3572
  275SOL    HW1 1098   1.858   0.604   1.773 -0.2088 -2.1986 -1.3426
  275SOL    HW2 1099   1.861   0.466   1.726  1.3420  1.1896 -1.7379
  275SOL     MW 1100   1.850   0.549   1.709  0.5205 -0.1260 -0.1435
  276SOL     OW 1101   0.378   1.163   1.936  0.8663 -0.1449  0.1771
  276SOL    HW1 1102   0.400   1.083   1.987  0.8512 -0.2891 -1.3423
  276SOL    HW2 1103   0.347   1.222   2.006 -0.8330 -0.7640  2.4549
  276SOL     MW 1104   0.377   1.161   1.952  0.6401 -0.2456  0.2772
  277SOL     OW 1105   1.954   1.136   2.464 -0.0561  0.1755 -0.5139
  277SOL    HW1 1106   1.967   1.224   2.492  0.6434 -0.7403  1.1195
  277SOL    HW2 1107   2.028   1.121   2.411 -1.4370  0.6322  1.4112
  277SOL     MW 1108   1.965   1.145   2.461 -0.1460  0.1149 -0.0444
  278SOL     OW 1109   1.472   0.616   1.601  0.0156  0.5092 -0.5326
  278SOL    HW1 1110   1.484   0.592   1.690  0.3977 -0.6100  0.6852
  278SOL    HW2 1111   1.559   0.657   1.571  2.3467 -0.0033  0.4635
  278SOL     MW 1112   1.485   0.618   1.609  0.3736  0.2939 -0.2405
  279SOL     OW 1113   0.503   0.104   2.229 -0.3800 -0.2684 -0.7385
  279SOL    HW1 1114   0.587   0.054   2.242  2.6683  0.8769  1.5024
  279SOL    HW2 1115   0.548   0.176   2.183  2.0663 -0.9960 -1.5939
  279SOL     MW 1116   0.520   0.107   2.225  0.3449 -0.2133 -0.5557
  280SOL     OW 1117   1.398   0.988   2.247 -0.8802  0.2449 -0.4326
  280SOL    HW1 1118   1.485   1.008   2.214 -0.8562 -1.6702  0.1890
  280SOL    HW2 1119   1.395   0.961   2.338  0.4772 -0.7046 -0.3628
  280SOL     MW 1120   1.409   0.987   2.254 -0.6980 -0.1330 -0.3414
  281SOL     OW 1121   1.389   1.069   2.764  0.3695  0.4744  0.3283
  281SOL    HW1 1122   1.456   1.140   2.758  1.9788 -1.0024 -1.8913
  281SOL    HW2 1123   1.340   1.100   2.842  1.6313  0.5128  1.4985
  281SOL     MW 1124   1.391   1.083   2.773  0.7483  0.2846  0.1898
  282SOL     OW 1125   1.111   1.313   1.638 -0.8284  0.6609 -0.2289
  282SOL    HW1 1126   1.064   1.393   1.616 -0.4509 -3.4355 -1.6960
  282SOL    HW2 1127   1.046   1.252   1.673  0.5035  2.6842  0.3603
  282SOL     MW 1128   1.096   1.315   1.640 -0.6028  0.3874 -0.3447
  283SOL     OW 1129   0.816   1.350   3.022 -0.0361 -0.0368 -0.4474
  283SOL    HW1 1130   0.898   1.332   3.073  1.6724 -1.6585  0.4508
  283SOL    HW2 1131   0.819   1.444   3.016 -1.5342 -1.1479 -1.2203
  283SOL     MW 1132   0.827   1.360   3.028 -0.0083 -0.3974 -0.4308
  284SOL     OW 1133   0.362   0.682   2.328 -0.6452 -0.1557  0.2685
  284SOL    HW1 1134   0.437   0.749   2.322  1.4001 -3.2755 -1.8899
  284SOL    HW2 1135   0.365   0.643   2.239 -0.8352 -0.6274  1.1785
  284SOL     MW 1136   0.372   0.686   2.315 -0.4004 -0.6295  0.1038
  285SOL     OW 1137   0.853   0.892   2.809  0.0499  0.8669 -0.4476
  285SOL    HW1 1138   0.906   0.914   2.735  0.2348  1.3568  0.1673
  285SOL    HW2 1139   0.789   0.825   2.784  2.2973  2.2395  1.1961
  285SOL     MW 1140   0.852   0.886   2.796  0.3708  1.1126 -0.1496
  286SOL     OW 1141   1.067   1.458   2.725  0.1996 -0.5935  0.3652
  286SOL    HW1 1142   1.122   1.388   2.695 -2.2705 -1.6076 -1.7477
  286SOL    HW2 1143   1.104   1.540   2.681  0.4381  1.2867  2.0144
  286SOL     MW 1144   1.079   1.460   2.715 -0.0948 -0.4792  0.3040
  287SOL     OW 1145   1.095   0.950   0.328 -0.3676  0.0475 -0.0009
  287SOL    HW1 1146   1.073   0.979   0.419  0.0643  1.6475 -2.8528
  287SOL    HW2 1147   1.031   0.990   0.270 -1.8448 -1.3134 -0.3339
  287SOL     MW 1148   1.083   0.959   0.332 -0.5055  0.0790 -0.4211
  288SOL     OW 1149   1.493   0.703   2.099 -0.0907  0.1971 -0.3087
  288SOL    HW1 1150   1.421   0.713   2.166  1.4062  1.4290 -3.7446
  288SOL    HW2 1151   1.559   0.777   2.107  0.0401 -2.3117 -0.3349
  288SOL     MW 1152   1.492   0.714   2.109  0.1241  0.0286 -0.7655
  289SOL     OW 1153   0.988   0.974   2.579  0.6628  0.7765  0.2225
  289SOL    HW1 1154   1.036   0.905   2.538 -0.0737 -0.6907 -2.0012
  289SOL    HW2 1155   0.910   0.995   2.518  0.1619  2.3257 -1.8475
  289SOL     MW 1156   0.984   0.968   2.565  0.4995  0.7873 -0.3440
  290SOL     OW 1157   0.706   0.653   1.468 -0.9225 -0.6420  0.4238
  290SOL    HW1 1158   0.752   0.600   1.403  0.9138  1.7600  0.8606
  290SOL    HW2 1159   0.741   0.642   1.554  0.6131  0.3669 -1.3581
  290SOL     MW 1160   0.716   0.645   1.471 -0.4776 -0.1920  0.2463
  291SOL     OW 1161   0.240   0.344   0.204 -0.5008 -0.0392  0.3663
  291SOL    HW1 1162   0.334   0.329   0.214 -2.3834  1.6959 -0.4546
  291SOL    HW2 1163   0.209   0.256   0.198 -1.6089  1.8485  0.6532
  291SOL     MW 1164   0.249   0.331   0.205 -0.8954  0.4388  0.2959
  292SOL     OW 1165   1.026   0.583   0.091 -0.2121 -0.3469 -0.6019
  292SOL    HW1 1166   1.067   0.634   0.162  0.5289 -1.1312 -1.9485
  292SOL    HW2 1167   1.077   0.498   0.104  0.5602 -1.7317  3.1491
  292SOL     MW 1168   1.038   0.578   0.102 -0.0124 -0.6331 -0.2847
  293SOL     OW 1169   0.160   0.140   2.526 -0.5139  0.2346 -0.2298
  293SOL    HW1 1170   0.132   0.080   2.460 -0.8426 -1.3609  1.2994
  293SOL    HW2 1171   0.074   0.167   2.556  2.1629 -1.2395  0.7714
  293SOL     MW 1172   0.145   0.136   2.521 -0.2041 -0.1704  0.1041
  294SOL     OW 1173   1.288   0.437   2.310 -1.1318 -0.1061 -0.7292
  294SOL    HW1 1174   1.359   0.484   2.356  1.8456 -0.1173  0.5688
  294SOL    HW2 1175   1.240   0.397   2.384 -0.1938 -1.4822 -1.1712
  294SOL     MW 1176   1.291   0.438   2.326 -0.6152 -0.2892 -0.6163
  295SOL     OW 1177   0.851   0.645   2.487  0.0080  0.5759 -0.2364
  295SOL    HW1 1178   0.812   0.614   2.407  0.5297  0.9206  1.1299
  295SOL    HW2 1179   0.782   0.649   2.554  0.2238  0.5805  0.5326
  295SOL     MW 1180   0.837   0.641   2.485  0.1053  0.6220  0.0454
  296SOL     OW 1181   1.361   0.341   2.067  0.2900  0.4109  0.1472
  296SOL    HW1 1182   1.371   0.244   2.066 -1.4401 -0.4381  1.1833
  296SOL    HW2 1183   1.340   0.362   2.156  0.2614 -1.3912 -0.5617
  296SOL     MW 1184   1.360   0.331   2.079  0.0579  0.0611  0.1903
  297SOL     OW 1185   1.354   0.373   1.526  0.1457  0.0234 -0.2887
  297SOL    HW1 1186   1.385   0.456   1.558  1.8983  1.6287 -0.8455
  297SOL    HW2 1187   1.382   0.304   1.590  1.5504 -2.3174 -1.3605
  297SOL     MW 1188   1.362   0.375   1.538  0.5622 -0.0737 -0.5035
  298SOL     OW 1189   1.688   0.926   2.137  0.7824  0.0551  0.3308
  298SOL    HW1 1190   1.711   0.966   2.047  0.9373  0.9661  1.7180
  298SOL    HW2 1191   1.755   0.855   2.151 -0.0111 -1.8530 -0.7535
  298SOL     MW 1192   1.700   0.922   2.127  0.6982 -0.0765  0.3708
  299SOL     OW 1193   0.609   1.176   0.052 -0.4764 -0.2554 -0.5054
  299SOL    HW1 1194   0.564   1.147  -0.037  1.1063 -0.4098 -1.9249
  299SOL    HW2 1195   0.654   1.262   0.030  1.3249 -0.7447 -1.6418
  299SOL     MW 1196   0.609   1.184   0.037 -0.0299 -0.3403 -0.8426
  300SOL     OW 1197   1.166   1.192   2.647 -0.0444  0.2285  1.0180
  300SOL    HW1 1198   1.102   1.131   2.614 -0.4718  3.3779 -1.2463
  300SOL    HW2 1199   1.241   1.135   2.669  0.6019  1.6658 -0.8975
  300SOL     MW 1200   1.167   1.176   2.645 -0.0155  0.8336  0.4665
  301SOL     OW 1201   1.476   0.998   0.699 -0.2138  0.6727 -0.5274
  301SOL    HW1 1202   1.494   1.005   0.792  0.5363  0.8125 -2.1967
  301SOL    HW2 1203   1.406   0.930   0.693 -0.7407 -0.7621  0.8539
  301SOL     MW 1204   1.469   0.990   0.710 -0.1843  0.5018 -0.5654
  302SOL     OW 1205   0.209   1.612   2.032  1.0355 -0.0450 -0.5598
  302SOL    HW1 1206   0.236   1.525   2.056  0.9917 -1.8536 -0.6508
  302SOL    HW2 1207   0.114   1.612   2.041  1.6126  0.0689 -0.5362
  302SOL     MW 1208   0.200   1.601   2.036  1.1059 -0.2686 -0.5687
  303SOL     OW 1209   0.278   1.789   2.677  0.3502 -0.1300 -0.0733
  303SOL    HW1 1210   0.234   1.825   2.599 -1.4018 -1.5257  2.3555
  303SOL    HW2 1211   0.231   1.821   2.751 -1.8382  2.1221 -2.2976
  303SOL     MW 1212   0.266   1.798   2.676 -0.1697 -0.0170 -0.0463
  304SOL     OW 1213   0.527   2.090   2.475 -0.0916  0.3550  0.1491
  304SOL    HW1 1214   0.578   2.160   2.436  1.3962 -1.4898 -3.2121
  304SOL    HW2 1215   0.582   2.011   2.475  0.8493 -1.0162 -1.2231
  304SOL     MW 1216   0.541   2.089   2.470  0.2289 -0.0693 -0.4754
  305SOL     OW 1217   1.125   0.641   0.560  0.5718 -0.3326  0.4063
  305SOL    HW1 1218   1.032   0.620   0.547 -0.2660 -1.6963  0.0901
  305SOL    HW2 1219   1.176   0.549   0.573  0.9218  1.3442  1.4302
  305SOL     MW 1220   1.120   0.626   0.560  0.5074 -0.2913  0.4997
  306SOL     OW 1221   1.115   1.541   0.293  0.7822 -0.2460  0.1720
  306SOL    HW1 1222   1.138   1.458   0.332 -1.8531 -0.3016 -1.6160
  306SOL    HW2 1223   1.179   1.539   0.218 -1.1769 -1.4387 -0.6763
  306SOL     MW 1224   1.127   1.530   0.288  0.1760 -0.4107 -0.1758
  307SOL     OW 1225   1.464   0.544   1.874  0.1467  0.3681  0.0600
  307SOL    HW1 1226   1.445   0.466   1.927 -1.1632  1.5524  1.3400
  307SOL    HW2 1227   1.476   0.614   1.943 -3.1807  2.5851 -1.1452
  307SOL     MW 1228   1.463   0.543   1.890 -0.4652  0.8169  0.0698
  308SOL     OW 1229   2.289   0.581   2.754 -0.0865 -0.0189 -0.4449
  308SOL    HW1 1230   2.386   0.566   2.772 -0.5209 -0.6127  0.3964
  308SOL    HW2 1231   2.270   0.673   2.729 -1.7671 -1.1564 -2.7373
  308SOL     MW 1232   2.299   0.591   2.753 -0.3656 -0.2474 -0.6364
  309SOL     OW 1233   0.525   0.515   0.287  0.8417 -0.1571 -0.2177
  309SOL    HW1 1234   0.604   0.568   0.271  0.1745  0.7441  2.2925
  309SOL    HW2 1235   0.534   0.433   0.231 -1.9452 -1.8730  3.8945
  309SOL     MW 1236   0.537   0.511   0.278  0.3860 -0.2646  0.6560
  310SOL     OW 1237   0.382   0.533   1.845  0.3220 -0.1252  0.7943
  310SOL    HW1 1238   0.434   0.478   1.787 -3.2546 -0.1225 -1.9977
  310SOL    HW2 1239   0.418   0.620   1.815  1.4192  1.6665  0.4821
  310SOL     MW 1240   0.393   0.537   1.833 -0.0051  0.1116  0.3848
  311SOL     OW 1241   2.002   0.698   1.920  0.0511  0.4378 -0.3460
  311SOL    HW1 1242   1.991   0.739   2.011 -1.4024 -0.3814  2.1342
  311SOL    HW2 1243   2.036   0.611   1.945 -1.4021  2.5786 -3.4929
  311SOL     MW 1244   2.005   0.692   1.935 -0.3324  0.6122 -0.4339
  312SOL     OW 1245   1.727   2.476   0.158  0.2606 -0.3676 -0.1379
  312SOL    HW1 1246   1.733   2.450   0.252  2.2089 -0.9242 -0.6363
  312SOL    HW2 1247   1.665   2.551   0.157 -1.0215  2.1702 -0.5860
  312SOL     MW 1248   1.720   2.482   0.170  0.3485 -0.1062 -0.2628
  313SOL     OW 1249   0.117   1.143   3.054 -0.7046  0.0600  0.6697
  313SOL    HW1 1250   0.083   1.189   3.131 -0.4885  0.5090  1.6883
  313SOL    HW2 1251   0.145   1.218   3.001 -0.6566 -1.8504  1.1996
  313SOL     MW 1252   0.116   1.159   3.057 -0.6698 -0.1328  0.8740
  314SOL     OW 1253   2.217   2.887   3.085  0.1670 -0.4300 -0.2303
  314SOL    HW1 1254   2.141   2.910   3.024 -0.7346 -1.3603  0.7253
  314SOL    HW2 1255   2.270   2.958   3.093  0.1165 -0.6522 -2.6155
  314SOL     MW 1256   2.214   2.900   3.078  0.0414 -0.5821 -0.4189
  315SOL     OW 1257   1.511   1.845   3.023 -0.0127 -0.0431  0.1308
  315SOL    HW1 1258   1.448   1.901   3.074 -1.7869  2.3425  2.1082
  315SOL    HW2 1259   1.566   1.909   2.977 -0.0077  2.3657  0.2634
  315SOL     MW 1260   1.510   1.861   3.023 -0.2461  0.5895  0.4092
  316SOL     OW 1261   1.222   0.714   2.708  0.1567  0.0386  0.2976
  316SOL    HW1 1262   1.300   0.744   2.745  1.7595 -1.4793 -0.2358
  316SOL    HW2 1263   1.172   0.697   2.789 -1.8019 -2.7602  1.1610
  316SOL     MW 1264   1.226   0.716   2.724  0.1098 -0.5309  0.3411
  317SOL     OW 1265   0.691   1.634   2.573 -0.5160 -0.5800 -0.3415
  317SOL    HW1 1266   0.736   1.545   2.591 -0.9749 -1.3998  1.4378
  317SOL    HW2 1267   0.682   1.634   2.482  1.7981  2.1271  0.5942
  317SOL     MW 1268   0.695   1.622   2.563 -0.2712 -0.3310  0.0168
  318SOL     OW 1269   1.362   0.414   2.865 -0.1047 -0.1629 -0.2808
  318SOL    HW1 1270   1.285   0.475   2.859  0.4237  0.0971 -0.5358
  318SOL    HW2 1271   1.436   0.462   2.836  1.4159 -0.3043  1.7921
  318SOL     MW 1272   1.362   0.428   2.860  0.1656 -0.1472 -0.0410
  319SOL     OW 1273   0.831   0.513   2.858 -0.0148  0.0786 -0.0630
  319SOL    HW1 1274   0.782   0.441   2.808  0.4894 -0.7589  0.6065
  319SOL    HW2 1275   0.804   0.500   2.947 -0.3796 -1.7573  0.3381
  319SOL     MW 1276   0.821   0.502   2.863  0.0036 -0.2741  0.0783
  320SOL     OW 1277   1.001   1.322   1.995  0.0517 -0.2647  0.2590
  320SOL    HW1 1278   1.058   1.248   1.988 -1.3755  0.1028  1.2992
  320SOL    HW2 1279   1.047   1.395   1.951  1.4856 -0.7196  0.2020
  320SOL     MW 1280   1.015   1.322   1.988  0.0526 -0.2763  0.3887
  321SOL     OW 1281   1.030   0.915   3.046 -0.3089  0.4759  0.0422
  321SOL    HW1 1282   0.954   0.897   2.988  0.4836  3.2976 -1.5012
  321SOL    HW2 1283   1.105   0.856   3.026 -2.3276  0.3127  1.1859
  321SOL     MW 1284   1.030   0.905   3.035 -0.4707  0.8266 -0.0105
  322SOL     OW 1285   1.346   0.870   1.646  0.1995 -0.1332  0.2152
  322SOL    HW1 1286   1.400   0.791   1.629 -0.1043  0.5331 -1.2717
  322SOL    HW2 1287   1.276   0.825   1.694 -0.9935 -1.4080 -2.1612
  322SOL     MW 1288   1.344   0.854   1.650  0.0020 -0.2135 -0.2945
  323SOL     OW 1289   1.169   1.535   1.891 -0.8124  0.2430  0.1932
  323SOL    HW1 1290   1.217   1.479   1.829  1.5624 -1.3569  2.2699
  323SOL    HW2 1291   1.159   1.618   1.845 -0.4141 -1.5904 -0.9384
  323SOL     MW 1292   1.174   1.539   1.877 -0.4465 -0.2100  0.3179
  324SOL     OW 1293   1.442   0.909   2.502  0.1351 -0.2283  0.5283
  324SOL    HW1 1294   1.374   0.907   2.573  1.6454 -1.9175 -2.8004
  324SOL    HW2 1295   1.514   0.967   2.533 -1.5838 -2.2317 -1.0281
  324SOL     MW 1296   1.443   0.917   2.515  0.1076 -0.7155 -0.1162
  325SOL     OW 1297   1.096   0.527   2.911  0.2380  0.2212  0.3614
  325SOL    HW1 1298   1.090   0.580   2.991 -0.6070  2.0787 -2.8416
  325SOL    HW2 1299   1.004   0.524   2.877 -0.9860  3.1441  2.4553
  325SOL     MW 1300   1.083   0.533   2.917 -0.0350  0.8519  0.2151
  326SOL     OW 1301   0.391   1.360   2.362 -0.3410 -0.1306 -0.1271
  326SOL    HW1 1302   0.462   1.331   2.304  0.1167 -1.5280 -0.2453
  326SOL    HW2 1303   0.392   1.460   2.365 -1.1074  2.1924 -0.3033
  326SOL     MW 1304   0.401   1.369   2.355 -0.3817 -0.0085 -0.1659
  327SOL     OW 1305   1.954   0.749   2.413  0.0811  0.0366 -0.3235
  327SOL    HW1 1306   1.924   0.698   2.490 -1.0598 -1.5474 -0.9907
  327SOL    HW2 1307   1.989   0.826   2.451  0.2155 -0.8999  0.5453
  327SOL     MW 1308   1.955   0.752   2.428 -0.0517 -0.2960 -0.2969
  328SOL     OW 1309   0.263   1.341   2.113 -0.2265 -0.2480 -0.0969
  328SOL    HW1 1310   0.191   1.279   2.101  2.4608  1.4550 -1.6126
  328SOL    HW2 1311   0.292   1.350   2.210  1.8536  2.1491  2.2096
  328SOL     MW 1312   0.257   1.334   2.124  0.4026  0.2930  0.0074
  329SOL     OW 1313   0.048   0.122   1.365 -0.7007  0.4547  0.4482
  329SOL    HW1 1314   0.005   0.144   1.447  0.4017  2.3402 -4.2304
  329SOL    HW2 1315   0.134   0.169   1.364 -0.8424  1.6408  0.9364
  329SOL     MW 1316   0.054   0.131   1.375 -0.5739  0.8600 -0.1046
  330SOL     OW 1317   0.330   0.067   1.968 -0.3471 -0.0963 -0.3479
  330SOL    HW1 1318   0.421   0.083   1.948 -0.7972  0.3780  1.0414
  330SOL    HW2 1319   0.333  -0.008   2.027  1.6500 -0.5914 -1.2947
  330SOL     MW 1320   0.342   0.059   1.973 -0.1430 -0.0991 -0.2895
  331SOL     OW 1321   0.779   1.243   2.382  0.5695  0.0518  0.8838
  331SOL    HW1 1322   0.717   1.277   2.312  0.6082 -0.4275 -0.2760
  331SOL    HW2 1323   0.795   1.293   2.460 -0.4708 -2.3104 -3.8622
  331SOL     MW 1324   0.773   1.254   2.383  0.4374 -0.3231  0.1046
  332SOL     OW 1325   1.357   1.652   2.945 -0.0022 -0.2914 -0.0340
  332SOL    HW1 1326   1.361   1.654   2.849  3.3084 -1.7408  1.0186
  332SOL    HW2 1327   1.427   1.714   2.975 -2.1058  4.1128  2.2175
  332SOL     MW 1328   1.367   1.660   2.937  0.1571  0.0984  0.4019
  333SOL     OW 1329   1.698   1.358   2.924  0.2121 -0.3964 -0.1010
  333SOL    HW1 1330   1.783   1.363   2.880 -0.9789 -1.6069  0.0642
  333SOL    HW2 1331   1.704   1.276   2.974  1.3247 -1.3404  3.1097
  333SOL     MW 1332   1.710   1.348   2.925  0.2017 -0.6806  0.3444
  334SOL     OW 1333   1.321   3.060   2.647 -0.1297 -0.1609 -0.0591
  334SOL    HW1 1334   1.250   3.083   2.709  0.4913 -1.7921 -3.6782
  334SOL    HW2 1335   1.390   3.124   2.672  0.3417 -0.0401 -2.6203
  334SOL     MW 1336   1.321   3.071   2.659  0.0144 -0.3602 -0.8745
  335SOL     OW 1337   1.263   0.774   3.016  0.3296  0.0123  0.7111
  335SOL    HW1 1338   1.309   0.743   3.094 -2.9925  2.3195 -3.4051
  335SOL    HW2 1339   1.327   0.775   2.944 -3.6134 -1.3141  0.8503
  335SOL     MW 1340   1.278   0.770   3.017 -0.6289  0.1417  0.1863
  336SOL     OW 1341   0.930   1.120   1.705 -0.2085 -0.5788  0.1431
  336SOL    HW1 1342   0.850   1.147   1.748  1.6377 -0.6225  0.6607
  336SOL    HW2 1343   0.965   1.038   1.759  1.9335 -2.2654 -0.6317
  336SOL     MW 1344   0.924   1.113   1.718  0.3177 -0.8071  0.1092
  337SOL     OW 1345   0.496   1.955   2.832  0.5044  0.0737  0.7110
  337SOL    HW1 1346   0.459   1.919   2.751  1.8432  2.2826 -1.3572
  337SOL    HW2 1347   0.579   1.908   2.833  1.2034 -1.8856 -0.0777
  337SOL     MW 1348   0.502   1.944   2.822  0.7733  0.1067  0.3340
  338SOL     OW 1349   1.106   0.777   2.465  0.3327  0.3011  0.1420
  338SOL    HW1 1350   1.014   0.739   2.471  1.0939  0.3387  0.7105
  338SOL    HW2 1351   1.144   0.753   2.548  0.1072  0.9165  0.0472
  338SOL     MW 1352   1.099   0.769   2.477  0.4034  0.3872  0.2045
  339SOL     OW 1353   1.351   1.275   1.912  0.0044  0.0277 -0.5424
  339SOL    HW1 1354   1.363   1.241   1.822 -2.1147 -2.0394 -1.1984
  339SOL    HW2 1355   1.297   1.215   1.962 -0.2030 -0.5533  1.0268
  339SOL     MW 1356   1.345   1.263   1.907 -0.3026 -0.3217 -0.4219
  340SOL     OW 1357   1.311   1.541   0.093 -0.1604  0.2419  0.4778
  340SOL    HW1 1358   1.319   1.562  -0.005  2.7412  0.1934 -3.5252
  340SOL    HW2 1359   1.370   1.462   0.107 -0.6053  0.5466  0.9556
  340SOL     MW 1360   1.320   1.533   0.082  0.1637  0.2757  0.0127
  341SOL     OW 1361   0.111   1.373   2.821 -0.7496  0.1370  0.0753
  341SOL    HW1 1362   0.197   1.386   2.872  1.4188  0.6797  0.0864
  341SOL    HW2 1363   0.145   1.395   2.735  1.9542  2.3630  0.7383
  341SOL     MW 1364   0.127   1.378   2.817 -0.1068  0.5023  0.1643
  342SOL     OW 1365   1.383   0.329   0.033  0.3836 -0.0962 -0.1828
  342SOL    HW1 1366   1.445   0.394   0.071 -1.7049 -1.4099 -0.4722
  342SOL    HW2 1367   1.375   0.357  -0.059 -0.2965 -0.8163 -2.6063
  342SOL     MW 1368   1.390   0.341   0.026  0.0183 -0.3646 -0.5407
  343SOL     OW 1369   0.253   0.264   2.163  0.3932  0.2266 -0.3292
  343SOL    HW1 1370   0.286   0.199   2.099  0.9493  0.9027 -0.3061
  343SOL    HW2 1371   0.156   0.263   2.148 -2.0130  0.3583  1.1726
  343SOL     MW 1372   0.245   0.255   2.152  0.1491  0.3332 -0.1280
  344SOL     OW 1373   1.687   2.037   0.187 -0.1600 -0.1080  0.3462
  344SOL    HW1 1374   1.715   2.081   0.114  0.7945  2.1941  1.4823
  344SOL    HW2 1375   1.594   2.009   0.159 -4.2667  1.0004 -2.1723
  344SOL     MW 1376   1.679   2.039   0.174 -0.5759  0.3420  0.1638
  345SOL     OW 1377   0.643   1.603   2.315 -0.2208 -0.9801 -0.4955
  345SOL    HW1 1378   0.570   1.636   2.266  0.2324  0.1119  0.8444
  345SOL    HW2 1379   0.717   1.582   2.255 -0.2366 -1.5199 -3.7333
  345SOL     MW 1380   0.643   1.604   2.300 -0.1631 -0.9073 -0.7459
  346SOL     OW 1381   1.675   1.165   0.044 -0.1445  0.2962  0.0305
  346SOL    HW1 1382   1.742   1.207   0.100 -2.9501  1.7789  0.1605
  346SOL    HW2 1383   1.651   1.078   0.088 -3.6664 -3.3160 -3.2772
  346SOL     MW 1384   1.681   1.159   0.057 -0.9793  0.0152 -0.3888
  347SOL     OW 1385   1.193   0.668   2.206  0.4160  0.6860 -0.4639
  347SOL    HW1 1386   1.219   0.576   2.220  0.1288  2.3346 -2.3115
  347SOL    HW2 1387   1.172   0.712   2.290  0.5612 -0.6882 -0.3954
  347SOL     MW 1388   1.194   0.662   2.219  0.3973  0.7222 -0.6986
  348SOL     OW 1389   1.295   2.567   1.952 -0.3778 -1.0470 -0.5433
  348SOL    HW1 1390   1.308   2.493   2.020  0.5255  1.2488  2.2781
  348SOL    HW2 1391   1.338   2.648   1.991  0.6015  2.3793 -1.2861
  348SOL     MW 1392   1.303   2.568   1.966 -0.1294 -0.2921 -0.2691
  349SOL     OW 1393   1.463   0.164   2.771 -0.4158 -0.4602  0.6269
  349SOL    HW1 1394   1.409   0.242   2.803 -1.1479  0.3683 -3.3135
  349SOL    HW2 1395   1.522   0.133   2.846  0.8752  0.5909  2.2667
  349SOL     MW 1396   1.464   0.170   2.785 -0.3421 -0.2122  0.3234
  350SOL     OW 1397   1.871   0.632   2.648  0.1780 -0.2921 -0.0553
  350SOL    HW1 1398   1.807   0.577   2.600 -0.2205 -2.0520  2.8686
  350SOL    HW2 1399   1.913   0.566   2.716  0.3597  0.2337  0.5787
  350SOL     MW 1400   1.868   0.616   2.650  0.1494 -0.4550  0.4141
  351SOL     OW 1401   0.105   1.191   1.566  0.4080 -0.1113 -0.1784
  351SOL    HW1 1402   0.067   1.111   1.601  1.8006 -0.1841  1.8163
  351SOL    HW2 1403   0.168   1.224   1.634  0.6099 -2.2131  1.1364
  351SOL     MW 1404   0.109   1.185   1.579  0.6184 -0.3983  0.2583
  352SOL     OW 1405   0.744   1.805   2.804 -0.0459 -0.2398  0.6987
  352SOL    HW1 1406   0.782   1.743   2.867 -1.5282 -0.1243  0.9953
  352SOL    HW2 1407   0.721   1.749   2.730  2.0462 -1.7733  0.2558
  352SOL     MW 1408   0.746   1.789   2.802  0.0346 -0.4269  0.6794
  353SOL     OW 1409   3.088   2.569   2.645 -0.1974  0.1666  0.3637
  353SOL    HW1 1410   3.157   2.507   2.665  2.7496  1.4468  2.1692
  353SOL    HW2 1411   3.116   2.614   2.567  0.8333 -0.8098  0.6791
  353SOL     MW 1412   3.101   2.567   2.637  0.3274  0.2067  0.6436
  354SOL     OW 1413   0.361   2.415   0.809 -0.5781  0.0551 -0.5772
  354SOL    HW1 1414   0.430   2.362   0.853 -0.5529 -0.1007 -2.2938
  354SOL    HW2 1415   0.278   2.362   0.823  1.7007  0.5142  0.5642
  354SOL     MW 1416   0.359   2.401   0.817 -0.2741  0.0951 -0.6531
  355SOL     OW 1417   0.116   2.251   0.405 -0.4282  1.1558  0.5210
  355SOL    HW1 1418   0.039   2.183   0.399  0.2654 -2.0107 -0.3184
  355SOL    HW2 1419   0.083   2.292   0.483  0.5307  1.0390 -1.3509
  355SOL     MW 1420   0.101   2.247   0.414 -0.2102  0.7226  0.1632
  356SOL     OW 1421   0.742   2.970   1.020  0.0736 -0.0698 -0.7853
  356SOL    HW1 1422   0.797   2.983   0.943 -0.2905 -1.7005 -1.4192
  356SOL    HW2 1423   0.696   2.882   1.009 -3.1805 -0.0759 -0.6382
  356SOL     MW 1424   0.743   2.960   1.008 -0.4038 -0.2857 -0.8495
  357SOL     OW 1425   1.850   2.796   0.472  0.4118  0.2405 -0.3985
  357SOL    HW1 1426   1.822   2.752   0.554  0.8624  2.1677  1.7702
  357SOL    HW2 1427   1.934   2.759   0.453  0.0504  0.0147  1.3205
  357SOL     MW 1428   1.857   2.785   0.480  0.4236  0.4650  0.1145
  358SOL     OW 1429   0.417   0.136   1.062 -0.3424 -0.3610  0.0191
  358SOL    HW1 1430   0.517   0.138   1.063  0.0142 -1.0384  0.3411
  358SOL    HW2 1431   0.393   0.192   0.986  1.6033 -1.1036 -2.1523
  358SOL     MW 1432   0.427   0.144   1.052 -0.0387 -0.5484 -0.2249
  359SOL     OW 1433   0.904   2.945   1.884  0.4577 -0.4197  0.6993
  359SOL    HW1 1434   0.888   2.862   1.938  2.4445  0.2540  2.0918
  359SOL    HW2 1435   0.904   2.917   1.790  0.9460 -0.6072 -2.9469
  359SOL     MW 1436   0.902   2.930   1.878  0.7843 -0.3556  0.4019
  360SOL     OW 1437   0.574   2.762   0.914  0.0240 -0.1570 -0.4147
  360SOL    HW1 1438   0.606   2.755   0.825 -1.2298 -0.7615 -2.1586
  360SOL    HW2 1439   0.564   2.674   0.945 -0.5008  1.3242 -2.2554
  360SOL     MW 1440   0.577   2.750   0.906 -0.2107 -0.0413 -0.8877
  361SOL     OW 1441   0.149   2.710   1.369 -0.6752  0.0861 -0.8727
  361SOL    HW1 1442   0.083   2.755   1.421  2.9664  1.1978 -2.1415
  361SOL    HW2 1443   0.226   2.763   1.375  0.1484 -0.0441 -1.4185
  361SOL     MW 1444   0.151   2.723   1.377 -0.0861  0.2156 -1.1121
  362SOL     OW 1445   1.383   2.427   0.604  0.3708 -0.1613 -0.6329
  362SOL    HW1 1446   1.436   2.373   0.667  0.6600  0.5902  1.6101
  362SOL    HW2 1447   1.451   2.498   0.592  3.0326  0.1034  0.1609
  362SOL     MW 1448   1.399   2.429   0.611  0.7602 -0.0272 -0.2322
  363SOL     OW 1449   0.309   3.095   0.661 -0.2352  0.0437 -0.6854
  363SOL    HW1 1450   0.329   3.023   0.721 -0.6407  0.9298  1.3217
  363SOL    HW2 1451   0.228   3.087   0.609 -0.9839  1.2220 -1.9381
  363SOL     MW 1452   0.301   3.084   0.662 -0.3875  0.3160 -0.5859
  364SOL     OW 1453   0.763   0.215   0.150 -0.3579  0.5784 -0.2975
  364SOL    HW1 1454   0.690   0.180   0.200 -0.8835 -1.5634  1.3506
  364SOL    HW2 1455   0.717   0.271   0.077 -1.7371  0.3791 -1.0940
  364SOL     MW 1456   0.748   0.218   0.147 -0.6092  0.2695 -0.1852
  365SOL     OW 1457   0.877   2.018   1.280 -0.0331 -0.4512 -0.0775
  365SOL    HW1 1458   0.888   2.102   1.233 -1.3504 -0.5703 -1.0321
  365SOL    HW2 1459   0.812   1.969   1.221 -1.6255 -2.0385  1.1315
  365SOL     MW 1460   0.870   2.023   1.266 -0.4170 -0.6764 -0.0440
  366SOL     OW 1461   2.887   2.659   0.946 -0.2203 -0.0224 -0.6428
  366SOL    HW1 1462   2.960   2.614   0.998  2.8730 -2.0847  1.4725
  366SOL    HW2 1463   2.935   2.681   0.864 -2.7376  0.6215 -0.5148
  366SOL     MW 1464   2.903   2.656   0.942 -0.1443 -0.2096 -0.3468
  367SOL     OW 1465   1.293   3.040   1.010  0.4192  0.5996 -0.2538
  367SOL    HW1 1466   1.367   3.083   1.036 -2.2753 -0.0067 -0.8884
  367SOL    HW2 1467   1.289   3.020   0.919  2.2499  0.1839 -0.2743
  367SOL     MW 1468   1.302   3.043   1.002  0.3052  0.4648 -0.3403
  368SOL     OW 1469   1.705   0.412   0.599  0.2104 -0.4678  0.0344
  368SOL    HW1 1470   1.760   0.344   0.559 -0.2666 -2.5040 -0.6055
  368SOL    HW2 1471   1.727   0.492   0.549 -1.8389 -2.2609  0.9968
  368SOL     MW 1472   1.715   0.413   0.587 -0.1229 -0.9730  0.0770
  369SOL     OW 1473   0.158   2.408   1.754 -0.0487  0.1398 -0.3375
  369SOL    HW1 1474   0.254   2.397   1.771  1.5021  0.8204  1.5761
  369SOL    HW2 1475   0.144   2.501   1.754 -1.5387 -0.7466  0.1170
  369SOL     MW 1476   0.169   2.419   1.756 -0.0406  0.1127 -0.0251
  370SOL     OW 1477   0.702   0.132   1.071 -0.8862  0.4234 -0.1634
  370SOL    HW1 1478   0.763   0.156   1.001  0.7336 -1.0452 -1.3472
  370SOL    HW2 1479   0.704   0.033   1.079 -0.0687  0.7778  0.7933
  370SOL     MW 1480   0.710   0.122   1.063 -0.5646  0.2764 -0.1933
  371SOL     OW 1481   1.122   2.897   1.471  0.1455  0.3328  0.5154
  371SOL    HW1 1482   1.141   2.816   1.422  1.1914  2.0332  1.0658
  371SOL    HW2 1483   1.121   2.967   1.403 -2.9918 -1.4924 -1.8718
  371SOL     MW 1484   1.124   2.896   1.455 -0.1305  0.3163  0.2731
  372SOL     OW 1485   0.816   2.311   0.470  0.5004 -0.0155 -0.0924
  372SOL    HW1 1486   0.778   2.231   0.510 -0.5659  1.0996  0.0685
  372SOL    HW2 1487   0.821   2.287   0.378 -1.3747 -0.9257  0.3760
  372SOL     MW 1488   0.811   2.297   0.463  0.1123  0.0115 -0.0094
  373SOL     OW 1489   2.802   2.975   1.414  0.0958 -0.0579  0.0136
  373SOL    HW1 1490   2.888   2.959   1.387 -1.9696  1.8090  0.6316
  373SOL    HW2 1491   2.774   3.045   1.363 -1.0679  1.1818  2.7375
  373SOL     MW 1492   2.809   2.982   1.404 -0.3302  0.3520  0.4545
  374SOL     OW 1493   1.595   0.469   0.248 -0.1958 -0.4189 -0.3251
  374SOL    HW1 1494   1.685   0.433   0.235  1.5246 -0.7840  0.2972
  374SOL    HW2 1495   1.555   0.411   0.308 -0.5309 -0.3413 -0.3953
  374SOL     MW 1496   1.602   0.457   0.254 -0.0130 -0.4568 -0.2523
  375SOL     OW 1497   1.110   2.041   2.212  0.0611 -0.5571 -0.3755
  375SOL    HW1 1498   1.108   2.032   2.310 -0.5418 -2.0933 -1.7292
  375SOL    HW2 1499   1.022   2.011   2.183  0.1184 -1.6048 -0.3605
  375SOL     MW 1500   1.098   2.036   2.221 -0.0109 -0.8980 -0.5521
  376SOL     OW 1501   0.846   2.521   0.146  0.7703  0.3986  0.0804
  376SOL    HW1 1502   0.785   2.464   0.201 -2.8046 -3.4889 -0.5504
  376SOL    HW2 1503   0.845   2.472   0.058 -0.6356  1.3347 -1.9272
  376SOL     MW 1504   0.838   2.507   0.141  0.1131  0.0092 -0.2677
  377SOL     OW 1505   1.349   2.090   0.940  0.2633 -0.3473  0.3599
  377SOL    HW1 1506   1.276   2.055   0.890  0.6626 -1.5022  2.6599
  377SOL    HW2 1507   1.333   2.052   1.022 -1.5244  4.4217 -0.1170
  377SOL     MW 1508   1.338   2.080   0.945  0.0801  0.1296  0.6004
  378SOL     OW 1509   0.880   2.871   1.637 -0.1467 -0.0998  0.0509
  378SOL    HW1 1510   0.899   2.774   1.645 -0.4682 -3.0491  0.2367
  378SOL    HW2 1511   0.931   2.882   1.557  2.1992 -1.7991 -2.7057
  378SOL     MW 1512   0.889   2.859   1.628  0.1204 -0.7131 -0.2883
  379SOL     OW 1513   1.063   1.555   2.301  0.1125  0.0639  0.2152
  379SOL    HW1 1514   0.985   1.552   2.243  1.8611  0.3444 -1.9859
  379SOL    HW2 1515   1.150   1.535   2.259  1.0474 -2.5385  2.3449
  379SOL     MW 1516   1.064   1.552   2.288  0.4666 -0.2425  0.2057
  380SOL     OW 1517   0.918   0.137   1.526  0.3321  0.0311  0.7853
  380SOL    HW1 1518   0.926   0.053   1.475  0.7783  0.9475 -0.0610
  380SOL    HW2 1519   0.985   0.127   1.598  1.4248  1.7665 -1.8140
  380SOL     MW 1520   0.928   0.125   1.528  0.5351  0.3809  0.3307
  381SOL     OW 1521   0.840   2.064   0.903  0.2960  0.4107  0.0022
  381SOL    HW1 1522   0.937   2.048   0.910 -1.1001 -1.9403 -0.1687
  381SOL    HW2 1523   0.824   2.127   0.973  1.7837 -0.7633 -1.4308
  381SOL     MW 1524   0.850   2.070   0.913  0.3081 -0.0544 -0.2094
  382SOL     OW 1525   0.870   0.125   0.593  0.0416  0.3712 -0.4868
  382SOL    HW1 1526   0.806   0.161   0.658 -2.1623 -1.1008  0.5664
  382SOL    HW2 1527   0.837   0.039   0.579  1.6713  0.3571 -0.9437
  382SOL     MW 1528   0.858   0.119   0.600 -0.0342  0.1751 -0.4081
  383SOL     OW 1529   0.652   3.105   0.302  0.0454 -0.2051 -0.4446
  383SOL    HW1 1530   0.706   3.033   0.277  0.5327  1.7021  2.2169
  383SOL    HW2 1531   0.594   3.070   0.366  2.4937  0.4027 -1.4828
  383SOL     MW 1532   0.651   3.091   0.307  0.4327  0.1267 -0.2304
  384SOL     OW 1533   0.778   2.962   0.610  0.2104 -0.2301  0.2688
  384SOL    HW1 1534   0.849   2.953   0.681  2.3688  1.0642 -4.8834
  384SOL    HW2 1535   0.720   2.890   0.635  2.5157  0.2862  0.5830
  384SOL     MW 1536   0.779   2.951   0.623  0.7994  0.0088 -0.3695
  385SOL     OW 1537   1.380   2.056   1.539  0.1626 -0.1056  0.0956
  385SOL    HW1 1538   1.462   2.091   1.586  3.4977 -1.2288  0.3901
  385SOL    HW2 1539   1.361   1.980   1.599  2.6517 -0.5652  2.2994
  385SOL     MW 1540   1.388   2.050   1.553  0.9311 -0.3145  0.4252
  386SOL     OW 1541   1.459   0.382   0.844 -0.1729 -0.2715  0.0709
  386SOL    HW1 1542   1.425   0.422   0.924  2.8445  0.9260 -0.4804
  386SOL    HW2 1543   1.550   0.375   0.869 -1.7468 -1.1053  0.8736
  386SOL     MW 1544   1.466   0.386   0.858  0.0175 -0.2235  0.1040
  387SOL     OW 1545   0.811   2.269   1.572  0.6951 -0.2646  0.2837
  387SOL    HW1 1546   0.891   2.292   1.516 -0.0273  0.4065 -2.1817
  387SOL    HW2 1547   0.814   2.178   1.578  1.4945  3.1080 -1.1354
  387SOL     MW 1548   0.822   2.260   1.565  0.7052  0.2689 -0.2288
  388SOL     OW 1549   1.464   2.802   1.495  0.3400  0.1907 -0.0455
  388SOL    HW1 1550   1.409   2.836   1.426  1.7571 -2.9985  0.6725
  388SOL    HW2 1551   1.536   2.755   1.451  0.3430 -2.0520 -0.2088
  388SOL     MW 1552   1.466   2.800   1.480  0.5273 -0.5260  0.0277
  389SOL     OW 1553   0.452   0.104   3.054 -0.2319 -0.4278 -0.2620
  389SOL    HW1 1554   0.492   0.021   3.019  0.1794 -1.2378 -1.7216
  389SOL    HW2 1555   0.455   0.158   2.972 -2.6374 -2.2699  0.4311
  389SOL     MW 1556   0.458   0.100   3.038 -0.4950 -0.7777 -0.3631
  390SOL     OW 1557   1.374  -0.001   0.710  0.1706 -0.5408  0.1774
  390SOL    HW1 1558   1.415   0.016   0.625 -1.1575  0.1258 -1.3340
  390SOL    HW2 1559   1.435   0.057   0.766 -0.3925  0.0493 -3.7531
  390SOL     MW 1560   1.387   0.009   0.706 -0.0789 -0.3750 -0.5406
  391SOL     OW 1561   0.305   2.150   1.507  0.0795 -0.1069 -0.0759
  391SOL    HW1 1562   0.325   2.165   1.602 -1.8390 -1.4412 -1.2351
  391SOL    HW2 1563   0.278   2.239   1.477 -0.2956 -0.0200 -1.2344
  391SOL     MW 1564   0.304   2.163   1.515 -0.2231 -0.2715 -0.3817
  392SOL     OW 1565   1.954   2.131   0.323  0.3366 -0.9474  0.0032
  392SOL    HW1 1566   2.009   2.211   0.325 -0.2301  0.1784 -0.6156
  392SOL    HW2 1567   1.866   2.157   0.297 -1.4671 -0.1960  1.1123
  392SOL     MW 1568   1.950   2.145   0.320  0.0238 -0.6997  0.0679
  393SOL     OW 1569   0.233   2.951   2.800  0.3527  0.0277 -0.5170
  393SOL    HW1 1570   0.319   2.953   2.758 -0.6040  1.6851 -0.8133
  393SOL    HW2 1571   0.215   3.043   2.818  0.3254  1.0566 -0.2345
  393SOL     MW 1572   0.242   2.963   2.797  0.2229  0.3821 -0.5188
  394SOL     OW 1573   0.979   1.766   1.569 -0.6260 -0.0814  0.6686
  394SOL    HW1 1574   1.019   1.790   1.651  0.1464 -1.8503 -1.1829
  394SOL    HW2 1575   0.915   1.832   1.552  1.1738  0.1428  0.0347
  394SOL     MW 1576   0.976   1.778   1.577 -0.2866 -0.2852  0.3407
  395SOL     OW 1577   0.956   2.946   2.722  0.0758 -0.1349  0.1495
  395SOL    HW1 1578   1.022   3.019   2.734 -3.4389 -0.5961 -0.9860
  395SOL    HW2 1579   1.011   2.873   2.687  2.1968 -1.5034 -0.6891
  395SOL     MW 1580   0.972   2.946   2.719 -0.1081 -0.3763 -0.1109
  396SOL     OW 1581   0.713   1.880   2.360 -0.1113  0.6413  0.1710
  396SOL    HW1 1582   0.763   1.823   2.419 -0.0217  2.1604  2.8127
  396SOL    HW2 1583   0.637   1.836   2.318 -1.3426  2.0249 -1.0644
  396SOL     MW 1584   0.709   1.867   2.362 -0.2620  1.0243  0.3566
  397SOL     OW 1585   1.027   2.288   1.393  0.6017  0.2293  0.5632
  397SOL    HW1 1586   1.049   2.331   1.313 -1.1638 -0.9876  0.8072
  397SOL    HW2 1587   1.103   2.269   1.454 -0.2204 -0.6987  1.2296
  397SOL     MW 1588   1.040   2.291   1.391  0.2603 -0.0537  0.6834
  398SOL     OW 1589   0.661   2.717   0.661  0.1411 -0.4028  0.1178
  398SOL    HW1 1590   0.605   2.675   0.595  0.4279 -0.2157 -1.2722
  398SOL    HW2 1591   0.736   2.655   0.660 -0.9332 -0.3371  2.1627
  398SOL     MW 1592   0.664   2.703   0.652  0.0372 -0.3694  0.2042
  399SOL     OW 1593   0.328   2.051   0.395  0.3779 -0.2775  0.5581
  399SOL    HW1 1594   0.264   2.111   0.425 -0.3499 -1.4319 -0.1740
  399SOL    HW2 1595   0.353   2.090   0.307  1.7817  1.4137 -1.2760
  399SOL     MW 1596   0.323   2.064   0.387  0.4671 -0.2066  0.2195
  400SOL     OW 1597   0.599   1.935   0.124  0.2116  0.1841  0.4829
  400SOL    HW1 1598   0.563   2.030   0.145 -0.5991  2.2992 -0.3051
  400SOL    HW2 1599   0.578   1.868   0.193 -0.3819 -0.5824  2.2487
  400SOL     MW 1600   0.592   1.939   0.136  0.0263  0.3620  0.6119
  401SOL     OW 1601   0.845   2.019   3.080 -0.3693 -0.4206  0.2899
  401SOL    HW1 1602   0.917   1.967   3.119  0.1287  1.2911 -0.5701
  401SOL    HW2 1603   0.766   1.997   3.129 -1.7382 -2.1178 -2.6985
  401SOL     MW 1604   0.844   2.009   3.092 -0.4842 -0.4187 -0.2179
  402SOL     OW 1605   0.601   3.013   1.836 -0.1814  0.5045  0.4107
  402SOL    HW1 1606   0.679   2.960   1.851  0.0507 -1.4273  3.7608
  402SOL    HW2 1607   0.618   3.075   1.769 -1.0380 -1.3450 -2.2644
  402SOL     MW 1608   0.614   3.014   1.829 -0.2638  0.0056  0.4997
  403SOL     OW 1609   0.149   0.495   0.426 -0.0548 -0.0531  0.3161
  403SOL    HW1 1610   0.233   0.529   0.465 -1.2693 -1.1562  0.3615
  403SOL    HW2 1611   0.174   0.457   0.346  1.4967  0.4895  0.5963
  403SOL     MW 1612   0.164   0.495   0.421 -0.0104 -0.1270  0.3591
  404SOL     OW 1613   0.947   2.969   0.828  0.3812  0.3353  0.1367
  404SOL    HW1 1614   1.027   2.915   0.806 -1.3302  1.4090 -1.7222
  404SOL    HW2 1615   0.982   3.059   0.819 -0.1895  1.5255 -0.1353
  404SOL     MW 1616   0.962   2.974   0.824  0.0801  0.6340 -0.1445
  405SOL     OW 1617   0.529   2.474   1.517 -0.1730  0.6242 -0.3025
  405SOL    HW1 1618   0.514   2.543   1.457  2.3601 -2.0069  2.7403
  405SOL    HW2 1619   0.561   2.411   1.453 -0.7673  2.3037  1.0851
  405SOL     MW 1620   0.531   2.474   1.500  0.0828  0.4986  0.2821
  406SOL     OW 1621   0.465   2.348   1.087 -0.4310 -0.2991 -0.0436
  406SOL    HW1 1622   0.379   2.393   1.086 -0.7284  2.2747 -1.1467
  406SOL    HW2 1623   0.462   2.278   1.159  0.5828 -1.9716  0.5192
  406SOL     MW 1624   0.453   2.344   1.097 -0.3365 -0.1802 -0.1149
  407SOL     OW 1625   0.055   2.634   1.095  0.0077 -0.2866  0.2860
  407SOL    HW1 1626   0.114   2.661   1.169  1.2278  1.5000  2.1222
  407SOL    HW2 1627   0.114   2.643   1.017 -0.9276  0.4536  0.0041
  407SOL     MW 1628   0.071   2.639   1.094  0.0453  0.0468  0.4911
  408SOL     OW 1629   2.132   2.169   0.698 -0.3062  0.7975 -0.1371
  408SOL    HW1 1630   2.058   2.208   0.758  0.2951 -0.5714  2.8830
  408SOL    HW2 1631   2.063   2.126   0.637  0.3794 -0.9426 -0.4155
  408SOL     MW 1632   2.113   2.169   0.698 -0.1364  0.3873  0.2247
  409SOL     OW 1633   1.597   0.089   0.845  0.0375 -0.3540  0.0614
  409SOL    HW1 1634   1.669   0.151   0.826 -0.2556  0.1176  2.8710
  409SOL    HW2 1635   1.596   0.076   0.941  0.5602  0.5770  1.6531
  409SOL     MW 1636   1.607   0.096   0.855  0.0678 -0.1690  0.6421
  410SOL     OW 1637   1.083   2.441   1.167 -0.4957  0.3942  0.3267
  410SOL    HW1 1638   1.021   2.442   1.094 -0.1952 -0.8785  0.4931
  410SOL    HW2 1639   1.155   2.405   1.117  0.3811  1.7365  1.8056
  410SOL     MW 1640   1.084   2.437   1.151 -0.3404  0.4034  0.5438
  411SOL     OW 1641   1.994   2.929   2.925  0.2123 -0.2092  0.5378
  411SOL    HW1 1642   2.001   2.908   2.829 -0.4724 -0.9968 -1.4078
  411SOL    HW2 1643   1.975   3.023   2.926 -0.2558 -2.2107  2.1211
  411SOL     MW 1644   1.993   2.939   2.913  0.0602 -0.5772  0.4900
  412SOL     OW 1645   1.016   2.239   0.611 -0.0817 -0.0111 -0.3254
  412SOL    HW1 1646   1.053   2.328   0.628 -2.7438  1.6086 -0.7367
  412SOL    HW2 1647   0.961   2.245   0.535 -0.5695 -0.4802 -1.7632
  412SOL     MW 1648   1.014   2.252   0.603 -0.4973  0.1407 -0.5694
  413SOL     OW 1649   0.623   2.692   0.026 -0.2373 -0.3314 -0.3564
  413SOL    HW1 1650   0.681   2.620   0.060 -0.3488 -2.2364  0.6542
  413SOL    HW2 1651   0.602   2.650  -0.057  0.4250  0.9158  0.6022
  413SOL     MW 1652   0.628   2.677   0.020 -0.1646 -0.4182 -0.0966
  414SOL     OW 1653   2.042   2.985   1.102 -0.0842  0.1880  0.0481
  414SOL    HW1 1654   2.062   3.075   1.123  4.4601 -0.6511  0.2572
  414SOL    HW2 1655   2.019   2.974   1.008 -0.5493 -0.9520 -2.1425
  414SOL     MW 1656   2.041   2.995   1.092  0.4540 -0.0731 -0.2133
  415SOL     OW 1657   1.646   2.844   1.150 -0.2526  0.2040  0.4985
  415SOL    HW1 1658   1.716   2.876   1.209  1.0760  0.2146 -2.7951
  415SOL    HW2 1659   1.691   2.771   1.107  0.5690  1.7419  1.9698
  415SOL     MW 1660   1.661   2.839   1.152  0.0311  0.4083  0.2581
  416SOL     OW 1661   0.634   1.791   1.431  0.5522 -0.0608 -0.1628
  416SOL    HW1 1662   0.559   1.843   1.410 -2.9661 -0.3174  0.3134
  416SOL    HW2 1663   0.617   1.713   1.382 -0.3119  1.4237  1.1363
  416SOL     MW 1664   0.622   1.788   1.422 -0.0260  0.1012  0.0715
  417SOL     OW 1665   0.925   0.052   2.068 -0.4383 -0.2444  0.6803
  417SOL    HW1 1666   0.854   0.034   2.124  0.6565 -1.5123  2.0269
  417SOL    HW2 1667   0.924  -0.004   1.993 -1.3095  2.0819  0.5407
  417SOL     MW 1668   0.916   0.042   2.066 -0.4088 -0.1048  0.8395
  418SOL     OW 1669   0.782   2.877   0.191 -0.6011 -0.2893  0.5227
  418SOL    HW1 1670   0.859   2.875   0.135  0.5647 -0.7201  0.8702
  418SOL    HW2 1671   0.721   2.810   0.154  0.3619  1.9258 -0.2495
  418SOL     MW 1672   0.784   2.868   0.179 -0.3202 -0.0539  0.4667
  419SOL     OW 1673   0.637   2.691   1.323 -0.0128  0.1523  0.0616
  419SOL    HW1 1674   0.664   2.753   1.386  0.6003  1.1607  0.7767
  419SOL    HW2 1675   0.702   2.620   1.319 -0.4137 -0.6695  2.8028
  419SOL     MW 1676   0.649   2.690   1.331  0.0152  0.1769  0.5176
  420SOL     OW 1677   0.829   2.225   1.118  0.2687 -0.0080  0.4727
  420SOL    HW1 1678   0.743   2.258   1.144  1.9010 -2.7518  0.5722
  420SOL    HW2 1679   0.862   2.287   1.055 -2.2082 -0.8372  0.1535
  420SOL     MW 1680   0.822   2.238   1.113  0.1573 -0.4794  0.4437
  421SOL     OW 1681   2.925   0.134   0.085  0.4219 -0.7907 -0.5385
  421SOL    HW1 1682   2.844   0.105   0.047  3.7692 -1.6725 -0.7736
  421SOL    HW2 1683   2.975   0.072   0.030  0.7881  2.7105  0.0711
  421SOL     MW 1684   2.921   0.122   0.073  0.9119 -0.4451 -0.4891
  422SOL     OW 1685   0.895   2.450   0.974  0.5475 -0.1947  0.0624
  422SOL    HW1 1686   0.831   2.495   1.026  3.3424 -0.3053 -2.0515
  422SOL    HW2 1687   0.867   2.455   0.884  1.6772 -0.8848 -0.8274
  422SOL     MW 1688   0.883   2.457   0.969  1.0653 -0.3004 -0.3339
  423SOL     OW 1689   1.529   0.039   0.491  0.5027  0.2731  0.1118
  423SOL    HW1 1690   1.535   0.002   0.405 -2.0144  0.2321 -0.6644
  423SOL    HW2 1691   1.518   0.132   0.483 -0.3858  0.1804  2.0351
  423SOL     MW 1692   1.529   0.046   0.479  0.0533  0.2555  0.2632
  424SOL     OW 1693   0.637   2.297   1.341 -0.3271  0.2857 -0.2800
  424SOL    HW1 1694   0.605   2.208   1.341 -1.1351 -0.0242  1.3658
  424SOL    HW2 1695   0.699   2.296   1.414  0.4885  0.9238 -0.9817
  424SOL     MW 1696   0.641   2.285   1.350 -0.3261  0.3290 -0.1554
  425SOL     OW 1697   1.724   2.792   2.055  0.3138  0.2188  0.0639
  425SOL    HW1 1698   1.730   2.824   1.960  2.4248  0.7483 -1.9139
  425SOL    HW2 1699   1.747   2.699   2.052  0.2599 -0.1751  1.3273
  425SOL     MW 1700   1.728   2.784   2.042  0.5852  0.2367 -0.0303
  426SOL     OW 1701   0.846   1.692   1.935 -0.3242  0.9520  0.2234
  426SOL    HW1 1702   0.803   1.688   1.846  0.9096 -1.2232 -0.3210
  426SOL    HW2 1703   0.850   1.772   1.976 -2.9792 -0.0689 -0.4574
  426SOL     MW 1704   0.841   1.702   1.928 -0.5118  0.5303  0.0618
  427SOL     OW 1705   0.369   1.752   1.870  0.0309 -0.3733  0.2365
  427SOL    HW1 1706   0.404   1.672   1.830 -1.7922  2.1703  3.2366
  427SOL    HW2 1707   0.302   1.714   1.935  1.9020 -2.2113  2.9182
  427SOL     MW 1708   0.365   1.737   1.873  0.0372 -0.2802  0.9861
  428SOL     OW 1709   0.642   2.542   1.101 -0.3926 -0.1463 -0.0744
  428SOL    HW1 1710   0.578   2.466   1.107  0.1214 -1.9537  1.1285
  428SOL    HW2 1711   0.629   2.597   1.173 -0.6721 -0.3973 -1.5783
  428SOL     MW 1712   0.632   2.539   1.111 -0.3617 -0.4179 -0.1141
  429SOL     OW 1713   1.195   2.785   1.082  0.2990  0.7822 -0.5030
  429SOL    HW1 1714   1.102   2.785   1.113  1.4797  0.3161  0.6741
  429SOL    HW2 1715   1.230   2.871   1.091 -0.2582  0.5695 -0.1059
  429SOL     MW 1716   1.188   2.796   1.087  0.3813  0.6926 -0.2953
  430SOL     OW 1717   1.182   2.822   0.801  0.2915 -0.0269 -0.3893
  430SOL    HW1 1718   1.168   2.778   0.885  2.4460 -0.7290 -1.4041
  430SOL    HW2 1719   1.165   2.758   0.734  0.9989 -2.0786  0.9272
  430SOL     MW 1720   1.178   2.808   0.803  0.6691 -0.3902 -0.3495
  431SOL     OW 1721   0.328   1.907   1.119  0.3769 -0.0689  0.3689
  431SOL    HW1 1722   0.401   1.841   1.126 -0.2148 -4.1635  1.2107
  431SOL    HW2 1723   0.313   1.934   1.029  0.3455  2.7693 -1.3358
  431SOL     MW 1724   0.336   1.902   1.108  0.2946 -0.2346  0.2551
  432SOL     OW 1725   0.016   3.103   1.122 -0.4957 -0.2491 -0.0035
  432SOL    HW1 1726   0.025   3.127   1.216  5.0344  0.5740  0.9717
  432SOL    HW2 1727  -0.041   3.030   1.130  1.1461  4.9863 -0.4224
  432SOL     MW 1728   0.010   3.096   1.135  0.4505  0.5503  0.0699
  433SOL     OW 1729   0.640   2.927   1.495 -0.1794 -0.0845 -0.2265
  433SOL    HW1 1730   0.620   3.019   1.522  0.3992 -0.5964  3.0719
  433SOL    HW2 1731   0.713   2.923   1.558  3.6220 -0.8044  0.2166
  433SOL     MW 1732   0.647   2.939   1.507  0.3985 -0.2470  0.2671
  434SOL     OW 1733   1.479   2.818   1.771 -0.0621 -0.5085  1.1961
  434SOL    HW1 1734   1.419   2.877   1.815 -2.2876 -3.1371 -0.5476
  434SOL    HW2 1735   1.450   2.817   1.676 -0.2029  0.1127  1.0745
  434SOL     MW 1736   1.467   2.826   1.764 -0.3743 -0.7734  0.9500
  435SOL     OW 1737   2.699   1.793   0.284 -0.2005 -0.0270  0.1651
  435SOL    HW1 1738   2.758   1.847   0.223 -1.0297 -2.4636  0.9748
  435SOL    HW2 1739   2.612   1.791   0.253 -2.4831  0.5678  1.2142
  435SOL     MW 1740   2.695   1.800   0.272 -0.6111 -0.2700  0.4103
  436SOL     OW 1741   1.359   2.756   0.350  0.6591 -0.1114 -0.0250
  436SOL    HW1 1742   1.424   2.739   0.412 -1.7454  1.2136 -2.2098
  436SOL    HW2 1743   1.318   2.829   0.390  1.8025 -0.6242 -0.8238
  436SOL     MW 1744   1.362   2.763   0.364  0.4927 -0.0042 -0.4187
  437SOL     OW 1745   0.915   3.062   1.301 -0.5231  0.8846  0.1306
  437SOL    HW1 1746   0.976   3.084   1.229 -0.0988 -1.1792 -1.6500
  437SOL    HW2 1747   0.868   2.993   1.264  0.6439  2.2040  1.6560
  437SOL     MW 1748   0.917   3.056   1.287 -0.3131  0.7864  0.0969
  438SOL     OW 1749   0.864   2.700   1.976 -0.4722 -0.6150  0.3430
  438SOL    HW1 1750   0.873   2.636   2.052  1.6871 -4.1705  1.8012
  438SOL    HW2 1751   0.836   2.652   1.900 -0.5192  1.6938  2.1465
  438SOL     MW 1752   0.862   2.685   1.976 -0.1935 -0.7795  0.7733
  439SOL     OW 1753   1.166   2.062   0.449 -0.3143 -0.0466 -0.0803
  439SOL    HW1 1754   1.117   2.102   0.522 -2.8490  1.1240 -0.1163
  439SOL    HW2 1755   1.171   2.139   0.389 -1.2915 -0.9790  0.2166
  439SOL     MW 1756   1.160   2.077   0.450 -0.7777 -0.0152 -0.0459
  440SOL     OW 1757   1.784   2.754   3.013  0.8833 -0.8013  0.4111
  440SOL    HW1 1758   1.739   2.791   3.092 -2.8120 -0.0900  0.0919
  440SOL    HW2 1759   1.840   2.824   2.987  1.4011 -0.9635 -1.4105
  440SOL     MW 1760   1.785   2.768   3.020  0.4641 -0.7289  0.1287
  441SOL     OW 1761   0.498   2.733   0.414 -0.1969  0.4200  0.1843
  441SOL    HW1 1762   0.430   2.717   0.346 -0.8429 -1.7646  0.5753
  441SOL    HW2 1763   0.483   2.816   0.452  0.5148 -4.0502  1.7082
  441SOL     MW 1764   0.487   2.742   0.410 -0.1882 -0.4580  0.4369
  442SOL     OW 1765   0.025   2.372   0.626  0.2790  0.3163 -0.1260
  442SOL    HW1 1766   0.036   2.464   0.602  1.0510 -3.8855 -1.7003
  442SOL    HW2 1767  -0.067   2.358   0.644  0.5431  2.1164 -1.1624
  442SOL     MW 1768   0.014   2.382   0.625  0.4157 -0.0006 -0.4705
  443SOL     OW 1769   1.474   1.791   1.943  0.0515  0.5082  0.6450
  443SOL    HW1 1770   1.430   1.814   1.862  0.3463  0.7525  1.4329
  443SOL    HW2 1771   1.433   1.714   1.971  0.6061  1.4362 -1.4419
  443SOL     MW 1772   1.463   1.784   1.936  0.1636  0.6629  0.4736
  444SOL     OW 1773   0.926   2.589   1.600 -0.2345 -0.0318 -0.4061
  444SOL    HW1 1774   1.003   2.545   1.630  1.0875  0.2175 -0.2157
  444SOL    HW2 1775   0.851   2.557   1.647  0.9728  0.6240 -0.1880
  444SOL     MW 1776   0.927   2.579   1.611  0.0993  0.0876 -0.3522
  445SOL     OW 1777   1.204   0.082   1.380 -0.2812  0.2683 -0.4577
  445SOL    HW1 1778   1.145   0.128   1.438 -0.1672 -2.1986  0.4508
  445SOL    HW2 1779   1.207   0.130   1.297  0.7586 -0.0921 -0.3628
  445SOL     MW 1780   1.196   0.095   1.377 -0.1290 -0.1047 -0.3253
  446SOL     OW 1781   2.697   2.849   1.067 -0.5207 -0.3752 -0.1829
  446SOL    HW1 1782   2.653   2.902   0.998 -0.4652  2.4875 -0.9621
  446SOL    HW2 1783   2.742   2.776   1.024  1.9592 -0.1608  2.4960
  446SOL     MW 1784   2.697   2.846   1.052 -0.1862  0.0308  0.0678
  447SOL     OW 1785   0.052   1.956   1.562  0.3478  0.5208 -0.3537
  447SOL    HW1 1786   0.068   1.885   1.627  0.8120 -0.9973  0.0395
  447SOL    HW2 1787  -0.003   1.914   1.493  3.2153 -1.0003  1.4359
  447SOL     MW 1788   0.047   1.941   1.562  0.7874  0.1198 -0.0657
  448SOL     OW 1789   1.693   2.336   1.669 -0.4113 -0.5526 -0.0370
  448SOL    HW1 1790   1.653   2.258   1.702 -1.1254  0.4393 -0.2624
  448SOL    HW2 1791   1.627   2.402   1.678  0.9864  1.1205 -0.3467
  448SOL     MW 1792   1.679   2.334   1.675 -0.3211 -0.2010 -0.1076
  449SOL     OW 1793   0.958   2.892   0.406  0.2069  0.2334 -0.1317
  449SOL    HW1 1794   0.895   2.875   0.336 -0.5395 -2.2231 -0.4401
  449SOL    HW2 1795   0.893   2.924   0.473 -0.1522 -2.1686  2.0195
  449SOL     MW 1796   0.941   2.894   0.406  0.0610 -0.4076  0.1114
  450SOL     OW 1797   1.165   2.523   0.746  0.7375 -0.7256  1.2141
  450SOL    HW1 1798   1.188   2.485   0.827 -2.2124  0.3628 -2.2359
  450SOL    HW2 1799   1.239   2.501   0.683  2.0404  1.2974 -0.7808
  450SOL     MW 1800   1.178   2.515   0.748  0.5202 -0.3151  0.4957
  451SOL     OW 1801   0.545   2.003   1.695 -0.3942  0.0658 -0.3642
  451SOL    HW1 1802   0.639   2.012   1.678  1.9638  2.4476  0.1328
  451SOL    HW2 1803   0.512   1.993   1.607  0.0083 -1.9134  1.7925
  451SOL     MW 1804   0.554   2.003   1.681 -0.0300  0.1189 -0.0141
  452SOL     OW 1805   0.308   2.621   3.090 -0.9285  0.0500  0.4676
  452SOL    HW1 1806   0.380   2.682   3.120  0.3190  0.1127  2.0762
  452SOL    HW2 1807   0.241   2.687   3.089 -0.0221 -0.4585 -0.6843
  452SOL     MW 1808   0.309   2.638   3.094 -0.6443 -0.0088  0.5279
  453SOL     OW 1809   0.205   2.994   1.575 -0.2624 -0.5635  0.1435
  453SOL    HW1 1810   0.264   2.952   1.636  0.1799 -0.3879  0.0212
  453SOL    HW2 1811   0.249   2.977   1.496  0.3486  0.2927  1.9247
  453SOL     MW 1812   0.218   2.986   1.573 -0.1234 -0.4274  0.3623
  454SOL     OW 1813   0.959   2.778   1.182  0.4801  0.1782 -0.2315
  454SOL    HW1 1814   0.938   2.707   1.239  0.8388 -0.8191  0.9613
  454SOL    HW2 1815   0.891   2.784   1.117  0.5349  0.3322 -0.1918
  454SOL     MW 1816   0.947   2.770   1.181  0.5347  0.0669 -0.0689
  455SOL     OW 1817   1.753   2.840   0.181  0.0987 -0.5574  0.0602
  455SOL    HW1 1818   1.793   2.827   0.272  1.6504 -3.1809  0.1090
  455SOL    HW2 1819   1.676   2.785   0.181 -0.2651 -0.9771  1.7421
  455SOL     MW 1820   1.748   2.831   0.193  0.2555 -0.9589  0.2885
  456SOL     OW 1821   2.758   0.256   1.464  0.0303 -0.1815  0.3083
  456SOL    HW1 1822   2.764   0.190   1.393 -0.8753 -1.0453 -0.7967
  456SOL    HW2 1823   2.786   0.339   1.428  0.9144 -1.3727  0.9265
  456SOL     MW 1824   2.762   0.258   1.450  0.0275 -0.4526  0.2441
  457SOL     OW 1825   0.818   1.664   3.057  0.5695  0.0153  0.1100
  457SOL    HW1 1826   0.722   1.646   3.053  0.8168  0.1811 -1.2564
  457SOL    HW2 1827   0.825   1.710   3.141 -1.9552  0.8790  0.8650
  457SOL     MW 1828   0.806   1.667   3.068  0.2690  0.1511  0.0293
  458SOL     OW 1829   1.362   1.467   0.725  0.1441 -0.2483  0.5012
  458SOL    HW1 1830   1.297   1.533   0.686 -1.7142  2.0917  0.4739
  458SOL    HW2 1831   1.350   1.381   0.685  1.5151 -0.9549  0.9413
  458SOL     MW 1832   1.352   1.464   0.715  0.0798 -0.0328  0.5556
  459SOL     OW 1833   1.602   3.045   0.247 -0.5205  0.1621 -0.4392
  459SOL    HW1 1834   1.660   2.973   0.209 -1.3483 -2.0098  1.0525
  459SOL    HW2 1835   1.540   3.070   0.175  1.2075  1.3597  0.7448
  459SOL     MW 1836   1.601   3.039   0.232 -0.4018  0.0336 -0.0862
  460SOL     OW 1837   1.773   2.238   0.638  0.1787 -0.0181 -0.1689
  460SOL    HW1 1838   1.686   2.235   0.685  1.9572  0.3108 -0.2347
  460SOL    HW2 1839   1.795   2.147   0.614 -1.5553  2.2276  1.5964
  460SOL     MW 1840   1.765   2.225   0.641  0.1846  0.3216  0.0553
  461SOL     OW 1841   0.405   2.446   0.525  0.2666  0.3395  0.4634
  461SOL    HW1 1842   0.406   2.532   0.482  0.2943  2.4094 -0.6907
  461SOL    HW2 1843   0.380   2.457   0.613 -0.5591 -1.1425  0.3159
  461SOL     MW 1844   0.402   2.459   0.531  0.1613  0.4170  0.2917
  462SOL     OW 1845   0.284   0.242   1.284  0.1994 -0.0555 -0.3779
  462SOL    HW1 1846   0.329   0.223   1.201 -0.2142  0.0642 -0.2468
  462SOL    HW2 1847   0.362   0.250   1.343 -1.8367 -1.1508 -1.1385
  462SOL     MW 1848   0.301   0.240   1.281 -0.1238 -0.1842 -0.4610
  463SOL     OW 1849   1.101   0.073   0.721 -0.2535  0.3420 -0.2966
  463SOL    HW1 1850   1.168   0.021   0.678  1.0983  3.2349  1.2188
  463SOL    HW2 1851   1.028   0.086   0.657  0.1908  0.0628  1.2677
  463SOL     MW 1852   1.100   0.068   0.707 -0.0165  0.6868  0.1098
  464SOL     OW 1853   0.744   3.079   2.274  0.3077 -0.2338 -0.3836
  464SOL    HW1 1854   0.739   2.983   2.298  0.1465  1.1030  2.0492
  464SOL    HW2 1855   0.747   3.113   2.369  0.0624 -0.1817 -1.2688
  464SOL     MW 1856   0.744   3.071   2.290  0.2541 -0.0506 -0.1794
  465SOL     OW 1857   0.836   0.351   0.390  0.0906  0.3393  0.7803
  465SOL    HW1 1858   0.796   0.287   0.450 -0.6623  0.0667  2.0879
  465SOL    HW2 1859   0.812   0.319   0.301 -0.2360 -0.8147  3.7234
  465SOL     MW 1860   0.827   0.338   0.386 -0.0518  0.1510  1.3411
  466SOL     OW 1861   1.113   2.048   0.789 -0.5732 -0.1849 -0.0397
  466SOL    HW1 1862   1.089   1.978   0.729  1.9885 -3.1157  0.2990
  466SOL    HW2 1863   1.079   2.136   0.760  0.9028  1.4700  2.0610
  466SOL     MW 1864   1.106   2.050   0.777 -0.0405 -0.3532  0.2821
  467SOL     OW 1865   1.268   2.353   0.979 -0.4570  0.3209 -0.0131
  467SOL    HW1 1866   1.358   2.385   0.985 -0.5507  0.5328 -0.7335
  467SOL    HW2 1867   1.288   2.259   0.987 -0.7887 -0.9339  0.2390
  467SOL     MW 1868   1.283   2.345   0.981 -0.5132  0.1833 -0.0749
  468SOL     OW 1869   0.489   2.667   1.919 -0.9295  0.2150  0.0481
  468SOL    HW1 1870   0.480   2.573   1.889 -1.3930 -4.5456  2.2916
  468SOL    HW2 1871   0.438   2.708   1.855  0.7981  0.5434  2.1380
  468SOL     MW 1872   0.481   2.660   1.907 -0.7627 -0.3698  0.6198
  469SOL     OW 1873   0.321   2.154   1.796  0.1878 -0.2656 -0.4213
  469SOL    HW1 1874   0.273   2.106   1.861 -1.8699  2.0689  0.0795
  469SOL    HW2 1875   0.403   2.107   1.788  0.9456  0.9340  2.2748
  469SOL     MW 1876   0.325   2.142   1.803  0.0163  0.2007  0.0005
  470SOL     OW 1877   3.037   2.584   0.098  0.1743  0.0697  0.1266
  470SOL    HW1 1878   2.957   2.600   0.155 -1.2984  0.7440  0.7343
  470SOL    HW2 1879   3.009   2.612   0.009 -0.5931  1.6928  1.4248
  470SOL     MW 1880   3.023   2.590   0.094 -0.1212  0.3728  0.3781
  471SOL     OW 1881   1.143   2.643   1.375 -0.3880 -0.4853  0.0587
  471SOL    HW1 1882   1.074   2.581   1.360  0.1172 -0.7527 -0.5094
  471SOL    HW2 1883   1.189   2.654   1.289  1.4943  5.2941  0.6266
  471SOL     MW 1884   1.140   2.636   1.361 -0.0730  0.2419  0.0587
  472SOL     OW 1885   2.965   2.137   0.362 -0.1882  0.3211  0.2646
  472SOL    HW1 1886   2.963   2.072   0.293 -1.2662 -0.4658 -0.6064
  472SOL    HW2 1887   2.887   2.091   0.414 -2.2213 -2.1529 -0.1914
  472SOL     MW 1888   2.955   2.122   0.360 -0.5987 -0.1092  0.0895
  473SOL     OW 1889   0.873   2.549   1.334  0.6141  0.3749  0.7001
  473SOL    HW1 1890   0.913   2.471   1.300  0.2197 -0.6240  1.2403
  473SOL    HW2 1891   0.894   2.553   1.427 -0.5643 -2.3174 -1.3617
  473SOL     MW 1892   0.881   2.539   1.342  0.4066 -0.1121  0.4993
  474SOL     OW 1893   0.720   2.281   1.838  1.4446 -0.0624 -0.0562
  474SOL    HW1 1894   0.799   2.262   1.889 -0.8765 -1.2503  2.4028
  474SOL    HW2 1895   0.746   2.295   1.749  2.3263 -1.1446 -2.2846
  474SOL     MW 1896   0.734   2.280   1.833  1.2547 -0.3619 -0.0258
  475SOL     OW 1897   1.600   3.083   1.519 -0.2186  0.3861  0.3335
  475SOL    HW1 1898   1.540   3.016   1.481 -0.0216 -1.9226  0.8792
  475SOL    HW2 1899   1.651   3.028   1.578 -0.6023 -2.5107 -2.7632
  475SOL     MW 1900   1.599   3.067   1.522 -0.2432 -0.3007 -0.0031
  476SOL     OW 1901   1.429   2.679   1.189  0.5686  0.4443  0.1863
  476SOL    HW1 1902   1.362   2.721   1.144  0.7153 -2.9472  1.7969
  476SOL    HW2 1903   1.506   2.736   1.175 -1.2252  0.7581  1.5778
  476SOL     MW 1904   1.430   2.692   1.181  0.3512  0.0382  0.5824
  477SOL     OW 1905   0.860   2.536   0.704  0.3878 -0.3012 -0.1965
  477SOL    HW1 1906   0.953   2.558   0.686  1.1333  0.5398 -1.7013
  477SOL    HW2 1907   0.849   2.468   0.635  1.3827  1.1274  0.7072
  477SOL     MW 1908   0.871   2.530   0.692  0.6174 -0.0018 -0.2758
  478SOL     OW 1909   0.219   2.647   0.877 -0.3041 -0.1624 -0.6635
  478SOL    HW1 1910   0.261   2.735   0.879  0.6759 -1.9904 -3.2180
  478SOL    HW2 1911   0.288   2.584   0.848 -0.1625  0.0902  0.5522
  478SOL     MW 1912   0.234   2.650   0.874 -0.1561 -0.3703 -0.8402
  479SOL     OW 1913   1.394   1.980   1.271 -0.2149  0.5076  0.5758
  479SOL    HW1 1914   1.402   2.001   1.366  0.7187  0.4020 -1.3977
  479SOL    HW2 1915   1.442   1.896   1.271  0.7120  0.8640 -0.0732
  479SOL     MW 1916   1.401   1.971   1.284  0.0306  0.5407  0.2298
  480SOL     OW 1917   1.976   2.453   1.362 -1.0663 -0.0415 -0.9506
  480SOL    HW1 1918   2.002   2.359   1.388  1.3875  0.3878  1.2239
  480SOL    HW2 1919   1.970   2.447   1.269  0.5910 -3.5005  1.5149
  480SOL     MW 1920   1.979   2.440   1.353 -0.5239 -0.4412 -0.3384
  481SOL     OW 1921   1.081   0.088   1.078  0.3555 -0.6594  0.5359
  481SOL    HW1 1922   1.155   0.032   1.045  0.5969  1.6817 -0.0152
  481SOL    HW2 1923   1.123   0.172   1.082 -0.6587 -0.1464  0.3540
  481SOL     MW 1924   1.096   0.091   1.074  0.2535 -0.2828  0.4392
  482SOL     OW 1925   1.042   0.001   0.261 -0.2718 -0.2692 -0.2852
  482SOL    HW1 1926   1.007  -0.072   0.310  2.0094 -1.6542  0.9039
  482SOL    HW2 1927   1.066   0.074   0.319  0.8461 -0.7751  2.7226
  482SOL     MW 1928   1.041   0.001   0.275  0.1767 -0.5187  0.2685
  483SOL     OW 1929   0.472   2.983   0.458  0.5861 -0.1522 -0.2791
  483SOL    HW1 1930   0.402   2.979   0.390 -1.5449 -1.3148 -0.0471
  483SOL    HW2 1931   0.424   3.014   0.541  2.8440  2.6381  3.8233
  483SOL     MW 1932   0.456   2.987   0.460  0.6029  0.0626  0.2928
  484SOL     OW 1933   1.828   2.033   1.426  0.1498  0.5926  0.6261
  484SOL    HW1 1934   1.907   2.094   1.420  2.9854 -0.2572 -2.2277
  484SOL    HW2 1935   1.831   2.008   1.522 -0.8766 -1.5387 -0.2167
  484SOL     MW 1936   1.839   2.037   1.438  0.3885  0.1993  0.1384
  485SOL     OW 1937   0.626   2.417   0.296  0.2725  0.0862  0.0309
  485SOL    HW1 1938   0.673   2.391   0.383 -0.6050 -2.1575  2.5574
  485SOL    HW2 1939   0.586   2.501   0.313  0.3975  1.4779  0.3438
  485SOL     MW 1940   0.627   2.424   0.310  0.1732 -0.0262  0.4055
  486SOL     OW 1941   0.174   2.384   1.459 -0.2538 -0.4684  1.3981
  486SOL    HW1 1942   0.222   2.441   1.399 -1.2728 -1.0115 -1.7315
  486SOL    HW2 1943   0.173   2.433   1.540  0.6689  0.1139 -0.0690
  486SOL     MW 1944   0.180   2.398   1.462 -0.2665 -0.4632  0.7916
  487SOL     OW 1945   1.178   1.764   1.041 -0.3049  0.2351  0.4257
  487SOL    HW1 1946   1.168   1.846   1.080 -1.2883 -0.7063  0.7987
  487SOL    HW2 1947   1.272   1.761   1.019  1.8525  2.0828 -0.0639
  487SOL     MW 1948   1.189   1.774   1.044 -0.1500  0.3547  0.4103
  488SOL     OW 1949   1.594   1.852   0.542  0.4312  0.3705 -0.1900
  488SOL    HW1 1950   1.684   1.842   0.513  2.4560 -0.2899 -0.2060
  488SOL    HW2 1951   1.553   1.933   0.505 -2.0863 -0.6333 -1.6841
  488SOL     MW 1952   1.600   1.862   0.533  0.3662  0.1509 -0.3892
  489SOL     OW 1953   0.782   0.824   0.590 -0.1483 -0.5799 -0.3014
  489SOL    HW1 1954   0.844   0.753   0.567 -0.4431 -0.1252  0.6742
  489SOL    HW2 1955   0.766   0.827   0.685 -0.0147  2.9088 -2.0822
  489SOL     MW 1956   0.788   0.815   0.599 -0.1696 -0.0596 -0.4076
  490SOL     OW 1957   1.438   2.058   0.503  0.0076  0.1870 -1.0328
  490SOL    HW1 1958   1.463   2.141   0.453 -0.6396  1.9022  0.0682
  490SOL    HW2 1959   1.347   2.049   0.486 -0.3027  1.5989 -0.3608
  490SOL     MW 1960   1.429   2.068   0.494 -0.1187  0.5996 -0.7989
  491SOL     OW 1961   1.289   3.005   0.410  0.6874  0.6064  0.1724
  491SOL    HW1 1962   1.378   3.042   0.427  5.1890  1.7716  0.8555
  491SOL    HW2 1963   1.246   3.058   0.342 -0.8197 -0.4102 -0.1526
  491SOL     MW 1964   1.295   3.017   0.403  1.0825  0.6260  0.2197
  492SOL     OW 1965   1.517   2.200   0.750 -0.5751 -0.0933  0.0511
  492SOL    HW1 1966   1.476   2.151   0.684  0.1617  0.3065  2.9220
  492SOL    HW2 1967   1.476   2.151   0.826 -3.2547  1.1091  1.5085
  492SOL     MW 1968   1.506   2.187   0.751 -0.8315  0.1181  0.6222
  493SOL     OW 1969   0.268   2.960   0.284  0.7429  0.5867 -0.0974
  493SOL    HW1 1970   0.223   3.021   0.346 -1.7171 -3.2911  0.2093
  493SOL    HW2 1971   0.284   3.027   0.212  0.4899  0.1767 -1.5296
  493SOL     MW 1972   0.264   2.977   0.282  0.3849  0.0210 -0.2459
  494SOL     OW 1973   0.443   2.438   1.770  0.3366 -0.0042 -0.5775
  494SOL    HW1 1974   0.512   2.372   1.780  1.9157  0.3710  0.3094
  494SOL    HW2 1975   0.449   2.457   1.679 -1.1220 -2.9729  2.7067
  494SOL     MW 1976   0.453   2.432   1.759  0.3525 -0.3464 -0.0272
  495SOL     OW 1977   2.828   1.741   2.555 -0.2247  0.5628  0.1318
  495SOL    HW1 1978   2.759   1.806   2.554  2.4500 -0.4423  0.5943
  495SOL    HW2 1979   2.799   1.705   2.639  1.0790  0.4804 -1.3209
  495SOL     MW 1980   2.815   1.745   2.566  0.3002  0.4193  0.0012
  496SOL     OW 1981   2.920   2.338   2.647 -0.3113 -0.6222  0.0056
  496SOL    HW1 1982   2.968   2.292   2.713  0.1968  0.8084 -1.6820
  496SOL    HW2 1983   2.965   2.422   2.641 -1.2217  0.9146  1.2187
  496SOL     MW 1984   2.932   2.343   2.655 -0.3644 -0.2307 -0.0570
  497SOL     OW 1985   1.536   2.223   2.671 -0.0113 -0.2448  0.1706
  497SOL    HW1 1986   1.466   2.173   2.633  1.6465 -2.3602 -1.1348
  497SOL    HW2 1987   1.585   2.164   2.732 -1.3697  1.0247  1.5180
  497SOL     MW 1988   1.534   2.208   2.674  0.0282 -0.3564  0.1761
  498SOL     OW 1989   1.492   2.692   2.356  0.2335  0.2773 -0.0439
  498SOL    HW1 1990   1.481   2.598   2.358  0.5352  0.9225  1.1418
  498SOL    HW2 1991   1.584   2.710   2.369 -0.2170  2.2304 -0.4188
  498SOL     MW 1992   1.503   2.682   2.358  0.2138  0.6201  0.0630
  499SOL     OW 1993   0.957   0.147   3.062 -0.0274  0.2521 -0.2323
  499SOL    HW1 1994   0.917   0.150   3.152 -1.5409  0.1209  1.7972
  499SOL    HW2 1995   1.023   0.076   3.081 -0.3872 -2.8981  0.8185
  499SOL     MW 1996   0.960   0.138   3.077 -0.2746 -0.1808  0.1741
  500SOL     OW 1997   1.040   2.483   2.765 -0.5568 -0.0294 -0.3674
  500SOL    HW1 1998   1.118   2.463   2.825  0.5768  0.2161 -1.1164
  500SOL    HW2 1999   0.958   2.476   2.820 -2.1747 -0.7026  0.2374
  500SOL     MW 2000   1.039   2.480   2.780 -0.6207 -0.0858 -0.3864
  501SOL     OW 2001   1.761   2.214   3.061 -0.1107 -0.1343 -0.2771
  501SOL    HW1 2002   1.717   2.275   3.119  1.0799  0.4855 -0.3204
  501SOL    HW2 2003   1.850   2.244   3.062 -1.3688 -2.0172 -2.9208
  501SOL     MW 2004   1.767   2.226   3.068 -0.1196 -0.3010 -0.6317
  502SOL     OW 2005   0.120   2.831   3.013 -0.5188  0.1816 -0.4915
  502SOL    HW1 2006   0.055   2.774   2.975 -0.7563 -1.0600 -2.7735
  502SOL    HW2 2007   0.165   2.868   2.940 -2.2611 -0.2727 -2.2627
  502SOL     MW 2008   0.117   2.829   2.998 -0.7800 -0.0422 -1.0263
  503SOL     OW 2009   1.032   2.909   2.155  0.3834  0.4287 -0.0773
  503SOL    HW1 2010   0.956   2.866   2.118  1.4647  0.0752 -0.8668
  503SOL    HW2 2011   1.018   3.005   2.152  4.6401  3.0912  0.0711
  503SOL     MW 2012   1.020   2.916   2.150  1.0877  0.7333 -0.1619
  504SOL     OW 2013   0.097   2.717   2.127  0.8378 -0.6953 -0.4883
  504SOL    HW1 2014   0.114   2.626   2.096  1.0554  2.8124 -1.2926
  504SOL    HW2 2015   0.097   2.723   2.218  1.6441 -0.6377  0.6094
  504SOL     MW 2016   0.100   2.706   2.135  0.9729 -0.2249 -0.4496
  505SOL     OW 2017   1.717   2.726   2.685 -0.0246 -0.3346 -0.0755
  505SOL    HW1 2018   1.727   2.675   2.608 -0.3678 -0.4916  1.9319
  505SOL    HW2 2019   1.629   2.717   2.713  1.6018 -2.2267  3.3196
  505SOL     MW 2020   1.707   2.718   2.679  0.1447 -0.6049  0.6373
  506SOL     OW 2021   1.640   3.001   2.848  0.3372  0.2098  0.5966
  506SOL    HW1 2022   1.665   2.934   2.910 -0.3736  0.1919  1.4315
  506SOL    HW2 2023   1.711   3.015   2.782 -0.9004 -0.7457  0.1712
  506SOL     MW 2024   1.653   2.994   2.847  0.0801  0.0814  0.6506
  507SOL     OW 2025   0.809   2.806   2.896 -0.3357  1.2062  0.0134
  507SOL    HW1 2026   0.856   2.860   2.837 -0.5958  0.6847 -0.9296
  507SOL    HW2 2027   0.729   2.861   2.911  1.4394 -0.7511 -0.2664
  507SOL     MW 2028   0.804   2.820   2.890 -0.1358  0.8791 -0.1479
  508SOL     OW 2029   1.133   2.055   2.481 -0.3819  0.7306 -0.5094
  508SOL    HW1 2030   1.190   2.061   2.558 -0.2420  0.5082 -3.0534
  508SOL    HW2 2031   1.071   2.128   2.480 -0.9926  1.0293 -1.1312
  508SOL     MW 2032   1.132   2.065   2.491 -0.4440  0.7406 -0.9271
  509SOL     OW 2033   0.555   2.529   2.892 -0.2545  0.2232  0.4574
  509SOL    HW1 2034   0.563   2.506   2.792  0.7375 -0.5684 -3.0685
  509SOL    HW2 2035   0.469   2.487   2.919  0.8677 -1.3110  5.0857
  509SOL     MW 2036   0.544   2.520   2.883  0.0244 -0.0837  0.6028
  510SOL     OW 2037   1.494   2.526   1.716 -0.4843  0.4494  0.3553
  510SOL    HW1 2038   1.494   2.620   1.738 -1.1468  0.0918  1.4785
  510SOL    HW2 2039   1.446   2.487   1.794 -2.6118 -0.5780  1.0222
  510SOL     MW 2040   1.488   2.534   1.729 -0.8525  0.2666  0.5915
  511SOL     OW 2041   0.427   2.591   2.473  0.5714 -0.1925  0.2642
  511SOL    HW1 2042   0.502   2.580   2.532 -1.3412  0.3048  2.3418
  511SOL    HW2 2043   0.453   2.595   2.383 -2.2578  0.3797  2.7915
  511SOL     MW 2044   0.440   2.590   2.469 -0.0542 -0.0514  0.8718
  512SOL     OW 2045   1.004   1.975   2.848  0.2587 -0.2402 -0.0089
  512SOL    HW1 2046   0.912   1.968   2.870 -0.4497  1.3488 -1.5060
  512SOL    HW2 2047   1.035   1.883   2.845 -0.6094 -0.9120 -2.5584
  512SOL     MW 2048   0.996   1.962   2.850  0.0507 -0.1191 -0.5428
  513SOL     OW 2049   1.462   2.391   2.395  0.2766 -0.5895 -0.3836
  513SOL    HW1 2050   1.535   2.411   2.458 -1.5856  1.8079  3.4088
  513SOL    HW2 2051   1.478   2.297   2.383  0.3976  0.2337 -1.7208
  513SOL     MW 2052   1.473   2.381   2.401  0.0469 -0.1646 -0.0597
  514SOL     OW 2053   0.224   2.433   2.619  0.5263 -0.1838 -0.8641
  514SOL    HW1 2054   0.279   2.489   2.558  0.4425  1.1272 -0.4961
  514SOL    HW2 2055   0.250   2.468   2.708 -1.6450 -0.2803  2.4678
  514SOL     MW 2056   0.235   2.445   2.623  0.2287 -0.0236 -0.3759
  515SOL     OW 2057   1.164   2.064   1.923  0.2219  0.1645 -0.2856
  515SOL    HW1 2058   1.105   2.135   1.927  2.3253  0.7391  0.2998
  515SOL    HW2 2059   1.211   2.067   2.001  1.2568 -0.1837 -2.7752
  515SOL     MW 2060   1.163   2.074   1.934  0.6360  0.1944 -0.5368
  516SOL     OW 2061   1.443   2.516   3.053 -0.1715 -0.2910  0.7264
  516SOL    HW1 2062   1.488   2.515   2.969 -1.6904 -0.5817  3.3203
  516SOL    HW2 2063   1.353   2.506   3.025  2.6666 -2.2577  0.0800
  516SOL     MW 2064   1.437   2.515   3.038  0.0026 -0.5888  0.9834
  517SOL     OW 2065   0.580   2.430   2.116 -0.5333  0.3926 -0.7046
  517SOL    HW1 2066   0.544   2.518   2.164  1.0027  0.4714 -0.6075
  517SOL    HW2 2067   0.503   2.369   2.102 -1.4015 -1.2067 -1.7775
  517SOL     MW 2068   0.565   2.434   2.120 -0.4452  0.1920 -0.8334
  518SOL     OW 2069   1.891   0.076   2.982 -0.0881 -0.2382  0.7277
  518SOL    HW1 2070   1.845   0.133   2.916  0.3191  3.0001  0.2456
  518SOL    HW2 2071   1.828   0.079   3.056 -1.1020  2.1981 -0.3091
  518SOL     MW 2072   1.877   0.084   2.983 -0.1681  0.5105  0.5273
  519SOL     OW 2073   0.740   2.545   1.785  0.3076 -0.5748  0.4808
  519SOL    HW1 2074   0.741   2.455   1.831 -1.5295  1.3768  0.1979
  519SOL    HW2 2075   0.668   2.582   1.828 -2.0149  1.7048  0.0577
  519SOL     MW 2076   0.731   2.538   1.797 -0.2412 -0.0166  0.3876
  520SOL     OW 2077   1.207   2.144   2.920 -1.0278 -0.0607 -0.4288
  520SOL    HW1 2078   1.136   2.081   2.917 -0.0269 -0.0400 -1.2015
  520SOL    HW2 2079   1.267   2.126   2.995  4.2321 -0.8775 -2.2673
  520SOL     MW 2080   1.206   2.134   2.930 -0.2017 -0.1657 -0.7734
  521SOL     OW 2081   1.765   2.010   2.237 -0.6229 -0.5187 -0.3817
  521SOL    HW1 2082   1.779   2.038   2.146  1.1143  0.5247  1.4606
  521SOL    HW2 2083   1.766   1.912   2.243 -0.9146 -0.8133 -0.6052
  521SOL     MW 2084   1.767   2.001   2.226 -0.4322 -0.4199 -0.1681
  522SOL     OW 2085   2.854   2.600   2.221  0.6515  0.6972  0.2969
  522SOL    HW1 2086   2.919   2.530   2.239 -0.2060 -4.1877  1.9767
  522SOL    HW2 2087   2.809   2.625   2.301 -0.4960  0.4482 -0.6713
  522SOL     MW 2088   2.857   2.594   2.234  0.3870  0.0199  0.3908
  523SOL     OW 2089   0.850   1.496   2.126 -0.1303  0.1789 -0.1443
  523SOL    HW1 2090   0.843   1.562   2.052  0.3954 -0.7906 -0.5445
  523SOL    HW2 2091   0.913   1.428   2.093  0.9510 -0.4788  0.9616
  523SOL     MW 2092   0.857   1.496   2.112  0.0817 -0.0358 -0.0512
  524SOL     OW 2093   0.825   2.461   2.957 -0.6725 -0.2265 -0.4435
  524SOL    HW1 2094   0.756   2.506   2.913  0.2937  2.5291  1.4526
  524SOL    HW2 2095   0.819   2.369   2.941 -0.6649  0.0079  1.8716
  524SOL     MW 2096   0.815   2.455   2.949 -0.5440  0.1680  0.1121
  525SOL     OW 2097   0.343   2.310   2.028 -0.1582  0.1047  0.0787
  525SOL    HW1 2098   0.342   2.249   2.111  2.2835 -1.8865 -0.6689
  525SOL    HW2 2099   0.333   2.261   1.945 -1.2379 -1.2842  1.6189
  525SOL     MW 2100   0.342   2.295   2.028  0.0215 -0.3412  0.1833
  526SOL     OW 2101   0.632   2.122   2.089 -0.1554  0.0766  0.6105
  526SOL    HW1 2102   0.644   2.170   2.009 -0.1175 -0.7189  0.1413
  526SOL    HW2 2103   0.645   2.183   2.157 -1.2456  2.1012 -1.4216
  526SOL     MW 2104   0.636   2.136   2.088 -0.2942  0.2388  0.2805
  527SOL     OW 2105   1.404   1.956   2.136  0.4130 -0.0601  0.2884
  527SOL    HW1 2106   1.378   1.913   2.224  1.1442  2.1492  1.1309
  527SOL    HW2 2107   1.436   1.885   2.077  1.1330 -0.8695  1.6710
  527SOL     MW 2108   1.404   1.941   2.140  0.6045  0.1246  0.5820
  528SOL     OW 2109   0.609   3.011   2.934 -0.9486  0.8592 -0.2704
  528SOL    HW1 2110   0.671   3.084   2.925 -0.2665 -0.3604  1.0800
  528SOL    HW2 2111   0.584   2.987   2.843  0.8477  0.1816  0.4889
  528SOL     MW 2112   0.614   3.017   2.921 -0.6216  0.6089  0.0080
  529SOL     OW 2113   0.978   2.285   1.949  0.2579  0.3486 -0.1698
  529SOL    HW1 2114   0.986   2.318   2.036 -0.5869 -1.5194 -1.8374
  529SOL    HW2 2115   1.017   2.351   1.894 -1.1388 -0.6512 -0.5214
  529SOL     MW 2116   0.984   2.298   1.953 -0.0379 -0.0298 -0.4362
  530SOL     OW 2117   1.211   2.436   2.971 -0.5673  0.1214  0.5621
  530SOL    HW1 2118   1.165   2.453   3.052  1.8600  2.3550  1.9031
  530SOL    HW2 2119   1.226   2.341   2.960 -0.2058  0.8547 -0.5371
  530SOL     MW 2120   1.207   2.425   2.980 -0.1993  0.5128  0.5940
  531SOL     OW 2121   0.936   1.859   2.565  0.2730  0.3664 -0.1930
  531SOL    HW1 2122   0.997   1.935   2.567  2.9213  1.0819 -2.6789
  531SOL    HW2 2123   0.898   1.855   2.648 -2.4504 -2.4540  1.8061
  531SOL     MW 2124   0.939   1.869   2.576  0.2631  0.0887 -0.2572
  532SOL     OW 2125   1.754   0.198   2.762 -0.1563  0.0679  0.1126
  532SOL    HW1 2126   1.660   0.191   2.753  2.5350 -1.8749 -1.0155
  532SOL    HW2 2127   1.789   0.169   2.680  3.2776 -1.5659  0.6179
  532SOL     MW 2128   1.746   0.193   2.750  0.6518 -0.4040  0.0304
  533SOL     OW 2129   1.960   2.566   3.097  0.3075 -0.2185 -0.4280
  533SOL    HW1 2130   1.900   2.516   3.154 -0.0348 -0.3603  1.3011
  533SOL    HW2 2131   1.891   2.636   3.067  1.2079 -0.8839  0.2021
  533SOL     MW 2132   1.943   2.568   3.100  0.3811 -0.3250 -0.1167
  534SOL     OW 2133   1.714   2.367   2.507 -0.2622  0.1034  0.1095
  534SOL    HW1 2134   1.671   2.296   2.554 -2.8227 -0.0647  0.1220
  534SOL    HW2 2135   1.799   2.387   2.560  2.2524 -0.7635 -0.6921
  534SOL     MW 2136   1.720   2.361   2.520 -0.2682 -0.0332  0.0054
  535SOL     OW 2137   1.886   2.381   1.866  0.1461 -0.4151 -0.0577
  535SOL    HW1 2138   1.842   2.357   1.780  1.9884  0.2231  1.1558
  535SOL    HW2 2139   1.979   2.366   1.849 -0.3313  0.4531 -0.3903
  535SOL     MW 2140   1.892   2.376   1.852  0.3262 -0.2163  0.0585
  536SOL     OW 2141   0.486   1.871   2.134  0.2060  0.4724 -0.3410
  536SOL    HW1 2142   0.446   1.847   2.056 -1.8400 -1.6530  0.1542
  536SOL    HW2 2143   0.534   1.955   2.114  2.6430 -0.1901 -2.5731
  536SOL     MW 2144   0.487   1.879   2.121  0.2576  0.1046 -0.5702
  537SOL     OW 2145   1.067   0.286   2.771 -0.3067  0.1762 -0.2931
  537SOL    HW1 2146   1.085   0.349   2.847 -0.2815  0.6287  0.4023
  537SOL    HW2 2147   1.051   0.344   2.697  1.1612 -1.6298  0.5873
  537SOL     MW 2148   1.067   0.302   2.771 -0.1097 -0.0024 -0.0852
  538SOL     OW 2149   1.425   0.060   0.059  0.3126  0.2685 -0.0592
  538SOL    HW1 2150   1.410   0.151   0.045  0.3156  0.7551 -0.0418
  538SOL    HW2 2151   1.335   0.024   0.034 -0.7615  1.9207 -0.1727
  538SOL     MW 2152   1.411   0.067   0.054  0.1713  0.5507 -0.0719
  539SOL     OW 2153   0.708   2.820   2.592  0.5166  0.6567 -0.0308
  539SOL    HW1 2154   0.791   2.856   2.624  0.6627  1.1255 -2.0130
  539SOL    HW2 2155   0.713   2.725   2.621 -1.9226  2.3617 -0.3118
  539SOL     MW 2156   0.720   2.813   2.600  0.2140  0.9435 -0.3294
  540SOL     OW 2157   0.302   2.453   2.884  0.8143 -0.2729 -0.0155
  540SOL    HW1 2158   0.285   2.523   2.951  2.4661 -1.0343 -1.2286
  540SOL    HW2 2159   0.267   2.370   2.925 -1.4913  1.5268 -0.6086
  540SOL     MW 2160   0.295   2.452   2.898  0.7281 -0.1359 -0.2538
  541SOL     OW 2161   0.254   2.946   2.130  0.3785 -0.3892 -0.8391
  541SOL    HW1 2162   0.186   2.878   2.108 -2.7910  1.0459  1.5318
  541SOL    HW2 2163   0.299   2.915   2.210 -1.8449  0.4450  1.1592
  541SOL     MW 2164   0.251   2.933   2.137 -0.3330 -0.0898 -0.2627
  542SOL     OW 2165   0.973   2.292   2.600 -0.0225 -0.0890  0.5520
  542SOL    HW1 2166   0.927   2.235   2.662 -0.1491 -0.0423 -0.9518
  542SOL    HW2 2167   1.016   2.358   2.664 -0.5568  0.6489 -0.7410
  542SOL     MW 2168   0.973   2.293   2.617 -0.1097  0.0145  0.1830
  543SOL     OW 2169   1.587   2.439   2.825  0.5318  0.2553  0.0371
  543SOL    HW1 2170   1.575   2.372   2.758 -0.4359  3.6940  1.6783
  543SOL    HW2 2171   1.649   2.497   2.787 -1.1723 -0.6864 -2.2515
  543SOL     MW 2172   1.593   2.438   2.811  0.1793  0.5848 -0.0484
  544SOL     OW 2173   0.692   0.312   2.717 -0.3141  0.1277 -0.2097
  544SOL    HW1 2174   0.602   0.308   2.747  0.1988  0.3468  3.7018
  544SOL    HW2 2175   0.693   0.251   2.640  0.5615 -0.3745 -0.7201
  544SOL     MW 2176   0.680   0.303   2.711 -0.1309  0.0903  0.2391
  545SOL     OW 2177   1.511   2.128   2.339  0.6216 -0.2293  0.0578
  545SOL    HW1 2178   1.456   2.095   2.268  0.2155  0.1780  0.1762
  545SOL    HW2 2179   1.598   2.120   2.317 -2.4690 -2.5066  0.5778
  545SOL     MW 2180   1.515   2.122   2.327  0.1602 -0.4760  0.1420
  546SOL     OW 2181   2.891   1.962   0.136  0.7905  0.3843  0.2278
  546SOL    HW1 2182   2.873   2.046   0.087 -2.7284  0.5741 -1.0859
  546SOL    HW2 2183   2.983   1.961   0.110  0.0976  1.1787 -0.2812
  546SOL     MW 2184   2.901   1.973   0.126  0.2348  0.5141 -0.0127
  547SOL     OW 2185   0.205   0.076   0.104 -0.5537 -0.3717 -0.2619
  547SOL    HW1 2186   0.290   0.061   0.054  1.1957 -2.0533 -0.2274
  547SOL    HW2 2187   0.133   0.057   0.050 -0.7782 -2.2998 -0.5732
  547SOL     MW 2188   0.207   0.071   0.090 -0.3525 -0.8479 -0.2984
  548SOL     OW 2189   0.364   2.557   0.259  0.5694  0.6696  0.1345
  548SOL    HW1 2190   0.354   2.570   0.167  0.8751  2.3043 -0.3235
  548SOL    HW2 2191   0.336   2.464   0.273  1.3494  2.2584 -0.3021
  548SOL     MW 2192   0.359   2.546   0.249  0.7127  1.0949  0.0164
  549SOL     OW 2193   0.838   1.936   2.122 -0.0858 -0.2069  0.2339
  549SOL    HW1 2194   0.779   1.990   2.079  0.8657 -0.3112  1.2786
  549SOL    HW2 2195   0.802   1.913   2.209  2.2512 -1.6336  1.8091
  549SOL     MW 2196   0.826   1.940   2.128  0.3481 -0.4089  0.5796
  550SOL     OW 2197   1.835   1.643   2.513 -1.2926 -0.6950  0.3975
  550SOL    HW1 2198   1.821   1.666   2.419 -0.4555 -5.4543  1.9353
  550SOL    HW2 2199   1.799   1.712   2.568  1.2325 -2.3664  0.0037
  550SOL     MW 2200   1.828   1.655   2.508 -0.8490 -1.5435  0.5485
  551SOL     OW 2201   0.924   2.224   0.193 -0.2865  0.3440 -0.0667
  551SOL    HW1 2202   1.017   2.223   0.198  1.5413 -1.6155 -0.5970
  551SOL    HW2 2203   0.903   2.158   0.121  2.5874 -0.2232  1.7803
  551SOL     MW 2204   0.933   2.215   0.184  0.3339  0.0106  0.1071
  552SOL     OW 2205   1.764   1.736   2.256  0.2223  0.2411 -0.2421
  552SOL    HW1 2206   1.675   1.707   2.254 -0.1054 -3.5986 -2.3070
  552SOL    HW2 2207   1.800   1.684   2.181 -3.7811 -0.5880  2.2288
  552SOL     MW 2208   1.757   1.726   2.246 -0.3491 -0.3749 -0.1885
  553SOL     OW 2209   1.238   2.301   1.577  0.3159 -0.0134 -0.2478
  553SOL    HW1 2210   1.269   2.209   1.571  0.0055  1.7087  3.0863
  553SOL    HW2 2211   1.304   2.358   1.542 -2.6414 -1.9209  2.5385
  553SOL     MW 2212   1.251   2.296   1.571 -0.1153 -0.0379  0.5597
  554SOL     OW 2213   0.509   2.972   2.690  0.2675  0.1280 -0.0843
  554SOL    HW1 2214   0.492   3.028   2.616 -2.1448  1.0967 -0.8325
  554SOL    HW2 2215   0.573   2.903   2.664  1.4946  1.0484 -1.2745
  554SOL     MW 2216   0.515   2.971   2.677  0.1111  0.3772 -0.3400
  555SOL     OW 2217   0.629   2.526   2.621 -0.0262 -0.0145 -0.1868
  555SOL    HW1 2218   0.596   2.432   2.627 -0.3502 -2.4525 -1.6202
  555SOL    HW2 2219   0.720   2.517   2.579  0.7866  0.7210 -1.4573
  555SOL     MW 2220   0.637   2.512   2.616  0.0383 -0.2391 -0.5436
  556SOL     OW 2221   1.072   1.853   0.042 -0.4558 -0.5745 -0.3014
  556SOL    HW1 2222   1.094   1.814  -0.041 -0.2081 -0.2750 -0.3270
  556SOL    HW2 2223   1.143   1.854   0.109  0.0562  0.0615  2.0703
  556SOL     MW 2224   1.085   1.848   0.040 -0.3555 -0.4510  0.0082
  557SOL     OW 2225   1.048   2.720   0.575 -0.3068  0.6289  0.3175
  557SOL    HW1 2226   1.070   2.649   0.519 -0.5230 -0.4729 -0.7100
  557SOL    HW2 2227   1.030   2.790   0.514 -1.8946 -3.5151  0.2574
  557SOL     MW 2228   1.049   2.720   0.559 -0.5448 -0.0632  0.1740
  558SOL     OW 2229   0.229   2.230   3.027 -0.1523 -0.1962 -0.2551
  558SOL    HW1 2230   0.279   2.149   3.038  2.5095 -0.6950 -1.0488
  558SOL    HW2 2231   0.184   2.252   3.112 -0.6819  0.4537  4.5375
  558SOL     MW 2232   0.230   2.223   3.040  0.1291 -0.1763  0.2725
  559SOL     OW 2233   1.060   2.311   2.248 -0.1088 -0.4668  0.1648
  559SOL    HW1 2234   1.153   2.344   2.241  1.1746 -3.0691  2.6718
  559SOL    HW2 2235   1.066   2.217   2.239 -1.9130  1.2994  2.3601
  559SOL     MW 2236   1.073   2.303   2.246 -0.1775 -0.5771  0.7852
  560SOL     OW 2237   2.168   2.668   0.154  0.1726  0.1990 -0.4154
  560SOL    HW1 2238   2.181   2.745   0.103  1.7813  0.0476  1.1323
  560SOL    HW2 2239   2.112   2.608   0.101 -0.3511  0.1650 -0.2163
  560SOL     MW 2240   2.162   2.670   0.140  0.3157  0.1745 -0.1849
  561SOL     OW 2241   0.484   2.200   0.186  0.0477  0.2471 -0.3226
  561SOL    HW1 2242   0.494   2.238   0.097 -1.6411  0.8044 -0.4697
  561SOL    HW2 2243   0.538   2.263   0.236  0.2936  0.2393 -1.2070
  561SOL     MW 2244   0.493   2.214   0.181 -0.1427  0.3196 -0.4587
  562SOL     OW 2245   0.654   2.306   2.358  0.1258  0.6175  0.2450
  562SOL    HW1 2246   0.628   2.346   2.273 -0.4106 -3.1404  2.0154
  562SOL    HW2 2247   0.734   2.330   2.395  0.0500 -1.0135  1.2699
  562SOL     MW 2248   0.661   2.314   2.351  0.0450 -0.0935  0.6138
  563SOL     OW 2249   1.263   0.408   0.578  0.0753 -0.1417 -0.1258
  563SOL    HW1 2250   1.207   0.340   0.529  0.6665  1.2087 -1.1315
  563SOL    HW2 2251   1.252   0.383   0.668  2.2657  0.7287  2.3800
  563SOL     MW 2252   1.254   0.395   0.583  0.4423  0.1513  0.0721
  564SOL     OW 2253   0.997   2.690   2.332  0.2442  1.2472 -0.2339
  564SOL    HW1 2254   1.018   2.753   2.267  0.5560 -3.4299  0.9835
  564SOL    HW2 2255   1.044   2.709   2.417 -1.8668  0.0690 -2.3320
  564SOL     MW 2256   1.006   2.701   2.335  0.0068  0.4747 -0.3501
  565SOL     OW 2257   2.750   2.802   2.626  0.0253 -0.0537  0.1075
  565SOL    HW1 2258   2.719   2.883   2.588  0.3265 -0.3109 -1.2468
  565SOL    HW2 2259   2.723   2.731   2.573  0.3747  5.3585 -0.6091
  565SOL     MW 2260   2.742   2.803   2.614  0.1112  0.6265 -0.1657
  566SOL     OW 2261   2.179   1.946   2.377  0.2187 -0.4255  0.4949
  566SOL    HW1 2262   2.169   1.909   2.291 -0.8166 -0.8807 -2.0652
  566SOL    HW2 2263   2.263   1.984   2.368 -2.3520 -1.2272  0.5570
  566SOL     MW 2264   2.189   1.946   2.365 -0.2571 -0.5913  0.1653
  567SOL     OW 2265   1.175   3.062   0.005 -0.1393 -0.1938 -0.0061
  567SOL    HW1 2266   1.144   3.066   0.095  1.1968 -1.8887 -1.3791
  567SOL    HW2 2267   1.147   2.972  -0.023  1.4880 -0.6421  0.5713
  567SOL     MW 2268   1.167   3.050   0.013  0.2517 -0.4766 -0.1111
  568SOL     OW 2269   1.657   2.031   2.854 -0.0735  0.1315  0.2180
  568SOL    HW1 2270   1.712   2.093   2.893  0.7714 -0.9278  0.8951
  568SOL    HW2 2271   1.717   1.981   2.794  0.5278  1.4081 -2.6181
  568SOL     MW 2272   1.672   2.032   2.851  0.1173  0.1602 -0.0668
  569SOL     OW 2273   0.130   2.244   2.436 -0.0872 -0.1750 -0.4369
  569SOL    HW1 2274   0.053   2.293   2.412  2.9315  0.7461  1.3591
  569SOL    HW2 2275   0.159   2.279   2.520 -0.3744  1.3673  0.8920
  569SOL     MW 2276   0.123   2.255   2.444  0.2732  0.1500 -0.0246
  570SOL     OW 2277   1.488   0.301   0.452  0.3184 -0.1747  0.3219
  570SOL    HW1 2278   1.404   0.340   0.492 -0.9434  1.9937 -2.2850
  570SOL    HW2 2279   1.556   0.337   0.513 -1.4488 -1.9948 -1.8435
  570SOL     MW 2280   1.486   0.311   0.466 -0.0812 -0.1287 -0.3078
  571SOL     OW 2281   1.354   2.374   2.138  0.0264 -0.2317 -0.1500
  571SOL    HW1 2282   1.424   2.388   2.202 -0.3716  0.5135  0.6540
  571SOL    HW2 2283   1.386   2.290   2.094 -0.8046 -1.8128  0.3417
  571SOL     MW 2284   1.367   2.365   2.140 -0.1358 -0.3420  0.0210
  572SOL     OW 2285   1.112   2.597   0.097 -0.1833  0.2662 -0.0276
  572SOL    HW1 2286   1.105   2.672   0.051  1.1653 -3.1682  3.2139
  572SOL    HW2 2287   1.013   2.584   0.119  1.1146 -0.3450  1.9629
  572SOL     MW 2288   1.098   2.605   0.094  0.1659 -0.2675  0.6627
  573SOL     OW 2289   1.199   2.296   0.278  0.3602  0.3739  0.2804
  573SOL    HW1 2290   1.285   2.295   0.234  1.1475  0.1252 -1.0339
  573SOL    HW2 2291   1.206   2.376   0.332 -0.6787  0.7655  3.1189
  573SOL     MW 2292   1.211   2.306   0.280  0.3270  0.3928  0.4815
  574SOL     OW 2293   1.147   2.562   0.378  0.1548  0.4138 -0.0642
  574SOL    HW1 2294   1.214   2.630   0.392  0.4461  1.4590  0.0966
  574SOL    HW2 2295   1.141   2.565   0.286 -0.6484  0.9499  1.7248
  574SOL     MW 2296   1.155   2.571   0.368  0.0873  0.6224  0.1931
  575SOL     OW 2297   3.074   2.210   1.620  0.2115  0.4531  0.6180
  575SOL    HW1 2298   3.095   2.116   1.603 -0.1423  0.0797  0.6231
  575SOL    HW2 2299   3.158   2.251   1.651  0.3481  1.1421  2.1959
  575SOL     MW 2300   3.088   2.203   1.622  0.1828  0.4948  0.8268
  576SOL     OW 2301   2.923   1.877   1.930  0.5225 -0.2987 -0.4143
  576SOL    HW1 2302   2.921   1.961   1.888 -0.1510 -0.2879 -1.1643
  576SOL    HW2 2303   2.857   1.838   1.868 -3.3034 -1.3271 -0.0075
  576SOL     MW 2304   2.914   1.883   1.916 -0.0712 -0.4329 -0.4596
  577SOL     OW 2305   2.135   0.150   0.017  0.4947  0.3091  0.3470
  577SOL    HW1 2306   2.081   0.154  -0.065  1.1042  1.2064 -0.5025
  577SOL    HW2 2307   2.084   0.100   0.077 -0.6818 -0.3723  0.9186
  577SOL     MW 2308   2.121   0.144   0.014  0.4199  0.3376  0.3104
  578SOL     OW 2309   1.977   2.123   2.334  0.3020  0.1006  0.3050
  578SOL    HW1 2310   1.904   2.071   2.289 -1.1156  0.3482  0.7296
  578SOL    HW2 2311   2.060   2.061   2.350  0.7746 -2.2276  0.3625
  578SOL     MW 2312   1.978   2.108   2.330  0.1773 -0.1739  0.3686
  579SOL     OW 2313   0.854   2.511   2.485  0.1016 -0.4105 -0.1286
  579SOL    HW1 2314   0.914   2.456   2.527  0.1284  1.0117  0.3043
  579SOL    HW2 2315   0.904   2.562   2.421  1.5043 -1.4441  1.4525
  579SOL     MW 2316   0.869   2.510   2.482  0.2902 -0.3592  0.1371
  580SOL     OW 2317   0.991   2.842   3.100  0.6373 -0.5091 -0.5225
  580SOL    HW1 2318   0.973   2.935   3.094  1.7139  0.7433  2.7329
  580SOL    HW2 2319   0.935   2.798   3.022 -2.9355  0.1927  1.7333
  580SOL     MW 2320   0.981   2.849   3.089  0.3079 -0.2513  0.2047
  581SOL     OW 2321   1.101   2.461   1.783 -0.2964  0.3378 -0.1620
  581SOL    HW1 2322   1.157   2.516   1.843  0.4650  1.0121  0.2010
  581SOL    HW2 2323   1.165   2.415   1.733  0.5850  0.3020  0.9711
  581SOL     MW 2324   1.116   2.462   1.785 -0.0797  0.4221  0.0354
  582SOL     OW 2325   0.009   2.963   2.659  0.4528  0.3585  0.1843
  582SOL    HW1 2326  -0.055   2.985   2.722 -0.6996 -2.1199  0.1905
  582SOL    HW2 2327   0.091   2.948   2.713 -3.4990 -3.3432  2.2696
  582SOL     MW 2328   0.011   2.963   2.675 -0.2206 -0.4569  0.4603
  583SOL     OW 2329   1.919   2.396   2.659 -0.0756 -0.0264  0.2768
  583SOL    HW1 2330   1.997   2.408   2.604  1.0027  0.5568  0.9402
  583SOL    HW2 2331   1.911   2.295   2.655 -0.2981 -1.6039 -0.1127
  583SOL     MW 2332   1.928   2.385   2.651  0.0373 -0.1576  0.3129
  584SOL     OW 2333   0.190   1.891   2.203 -0.1267 -0.1936 -0.8103
  584SOL    HW1 2334   0.188   1.892   2.299  1.3983  0.8274 -0.0799
  584SOL    HW2 2335   0.246   1.971   2.195 -0.1437 -2.5826  2.8220
  584SOL     MW 2336   0.197   1.902   2.215  0.0722 -0.3741 -0.2347
  585SOL     OW 2337   1.537   2.686   0.165 -0.7572 -0.6458 -0.1072
  585SOL    HW1 2338   1.504   2.678   0.073 -1.6220 -0.9902 -0.0424
  585SOL    HW2 2339   1.463   2.717   0.220  1.7527 -0.4628 -1.0931
  585SOL     MW 2340   1.523   2.689   0.160 -0.5401 -0.6671 -0.2288
  586SOL     OW 2341   1.345   2.783   2.572  0.2671 -0.4928  0.5608
  586SOL    HW1 2342   1.407   2.745   2.508 -1.0072  0.4919  2.9360
  586SOL    HW2 2343   1.358   2.877   2.555  1.2899  0.1991 -0.0880
  586SOL     MW 2344   1.355   2.791   2.561  0.2339 -0.2716  0.7886
  587SOL     OW 2345   1.302   1.457   2.150 -1.0438  0.6238 -0.1818
  587SOL    HW1 2346   1.260   1.379   2.185  0.9991  0.6217 -0.4044
  587SOL    HW2 2347   1.256   1.481   2.071  1.4174  1.4115  1.8059
  587SOL     MW 2348   1.290   1.450   2.144 -0.4496  0.7275  0.0511
  588SOL     OW 2349   1.323   2.026   2.690 -0.3801  0.3229 -0.2416
  588SOL    HW1 2350   1.370   1.946   2.707 -0.2137 -0.5553 -1.0266
  588SOL    HW2 2351   1.304   2.073   2.774  0.2840  0.3494  0.2306
  588SOL     MW 2352   1.326   2.022   2.703 -0.2705  0.2105 -0.2829
  589SOL     OW 2353   1.348   2.035   0.021  0.5039  0.6584  0.1797
  589SOL    HW1 2354   1.387   2.112   0.066  1.5995 -1.2555 -1.1476
  589SOL    HW2 2355   1.297   1.990   0.087 -1.0971 -1.0522  0.6227
  589SOL     MW 2356   1.346   2.039   0.036  0.4372  0.1802  0.0630
  590SOL     OW 2357   0.490   2.647   2.216 -0.3543 -0.0078  0.7048
  590SOL    HW1 2358   0.448   2.692   2.138 -3.7183  2.6104 -1.1437
  590SOL    HW2 2359   0.569   2.697   2.254  0.3390 -1.0329  0.1137
  590SOL     MW 2360   0.495   2.659   2.211 -0.7066  0.2024  0.3829
  591SOL     OW 2361   2.200   0.672   0.152 -0.0815  0.5924  0.3170
  591SOL    HW1 2362   2.133   0.711   0.209  2.6872  1.0632  1.1987
  591SOL    HW2 2363   2.174   0.727   0.079 -2.1821 -1.3868 -0.2430
  591SOL     MW 2364   2.187   0.684   0.150  0.0066  0.3934  0.3595
  592SOL     OW 2365   1.645   2.898   0.759 -0.4393 -0.2343 -0.8898
  592SOL    HW1 2366   1.631   2.995   0.759 -1.5111  1.3158  0.3792
  592SOL    HW2 2367   1.737   2.882   0.754 -0.1033  1.3479  1.4510
  592SOL     MW 2368   1.656   2.909   0.758 -0.5364  0.1790 -0.4136
  593SOL     OW 2369   1.937   0.719   0.733  0.3111  0.4174 -0.3262
  593SOL    HW1 2370   1.852   0.726   0.681 -0.8049  0.7297 -1.9776
  593SOL    HW2 2371   1.957   0.628   0.719 -2.4767  0.9993 -0.4431
  593SOL     MW 2372   1.929   0.708   0.724 -0.2040  0.5354 -0.5595
  594SOL     OW 2373   2.820   1.031   1.356 -0.0362  0.6391 -0.0928
  594SOL    HW1 2374   2.905   1.078   1.329  1.3319  1.4620 -4.2095
  594SOL    HW2 2375   2.783   1.001   1.271 -0.0135 -0.1885 -2.9551
  594SOL     MW 2376   2.826   1.034   1.341  0.1473  0.6385 -1.0136
  595SOL     OW 2377   0.542   0.947   0.855  0.2923  0.3509 -0.0102
  595SOL    HW1 2378   0.509   0.991   0.773  0.5539 -0.6814 -0.8124
  595SOL    HW2 2379   0.598   1.013   0.905 -0.0086 -0.8094 -2.0327
  595SOL     MW 2380   0.545   0.961   0.851  0.2871  0.0616 -0.3829
  596SOL     OW 2381   2.448   1.359   0.485  0.2124 -0.2171  0.1141
  596SOL    HW1 2382   2.427   1.428   0.423  1.2438  0.0522  2.9186
  596SOL    HW2 2383   2.509   1.412   0.534 -0.4419 -0.1272  1.4392
  596SOL     MW 2384   2.453   1.375   0.484  0.2622 -0.1697  0.6590
  597SOL     OW 2385   2.227   0.642   1.575 -0.3006  0.3062  0.8491
  597SOL    HW1 2386   2.253   0.605   1.660  0.9862  1.0828  2.0665
  597SOL    HW2 2387   2.153   0.584   1.536  1.5833  3.3383  2.1920
  597SOL     MW 2388   2.221   0.629   1.581  0.1178  0.8087  1.1869
  598SOL     OW 2389   2.583   1.022   2.890  0.0134 -0.0215 -0.7304
  598SOL    HW1 2390   2.603   0.929   2.883 -1.3794 -0.3929  2.7576
  598SOL    HW2 2391   2.663   1.069   2.905 -0.3861 -1.6555  1.2124
  598SOL     MW 2392   2.596   1.016   2.891 -0.2231 -0.2861 -0.0138
  599SOL     OW 2393   3.042   0.491   2.255 -1.0066  0.4464 -0.3096
  599SOL    HW1 2394   3.079   0.560   2.302  2.1700  1.0404 -2.7903
  599SOL    HW2 2395   3.036   0.525   2.157 -0.7552  0.0750 -1.6173
  599SOL     MW 2396   3.046   0.504   2.248 -0.5543  0.4758 -0.8094
  600SOL     OW 2397   1.828   1.705   0.838  0.2261 -0.1239 -0.2871
  600SOL    HW1 2398   1.859   1.753   0.918  0.2629 -1.3983  0.3388
  600SOL    HW2 2399   1.754   1.754   0.803  1.2725 -0.6257  0.2013
  600SOL     MW 2400   1.822   1.718   0.844  0.3690 -0.3583 -0.1401
  601SOL     OW 2401   2.539   0.766   0.871 -0.1365 -0.2036  0.0492
  601SOL    HW1 2402   2.551   0.738   0.963  1.1301  2.6940 -2.0493
  601SOL    HW2 2403   2.498   0.695   0.819  0.4640 -0.4810 -2.2143
  601SOL     MW 2404   2.535   0.752   0.876  0.1099  0.1422 -0.5264
  602SOL     OW 2405   2.258   1.926   0.765 -0.3303  0.5862 -0.0044
  602SOL    HW1 2406   2.198   1.853   0.739 -0.6612 -1.6484 -0.2320
  602SOL    HW2 2407   2.204   2.012   0.759 -0.1215 -3.2622  2.7894
  602SOL     MW 2408   2.243   1.928   0.761 -0.3464 -0.2164  0.3342
  603SOL     OW 2409   2.996   1.368   1.959  0.3662 -0.2020  0.2525
  603SOL    HW1 2410   2.981   1.422   2.034 -0.7888 -0.4901  2.0916
  603SOL    HW2 2411   3.041   1.292   1.992  2.8399 -3.3262 -0.3757
  603SOL     MW 2412   3.000   1.365   1.973  0.5402 -0.6522  0.4123
  604SOL     OW 2413   2.029   1.391   0.357 -0.0769 -0.1648 -0.5307
  604SOL    HW1 2414   2.096   1.347   0.409 -1.7839 -1.5232 -0.8046
  604SOL    HW2 2415   1.955   1.404   0.415  1.4044 -0.9716  1.9052
  604SOL     MW 2416   2.028   1.387   0.371 -0.1066 -0.4505 -0.2455
  605SOL     OW 2417   2.435   1.454   0.800 -0.1674  0.0636 -0.5739
  605SOL    HW1 2418   2.432   1.516   0.726  0.8304 -2.0676 -1.9924
  605SOL    HW2 2419   2.493   1.385   0.770  0.9659 -0.6746  0.6767
  605SOL     MW 2420   2.443   1.453   0.786  0.1138 -0.3150 -0.5961
  606SOL     OW 2421   2.688   1.761   1.784 -0.1496  0.2143 -0.2151
  606SOL    HW1 2422   2.660   1.823   1.850 -0.0492 -0.9436 -0.4806
  606SOL    HW2 2423   2.662   1.678   1.816  0.0278  2.4670 -2.5127
  606SOL     MW 2424   2.681   1.758   1.797 -0.1129  0.3587 -0.5532
  607SOL     OW 2425   2.393   0.995   3.079  0.6391  0.0407  0.2614
  607SOL    HW1 2426   2.468   0.997   3.012  0.0540  1.7027 -1.5334
  607SOL    HW2 2427   2.425   0.974   3.169 -3.3152 -2.2193 -2.0397
  607SOL     MW 2428   2.407   0.992   3.082  0.0402 -0.0382 -0.2790
  608SOL     OW 2429   1.904   0.257   0.478  0.8147  0.2102 -0.4124
  608SOL    HW1 2430   1.883   0.299   0.387  0.5994 -1.2760 -1.6828
  608SOL    HW2 2431   1.864   0.169   0.489  0.1664  0.2253 -1.7397
  608SOL     MW 2432   1.896   0.251   0.467  0.7007  0.0161 -0.7552
  609SOL     OW 2433   2.117   1.888   3.085 -0.6259 -0.2237  0.2550
  609SOL    HW1 2434   2.055   1.849   3.018  0.0498 -1.6494  0.3531
  609SOL    HW2 2435   2.090   1.856   3.171  1.0059  2.0577  1.1920
  609SOL     MW 2436   2.105   1.879   3.087 -0.3215 -0.1108  0.3916
  610SOL     OW 2437   1.808   0.966   1.213 -0.0315  0.6105  0.6043
  610SOL    HW1 2438   1.813   0.880   1.174  1.2912 -1.6334  0.3564
  610SOL    HW2 2439   1.709   0.999   1.213 -2.9596  1.3022 -2.6098
  610SOL     MW 2440   1.795   0.959   1.208 -0.2433  0.4057  0.1475
  611SOL     OW 2441   2.475   1.638   0.595  0.3362  0.1887  0.0027
  611SOL    HW1 2442   2.467   1.591   0.510 -0.4250 -0.8306 -1.1356
  611SOL    HW2 2443   2.456   1.727   0.575 -0.8053  2.0078 -0.1613
  611SOL     MW 2444   2.471   1.643   0.581  0.0852  0.2942 -0.1691
  612SOL     OW 2445   2.880   2.877   0.392  0.6152 -0.5225  0.5944
  612SOL    HW1 2446   2.908   2.894   0.483 -1.5999 -1.4582 -1.3328
  612SOL    HW2 2447   2.968   2.854   0.354  0.0273 -1.1447  0.7939
  612SOL     MW 2448   2.896   2.876   0.399  0.2454 -0.7281  0.3665
  613SOL     OW 2449   1.421   1.117   0.972  0.0894  0.5885 -0.8605
  613SOL    HW1 2450   1.445   1.207   0.969  2.1171 -1.1779  0.7064
  613SOL    HW2 2451   1.450   1.095   1.066  0.6765  1.6783 -0.4410
  613SOL     MW 2452   1.428   1.126   0.984  0.4344  0.4992 -0.5984
  614SOL     OW 2453   2.066   0.481   1.446  0.1895 -0.0532  0.3811
  614SOL    HW1 2454   2.060   0.434   1.528  0.6238 -0.4849 -2.6797
  614SOL    HW2 2455   1.978   0.520   1.416 -0.2362  2.1915 -0.5603
  614SOL     MW 2456   2.054   0.480   1.453  0.1907  0.1860 -0.1470
  615SOL     OW 2457   2.399   0.732   0.323 -0.0208 -0.5002 -0.0950
  615SOL    HW1 2458   2.473   0.672   0.331 -0.1522  3.3839  1.6414
  615SOL    HW2 2459   2.334   0.705   0.261 -1.1818 -0.1815  0.8788
  615SOL     MW 2460   2.400   0.720   0.316 -0.1913  0.0543  0.2626
  616SOL     OW 2461   2.583   0.394   1.649  0.0936 -0.3034  0.0306
  616SOL    HW1 2462   2.585   0.314   1.592 -1.7630  0.1191  1.1651
  616SOL    HW2 2463   2.546   0.456   1.583  0.3854 -1.6263 -1.6203
  616SOL     MW 2464   2.578   0.392   1.633 -0.1128 -0.4222 -0.0376
  617SOL     OW 2465   2.812   0.564   1.844 -0.4066  0.2810 -0.1653
  617SOL    HW1 2466   2.721   0.549   1.880 -1.2916 -0.6988  0.0515
  617SOL    HW2 2467   2.844   0.476   1.804  0.3607  2.5825 -0.7296
  617SOL     MW 2468   2.804   0.550   1.843 -0.4222  0.4554 -0.2111
  618SOL     OW 2469   2.814   0.238   2.003 -0.4804 -0.6874 -0.4292
  618SOL    HW1 2470   2.752   0.260   2.077  2.2067 -0.1152  0.4459
  618SOL    HW2 2471   2.904   0.219   2.041 -0.4208  1.1771  2.4286
  618SOL     MW 2472   2.818   0.238   2.018 -0.1180 -0.3659  0.0634
  619SOL     OW 2473   2.728   0.733   0.068 -0.1026  0.2491 -0.5661
  619SOL    HW1 2474   2.745   0.824   0.080  1.7100  0.2243  0.9776
  619SOL    HW2 2475   2.784   0.694   0.138  1.3006  0.8120 -1.6339
  619SOL     MW 2476   2.738   0.740   0.079  0.3217  0.3201 -0.5033
  620SOL     OW 2477   2.226   1.013   0.915 -0.0601 -0.0858 -0.1449
  620SOL    HW1 2478   2.299   1.021   0.852  1.2577 -1.1151  0.8566
  620SOL    HW2 2479   2.150   1.034   0.861  2.1675 -0.3767 -2.5247
  620SOL     MW 2480   2.226   1.017   0.900  0.4076 -0.2600 -0.3268
  621SOL     OW 2481   1.516   2.204   1.971  0.1703 -0.2457 -0.3614
  621SOL    HW1 2482   1.496   2.117   2.005  0.3041  2.0511 -2.1557
  621SOL    HW2 2483   1.611   2.212   1.974 -1.1158 -2.6001 -1.2251
  621SOL     MW 2484   1.526   2.194   1.976  0.0183 -0.2533 -0.7121
  622SOL     OW 2485   2.647   0.274   0.203  0.3807 -0.1216 -0.1626
  622SOL    HW1 2486   2.730   0.313   0.233 -2.6026 -1.5776  0.8515
  622SOL    HW2 2487   2.669   0.180   0.195  1.1466 -1.1628 -0.6253
  622SOL     MW 2488   2.661   0.267   0.206  0.0882 -0.4511 -0.0898
  623SOL     OW 2489   2.337   2.771   0.809 -0.1044  0.0409 -0.4783
  623SOL    HW1 2490   2.392   2.844   0.790 -2.0093 -0.5002  0.5233
  623SOL    HW2 2491   2.306   2.790   0.906 -0.6181  2.8800 -2.1747
  623SOL     MW 2492   2.340   2.783   0.820 -0.4235  0.3441 -0.5700
  624SOL     OW 2493   2.130   1.588   3.029  0.7987 -0.2823 -0.5310
  624SOL    HW1 2494   2.077   1.507   3.017  0.2043 -1.6667 -0.0919
  624SOL    HW2 2495   2.072   1.651   3.075 -1.8249  0.3025  1.8438
  624SOL     MW 2496   2.115   1.585   3.034  0.3741 -0.3878 -0.1598
  625SOL     OW 2497   2.154   1.926   1.029 -0.3222  1.2335  0.3240
  625SOL    HW1 2498   2.187   1.838   1.058 -1.0452  1.1305  0.8153
  625SOL    HW2 2499   2.165   1.922   0.935 -0.0356  2.6931  1.1311
  625SOL     MW 2500   2.160   1.914   1.020 -0.3798  1.4125  0.4953
  626SOL     OW 2501   0.137   1.851   2.461 -0.6086 -0.0913  0.2743
  626SOL    HW1 2502   0.080   1.763   2.465  1.1294 -0.2109  0.9487
  626SOL    HW2 2503   0.068   1.921   2.479  0.7908  3.7306  1.3994
  626SOL     MW 2504   0.121   1.849   2.464 -0.1947  0.3972  0.5117
  627SOL     OW 2505   2.596   0.788   2.611 -0.1017 -0.5445  0.4771
  627SOL    HW1 2506   2.515   0.846   2.613  0.6652  2.1239  1.2324
  627SOL    HW2 2507   2.623   0.790   2.519 -0.5146  0.5202  0.9383
  627SOL     MW 2508   2.589   0.796   2.599 -0.0550 -0.0520  0.6376
  628SOL     OW 2509   2.343   1.395   1.289 -0.4199 -0.7722 -0.2553
  628SOL    HW1 2510   2.355   1.310   1.248 -2.0461 -0.0559  0.6441
  628SOL    HW2 2511   2.419   1.442   1.253  0.6395 -3.3549 -1.3563
  628SOL     MW 2512   2.355   1.390   1.279 -0.4947 -1.0185 -0.2819
  629SOL     OW 2513   1.845   0.620   1.318  0.4601 -0.3013  0.3253
  629SOL    HW1 2514   1.883   0.647   1.233 -0.7268 -1.5748 -0.8561
  629SOL    HW2 2515   1.760   0.592   1.288  0.2327  0.8554  0.4999
  629SOL     MW 2516   1.839   0.620   1.303  0.2735 -0.3167  0.1925
  630SOL     OW 2517   2.404   1.928   3.072 -0.2117  0.2791  0.0669
  630SOL    HW1 2518   2.436   2.004   3.023  2.0872  0.7490 -2.3589
  630SOL    HW2 2519   2.312   1.905   3.046 -0.0319  0.3153  1.3073
  630SOL     MW 2520   2.396   1.935   3.062  0.1153  0.3459 -0.0895
  631SOL     OW 2521   2.099   1.856   1.482 -0.1828  0.3486 -0.2385
  631SOL    HW1 2522   2.094   1.767   1.525 -0.4676  0.4684 -0.2709
  631SOL    HW2 2523   2.012   1.891   1.496  1.0570  0.5743 -1.3533
  631SOL     MW 2524   2.087   1.849   1.490 -0.0568  0.3942 -0.3899
  632SOL     OW 2525   0.388   1.878   1.473  0.3373  0.7445  0.1042
  632SOL    HW1 2526   0.325   1.953   1.478 -0.6132 -2.4216 -1.8734
  632SOL    HW2 2527   0.331   1.797   1.495 -1.9022 -1.6313  1.0974
  632SOL     MW 2528   0.372   1.877   1.477 -0.0836  0.0133 -0.0256
  633SOL     OW 2529   2.619   0.547   0.366  0.2736  0.8525  0.0943
  633SOL    HW1 2530   2.678   0.550   0.437 -2.2716  0.6145 -0.0037
  633SOL    HW2 2531   2.631   0.465   0.315 -0.8789 -0.9367  0.4071
  633SOL     MW 2532   2.628   0.536   0.369 -0.2143  0.5850  0.1227
  634SOL     OW 2533   2.705   3.073   0.599 -0.1381  0.6166  0.4658
  634SOL    HW1 2534   2.712   3.167   0.584 -1.2540 -1.3651  0.3009
  634SOL    HW2 2535   2.683   3.045   0.512  0.8831 -0.7299  1.4206
  634SOL     MW 2536   2.703   3.082   0.585 -0.1506  0.1775  0.5700
  635SOL     OW 2537   2.661   0.040   1.853  0.5037  0.9960 -0.5124
  635SOL    HW1 2538   2.713  -0.010   1.785 -3.3465  0.1839  2.0863
  635SOL    HW2 2539   2.721   0.104   1.890 -0.2098 -3.0229 -0.5611
  635SOL     MW 2540   2.676   0.042   1.849 -0.0984  0.3586 -0.1760
  636SOL     OW 2541   2.695   1.649   0.758 -0.3998 -0.5559 -0.1631
  636SOL    HW1 2542   2.639   1.663   0.684  0.1333  0.4074  1.3111
  636SOL    HW2 2543   2.707   1.742   0.781  0.8322 -0.7555 -1.1826
  636SOL     MW 2544   2.689   1.663   0.751 -0.1669 -0.4551 -0.1031
  637SOL     OW 2545   2.920   1.441   0.720  0.4125 -0.4582 -0.1507
  637SOL    HW1 2546   2.995   1.495   0.724  0.2482  1.1277  2.2729
  637SOL    HW2 2547   2.848   1.502   0.702 -0.4492  1.6240  1.4127
  637SOL     MW 2548   2.921   1.456   0.718  0.2771  0.0258  0.3754
  638SOL     OW 2549   2.820   0.539   0.545  0.0221 -0.2131  0.2427
  638SOL    HW1 2550   2.894   0.588   0.509 -1.0869  1.0508  1.6224
  638SOL    HW2 2551   2.823   0.570   0.634  0.9813  1.6953 -0.5373
  638SOL     MW 2552   2.830   0.549   0.552  0.0023  0.2055  0.3219
  639SOL     OW 2553   1.831   3.083   0.540 -0.1068 -0.1769 -0.4343
  639SOL    HW1 2554   1.730   3.074   0.537 -2.0994 -2.8148  1.3883
  639SOL    HW2 2555   1.873   3.000   0.521  1.4098  0.8245  3.1782
  639SOL     MW 2556   1.823   3.071   0.537 -0.1696 -0.3928  0.2828
  640SOL     OW 2557   0.286   1.447   0.106  0.0191 -0.0155  0.7426
  640SOL    HW1 2558   0.316   1.467   0.020  2.0696 -0.4354  0.2077
  640SOL    HW2 2559   0.315   1.354   0.113 -2.3010  0.6053 -0.5439
  640SOL     MW 2560   0.294   1.437   0.096 -0.0165  0.0110  0.5023
  641SOL     OW 2561   2.303   0.368   0.399  0.4778 -0.1372 -0.7068
  641SOL    HW1 2562   2.294   0.282   0.356 -0.5993 -0.8430 -3.2561
  641SOL    HW2 2563   2.355   0.351   0.475 -1.1909 -1.3531  0.0402
  641SOL     MW 2564   2.309   0.354   0.404  0.1155 -0.3907 -0.9446
  642SOL     OW 2565   0.107   3.084   0.474  0.3060 -0.4016  0.3016
  642SOL    HW1 2566   0.073   3.176   0.460  2.3414  0.4245  0.3441
  642SOL    HW2 2567   0.045   3.033   0.524 -0.2559  0.8029 -2.5647
  642SOL     MW 2568   0.094   3.089   0.479  0.5004 -0.1336 -0.0710
  643SOL     OW 2569   2.141   0.356   1.676 -0.2813  0.2131 -0.0331
  643SOL    HW1 2570   2.055   0.326   1.712 -1.0926  0.6024 -0.2820
  643SOL    HW2 2571   2.164   0.295   1.601 -0.5793  0.7685 -1.3850
  643SOL     MW 2572   2.132   0.344   1.671 -0.4276  0.3378 -0.2443
  644SOL     OW 2573   2.698   1.915   0.952 -0.1008  0.0434 -0.0400
  644SOL    HW1 2574   2.674   1.864   1.028  4.3824  0.3753 -0.9964
  644SOL    HW2 2575   2.610   1.962   0.938 -0.9580 -1.5272 -0.0287
  644SOL     MW 2576   2.683   1.915   0.960  0.3776 -0.1200 -0.1647
  645SOL     OW 2577   2.813   0.992   0.775  0.3399  0.4126 -0.3323
  645SOL    HW1 2578   2.889   0.942   0.749  1.0718  2.1413 -0.6327
  645SOL    HW2 2579   2.794   0.970   0.864  0.0206  0.4616  1.1064
  645SOL     MW 2580   2.821   0.983   0.784  0.3944  0.6472 -0.1821
  646SOL     OW 2581   0.125   2.276   0.879 -0.1342  0.0562 -0.8339
  646SOL    HW1 2582   0.117   2.170   0.877  1.0532 -2.7889 -2.3230
  646SOL    HW2 2583   0.079   2.302   0.796 -1.6182  0.6944 -1.1286
  646SOL     MW 2584   0.118   2.266   0.868 -0.1733 -0.2349 -1.0693
  647SOL     OW 2585   2.796   0.504   3.017  0.3084 -0.2447  0.4404
  647SOL    HW1 2586   2.716   0.463   2.986 -0.3639 -2.3891  1.0039
  647SOL    HW2 2587   2.774   0.572   3.080 -1.0427  0.2846  0.3847
  647SOL     MW 2588   2.782   0.508   3.022  0.0414 -0.4578  0.5074
  648SOL     OW 2589   2.122   0.633   1.119 -0.1271  0.1268 -0.2010
  648SOL    HW1 2590   2.185   0.582   1.175 -0.9441 -2.4740  0.9993
  648SOL    HW2 2591   2.146   0.726   1.126 -1.9219  2.1013  2.4825
  648SOL     MW 2592   2.134   0.639   1.127 -0.4717  0.0442  0.3114
  649SOL     OW 2593   2.415   2.684   1.312  0.4316 -0.0514 -0.1938
  649SOL    HW1 2594   2.495   2.733   1.331  0.8835  0.6157  1.3863
  649SOL    HW2 2595   2.435   2.601   1.264 -1.5545 -0.1223  1.5312
  649SOL     MW 2596   2.428   2.680   1.308  0.2292  0.0272  0.2423
  650SOL     OW 2597   2.719   0.238   0.500 -0.4385  0.3110  0.4801
  650SOL    HW1 2598   2.780   0.313   0.499  1.3358  0.7947  1.5275
  650SOL    HW2 2599   2.704   0.212   0.407  1.2307 -2.6101  0.8104
  650SOL     MW 2600   2.725   0.244   0.488  0.0158 -0.0106  0.6619
  651SOL     OW 2601   0.008   0.452   1.005 -0.2972  0.5908 -0.0151
  651SOL    HW1 2602   0.038   0.507   0.931 -0.4734 -1.2484 -1.0712
  651SOL    HW2 2603  -0.071   0.504   1.038 -1.1148  0.3726  0.6000
  651SOL     MW 2604   0.001   0.466   1.000 -0.4283  0.3193 -0.0733
  652SOL     OW 2605   2.330   1.435   2.922 -1.0076  0.0581 -0.4894
  652SOL    HW1 2606   2.372   1.461   2.839  0.3711 -1.0960 -0.5322
  652SOL    HW2 2607   2.269   1.506   2.943 -0.8751 -1.2142 -2.3959
  652SOL     MW 2608   2.327   1.448   2.914 -0.8082 -0.2620 -0.7466
  653SOL     OW 2609   1.851   0.376   0.222 -0.1956 -0.1316 -0.0851
  653SOL    HW1 2610   1.838   0.284   0.194  0.8250  1.6502 -0.1805
  653SOL    HW2 2611   1.905   0.426   0.157 -1.0472  1.0848 -0.4861
  653SOL     MW 2612   1.857   0.370   0.209 -0.1733  0.2640 -0.1506
  654SOL     OW 2613   2.440   1.010   0.724  0.1508  0.1482 -0.1790
  654SOL    HW1 2614   2.362   0.986   0.678  2.5522 -0.7481  1.9794
  654SOL    HW2 2615   2.489   0.928   0.754 -0.0796  1.9384  2.4758
  654SOL     MW 2616   2.437   0.996   0.722  0.4372  0.2662  0.4561
  655SOL     OW 2617   2.893   0.953   0.298  0.5081  0.3481  0.5619
  655SOL    HW1 2618   2.883   1.005   0.376  2.3401  0.5745 -0.7450
  655SOL    HW2 2619   2.958   0.887   0.322 -0.7611 -0.0868  0.6066
  655SOL     MW 2620   2.900   0.951   0.311  0.5824  0.3206  0.3954
  656SOL     OW 2621   1.765   2.658   1.430 -0.6341  0.2174  0.2877
  656SOL    HW1 2622   1.841   2.714   1.441 -1.2001  1.1408  0.6618
  656SOL    HW2 2623   1.799   2.570   1.407 -0.3520  1.2598 -0.8628
  656SOL     MW 2624   1.779   2.654   1.428 -0.6715  0.4768  0.1852
  657SOL     OW 2625   0.091   1.778   1.108  0.0937  0.0099  0.2335
  657SOL    HW1 2626   0.166   1.831   1.112 -1.3412  0.3447 -1.1933
  657SOL    HW2 2627   0.102   1.700   1.161 -1.0665 -0.1838 -1.3233
  657SOL     MW 2628   0.102   1.775   1.116 -0.2487  0.0285 -0.1601
  658SOL     OW 2629   2.663   1.348   0.214  0.1232  0.2253  0.3318
  658SOL    HW1 2630   2.607   1.289   0.261 -0.2307  0.1576 -2.3176
  658SOL    HW2 2631   2.688   1.418   0.273 -0.9531 -0.6999 -2.3250
  658SOL     MW 2632   2.659   1.349   0.228 -0.0655  0.0943 -0.3683
  659SOL     OW 2633   2.096   1.393   1.040  0.1321 -0.3256  0.1533
  659SOL    HW1 2634   2.162   1.334   1.083 -1.7206  1.1611  0.2320
  659SOL    HW2 2635   2.076   1.462   1.104  0.2360  0.8497  0.8187
  659SOL     MW 2636   2.102   1.394   1.054 -0.0986  0.0256  0.2515
  660SOL     OW 2637   2.079   1.608   1.603  0.2601  0.5257  0.4183
  660SOL    HW1 2638   2.116   1.602   1.692  0.8318  1.2598 -0.1428
  660SOL    HW2 2639   2.009   1.538   1.591 -1.6928 -1.0094 -0.0092
  660SOL     MW 2640   2.075   1.598   1.613  0.0779  0.4200  0.2879
  661SOL     OW 2641   2.405   0.998   0.260 -0.5702  0.2089  0.3386
  661SOL    HW1 2642   2.469   1.047   0.319 -1.6250 -0.3828 -0.6063
  661SOL    HW2 2643   2.420   0.906   0.284 -1.6971  2.8113 -1.2986
  661SOL     MW 2644   2.416   0.992   0.271 -0.8581  0.4742 -0.0021
  662SOL     OW 2645   2.519   2.998   0.796 -0.6971  0.2403 -0.1954
  662SOL    HW1 2646   2.495   3.082   0.824  1.3758 -0.4934 -2.8849
  662SOL    HW2 2647   2.592   3.011   0.739  1.5892  0.7595  2.2575
  662SOL     MW 2648   2.526   3.011   0.792 -0.1219  0.2120 -0.2266
  663SOL     OW 2649   2.715   1.541   0.393  0.4697 -0.1414  0.0112
  663SOL    HW1 2650   2.707   1.626   0.353  0.5536 -1.3411  0.3420
  663SOL    HW2 2651   2.754   1.560   0.474 -4.3790 -1.1993 -2.6102
  663SOL     MW 2652   2.719   1.555   0.398 -0.1590 -0.4392 -0.2910
  664SOL     OW 2653   2.534   1.469   1.543 -0.0583  0.8191  0.3335
  664SOL    HW1 2654   2.497   1.555   1.532 -1.5438  0.3271  0.4970
  664SOL    HW2 2655   2.449   1.421   1.538  0.2531 -0.5405  0.5333
  664SOL     MW 2656   2.518   1.474   1.541 -0.2132  0.5748  0.3814
  665SOL     OW 2657   2.870   0.768   2.132  0.3116 -0.5856  0.7117
  665SOL    HW1 2658   2.811   0.802   2.061  1.6315  1.0792  0.0641
  665SOL    HW2 2659   2.951   0.741   2.091  0.4752 -1.6344  2.3443
  665SOL     MW 2660   2.873   0.769   2.117  0.5074 -0.5043  0.8417
  666SOL     OW 2661   2.806   2.977   1.701 -0.1272 -0.3049 -0.4160
  666SOL    HW1 2662   2.804   2.985   1.604 -4.8852  1.1516  0.1902
  666SOL    HW2 2663   2.764   2.889   1.715 -1.4371 -1.4772 -0.0767
  666SOL     MW 2664   2.800   2.966   1.690 -0.9278 -0.2674 -0.2912
  667SOL     OW 2665   2.015   2.707   1.735 -0.4123 -0.1745 -0.1307
  667SOL    HW1 2666   2.050   2.689   1.822  1.6788 -1.7772  0.0952
  667SOL    HW2 2667   2.091   2.758   1.699 -2.2651 -0.3051  0.9789
  667SOL     MW 2668   2.030   2.712   1.742 -0.3808 -0.4032  0.0455
  668SOL     OW 2669   2.792   0.599   0.821 -0.1660  0.6074 -0.0927
  668SOL    HW1 2670   2.808   0.614   0.913 -1.6975  1.0911  0.2694
  668SOL    HW2 2671   2.722   0.659   0.808 -0.4510 -1.8153  0.9486
  668SOL     MW 2672   2.785   0.609   0.832 -0.4057  0.3516  0.0925
  669SOL     OW 2673   0.182   1.006   0.674  0.6379  0.1808 -0.1735
  669SOL    HW1 2674   0.149   1.045   0.755  0.3375  1.5011  1.1865
  669SOL    HW2 2675   0.265   1.057   0.655 -1.9404  0.1513  1.3853
  669SOL     MW 2676   0.189   1.018   0.682  0.2581  0.3511  0.2116
  670SOL     OW 2677   2.908   0.340   0.263 -0.3484 -0.2913 -0.5831
  670SOL    HW1 2678   2.919   0.270   0.199  1.4938  1.9569  1.5109
  670SOL    HW2 2679   2.944   0.418   0.221  1.8187  1.5081 -0.5100
  670SOL     MW 2680   2.915   0.341   0.249  0.1806  0.2427 -0.2972
  671SOL     OW 2681   2.053   3.031   1.458 -0.0623 -0.4757 -0.0705
  671SOL    HW1 2682   1.977   3.007   1.401  0.5611 -0.1021  0.9209
  671SOL    HW2 2683   2.011   3.048   1.540  0.9981 -0.5472  0.6689
  671SOL     MW 2684   2.037   3.030   1.461  0.1599 -0.4358  0.1578
  672SOL     OW 2685   1.815   1.778   1.302 -1.0626  0.1687  0.0705
  672SOL    HW1 2686   1.818   1.873   1.348  1.4978  0.7122 -0.5439
  672SOL    HW2 2687   1.849   1.799   1.216 -0.4678 -1.7762  1.0581
  672SOL     MW 2688   1.820   1.793   1.296 -0.6463 -0.0162  0.1198
  673SOL     OW 2689   2.824   1.087   0.530 -0.2222 -0.1948 -0.1975
  673SOL    HW1 2690   2.817   1.026   0.600  2.7229 -1.1722  0.5089
  673SOL    HW2 2691   2.893   1.147   0.565  3.2555 -0.8824 -1.0917
  673SOL     MW 2692   2.832   1.087   0.544  0.6252 -0.4145 -0.2223
  674SOL     OW 2693   2.456   3.055   1.204  0.0534 -0.4658 -0.1788
  674SOL    HW1 2694   2.403   3.084   1.132  1.4794  0.7566  0.9046
  674SOL    HW2 2695   2.512   2.982   1.172 -0.1069 -0.6375  0.6909
  674SOL     MW 2696   2.456   3.049   1.191  0.2204 -0.3272  0.0789
  675SOL     OW 2697   2.978   0.854   1.082 -0.0620 -0.7996 -0.8184
  675SOL    HW1 2698   3.029   0.867   1.164  2.0924  1.7622 -2.5305
  675SOL    HW2 2699   3.041   0.884   1.017  2.2341  0.2467 -1.0458
  675SOL     MW 2700   2.993   0.859   1.084  0.5252 -0.3236 -1.0743
  676SOL     OW 2701   2.891   1.438   1.735  0.1052 -0.3233  0.4563
  676SOL    HW1 2702   2.868   1.348   1.711 -2.2576 -0.7977 -1.8525
  676SOL    HW2 2703   2.932   1.419   1.823  0.6891  4.1031 -0.4381
  676SOL     MW 2704   2.894   1.424   1.743 -0.1295  0.1981  0.0337
  677SOL     OW 2705   2.471   0.715   1.883  0.4321  0.3228 -0.4852
  677SOL    HW1 2706   2.441   0.626   1.866 -1.5710  2.1910  0.8276
  677SOL    HW2 2707   2.391   0.763   1.884 -1.4757 -2.8569  0.1774
  677SOL     MW 2708   2.456   0.710   1.881 -0.0839  0.1498 -0.2245
  678SOL     OW 2709   2.368   1.575   0.327 -0.0411 -0.0577 -0.1273
  678SOL    HW1 2710   2.277   1.580   0.362  0.8612 -2.9596  2.6117
  678SOL    HW2 2711   2.360   1.523   0.242 -1.6927 -1.2817 -0.7110
  678SOL     MW 2712   2.355   1.569   0.321 -0.1399 -0.6021  0.1571
  679SOL     OW 2713   2.280   0.433   1.281 -0.1808  0.6817 -0.4690
  679SOL    HW1 2714   2.278   0.353   1.233 -0.5953  0.3411  0.4473
  679SOL    HW2 2715   2.206   0.436   1.343 -1.0836 -1.5029 -2.3322
  679SOL     MW 2716   2.270   0.423   1.283 -0.3546  0.3485 -0.5940
  680SOL     OW 2717   2.461   0.156   1.477 -0.4042  0.6456  0.0651
  680SOL    HW1 2718   2.377   0.175   1.440  2.3549 -0.9045  2.2246
  680SOL    HW2 2719   2.475   0.059   1.466 -0.8484 -2.9814 -0.8683
  680SOL     MW 2720   2.452   0.145   1.471 -0.0988 -0.0375  0.2269
  681SOL     OW 2721   0.226   0.578   1.451 -0.0994 -0.3996  0.1654
  681SOL    HW1 2722   0.196   0.492   1.478 -0.3953 -2.3851  0.1766
  681SOL    HW2 2723   0.240   0.574   1.357  1.2056  3.0843 -2.0916
  681SOL     MW 2724   0.224   0.566   1.442  0.0337 -0.2019 -0.1309
  682SOL     OW 2725   3.060   2.863   1.527 -0.4605 -0.1379  0.4118
  682SOL    HW1 2726   3.126   2.927   1.547 -3.2976 -0.5481 -2.6094
  682SOL    HW2 2727   3.001   2.833   1.599 -1.4972  1.5140 -1.4083
  682SOL     MW 2728   3.061   2.868   1.539 -0.9716  0.0260 -0.2269
  683SOL     OW 2729   2.109   0.771   3.024  0.5474  0.1420  0.0799
  683SOL    HW1 2730   2.036   0.707   3.027  0.8740  0.6136  1.1028
  683SOL    HW2 2731   2.086   0.861   3.052  1.2029  2.1816 -1.7945
  683SOL     MW 2732   2.096   0.774   3.028  0.6770  0.4733 -0.0324
  684SOL     OW 2733   2.061   1.753   0.667  0.1133  0.3852  0.6462
  684SOL    HW1 2734   2.068   1.685   0.595 -0.9964 -1.4680  2.0671
  684SOL    HW2 2735   1.979   1.730   0.710  0.5221 -1.6049 -0.6572
  684SOL     MW 2736   2.051   1.741   0.663  0.0208 -0.1219  0.6617
  685SOL     OW 2737   2.640   1.751   1.160 -0.5523  0.0546 -0.0381
  685SOL    HW1 2738   2.681   1.701   1.233  2.2425  0.5337  0.0433
  685SOL    HW2 2739   2.567   1.694   1.139 -1.9284 -2.8087  0.2943
  685SOL     MW 2740   2.636   1.737   1.167 -0.3651 -0.2600  0.0165
  686SOL     OW 2741   2.814   0.637   1.561 -0.2178  0.1387 -0.7773
  686SOL    HW1 2742   2.803   0.613   1.650  1.1477 -1.1398 -2.2799
  686SOL    HW2 2743   2.902   0.682   1.560  1.1334 -0.3483 -1.5448
  686SOL     MW 2744   2.825   0.640   1.573  0.1406 -0.0942 -1.0768
  687SOL     OW 2745   2.140   0.189   1.093  0.5167  0.3242 -0.3749
  687SOL    HW1 2746   2.200   0.135   1.048  3.3904  3.6733  0.4457
  687SOL    HW2 2747   2.112   0.270   1.046 -1.0550  0.4790 -1.4835
  687SOL     MW 2748   2.145   0.193   1.081  0.6885  0.7865 -0.4129
  688SOL     OW 2749   2.467   0.595   1.467  0.3354  0.4458  0.7913
  688SOL    HW1 2750   2.416   0.531   1.413  0.3576 -1.1764  0.6953
  688SOL    HW2 2751   2.391   0.633   1.514  0.5985  0.4858  0.7319
  688SOL     MW 2752   2.450   0.592   1.466  0.3730  0.2370  0.7708
  689SOL     OW 2753   2.499   0.740   3.000 -0.1694  0.1550  0.4790
  689SOL    HW1 2754   2.423   0.785   3.041 -1.0907  0.8708 -0.3451
  689SOL    HW2 2755   2.555   0.727   3.077  2.4032 -1.2409  0.6865
  689SOL     MW 2756   2.497   0.744   3.016  0.0485  0.0653  0.3977
  690SOL     OW 2757   2.016   0.966   1.840 -0.3269  0.6404 -0.0211
  690SOL    HW1 2758   2.018   0.871   1.853 -1.5572  1.6322 -0.8983
  690SOL    HW2 2759   2.051   0.979   1.753  0.6058 -1.2271 -1.8265
  690SOL     MW 2760   2.021   0.955   1.830 -0.3662  0.5249 -0.3750
  691SOL     OW 2761   2.427   0.311   0.875 -0.2292  0.4760 -0.1586
  691SOL    HW1 2762   2.515   0.306   0.910  1.3541  0.6853 -1.0507
  691SOL    HW2 2763   2.413   0.398   0.839 -1.9179 -2.2615 -1.5850
  691SOL     MW 2764   2.437   0.322   0.874 -0.2431  0.1424 -0.4645
  692SOL     OW 2765   2.761   1.631   1.396 -0.3709  0.0237 -0.2841
  692SOL    HW1 2766   2.708   1.616   1.472  1.6888 -0.3303 -0.5894
  692SOL    HW2 2767   2.839   1.685   1.414 -3.2320  2.9361  2.0161
  692SOL     MW 2768   2.764   1.636   1.409 -0.4766  0.3613 -0.0209
  693SOL     OW 2769   2.253   0.461   0.001 -0.8140 -0.6468 -0.2621
  693SOL    HW1 2770   2.214   0.392   0.045 -0.0786  2.3538 -2.4706
  693SOL    HW2 2771   2.218   0.538   0.043  1.0850  0.3858 -1.4558
  693SOL     MW 2772   2.243   0.462   0.013 -0.4664 -0.1146 -0.7110
  694SOL     OW 2773   1.945   1.196   1.192  0.6277 -0.0694 -0.0032
  694SOL    HW1 2774   2.037   1.170   1.177  2.3619  0.2708 -4.2879
  694SOL    HW2 2775   1.894   1.109   1.187 -1.0972 -0.2950  0.1824
  694SOL     MW 2776   1.950   1.181   1.189  0.6289 -0.0543 -0.5440
  695SOL     OW 2777   2.935   1.428   1.284  0.0121  0.4307  0.2040
  695SOL    HW1 2778   2.943   1.421   1.186  2.1231  0.4399  0.3610
  695SOL    HW2 2779   2.889   1.512   1.300  0.0297 -1.8827 -0.2834
  695SOL     MW 2780   2.930   1.438   1.273  0.2930  0.1267  0.1604
  696SOL     OW 2781   2.045   1.379   0.745  0.0278 -0.6553  0.3757
  696SOL    HW1 2782   2.110   1.415   0.800 -0.0539 -0.9900 -0.7521
  696SOL    HW2 2783   2.019   1.303   0.798 -1.3488 -1.0453 -0.2717
  696SOL     MW 2784   2.050   1.374   0.759 -0.1646 -0.7509  0.1415
  697SOL     OW 2785   2.911   1.045   2.230  0.4067  0.4315  0.2088
  697SOL    HW1 2786   2.827   1.079   2.214  0.8667 -2.1703  0.1302
  697SOL    HW2 2787   2.903   0.950   2.203  1.4698 -1.8245 -2.2596
  697SOL     MW 2788   2.899   1.037   2.225  0.6076 -0.2094 -0.1273
  698SOL     OW 2789   2.521   0.395   3.070 -0.7486 -0.2640  0.1222
  698SOL    HW1 2790   2.439   0.447   3.092  0.5712 -0.3482 -0.6434
  698SOL    HW2 2791   2.540   0.343   3.146  0.4323  1.3013 -3.0698
  698SOL     MW 2792   2.513   0.395   3.083 -0.4186 -0.0686 -0.3999
  699SOL     OW 2793   1.871   1.571   2.001 -0.1111 -0.1203 -0.3504
  699SOL    HW1 2794   1.841   1.489   2.049 -1.1885 -1.8104 -1.3533
  699SOL    HW2 2795   1.960   1.555   1.972 -0.0512  0.9048 -0.6381
  699SOL     MW 2796   1.879   1.558   2.004 -0.2453 -0.2081 -0.5207
  700SOL     OW 2797   2.700   0.891   1.604  0.4232  0.3627 -0.5768
  700SOL    HW1 2798   2.747   0.945   1.545  0.5467  0.1822  1.6075
  700SOL    HW2 2799   2.734   0.802   1.590  0.1727 -1.5281 -0.3161
  700SOL     MW 2800   2.711   0.887   1.595  0.4065  0.0894 -0.2542
  701SOL     OW 2801   1.649   1.071   2.577 -0.8088 -0.1131  0.7228
  701SOL    HW1 2802   1.735   1.059   2.609 -1.5295  1.2967  0.3533
  701SOL    HW2 2803   1.626   1.151   2.633  1.1157  0.5877 -3.4335
  701SOL     MW 2804   1.657   1.080   2.589 -0.6500  0.1653  0.1257
  702SOL     OW 2805   2.065   0.481   0.682  0.4162 -0.0272  0.0660
  702SOL    HW1 2806   2.085   0.384   0.678 -0.7350  3.6466  0.1475
  702SOL    HW2 2807   2.147   0.525   0.643  0.1283 -0.0602  0.0236
  702SOL     MW 2808   2.079   0.474   0.677  0.2263  0.4532  0.0711
  703SOL     OW 2809   2.701   1.249   0.996 -0.0218  0.3885 -0.0069
  703SOL    HW1 2810   2.657   1.229   0.912 -0.4382  1.3196 -1.3894
  703SOL    HW2 2811   2.724   1.168   1.051  0.2243  0.2016  1.3121
  703SOL     MW 2812   2.698   1.236   0.992 -0.0442  0.4867 -0.0153
  704SOL     OW 2813   3.055   1.289   0.162 -0.1658  0.0103  0.0995
  704SOL    HW1 2814   2.969   1.264   0.121  0.5260 -0.0287 -0.0109
  704SOL    HW2 2815   3.050   1.288   0.258 -1.1571  2.0304  0.5574
  704SOL     MW 2816   3.043   1.286   0.169 -0.2053  0.2717  0.1453
  705SOL     OW 2817   2.042   1.613   1.301  0.3428  0.0620  0.1452
  705SOL    HW1 2818   1.967   1.669   1.312  0.6484  0.7710 -3.5688
  705SOL    HW2 2819   2.071   1.581   1.387  1.4431 -0.7165 -0.2644
  705SOL     MW 2820   2.036   1.616   1.314  0.5283  0.0528 -0.3989
  706SOL     OW 2821   3.030   1.185   0.684  0.9683 -0.3936 -0.2341
  706SOL    HW1 2822   3.092   1.178   0.608  3.2540 -1.2131 -1.6192
  706SOL    HW2 2823   3.024   1.278   0.709  2.2696  0.7251 -1.8759
  706SOL     MW 2824   3.037   1.196   0.677  1.4416 -0.3541 -0.6335
  707SOL     OW 2825   2.330   0.053   0.946 -0.3838 -0.6409 -0.2630
  707SOL    HW1 2826   2.359   0.142   0.914  2.5312  1.0276 -2.0930
  707SOL    HW2 2827   2.272   0.019   0.882 -1.4737  2.1807  2.3170
  707SOL     MW 2828   2.326   0.060   0.933 -0.1430 -0.0485 -0.1640
  708SOL     OW 2829   2.395   1.422   0.105 -0.3166  0.1181 -0.6295
  708SOL    HW1 2830   2.487   1.401   0.124 -0.4677  0.7177 -0.8026
  708SOL    HW2 2831   2.385   1.435   0.009  1.8197  0.4101  0.9097
  708SOL     MW 2832   2.406   1.421   0.095 -0.0547  0.2357 -0.4493
  709SOL     OW 2833   1.691   1.607   0.221 -0.1270 -0.6685  0.2813
  709SOL    HW1 2834   1.685   1.621   0.125 -0.3029  0.8103 -0.3610
  709SOL    HW2 2835   1.604   1.636   0.263  0.0106  0.6300  2.5458
  709SOL     MW 2836   1.679   1.613   0.214 -0.1321 -0.3020  0.4953
  710SOL     OW 2837   2.249   1.166   1.156  0.2593  0.4246 -0.8053
  710SOL    HW1 2838   2.274   1.123   1.073 -0.7168 -1.4635 -0.8630
  710SOL    HW2 2839   2.265   1.106   1.233  3.2590 -0.1658  0.3120
  710SOL     MW 2840   2.254   1.153   1.155  0.5263  0.0976 -0.6655
  711SOL     OW 2841   2.379   0.087   1.786  0.0273 -0.4452 -0.2674
  711SOL    HW1 2842   2.464   0.048   1.818  2.0788  2.8225 -0.3846
  711SOL    HW2 2843   2.397   0.136   1.704  2.5255  0.9624 -1.0492
  711SOL     MW 2844   2.393   0.088   1.779  0.6276  0.1716 -0.3860
  712SOL     OW 2845   1.891   0.619   3.084 -0.2293  0.0574  0.0649
  712SOL    HW1 2846   1.835   0.652   3.011  2.1008 -1.9306  1.2515
  712SOL    HW2 2847   1.869   0.672   3.166 -0.9647 -0.8526  0.3876
  712SOL     MW 2848   1.881   0.630   3.085 -0.0189 -0.3250  0.2640
  713SOL     OW 2849   2.578   0.682   1.122  0.3902  0.0025 -0.2228
  713SOL    HW1 2850   2.597   0.596   1.162  1.0841 -1.0801 -0.4062
  713SOL    HW2 2851   2.589   0.738   1.200 -1.1024 -1.0018  0.6509
  713SOL     MW 2852   2.582   0.678   1.137  0.2848 -0.2729 -0.1318
  714SOL     OW 2853   2.232   0.205   1.998 -0.2895  0.1748 -0.3074
  714SOL    HW1 2854   2.280   0.158   2.064 -1.2503 -0.8454 -1.7295
  714SOL    HW2 2855   2.271   0.179   1.916 -1.9608  0.2999 -0.1788
  714SOL     MW 2856   2.244   0.195   1.996 -0.6367  0.0567 -0.4780
  715SOL     OW 2857   1.830   1.991   1.692  0.5369 -0.1666 -0.0969
  715SOL    HW1 2858   1.922   2.007   1.724 -1.5115 -0.1748 -0.1717
  715SOL    HW2 2859   1.805   1.917   1.753  0.0013 -2.3620 -0.2380
  715SOL     MW 2860   1.839   1.983   1.704  0.1960 -0.4574 -0.1254
  716SOL     OW 2861   2.450   0.531   0.734 -0.0369 -0.3024  0.2824
  716SOL    HW1 2862   2.516   0.495   0.682 -0.9220  2.2393  2.0612
  716SOL    HW2 2863   2.379   0.534   0.673 -1.6571 -1.9401 -0.7118
  716SOL     MW 2864   2.449   0.527   0.719 -0.3675 -0.1831  0.3859
  717SOL     OW 2865   2.786   1.669   2.836 -0.4301  0.7643  0.6227
  717SOL    HW1 2866   2.858   1.619   2.881  3.0731 -1.3936  1.3959
  717SOL    HW2 2867   2.726   1.700   2.903  2.4357  2.6825 -1.8086
  717SOL     MW 2868   2.787   1.667   2.851  0.4102  0.7327  0.4039
  718SOL     OW 2869   2.638   1.316   1.302  0.1237 -0.4510  0.2398
  718SOL    HW1 2870   2.599   1.373   1.375  0.5516 -1.2275  1.9292
  718SOL    HW2 2871   2.727   1.341   1.300 -1.4211 -0.5083 -2.2835
  718SOL     MW 2872   2.644   1.327   1.312 -0.0237 -0.5610  0.1298
  719SOL     OW 2873   2.192   1.261   0.527 -0.3083 -0.7716 -0.4956
  719SOL    HW1 2874   2.288   1.284   0.530 -1.3788  0.6437  0.4399
  719SOL    HW2 2875   2.162   1.313   0.608 -0.1774 -0.2226  0.3274
  719SOL     MW 2876   2.201   1.271   0.538 -0.4322 -0.5124 -0.2636
  720SOL     OW 2877   2.827   1.243   0.028  0.7820  0.3424  0.5733
  720SOL    HW1 2878   2.828   1.143   0.032 -1.2315 -1.7573 -2.1025
  720SOL    HW2 2879   2.758   1.272   0.086  1.4139  2.0105  1.4323
  720SOL     MW 2880   2.818   1.234   0.036  0.5997  0.2855  0.3336
  721SOL     OW 2881   2.574   0.820   1.352 -0.0051 -0.3961  0.2156
  721SOL    HW1 2882   2.550   0.743   1.411  1.5414 -2.5886  1.2067
  721SOL    HW2 2883   2.646   0.863   1.393  1.5458  0.4909  2.7699
  721SOL     MW 2884   2.580   0.816   1.365  0.4036 -0.5684  0.6834
  722SOL     OW 2885   2.574   1.140   0.405  0.0895 -0.0565  0.1728
  722SOL    HW1 2886   2.533   1.217   0.447  1.0203 -1.4880 -0.9183
  722SOL    HW2 2887   2.662   1.125   0.442  0.3157 -0.8268  0.0794
  722SOL     MW 2888   2.580   1.148   0.415  0.2422 -0.3470  0.0165
  723SOL     OW 2889   2.289   1.335   1.545 -0.2213  0.1803 -0.1022
  723SOL    HW1 2890   2.274   1.343   1.452  1.9397  1.8007 -1.1240
  723SOL    HW2 2891   2.242   1.406   1.577 -0.7737 -1.0265 -2.5494
  723SOL     MW 2892   2.281   1.346   1.537 -0.0090  0.2349 -0.5599
  724SOL     OW 2893   2.475   0.262   0.615  0.6767 -0.5480  0.3126
  724SOL    HW1 2894   2.460   0.261   0.709  0.7343  0.1248 -0.2653
  724SOL    HW2 2895   2.571   0.262   0.598  1.9847  2.1151 -0.7408
  724SOL     MW 2896   2.486   0.262   0.625  0.8569 -0.1078  0.0973
  725SOL     OW 2897   2.643   0.424   1.198  0.5263 -0.2342 -0.5781
  725SOL    HW1 2898   2.719   0.430   1.251 -0.1129 -0.5742 -0.5290
  725SOL    HW2 2899   2.583   0.373   1.246 -1.0473 -1.2117 -1.0017
  725SOL     MW 2900   2.645   0.418   1.211  0.2343 -0.4080 -0.6275
  726SOL     OW 2901   2.501   2.473   0.435 -0.5788  0.2102  0.2911
  726SOL    HW1 2902   2.489   2.522   0.355  2.3470  0.7493 -0.3384
  726SOL    HW2 2903   2.500   2.539   0.496 -1.7083  1.1524 -0.9559
  726SOL     MW 2904   2.499   2.488   0.433 -0.3418  0.4057  0.0435
  727SOL     OW 2905   2.865   0.312   1.731  0.0953 -0.1120 -0.1708
  727SOL    HW1 2906   2.805   0.297   1.659  0.3063 -0.3025 -0.1288
  727SOL    HW2 2907   2.844   0.261   1.803  1.7334  0.0059 -2.8861
  727SOL     MW 2908   2.854   0.303   1.731  0.3393 -0.1216 -0.5235
  728SOL     OW 2909   2.809   1.181   2.863 -0.4296  0.1658 -0.1394
  728SOL    HW1 2910   2.812   1.225   2.780 -1.0122 -0.5827  1.3641
  728SOL    HW2 2911   2.813   1.250   2.933 -1.6229 -0.9593 -0.1083
  728SOL     MW 2912   2.810   1.196   2.861 -0.6639 -0.0814  0.0631
  729SOL     OW 2913   2.547   1.515   1.059  0.4842 -0.0736  0.2689
  729SOL    HW1 2914   2.601   1.441   1.083 -2.5086 -1.6696  1.2425
  729SOL    HW2 2915   2.536   1.508   0.966  1.0064  0.1283  0.0051
  729SOL     MW 2916   2.553   1.504   1.050  0.1582 -0.2575  0.3626
  730SOL     OW 2917   2.173   1.152   0.198 -0.1285 -0.5269  0.1490
  730SOL    HW1 2918   2.264   1.111   0.209  1.5549 -1.0507  1.2662
  730SOL    HW2 2919   2.190   1.236   0.159 -0.8654  1.0032  1.0068
  730SOL     MW 2920   2.187   1.158   0.194 -0.0036 -0.3942  0.4096
  731SOL     OW 2921   2.775   1.988   2.914  0.4104 -0.2940  0.3422
  731SOL    HW1 2922   2.712   2.001   2.852  1.5992 -1.0517  0.9940
  731SOL    HW2 2923   2.860   1.967   2.876 -0.6504 -1.6291 -0.3794
  731SOL     MW 2924   2.778   1.987   2.901  0.4273 -0.5701  0.3330
  732SOL     OW 2925   2.319   0.983   1.340  0.1053 -0.0719  0.0870
  732SOL    HW1 2926   2.295   0.988   1.432  0.0445  2.2456  2.2528
  732SOL    HW2 2927   2.396   0.922   1.331  1.1796 -1.1499 -0.6173
  732SOL     MW 2928   2.326   0.976   1.351  0.2390  0.0916  0.2799
  733SOL     OW 2929   2.400   2.697   2.993  0.2203 -0.3688 -0.0238
  733SOL    HW1 2930   2.328   2.739   3.038 -4.8715 -1.2235 -2.3849
  733SOL    HW2 2931   2.377   2.605   2.989 -1.5442  1.8775  0.8006
  733SOL     MW 2932   2.387   2.690   2.998 -0.6843 -0.1852 -0.2266
  734SOL     OW 2933   1.505   0.272   2.505  0.4393  0.4935 -0.1001
  734SOL    HW1 2934   1.489   0.221   2.586  2.1437  1.2453  1.7705
  734SOL    HW2 2935   1.429   0.258   2.451  2.5615 -0.7162 -0.3323
  734SOL     MW 2936   1.493   0.263   2.509  0.9442  0.4331  0.1161
  735SOL     OW 2937   3.011   0.871   2.685  0.3282 -0.1022  0.3671
  735SOL    HW1 2938   3.024   0.774   2.686 -0.1227 -0.7357  2.2157
  735SOL    HW2 2939   3.023   0.905   2.775 -2.5418 -0.6721  1.0026
  735SOL     MW 2940   3.014   0.862   2.697 -0.1099 -0.2610  0.6949
  736SOL     OW 2941   0.128   0.564   2.528  0.3843 -0.2690 -0.2811
  736SOL    HW1 2942   0.120   0.650   2.469 -1.8938 -0.0245 -0.8334
  736SOL    HW2 2943   0.177   0.497   2.471 -0.1875 -0.2744 -1.5953
  736SOL     MW 2944   0.133   0.567   2.513  0.0083 -0.2374 -0.5274
  737SOL     OW 2945   2.990   0.581   2.646  0.5504 -0.5427  0.2275
  737SOL    HW1 2946   2.922   0.576   2.575 -0.0364 -0.5584  0.0098
  737SOL    HW2 2947   3.076   0.579   2.608 -1.8261 -0.1057  1.0381
  737SOL     MW 2948   2.993   0.580   2.632  0.1594 -0.4871  0.3058
  738SOL     OW 2949   0.107   0.413   1.848 -0.1939 -0.1829  0.1758
  738SOL    HW1 2950   0.189   0.461   1.845 -0.5591  2.4704 -0.1912
  738SOL    HW2 2951   0.093   0.380   1.758 -0.9512  0.2421 -1.2825
  738SOL     MW 2952   0.116   0.415   1.836 -0.3420  0.2232 -0.0650
  739SOL     OW 2953   2.523   0.986   2.104  0.4716  0.1641  0.1573
  739SOL    HW1 2954   2.479   1.000   2.028  0.3603 -2.4632  1.9380
  739SOL    HW2 2955   2.544   0.895   2.102 -1.5835  0.0938 -1.3636
  739SOL     MW 2956   2.520   0.976   2.094  0.1858 -0.1918  0.1916
  740SOL     OW 2957   0.132   1.769   2.955  0.6734  0.5001 -0.5381
  740SOL    HW1 2958   0.074   1.696   2.948 -1.6170 -1.0571  0.7645
  740SOL    HW2 2959   0.214   1.739   2.999  1.8045 -0.4896  1.9456
  740SOL     MW 2960   0.135   1.755   2.960  0.5204  0.1641 -0.0385
  741SOL     OW 2961   2.244   1.157   2.716 -0.1580  0.4509 -0.1182
  741SOL    HW1 2962   2.199   1.228   2.674 -1.4178 -0.0692  3.0748
  741SOL    HW2 2963   2.219   1.157   2.817  0.2940 -0.8135  0.0750
  741SOL     MW 2964   2.235   1.166   2.724 -0.2646  0.2155  0.3286
  742SOL     OW 2965   1.544   1.222   2.307 -0.3344  0.0631  0.9885
  742SOL    HW1 2966   1.465   1.164   2.300 -0.8970 -1.2388  2.4674
  742SOL    HW2 2967   1.588   1.201   2.390  0.1487  3.1404  0.6962
  742SOL     MW 2968   1.540   1.212   2.317 -0.3449  0.2973  1.1451
  743SOL     OW 2969   2.519   1.233   2.703  1.5668  0.2314 -0.7422
  743SOL    HW1 2970   2.421   1.211   2.717 -2.2850 -0.7295  0.2072
  743SOL    HW2 2971   2.558   1.165   2.758 -0.3275  2.0388  2.7919
  743SOL     MW 2972   2.511   1.221   2.712  0.8086  0.3431 -0.1506
  744SOL     OW 2973   2.718   0.853   1.932  0.4282  0.2842 -0.3055
  744SOL    HW1 2974   2.677   0.936   1.954  0.7797  1.6645 -0.0378
  744SOL    HW2 2975   2.653   0.818   1.867  0.5299  1.0949 -1.1610
  744SOL     MW 2976   2.704   0.859   1.926  0.4880  0.5733 -0.3831
  745SOL     OW 2977   1.690   0.479   2.487  0.5324 -0.5533 -0.2700
  745SOL    HW1 2978   1.706   0.491   2.393 -1.0085 -0.2894  1.1440
  745SOL    HW2 2979   1.636   0.399   2.479 -2.5010  0.2954 -3.4089
  745SOL     MW 2980   1.685   0.470   2.473 -0.0712 -0.4065 -0.4976
  746SOL     OW 2981   1.583   1.489   1.644  0.1897  0.3065  0.9610
  746SOL    HW1 2982   1.670   1.487   1.675 -3.0370  1.7543  1.7742
  746SOL    HW2 2983   1.533   1.488   1.725 -1.6642  2.0112 -1.6489
  746SOL     MW 2984   1.588   1.488   1.659 -0.4807  0.7224  0.7239
  747SOL     OW 2985   2.617   1.133   1.813 -0.0857  0.3345  0.0528
  747SOL    HW1 2986   2.529   1.127   1.769 -0.3475 -0.4441  2.1731
  747SOL    HW2 2987   2.617   1.213   1.866 -0.5846 -1.4884  0.1369
  747SOL     MW 2988   2.605   1.143   1.814 -0.1860 -0.0088  0.3436
  748SOL     OW 2989   0.085   0.117   1.889  0.1594  0.0120 -0.5218
  748SOL    HW1 2990   0.177   0.102   1.890 -3.3813 -1.1568 -0.7754
  748SOL    HW2 2991   0.077   0.207   1.919  2.1328 -1.0766 -2.4874
  748SOL     MW 2992   0.096   0.127   1.893 -0.0474 -0.2858 -0.8146
  749SOL     OW 2993   2.562   0.593   2.784  0.6622  0.4329 -0.0693
  749SOL    HW1 2994   2.573   0.667   2.721  2.2592 -0.1722 -1.1131
  749SOL    HW2 2995   2.542   0.645   2.868  0.1801  0.5924  0.3098
  749SOL     MW 2996   2.561   0.609   2.787  0.8093  0.3741 -0.1570
  750SOL     OW 2997   2.039   3.083   1.971  0.7061  0.2840 -0.4475
  750SOL    HW1 2998   2.088   3.168   1.978  0.8162  0.8653  1.3717
  750SOL    HW2 2999   2.119   3.019   1.969  0.1718  0.1988  0.1874
  750SOL     MW 3000   2.056   3.086   1.972  0.6502  0.3495 -0.1237
  751SOL     OW 3001   0.287   0.334   2.413 -0.6057  0.4359 -0.3656
  751SOL    HW1 3002   0.221   0.279   2.448  1.3460 -2.5449 -0.4189
  751SOL    HW2 3003   0.301   0.295   2.327 -0.0328 -0.3777  1.3230
  751SOL     MW 3004   0.280   0.321   2.407 -0.2726 -0.0648 -0.1499
  752SOL     OW 3005   2.145   0.835   2.743 -0.0573  0.0209  0.5242
  752SOL    HW1 3006   2.212   0.894   2.710 -0.6387 -1.0073  2.9902
  752SOL    HW2 3007   2.167   0.805   2.832  0.5249  0.7694  0.4081
  752SOL     MW 3008   2.156   0.839   2.750 -0.0572 -0.0160  0.8342
  753SOL     OW 3009   2.787   0.148   2.402  0.3379 -0.1689 -0.0010
  753SOL    HW1 3010   2.772   0.053   2.385 -0.0219 -0.7552 -0.2563
  753SOL    HW2 3011   2.751   0.196   2.331 -2.0628 -1.0405  1.1035
  753SOL     MW 3012   2.780   0.142   2.391 -0.0264 -0.3613  0.1110
  754SOL     OW 3013   2.270   2.955   2.632  0.1998  0.1486  0.6759
  754SOL    HW1 3014   2.284   2.957   2.537 -1.0431  4.6105  0.2185
  754SOL    HW2 3015   2.336   2.897   2.670  0.8560 -0.3586  0.1039
  754SOL     MW 3016   2.281   2.948   2.624  0.1224  0.6704  0.5401
  755SOL     OW 3017   2.747   1.535   2.400  0.0511 -0.2369  0.0311
  755SOL    HW1 3018   2.762   1.476   2.473 -1.5020 -1.9376 -0.9453
  755SOL    HW2 3019   2.798   1.614   2.428  1.8003  0.5665 -2.0629
  755SOL     MW 3020   2.756   1.537   2.413  0.0769 -0.3553 -0.3740
  756SOL     OW 3021   2.222   1.196   2.981 -0.4575  0.5804 -0.1145
  756SOL    HW1 3022   2.272   1.274   2.950 -0.8443  0.8540 -2.0555
  756SOL    HW2 3023   2.284   1.127   3.018  0.3094  1.5556  1.6995
  756SOL     MW 3024   2.237   1.197   2.982 -0.4074  0.7451 -0.1313
  757SOL     OW 3025   2.186   0.929   1.611  0.7222  0.0935  0.0650
  757SOL    HW1 3026   2.210   0.836   1.622  1.9227  3.5209 -0.0723
  757SOL    HW2 3027   2.104   0.933   1.554 -1.5059 -0.1750  0.2727
  757SOL     MW 3028   2.179   0.917   1.605  0.5866  0.5103  0.0743
  758SOL     OW 3029   2.222   1.814   2.624  0.2916  0.3210  0.0100
  758SOL    HW1 3030   2.194   1.824   2.532  0.4716  1.7833 -3.3434
  758SOL    HW2 3031   2.310   1.774   2.624 -0.4238 -3.6442  3.2683
  758SOL     MW 3032   2.230   1.810   2.612  0.2209 -0.0093 -0.0025
  759SOL     OW 3033   1.545   1.282   2.714  0.1888  0.0176  0.0206
  759SOL    HW1 3034   1.557   1.364   2.668 -2.7497 -2.3467 -0.8634
  759SOL    HW2 3035   1.583   1.300   2.804 -0.6141  0.2219 -1.4504
  759SOL     MW 3036   1.552   1.295   2.720 -0.3049 -0.2674 -0.2901
  760SOL     OW 3037   2.568   1.989   2.710  0.2436 -0.0095 -0.4652
  760SOL    HW1 3038   2.540   1.906   2.664  1.7560  0.9751 -0.7716
  760SOL    HW2 3039   2.573   2.050   2.636  0.8704 -2.3335  0.8330
  760SOL     MW 3040   2.565   1.986   2.695  0.5258 -0.1862 -0.3344
  761SOL     OW 3041   2.197   0.415   2.548  0.8884  0.0351 -0.5654
  761SOL    HW1 3042   2.138   0.351   2.594 -1.7848 -0.5166  1.7306
  761SOL    HW2 3043   2.240   0.478   2.609 -2.5562 -0.0180  0.7374
  761SOL     MW 3044   2.195   0.415   2.562  0.0812 -0.0447 -0.0906
  762SOL     OW 3045   3.058   0.234   2.155  0.0691  0.4066  0.2015
  762SOL    HW1 3046   3.092   0.182   2.226  2.3727  0.2727 -0.6124
  762SOL    HW2 3047   3.033   0.322   2.194  3.0912  0.0885  1.3616
  762SOL     MW 3048   3.059   0.239   2.170  0.7718  0.3470  0.2472
  763SOL     OW 3049   2.337   1.035   2.339  0.2594  0.0436 -0.0953
  763SOL    HW1 3050   2.382   0.986   2.269  1.4230  1.0121 -1.1470
  763SOL    HW2 3051   2.398   1.114   2.345  0.8034  0.1213 -1.2620
  763SOL     MW 3052   2.351   1.039   2.331  0.4847  0.1816 -0.3880
  764SOL     OW 3053   0.405   0.284   2.834 -0.2608 -0.0484  0.4915
  764SOL    HW1 3054   0.317   0.243   2.824 -1.0783  0.8400 -0.1743
  764SOL    HW2 3055   0.398   0.353   2.905 -0.3343  2.9727 -1.2927
  764SOL     MW 3056   0.393   0.288   2.842 -0.3784  0.4674  0.1682
  765SOL     OW 3057   2.726   2.983   2.394 -0.0758 -0.7731  0.0421
  765SOL    HW1 3058   2.671   2.970   2.319 -0.7638 -1.9078  0.6057
  765SOL    HW2 3059   2.813   2.945   2.371 -0.3195 -2.5557  0.4131
  765SOL     MW 3060   2.730   2.977   2.381 -0.1987 -1.1580  0.1654
  766SOL     OW 3061   1.905   2.963   2.179  0.4356  0.1352 -0.5051
  766SOL    HW1 3062   1.956   3.012   2.110  0.7881  1.7666  0.1641
  766SOL    HW2 3063   1.844   2.903   2.126 -1.7199  0.8576  0.5190
  766SOL     MW 3064   1.904   2.961   2.163  0.1977  0.4458 -0.2817
  767SOL     OW 3065   2.635   0.598   2.130 -0.0766 -0.5336 -0.4245
  767SOL    HW1 3066   2.709   0.656   2.156 -0.9053  0.2323 -1.1094
  767SOL    HW2 3067   2.595   0.650   2.060  2.1371  1.8769 -0.2786
  767SOL     MW 3068   2.640   0.612   2.124  0.1062 -0.1145 -0.4956
  768SOL     OW 3069   3.024   1.550   2.938 -0.7783 -0.2204  0.2043
  768SOL    HW1 3070   3.049   1.532   3.027 -2.4255 -1.2566  2.3254
  768SOL    HW2 3071   3.087   1.490   2.894 -1.3781  0.9741 -0.3830
  768SOL     MW 3072   3.036   1.540   2.944 -1.0747 -0.1995  0.4067
  769SOL     OW 3073   2.487   0.657   2.332  0.0224 -0.3050  1.0824
  769SOL    HW1 3074   2.543   0.630   2.403  0.0613  1.0486 -1.3746
  769SOL    HW2 3075   2.538   0.635   2.252  2.3707  0.6951  0.9964
  769SOL     MW 3076   2.501   0.650   2.331  0.3374  0.0056  0.7469
  770SOL     OW 3077   3.097   1.621   2.524 -0.4444 -0.1954 -0.0333
  770SOL    HW1 3078   3.030   1.671   2.561  0.1411 -2.7680 -1.7002
  770SOL    HW2 3079   3.043   1.563   2.461  0.1494 -1.0062 -0.3092
  770SOL     MW 3080   3.081   1.620   2.521 -0.2888 -0.6418 -0.2897
  771SOL     OW 3081   3.063   0.616   1.984  0.7146  0.0232 -0.1347
  771SOL    HW1 3082   2.969   0.610   1.960 -1.1274  0.9184  1.6996
  771SOL    HW2 3083   3.119   0.555   1.929 -1.6854 -2.5870  0.7626
  771SOL     MW 3084   3.058   0.607   1.974  0.1549 -0.2031  0.2257
  772SOL     OW 3085   0.068   3.094   2.288 -0.2028  0.4706  0.0188
  772SOL    HW1 3086  -0.012   3.044   2.276  0.4574  2.1332 -0.9442
  772SOL    HW2 3087   0.130   3.053   2.227 -1.7984  1.7416  1.5880
  772SOL     MW 3088   0.066   3.082   2.278 -0.3262  0.8577  0.0988
  773SOL     OW 3089   2.473   2.819   2.756  0.3314 -0.1013  0.5497
  773SOL    HW1 3090   2.464   2.738   2.709  1.5495  0.4746 -0.5123
  773SOL    HW2 3091   2.454   2.779   2.843  1.3079 -1.3211  0.8986
  773SOL     MW 3092   2.469   2.803   2.761  0.6210 -0.1863  0.4556
  774SOL     OW 3093   2.306   1.134   1.744 -0.8973 -0.2522  0.0383
  774SOL    HW1 3094   2.290   1.196   1.670 -0.4724  0.5681  0.5181
  774SOL    HW2 3095   2.274   1.049   1.722 -1.0477  0.1771  0.9443
  774SOL     MW 3096   2.299   1.131   1.731 -0.8611 -0.0873  0.2211
  775SOL     OW 3097   2.307   2.919   2.343  0.2144 -0.3001  0.1671
  775SOL    HW1 3098   2.316   2.995   2.286 -1.1464 -1.5363 -1.1054
  775SOL    HW2 3099   2.353   2.844   2.312 -0.4068 -1.0067 -0.4005
  775SOL     MW 3100   2.315   2.919   2.332 -0.0471 -0.5564 -0.0757
  776SOL     OW 3101   0.023   1.531   0.087 -0.3215 -0.1311  0.3432
  776SOL    HW1 3102   0.113   1.511   0.097 -2.2801 -0.4719  1.8192
  776SOL    HW2 3103  -0.012   1.448   0.113  2.3592  1.9753 -0.8670
  776SOL     MW 3104   0.030   1.517   0.092 -0.2262  0.1019  0.3783
  777SOL     OW 3105   2.939   0.969   1.762 -0.7526 -0.2606  0.3648
  777SOL    HW1 3106   2.898   1.035   1.704  2.3113 -0.8719  2.7884
  777SOL    HW2 3107   2.868   0.932   1.813 -0.3328  0.0601  1.8535
  777SOL     MW 3108   2.924   0.973   1.761 -0.2930 -0.2989  0.8810
  778SOL     OW 3109   2.886   0.351   2.785  0.6949 -0.1280  0.1899
  778SOL    HW1 3110   2.889   0.388   2.873 -4.1403 -0.4152 -1.0276
  778SOL    HW2 3111   2.935   0.421   2.732 -1.3856 -0.0928 -0.5571
  778SOL     MW 3112   2.893   0.365   2.789 -0.2175 -0.1613 -0.0693
  779SOL     OW 3113   2.106   0.533   2.322 -0.2899 -0.3302  0.1567
  779SOL    HW1 3114   2.043   0.598   2.338  2.9346  0.1499  2.5273
  779SOL    HW2 3115   2.127   0.510   2.410 -2.0611  0.6417 -1.0570
  779SOL     MW 3116   2.101   0.539   2.336 -0.0981 -0.1386  0.3093
  780SOL     OW 3117   0.185   0.125   2.818  0.2108  0.1594 -0.4242
  780SOL    HW1 3118   0.120   0.148   2.886  2.1217  1.2786 -0.8073
  780SOL    HW2 3119   0.158   0.139   2.729  2.0198 -1.3735 -1.9000
  780SOL     MW 3120   0.173   0.130   2.815  0.7016  0.1048 -0.6695
  781SOL     OW 3121   3.029   1.381   2.427 -0.1930 -0.2113 -0.4632
  781SOL    HW1 3122   3.004   1.390   2.334 -1.1798 -0.1622 -2.2306
  781SOL    HW2 3123   3.103   1.328   2.441 -2.1664  0.7453 -0.7265
  781SOL     MW 3124   3.035   1.375   2.417 -0.5836 -0.0786 -0.7311
  782SOL     OW 3125   0.541   1.557   3.079  0.5269 -0.6601  0.2783
  782SOL    HW1 3126   0.497   1.637   3.099  0.2825 -1.3900  1.9887
  782SOL    HW2 3127   0.561   1.527   3.170 -0.3782 -0.9571 -3.3053
  782SOL     MW 3128   0.538   1.563   3.093  0.3753 -0.7956  0.0311
  783SOL     OW 3129   2.820   0.567   2.427  0.1732 -0.0340 -0.4311
  783SOL    HW1 3130   2.873   0.517   2.361 -0.4001 -1.4815 -0.0582
  783SOL    HW2 3131   2.763   0.508   2.478  0.2626 -2.0173  1.5116
  783SOL     MW 3132   2.819   0.553   2.425  0.1093 -0.4867 -0.1256
  784SOL     OW 3133   0.204   0.908   2.891 -0.2730  0.2587  0.0849
  784SOL    HW1 3134   0.218   0.990   2.933 -0.8917 -2.6771 -3.3593
  784SOL    HW2 3135   0.197   0.939   2.799  1.8736 -3.1746  1.9040
  784SOL     MW 3136   0.205   0.923   2.884 -0.0714 -0.5816 -0.1295
  785SOL     OW 3137   0.358   0.531   2.115  0.2786  1.2489 -0.2423
  785SOL    HW1 3138   0.350   0.547   2.021 -0.7259 -2.8049 -1.6938
  785SOL    HW2 3139   0.297   0.462   2.140 -0.0440 -1.2637 -4.4049
  785SOL     MW 3140   0.349   0.524   2.106  0.1035  0.3825 -0.9830
  786SOL     OW 3141   2.031   0.476   2.844 -0.2233 -0.5317  0.0621
  786SOL    HW1 3142   2.007   0.501   2.931  1.3517 -0.7106  2.1486
  786SOL    HW2 3143   2.119   0.503   2.824  1.4162  1.1685 -0.9800
  786SOL     MW 3144   2.039   0.483   2.853  0.2008 -0.3310  0.1999
  787SOL     OW 3145   2.426   0.153   2.929 -0.1262 -0.4677 -0.2221
  787SOL    HW1 3146   2.490   0.107   2.872  0.0577  1.8511 -2.0804
  787SOL    HW2 3147   2.468   0.232   2.960 -1.4993  0.3025 -1.3501
  787SOL     MW 3148   2.440   0.157   2.926 -0.2831 -0.0602 -0.6161
  788SOL     OW 3149   2.946   2.886   2.279 -0.2254 -0.6554  0.1868
  788SOL    HW1 3150   2.893   2.805   2.265 -1.3319 -2.0564  0.6856
  788SOL    HW2 3151   3.020   2.858   2.335  0.0857  2.9087  0.5915
  788SOL     MW 3152   2.949   2.872   2.284 -0.3303 -0.3700  0.3060
  789SOL     OW 3153   0.040   0.281   3.020  0.0009  0.3122  0.2086
  789SOL    HW1 3154  -0.039   0.245   3.066 -0.8563  0.4817 -0.0323
  789SOL    HW2 3155   0.108   0.267   3.088  1.4470 -0.1628  1.8783
  789SOL     MW 3156   0.039   0.274   3.035  0.0786  0.2719  0.3971
  790SOL     OW 3157   0.020   1.059   2.485 -0.0665 -0.3017 -0.4266
  790SOL    HW1 3158   0.002   1.007   2.559 -1.4787  1.2925 -1.3669
  790SOL    HW2 3159  -0.062   1.050   2.433  1.4285 -2.1692 -0.9190
  790SOL     MW 3160   0.007   1.051   2.488 -0.0556 -0.3378 -0.6157
  791SOL     OW 3161   2.671   0.411   2.623  0.2658  0.4047 -0.3250
  791SOL    HW1 3162   2.615   0.472   2.676  2.3157 -0.9519 -1.0641
  791SOL    HW2 3163   2.751   0.393   2.680  0.0264  0.5840 -2.0090
  791SOL     MW 3164   2.674   0.417   2.637  0.5047  0.2494 -0.6447
  792SOL     OW 3165   2.437   0.264   2.375 -0.5565  0.4474  0.5877
  792SOL    HW1 3166   2.379   0.339   2.403  1.2817 -1.3217  1.8690
  792SOL    HW2 3167   2.459   0.226   2.462 -1.8871  2.4250 -1.4063
  792SOL     MW 3168   2.432   0.269   2.390 -0.4896  0.4749  0.4937
  793SOL     OW 3169   1.760   1.023   1.870  0.0879 -0.3742 -0.2917
  793SOL    HW1 3170   1.707   1.032   1.791  1.9344 -1.9748  0.9540
  793SOL    HW2 3171   1.854   1.017   1.831  1.2554 -1.2629 -0.3002
  793SOL     MW 3172   1.765   1.023   1.854  0.4856 -0.7026 -0.1285
  794SOL     OW 3173   1.441   2.293   0.114 -0.2589 -0.3977 -0.2322
  794SOL    HW1 3174   1.437   2.365   0.049 -0.5337 -0.6219  2.1554
  794SOL    HW2 3175   1.480   2.336   0.192  0.6160 -1.2240  1.3780
  794SOL     MW 3176   1.446   2.308   0.116 -0.1797 -0.5363  0.2952
  795SOL     OW 3177   2.368   0.931   2.602  0.1241  0.0688 -0.2314
  795SOL    HW1 3178   2.354   1.020   2.631  0.1441 -0.1551 -0.5770
  795SOL    HW2 3179   2.361   0.939   2.505 -3.4647  0.6261 -1.8646
  795SOL     MW 3180   2.365   0.944   2.593 -0.3468  0.1128 -0.4925
  796SOL     OW 3181   0.320   0.679   2.800  0.0967 -0.6747  0.2226
  796SOL    HW1 3182   0.255   0.745   2.826  1.3101  1.1801 -1.3902
  796SOL    HW2 3183   0.278   0.632   2.729  1.0133 -0.4445 -0.0394
  796SOL     MW 3184   0.306   0.681   2.794  0.3777 -0.3996 -0.0248
  797SOL     OW 3185   2.569   0.158   2.584 -0.3732  0.2830  0.0615
  797SOL    HW1 3186   2.597   0.249   2.606 -1.4950  3.6265 -0.0090
  797SOL    HW2 3187   2.632   0.127   2.519 -0.3031 -1.8099 -0.2731
  797SOL     MW 3188   2.581   0.166   2.579 -0.5119  0.4480  0.0081
  798SOL     OW 3189   2.380   0.047   2.183  0.4686 -0.4917  0.2124
  798SOL    HW1 3190   2.393   0.119   2.246 -0.9769  2.3464 -2.3419
  798SOL    HW2 3191   2.468   0.009   2.181  0.5753  1.1739  0.1461
  798SOL     MW 3192   2.393   0.052   2.191  0.2920  0.1025 -0.1334
  799SOL     OW 3193   2.529   2.928   0.197  0.3529 -0.4049 -0.2975
  799SOL    HW1 3194   2.571   2.885   0.123  0.2114  0.4724 -0.4264
  799SOL    HW2 3195   2.460   2.984   0.154 -0.1724  0.7628  4.0890
  799SOL     MW 3196   2.525   2.930   0.181  0.2649 -0.1351  0.2642
  800SOL     OW 3197   1.912   3.087   1.715 -0.1130  0.4549  0.0802
  800SOL    HW1 3198   1.837   3.036   1.751  1.8614 -1.4145  1.9990
  800SOL    HW2 3199   1.975   3.083   1.788 -1.1968 -3.9308 -0.2650
  800SOL     MW 3200   1.911   3.080   1.729  0.0045 -0.3704  0.2878
  801SOL     OW 3201   2.830   1.313   2.612  0.1875  0.4978 -0.4115
  801SOL    HW1 3202   2.841   1.218   2.582  0.4136  0.4522 -1.6413
  801SOL    HW2 3203   2.905   1.355   2.564  0.7313  0.9737 -1.9215
  801SOL     MW 3204   2.841   1.306   2.602  0.2891  0.5546 -0.7730
  802SOL     OW 3205   2.555   1.512   2.748 -0.3427 -0.2863 -0.0777
  802SOL    HW1 3206   2.549   1.417   2.718 -1.0696  1.3465 -6.1571
  802SOL    HW2 3207   2.637   1.527   2.786  0.2763 -0.1463 -1.9716
  802SOL     MW 3208   2.565   1.501   2.749 -0.3569 -0.0524 -1.1297
  803SOL     OW 3209   2.273   1.313   1.955 -0.7441 -0.5328 -0.2162
  803SOL    HW1 3210   2.226   1.268   2.028  1.1901 -2.3760  1.4838
  803SOL    HW2 3211   2.281   1.240   1.897 -2.4471 -0.2000  3.6385
  803SOL     MW 3212   2.268   1.297   1.957 -0.7136 -0.7321  0.5166
  804SOL     OW 3213   2.359   0.001   0.051  0.1873 -0.0038  0.7232
  804SOL    HW1 3214   2.274   0.055   0.043  0.0681 -0.3900 -0.8423
  804SOL    HW2 3215   2.400   0.045  -0.027 -1.0483 -2.6995 -0.0569
  804SOL     MW 3216   2.353   0.014   0.040  0.0086 -0.4104  0.4137
  805SOL     OW 3217   2.831   1.041   2.559  0.4173  0.4738  0.6057
  805SOL    HW1 3218   2.740   1.014   2.565  1.7209 -1.3296  0.9931
  805SOL    HW2 3219   2.883   0.975   2.604 -1.3557 -1.4587  1.1018
  805SOL     MW 3220   2.826   1.029   2.566  0.3554 -0.0191  0.7223
  806SOL     OW 3221   2.646   0.338   2.194  0.1564  0.2493 -0.7420
  806SOL    HW1 3222   2.568   0.319   2.241  3.9968 -0.8101 -0.3157
  806SOL    HW2 3223   2.632   0.425   2.167  0.1224  0.8416 -0.3089
  806SOL     MW 3224   2.634   0.347   2.197  0.6586  0.1877 -0.6286
  807SOL     OW 3225   0.036   1.153   2.107  0.1751 -0.1612  0.6678
  807SOL    HW1 3226   0.072   1.069   2.078 -2.2285 -1.0690 -0.4538
  807SOL    HW2 3227  -0.041   1.120   2.154 -0.6665  1.4882  0.4138
  807SOL     MW 3228   0.031   1.137   2.110 -0.2531 -0.0633  0.4863
  808SOL     OW 3229   2.630   3.066   2.800  0.6068 -0.4033  0.6028
  808SOL    HW1 3230   2.587   2.981   2.806  2.1439 -0.1220 -0.5744
  808SOL    HW2 3231   2.592   3.113   2.721  1.4686 -0.4018  1.5048
  808SOL     MW 3232   2.619   3.061   2.790  0.9233 -0.3660  0.5665
  809SOL     OW 3233   2.514   1.240   2.410  0.5641 -0.4215  0.0758
  809SOL    HW1 3234   2.528   1.229   2.507  1.0605 -0.2597  4.6960
  809SOL    HW2 3235   2.593   1.270   2.365  1.6496  1.8187 -0.8971
  809SOL     MW 3236   2.527   1.243   2.417  0.7728 -0.1046  0.5570
  810SOL     OW 3237   2.162   1.186   2.181  1.0242  0.8282  0.3689
  810SOL    HW1 3238   2.195   1.102   2.224 -0.4458 -0.5818 -0.2279
  810SOL    HW2 3239   2.069   1.165   2.157  0.9892 -1.7111 -1.0659
  810SOL     MW 3240   2.154   1.172   2.184  0.8256  0.3072  0.1009
  811SOL     OW 3241   1.489   0.080   2.238 -0.9455 -0.0957  0.0460
  811SOL    HW1 3242   1.576   0.051   2.273 -1.2953  0.2591 -1.1013
  811SOL    HW2 3243   1.474   0.066   2.140  0.2409 -0.2646 -2.1832
  811SOL     MW 3244   1.498   0.074   2.230 -0.8351 -0.0712 -0.3995
  812SOL     OW 3245   1.446   2.757   2.090  0.3838  0.3717 -0.4516
  812SOL    HW1 3246   1.538   2.774   2.064 -0.9199 -0.1356  0.1318
  812SOL    HW2 3247   1.451   2.744   2.186 -0.8128 -2.9487 -1.5683
  812SOL     MW 3248   1.458   2.757   2.100  0.0539 -0.1333 -0.5220
  813SOL     OW 3249   1.862   0.727   2.166 -0.2580 -0.1911 -0.2530
  813SOL    HW1 3250   1.811   0.645   2.170 -2.9421 -1.0045 -1.5377
  813SOL    HW2 3251   1.901   0.743   2.253  0.8749  0.9654 -1.4717
  813SOL     MW 3252   1.860   0.719   2.178 -0.4627 -0.1458 -0.5833
  814SOL     OW 3253   2.825   1.182   1.654  0.3013 -0.3205 -0.4401
  814SOL    HW1 3254   2.747   1.157   1.708 -2.0491 -1.3357  1.6652
  814SOL    HW2 3255   2.801   1.184   1.563 -1.8135 -2.5306  0.8256
  814SOL     MW 3256   2.812   1.179   1.649 -0.2878 -0.7461  0.0047
  815SOL     OW 3257   2.498   1.633   2.358  0.0227  0.0590  0.3330
  815SOL    HW1 3258   2.430   1.564   2.355  0.8531  2.6409 -0.6542
  815SOL    HW2 3259   2.581   1.593   2.375  3.4617  1.9787  0.5772
  815SOL     MW 3260   2.500   1.618   2.360  0.5860  0.6530  0.2350
  816SOL     OW 3261   0.678   0.667   2.699  0.0166 -0.3631  0.5922
  816SOL    HW1 3262   0.719   0.611   2.762  0.4467  0.2946 -0.0520
  816SOL    HW2 3263   0.609   0.614   2.648 -0.3654 -1.7005  2.1243
  816SOL     MW 3264   0.675   0.652   2.701  0.0230 -0.4528  0.7093
  817SOL     OW 3265   3.050   1.171   1.301  0.4526  0.3578 -0.0868
  817SOL    HW1 3266   3.124   1.197   1.351  0.1237 -2.0299  1.0500
  817SOL    HW2 3267   2.998   1.257   1.299 -0.4031 -1.6326  1.7462
  817SOL     MW 3268   3.053   1.186   1.307  0.2963 -0.2199  0.3050
  818SOL     OW 3269   1.901   0.973   2.693 -0.0510  0.4509  0.0057
  818SOL    HW1 3270   1.914   1.030   2.615  0.7354  0.1000 -2.5465
  818SOL    HW2 3271   1.989   0.942   2.714  1.5087  1.4366 -1.6020
  818SOL     MW 3272   1.914   0.977   2.686  0.2585  0.5347 -0.5432
  819SOL     OW 3273   1.935   0.237   2.321  0.0500 -0.2629 -0.0796
  819SOL    HW1 3274   2.006   0.297   2.292  4.9160 -0.9592 -2.0976
  819SOL    HW2 3275   1.956   0.222   2.411 -1.8367 -1.5741  0.2572
  819SOL     MW 3276   1.947   0.243   2.329  0.4431 -0.5277 -0.3014
  820SOL     OW 3277   2.473   1.724   2.616  0.2446  0.1624  0.1860
  820SOL    HW1 3278   2.505   1.633   2.650 -3.6671 -1.5142  1.8050
  820SOL    HW2 3279   2.491   1.718   2.525  0.6825 -0.0384  1.2356
  820SOL     MW 3280   2.480   1.711   2.609 -0.2137 -0.0853  0.5381
  821SOL     OW 3281   2.539   1.319   1.997 -0.0861  0.5340 -0.2949
  821SOL    HW1 3282   2.557   1.383   1.928  0.6854 -1.5890 -1.3418
  821SOL    HW2 3283   2.447   1.302   1.989 -0.3350 -2.2449 -1.6699
  821SOL     MW 3284   2.529   1.326   1.987 -0.0171 -0.1127 -0.6144
  822SOL     OW 3285   2.887   2.622   1.441 -0.4097  0.0762 -0.1674
  822SOL    HW1 3286   2.801   2.664   1.410 -0.6711  0.1084 -2.1654
  822SOL    HW2 3287   2.944   2.695   1.447  0.2839 -0.8139 -2.6434
  822SOL     MW 3288   2.883   2.637   1.438 -0.3527 -0.0370 -0.7577
  823SOL     OW 3289   2.363   0.467   1.787 -0.0507  0.5189  0.2953
  823SOL    HW1 3290   2.452   0.427   1.772  0.3375 -2.3594  0.1798
  823SOL    HW2 3291   2.295   0.411   1.755  1.4553  1.6158 -2.6950
  823SOL     MW 3292   2.365   0.455   1.781  0.1992  0.2839 -0.1145
  824SOL     OW 3293   2.135   1.352   2.565  0.2459 -0.0575 -0.0849
  824SOL    HW1 3294   2.199   1.379   2.493 -0.4466  0.2339  0.8797
  824SOL    HW2 3295   2.120   1.434   2.613  0.5173 -2.5063 -1.4795
  824SOL     MW 3296   2.142   1.367   2.562  0.1903 -0.3422 -0.1416
  825SOL     OW 3297   2.124   2.329   0.361 -0.1755 -0.5923 -0.1411
  825SOL    HW1 3298   2.190   2.325   0.294 -1.7094  1.7145  2.2719
  825SOL    HW2 3299   2.162   2.352   0.450  2.0525 -0.9465  0.9690
  825SOL     MW 3300   2.138   2.332   0.363 -0.0839 -0.3347  0.3238
  826SOL     OW 3301   1.771   2.427   0.435  0.2443  0.2976  0.3304
  826SOL    HW1 3302   1.777   2.350   0.486  0.6542 -0.1614  1.1532
  826SOL    HW2 3303   1.813   2.495   0.484  1.5097  0.0391  1.3705
  826SOL     MW 3304   1.777   2.426   0.448  0.4653  0.2030  0.5762
  827SOL     OW 3305   1.922   2.252   0.867  0.0276  0.1055  0.1939
  827SOL    HW1 3306   1.861   2.267   0.796  1.1731 -1.7721  1.3558
  827SOL    HW2 3307   1.873   2.179   0.900  0.2535  0.3835  0.2604
  827SOL     MW 3308   1.908   2.244   0.862  0.2085 -0.1056  0.3559
  828SOL     OW 3309   0.096   2.645   0.534 -0.0025  0.4293 -0.6874
  828SOL    HW1 3310   0.165   2.699   0.575 -0.4093  0.9632  0.7368
  828SOL    HW2 3311   0.089   2.673   0.446 -1.6628  0.5806  1.0273
  828SOL     MW 3312   0.104   2.656   0.528 -0.2753  0.5197 -0.2732
  829SOL     OW 3313   2.988   2.867   1.188 -0.5227  0.4006 -0.3995
  829SOL    HW1 3314   2.918   2.871   1.133  3.3809 -0.9786 -1.6782
  829SOL    HW2 3315   3.037   2.789   1.161  0.6323  2.1144  0.4106
  829SOL     MW 3316   2.986   2.857   1.177  0.1447  0.4447 -0.4614
  830SOL     OW 3317   2.490   2.822   1.993  0.5123  0.0725  0.1019
  830SOL    HW1 3318   2.404   2.872   1.966 -0.5729  4.4797 -0.3986
  830SOL    HW2 3319   2.534   2.801   1.912  0.6967  0.4669  0.3011
  830SOL     MW 3320   2.485   2.825   1.978  0.3934  0.7060  0.0621
  831SOL     OW 3321   2.458   2.432   1.233 -0.3164  0.1474 -0.2584
  831SOL    HW1 3322   2.469   2.354   1.288  1.4928 -2.3022 -0.1680
  831SOL    HW2 3323   2.527   2.421   1.162  1.6920  0.2119  0.0494
  831SOL     MW 3324   2.469   2.420   1.231  0.1873 -0.1673 -0.2059
  832SOL     OW 3325   2.419   2.103   1.926 -0.2105  0.2136  0.3195
  832SOL    HW1 3326   2.400   2.193   1.926 -1.5372 -2.6662 -1.6032
  832SOL    HW2 3327   2.483   2.083   1.854 -1.0890  0.9616 -1.9395
  832SOL     MW 3328   2.425   2.112   1.916 -0.5014 -0.0677 -0.2322
  833SOL     OW 3329   1.610   2.492   0.792 -0.2059  0.5985  0.1460
  833SOL    HW1 3330   1.587   2.442   0.872  0.7257 -5.2742 -0.8450
  833SOL    HW2 3331   1.540   2.553   0.775  2.4796 -0.7970 -0.6157
  833SOL     MW 3332   1.598   2.494   0.800  0.2714 -0.3605 -0.0853
  834SOL     OW 3333   2.204   2.411   0.599  0.4632 -0.0087 -0.1202
  834SOL    HW1 3334   2.197   2.319   0.629  0.9698 -1.6414  0.1801
  834SOL    HW2 3335   2.298   2.418   0.624 -0.7477  0.4265 -1.4856
  834SOL     MW 3336   2.216   2.399   0.606  0.3703 -0.1667 -0.2607
  835SOL     OW 3337   1.847   2.619   0.677 -1.0254  0.3296  0.1674
  835SOL    HW1 3338   1.774   2.567   0.727  0.2006 -3.2581  2.6692
  835SOL    HW2 3339   1.934   2.593   0.716  2.8080  0.2590  2.7478
  835SOL     MW 3340   1.849   2.609   0.688 -0.3579 -0.1531  0.8380
  836SOL     OW 3341   2.081   2.053   1.769 -0.3767 -0.1600 -0.0401
  836SOL    HW1 3342   2.158   2.002   1.761 -1.9747 -0.5392  1.8312
  836SOL    HW2 3343   2.111   2.118   1.835  0.9942 -1.8401  0.8321
  836SOL     MW 3344   2.095   2.055   1.776 -0.4066 -0.4317  0.3218
  837SOL     OW 3345   2.091   0.218   0.665 -0.9996  0.3661 -0.0609
  837SOL    HW1 3346   2.031   0.232   0.596  1.9760 -2.2204  0.9530
  837SOL    HW2 3347   2.140   0.149   0.621  0.9615  0.1860  0.3184
  837SOL     MW 3348   2.090   0.210   0.650 -0.3482  0.0011  0.1229
  838SOL     OW 3349   2.933   2.039   0.908  0.2140  0.4025  0.0505
  838SOL    HW1 3350   2.846   2.013   0.935 -0.2365 -0.2407 -2.2866
  838SOL    HW2 3351   2.989   2.029   0.983  2.6221  1.5626 -0.7911
  838SOL     MW 3352   2.929   2.034   0.922  0.4723  0.4707 -0.3689
  839SOL     OW 3353   1.522   2.417   1.043  0.2798  0.7332  0.0728
  839SOL    HW1 3354   1.506   2.485   1.109  0.9513  0.4649 -0.1249
  839SOL    HW2 3355   1.567   2.345   1.092 -0.4324  3.3487 -4.6944
  839SOL     MW 3356   1.526   2.417   1.058  0.2744  1.0429 -0.5823
  840SOL     OW 3357   2.391   2.119   2.313 -0.2964 -0.3454 -0.0458
  840SOL    HW1 3358   2.317   2.179   2.302  1.6685 -0.5270  1.1696
  840SOL    HW2 3359   2.449   2.159   2.382 -0.8929 -0.0664  1.6910
  840SOL     MW 3360   2.389   2.132   2.320 -0.1159 -0.3325  0.3437
  841SOL     OW 3361   2.285   2.287   0.146 -0.2814  0.2394  0.2076
  841SOL    HW1 3362   2.306   2.327   0.059 -0.2989  1.8079  1.6686
  841SOL    HW2 3363   2.206   2.236   0.121 -1.3976  0.3125 -2.2779
  841SOL     MW 3364   2.277   2.286   0.131 -0.4310  0.4560  0.0725
  842SOL     OW 3365   2.655   1.966   1.473 -0.1279  0.3280 -0.3921
  842SOL    HW1 3366   2.644   1.873   1.472  0.2348 -0.5061 -1.0825
  842SOL    HW2 3367   2.649   1.997   1.383  0.3892  0.4657 -1.1760
  842SOL     MW 3368   2.653   1.957   1.461 -0.0118  0.2361 -0.5867
  843SOL     OW 3369   2.683   2.744   1.769  0.4102 -0.5091  0.4070
  843SOL    HW1 3370   2.772   2.725   1.794 -1.6789 -1.5245 -0.3379
  843SOL    HW2 3371   2.660   2.661   1.720  0.3827  2.2812 -0.1464
  843SOL     MW 3372   2.692   2.730   1.766  0.1310 -0.2749  0.2357
  844SOL     OW 3373   2.685   2.334   1.100  0.3003 -0.0355  0.4728
  844SOL    HW1 3374   2.701   2.338   1.002  1.8070 -0.6574 -0.8087
  844SOL    HW2 3375   2.758   2.366   1.149 -0.3341  0.4748  1.2336
  844SOL     MW 3376   2.697   2.338   1.093  0.4154 -0.0502  0.4041
  845SOL     OW 3377   2.827   2.618   0.275 -0.4346 -0.0862  0.1200
  845SOL    HW1 3378   2.839   2.527   0.319 -0.3255 -0.4930 -1.7067
  845SOL    HW2 3379   2.841   2.685   0.342 -1.0650  0.5383 -2.6197
  845SOL     MW 3380   2.830   2.615   0.290 -0.5034 -0.0574 -0.4825
  846SOL     OW 3381   1.432   2.717   0.785  0.3293 -0.1993 -0.2089
  846SOL    HW1 3382   1.493   2.791   0.788  0.1890  0.2527  0.8237
  846SOL    HW2 3383   1.341   2.756   0.799 -0.7744 -1.9030  0.8702
  846SOL     MW 3384   1.428   2.732   0.787  0.1652 -0.3645  0.0697
  847SOL     OW 3385   2.416   1.817   0.216  0.0395  0.3826 -0.2123
  847SOL    HW1 3386   2.383   1.732   0.234  1.1146 -0.5429  2.7520
  847SOL    HW2 3387   2.409   1.837   0.120  1.0704  0.5578  2.5298
  847SOL     MW 3388   2.411   1.808   0.206  0.3173  0.2836  0.5406
  848SOL     OW 3389   2.708   2.089   1.209  0.2046  0.7426  0.5175
  848SOL    HW1 3390   2.702   2.176   1.165 -1.5632  1.0723 -3.7705
  848SOL    HW2 3391   2.799   2.087   1.232  0.3980 -0.2479  1.9715
  848SOL     MW 3392   2.719   2.100   1.206 -0.0031  0.6554  0.1436
  849SOL     OW 3393   1.921   2.845   0.834 -0.5023  0.0567  0.3807
  849SOL    HW1 3394   1.862   2.815   0.905  1.9691 -0.8297  0.4727
  849SOL    HW2 3395   1.937   2.768   0.782  0.3647 -2.6891 -0.3779
  849SOL     MW 3396   1.915   2.831   0.836 -0.0618 -0.4226  0.2927
  850SOL     OW 3397   2.321   1.944   1.617  0.0441 -0.2742  0.2763
  850SOL    HW1 3398   2.232   1.937   1.575  0.4830  1.0205  1.2822
  850SOL    HW2 3399   2.353   2.030   1.588  2.3770  1.6785 -3.6064
  850SOL     MW 3400   2.313   1.954   1.608  0.4098  0.1542 -0.1033
  851SOL     OW 3401   2.579   2.223   0.403  0.2945 -0.1329 -0.8149
  851SOL    HW1 3402   2.568   2.202   0.307 -0.4017 -3.3642  0.0612
  851SOL    HW2 3403   2.536   2.306   0.421  1.9021  1.7478  1.9893
  851SOL     MW 3404   2.572   2.231   0.393  0.4148 -0.3111 -0.3294
  852SOL     OW 3405   2.329   2.030   0.358  0.1046  0.3946 -0.0536
  852SOL    HW1 3406   2.393   2.100   0.364  0.8733  1.5608 -2.1991
  852SOL    HW2 3407   2.374   1.965   0.296  0.5062  1.4479 -2.5480
  852SOL     MW 3408   2.344   2.031   0.350  0.2590  0.6874 -0.6658
  853SOL     OW 3409   2.509   2.406   1.904  0.1760 -0.1325 -0.0304
  853SOL    HW1 3410   2.527   2.454   1.820  0.5277  1.2817 -1.1199
  853SOL    HW2 3411   2.597   2.392   1.938  1.8379 -1.7097  0.2829
  853SOL     MW 3412   2.523   2.410   1.898  0.4416 -0.1540 -0.1328
  854SOL     OW 3413   2.902   2.270   0.743  0.3467 -0.2694  0.4740
  854SOL    HW1 3414   2.813   2.240   0.718 -1.0820  1.3835  0.7163
  854SOL    HW2 3415   2.937   2.193   0.797 -1.2075 -0.1334 -0.5312
  854SOL     MW 3416   2.895   2.256   0.747 -0.0468 -0.0334  0.3733
  855SOL     OW 3417   2.826   2.374   0.418  0.4805 -0.0813 -0.1207
  855SOL    HW1 3418   2.739   2.330   0.427  0.0117 -1.4853 -1.1191
  855SOL    HW2 3419   2.887   2.300   0.395  1.5425 -0.7419 -0.7375
  855SOL     MW 3420   2.822   2.358   0.416  0.5588 -0.3537 -0.3338
  856SOL     OW 3421   2.101   1.818   0.246 -0.4313  0.0240  0.0800
  856SOL    HW1 3422   2.010   1.819   0.277 -1.4053 -1.1274  0.1903
  856SOL    HW2 3423   2.150   1.889   0.292  0.2954 -0.4242  1.8829
  856SOL     MW 3424   2.095   1.827   0.256 -0.4639 -0.1870  0.3324
  857SOL     OW 3425   2.473   1.935   0.573  0.6537 -0.1177  0.2394
  857SOL    HW1 3426   2.421   1.968   0.501  0.6681 -0.5027  2.4559
  857SOL    HW2 3427   2.400   1.924   0.641 -0.2967  1.4343 -0.5258
  857SOL     MW 3428   2.456   1.938   0.573  0.5302  0.0363  0.4309
  858SOL     OW 3429   2.925   2.681   1.849  0.3992  0.3160  0.5577
  858SOL    HW1 3430   2.995   2.732   1.888 -1.5477  0.4829  1.9592
  858SOL    HW2 3431   2.956   2.619   1.787 -0.3472  0.0142  3.0442
  858SOL     MW 3432   2.938   2.680   1.846  0.0438  0.2982  1.0707
  859SOL     OW 3433   1.745   2.651   0.982  0.0344 -0.1009  0.0837
  859SOL    HW1 3434   1.670   2.601   0.940 -0.1300  3.1611 -2.4442
  859SOL    HW2 3435   1.804   2.594   1.019 -0.8493 -0.6645 -0.1045
  859SOL     MW 3436   1.743   2.637   0.981 -0.1039  0.2551 -0.2747
  860SOL     OW 3437   2.642   2.577   0.066  0.3649 -0.1702 -0.4536
  860SOL    HW1 3438   2.711   2.609   0.129 -0.4236 -1.0076  0.7190
  860SOL    HW2 3439   2.629   2.651   0.010  1.3513 -2.4509  1.2359
  860SOL     MW 3440   2.649   2.591   0.067  0.3910 -0.5816 -0.0760
  861SOL     OW 3441   1.607   2.149   1.187 -0.1594 -0.3808 -0.4842
  861SOL    HW1 3442   1.607   2.208   1.267 -1.8213  0.1352  2.9356
  861SOL    HW2 3443   1.534   2.085   1.194  0.0278  1.0851 -2.6278
  861SOL     MW 3444   1.597   2.148   1.198 -0.3540 -0.1193 -0.3158
  862SOL     OW 3445   2.432   1.711   1.451  0.6814  0.2555  0.4604
  862SOL    HW1 3446   2.386   1.789   1.494  1.2989 -0.5167 -0.2360
  862SOL    HW2 3447   2.472   1.751   1.374 -0.5614 -1.4174 -0.5944
  862SOL     MW 3448   2.431   1.726   1.447  0.5989 -0.0671  0.2294
  863SOL     OW 3449   2.885   1.648   0.946 -0.4193  0.3499 -0.4156
  863SOL    HW1 3450   2.847   1.698   1.017 -2.1260 -1.1337 -0.7388
  863SOL    HW2 3451   2.806   1.635   0.890  0.2641 -0.0143 -0.9904
  863SOL     MW 3452   2.869   1.653   0.948 -0.5543  0.1061 -0.5340
  864SOL     OW 3453   3.074   1.762   0.773 -0.0588  0.2553 -0.1964
  864SOL    HW1 3454   3.021   1.709   0.837 -1.5153  0.2956 -0.4070
  864SOL    HW2 3455   3.016   1.762   0.694 -1.6330 -0.2031  2.2329
  864SOL     MW 3456   3.060   1.755   0.771 -0.4587  0.2001  0.0963
  865SOL     OW 3457   2.510   2.155   0.138  0.2889  0.0043 -0.0135
  865SOL    HW1 3458   2.490   2.072   0.098 -2.7880  1.7613  2.5342
  865SOL    HW2 3459   2.415   2.203   0.142 -2.7365  1.1776 -0.0262
  865SOL     MW 3460   2.495   2.151   0.133 -0.5162  0.3909  0.3210
  866SOL     OW 3461   2.732   2.372   1.526 -0.2459 -0.1551  0.3078
  866SOL    HW1 3462   2.711   2.283   1.539 -0.4134 -1.6785  0.4173
  866SOL    HW2 3463   2.766   2.373   1.440  0.5983  2.1967  1.6669
  866SOL     MW 3464   2.734   2.360   1.516 -0.1567 -0.0458  0.5015
  867SOL     OW 3465   0.161   2.693   1.726  0.7865  0.9312  0.1077
  867SOL    HW1 3466   0.240   2.738   1.748 -0.4538  1.2538 -0.2561
  867SOL    HW2 3467   0.101   2.763   1.692 -0.3226  2.7938 -2.1150
  867SOL     MW 3468   0.163   2.709   1.724  0.4765  1.2195 -0.2335
  868SOL     OW 3469   2.737   2.657   0.589 -0.2824 -0.3918 -0.5317
  868SOL    HW1 3470   2.713   2.561   0.573 -1.4621 -1.6969 -1.6143
  868SOL    HW2 3471   2.684   2.700   0.523  1.3343 -0.2640  0.5463
  868SOL     MW 3472   2.727   2.650   0.578 -0.2247 -0.5471 -0.5323
  869SOL     OW 3473   1.930   2.456   1.086  0.2086 -0.0859  0.2083
  869SOL    HW1 3474   2.000   2.498   1.035  0.5320 -3.0666 -2.4735
  869SOL    HW2 3475   1.927   2.373   1.031  1.0551  1.0511 -0.2922
  869SOL     MW 3476   1.939   2.450   1.072  0.3630 -0.3291 -0.2115
  870SOL     OW 3477   2.165   0.005   0.460 -0.4840  0.5965  0.1361
  870SOL    HW1 3478   2.244   0.042   0.417  2.6600  1.8252 -0.9334
  870SOL    HW2 3479   2.206  -0.074   0.504  3.0723 -0.8254 -0.4861
  870SOL     MW 3480   2.181  -0.001   0.460  0.4000  0.5710 -0.0871
  871SOL     OW 3481   2.477   2.049   0.905 -0.4517 -0.2030 -0.1335
  871SOL    HW1 3482   2.395   2.007   0.881 -0.1607  1.4870 -1.8742
  871SOL    HW2 3483   2.446   2.143   0.917 -3.3485 -0.0940 -1.2778
  871SOL     MW 3484   2.462   2.056   0.903 -0.7955  0.0343 -0.5142
  872SOL     OW 3485   2.104   2.475   1.608  0.1471 -0.1409  0.2232
  872SOL    HW1 3486   2.067   2.538   1.668  1.0224 -2.2834  2.1521
  872SOL    HW2 3487   2.048   2.492   1.531  1.9000  0.2157  0.3210
  872SOL     MW 3488   2.092   2.486   1.605  0.4939 -0.3766  0.4906
  873SOL     OW 3489   2.871   2.131   1.843  0.7571 -0.1565 -0.1443
  873SOL    HW1 3490   2.857   2.219   1.878 -0.9226  1.0350  0.2427
  873SOL    HW2 3491   2.929   2.140   1.771  0.6038  1.3996 -0.7188
  873SOL     MW 3492   2.877   2.144   1.838  0.5153  0.2061 -0.1690
  874SOL     OW 3493   2.312   1.418   2.381  0.3085 -0.0569  0.3456
  874SOL    HW1 3494   2.256   1.379   2.311 -0.7065  0.2992 -0.0825
  874SOL    HW2 3495   2.390   1.369   2.391 -1.7458  2.8564  0.6498
  874SOL     MW 3496   2.315   1.406   2.373 -0.0964  0.3745  0.3292
  875SOL     OW 3497   2.357   2.313   0.998 -0.5187 -0.6033  0.2245
  875SOL    HW1 3498   2.355   2.369   0.920 -1.5942 -1.7162 -0.1715
  875SOL    HW2 3499   2.361   2.371   1.072  0.1538 -2.4465 -0.0486
  875SOL     MW 3500   2.357   2.328   0.997 -0.5719 -0.9933  0.1362
  876SOL     OW 3501   3.085   2.206   1.312  0.0780  0.1801 -0.3392
  876SOL    HW1 3502   3.117   2.234   1.226 -3.0335  1.3639 -1.5482
  876SOL    HW2 3503   3.141   2.238   1.378 -1.3675  0.1508 -1.5599
  876SOL     MW 3504   3.096   2.214   1.310 -0.5232  0.3324 -0.6598
  877SOL     OW 3505   0.018   2.790   0.275 -0.2918 -0.2384 -0.3451
  877SOL    HW1 3506   0.098   2.844   0.262  2.0083  1.6788  0.1385
  877SOL    HW2 3507   0.011   2.726   0.205  0.6690  2.6372  1.1666
  877SOL     MW 3508   0.027   2.788   0.264  0.1385  0.3940 -0.0819
  878SOL     OW 3509   2.262   1.682   1.153  0.1002  0.5564 -0.3441
  878SOL    HW1 3510   2.181   1.660   1.220 -1.8983 -0.6021  1.6954
  878SOL    HW2 3511   2.303   1.609   1.116 -0.2536  0.6756  1.3009
  878SOL     MW 3512   2.257   1.670   1.157 -0.2102  0.4193  0.1420
  879SOL     OW 3513   2.705   2.452   0.849 -0.0131 -0.2775  0.0467
  879SOL    HW1 3514   2.749   2.528   0.886 -1.0769 -0.1464  1.1367
  879SOL    HW2 3515   2.779   2.410   0.800 -0.9393  3.0420  0.1437
  879SOL     MW 3516   2.721   2.456   0.848 -0.2757  0.1778  0.2033
  880SOL     OW 3517   2.589   2.195   0.708  0.0686 -0.0407  0.1990
  880SOL    HW1 3518   2.542   2.109   0.739 -0.1186 -1.7376  1.2463
  880SOL    HW2 3519   2.571   2.213   0.618  1.2985 -0.0763  3.2553
  880SOL     MW 3520   2.580   2.186   0.700  0.2062 -0.2693  0.7404
  881SOL     OW 3521   2.987   2.729   0.692 -0.3268 -0.6044  0.8751
  881SOL    HW1 3522   2.909   2.703   0.634 -1.7491 -1.3819 -1.3435
  881SOL    HW2 3523   3.061   2.694   0.650 -1.3051  0.8442  0.7150
  881SOL     MW 3524   2.987   2.721   0.679 -0.6435 -0.5158  0.5612
  882SOL     OW 3525   2.253   2.920   1.934 -0.0361  0.1150 -0.4101
  882SOL    HW1 3526   2.240   2.929   1.837 -2.3722  0.5357  0.2192
  882SOL    HW2 3527   2.228   2.833   1.955 -1.4372  0.3247 -0.6905
  882SOL     MW 3528   2.248   2.910   1.924 -0.5292  0.1981 -0.3641
  883SOL     OW 3529   2.463   2.154   1.302 -0.2645  0.3107  0.3022
  883SOL    HW1 3530   2.525   2.117   1.235  1.2239 -1.8939 -0.2733
  883SOL    HW2 3531   2.374   2.126   1.285 -0.0503 -1.3306  2.2072
  883SOL     MW 3532   2.460   2.145   1.291 -0.0398 -0.1967  0.4776
  884SOL     OW 3533   1.882   1.858   1.045 -0.2413  0.4678 -0.4055
  884SOL    HW1 3534   1.838   1.933   1.000  0.0983 -1.5559  0.6115
  884SOL    HW2 3535   1.978   1.881   1.044 -0.9270  1.4634 -1.4695
  884SOL     MW 3536   1.889   1.871   1.039 -0.2870  0.3321 -0.4117
  885SOL     OW 3537   2.937   2.439   1.704 -0.1255 -0.2841  0.1925
  885SOL    HW1 3538   2.988   2.361   1.674 -0.3398 -0.4360 -0.9253
  885SOL    HW2 3539   2.864   2.446   1.637 -0.1295  0.3745 -0.7022
  885SOL     MW 3540   2.934   2.430   1.692 -0.1543 -0.2173 -0.0730
  886SOL     OW 3541   2.881   2.392   1.289  0.7910 -0.4900 -0.1792
  886SOL    HW1 3542   2.958   2.331   1.292  4.4290 -1.4109  1.8946
  886SOL    HW2 3543   2.908   2.472   1.340 -2.0401 -0.9090  0.9597
  886SOL     MW 3544   2.895   2.394   1.296  0.8975 -0.6668  0.2447
  887SOL     OW 3545   2.313   2.644   1.577  0.3925 -0.5138 -0.2338
  887SOL    HW1 3546   2.328   2.649   1.481 -0.2796  0.6088 -1.3486
  887SOL    HW2 3547   2.244   2.579   1.579 -0.2404 -2.1762 -1.7004
  887SOL     MW 3548   2.306   2.636   1.564  0.2204 -0.5850 -0.5744
  888SOL     OW 3549   2.072   2.177   1.435  0.0662  0.3244 -0.3591
  888SOL    HW1 3550   2.099   2.145   1.349  1.7326 -0.4540 -0.7601
  888SOL    HW2 3551   2.153   2.198   1.483  1.7788  1.9880  1.0053
  888SOL     MW 3552   2.086   2.175   1.430  0.5120  0.4412 -0.2320
  889SOL     OW 3553   2.265   1.933   2.073  0.2866  0.0923 -0.3430
  889SOL    HW1 3554   2.322   1.883   2.130 -0.6754  0.7643 -1.6522
  889SOL    HW2 3555   2.319   2.009   2.046  0.4499  1.7228 -1.2235
  889SOL     MW 3556   2.279   1.937   2.077  0.1812  0.3961 -0.6319
  890SOL     OW 3557   0.075   2.349   0.130 -0.2279  0.2804 -0.3544
  890SOL    HW1 3558   0.026   2.432   0.115  0.6033 -0.4572 -0.6685
  890SOL    HW2 3559   0.087   2.338   0.224 -2.8163  1.2001 -1.9060
  890SOL     MW 3560   0.070   2.358   0.141 -0.4598  0.3045 -0.6006
  891SOL     OW 3561   3.004   1.975   1.192  0.2456 -0.3427  0.1347
  891SOL    HW1 3562   3.051   1.896   1.172  1.6441  1.0678  2.9839
  891SOL    HW2 3563   3.070   2.031   1.240 -0.2709 -2.9181  0.5186
  891SOL     MW 3564   3.019   1.972   1.196  0.3619 -0.4964  0.5613
  892SOL     OW 3565   2.445   2.346   2.740 -0.8134 -0.0377 -0.0055
  892SOL    HW1 3566   2.412   2.263   2.781  1.4866 -0.0463 -4.0768
  892SOL    HW2 3567   2.543   2.352   2.760  1.4012 -0.5151  3.2654
  892SOL     MW 3568   2.453   2.336   2.748 -0.2178 -0.1018 -0.1111
  893SOL     OW 3569   1.631   2.326   1.392  0.1472  0.3184 -0.0737
  893SOL    HW1 3570   1.562   2.386   1.411 -0.5096 -3.3003  0.3730
  893SOL    HW2 3571   1.655   2.291   1.478 -1.2921  2.2677  0.7289
  893SOL     MW 3572   1.625   2.329   1.406 -0.1294  0.0982  0.0911
  894SOL     OW 3573   2.769   1.970   0.454  0.4859  0.4129  0.7836
  894SOL    HW1 3574   2.687   1.991   0.508  0.6181 -0.4144 -1.4149
  894SOL    HW2 3575   2.734   1.925   0.377  1.0763  2.1255 -0.1115
  894SOL     MW 3576   2.754   1.967   0.451  0.5812  0.5297  0.3755
  895SOL     OW 3577   2.192   2.146   1.178 -0.6220  0.2266  0.4481
  895SOL    HW1 3578   2.221   2.203   1.100 -0.0217 -0.3595 -2.1321
  895SOL    HW2 3579   2.193   2.054   1.138  0.2156 -1.6200  1.2855
  895SOL     MW 3580   2.196   2.142   1.162 -0.4323 -0.0943  0.2181
  896SOL     OW 3581   2.281   2.818   1.073  1.2845 -0.6045  0.4935
  896SOL    HW1 3582   2.312   2.775   1.156 -0.2430  0.9307  2.0949
  896SOL    HW2 3583   2.202   2.863   1.095  2.3953 -0.0916 -1.1370
  896SOL     MW 3584   2.275   2.818   1.087  1.2295 -0.3343  0.4897
  897SOL     OW 3585   3.083   3.075   3.060  0.1425  0.0184 -0.5028
  897SOL    HW1 3586   3.117   2.987   3.046  1.5363 -1.0029 -0.4448
  897SOL    HW2 3587   3.042   3.094   2.978 -0.3775  1.4340 -0.8486
  897SOL     MW 3588   3.082   3.066   3.047  0.2578  0.0704 -0.5408
  898SOL     OW 3589   2.185   0.185   1.429 -0.8109  0.3122 -0.3044
  898SOL    HW1 3590   2.178   0.093   1.451 -0.0960  0.2714  0.9200
  898SOL    HW2 3591   2.133   0.202   1.351  1.5758  0.6211  1.6380
  898SOL     MW 3592   2.177   0.175   1.421 -0.4017  0.3476  0.1135
  899SOL     OW 3593   2.993   2.991   0.620  0.8525 -0.5439 -0.6192
  899SOL    HW1 3594   2.997   2.910   0.668  3.5400 -0.1083 -0.5491
  899SOL    HW2 3595   2.927   3.041   0.671 -0.8140  0.2203  1.1406
  899SOL     MW 3596   2.985   2.987   0.633  0.9872 -0.3856 -0.3778
  900SOL     OW 3597   0.176   2.363   1.131  0.4095  0.1705  0.2937
  900SOL    HW1 3598   0.122   2.434   1.163 -1.2555 -1.3773  1.5840
  900SOL    HW2 3599   0.153   2.356   1.037 -0.0103  0.4800 -1.1368
  900SOL     MW 3600   0.166   2.372   1.123  0.1344  0.0071  0.2752
  901SOL     OW 3601   1.755   2.871   1.781  0.1557 -0.0905 -0.3695
  901SOL    HW1 3602   1.811   2.809   1.736 -1.9397  1.1237  2.9051
  901SOL    HW2 3603   1.658   2.839   1.773 -4.1581  2.3125 -2.3024
  901SOL     MW 3604   1.750   2.859   1.774 -0.6899  0.3867 -0.1925
  902SOL     OW 3605   2.619   2.086   1.719 -0.2985 -0.2179  0.0962
  902SOL    HW1 3606   2.642   2.027   1.650  1.5107  0.9530  0.0518
  902SOL    HW2 3607   2.699   2.107   1.763 -0.8453  0.4286  0.3015
  902SOL     MW 3608   2.633   2.081   1.715 -0.1319  0.0219  0.1174
  903SOL     OW 3609   1.551   2.634   0.540  0.0531  0.3962  0.5150
  903SOL    HW1 3610   1.646   2.637   0.536  0.2687 -2.3673 -2.5418
  903SOL    HW2 3611   1.517   2.694   0.605 -1.0031 -0.3640 -1.0560
  903SOL     MW 3612   1.559   2.642   0.548 -0.0578 -0.0687 -0.0956
  904SOL     OW 3613   2.564   2.528   1.651  0.1460  0.2189  0.2617
  904SOL    HW1 3614   2.477   2.543   1.604 -1.4099 -1.1843 -1.2548
  904SOL    HW2 3615   2.620   2.469   1.592 -1.1177 -0.7623  1.7921
  904SOL     MW 3616   2.560   2.523   1.637 -0.2260 -0.0957  0.2635
  905SOL     OW 3617   2.336   2.510   2.080 -0.1009 -0.0183  0.1756
  905SOL    HW1 3618   2.397   2.465   2.013 -0.9936  0.6772 -3.4116
  905SOL    HW2 3619   2.310   2.428   2.131 -0.4060 -0.7850 -0.0453
  905SOL     MW 3620   2.340   2.493   2.078 -0.2589 -0.0277 -0.3269
  906SOL     OW 3621   2.445   2.494   0.768 -0.7919 -0.5194  0.5411
  906SOL    HW1 3622   2.525   2.452   0.795 -1.7392 -0.6422 -1.3511
  906SOL    HW2 3623   2.449   2.585   0.783  0.6784 -0.1931  0.1042
  906SOL     MW 3624   2.456   2.500   0.774 -0.7229 -0.4926  0.2338
  907SOL     OW 3625   2.685   2.749   1.322 -0.4166 -0.8868  0.8084
  907SOL    HW1 3626   2.721   2.831   1.357 -2.7121 -2.2566 -3.7619
  907SOL    HW2 3627   2.694   2.767   1.230 -0.0562  2.0835 -1.4667
  907SOL     MW 3628   2.691   2.762   1.314 -0.6719 -0.6756 -0.0948
  908SOL     OW 3629   2.682   2.322   3.068  0.1452 -0.3353 -0.0959
  908SOL    HW1 3630   2.625   2.270   3.114 -0.9374 -1.1538 -0.9741
  908SOL    HW2 3631   2.656   2.410   3.104  0.8481  1.3631 -0.0446
  908SOL     MW 3632   2.671   2.327   3.079  0.0951 -0.2192 -0.2050
  909SOL     OW 3633   1.708   0.102   1.318  0.2018 -0.2546 -0.1327
  909SOL    HW1 3634   1.666   0.191   1.299 -1.1094 -1.3981  1.1304
  909SOL    HW2 3635   1.654   0.062   1.396 -0.1504  0.9868 -3.6258
  909SOL     MW 3636   1.695   0.109   1.326 -0.0177 -0.2417 -0.4269
  910SOL     OW 3637   2.134   1.629   0.422  0.1309  0.5586  0.1372
  910SOL    HW1 3638   2.056   1.575   0.401  2.3594  1.1799  1.0177
  910SOL    HW2 3639   2.129   1.701   0.352 -3.0977  0.2738  0.3889
  910SOL     MW 3640   2.123   1.631   0.410 -0.0011  0.6030  0.2866
  911SOL     OW 3641   2.403   2.216   1.567 -0.2915 -0.2742  0.0747
  911SOL    HW1 3642   2.464   2.195   1.640  0.2344  2.1177  1.3497
  911SOL    HW2 3643   2.450   2.197   1.492 -0.9881  1.5694  1.4303
  911SOL     MW 3644   2.417   2.211   1.567 -0.3140  0.2846  0.4218
  912SOL     OW 3645   2.936   1.856   1.432  0.1492 -0.1524  0.3152
  912SOL    HW1 3646   2.958   1.912   1.350  1.0972  0.5082  0.0927
  912SOL    HW2 3647   2.866   1.909   1.464  1.1319 -0.5546  0.8260
  912SOL     MW 3648   2.929   1.870   1.425  0.4040 -0.1183  0.3532
  913SOL     OW 3649   2.693   0.027   0.318 -0.5762 -0.3007 -0.0795
  913SOL    HW1 3650   2.783  -0.014   0.308  0.0364 -1.0092 -0.7174
  913SOL    HW2 3651   2.635  -0.035   0.278  1.8846  0.3498 -0.9134
  913SOL     MW 3652   2.697   0.013   0.311 -0.1707 -0.3083 -0.2737
  914SOL     OW 3653   2.634   1.788   3.033  0.1669 -0.6814  0.2243
  914SOL    HW1 3654   2.688   1.865   3.005  0.6791 -1.6034  0.1842
  914SOL    HW2 3655   2.540   1.821   3.036 -1.0383  0.9223  3.5102
  914SOL     MW 3656   2.629   1.803   3.030  0.0755 -0.5914  0.6525
  915SOL     OW 3657   1.791   0.101   0.163 -0.6132  0.3363  0.4815
  915SOL    HW1 3658   1.864   0.037   0.189  1.1709 -0.6717  0.8680
  915SOL    HW2 3659   1.714   0.049   0.192  1.6750  1.0681 -2.6545
  915SOL     MW 3660   1.790   0.086   0.170 -0.0759  0.2999  0.1187
  916SOL     OW 3661   1.793   2.162   1.977 -0.2776 -0.4646 -0.0042
  916SOL    HW1 3662   1.844   2.237   1.947 -0.6777 -1.0269  1.0707
  916SOL    HW2 3663   1.827   2.093   1.925  1.7103 -2.0750  0.9409
  916SOL     MW 3664   1.805   2.163   1.966 -0.0681 -0.7513  0.2624
  917SOL     OW 3665   2.523   2.195   2.532 -0.4271 -0.1860 -0.3552
  917SOL    HW1 3666   2.495   2.254   2.603  0.5720 -0.7140  4.3231
  917SOL    HW2 3667   2.611   2.224   2.508  1.0555  2.0451 -1.7552
  917SOL     MW 3668   2.531   2.207   2.539 -0.0996  0.0387  0.0773
  918SOL     OW 3669   2.044   1.619   2.689 -0.4023 -0.4198 -0.3686
  918SOL    HW1 3670   1.984   1.634   2.615 -0.0529  3.6546  0.7809
  918SOL    HW2 3671   2.120   1.679   2.662 -1.0764  1.3832  0.3307
  918SOL     MW 3672   2.046   1.629   2.676 -0.4452  0.3556 -0.1246
  919SOL     OW 3673   3.033   2.398   2.290  0.3630 -0.1065  0.3488
  919SOL    HW1 3674   2.972   2.335   2.244  0.9119  2.9560  0.2164
  919SOL    HW2 3675   3.096   2.430   2.228  1.2913 -0.0456 -0.7100
  919SOL     MW 3676   3.034   2.394   2.275  0.5579  0.3056  0.1916
  920SOL     OW 3677   2.607   2.850   3.055 -0.6863  0.3509 -0.8172
  920SOL    HW1 3678   2.516   2.824   3.035 -1.8021  1.8488  0.4901
  920SOL    HW2 3679   2.663   2.797   2.998 -2.0224 -0.3597  2.5431
  920SOL     MW 3680   2.603   2.840   3.045 -1.0098  0.4548 -0.2013
  921SOL     OW 3681   2.430   2.591   2.601 -0.5532 -0.3743 -0.0392
  921SOL    HW1 3682   2.495   2.601   2.530 -0.3451 -2.2278  0.6120
  921SOL    HW2 3683   2.433   2.497   2.621 -1.2324  1.0157  1.2346
  921SOL     MW 3684   2.439   2.580   2.595 -0.6153 -0.4354  0.2148
  922SOL     OW 3685   2.090   2.631   0.415 -0.0149  0.4274 -0.3164
  922SOL    HW1 3686   2.102   2.636   0.318  0.7385 -2.7354 -2.5138
  922SOL    HW2 3687   2.107   2.533   0.432 -0.0962 -2.9457  0.6626
  922SOL     MW 3688   2.094   2.619   0.404  0.0738 -0.4350 -0.4772
  923SOL     OW 3689   2.220   2.889   1.657  0.3967 -0.5339  0.0287
  923SOL    HW1 3690   2.259   2.810   1.618  0.2965 -0.0310  0.0948
  923SOL    HW2 3691   2.171   2.940   1.591 -1.4154 -2.1525 -0.1596
  923SOL     MW 3692   2.219   2.885   1.643  0.1444 -0.6811  0.0126
  924SOL     OW 3693   1.089   2.705   2.621 -0.2578  0.1741  0.0510
  924SOL    HW1 3694   1.183   2.722   2.616 -2.4418  0.9683 -0.7232
  924SOL    HW2 3695   1.080   2.627   2.676 -2.7693 -0.5270  0.8484
  924SOL     MW 3696   1.100   2.697   2.628 -0.8773  0.1864  0.0541
  925SOL     OW 3697   3.004   0.145   2.619  0.0511 -0.2096 -0.0569
  925SOL    HW1 3698   2.935   0.128   2.562 -0.8507 -2.8193  0.6378
  925SOL    HW2 3699   2.964   0.221   2.665  1.4824  0.4922 -0.2901
  925SOL     MW 3700   2.990   0.153   2.617  0.1210 -0.4613  0.0040
  926SOL     OW 3701   2.814   2.416   1.947 -0.2794  0.0438  0.3648
  926SOL    HW1 3702   2.824   2.499   1.988 -0.9842 -2.6882 -2.2144
  926SOL    HW2 3703   2.851   2.426   1.860 -0.7694  0.1669 -0.0852
  926SOL     MW 3704   2.820   2.429   1.941 -0.4370 -0.3004 -0.0349
  927SOL     OW 3705   2.377   0.114   0.302 -0.4108  0.1992 -0.5900
  927SOL    HW1 3706   2.469   0.118   0.334 -2.4557  0.5021  1.9667
  927SOL    HW2 3707   2.375   0.093   0.207 -0.1109  2.1837  2.6028
  927SOL     MW 3708   2.389   0.112   0.294 -0.6411  0.5010  0.1686
  928SOL     OW 3709   2.162   2.313   1.859  0.0730  0.3155  0.2238
  928SOL    HW1 3710   2.150   2.328   1.763  0.1069  2.5877  1.5916
  928SOL    HW2 3711   2.207   2.396   1.881  0.3156 -1.1496 -0.2666
  928SOL     MW 3712   2.167   2.326   1.849  0.1094  0.4220  0.3395
  929SOL     OW 3713   2.728   2.349   2.455 -0.4878  0.0341 -0.3619
  929SOL    HW1 3714   2.743   2.295   2.376  2.4457 -0.5855 -0.1883
  929SOL    HW2 3715   2.808   2.337   2.512  2.3127 -1.3108  1.7210
  929SOL     MW 3716   2.741   2.341   2.452  0.2688 -0.2251 -0.0642
  930SOL     OW 3717   2.019   2.846   2.666  0.7271 -0.0057  0.2109
  930SOL    HW1 3718   2.034   2.759   2.700 -1.3796  1.6063  0.5068
  930SOL    HW2 3719   2.107   2.888   2.641 -0.2347  1.7219 -1.9253
  930SOL     MW 3720   2.032   2.840   2.667  0.3222  0.4350 -0.0319
  931SOL     OW 3721   0.042   2.774   2.451  0.1925 -0.5974 -0.2941
  931SOL    HW1 3722  -0.008   2.830   2.523 -0.7565  1.0550 -1.9571
  931SOL    HW2 3723   0.130   2.817   2.445 -2.3781 -0.0491  2.2752
  931SOL     MW 3724   0.047   2.787   2.460 -0.2719 -0.3071 -0.1746
  932SOL     OW 3725   2.789   2.042   2.442 -0.7328  0.0373 -0.2478
  932SOL    HW1 3726   2.875   2.046   2.486 -1.1549  1.3269  2.5147
  932SOL    HW2 3727   2.804   2.012   2.349  1.5899  0.7047 -0.7153
  932SOL     MW 3728   2.802   2.039   2.435 -0.4821  0.2955  0.0550
  933SOL     OW 3729   2.098   2.776   2.227 -0.1995 -0.2273 -0.6649
  933SOL    HW1 3730   2.161   2.828   2.271 -3.9624 -2.8769  2.6399
  933SOL    HW2 3731   2.031   2.839   2.202  4.3993 -1.6988  1.6353
  933SOL     MW 3732   2.098   2.791   2.230 -0.0892 -0.7711  0.0747
  934SOL     OW 3733   2.013   2.676   2.459  0.0069 -0.3976  0.1342
  934SOL    HW1 3734   2.031   2.748   2.515 -0.9190  0.7593  1.0267
  934SOL    HW2 3735   2.040   2.710   2.366 -0.0732  1.3921 -2.2256
  934SOL     MW 3736   2.019   2.690   2.454 -0.1258 -0.0088 -0.0594
  935SOL     OW 3737   2.636   1.491   1.787 -0.0242  0.2008  0.7606
  935SOL    HW1 3738   2.731   1.469   1.758  2.7806  0.1255  0.6073
  935SOL    HW2 3739   2.585   1.486   1.706  1.2323  3.3664  0.5348
  935SOL     MW 3740   2.642   1.487   1.773  0.5117  0.6085  0.7106
  936SOL     OW 3741   2.922   2.209   0.020  0.2909 -0.0954 -0.3005
  936SOL    HW1 3742   2.994   2.263   0.063  1.5334  1.9018 -0.4495
  936SOL    HW2 3743   2.840   2.257   0.026 -3.8924 -1.1641  1.0158
  936SOL     MW 3744   2.921   2.223   0.026 -0.0972  0.0271 -0.1465
  937SOL     OW 3745   1.900   2.139   2.614 -0.0534 -0.2813 -0.0078
  937SOL    HW1 3746   1.988   2.122   2.651  0.4026  0.4828 -0.7488
  937SOL    HW2 3747   1.906   2.127   2.517  1.7599  1.8947 -0.4698
  937SOL     MW 3748   1.913   2.135   2.606  0.2460  0.1066 -0.1665
  938SOL     OW 3749   2.228   1.795   1.836 -0.5401  0.0078  0.0580
  938SOL    HW1 3750   2.284   1.826   1.767  3.2365  3.3156 -0.3878
  938SOL    HW2 3751   2.253   1.835   1.919  1.1352  2.5851 -1.2369
  938SOL     MW 3752   2.239   1.804   1.838  0.1792  0.7843 -0.1716
  939SOL     OW 3753   2.792   1.975   2.189 -0.2170  0.4134 -0.5704
  939SOL    HW1 3754   2.846   1.928   2.126 -1.0012 -1.0107 -0.2152
  939SOL    HW2 3755   2.707   1.934   2.199  1.3556 -1.2193  1.2488
  939SOL     MW 3756   2.788   1.963   2.182 -0.1130  0.0101 -0.2835
  940SOL     OW 3757   2.198   0.084   2.770  0.8814 -0.1158 -0.1116
  940SOL    HW1 3758   2.247   0.014   2.724 -0.2387 -3.5205  0.6414
  940SOL    HW2 3759   2.254   0.138   2.823 -1.4190 -1.3150  0.2622
  940SOL     MW 3760   2.212   0.082   2.771  0.4301 -0.7233  0.0370
  941SOL     OW 3761   0.125   2.446   2.076  0.0681  0.1689 -0.6990
  941SOL    HW1 3762   0.216   2.396   2.066  0.0626 -1.0356  3.0445
  941SOL    HW2 3763   0.078   2.437   1.995  2.0584  1.7001  1.2491
  941SOL     MW 3764   0.131   2.438   2.064  0.3300  0.2120  0.0519
  942SOL     OW 3765   2.809   2.257   2.171 -0.7398 -0.1418 -0.3924
  942SOL    HW1 3766   2.813   2.310   2.089  0.4473  0.3079  2.9971
  942SOL    HW2 3767   2.815   2.160   2.171 -1.4706  1.0189 -0.2190
  942SOL     MW 3768   2.810   2.251   2.160 -0.6796  0.0706  0.0777
  943SOL     OW 3769   0.342   2.158   2.252  0.4459  0.8275 -0.0502
  943SOL    HW1 3770   0.278   2.208   2.297 -1.3915  0.5345 -0.9530
  943SOL    HW2 3771   0.394   2.113   2.318 -0.9150  0.9978  2.3222
  943SOL     MW 3772   0.340   2.159   2.267  0.0239  0.8113  0.1437
  944SOL     OW 3773   2.136   2.646   1.977 -0.2800  0.3253  0.5567
  944SOL    HW1 3774   2.216   2.604   2.012 -0.0191  2.8279 -0.0968
  944SOL    HW2 3775   2.078   2.668   2.056  0.0540 -0.5827  0.9900
  944SOL     MW 3776   2.139   2.643   1.992 -0.2015  0.5357  0.5277
  945SOL     OW 3777   2.747   2.694   2.874 -0.0624 -0.5811  0.3512
  945SOL    HW1 3778   2.729   2.596   2.848  3.1586  0.1442 -0.0372
  945SOL    HW2 3779   2.732   2.739   2.787 -2.1209 -2.0984  0.8702
  945SOL     MW 3780   2.743   2.687   2.859  0.0910 -0.6856  0.3684
  946SOL     OW 3781   2.443   2.711   2.240  0.0258  0.5771 -0.0474
  946SOL    HW1 3782   2.454   2.758   2.166 -1.5981  1.9141  2.4507
  946SOL    HW2 3783   2.399   2.631   2.202 -2.3532  0.8055 -1.4331
  946SOL     MW 3784   2.438   2.707   2.225 -0.5023  0.7836  0.0994
  947SOL     OW 3785   2.038   3.047   0.214  0.1513 -1.0383 -0.2997
  947SOL    HW1 3786   2.083   2.961   0.202 -2.2679  0.1633 -1.3725
  947SOL    HW2 3787   2.077   3.087   0.300 -1.4956  1.5410  0.6631
  947SOL     MW 3788   2.049   3.041   0.224 -0.3852 -0.5394 -0.3142
  948SOL     OW 3789   1.818   3.038   2.638  0.1883 -0.0656  0.0807
  948SOL    HW1 3790   1.833   2.943   2.635  0.0345 -0.9866 -0.9608
  948SOL    HW2 3791   1.777   3.064   2.553  0.6720  1.8061 -0.2283
  948SOL     MW 3792   1.815   3.029   2.626  0.2318  0.0598 -0.0975
  949SOL     OW 3793   2.515   1.877   2.229 -0.0706  0.4231 -0.2948
  949SOL    HW1 3794   2.496   1.802   2.285 -0.1519  0.0911  1.0891
  949SOL    HW2 3795   2.493   1.957   2.277 -0.0662  0.6528  1.9090
  949SOL     MW 3796   2.510   1.878   2.243 -0.0807  0.4096  0.1786
  950SOL     OW 3797   2.300   2.443   2.959 -0.1473  0.1175 -0.3989
  950SOL    HW1 3798   2.356   2.427   2.881 -1.7468  2.1027 -0.3303
  950SOL    HW2 3799   2.213   2.478   2.923 -1.4384  0.6125 -3.4742
  950SOL     MW 3800   2.296   2.446   2.944 -0.5287  0.4447 -0.7956
  951SOL     OW 3801   3.017   2.226   2.872 -0.2112 -0.1838  0.1588
  951SOL    HW1 3802   2.984   2.217   2.961  0.4433 -2.2231 -1.4145
  951SOL    HW2 3803   3.109   2.228   2.876 -2.2044  4.4793 -1.1282
  951SOL     MW 3804   3.024   2.225   2.884 -0.3879  0.1624 -0.2186
  952SOL     OW 3805   3.061   1.732   2.113 -0.1489 -0.0930  0.0973
  952SOL    HW1 3806   3.033   1.798   2.046 -1.2372  1.3306  0.6037
  952SOL    HW2 3807   3.119   1.781   2.173  0.5040  1.1673  0.6996
  952SOL     MW 3808   3.065   1.747   2.112 -0.2063  0.2611  0.2436
  953SOL     OW 3809   1.918   1.773   2.896 -0.3071  0.0290 -0.8122
  953SOL    HW1 3810   1.854   1.733   2.954 -2.2516 -1.4770 -0.0211
  953SOL    HW2 3811   1.965   1.697   2.858 -0.5326  1.0341 -1.3404
  953SOL     MW 3812   1.916   1.758   2.899 -0.5934 -0.0371 -0.7775
  954SOL     OW 3813   2.399   2.128   2.871  0.6106 -0.0665 -1.3335
  954SOL    HW1 3814   2.310   2.111   2.840  1.1253  0.1435 -0.6166
  954SOL    HW2 3815   2.454   2.073   2.813  0.3253 -0.5540  2.2458
  954SOL     MW 3816   2.395   2.119   2.859  0.6408 -0.1031 -0.7667
  955SOL     OW 3817   1.571   1.533   2.564  0.0576  0.6720  0.0532
  955SOL    HW1 3818   1.542   1.552   2.470 -0.0477 -2.9868  3.0677
  955SOL    HW2 3819   1.660   1.563   2.557  0.4881  0.9107 -0.8763
  955SOL     MW 3820   1.579   1.539   2.551  0.1005  0.2207  0.3283
  956SOL     OW 3821   2.691   2.430   2.816 -0.1413 -0.5212  0.2306
  956SOL    HW1 3822   2.673   2.387   2.897 -2.5492  1.3817 -0.4531
  956SOL    HW2 3823   2.773   2.388   2.781 -2.6466 -0.1475 -1.4178
  956SOL     MW 3824   2.699   2.419   2.822 -0.7896 -0.2208 -0.0771
  957SOL     OW 3825   2.270   2.842   0.536  0.0913 -0.2848  0.5399
  957SOL    HW1 3826   2.199   2.794   0.501  0.8098  2.4159 -1.3387
  957SOL    HW2 3827   2.283   2.813   0.625  0.7711  2.0272 -3.0461
  957SOL     MW 3828   2.263   2.832   0.543  0.2757  0.3766 -0.1811
  958SOL     OW 3829   2.075   2.543   2.848 -0.1548  0.2374  0.2959
  958SOL    HW1 3830   2.001   2.503   2.800  1.8315 -0.0293  1.9006
  958SOL    HW2 3831   2.027   2.570   2.931 -1.0822  0.1573 -0.1511
  958SOL     MW 3832   2.059   2.542   2.852 -0.0151  0.1916  0.4486
  959SOL     OW 3833   2.532   2.765   0.425  0.4633 -0.4030  0.0106
  959SOL    HW1 3834   2.552   2.824   0.347 -0.1456 -1.0362 -1.2865
  959SOL    HW2 3835   2.447   2.796   0.456  1.4860 -2.0766 -0.0302
  959SOL     MW 3836   2.524   2.777   0.419  0.5179 -0.7074 -0.1659
  960SOL     OW 3837   1.917   2.383   2.308 -0.3841 -0.2289  0.3948
  960SOL    HW1 3838   1.932   2.288   2.313  1.3981  0.2116 -2.7867
  960SOL    HW2 3839   1.833   2.393   2.350 -0.0094  2.0094 -0.7207
  960SOL     MW 3840   1.908   2.372   2.314 -0.0995  0.1246 -0.1721
  961SOL     OW 3841   2.226   2.333   2.272 -0.1384  0.2351 -0.6722
  961SOL    HW1 3842   2.136   2.304   2.267 -0.3828 -1.2129 -0.8400
  961SOL    HW2 3843   2.211   2.387   2.357 -2.9580  1.0393  0.3825
  961SOL     MW 3844   2.212   2.336   2.282 -0.5427  0.1502 -0.5551
  962SOL     OW 3845   2.142   2.032   2.801  0.5813  0.1645 -0.6507
  962SOL    HW1 3846   2.100   2.037   2.890 -1.0831 -0.8541  0.7543
  962SOL    HW2 3847   2.152   1.943   2.754 -0.7973 -3.6611  0.6405
  962SOL     MW 3848   2.138   2.021   2.807  0.1798 -0.4746 -0.2950
  963SOL     OW 3849   1.840   2.558   2.081 -0.0532 -0.4606  0.2248
  963SOL    HW1 3850   1.895   2.498   2.130  0.6263 -1.8878 -0.2854
  963SOL    HW2 3851   1.829   2.510   1.995  0.7292  0.7968  0.3290
  963SOL     MW 3852   1.845   2.544   2.076  0.1397 -0.4830  0.1712
  964SOL     OW 3853   1.806   1.878   2.671 -0.3349  0.6450 -0.9407
  964SOL    HW1 3854   1.856   1.949   2.634 -2.1916 -0.9570  0.9020
  964SOL    HW2 3855   1.847   1.831   2.741 -1.0685 -1.1666 -1.1839
  964SOL     MW 3856   1.818   1.881   2.675 -0.6767  0.1946 -0.7297
  965SOL     OW 3857   2.139   2.590   0.850  0.3159  0.0083  0.6565
  965SOL    HW1 3858   2.178   2.523   0.792  1.0325 -0.3866  1.3474
  965SOL    HW2 3859   2.200   2.666   0.834  1.6610  0.0868  1.4141
  965SOL     MW 3860   2.153   2.591   0.840  0.5879 -0.0334  0.8476
  966SOL     OW 3861   2.661   2.619   2.429 -0.0348 -0.2685 -0.5289
  966SOL    HW1 3862   2.597   2.628   2.358  1.5701  4.1074  1.3787
  966SOL    HW2 3863   2.685   2.526   2.436  0.6694 -1.1040 -1.0287
  966SOL     MW 3864   2.656   2.608   2.421  0.2699  0.1986 -0.3432
  967SOL     OW 3865   2.661   0.050   3.079 -0.4920  0.0483  0.3002
  967SOL    HW1 3866   2.641  -0.050   3.089 -1.5885 -1.4962  0.7619
  967SOL    HW2 3867   2.658   0.052   2.986  1.1259  2.5777  0.9592
  967SOL     MW 3868   2.658   0.037   3.068 -0.4232  0.1782  0.4481
  968SOL     OW 3869   3.012   2.668   2.912 -0.1065 -0.4554  0.4704
  968SOL    HW1 3870   2.920   2.663   2.888  1.2036 -0.3451  2.0651
  968SOL    HW2 3871   3.056   2.631   2.837  3.6534  0.1683  2.1806
  968SOL     MW 3872   3.006   2.662   2.899  0.5624 -0.3586  0.9064
  969SOL     OW 3873   1.578   2.101   1.730  0.0444  0.1910  0.4507
  969SOL    HW1 3874   1.661   2.051   1.724  0.7039  4.1610  1.3717
  969SOL    HW2 3875   1.553   2.117   1.818 -0.0996 -2.0387 -1.4048
  969SOL     MW 3876   1.586   2.096   1.741  0.1124  0.4206  0.3274
  970SOL     OW 3877   1.728   1.806   1.868 -0.1827 -0.1685 -0.3336
  970SOL    HW1 3878   1.763   1.727   1.905 -0.7452  0.0566  1.2175
  970SOL    HW2 3879   1.630   1.805   1.875  0.1428  1.2965 -0.2359
  970SOL     MW 3880   1.719   1.796   1.874 -0.2140  0.0545 -0.1161
  971SOL     OW 3881   1.753   3.099   2.361  0.0695  0.1973  0.0672
  971SOL    HW1 3882   1.803   3.031   2.308  2.3852 -0.3524 -0.3083
  971SOL    HW2 3883   1.807   3.182   2.342  0.4639 -1.3074  0.6554
  971SOL     MW 3884   1.767   3.101   2.352  0.4271 -0.0738  0.0953
  972SOL     OW 3885   0.306   2.835   2.400 -0.1651 -0.6417  0.6198
  972SOL    HW1 3886   0.354   2.762   2.437 -2.1162  0.2130 -2.9099
  972SOL    HW2 3887   0.349   2.913   2.434  0.7419  0.9353  2.0696
  972SOL     MW 3888   0.318   2.835   2.410 -0.3028 -0.3208  0.3454
  973SOL     OW 3889   2.617   3.019   2.132 -0.2319 -0.0694  0.4738
  973SOL    HW1 3890   2.582   2.945   2.077 -1.9036  4.4639  1.6743
  973SOL    HW2 3891   2.684   3.059   2.080  0.6322 -0.4961  0.3865
  973SOL     MW 3892   2.621   3.014   2.118 -0.3385  0.4724  0.6207
  974SOL     OW 3893   2.004   0.149   2.592  0.4391 -0.2092  0.7204
  974SOL    HW1 3894   2.072   0.135   2.658 -0.1343 -2.3382 -2.4221
  974SOL    HW2 3895   1.952   0.069   2.597 -0.1400  0.8714 -0.9642
  974SOL     MW 3896   2.006   0.137   2.601  0.2871 -0.3475  0.0835
  975SOL     OW 3897   2.186   2.471   2.506  0.0026 -0.5750  0.0701
  975SOL    HW1 3898   2.265   2.508   2.544 -2.7973  2.5745 -0.3741
  975SOL    HW2 3899   2.121   2.547   2.479 -0.3701  0.4942 -2.1501
  975SOL     MW 3900   2.188   2.486   2.508 -0.4160 -0.0184 -0.2815
  976SOL     OW 3901   0.178   0.357   1.589 -0.2448 -0.0619 -0.0176
  976SOL    HW1 3902   0.230   0.280   1.619 -2.1904 -1.6823 -0.0469
  976SOL    HW2 3903   0.100   0.306   1.577  0.6162 -1.3693 -0.6105
  976SOL     MW 3904   0.175   0.340   1.591 -0.3879 -0.4482 -0.0997
  977SOL     OW 3905   1.757   2.745   2.381 -0.6438 -0.0034 -0.0468
  977SOL    HW1 3906   1.835   2.701   2.414  2.5398  0.3322 -0.2148
  977SOL    HW2 3907   1.785   2.835   2.387  1.7112 -2.7615  2.9571
  977SOL     MW 3908   1.771   2.751   2.386  0.0870 -0.3230  0.3274
   3.10000   3.10000   3.10000
