977 TIP4P/2005f water molecules t=   0.98000 step= 980
 3908
    1SOL     OW    1   0.370   0.798   3.095 -0.0909 -0.3216  0.4025
    1SOL    HW1    2   0.352   0.814   3.007  1.1923  2.9035  1.3147
    1SOL    HW2    3   0.308   0.733   3.119 -1.3918 -0.1352  0.4794
    1SOL     MW    4   0.360   0.791   3.087 -0.0932  0.1285  0.5330
    2SOL     OW    5   0.321   3.020   1.165 -0.1204 -0.2387 -0.3197
    2SOL    HW1    6   0.356   3.108   1.138  3.8156  1.8241 -0.5319
    2SOL    HW2    7   0.229   3.020   1.198  0.5941  2.1478 -0.5185
    2SOL     MW    8   0.313   3.031   1.166  0.4932  0.3483 -0.3739
    3SOL     OW    9   2.642   0.429   0.969  0.0922  0.5534  0.8105
    3SOL    HW1   10   2.701   0.493   0.932  0.7734  2.3384 -0.7920
    3SOL    HW2   11   2.599   0.475   1.051 -1.4036 -0.9679 -1.4199
    3SOL     MW   12   2.644   0.443   0.975 -0.0153  0.5882  0.3048
    4SOL     OW   13   2.929   1.676   0.585 -0.8294  0.3967 -0.6288
    4SOL    HW1   14   2.879   1.755   0.546 -1.2772  0.6582  1.5956
    4SOL    HW2   15   2.995   1.668   0.513  2.3973  1.7084 -1.0859
    4SOL     MW   16   2.931   1.685   0.571 -0.4628  0.6043 -0.3956
    5SOL     OW   17   1.780   1.501   0.508  0.5970 -0.2066 -0.1289
    5SOL    HW1   18   1.774   1.434   0.576 -0.6004 -1.1353 -3.1516
    5SOL    HW2   19   1.694   1.532   0.504 -0.5642  0.7131  0.4835
    5SOL     MW   20   1.768   1.496   0.516  0.2858 -0.2078 -0.4469
    6SOL     OW   21   0.809   1.421   0.599 -0.0208 -0.5447 -0.1894
    6SOL    HW1   22   0.725   1.439   0.638  0.8647 -2.5191  0.7784
    6SOL    HW2   23   0.837   1.342   0.637 -0.5160  0.5271  0.3843
    6SOL     MW   24   0.802   1.413   0.609  0.0307 -0.6638  0.0140
    7SOL     OW   25   2.062   1.071   3.079  0.1960 -0.4436  0.9949
    7SOL    HW1   26   2.027   1.145   3.029 -0.7150  0.3578 -1.8155
    7SOL    HW2   27   2.119   1.105   3.148 -0.4952 -0.7604  0.2140
    7SOL     MW   28   2.065   1.086   3.081 -0.0154 -0.3796  0.5210
    8SOL     OW   29   0.925   1.414   1.089  0.4264  0.3308  0.5770
    8SOL    HW1   30   1.014   1.385   1.108 -1.8013  1.3610  0.8075
    8SOL    HW2   31   0.876   1.334   1.121  1.4321 -0.5001  0.1144
    8SOL     MW   32   0.931   1.400   1.095  0.2652  0.3571  0.5464
    9SOL     OW   33   1.008   0.529   1.410 -0.3240 -0.1020 -0.1105
    9SOL    HW1   34   0.955   0.462   1.358 -1.0667 -0.9087 -1.9093
    9SOL    HW2   35   1.027   0.484   1.495  1.8660 -1.2654 -0.2714
    9SOL     MW   36   1.004   0.515   1.414 -0.1331 -0.3619 -0.3690
   10SOL     OW   37   0.219   0.773   0.465  0.0308  0.2036 -0.1546
   10SOL    HW1   38   0.303   0.788   0.418 -0.0826 -0.2842 -1.2213
   10SOL    HW2   39   0.214   0.832   0.547 -2.3666 -1.5933  2.4576
   10SOL     MW   40   0.229   0.783   0.470 -0.3005 -0.0978  0.0493
   11SOL     OW   41   0.809   1.138   1.718  0.0119 -0.3165 -0.8664
   11SOL    HW1   42   0.863   1.125   1.793  0.3906  0.5831  0.3959
   11SOL    HW2   43   0.830   1.065   1.669 -2.6004 -0.7149 -1.3400
   11SOL     MW   44   0.819   1.127   1.721 -0.2828 -0.2503 -0.7624
   12SOL     OW   45   0.036   1.079   0.869 -0.3680 -0.5698 -0.1435
   12SOL    HW1   46   0.080   1.137   0.931  0.8969  3.2286  0.7030
   12SOL    HW2   47  -0.032   1.130   0.827  0.1847  2.4042  2.3200
   12SOL     MW   48   0.033   1.093   0.871 -0.1282  0.3238  0.2932
   13SOL     OW   49   1.878   1.414   1.349 -0.2751  0.1780  0.9577
   13SOL    HW1   50   1.900   1.330   1.299  0.0774  1.7879  1.3507
   13SOL    HW2   51   1.916   1.483   1.296 -0.9904 -0.9012  0.4911
   13SOL     MW   52   1.886   1.412   1.335 -0.3230  0.2480  0.9480
   14SOL     OW   53   0.623   0.401   1.877 -0.3528 -0.4729 -0.2463
   14SOL    HW1   54   0.562   0.328   1.845 -0.3863 -0.6080 -2.5348
   14SOL    HW2   55   0.705   0.360   1.863 -5.2993 -0.8928  0.7620
   14SOL     MW   56   0.626   0.386   1.871 -1.0099 -0.5461 -0.4152
   15SOL     OW   57   1.937   0.348   1.015 -0.0732  0.1118  0.6449
   15SOL    HW1   58   1.912   0.420   1.073  1.0295 -1.0988  3.5451
   15SOL    HW2   59   2.007   0.386   0.958 -0.1250 -0.9914 -0.3130
   15SOL     MW   60   1.943   0.363   1.015  0.0655 -0.1935  0.9012
   16SOL     OW   61   0.198   1.797   0.319 -0.2054  0.1472 -0.0712
   16SOL    HW1   62   0.284   1.760   0.349  0.5902  0.7916  0.7846
   16SOL    HW2   63   0.206   1.888   0.341  0.0925 -2.0531 -0.4540
   16SOL     MW   64   0.211   1.804   0.326 -0.0611 -0.0581 -0.0088
   17SOL     OW   65   1.120   0.904   1.428 -0.6954  0.0976 -0.1065
   17SOL    HW1   66   1.164   0.864   1.508  3.1509 -2.0430 -0.7148
   17SOL    HW2   67   1.029   0.890   1.449  1.2233 -1.2283 -1.6462
   17SOL     MW   68   1.114   0.897   1.441  0.0653 -0.3598 -0.3899
   18SOL     OW   69   0.056   1.593   0.411  0.2816  0.3373  0.1409
   18SOL    HW1   70   0.094   1.672   0.375  1.6619 -3.8431 -1.0871
   18SOL    HW2   71   0.050   1.529   0.342 -0.3579 -1.9752  0.1733
   18SOL     MW   72   0.060   1.595   0.397  0.3793 -0.5194 -0.0168
   19SOL     OW   73   0.111   1.300   1.030  0.4658 -0.0127 -0.2628
   19SOL    HW1   74   0.166   1.324   0.957  3.4783  0.5649  0.5126
   19SOL    HW2   75   0.027   1.346   1.034 -0.9606  1.4513  3.1815
   19SOL     MW   76   0.107   1.309   1.021  0.6751  0.2567  0.2939
   20SOL     OW   77   0.469   2.159   1.190  0.1653  0.5645  0.0734
   20SOL    HW1   78   0.429   2.086   1.140  0.2113 -1.1209 -2.5548
   20SOL    HW2   79   0.407   2.181   1.264 -0.0551  0.9095 -2.2426
   20SOL     MW   80   0.456   2.153   1.193  0.1423  0.3877 -0.5789
   21SOL     OW   81   0.475   0.842   0.392 -1.0258  0.1729 -0.0625
   21SOL    HW1   82   0.541   0.807   0.452  3.0226  3.0940 -1.2704
   21SOL    HW2   83   0.511   0.814   0.311 -0.7129 -0.9302  1.3965
   21SOL     MW   84   0.488   0.834   0.389 -0.4504  0.4128 -0.0293
   22SOL     OW   85   1.576   0.673   1.022 -0.0998 -0.7700 -0.5298
   22SOL    HW1   86   1.510   0.658   0.953  1.6833  0.1780  1.0493
   22SOL    HW2   87   1.524   0.724   1.083  2.6512 -0.2647 -2.2214
   22SOL     MW   88   1.560   0.678   1.021  0.4985 -0.5782 -0.5446
   23SOL     OW   89   3.084   0.749   0.660 -0.9296 -0.1792 -0.2696
   23SOL    HW1   90   3.133   0.683   0.717  1.3340 -0.2412  0.6895
   23SOL    HW2   91   3.146   0.819   0.662 -0.1781 -2.3260  1.9678
   23SOL     MW   92   3.099   0.750   0.668 -0.5318 -0.4706  0.1521
   24SOL     OW   93   1.988   2.238   0.057  0.9559  0.0476 -0.2562
   24SOL    HW1   94   2.008   2.225   0.155 -0.6487  0.4401  1.7410
   24SOL    HW2   95   2.007   2.161   0.004 -0.1763 -0.6594 -0.4147
   24SOL     MW   96   1.993   2.226   0.063  0.5948  0.0061 -0.0136
   25SOL     OW   97   0.246   1.410   0.535 -0.5759  0.0104  0.3805
   25SOL    HW1   98   0.234   1.477   0.473 -3.6690 -1.0011 -0.4642
   25SOL    HW2   99   0.343   1.412   0.544  3.1265 -0.2312 -0.0906
   25SOL     MW  100   0.257   1.419   0.528 -0.4955 -0.1549  0.2069
   26SOL     OW  101   2.077   0.991   0.354  0.8613  0.0969  0.3899
   26SOL    HW1  102   2.020   1.033   0.415  3.0720 -0.6237 -2.9396
   26SOL    HW2  103   2.123   1.068   0.326  0.0512 -1.0034  0.3088
   26SOL     MW  104   2.076   1.007   0.358  1.0461 -0.1433 -0.0601
   27SOL     OW  105   2.033   1.429   0.251 -0.2669 -0.0910  0.1434
   27SOL    HW1  106   1.938   1.437   0.260  0.0741  1.7850 -0.9107
   27SOL    HW2  107   2.067   1.500   0.304  1.8688 -0.4233 -1.8309
   27SOL     MW  108   2.025   1.439   0.259  0.0598  0.1127 -0.2562
   28SOL     OW  109   0.456   0.977   1.962  0.4646 -0.4360 -0.3495
   28SOL    HW1  110   0.535   0.935   1.977 -1.5560  3.3389  0.5044
   28SOL    HW2  111   0.384   0.912   1.959 -3.2352 -0.2817 -0.5480
   28SOL     MW  112   0.457   0.963   1.964 -0.2901  0.0824 -0.2630
   29SOL     OW  113   0.266   1.434   0.813 -0.6017 -0.4008  0.3055
   29SOL    HW1  114   0.220   1.520   0.803 -1.5325 -0.6967  0.6156
   29SOL    HW2  115   0.252   1.395   0.727 -0.5647  0.8751 -1.9722
   29SOL     MW  116   0.258   1.440   0.800 -0.7197 -0.2715  0.0459
   30SOL     OW  117   0.823   1.201   1.221 -0.4764 -0.0602  0.2866
   30SOL    HW1  118   0.741   1.190   1.267 -2.0533 -0.4380  0.3480
   30SOL    HW2  119   0.886   1.212   1.299  1.2559  0.6622  2.4857
   30SOL     MW  120   0.820   1.201   1.237 -0.4559 -0.0147  0.5848
   31SOL     OW  121   0.390   0.187   0.198  0.0922  0.8010 -0.6327
   31SOL    HW1  122   0.374   0.113   0.260  0.5631  1.5034  2.0788
   31SOL    HW2  123   0.395   0.153   0.111  1.3948 -1.6115  2.8316
   31SOL     MW  124   0.388   0.173   0.195  0.3262  0.5754  0.1822
   32SOL     OW  125   2.813   0.964   1.160  0.5045 -0.2933  0.4685
   32SOL    HW1  126   2.760   0.895   1.114 -1.5558 -0.3062 -0.2457
   32SOL    HW2  127   2.895   0.952   1.114 -0.2101 -1.6592 -1.6912
   32SOL     MW  128   2.817   0.953   1.148  0.1384 -0.4752  0.0893
   33SOL     OW  129   1.740   1.303   0.329  0.0408  0.3276  0.1100
   33SOL    HW1  130   1.792   1.238   0.380  0.9076 -0.2876  1.0184
   33SOL    HW2  131   1.755   1.381   0.382 -2.6715 -0.3317  0.4177
   33SOL     MW  132   1.749   1.304   0.343 -0.2027  0.1594  0.2705
   34SOL     OW  133   1.227   1.866   1.110 -0.0205  0.5598  0.5691
   34SOL    HW1  134   1.136   1.889   1.128 -1.7332 -0.4076 -0.5864
   34SOL    HW2  135   1.277   1.907   1.179  0.4124  0.8163  2.2388
   34SOL     MW  136   1.222   1.874   1.122 -0.1894  0.4660  0.6369
   35SOL     OW  137   0.424   0.207   1.821  0.3434 -0.5236  0.0844
   35SOL    HW1  138   0.383   0.154   1.887 -2.5922  0.4096 -0.2743
   35SOL    HW2  139   0.430   0.160   1.743 -0.4895 -1.2789  2.0024
   35SOL     MW  140   0.420   0.194   1.819 -0.1538 -0.5001  0.2901
   36SOL     OW  141   1.945   1.972   0.579  0.3437 -0.4805  0.4657
   36SOL    HW1  142   2.000   1.973   0.503  0.7136  2.2669  1.9163
   36SOL    HW2  143   1.946   1.871   0.594 -0.2423  0.7778  0.5685
   36SOL     MW  144   1.952   1.959   0.571  0.3152  0.0480  0.6706
   37SOL     OW  145   1.755   1.963   0.981  0.0923  0.1924 -0.0292
   37SOL    HW1  146   1.686   1.919   0.924  0.5607 -1.4764 -0.6345
   37SOL    HW2  147   1.711   2.017   1.042 -0.0485 -2.2128 -0.1233
   37SOL     MW  148   1.740   1.964   0.981  0.1355 -0.3451 -0.1215
   38SOL     OW  149   2.811   0.896   0.138  0.2106  0.4726  0.2966
   38SOL    HW1  150   2.847   0.874   0.225 -2.2625  1.1095  3.1788
   38SOL    HW2  151   2.887   0.894   0.080 -0.5481 -0.0126  1.6668
   38SOL     MW  152   2.826   0.893   0.141 -0.2158  0.4927  0.8576
   39SOL     OW  153   1.423   0.644   0.803 -0.0443  0.4526  0.1959
   39SOL    HW1  154   1.400   0.551   0.805 -0.7590 -0.6431 -1.6128
   39SOL    HW2  155   1.349   0.679   0.743 -2.6137  0.8118  0.4291
   39SOL     MW  156   1.410   0.636   0.795 -0.4776  0.3554 -0.0120
   40SOL     OW  157   1.152   1.907   0.313  0.6447  0.1290  0.1949
   40SOL    HW1  158   1.210   1.831   0.334 -0.2685  0.4559 -2.7689
   40SOL    HW2  159   1.160   1.974   0.381  0.4663  0.8684 -1.9260
   40SOL     MW  160   1.161   1.906   0.325  0.5007  0.2697 -0.4759
   41SOL     OW  161   0.568   0.571   1.671  0.6668 -0.0481 -0.1550
   41SOL    HW1  162   0.659   0.595   1.646  1.2838  0.2495  0.9175
   41SOL    HW2  163   0.589   0.494   1.723  1.8537 -1.3618 -0.1829
   41SOL     MW  164   0.583   0.564   1.675  0.9048 -0.1822 -0.0172
   42SOL     OW  165   1.268   3.009   1.973 -0.6688  0.1503  0.0050
   42SOL    HW1  166   1.186   3.032   2.015 -0.4082 -1.8073  0.1026
   42SOL    HW2  167   1.298   2.932   2.020 -0.3363  1.8749 -0.8382
   42SOL     MW  168   1.261   3.002   1.985 -0.5906  0.1195 -0.0933
   43SOL     OW  169   1.520   0.150   1.712 -0.7690  0.8223 -0.1862
   43SOL    HW1  170   1.570   0.131   1.635  0.1785 -3.2561  3.4746
   43SOL    HW2  171   1.444   0.086   1.706  1.6298 -1.5151  0.1255
   43SOL     MW  172   1.517   0.139   1.701 -0.3275 -0.0242  0.3379
   44SOL     OW  173   1.046   0.785   1.016  0.2211  0.1200  0.4135
   44SOL    HW1  174   1.064   0.878   1.005  1.8221 -0.3710 -1.6546
   44SOL    HW2  175   1.092   0.766   1.098 -0.8829 -1.6959  0.2378
   44SOL     MW  176   1.054   0.795   1.025  0.2867 -0.1844  0.1175
   45SOL     OW  177   1.219   0.769   0.659  0.1142  0.1171  0.0924
   45SOL    HW1  178   1.158   0.761   0.734  0.4262 -0.6936  1.5421
   45SOL    HW2  179   1.176   0.722   0.586  2.3430 -2.9449 -3.4886
   45SOL     MW  180   1.205   0.762   0.659  0.4494 -0.3938 -0.1888
   46SOL     OW  181   0.561   1.197   0.601  0.6914  0.1321  0.4299
   46SOL    HW1  182   0.516   1.176   0.516  0.8529 -1.3575 -0.5794
   46SOL    HW2  183   0.644   1.163   0.578 -2.4547  0.4834 -0.9088
   46SOL     MW  184   0.566   1.190   0.587  0.2976 -0.0181  0.1201
   47SOL     OW  185   0.191   2.001   1.979  0.4086  0.6987  0.5448
   47SOL    HW1  186   0.265   1.948   1.957 -0.9772 -0.0022  2.6584
   47SOL    HW2  187   0.172   1.955   2.062 -0.5551 -1.4945  1.1747
   47SOL     MW  188   0.198   1.988   1.987  0.0986  0.3169  0.9068
   48SOL     OW  189   1.078   0.525   1.002 -0.0676 -0.3112  0.5232
   48SOL    HW1  190   1.001   0.470   0.979  0.8473 -0.5928 -2.0649
   48SOL    HW2  191   1.053   0.610   0.988  2.4655 -1.7593  1.7356
   48SOL     MW  192   1.064   0.529   0.997  0.3873 -0.5394  0.3417
   49SOL     OW  193   1.793   0.722   1.543 -0.2618 -0.2861 -0.5815
   49SOL    HW1  194   1.750   0.672   1.610  0.0910  3.7476  0.3379
   49SOL    HW2  195   1.875   0.669   1.531 -0.6092 -1.1836  2.3162
   49SOL     MW  196   1.798   0.708   1.550 -0.2611  0.1277 -0.0779
   50SOL     OW  197   1.286   1.052   0.500  0.3200 -0.3977 -0.1127
   50SOL    HW1  198   1.243   1.100   0.574  1.4473  2.7426  2.2583
   50SOL    HW2  199   1.352   1.003   0.553  1.8407 -1.8805 -0.3546
   50SOL     MW  200   1.289   1.052   0.517  0.6694 -0.1790  0.1682
   51SOL     OW  201   0.328   2.913   0.917  0.2888  0.6701  0.4072
   51SOL    HW1  202   0.407   2.857   0.929 -1.5124 -1.0399 -3.1587
   51SOL    HW2  203   0.322   2.961   1.001 -1.9400  2.8412 -0.0978
   51SOL     MW  204   0.337   2.912   0.929 -0.2429  0.7310 -0.1299
   52SOL     OW  205   0.787   1.761   0.447 -0.2418 -1.3114 -0.7414
   52SOL    HW1  206   0.760   1.849   0.474  1.1825 -2.2428  1.3958
   52SOL    HW2  207   0.804   1.761   0.354 -0.0177  1.8402 -1.5611
   52SOL     MW  208   0.786   1.773   0.439 -0.0243 -1.0185 -0.5676
   53SOL     OW  209   0.459   2.122   0.543  0.2227 -0.0898  0.0087
   53SOL    HW1  210   0.383   2.083   0.497 -0.7186  2.7886  0.3294
   53SOL    HW2  211   0.431   2.213   0.560 -3.8887  0.1431  0.6105
   53SOL     MW  212   0.445   2.128   0.539 -0.4439  0.3207  0.1304
   54SOL     OW  213   2.017   0.947   0.797 -0.3346 -0.1428 -0.0700
   54SOL    HW1  214   2.064   0.967   0.717  0.9360 -0.7887  0.3725
   54SOL    HW2  215   2.012   0.851   0.803 -1.9851 -0.1678 -0.0455
   54SOL     MW  216   2.022   0.937   0.787 -0.3847 -0.2313 -0.0084
   55SOL     OW  217   0.527   1.557   1.617  0.0540 -0.3326 -0.3097
   55SOL    HW1  218   0.467   1.610   1.564  0.8653  0.1194  1.9835
   55SOL    HW2  219   0.573   1.513   1.544 -0.0420 -0.5141  0.0464
   55SOL     MW  220   0.525   1.559   1.601  0.1484 -0.2969  0.0399
   56SOL     OW  221   0.612   0.802   0.158  0.2280  0.6772  0.9238
   56SOL    HW1  222   0.653   0.890   0.158 -0.8805  1.4292 -0.3653
   56SOL    HW2  223   0.537   0.807   0.096  0.1860  0.3517  1.1242
   56SOL     MW  224   0.607   0.814   0.150  0.0762  0.7335  0.7802
   57SOL     OW  225   1.159   1.281   1.153 -0.8390 -0.0451  0.6683
   57SOL    HW1  226   1.225   1.337   1.099  1.3485  0.2526  0.9333
   57SOL    HW2  227   1.217   1.227   1.203  1.7987  2.0795  0.7075
   57SOL     MW  228   1.175   1.281   1.153 -0.2023  0.2745  0.7085
   58SOL     OW  229   0.573   1.168   1.361  0.3081  0.2266  0.4502
   58SOL    HW1  230   0.571   1.261   1.369 -1.0051 -3.0109 -0.8849
   58SOL    HW2  231   0.557   1.152   1.452  1.5194  3.1349  1.1823
   58SOL     MW  232   0.571   1.178   1.374  0.2946  0.1832  0.3706
   59SOL     OW  233   1.561   1.721   0.361 -0.1134 -0.0183 -0.2234
   59SOL    HW1  234   1.600   1.790   0.423  1.0853 -0.5520  0.8586
   59SOL    HW2  235   1.473   1.716   0.386  2.4148 -1.6874  0.9532
   59SOL     MW  236   1.555   1.730   0.373  0.3783 -0.3090  0.0746
   60SOL     OW  237   0.059   0.210   1.590 -0.2192 -0.0375  0.4305
   60SOL    HW1  238  -0.029   0.235   1.601 -2.5463  0.5015  1.1731
   60SOL    HW2  239   0.087   0.138   1.655 -1.9561 -1.6946  2.3999
   60SOL     MW  240   0.051   0.204   1.600 -0.7554 -0.1850  0.7883
   61SOL     OW  241   2.013   1.491   3.094 -0.9201 -0.0892 -0.3619
   61SOL    HW1  242   2.025   1.455   3.184  1.2201 -0.0311 -0.7914
   61SOL    HW2  243   2.078   1.447   3.037 -0.5874 -4.6106  1.5525
   61SOL     MW  244   2.023   1.481   3.098 -0.5938 -0.6781 -0.1660
   62SOL     OW  245   0.566   1.716   0.618 -0.1473 -0.1883 -0.1526
   62SOL    HW1  246   0.655   1.716   0.571  1.8436 -1.6852  0.0784
   62SOL    HW2  247   0.530   1.632   0.632  3.0895 -0.7472  2.2709
   62SOL     MW  248   0.573   1.705   0.614  0.5425 -0.4596  0.1976
   63SOL     OW  249   1.695   0.669   0.697 -0.0664  0.2379  0.3879
   63SOL    HW1  250   1.715   0.754   0.651 -0.7282 -1.0634 -2.9334
   63SOL    HW2  251   1.605   0.681   0.733 -0.7439 -0.1124 -0.8607
   63SOL     MW  252   1.686   0.682   0.696 -0.2431  0.0200 -0.2151
   64SOL     OW  253   0.201   1.691   0.832  0.4344  0.2493 -0.1430
   64SOL    HW1  254   0.239   1.741   0.760 -1.8742  0.2928  2.5852
   64SOL    HW2  255   0.111   1.721   0.834  3.1571  1.4335  1.4620
   64SOL     MW  256   0.194   1.702   0.823  0.4890  0.4113  0.4287
   65SOL     OW  257   1.598   2.297   0.385 -0.5737  0.2478 -0.8792
   65SOL    HW1  258   1.696   2.305   0.391  0.6293 -1.7331  0.6468
   65SOL    HW2  259   1.572   2.354   0.460 -0.4199 -0.3785  1.0161
   65SOL     MW  260   1.608   2.306   0.396 -0.3947 -0.0962 -0.4278
   66SOL     OW  261   0.286   0.526   0.549  0.5550  0.0599 -0.3203
   66SOL    HW1  262   0.336   0.486   0.473  1.6640  0.5845 -0.3135
   66SOL    HW2  263   0.267   0.617   0.529 -1.2122 -4.2790  1.1199
   66SOL     MW  264   0.290   0.532   0.537  0.4682 -0.4434 -0.1294
   67SOL     OW  265   1.529   0.077   2.042 -0.5661  0.3106  0.4907
   67SOL    HW1  266   1.600   0.075   1.979 -0.1450 -0.5199 -1.4043
   67SOL    HW2  267   1.483  -0.007   2.038 -0.4261  2.9055 -2.8566
   67SOL     MW  268   1.532   0.066   2.033 -0.4921  0.5434 -0.2010
   68SOL     OW  269   0.717   0.040   2.914 -0.5295 -0.5699 -0.1173
   68SOL    HW1  270   0.722   0.111   2.845 -2.2240 -0.6059  1.9460
   68SOL    HW2  271   0.780   0.060   2.980  0.9033 -4.0625  0.4883
   68SOL     MW  272   0.726   0.052   2.913 -0.5640 -1.0355  0.2349
   69SOL     OW  273   1.061   0.218   1.976  0.2708  0.2803  0.0972
   69SOL    HW1  274   1.154   0.225   1.995 -0.9964 -0.2860  1.3829
   69SOL    HW2  275   1.030   0.137   2.014  1.4935 -2.9055 -4.0553
   69SOL     MW  276   1.069   0.208   1.984  0.2649 -0.2148 -0.2811
   70SOL     OW  277   0.562   1.739   1.120  0.5427 -0.2436  0.0269
   70SOL    HW1  278   0.599   1.722   1.207 -0.3673  3.2253  0.2718
   70SOL    HW2  279   0.636   1.772   1.072  1.7731 -1.0704  2.5178
   70SOL     MW  280   0.576   1.741   1.125  0.5849  0.1050  0.3879
   71SOL     OW  281   1.583   0.490   1.251  0.1391 -0.0447  0.3620
   71SOL    HW1  282   1.526   0.556   1.291 -2.4288 -0.2082 -0.9014
   71SOL    HW2  283   1.578   0.505   1.156  1.0604 -0.4302 -0.5204
   71SOL     MW  284   1.575   0.501   1.244 -0.0781 -0.1171  0.0789
   72SOL     OW  285   0.747   1.856   0.971  0.2365  0.9511  0.6459
   72SOL    HW1  286   0.752   1.914   0.893 -0.7236 -1.7990  0.0544
   72SOL    HW2  287   0.769   1.772   0.933  0.0061  0.1004 -1.7438
   72SOL     MW  288   0.750   1.853   0.956  0.0794  0.4760  0.2525
   73SOL     OW  289   1.200   0.690   1.256 -0.3121 -0.1143 -0.3683
   73SOL    HW1  290   1.143   0.620   1.288 -0.0727  0.1965  1.4519
   73SOL    HW2  291   1.169   0.769   1.308  0.1149 -0.5777  2.1277
   73SOL     MW  292   1.188   0.691   1.267 -0.2242 -0.1344  0.2012
   74SOL     OW  293   2.709   0.155   0.977  0.3061  0.4107  0.5581
   74SOL    HW1  294   2.794   0.131   0.941 -1.6414  0.7153  0.3502
   74SOL    HW2  295   2.693   0.250   0.975 -0.5650  0.0478  0.7648
   74SOL     MW  296   2.718   0.165   0.972 -0.0658  0.4030  0.5580
   75SOL     OW  297   1.612   1.424   0.126 -0.1352  0.7358  0.3090
   75SOL    HW1  298   1.654   1.505   0.156  0.2666 -0.5003  0.2264
   75SOL    HW2  299   1.652   1.359   0.189 -1.6685  3.0044  1.5211
   75SOL     MW  300   1.623   1.426   0.139 -0.2845  0.8720  0.4580
   76SOL     OW  301   2.956   0.554   0.474 -0.6102 -0.0477 -0.3411
   76SOL    HW1  302   3.009   0.612   0.535 -0.2076 -1.1114  1.5959
   76SOL    HW2  303   3.023   0.516   0.414 -1.3742  1.7858  0.5523
   76SOL     MW  304   2.972   0.557   0.474 -0.6579  0.0539  0.0324
   77SOL     OW  305   0.824   0.545   0.463  0.3313 -0.0033 -0.4785
   77SOL    HW1  306   0.799   0.565   0.369  0.3621 -0.3386 -0.6486
   77SOL    HW2  307   0.765   0.478   0.486 -0.5234  0.8563 -0.2695
   77SOL     MW  308   0.813   0.539   0.453  0.2226  0.0659 -0.4734
   78SOL     OW  309   0.737   0.896   1.283  0.3373  0.3717 -0.2019
   78SOL    HW1  310   0.740   0.991   1.266  1.8360 -1.9695 -1.1462
   78SOL    HW2  311   0.723   0.863   1.198 -0.2893  0.4177 -0.0986
   78SOL     MW  312   0.735   0.904   1.269  0.4524  0.0689 -0.3128
   79SOL     OW  313   1.960   1.702   0.583  0.0732  0.6500 -0.4261
   79SOL    HW1  314   1.895   1.640   0.545  0.4663 -2.0489  0.2946
   79SOL    HW2  315   1.956   1.673   0.677 -1.0203 -2.1692 -0.0965
   79SOL     MW  316   1.951   1.690   0.591 -0.0192 -0.0781 -0.2875
   80SOL     OW  317   0.082   0.965   0.327 -0.4254  0.4955 -0.1916
   80SOL    HW1  318  -0.002   0.923   0.351  2.7447  0.5646  1.1756
   80SOL    HW2  319   0.138   0.900   0.368  2.0479  1.0042  1.1793
   80SOL     MW  320   0.078   0.951   0.336  0.3192  0.5717  0.1697
   81SOL     OW  321   1.899   1.886   0.294  0.1348  0.2903  1.0402
   81SOL    HW1  322   1.872   1.802   0.257  1.6236  1.8405 -3.0507
   81SOL    HW2  323   1.851   1.950   0.243 -0.2097  1.2164 -0.0261
   81SOL     MW  324   1.889   1.883   0.282  0.2858  0.6170  0.3598
   82SOL     OW  325   0.768   1.025   0.566 -0.1111  0.2589 -0.1760
   82SOL    HW1  326   0.790   1.040   0.467 -0.7956  0.8329  1.4996
   82SOL    HW2  327   0.741   0.934   0.560 -2.1961  0.6728 -0.0762
   82SOL     MW  328   0.767   1.015   0.552 -0.4765  0.3892  0.0583
   83SOL     OW  329   0.063   0.630   1.451  0.0713  0.2609 -0.0880
   83SOL    HW1  330   0.102   0.689   1.380  2.3276 -1.7177 -0.6013
   83SOL    HW2  331   0.137   0.581   1.495  0.6682  0.7720  1.3735
   83SOL     MW  332   0.078   0.632   1.447  0.4477  0.0672  0.0371
   84SOL     OW  333   0.125   0.236   1.029  0.4303  0.1580 -0.1953
   84SOL    HW1  334   0.046   0.292   1.014  1.0420 -2.5409  0.1314
   84SOL    HW2  335   0.095   0.147   1.050  1.0972 -1.0473 -2.5906
   84SOL     MW  336   0.110   0.232   1.030  0.5990 -0.3571 -0.4682
   85SOL     OW  337   0.476   0.428   0.767 -0.0139 -0.3535  0.7443
   85SOL    HW1  338   0.409   0.464   0.701  0.1264 -0.4141 -0.7470
   85SOL    HW2  339   0.435   0.341   0.785  0.4690  0.0526  0.7410
   85SOL     MW  340   0.462   0.421   0.760  0.0683 -0.3079  0.5471
   86SOL     OW  341   1.176   0.251   1.135  0.1196 -0.2397  0.1066
   86SOL    HW1  342   1.122   0.329   1.114  0.7249 -2.0606 -0.9976
   86SOL    HW2  343   1.210   0.283   1.216  0.1309  2.3208 -1.5808
   86SOL     MW  344   1.173   0.266   1.143  0.2010 -0.1421 -0.2617
   87SOL     OW  345   1.282   1.478   1.301 -0.0689  0.0615 -0.0607
   87SOL    HW1  346   1.281   1.548   1.233  0.1023  1.6023  0.3852
   87SOL    HW2  347   1.222   1.415   1.267 -2.9602  1.7763 -1.1320
   87SOL     MW  348   1.274   1.479   1.287 -0.4278  0.4911 -0.1432
   88SOL     OW  349   1.187   1.056   0.969  0.2856  0.8978 -0.1786
   88SOL    HW1  350   1.272   1.016   0.946 -1.6196 -0.9290 -0.1394
   88SOL    HW2  351   1.197   1.127   1.029 -0.0670 -2.1901 -0.4901
   88SOL     MW  352   1.199   1.061   0.974 -0.0123  0.2493 -0.2145
   89SOL     OW  353   1.729   0.725   0.363 -0.8996  0.3492  0.4821
   89SOL    HW1  354   1.733   0.637   0.400  0.4402  1.2013 -1.6962
   89SOL    HW2  355   1.797   0.721   0.293  0.2471 -0.6332  0.1719
   89SOL     MW  356   1.738   0.713   0.358 -0.5715  0.3320  0.1538
   90SOL     OW  357   0.776   1.109   2.722  0.1149 -0.6822 -0.3762
   90SOL    HW1  358   0.826   1.030   2.755  3.5354 -1.8594  0.6044
   90SOL    HW2  359   0.788   1.158   2.806  0.4076 -0.2519  5.0815
   90SOL     MW  360   0.784   1.105   2.738  0.6048 -0.7808  0.4733
   91SOL     OW  361   2.202   0.668   0.428 -0.7191  0.0557 -0.5134
   91SOL    HW1  362   2.257   0.710   0.363  3.2669  0.6153  2.2009
   91SOL    HW2  363   2.186   0.576   0.403  2.6933 -1.4513 -1.7393
   91SOL     MW  364   2.207   0.661   0.416  0.2571 -0.0693 -0.3170
   92SOL     OW  365   1.745   0.919   0.555  0.5769  0.5648 -0.5457
   92SOL    HW1  366   1.648   0.930   0.578  1.2699 -1.7854  1.1837
   92SOL    HW2  367   1.737   0.855   0.483  1.5578 -0.0239  1.8030
   92SOL     MW  368   1.731   0.912   0.548  0.7977  0.1771 -0.0076
   93SOL     OW  369   0.973   0.240   0.406 -0.4882  0.0471  0.1300
   93SOL    HW1  370   0.893   0.292   0.419 -0.4310 -0.8629 -0.7272
   93SOL    HW2  371   0.995   0.260   0.314  0.1926  3.1545  0.1298
   93SOL     MW  372   0.965   0.249   0.395 -0.3908  0.3370  0.0168
   94SOL     OW  373   1.829   1.396   1.612  0.1943 -0.1767 -0.7156
   94SOL    HW1  374   1.855   1.392   1.518  0.3309 -2.0664 -3.8716
   94SOL    HW2  375   1.797   1.307   1.630  1.6049 -2.5757  0.9603
   94SOL     MW  376   1.828   1.384   1.602  0.3984 -0.7426 -0.9109
   95SOL     OW  377   0.779   1.574   0.926  0.8875 -0.5826 -0.0197
   95SOL    HW1  378   0.836   1.513   0.969  1.8497 -0.2360 -0.4146
   95SOL    HW2  379   0.699   1.522   0.917 -0.4477  1.7946 -1.0429
   95SOL     MW  380   0.776   1.559   0.931  0.8383 -0.2232 -0.2068
   96SOL     OW  381   1.252   1.873   1.641 -0.8298 -0.0392  0.5419
   96SOL    HW1  382   1.176   1.861   1.700  1.4777  2.2816 -2.8188
   96SOL    HW2  383   1.302   1.788   1.642 -2.8355  3.6843 -0.6231
   96SOL     MW  384   1.248   1.860   1.649 -0.7900  0.7583 -0.0552
   97SOL     OW  385   1.246   1.467   0.764  0.3430 -0.1483  0.4455
   97SOL    HW1  386   1.260   1.516   0.845 -4.2689 -0.4929  0.0465
   97SOL    HW2  387   1.155   1.502   0.743 -0.0489  1.6146 -0.7260
   97SOL     MW  388   1.236   1.478   0.772 -0.3172  0.0389  0.2383
   98SOL     OW  389   1.412   1.261   1.051  0.4070  0.0725  0.1179
   98SOL    HW1  390   1.479   1.263   1.113 -1.0074 -1.9762 -2.3307
   98SOL    HW2  391   1.447   1.304   0.971 -2.1372 -0.4548 -0.7129
   98SOL     MW  392   1.425   1.267   1.048 -0.1153 -0.2674 -0.3148
   99SOL     OW  393   1.330   0.342   1.352 -0.1500  0.1740  0.0859
   99SOL    HW1  394   1.421   0.351   1.335 -0.5406 -0.7879 -4.1105
   99SOL    HW2  395   1.316   0.355   1.447  2.1767  0.7721  1.5796
   99SOL     MW  396   1.341   0.345   1.363  0.1054  0.1260 -0.2707
  100SOL     OW  397   1.001   1.168   1.451  0.2574 -0.2367 -0.1466
  100SOL    HW1  398   1.010   1.178   1.544 -0.8047  1.2672 -2.3104
  100SOL    HW2  399   1.061   1.102   1.418 -0.6277 -1.7765 -1.2616
  100SOL     MW  400   1.011   1.161   1.459  0.0005 -0.2414 -0.5792
  101SOL     OW  401   0.486   1.118   0.358 -0.1756  0.1802 -0.6468
  101SOL    HW1  402   0.470   1.024   0.380 -0.7145 -1.9136  0.9455
  101SOL    HW2  403   0.463   1.140   0.267  1.5083 -0.8510  0.6361
  101SOL     MW  404   0.481   1.108   0.349 -0.0245 -0.2321 -0.2674
  102SOL     OW  405   2.916   0.658   1.053 -0.3101  0.6314 -0.3913
  102SOL    HW1  406   2.990   0.719   1.064  1.4407 -1.1122 -3.0781
  102SOL    HW2  407   2.889   0.643   1.142 -2.1554 -0.7824 -0.5723
  102SOL     MW  408   2.922   0.664   1.066 -0.3226  0.2148 -0.7696
  103SOL     OW  409   1.730   0.292   1.839 -1.4034 -0.4391  0.5191
  103SOL    HW1  410   1.660   0.233   1.804  2.3177  1.2146  0.9116
  103SOL    HW2  411   1.806   0.230   1.857  0.9950 -1.8863  0.3327
  103SOL     MW  412   1.731   0.276   1.837 -0.5960 -0.4119  0.5463
  104SOL     OW  413   0.142   1.590   1.508  0.2046 -0.4073  0.2385
  104SOL    HW1  414   0.118   1.520   1.568 -0.7088 -2.1616  3.2603
  104SOL    HW2  415   0.053   1.609   1.461 -0.6800 -1.8540  2.2616
  104SOL     MW  416   0.127   1.583   1.510 -0.0326 -0.8296  0.9041
  105SOL     OW  417   0.064   1.227   0.428  0.7688  0.1985 -0.0298
  105SOL    HW1  418   0.092   1.142   0.384  0.9225  0.3058  0.9835
  105SOL    HW2  419   0.133   1.285   0.452 -0.7926 -1.3338  0.2045
  105SOL     MW  420   0.076   1.223   0.425  0.5831  0.0105  0.1348
  106SOL     OW  421   0.852   0.344   0.978 -0.3273 -0.1812 -0.1239
  106SOL    HW1  422   0.802   0.407   0.925 -1.0238 -0.0868 -0.6637
  106SOL    HW2  423   0.913   0.291   0.922 -0.4948 -0.2523  0.2099
  106SOL     MW  424   0.854   0.345   0.963 -0.4413 -0.1781 -0.1511
  107SOL     OW  425   0.811   2.179   2.955  0.3056 -0.1135 -0.4777
  107SOL    HW1  426   0.726   2.168   2.908  1.1769 -0.3523 -4.0116
  107SOL    HW2  427   0.791   2.137   3.043 -1.6138 -1.1448 -1.0414
  107SOL     MW  428   0.797   2.172   2.960  0.1673 -0.2811 -1.0183
  108SOL     OW  429   1.333   1.610   1.647  0.4708 -0.5277 -0.3881
  108SOL    HW1  430   1.288   1.616   1.570  1.8313 -1.2882  2.7673
  108SOL    HW2  431   1.397   1.540   1.644 -0.4225  0.7304  1.1012
  108SOL     MW  432   1.335   1.602   1.637  0.5324 -0.4621  0.2247
  109SOL     OW  433   1.950   0.778   0.217 -0.0714 -0.5299  0.0672
  109SOL    HW1  434   1.969   0.800   0.130  1.2560 -2.0063  0.4070
  109SOL    HW2  435   1.989   0.860   0.256  0.2523  1.0819 -2.8272
  109SOL     MW  436   1.958   0.792   0.211  0.1465 -0.5120 -0.2699
  110SOL     OW  437   0.347   1.870   0.668 -0.6095  0.0247 -0.6675
  110SOL    HW1  438   0.425   1.812   0.674  1.5223  0.4114  0.0587
  110SOL    HW2  439   0.390   1.947   0.632  0.4545  0.5465  0.5256
  110SOL     MW  440   0.363   1.872   0.664 -0.1879  0.1445 -0.4143
  111SOL     OW  441   0.865   0.915   1.528  0.1584  0.2762 -0.2336
  111SOL    HW1  442   0.807   0.910   1.445 -1.1008 -1.8231 -3.1679
  111SOL    HW2  443   0.851   0.824   1.559  1.1900  2.1110  2.9086
  111SOL     MW  444   0.855   0.902   1.521  0.1284  0.2413 -0.2062
  112SOL     OW  445   1.329   1.132   1.622 -0.7467  0.6159 -0.2540
  112SOL    HW1  446   1.255   1.191   1.648 -0.5246 -0.7005  0.8540
  112SOL    HW2  447   1.284   1.047   1.608 -0.0248 -1.8781 -0.5372
  112SOL     MW  448   1.313   1.129   1.624 -0.6222  0.1131 -0.1451
  113SOL     OW  449   1.289   3.091   1.726 -0.0342 -0.1231  0.5211
  113SOL    HW1  450   1.273   3.044   1.808 -0.4968 -1.4847  0.5790
  113SOL    HW2  451   1.268   3.022   1.656 -0.0816  1.9106 -4.0946
  113SOL     MW  452   1.284   3.075   1.727 -0.1015 -0.0344 -0.0802
  114SOL     OW  453   0.301   2.880   1.963  0.1049  0.1904 -0.1400
  114SOL    HW1  454   0.374   2.946   1.984  3.4780  0.7503  2.7808
  114SOL    HW2  455   0.303   2.876   1.865  1.7223 -0.2438  0.8507
  114SOL     MW  456   0.311   2.888   1.953  0.7633  0.2070  0.3761
  115SOL     OW  457   0.500   0.845   1.104  0.3180 -0.6886 -0.1980
  115SOL    HW1  458   0.515   0.749   1.106 -1.5408  0.2577  0.7441
  115SOL    HW2  459   0.469   0.863   1.196 -3.0169 -0.6687  0.8608
  115SOL     MW  460   0.498   0.835   1.116 -0.3673 -0.5611  0.0660
  116SOL     OW  461   0.782   1.096   0.939 -0.3999  0.1789  0.7165
  116SOL    HW1  462   0.845   1.130   0.866  4.1964 -0.9748  1.4938
  116SOL    HW2  463   0.813   1.138   1.019 -0.3847  0.0252 -2.6423
  116SOL     MW  464   0.794   1.106   0.940  0.2085  0.0064  0.3759
  117SOL     OW  465   1.201   1.174   0.729  0.5748  0.3017 -0.4131
  117SOL    HW1  466   1.200   1.133   0.820  0.5052 -1.3065 -1.4457
  117SOL    HW2  467   1.215   1.265   0.739  1.0988  0.5880  0.9034
  117SOL     MW  468   1.203   1.180   0.742  0.6347  0.1273 -0.3756
  118SOL     OW  469   3.040   2.975   1.712 -0.0677 -0.1729 -0.1369
  118SOL    HW1  470   3.081   3.059   1.748 -3.7328 -0.0402  3.2598
  118SOL    HW2  471   2.941   2.996   1.722 -0.7408  0.9714  0.7561
  118SOL     MW  472   3.033   2.989   1.718 -0.6401 -0.0044  0.4291
  119SOL     OW  473   0.445   1.496   1.294  0.7153 -0.0520 -0.3008
  119SOL    HW1  474   0.460   1.528   1.206  2.1282  0.0927  0.0465
  119SOL    HW2  475   0.353   1.477   1.282 -0.0433 -0.3375  1.8827
  119SOL     MW  476   0.435   1.498   1.281  0.8016 -0.0705  0.0331
  120SOL     OW  477   0.265   0.693   1.006  0.3405 -0.0583  0.3544
  120SOL    HW1  478   0.240   0.622   1.071  0.2902 -1.7908  0.1548
  120SOL    HW2  479   0.311   0.761   1.052 -2.3474  0.1836 -0.2233
  120SOL     MW  480   0.268   0.693   1.021 -0.0208 -0.2550  0.2519
  121SOL     OW  481   1.717   1.161   1.743  0.0853 -0.6528 -0.0991
  121SOL    HW1  482   1.628   1.131   1.767 -3.0320 -0.2419  0.3425
  121SOL    HW2  483   1.741   1.110   1.665  1.0484  0.8337  2.2751
  121SOL     MW  484   1.709   1.150   1.736 -0.1989 -0.4025  0.2725
  122SOL     OW  485   0.120   0.555   0.774 -0.2112 -0.0847  0.5200
  122SOL    HW1  486   0.186   0.518   0.715 -0.5018 -0.3589  0.2999
  122SOL    HW2  487   0.173   0.619   0.827  0.1614  0.5195 -1.9074
  122SOL     MW  488   0.135   0.558   0.773 -0.2004 -0.0412  0.1707
  123SOL     OW  489   1.882   1.149   0.504 -0.5899  0.2150  0.0559
  123SOL    HW1  490   1.840   1.072   0.545 -0.2134 -0.9240  0.2668
  123SOL    HW2  491   1.873   1.219   0.571  1.8600  1.1396  2.7189
  123SOL     MW  492   1.875   1.148   0.518 -0.2170  0.1867  0.4351
  124SOL     OW  493   0.676   0.553   0.913 -0.0770 -0.0266  0.5844
  124SOL    HW1  494   0.615   0.501   0.852  0.1030 -1.3432 -1.7033
  124SOL    HW2  495   0.678   0.639   0.870  1.1726  0.9604 -0.1971
  124SOL     MW  496   0.668   0.558   0.899  0.1116 -0.0701  0.1795
  125SOL     OW  497   0.632   1.791   1.712 -0.4482  0.0944  0.6864
  125SOL    HW1  498   0.583   1.713   1.681  0.5485  0.3425  3.3661
  125SOL    HW2  499   0.599   1.875   1.667 -0.1096  2.6008 -1.8627
  125SOL     MW  500   0.621   1.792   1.702 -0.2720  0.4578  0.7036
  126SOL     OW  501   2.065   1.575   1.945  0.0143 -0.0450  0.0218
  126SOL    HW1  502   2.119   1.653   1.965  0.6805 -1.7959  1.7554
  126SOL    HW2  503   2.124   1.507   1.979 -2.3166 -2.0365 -0.5932
  126SOL     MW  504   2.080   1.576   1.952 -0.2053 -0.5388  0.1694
  127SOL     OW  505   0.659   0.800   1.836 -0.4272  0.0649 -0.1740
  127SOL    HW1  506   0.707   0.722   1.861 -0.5075  2.3325  0.8253
  127SOL    HW2  507   0.697   0.859   1.905 -2.1818 -0.1141  1.2223
  127SOL     MW  508   0.670   0.797   1.849 -0.6693  0.3404  0.1420
  128SOL     OW  509   1.785   0.734   2.934 -0.0741  0.7052 -0.1120
  128SOL    HW1  510   1.778   0.678   2.856 -0.2243  0.4508 -0.2700
  128SOL    HW2  511   1.762   0.824   2.904  1.7642 -0.2242  1.4548
  128SOL     MW  512   1.781   0.739   2.920  0.1487  0.5490  0.0739
  129SOL     OW  513   1.581   0.941   0.206 -0.5241 -0.2619  0.3400
  129SOL    HW1  514   1.543   0.860   0.162 -0.1366 -0.2776  1.2457
  129SOL    HW2  515   1.612   0.908   0.293  1.9080 -3.6748  0.5121
  129SOL     MW  516   1.580   0.926   0.211 -0.1521 -0.7143  0.4822
  130SOL     OW  517   0.761   1.376   0.332  0.0939  0.1359 -0.3554
  130SOL    HW1  518   0.767   1.401   0.429  0.3950 -0.7202  1.4512
  130SOL    HW2  519   0.810   1.443   0.290 -3.3365 -4.0553 -1.1405
  130SOL     MW  520   0.768   1.388   0.340 -0.3189 -0.5300 -0.2207
  131SOL     OW  521   3.071   0.804   0.016  0.1443 -0.1598  0.0007
  131SOL    HW1  522   3.034   0.820  -0.069  0.8898  3.3331  3.3572
  131SOL    HW2  523   3.138   0.739  -0.004 -1.2462  1.4357  0.3179
  131SOL     MW  524   3.075   0.797   0.002  0.0592  0.5115  0.4854
  132SOL     OW  525   2.688   0.129   1.255  0.1238  0.2167  0.0682
  132SOL    HW1  526   2.690   0.133   1.150 -0.5129  2.2481 -0.6302
  132SOL    HW2  527   2.597   0.115   1.274  2.3009 -0.7535 -0.3016
  132SOL     MW  528   2.676   0.128   1.244  0.3270  0.3567 -0.0727
  133SOL     OW  529   1.044   0.156   1.698  0.2747 -0.6808 -0.5115
  133SOL    HW1  530   1.133   0.117   1.691  1.5707  0.6388  0.8903
  133SOL    HW2  531   1.039   0.189   1.788 -0.3830 -1.4170 -2.1615
  133SOL     MW  532   1.055   0.155   1.709  0.3589 -0.6038 -0.5443
  134SOL     OW  533   1.370   2.533   1.437  0.8393  0.2100  0.0190
  134SOL    HW1  534   1.301   2.597   1.420 -1.2872 -0.8097 -3.9444
  134SOL    HW2  535   1.397   2.562   1.527  1.5794 -0.3574  0.6103
  134SOL     MW  536   1.364   2.546   1.447  0.6564  0.0006 -0.4259
  135SOL     OW  537   3.005   0.971   2.853 -0.0236  0.3903  0.0438
  135SOL    HW1  538   3.081   1.023   2.876  1.4489 -3.7033 -1.4558
  135SOL    HW2  539   2.936   1.042   2.852 -1.6050 -0.3442 -1.2225
  135SOL     MW  540   3.006   0.987   2.856 -0.0379 -0.2467 -0.3211
  136SOL     OW  541   0.170   2.029   0.825 -0.1824 -0.5999 -0.3053
  136SOL    HW1  542   0.090   1.976   0.823 -1.8914  2.8020 -0.9256
  136SOL    HW2  543   0.230   1.980   0.766  1.1486 -2.3719 -1.6939
  136SOL     MW  544   0.167   2.015   0.817 -0.2323 -0.3849 -0.5703
  137SOL     OW  545   0.707   2.038   0.512  0.4600  0.1749  0.2056
  137SOL    HW1  546   0.738   2.027   0.607 -4.2211  1.6981  2.0720
  137SOL    HW2  547   0.608   2.061   0.517  0.8562 -2.1044  3.6248
  137SOL     MW  548   0.698   2.040   0.525 -0.1054  0.0752  0.9030
  138SOL     OW  549   0.529   0.579   1.129 -0.3566  0.4115  0.3796
  138SOL    HW1  550   0.448   0.533   1.121 -1.4524  0.6719 -0.0261
  138SOL    HW2  551   0.574   0.569   1.041 -0.8096 -1.7315  1.6246
  138SOL     MW  552   0.524   0.572   1.117 -0.5609  0.1631  0.4903
  139SOL     OW  553   2.773   0.624   1.333 -0.5183  0.4291 -0.8042
  139SOL    HW1  554   2.826   0.540   1.351  0.5884 -0.1757 -1.3832
  139SOL    HW2  555   2.812   0.686   1.391  0.9309  0.5724  0.4961
  139SOL     MW  556   2.785   0.621   1.343 -0.1811  0.3682 -0.7090
  140SOL     OW  557   0.864   0.398   2.076  0.9421  0.2101  0.1233
  140SOL    HW1  558   0.935   0.339   2.047 -2.5870  0.6841 -1.9897
  140SOL    HW2  559   0.870   0.404   2.170  0.9502  0.5403 -1.4187
  140SOL     MW  560   0.874   0.391   2.084  0.4776  0.3162 -0.3590
  141SOL     OW  561   1.066   0.664   1.739 -0.1520  0.0142  0.1398
  141SOL    HW1  562   1.103   0.582   1.705  2.2394  0.9643  2.2754
  141SOL    HW2  563   1.133   0.730   1.736 -2.2112 -1.3604 -0.0136
  141SOL     MW  564   1.080   0.662   1.734 -0.1082 -0.0418  0.4013
  142SOL     OW  565   0.918   1.191   0.716 -0.2360 -0.2949 -0.3589
  142SOL    HW1  566   0.886   1.131   0.646  2.5500 -0.7579 -0.5347
  142SOL    HW2  567   1.014   1.187   0.728 -2.6692 -0.5361  1.7466
  142SOL     MW  568   0.927   1.182   0.708 -0.1895 -0.3878 -0.1043
  143SOL     OW  569   1.817   0.793   1.104  0.4645 -0.7102 -0.4428
  143SOL    HW1  570   1.880   0.797   1.034  2.1366 -0.7716 -1.5096
  143SOL    HW2  571   1.729   0.781   1.067 -0.8641 -0.6824 -0.3553
  143SOL     MW  572   1.814   0.792   1.090  0.5098 -0.7146 -0.5720
  144SOL     OW  573   0.265   1.196   1.612 -0.0258  0.1622  0.5224
  144SOL    HW1  574   0.362   1.195   1.619 -0.0994  1.9559 -0.4339
  144SOL    HW2  575   0.250   1.215   1.704  1.9475  0.2491  0.1488
  144SOL     MW  576   0.276   1.198   1.625  0.2249  0.4104  0.3469
  145SOL     OW  577   0.223   0.479   1.174 -0.1766  0.6833 -0.7621
  145SOL    HW1  578   0.300   0.442   1.212  3.2610 -0.2752 -2.2516
  145SOL    HW2  579   0.200   0.390   1.130 -1.5704  0.6538  1.2964
  145SOL     MW  580   0.230   0.462   1.173  0.0931  0.5530 -0.6871
  146SOL     OW  581   0.869   1.947   1.351 -0.3962  0.3790 -0.0279
  146SOL    HW1  582   0.931   1.987   1.286  0.2622 -2.3979  0.2614
  146SOL    HW2  583   0.783   1.951   1.311 -0.0349 -2.1377  0.8220
  146SOL     MW  584   0.866   1.953   1.337 -0.2616 -0.3194  0.1224
  147SOL     OW  585   0.441   0.462   2.943  0.3583  0.1243  0.6484
  147SOL    HW1  586   0.373   0.456   3.010  2.0668  0.1893  0.4856
  147SOL    HW2  587   0.392   0.515   2.876 -1.0644  0.0944  0.5249
  147SOL     MW  588   0.425   0.468   2.943  0.3960  0.1289  0.6106
  148SOL     OW  589   0.151   0.851   1.284  0.1855  0.2833 -0.1754
  148SOL    HW1  590   0.252   0.865   1.302 -0.3789  0.5913  2.3550
  148SOL    HW2  591   0.111   0.916   1.349  0.2253  2.1367  1.3295
  148SOL     MW  592   0.159   0.862   1.295  0.1163  0.5685  0.3570
  149SOL     OW  593   1.322   1.167   1.329  0.2666  0.8073  0.3111
  149SOL    HW1  594   1.322   1.153   1.425 -0.2464  0.2409 -0.2299
  149SOL    HW2  595   1.387   1.238   1.323  0.9403  0.8288 -0.7946
  149SOL     MW  596   1.330   1.175   1.341  0.2878  0.7354  0.0938
  150SOL     OW  597   1.822   1.326   0.734 -0.0527 -0.4313  0.9739
  150SOL    HW1  598   1.852   1.266   0.798 -0.8017 -0.8887  1.0151
  150SOL    HW2  599   1.854   1.410   0.766 -1.6090  0.3223 -1.1212
  150SOL     MW  600   1.830   1.330   0.747 -0.3569 -0.3923  0.7029
  151SOL     OW  601   1.653   1.789   0.818 -0.3552 -0.3225 -0.3343
  151SOL    HW1  602   1.662   1.778   0.723 -0.2174 -1.0219  0.6335
  151SOL    HW2  603   1.580   1.717   0.826  0.2714 -3.3029  0.0301
  151SOL     MW  604   1.645   1.778   0.806 -0.2544 -0.8080 -0.1585
  152SOL     OW  605   0.760   1.367   1.499  0.1858  0.2351  0.1586
  152SOL    HW1  606   0.771   1.337   1.588 -0.6067  0.8248  1.0057
  152SOL    HW2  607   0.846   1.368   1.461  1.2558 -2.1525 -1.0762
  152SOL     MW  608   0.772   1.363   1.506  0.2224 -0.0021  0.1074
  153SOL     OW  609   2.614   1.212   0.788 -0.0981 -0.1237  0.2518
  153SOL    HW1  610   2.691   1.178   0.726  0.1923 -1.5511  1.8782
  153SOL    HW2  611   2.532   1.155   0.780 -3.0351  0.0293  0.6331
  153SOL     MW  612   2.613   1.200   0.778 -0.4473 -0.2918  0.5167
  154SOL     OW  613   0.225   1.806   1.696  0.1937 -0.3299 -0.0757
  154SOL    HW1  614   0.253   1.749   1.631 -2.3319 -1.2430  2.0506
  154SOL    HW2  615   0.253   1.769   1.778 -2.7164  0.3348  0.9866
  154SOL     MW  616   0.232   1.794   1.698 -0.5235 -0.3627  0.3450
  155SOL     OW  617   1.215   0.692   0.213  0.3160 -0.0639 -0.9451
  155SOL    HW1  618   1.210   0.644   0.299 -1.6321 -2.6739  0.8200
  155SOL    HW2  619   1.187   0.783   0.237  2.6000  2.3213 -2.4981
  155SOL     MW  620   1.211   0.698   0.228  0.3603 -0.0936 -0.9171
  156SOL     OW  621   1.488   3.072   1.126 -0.0021 -0.4830 -0.2965
  156SOL    HW1  622   1.576   3.099   1.163  0.7748 -1.8821  0.6527
  156SOL    HW2  623   1.500   2.981   1.117  0.7192  0.7248  1.3345
  156SOL     MW  624   1.501   3.064   1.130  0.1956 -0.5083  0.0439
  157SOL     OW  625   1.451   1.163   0.120 -0.0912  0.6048  0.3242
  157SOL    HW1  626   1.495   1.073   0.142  1.6544 -1.9919  2.6963
  157SOL    HW2  627   1.525   1.224   0.087  0.7582  1.8570  0.2295
  157SOL     MW  628   1.466   1.159   0.118  0.2512  0.4274  0.6247
  158SOL     OW  629   0.543   1.655   2.213 -0.1805 -0.2358  0.2374
  158SOL    HW1  630   0.560   1.736   2.164  1.9947  0.3416 -0.0343
  158SOL    HW2  631   0.459   1.664   2.257  3.9352  2.9767 -0.8159
  158SOL     MW  632   0.534   1.667   2.212  0.6496  0.2642  0.0626
  159SOL     OW  633   1.292   1.672   0.433 -0.2171 -0.3906  0.3147
  159SOL    HW1  634   1.259   1.595   0.388  1.4404  0.0984 -0.1044
  159SOL    HW2  635   1.210   1.707   0.481 -1.4672  1.5568 -1.9594
  159SOL     MW  636   1.277   1.667   0.433 -0.1633 -0.0692 -0.0406
  160SOL     OW  637   0.539   1.145   1.621  0.0271  0.1643 -0.1212
  160SOL    HW1  638   0.519   1.049   1.640  0.7277  1.0095 -0.6429
  160SOL    HW2  639   0.630   1.155   1.658  0.7175  3.0912  2.8015
  160SOL     MW  640   0.549   1.133   1.629  0.2106  0.6620  0.1956
  161SOL     OW  641   0.505   2.251   2.560  0.4880  0.2531 -0.1122
  161SOL    HW1  642   0.410   2.247   2.540 -2.7602  1.9903  1.0182
  161SOL    HW2  643   0.546   2.182   2.507  0.5355 -2.6043 -0.7901
  161SOL     MW  644   0.498   2.242   2.550  0.0657  0.1053 -0.0525
  162SOL     OW  645   1.056   1.772   1.884  0.5291  0.6427  0.4225
  162SOL    HW1  646   1.046   1.853   1.933 -2.7215  1.2156 -0.1257
  162SOL    HW2  647   0.968   1.732   1.893 -1.5471  3.0374  0.9330
  162SOL     MW  648   1.043   1.778   1.891 -0.1737  1.0342  0.4175
  163SOL     OW  649   2.129   0.020   0.924 -0.6232  0.0649 -0.5961
  163SOL    HW1  650   2.133   0.109   0.880 -1.7260  2.0993  1.9114
  163SOL    HW2  651   2.123  -0.051   0.859 -1.8535  1.0871  0.6075
  163SOL     MW  652   2.129   0.022   0.910 -0.9310  0.4682 -0.1065
  164SOL     OW  653   0.343   0.200   0.849 -0.3630  0.3263 -0.3508
  164SOL    HW1  654   0.251   0.215   0.887 -1.9400  2.5474  0.1114
  164SOL    HW2  655   0.341   0.120   0.802 -1.2007  1.4013  0.4655
  164SOL     MW  656   0.330   0.192   0.848 -0.6816  0.7612 -0.1821
  165SOL     OW  657   1.347   1.267   0.355  0.0986  0.5312  0.1173
  165SOL    HW1  658   1.335   1.185   0.404  2.2243 -1.9370 -0.4651
  165SOL    HW2  659   1.395   1.228   0.277  1.5384 -0.7815 -0.3867
  165SOL     MW  660   1.352   1.251   0.351  0.5690  0.0324 -0.0260
  166SOL     OW  661   0.525   1.186   1.018 -0.1961  0.5148 -0.6681
  166SOL    HW1  662   0.540   1.146   1.108  2.8748  1.2935 -0.4661
  166SOL    HW2  663   0.609   1.152   0.978  1.0721 -0.9207  0.7790
  166SOL     MW  664   0.538   1.176   1.024  0.3764  0.4282 -0.4505
  167SOL     OW  665   0.800   1.025   0.287  0.1291  0.4359  0.7312
  167SOL    HW1  666   0.718   1.075   0.262 -4.3176  2.0495 -0.4542
  167SOL    HW2  667   0.859   1.025   0.210 -0.3636 -0.3538 -3.0918
  167SOL     MW  668   0.797   1.032   0.273 -0.5226  0.5446  0.0704
  168SOL     OW  669   1.694   1.649   3.048 -0.4624  0.2875  0.2081
  168SOL    HW1  670   1.613   1.684   3.014  1.3110 -1.7173 -1.4532
  168SOL    HW2  671   1.696   1.563   3.020 -0.6630  2.7722  2.8281
  168SOL     MW  672   1.683   1.642   3.040 -0.2549  0.3508  0.3346
  169SOL     OW  673   0.401   0.944   1.353 -0.1803  0.3959  0.2464
  169SOL    HW1  674   0.440   0.908   1.430 -0.9472  3.0436 -2.3934
  169SOL    HW2  675   0.448   1.026   1.351 -0.3453 -0.4265  0.3275
  169SOL     MW  676   0.412   0.950   1.363 -0.3033  0.6367 -0.0912
  170SOL     OW  677   1.030   1.506   1.521 -0.0179  0.5013  0.1910
  170SOL    HW1  678   0.976   1.587   1.538 -0.3245  0.3796  1.1244
  170SOL    HW2  679   1.098   1.528   1.452 -0.4854  2.8466 -1.0814
  170SOL     MW  680   1.032   1.520   1.515 -0.1200  0.7947  0.1462
  171SOL     OW  681   0.507   1.454   0.634 -0.4532 -0.3863 -0.0660
  171SOL    HW1  682   0.490   1.441   0.733 -0.5341  3.0758  2.7974
  171SOL    HW2  683   0.540   1.365   0.599 -1.4158 -1.2965 -0.9219
  171SOL     MW  684   0.509   1.441   0.642 -0.5909 -0.0496  0.1989
  172SOL     OW  685   0.859   0.344   1.251  0.7767  0.3588  0.1615
  172SOL    HW1  686   0.847   0.341   1.152  2.0470  0.5964 -1.6031
  172SOL    HW2  687   0.787   0.386   1.304 -0.4925  0.7361 -3.1535
  172SOL     MW  688   0.848   0.349   1.245  0.7769  0.4399 -0.5087
  173SOL     OW  689   0.430   1.699   0.382  0.2441 -0.4817 -0.1800
  173SOL    HW1  690   0.460   1.629   0.320 -1.8748  0.6372 -1.8027
  173SOL    HW2  691   0.485   1.701   0.465  0.6391 -2.9321  0.4450
  173SOL     MW  692   0.441   1.690   0.385  0.0166 -0.6574 -0.3117
  174SOL     OW  693   1.819   0.982   1.549  0.1097 -0.2648 -0.1919
  174SOL    HW1  694   1.811   0.883   1.557  0.5363 -1.8904 -0.1249
  174SOL    HW2  695   1.800   0.987   1.454  0.8516  1.3316  1.4742
  174SOL     MW  696   1.815   0.970   1.537  0.2639 -0.2686  0.0367
  175SOL     OW  697   0.509   1.484   0.253 -0.3401 -0.0591 -0.1672
  175SOL    HW1  698   0.458   1.419   0.216 -0.4224 -0.0578  0.2833
  175SOL    HW2  699   0.591   1.439   0.281 -0.1346  1.8707  0.3551
  175SOL     MW  700   0.513   1.470   0.251 -0.3238  0.1957 -0.0388
  176SOL     OW  701   0.178   1.490   1.213  0.1480  0.3106 -0.5136
  176SOL    HW1  702   0.170   1.422   1.148  2.3743  0.4902 -1.7384
  176SOL    HW2  703   0.089   1.498   1.262  2.0482  0.2879 -2.5013
  176SOL     MW  704   0.165   1.482   1.211  0.6925  0.3313 -0.9374
  177SOL     OW  705   0.651   0.449   1.396  0.2880  0.6853  0.7229
  177SOL    HW1  706   0.612   0.504   1.324 -0.6082  1.6376  1.9138
  177SOL    HW2  707   0.613   0.483   1.476  1.3366 -0.9281 -2.0660
  177SOL     MW  708   0.641   0.461   1.397  0.3081  0.5980  0.5121
  178SOL     OW  709   3.057   0.525   2.947 -0.7884  0.8677 -0.3789
  178SOL    HW1  710   2.999   0.556   3.018 -1.5595  0.9835 -2.8025
  178SOL    HW2  711   3.014   0.484   2.866  0.9974 -0.6349  1.1063
  178SOL     MW  712   3.043   0.524   2.945 -0.6545  0.6847 -0.5027
  179SOL     OW  713   1.591   1.324   1.331  0.2948 -0.1531 -0.7346
  179SOL    HW1  714   1.568   1.372   1.414 -1.2013  0.8515 -1.5539
  179SOL    HW2  715   1.687   1.338   1.331 -1.4376 -1.0570  0.2341
  179SOL     MW  716   1.600   1.332   1.342 -0.1312 -0.1398 -0.7149
  180SOL     OW  717   3.026   0.194   0.419 -0.2827 -0.2320 -0.1346
  180SOL    HW1  718   2.970   0.229   0.344  1.6749 -0.5979 -1.8814
  180SOL    HW2  719   3.095   0.264   0.416 -0.9607  0.8758  0.2507
  180SOL     MW  720   3.028   0.208   0.409 -0.1139 -0.1341 -0.3142
  181SOL     OW  721   1.109   1.308   3.091 -0.1787 -0.0689 -0.0007
  181SOL    HW1  722   1.155   1.350   3.160  2.4252  1.9698  0.4248
  181SOL    HW2  723   1.170   1.250   3.043 -0.1634  1.2559  0.9326
  181SOL     MW  724   1.123   1.306   3.094  0.1669  0.3749  0.1786
  182SOL     OW  725   0.455   0.872   1.616 -0.0924 -0.7693 -0.5323
  182SOL    HW1  726   0.356   0.880   1.630  0.7746  0.2317 -2.5143
  182SOL    HW2  727   0.493   0.806   1.679  0.6422 -0.3778 -0.4103
  182SOL     MW  728   0.447   0.864   1.626  0.1189 -0.5856 -0.7777
  183SOL     OW  729   1.588   1.532   1.135  0.0098  0.3808  0.2305
  183SOL    HW1  730   1.605   1.616   1.181  1.5381  0.3105 -1.6804
  183SOL    HW2  731   1.586   1.465   1.206 -2.4544  2.2682 -0.0830
  183SOL     MW  732   1.590   1.534   1.151 -0.1137  0.6206 -0.0630
  184SOL     OW  733   0.866   0.659   1.954 -1.1416  0.3089  0.0565
  184SOL    HW1  734   0.933   0.673   1.884  2.8886 -0.1232  0.6831
  184SOL    HW2  735   0.875   0.567   1.985 -1.4297  0.8155  0.1701
  184SOL     MW  736   0.876   0.649   1.949 -0.6479  0.3187  0.1542
  185SOL     OW  737   1.216   0.994   1.935 -0.4092 -0.4934  0.4571
  185SOL    HW1  738   1.194   0.911   1.978 -3.1679 -1.1012 -0.6437
  185SOL    HW2  739   1.237   1.045   2.009 -2.3920 -0.2015 -1.1076
  185SOL     MW  740   1.216   0.990   1.950 -1.0348 -0.5351  0.1054
  186SOL     OW  741   0.379   1.713   1.442 -0.6108  0.5641  0.1303
  186SOL    HW1  742   0.424   1.656   1.377  0.4631 -2.4844  0.6253
  186SOL    HW2  743   0.298   1.657   1.447  0.8830 -1.4392  0.5595
  186SOL     MW  744   0.375   1.698   1.434 -0.2720 -0.1024  0.2523
  187SOL     OW  745   1.445   0.688   1.379  0.3077 -0.2828 -0.3944
  187SOL    HW1  746   1.425   0.702   1.471  1.1465  1.4796 -0.7292
  187SOL    HW2  747   1.361   0.681   1.337  1.6385 -0.4128  0.9134
  187SOL     MW  748   1.431   0.688   1.386  0.5939 -0.0674 -0.2660
  188SOL     OW  749   1.900   1.157   0.935 -0.1715  0.0733 -0.0328
  188SOL    HW1  750   1.897   1.159   1.036 -2.8717  2.0474 -0.5067
  188SOL    HW2  751   1.910   1.064   0.903  0.9584 -0.2341 -1.2029
  188SOL     MW  752   1.901   1.145   0.944 -0.3787  0.2932 -0.2497
  189SOL     OW  753   0.661   0.813   0.820  0.2740  0.1334 -0.5598
  189SOL    HW1  754   0.571   0.840   0.843 -2.0864  2.3825  0.3669
  189SOL    HW2  755   0.711   0.887   0.859 -1.0412 -1.5472  1.2265
  189SOL     MW  756   0.656   0.826   0.828 -0.2109  0.2084 -0.2018
  190SOL     OW  757   1.899   0.227   2.148  0.2774 -0.8380  0.4690
  190SOL    HW1  758   1.916   0.222   2.241 -1.2249  1.3751  2.3062
  190SOL    HW2  759   1.963   0.285   2.109  0.6296 -1.6425 -1.5684
  190SOL     MW  760   1.909   0.234   2.155  0.1256 -0.6522  0.4426
  191SOL     OW  761   1.488   0.940   1.236 -0.5458  0.1660  0.0848
  191SOL    HW1  762   1.417   1.008   1.247  0.7642  0.2069  0.1405
  191SOL    HW2  763   1.474   0.880   1.309 -3.2930  0.3440 -2.5512
  191SOL     MW  764   1.477   0.941   1.247 -0.7354  0.1948 -0.2556
  192SOL     OW  765   0.618   2.125   2.791  0.1031  0.2964 -0.0591
  192SOL    HW1  766   0.575   2.177   2.728  1.2115  1.9574 -1.8917
  192SOL    HW2  767   0.597   2.031   2.772 -3.0426 -0.8534 -2.7126
  192SOL     MW  768   0.610   2.120   2.780 -0.1657  0.3639 -0.6510
  193SOL     OW  769   0.994   1.561   0.733 -0.2574  0.2467  0.5365
  193SOL    HW1  770   0.924   1.555   0.801  1.8327 -2.3567 -3.0231
  193SOL    HW2  771   0.945   1.511   0.662 -0.8206 -2.6733  0.0408
  193SOL     MW  772   0.978   1.554   0.733 -0.0559 -0.4821  0.0014
  194SOL     OW  773   0.513   1.449   0.930  0.2358  0.0428 -0.2477
  194SOL    HW1  774   0.523   1.358   0.967 -0.4946  0.2345  2.1504
  194SOL    HW2  775   0.422   1.456   0.899  1.4742  0.1641  0.2689
  194SOL     MW  776   0.503   1.438   0.931  0.3028  0.0841  0.1369
  195SOL     OW  777   1.302   1.130   2.980  0.2465  0.5322  0.0675
  195SOL    HW1  778   1.333   1.148   3.068 -0.5414  0.4926  0.9084
  195SOL    HW2  779   1.237   1.064   2.997 -2.4108  2.5728 -1.7282
  195SOL     MW  780   1.297   1.123   2.994 -0.2081  0.7962 -0.0585
  196SOL     OW  781   2.209   1.015   0.593 -0.0076  0.5269  0.5268
  196SOL    HW1  782   2.184   0.979   0.505  0.1664  0.5700  2.7588
  196SOL    HW2  783   2.200   1.112   0.576  1.8886  1.8618 -1.8293
  196SOL     MW  784   2.205   1.023   0.579  0.2655  0.7087  0.5104
  197SOL     OW  785   0.645   1.221   2.094 -0.1228  0.5436  0.5557
  197SOL    HW1  786   0.616   1.148   2.047  2.2383  1.1553 -3.4388
  197SOL    HW2  787   0.611   1.290   2.036 -2.3280  0.3454 -2.1814
  197SOL     MW  788   0.637   1.221   2.081 -0.1022  0.5981 -0.3325
  198SOL     OW  789   2.950   1.373   1.089 -1.0118  0.2007 -0.0688
  198SOL    HW1  790   2.916   1.449   1.042 -0.2109  1.7004 -0.0952
  198SOL    HW2  791   2.884   1.307   1.077  2.6295 -0.1202  0.5914
  198SOL     MW  792   2.937   1.375   1.081 -0.4257  0.3563  0.0148
  199SOL     OW  793   0.538   1.411   1.887 -0.4922 -0.0627 -0.2386
  199SOL    HW1  794   0.454   1.376   1.877  0.2407 -1.8855  1.3656
  199SOL    HW2  795   0.584   1.378   1.808  0.2814  4.2769 -0.4791
  199SOL     MW  796   0.533   1.402   1.876 -0.2934  0.2693 -0.0586
  200SOL     OW  797   1.872   2.993   1.316  0.0802 -0.3710 -0.0178
  200SOL    HW1  798   1.843   2.963   1.233  1.2897 -0.1628  1.1680
  200SOL    HW2  799   1.805   3.047   1.353  3.1993 -0.6237  1.6774
  200SOL     MW  800   1.859   2.997   1.310  0.6514 -0.3769  0.3623
  201SOL     OW  801   1.041   0.209   0.841  0.0152  0.4151 -0.3541
  201SOL    HW1  802   1.018   0.155   0.762  3.1933 -2.0442 -0.7957
  201SOL    HW2  803   1.127   0.255   0.824  3.7680  1.2209 -0.6141
  201SOL     MW  804   1.050   0.208   0.828  0.9297  0.1969 -0.4466
  202SOL     OW  805   1.505   1.567   0.874 -0.1739 -0.1993 -0.0343
  202SOL    HW1  806   1.512   1.495   0.811 -0.7463  1.4491 -0.8557
  202SOL    HW2  807   1.552   1.531   0.948  3.3092 -0.7146 -2.2998
  202SOL     MW  808   1.512   1.553   0.876  0.2101 -0.0498 -0.4416
  203SOL     OW  809   3.049   0.431   1.299 -0.6817 -0.3109  0.4940
  203SOL    HW1  810   3.115   0.354   1.292 -0.1939 -4.7793 -0.9160
  203SOL    HW2  811   3.090   0.508   1.343  0.0082  0.3430 -0.5715
  203SOL     MW  812   3.063   0.431   1.304 -0.5263 -0.8142  0.1674
  204SOL     OW  813   1.045   1.749   0.547  0.1645  0.3810  0.3219
  204SOL    HW1  814   1.038   1.681   0.620 -1.5806 -2.8067  0.8100
  204SOL    HW2  815   0.970   1.728   0.486 -1.9964 -1.5652  1.3504
  204SOL     MW  816   1.034   1.737   0.548 -0.3509 -0.2964  0.5220
  205SOL     OW  817   1.376   0.055   1.359  0.3233 -0.5046  0.4583
  205SOL    HW1  818   1.406   0.030   1.270  4.2379 -0.6411 -0.7319
  205SOL    HW2  819   1.361   0.149   1.348  1.2556 -0.9533 -0.3700
  205SOL     MW  820   1.378   0.064   1.346  0.9628 -0.5818  0.1920
  206SOL     OW  821   0.412   3.004   1.420  0.0086  0.1175  0.2440
  206SOL    HW1  822   0.380   3.016   1.322  1.6888 -1.3894 -0.6530
  206SOL    HW2  823   0.472   2.926   1.412 -2.3785 -2.6712  0.6404
  206SOL     MW  824   0.416   2.995   1.406 -0.0847 -0.4493  0.1779
  207SOL     OW  825   0.907   1.570   0.185 -0.2089  0.5232 -0.0415
  207SOL    HW1  826   0.940   1.662   0.162  0.7524  0.1297  1.3975
  207SOL    HW2  827   0.987   1.513   0.188  1.9414  0.2908  3.1587
  207SOL     MW  828   0.922   1.575   0.182  0.2016  0.4406  0.5706
  208SOL     OW  829   0.690   1.667   1.369  0.3210 -0.5779 -0.3034
  208SOL    HW1  830   0.747   1.708   1.433 -0.9404  0.0520 -0.2057
  208SOL    HW2  831   0.728   1.578   1.365  0.4013  0.0796 -1.0677
  208SOL     MW  832   0.703   1.661   1.377  0.1652 -0.4080 -0.3913
  209SOL     OW  833   1.537   0.497   2.999  0.0106  0.1155 -0.2145
  209SOL    HW1  834   1.580   0.555   3.055 -0.1403 -2.3928  0.8791
  209SOL    HW2  835   1.602   0.477   2.936  2.1368  1.8838  0.8427
  209SOL     MW  836   1.551   0.502   2.998  0.2713  0.0178  0.0693
  210SOL     OW  837   1.541   1.271   0.788 -0.1494  0.0335 -0.3465
  210SOL    HW1  838   1.636   1.264   0.798 -2.3179 -0.9499 -0.1654
  210SOL    HW2  839   1.532   1.315   0.701 -2.5461 -0.1238 -1.7711
  210SOL     MW  840   1.552   1.275   0.778 -0.7517 -0.1170 -0.5106
  211SOL     OW  841   1.684   0.318   0.928  0.2926 -0.5694 -0.2639
  211SOL    HW1  842   1.675   0.361   0.840 -0.3452 -0.2012 -1.4546
  211SOL    HW2  843   1.779   0.314   0.937  1.5574 -1.3636 -2.1072
  211SOL     MW  844   1.695   0.323   0.917  0.3753 -0.6256 -0.6642
  212SOL     OW  845   0.274   1.030   0.135  0.6743  0.2566  0.5186
  212SOL    HW1  846   0.194   1.028   0.184  0.9621  1.3309 -0.3123
  212SOL    HW2  847   0.281   0.939   0.102  1.2222  0.6493 -0.8784
  212SOL     MW  848   0.264   1.018   0.137  0.7846  0.4502  0.2246
  213SOL     OW  849   0.535   1.697   3.052  0.1592 -0.3456  0.5904
  213SOL    HW1  850   0.543   1.766   3.118 -1.0734 -2.2926 -0.8732
  213SOL    HW2  851   0.538   1.735   2.963  0.6494  1.5966  0.5676
  213SOL     MW  852   0.536   1.711   3.049  0.0612 -0.3462  0.3943
  214SOL     OW  853   0.619   0.305   2.193  0.5131  0.4279 -0.8263
  214SOL    HW1  854   0.547   0.371   2.183  1.1503 -1.8873 -0.1114
  214SOL    HW2  855   0.681   0.312   2.124 -0.9192 -3.4017 -0.8763
  214SOL     MW  856   0.618   0.315   2.183  0.4082 -0.3828 -0.7385
  215SOL     OW  857   0.502   0.714   2.664 -0.0261  0.1134 -0.0490
  215SOL    HW1  858   0.535   0.695   2.573 -2.8318  0.7864 -2.6913
  215SOL    HW2  859   0.420   0.671   2.654  2.4865 -1.9956 -3.2259
  215SOL     MW  860   0.496   0.706   2.651 -0.0647 -0.0760 -0.8168
  216SOL     OW  861   2.913   3.035   2.661 -0.0407 -0.3111 -0.0518
  216SOL    HW1  862   2.865   3.043   2.742 -0.2358  0.1781 -3.0881
  216SOL    HW2  863   2.932   3.126   2.636 -1.6127  1.3487  5.4134
  216SOL     MW  864   2.909   3.048   2.669 -0.2739 -0.0276  0.2687
  217SOL     OW  865   0.994   1.091   0.101  0.1814 -0.3261  0.6304
  217SOL    HW1  866   1.037   1.015   0.069  1.6810  2.4794  1.4421
  217SOL    HW2  867   1.051   1.169   0.089  0.2603  1.6091  1.0578
  217SOL     MW  868   1.007   1.091   0.095  0.3897  0.2994  0.7939
  218SOL     OW  869   0.963   1.306   2.557 -0.1242 -0.0136 -0.0065
  218SOL    HW1  870   0.990   1.222   2.602  0.8620 -0.8215  1.5274
  218SOL    HW2  871   1.030   1.375   2.567 -1.0593  1.3399  2.7872
  218SOL     MW  872   0.975   1.304   2.565 -0.1175  0.0584  0.5645
  219SOL     OW  873   1.144   0.431   2.644 -0.1281 -0.5065 -0.0057
  219SOL    HW1  874   1.194   0.510   2.673 -0.5523 -0.4799 -1.9369
  219SOL    HW2  875   1.074   0.484   2.601 -2.2126  1.3388 -0.5567
  219SOL     MW  876   1.141   0.448   2.642 -0.4591 -0.2595 -0.3332
  220SOL     OW  877   1.770   0.492   2.224  0.5787  0.4033 -0.0387
  220SOL    HW1  878   1.685   0.514   2.179 -3.1378 -0.2286 -1.7131
  220SOL    HW2  879   1.805   0.410   2.179  2.0703  0.0568 -1.1296
  220SOL     MW  880   1.764   0.484   2.212  0.2851  0.2742 -0.4035
  221SOL     OW  881   0.397   1.318   2.975 -0.3506 -0.5066  0.3889
  221SOL    HW1  882   0.428   1.240   2.921 -0.2438  2.7361  0.2781
  221SOL    HW2  883   0.446   1.394   2.943  3.0624 -1.2055 -0.1185
  221SOL     MW  884   0.408   1.318   2.964  0.1138 -0.1710  0.3073
  222SOL     OW  885   0.353   0.945   2.675 -0.4596  0.1066 -0.0344
  222SOL    HW1  886   0.323   0.964   2.589  0.1015 -0.2897 -0.9144
  222SOL    HW2  887   0.408   0.867   2.664  1.0692 -0.0366  1.0501
  222SOL     MW  888   0.356   0.937   2.662 -0.1839  0.0354 -0.0074
  223SOL     OW  889   0.015   2.021   2.514  0.1618 -0.0840 -0.2298
  223SOL    HW1  890   0.094   1.990   2.559  0.1785  1.2426  1.7069
  223SOL    HW2  891   0.020   2.114   2.519  0.4164 -0.8856  1.4452
  223SOL     MW  892   0.026   2.029   2.520  0.1976 -0.0148  0.2468
  224SOL     OW  893   1.502   0.768   2.597 -0.1645 -1.1962 -0.3273
  224SOL    HW1  894   1.538   0.813   2.671  0.5053  1.5019  0.6360
  224SOL    HW2  895   1.493   0.847   2.533  1.7669  1.5172 -2.3748
  224SOL     MW  896   1.505   0.785   2.598  0.1787 -0.4822 -0.4704
  225SOL     OW  897   2.913   1.445   2.271  0.1322  0.0332 -0.4477
  225SOL    HW1  898   2.940   1.515   2.218 -0.8991 -0.9465  0.6567
  225SOL    HW2  899   2.855   1.489   2.335 -0.8903 -1.6948  0.4706
  225SOL     MW  900   2.909   1.460   2.273 -0.1388 -0.3240 -0.1808
  226SOL     OW  901   0.459   1.489   2.699 -0.3101 -0.0130  0.4816
  226SOL    HW1  902   0.544   1.449   2.678 -1.0810  0.8647  0.0898
  226SOL    HW2  903   0.454   1.580   2.666  1.4258  0.9739 -2.8090
  226SOL     MW  904   0.469   1.495   2.692 -0.1828  0.2330 -0.0042
  227SOL     OW  905   0.515   1.120   2.836  0.8653  0.5192  0.2410
  227SOL    HW1  906   0.581   1.136   2.765  0.5180  0.8958 -0.8158
  227SOL    HW2  907   0.461   1.053   2.789  0.0743  0.5867  0.2278
  227SOL     MW  908   0.517   1.113   2.821  0.7151  0.5778  0.0998
  228SOL     OW  909   0.736   0.963   2.042  0.4993 -0.2337 -0.6558
  228SOL    HW1  910   0.822   1.005   2.042 -1.2313  2.3128  0.3184
  228SOL    HW2  911   0.730   0.910   2.121 -0.0902 -0.7879  1.1297
  228SOL     MW  912   0.747   0.962   2.052  0.1932  0.0292 -0.2917
  229SOL     OW  913   0.164   0.614   3.098  0.5799 -0.1548 -0.0956
  229SOL    HW1  914   0.118   0.583   3.021  0.4638 -0.5445  1.5047
  229SOL    HW2  915   0.180   0.533   3.145 -1.4962  0.2036 -0.8945
  229SOL     MW  916   0.160   0.599   3.094  0.2906 -0.1589  0.0102
  230SOL     OW  917   1.687   1.348   2.049 -0.1764 -0.2513  0.0447
  230SOL    HW1  918   1.625   1.323   2.119 -0.8264  0.9517 -0.4334
  230SOL    HW2  919   1.726   1.269   2.015  2.2776 -0.4868  0.8430
  230SOL     MW  920   1.684   1.334   2.054  0.0616 -0.1237  0.0870
  231SOL     OW  921   2.713   1.253   2.208 -0.0439  0.1726  0.7900
  231SOL    HW1  922   2.792   1.313   2.206 -4.7473 -2.5224 -1.0790
  231SOL    HW2  923   2.677   1.292   2.124 -0.4700 -0.5141 -1.8079
  231SOL     MW  924   2.719   1.266   2.196 -0.7207 -0.2736  0.2006
  232SOL     OW  925   2.263   0.829   2.007 -0.6567 -0.2569 -0.0389
  232SOL    HW1  926   2.191   0.822   1.943 -2.1057 -1.6684  0.0588
  232SOL    HW2  927   2.220   0.856   2.088 -1.3859  2.7557  1.5556
  232SOL     MW  928   2.248   0.832   2.009 -0.9441 -0.0456  0.1843
  233SOL     OW  929   2.044   0.448   2.051  0.4441  0.1221  0.1055
  233SOL    HW1  930   2.132   0.403   2.045 -0.4273 -3.3481  4.0934
  233SOL    HW2  931   2.056   0.500   2.130  0.4914  0.9881 -0.7492
  233SOL     MW  932   2.057   0.449   2.061  0.3354 -0.2215  0.5189
  234SOL     OW  933   0.259   1.067   2.415 -1.0575 -0.0269  0.4043
  234SOL    HW1  934   0.167   1.063   2.399  1.9894 -0.5932  0.1007
  234SOL    HW2  935   0.277   1.156   2.447 -0.4778  1.0229 -2.5542
  234SOL     MW  936   0.250   1.078   2.417 -0.5790  0.0369 -0.0261
  235SOL     OW  937   1.123   3.061   2.730 -0.1113  0.3362 -0.2045
  235SOL    HW1  938   1.138   3.000   2.802  0.2808  0.3747 -0.5675
  235SOL    HW2  939   1.079   3.134   2.771  1.2451  2.0030 -0.6979
  235SOL     MW  940   1.119   3.062   2.745  0.1194  0.5612 -0.3175
  236SOL     OW  941   2.942   0.557   0.113  0.0494 -0.4700  0.8858
  236SOL    HW1  942   2.856   0.597   0.117  1.5495 -3.1859 -1.4149
  236SOL    HW2  943   3.011   0.623   0.139 -0.4644  1.6951  1.8813
  236SOL     MW  944   2.940   0.571   0.117  0.1795 -0.5427  0.7136
  237SOL     OW  945   2.009   1.117   2.188 -0.4891  0.0181 -0.1534
  237SOL    HW1  946   1.921   1.112   2.143 -0.1873 -0.3628 -2.5624
  237SOL    HW2  947   2.046   1.028   2.203  0.5366 -1.1914  2.5930
  237SOL     MW  948   2.002   1.104   2.184 -0.3139 -0.1918 -0.1089
  238SOL     OW  949   1.067   1.841   3.010  0.6158 -0.1392  0.0051
  238SOL    HW1  950   1.045   1.752   2.979  0.9862  0.8393  0.3649
  238SOL    HW2  951   1.158   1.849   3.002 -1.8888  2.3760  1.3624
  238SOL     MW  952   1.076   1.831   3.004  0.3342  0.3218  0.2317
  239SOL     OW  953   1.277   1.370   2.376  0.3199  0.3302  0.7478
  239SOL    HW1  954   1.232   1.429   2.438 -1.5108 -0.4559  1.8123
  239SOL    HW2  955   1.286   1.291   2.426 -2.5947  2.2659  1.6962
  239SOL     MW  956   1.272   1.367   2.391 -0.3062  0.4819  1.0134
  240SOL     OW  957   0.718   0.826   2.277  0.1010  0.3179  0.4266
  240SOL    HW1  958   0.723   0.907   2.322 -0.5034 -0.4561  2.5231
  240SOL    HW2  959   0.814   0.805   2.259  0.8489  0.5636  4.4283
  240SOL     MW  960   0.731   0.834   2.281  0.1199  0.2482  1.2312
  241SOL     OW  961   0.663   0.383   0.032  0.3743  0.6054  0.1345
  241SOL    HW1  962   0.713   0.458   0.060 -0.4066 -0.7236  1.8847
  241SOL    HW2  963   0.583   0.420  -0.015  1.0988 -0.3806 -1.3390
  241SOL     MW  964   0.659   0.397   0.030  0.3668  0.3000  0.1710
  242SOL     OW  965   1.517   1.701   2.340  0.1446  0.4776  0.3976
  242SOL    HW1  966   1.463   1.782   2.348 -1.9279 -0.2578 -1.0833
  242SOL    HW2  967   1.469   1.664   2.267  0.3660  1.2088 -1.0566
  242SOL     MW  968   1.504   1.707   2.331 -0.0997  0.4770  0.0103
  243SOL     OW  969   1.047   0.214   2.512 -0.0273 -0.2629  0.1584
  243SOL    HW1  970   1.098   0.209   2.429 -0.4681  0.9720 -1.7776
  243SOL    HW2  971   1.085   0.290   2.551 -0.2757  2.0758 -1.5921
  243SOL     MW  972   1.058   0.223   2.506 -0.1182  0.2086 -0.3280
  244SOL     OW  973   0.264   0.782   2.432 -0.3230 -0.3459 -0.1966
  244SOL    HW1  974   0.279   0.874   2.409  2.0423  0.3520  0.7534
  244SOL    HW2  975   0.351   0.739   2.433 -0.0305 -0.4426  0.6045
  244SOL     MW  976   0.278   0.789   2.429  0.0277 -0.2666  0.0344
  245SOL     OW  977   1.253   0.206   2.307  0.3355 -0.3105  0.2751
  245SOL    HW1  978   1.314   0.137   2.316  1.6772  1.6035 -0.1611
  245SOL    HW2  979   1.295   0.278   2.346 -0.2036  1.1202 -2.8011
  245SOL     MW  980   1.267   0.206   2.313  0.4414  0.1308 -0.1883
  246SOL     OW  981   1.240   1.201   2.139  0.0954 -0.3660 -1.2309
  246SOL    HW1  982   1.178   1.137   2.191  0.2590  1.3360 -0.6887
  246SOL    HW2  983   1.285   1.243   2.208  0.4599 -2.0511  2.5413
  246SOL     MW  984   1.238   1.198   2.155  0.1651 -0.3638 -0.6617
  247SOL     OW  985   0.767   0.581   0.203  0.1543 -0.2194  0.2826
  247SOL    HW1  986   0.718   0.658   0.195  1.5627 -1.4610 -0.3229
  247SOL    HW2  987   0.858   0.615   0.180 -0.4992  2.3926  0.5151
  247SOL     MW  988   0.773   0.595   0.199  0.2539 -0.0386  0.2334
  248SOL     OW  989   0.324   1.363   2.512 -0.0712 -0.3070  0.4978
  248SOL    HW1  990   0.389   1.380   2.441 -0.6965 -0.0670  0.5188
  248SOL    HW2  991   0.365   1.415   2.587  0.6247  1.3348 -0.7990
  248SOL     MW  992   0.338   1.372   2.512 -0.0619 -0.0587  0.3294
  249SOL     OW  993   0.177   1.906   2.733  0.0098 -0.4557  0.4848
  249SOL    HW1  994   0.143   1.825   2.696  1.3245  3.9093 -1.6951
  249SOL    HW2  995   0.241   1.877   2.801 -0.3515  0.6706 -2.2996
  249SOL     MW  996   0.181   1.892   2.737  0.1356  0.2688 -0.1702
  250SOL     OW  997   2.177   0.908   2.272  0.3192  0.5095 -0.0878
  250SOL    HW1  998   2.221   0.815   2.288 -1.0126  0.8591 -1.0621
  250SOL    HW2  999   2.251   0.963   2.305  3.6777 -2.3411 -1.1128
  250SOL     MW 1000   2.193   0.903   2.278  0.5866  0.1795 -0.3516
  251SOL     OW 1001   0.139   0.867   1.979  0.1282  0.1051 -0.2570
  251SOL    HW1 1002   0.177   0.811   2.037 -1.3326  1.6760 -0.5527
  251SOL    HW2 1003   0.125   0.813   1.906  0.3148  0.2442  1.6826
  251SOL     MW 1004   0.142   0.853   1.977 -0.0399  0.3307 -0.0401
  252SOL     OW 1005   1.724   0.996   2.854  0.0593 -0.4462 -0.1914
  252SOL    HW1 1006   1.744   1.021   2.944  0.6341 -0.4971  0.2570
  252SOL    HW2 1007   1.792   1.031   2.797 -0.3863  0.1885 -2.0976
  252SOL     MW 1008   1.736   1.004   2.858  0.0764 -0.3692 -0.3837
  253SOL     OW 1009   1.198   1.762   2.562 -0.6759  0.1901 -0.2082
  253SOL    HW1 1010   1.212   1.788   2.470 -2.9890 -0.4736  0.6553
  253SOL    HW2 1011   1.107   1.793   2.558  0.2356 -2.8493  0.5591
  253SOL     MW 1012   1.188   1.770   2.549 -0.8608 -0.2985  0.0070
  254SOL     OW 1013   1.078   1.019   2.239 -0.1002 -0.1636  0.2400
  254SOL    HW1 1014   1.042   0.938   2.204 -0.0697  1.0586 -1.9055
  254SOL    HW2 1015   0.995   1.075   2.256 -2.0212  3.8109 -2.3925
  254SOL     MW 1016   1.062   1.016   2.237 -0.3497  0.5221 -0.3904
  255SOL     OW 1017   0.780   2.577   2.159  0.2173  0.0665 -0.2020
  255SOL    HW1 1018   0.699   2.531   2.174  0.0061  0.7082 -0.0885
  255SOL    HW2 1019   0.837   2.535   2.224 -1.0154 -2.8454 -1.0951
  255SOL     MW 1020   0.777   2.566   2.169  0.0268 -0.2331 -0.3049
  256SOL     OW 1021   1.348   2.674   2.955  0.6052 -0.1366  0.1801
  256SOL    HW1 1022   1.337   2.603   2.892 -0.5674  3.6057  1.1096
  256SOL    HW2 1023   1.400   2.739   2.905 -2.4189  1.2508 -1.0490
  256SOL     MW 1024   1.354   2.673   2.940  0.0515  0.5402  0.1406
  257SOL     OW 1025   0.140   1.882   0.073  0.7807 -0.0865  0.2135
  257SOL    HW1 1026   0.157   1.833   0.159 -2.0671 -1.4578  0.2317
  257SOL    HW2 1027   0.176   1.837  -0.003 -0.8444  1.0555 -0.1935
  257SOL     MW 1028   0.147   1.869   0.075  0.1906 -0.1167  0.1622
  258SOL     OW 1029   0.777   1.047   2.449  0.6292 -0.0056  0.3356
  258SOL    HW1 1030   0.817   1.123   2.393  0.5757  2.1908 -0.3682
  258SOL    HW2 1031   0.740   1.076   2.532 -0.3942 -1.7690  0.7166
  258SOL     MW 1032   0.777   1.061   2.453  0.4871  0.0515  0.2930
  259SOL     OW 1033   0.841   0.385   2.375  0.4888  0.2804  0.0724
  259SOL    HW1 1034   0.760   0.365   2.322 -1.5998  1.3731  0.9090
  259SOL    HW2 1035   0.842   0.302   2.421 -4.2070 -0.1614 -1.8324
  259SOL     MW 1036   0.830   0.371   2.374 -0.4063  0.3663 -0.0685
  260SOL     OW 1037   0.506   0.143   1.557  0.3155 -0.0692  0.2518
  260SOL    HW1 1038   0.482   0.056   1.523  0.1741  0.2569 -0.1638
  260SOL    HW2 1039   0.606   0.138   1.572  2.7392  0.6072  0.4365
  260SOL     MW 1040   0.516   0.131   1.554  0.6166  0.0631  0.2213
  261SOL     OW 1041   1.148   0.745   2.017 -0.6217 -0.0792 -0.0357
  261SOL    HW1 1042   1.178   0.728   2.102 -1.5962 -1.4259  0.0024
  261SOL    HW2 1043   1.184   0.668   1.970  1.1749 -3.6791  1.0924
  261SOL     MW 1044   1.157   0.733   2.022 -0.5132 -0.7319  0.1182
  262SOL     OW 1045   1.021   0.313   0.145 -0.1846 -0.7362 -0.0019
  262SOL    HW1 1046   1.119   0.307   0.141  0.5813  1.1574 -0.9541
  262SOL    HW2 1047   0.982   0.232   0.104 -0.3470 -0.6660 -0.8030
  262SOL     MW 1048   1.029   0.301   0.139 -0.1050 -0.4771 -0.2332
  263SOL     OW 1049   0.406   0.016   2.475 -0.2800  0.3448 -0.7259
  263SOL    HW1 1050   0.319   0.058   2.465 -0.6074  2.7338 -1.4771
  263SOL    HW2 1051   0.452   0.028   2.392  0.7522 -0.3651 -1.2369
  263SOL     MW 1052   0.400   0.023   2.463 -0.1870  0.5664 -0.8924
  264SOL     OW 1053   1.469   1.355   1.851 -0.2791  0.2873 -0.8506
  264SOL    HW1 1054   1.397   1.335   1.910 -0.8648 -0.1593  0.1932
  264SOL    HW2 1055   1.535   1.387   1.913  0.4523  0.1322  1.5058
  264SOL     MW 1056   1.468   1.357   1.867 -0.2599  0.2079 -0.4019
  265SOL     OW 1057   0.718   2.805   2.277  0.6719 -0.2400 -0.1342
  265SOL    HW1 1058   0.742   2.721   2.235  0.8595  0.6532 -2.1687
  265SOL    HW2 1059   0.733   2.786   2.370 -0.7655  0.6045  2.9103
  265SOL     MW 1060   0.723   2.791   2.284  0.5070 -0.0107 -0.0009
  266SOL     OW 1061   0.952   0.758   2.216 -0.3270  0.0303 -0.5963
  266SOL    HW1 1062   0.939   0.708   2.135  1.4238  2.1917  0.7570
  266SOL    HW2 1063   1.016   0.714   2.269 -4.0438  0.9094  1.8879
  266SOL     MW 1064   0.959   0.745   2.213 -0.5864  0.4315 -0.0900
  267SOL     OW 1065   1.441   1.775   2.747 -0.0828 -0.0217 -0.5637
  267SOL    HW1 1066   1.445   1.710   2.676 -2.6548  0.2013 -1.3496
  267SOL    HW2 1067   1.379   1.838   2.726 -0.0453 -1.0011  1.1621
  267SOL     MW 1068   1.434   1.775   2.735 -0.4172 -0.1215 -0.4397
  268SOL     OW 1069   0.197   0.827   1.659  0.1478  0.0571  0.1993
  268SOL    HW1 1070   0.150   0.906   1.632  0.4104  1.2120 -1.6454
  268SOL    HW2 1071   0.160   0.749   1.620 -0.1397  2.5984 -1.3756
  268SOL     MW 1072   0.185   0.827   1.650  0.1445  0.5447 -0.2519
  269SOL     OW 1073   1.423   1.956   2.366  0.1874  0.3135  0.4314
  269SOL    HW1 1074   1.493   2.023   2.375 -0.9284  0.4020 -0.7563
  269SOL    HW2 1075   1.345   1.995   2.395 -0.1260  2.8606 -1.2471
  269SOL     MW 1076   1.422   1.970   2.371 -0.0012  0.6613  0.0532
  270SOL     OW 1077   1.116   0.417   1.647 -0.0641  0.8412 -0.3236
  270SOL    HW1 1078   1.086   0.330   1.665 -0.6886  1.0589  0.9506
  270SOL    HW2 1079   1.207   0.406   1.632 -0.2300  0.9141 -2.4598
  270SOL     MW 1080   1.124   0.404   1.647 -0.1684  0.8795 -0.4373
  271SOL     OW 1081   0.851   0.014   2.552 -0.5588 -0.1846  0.4570
  271SOL    HW1 1082   0.875  -0.061   2.600  0.4119  0.8385  0.4149
  271SOL    HW2 1083   0.933   0.061   2.541  1.1368 -0.3106 -0.0962
  271SOL     MW 1084   0.865   0.010   2.557 -0.2070 -0.0662  0.3785
  272SOL     OW 1085   1.467   2.859   2.809 -0.2458 -0.2291 -0.7776
  272SOL    HW1 1086   1.421   2.892   2.735 -1.9607  1.1419 -1.5483
  272SOL    HW2 1087   1.508   2.934   2.848  1.1644  2.3266 -0.1711
  272SOL     MW 1088   1.467   2.873   2.804 -0.2860  0.2890 -0.7993
  273SOL     OW 1089   1.454   0.975   2.816  0.4904 -0.3310 -0.3432
  273SOL    HW1 1090   1.547   0.988   2.825 -2.3936  0.6382  0.7397
  273SOL    HW2 1091   1.413   1.049   2.858  0.5684 -0.3068 -0.7682
  273SOL     MW 1092   1.460   0.986   2.823  0.1202 -0.1999 -0.2564
  274SOL     OW 1093   1.460   0.709   0.104 -0.5903 -0.0656 -0.2096
  274SOL    HW1 1094   1.493   0.647   0.170 -0.7000 -0.7237 -1.7263
  274SOL    HW2 1095   1.370   0.732   0.137  3.0491 -1.8938  1.7279
  274SOL     MW 1096   1.453   0.704   0.117 -0.1246 -0.3936 -0.1541
  275SOL     OW 1097   1.710   0.566   1.742 -0.1378  0.7027 -0.0149
  275SOL    HW1 1098   1.778   0.610   1.795 -0.3698 -1.0424  2.4843
  275SOL    HW2 1099   1.702   0.480   1.782 -0.8052 -1.2101 -0.1608
  275SOL     MW 1100   1.718   0.561   1.755 -0.2564  0.2201  0.2956
  276SOL     OW 1101   0.324   1.207   1.906 -0.0218  0.4630  0.1377
  276SOL    HW1 1102   0.394   1.137   1.919  2.1106 -0.5075 -0.2805
  276SOL    HW2 1103   0.274   1.195   1.985 -1.8048  0.9133 -2.0385
  276SOL     MW 1104   0.327   1.196   1.918  0.0243  0.3943 -0.2046
  277SOL     OW 1105   1.903   1.254   2.397  0.4068 -0.6960  0.0192
  277SOL    HW1 1106   1.964   1.296   2.466  1.8095  0.1789 -0.8662
  277SOL    HW2 1107   1.949   1.190   2.337  2.0217  1.1221 -1.9148
  277SOL     MW 1108   1.917   1.251   2.399  0.8049 -0.3407 -0.3528
  278SOL     OW 1109   1.445   0.600   1.720 -0.5614  0.0862 -0.3233
  278SOL    HW1 1110   1.412   0.571   1.810  0.8180 -0.3610  0.0140
  278SOL    HW2 1111   1.538   0.593   1.738  0.4155 -0.5254 -0.1346
  278SOL     MW 1112   1.453   0.595   1.734 -0.2505 -0.0535 -0.2539
  279SOL     OW 1113   0.600   0.037   2.264  0.4048  0.3707  0.1600
  279SOL    HW1 1114   0.696   0.016   2.272  3.0051  1.5271  0.2409
  279SOL    HW2 1115   0.602   0.128   2.242  1.4603 -1.8708 -2.9179
  279SOL     MW 1116   0.613   0.046   2.262  0.8871  0.2275 -0.2354
  280SOL     OW 1117   1.497   0.970   2.155  0.5606  0.6150 -0.1287
  280SOL    HW1 1118   1.553   0.905   2.116 -1.8951  0.8475  1.4281
  280SOL    HW2 1119   1.489   0.946   2.253 -1.2449 -2.8707 -1.5360
  280SOL     MW 1120   1.504   0.958   2.163 -0.0016  0.1858 -0.1090
  281SOL     OW 1121   1.309   1.354   2.779  0.3633 -0.1657  0.3634
  281SOL    HW1 1122   1.405   1.362   2.771 -2.9316  2.3206 -2.0781
  281SOL    HW2 1123   1.299   1.285   2.842  2.6454  0.7131 -1.2100
  281SOL     MW 1124   1.320   1.346   2.786  0.2297  0.2783 -0.1663
  282SOL     OW 1125   1.113   1.293   1.685  0.5258 -0.4682 -0.5050
  282SOL    HW1 1126   1.076   1.374   1.640 -1.9008 -0.0261  2.7765
  282SOL    HW2 1127   1.058   1.267   1.762  0.2132  2.0999  2.2376
  282SOL     MW 1128   1.101   1.301   1.689  0.1644 -0.0710  0.2898
  283SOL     OW 1129   0.823   1.199   2.992 -0.1214  0.1850 -0.2563
  283SOL    HW1 1130   0.896   1.181   3.054  2.0575  2.2039  2.4919
  283SOL    HW2 1131   0.808   1.291   3.017 -0.7667  1.5078  1.4138
  283SOL     MW 1132   0.831   1.209   3.004  0.0809  0.6259  0.3267
  284SOL     OW 1133   0.508   0.663   2.390 -0.1208  0.0151 -0.0071
  284SOL    HW1 1134   0.586   0.706   2.340 -3.2353  1.9834 -0.7654
  284SOL    HW2 1135   0.480   0.592   2.335 -2.2058  0.6663 -0.8382
  284SOL     MW 1136   0.515   0.659   2.376 -0.8068  0.3607 -0.2168
  285SOL     OW 1137   0.950   0.913   2.815  0.1610 -0.8787 -0.2048
  285SOL    HW1 1138   1.009   0.945   2.748  3.8639 -1.7757  3.2149
  285SOL    HW2 1139   0.903   0.829   2.789 -0.2141  0.5124  0.0359
  285SOL     MW 1140   0.951   0.906   2.803  0.6001 -0.8135  0.2781
  286SOL     OW 1141   1.159   1.506   2.573 -0.3614  0.0846 -0.1660
  286SOL    HW1 1142   1.219   1.490   2.643  2.1287  1.7868 -5.4990
  286SOL    HW2 1143   1.161   1.599   2.581 -1.6902 -3.2172  0.1784
  286SOL     MW 1144   1.167   1.516   2.583 -0.2082 -0.1265 -0.8242
  287SOL     OW 1145   1.134   0.929   0.323  0.3241  0.2722  0.9503
  287SOL    HW1 1146   1.205   0.963   0.377 -1.4194 -1.9754  0.9518
  287SOL    HW2 1147   1.080   1.007   0.311  0.1510  0.3949 -2.3934
  287SOL     MW 1148   1.136   0.944   0.328  0.0712 -0.0082  0.5093
  288SOL     OW 1149   1.536   0.592   2.100  0.2314  0.1250  0.3125
  288SOL    HW1 1150   1.477   0.608   2.172 -3.5326  0.1022 -0.1818
  288SOL    HW2 1151   1.572   0.674   2.061 -0.9451 -0.0779  0.8993
  288SOL     MW 1152   1.533   0.605   2.104 -0.4205  0.0952  0.3247
  289SOL     OW 1153   1.058   1.036   2.576  0.4329 -0.2616  0.1223
  289SOL    HW1 1154   1.092   0.948   2.568  1.9073  2.6510  0.4979
  289SOL    HW2 1155   0.996   1.038   2.506 -0.3704  2.3260 -0.0292
  289SOL     MW 1156   1.054   1.025   2.566  0.5215  0.4641  0.1519
  290SOL     OW 1157   0.837   0.644   1.591  0.3059 -0.5924 -0.1720
  290SOL    HW1 1158   0.869   0.605   1.511 -0.4911 -0.6919  0.3696
  290SOL    HW2 1159   0.910   0.649   1.655 -0.9412 -0.4594  0.8900
  290SOL     MW 1160   0.851   0.639   1.589  0.0362 -0.5880  0.0396
  291SOL     OW 1161   0.222   0.383   0.101 -0.0525  0.2359 -0.6056
  291SOL    HW1 1162   0.273   0.318   0.153  1.5739  1.8686 -0.5232
  291SOL    HW2 1163   0.139   0.350   0.062 -2.5591  0.3550  1.5080
  291SOL     MW 1164   0.218   0.370   0.103 -0.1686  0.4670 -0.3159
  292SOL     OW 1165   1.002   0.591   0.104 -0.3036 -0.2135  0.3626
  292SOL    HW1 1166   1.074   0.644   0.129 -0.7383  1.0050 -2.5006
  292SOL    HW2 1167   1.013   0.500   0.135  1.3452 -0.9484 -2.3373
  292SOL     MW 1168   1.013   0.586   0.111 -0.1434 -0.1497 -0.3714
  293SOL     OW 1169   0.151   0.134   2.420 -0.4118  0.0622 -0.6036
  293SOL    HW1 1170   0.071   0.102   2.373  0.3333  0.4023 -1.3492
  293SOL    HW2 1171   0.135   0.221   2.458  1.0886  1.4502  0.7741
  293SOL     MW 1172   0.138   0.141   2.419 -0.1155  0.2902 -0.5202
  294SOL     OW 1173   1.478   0.638   2.363 -0.1771 -0.5797 -0.1019
  294SOL    HW1 1174   1.506   0.691   2.444 -1.4969  3.1255  2.2226
  294SOL    HW2 1175   1.456   0.552   2.385 -2.3789 -0.6606 -3.5071
  294SOL     MW 1176   1.479   0.634   2.377 -0.6417 -0.1015 -0.2445
  295SOL     OW 1177   0.942   0.578   2.526  0.6930 -0.1666  0.3017
  295SOL    HW1 1178   0.913   0.499   2.475 -0.1932 -2.5994 -2.1325
  295SOL    HW2 1179   0.876   0.613   2.580  0.8333 -3.5527 -0.5429
  295SOL     MW 1180   0.929   0.572   2.527  0.5946 -0.9343 -0.1309
  296SOL     OW 1181   1.320   0.259   2.050  0.2017 -0.0683 -0.4126
  296SOL    HW1 1182   1.395   0.202   2.036  0.8694  0.5120 -1.3390
  296SOL    HW2 1183   1.304   0.248   2.151  1.0661 -1.9027 -1.1410
  296SOL     MW 1184   1.328   0.250   2.061  0.4039 -0.2338 -0.6310
  297SOL     OW 1185   1.389   0.354   1.622  0.4793 -0.4290 -0.0286
  297SOL    HW1 1186   1.418   0.440   1.663 -2.1800  4.3485 -1.7591
  297SOL    HW2 1187   1.436   0.284   1.670 -0.8585  2.0955  1.8431
  297SOL     MW 1188   1.399   0.356   1.634 -0.0481  0.5344 -0.0100
  298SOL     OW 1189   1.645   0.795   1.985 -0.1824 -0.0029 -0.0991
  298SOL    HW1 1190   1.646   0.874   1.935  0.6786  1.1460  1.5342
  298SOL    HW2 1191   1.725   0.792   2.047 -1.3085  3.5320  1.9368
  298SOL     MW 1192   1.656   0.805   1.987 -0.2173  0.6151  0.3850
  299SOL     OW 1193   0.573   1.076   0.058 -0.0107 -0.1012  0.2484
  299SOL    HW1 1194   0.615   1.093  -0.021 -0.2464 -1.6153 -0.9906
  299SOL    HW2 1195   0.480   1.054   0.047  1.1209 -4.0849  1.2893
  299SOL     MW 1196   0.566   1.075   0.046  0.1075 -0.8265  0.2223
  300SOL     OW 1197   1.294   1.135   2.527 -0.2150  0.0981  0.1095
  300SOL    HW1 1198   1.208   1.120   2.567 -2.6430  3.8969 -0.5800
  300SOL    HW2 1199   1.356   1.119   2.594 -0.9216  0.6352 -1.3913
  300SOL     MW 1200   1.291   1.131   2.541 -0.6286  0.6702 -0.1795
  301SOL     OW 1201   1.468   0.910   0.642 -0.3123 -0.1744  0.4555
  301SOL    HW1 1202   1.477   0.952   0.730  0.1130  3.3349 -3.6369
  301SOL    HW2 1203   1.385   0.868   0.644  0.5615  1.4590 -1.1844
  301SOL     MW 1204   1.458   0.910   0.654 -0.1409  0.5041 -0.3008
  302SOL     OW 1205   0.120   1.523   2.000 -0.0960  0.5298 -0.2194
  302SOL    HW1 1206   0.139   1.479   2.086  4.1193 -0.5475  1.5026
  302SOL    HW2 1207   0.037   1.580   2.017 -0.0719 -0.0105  0.3505
  302SOL     MW 1208   0.111   1.524   2.014  0.4634  0.3164  0.0830
  303SOL     OW 1209   0.400   1.747   2.593  0.5191  0.3315 -0.6499
  303SOL    HW1 1210   0.391   1.716   2.501  0.2185  0.6020 -0.4903
  303SOL    HW2 1211   0.314   1.789   2.620 -0.4601  1.8493  1.4663
  303SOL     MW 1212   0.387   1.749   2.584  0.3503  0.5674 -0.3496
  304SOL     OW 1213   0.571   2.076   2.370 -0.1079  0.3440  0.4248
  304SOL    HW1 1214   0.623   2.132   2.306 -0.8839 -1.3951  1.1953
  304SOL    HW2 1215   0.632   2.001   2.391  2.1086  1.0318 -0.0688
  304SOL     MW 1216   0.586   2.074   2.364  0.0821  0.2053  0.4613
  305SOL     OW 1217   1.106   0.575   0.456 -0.5793 -0.3095  0.2442
  305SOL    HW1 1218   1.009   0.576   0.451 -1.5714 -1.3713  0.9564
  305SOL    HW2 1219   1.112   0.483   0.488 -1.1069 -1.3328 -0.2427
  305SOL     MW 1220   1.094   0.563   0.460 -0.7798 -0.5846  0.2739
  306SOL     OW 1221   1.164   1.452   0.275  0.2659 -0.2630  0.2582
  306SOL    HW1 1222   1.219   1.378   0.313  3.3657  2.0527 -2.7278
  306SOL    HW2 1223   1.218   1.484   0.202 -3.1934 -2.7902  0.5964
  306SOL     MW 1224   1.178   1.446   0.270  0.2185 -0.2909 -0.0911
  307SOL     OW 1225   1.314   0.527   1.955 -0.2450  0.6224 -0.4351
  307SOL    HW1 1226   1.297   0.430   1.963 -1.7773 -1.9303  1.5191
  307SOL    HW2 1227   1.372   0.558   2.028  0.5401 -0.4216  0.7796
  307SOL     MW 1228   1.320   0.518   1.966 -0.3436  0.1478 -0.0170
  308SOL     OW 1229   2.149   0.542   2.720  0.1262 -0.0599 -0.2433
  308SOL    HW1 1230   2.230   0.533   2.760 -2.1902 -2.3875  0.3927
  308SOL    HW2 1231   2.138   0.640   2.699  3.4989 -0.3874 -0.2551
  308SOL     MW 1232   2.158   0.554   2.722  0.2656 -0.4102 -0.1609
  309SOL     OW 1233   0.461   0.432   0.352  0.0804  0.7058  0.0274
  309SOL    HW1 1234   0.538   0.387   0.385  0.8667 -0.6610 -0.6685
  309SOL    HW2 1235   0.464   0.407   0.260 -2.9965 -0.1377  0.2921
  309SOL     MW 1236   0.472   0.423   0.344 -0.2218  0.4141 -0.0295
  310SOL     OW 1237   0.455   0.645   1.943 -0.8657  0.3162  0.2471
  310SOL    HW1 1238   0.492   0.563   1.903 -1.8935  0.9032  3.3065
  310SOL    HW2 1239   0.508   0.711   1.893  2.3959  1.5288 -1.9973
  310SOL     MW 1240   0.467   0.643   1.931 -0.5710  0.5537  0.3546
  311SOL     OW 1241   1.926   0.638   1.905  0.0556 -0.3181  0.1742
  311SOL    HW1 1242   1.902   0.672   1.996 -0.8444  1.7888  1.5655
  311SOL    HW2 1243   1.980   0.567   1.939 -2.0954  0.6877  1.0636
  311SOL     MW 1244   1.930   0.633   1.921 -0.3470  0.0926  0.4751
  312SOL     OW 1245   1.786   2.513   0.124  0.9158 -0.4989 -0.1774
  312SOL    HW1 1246   1.861   2.544   0.176  1.8428 -0.2160 -0.7612
  312SOL    HW2 1247   1.704   2.557   0.163  0.3540  0.5314 -0.7522
  312SOL     MW 1248   1.785   2.523   0.136  0.9640 -0.3256 -0.3303
  313SOL     OW 1249   0.123   1.088   2.974  0.2655 -0.4975 -0.5509
  313SOL    HW1 1250   0.088   1.098   3.063  1.0103 -1.7192  0.5485
  313SOL    HW2 1251   0.193   1.147   2.961  1.7002 -3.1540 -0.3165
  313SOL     MW 1252   0.127   1.097   2.984  0.5531 -1.0092 -0.3749
  314SOL     OW 1253   2.183   2.949   2.958  0.0037  0.9508 -0.0506
  314SOL    HW1 1254   2.112   2.994   2.913  1.2582 -3.1617 -0.3914
  314SOL    HW2 1255   2.238   3.017   2.998  0.2179 -0.2485 -1.6457
  314SOL     MW 1256   2.181   2.964   2.957  0.1975  0.2500 -0.3060
  315SOL     OW 1257   1.507   1.956   0.025 -0.0483 -0.6160  0.0462
  315SOL    HW1 1258   1.414   1.974   0.047  0.1332 -0.3286 -1.3902
  315SOL    HW2 1259   1.545   2.017  -0.040  2.9375  0.5610 -0.3004
  315SOL     MW 1260   1.499   1.966   0.020  0.3696 -0.4228 -0.1890
  316SOL     OW 1261   1.265   0.651   2.718  0.5798 -0.0429  0.2162
  316SOL    HW1 1262   1.342   0.679   2.673  1.3302 -0.7913 -1.1038
  316SOL    HW2 1263   1.288   0.687   2.804  1.4851  0.5887  1.9587
  316SOL     MW 1264   1.278   0.660   2.723  0.7983 -0.0583  0.2720
  317SOL     OW 1265   0.713   1.413   2.565 -0.4342 -0.3076 -0.5212
  317SOL    HW1 1266   0.802   1.367   2.571 -0.7323 -1.0748 -1.6038
  317SOL    HW2 1267   0.725   1.463   2.474 -0.2407 -0.0582 -1.7358
  317SOL     MW 1268   0.726   1.414   2.554 -0.4480 -0.3759 -0.8243
  318SOL     OW 1269   1.329   0.352   2.917 -0.2152 -0.1650  0.0088
  318SOL    HW1 1270   1.245   0.411   2.910 -1.0400  2.6677 -0.6958
  318SOL    HW2 1271   1.407   0.406   2.944 -0.0338 -0.3551  1.4757
  318SOL     MW 1272   1.328   0.367   2.920 -0.3001  0.1837  0.1094
  319SOL     OW 1273   0.802   0.438   2.888 -0.4458  0.1032 -0.0579
  319SOL    HW1 1274   0.790   0.364   2.829  0.7450  1.5254 -1.7818
  319SOL    HW2 1275   0.756   0.422   2.969  2.1300  0.8809  0.6303
  319SOL     MW 1276   0.794   0.426   2.891  0.0512  0.3935 -0.1946
  320SOL     OW 1277   1.056   1.347   2.003 -0.1088 -0.2254  0.9395
  320SOL    HW1 1278   1.115   1.310   2.072 -0.0012  2.7981  1.2312
  320SOL    HW2 1279   1.115   1.418   1.969  1.3859 -0.1405 -0.4096
  320SOL     MW 1280   1.072   1.352   2.008  0.1026  0.1848  0.8000
  321SOL     OW 1281   1.166   0.911   3.036  0.1380 -0.4377  0.0411
  321SOL    HW1 1282   1.093   0.906   2.979 -0.1128  1.1020 -0.6534
  321SOL    HW2 1283   1.228   0.839   3.018  1.6973  1.7665 -0.5881
  321SOL     MW 1284   1.165   0.901   3.026  0.3106  0.0563 -0.1336
  322SOL     OW 1285   1.260   0.865   1.687 -0.3454  0.2781  0.2486
  322SOL    HW1 1286   1.344   0.825   1.702 -2.7152  0.1059 -1.5665
  322SOL    HW2 1287   1.240   0.912   1.772 -0.5417 -0.3656 -0.3201
  322SOL     MW 1288   1.268   0.866   1.700 -0.6840  0.1705 -0.0659
  323SOL     OW 1289   1.227   1.555   1.913 -0.4030 -1.0441  0.4642
  323SOL    HW1 1290   1.255   1.564   1.818 -0.4841  1.4426 -1.1269
  323SOL    HW2 1291   1.172   1.630   1.935  0.1725  0.7445  0.6361
  323SOL     MW 1292   1.223   1.566   1.904 -0.3377 -0.4800  0.2770
  324SOL     OW 1293   1.474   0.959   2.418 -0.0254 -0.2922  0.0521
  324SOL    HW1 1294   1.393   1.005   2.454  2.8600 -5.0096 -0.3060
  324SOL    HW2 1295   1.546   1.026   2.420 -1.4112  0.6973 -2.2817
  324SOL     MW 1296   1.473   0.974   2.423  0.1725 -0.7840 -0.3031
  325SOL     OW 1297   1.050   0.471   2.963  0.3536  0.4206 -0.6769
  325SOL    HW1 1298   1.034   0.512   3.047  0.9613  1.3278 -0.4104
  325SOL    HW2 1299   0.964   0.460   2.908  0.4530  0.5332  0.5921
  325SOL     MW 1300   1.036   0.475   2.967  0.4469  0.5551 -0.4743
  326SOL     OW 1301   0.474   1.383   2.281 -0.5717 -0.0795  1.1225
  326SOL    HW1 1302   0.525   1.320   2.234  0.0457 -0.8620  3.6714
  326SOL    HW2 1303   0.483   1.462   2.235  0.0751 -0.9515  0.0391
  326SOL     MW 1304   0.482   1.385   2.269 -0.4049 -0.2978  1.3158
  327SOL     OW 1305   1.935   0.800   2.439 -0.0406  0.0905  0.2459
  327SOL    HW1 1306   1.921   0.749   2.519 -1.0629 -0.9060  0.9768
  327SOL    HW2 1307   1.999   0.862   2.463  0.6622  1.1183  1.1580
  327SOL     MW 1308   1.942   0.802   2.453 -0.0828  0.0946  0.4626
  328SOL     OW 1309   0.187   1.348   2.250  0.1275  0.9066 -0.2415
  328SOL    HW1 1310   0.157   1.269   2.211  2.1599  1.8500  1.2257
  328SOL    HW2 1311   0.286   1.351   2.242  1.3685  0.7821  0.6965
  328SOL     MW 1312   0.196   1.338   2.244  0.5594  1.0147  0.0758
  329SOL     OW 1313   0.149   0.223   1.335  0.0394  0.4171  0.6702
  329SOL    HW1 1314   0.138   0.211   1.431  1.7381  2.2928 -2.0284
  329SOL    HW2 1315   0.229   0.271   1.332 -0.8340 -1.3689  1.5449
  329SOL     MW 1316   0.158   0.228   1.347  0.1483  0.4289  0.4295
  330SOL     OW 1317   0.377   0.009   2.075 -0.4930  0.2029  0.1410
  330SOL    HW1 1318   0.466   0.003   2.114  1.9602 -0.1535 -0.8696
  330SOL    HW2 1319   0.318  -0.043   2.137 -0.7722  0.9701  2.3850
  330SOL     MW 1320   0.381   0.002   2.089 -0.2061  0.2571  0.3038
  331SOL     OW 1321   0.890   1.220   2.276  0.1649  0.1082 -0.2438
  331SOL    HW1 1322   0.809   1.240   2.220  1.3839  2.3887 -2.6163
  331SOL    HW2 1323   0.920   1.302   2.324  1.5920 -0.8088 -1.0250
  331SOL     MW 1324   0.884   1.233   2.275  0.5140  0.2881 -0.6599
  332SOL     OW 1325   1.332   1.769   2.995  0.2747  0.8151 -0.5735
  332SOL    HW1 1326   1.366   1.762   2.905 -0.7442  1.4335 -1.0419
  332SOL    HW2 1327   1.400   1.809   3.046 -1.1936 -2.8757 -2.7511
  332SOL     MW 1328   1.345   1.773   2.990 -0.0535  0.4097 -0.9226
  333SOL     OW 1329   1.781   1.388   2.981  0.7453  0.2438 -0.0578
  333SOL    HW1 1330   1.852   1.435   3.012  0.3356 -1.2744  0.1999
  333SOL    HW2 1331   1.745   1.355   3.064  0.8315 -1.6439  0.1416
  333SOL     MW 1332   1.786   1.390   2.996  0.7026 -0.2055  0.0025
  334SOL     OW 1333   1.378   0.006   2.618 -0.6737  0.2444 -0.0326
  334SOL    HW1 1334   1.290   0.007   2.655 -0.8198  1.3212  2.0885
  334SOL    HW2 1335   1.419   0.086   2.653  3.4240 -0.9957 -0.8982
  334SOL     MW 1336   1.372   0.016   2.628 -0.1524  0.2229  0.1330
  335SOL     OW 1337   1.369   0.757   2.946  0.1072 -0.2948 -0.0307
  335SOL    HW1 1338   1.420   0.734   3.024 -1.6192 -1.0286  1.9597
  335SOL    HW2 1339   1.400   0.834   2.902  0.4471 -1.0560 -0.8299
  335SOL     MW 1340   1.379   0.764   2.950 -0.0757 -0.4920  0.1265
  336SOL     OW 1341   0.961   1.100   1.942  0.1399  0.6887 -0.3668
  336SOL    HW1 1342   0.970   1.198   1.964  0.3340  0.9649 -2.8446
  336SOL    HW2 1343   1.046   1.056   1.947 -0.1146  1.3686 -4.4659
  336SOL     MW 1344   0.973   1.107   1.946  0.1320  0.8148 -1.2345
  337SOL     OW 1345   0.589   1.834   2.792 -0.0755 -0.1968 -0.2785
  337SOL    HW1 1346   0.519   1.822   2.734  0.2980 -1.7117 -0.5343
  337SOL    HW2 1347   0.660   1.789   2.742  1.0047 -0.4014  1.9588
  337SOL     MW 1348   0.589   1.826   2.777  0.1163 -0.4237 -0.0171
  338SOL     OW 1349   1.121   0.771   2.535  0.0690 -0.6188 -0.2522
  338SOL    HW1 1350   1.041   0.713   2.518 -2.6780 -0.4257 -1.0860
  338SOL    HW2 1351   1.180   0.730   2.605  1.4029 -0.8001  1.5454
  338SOL     MW 1352   1.118   0.758   2.542 -0.1175 -0.6173 -0.1250
  339SOL     OW 1353   1.474   1.027   1.828 -0.2003  0.0065  0.1089
  339SOL    HW1 1354   1.431   1.080   1.764 -1.7222 -0.8274  1.6920
  339SOL    HW2 1355   1.425   1.028   1.907 -1.4552 -3.2638  0.7747
  339SOL     MW 1356   1.462   1.034   1.830 -0.5667 -0.5350  0.4056
  340SOL     OW 1357   1.304   1.547   0.066 -0.2375 -0.1055  0.1245
  340SOL    HW1 1358   1.309   1.628   0.021  1.3968  0.3314 -1.0920
  340SOL    HW2 1359   1.393   1.521   0.085 -2.1384 -0.0262  0.0898
  340SOL     MW 1360   1.317   1.554   0.062 -0.2727 -0.0374 -0.0406
  341SOL     OW 1361   0.147   1.423   2.750 -0.6507  0.0432  0.0110
  341SOL    HW1 1362   0.237   1.399   2.764  1.2943 -0.2496 -0.2122
  341SOL    HW2 1363   0.116   1.371   2.674  1.7317 -1.7652 -0.6660
  341SOL     MW 1364   0.155   1.413   2.742 -0.0797 -0.2340 -0.1077
  342SOL     OW 1365   1.299   0.336   0.090  0.0671 -0.4964  0.4771
  342SOL    HW1 1366   1.353   0.399   0.132 -0.6891  0.9433  2.8299
  342SOL    HW2 1367   1.316   0.345  -0.004 -0.6675 -0.0617 -0.4435
  342SOL     MW 1368   1.308   0.346   0.083 -0.1296 -0.2491  0.6660
  343SOL     OW 1369   0.245   0.278   2.153  0.7456 -0.5244  0.0367
  343SOL    HW1 1370   0.245   0.222   2.235  1.1637  0.3088 -0.6733
  343SOL    HW2 1371   0.176   0.239   2.097 -2.0547 -0.6967  3.0098
  343SOL     MW 1372   0.236   0.265   2.157  0.4313 -0.4372  0.3353
  344SOL     OW 1373   1.747   2.053   0.169 -0.2389 -0.3803 -0.1937
  344SOL    HW1 1374   1.724   2.131   0.122 -0.1734 -3.6472 -1.8895
  344SOL    HW2 1375   1.668   2.009   0.178  3.7668 -1.9805  0.4123
  344SOL     MW 1376   1.733   2.057   0.164  0.2983 -1.0225 -0.3375
  345SOL     OW 1377   0.772   1.579   2.342 -0.5314 -0.3618 -0.2637
  345SOL    HW1 1378   0.699   1.590   2.285 -0.4409  0.6896  3.0685
  345SOL    HW2 1379   0.841   1.556   2.282  0.1426  0.6607  2.8941
  345SOL     MW 1380   0.771   1.577   2.327 -0.4306 -0.0882  0.5926
  346SOL     OW 1381   1.779   1.055   0.009  0.3231  0.2537  0.2987
  346SOL    HW1 1382   1.852   1.093   0.058 -1.2254  3.6071  2.1122
  346SOL    HW2 1383   1.730   1.014   0.079  2.1723  1.5109  1.8301
  346SOL     MW 1384   1.782   1.055   0.025  0.3628  0.8620  0.7400
  347SOL     OW 1385   1.229   0.706   2.292 -0.4209 -0.3686  0.2603
  347SOL    HW1 1386   1.322   0.705   2.317  1.3299  1.5579  0.4534
  347SOL    HW2 1387   1.188   0.738   2.374 -1.4745 -0.7106  1.7550
  347SOL     MW 1388   1.236   0.710   2.306 -0.3290 -0.1596  0.4830
  348SOL     OW 1389   1.402   2.690   1.925 -0.6363  0.1404  0.5183
  348SOL    HW1 1390   1.422   2.594   1.952 -0.9669  0.4318  3.5838
  348SOL    HW2 1391   1.434   2.737   1.999  1.7141  1.9343 -1.6713
  348SOL     MW 1392   1.409   2.683   1.938 -0.3698  0.4155  0.6339
  349SOL     OW 1393   1.469   0.272   2.703 -0.8918 -0.3735 -0.3554
  349SOL    HW1 1394   1.402   0.310   2.757 -0.1156 -1.4045  1.7806
  349SOL    HW2 1395   1.555   0.270   2.756  1.3112  1.0922 -0.0206
  349SOL     MW 1396   1.472   0.277   2.717 -0.4987 -0.3161 -0.0294
  350SOL     OW 1397   1.831   0.636   2.665 -0.4624  0.0531 -0.4256
  350SOL    HW1 1398   1.811   0.570   2.589  1.5988 -0.1965 -0.2682
  350SOL    HW2 1399   1.923   0.608   2.692  1.4141 -1.2088  0.7905
  350SOL     MW 1400   1.841   0.623   2.658  0.0571 -0.1463 -0.2444
  351SOL     OW 1401   0.069   1.011   1.506  0.1925  0.4732  0.3834
  351SOL    HW1 1402   0.008   1.039   1.577  2.1612  1.3868  2.6455
  351SOL    HW2 1403   0.152   1.051   1.533  2.3652  2.0732  3.9789
  351SOL     MW 1404   0.072   1.020   1.519  0.7389  0.8048  1.1562
  352SOL     OW 1405   0.822   1.649   2.683 -0.0464 -0.0787  0.2195
  352SOL    HW1 1406   0.888   1.609   2.747  0.5281 -1.8414  0.8435
  352SOL    HW2 1407   0.782   1.575   2.638  1.5557  2.3797 -0.8447
  352SOL     MW 1408   0.826   1.634   2.685  0.2408  0.0131  0.1614
  353SOL     OW 1409   3.054   2.521   2.642 -0.0491  0.2188  0.0649
  353SOL    HW1 1410   3.138   2.536   2.605 -0.8706 -0.3448  0.1009
  353SOL    HW2 1411   3.001   2.606   2.641 -0.9617  2.4491  2.1916
  353SOL     MW 1412   3.058   2.534   2.637 -0.2779  0.4387  0.3503
  354SOL     OW 1413   0.275   2.497   0.794 -0.6714 -0.5694 -0.0466
  354SOL    HW1 1414   0.336   2.456   0.860 -1.0874 -1.3439  2.2849
  354SOL    HW2 1415   0.203   2.432   0.795 -2.0072 -1.1780  2.6992
  354SOL     MW 1416   0.274   2.483   0.803 -0.9025 -0.7519  0.6233
  355SOL     OW 1417   0.063   2.269   0.389 -0.4353 -0.2090  0.6048
  355SOL    HW1 1418  -0.010   2.207   0.397 -0.4167  0.8315 -0.5868
  355SOL    HW2 1419   0.026   2.333   0.452 -2.5487 -0.8964  0.6559
  355SOL     MW 1420   0.049   2.269   0.398 -0.7117 -0.1624  0.4543
  356SOL     OW 1421   0.814   2.813   0.965  0.4566  0.2517  0.4642
  356SOL    HW1 1422   0.834   2.865   0.880 -0.6263  3.2939  0.8982
  356SOL    HW2 1423   0.717   2.807   0.960  2.8734  0.8171  0.0503
  356SOL     MW 1424   0.804   2.819   0.953  0.6326  0.7277  0.4668
  357SOL     OW 1425   1.785   2.913   0.420 -0.0822 -0.3852  0.1844
  357SOL    HW1 1426   1.719   2.849   0.458 -0.7107 -0.7865  0.4310
  357SOL    HW2 1427   1.876   2.886   0.414  1.2690  0.0189 -1.6585
  357SOL     MW 1428   1.788   2.901   0.424  0.0132 -0.3848 -0.0262
  358SOL     OW 1429   0.470   0.169   1.085 -0.3785  0.5943 -0.3037
  358SOL    HW1 1430   0.549   0.116   1.059  1.3092  0.9852  2.0352
  358SOL    HW2 1431   0.423   0.187   0.995 -0.3062  0.6802 -0.7488
  358SOL     MW 1432   0.474   0.165   1.070 -0.1463  0.6572 -0.0538
  359SOL     OW 1433   0.877   2.944   1.886  0.0321 -0.1033  0.2308
  359SOL    HW1 1434   0.874   2.846   1.883 -2.6608  1.7289  2.8160
  359SOL    HW2 1435   0.927   2.979   1.809  0.5881  1.2138 -0.1264
  359SOL     MW 1436   0.883   2.936   1.875 -0.2498  0.3122  0.5248
  360SOL     OW 1437   0.555   2.763   0.940  0.4018  0.2000 -0.6808
  360SOL    HW1 1438   0.553   2.714   0.860  0.4744 -1.1653 -0.4736
  360SOL    HW2 1439   0.557   2.704   1.020  0.4189 -1.0199  1.1515
  360SOL     MW 1440   0.555   2.749   0.940  0.4137 -0.1411 -0.4117
  361SOL     OW 1441   0.170   2.655   1.368  0.2857 -0.6323 -0.0937
  361SOL    HW1 1442   0.143   2.735   1.416 -1.4509 -0.9380  0.3832
  361SOL    HW2 1443   0.265   2.654   1.378 -0.6518 -1.3242  0.8960
  361SOL     MW 1444   0.179   2.665   1.375 -0.0671 -0.7639  0.0998
  362SOL     OW 1445   1.495   2.412   0.616 -0.1635 -0.3646  0.6322
  362SOL    HW1 1446   1.480   2.359   0.695 -0.9351  0.3097 -0.0209
  362SOL    HW2 1447   1.485   2.501   0.642  2.3401  0.2822 -1.0755
  362SOL     MW 1448   1.492   2.417   0.630  0.0651 -0.1903  0.3207
  363SOL     OW 1449   0.339   3.059   0.691 -0.0760  0.0617 -0.0836
  363SOL    HW1 1450   0.335   3.002   0.775 -0.1777 -1.7628  0.2659
  363SOL    HW2 1451   0.250   3.058   0.664 -2.6364  0.8178 -0.6904
  363SOL     MW 1452   0.327   3.051   0.698 -0.4273 -0.0793 -0.1175
  364SOL     OW 1453   0.710   0.186   0.234 -0.1775 -0.1328  0.1327
  364SOL    HW1 1454   0.630   0.129   0.220  0.3053 -0.5459  1.1671
  364SOL    HW2 1455   0.704   0.256   0.171 -1.1578 -0.9459  0.3872
  364SOL     MW 1456   0.699   0.188   0.224 -0.2431 -0.2945  0.3028
  365SOL     OW 1457   0.975   1.991   1.088  0.0703  0.0682  0.1096
  365SOL    HW1 1458   0.960   2.085   1.064  0.6291  2.9633 -3.4341
  365SOL    HW2 1459   0.904   1.942   1.048  1.1363 -0.7154  0.1580
  365SOL     MW 1460   0.964   1.997   1.080  0.2847  0.3468 -0.3516
  366SOL     OW 1461   2.818   2.659   1.017  0.2893  0.0747 -0.0768
  366SOL    HW1 1462   2.902   2.662   1.078 -0.8742  0.2407  0.9502
  366SOL    HW2 1463   2.846   2.677   0.928  0.3480  1.4522  2.9639
  366SOL     MW 1464   2.833   2.662   1.014  0.1435  0.2783  0.4599
  367SOL     OW 1465   1.268   2.962   0.842 -0.3309  0.3882  0.1811
  367SOL    HW1 1466   1.273   3.037   0.784  0.7723  0.9867  0.0441
  367SOL    HW2 1467   1.227   2.885   0.793 -1.9019  1.8632 -2.0729
  367SOL     MW 1468   1.263   2.962   0.828 -0.3927  0.6618 -0.1344
  368SOL     OW 1469   1.628   0.418   0.681 -0.6714 -0.0792 -0.1470
  368SOL    HW1 1470   1.715   0.378   0.668  1.2738 -2.2417 -1.4197
  368SOL    HW2 1471   1.647   0.512   0.689 -1.2173 -2.5778 -1.9185
  368SOL     MW 1472   1.642   0.425   0.681 -0.4867 -0.6942 -0.5487
  369SOL     OW 1473   0.127   2.522   1.686  0.3445 -0.4247  0.3017
  369SOL    HW1 1474   0.225   2.537   1.691 -2.0214  0.0067  1.7080
  369SOL    HW2 1475   0.101   2.605   1.725  4.5630 -0.0201  0.1428
  369SOL     MW 1476   0.136   2.535   1.692  0.5889 -0.3144  0.4663
  370SOL     OW 1477   0.711   0.086   1.013 -0.1459  0.1925  0.7163
  370SOL    HW1 1478   0.735   0.181   1.025  0.6771 -0.0679  0.5782
  370SOL    HW2 1479   0.794   0.050   0.987  0.9949  1.6169 -0.7005
  370SOL     MW 1480   0.725   0.094   1.011  0.1132  0.3461  0.5112
  371SOL     OW 1481   1.314   2.904   1.533 -0.9364  0.0562  0.2349
  371SOL    HW1 1482   1.265   2.825   1.505 -0.9251 -1.4675  0.0669
  371SOL    HW2 1483   1.298   2.966   1.458  0.4555  0.3774 -1.4579
  371SOL     MW 1484   1.305   2.902   1.520 -0.7512 -0.1025 -0.0106
  372SOL     OW 1485   0.760   2.316   0.456 -0.2716  0.3621  0.2420
  372SOL    HW1 1486   0.714   2.234   0.472  1.7871  1.5709 -0.0296
  372SOL    HW2 1487   0.811   2.300   0.378 -0.4799  2.5915  0.3836
  372SOL     MW 1488   0.761   2.303   0.447 -0.0275  0.8158  0.2248
  373SOL     OW 1489   2.754   3.012   1.448  0.0328 -0.2185  0.6476
  373SOL    HW1 1490   2.825   2.962   1.416 -2.4485 -1.1194  0.0610
  373SOL    HW2 1491   2.737   3.077   1.382  1.6891 -1.7439  0.8828
  373SOL     MW 1492   2.761   3.014   1.435 -0.0760 -0.5386  0.6013
  374SOL     OW 1493   1.504   0.464   0.250  0.4779 -0.0521  0.1838
  374SOL    HW1 1494   1.539   0.373   0.232  0.8553 -0.9797  1.9733
  374SOL    HW2 1495   1.476   0.447   0.341 -0.7978  1.9961  0.3028
  374SOL     MW 1496   1.505   0.449   0.260  0.3594  0.0958  0.4356
  375SOL     OW 1497   0.971   2.090   2.299 -0.6122  0.5926 -0.0046
  375SOL    HW1 1498   1.054   2.096   2.354 -0.9119  0.6599 -1.2428
  375SOL    HW2 1499   0.991   2.049   2.210 -3.3589 -0.1323 -4.4711
  375SOL     MW 1500   0.985   2.085   2.295 -1.0142  0.5058 -0.7573
  376SOL     OW 1501   0.681   2.576   0.065  0.2408 -0.1459  0.3679
  376SOL    HW1 1502   0.644   2.531   0.146  2.8344  3.5586 -2.8397
  376SOL    HW2 1503   0.653   2.517  -0.005  4.2910  0.2125 -0.1802
  376SOL     MW 1504   0.673   2.562   0.067  1.1174  0.3902 -0.1276
  377SOL     OW 1505   1.278   2.019   0.868 -0.1016 -0.3721  0.2165
  377SOL    HW1 1506   1.216   1.976   0.809  1.1753 -0.0249 -0.5702
  377SOL    HW2 1507   1.267   1.983   0.954  0.1507 -1.0175 -2.0441
  377SOL     MW 1508   1.269   2.009   0.871  0.1001 -0.4114 -0.1855
  378SOL     OW 1509   0.947   2.795   1.598 -0.5720  0.2172 -0.8033
  378SOL    HW1 1510   0.889   2.724   1.584 -0.5178 -0.2824  0.3047
  378SOL    HW2 1511   0.920   2.857   1.526 -0.3590 -0.2798 -2.8186
  378SOL     MW 1512   0.936   2.794   1.587 -0.5368  0.0857 -0.9230
  379SOL     OW 1513   1.169   1.766   2.275  0.1146  0.0734  0.5960
  379SOL    HW1 1514   1.075   1.759   2.261  0.0601 -1.5829 -3.3360
  379SOL    HW2 1515   1.211   1.695   2.226 -0.3825  0.4392 -0.6682
  379SOL     MW 1516   1.162   1.756   2.266  0.0418 -0.0969 -0.0896
  380SOL     OW 1517   0.772   0.094   1.587 -0.1075  0.6682  0.5441
  380SOL    HW1 1518   0.792   0.028   1.515  2.0432 -0.5878  2.6634
  380SOL    HW2 1519   0.857   0.138   1.594 -0.4853 -0.7920  1.2544
  380SOL     MW 1520   0.786   0.091   1.578  0.1264  0.3098  0.9174
  381SOL     OW 1521   0.810   2.039   0.779  0.2053 -0.1466 -0.1740
  381SOL    HW1 1522   0.897   2.005   0.769 -0.6592 -1.3740 -1.2169
  381SOL    HW2 1523   0.840   2.133   0.797  0.0357  1.2932  1.0488
  381SOL     MW 1524   0.826   2.047   0.780  0.0688 -0.1186 -0.1503
  382SOL     OW 1525   0.666   0.104   0.721  0.1291 -0.4052  0.3247
  382SOL    HW1 1526   0.669   0.086   0.821  2.2266 -0.8258 -1.7105
  382SOL    HW2 1527   0.617   0.027   0.692 -1.6759 -1.3806 -0.1527
  382SOL     MW 1528   0.660   0.091   0.730  0.1677 -0.5894 -0.0069
  383SOL     OW 1529   0.549   3.048   0.295 -0.5792  0.6252 -0.2819
  383SOL    HW1 1530   0.616   2.992   0.257  0.4747 -0.8733  2.2238
  383SOL    HW2 1531   0.510   2.994   0.357  0.0383 -0.5128  0.5854
  383SOL     MW 1532   0.553   3.034   0.298 -0.3587  0.2774  0.1632
  384SOL     OW 1533   0.633   2.902   0.628  0.4499  0.1840  0.0615
  384SOL    HW1 1534   0.721   2.910   0.667  1.5410  1.0383 -0.4373
  384SOL    HW2 1535   0.596   2.817   0.661  1.9310 -0.2620  2.4989
  384SOL     MW 1536   0.640   2.892   0.638  0.7893  0.2378  0.3173
  385SOL     OW 1537   1.348   2.096   1.525  0.5315 -0.0585 -0.0961
  385SOL    HW1 1538   1.440   2.092   1.563  0.7019  0.4160  0.4013
  385SOL    HW2 1539   1.309   2.022   1.574 -0.9686  1.5717 -2.8167
  385SOL     MW 1540   1.355   2.086   1.536  0.3560  0.2192 -0.3894
  386SOL     OW 1541   1.308   0.408   0.876 -0.0698  0.4098  0.5590
  386SOL    HW1 1542   1.240   0.445   0.934  0.0442 -0.7451  0.5541
  386SOL    HW2 1543   1.343   0.348   0.939 -1.7082  2.3219  0.3793
  386SOL     MW 1544   1.303   0.405   0.892 -0.2710  0.5097  0.5347
  387SOL     OW 1545   0.828   2.187   1.490 -0.7738  0.4477  0.4391
  387SOL    HW1 1546   0.886   2.255   1.453  0.4029  0.3963 -0.0584
  387SOL    HW2 1547   0.849   2.108   1.440  1.8307  0.3585  2.8758
  387SOL     MW 1548   0.839   2.186   1.479 -0.2749  0.4291  0.6950
  388SOL     OW 1549   1.563   2.804   1.224 -0.2768 -0.2002 -0.2348
  388SOL    HW1 1550   1.479   2.798   1.190  0.3330 -0.1695 -0.3790
  388SOL    HW2 1551   1.624   2.734   1.198  0.0026 -0.0068 -0.2100
  388SOL     MW 1552   1.560   2.794   1.216 -0.1595 -0.1707 -0.2506
  389SOL     OW 1553   0.457   0.081   3.009  0.0484  0.6220 -0.9194
  389SOL    HW1 1554   0.541   0.078   2.971 -2.8239  0.2475  1.4770
  389SOL    HW2 1555   0.418   0.139   2.947  1.3533  0.5327  2.4492
  389SOL     MW 1556   0.462   0.088   2.996 -0.1584  0.5608 -0.1587
  390SOL     OW 1557   1.281   0.084   0.706 -0.2886 -0.6313  0.7377
  390SOL    HW1 1558   1.360   0.070   0.656  1.8945  2.4585 -0.3396
  390SOL    HW2 1559   1.313   0.131   0.779  2.0437 -1.3270 -2.2528
  390SOL     MW 1560   1.295   0.088   0.709  0.3072 -0.3154  0.2010
  391SOL     OW 1561   0.313   2.214   1.412  0.1062 -0.2851  0.1909
  391SOL    HW1 1562   0.269   2.124   1.399  0.9178  0.3837  0.3374
  391SOL    HW2 1563   0.250   2.288   1.422 -1.7962 -1.7539  0.1467
  391SOL     MW 1564   0.299   2.211   1.412 -0.0377 -0.3907  0.2044
  392SOL     OW 1565   2.080   2.197   0.325 -0.4914  0.5552 -0.2596
  392SOL    HW1 1566   2.173   2.174   0.315 -0.7478 -0.0925 -1.6118
  392SOL    HW2 1567   2.064   2.247   0.403  2.0320 -3.1004 -0.8534
  392SOL     MW 1568   2.090   2.201   0.334 -0.1923 -0.0126 -0.5163
  393SOL     OW 1569   0.172   3.026   2.744  0.1736 -0.1361  0.1294
  393SOL    HW1 1570   0.261   3.017   2.765  1.2322  0.9537  1.5002
  393SOL    HW2 1571   0.162   3.117   2.722  3.7108  0.5163 -0.5124
  393SOL     MW 1572   0.182   3.037   2.744  0.7799  0.0938  0.2256
  394SOL     OW 1573   0.868   1.761   1.559  0.2008 -0.5199  0.3535
  394SOL    HW1 1574   0.800   1.784   1.625  0.4885 -1.9098 -2.4061
  394SOL    HW2 1575   0.885   1.837   1.495  0.9478 -0.3924 -1.9940
  394SOL     MW 1576   0.861   1.774   1.559  0.3373 -0.6865 -0.3203
  395SOL     OW 1577   1.019   2.807   2.611 -0.5703  0.4537  0.5337
  395SOL    HW1 1578   1.064   2.894   2.613 -1.1518 -0.3697  1.3841
  395SOL    HW2 1579   1.079   2.739   2.587  0.6925  1.1378 -1.1113
  395SOL     MW 1580   1.033   2.810   2.608 -0.4804  0.4353  0.4289
  396SOL     OW 1581   0.738   1.872   2.401  0.2353 -0.1479  0.1866
  396SOL    HW1 1582   0.813   1.910   2.449 -0.4831  0.3658  0.9627
  396SOL    HW2 1583   0.754   1.772   2.404 -2.2860  0.1339 -1.2238
  396SOL     MW 1584   0.750   1.864   2.408 -0.1921 -0.0429  0.1029
  397SOL     OW 1585   0.994   2.300   1.264  0.1925  0.3408  0.5660
  397SOL    HW1 1586   1.030   2.342   1.182  0.2613 -2.4455 -0.8654
  397SOL    HW2 1587   1.077   2.307   1.317  1.3527 -1.5192 -0.0340
  397SOL     MW 1588   1.009   2.307   1.260  0.3547 -0.2722  0.2980
  398SOL     OW 1589   0.534   2.664   0.684  0.2022 -0.3814 -0.1962
  398SOL    HW1 1590   0.463   2.632   0.632 -0.9667 -3.4938  0.8114
  398SOL    HW2 1591   0.608   2.602   0.672  0.1375  0.5749 -1.9096
  398SOL     MW 1592   0.534   2.652   0.676  0.0394 -0.6659 -0.2893
  399SOL     OW 1593   0.255   2.061   0.366 -0.0737  0.1319 -0.8917
  399SOL    HW1 1594   0.189   2.126   0.392 -2.6349  0.1148 -1.8355
  399SOL    HW2 1595   0.282   2.095   0.284 -0.7512 -2.3675 -4.1939
  399SOL     MW 1596   0.250   2.074   0.359 -0.5010 -0.2001 -1.4519
  400SOL     OW 1597   0.492   1.922   0.155  0.3360  0.2085 -0.6000
  400SOL    HW1 1598   0.481   2.014   0.181 -1.0358 -0.0612 -1.5425
  400SOL    HW2 1599   0.430   1.872   0.206 -3.2550  1.6855 -2.7272
  400SOL     MW 1600   0.482   1.927   0.165 -0.3188  0.3678 -1.0050
  401SOL     OW 1601   0.768   2.019   0.102 -0.5732  0.1408 -0.3011
  401SOL    HW1 1602   0.841   1.963   0.138  0.9338 -0.0568  3.2930
  401SOL    HW2 1603   0.690   1.983   0.143 -0.0674 -0.0034 -1.8276
  401SOL     MW 1604   0.767   2.007   0.112 -0.3076  0.0957 -0.0283
  402SOL     OW 1605   0.602   2.984   1.800 -0.2438 -0.4742  0.3642
  402SOL    HW1 1606   0.685   2.966   1.844 -1.2583 -1.1996 -1.8634
  402SOL    HW2 1607   0.600   3.078   1.802 -0.3667  0.4344 -0.8701
  402SOL     MW 1608   0.613   2.994   1.806 -0.3939 -0.4500 -0.0926
  403SOL     OW 1609   0.070   0.422   0.332 -0.5771  0.5900 -0.2476
  403SOL    HW1 1610   0.139   0.456   0.389  1.2316 -0.5874  1.3272
  403SOL    HW2 1611   0.122   0.393   0.260  0.8695 -1.8956  1.4042
  403SOL     MW 1612   0.086   0.423   0.330 -0.1476  0.1067  0.1781
  404SOL     OW 1613   0.903   2.923   0.736  0.1897  0.1085  0.6403
  404SOL    HW1 1614   0.989   2.879   0.746  2.2541  0.7497 -0.7889
  404SOL    HW2 1615   0.930   3.008   0.701  2.1275  0.5475  1.2191
  404SOL     MW 1616   0.918   2.928   0.733  0.7177  0.2510  0.5281
  405SOL     OW 1617   0.512   2.390   1.498  0.2463  0.5992  0.2000
  405SOL    HW1 1618   0.483   2.470   1.456 -0.5571  0.9470 -2.4635
  405SOL    HW2 1619   0.460   2.325   1.461 -0.8669 -0.1253 -0.9022
  405SOL     MW 1620   0.501   2.392   1.488 -0.0066  0.5495 -0.2969
  406SOL     OW 1621   0.399   2.398   1.022  0.4948  0.0203  0.4461
  406SOL    HW1 1622   0.315   2.378   1.059  1.4777  1.2196  0.0803
  406SOL    HW2 1623   0.441   2.313   1.012 -0.5956  1.3873  0.2598
  406SOL     MW 1624   0.394   2.384   1.026  0.4807  0.3589  0.3733
  407SOL     OW 1625   3.054   2.690   1.149  0.2877 -0.3069  0.2083
  407SOL    HW1 1626   3.124   2.674   1.220  0.8045 -2.0430  0.9966
  407SOL    HW2 1627   3.102   2.726   1.074 -0.6435  1.5534 -1.4592
  407SOL     MW 1628   3.070   2.692   1.148  0.2330 -0.2905  0.0923
  408SOL     OW 1629   2.126   2.100   0.737 -0.0001  0.6313 -0.6141
  408SOL    HW1 1630   2.090   2.149   0.814 -3.3924 -2.0785 -1.8410
  408SOL    HW2 1631   2.047   2.058   0.703 -1.5171  2.4391 -2.9670
  408SOL     MW 1632   2.111   2.101   0.743 -0.6478  0.5123 -1.0864
  409SOL     OW 1633   1.477   0.134   0.889  0.4392  0.5843 -0.1575
  409SOL    HW1 1634   1.558   0.182   0.897  0.1871 -0.6594 -0.2800
  409SOL    HW2 1635   1.472   0.099   0.978 -0.6329 -0.2006  1.2078
  409SOL     MW 1636   1.487   0.136   0.902  0.2645  0.3167  0.0065
  410SOL     OW 1637   1.097   2.478   1.043 -0.0202  0.0714  0.3287
  410SOL    HW1 1638   1.029   2.496   0.974 -0.6900 -0.5952 -2.4623
  410SOL    HW2 1639   1.157   2.415   1.004  0.4024 -1.3245  0.8416
  410SOL     MW 1640   1.096   2.472   1.029 -0.0528 -0.2007  0.0281
  411SOL     OW 1641   1.983   0.023   2.898  0.0718  0.0790  0.1644
  411SOL    HW1 1642   1.927   0.027   2.821  0.6247 -0.5718  1.7232
  411SOL    HW2 1643   1.937   0.070   2.967  1.4046 -0.9963  2.4124
  411SOL     MW 1644   1.969   0.030   2.897  0.3206 -0.1487  0.6666
  412SOL     OW 1645   1.003   2.281   0.612  0.0081  0.0065 -0.1655
  412SOL    HW1 1646   1.044   2.369   0.621  0.7437  2.4747  2.3319
  412SOL    HW2 1647   0.927   2.305   0.570 -0.9722 -1.0309 -0.6024
  412SOL     MW 1648   0.998   2.296   0.608 -0.0242  0.1953  0.1063
  413SOL     OW 1649   0.547   2.791   3.054  1.0855 -0.7242  0.5526
  413SOL    HW1 1650   0.576   2.708   3.090  0.0079 -1.2076  0.4071
  413SOL    HW2 1651   0.605   2.819   2.991 -4.2605 -1.7493  0.8553
  413SOL     MW 1652   0.559   2.784   3.051  0.2379 -0.9233  0.5734
  414SOL     OW 1653   1.919   2.881   1.050  0.0616  1.0566 -0.2604
  414SOL    HW1 1654   1.881   2.939   0.981 -0.8343 -1.0252 -0.3082
  414SOL    HW2 1655   2.012   2.896   1.051 -0.4803  3.4932 -1.4939
  414SOL     MW 1656   1.926   2.891   1.041 -0.1281  1.1035 -0.4295
  415SOL     OW 1657   1.779   2.628   1.085  0.0512 -0.1020 -0.3931
  415SOL    HW1 1658   1.826   2.610   1.166  0.0570 -1.0651  2.5448
  415SOL    HW2 1659   1.826   2.708   1.058  3.5063 -1.0905  1.4546
  415SOL     MW 1660   1.792   2.636   1.092  0.5079 -0.3595  0.2383
  416SOL     OW 1661   0.544   1.920   1.396  0.7681  0.3753  0.0788
  416SOL    HW1 1662   0.499   1.949   1.316 -1.3325 -0.0303  1.0282
  416SOL    HW2 1663   0.487   1.843   1.427  0.0230 -2.2717 -1.0352
  416SOL     MW 1664   0.531   1.913   1.390  0.3927 -0.0275  0.0571
  417SOL     OW 1665   1.004   3.077   2.078 -0.4076 -0.3164  0.2943
  417SOL    HW1 1666   0.959   3.077   2.163  1.1788 -2.4408 -2.7452
  417SOL    HW2 1667   0.962   3.004   2.019 -3.2389 -3.1718 -0.3352
  417SOL     MW 1668   0.993   3.067   2.082 -0.5718 -0.9734 -0.1898
  418SOL     OW 1669   0.732   2.898   0.129 -0.2411 -0.2276 -0.5910
  418SOL    HW1 1670   0.806   2.921   0.071 -0.4677  1.1728  0.6078
  418SOL    HW2 1671   0.659   2.866   0.079  2.0583 -0.5119 -0.7956
  418SOL     MW 1672   0.732   2.897   0.115  0.0324 -0.0803 -0.4598
  419SOL     OW 1673   0.439   2.645   1.391  0.8508 -0.1914  0.1735
  419SOL    HW1 1674   0.492   2.716   1.430 -3.8531 -2.0734 -0.8807
  419SOL    HW2 1675   0.486   2.630   1.306 -1.8830  0.0048  0.1553
  419SOL     MW 1676   0.452   2.652   1.385 -0.1305 -0.4138  0.0320
  420SOL     OW 1677   0.874   2.279   0.971 -0.1580 -0.1334  0.1975
  420SOL    HW1 1678   0.818   2.283   1.052 -2.4552  1.1340 -1.1210
  420SOL    HW2 1679   0.916   2.363   0.964 -4.1415 -1.6316 -1.9480
  420SOL     MW 1680   0.872   2.291   0.981 -0.9867 -0.1638 -0.2595
  421SOL     OW 1681   2.925   0.099   3.092  0.1386  1.4422  0.5808
  421SOL    HW1 1682   2.875   0.058   3.022 -1.2822 -1.2229 -0.7315
  421SOL    HW2 1683   2.959   0.019   3.138  0.1543  1.4179 -0.2150
  421SOL     MW 1684   2.923   0.083   3.089 -0.0468  1.0874  0.3026
  422SOL     OW 1685   0.896   2.545   0.891  0.0552 -0.3573 -0.0583
  422SOL    HW1 1686   0.872   2.636   0.880  0.8356 -0.0031 -0.5431
  422SOL    HW2 1687   0.834   2.501   0.841  3.1846 -2.1463  2.3544
  422SOL     MW 1688   0.884   2.551   0.883  0.5711 -0.5466  0.1960
  423SOL     OW 1689   1.488   0.104   0.508  0.0159 -0.0435 -0.0084
  423SOL    HW1 1690   1.486   0.055   0.428 -2.5412  1.7154  0.7049
  423SOL    HW2 1691   1.472   0.197   0.481 -0.6467 -0.5761  1.7012
  423SOL     MW 1692   1.486   0.110   0.494 -0.4089  0.1183  0.3113
  424SOL     OW 1693   0.717   2.266   1.190 -0.2567  0.0196  0.1483
  424SOL    HW1 1694   0.633   2.225   1.199 -0.8232 -1.9374  1.9555
  424SOL    HW2 1695   0.746   2.298   1.274 -0.4177 -0.7204 -1.5998
  424SOL     MW 1696   0.710   2.265   1.202 -0.3527 -0.3362  0.1561
  425SOL     OW 1697   1.740   2.825   2.025 -0.1751 -0.1320  0.4303
  425SOL    HW1 1698   1.744   2.822   1.931 -0.8686  0.1841  1.0824
  425SOL    HW2 1699   1.764   2.735   2.042  1.1294 -2.0896  0.3633
  425SOL     MW 1700   1.743   2.813   2.015 -0.0945 -0.3485  0.5075
  426SOL     OW 1701   0.802   1.689   1.943 -0.4742 -0.0320 -0.1819
  426SOL    HW1 1702   0.745   1.722   1.872  1.9617 -1.6216 -0.0738
  426SOL    HW2 1703   0.807   1.764   2.004  1.3429 -2.9347  2.7410
  426SOL     MW 1704   0.795   1.704   1.942  0.0869 -0.6247  0.2180
  427SOL     OW 1705   0.359   1.648   1.927 -0.2203  0.1695 -0.4864
  427SOL    HW1 1706   0.418   1.571   1.923 -2.1614 -0.7280  2.6391
  427SOL    HW2 1707   0.269   1.611   1.943 -0.6478 -1.1506  1.2655
  427SOL     MW 1708   0.355   1.633   1.929 -0.5328 -0.1231  0.1571
  428SOL     OW 1709   0.576   2.595   1.162  0.3872 -0.0372 -0.3670
  428SOL    HW1 1710   0.658   2.561   1.207 -3.2704  1.1682  0.8750
  428SOL    HW2 1711   0.529   2.508   1.142 -3.7838 -0.5113 -2.8113
  428SOL     MW 1712   0.581   2.579   1.165 -0.6457  0.0593 -0.5256
  429SOL     OW 1713   1.292   2.780   1.078 -0.4226  0.4284 -0.5336
  429SOL    HW1 1714   1.202   2.775   1.107 -1.1474 -0.1474 -1.1293
  429SOL    HW2 1715   1.287   2.829   0.994 -2.7524  1.5460  0.6938
  429SOL     MW 1716   1.280   2.786   1.071 -0.8256  0.4998 -0.4503
  430SOL     OW 1717   1.139   2.733   0.724 -0.2969  0.0879 -0.2431
  430SOL    HW1 1718   1.157   2.637   0.732 -1.1018 -1.3509 -0.7985
  430SOL    HW2 1719   1.072   2.732   0.648 -0.6335 -0.0902 -1.9474
  430SOL     MW 1720   1.133   2.720   0.715 -0.4475 -0.1255 -0.5412
  431SOL     OW 1721   0.364   1.919   1.048  0.1494  0.1076 -0.5001
  431SOL    HW1 1722   0.415   1.840   1.064 -0.7017 -0.6209  1.4391
  431SOL    HW2 1723   0.326   1.920   0.961 -0.4529 -0.1212  1.8419
  431SOL     MW 1724   0.366   1.908   1.039 -0.0423 -0.0187  0.0647
  432SOL     OW 1725   0.063   0.005   1.206  0.1036  0.4837  0.5903
  432SOL    HW1 1726   0.084   0.087   1.257 -0.8426 -1.7439  0.6199
  432SOL    HW2 1727  -0.005  -0.050   1.243  0.0448 -1.0969 -0.2398
  432SOL     MW 1728   0.057   0.009   1.218 -0.0290 -0.0187  0.4847
  433SOL     OW 1729   0.632   2.820   1.530 -0.5926 -0.8581 -0.2460
  433SOL    HW1 1730   0.644   2.826   1.622  1.8975  0.7610  2.0614
  433SOL    HW2 1731   0.698   2.873   1.485  0.8241 -0.8881 -0.0272
  433SOL     MW 1732   0.642   2.827   1.537 -0.0772 -0.6485  0.0873
  434SOL     OW 1733   1.588   2.836   1.529  0.4216  0.3974 -0.0613
  434SOL    HW1 1734   1.501   2.872   1.497  0.0005  0.2368 -3.7038
  434SOL    HW2 1735   1.618   2.787   1.451  0.5739 -0.5121  0.9774
  434SOL     MW 1736   1.581   2.834   1.515  0.3861  0.2562 -0.4049
  435SOL     OW 1737   2.843   1.799   0.228 -0.0440 -0.2464 -0.1487
  435SOL    HW1 1738   2.900   1.874   0.188 -0.1874 -0.8097 -0.9068
  435SOL    HW2 1739   2.788   1.778   0.155  1.5827  1.4086  1.0462
  435SOL     MW 1740   2.843   1.806   0.213  0.1517 -0.1024 -0.0911
  436SOL     OW 1741   1.327   2.735   0.387 -0.1036 -0.7099 -0.1405
  436SOL    HW1 1742   1.403   2.738   0.449 -0.9285 -2.4985  1.6438
  436SOL    HW2 1743   1.277   2.818   0.421 -2.5977  0.4962 -0.4019
  436SOL     MW 1744   1.331   2.746   0.399 -0.5415 -0.7867  0.0604
  437SOL     OW 1745   0.841   2.937   1.376  0.4026  0.8968 -0.5915
  437SOL    HW1 1746   0.880   3.023   1.358 -0.2986  0.2804 -1.0221
  437SOL    HW2 1747   0.887   2.883   1.309 -0.9721 -0.2289 -2.0401
  437SOL     MW 1748   0.853   2.941   1.365  0.1287  0.6669 -0.8395
  438SOL     OW 1749   0.859   2.677   1.893 -0.0680 -0.2683 -0.5320
  438SOL    HW1 1750   0.820   2.638   1.965 -0.1937  0.7330 -1.2477
  438SOL    HW2 1751   0.827   2.630   1.821 -0.8562 -1.5197  2.4268
  438SOL     MW 1752   0.850   2.666   1.893 -0.1886 -0.3013 -0.2361
  439SOL     OW 1753   1.193   2.160   0.462  0.6976  0.5165  0.1692
  439SOL    HW1 1754   1.121   2.208   0.513 -1.3937  2.0172  0.1539
  439SOL    HW2 1755   1.187   2.193   0.369  2.4320 -2.1703 -0.3411
  439SOL     MW 1756   1.182   2.170   0.456  0.6505  0.3600  0.0999
  440SOL     OW 1757   1.752   2.994   3.096  0.6704  0.1277 -0.6638
  440SOL    HW1 1758   1.701   2.955   3.166  1.3049  1.7000 -2.2988
  440SOL    HW2 1759   1.837   2.943   3.098 -1.2372  0.9970 -0.5569
  440SOL     MW 1760   1.757   2.982   3.105  0.5024  0.4498 -0.8655
  441SOL     OW 1761   0.340   2.636   0.482 -0.2193  0.1504 -0.7185
  441SOL    HW1 1762   0.325   2.627   0.393 -0.4157 -0.9968  0.8614
  441SOL    HW2 1763   0.355   2.736   0.489 -0.7445  1.3191  0.0187
  441SOL     MW 1764   0.340   2.648   0.471 -0.3145  0.1533 -0.4128
  442SOL     OW 1765   3.055   2.413   0.597 -0.0613  0.4380 -0.4805
  442SOL    HW1 1766   3.079   2.500   0.592 -1.5731 -3.7184  1.6870
  442SOL    HW2 1767   2.963   2.415   0.621 -1.0603  1.3910 -1.1282
  442SOL     MW 1768   3.046   2.425   0.600 -0.3925  0.0154 -0.2800
  443SOL     OW 1769   1.404   1.776   1.924  0.1480  0.1202 -0.1241
  443SOL    HW1 1770   1.376   1.836   1.855  2.9909  2.3638 -0.0222
  443SOL    HW2 1771   1.339   1.703   1.932 -1.8306 -0.8417 -0.1845
  443SOL     MW 1772   1.392   1.774   1.916  0.2620  0.2893 -0.1186
  444SOL     OW 1773   0.900   2.518   1.584  0.4401 -0.1758 -0.0269
  444SOL    HW1 1774   0.991   2.499   1.615 -1.6376 -1.8229 -0.0078
  444SOL    HW2 1775   0.841   2.475   1.650 -2.5552 -0.3112  1.2396
  444SOL     MW 1776   0.904   2.510   1.597 -0.2293 -0.4110  0.1427
  445SOL     OW 1777   0.972   0.073   1.349  1.0613 -0.2044  0.1865
  445SOL    HW1 1778   0.939   0.162   1.334 -0.6671 -0.4664 -1.8379
  445SOL    HW2 1779   1.016   0.053   1.261 -1.9796 -1.8375 -3.8486
  445SOL     MW 1780   0.973   0.083   1.336  0.4320 -0.4544 -0.6130
  446SOL     OW 1781   2.724   2.891   1.097  0.0132  0.4553 -0.0663
  446SOL    HW1 1782   2.663   2.917   1.030 -0.8598  1.3744  1.5579
  446SOL    HW2 1783   2.755   2.800   1.066 -2.1583 -0.5355 -0.3421
  446SOL     MW 1784   2.720   2.882   1.084 -0.3885  0.4458  0.1116
  447SOL     OW 1785   0.081   2.030   1.646  0.3880  0.2965 -0.5488
  447SOL    HW1 1786   0.138   1.953   1.671  0.4373 -1.6813  2.0907
  447SOL    HW2 1787  -0.004   1.997   1.609 -3.8551 -2.4873  2.0250
  447SOL     MW 1788   0.078   2.015   1.644 -0.1653 -0.3318  0.1390
  448SOL     OW 1789   1.714   2.403   1.621  0.6361 -0.1476 -0.3751
  448SOL    HW1 1790   1.672   2.321   1.629 -0.1309 -0.7023 -0.2930
  448SOL    HW2 1791   1.644   2.474   1.636 -0.6488  2.7301 -3.3280
  448SOL     MW 1792   1.699   2.401   1.624  0.3654  0.1589 -0.7539
  449SOL     OW 1793   0.794   2.817   0.386  0.5861  0.1720 -0.4308
  449SOL    HW1 1794   0.750   2.832   0.298 -0.9536 -0.7747  0.1265
  449SOL    HW2 1795   0.720   2.832   0.444 -1.9210  1.3350 -1.7010
  449SOL     MW 1796   0.778   2.821   0.382  0.0522  0.2005 -0.5249
  450SOL     OW 1797   1.207   2.453   0.684  0.0208  0.2426  0.0325
  450SOL    HW1 1798   1.185   2.383   0.749  1.1996  3.8159 -2.5329
  450SOL    HW2 1799   1.285   2.420   0.646 -2.6493 -0.1542 -0.3347
  450SOL     MW 1800   1.215   2.439   0.688 -0.1759  0.6617 -0.3545
  451SOL     OW 1801   0.576   2.050   1.619  0.5302  0.7445  0.2447
  451SOL    HW1 1802   0.621   2.129   1.599 -2.9168 -0.0809  0.7785
  451SOL    HW2 1803   0.562   2.006   1.537  2.4753  2.3165  1.0992
  451SOL     MW 1804   0.580   2.054   1.606  0.3320  0.8430  0.4279
  452SOL     OW 1805   0.283   2.733   0.012  0.4488 -0.9262 -0.1433
  452SOL    HW1 1806   0.367   2.763  -0.027  2.3637  0.1163 -0.3654
  452SOL    HW2 1807   0.210   2.745  -0.052  2.1383 -1.9305 -0.2693
  452SOL     MW 1808   0.284   2.739  -0.001  0.9243 -0.9211 -0.1892
  453SOL     OW 1809   0.352   2.894   1.689  0.2436  0.3005 -0.2292
  453SOL    HW1 1810   0.442   2.915   1.712 -1.1791  0.1049  0.0280
  453SOL    HW2 1811   0.348   2.936   1.601 -0.0606  2.5847 -1.2602
  453SOL     MW 1812   0.363   2.902   1.681  0.0158  0.5760 -0.3313
  454SOL     OW 1813   1.014   2.756   1.196  0.1793  0.8949 -0.0807
  454SOL    HW1 1814   0.982   2.672   1.228  1.9689 -0.1911  0.0386
  454SOL    HW2 1815   0.954   2.778   1.128  0.0868 -1.7802  1.1244
  454SOL     MW 1816   1.002   2.748   1.191  0.4032  0.3986  0.0941
  455SOL     OW 1817   1.596   2.928   0.220  0.0032  0.4648 -0.2695
  455SOL    HW1 1818   1.663   2.921   0.286 -0.1499 -2.3308 -1.4882
  455SOL    HW2 1819   1.579   2.827   0.193  0.4109 -1.0634 -0.4252
  455SOL     MW 1820   1.602   2.914   0.225  0.0368 -0.1057 -0.4508
  456SOL     OW 1821   2.825   0.350   1.394 -0.6654  0.0819  0.6468
  456SOL    HW1 1822   2.788   0.274   1.352 -0.7173  2.3589  0.2664
  456SOL    HW2 1823   2.918   0.357   1.356 -0.6987 -0.9302 -3.2930
  456SOL     MW 1824   2.832   0.341   1.384 -0.6766  0.2488  0.0768
  457SOL     OW 1825   0.977   1.572   2.907 -0.0341 -0.1068 -0.1346
  457SOL    HW1 1826   0.889   1.553   2.944 -0.6314  0.5110  1.6614
  457SOL    HW2 1827   1.037   1.499   2.928  4.4380  1.6256  0.0325
  457SOL     MW 1828   0.973   1.560   2.914  0.4771  0.2033  0.1244
  458SOL     OW 1829   1.485   1.411   0.536 -0.3066  0.0036  0.2465
  458SOL    HW1 1830   1.405   1.454   0.561 -1.3395  1.5492 -2.6010
  458SOL    HW2 1831   1.462   1.356   0.458 -0.1434  0.2986 -0.3333
  458SOL     MW 1832   1.471   1.409   0.529 -0.4214  0.2465 -0.2057
  459SOL     OW 1833   1.461   0.066   0.220 -0.1291  0.6100 -0.3895
  459SOL    HW1 1834   1.503  -0.020   0.206 -1.4168  0.3203 -0.8641
  459SOL    HW2 1835   1.415   0.105   0.144 -2.1602  0.4446 -0.2637
  459SOL     MW 1836   1.461   0.060   0.208 -0.5670  0.5500 -0.4355
  460SOL     OW 1837   1.784   2.201   0.600  0.3596 -0.1405  0.3570
  460SOL    HW1 1838   1.702   2.164   0.631  0.5930 -0.3118  0.5951
  460SOL    HW2 1839   1.839   2.123   0.588 -0.3663  0.4894 -0.1885
  460SOL     MW 1840   1.780   2.186   0.602  0.2946 -0.0800  0.3164
  461SOL     OW 1841   0.383   2.376   0.581  0.1048 -0.9607 -0.2445
  461SOL    HW1 1842   0.328   2.416   0.513  0.2994  0.6110 -1.0512
  461SOL    HW2 1843   0.349   2.427   0.659  0.6057  3.6042 -0.2199
  461SOL     MW 1844   0.371   2.388   0.583  0.1966 -0.1511 -0.3477
  462SOL     OW 1845   0.411   0.331   1.286  0.6350 -0.3716  0.0636
  462SOL    HW1 1846   0.433   0.266   1.218 -2.2809  1.4764 -2.9401
  462SOL    HW2 1847   0.479   0.326   1.350 -1.9257 -0.5203 -1.3165
  462SOL     MW 1848   0.423   0.322   1.286 -0.0876 -0.1474 -0.5148
  463SOL     OW 1849   0.914   0.063   0.621  0.7769  0.2325 -0.4182
  463SOL    HW1 1850   0.925   0.084   0.527 -1.1582  1.4992  0.6751
  463SOL    HW2 1851   0.826   0.094   0.646 -1.3643 -0.6138  0.5961
  463SOL     MW 1852   0.904   0.070   0.612  0.2391  0.2880 -0.1401
  464SOL     OW 1853   0.848   3.051   2.289 -0.0607  0.5884 -0.2569
  464SOL    HW1 1854   0.822   2.960   2.275  0.2286  1.6887  3.0706
  464SOL    HW2 1855   0.834   3.059   2.384 -1.9009  0.6369  2.9198
  464SOL     MW 1856   0.843   3.040   2.300 -0.2653  0.7400  0.6013
  465SOL     OW 1857   0.680   0.290   0.466  0.5318  0.1515 -0.0554
  465SOL    HW1 1858   0.642   0.228   0.527 -2.1156  0.4741 -1.6228
  465SOL    HW2 1859   0.690   0.234   0.385  3.5889  0.9136 -0.6034
  465SOL     MW 1860   0.676   0.275   0.463  0.5858  0.2946 -0.3345
  466SOL     OW 1861   1.067   1.966   0.697 -0.3078  0.2771  0.1925
  466SOL    HW1 1862   1.046   1.889   0.638 -0.6715 -1.6775 -1.2438
  466SOL    HW2 1863   1.090   2.034   0.635  0.6129 -1.8944  1.4975
  466SOL     MW 1864   1.067   1.965   0.682 -0.2343 -0.2673  0.1752
  467SOL     OW 1865   1.261   2.306   0.921  0.0756  0.1025  0.5626
  467SOL    HW1 1866   1.350   2.334   0.898  1.9439  0.8553  1.3279
  467SOL    HW2 1867   1.254   2.209   0.909 -3.2486  1.5059 -0.5797
  467SOL     MW 1868   1.272   2.297   0.916 -0.1165  0.3870  0.5129
  468SOL     OW 1869   0.398   2.615   1.989  0.0491 -0.0424  0.0165
  468SOL    HW1 1870   0.429   2.579   1.902  1.0677 -1.8662 -0.2399
  468SOL    HW2 1871   0.352   2.700   1.979  0.3958 -2.3357 -0.7030
  468SOL     MW 1872   0.396   2.621   1.976  0.2292 -0.5856 -0.1122
  469SOL     OW 1873   0.366   2.177   1.780 -0.2668  0.2339 -0.1976
  469SOL    HW1 1874   0.300   2.123   1.818 -0.6996 -1.2286  0.0884
  469SOL    HW2 1875   0.409   2.125   1.708  2.0005  0.5449 -1.1235
  469SOL     MW 1876   0.363   2.163   1.776 -0.0247  0.0820 -0.2820
  470SOL     OW 1877   3.049   2.613   0.062  0.2297  0.0812 -0.1791
  470SOL    HW1 1878   2.980   2.576   0.115 -1.4237 -0.9101 -1.7806
  470SOL    HW2 1879   3.016   2.623  -0.030  0.5380 -0.1790  0.0820
  470SOL     MW 1880   3.036   2.609   0.057  0.0522 -0.0839 -0.3560
  471SOL     OW 1881   1.157   2.712   1.439 -0.6377  0.1355  0.2858
  471SOL    HW1 1882   1.086   2.735   1.501 -0.5000 -0.5613  0.2224
  471SOL    HW2 1883   1.123   2.734   1.355 -0.4111  0.4182  2.3322
  471SOL     MW 1884   1.143   2.718   1.436 -0.5896  0.0809  0.5475
  472SOL     OW 1885   2.950   2.108   0.382 -0.3395  0.2111  0.7745
  472SOL    HW1 1886   2.980   2.083   0.292 -3.8923  0.0447 -4.0544
  472SOL    HW2 1887   2.920   2.029   0.423 -0.3424  0.3869 -0.1055
  472SOL     MW 1888   2.950   2.095   0.375 -0.8086  0.2123  0.0213
  473SOL     OW 1889   0.876   2.550   1.317 -0.2100 -0.2591 -0.0019
  473SOL    HW1 1890   0.914   2.466   1.283 -1.9294 -2.1410  0.5653
  473SOL    HW2 1891   0.872   2.533   1.409  1.8082 -0.5191 -0.2084
  473SOL     MW 1892   0.880   2.537   1.324 -0.1705 -0.5417  0.0457
  474SOL     OW 1893   0.828   2.149   1.780  0.5311 -0.7600  0.1692
  474SOL    HW1 1894   0.919   2.160   1.815 -1.5767 -3.1366  0.3294
  474SOL    HW2 1895   0.830   2.152   1.687  4.0475 -0.7646  1.0288
  474SOL     MW 1896   0.840   2.151   1.773  0.7170 -1.0742  0.3037
  475SOL     OW 1897   1.655   0.023   1.425 -0.0672 -0.0166 -0.5387
  475SOL    HW1 1898   1.567   0.043   1.404 -0.6620  0.1998 -0.3676
  475SOL    HW2 1899   1.645  -0.063   1.460  0.3064  0.9542  3.1242
  475SOL     MW 1900   1.642   0.014   1.427 -0.0964  0.1400 -0.0328
  476SOL     OW 1901   1.427   2.609   0.896 -0.5998 -0.1533  0.5625
  476SOL    HW1 1902   1.371   2.616   0.980  1.5725 -0.0474  0.8473
  476SOL    HW2 1903   1.460   2.699   0.881 -0.0356  0.2987 -1.9269
  476SOL     MW 1904   1.424   2.622   0.905 -0.2387 -0.0797  0.2716
  477SOL     OW 1905   0.779   2.532   0.630  0.0562 -0.1878 -0.3153
  477SOL    HW1 1906   0.859   2.572   0.597 -0.1078  0.1601  0.1179
  477SOL    HW2 1907   0.762   2.472   0.557  0.3611 -0.5937 -0.4764
  477SOL     MW 1908   0.788   2.529   0.616  0.0748 -0.1955 -0.2794
  478SOL     OW 1909   0.119   2.717   0.921  0.2000 -0.0890  0.1347
  478SOL    HW1 1910   0.186   2.793   0.910  1.3037  1.6954 -0.6736
  478SOL    HW2 1911   0.164   2.637   0.893 -2.0529  4.2270 -3.9941
  478SOL     MW 1912   0.134   2.716   0.916  0.0484  0.7158 -0.5167
  479SOL     OW 1913   1.428   1.964   1.301  0.2076 -0.0084  0.0783
  479SOL    HW1 1914   1.399   2.008   1.381  1.5721  0.0408 -2.2179
  479SOL    HW2 1915   1.511   1.912   1.330 -1.1904 -0.3789 -2.1796
  479SOL     MW 1916   1.435   1.963   1.315  0.2032 -0.0508 -0.5226
  480SOL     OW 1917   1.893   2.318   1.349 -0.1139 -0.0963 -0.3117
  480SOL    HW1 1918   1.860   2.225   1.357 -0.1961  0.1865 -0.3808
  480SOL    HW2 1919   1.974   2.316   1.302 -2.1018 -0.9669  1.4699
  480SOL     MW 1920   1.899   2.306   1.344 -0.3871 -0.1739 -0.0857
  481SOL     OW 1921   1.082   3.078   1.108 -1.1007  0.5198  0.0635
  481SOL    HW1 1922   1.137   3.011   1.076 -0.6863  0.7834 -1.6866
  481SOL    HW2 1923   1.116   3.158   1.075 -4.2862 -1.9294 -2.4155
  481SOL     MW 1924   1.093   3.080   1.099 -1.4663  0.2314 -0.4945
  482SOL     OW 1925   0.960   3.043   0.336  0.0611 -0.4757 -0.4127
  482SOL    HW1 1926   0.896   2.976   0.365  1.5805  0.5958 -0.6714
  482SOL    HW2 1927   0.924   3.085   0.262  1.9385 -2.4058 -0.8782
  482SOL     MW 1928   0.947   3.040   0.330  0.5093 -0.5890 -0.5083
  483SOL     OW 1929   0.382   2.893   0.459  0.5343 -0.2582 -0.5309
  483SOL    HW1 1930   0.294   2.918   0.415 -1.0298  0.1764 -0.5003
  483SOL    HW2 1931   0.392   2.942   0.544  0.6739  0.1620  0.5461
  483SOL     MW 1932   0.372   2.903   0.464  0.3463 -0.1454 -0.3848
  484SOL     OW 1933   1.651   1.849   1.401 -0.2523  0.9410 -0.1144
  484SOL    HW1 1934   1.714   1.917   1.372  1.0121 -1.1183 -1.1506
  484SOL    HW2 1935   1.667   1.842   1.494  0.3692  0.6193 -0.7234
  484SOL     MW 1936   1.662   1.857   1.409 -0.0035  0.6269 -0.3314
  485SOL     OW 1937   0.546   2.458   0.272  0.6552 -0.0956 -0.8381
  485SOL    HW1 1938   0.596   2.434   0.353 -2.5843  2.4322 -2.4472
  485SOL    HW2 1939   0.451   2.481   0.280 -0.2044 -0.4220  0.4571
  485SOL     MW 1940   0.540   2.458   0.284  0.1144  0.1949 -0.8795
  486SOL     OW 1941   0.126   2.405   1.434  0.1606  0.1281  0.8928
  486SOL    HW1 1942   0.131   2.483   1.373 -3.8406  1.9585  0.9941
  486SOL    HW2 1943   0.111   2.446   1.519  2.7975  2.0527 -1.2490
  486SOL     MW 1944   0.125   2.420   1.437 -0.0194  0.6236  0.6236
  487SOL     OW 1945   1.282   1.596   1.043  0.2077  0.4996 -0.4346
  487SOL    HW1 1946   1.258   1.688   1.059  2.3705  0.9194 -0.5841
  487SOL    HW2 1947   1.377   1.585   1.029 -3.9325  0.0358 -0.5812
  487SOL     MW 1948   1.291   1.607   1.043 -0.0532  0.4938 -0.4737
  488SOL     OW 1949   1.690   1.867   0.538 -0.0746 -0.2365  0.1450
  488SOL    HW1 1950   1.779   1.893   0.520 -1.8023 -0.4351  0.5867
  488SOL    HW2 1951   1.647   1.924   0.605  2.2769  0.8255  1.0493
  488SOL     MW 1952   1.696   1.878   0.545  0.0077 -0.1226  0.3226
  489SOL     OW 1953   0.675   0.764   0.557  0.2252  0.1537  0.1107
  489SOL    HW1 1954   0.727   0.688   0.543 -1.2922 -1.3382 -0.6635
  489SOL    HW2 1955   0.665   0.768   0.651 -2.9823  0.2990  2.0969
  489SOL     MW 1956   0.681   0.755   0.568 -0.3982 -0.0240  0.2706
  490SOL     OW 1957   1.437   2.019   0.407  0.5460 -0.3887  0.4858
  490SOL    HW1 1958   1.517   2.076   0.391 -0.0587 -2.5738  0.1405
  490SOL    HW2 1959   1.367   2.079   0.408  0.1275  0.0106 -1.9810
  490SOL     MW 1960   1.438   2.035   0.405  0.4110 -0.6243  0.1148
  491SOL     OW 1961   1.185   2.960   0.477  0.0570 -0.4759 -0.0448
  491SOL    HW1 1962   1.187   3.041   0.530 -0.0597 -1.1166  0.5695
  491SOL    HW2 1963   1.122   2.979   0.409  0.9209  1.5398  2.1565
  491SOL     MW 1964   1.177   2.973   0.475  0.1556 -0.2945  0.3267
  492SOL     OW 1965   1.526   2.057   0.680 -0.7344 -0.1995 -0.1342
  492SOL    HW1 1966   1.494   2.037   0.595 -2.9623  1.7306 -0.8381
  492SOL    HW2 1967   1.450   2.047   0.735  1.7721 -0.8802 -0.5152
  492SOL     MW 1968   1.511   2.053   0.676 -0.6977 -0.0346 -0.2773
  493SOL     OW 1969   0.134   2.931   0.342  0.4206  0.2862 -0.2060
  493SOL    HW1 1970   0.106   3.004   0.404 -0.3281 -1.4095  1.6909
  493SOL    HW2 1971   0.160   2.961   0.256  2.4973  0.9097  0.6711
  493SOL     MW 1972   0.134   2.945   0.339  0.5958  0.1447  0.1600
  494SOL     OW 1973   0.390   2.460   1.732 -0.0895  0.1461  0.6823
  494SOL    HW1 1974   0.380   2.363   1.748  1.2786  0.6966  1.1171
  494SOL    HW2 1975   0.422   2.464   1.643 -0.0233  0.6928 -2.2305
  494SOL     MW 1976   0.393   2.448   1.722  0.0997  0.2909  0.3554
  495SOL     OW 1977   2.922   1.707   2.652 -0.1585 -0.1474 -0.4425
  495SOL    HW1 1978   2.900   1.802   2.651  1.4980  1.4558 -4.5970
  495SOL    HW2 1979   2.897   1.678   2.742 -3.5346  1.0607 -1.8862
  495SOL     MW 1980   2.916   1.716   2.664 -0.3854  0.2235 -1.1811
  496SOL     OW 1981   2.867   2.287   2.664 -0.1130 -0.1664  0.1772
  496SOL    HW1 1982   2.906   2.222   2.720  0.3480  0.1697 -3.4365
  496SOL    HW2 1983   2.949   2.348   2.661 -0.0986  2.0392  1.0454
  496SOL     MW 1984   2.883   2.286   2.671 -0.0503  0.1690 -0.1851
  497SOL     OW 1985   1.588   2.278   2.628  0.6203 -0.2746  0.1923
  497SOL    HW1 1986   1.556   2.206   2.570 -1.9380  0.1375 -0.5196
  497SOL    HW2 1987   1.573   2.246   2.717 -1.8596  2.5929 -0.4197
  497SOL     MW 1988   1.582   2.264   2.632 -0.0445  0.1581  0.0176
  498SOL     OW 1989   1.534   2.727   2.382 -0.3010  0.1054  0.6190
  498SOL    HW1 1990   1.522   2.638   2.358  3.2743 -2.3101 -1.8675
  498SOL    HW2 1991   1.630   2.709   2.408  1.0644  0.1445 -1.2515
  498SOL     MW 1992   1.545   2.713   2.382  0.3508 -0.2082  0.0442
  499SOL     OW 1993   0.903   0.095   0.048  0.2177 -0.3555 -0.0335
  499SOL    HW1 1994   0.832   0.106   0.107  1.4685 -4.1202 -1.0312
  499SOL    HW2 1995   0.930  -0.003   0.039  2.6559  1.3384  0.6409
  499SOL     MW 1996   0.898   0.083   0.055  0.7044 -0.6288 -0.0761
  500SOL     OW 1997   1.107   2.477   2.760  0.1712  0.6145 -0.6031
  500SOL    HW1 1998   1.166   2.473   2.833  1.3631  0.2244 -0.8239
  500SOL    HW2 1999   1.038   2.536   2.789 -2.9647 -0.3959  1.6527
  500SOL     MW 2000   1.106   2.484   2.774 -0.0853  0.4297 -0.3346
  501SOL     OW 2001   1.734   2.271   0.015  0.0299 -0.5452 -0.2455
  501SOL    HW1 2002   1.732   2.359   0.065 -2.3276  0.6277  0.9840
  501SOL    HW2 2003   1.826   2.244   0.015 -1.6486 -1.3931 -3.7286
  501SOL     MW 2004   1.746   2.279   0.022 -0.5026 -0.5023 -0.5429
  502SOL     OW 2005   0.071   2.827   2.959 -0.4990 -0.7558  0.2489
  502SOL    HW1 2006   0.002   2.759   2.934 -0.3023  0.9436 -0.3157
  502SOL    HW2 2007   0.082   2.886   2.880 -0.3065  0.6105 -1.6822
  502SOL     MW 2008   0.064   2.826   2.946 -0.4477 -0.3513 -0.0804
  503SOL     OW 2009   1.115   2.647   1.973 -0.3111  0.2799  0.2736
  503SOL    HW1 2010   1.202   2.665   1.928  1.4110  0.0069 -2.2626
  503SOL    HW2 2011   1.053   2.680   1.910 -2.4369  1.0506 -0.0704
  503SOL     MW 2012   1.118   2.654   1.959 -0.3643  0.3456 -0.1064
  504SOL     OW 2013   0.045   2.687   2.083 -0.1204  0.0312 -0.5445
  504SOL    HW1 2014   0.105   2.612   2.079 -1.0178  3.4415 -1.4864
  504SOL    HW2 2015  -0.042   2.653   2.105 -0.0136  0.9009 -1.0086
  504SOL     MW 2016   0.042   2.673   2.086 -0.2247  0.5959 -0.7300
  505SOL     OW 2017   1.650   2.650   2.787  0.3745 -0.2917  0.3756
  505SOL    HW1 2018   1.684   2.648   2.699 -1.1724 -2.0729  1.6205
  505SOL    HW2 2019   1.588   2.722   2.793 -1.0644 -2.0993 -0.4538
  505SOL     MW 2020   1.647   2.659   2.776 -0.0195 -0.7652  0.4304
  506SOL     OW 2021   1.611   3.091   2.856 -0.3430 -0.2837  0.0608
  506SOL    HW1 2022   1.667   3.078   2.932 -2.0579  2.3591  0.1409
  506SOL    HW2 2023   1.670   3.067   2.777  0.3689  0.4854  0.7777
  506SOL     MW 2024   1.626   3.086   2.856 -0.4753  0.1664  0.1660
  507SOL     OW 2025   0.936   2.695   2.859  0.0417 -0.5069 -0.1336
  507SOL    HW1 2026   0.976   2.756   2.793 -1.1523  1.1046 -0.9804
  507SOL    HW2 2027   0.846   2.728   2.860 -0.9230 -2.3091  3.9083
  507SOL     MW 2028   0.929   2.708   2.850 -0.2431 -0.5321  0.2880
  508SOL     OW 2029   1.222   2.125   2.500 -0.5389 -0.0883  0.1443
  508SOL    HW1 2030   1.254   2.091   2.590  0.9755  1.5183 -0.1191
  508SOL    HW2 2031   1.156   2.182   2.533 -2.3793  2.6632  0.8766
  508SOL     MW 2032   1.218   2.128   2.516 -0.5819  0.4867  0.2061
  509SOL     OW 2033   0.619   2.600   2.785 -0.3763  0.3184 -0.6785
  509SOL    HW1 2034   0.609   2.555   2.705 -0.5214  0.2118  0.4383
  509SOL    HW2 2035   0.529   2.600   2.827 -1.0184 -0.0068 -0.4445
  509SOL     MW 2036   0.606   2.594   2.780 -0.4801  0.2614 -0.5003
  510SOL     OW 2037   1.515   2.612   1.676 -0.6564 -0.6001  0.3183
  510SOL    HW1 2038   1.544   2.702   1.634  1.4386  1.3803 -0.8833
  510SOL    HW2 2039   1.485   2.633   1.766  0.5813  2.5512 -0.9272
  510SOL     MW 2040   1.515   2.626   1.682 -0.2167  0.0770 -0.0046
  511SOL     OW 2041   0.433   2.635   2.441  0.0092 -0.5209  0.2848
  511SOL    HW1 2042   0.532   2.604   2.460  2.5417  1.4533  1.0539
  511SOL    HW2 2043   0.425   2.656   2.345  0.7155  1.3657  2.8782
  511SOL     MW 2044   0.445   2.634   2.431  0.4365 -0.0115  0.7285
  512SOL     OW 2045   0.950   2.025   2.796 -0.2194  0.0529  0.0047
  512SOL    HW1 2046   0.888   2.081   2.854  1.2133  1.4734 -1.0564
  512SOL    HW2 2047   0.986   1.951   2.850 -2.0186 -0.7247 -2.2110
  512SOL     MW 2048   0.946   2.022   2.811 -0.2678  0.1377 -0.4276
  513SOL     OW 2049   1.622   2.485   2.250  0.1775  0.0712  0.6922
  513SOL    HW1 2050   1.702   2.518   2.211 -2.6166  1.0238 -0.8654
  513SOL    HW2 2051   1.644   2.408   2.303  1.1476 -0.5967  1.3533
  513SOL     MW 2052   1.636   2.479   2.252 -0.0632  0.1087  0.5739
  514SOL     OW 2053   0.260   2.499   2.597  0.4212  0.0744  0.4965
  514SOL    HW1 2054   0.325   2.571   2.570  1.4294  0.8316 -2.0447
  514SOL    HW2 2055   0.296   2.468   2.679 -2.3312  0.3356 -1.8940
  514SOL     MW 2056   0.273   2.504   2.604  0.1910  0.2087 -0.1542
  515SOL     OW 2057   1.144   2.013   2.006  0.1125 -0.0515  0.1011
  515SOL    HW1 2058   1.148   2.101   1.971  1.1751  0.8008 -2.0056
  515SOL    HW2 2059   1.228   2.003   2.056  3.7329 -0.8801 -0.8110
  515SOL     MW 2060   1.155   2.023   2.008  0.7304 -0.0484 -0.2972
  516SOL     OW 2061   1.464   2.468   3.096 -0.2163  0.7938  0.3324
  516SOL    HW1 2062   1.516   2.414   3.036  0.5511 -0.5378 -1.1893
  516SOL    HW2 2063   1.399   2.515   3.047  0.1861  1.1094  1.3365
  516SOL     MW 2064   1.462   2.467   3.082 -0.0620  0.6598  0.2641
  517SOL     OW 2065   0.544   2.461   2.239  0.0263 -0.3040 -0.9143
  517SOL    HW1 2066   0.498   2.434   2.316 -1.0014  0.1764 -0.5994
  517SOL    HW2 2067   0.503   2.416   2.156  2.0998  2.7662 -0.3255
  517SOL     MW 2068   0.533   2.451   2.238  0.1643  0.1645 -0.7951
  518SOL     OW 2069   1.800   0.154   3.080 -0.0067  0.2351 -0.2075
  518SOL    HW1 2070   1.768   0.199   3.160  0.1797  0.7645 -1.2840
  518SOL    HW2 2071   1.767   0.060   3.088  3.6459 -1.4679 -0.5926
  518SOL     MW 2072   1.791   0.147   3.092  0.4998  0.0803 -0.4004
  519SOL     OW 2073   0.724   2.406   1.762  0.2386  0.4188  0.0544
  519SOL    HW1 2074   0.761   2.324   1.791 -0.3232  0.1161  0.3277
  519SOL    HW2 2075   0.647   2.378   1.708  1.7764 -1.9383 -2.5618
  519SOL     MW 2076   0.719   2.391   1.759  0.3674  0.0679 -0.2547
  520SOL     OW 2077   1.175   2.123   2.962 -0.1567 -0.1445  0.3895
  520SOL    HW1 2078   1.095   2.102   2.911  0.3608  1.3614  0.3823
  520SOL    HW2 2079   1.186   2.066   3.039  0.2935 -2.6419  0.6615
  520SOL     MW 2080   1.166   2.113   2.965 -0.0290 -0.2753  0.4244
  521SOL     OW 2081   1.749   1.976   2.167 -0.0835 -0.0057 -0.2589
  521SOL    HW1 2082   1.778   2.004   2.083 -0.4860 -0.6678  0.6502
  521SOL    HW2 2083   1.706   1.894   2.164 -0.8233  0.4860  0.4807
  521SOL     MW 2084   1.747   1.969   2.155 -0.2342 -0.0282 -0.0414
  522SOL     OW 2085   2.911   2.522   2.253 -0.0772  0.2574  0.0756
  522SOL    HW1 2086   2.991   2.464   2.279 -1.7828 -0.0930  0.3777
  522SOL    HW2 2087   2.935   2.607   2.284  0.5741 -2.4199  0.5206
  522SOL     MW 2088   2.924   2.526   2.261 -0.2163 -0.1420  0.1742
  523SOL     OW 2089   0.942   1.548   2.141  0.2232  0.8173 -0.0367
  523SOL    HW1 2090   0.890   1.587   2.075 -0.8870  0.5041  0.0386
  523SOL    HW2 2091   0.967   1.459   2.108 -1.0474  1.1005 -0.3939
  523SOL     MW 2092   0.938   1.542   2.128 -0.0909  0.8133 -0.0739
  524SOL     OW 2093   0.631   2.396   2.976  0.2602  0.2767  0.0107
  524SOL    HW1 2094   0.638   2.460   2.902 -0.0091 -0.1694  2.2338
  524SOL    HW2 2095   0.707   2.334   2.984  0.1206  4.2161  1.6101
  524SOL     MW 2096   0.642   2.396   2.967  0.2063  0.7376  0.5150
  525SOL     OW 2097   0.443   2.292   2.039 -0.1772  0.2535  0.5821
  525SOL    HW1 2098   0.382   2.231   2.076  0.8335 -1.1568 -1.8502
  525SOL    HW2 2099   0.461   2.244   1.955  0.5573 -1.4696 -3.5828
  525SOL     MW 2100   0.438   2.278   2.033  0.0530 -0.1599 -0.2883
  526SOL     OW 2101   0.662   2.028   1.971  0.6529 -0.6297 -0.3425
  526SOL    HW1 2102   0.706   2.063   1.900 -2.5617 -1.6012 -0.4623
  526SOL    HW2 2103   0.671   2.099   2.037 -1.3877 -0.3746  0.6507
  526SOL     MW 2104   0.669   2.042   1.970 -0.0405 -0.7242 -0.2273
  527SOL     OW 2105   1.415   2.023   2.108  0.1252  0.2167 -0.2415
  527SOL    HW1 2106   1.409   1.977   2.196 -0.2453 -1.8455 -0.2258
  527SOL    HW2 2107   1.435   1.947   2.056  0.3935  0.9396 -1.6260
  527SOL     MW 2108   1.417   2.007   2.112  0.1117  0.0400 -0.4221
  528SOL     OW 2109   0.713   2.876   2.861  0.2641  0.2153  0.0490
  528SOL    HW1 2110   0.702   2.968   2.884 -0.1014  0.2065 -0.2400
  528SOL    HW2 2111   0.652   2.856   2.790  0.0727  1.6527 -0.1091
  528SOL     MW 2112   0.703   2.886   2.854  0.1906  0.4038 -0.0100
  529SOL     OW 2113   1.093   2.264   1.881  0.2574 -0.8840  0.4063
  529SOL    HW1 2114   1.065   2.303   1.964  0.7782 -0.1610  1.2582
  529SOL    HW2 2115   1.080   2.342   1.814  3.8257  5.1426  1.7820
  529SOL     MW 2116   1.087   2.280   1.883  0.7969  0.0066  0.7002
  530SOL     OW 2117   1.150   2.428   3.042  0.0827 -0.3879 -0.6912
  530SOL    HW1 2118   1.106   2.443   3.123  0.8580 -1.3580 -0.9039
  530SOL    HW2 2119   1.151   2.331   3.035 -4.8347 -0.1601  0.2827
  530SOL     MW 2120   1.144   2.417   3.052 -0.4638 -0.4858 -0.5908
  531SOL     OW 2121   0.948   1.870   2.559 -0.2316  0.3192 -0.0808
  531SOL    HW1 2122   0.954   1.918   2.645 -1.2082 -2.0491  3.1686
  531SOL    HW2 2123   0.900   1.789   2.591  0.0564  0.5059 -2.5290
  531SOL     MW 2124   0.943   1.866   2.575 -0.3225  0.0314  0.0249
  532SOL     OW 2125   1.708   0.348   2.847  0.7844 -0.2577 -0.7520
  532SOL    HW1 2126   1.710   0.279   2.912  0.5136  3.5098  1.3695
  532SOL    HW2 2127   1.803   0.378   2.848 -1.8101  1.4882  0.5326
  532SOL     MW 2128   1.720   0.343   2.856  0.4063  0.4697 -0.3026
  533SOL     OW 2129   1.841   2.677   2.980  0.0803 -0.1784 -0.0406
  533SOL    HW1 2130   1.798   2.618   3.041 -1.2138 -2.2617  2.4044
  533SOL    HW2 2131   1.784   2.684   2.902  0.1010 -1.3751  2.4612
  533SOL     MW 2132   1.827   2.670   2.978 -0.0877 -0.6112  0.6121
  534SOL     OW 2133   1.805   2.354   2.467 -0.3417  0.3199  0.1636
  534SOL    HW1 2134   1.727   2.329   2.526 -0.8589  0.4096  1.3560
  534SOL    HW2 2135   1.884   2.353   2.520 -1.9554  3.7358 -0.7477
  534SOL     MW 2136   1.805   2.350   2.482 -0.6229  0.7824  0.2006
  535SOL     OW 2137   1.861   2.367   1.858 -0.0598 -0.0001 -0.9375
  535SOL    HW1 2138   1.811   2.393   1.780  2.1274  0.8467 -0.1729
  535SOL    HW2 2139   1.951   2.404   1.849 -1.0688  2.0142 -2.1153
  535SOL     MW 2140   1.866   2.375   1.846  0.0957  0.3774 -0.9921
  536SOL     OW 2141   0.431   1.885   2.027 -0.0598 -0.1272  0.2470
  536SOL    HW1 2142   0.411   1.811   1.973 -0.1603 -2.3309  0.3703
  536SOL    HW2 2143   0.509   1.937   1.993  0.2541  1.2827  0.7375
  536SOL     MW 2144   0.439   1.882   2.015 -0.0317 -0.2319  0.3280
  537SOL     OW 2145   1.005   0.157   2.880 -0.0578  0.1096 -0.2124
  537SOL    HW1 2146   1.015   0.162   2.972  1.3468  0.6694 -1.4964
  537SOL    HW2 2147   1.032   0.248   2.849  0.0708 -1.3430 -1.7877
  537SOL     MW 2148   1.010   0.169   2.888  0.1445 -0.0082 -0.5896
  538SOL     OW 2149   1.370   0.057   2.978  0.1112 -0.4252 -0.0139
  538SOL    HW1 2150   1.364   0.150   2.966 -1.0361 -0.6908  0.7328
  538SOL    HW2 2151   1.444   0.033   2.924 -0.3927 -0.9372  0.1789
  538SOL     MW 2152   1.379   0.066   2.969 -0.1067 -0.5278  0.1101
  539SOL     OW 2153   0.758   2.768   2.539  0.1951 -0.5113 -0.1587
  539SOL    HW1 2154   0.854   2.789   2.571  0.4443  0.1328  0.4650
  539SOL    HW2 2155   0.733   2.689   2.584 -2.0667  1.4359 -0.5840
  539SOL     MW 2156   0.767   2.760   2.549 -0.0704 -0.1694 -0.1326
  540SOL     OW 2157   0.384   2.400   2.834  0.6862  0.2103 -0.1174
  540SOL    HW1 2158   0.474   2.383   2.855 -1.6201  0.9133 -2.0444
  540SOL    HW2 2159   0.344   2.349   2.905 -0.4270  0.5092 -1.5025
  540SOL     MW 2160   0.390   2.391   2.846  0.2351  0.3425 -0.5544
  541SOL     OW 2161   0.179   2.944   2.218  0.0027  0.3589 -0.1667
  541SOL    HW1 2162   0.211   2.904   2.137  1.8819  0.1224 -1.2074
  541SOL    HW2 2163   0.210   2.882   2.285  1.3901 -0.3080  3.0529
  541SOL     MW 2164   0.187   2.931   2.216  0.4337  0.2397  0.1207
  542SOL     OW 2165   1.002   2.250   2.615  0.2312  0.3743  0.7529
  542SOL    HW1 2166   0.974   2.181   2.669  0.2275 -0.4959 -1.3002
  542SOL    HW2 2167   1.039   2.315   2.679  0.5855  2.8134 -0.9591
  542SOL     MW 2168   1.003   2.249   2.630  0.2774  0.5813  0.2561
  543SOL     OW 2169   1.437   2.460   2.806  0.0753 -0.3577  0.5342
  543SOL    HW1 2170   1.461   2.402   2.729 -0.6530 -1.0792 -1.4074
  543SOL    HW2 2171   1.506   2.532   2.805 -0.8408  1.8001  1.1285
  543SOL     MW 2172   1.449   2.462   2.795 -0.1417 -0.1682  0.3564
  544SOL     OW 2173   0.733   0.202   2.694  0.8635 -0.4971  0.5716
  544SOL    HW1 2174   0.640   0.182   2.680 -3.7908  0.2692  0.0835
  544SOL    HW2 2175   0.778   0.134   2.641 -1.2184 -0.3338 -0.6797
  544SOL     MW 2176   0.726   0.190   2.685 -0.0253 -0.3745  0.3421
  545SOL     OW 2177   1.564   2.178   2.327 -0.1183  0.3663  0.1103
  545SOL    HW1 2178   1.503   2.197   2.253  0.8871  0.6427 -1.2011
  545SOL    HW2 2179   1.644   2.149   2.278 -1.4718  0.4782  0.2517
  545SOL     MW 2180   1.566   2.177   2.311 -0.1643  0.4176 -0.0441
  546SOL     OW 2181   3.007   2.007   0.132  0.1471 -0.3722 -0.2334
  546SOL    HW1 2182   2.998   2.067   0.058  1.9312 -2.2904  0.4787
  546SOL    HW2 2183   3.090   1.958   0.122  0.8432 -2.1428 -1.6074
  546SOL     MW 2184   3.017   2.008   0.121  0.4743 -0.8589 -0.3208
  547SOL     OW 2185   0.299   2.999   0.119  0.0607  1.1178  0.1394
  547SOL    HW1 2186   0.375   3.037   0.062  0.9287  2.7510 -1.4351
  547SOL    HW2 2187   0.300   2.902   0.097 -1.2390 -1.0657  0.6226
  547SOL     MW 2188   0.309   2.991   0.108  0.0038  1.0452 -0.0046
  548SOL     OW 2189   0.272   2.548   0.214 -0.1957 -0.1268 -0.5295
  548SOL    HW1 2190   0.287   2.602   0.138 -1.1828 -0.1118  1.6201
  548SOL    HW2 2191   0.180   2.525   0.202  2.0401  0.0521 -1.1441
  548SOL     MW 2192   0.262   2.552   0.202 -0.0310 -0.1012 -0.3270
  549SOL     OW 2193   0.868   1.878   2.158  0.2145 -0.0074 -0.1770
  549SOL    HW1 2194   0.804   1.937   2.114 -0.6368 -1.2787  0.0056
  549SOL    HW2 2195   0.833   1.859   2.246  2.1263 -4.6028  1.5130
  549SOL     MW 2196   0.855   1.883   2.164  0.3544 -0.7815  0.0701
  550SOL     OW 2197   1.788   1.704   2.573 -0.4025 -0.1968  0.8382
  550SOL    HW1 2198   1.800   1.728   2.476  1.9479 -1.1016  1.1675
  550SOL    HW2 2199   1.770   1.791   2.607 -0.1113 -1.8002  0.6041
  550SOL     MW 2200   1.787   1.718   2.564 -0.0539 -0.5277  0.8507
  551SOL     OW 2201   0.881   2.257   0.238  0.1125  0.1437  0.0822
  551SOL    HW1 2202   0.975   2.263   0.228 -0.3719  1.7059 -1.0677
  551SOL    HW2 2203   0.861   2.177   0.187  0.7553 -1.2605  0.8206
  551SOL     MW 2204   0.891   2.247   0.230  0.1334  0.1646  0.0279
  552SOL     OW 2205   1.779   1.729   2.288  0.2691 -0.5342  0.3343
  552SOL    HW1 2206   1.675   1.718   2.296 -0.8058 -0.0045 -2.0400
  552SOL    HW2 2207   1.814   1.658   2.218  2.8169 -2.5222 -1.9133
  552SOL     MW 2208   1.770   1.718   2.280  0.4634 -0.7266 -0.2755
  553SOL     OW 2209   1.194   2.316   1.453  0.0477 -0.3149  0.4697
  553SOL    HW1 2210   1.247   2.241   1.477  0.7872  4.0294 -0.2365
  553SOL    HW2 2211   1.263   2.376   1.419 -2.3867  0.5761 -1.2084
  553SOL     MW 2212   1.210   2.314   1.451 -0.1759  0.3758  0.1551
  554SOL     OW 2213   0.540   2.915   2.642 -0.1988 -0.2207 -0.1609
  554SOL    HW1 2214   0.495   2.984   2.595  2.7457 -1.4884  2.4389
  554SOL    HW2 2215   0.614   2.887   2.589 -0.7848 -0.5329 -0.4721
  554SOL     MW 2216   0.544   2.920   2.628  0.1123 -0.4292  0.1411
  555SOL     OW 2217   0.638   2.502   2.531  0.4947  0.3391 -0.4165
  555SOL    HW1 2218   0.597   2.418   2.524  0.7969  4.6851 -1.1536
  555SOL    HW2 2219   0.727   2.489   2.496 -2.2740 -1.2402 -1.0631
  555SOL     MW 2220   0.644   2.489   2.525  0.1693  0.7042 -0.5990
  556SOL     OW 2221   0.965   1.812   0.144 -0.1714  0.3283 -0.5836
  556SOL    HW1 2222   0.999   1.840   0.056  1.2117 -0.9874 -2.7290
  556SOL    HW2 2223   1.016   1.848   0.216 -1.6776 -0.5270 -1.6856
  556SOL     MW 2224   0.976   1.821   0.142 -0.1876  0.0418 -1.0120
  557SOL     OW 2225   0.978   2.663   0.525  0.1218 -0.2039  0.3418
  557SOL    HW1 2226   1.027   2.639   0.447 -0.8910 -0.7540  0.5917
  557SOL    HW2 2227   0.920   2.739   0.494  0.8525  1.1718 -0.7495
  557SOL     MW 2228   0.977   2.670   0.511  0.0846 -0.0950  0.2308
  558SOL     OW 2229   0.269   2.243   3.028 -0.1202  0.8099  0.2272
  558SOL    HW1 2230   0.239   2.163   2.988 -0.6741  2.9265 -3.3271
  558SOL    HW2 2231   0.199   2.289   3.076 -2.6912  2.0595 -0.3128
  558SOL     MW 2232   0.256   2.239   3.029 -0.5325  1.2540 -0.3130
  559SOL     OW 2233   1.009   2.340   2.130 -0.2290  0.2299  0.3098
  559SOL    HW1 2234   1.034   2.431   2.149 -0.2218 -0.1208  0.3302
  559SOL    HW2 2235   1.004   2.297   2.220 -2.2008  1.5200 -0.6937
  559SOL     MW 2236   1.011   2.347   2.144 -0.4882  0.3538  0.1801
  560SOL     OW 2237   1.981   2.859   0.042  0.9852  0.5835  0.3094
  560SOL    HW1 2238   2.044   2.901  -0.015  0.9694 -0.4000  1.2526
  560SOL    HW2 2239   1.944   2.782   0.002 -2.9255  1.2078 -0.0179
  560SOL     MW 2240   1.984   2.854   0.029  0.4671  0.5361  0.3907
  561SOL     OW 2241   0.404   2.203   0.172 -0.3275 -0.0227 -0.0163
  561SOL    HW1 2242   0.373   2.227   0.077 -1.4459  0.0796 -2.9784
  561SOL    HW2 2243   0.438   2.280   0.210  0.9213  2.5405 -2.5280
  561SOL     MW 2244   0.404   2.216   0.164 -0.3103  0.3290 -0.7385
  562SOL     OW 2245   0.734   2.181   2.195 -0.3453 -0.7216 -0.4076
  562SOL    HW1 2246   0.739   2.275   2.204 -1.0583  0.2610  0.6699
  562SOL    HW2 2247   0.822   2.153   2.230  1.8288  0.0766 -0.6895
  562SOL     MW 2248   0.747   2.190   2.201 -0.1525 -0.4867 -0.3026
  563SOL     OW 2249   1.186   0.306   0.559  0.3397 -0.3923  0.1167
  563SOL    HW1 2250   1.108   0.281   0.505  2.1058  0.1079 -1.1260
  563SOL    HW2 2251   1.232   0.231   0.597  0.7180  2.3416  1.3510
  563SOL     MW 2252   1.182   0.293   0.557  0.6226  0.0344  0.1156
  564SOL     OW 2253   1.048   2.599   2.244  0.2175 -0.6391  0.2716
  564SOL    HW1 2254   1.088   2.648   2.164 -1.6785  1.5705  2.4344
  564SOL    HW2 2255   1.116   2.591   2.315  1.8656 -3.9287  0.1418
  564SOL     MW 2256   1.062   2.604   2.243  0.1848 -0.7816  0.5399
  565SOL     OW 2257   2.882   2.735   2.671 -0.5209  0.1086 -0.0851
  565SOL    HW1 2258   2.944   2.806   2.650 -1.1687  1.5528  0.8900
  565SOL    HW2 2259   2.813   2.748   2.603 -0.3281  0.0637 -2.9254
  565SOL     MW 2260   2.881   2.746   2.659 -0.5809  0.2933 -0.3312
  566SOL     OW 2261   2.179   1.868   2.353  0.8212 -0.2879 -0.6701
  566SOL    HW1 2262   2.190   1.836   2.264  1.9026  0.5219 -0.9287
  566SOL    HW2 2263   2.235   1.950   2.368 -1.5605  0.8124 -3.0966
  566SOL     MW 2264   2.188   1.874   2.343  0.6497 -0.0359 -1.0244
  567SOL     OW 2265   1.196   2.898   2.919  0.4074  0.0360  0.5136
  567SOL    HW1 2266   1.247   2.963   2.960 -0.9948 -4.4725  1.4456
  567SOL    HW2 2267   1.247   2.827   2.954  2.7479  0.3310 -2.0928
  567SOL     MW 2268   1.209   2.897   2.929  0.5312 -0.5200  0.2927
  568SOL     OW 2269   1.609   2.150   2.875  0.2232 -0.2696 -0.0713
  568SOL    HW1 2270   1.637   2.187   2.962  0.0330 -0.8437 -0.8868
  568SOL    HW2 2271   1.670   2.084   2.852 -2.5417  1.8756  0.3678
  568SOL     MW 2272   1.621   2.146   2.884 -0.1667 -0.0623 -0.1210
  569SOL     OW 2273   0.195   2.252   2.477  0.2686  0.1033 -0.4375
  569SOL    HW1 2274   0.128   2.256   2.409 -1.1446  1.7327 -3.2328
  569SOL    HW2 2275   0.210   2.345   2.504 -3.6518  0.6835  0.5330
  569SOL     MW 2276   0.188   2.265   2.471 -0.4351  0.3949 -0.6782
  570SOL     OW 2277   1.450   0.383   0.494  0.7830 -0.3424  0.2849
  570SOL    HW1 2278   1.367   0.402   0.545 -1.4964  2.0127  1.7818
  570SOL    HW2 2279   1.524   0.379   0.559  0.9109 -0.2740 -1.3925
  570SOL     MW 2280   1.449   0.385   0.509  0.4992 -0.0227  0.2610
  571SOL     OW 2281   1.509   2.446   2.009  0.1106  0.2886 -0.1982
  571SOL    HW1 2282   1.555   2.459   2.095  0.0348 -0.9480  0.7093
  571SOL    HW2 2283   1.523   2.362   1.972  0.6345  0.2337  1.6285
  571SOL     MW 2284   1.517   2.437   2.015  0.1697  0.1182  0.1625
  572SOL     OW 2285   0.984   2.667   0.058  0.4775 -0.3122  0.9384
  572SOL    HW1 2286   1.001   2.628  -0.028  2.2596 -1.1665  0.7817
  572SOL    HW2 2287   0.895   2.647   0.075 -1.1373  0.4651 -2.7496
  572SOL     MW 2288   0.975   2.659   0.049  0.4995 -0.3224  0.4312
  573SOL     OW 2289   1.146   2.315   0.218 -0.0633  0.4524  0.0754
  573SOL    HW1 2290   1.238   2.310   0.202  1.5228 -2.2376 -0.7219
  573SOL    HW2 2291   1.131   2.398   0.269 -0.0678 -2.0458  0.1497
  573SOL     MW 2292   1.156   2.325   0.223  0.1453 -0.2321 -0.0200
  574SOL     OW 2293   1.115   2.586   0.291 -0.1287 -0.7146  0.4133
  574SOL    HW1 2294   1.192   2.629   0.320  3.9983 -1.5927 -2.5644
  574SOL    HW2 2295   1.072   2.640   0.220 -3.7662  0.1149 -0.8352
  574SOL     MW 2296   1.119   2.599   0.286 -0.0641 -0.7210 -0.1443
  575SOL     OW 2297   0.057   2.271   1.819  0.1075 -0.9431  0.0239
  575SOL    HW1 2298   0.056   2.185   1.776 -0.7522 -1.6300 -1.0017
  575SOL    HW2 2299   0.105   2.341   1.769 -0.6000  0.9182  1.9620
  575SOL     MW 2300   0.064   2.269   1.807 -0.0993 -0.7881  0.1443
  576SOL     OW 2301   2.810   1.805   2.111  0.1661 -0.1067 -0.0409
  576SOL    HW1 2302   2.823   1.871   2.046  0.6835 -0.4895  3.3394
  576SOL    HW2 2303   2.732   1.761   2.070  1.0722 -0.4024 -0.6925
  576SOL     MW 2304   2.802   1.808   2.097  0.3539 -0.1962  0.3191
  577SOL     OW 2305   2.085   0.200   0.108 -0.0163  0.0924 -0.1518
  577SOL    HW1 2306   2.027   0.217   0.039 -1.0586 -0.0847 -0.4259
  577SOL    HW2 2307   2.036   0.147   0.175  0.6470 -0.2746  1.5395
  577SOL     MW 2308   2.071   0.195   0.108 -0.0663  0.0206  0.0352
  578SOL     OW 2309   1.926   2.011   2.367 -0.2153 -0.1694 -0.6123
  578SOL    HW1 2310   1.887   1.982   2.286 -0.7752 -0.5646 -0.1402
  578SOL    HW2 2311   2.010   1.961   2.378  0.0089 -1.5235  2.9049
  578SOL     MW 2312   1.932   2.001   2.357 -0.2596 -0.4002 -0.0860
  579SOL     OW 2313   0.872   2.425   2.404  0.1867 -0.7199  0.2371
  579SOL    HW1 2314   0.901   2.349   2.460 -0.9425  1.4883 -0.4327
  579SOL    HW2 2315   0.949   2.480   2.379  1.3805 -1.2321 -1.3829
  579SOL     MW 2316   0.886   2.423   2.408  0.1952 -0.4961 -0.0650
  580SOL     OW 2317   0.951   2.926   3.058  0.2220  0.1178 -0.1123
  580SOL    HW1 2318   1.037   2.883   3.043 -1.2598  0.6706  0.5640
  580SOL    HW2 2319   0.900   2.894   2.983 -0.8548 -3.0766 -0.4100
  580SOL     MW 2320   0.956   2.916   3.046 -0.1156 -0.2307 -0.0623
  581SOL     OW 2321   1.138   2.471   1.687 -0.8917 -0.3641 -0.4145
  581SOL    HW1 2322   1.188   2.501   1.761 -1.4768  1.7741  3.4993
  581SOL    HW2 2323   1.190   2.418   1.624 -0.8779 -0.3852 -3.6527
  581SOL     MW 2324   1.152   2.468   1.688 -0.9671 -0.0848 -0.3253
  582SOL     OW 2325   0.017   2.856   2.567  0.1685 -0.6618 -0.1130
  582SOL    HW1 2326   0.014   2.935   2.625 -2.7765  0.4447 -1.7476
  582SOL    HW2 2327   0.102   2.855   2.528 -2.2633  0.8087 -0.9744
  582SOL     MW 2328   0.028   2.866   2.570 -0.5409 -0.3218 -0.4423
  583SOL     OW 2329   2.003   2.402   2.668 -0.1947  0.6011 -0.3993
  583SOL    HW1 2330   2.083   2.400   2.615 -0.0653  0.6594 -2.4142
  583SOL    HW2 2331   1.974   2.306   2.684 -1.4414 -0.6320 -2.4186
  583SOL     MW 2332   2.010   2.389   2.663 -0.3421  0.4461 -0.9316
  584SOL     OW 2333   0.226   1.852   2.222 -0.3793  0.1636  0.0600
  584SOL    HW1 2334   0.311   1.849   2.173 -1.3456 -0.0893 -0.6275
  584SOL    HW2 2335   0.230   1.942   2.250 -0.2024  0.7215  0.5737
  584SOL     MW 2336   0.238   1.863   2.219 -0.4834  0.2039  0.0371
  585SOL     OW 2337   1.527   2.663   0.185 -0.4345 -0.2102  0.6488
  585SOL    HW1 2338   1.497   2.599   0.122 -0.9340  2.7673 -0.8230
  585SOL    HW2 2339   1.460   2.665   0.252 -1.6706 -0.2827  1.5729
  585SOL     MW 2340   1.514   2.655   0.186 -0.6635  0.1731  0.5766
  586SOL     OW 2341   1.341   2.849   2.532  0.0179  0.3805  0.4039
  586SOL    HW1 2342   1.417   2.795   2.489  1.6216 -1.6055 -0.5311
  586SOL    HW2 2343   1.375   2.936   2.526 -1.6303 -1.3225  0.4122
  586SOL     MW 2344   1.356   2.853   2.525  0.0120 -0.1062  0.2816
  587SOL     OW 2345   1.317   1.566   2.181 -0.3231  0.2610 -0.7163
  587SOL    HW1 2346   1.284   1.498   2.244  0.0851  0.0093 -0.0420
  587SOL    HW2 2347   1.298   1.537   2.094  0.8952 -0.8218 -0.1109
  587SOL     MW 2348   1.311   1.554   2.177 -0.1085  0.0849 -0.5474
  588SOL     OW 2349   1.329   2.086   2.752 -0.1196 -0.6617 -0.4122
  588SOL    HW1 2350   1.420   2.091   2.778  2.0050 -1.5875  0.2586
  588SOL    HW2 2351   1.280   2.116   2.837 -1.0036  2.5990 -1.0357
  588SOL     MW 2352   1.334   2.091   2.767  0.0441 -0.3537 -0.4060
  589SOL     OW 2353   1.275   2.041   0.112  0.1508  0.2373  0.1912
  589SOL    HW1 2354   1.323   2.115   0.155  0.7342 -0.3305  0.0944
  589SOL    HW2 2355   1.226   1.994   0.179  1.1431  0.6175  0.5282
  589SOL     MW 2356   1.275   2.045   0.126  0.3587  0.2125  0.2229
  590SOL     OW 2357   0.457   2.785   2.210 -0.1400  0.1357 -0.4266
  590SOL    HW1 2358   0.450   2.722   2.143 -0.9246  2.1777  2.0873
  590SOL    HW2 2359   0.549   2.784   2.235 -1.7238  1.1269 -1.8468
  590SOL     MW 2360   0.468   2.777   2.204 -0.4525  0.5359 -0.2823
  591SOL     OW 2361   2.254   0.650   0.016 -0.2471 -0.4716  0.2354
  591SOL    HW1 2362   2.183   0.701  -0.023  0.7046  1.7852  0.5214
  591SOL    HW2 2363   2.342   0.684  -0.025  4.7999  2.7221  0.6752
  591SOL     MW 2364   2.256   0.661   0.005  0.5444  0.2476  0.3312
  592SOL     OW 2365   1.779   2.954   0.831  0.4912 -0.0760  0.0238
  592SOL    HW1 2366   1.768   3.028   0.764  0.1836  2.2753 -1.9803
  592SOL    HW2 2367   1.850   2.907   0.792  1.1382 -0.0487  2.4643
  592SOL     MW 2368   1.787   2.958   0.817  0.5359  0.2378  0.0814
  593SOL     OW 2369   1.972   0.668   0.832  0.1058  0.2629 -0.2853
  593SOL    HW1 2370   1.894   0.667   0.772 -1.4806 -2.0210 -1.3218
  593SOL    HW2 2371   1.974   0.580   0.867  0.7905 -0.5897 -1.7517
  593SOL     MW 2372   1.962   0.657   0.829 -0.0131 -0.1509 -0.6155
  594SOL     OW 2373   2.833   1.153   1.356 -0.3639  0.3688 -0.2807
  594SOL    HW1 2374   2.924   1.194   1.378  0.2584  0.6004 -0.6518
  594SOL    HW2 2375   2.860   1.093   1.287 -1.9557 -1.6860  4.2675
  594SOL     MW 2376   2.849   1.150   1.349 -0.4918  0.1282  0.2704
  595SOL     OW 2377   0.407   1.017   0.837 -0.1775  0.1266 -0.0943
  595SOL    HW1 2378   0.439   1.071   0.762 -2.8650  1.9783  0.5358
  595SOL    HW2 2379   0.418   1.068   0.922 -0.3986 -0.8376 -1.4590
  595SOL     MW 2380   0.413   1.031   0.838 -0.5612  0.2437 -0.1912
  596SOL     OW 2381   2.456   1.311   0.582  0.0139 -0.0934 -0.9016
  596SOL    HW1 2382   2.494   1.389   0.548  0.3018 -0.9585  0.1879
  596SOL    HW2 2383   2.518   1.270   0.644  0.8994 -0.4639  0.9960
  596SOL     MW 2384   2.469   1.316   0.586  0.1687 -0.2564 -0.5075
  597SOL     OW 2385   2.204   0.704   1.605 -0.2990 -0.0752  0.0392
  597SOL    HW1 2386   2.218   0.642   1.678 -0.1373 -0.2965  0.9903
  597SOL    HW2 2387   2.140   0.653   1.547 -0.5451  0.1093 -1.2013
  597SOL     MW 2388   2.197   0.689   1.607 -0.3101 -0.0800  0.0010
  598SOL     OW 2389   2.598   1.002   2.856 -0.3913 -0.0079 -0.5071
  598SOL    HW1 2390   2.596   0.960   2.768  0.5528 -1.6352  0.2658
  598SOL    HW2 2391   2.691   1.038   2.867  0.7519  2.3072  1.0930
  598SOL     MW 2392   2.610   1.001   2.846 -0.1159  0.0828 -0.1940
  599SOL     OW 2393   2.946   0.412   2.080 -0.0355  0.1949  0.3176
  599SOL    HW1 2394   2.999   0.417   2.164 -1.2105 -0.3281  1.4506
  599SOL    HW2 2395   2.971   0.500   2.045 -1.8099  0.7500 -0.2396
  599SOL     MW 2396   2.956   0.424   2.087 -0.4246  0.1992  0.3935
  600SOL     OW 2397   1.862   1.597   0.829 -0.6183 -0.0664  0.0645
  600SOL    HW1 2398   1.927   1.639   0.886  1.5651 -1.2762 -0.4995
  600SOL    HW2 2399   1.782   1.648   0.848 -1.4916  1.0561  0.2781
  600SOL     MW 2400   1.860   1.610   0.839 -0.4455 -0.0779  0.0183
  601SOL     OW 2401   2.501   0.760   0.816  0.7429 -0.0264 -0.6340
  601SOL    HW1 2402   2.489   0.790   0.914 -1.1458  0.6650  1.9585
  601SOL    HW2 2403   2.422   0.716   0.787  0.6689 -1.0358  1.4802
  601SOL     MW 2404   2.489   0.758   0.825  0.4839 -0.0684 -0.0130
  602SOL     OW 2405   2.343   1.928   0.810 -0.6663 -0.4363 -0.4896
  602SOL    HW1 2406   2.321   1.838   0.785 -1.0333 -1.1558  1.0900
  602SOL    HW2 2407   2.288   1.986   0.760  0.1926 -1.5801 -0.9204
  602SOL     MW 2408   2.332   1.924   0.800 -0.6014 -0.6821 -0.3380
  603SOL     OW 2409   3.098   1.348   1.817  0.1325 -0.0278  0.1981
  603SOL    HW1 2410   3.129   1.409   1.885  1.7913 -1.2656 -1.4091
  603SOL    HW2 2411   3.068   1.263   1.852  1.2474 -2.5843 -1.4783
  603SOL     MW 2412   3.098   1.345   1.830  0.4985 -0.5284 -0.2351
  604SOL     OW 2413   2.165   1.554   0.457 -0.3695 -1.2349  0.4194
  604SOL    HW1 2414   2.167   1.463   0.493  0.3469 -1.7975  0.1470
  604SOL    HW2 2415   2.083   1.605   0.494 -3.6984  0.7433 -0.9636
  604SOL     MW 2416   2.154   1.549   0.466 -0.7142 -1.0481  0.2010
  605SOL     OW 2417   2.605   1.483   0.846 -0.0337 -0.9321  0.1695
  605SOL    HW1 2418   2.578   1.545   0.772  1.2700  1.2085 -0.1471
  605SOL    HW2 2419   2.621   1.401   0.796 -0.8986 -0.4132  0.9383
  605SOL     MW 2420   2.604   1.480   0.829  0.0242 -0.5812  0.2291
  606SOL     OW 2421   2.582   1.703   2.007 -0.2466 -0.8114  0.4363
  606SOL    HW1 2422   2.489   1.715   2.006  0.8537 -1.9345 -1.2165
  606SOL    HW2 2423   2.612   1.665   1.923  1.6941 -1.6135 -0.3065
  606SOL     MW 2424   2.574   1.699   1.996  0.1546 -1.0654  0.1202
  607SOL     OW 2425   2.395   1.122   3.044  0.3623 -0.2137 -0.5735
  607SOL    HW1 2426   2.465   1.113   2.978  0.9986 -0.3191 -1.1887
  607SOL    HW2 2427   2.419   1.083   3.128  1.1046 -0.8029  1.5501
  607SOL     MW 2428   2.407   1.115   3.047  0.5442 -0.3054 -0.3745
  608SOL     OW 2429   1.859   0.273   0.614  0.1657  0.2025 -0.4967
  608SOL    HW1 2430   1.837   0.320   0.533  0.1454  0.5842  1.3763
  608SOL    HW2 2431   1.814   0.190   0.607  2.6562 -1.6529 -0.4009
  608SOL     MW 2432   1.850   0.268   0.602  0.4916  0.0081 -0.2369
  609SOL     OW 2433   2.048   1.992   3.020  0.1477 -0.4386  0.0524
  609SOL    HW1 2434   1.979   1.931   3.005 -2.0194 -0.7439 -1.3949
  609SOL    HW2 2435   2.101   1.966   3.101  2.5438  1.7240  2.1924
  609SOL     MW 2436   2.046   1.981   3.029  0.1779 -0.1935  0.1438
  610SOL     OW 2437   1.786   0.991   1.292 -0.1953  0.0832  0.4560
  610SOL    HW1 2438   1.801   0.917   1.233 -0.6948  1.4769  3.5301
  610SOL    HW2 2439   1.691   1.006   1.289 -0.5695 -1.1847 -4.1577
  610SOL     MW 2440   1.775   0.983   1.284 -0.3106  0.0998  0.2528
  611SOL     OW 2441   2.536   1.715   0.686 -0.2714 -0.1829 -0.1854
  611SOL    HW1 2442   2.556   1.799   0.733  1.3695 -0.1549  1.2336
  611SOL    HW2 2443   2.443   1.691   0.692  1.7686 -2.0049 -1.0389
  611SOL     MW 2444   2.526   1.723   0.693  0.2143 -0.4196 -0.1108
  612SOL     OW 2445   2.817   2.833   0.411  0.6090  0.2315 -0.4223
  612SOL    HW1 2446   2.850   2.885   0.489 -1.2867  0.4220 -0.4392
  612SOL    HW2 2447   2.900   2.792   0.369  1.1253  0.0366  0.7888
  612SOL     MW 2448   2.832   2.835   0.416  0.4270  0.2309 -0.2648
  613SOL     OW 2449   1.477   1.019   0.906  0.1163  0.1278 -0.2036
  613SOL    HW1 2450   1.467   1.114   0.911 -2.4759  0.4689 -1.5790
  613SOL    HW2 2451   1.531   0.993   0.978 -0.6170 -0.9335 -3.3796
  613SOL     MW 2452   1.483   1.028   0.916 -0.3224  0.0328 -0.8041
  614SOL     OW 2453   2.024   0.571   1.459 -0.2819  0.1436 -0.2353
  614SOL    HW1 2454   2.000   0.509   1.535 -3.3615 -1.5021 -0.8355
  614SOL    HW2 2455   1.956   0.549   1.392  0.8638  0.2722  3.6669
  614SOL     MW 2456   2.012   0.560   1.460 -0.5371 -0.0566  0.2003
  615SOL     OW 2457   2.382   0.745   0.234 -0.1070 -0.0501 -0.4297
  615SOL    HW1 2458   2.433   0.668   0.269  3.6384  2.3029  0.2793
  615SOL    HW2 2459   2.333   0.725   0.148 -0.7012 -0.0353 -4.9114
  615SOL     MW 2460   2.382   0.732   0.228  0.3088  0.2623 -0.9274
  616SOL     OW 2461   2.543   0.410   1.652 -0.1276  0.3291  0.1146
  616SOL    HW1 2462   2.485   0.355   1.603 -1.1288 -0.3834 -0.3231
  616SOL    HW2 2463   2.556   0.490   1.600  1.2687 -1.3241 -1.3182
  616SOL     MW 2464   2.537   0.414   1.639 -0.0755  0.0170 -0.1322
  617SOL     OW 2465   2.806   0.644   1.726 -0.2210 -0.8246 -0.6516
  617SOL    HW1 2466   2.754   0.632   1.803 -0.4758  2.5947  0.2924
  617SOL    HW2 2467   2.823   0.568   1.675 -0.2124 -0.4508 -0.2472
  617SOL     MW 2468   2.801   0.633   1.730 -0.2535 -0.3241 -0.4737
  618SOL     OW 2469   2.739   0.351   1.933 -0.1863 -0.1112  0.1678
  618SOL    HW1 2470   2.696   0.432   1.964  1.0624 -1.3787  0.5361
  618SOL    HW2 2471   2.831   0.364   1.963  0.9785 -0.6413 -1.3992
  618SOL     MW 2472   2.745   0.364   1.941  0.1321 -0.3484  0.0097
  619SOL     OW 2473   2.658   0.687   0.085 -0.5577  0.2527 -0.1372
  619SOL    HW1 2474   2.703   0.766   0.125  0.0731  1.9893  0.8796
  619SOL    HW2 2475   2.615   0.646   0.161  0.4104 -2.0978 -1.0460
  619SOL     MW 2476   2.658   0.692   0.100 -0.3467  0.1717 -0.1230
  620SOL     OW 2477   2.209   1.058   0.953 -0.1189 -0.1523 -1.0500
  620SOL    HW1 2478   2.284   1.033   0.902 -1.5392  1.5254  0.6557
  620SOL    HW2 2479   2.138   1.005   0.922  0.6629 -1.6680 -2.4854
  620SOL     MW 2480   2.209   1.048   0.942 -0.2032 -0.1309 -1.0143
  621SOL     OW 2481   1.549   2.182   1.898 -0.2747  0.3235 -0.3694
  621SOL    HW1 2482   1.507   2.139   1.976  1.5414  1.6208 -0.6260
  621SOL    HW2 2483   1.634   2.150   1.899 -0.1793 -0.4393  0.7674
  621SOL     MW 2484   1.555   2.172   1.908 -0.0225  0.3940 -0.2533
  622SOL     OW 2485   2.625   0.174   0.227  0.2418  0.0793 -0.0351
  622SOL    HW1 2486   2.715   0.208   0.236  0.3610 -0.1402 -1.6379
  622SOL    HW2 2487   2.629   0.089   0.272 -0.7458  0.5798 -0.5333
  622SOL     MW 2488   2.638   0.168   0.234  0.1272  0.1164 -0.3123
  623SOL     OW 2489   2.384   2.779   0.838  0.6731  0.3696 -0.2734
  623SOL    HW1 2490   2.461   2.841   0.847  0.9456 -0.9728  0.5909
  623SOL    HW2 2491   2.357   2.774   0.928 -0.7470  2.8907 -1.2814
  623SOL     MW 2492   2.391   2.787   0.851  0.5217  0.5251 -0.2924
  624SOL     OW 2493   2.155   1.699   2.982 -0.4028 -0.3891  0.3808
  624SOL    HW1 2494   2.114   1.627   3.021 -1.3692 -1.2313 -1.3503
  624SOL    HW2 2495   2.078   1.745   2.972  1.1637  0.5063 -2.1060
  624SOL     MW 2496   2.140   1.695   2.986 -0.3236 -0.3821 -0.1757
  625SOL     OW 2497   2.204   1.905   1.060 -0.0752  0.3031 -0.8026
  625SOL    HW1 2498   2.275   1.880   1.124 -1.9353 -0.9830 -2.5109
  625SOL    HW2 2499   2.244   1.925   0.975  0.8527  1.6315  0.5133
  625SOL     MW 2500   2.219   1.904   1.057 -0.1982  0.3087 -0.8544
  626SOL     OW 2501   0.313   1.614   2.375 -0.1194  1.3303  0.4898
  626SOL    HW1 2502   0.262   1.537   2.409  0.9138 -2.5742  2.3425
  626SOL    HW2 2503   0.250   1.674   2.340 -0.1899  1.3845 -0.8459
  626SOL     MW 2504   0.298   1.612   2.375  0.0076  0.8223  0.5580
  627SOL     OW 2505   2.439   0.710   2.565 -0.0515  0.3119 -0.7064
  627SOL    HW1 2506   2.409   0.799   2.588  1.6647 -0.6579  0.4178
  627SOL    HW2 2507   2.428   0.691   2.474 -0.7178 -0.7869  0.5486
  627SOL     MW 2508   2.434   0.719   2.556  0.0870  0.0389 -0.3925
  628SOL     OW 2509   2.346   1.431   1.339  0.0663  0.4671 -0.3938
  628SOL    HW1 2510   2.308   1.349   1.298  2.5441  0.8235 -0.6261
  628SOL    HW2 2511   2.433   1.434   1.307 -2.4222  1.9498  1.9662
  628SOL     MW 2512   2.353   1.420   1.329  0.0649  0.7097 -0.1130
  629SOL     OW 2513   1.867   0.531   1.234  0.1133  0.4064 -0.4245
  629SOL    HW1 2514   1.867   0.619   1.195 -0.0397  0.1026 -2.8660
  629SOL    HW2 2515   1.777   0.520   1.274 -2.5788  2.2337  0.2275
  629SOL     MW 2516   1.855   0.541   1.234 -0.2621  0.6074 -0.6606
  630SOL     OW 2517   2.405   1.809   3.043 -0.2689 -0.1919  0.6052
  630SOL    HW1 2518   2.404   1.896   3.005  0.1292 -2.3433  2.3141
  630SOL    HW2 2519   2.315   1.779   3.013 -1.5830 -0.8358 -2.2647
  630SOL     MW 2520   2.393   1.816   3.034 -0.3897 -0.5607  0.4520
  631SOL     OW 2521   2.025   1.828   1.584  0.5794 -0.0350 -0.7900
  631SOL    HW1 2522   2.061   1.746   1.615  0.7964  3.8586  1.3105
  631SOL    HW2 2523   2.021   1.816   1.489 -2.2488 -0.5176  1.6338
  631SOL     MW 2524   2.029   1.816   1.575  0.2349  0.4151 -0.1931
  632SOL     OW 2525   0.179   1.942   1.391  0.0783 -0.0770 -0.5944
  632SOL    HW1 2526   0.150   1.936   1.486  1.4579  0.3208  1.3940
  632SOL    HW2 2527   0.190   1.857   1.356  3.0376  3.5486  0.5343
  632SOL     MW 2528   0.177   1.930   1.399  0.6508  0.4539 -0.1831
  633SOL     OW 2529   2.554   0.511   0.306 -0.1970  0.8497 -0.0237
  633SOL    HW1 2530   2.590   0.539   0.394 -0.6622  1.2460  0.1528
  633SOL    HW2 2531   2.518   0.423   0.309  0.2212 -0.7107 -2.2400
  633SOL     MW 2532   2.554   0.503   0.318 -0.2032  0.6961 -0.2928
  634SOL     OW 2533   2.649   0.047   0.652  0.0776 -0.1546 -0.2571
  634SOL    HW1 2534   2.707   0.121   0.669  1.1605 -1.9842 -0.6966
  634SOL    HW2 2535   2.644   0.058   0.557  1.0070  3.2384 -0.5994
  634SOL     MW 2536   2.656   0.058   0.642  0.3431  0.0517 -0.3603
  635SOL     OW 2537   2.599   0.114   1.847  0.1876  0.1268 -0.4660
  635SOL    HW1 2538   2.655   0.085   1.778 -2.2662  1.5095  1.0952
  635SOL    HW2 2539   2.633   0.192   1.884 -2.5505 -0.1472  1.2830
  635SOL     MW 2540   2.611   0.121   1.843 -0.4974  0.2731 -0.0292
  636SOL     OW 2541   2.819   1.595   1.003 -0.1891  0.0781 -0.9257
  636SOL    HW1 2542   2.735   1.632   1.031 -0.6383 -1.5254 -2.4883
  636SOL    HW2 2543   2.879   1.668   0.988 -0.3389 -2.8156  2.0339
  636SOL     MW 2544   2.816   1.610   1.005 -0.2682 -0.5153 -0.7414
  637SOL     OW 2545   2.873   1.457   0.747 -0.1471 -0.3890 -0.1631
  637SOL    HW1 2546   2.883   1.522   0.679 -2.0578 -1.9089 -0.0533
  637SOL    HW2 2547   2.816   1.497   0.816  2.3699  0.5769 -0.3675
  637SOL     MW 2548   2.867   1.471   0.747 -0.0671 -0.4621 -0.1756
  638SOL     OW 2549   2.695   0.516   0.584 -0.0511  0.0507 -0.2658
  638SOL    HW1 2550   2.785   0.485   0.561 -1.1837 -1.1294  2.9280
  638SOL    HW2 2551   2.705   0.562   0.666 -1.1712 -0.5395 -1.2109
  638SOL     MW 2552   2.708   0.518   0.591 -0.3483 -0.1829  0.0309
  639SOL     OW 2553   1.728   0.027   0.582 -0.8805  0.3341 -0.2778
  639SOL    HW1 2554   1.647   0.062   0.557  0.9714 -0.3535 -1.5582
  639SOL    HW2 2555   1.737  -0.051   0.532 -0.1552 -1.3482  1.9723
  639SOL     MW 2556   1.718   0.021   0.572 -0.5405  0.0214 -0.1499
  640SOL     OW 2557   0.321   1.296   0.127 -0.2116  0.0388 -0.2781
  640SOL    HW1 2558   0.349   1.317   0.031 -1.0665  0.8171 -1.2401
  640SOL    HW2 2559   0.287   1.201   0.116 -1.7974 -2.8380  2.6664
  640SOL     MW 2560   0.320   1.286   0.113 -0.5336 -0.2381 -0.0165
  641SOL     OW 2561   2.175   0.394   0.399  0.1435  0.2037  0.3447
  641SOL    HW1 2562   2.225   0.389   0.312 -0.0350  1.5053  1.6847
  641SOL    HW2 2563   2.234   0.356   0.461  0.0676  0.7028  2.8121
  641SOL     MW 2564   2.189   0.388   0.396  0.1100  0.4413  0.8471
  642SOL     OW 2565   0.052   3.088   0.563 -0.3406 -0.0114  0.1333
  642SOL    HW1 2566   0.005   3.161   0.509 -1.6809 -0.3229 -2.6123
  642SOL    HW2 2567  -0.016   3.039   0.608  2.9835 -1.1427  0.2257
  642SOL     MW 2568   0.037   3.091   0.562 -0.0788 -0.2017 -0.2167
  643SOL     OW 2569   1.985   0.358   1.623  0.3316  0.6245  0.4672
  643SOL    HW1 2570   1.898   0.354   1.673  0.0307  0.4254  0.1335
  643SOL    HW2 2571   1.993   0.277   1.566 -2.1398  1.0069 -1.1171
  643SOL     MW 2572   1.975   0.347   1.622 -0.0342  0.6487  0.2141
  644SOL     OW 2573   2.762   1.985   1.064 -0.0103 -0.5570  0.4151
  644SOL    HW1 2574   2.722   1.905   1.099 -1.3773 -0.3676 -2.7045
  644SOL    HW2 2575   2.687   2.045   1.036 -1.5562 -0.9204  0.1349
  644SOL     MW 2576   2.747   1.982   1.065 -0.3946 -0.5799 -0.0335
  645SOL     OW 2577   2.838   0.838   0.637 -0.3359 -0.3728  0.5851
  645SOL    HW1 2578   2.923   0.804   0.660 -0.3403 -0.7259 -1.6279
  645SOL    HW2 2579   2.781   0.796   0.706  0.9187 -0.8306  1.0000
  645SOL     MW 2580   2.842   0.828   0.649 -0.1709 -0.4798  0.3478
  646SOL     OW 2581   0.095   2.285   0.844 -0.4294 -0.1258 -0.3152
  646SOL    HW1 2582   0.112   2.187   0.827  1.7788 -0.7196  1.9146
  646SOL    HW2 2583   0.012   2.301   0.802 -0.0472  2.3988  1.8948
  646SOL     MW 2584   0.087   2.274   0.837 -0.0876  0.1289  0.2706
  647SOL     OW 2585   2.684   0.469   2.898 -0.2913  0.2219 -0.1278
  647SOL    HW1 2586   2.704   0.466   2.990 -1.9137 -0.4547  1.2496
  647SOL    HW2 2587   2.591   0.444   2.898  0.1492  0.0258  2.7856
  647SOL     MW 2588   2.674   0.465   2.910 -0.4473  0.1068  0.4383
  648SOL     OW 2589   2.111   0.738   1.184  0.4686  0.1868 -0.2029
  648SOL    HW1 2590   2.131   0.656   1.230 -0.1750 -3.1534  0.8676
  648SOL    HW2 2591   2.188   0.800   1.193  0.0723 -0.4376  1.1885
  648SOL     MW 2592   2.124   0.735   1.191  0.3314 -0.3363  0.1219
  649SOL     OW 2593   2.383   2.658   1.279 -0.3623  0.0053  0.2525
  649SOL    HW1 2594   2.470   2.695   1.288  2.1364 -1.7060  0.2234
  649SOL    HW2 2595   2.412   2.566   1.282  0.8579 -2.8861  3.2767
  649SOL     MW 2596   2.398   2.651   1.280  0.1284 -0.6020  0.6477
  650SOL     OW 2597   2.853   0.232   0.625 -0.2421  0.2791  0.8147
  650SOL    HW1 2598   2.896   0.311   0.655  0.2058  1.1670 -1.4021
  650SOL    HW2 2599   2.903   0.216   0.537  1.6761  1.0064 -2.4529
  650SOL     MW 2600   2.865   0.240   0.617  0.0701  0.4922  0.0911
  651SOL     OW 2601   3.062   0.429   0.949  0.4457 -0.0473  0.4188
  651SOL    HW1 2602   3.107   0.497   0.891  2.5847  1.4672 -0.2274
  651SOL    HW2 2603   3.014   0.476   1.017 -0.4450 -1.4366  1.6285
  651SOL     MW 2604   3.062   0.444   0.950  0.6104 -0.0308  0.4932
  652SOL     OW 2605   2.437   1.546   3.033 -0.5748  0.5509  0.4336
  652SOL    HW1 2606   2.498   1.554   2.957 -3.4575  2.3259  0.4857
  652SOL    HW2 2607   2.398   1.632   3.044  0.5535 -2.7878 -0.2874
  652SOL     MW 2608   2.440   1.558   3.024 -0.8063  0.3446  0.3454
  653SOL     OW 2609   1.809   0.439   0.394  0.5839  0.5015 -0.0618
  653SOL    HW1 2610   1.738   0.400   0.334  0.5220  1.7131 -4.0940
  653SOL    HW2 2611   1.888   0.454   0.343 -1.8102 -0.5468 -0.2628
  653SOL     MW 2612   1.810   0.436   0.379  0.2598  0.5231 -0.6203
  654SOL     OW 2613   2.422   1.037   0.773  0.1556 -0.2235 -0.0172
  654SOL    HW1 2614   2.376   1.006   0.693  0.7303  0.4924  0.6536
  654SOL    HW2 2615   2.465   0.949   0.800 -1.8013  0.0462 -1.7787
  654SOL     MW 2616   2.421   1.021   0.766 -0.0268 -0.0935 -0.1611
  655SOL     OW 2617   2.942   0.833   0.367  0.3425 -0.4407 -0.3177
  655SOL    HW1 2618   2.910   0.865   0.452 -0.4663  0.4781 -0.6419
  655SOL    HW2 2619   2.941   0.739   0.381  1.6034 -2.4703  1.5888
  655SOL     MW 2620   2.938   0.825   0.380  0.4022 -0.5873 -0.1090
  656SOL     OW 2621   1.883   2.717   1.347 -0.1497 -0.7829  0.1292
  656SOL    HW1 2622   1.902   2.807   1.348 -0.9464 -1.9609  1.7537
  656SOL    HW2 2623   1.932   2.669   1.418  0.2744 -3.5675  3.4370
  656SOL     MW 2624   1.892   2.723   1.357 -0.1989 -1.3057  0.7800
  657SOL     OW 2625   0.126   1.773   1.183 -0.6226  0.2262  0.2466
  657SOL    HW1 2626   0.196   1.811   1.135 -1.5143  0.0489  0.6044
  657SOL    HW2 2627   0.125   1.673   1.173  0.8782 -1.0565 -0.6740
  657SOL     MW 2628   0.135   1.765   1.175 -0.5422  0.0336  0.1723
  658SOL     OW 2629   2.680   1.354   0.255 -0.0086  0.1235 -0.2345
  658SOL    HW1 2630   2.655   1.276   0.314 -1.2806 -2.6590  1.2743
  658SOL    HW2 2631   2.701   1.433   0.306 -0.0736  1.9583  0.6313
  658SOL     MW 2632   2.679   1.354   0.270 -0.1850 -0.0016  0.0788
  659SOL     OW 2633   2.272   1.541   1.019 -0.2188 -0.3974 -0.1567
  659SOL    HW1 2634   2.366   1.513   1.043  0.4622 -0.4991 -2.1466
  659SOL    HW2 2635   2.242   1.595   1.087 -0.0352  1.2556  0.2117
  659SOL     MW 2636   2.281   1.545   1.031 -0.1047 -0.1927 -0.3706
  660SOL     OW 2637   2.056   1.575   1.670  0.0181  0.0106  0.0664
  660SOL    HW1 2638   2.068   1.575   1.770  3.8546 -1.3116 -0.0718
  660SOL    HW2 2639   1.968   1.535   1.652 -1.8771  1.1763 -0.2819
  660SOL     MW 2640   2.046   1.569   1.681  0.2742 -0.0100  0.0022
  661SOL     OW 2641   2.454   1.014   0.182 -0.1058 -0.6250  0.0627
  661SOL    HW1 2642   2.528   1.040   0.240 -0.5739  0.8267  0.1651
  661SOL    HW2 2643   2.444   0.920   0.189  2.4907  0.7953 -0.0564
  661SOL     MW 2644   2.462   1.005   0.190  0.1750 -0.2461  0.0605
  662SOL     OW 2645   2.555   2.980   0.901 -0.3360  0.1672  0.2735
  662SOL    HW1 2646   2.491   3.036   0.950  2.0035  0.8678  0.4300
  662SOL    HW2 2647   2.589   3.033   0.827  0.3947 -0.6385  1.1106
  662SOL     MW 2648   2.551   2.994   0.897  0.0691  0.1533  0.4046
  663SOL     OW 2649   2.643   1.498   0.505  0.1822  0.0036  0.0524
  663SOL    HW1 2650   2.645   1.591   0.473 -0.8816  2.9557 -3.0308
  663SOL    HW2 2651   2.707   1.484   0.571  0.4300 -1.6964 -0.9710
  663SOL     MW 2652   2.652   1.508   0.510  0.0745  0.1688 -0.4894
  664SOL     OW 2653   2.543   1.522   1.551  0.4477  0.3893  0.4109
  664SOL    HW1 2654   2.502   1.606   1.570 -0.9130 -0.3091 -0.1504
  664SOL    HW2 2655   2.468   1.461   1.558 -2.7098  2.2465 -1.7357
  664SOL     MW 2656   2.528   1.525   1.554 -0.1484  0.5422  0.0536
  665SOL     OW 2657   2.854   0.863   2.008  0.1772 -0.0111  0.0634
  665SOL    HW1 2658   2.814   0.887   1.927 -3.3505 -2.4120  0.9791
  665SOL    HW2 2659   2.917   0.797   1.994  0.0517  0.9926  1.4891
  665SOL     MW 2660   2.857   0.858   1.996 -0.3048 -0.1954  0.3723
  666SOL     OW 2661   2.792   3.049   1.727  0.3074 -0.0449 -0.0862
  666SOL    HW1 2662   2.781   3.067   1.632 -3.8791  0.4249  0.2812
  666SOL    HW2 2663   2.737   2.974   1.741  0.3490 -0.6979 -0.9676
  666SOL     MW 2664   2.783   3.041   1.716 -0.2395 -0.0690 -0.1540
  667SOL     OW 2665   1.947   2.668   1.798 -0.5783 -0.1683  0.4215
  667SOL    HW1 2666   1.963   2.676   1.895  1.6006 -1.7924  0.7194
  667SOL    HW2 2667   2.019   2.715   1.754  0.0439 -3.3634 -1.6398
  667SOL     MW 2668   1.959   2.676   1.805 -0.2087 -0.8041  0.1888
  668SOL     OW 2669   2.743   0.653   0.833 -0.6503  0.0146  0.2172
  668SOL    HW1 2670   2.797   0.664   0.917 -1.3981 -2.0843 -2.6071
  668SOL    HW2 2671   2.654   0.690   0.835  2.7527 -0.4489 -1.9802
  668SOL     MW 2672   2.738   0.659   0.844 -0.3000 -0.3235 -0.4454
  669SOL     OW 2673   0.207   0.926   0.676 -0.0066 -0.4873  0.2485
  669SOL    HW1 2674   0.168   0.995   0.721 -0.9098  1.3464 -1.2854
  669SOL    HW2 2675   0.293   0.934   0.705 -1.1151  0.4949 -0.7541
  669SOL     MW 2676   0.213   0.937   0.686 -0.2720 -0.1158 -0.0862
  670SOL     OW 2677   2.891   0.258   0.200 -0.3423  0.8465 -0.1568
  670SOL    HW1 2678   2.910   0.190   0.133 -1.3958  1.0807 -3.0474
  670SOL    HW2 2679   2.911   0.346   0.174  1.9685 -0.2096 -2.4676
  670SOL     MW 2680   2.896   0.261   0.188 -0.1764  0.7380 -0.8431
  671SOL     OW 2681   2.059   3.032   1.525  0.4546  0.0119  0.0743
  671SOL    HW1 2682   1.989   3.011   1.460 -1.9301 -0.2801  0.4130
  671SOL    HW2 2683   2.008   3.066   1.601 -1.1075  0.0553  1.2568
  671SOL     MW 2684   2.043   3.034   1.527 -0.0661 -0.0209  0.2750
  672SOL     OW 2685   1.906   1.730   1.321 -0.2761  0.4289  0.0621
  672SOL    HW1 2686   1.817   1.753   1.338 -1.3227 -0.3657 -0.2412
  672SOL    HW2 2687   1.923   1.745   1.231 -1.6258 -1.1028  0.1322
  672SOL     MW 2688   1.897   1.735   1.311 -0.5923  0.1220  0.0313
  673SOL     OW 2689   2.776   1.107   0.601  0.0161  0.4421  0.0461
  673SOL    HW1 2690   2.779   1.014   0.623 -0.1144  2.9310  0.1570
  673SOL    HW2 2691   2.864   1.131   0.604 -1.0126  0.4832 -0.7986
  673SOL     MW 2692   2.788   1.098   0.605 -0.1369  0.7759 -0.0508
  674SOL     OW 2693   2.440   3.066   1.311 -0.0233 -0.3303  0.4886
  674SOL    HW1 2694   2.432   3.090   1.218  0.4839 -2.5046  1.4456
  674SOL    HW2 2695   2.423   2.973   1.314 -0.7885  0.0775 -1.0830
  674SOL     MW 2696   2.437   3.057   1.299 -0.0573 -0.5634  0.4075
  675SOL     OW 2697   3.073   0.906   1.060  0.0277 -0.2889  0.0828
  675SOL    HW1 2698   3.142   0.873   1.112 -2.6069  2.1265  0.6716
  675SOL    HW2 2699   3.118   0.950   0.987 -0.6328 -1.7331 -0.3185
  675SOL     MW 2700   3.088   0.907   1.057 -0.4071 -0.1608  0.1075
  676SOL     OW 2701   2.911   1.495   1.681  0.0849 -0.3457  0.4064
  676SOL    HW1 2702   2.850   1.437   1.629  2.6772 -0.1930 -0.7965
  676SOL    HW2 2703   2.976   1.447   1.729  0.8076  2.1794  0.1035
  676SOL     MW 2704   2.911   1.481   1.680  0.5222  0.0076  0.2077
  677SOL     OW 2705   2.373   0.592   2.008 -0.8233  0.8127  0.5173
  677SOL    HW1 2706   2.329   0.539   1.939  1.0226  0.2496 -0.4136
  677SOL    HW2 2707   2.329   0.675   2.010 -1.2279  2.9758  0.8819
  677SOL     MW 2708   2.362   0.596   1.999 -0.6331  1.0238  0.4426
  678SOL     OW 2709   2.550   1.674   0.279 -0.3160  0.7026 -0.0069
  678SOL    HW1 2710   2.489   1.708   0.351  0.6410 -0.1399  1.2904
  678SOL    HW2 2711   2.518   1.586   0.255  0.4988 -1.2836 -1.6228
  678SOL     MW 2712   2.538   1.667   0.285 -0.0822  0.3294 -0.0489
  679SOL     OW 2713   2.211   0.458   1.297 -0.0381 -0.2822  0.4195
  679SOL    HW1 2714   2.189   0.380   1.245 -0.1540  1.0644 -1.1941
  679SOL    HW2 2715   2.152   0.462   1.374  3.5781 -2.1941  3.0272
  679SOL     MW 2716   2.200   0.449   1.301  0.4237 -0.3568  0.5507
  680SOL     OW 2717   2.363   0.170   1.489 -0.2084  0.0695 -0.4854
  680SOL    HW1 2718   2.275   0.204   1.466  4.4012 -0.8965 -1.5056
  680SOL    HW2 2719   2.374   0.096   1.421  0.9474 -2.7854 -1.8942
  680SOL     MW 2720   2.353   0.165   1.477  0.5523 -0.4347 -0.8059
  681SOL     OW 2721   0.295   0.505   1.533 -0.4602 -0.5019 -0.1645
  681SOL    HW1 2722   0.263   0.454   1.602  0.3915 -0.1579  0.5973
  681SOL    HW2 2723   0.380   0.532   1.556 -2.2983 -0.5510 -2.7596
  681SOL     MW 2724   0.302   0.502   1.545 -0.5904 -0.4630 -0.4064
  682SOL     OW 2725   0.101   2.880   1.492  0.6992 -0.1165 -0.1229
  682SOL    HW1 2726   0.141   2.916   1.572 -0.9520  1.6374  0.8048
  682SOL    HW2 2727   0.013   2.903   1.514  2.6306 -0.2586  0.8873
  682SOL     MW 2728   0.095   2.888   1.506  0.7362  0.0961  0.1328
  683SOL     OW 2729   2.085   0.811   2.978 -0.0691 -0.6520  0.0446
  683SOL    HW1 2730   1.989   0.800   2.967 -0.1380  0.1622  0.1032
  683SOL    HW2 2731   2.088   0.900   3.014  0.0139 -0.5316 -2.1113
  683SOL     MW 2732   2.073   0.822   2.981 -0.0672 -0.5287 -0.2321
  684SOL     OW 2733   2.224   1.672   0.786  0.1672  0.5267 -1.1090
  684SOL    HW1 2734   2.187   1.596   0.736  0.9154 -1.0267 -2.1458
  684SOL    HW2 2735   2.240   1.634   0.876  2.3032  0.0402 -0.3079
  684SOL     MW 2736   2.222   1.657   0.792  0.5478  0.2575 -1.1401
  685SOL     OW 2737   2.614   1.737   1.230  0.2908 -0.7167  0.0932
  685SOL    HW1 2738   2.696   1.735   1.283  0.5692 -1.8300  0.5116
  685SOL    HW2 2739   2.591   1.646   1.223  0.3280  0.5982  0.8173
  685SOL     MW 2740   2.621   1.725   1.236  0.3325 -0.6901  0.2440
  686SOL     OW 2741   2.893   0.807   1.522  0.3138 -0.6307  0.4387
  686SOL    HW1 2742   2.865   0.757   1.600 -1.4762 -2.3454 -0.6753
  686SOL    HW2 2743   2.988   0.818   1.530 -0.1895  3.3284 -0.9108
  686SOL     MW 2744   2.902   0.802   1.533  0.0112 -0.3346  0.1137
  687SOL     OW 2745   2.155   0.188   1.171 -0.2981  0.0505 -0.2628
  687SOL    HW1 2746   2.203   0.109   1.138  4.1342 -1.6865  0.4180
  687SOL    HW2 2747   2.084   0.196   1.103 -1.9249 -0.7330  0.2147
  687SOL     MW 2748   2.152   0.179   1.158  0.0720 -0.2821 -0.1100
  688SOL     OW 2749   2.390   0.581   1.454  0.5895 -0.1916 -0.0559
  688SOL    HW1 2750   2.338   0.545   1.374 -2.0149 -0.1915 -1.7885
  688SOL    HW2 2751   2.317   0.612   1.511 -1.9967 -0.1599  2.9290
  688SOL     MW 2752   2.373   0.580   1.451 -0.0953 -0.1874  0.1093
  689SOL     OW 2753   2.473   0.770   2.983 -0.7494 -0.5211 -0.1339
  689SOL    HW1 2754   2.493   0.861   2.955  0.7617  0.9111 -0.5436
  689SOL    HW2 2755   2.544   0.755   3.055 -0.2673  3.8836 -0.6438
  689SOL     MW 2756   2.485   0.780   2.988 -0.4864  0.2491 -0.2552
  690SOL     OW 2757   2.042   0.907   1.878  0.1649 -0.6796 -0.9386
  690SOL    HW1 2758   2.014   0.816   1.876 -0.3260 -1.9856 -1.0819
  690SOL    HW2 2759   2.040   0.948   1.791 -1.0182 -0.6092  0.6001
  690SOL     MW 2760   2.038   0.900   1.866 -0.0560 -0.8426 -0.7545
  691SOL     OW 2761   2.394   0.319   0.910 -0.1617  0.3299 -0.2149
  691SOL    HW1 2762   2.468   0.369   0.939  1.6218  0.5770 -0.1398
  691SOL    HW2 2763   2.316   0.375   0.914 -0.8547 -1.0536  1.6830
  691SOL     MW 2764   2.393   0.333   0.915 -0.0178  0.1800  0.0454
  692SOL     OW 2765   2.838   1.713   1.378 -0.7406  0.0072 -0.2268
  692SOL    HW1 2766   2.803   1.661   1.447  1.3489  0.5171 -0.2391
  692SOL    HW2 2767   2.894   1.780   1.422  1.0967  2.4887  0.8483
  692SOL     MW 2768   2.841   1.715   1.393 -0.2225  0.4019 -0.0866
  693SOL     OW 2769   2.267   0.411   0.141 -0.5510 -0.4427  0.0865
  693SOL    HW1 2770   2.203   0.343   0.131  0.8160  2.1027  1.2437
  693SOL    HW2 2771   2.234   0.494   0.106 -1.6538  2.3965 -0.8536
  693SOL     MW 2772   2.254   0.413   0.135 -0.5162  0.2677  0.1152
  694SOL     OW 2773   1.921   1.211   1.204  0.2671  0.1628 -0.0993
  694SOL    HW1 2774   2.012   1.197   1.229  1.3398 -2.4125 -1.1107
  694SOL    HW2 2775   1.883   1.126   1.232  0.6710  0.8294  0.2300
  694SOL     MW 2776   1.928   1.198   1.211  0.4619 -0.0891 -0.1893
  695SOL     OW 2777   3.033   1.511   1.330 -0.1862  0.6473 -0.8672
  695SOL    HW1 2778   3.017   1.440   1.265 -0.2376 -0.6064  0.9819
  695SOL    HW2 2779   2.976   1.584   1.309  0.8798 -1.9195 -0.6828
  695SOL     MW 2780   3.023   1.511   1.319 -0.0523  0.1432 -0.5989
  696SOL     OW 2781   2.131   1.313   0.840 -0.3062  0.1215 -0.2485
  696SOL    HW1 2782   2.150   1.378   0.916  1.3418  1.2586 -1.0008
  696SOL    HW2 2783   2.080   1.249   0.888 -0.8295 -0.2748  1.3433
  696SOL     MW 2784   2.126   1.313   0.856 -0.1578  0.2193 -0.1377
  697SOL     OW 2785   2.916   1.035   2.216 -0.5029  0.0095 -0.1610
  697SOL    HW1 2786   2.832   1.079   2.192  0.5776 -0.9640  1.9773
  697SOL    HW2 2787   2.913   0.966   2.155 -0.6383  1.3309 -0.4721
  697SOL     MW 2788   2.904   1.032   2.205 -0.3782  0.0554  0.0801
  698SOL     OW 2789   2.550   0.321   0.005  0.4464  0.5054  0.1398
  698SOL    HW1 2790   2.478   0.364   0.051 -0.4275  1.0044 -3.6681
  698SOL    HW2 2791   2.591   0.262   0.069  0.1928  0.8651 -2.5204
  698SOL     MW 2792   2.546   0.319   0.020  0.2976  0.6187 -0.7136
  699SOL     OW 2793   1.793   1.587   2.049 -0.6874 -0.6045  0.8657
  699SOL    HW1 2794   1.742   1.500   2.060  1.9504 -1.5684  1.9108
  699SOL    HW2 2795   1.887   1.576   2.012  0.0303 -1.2655 -0.0710
  699SOL     MW 2796   1.798   1.574   2.046 -0.2447 -0.8189  0.8800
  700SOL     OW 2797   2.672   0.955   1.490  0.0048 -0.3527 -0.1599
  700SOL    HW1 2798   2.719   1.024   1.444 -0.9124  1.0852 -1.2528
  700SOL    HW2 2799   2.742   0.886   1.492  0.7121 -1.9659  0.8051
  700SOL     MW 2800   2.687   0.955   1.484 -0.0229 -0.3759 -0.1768
  701SOL     OW 2801   1.642   1.182   2.440  0.1291  0.4778  0.0387
  701SOL    HW1 2802   1.728   1.222   2.422 -1.0369 -0.4853  1.1328
  701SOL    HW2 2803   1.614   1.227   2.523  1.3265 -3.0332  0.5029
  701SOL     MW 2804   1.649   1.193   2.449  0.1333 -0.1125  0.2443
  702SOL     OW 2805   2.124   0.440   0.846 -0.0981 -1.0380 -0.0557
  702SOL    HW1 2806   2.120   0.363   0.784 -0.6947  0.2794  0.7406
  702SOL    HW2 2807   2.150   0.507   0.782 -0.7835  2.1189  2.3660
  702SOL     MW 2808   2.127   0.439   0.829 -0.2672 -0.4477  0.3689
  703SOL     OW 2809   2.733   1.222   1.033  0.1167 -0.0468  0.7582
  703SOL    HW1 2810   2.690   1.195   0.944 -1.3164 -0.1877 -2.7252
  703SOL    HW2 2811   2.734   1.145   1.088 -1.0639  2.0348  0.5503
  703SOL     MW 2812   2.727   1.208   1.029 -0.2282  0.2093  0.2712
  704SOL     OW 2813   3.020   1.184   0.095 -0.0890 -0.2503 -0.2904
  704SOL    HW1 2814   2.922   1.193   0.069 -2.1066 -0.5577 -3.4238
  704SOL    HW2 2815   3.020   1.150   0.179  1.2150  0.6590 -2.1837
  704SOL     MW 2816   3.007   1.181   0.103 -0.1832 -0.1709 -0.9536
  705SOL     OW 2817   2.187   1.634   1.278  0.9710 -0.7450 -0.2187
  705SOL    HW1 2818   2.092   1.635   1.302 -3.1039 -0.2253 -1.5896
  705SOL    HW2 2819   2.228   1.543   1.283 -0.4601 -0.2775 -2.4785
  705SOL     MW 2820   2.180   1.622   1.282  0.2445 -0.6147 -0.6978
  706SOL     OW 2821   3.013   1.213   0.668  0.2371  0.3303 -0.0908
  706SOL    HW1 2822   3.068   1.215   0.585  0.6936  1.8419 -2.5753
  706SOL    HW2 2823   2.994   1.304   0.683 -0.9655 -1.9533 -1.4613
  706SOL     MW 2824   3.018   1.226   0.659  0.1386  0.2284 -0.5995
  707SOL     OW 2825   2.377   0.068   1.014 -0.4808 -0.1082  0.3007
  707SOL    HW1 2826   2.398   0.151   0.971  0.3011  3.0214  2.0532
  707SOL    HW2 2827   2.294   0.039   0.964  0.0024  0.2183 -1.6389
  707SOL     MW 2828   2.369   0.075   1.002 -0.3139  0.3478  0.2760
  708SOL     OW 2829   2.430   1.453   0.201 -0.4649 -0.4264 -0.0361
  708SOL    HW1 2830   2.501   1.401   0.232 -0.4477 -0.5359  2.0479
  708SOL    HW2 2831   2.436   1.476   0.107  1.4378  0.7274 -0.4819
  708SOL     MW 2832   2.440   1.449   0.193 -0.2116 -0.2886  0.1801
  709SOL     OW 2833   1.778   1.643   0.233 -0.2553 -0.5674 -0.1105
  709SOL    HW1 2834   1.760   1.664   0.145 -2.2509 -2.6766  2.2877
  709SOL    HW2 2835   1.704   1.683   0.285  0.4851  0.3979  1.8496
  709SOL     MW 2836   1.766   1.651   0.228 -0.4209 -0.7183  0.4645
  710SOL     OW 2837   2.219   1.223   1.204 -0.2131 -0.3452 -0.4626
  710SOL    HW1 2838   2.218   1.201   1.108 -2.2699  0.3724  0.2262
  710SOL    HW2 2839   2.226   1.135   1.251  1.6421 -2.0558 -0.2554
  710SOL     MW 2840   2.220   1.209   1.198 -0.2397 -0.4762 -0.3444
  711SOL     OW 2841   2.334   0.131   1.775  0.0383  0.0636 -0.6714
  711SOL    HW1 2842   2.429   0.145   1.789  0.4116  1.3331 -0.7946
  711SOL    HW2 2843   2.328   0.148   1.676 -0.5720  1.2181  0.4006
  711SOL     MW 2844   2.345   0.135   1.764  0.0070  0.3834 -0.5462
  712SOL     OW 2845   1.915   0.505   0.114 -0.1827 -0.0324  0.4239
  712SOL    HW1 2846   1.821   0.513   0.093 -2.7463 -0.1771 -1.4335
  712SOL    HW2 2847   1.954   0.587   0.154  0.0165 -1.1648  0.6964
  712SOL     MW 2848   1.908   0.517   0.116 -0.4947 -0.2009  0.2148
  713SOL     OW 2849   2.559   0.851   1.083  0.3451  0.4035  0.1164
  713SOL    HW1 2850   2.544   0.762   1.121 -1.5196  1.7875 -3.3501
  713SOL    HW2 2851   2.561   0.910   1.153 -3.3179  0.8045  0.6829
  713SOL     MW 2852   2.558   0.847   1.097 -0.3842  0.6390 -0.2662
  714SOL     OW 2853   2.235   0.230   2.016 -0.3075  0.1226  0.5307
  714SOL    HW1 2854   2.275   0.212   2.096  2.7469  2.4832 -1.5243
  714SOL    HW2 2855   2.294   0.207   1.948  0.9072 -0.9442  0.9275
  714SOL     MW 2856   2.248   0.224   2.018  0.2557  0.2933  0.3119
  715SOL     OW 2857   1.758   1.884   1.648 -0.3444 -0.6146  0.1593
  715SOL    HW1 2858   1.848   1.853   1.627  1.0038 -0.8903  0.3192
  715SOL    HW2 2859   1.739   1.850   1.736  0.7272  2.5048 -0.5921
  715SOL     MW 2860   1.767   1.875   1.657 -0.0251 -0.2394  0.0812
  716SOL     OW 2861   2.299   0.602   0.677  0.2660 -0.6874  0.5481
  716SOL    HW1 2862   2.350   0.524   0.649 -0.4052 -0.2012  1.4963
  716SOL    HW2 2863   2.262   0.639   0.592  0.4863  0.1566  0.9416
  716SOL     MW 2864   2.301   0.597   0.662  0.2065 -0.5119  0.7251
  717SOL     OW 2865   2.866   1.572   2.907  0.0107  0.2964 -0.4410
  717SOL    HW1 2866   2.961   1.575   2.932 -0.3378 -0.9045 -1.9229
  717SOL    HW2 2867   2.832   1.600   2.992  2.3734  4.2765 -1.1075
  717SOL     MW 2868   2.874   1.576   2.921  0.2764  0.6631 -0.7245
  718SOL     OW 2869   2.686   1.394   1.315  0.0301 -0.0245  0.1367
  718SOL    HW1 2870   2.654   1.419   1.403 -0.2900  0.9663 -0.8408
  718SOL    HW2 2871   2.742   1.320   1.322 -1.4338  1.9974 -0.3036
  718SOL     MW 2872   2.689   1.387   1.328 -0.2053  0.3730 -0.0503
  719SOL     OW 2873   2.185   1.298   0.563  0.1685  0.3534 -0.0621
  719SOL    HW1 2874   2.278   1.308   0.557 -1.9632  1.0928  0.3138
  719SOL    HW2 2875   2.160   1.311   0.655  1.0091 -1.6526 -1.1160
  719SOL     MW 2876   2.194   1.301   0.574 -0.0019  0.1863 -0.1516
  720SOL     OW 2877   2.748   1.213   0.028  0.0901 -0.2108 -0.0225
  720SOL    HW1 2878   2.684   1.144   0.016  0.8068  1.1454 -0.3892
  720SOL    HW2 2879   2.731   1.279   0.101 -1.1751 -0.2253  3.5111
  720SOL     MW 2880   2.737   1.212   0.036  0.0177 -0.0338  0.3954
  721SOL     OW 2881   2.428   0.848   1.362  0.0721  0.1839 -0.0636
  721SOL    HW1 2882   2.422   0.764   1.412 -0.2728 -2.0771  0.1731
  721SOL    HW2 2883   2.502   0.897   1.404 -0.6858 -1.8352  0.1919
  721SOL     MW 2884   2.437   0.844   1.374 -0.0734 -0.3808  0.0014
  722SOL     OW 2885   2.585   1.152   0.409 -0.0703 -0.1422  1.1572
  722SOL    HW1 2886   2.511   1.196   0.450  2.4033  1.9489  0.1007
  722SOL    HW2 2887   2.654   1.148   0.480 -0.9010  0.4283 -0.3042
  722SOL     MW 2888   2.584   1.157   0.424  0.1465  0.2090  0.8250
  723SOL     OW 2889   2.267   1.378   1.594  1.1873 -0.4846 -0.6589
  723SOL    HW1 2890   2.279   1.411   1.506  1.3285 -1.2844  1.2355
  723SOL    HW2 2891   2.198   1.435   1.642  0.4564  1.8223  1.1165
  723SOL     MW 2892   2.259   1.390   1.589  1.1095 -0.2858 -0.1747
  724SOL     OW 2893   2.456   0.382   0.627 -0.0661  0.0834 -0.5079
  724SOL    HW1 2894   2.470   0.353   0.720  1.7712  1.5009  1.7895
  724SOL    HW2 2895   2.542   0.411   0.597 -0.6558  0.6825  0.4016
  724SOL     MW 2896   2.469   0.382   0.636  0.0985  0.3495 -0.0848
  725SOL     OW 2897   2.534   0.589   1.188 -0.0229 -0.6627  0.0866
  725SOL    HW1 2898   2.609   0.600   1.243  1.6646 -3.5066  0.4945
  725SOL    HW2 2899   2.466   0.590   1.253  2.1300  1.5431 -1.0584
  725SOL     MW 2900   2.535   0.590   1.204  0.4838 -0.7469 -0.0107
  726SOL     OW 2901   2.603   2.459   0.549 -0.7174 -0.3724  0.1774
  726SOL    HW1 2902   2.546   2.515   0.496  0.7996 -0.5680 -2.0240
  726SOL    HW2 2903   2.568   2.467   0.643 -0.6853 -1.1550  1.2961
  726SOL     MW 2904   2.591   2.467   0.555 -0.5130 -0.5015  0.0345
  727SOL     OW 2905   2.885   0.360   1.670  0.4548  0.7961  0.4487
  727SOL    HW1 2906   2.844   0.336   1.582  2.1780  0.0696  0.6812
  727SOL    HW2 2907   2.822   0.351   1.744  0.7387  2.0898  2.0258
  727SOL     MW 2908   2.872   0.356   1.668  0.7196  0.8709  0.6875
  728SOL     OW 2909   2.834   1.178   2.849  0.0351  0.0653  0.1341
  728SOL    HW1 2910   2.814   1.233   2.777  1.8593  1.9046  0.7845
  728SOL    HW2 2911   2.816   1.229   2.929 -0.6578 -0.6432 -1.7612
  728SOL     MW 2912   2.829   1.192   2.850  0.1844  0.2145 -0.0302
  729SOL     OW 2913   2.535   1.489   1.119 -0.8446  0.5362  0.6356
  729SOL    HW1 2914   2.596   1.439   1.182  0.3514 -2.6906  0.5768
  729SOL    HW2 2915   2.554   1.451   1.033  0.5785 -2.2674 -0.1524
  729SOL     MW 2916   2.545   1.477   1.116 -0.4990 -0.2594  0.5238
  730SOL     OW 2917   2.204   1.173   0.184  0.7134 -0.0704 -0.6033
  730SOL    HW1 2918   2.292   1.136   0.206 -1.9651  1.2449  0.1898
  730SOL    HW2 2919   2.209   1.269   0.172  2.1160  1.4856 -2.2607
  730SOL     MW 2920   2.217   1.181   0.186  0.5451  0.3084 -0.7173
  731SOL     OW 2921   2.769   1.910   2.853 -0.8064 -0.2291 -0.1312
  731SOL    HW1 2922   2.687   1.920   2.802  0.4329 -1.4060 -0.4900
  731SOL    HW2 2923   2.842   1.956   2.809  1.9845 -0.4829 -2.7834
  731SOL     MW 2924   2.768   1.917   2.841 -0.2746 -0.4179 -0.5285
  732SOL     OW 2925   2.211   1.004   1.365 -0.1512 -0.1313  0.7218
  732SOL    HW1 2926   2.169   1.005   1.451  1.0892  0.3503  0.8487
  732SOL    HW2 2927   2.275   0.937   1.372 -0.0569 -0.5496  0.2033
  732SOL     MW 2928   2.214   0.995   1.377  0.0249 -0.1230  0.6701
  733SOL     OW 2929   2.364   2.749   3.023  0.2453  0.2424  0.1255
  733SOL    HW1 2930   2.293   2.820   3.005 -1.8690  0.0776  0.6240
  733SOL    HW2 2931   2.332   2.663   3.000 -1.3382  0.8724 -1.8608
  733SOL     MW 2932   2.350   2.747   3.017 -0.2426  0.3038 -0.0708
  734SOL     OW 2933   1.454   0.356   2.451 -0.2732 -0.2019  0.5542
  734SOL    HW1 2934   1.464   0.329   2.542  0.5506 -1.8243 -0.8245
  734SOL    HW2 2935   1.500   0.288   2.393  0.6664  1.6360 -2.5407
  734SOL     MW 2936   1.462   0.344   2.455 -0.0405 -0.1734 -0.0360
  735SOL     OW 2937   2.918   0.887   2.619  0.3662 -0.1577  0.2328
  735SOL    HW1 2938   2.927   0.796   2.583  2.2914 -0.8726  1.0508
  735SOL    HW2 2939   2.976   0.901   2.698 -3.8936 -0.7113  2.7703
  735SOL     MW 2940   2.927   0.877   2.624  0.0582 -0.3251  0.6755
  736SOL     OW 2941   0.090   0.572   2.485 -0.9113  0.0462 -0.4730
  736SOL    HW1 2942   0.144   0.642   2.460  0.2406 -1.3443  0.5589
  736SOL    HW2 2943   0.088   0.515   2.410  0.2313 -0.7904 -0.1251
  736SOL     MW 2944   0.097   0.574   2.472 -0.6085 -0.2477 -0.2910
  737SOL     OW 2945   2.927   0.625   2.545  0.3824  0.1321  0.0710
  737SOL    HW1 2946   2.886   0.570   2.477  0.2397  2.1538  0.8770
  737SOL    HW2 2947   3.018   0.603   2.525 -1.7993  1.2627 -1.4192
  737SOL     MW 2948   2.934   0.615   2.534  0.0757  0.5480 -0.0193
  738SOL     OW 2949   0.197   0.610   1.876 -0.7907  0.9851  0.5281
  738SOL    HW1 2950   0.288   0.634   1.886  0.2967  2.5143 -1.3897
  738SOL    HW2 2951   0.204   0.522   1.831  1.0053  0.4616  0.7831
  738SOL     MW 2952   0.210   0.602   1.871 -0.4103  1.1178  0.3087
  739SOL     OW 2953   2.441   1.032   2.056  0.2607 -0.4982  0.0032
  739SOL    HW1 2954   2.369   0.969   2.032  0.5620  0.9578 -2.8656
  739SOL    HW2 2955   2.466   1.085   1.981 -0.9483 -0.0203 -0.2237
  739SOL     MW 2956   2.435   1.030   2.043  0.1409 -0.2430 -0.4052
  740SOL     OW 2957   0.283   1.758   2.968  0.3117 -0.1572 -0.6428
  740SOL    HW1 2958   0.229   1.681   2.974  0.0726  0.2618 -1.2285
  740SOL    HW2 2959   0.366   1.724   3.009  0.0614 -0.8536 -0.2498
  740SOL     MW 2960   0.287   1.743   2.974  0.2471 -0.1938 -0.6682
  741SOL     OW 2961   2.255   1.188   2.741  0.0146 -0.4190  0.1039
  741SOL    HW1 2962   2.170   1.194   2.696 -2.3763 -1.4681 -0.7505
  741SOL    HW2 2963   2.252   1.260   2.810 -2.1051 -1.6749  4.7980
  741SOL     MW 2964   2.243   1.198   2.744 -0.5806 -0.7231  0.6105
  742SOL     OW 2965   1.511   1.246   2.224  0.3195 -0.6373 -0.0398
  742SOL    HW1 2966   1.505   1.162   2.179 -2.4414  0.1665  0.8306
  742SOL    HW2 2967   1.555   1.230   2.309 -0.8361 -0.5924 -0.8471
  742SOL     MW 2968   1.516   1.233   2.229 -0.1973 -0.5253 -0.0314
  743SOL     OW 2969   2.528   1.276   2.736 -0.2414  0.4164 -0.4876
  743SOL    HW1 2970   2.439   1.240   2.709 -0.3540  1.3646  0.7154
  743SOL    HW2 2971   2.580   1.209   2.761 -1.4223  2.4096 -1.8849
  743SOL     MW 2972   2.524   1.262   2.736 -0.4120  0.8045 -0.5132
  744SOL     OW 2973   2.752   0.955   1.770 -0.0912  0.2503  0.0168
  744SOL    HW1 2974   2.678   1.011   1.798  1.7460 -0.5242 -1.2276
  744SOL    HW2 2975   2.729   0.936   1.676  1.8525 -4.2095  1.0447
  744SOL     MW 2976   2.739   0.960   1.761  0.4077 -0.4403 -0.0118
  745SOL     OW 2977   1.739   0.459   2.504 -0.4980  0.4010  0.1492
  745SOL    HW1 2978   1.748   0.448   2.412  0.8022 -3.6114  2.7056
  745SOL    HW2 2979   1.648   0.446   2.528 -1.2166  1.9268 -2.8381
  745SOL     MW 2980   1.728   0.456   2.495 -0.4213  0.0730  0.0923
  746SOL     OW 2981   1.554   1.432   1.607  0.1494  0.0974 -0.0500
  746SOL    HW1 2982   1.651   1.435   1.618  2.9288 -0.1541 -0.3757
  746SOL    HW2 2983   1.527   1.388   1.690 -2.2053  0.3949  0.4635
  746SOL     MW 2984   1.563   1.427   1.620  0.2054  0.1035 -0.0252
  747SOL     OW 2985   2.558   1.135   1.795  0.0192  0.7979 -0.1972
  747SOL    HW1 2986   2.469   1.139   1.767 -0.1987  0.7484 -1.2319
  747SOL    HW2 2987   2.564   1.220   1.839 -4.1898  0.0390  1.7221
  747SOL     MW 2988   2.547   1.146   1.797 -0.5649  0.6912 -0.0805
  748SOL     OW 2989   0.138   0.054   1.799  0.1607 -0.1112 -0.2425
  748SOL    HW1 2990   0.189  -0.015   1.832 -1.2881 -0.8212 -1.8249
  748SOL    HW2 2991   0.089   0.091   1.871  2.1159 -1.4368 -0.6407
  748SOL     MW 2992   0.138   0.050   1.813  0.2275 -0.3798 -0.5038
  749SOL     OW 2993   2.444   0.564   2.798  0.4562 -0.5729  0.5091
  749SOL    HW1 2994   2.463   0.633   2.731 -0.5844 -1.7106  0.9807
  749SOL    HW2 2995   2.455   0.627   2.878 -1.3887 -0.4731 -0.6873
  749SOL     MW 2996   2.448   0.581   2.800  0.0755 -0.7099  0.4134
  750SOL     OW 2997   2.051   3.097   1.964 -0.2940 -0.3359  0.1222
  750SOL    HW1 2998   2.097   3.177   1.971  0.7879 -2.1042  1.6422
  750SOL    HW2 2999   2.125   3.037   1.951 -1.6346  0.1340  1.5541
  750SOL     MW 3000   2.066   3.100   1.963 -0.3281 -0.5072  0.5116
  751SOL     OW 3001   0.032   0.391   2.284  0.1055  0.1920  0.0104
  751SOL    HW1 3002  -0.038   0.324   2.314  2.3849 -0.1656  1.6435
  751SOL    HW2 3003   0.101   0.359   2.221  2.7202  0.3654  1.2899
  751SOL     MW 3004   0.032   0.378   2.279  0.7512  0.1677  0.3947
  752SOL     OW 3005   2.112   0.805   2.710  0.2052 -0.1353 -0.4884
  752SOL    HW1 3006   2.198   0.849   2.703 -0.9591  0.4836 -1.6401
  752SOL    HW2 3007   2.079   0.829   2.794  0.2624  0.8252 -3.4589
  752SOL     MW 3008   2.119   0.814   2.720  0.0591  0.0731 -1.0323
  753SOL     OW 3009   2.914   0.246   2.371  0.4167 -0.4491  0.5283
  753SOL    HW1 3010   2.869   0.181   2.319 -0.0907  0.4498  0.0515
  753SOL    HW2 3011   2.859   0.321   2.374  0.6207  0.4062 -0.1426
  753SOL     MW 3012   2.901   0.247   2.364  0.3766 -0.2177  0.3769
  754SOL     OW 3013   2.255   2.992   2.657  0.3198  0.1793 -0.4009
  754SOL    HW1 3014   2.254   2.971   2.559  2.3168  1.0436 -2.2562
  754SOL    HW2 3015   2.300   2.915   2.695  0.5501 -1.3091  0.3769
  754SOL     MW 3016   2.261   2.979   2.649  0.6136  0.0969 -0.5430
  755SOL     OW 3017   2.719   1.595   2.464  0.0960  0.0858  0.5941
  755SOL    HW1 3018   2.694   1.549   2.541 -2.4729 -0.6157 -0.0542
  755SOL    HW2 3019   2.796   1.652   2.487  2.8907  0.8068 -0.5761
  755SOL     MW 3020   2.726   1.597   2.477  0.1258  0.0884  0.3541
  756SOL     OW 3021   2.253   1.341   2.965  0.2950  0.0948 -1.2452
  756SOL    HW1 3022   2.316   1.415   2.981  1.9193  1.1060  0.0560
  756SOL    HW2 3023   2.291   1.260   3.005 -1.2263 -0.2190  0.2149
  756SOL     MW 3024   2.266   1.340   2.972  0.3086  0.1868 -0.8809
  757SOL     OW 3025   2.092   0.984   1.590  0.0460 -0.4018  0.2921
  757SOL    HW1 3026   2.121   0.894   1.592  1.4693  0.6469  1.0096
  757SOL    HW2 3027   2.001   0.989   1.556  2.6190 -0.4500  0.0375
  757SOL     MW 3028   2.084   0.973   1.586  0.5733 -0.2698  0.3532
  758SOL     OW 3029   2.189   1.802   2.609  0.1599 -0.1655  0.0094
  758SOL    HW1 3030   2.197   1.831   2.516 -0.4704  1.2900  0.5592
  758SOL    HW2 3031   2.267   1.755   2.634 -0.6581  1.8441 -1.7842
  758SOL     MW 3032   2.200   1.800   2.600 -0.0312  0.2917 -0.1547
  759SOL     OW 3033   1.575   1.348   2.725  0.7023  0.1270  0.0603
  759SOL    HW1 3034   1.573   1.427   2.668  0.4094  1.5199  1.9230
  759SOL    HW2 3035   1.647   1.360   2.785 -3.5111 -0.1903  0.2765
  759SOL     MW 3036   1.584   1.360   2.726  0.1077  0.2689  0.3346
  760SOL     OW 3037   2.550   1.962   2.715 -0.0763  0.3129 -0.3486
  760SOL    HW1 3038   2.517   1.888   2.678  1.9001 -0.1730  0.6989
  760SOL    HW2 3039   2.563   2.016   2.635  0.7831 -0.5250 -3.6870
  760SOL     MW 3040   2.547   1.959   2.699  0.2978  0.1382 -0.6509
  761SOL     OW 3041   2.088   0.421   2.472  1.0855  0.5710  0.3147
  761SOL    HW1 3042   2.007   0.368   2.467 -1.0078 -0.7994 -1.5757
  761SOL    HW2 3043   2.111   0.431   2.562  0.3113 -3.7861  1.4587
  761SOL     MW 3044   2.080   0.415   2.483  0.7072 -0.1847  0.2162
  762SOL     OW 3045   3.079   0.161   2.001 -0.2094 -0.7024 -0.4485
  762SOL    HW1 3046   3.049   0.095   2.058  0.8271 -1.3387 -0.6429
  762SOL    HW2 3047   3.012   0.226   2.014  0.3683  1.2134  0.3437
  762SOL     MW 3048   3.066   0.161   2.010  0.0036 -0.5336 -0.3696
  763SOL     OW 3049   2.419   1.055   2.338  0.1287  0.3421  0.0897
  763SOL    HW1 3050   2.464   1.042   2.247 -0.0940 -1.7479 -0.8293
  763SOL    HW2 3051   2.461   1.131   2.383  0.9301  0.2223  0.5106
  763SOL     MW 3052   2.431   1.063   2.332  0.2050  0.0505  0.0239
  764SOL     OW 3053   0.411   0.231   2.776  0.9699 -0.2418 -0.0611
  764SOL    HW1 3054   0.313   0.230   2.765  0.0893  0.2325  2.2597
  764SOL    HW2 3055   0.433   0.321   2.795 -1.3722 -1.7883  1.9434
  764SOL     MW 3056   0.401   0.243   2.777  0.5447 -0.3833  0.5096
  765SOL     OW 3057   2.715   0.083   2.272  0.5476 -0.1958  0.4080
  765SOL    HW1 3058   2.659   0.055   2.195  0.0728  0.5857  0.6817
  765SOL    HW2 3059   2.745  -0.002   2.314  0.3993 -0.5040  0.2646
  765SOL     MW 3060   2.712   0.068   2.267  0.4654 -0.1333  0.4252
  766SOL     OW 3061   1.861   3.037   2.160  0.4020  0.3434  0.4883
  766SOL    HW1 3062   1.911   3.103   2.107  1.1151 -1.4640  0.6340
  766SOL    HW2 3063   1.839   2.968   2.095 -1.5821 -0.5927  1.6566
  766SOL     MW 3064   1.865   3.037   2.144  0.2343 -0.0186  0.6617
  767SOL     OW 3065   2.645   0.648   1.953  0.1804 -0.1450 -0.1401
  767SOL    HW1 3066   2.669   0.727   1.995  0.0578 -0.1626  1.1999
  767SOL    HW2 3067   2.552   0.630   1.970 -0.7446 -1.5105  1.4876
  767SOL     MW 3068   2.636   0.656   1.960  0.0422 -0.3275  0.2515
  768SOL     OW 3069   0.042   1.557   2.971 -0.7606  0.1555  0.5470
  768SOL    HW1 3070   0.045   1.500   3.050 -1.0549  0.9455  0.9420
  768SOL    HW2 3071   0.065   1.494   2.899 -0.2797  0.4424 -2.6829
  768SOL     MW 3072   0.045   1.541   2.972 -0.7360  0.2976  0.1730
  769SOL     OW 3073   2.347   0.696   2.287  0.0552  0.1339 -0.4298
  769SOL    HW1 3074   2.270   0.642   2.283  1.6060 -1.4630  1.4268
  769SOL    HW2 3075   2.412   0.653   2.227 -4.0801 -0.4072 -3.0483
  769SOL     MW 3076   2.346   0.683   2.279 -0.2858 -0.1482 -0.5303
  770SOL     OW 3077   0.089   1.682   2.611  0.3542 -0.7546  0.1881
  770SOL    HW1 3078  -0.011   1.690   2.610 -1.1452  1.9870  0.7104
  770SOL    HW2 3079   0.108   1.593   2.643 -1.6856 -3.9607  2.1758
  770SOL     MW 3080   0.079   1.672   2.615 -0.1128 -0.8159  0.5193
  771SOL     OW 3081   3.014   0.637   1.947 -0.3810 -0.0397  0.1317
  771SOL    HW1 3082   2.982   0.623   1.853  0.8677 -2.7663 -2.5934
  771SOL    HW2 3083   3.106   0.650   1.942 -0.0265  0.0844  1.0771
  771SOL     MW 3084   3.022   0.637   1.934 -0.1695 -0.3831 -0.1031
  772SOL     OW 3085   3.073   0.015   2.246  0.2386 -0.2005  0.3217
  772SOL    HW1 3086   3.014  -0.041   2.293  0.4012  2.4971 -1.5955
  772SOL    HW2 3087   3.141  -0.047   2.228 -1.8189 -1.2346 -2.1884
  772SOL     MW 3088   3.074  -0.000   2.250 -0.0114  0.0190 -0.2624
  773SOL     OW 3089   2.419   2.808   2.766  0.2440  0.2237 -0.7207
  773SOL    HW1 3090   2.423   2.726   2.710  0.8986  1.2877  1.4753
  773SOL    HW2 3091   2.380   2.780   2.853 -0.3953  0.8531  0.2351
  773SOL     MW 3092   2.414   2.793   2.770  0.2460  0.4471 -0.3048
  774SOL     OW 3093   2.271   1.165   1.761 -0.2228 -0.4618 -0.3881
  774SOL    HW1 3094   2.268   1.224   1.686  0.4385 -2.8100 -1.2729
  774SOL    HW2 3095   2.231   1.088   1.722  2.1445  2.0235 -0.8690
  774SOL     MW 3096   2.265   1.163   1.746  0.1768 -0.4437 -0.5683
  775SOL     OW 3097   2.259   2.962   2.393  0.0810 -0.4979  0.2527
  775SOL    HW1 3098   2.268   3.046   2.355 -0.4872 -2.6209 -0.0492
  775SOL    HW2 3099   2.340   2.918   2.377 -0.9019  3.0901 -0.1746
  775SOL     MW 3100   2.271   2.967   2.386 -0.1237 -0.3046  0.1565
  776SOL     OW 3101   0.081   1.434   0.173 -0.2552 -0.4066 -0.2494
  776SOL    HW1 3102   0.168   1.407   0.167 -2.1173  1.5807  0.8467
  776SOL    HW2 3103   0.042   1.350   0.165 -1.9465 -0.5832 -0.5399
  776SOL     MW 3104   0.087   1.419   0.171 -0.7241 -0.1677 -0.1431
  777SOL     OW 3105   2.998   1.104   1.692  0.4479  0.1270  0.2033
  777SOL    HW1 3106   2.979   1.189   1.657  0.6526  1.3574  0.7999
  777SOL    HW2 3107   2.917   1.068   1.729 -0.8076 -0.0193  2.9098
  777SOL     MW 3108   2.984   1.110   1.692  0.3092  0.2700  0.6391
  778SOL     OW 3109   2.908   0.435   2.743  0.4662 -0.1563  0.4314
  778SOL    HW1 3110   2.835   0.457   2.807  0.0051  0.8746 -0.3852
  778SOL    HW2 3111   2.912   0.510   2.678  2.3445  4.2398 -1.1903
  778SOL     MW 3112   2.899   0.448   2.743  0.6532  0.5598  0.1097
  779SOL     OW 3113   2.102   0.600   2.263  0.1481 -0.1093 -0.0540
  779SOL    HW1 3114   2.037   0.670   2.303 -0.9425 -0.7338  1.4739
  779SOL    HW2 3115   2.096   0.523   2.331  2.8665  2.3742 -2.2622
  779SOL     MW 3116   2.092   0.599   2.277  0.3629  0.1360 -0.1437
  780SOL     OW 3117   0.121   0.187   2.758  0.3861 -0.2102  0.1739
  780SOL    HW1 3118   0.085   0.191   2.847 -1.5596 -0.6278 -1.0171
  780SOL    HW2 3119   0.039   0.174   2.712  1.6962 -1.3114 -1.3193
  780SOL     MW 3120   0.105   0.186   2.763  0.3023 -0.4106 -0.1802
  781SOL     OW 3121   3.045   1.315   2.536  0.1467  0.2246 -0.3282
  781SOL    HW1 3122   3.051   1.361   2.454 -1.0011 -1.6799 -1.3205
  781SOL    HW2 3123   3.075   1.226   2.510  0.6392 -1.2167 -2.5654
  781SOL     MW 3124   3.050   1.310   2.521  0.0603 -0.2169 -0.7543
  782SOL     OW 3125   0.765   1.488   3.076 -0.2264  0.3253 -0.2048
  782SOL    HW1 3126   0.670   1.520   3.073 -2.4887  1.4865 -2.3530
  782SOL    HW2 3127   0.801   1.532   3.154 -0.2779  0.4794  0.3846
  782SOL     MW 3128   0.757   1.498   3.086 -0.5317  0.4988 -0.4104
  783SOL     OW 3129   2.762   0.472   2.392 -0.0861  0.0589  0.0645
  783SOL    HW1 3130   2.682   0.475   2.340 -0.0883  1.1872  0.3058
  783SOL    HW2 3131   2.724   0.457   2.479 -1.4481  0.9544 -1.4599
  783SOL     MW 3132   2.747   0.471   2.397 -0.2661  0.3259 -0.1048
  784SOL     OW 3133   0.205   0.820   2.879  0.2422  0.1871  0.3216
  784SOL    HW1 3134   0.149   0.870   2.945  1.6650  0.4322  1.3448
  784SOL    HW2 3135   0.241   0.886   2.829 -3.2571  0.9161  0.1724
  784SOL     MW 3136   0.202   0.835   2.881 -0.0318  0.3156  0.4369
  785SOL     OW 3137   0.409   0.490   2.189  0.0235 -0.2907  0.7253
  785SOL    HW1 3138   0.431   0.541   2.112  0.6713  0.4954  0.0251
  785SOL    HW2 3139   0.340   0.429   2.153 -2.6990 -1.6208 -0.1300
  785SOL     MW 3140   0.403   0.489   2.174 -0.2502 -0.3625  0.5201
  786SOL     OW 3141   2.005   0.401   2.933 -0.6098  0.2508  0.1589
  786SOL    HW1 3142   2.032   0.467   3.006  3.1927  1.8764  3.2437
  786SOL    HW2 3143   2.045   0.432   2.853  1.6237  0.2345 -0.9132
  786SOL     MW 3144   2.014   0.414   2.932  0.1866  0.4631  0.4245
  787SOL     OW 3145   2.433   0.181   2.885  0.5796 -0.8470 -0.0484
  787SOL    HW1 3146   2.487   0.113   2.849 -1.5438  2.9776  2.1861
  787SOL    HW2 3147   2.492   0.225   2.949  1.8300 -1.6960  0.2463
  787SOL     MW 3148   2.448   0.178   2.889  0.4644 -0.4544  0.2853
  788SOL     OW 3149   2.853   2.987   2.369 -0.3792  0.3470  0.1452
  788SOL    HW1 3150   2.873   3.015   2.454  2.2213  2.2485  0.2012
  788SOL    HW2 3151   2.923   2.918   2.354  2.3389 -0.2739  2.4340
  788SOL     MW 3152   2.865   2.981   2.379  0.3225  0.5159  0.4546
  789SOL     OW 3153   0.028   0.275   3.018  0.7735  0.0847 -0.5100
  789SOL    HW1 3154  -0.054   0.228   3.022  1.9641  2.2957 -0.2268
  789SOL    HW2 3155   0.005   0.366   3.003 -1.2010  3.1730  0.0549
  789SOL     MW 3156   0.014   0.281   3.017  0.6700  0.7839 -0.3981
  790SOL     OW 3157   3.063   1.056   2.465  0.3008 -0.2438  0.3700
  790SOL    HW1 3158   3.013   0.991   2.528 -2.3278  2.3171 -0.3587
  790SOL    HW2 3159   3.001   1.056   2.385 -0.2527 -0.5956 -1.7773
  790SOL     MW 3160   3.048   1.048   2.462 -0.1191  0.0477 -0.0095
  791SOL     OW 3161   2.634   0.386   2.623  0.0722  0.1347  0.1960
  791SOL    HW1 3162   2.582   0.458   2.659 -1.1133  0.2091 -1.2210
  791SOL    HW2 3163   2.706   0.376   2.690  0.4954 -0.8682  0.1649
  791SOL     MW 3164   2.637   0.394   2.637 -0.0284  0.0122  0.0049
  792SOL     OW 3165   2.334   0.302   2.376  0.1661  0.0327  0.0911
  792SOL    HW1 3166   2.244   0.336   2.383 -0.1108 -0.5507 -2.5715
  792SOL    HW2 3167   2.349   0.262   2.464  0.5387 -1.4116  2.1278
  792SOL     MW 3168   2.324   0.301   2.388  0.1787 -0.2348  0.0085
  793SOL     OW 3169   1.812   1.020   1.969  0.0039 -0.2582  0.4316
  793SOL    HW1 3170   1.783   1.077   1.901  5.5773  1.9755  0.0669
  793SOL    HW2 3171   1.898   0.982   1.934  3.8482 -2.7706 -0.1428
  793SOL     MW 3172   1.820   1.022   1.955  1.2465 -0.2950  0.3077
  794SOL     OW 3173   1.414   2.279   0.180 -0.4900 -0.0260  0.4385
  794SOL    HW1 3174   1.433   2.351   0.112 -1.3618  0.6240  1.2227
  794SOL    HW2 3175   1.473   2.293   0.251  1.6642 -0.6050  0.1254
  794SOL     MW 3176   1.425   2.290   0.180 -0.3208 -0.0166  0.5007
  795SOL     OW 3177   2.352   0.960   2.633  0.2065  0.4847 -0.0500
  795SOL    HW1 3178   2.326   1.038   2.682 -2.4432 -1.4266 -2.3066
  795SOL    HW2 3179   2.348   0.983   2.538 -1.7820  0.4489 -1.4247
  795SOL     MW 3180   2.348   0.974   2.627 -0.4055  0.2278 -0.5291
  796SOL     OW 3181   0.279   0.581   2.755 -0.7378  0.4766 -0.1349
  796SOL    HW1 3182   0.247   0.661   2.789  0.2040 -0.0391  0.1516
  796SOL    HW2 3183   0.218   0.548   2.692  2.6301  1.5665 -0.7153
  796SOL     MW 3184   0.267   0.587   2.751 -0.1692  0.5523 -0.1737
  797SOL     OW 3185   2.588   0.118   2.510  0.0042 -0.5805 -0.9152
  797SOL    HW1 3186   2.589   0.210   2.546 -1.9974  3.5568  0.7653
  797SOL    HW2 3187   2.625   0.109   2.420 -0.8359 -0.7425  3.8261
  797SOL     MW 3188   2.593   0.129   2.503 -0.3708 -0.0560 -0.0679
  798SOL     OW 3189   2.310   0.077   2.235 -0.6102  0.1160 -0.1410
  798SOL    HW1 3190   2.330   0.159   2.285  0.8904 -1.5473 -1.0058
  798SOL    HW2 3191   2.401   0.056   2.202 -0.8059  2.7649 -0.0772
  798SOL     MW 3192   2.325   0.085   2.237 -0.4380  0.2461 -0.2467
  799SOL     OW 3193   2.501   2.970   0.043 -0.5040 -0.4134  0.6042
  799SOL    HW1 3194   2.450   2.904   0.001  2.3383 -0.3092 -0.7153
  799SOL    HW2 3195   2.447   3.050   0.047 -1.8198  1.1889  1.0182
  799SOL     MW 3196   2.487   2.972   0.038 -0.3026 -0.1882  0.4847
  800SOL     OW 3197   1.887   0.021   1.740 -0.2871  0.4072  0.3638
  800SOL    HW1 3198   1.839  -0.062   1.744  1.1583 -0.2576  1.6887
  800SOL    HW2 3199   1.957   0.018   1.804  2.8348  0.7239 -1.9378
  800SOL     MW 3200   1.890   0.010   1.749  0.3155  0.3613  0.2350
  801SOL     OW 3201   2.762   1.282   2.564 -0.2656  0.0298  0.1531
  801SOL    HW1 3202   2.759   1.184   2.552 -0.4014 -2.8652  0.5251
  801SOL    HW2 3203   2.860   1.296   2.554 -1.7670 -0.0147 -0.0114
  801SOL     MW 3204   2.775   1.271   2.561 -0.4816 -0.3581  0.1805
  802SOL     OW 3205   2.615   1.553   2.768 -0.4504 -0.0561 -0.0406
  802SOL    HW1 3206   2.600   1.455   2.767  1.9186 -0.6341  1.7093
  802SOL    HW2 3207   2.703   1.564   2.800  0.8501  2.7888 -2.1967
  802SOL     MW 3208   2.624   1.542   2.772  0.0338  0.2430 -0.0942
  803SOL     OW 3209   2.262   1.398   2.010  0.4923  0.3238  0.3930
  803SOL    HW1 3210   2.256   1.357   2.098  0.1407  4.3431  0.0517
  803SOL    HW2 3211   2.248   1.322   1.950  1.8749 -1.5689  3.9164
  803SOL     MW 3212   2.259   1.383   2.013  0.6283  0.6044  0.8129
  804SOL     OW 3213   2.287   0.072   3.089 -0.4487 -0.0069  0.6332
  804SOL    HW1 3214   2.201   0.116   3.109 -0.2306  2.0956 -0.6518
  804SOL    HW2 3215   2.323   0.119   3.017 -1.8634 -1.8052  1.2670
  804SOL     MW 3216   2.280   0.084   3.082 -0.6066  0.0333  0.5473
  805SOL     OW 3217   2.697   1.016   2.563  0.1291 -0.2333 -0.2607
  805SOL    HW1 3218   2.671   0.984   2.478 -1.7198 -1.4666  1.0041
  805SOL    HW2 3219   2.779   0.968   2.592  0.2446 -0.2404 -1.5790
  805SOL     MW 3220   2.704   1.006   2.555 -0.0996 -0.3970 -0.2678
  806SOL     OW 3221   2.527   0.474   2.266 -0.0668 -0.7262  0.3367
  806SOL    HW1 3222   2.461   0.430   2.322  1.6190  0.0149  1.1450
  806SOL    HW2 3223   2.541   0.422   2.190  0.3424  0.7486 -0.8354
  806SOL     MW 3224   2.520   0.461   2.263  0.2096 -0.4338  0.2887
  807SOL     OW 3225   0.075   1.138   2.075  0.3180  0.2388  0.1499
  807SOL    HW1 3226   0.117   1.066   2.033  0.2248 -1.4406 -0.2192
  807SOL    HW2 3227  -0.012   1.113   2.113  0.4584  0.7461  1.2051
  807SOL     MW 3228   0.069   1.125   2.074  0.3242  0.0842  0.2404
  808SOL     OW 3229   2.536   3.064   2.758 -0.4760 -0.1236 -0.4117
  808SOL    HW1 3230   2.482   2.982   2.758 -1.6575  1.4268  1.5184
  808SOL    HW2 3231   2.545   3.095   2.668  0.2284  0.1753  1.0498
  808SOL     MW 3232   2.530   3.058   2.746 -0.5390  0.1204  0.0358
  809SOL     OW 3233   2.523   1.323   2.411 -0.1261 -0.5138 -0.2441
  809SOL    HW1 3234   2.581   1.309   2.489 -1.1534  0.7915 -1.1823
  809SOL    HW2 3235   2.592   1.324   2.344  2.4748  1.5818  1.9000
  809SOL     MW 3236   2.540   1.321   2.412  0.0815 -0.0651 -0.0850
  810SOL     OW 3237   2.228   1.281   2.237  0.7786 -0.3085 -0.2581
  810SOL    HW1 3238   2.293   1.217   2.262  0.7578  0.3202 -0.0646
  810SOL    HW2 3239   2.149   1.228   2.212 -4.0305 -0.6522  1.8519
  810SOL     MW 3240   2.226   1.266   2.237  0.1413 -0.2709  0.0458
  811SOL     OW 3241   1.554   0.167   2.304  0.2237 -0.1581 -0.3650
  811SOL    HW1 3242   1.613   0.100   2.355  3.2807 -0.8489  0.3223
  811SOL    HW2 3243   1.553   0.128   2.214  0.3964 -4.4623 -0.4686
  811SOL     MW 3244   1.561   0.153   2.299  0.6498 -0.8171 -0.2880
  812SOL     OW 3245   1.490   2.865   2.126 -0.0833 -0.2127 -0.1790
  812SOL    HW1 3246   1.586   2.853   2.092  3.1224  0.3783  0.4108
  812SOL    HW2 3247   1.497   2.826   2.217 -1.3256 -0.7893  2.3798
  812SOL     MW 3248   1.504   2.858   2.134  0.1758 -0.2108  0.2365
  813SOL     OW 3249   1.835   0.742   2.167 -0.6859 -0.5631  0.1225
  813SOL    HW1 3250   1.810   0.656   2.204 -1.5790  0.2505 -0.8673
  813SOL    HW2 3251   1.840   0.804   2.243 -0.3837  1.3550 -1.1395
  813SOL     MW 3252   1.832   0.739   2.182 -0.7639 -0.2027 -0.1746
  814SOL     OW 3253   2.764   1.267   1.610 -0.1506 -0.2944  0.1705
  814SOL    HW1 3254   2.747   1.191   1.666  2.2494  0.8907  0.6918
  814SOL    HW2 3255   2.790   1.231   1.525 -1.0150  2.4844  2.8009
  814SOL     MW 3256   2.765   1.253   1.606  0.0520  0.2286  0.5863
  815SOL     OW 3257   2.472   1.661   2.367 -0.2476  0.7082  0.8082
  815SOL    HW1 3258   2.410   1.600   2.405  2.8656 -0.6328 -0.7065
  815SOL    HW2 3259   2.567   1.626   2.378  2.1512 -1.4080  0.3293
  815SOL     MW 3260   2.476   1.648   2.373  0.4796  0.2521  0.5452
  816SOL     OW 3261   0.780   0.693   2.732 -0.0681  0.2834 -0.2090
  816SOL    HW1 3262   0.792   0.610   2.784  2.1498 -0.2152 -0.1737
  816SOL    HW2 3263   0.687   0.693   2.722 -0.4872  1.7164  2.3727
  816SOL     MW 3264   0.769   0.682   2.738  0.1692  0.4067  0.1363
  817SOL     OW 3265   3.026   1.288   1.476  0.1194  0.2835  0.0458
  817SOL    HW1 3266   3.121   1.274   1.466  0.2147 -1.1004 -0.7830
  817SOL    HW2 3267   3.014   1.371   1.428 -0.1924 -0.0048 -1.9823
  817SOL     MW 3268   3.037   1.297   1.468  0.0908  0.0628 -0.3311
  818SOL     OW 3269   1.936   1.065   2.675  0.2128  0.1304  0.2148
  818SOL    HW1 3270   1.933   1.140   2.621  0.1209 -0.5365  1.0627
  818SOL    HW2 3271   1.997   1.002   2.642 -0.1275  0.8400 -1.4702
  818SOL     MW 3272   1.943   1.067   2.664  0.1558  0.1360  0.1044
  819SOL     OW 3273   1.880   0.234   2.465 -0.6377 -0.3819 -0.7068
  819SOL    HW1 3274   1.815   0.300   2.496  3.1009 -0.8817  1.7431
  819SOL    HW2 3275   1.918   0.205   2.544 -2.6869  0.3276  0.4875
  819SOL     MW 3276   1.876   0.239   2.480 -0.4148 -0.3542 -0.2260
  820SOL     OW 3277   2.452   1.730   2.626  0.3628 -0.2042  0.1574
  820SOL    HW1 3278   2.500   1.672   2.683 -1.2326  0.2093 -1.6380
  820SOL    HW2 3279   2.500   1.711   2.544  1.2472 -1.3231  2.6091
  820SOL     MW 3280   2.465   1.720   2.623  0.2690 -0.2973  0.2440
  821SOL     OW 3281   2.598   1.355   1.973 -0.2855 -0.1051 -0.0919
  821SOL    HW1 3282   2.633   1.411   1.902  2.0962  0.3308  4.0969
  821SOL    HW2 3283   2.507   1.377   1.980  1.8376  3.7375  1.0724
  821SOL     MW 3284   2.591   1.365   1.965  0.3089  0.4594  0.6144
  822SOL     OW 3285   2.779   2.604   1.497  0.3037 -0.5393 -0.2109
  822SOL    HW1 3286   2.826   2.644   1.573  2.2563  1.3772  0.5812
  822SOL    HW2 3287   2.735   2.673   1.447  1.6719 -1.9635  1.3306
  822SOL     MW 3288   2.779   2.619   1.500  0.7418 -0.4744  0.0970
  823SOL     OW 3289   2.247   0.478   1.759 -0.1748 -0.7133 -0.2711
  823SOL    HW1 3290   2.339   0.449   1.757 -1.3851 -1.6088  0.2619
  823SOL    HW2 3291   2.202   0.396   1.751  0.4774 -2.2743 -0.9819
  823SOL     MW 3292   2.253   0.464   1.758 -0.2484 -1.0374 -0.2946
  824SOL     OW 3293   2.080   1.368   2.595 -0.1482 -0.3083  0.6562
  824SOL    HW1 3294   2.150   1.375   2.530 -0.2992 -2.4124 -0.1744
  824SOL    HW2 3295   2.070   1.454   2.629  1.2596 -1.0171 -2.1842
  824SOL     MW 3296   2.088   1.380   2.591  0.0176 -0.6794  0.1719
  825SOL     OW 3297   2.033   2.572   0.296  0.3643 -0.3916  0.5395
  825SOL    HW1 3298   2.002   2.538   0.381 -0.8351 -2.0651  1.0427
  825SOL    HW2 3299   2.104   2.521   0.258  0.6992 -1.3077  2.6352
  825SOL     MW 3300   2.038   2.561   0.302  0.2502 -0.7333  0.8824
  826SOL     OW 3301   1.906   2.445   0.515  0.7172 -0.0638 -0.4260
  826SOL    HW1 3302   1.862   2.364   0.548 -0.1427 -2.2029  1.7421
  826SOL    HW2 3303   1.857   2.517   0.556  0.4889 -0.2003 -1.4782
  826SOL     MW 3304   1.893   2.444   0.525  0.5737 -0.3640 -0.2788
  827SOL     OW 3305   1.952   2.210   0.917  0.2569  0.6707 -0.5618
  827SOL    HW1 3306   1.916   2.285   0.870  3.2251 -0.2424 -0.0604
  827SOL    HW2 3307   1.890   2.132   0.922  0.4164  0.3469  0.0510
  827SOL     MW 3308   1.939   2.210   0.912  0.6696  0.5075 -0.4148
  828SOL     OW 3309   0.036   2.693   0.613 -0.1982  0.5618  0.7976
  828SOL    HW1 3310   0.128   2.674   0.595  0.2316  0.7131  1.4624
  828SOL    HW2 3311   0.006   2.707   0.522  2.0507 -0.8953 -0.3113
  828SOL     MW 3312   0.045   2.693   0.599  0.1552  0.3895  0.7390
  829SOL     OW 3313   2.956   2.929   1.266  0.4246 -0.1590  0.1598
  829SOL    HW1 3314   2.869   2.946   1.226  0.8301 -2.7991 -0.8208
  829SOL    HW2 3315   2.996   2.852   1.224  0.2953  0.8033 -1.0868
  829SOL     MW 3316   2.950   2.921   1.255  0.4610 -0.3803 -0.1341
  830SOL     OW 3317   2.504   2.849   2.022 -0.1304  0.0040 -0.9538
  830SOL    HW1 3318   2.414   2.856   1.988  0.2402  1.9973  1.8965
  830SOL    HW2 3319   2.560   2.839   1.946  1.1283  0.9202  1.7710
  830SOL     MW 3320   2.500   2.848   2.008  0.0846  0.3878 -0.2182
  831SOL     OW 3321   2.426   2.383   1.301  0.1104  0.0508 -0.6482
  831SOL    HW1 3322   2.392   2.318   1.365  0.5772 -0.1789  1.0065
  831SOL    HW2 3323   2.519   2.357   1.287 -1.3081 -0.8506 -1.0871
  831SOL     MW 3324   2.434   2.371   1.307 -0.0152 -0.0985 -0.4878
  832SOL     OW 3325   2.422   2.212   1.911  0.0556  0.0012 -0.0652
  832SOL    HW1 3326   2.443   2.310   1.938 -1.2018  0.7254  2.3798
  832SOL    HW2 3327   2.509   2.184   1.870  1.4140  2.3745  1.8692
  832SOL     MW 3328   2.437   2.221   1.909  0.0689  0.4099  0.5126
  833SOL     OW 3329   1.792   2.426   0.878 -0.4545 -0.4882  0.2066
  833SOL    HW1 3330   1.703   2.383   0.888 -1.0841 -3.7356 -1.3045
  833SOL    HW2 3331   1.789   2.490   0.960  1.2439  2.4854  3.1152
  833SOL     MW 3332   1.780   2.429   0.890 -0.3135 -0.5244  0.3910
  834SOL     OW 3333   2.236   2.489   0.570 -0.3564  0.0295 -0.5438
  834SOL    HW1 3334   2.223   2.405   0.615  1.0979  0.9135 -0.0887
  834SOL    HW2 3335   2.281   2.447   0.488  1.0225 -1.1326 -4.2533
  834SOL     MW 3336   2.240   2.472   0.565  0.0174 -0.0072 -0.9732
  835SOL     OW 3337   1.759   2.609   0.675  0.4797  0.3245  0.6080
  835SOL    HW1 3338   1.768   2.546   0.742 -0.3210 -1.9644  0.3375
  835SOL    HW2 3339   1.845   2.659   0.701  0.0765  2.9270  2.9105
  835SOL     MW 3340   1.772   2.607   0.687  0.3209  0.3659  0.8761
  836SOL     OW 3341   1.978   2.151   1.622  0.1028 -0.6580 -0.0809
  836SOL    HW1 3342   2.056   2.180   1.668  1.6837 -1.6867 -0.0335
  836SOL    HW2 3343   1.932   2.232   1.599  0.1172  0.4195 -1.2692
  836SOL     MW 3344   1.982   2.166   1.625  0.3133 -0.6516 -0.2315
  837SOL     OW 3345   2.117   0.187   0.713 -0.2732 -0.3656  0.0517
  837SOL    HW1 3346   2.029   0.213   0.684 -0.1045  2.6268  3.4428
  837SOL    HW2 3347   2.154   0.129   0.649 -0.4393 -0.2408  2.1678
  837SOL     MW 3348   2.110   0.183   0.701 -0.2728  0.0457  0.7783
  838SOL     OW 3349   2.949   2.109   0.891 -0.0196 -0.6845  0.0891
  838SOL    HW1 3350   2.909   2.065   0.969  0.8503  0.6573 -0.6500
  838SOL    HW2 3351   2.989   2.042   0.839  1.2681  0.2889  0.0337
  838SOL     MW 3352   2.949   2.094   0.894  0.2650 -0.3791 -0.0157
  839SOL     OW 3353   1.535   2.362   0.918 -0.4044  0.2272 -0.1853
  839SOL    HW1 3354   1.502   2.445   0.946  0.6201  0.1955  0.9443
  839SOL    HW2 3355   1.558   2.316   1.001  1.0136 -0.5992  0.8391
  839SOL     MW 3356   1.533   2.367   0.933 -0.0821  0.1140  0.0989
  840SOL     OW 3357   2.310   2.113   2.409 -0.0142 -0.0835  0.5183
  840SOL    HW1 3358   2.270   2.192   2.362  1.1556 -1.5092 -1.8823
  840SOL    HW2 3359   2.384   2.154   2.451 -0.8317 -2.2212 -2.5101
  840SOL     MW 3360   2.314   2.129   2.408  0.0323 -0.5537 -0.1980
  841SOL     OW 3361   2.191   2.416   0.134  0.2700 -0.2088 -0.0209
  841SOL    HW1 3362   2.260   2.438   0.067  0.7661 -1.5203 -1.1066
  841SOL    HW2 3363   2.125   2.382   0.078  0.1424  0.1625 -1.0034
  841SOL     MW 3364   2.191   2.414   0.118  0.3186 -0.3329 -0.2938
  842SOL     OW 3365   2.669   2.004   1.582 -0.1982  0.2575 -0.0297
  842SOL    HW1 3366   2.644   1.908   1.579  0.0502  0.7491 -1.5400
  842SOL    HW2 3367   2.620   2.036   1.511 -0.3137 -2.3274  4.7138
  842SOL     MW 3368   2.659   1.995   1.572 -0.1807 -0.0187  0.3969
  843SOL     OW 3369   2.661   2.813   1.812 -0.2580  0.7553  0.1802
  843SOL    HW1 3370   2.738   2.758   1.829 -2.2755  0.2088  0.3528
  843SOL    HW2 3371   2.601   2.759   1.767  1.7540  2.6728 -1.5601
  843SOL     MW 3372   2.663   2.799   1.808 -0.2587  0.9362 -0.0267
  844SOL     OW 3373   2.656   2.271   1.217  0.5047  0.5715 -0.0924
  844SOL    HW1 3374   2.671   2.320   1.134  0.0856  2.8940  0.7040
  844SOL    HW2 3375   2.716   2.287   1.283 -1.8923  1.3551 -2.0772
  844SOL     MW 3376   2.666   2.280   1.215  0.1332  0.9813 -0.2492
  845SOL     OW 3377   2.861   2.464   0.284 -0.6047  0.0405 -0.1470
  845SOL    HW1 3378   2.819   2.376   0.294 -0.6239 -1.4527 -2.2889
  845SOL    HW2 3379   2.877   2.474   0.379  1.0148 -1.8775  0.7954
  845SOL     MW 3380   2.857   2.453   0.298 -0.3935 -0.4096 -0.3053
  846SOL     OW 3381   1.505   2.850   0.790 -0.0690 -0.1021  0.3779
  846SOL    HW1 3382   1.586   2.901   0.812  1.0511 -0.3702  0.9978
  846SOL    HW2 3383   1.429   2.900   0.820  1.2793 -1.0454  0.3908
  846SOL     MW 3384   1.506   2.863   0.797  0.2567 -0.2619  0.4614
  847SOL     OW 3385   2.498   1.937   0.162  0.1247  0.0598  0.3697
  847SOL    HW1 3386   2.535   1.861   0.209  1.6871 -2.1067  0.7214
  847SOL    HW2 3387   2.435   1.894   0.107  3.7130  1.9795  2.0736
  847SOL     MW 3388   2.494   1.921   0.161  0.8043  0.0272  0.6409
  848SOL     OW 3389   2.516   2.055   1.346  0.1197  0.2478 -0.2128
  848SOL    HW1 3390   2.581   2.111   1.296 -2.5751  1.4683 -1.3707
  848SOL    HW2 3391   2.475   1.988   1.294  1.6097 -0.1209  1.3641
  848SOL     MW 3392   2.519   2.053   1.333 -0.0393  0.3602 -0.1575
  849SOL     OW 3393   1.984   2.731   0.749  0.1000 -0.1895  0.0917
  849SOL    HW1 3394   2.001   2.690   0.832  0.7397 -0.3452 -1.1375
  849SOL    HW2 3395   2.065   2.730   0.700 -0.7480 -1.1405  2.5366
  849SOL     MW 3396   1.997   2.726   0.754  0.0725 -0.3355  0.2521
  850SOL     OW 3397   2.256   1.921   1.708  1.1596  0.1526  0.8429
  850SOL    HW1 3398   2.176   1.891   1.654  1.4544 -3.3633 -2.6668
  850SOL    HW2 3399   2.245   2.015   1.730 -0.1688  0.3414  0.5654
  850SOL     MW 3400   2.244   1.930   1.704  1.0233 -0.2864  0.3432
  851SOL     OW 3401   2.339   2.370   0.359  0.3229  0.3776 -0.0849
  851SOL    HW1 3402   2.284   2.393   0.284  1.9558 -0.1233 -1.5401
  851SOL    HW2 3403   2.425   2.416   0.342  0.9088 -0.8331  0.4305
  851SOL     MW 3404   2.343   2.379   0.347  0.6156  0.1517 -0.2089
  852SOL     OW 3405   2.335   2.105   0.293 -0.0280  0.0852  0.4285
  852SOL    HW1 3406   2.377   2.189   0.287  2.0715 -1.6646 -0.6162
  852SOL    HW2 3407   2.390   2.066   0.221  1.1016  1.2354 -0.3630
  852SOL     MW 3408   2.348   2.111   0.283  0.3980  0.0061  0.1862
  853SOL     OW 3409   2.492   2.476   1.977 -0.5040  0.3507 -0.0364
  853SOL    HW1 3410   2.509   2.515   1.894 -1.3103 -0.7606  2.0820
  853SOL    HW2 3411   2.585   2.451   2.001 -0.7936  3.3998 -0.6521
  853SOL     MW 3412   2.507   2.478   1.969 -0.6486  0.6064  0.1618
  854SOL     OW 3413   2.835   2.326   0.782  0.5182 -0.4337  0.6281
  854SOL    HW1 3414   2.763   2.286   0.733 -0.4875  1.0469 -2.0246
  854SOL    HW2 3415   2.883   2.253   0.827  0.3823  0.6149  0.6247
  854SOL     MW 3416   2.832   2.311   0.781  0.3676 -0.1000  0.2777
  855SOL     OW 3417   2.666   2.244   0.373 -0.0742  0.6242 -0.0657
  855SOL    HW1 3418   2.648   2.306   0.437  0.1533 -2.0149 -0.4961
  855SOL    HW2 3419   2.744   2.201   0.402 -1.7341  1.7626 -0.5501
  855SOL     MW 3420   2.674   2.246   0.385 -0.2632  0.4262 -0.1864
  856SOL     OW 3421   2.139   1.904   0.173 -0.5295 -0.8952 -0.2514
  856SOL    HW1 3422   2.057   1.894   0.220  0.9776  0.7065 -0.2594
  856SOL    HW2 3423   2.201   1.957   0.222 -0.5181  1.1805  0.0337
  856SOL     MW 3424   2.136   1.910   0.186 -0.3291 -0.4100 -0.2149
  857SOL     OW 3425   2.499   1.998   0.520 -0.1828 -0.4869  0.0185
  857SOL    HW1 3426   2.439   2.030   0.463 -1.1406  2.1559 -0.7092
  857SOL    HW2 3427   2.467   1.905   0.532 -0.5845 -0.9205 -0.9539
  857SOL     MW 3428   2.487   1.990   0.514 -0.3622 -0.1954 -0.2059
  858SOL     OW 3429   2.889   2.634   1.750 -0.2111 -0.2328  0.2963
  858SOL    HW1 3430   2.975   2.670   1.762  0.7672 -1.5460 -0.1584
  858SOL    HW2 3431   2.893   2.542   1.782 -0.8654 -0.2014 -1.0232
  858SOL     MW 3432   2.901   2.626   1.756 -0.1683 -0.4020  0.0622
  859SOL     OW 3433   2.084   2.582   0.959  0.2642  0.6235 -0.3583
  859SOL    HW1 3434   2.054   2.527   1.032  1.7280  0.5438  2.4083
  859SOL    HW2 3435   2.148   2.527   0.917  1.0900 -0.3075 -2.4804
  859SOL     MW 3436   2.089   2.568   0.963  0.5663  0.4901 -0.2733
  860SOL     OW 3437   2.671   2.594   0.123  0.1206 -0.5818 -0.4419
  860SOL    HW1 3438   2.743   2.564   0.179 -1.5313 -1.2665  0.9350
  860SOL    HW2 3439   2.710   2.683   0.112  2.3615  2.1887  0.2042
  860SOL     MW 3440   2.685   2.602   0.129  0.1983 -0.3066 -0.1750
  861SOL     OW 3441   1.612   2.128   1.130 -0.0828  0.0934 -0.2262
  861SOL    HW1 3442   1.628   2.205   1.184  0.3261  2.3029 -2.6640
  861SOL    HW2 3443   1.538   2.091   1.175 -0.0463  1.9162  1.2169
  861SOL     MW 3444   1.605   2.133   1.143 -0.0240  0.6254 -0.3575
  862SOL     OW 3445   2.466   1.794   1.572 -0.4130  0.0236  0.2275
  862SOL    HW1 3446   2.415   1.844   1.635  2.6180 -3.0616  2.4735
  862SOL    HW2 3447   2.417   1.809   1.491  0.4212  1.4448  0.8750
  862SOL     MW 3448   2.453   1.802   1.569  0.0969 -0.1959  0.6093
  863SOL     OW 3449   3.010   1.819   1.034  0.9732 -0.0947 -0.3795
  863SOL    HW1 3450   3.097   1.808   1.072 -1.0112  1.4041 -0.6757
  863SOL    HW2 3451   2.963   1.863   1.106  0.2906 -0.6200 -2.0994
  863SOL     MW 3452   3.015   1.824   1.049  0.6213  0.0337 -0.6455
  864SOL     OW 3453   3.057   1.846   0.764  0.0044  0.1614  0.0222
  864SOL    HW1 3454   3.025   1.830   0.858  1.1634 -1.0771  0.3701
  864SOL    HW2 3455   3.012   1.783   0.699 -0.4546 -3.2473 -2.3463
  864SOL     MW 3456   3.046   1.836   0.768  0.0967 -0.4517 -0.2444
  865SOL     OW 3457   2.550   2.188   0.013 -0.6657  0.3728 -0.5515
  865SOL    HW1 3458   2.580   2.127   0.078 -0.8702  3.1407 -0.3776
  865SOL    HW2 3459   2.499   2.137  -0.047 -0.2813  0.3717  1.3222
  865SOL     MW 3460   2.547   2.174   0.014 -0.6420  0.7379 -0.2813
  866SOL     OW 3461   2.669   2.377   1.679  0.1041  0.0096  0.2019
  866SOL    HW1 3462   2.681   2.283   1.675 -3.7888 -0.3954  1.2288
  866SOL    HW2 3463   2.697   2.412   1.597  0.3523  0.3185 -1.2237
  866SOL     MW 3464   2.675   2.369   1.668 -0.3768 -0.0031  0.1493
  867SOL     OW 3465   0.038   2.744   1.814 -0.1252  0.4126  0.3214
  867SOL    HW1 3466   0.051   2.728   1.912 -1.5363  0.6680 -2.0750
  867SOL    HW2 3467  -0.001   2.832   1.807 -1.3018 -2.6591  0.0729
  867SOL     MW 3468   0.034   2.753   1.826 -0.4666  0.0410 -0.0276
  868SOL     OW 3469   2.818   2.599   0.529  0.1451  0.1936 -0.1744
  868SOL    HW1 3470   2.731   2.555   0.530 -0.4890  1.0447  2.1008
  868SOL    HW2 3471   2.801   2.685   0.487  0.1900 -0.5962 -1.6488
  868SOL     MW 3472   2.804   2.605   0.524  0.0674  0.2017 -0.0687
  869SOL     OW 3473   2.084   2.339   1.124 -0.6844 -0.4987 -0.6461
  869SOL    HW1 3474   2.179   2.334   1.111 -1.0522  0.3061  0.9285
  869SOL    HW2 3475   2.034   2.314   1.044  1.1053  0.3301 -2.5638
  869SOL     MW 3476   2.090   2.335   1.112 -0.4968 -0.2832 -0.6914
  870SOL     OW 3477   2.168   0.036   0.460 -0.2647  0.1475 -0.0221
  870SOL    HW1 3478   2.240   0.071   0.401 -3.0714  1.4293  1.7825
  870SOL    HW2 3479   2.168  -0.059   0.454 -1.5156 -0.4489 -1.4148
  870SOL     MW 3480   2.178   0.028   0.451 -0.8000  0.2379  0.0322
  871SOL     OW 3481   2.511   2.089   0.954  0.1586 -0.0231  0.4200
  871SOL    HW1 3482   2.453   2.022   0.924  0.4512 -2.0864 -0.7734
  871SOL    HW2 3483   2.451   2.155   0.985 -0.9526 -0.9473  0.5017
  871SOL     MW 3484   2.495   2.089   0.954  0.0506 -0.4173  0.2733
  872SOL     OW 3485   1.994   2.537   1.538  0.4304  0.1804  0.0706
  872SOL    HW1 3486   1.931   2.547   1.610 -0.0383  1.7355  1.3137
  872SOL    HW2 3487   1.970   2.452   1.496  2.4692  0.0087  2.0739
  872SOL     MW 3488   1.982   2.527   1.542  0.6375  0.3629  0.4989
  873SOL     OW 3489   2.926   2.025   1.940 -0.5377 -0.2722  0.1054
  873SOL    HW1 3490   2.932   2.064   2.028  1.9335  1.3318 -0.1402
  873SOL    HW2 3491   3.019   2.026   1.911  2.9061 -0.4683  1.7367
  873SOL     MW 3492   2.939   2.030   1.948  0.2427 -0.0864  0.2882
  874SOL     OW 3493   2.297   1.451   2.448  0.1824 -0.9410  0.8167
  874SOL    HW1 3494   2.264   1.426   2.357 -0.6708 -0.5797 -2.9393
  874SOL    HW2 3495   2.386   1.413   2.442  1.9702  4.3918 -3.6526
  874SOL     MW 3496   2.304   1.443   2.435  0.3057 -0.1897 -0.2686
  875SOL     OW 3497   2.330   2.314   1.046  0.0414 -0.8027  0.1823
  875SOL    HW1 3498   2.345   2.385   0.985  0.0454 -0.5943  0.6858
  875SOL    HW2 3499   2.355   2.339   1.136 -0.3731  0.4878  1.3001
  875SOL     MW 3500   2.335   2.327   1.050 -0.0128 -0.6049  0.3963
  876SOL     OW 3501   3.047   2.265   1.291 -0.2626  0.1269 -0.0038
  876SOL    HW1 3502   3.067   2.312   1.212  0.4429  0.9487 -0.7613
  876SOL    HW2 3503   3.098   2.302   1.364 -1.7937  0.2837  0.2581
  876SOL     MW 3504   3.057   2.276   1.290 -0.3716  0.2560 -0.0692
  877SOL     OW 3505   3.051   2.711   0.349  0.6666  0.3392 -0.4246
  877SOL    HW1 3506   3.098   2.795   0.345 -1.4369  0.3175  0.3637
  877SOL    HW2 3507   3.060   2.681   0.258  0.9990  1.8682  0.6603
  877SOL     MW 3508   3.058   2.718   0.336  0.4329  0.5381 -0.1775
  878SOL     OW 3509   2.370   1.833   1.291 -0.5580 -0.1171  0.5231
  878SOL    HW1 3510   2.319   1.747   1.296  3.7004 -2.6047 -0.3240
  878SOL    HW2 3511   2.462   1.793   1.279 -0.3124 -3.6595  0.3725
  878SOL     MW 3512   2.375   1.816   1.290  0.0363 -0.9127  0.3914
  879SOL     OW 3513   2.685   2.432   0.983 -0.1012  0.4423 -0.5945
  879SOL    HW1 3514   2.734   2.513   0.994 -0.3100  0.5131 -0.9608
  879SOL    HW2 3515   2.735   2.396   0.910  4.3467 -1.9361 -0.1082
  879SOL     MW 3516   2.698   2.438   0.975  0.4581  0.1378 -0.5787
  880SOL     OW 3517   2.633   2.177   0.696  0.2577 -0.1600  0.5958
  880SOL    HW1 3518   2.615   2.161   0.789 -3.9945  1.7914 -1.8177
  880SOL    HW2 3519   2.571   2.128   0.644 -2.1803  1.1254  1.2582
  880SOL     MW 3520   2.623   2.168   0.701 -0.6250  0.2670  0.3648
  881SOL     OW 3521   2.909   2.732   0.771  0.0569 -0.0258 -0.1284
  881SOL    HW1 3522   2.848   2.676   0.715 -2.2500 -0.6248 -1.5345
  881SOL    HW2 3523   3.003   2.714   0.746  1.7640 -0.7494  1.0709
  881SOL     MW 3524   2.913   2.722   0.760 -0.0223 -0.2003 -0.1557
  882SOL     OW 3525   2.240   2.890   1.947  0.3552  0.3352 -0.0523
  882SOL    HW1 3526   2.208   2.871   1.857  1.7254  1.0122  2.8750
  882SOL    HW2 3527   2.197   2.820   1.991 -2.3159  0.9613  0.6223
  882SOL     MW 3528   2.230   2.878   1.941  0.1836  0.5071  0.4229
  883SOL     OW 3529   2.301   2.187   1.450  0.3701  0.2211 -0.2874
  883SOL    HW1 3530   2.378   2.135   1.419  0.4042  3.3118 -2.4158
  883SOL    HW2 3531   2.221   2.148   1.412 -0.5632  0.8965  0.4163
  883SOL     MW 3532   2.301   2.175   1.441  0.2514  0.7180 -0.4754
  884SOL     OW 3533   1.952   1.788   1.046 -0.2341 -0.7585 -0.0169
  884SOL    HW1 3534   1.895   1.858   1.020  3.1000 -0.6313  1.7098
  884SOL    HW2 3535   2.044   1.827   1.066  1.0388  0.3647  0.6558
  884SOL     MW 3536   1.957   1.802   1.045  0.3738 -0.5935  0.2997
  885SOL     OW 3537   2.899   2.381   1.856 -0.0792  0.1466 -0.4682
  885SOL    HW1 3538   2.992   2.363   1.846 -1.5660  1.3840 -0.0199
  885SOL    HW2 3539   2.855   2.348   1.780  2.5835  0.0342  1.2066
  885SOL     MW 3540   2.905   2.374   1.845  0.0759  0.2950 -0.1881
  886SOL     OW 3541   2.827   2.331   1.436  0.6166 -0.1228  0.2444
  886SOL    HW1 3542   2.905   2.312   1.378 -1.0267  1.0097 -0.4834
  886SOL    HW2 3543   2.822   2.425   1.456 -0.0514 -0.7691  2.6855
  886SOL     MW 3544   2.837   2.341   1.431  0.3116 -0.0587  0.4704
  887SOL     OW 3545   2.260   2.628   1.529  0.6350 -0.3362  0.4634
  887SOL    HW1 3546   2.294   2.635   1.439  1.2034  0.6710 -0.8760
  887SOL    HW2 3547   2.177   2.578   1.522  0.2576  0.1918  1.6006
  887SOL     MW 3548   2.254   2.623   1.516  0.6602 -0.1337  0.4367
  888SOL     OW 3549   1.886   2.050   1.370 -0.0218  0.5640 -0.0508
  888SOL    HW1 3550   1.956   2.070   1.306 -1.6636  2.9243  0.6501
  888SOL    HW2 3551   1.935   2.054   1.452 -0.2883 -1.4229  0.8999
  888SOL     MW 3552   1.902   2.054   1.373 -0.2736  0.6133  0.1671
  889SOL     OW 3553   2.309   2.030   2.075 -0.0408  0.6000 -0.4578
  889SOL    HW1 3554   2.364   2.005   2.146 -1.6931  0.0975 -1.7839
  889SOL    HW2 3555   2.354   2.104   2.035 -0.5062  1.8729  0.9156
  889SOL     MW 3556   2.322   2.037   2.079 -0.3202  0.7017 -0.4516
  890SOL     OW 3557   0.070   2.342   0.115  0.0605  0.5999 -0.0847
  890SOL    HW1 3558   0.021   2.423   0.111 -0.8735  0.3615  0.8202
  890SOL    HW2 3559   0.085   2.309   0.205  0.6155 -0.7956 -0.6705
  890SOL     MW 3560   0.066   2.349   0.126  0.0105  0.3843 -0.0426
  891SOL     OW 3561   3.028   1.983   1.281  0.1991  0.0895 -0.1984
  891SOL    HW1 3562   3.124   1.971   1.289 -1.1746  2.6031  1.5005
  891SOL    HW2 3563   3.041   2.076   1.249 -0.2910  0.3348  0.2471
  891SOL     MW 3564   3.043   1.994   1.278 -0.0468  0.4535  0.0846
  892SOL     OW 3565   2.428   2.323   2.741 -0.1490  0.0690 -0.1129
  892SOL    HW1 3566   2.410   2.250   2.807  1.0237 -2.1474 -1.5636
  892SOL    HW2 3567   2.527   2.350   2.758 -0.1867 -1.8052 -2.3446
  892SOL     MW 3568   2.439   2.317   2.752  0.0008 -0.4707 -0.5987
  893SOL     OW 3569   1.629   2.365   1.259 -0.1771 -0.3426 -0.6641
  893SOL    HW1 3570   1.564   2.410   1.304  0.0763  1.9580 -1.9455
  893SOL    HW2 3571   1.707   2.387   1.310 -1.4351  0.9646  0.4438
  893SOL     MW 3572   1.631   2.374   1.271 -0.3097  0.1335 -0.6870
  894SOL     OW 3573   2.791   1.866   0.486 -0.0677  0.2217 -0.6550
  894SOL    HW1 3574   2.703   1.913   0.480 -4.3527 -1.5793 -0.5830
  894SOL    HW2 3575   2.812   1.833   0.393  1.1532 -1.2266  1.9264
  894SOL     MW 3576   2.782   1.868   0.473 -0.4720 -0.2070 -0.3049
  895SOL     OW 3577   2.116   2.107   1.268 -0.1987 -0.9127 -0.7160
  895SOL    HW1 3578   2.109   2.193   1.215  0.4846  2.1094  0.1656
  895SOL    HW2 3579   2.142   2.043   1.197  0.3366 -0.2381  1.7775
  895SOL     MW 3580   2.119   2.110   1.252 -0.0379 -0.4249 -0.2707
  896SOL     OW 3581   2.225   2.783   1.068  0.1262  0.0505  0.1733
  896SOL    HW1 3582   2.282   2.739   1.137  2.9082  0.4840 -2.6194
  896SOL    HW2 3583   2.167   2.704   1.051 -1.6807 -5.0985  0.0579
  896SOL     MW 3584   2.225   2.766   1.075  0.2549 -0.5716 -0.2104
  897SOL     OW 3585   2.979   2.924   0.085  0.2331  0.2536 -0.5610
  897SOL    HW1 3586   3.048   2.878   0.052 -3.7934 -0.2498 -0.7351
  897SOL    HW2 3587   2.903   2.885   0.043  0.4287  0.8265 -2.6266
  897SOL     MW 3588   2.978   2.913   0.075 -0.2723  0.2628 -0.8565
  898SOL     OW 3589   2.080   0.197   1.422  0.3982  0.8035  0.0794
  898SOL    HW1 3590   2.071   0.106   1.459 -0.8904  0.6079  1.2894
  898SOL    HW2 3591   2.076   0.187   1.323 -0.1652 -1.1408 -0.6191
  898SOL     MW 3592   2.078   0.183   1.414  0.1539  0.5211  0.1469
  899SOL     OW 3593   2.914   2.975   0.634  0.1312  0.4283  0.4761
  899SOL    HW1 3594   2.907   2.909   0.705  0.3098 -0.1236  0.6279
  899SOL    HW2 3595   2.861   3.056   0.648 -0.9613  1.3580 -3.3995
  899SOL     MW 3596   2.906   2.977   0.645  0.0106  0.4781 -0.0152
  900SOL     OW 3597   0.109   2.395   1.093  0.1209  0.0425  0.7119
  900SOL    HW1 3598   0.066   2.478   1.074 -2.3541  0.5877 -2.7026
  900SOL    HW2 3599   0.103   2.344   1.009 -1.4349 -1.7434  2.4495
  900SOL     MW 3600   0.103   2.400   1.080 -0.4109 -0.1212  0.4907
  901SOL     OW 3601   1.749   2.881   1.763 -0.0875 -1.3255  0.2207
  901SOL    HW1 3602   1.794   2.796   1.739  1.7506  0.8449  1.8166
  901SOL    HW2 3603   1.679   2.893   1.699 -1.0027 -2.0402  1.2379
  901SOL     MW 3604   1.746   2.871   1.751  0.0343 -1.1335  0.5655
  902SOL     OW 3605   2.687   2.103   1.825  0.3178  0.1021  0.0598
  902SOL    HW1 3606   2.681   2.070   1.739 -0.0791  1.1754  0.5013
  902SOL    HW2 3607   2.768   2.069   1.862 -0.3034 -1.2973  1.6286
  902SOL     MW 3608   2.697   2.094   1.819  0.1835  0.0591  0.3250
  903SOL     OW 3609   1.584   2.789   0.549  0.4110 -0.3277  0.3205
  903SOL    HW1 3610   1.636   2.716   0.599  2.2498 -0.6862  1.0151
  903SOL    HW2 3611   1.542   2.816   0.634  1.1139  0.7477 -1.2294
  903SOL     MW 3612   1.586   2.783   0.567  0.7463 -0.2331  0.2077
  904SOL     OW 3613   2.471   2.621   1.724  0.2393  0.8032 -0.3910
  904SOL    HW1 3614   2.398   2.604   1.670 -1.8101  0.8903  3.5549
  904SOL    HW2 3615   2.549   2.575   1.686 -1.0691  0.9138 -1.3438
  904SOL     MW 3616   2.472   2.613   1.712 -0.2037  0.8293  0.0039
  905SOL     OW 3617   2.307   2.569   2.181 -0.1642 -0.3520 -0.0016
  905SOL    HW1 3618   2.367   2.565   2.104 -1.7578 -1.2644 -0.7576
  905SOL    HW2 3619   2.273   2.476   2.186 -1.8982 -0.0912 -1.6531
  905SOL     MW 3620   2.311   2.556   2.172 -0.6033 -0.4380 -0.3192
  906SOL     OW 3621   2.442   2.502   0.887  0.8642 -0.4611  0.1158
  906SOL    HW1 3622   2.519   2.480   0.936 -0.7432 -0.9998 -1.7914
  906SOL    HW2 3623   2.450   2.604   0.863  1.1975  1.3593 -0.5752
  906SOL     MW 3624   2.454   2.512   0.890  0.6961 -0.2920 -0.2270
  907SOL     OW 3625   2.640   2.784   1.329  0.0862 -0.1830  0.0297
  907SOL    HW1 3626   2.656   2.860   1.384 -0.6047 -1.0417  1.1943
  907SOL    HW2 3627   2.665   2.819   1.239 -2.7350  2.9770 -1.2858
  907SOL     MW 3628   2.646   2.799   1.325 -0.3772  0.1206  0.0098
  908SOL     OW 3629   2.741   2.365   3.096  0.0162 -0.2292  0.1735
  908SOL    HW1 3630   2.669   2.307   3.104 -1.5955  0.3489  3.2564
  908SOL    HW2 3631   2.707   2.444   3.135 -1.6811 -0.2981 -0.8226
  908SOL     MW 3632   2.727   2.368   3.102 -0.4204 -0.1620  0.4488
  909SOL     OW 3633   1.702   0.122   1.134 -0.3265 -0.6761  0.5289
  909SOL    HW1 3634   1.684   0.196   1.079  1.2101  0.4455  0.2702
  909SOL    HW2 3635   1.751   0.166   1.210  0.0738  0.6398  0.7844
  909SOL     MW 3636   1.706   0.138   1.137 -0.0709 -0.3545  0.5284
  910SOL     OW 3637   2.350   1.763   0.466 -0.3763  0.0710  0.4014
  910SOL    HW1 3638   2.284   1.694   0.472  1.5247 -1.7096 -0.2675
  910SOL    HW2 3639   2.334   1.803   0.380  0.3030  1.1125  0.0750
  910SOL     MW 3640   2.340   1.759   0.455 -0.0358 -0.0265  0.2701
  911SOL     OW 3641   2.232   2.223   1.729 -0.1673 -0.3657  0.2399
  911SOL    HW1 3642   2.314   2.222   1.779  1.0307 -0.5799 -1.2952
  911SOL    HW2 3643   2.263   2.224   1.637 -0.6879 -2.4293 -0.3963
  911SOL     MW 3644   2.247   2.223   1.724 -0.0779 -0.6663 -0.0466
  912SOL     OW 3645   2.930   1.932   1.531  0.3090 -0.2750  0.6630
  912SOL    HW1 3646   2.969   1.966   1.454 -0.3101  1.2266  0.0037
  912SOL    HW2 3647   2.842   1.973   1.538 -0.4245  0.4679 -0.3229
  912SOL     MW 3648   2.924   1.942   1.522  0.1306  0.0212  0.4459
  913SOL     OW 3649   2.625   3.041   0.362  0.1922  0.2455  0.1064
  913SOL    HW1 3650   2.690   2.972   0.360 -1.2925  1.6498  1.5370
  913SOL    HW2 3651   2.554   2.984   0.347  0.2411 -2.6957 -1.1928
  913SOL     MW 3652   2.625   3.025   0.360  0.0027  0.0427  0.1237
  914SOL     OW 3653   2.686   1.757   3.060  0.0496  0.0383  0.2873
  914SOL    HW1 3654   2.719   1.808   2.980  1.4692  0.8078 -0.4044
  914SOL    HW2 3655   2.591   1.760   3.060  3.3367  1.2195  3.8026
  914SOL     MW 3656   2.678   1.764   3.049  0.6706  0.2957  0.6598
  915SOL     OW 3657   1.685   0.236   0.231 -0.6646  0.2454  0.5573
  915SOL    HW1 3658   1.760   0.195   0.271 -2.5603 -2.8545  1.1126
  915SOL    HW2 3659   1.616   0.169   0.216  2.2364  1.6806 -2.5444
  915SOL     MW 3660   1.686   0.222   0.234 -0.5319  0.0258  0.2213
  916SOL     OW 3661   1.811   2.100   1.918  0.2753 -0.1921 -0.2870
  916SOL    HW1 3662   1.835   2.190   1.943 -0.8490 -0.1908 -0.6885
  916SOL    HW2 3663   1.861   2.082   1.838 -0.8989  0.7739 -1.1551
  916SOL     MW 3664   1.821   2.109   1.911 -0.0280 -0.0645 -0.4545
  917SOL     OW 3665   2.557   2.194   2.529  0.1210  0.1465 -0.1610
  917SOL    HW1 3666   2.506   2.258   2.574  1.3600 -0.0629 -2.4676
  917SOL    HW2 3667   2.628   2.237   2.488  1.2257 -0.5441  0.2297
  917SOL     MW 3668   2.560   2.208   2.530  0.4303  0.0277 -0.4137
  918SOL     OW 3669   2.004   1.598   2.714 -0.1552 -0.1207 -0.2729
  918SOL    HW1 3670   1.916   1.615   2.678  1.1516 -0.7988 -0.2045
  918SOL    HW2 3671   2.064   1.663   2.677 -0.0229 -2.5078 -1.7411
  918SOL     MW 3672   2.001   1.609   2.704  0.0347 -0.5251 -0.4576
  919SOL     OW 3673   3.098   2.307   2.265 -0.2564  0.3131  0.2949
  919SOL    HW1 3674   3.021   2.257   2.232 -1.3750  1.4444 -0.0900
  919SOL    HW2 3675   3.155   2.329   2.192 -0.0172  0.1901 -0.8225
  919SOL     MW 3676   3.095   2.303   2.251 -0.3724  0.4461  0.0967
  920SOL     OW 3677   2.746   2.855   3.075  0.0452  0.3473  0.0533
  920SOL    HW1 3678   2.680   2.898   3.127  2.6970  0.7278  3.6006
  920SOL    HW2 3679   2.695   2.797   3.013 -1.7870  0.4518  0.0046
  920SOL     MW 3680   2.731   2.853   3.074  0.1534  0.4113  0.5149
  921SOL     OW 3681   2.447   2.575   2.624  0.0240  0.4553  0.2915
  921SOL    HW1 3682   2.504   2.573   2.547  4.3814  0.2882 -0.5119
  921SOL    HW2 3683   2.428   2.478   2.645  0.2472 -1.2445  3.1738
  921SOL     MW 3684   2.452   2.562   2.617  0.6284  0.2090  0.5658
  922SOL     OW 3685   2.044   2.846   0.316  0.3499  0.6574 -0.5958
  922SOL    HW1 3686   2.009   2.884   0.237 -1.5333 -0.8735  0.4443
  922SOL    HW2 3687   2.047   2.749   0.302 -2.1828  2.5669  2.2986
  922SOL     MW 3688   2.039   2.838   0.304 -0.2327  0.7074 -0.0767
  923SOL     OW 3689   2.161   2.826   1.684  0.0644  0.0221  0.2840
  923SOL    HW1 3690   2.196   2.758   1.625 -2.5825  0.0797  1.5468
  923SOL    HW2 3691   2.128   2.890   1.624  1.2603 -1.1136  1.1536
  923SOL     MW 3692   2.161   2.826   1.669 -0.1270 -0.1202  0.5654
  924SOL     OW 3693   1.188   2.616   2.490 -0.2505  0.1452  0.3763
  924SOL    HW1 3694   1.238   2.693   2.507  0.9877 -1.5210 -3.2267
  924SOL    HW2 3695   1.210   2.547   2.553 -3.0901 -0.3527 -0.9878
  924SOL     MW 3696   1.197   2.617   2.500 -0.4618 -0.1403 -0.2791
  925SOL     OW 3697   2.968   0.196   2.647  0.3000 -0.5985  0.0729
  925SOL    HW1 3698   2.938   0.207   2.548 -1.2007 -2.0460  0.1457
  925SOL    HW2 3699   2.936   0.276   2.682  1.7706  1.4562 -0.7696
  925SOL     MW 3700   2.960   0.208   2.638  0.2960 -0.5184 -0.0286
  926SOL     OW 3701   2.731   2.392   2.089 -0.3420  0.0164 -0.0174
  926SOL    HW1 3702   2.765   2.457   2.153  0.1379 -1.4806  0.9123
  926SOL    HW2 3703   2.790   2.372   2.018  2.6096 -2.6118  1.1916
  926SOL     MW 3704   2.743   2.398   2.088  0.1107 -0.5279  0.2648
  927SOL     OW 3705   2.354   0.150   0.281 -0.4877  0.0822 -0.6478
  927SOL    HW1 3706   2.454   0.158   0.275  3.0674 -0.3332 -0.1515
  927SOL    HW2 3707   2.327   0.129   0.192 -1.0334  0.5809  0.5362
  927SOL     MW 3708   2.364   0.148   0.268 -0.0906  0.0932 -0.4261
  928SOL     OW 3709   2.146   2.432   1.925  0.5831 -0.1814 -0.6332
  928SOL    HW1 3710   2.162   2.520   1.881  1.2856  1.5479  0.0319
  928SOL    HW2 3711   2.195   2.363   1.878  2.3536  0.5205 -0.7776
  928SOL     MW 3712   2.155   2.435   1.913  0.9094  0.1394 -0.5645
  929SOL     OW 3713   2.734   2.388   2.442  0.5967  0.2803  0.0860
  929SOL    HW1 3714   2.795   2.394   2.375 -2.4998  2.3798  0.4231
  929SOL    HW2 3715   2.771   2.334   2.511  0.0010 -1.3489 -1.1060
  929SOL     MW 3716   2.747   2.381   2.443  0.1096  0.3424 -0.0268
  930SOL     OW 3717   2.020   2.850   2.689 -0.2250  0.1502 -0.1740
  930SOL    HW1 3718   2.028   2.776   2.749 -0.7232  0.1701  2.7026
  930SOL    HW2 3719   2.110   2.897   2.692  3.1181 -1.1150 -2.9570
  930SOL     MW 3720   2.033   2.847   2.697  0.1503 -0.0141 -0.1617
  931SOL     OW 3721   3.013   2.776   2.318  0.2994 -0.3371  0.5456
  931SOL    HW1 3722   3.071   2.785   2.395  0.3912  0.7441  3.7070
  931SOL    HW2 3723   3.060   2.764   2.242 -2.4602 -1.5689  2.0524
  931SOL     MW 3724   3.027   2.776   2.318 -0.0526 -0.3570  1.1615
  932SOL     OW 3725   2.848   1.971   2.577  0.3026 -0.4397  0.0798
  932SOL    HW1 3726   2.941   1.999   2.555  0.4975 -1.2482 -0.2867
  932SOL    HW2 3727   2.798   1.968   2.496 -2.4546 -0.6516  2.1265
  932SOL     MW 3728   2.854   1.974   2.564 -0.0355 -0.5743  0.3015
  933SOL     OW 3729   2.027   2.879   2.309  0.2971  0.1305 -0.4438
  933SOL    HW1 3730   2.108   2.923   2.332  0.2464 -0.2840 -1.6129
  933SOL    HW2 3731   1.974   2.948   2.265  2.1774  2.0152 -0.6395
  933SOL     MW 3732   2.031   2.894   2.306  0.5385  0.3245 -0.6238
  934SOL     OW 3733   2.016   2.678   2.474  0.0489  0.2901  0.5351
  934SOL    HW1 3734   2.009   2.740   2.550  1.0985  2.2549  0.2885
  934SOL    HW2 3735   2.027   2.746   2.403 -0.6370 -0.7091  0.9367
  934SOL     MW 3736   2.016   2.695   2.474  0.0969  0.4175  0.5556
  935SOL     OW 3737   2.677   1.549   1.802  0.1344 -0.6892 -0.9239
  935SOL    HW1 3738   2.775   1.533   1.773  2.0917 -1.6627 -0.0921
  935SOL    HW2 3739   2.641   1.536   1.716 -0.4352 -0.2046 -0.4263
  935SOL     MW 3740   2.685   1.545   1.787  0.3175 -0.7537 -0.7485
  936SOL     OW 3741   2.989   2.218   3.061  0.1040  0.1171 -0.4922
  936SOL    HW1 3742   3.057   2.255   3.120 -0.2763 -1.2474  1.4335
  936SOL    HW2 3743   2.901   2.258   3.075 -2.9963  0.3132  2.0342
  936SOL     MW 3744   2.986   2.228   3.070 -0.3553 -0.0370  0.0952
  937SOL     OW 3745   1.931   2.131   2.612 -0.2472 -0.2351  0.1862
  937SOL    HW1 3746   2.013   2.095   2.648  0.1492  0.8194 -0.6471
  937SOL    HW2 3747   1.929   2.108   2.521 -1.8767  1.1393 -0.3991
  937SOL     MW 3748   1.942   2.123   2.604 -0.4099  0.0854 -0.0010
  938SOL     OW 3749   2.257   1.797   1.957  0.4500  0.0384 -0.0075
  938SOL    HW1 3750   2.246   1.830   1.866 -0.0911 -1.4832 -1.1098
  938SOL    HW2 3751   2.256   1.876   2.007 -1.0012  0.4299 -2.4649
  938SOL     MW 3752   2.255   1.811   1.952  0.1871 -0.1107 -0.4772
  939SOL     OW 3753   2.727   1.969   2.318 -0.1913  0.1247  0.2226
  939SOL    HW1 3754   2.767   1.897   2.265  0.9338  0.0363  3.0756
  939SOL    HW2 3755   2.631   1.971   2.294 -3.6106  2.3858  1.5256
  939SOL     MW 3756   2.720   1.960   2.308 -0.4940  0.4114  0.7710
  940SOL     OW 3757   2.293   0.165   2.641 -0.2091 -0.2178 -0.0486
  940SOL    HW1 3758   2.309   0.067   2.640  0.3809 -1.9663 -2.9360
  940SOL    HW2 3759   2.319   0.199   2.721 -1.9592 -2.1250 -0.9938
  940SOL     MW 3760   2.299   0.156   2.652 -0.3622 -0.7001 -0.5543
  941SOL     OW 3761   0.145   2.400   2.041 -0.7894  0.7607  0.1490
  941SOL    HW1 3762   0.235   2.431   2.030  2.0071  2.2890  0.1012
  941SOL    HW2 3763   0.118   2.343   1.964  1.6092  0.3563  3.8920
  941SOL     MW 3764   0.153   2.397   2.030 -0.1039  0.9090  0.6365
  942SOL     OW 3765   2.884   2.161   2.186 -0.4818 -0.3008 -0.0309
  942SOL    HW1 3766   2.835   2.242   2.169 -1.0035 -0.4574  1.5663
  942SOL    HW2 3767   2.827   2.108   2.236  0.6675  1.2559 -0.9835
  942SOL     MW 3768   2.870   2.165   2.191 -0.3990 -0.1160  0.0542
  943SOL     OW 3769   0.290   2.106   2.279 -0.3059  0.3784  0.1727
  943SOL    HW1 3770   0.252   2.136   2.363  1.0386  0.0957 -0.0941
  943SOL    HW2 3771   0.383   2.081   2.296 -0.0288  0.4072  0.5133
  943SOL     MW 3772   0.297   2.107   2.292 -0.0920  0.3449  0.1825
  944SOL     OW 3773   2.076   2.693   2.100 -0.1791 -0.0905 -0.1219
  944SOL    HW1 3774   2.161   2.655   2.134  1.3093  1.6841  0.6215
  944SOL    HW2 3775   2.055   2.743   2.188  0.8309 -2.2342 -0.7328
  944SOL     MW 3776   2.084   2.695   2.116  0.1505 -0.1392 -0.1044
  945SOL     OW 3777   2.638   2.708   2.889 -0.0302 -0.0062 -0.2004
  945SOL    HW1 3778   2.631   2.621   2.859  0.1173  0.9972  0.9221
  945SOL    HW2 3779   2.593   2.762   2.822  1.8631 -0.4978 -0.3471
  945SOL     MW 3780   2.631   2.704   2.876  0.2390  0.0613 -0.0716
  946SOL     OW 3781   2.475   2.778   2.281  0.4121 -1.2081  0.2974
  946SOL    HW1 3782   2.497   2.805   2.184 -0.1976  1.9550  1.9213
  946SOL    HW2 3783   2.403   2.724   2.266  2.0843 -2.2469  0.5261
  946SOL     MW 3784   2.468   2.774   2.266  0.5523 -0.9278  0.5418
  947SOL     OW 3785   1.908   0.067   0.323  0.0166  0.2117 -0.1773
  947SOL    HW1 3786   1.844   0.002   0.360  1.1193 -6.1231  1.2682
  947SOL    HW2 3787   1.978   0.051   0.386 -2.4391 -0.0135  0.1062
  947SOL     MW 3788   1.909   0.056   0.336 -0.1619 -0.6538  0.0508
  948SOL     OW 3789   1.834   3.074   2.672  0.4194  0.4858  0.3117
  948SOL    HW1 3790   1.879   2.989   2.669 -1.6886 -1.0630 -1.1057
  948SOL    HW2 3791   1.791   3.076   2.583 -2.2783  1.1664  0.3419
  948SOL     MW 3792   1.835   3.063   2.660 -0.2147  0.3712  0.1287
  949SOL     OW 3793   2.467   1.923   2.258  0.2740 -0.5854  0.2429
  949SOL    HW1 3794   2.447   1.834   2.295  1.6690  1.6033  0.3176
  949SOL    HW2 3795   2.410   1.981   2.310  0.1204  0.2269  1.2316
  949SOL     MW 3796   2.457   1.919   2.270  0.4378 -0.1894  0.3832
  950SOL     OW 3797   2.272   2.467   2.954 -0.0674 -0.8961  0.1696
  950SOL    HW1 3798   2.317   2.425   2.882  0.5427  2.4474 -0.2292
  950SOL    HW2 3799   2.186   2.491   2.922 -0.8028  0.2406 -2.3717
  950SOL     MW 3800   2.267   2.465   2.940 -0.0839 -0.3050 -0.2183
  951SOL     OW 3801   2.999   2.095   2.816  0.0274 -0.3574 -0.4219
  951SOL    HW1 3802   3.006   2.149   2.897  0.5185  0.8228  1.3985
  951SOL    HW2 3803   3.083   2.046   2.810  1.4257  1.1111  0.1535
  951SOL     MW 3804   3.011   2.096   2.826  0.2766 -0.0080 -0.1058
  952SOL     OW 3805   3.008   1.652   2.144 -0.5153 -0.1385 -0.0541
  952SOL    HW1 3806   2.925   1.705   2.127 -1.2031 -0.0340  0.9938
  952SOL    HW2 3807   3.054   1.700   2.215 -0.5026  1.8073 -0.3905
  952SOL     MW 3808   3.003   1.665   2.151 -0.6044  0.1320  0.0397
  953SOL     OW 3809   1.902   1.782   2.927 -0.8026 -0.1994 -0.0309
  953SOL    HW1 3810   1.836   1.731   2.972  1.3363  2.7048  0.5965
  953SOL    HW2 3811   1.926   1.717   2.853 -0.6230 -0.2525 -0.2663
  953SOL     MW 3812   1.897   1.766   2.923 -0.4967  0.1767  0.0208
  954SOL     OW 3813   2.398   2.080   2.893 -0.5699  0.1416  0.3935
  954SOL    HW1 3814   2.312   2.063   2.866  2.5656 -1.3752  0.7111
  954SOL    HW2 3815   2.443   2.041   2.815  0.2418  0.9301 -0.1944
  954SOL     MW 3816   2.392   2.073   2.879 -0.0491  0.0455  0.3578
  955SOL     OW 3817   1.529   1.579   2.586  0.6772  0.5207  0.0571
  955SOL    HW1 3818   1.506   1.592   2.492  0.0710 -0.6434 -2.8812
  955SOL    HW2 3819   1.605   1.633   2.598 -0.3704 -1.6673 -2.4795
  955SOL     MW 3820   1.536   1.588   2.575  0.4590  0.0784 -0.6652
  956SOL     OW 3821   2.677   2.424   2.832 -0.2086  0.1867  0.2609
  956SOL    HW1 3822   2.714   2.410   2.917  0.8835  1.0135 -1.8410
  956SOL    HW2 3823   2.733   2.376   2.771  1.0937  1.9599 -1.8960
  956SOL     MW 3824   2.689   2.415   2.835  0.1073  0.5297 -0.3010
  957SOL     OW 3825   2.336   2.837   0.359 -0.3739 -0.0902  0.2572
  957SOL    HW1 3826   2.262   2.832   0.293 -1.6016  0.0429  2.1102
  957SOL    HW2 3827   2.279   2.818   0.437 -1.7632 -0.8561 -2.1521
  957SOL     MW 3828   2.318   2.834   0.360 -0.7192 -0.1737  0.1838
  958SOL     OW 3829   2.061   2.618   2.822  0.9238  0.3977 -0.1066
  958SOL    HW1 3830   2.053   2.549   2.752  3.4478 -0.8688  0.6484
  958SOL    HW2 3831   1.985   2.623   2.877  2.3519  0.2404 -1.1579
  958SOL     MW 3832   2.050   2.610   2.820  1.4452  0.2098 -0.1457
  959SOL     OW 3833   2.498   2.601   0.337  0.1302 -0.0543  0.0597
  959SOL    HW1 3834   2.539   2.610   0.256 -0.8930 -0.0064 -1.2314
  959SOL    HW2 3835   2.434   2.674   0.350 -1.7133  2.7064 -0.3640
  959SOL     MW 3836   2.495   2.612   0.328 -0.2480  0.3163 -0.1665
  960SOL     OW 3837   1.909   2.255   2.236 -0.0494  0.4480  0.3810
  960SOL    HW1 3838   1.948   2.169   2.250  0.9466 -1.3216 -2.3893
  960SOL    HW2 3839   1.853   2.272   2.316 -0.0383 -0.6539  1.3854
  960SOL     MW 3840   1.907   2.246   2.248  0.0835  0.0691  0.1480
  961SOL     OW 3841   2.204   2.319   2.273  0.0613 -0.0830 -0.0108
  961SOL    HW1 3842   2.117   2.290   2.237  0.7965  0.6198 -1.0871
  961SOL    HW2 3843   2.191   2.391   2.347 -3.0346  2.3619 -0.0188
  961SOL     MW 3844   2.191   2.325   2.278 -0.2502  0.3323 -0.1538
  962SOL     OW 3845   2.130   2.021   2.750  0.0249  0.0986 -0.5034
  962SOL    HW1 3846   2.119   2.006   2.839  1.1674 -0.1627 -3.8323
  962SOL    HW2 3847   2.152   1.930   2.711  1.4133 -1.8203 -0.6215
  962SOL     MW 3848   2.131   2.007   2.757  0.3588 -0.1891 -0.9582
  963SOL     OW 3849   1.838   2.548   2.057 -0.1275  0.2606  0.2878
  963SOL    HW1 3850   1.932   2.563   2.076 -1.8837 -3.3111  2.2928
  963SOL    HW2 3851   1.835   2.477   1.990 -0.3060 -1.1924  1.1145
  963SOL     MW 3852   1.850   2.541   2.051 -0.3827 -0.4024  0.6614
  964SOL     OW 3853   1.768   1.943   2.732 -0.1910  0.6530  0.4751
  964SOL    HW1 3854   1.815   2.016   2.689  1.9563  2.5410 -2.3502
  964SOL    HW2 3855   1.821   1.898   2.796 -1.4320 -1.5758 -2.2539
  964SOL     MW 3856   1.781   1.947   2.735 -0.0714  0.6081 -0.2577
  965SOL     OW 3857   2.210   2.754   0.589  0.2175 -0.4498 -0.1873
  965SOL    HW1 3858   2.212   2.658   0.584  0.8396  0.7799 -2.0212
  965SOL    HW2 3859   2.282   2.774   0.652  1.6481  1.0218 -1.1308
  965SOL     MW 3860   2.220   2.744   0.597  0.4883 -0.0934 -0.5537
  966SOL     OW 3861   2.686   2.672   2.464 -0.1614 -0.3723  0.0858
  966SOL    HW1 3862   2.629   2.718   2.403  1.3431  1.5855 -0.4202
  966SOL    HW2 3863   2.705   2.588   2.425 -0.7877  1.1061 -3.1925
  966SOL     MW 3864   2.681   2.667   2.451 -0.0455  0.0810 -0.4135
  967SOL     OW 3865   2.765   3.044   2.884 -0.2388 -0.4045 -0.7881
  967SOL    HW1 3866   2.756   2.977   2.957  0.4506  2.3835  1.9921
  967SOL    HW2 3867   2.676   3.055   2.836 -4.1485  0.9145  2.6944
  967SOL     MW 3868   2.752   3.037   2.887 -0.6637  0.1374  0.0382
  968SOL     OW 3869   2.987   2.617   2.889 -0.4466 -0.0103 -0.6110
  968SOL    HW1 3870   2.939   2.664   2.821 -0.0990 -2.6190  2.3099
  968SOL    HW2 3871   3.020   2.549   2.834 -0.8297 -1.2088  3.1802
  968SOL     MW 3872   2.985   2.614   2.873 -0.4513 -0.5126  0.2746
  969SOL     OW 3873   1.616   2.124   1.639  0.4354  0.4671  0.1488
  969SOL    HW1 3874   1.666   2.042   1.642 -0.5734  3.2243  2.4408
  969SOL    HW2 3875   1.568   2.137   1.720 -0.9884 -1.2554 -1.2986
  969SOL     MW 3876   1.617   2.115   1.650  0.1145  0.6036  0.2602
  970SOL     OW 3877   1.687   1.798   1.898 -0.1894  0.3060  1.2884
  970SOL    HW1 3878   1.739   1.738   1.949  3.5859  0.1780 -0.0164
  970SOL    HW2 3879   1.593   1.771   1.901 -2.4797 -0.7949 -1.2770
  970SOL     MW 3880   1.681   1.786   1.905  0.0065  0.1439  0.7778
  971SOL     OW 3881   1.749   3.094   2.421 -0.4667  0.8666 -0.2701
  971SOL    HW1 3882   1.776   3.059   2.341  1.6003  0.6621  2.2479
  971SOL    HW2 3883   1.791   3.179   2.425 -1.6460 -0.4914 -1.0955
  971SOL     MW 3884   1.758   3.100   2.411 -0.3496  0.6605 -0.0468
  972SOL     OW 3885   0.263   2.837   2.492  0.3007  0.0976 -0.1478
  972SOL    HW1 3886   0.325   2.762   2.491 -1.0473 -0.9333 -0.0283
  972SOL    HW2 3887   0.324   2.910   2.508 -0.3281  1.9735  0.8846
  972SOL     MW 3888   0.279   2.836   2.494  0.0399  0.2090  0.0042
  973SOL     OW 3889   2.540   0.006   2.079  0.3110 -0.4818  0.1576
  973SOL    HW1 3890   2.507  -0.079   2.054 -0.8436 -1.4725  0.7058
  973SOL    HW2 3891   2.565   0.051   1.994  0.1593 -0.5145  0.5068
  973SOL     MW 3892   2.539   0.001   2.065  0.1386 -0.6168  0.2760
  974SOL     OW 3893   2.028   0.201   2.687 -0.3733 -0.0954  0.3901
  974SOL    HW1 3894   2.117   0.187   2.655 -1.6600  0.0016  0.2041
  974SOL    HW2 3895   2.024   0.166   2.773 -2.7422  1.6108 -0.8581
  974SOL     MW 3896   2.039   0.195   2.694 -0.8556  0.1425  0.2008
  975SOL     OW 3897   2.209   2.490   2.475 -0.0845 -0.0755  0.2264
  975SOL    HW1 3898   2.286   2.535   2.516  1.8847 -1.9187 -0.1079
  975SOL    HW2 3899   2.136   2.558   2.465  1.0523  2.3752  1.6851
  975SOL     MW 3900   2.209   2.505   2.480  0.3253  0.0047  0.3747
  976SOL     OW 3901   0.221   0.360   1.738  0.2619 -0.1272 -0.2900
  976SOL    HW1 3902   0.298   0.295   1.759  0.1415 -2.3528 -0.4179
  976SOL    HW2 3903   0.159   0.307   1.671 -1.9965 -0.1095 -0.8943
  976SOL     MW 3904   0.223   0.344   1.732 -0.0520 -0.4185 -0.3866
  977SOL     OW 3905   1.760   2.638   2.523  0.0444  0.4306  0.2272
  977SOL    HW1 3906   1.761   2.550   2.482 -0.9439 -1.3068  0.2199
  977SOL    HW2 3907   1.851   2.650   2.511 -1.0846 -0.7383 -1.9930
  977SOL     MW 3908   1.772   2.628   2.516 -0.2349  0.0471 -0.0667
   3.10000   3.10000   3.10000
