977 TIP4P/2005f water molecules t=   0.08000 step= 80
 3908
    1SOL     OW    1   0.189   0.773   3.100  0.0656 -0.1789  0.6055
    1SOL    HW1    2   0.191   0.807   3.008  0.9898  1.4961  0.4918
    1SOL    HW2    3   0.195   0.675   3.092 -0.8783 -1.4779  2.6362
    1SOL     MW    4   0.190   0.764   3.087  0.0630 -0.1293  0.8584
    2SOL     OW    5   0.338   3.046   1.108 -0.0582 -0.1160  0.5312
    2SOL    HW1    6   0.397   3.120   1.097 -2.3264  1.4157  1.8819
    2SOL    HW2    7   0.248   3.079   1.137 -0.3542  1.2546  0.1718
    2SOL     MW    8   0.334   3.060   1.111 -0.3965  0.2669  0.6620
    3SOL     OW    9   2.756   0.377   0.872 -0.2171  0.3693 -0.2665
    3SOL    HW1   10   2.735   0.467   0.840  0.7362  0.4682 -1.9280
    3SOL    HW2   11   2.749   0.381   0.975  0.4287 -1.9209  0.8080
    3SOL     MW   12   2.753   0.389   0.881 -0.0061  0.0801 -0.3439
    4SOL     OW   13   3.091   1.684   0.712  0.2087  0.3060 -0.7243
    4SOL    HW1   14   3.054   1.746   0.646 -0.8430  0.1572  2.0296
    4SOL    HW2   15   3.163   1.635   0.670 -0.3523  0.6080 -2.3812
    4SOL     MW   16   3.095   1.686   0.698 -0.0041  0.3262 -0.5795
    5SOL     OW   17   1.670   1.441   0.528 -0.4191  0.2587 -0.7478
    5SOL    HW1   18   1.739   1.406   0.590  1.7278  0.1471 -0.5253
    5SOL    HW2   19   1.594   1.415   0.571  2.0784 -3.6280  0.2059
    5SOL     MW   20   1.669   1.433   0.542  0.1937 -0.2688 -0.5926
    6SOL     OW   21   0.841   1.338   0.571  0.1296  0.0044  0.2283
    6SOL    HW1   22   0.760   1.339   0.620  1.5957 -2.3633 -1.6546
    6SOL    HW2   23   0.895   1.261   0.604  1.4640 -0.9742 -1.4713
    6SOL     MW   24   0.837   1.328   0.582  0.4991 -0.4371 -0.2443
    7SOL     OW   25   1.974   1.058   3.041 -0.2885 -0.3497  0.3687
    7SOL    HW1   26   2.034   1.101   2.984 -1.8832  1.3527  1.7068
    7SOL    HW2   27   1.998   1.076   3.129 -3.2350 -0.2408  1.9104
    7SOL     MW   28   1.985   1.066   3.045 -0.8876 -0.1107  0.7487
    8SOL     OW   29   1.020   1.316   1.062 -0.1903 -0.0002  0.1551
    8SOL    HW1   30   1.108   1.307   1.096  2.7995 -3.0580  0.7233
    8SOL    HW2   31   0.984   1.230   1.065  0.1824 -1.7398  0.2669
    8SOL     MW   32   1.027   1.304   1.067  0.2534 -0.6332  0.2448
    9SOL     OW   33   0.994   0.490   1.443  0.1081  0.4157 -0.3571
    9SOL    HW1   34   0.967   0.397   1.452  0.1174  1.0200 -3.2527
    9SOL    HW2   35   1.068   0.493   1.501 -1.5796 -0.4969  0.1259
    9SOL     MW   36   1.000   0.478   1.452 -0.1133  0.3751 -0.6754
   10SOL     OW   37   0.306   0.859   0.424  0.1209  0.0879  0.0331
   10SOL    HW1   38   0.405   0.872   0.403 -0.3350  0.9986  1.0374
   10SOL    HW2   39   0.292   0.913   0.504  0.7946  0.4186 -1.0279
   10SOL     MW   40   0.317   0.868   0.432  0.1496  0.2517  0.0257
   11SOL     OW   41   0.926   1.085   1.563 -0.1005  0.2974 -0.5080
   11SOL    HW1   42   0.913   1.093   1.661  1.1793  1.4476  0.4210
   11SOL    HW2   43   0.851   1.019   1.543 -0.0560 -0.9729 -0.2504
   11SOL     MW   44   0.915   1.077   1.574  0.0742  0.2815 -0.3515
   12SOL     OW   45   3.051   1.047   0.871  0.4749  0.2604  0.0099
   12SOL    HW1   46   3.090   1.106   0.938 -1.5775  1.8029  1.8976
   12SOL    HW2   47   2.997   1.112   0.816  1.0147  4.1701 -4.1171
   12SOL     MW   48   3.049   1.064   0.872  0.2753  0.9797 -0.2855
   13SOL     OW   49   1.922   1.394   1.442 -0.1007  0.6284  0.0728
   13SOL    HW1   50   1.933   1.351   1.357  0.3186 -1.9969 -0.6762
   13SOL    HW2   51   1.926   1.485   1.415 -0.7765 -0.6545  0.3130
   13SOL     MW   52   1.924   1.400   1.427 -0.1346  0.1128  0.0057
   14SOL     OW   53   0.609   0.387   1.766 -0.2675  0.3269 -0.3968
   14SOL    HW1   54   0.604   0.294   1.742 -1.2706 -1.8299  0.6938
   14SOL    HW2   55   0.689   0.398   1.822 -0.9266 -0.8457  0.1451
   14SOL     MW   56   0.619   0.376   1.770 -0.4868 -0.1124 -0.1814
   15SOL     OW   57   2.008   0.566   0.935  0.1841 -0.2493 -0.5625
   15SOL    HW1   58   2.041   0.526   1.016  1.3370 -0.8363 -0.6418
   15SOL    HW2   59   2.084   0.563   0.879  0.4688  0.7631  0.4142
   15SOL     MW   60   2.023   0.560   0.939  0.3738 -0.1932 -0.4441
   16SOL     OW   61   0.140   1.766   0.267  0.2501  0.4700 -0.4046
   16SOL    HW1   62   0.230   1.734   0.276  2.3407 -0.6892 -1.6235
   16SOL    HW2   63   0.146   1.856   0.293 -0.5515 -1.5508  1.2012
   16SOL     MW   64   0.153   1.774   0.272  0.4202  0.0504 -0.3536
   17SOL     OW   65   1.167   0.777   1.461  0.0817 -0.1820  0.0803
   17SOL    HW1   66   1.169   0.809   1.553  1.0836 -0.9917  2.1993
   17SOL    HW2   67   1.080   0.806   1.430 -1.2466 -0.0659  0.2848
   17SOL     MW   68   1.155   0.785   1.469  0.0386 -0.2735  0.3868
   18SOL     OW   69   3.097   1.556   0.380 -0.1140  0.2546 -0.1438
   18SOL    HW1   70   3.138   1.633   0.337  0.7682 -0.6590 -2.8964
   18SOL    HW2   71   3.103   1.489   0.316  0.3413  1.4810  1.4903
   18SOL     MW   72   3.103   1.557   0.366  0.0625  0.2959 -0.2914
   19SOL     OW   73   0.058   1.244   1.028  0.2435 -0.7178 -0.0291
   19SOL    HW1   74   0.111   1.310   0.979  1.2676 -0.6968  1.2871
   19SOL    HW2   75  -0.020   1.298   1.053  2.7638  0.9566 -2.5365
   19SOL     MW   76   0.055   1.260   1.024  0.7112 -0.4941 -0.1863
   20SOL     OW   77   0.488   2.183   1.292  0.2303  0.6212  0.3900
   20SOL    HW1   78   0.438   2.127   1.230  0.5505 -1.0990  1.8466
   20SOL    HW2   79   0.415   2.214   1.347 -0.4545  0.7534 -0.5015
   20SOL     MW   80   0.472   2.180   1.291  0.1822  0.4117  0.4645
   21SOL     OW   81   0.567   0.890   0.367 -0.4343  0.4121 -0.0428
   21SOL    HW1   82   0.626   0.825   0.397  1.2611 -0.2338 -0.7350
   21SOL    HW2   83   0.551   0.861   0.271  0.5614 -0.0386 -1.7368
   21SOL     MW   84   0.572   0.877   0.358 -0.0792  0.2674 -0.3577
   22SOL     OW   85   1.599   0.622   1.159 -0.1101 -0.3834  0.2108
   22SOL    HW1   86   1.652   0.589   1.083 -0.7318  0.7527  1.2294
   22SOL    HW2   87   1.522   0.671   1.119 -1.0425  0.5094 -0.6950
   22SOL     MW   88   1.596   0.624   1.144 -0.3152 -0.1157  0.2257
   23SOL     OW   89   3.076   0.708   0.680 -0.2714  0.1274  0.6507
   23SOL    HW1   90   3.125   0.633   0.702 -0.5019  1.3068  2.6610
   23SOL    HW2   91   3.144   0.776   0.668 -4.0779 -1.0581  2.8581
   23SOL     MW   92   3.091   0.707   0.682 -0.8041  0.1266  1.2072
   24SOL     OW   93   2.079   2.229   3.083  0.5213  0.2887  0.4726
   24SOL    HW1   94   2.048   2.212   3.171 -0.5917  0.7380 -0.6438
   24SOL    HW2   95   2.096   2.137   3.052  1.3760 -2.1147  0.3267
   24SOL     MW   96   2.077   2.214   3.090  0.4872  0.0309  0.3061
   25SOL     OW   97   0.175   1.475   0.576  0.4534 -0.5021  0.3248
   25SOL    HW1   98   0.103   1.502   0.522  1.7327 -0.0984  1.1843
   25SOL    HW2   99   0.253   1.502   0.533 -3.3472  0.6573  0.9845
   25SOL     MW  100   0.176   1.482   0.563  0.1208 -0.2959  0.5253
   26SOL     OW  101   1.989   1.023   0.397  0.4881 -0.0969  0.3948
   26SOL    HW1  102   1.892   1.033   0.411  1.4724 -0.1817  0.0238
   26SOL    HW2  103   2.013   1.080   0.317  2.0195 -0.7852 -1.8746
   26SOL     MW  104   1.979   1.032   0.388  0.8200 -0.1989  0.0464
   27SOL     OW  105   2.008   1.433   0.231 -0.2803  0.8327 -0.1970
   27SOL    HW1  106   1.931   1.381   0.249 -0.6022  0.3773 -1.4642
   27SOL    HW2  107   2.038   1.455   0.322 -0.4895  1.8786  0.8366
   27SOL     MW  108   2.002   1.429   0.245 -0.3503  0.9106 -0.2278
   28SOL     OW  109   0.313   0.964   1.922  0.7215  0.0474  0.0562
   28SOL    HW1  110   0.252   0.905   1.957 -0.5788 -1.3504  1.9082
   28SOL    HW2  111   0.354   0.916   1.850  0.0576 -0.5602  1.1584
   28SOL     MW  112   0.310   0.950   1.917  0.4623 -0.2172  0.4460
   29SOL     OW  113   0.253   1.428   0.906 -0.5219  0.1243 -0.0087
   29SOL    HW1  114   0.250   1.529   0.908 -2.7975 -1.2179  0.9275
   29SOL    HW2  115   0.236   1.406   0.816  0.8250 -0.1630  3.0812
   29SOL     MW  116   0.250   1.438   0.894 -0.6444 -0.0907  0.5225
   30SOL     OW  117   0.905   1.019   1.144  0.3245 -0.4362 -0.2278
   30SOL    HW1  118   0.830   1.031   1.200  1.8978 -1.2448  0.7785
   30SOL    HW2  119   0.977   1.017   1.209 -2.5608  2.2987  1.8024
   30SOL     MW  120   0.904   1.020   1.160  0.1514 -0.1821  0.1728
   31SOL     OW  121   0.500   0.249   0.164 -0.3525 -0.0447  0.7648
   31SOL    HW1  122   0.486   0.177   0.227  3.0962  1.2532  1.4090
   31SOL    HW2  123   0.474   0.194   0.083 -0.5643 -1.5193 -0.0565
   31SOL     MW  124   0.495   0.232   0.161  0.0746 -0.0680  0.7414
   32SOL     OW  125   2.696   1.031   1.151 -0.2786 -0.1936 -0.6898
   32SOL    HW1  126   2.640   0.952   1.150  0.6809  1.4856  1.7087
   32SOL    HW2  127   2.786   1.005   1.117  0.5375  0.6071 -3.7103
   32SOL     MW  128   2.700   1.017   1.146 -0.0444  0.1336 -0.7719
   33SOL     OW  129   1.789   1.281   0.331  0.1951  0.2393  0.3001
   33SOL    HW1  130   1.765   1.191   0.362 -1.0282 -1.3304  2.2393
   33SOL    HW2  131   1.746   1.338   0.398  0.2335 -0.5652 -3.0302
   33SOL     MW  132   1.780   1.277   0.344  0.0388 -0.0739  0.1166
   34SOL     OW  133   1.278   1.849   1.108  0.0704 -0.1636  0.2850
   34SOL    HW1  134   1.200   1.900   1.127 -1.9343 -1.9196  3.1573
   34SOL    HW2  135   1.340   1.875   1.173 -1.3232  2.8956  0.2289
   34SOL     MW  136   1.276   1.859   1.119 -0.3780  0.0083  0.6566
   35SOL     OW  137   0.361   0.073   1.876  0.1179 -0.2563 -0.2544
   35SOL    HW1  138   0.385   0.021   1.958 -0.8538 -1.1033  2.5855
   35SOL    HW2  139   0.391   0.028   1.796 -0.1764  0.7373  1.6757
   35SOL     MW  140   0.368   0.060   1.876 -0.0491 -0.2369  0.3749
   36SOL     OW  141   1.831   1.914   0.479  0.3279 -0.3890  0.5500
   36SOL    HW1  142   1.874   1.886   0.394  0.0917 -0.2626  1.4302
   36SOL    HW2  143   1.817   1.827   0.515  3.2961  1.0157 -1.9211
   36SOL     MW  144   1.834   1.899   0.473  0.6883 -0.1870  0.3401
   37SOL     OW  145   1.822   1.985   0.948 -0.1539  0.2402 -0.0899
   37SOL    HW1  146   1.756   1.931   0.921  1.4449 -0.9842  2.4663
   37SOL    HW2  147   1.771   2.039   1.018 -2.0301  0.0078  0.9390
   37SOL     MW  148   1.807   1.985   0.954 -0.1905  0.0480  0.3832
   38SOL     OW  149   2.825   0.921   0.247  0.4169  0.0544 -0.6221
   38SOL    HW1  150   2.868   0.949   0.323  0.0745 -1.2891 -2.8659
   38SOL    HW2  151   2.888   0.861   0.201 -1.7899 -0.8804 -1.7887
   38SOL     MW  152   2.839   0.917   0.251  0.0806 -0.2462 -1.0721
   39SOL     OW  153   1.455   0.659   0.788  0.3051  0.5286  0.0722
   39SOL    HW1  154   1.415   0.580   0.813 -0.7522  0.3386  0.4458
   39SOL    HW2  155   1.385   0.715   0.817 -0.2507 -0.8303  1.1818
   39SOL     MW  156   1.440   0.656   0.796  0.0923  0.3242  0.2679
   40SOL     OW  157   1.295   1.902   0.236  0.0049 -0.2553  0.1308
   40SOL    HW1  158   1.280   1.827   0.296  0.8105  1.6026 -0.0324
   40SOL    HW2  159   1.309   1.968   0.302  0.3172  0.2147 -0.7438
   40SOL     MW  160   1.295   1.901   0.252  0.1524  0.0518 -0.0061
   41SOL     OW  161   0.599   0.547   1.553  0.4391 -0.6553 -0.1944
   41SOL    HW1  162   0.676   0.613   1.566  2.0069  1.5286  1.7147
   41SOL    HW2  163   0.607   0.496   1.630 -0.8447 -0.5559 -2.1936
   41SOL     MW  164   0.610   0.549   1.565  0.4766 -0.3540 -0.2063
   42SOL     OW  165   1.400   3.054   1.986 -0.0285  0.1439 -0.5948
   42SOL    HW1  166   1.320   3.037   2.025  1.8808  2.6498 -0.9674
   42SOL    HW2  167   1.438   2.965   1.994 -0.3326  1.7986  1.9499
   42SOL     MW  168   1.395   3.040   1.992  0.1833  0.6928 -0.3082
   43SOL     OW  169   1.574   0.159   1.578  0.1888  0.2711 -0.2901
   43SOL    HW1  170   1.613   0.104   1.515 -0.1892  0.7922  1.0007
   43SOL    HW2  171   1.499   0.105   1.621  0.2052 -4.1203  1.5711
   43SOL     MW  172   1.569   0.145   1.576  0.1411 -0.2395  0.1258
   44SOL     OW  173   1.329   0.736   1.084 -0.3031 -0.2164  0.0085
   44SOL    HW1  174   1.343   0.831   1.077  0.3319 -0.0211 -1.6076
   44SOL    HW2  175   1.347   0.700   1.172 -0.2440  1.6076  1.3752
   44SOL     MW  176   1.333   0.744   1.095 -0.2115  0.0500 -0.0245
   45SOL     OW  177   1.011   0.822   0.796  0.2911 -0.5171 -0.2301
   45SOL    HW1  178   1.019   0.752   0.863 -0.4475 -0.4048 -0.3118
   45SOL    HW2  179   0.946   0.794   0.728  2.1762  0.1225  3.4011
   45SOL     MW  180   1.003   0.809   0.796  0.4424 -0.4179  0.2382
   46SOL     OW  181   0.625   1.130   0.601 -0.5125  0.2708  0.1599
   46SOL    HW1  182   0.628   1.146   0.503 -0.2794 -0.9611  1.3527
   46SOL    HW2  183   0.704   1.080   0.618 -1.2351  1.7030 -0.8992
   46SOL     MW  184   0.636   1.126   0.590 -0.5771  0.2972  0.1776
   47SOL     OW  185   0.087   1.844   1.810  0.7426  0.5017  0.2496
   47SOL    HW1  186   0.172   1.804   1.790  2.3198  1.1749  0.8655
   47SOL    HW2  187   0.104   1.858   1.904 -0.6811  0.3045 -0.5737
   47SOL     MW  188   0.100   1.841   1.819  0.7628  0.5645  0.2222
   48SOL     OW  189   1.046   0.626   1.030 -0.1041  0.3984  0.7647
   48SOL    HW1  190   0.981   0.648   1.100  0.1282 -0.2294 -0.0770
   48SOL    HW2  191   1.128   0.678   1.063  1.2258 -2.7035  1.6774
   48SOL     MW  192   1.048   0.635   1.044  0.1021 -0.0937  0.7741
   49SOL     OW  193   1.868   0.749   1.589 -0.2952  0.0605 -0.1563
   49SOL    HW1  194   1.811   0.725   1.661 -1.4847  1.8705  1.9463
   49SOL    HW2  195   1.923   0.674   1.577 -0.7451  1.2417  2.2200
   49SOL     MW  196   1.868   0.736   1.597 -0.5115  0.4551  0.4346
   50SOL     OW  197   1.271   1.020   0.585  0.0404 -0.2977  0.3271
   50SOL    HW1  198   1.256   1.057   0.670 -0.9033  0.0104 -3.5069
   50SOL    HW2  199   1.301   0.934   0.605 -0.9981 -3.4853  0.3436
   50SOL     MW  200   1.273   1.013   0.598 -0.2211 -0.6776 -0.1766
   51SOL     OW  201   0.291   2.893   0.882  0.3273 -0.4629  0.3384
   51SOL    HW1  202   0.373   2.839   0.883 -1.2952  0.5138  1.6173
   51SOL    HW2  203   0.295   2.941   0.968 -0.6356 -0.2735  1.1921
   51SOL     MW  204   0.302   2.892   0.893 -0.0138 -0.3091  0.6197
   52SOL     OW  205   0.827   1.893   0.462 -0.1618  0.4299 -0.5370
   52SOL    HW1  206   0.773   1.940   0.526  0.4905 -0.0664 -1.1760
   52SOL    HW2  207   0.778   1.865   0.385 -1.8620 -1.8161 -0.6185
   52SOL     MW  208   0.814   1.895   0.460 -0.3000  0.0681 -0.6320
   53SOL     OW  209   0.382   2.031   0.617 -0.6778 -0.2986 -0.6179
   53SOL    HW1  210   0.330   2.031   0.539  1.9975 -0.6480  0.3227
   53SOL    HW2  211   0.411   2.131   0.624 -1.8014 -2.1865  0.0272
   53SOL     MW  212   0.379   2.044   0.608 -0.4730 -0.5938 -0.4087
   54SOL     OW  213   2.177   0.853   0.842  0.2374  0.1683 -0.4570
   54SOL    HW1  214   2.172   0.836   0.748  0.2934 -0.2853 -1.5552
   54SOL    HW2  215   2.084   0.847   0.867 -0.4627 -0.3110 -0.0555
   54SOL     MW  216   2.164   0.850   0.833  0.1524  0.0452 -0.5489
   55SOL     OW  217   0.522   1.441   1.542 -0.2713 -0.2973  0.3606
   55SOL    HW1  218   0.511   1.472   1.450 -0.4816 -1.2397 -0.5850
   55SOL    HW2  219   0.615   1.402   1.535  1.2190 -1.0460  0.7184
   55SOL     MW  220   0.532   1.440   1.529 -0.1024 -0.5204  0.2830
   56SOL     OW  221   0.477   0.810   0.118 -0.1707  0.1762  0.0114
   56SOL    HW1  222   0.497   0.849   0.038  0.1864 -1.8083 -0.6632
   56SOL    HW2  223   0.380   0.807   0.118 -0.3805  0.3400  1.1668
   56SOL     MW  224   0.467   0.815   0.107 -0.1513 -0.0640  0.0748
   57SOL     OW  225   1.261   1.219   1.163  0.0437 -0.0887 -0.2514
   57SOL    HW1  226   1.352   1.227   1.193 -1.3108  0.7563  0.7247
   57SOL    HW2  227   1.214   1.154   1.221  0.6964  0.3070 -1.2320
   57SOL     MW  228   1.267   1.211   1.175 -0.0489  0.0750 -0.2520
   58SOL     OW  229   0.662   1.075   1.275  0.4050 -0.1574 -0.1813
   58SOL    HW1  230   0.584   1.134   1.252  0.9649  0.5981 -0.7989
   58SOL    HW2  231   0.637   1.029   1.356 -0.2157  1.3549  0.6141
   58SOL     MW  232   0.648   1.077   1.283  0.3970  0.1418 -0.1579
   59SOL     OW  233   1.569   1.587   0.303 -0.0132 -0.1983 -0.4242
   59SOL    HW1  234   1.633   1.550   0.355 -0.5395 -0.3550 -1.2530
   59SOL    HW2  235   1.534   1.647   0.364 -0.8842 -0.7501 -1.6462
   59SOL     MW  236   1.573   1.590   0.318 -0.1975 -0.2918 -0.6948
   60SOL     OW  237   0.035   0.151   1.716 -0.4613  0.4043  0.2814
   60SOL    HW1  238  -0.048   0.199   1.709 -1.6588 -0.9984 -1.6966
   60SOL    HW2  239   0.016   0.057   1.714  0.8430 -2.0128 -0.7392
   60SOL     MW  240   0.022   0.145   1.715 -0.4472 -0.0997 -0.1142
   61SOL     OW  241   2.011   1.478   3.065 -0.1091 -0.0453  0.6518
   61SOL    HW1  242   1.997   1.445   3.154  1.4459  0.9911 -1.9824
   61SOL    HW2  243   2.045   1.408   3.016 -2.3112 -2.1654  0.0949
   61SOL     MW  244   2.014   1.464   3.070 -0.1944 -0.1883  0.2308
   62SOL     OW  245   0.588   1.621   0.566  0.1248  0.3274  0.7765
   62SOL    HW1  246   0.659   1.608   0.496  0.5212 -2.3384  0.9895
   62SOL    HW2  247   0.573   1.535   0.618 -0.9229 -1.2832 -0.3081
   62SOL     MW  248   0.595   1.608   0.563  0.0389 -0.2369  0.6615
   63SOL     OW  249   1.717   0.777   0.739  0.1675 -0.4310 -0.2978
   63SOL    HW1  250   1.713   0.792   0.646 -1.8557 -0.0101 -0.1212
   63SOL    HW2  251   1.638   0.745   0.778  1.7915  2.3850  0.9921
   63SOL     MW  252   1.706   0.775   0.732  0.1148 -0.0039 -0.1043
   64SOL     OW  253   0.278   1.687   0.954  0.8278  0.2994 -0.1243
   64SOL    HW1  254   0.344   1.741   0.905  1.7315  1.6876 -1.3411
   64SOL    HW2  255   0.189   1.724   0.940 -1.1976  0.8316  3.9643
   64SOL     MW  256   0.275   1.699   0.946  0.6798  0.5528  0.2546
   65SOL     OW  257   1.544   2.225   0.332 -1.0763 -0.5164  0.2073
   65SOL    HW1  258   1.614   2.209   0.265  3.9708 -2.4411  0.6495
   65SOL    HW2  259   1.571   2.303   0.380 -1.6068 -3.5583 -1.8317
   65SOL     MW  260   1.557   2.234   0.330 -0.4804 -1.1717 -0.0034
   66SOL     OW  261   0.285   0.607   0.545 -0.2827 -0.3967 -0.4264
   66SOL    HW1  262   0.354   0.576   0.490 -1.2771  2.8005  1.3497
   66SOL    HW2  263   0.265   0.698   0.517  2.5340 -1.4742  0.5441
   66SOL     MW  264   0.291   0.615   0.534 -0.0423 -0.1171 -0.0640
   67SOL     OW  265   1.546   0.215   2.008  0.4871 -0.0924  0.0756
   67SOL    HW1  266   1.580   0.259   1.933 -0.8833  0.7327 -1.8905
   67SOL    HW2  267   1.545   0.125   1.983  2.5216  0.8698 -1.8079
   67SOL     MW  268   1.550   0.209   1.995  0.5747  0.1434 -0.4323
   68SOL     OW  269   0.732   0.052   2.967 -0.3100  0.0070 -0.6945
   68SOL    HW1  270   0.742   0.049   2.867 -3.2904 -0.8262 -2.7071
   68SOL    HW2  271   0.731   0.146   2.980 -3.2400  1.0811  1.0382
   68SOL     MW  272   0.733   0.064   2.956 -1.0898  0.0388 -0.7314
   69SOL     OW  273   1.027   0.160   1.954 -0.1526 -0.4278 -0.0230
   69SOL    HW1  274   1.106   0.209   1.986 -3.6266  0.5332  1.3637
   69SOL    HW2  275   1.040   0.063   1.957 -0.3991 -0.8996 -1.8165
   69SOL     MW  276   1.039   0.154   1.958 -0.6435 -0.3632 -0.0767
   70SOL     OW  277   0.593   1.813   1.158  0.0879 -0.5705  0.1249
   70SOL    HW1  278   0.592   1.718   1.173 -0.0969  0.0606 -0.4091
   70SOL    HW2  279   0.688   1.832   1.124 -0.3230 -1.0762  0.7259
   70SOL     MW  280   0.606   1.803   1.155  0.0093 -0.5539  0.1337
   71SOL     OW  281   1.807   0.672   1.318 -0.7334  0.7643 -0.2129
   71SOL    HW1  282   1.808   0.709   1.407 -0.5400  1.1516  1.3333
   71SOL    HW2  283   1.718   0.648   1.301 -0.0729  0.3303 -0.4995
   71SOL     MW  284   1.795   0.674   1.328 -0.6207  0.7581 -0.0467
   72SOL     OW  285   0.824   1.824   1.028  0.2196 -0.2565  0.5859
   72SOL    HW1  286   0.824   1.875   0.948 -0.9901  2.3239  0.7800
   72SOL    HW2  287   0.842   1.730   1.007 -1.0013  1.9952  0.1241
   72SOL     MW  288   0.826   1.818   1.015 -0.1011  0.3810  0.5506
   73SOL     OW  289   1.336   0.624   1.323 -0.0780  0.7621  0.0861
   73SOL    HW1  290   1.300   0.535   1.307  1.0055  0.1567  1.3852
   73SOL    HW2  291   1.262   0.676   1.359  0.1972  0.4540 -0.2146
   73SOL     MW  292   1.321   0.619   1.325  0.1013  0.6416  0.2178
   74SOL     OW  293   2.792   0.100   1.023  0.0728  0.2592 -0.1156
   74SOL    HW1  294   2.726   0.073   0.958 -2.4749 -0.7495 -0.8491
   74SOL    HW2  295   2.858   0.148   0.979 -2.0542  0.7059 -1.0699
   74SOL     MW  296   2.792   0.103   1.009 -0.5440  0.1851 -0.3383
   75SOL     OW  297   1.658   1.279   0.100  0.1384 -0.4622  0.0503
   75SOL    HW1  298   1.707   1.273   0.190 -1.2479 -0.6033  0.3838
   75SOL    HW2  299   1.669   1.187   0.057 -1.1472 -0.9769  2.3942
   75SOL     MW  300   1.666   1.266   0.107 -0.2141 -0.5487  0.4036
   76SOL     OW  301   2.933   0.630   0.464 -0.1478 -0.0347  0.0695
   76SOL    HW1  302   2.985   0.660   0.547 -0.7312  2.3111 -0.7153
   76SOL    HW2  303   2.999   0.595   0.399  0.8219  2.0629 -0.2568
   76SOL     MW  304   2.949   0.629   0.466 -0.0968  0.5515 -0.0771
   77SOL     OW  305   0.924   0.475   0.522 -0.1924 -0.5397  0.2672
   77SOL    HW1  306   0.866   0.552   0.512 -0.6919 -1.6311  0.4269
   77SOL    HW2  307   0.849   0.416   0.535 -0.9596 -0.3110 -0.5782
   77SOL     MW  308   0.906   0.478   0.523 -0.3595 -0.6535  0.1767
   78SOL     OW  309   0.889   0.744   1.208 -0.6501 -0.0194  0.0858
   78SOL    HW1  310   0.809   0.721   1.247 -0.3199  1.5338 -1.3179
   78SOL    HW2  311   0.886   0.836   1.175  2.5984  0.2319  0.4377
   78SOL     MW  312   0.878   0.753   1.209 -0.1779  0.2187 -0.0530
   79SOL     OW  313   1.850   1.653   0.596 -0.4207  0.3597  0.4936
   79SOL    HW1  314   1.767   1.606   0.581  0.5640  0.1626 -2.1425
   79SOL    HW2  315   1.880   1.636   0.689 -2.9109 -0.6047  3.3752
   79SOL     MW  316   1.843   1.645   0.606 -0.6194  0.2064  0.5260
   80SOL     OW  317   0.157   1.064   0.274 -0.2508 -0.4464 -0.6670
   80SOL    HW1  318   0.094   1.005   0.315 -1.6756 -0.6303  1.5781
   80SOL    HW2  319   0.242   1.026   0.289  1.1395 -0.0102  3.2182
   80SOL     MW  320   0.160   1.052   0.281 -0.2554 -0.4131  0.1418
   81SOL     OW  321   1.913   1.907   0.215  0.3180  0.2725  0.2370
   81SOL    HW1  322   1.878   1.821   0.183  1.5972  0.7978 -0.7727
   81SOL    HW2  323   1.852   1.974   0.193 -1.4479  1.2230 -0.5450
   81SOL     MW  324   1.900   1.905   0.208  0.2538  0.4672  0.0006
   82SOL     OW  325   0.867   0.880   0.548 -0.2568  0.8947  0.2776
   82SOL    HW1  326   0.939   0.899   0.486  1.5937  1.2098  0.7583
   82SOL    HW2  327   0.818   0.814   0.495 -0.5878  0.6560 -1.9047
   82SOL     MW  328   0.870   0.873   0.533 -0.0564  0.9048  0.0531
   83SOL     OW  329   0.071   0.588   1.367  0.2018  0.8742  0.3552
   83SOL    HW1  330   0.091   0.664   1.315  0.6370 -1.6946  0.8446
   83SOL    HW2  331   0.153   0.583   1.409  1.7446 -0.9343 -0.2467
   83SOL     MW  332   0.084   0.597   1.366  0.4627  0.2966  0.3404
   84SOL     OW  333   0.044   0.285   1.068 -0.4146  0.4373 -0.0998
   84SOL    HW1  334   0.014   0.279   0.976 -1.6360  0.0780  1.1248
   84SOL    HW2  335   0.064   0.192   1.091  1.9153 -0.0938 -0.6311
   84SOL     MW  336   0.043   0.272   1.059 -0.2683  0.3198 -0.0083
   85SOL     OW  337   0.467   0.400   0.722 -0.3818  0.3072 -0.0335
   85SOL    HW1  338   0.420   0.474   0.676  1.4942 -0.4540  0.1824
   85SOL    HW2  339   0.401   0.333   0.742 -1.6266 -2.1802  1.7622
   85SOL     MW  340   0.452   0.401   0.718 -0.2985 -0.1214  0.2319
   86SOL     OW  341   1.139   0.435   1.203  0.4569 -0.6722  0.0004
   86SOL    HW1  342   1.086   0.487   1.135 -0.8507 -1.0936 -1.5934
   86SOL    HW2  343   1.088   0.456   1.285 -2.7634 -0.2875 -1.6923
   86SOL     MW  344   1.125   0.445   1.205 -0.1405 -0.6770 -0.4332
   87SOL     OW  345   1.263   1.417   1.362  0.1482 -0.4438  0.0285
   87SOL    HW1  346   1.299   1.450   1.278  0.3208 -1.4575  0.7671
   87SOL    HW2  347   1.223   1.335   1.334  2.7555  0.0367 -0.5419
   87SOL     MW  348   1.263   1.411   1.347  0.5149 -0.5141  0.0507
   88SOL     OW  349   1.357   1.024   1.012  0.4468  0.2503  0.3507
   88SOL    HW1  350   1.447   1.017   1.032  1.1278  0.0157  1.9659
   88SOL    HW2  351   1.328   1.085   1.075 -2.1827 -0.9451 -2.6958
   88SOL     MW  352   1.365   1.031   1.023  0.1897  0.0617  0.1619
   89SOL     OW  353   1.823   0.557   0.297 -0.0516  0.1897 -0.3667
   89SOL    HW1  354   1.880   0.490   0.337 -1.0801  0.1307 -0.5152
   89SOL    HW2  355   1.879   0.598   0.226  0.4445 -2.1085 -2.2934
   89SOL     MW  356   1.838   0.554   0.293 -0.1219 -0.1213 -0.6405
   90SOL     OW  357   0.766   1.239   2.837 -0.5316 -0.2522 -0.2439
   90SOL    HW1  358   0.809   1.168   2.886  0.7695  1.8569  1.5998
   90SOL    HW2  359   0.785   1.324   2.877 -1.4635  3.4698  1.3226
   90SOL     MW  360   0.774   1.241   2.849 -0.4829  0.5171  0.2060
   91SOL     OW  361   1.963   0.759   0.473  0.2634 -0.6723  0.0373
   91SOL    HW1  362   1.960   0.850   0.427 -1.4645 -1.1752  0.5735
   91SOL    HW2  363   1.922   0.699   0.404  0.1629  0.3201 -1.6944
   91SOL     MW  364   1.957   0.763   0.458  0.0222 -0.6077 -0.1204
   92SOL     OW  365   1.657   0.753   0.465  0.4556 -0.1438  0.2041
   92SOL    HW1  366   1.563   0.733   0.476 -0.5296 -0.1574  0.7393
   92SOL    HW2  367   1.698   0.675   0.423 -0.4459 -4.0847  0.4088
   92SOL     MW  368   1.650   0.740   0.461  0.2067 -0.6656  0.3017
   93SOL     OW  369   0.995   0.215   0.395  0.3575 -0.7259 -0.1579
   93SOL    HW1  370   0.985   0.306   0.421  0.9732 -0.1826  2.1065
   93SOL    HW2  371   0.950   0.198   0.314 -0.1230  1.3929  0.5550
   93SOL     MW  372   0.988   0.224   0.388  0.3753 -0.3746  0.2349
   94SOL     OW  373   1.966   1.287   1.698  0.1405 -0.2520  0.0450
   94SOL    HW1  374   1.940   1.317   1.613 -1.4209 -1.9741  0.1861
   94SOL    HW2  375   1.933   1.202   1.695 -0.8635 -1.0568  0.3675
   94SOL     MW  376   1.958   1.280   1.686 -0.1980 -0.5854  0.1062
   95SOL     OW  377   0.915   1.573   1.011 -0.2878 -0.1437 -0.0841
   95SOL    HW1  378   0.928   1.480   1.020  0.5463  1.8297 -0.3999
   95SOL    HW2  379   0.990   1.610   1.062  1.0723  0.7821  3.0347
   95SOL     MW  380   0.927   1.566   1.019  0.0017  0.2388  0.2857
   96SOL     OW  381   1.263   1.787   1.700 -1.0291 -0.3134 -0.2675
   96SOL    HW1  382   1.172   1.776   1.742 -2.8787 -0.3382 -1.9278
   96SOL    HW2  383   1.273   1.708   1.644 -1.4529  0.2027  0.3865
   96SOL     MW  384   1.252   1.775   1.698 -1.3291 -0.2485 -0.4003
   97SOL     OW  385   1.222   1.448   0.861  0.8635 -0.1895 -0.3409
   97SOL    HW1  386   1.234   1.491   0.943  0.9899 -1.6861 -0.4105
   97SOL    HW2  387   1.136   1.482   0.819 -0.8986  2.5351 -0.6747
   97SOL     MW  388   1.212   1.458   0.866  0.6477 -0.0274 -0.3941
   98SOL     OW  389   1.538   1.284   1.161 -0.1373  0.1601 -0.1190
   98SOL    HW1  390   1.566   1.362   1.214 -0.4180  1.1717 -1.6654
   98SOL    HW2  391   1.575   1.295   1.073  0.6564 -1.9056 -0.4004
   98SOL     MW  392   1.547   1.296   1.156 -0.0696  0.0210 -0.3602
   99SOL     OW  393   1.450   0.386   1.207  0.6199 -0.1763  0.3875
   99SOL    HW1  394   1.504   0.458   1.173  0.7334  2.6999 -1.1854
   99SOL    HW2  395   1.476   0.392   1.301  0.6909  0.2048 -0.6405
   99SOL     MW  396   1.461   0.396   1.215  0.6442  0.2535  0.0443
  100SOL     OW  397   1.107   1.060   1.342  0.7623  0.1899 -0.4568
  100SOL    HW1  398   1.034   1.068   1.412  0.2284 -1.9570 -1.5923
  100SOL    HW2  399   1.183   1.047   1.395  2.2152  2.1711  0.2693
  100SOL     MW  400   1.108   1.059   1.358  0.8835  0.1681 -0.5108
  101SOL     OW  401   0.652   1.164   0.330 -0.2425  0.2856 -0.4875
  101SOL    HW1  402   0.650   1.062   0.319  0.2760  0.3402 -1.5764
  101SOL    HW2  403   0.672   1.197   0.243  0.7599 -0.5680  0.3764
  101SOL     MW  404   0.654   1.155   0.317 -0.0419  0.1802 -0.5172
  102SOL     OW  405   2.921   0.631   0.917  0.3877 -0.5931 -0.3344
  102SOL    HW1  406   3.002   0.679   0.888  1.3770 -1.3004 -1.2439
  102SOL    HW2  407   2.943   0.594   1.000 -0.8171 -1.8285 -2.1498
  102SOL     MW  408   2.934   0.632   0.924  0.3593 -0.8494 -0.6939
  103SOL     OW  409   1.665   0.348   1.765 -1.0224 -0.1746 -0.0620
  103SOL    HW1  410   1.639   0.269   1.721 -3.6642 -0.1638  2.3762
  103SOL    HW2  411   1.752   0.329   1.817  1.6129  1.1831  1.2565
  103SOL     MW  412   1.673   0.335   1.766 -1.0233  0.0059  0.4337
  104SOL     OW  413   0.095   1.826   1.499  0.3314  0.3507  0.2703
  104SOL    HW1  414   0.175   1.789   1.467 -3.0429 -0.5663  0.2801
  104SOL    HW2  415   0.074   1.797   1.592 -1.7353  1.0094  3.7733
  104SOL     MW  416   0.103   1.817   1.507 -0.3865  0.3166  0.7338
  105SOL     OW  417   0.144   1.179   0.545  0.3069 -0.6242 -0.0086
  105SOL    HW1  418   0.166   1.145   0.460  4.4384 -3.0702  0.8243
  105SOL    HW2  419   0.183   1.264   0.557 -2.3618 -1.4738 -0.0751
  105SOL     MW  420   0.152   1.186   0.536  0.4999 -1.0590  0.0925
  106SOL     OW  421   0.844   0.328   0.927  0.5245  0.4955  0.5300
  106SOL    HW1  422   0.803   0.419   0.911 -1.8074  2.1467  1.3521
  106SOL    HW2  423   0.919   0.324   0.875 -2.3079  0.0200  0.3354
  106SOL     MW  424   0.848   0.340   0.918 -0.1568  0.6506  0.6128
  107SOL     OW  425   0.787   2.202   3.070 -0.2387  0.1784 -0.1677
  107SOL    HW1  426   0.743   2.130   3.030 -0.2554  3.4717  0.9906
  107SOL    HW2  427   0.866   2.166   3.112  0.4997 -1.5386  0.3374
  107SOL     MW  428   0.792   2.188   3.070 -0.1435  0.3863  0.0518
  108SOL     OW  429   1.395   1.592   1.562  0.5219  0.4254 -0.4837
  108SOL    HW1  430   1.365   1.517   1.516 -1.8953 -2.9072 -0.0193
  108SOL    HW2  431   1.449   1.561   1.631 -1.0066  0.5823  0.3852
  108SOL     MW  432   1.398   1.578   1.565  0.0013  0.0064 -0.3078
  109SOL     OW  433   1.965   0.770   0.173 -0.3231 -0.2789 -0.0671
  109SOL    HW1  434   1.958   0.732   0.083 -0.3277  2.0491  0.9228
  109SOL    HW2  435   2.059   0.771   0.188  0.0832  0.7667 -2.6101
  109SOL     MW  436   1.976   0.765   0.163 -0.2701  0.1662 -0.2720
  110SOL     OW  437   0.439   1.781   0.742 -0.2117 -0.5908  0.2505
  110SOL    HW1  438   0.507   1.730   0.687 -1.4235  0.0513 -2.0545
  110SOL    HW2  439   0.420   1.862   0.693 -3.9258 -0.1265 -0.8830
  110SOL     MW  440   0.446   1.785   0.728 -0.8616 -0.4448 -0.2032
  111SOL     OW  441   0.689   0.924   1.492 -0.2941  0.2299  0.2871
  111SOL    HW1  442   0.756   0.848   1.503  1.3935 -0.3775 -2.6591
  111SOL    HW2  443   0.617   0.899   1.548  0.2000  1.4719  0.9289
  111SOL     MW  444   0.688   0.910   1.501 -0.0062  0.3136 -0.0169
  112SOL     OW  445   1.297   1.144   1.598 -0.1689 -0.1472  0.1541
  112SOL    HW1  446   1.249   1.228   1.634 -0.5613  1.1294 -1.2325
  112SOL    HW2  447   1.263   1.069   1.646  2.1617  0.4651  0.1391
  112SOL     MW  448   1.286   1.145   1.609  0.0868  0.1020 -0.0308
  113SOL     OW  449   1.366   0.048   1.706  0.1873  0.3584  0.2059
  113SOL    HW1  450   1.366   0.007   1.792 -1.0537 -0.2319  0.2102
  113SOL    HW2  451   1.347  -0.010   1.638 -2.4061 -1.4512  1.0547
  113SOL     MW  452   1.363   0.035   1.709 -0.3186  0.0418  0.3184
  114SOL     OW  453   0.451   2.816   1.838 -0.0917  0.2203  0.0041
  114SOL    HW1  454   0.461   2.880   1.910  2.2585  2.7981 -0.4681
  114SOL    HW2  455   0.454   2.877   1.762  3.3904  0.7995 -0.9534
  114SOL     MW  456   0.452   2.832   1.838  0.6778  0.6368 -0.1845
  115SOL     OW  457   0.375   0.850   1.056  0.1047  0.0622  0.1803
  115SOL    HW1  458   0.429   0.772   1.068  1.8665  0.0257 -1.0322
  115SOL    HW2  459   0.354   0.883   1.147  1.3862  0.4387 -1.0374
  115SOL     MW  460   0.379   0.844   1.069  0.5062  0.1071 -0.1403
  116SOL     OW  461   0.769   0.954   0.910 -0.3475  0.0411 -0.0024
  116SOL    HW1  462   0.826   0.999   0.845 -0.4950 -1.2084 -0.1606
  116SOL    HW2  463   0.811   0.997   0.989  2.1917  2.0573  0.0196
  116SOL     MW  464   0.782   0.966   0.912 -0.0320  0.1423 -0.0204
  117SOL     OW  465   1.215   1.186   0.796 -0.4795  0.0217  0.1582
  117SOL    HW1  466   1.253   1.133   0.869  1.6839 -1.2403  0.9853
  117SOL    HW2  467   1.218   1.270   0.841  2.6683 -0.2394  1.6883
  117SOL     MW  468   1.220   1.190   0.812  0.2212 -0.1793  0.4692
  118SOL     OW  469   0.004   2.966   1.736 -0.2682  0.0409 -0.0589
  118SOL    HW1  470   0.020   2.987   1.828 -1.1760 -1.2286  2.1118
  118SOL    HW2  471  -0.088   2.988   1.720  1.2327 -2.8948 -0.9821
  118SOL     MW  472  -0.006   2.972   1.746 -0.1899 -0.5139  0.1057
  119SOL     OW  473   0.481   1.296   1.239  0.3534  0.3577  0.0291
  119SOL    HW1  474   0.484   1.323   1.145 -0.1497  1.4675  0.4019
  119SOL    HW2  475   0.380   1.279   1.254 -0.9692 -0.9268  1.4296
  119SOL     MW  476   0.468   1.298   1.229  0.1125  0.3346  0.2630
  120SOL     OW  477   0.176   0.597   0.957  0.1694 -0.2211  0.0236
  120SOL    HW1  478   0.192   0.538   1.028 -2.5258  2.6454 -0.3916
  120SOL    HW2  479   0.233   0.669   0.971 -2.9074  0.1780 -1.3645
  120SOL     MW  480   0.186   0.599   0.968 -0.5922  0.2097 -0.2143
  121SOL     OW  481   1.808   1.044   1.769  0.0544  0.1169 -0.4199
  121SOL    HW1  482   1.728   1.050   1.708 -0.6933  1.7818 -3.4480
  121SOL    HW2  483   1.808   0.948   1.798  1.3716 -0.3222  0.9272
  121SOL     MW  484   1.797   1.032   1.764  0.1296  0.2786 -0.6417
  122SOL     OW  485   0.104   0.479   0.717 -0.5423  0.0307  0.0216
  122SOL    HW1  486   0.164   0.492   0.639 -2.3795 -1.0557 -1.0189
  122SOL    HW2  487   0.155   0.522   0.790  0.2993  0.8902 -1.5710
  122SOL     MW  488   0.119   0.486   0.716 -0.6737  0.0007 -0.3258
  123SOL     OW  489   1.728   1.035   0.476  0.0572 -0.2539  0.3280
  123SOL    HW1  490   1.698   0.947   0.461 -1.3195  1.0586  0.2784
  123SOL    HW2  491   1.759   1.055   0.565  0.9613 -0.9708 -1.4380
  123SOL     MW  492   1.728   1.026   0.486 -0.0052 -0.1753  0.0885
  124SOL     OW  493   0.644   0.535   0.873  0.4691  0.1862 -0.5383
  124SOL    HW1  494   0.581   0.488   0.820  1.5260 -2.0661 -0.5586
  124SOL    HW2  495   0.653   0.620   0.829 -0.9867 -1.1386 -1.2549
  124SOL     MW  496   0.637   0.540   0.860  0.4165 -0.2858 -0.6355
  125SOL     OW  497   0.623   1.644   1.683 -0.2140  0.1680 -0.5445
  125SOL    HW1  498   0.566   1.588   1.640 -0.6912  1.2475  0.0271
  125SOL    HW2  499   0.591   1.735   1.663  0.0897  1.9662  1.3393
  125SOL     MW  500   0.611   1.649   1.675 -0.2369  0.5477 -0.2205
  126SOL     OW  501   2.128   1.616   2.035 -0.2457  0.2308 -0.6776
  126SOL    HW1  502   2.173   1.697   2.028  1.6616 -1.2247 -0.0320
  126SOL    HW2  503   2.203   1.559   2.010  0.9385  0.3521 -1.8107
  126SOL     MW  504   2.144   1.619   2.031  0.1622  0.0548 -0.7419
  127SOL     OW  505   0.620   0.686   1.871 -0.6110  0.6345  0.2259
  127SOL    HW1  506   0.697   0.627   1.896  0.0990 -1.6610  1.2933
  127SOL    HW2  507   0.641   0.774   1.912  1.1505  0.1325  2.8647
  127SOL     MW  508   0.633   0.690   1.880 -0.2849  0.2654  0.7149
  128SOL     OW  509   1.714   0.733   2.827 -0.4119  0.3397  0.7858
  128SOL    HW1  510   1.780   0.715   2.754 -3.1103 -1.3444  1.8416
  128SOL    HW2  511   1.707   0.829   2.806  0.6486  0.3417  0.0538
  128SOL     MW  512   1.722   0.743   2.814 -0.6280  0.1177  0.8285
  129SOL     OW  513   1.586   0.859   0.206 -1.1504  0.6027  0.1119
  129SOL    HW1  514   1.497   0.864   0.216 -0.3117  1.0061  0.8838
  129SOL    HW2  515   1.623   0.804   0.278 -2.1863 -3.5013 -1.7618
  129SOL     MW  516   1.579   0.852   0.217 -1.1764  0.1145 -0.0335
  130SOL     OW  517   0.757   1.529   0.340  0.6227  0.0292 -0.3086
  130SOL    HW1  518   0.793   1.451   0.385 -0.8720  1.4501 -2.5258
  130SOL    HW2  519   0.839   1.570   0.303  0.1696  0.5547  2.9891
  130SOL     MW  520   0.772   1.524   0.341  0.3657  0.2860 -0.1660
  131SOL     OW  521   3.023   0.801   0.082  0.2798 -0.2565  0.0283
  131SOL    HW1  522   3.022   0.886   0.023  0.9735  1.2855 -1.6766
  131SOL    HW2  523   3.116   0.778   0.075 -0.4675 -0.4804  0.1649
  131SOL     MW  524   3.035   0.809   0.073  0.2728 -0.0826 -0.1786
  132SOL     OW  525   2.689   0.103   1.282 -0.0762 -0.3387 -0.1565
  132SOL    HW1  526   2.706   0.113   1.185  0.5558 -0.6910  0.1173
  132SOL    HW2  527   2.593   0.091   1.297  0.4088  0.5242  0.0841
  132SOL     MW  528   2.679   0.103   1.271  0.0712 -0.2713 -0.0887
  133SOL     OW  529   1.096   0.225   1.700  0.3540  0.0389 -0.1335
  133SOL    HW1  530   1.165   0.164   1.691  0.5045  1.3031  1.6062
  133SOL    HW2  531   1.062   0.204   1.786  2.7072 -1.5864  0.6717
  133SOL     MW  532   1.101   0.214   1.710  0.6844 -0.0087  0.2023
  134SOL     OW  533   1.390   2.506   1.458 -0.6354 -0.3921 -0.9739
  134SOL    HW1  534   1.324   2.569   1.446  1.9443 -0.9484 -1.2613
  134SOL    HW2  535   1.431   2.545   1.540  1.1739  1.3675 -1.9265
  134SOL     MW  536   1.387   2.520   1.467 -0.0563 -0.2334 -1.1375
  135SOL     OW  537   3.014   1.020   2.980  0.3027 -0.2809 -0.5404
  135SOL    HW1  538   3.072   1.084   2.943  0.4407 -0.2795 -1.3181
  135SOL    HW2  539   2.935   1.069   2.966  3.7383 -0.0911 -1.6878
  135SOL     MW  540   3.011   1.035   2.974  0.7742 -0.2557 -0.7944
  136SOL     OW  541   0.238   2.077   0.879  0.2029  0.0230 -0.6906
  136SOL    HW1  542   0.195   1.991   0.898 -0.7002  1.0121  0.4106
  136SOL    HW2  543   0.270   2.075   0.789 -2.4526 -2.1582  2.9027
  136SOL     MW  544   0.236   2.065   0.870 -0.2666 -0.1343 -0.0712
  137SOL     OW  545   0.666   2.082   0.606  0.3452  0.0908 -0.1635
  137SOL    HW1  546   0.699   2.054   0.688  0.4887  0.8020 -0.3311
  137SOL    HW2  547   0.579   2.034   0.607 -0.5140 -0.8022  2.3921
  137SOL     MW  548   0.659   2.072   0.617  0.2508  0.0668  0.1516
  138SOL     OW  549   0.491   0.604   1.103  0.8015  0.3381 -0.6009
  138SOL    HW1  550   0.427   0.535   1.114  1.3857  2.3669 -3.1210
  138SOL    HW2  551   0.553   0.569   1.040 -0.8639  0.9066  0.1415
  138SOL     MW  552   0.491   0.590   1.096  0.6588  0.6808 -0.8355
  139SOL     OW  553   2.705   0.551   1.398 -0.0108  0.1802  0.3982
  139SOL    HW1  554   2.757   0.468   1.378 -0.2063 -1.3047  0.4751
  139SOL    HW2  555   2.773   0.611   1.426  2.4124  0.9947 -0.5310
  139SOL     MW  556   2.721   0.548   1.399  0.2831  0.0918  0.2858
  140SOL     OW  557   0.878   0.297   2.186 -0.2896  0.6161  0.0790
  140SOL    HW1  558   0.917   0.248   2.106  0.4497 -4.1078 -3.1729
  140SOL    HW2  559   0.942   0.278   2.250 -2.6826 -1.2729  2.8397
  140SOL     MW  560   0.891   0.288   2.184 -0.5078 -0.2564  0.0142
  141SOL     OW  561   1.038   0.675   1.767 -0.5097 -0.0467  0.2453
  141SOL    HW1  562   1.098   0.608   1.732 -0.2632 -0.5670 -2.2062
  141SOL    HW2  563   1.091   0.751   1.736 -0.6159  0.7120  0.4528
  141SOL     MW  564   1.053   0.676   1.758 -0.4912 -0.0152 -0.0508
  142SOL     OW  565   0.957   1.135   0.700  0.2601 -0.4018 -0.6072
  142SOL    HW1  566   0.984   1.048   0.661  0.3237  0.8560  0.8542
  142SOL    HW2  567   1.048   1.155   0.732  1.2207 -1.5066 -0.0261
  142SOL     MW  568   0.973   1.126   0.699  0.3952 -0.3816 -0.3377
  143SOL     OW  569   1.904   0.882   1.190  0.1019  0.2983 -0.2644
  143SOL    HW1  570   1.901   0.872   1.091 -2.5220 -1.9773 -0.7392
  143SOL    HW2  571   1.863   0.804   1.236  2.4868 -2.1715  1.6829
  143SOL     MW  572   1.898   0.871   1.183  0.0703 -0.3278 -0.0701
  144SOL     OW  573   0.162   1.244   1.529  0.1547 -0.2072 -0.6175
  144SOL    HW1  574   0.254   1.210   1.535  0.9187 -1.0985 -0.0374
  144SOL    HW2  575   0.132   1.253   1.622 -1.0910 -4.1566  0.8790
  144SOL     MW  576   0.171   1.241   1.542  0.0912 -0.8459 -0.3435
  145SOL     OW  577   0.284   0.412   1.154 -0.6122  0.1514  0.2146
  145SOL    HW1  578   0.343   0.364   1.210  0.7947 -0.8383 -0.7129
  145SOL    HW2  579   0.208   0.356   1.159  0.7590  0.3088 -0.6899
  145SOL     MW  580   0.282   0.398   1.162 -0.2456  0.0415 -0.0271
  146SOL     OW  581   0.867   1.937   1.372 -0.1377 -0.2758  0.4636
  146SOL    HW1  582   0.907   1.978   1.293  1.8910  2.3080 -2.1264
  146SOL    HW2  583   0.773   1.942   1.372 -1.2220  1.6998  1.1281
  146SOL     MW  584   0.860   1.943   1.361 -0.0131  0.3258  0.2095
  147SOL     OW  585   0.452   0.436   2.853 -0.9313  0.0938  0.1539
  147SOL    HW1  586   0.393   0.434   2.928 -4.1044 -1.2699 -0.8777
  147SOL    HW2  587   0.405   0.481   2.785 -3.6325 -1.8606 -0.8491
  147SOL     MW  588   0.438   0.442   2.854 -1.7064 -0.3440 -0.1145
  148SOL     OW  589   0.070   0.883   1.291 -0.6694  0.1094  0.0660
  148SOL    HW1  590   0.140   0.928   1.241  0.5960 -3.5116 -0.7101
  148SOL    HW2  591   0.082   0.916   1.381  0.4748  0.4791 -1.4722
  148SOL     MW  592   0.081   0.893   1.296 -0.3515 -0.3196 -0.2393
  149SOL     OW  593   1.434   1.103   1.371 -0.0053 -0.4398 -0.1517
  149SOL    HW1  594   1.382   1.118   1.455 -0.0843  0.2481 -2.2705
  149SOL    HW2  595   1.491   1.181   1.372  0.2370 -0.4917 -1.9022
  149SOL     MW  596   1.435   1.115   1.382  0.0162 -0.3559 -0.6622
  150SOL     OW  597   1.859   1.354   0.710  0.1618  0.5814  0.1930
  150SOL    HW1  598   1.884   1.262   0.709  1.0154 -0.9560  0.8332
  150SOL    HW2  599   1.922   1.395   0.769  0.3954 -1.6595 -0.1824
  150SOL     MW  600   1.871   1.347   0.718  0.3052  0.0829  0.2279
  151SOL     OW  601   1.612   1.800   0.824  0.2188 -0.2094 -0.3563
  151SOL    HW1  602   1.561   1.797   0.739  1.2406  1.8975  0.0408
  151SOL    HW2  603   1.556   1.743   0.874  0.2250 -0.0174 -0.0003
  151SOL     MW  604   1.598   1.792   0.819  0.3545  0.0939 -0.2569
  152SOL     OW  605   0.762   1.329   1.469  0.3656 -0.1143  0.4944
  152SOL    HW1  606   0.742   1.249   1.425  0.9524  0.9076  1.6910
  152SOL    HW2  607   0.860   1.324   1.494  2.1739  1.0665  1.6088
  152SOL     MW  608   0.773   1.318   1.467  0.6816  0.1763  0.7993
  153SOL     OW  609   2.631   1.228   0.724  0.3875 -0.0461 -0.4248
  153SOL    HW1  610   2.682   1.229   0.640  3.5621  0.5466 -3.2211
  153SOL    HW2  611   2.597   1.142   0.716  1.9520  1.0380  3.3128
  153SOL     MW  612   2.633   1.217   0.712  1.0128  0.1751 -0.3006
  154SOL     OW  613   0.309   1.742   1.725 -0.4355 -0.1795  0.0127
  154SOL    HW1  614   0.329   1.739   1.630  2.1625  0.4984 -3.1570
  154SOL    HW2  615   0.357   1.670   1.778 -1.1302 -1.1377  0.9265
  154SOL     MW  616   0.318   1.732   1.719 -0.1844 -0.2165 -0.2849
  155SOL     OW  617   1.091   0.723   0.258 -0.0301 -0.1245  0.1770
  155SOL    HW1  618   1.126   0.653   0.308  0.6541  0.0934 -0.3706
  155SOL    HW2  619   1.090   0.806   0.309  0.4152  0.4867 -0.0793
  155SOL     MW  620   1.095   0.725   0.271  0.1189 -0.0151  0.0709
  156SOL     OW  621   1.598   3.033   0.990 -0.3103 -0.3967 -0.1157
  156SOL    HW1  622   1.690   3.061   0.975 -0.1237  1.0712 -1.6215
  156SOL    HW2  623   1.604   2.985   1.075  3.1821  0.8788 -0.9535
  156SOL     MW  624   1.611   3.030   1.000  0.1751 -0.0348 -0.4249
  157SOL     OW  625   1.390   1.205   0.087  0.6419 -0.2711 -0.4824
  157SOL    HW1  626   1.362   1.194   0.181  1.1637 -0.2483  0.9002
  157SOL    HW2  627   1.472   1.256   0.099 -0.3456 -1.7050  2.5883
  157SOL     MW  628   1.397   1.211   0.101  0.5805 -0.4573  0.1051
  158SOL     OW  629   0.388   1.617   2.248  0.0250  0.9965  0.6905
  158SOL    HW1  630   0.340   1.696   2.219 -0.1445  0.3191 -1.6880
  158SOL    HW2  631   0.339   1.574   2.321  0.0982 -0.8140  0.9370
  158SOL     MW  632   0.375   1.621   2.254  0.0123  0.6683  0.4092
  159SOL     OW  633   1.250   1.688   0.400 -0.0158 -0.7691  0.0314
  159SOL    HW1  634   1.240   1.595   0.373  0.8228  2.1705 -2.2184
  159SOL    HW2  635   1.165   1.705   0.446 -1.5950 -1.8690  2.8422
  159SOL     MW  636   1.238   1.678   0.403 -0.1135 -0.5263  0.1054
  160SOL     OW  637   0.419   1.070   1.560  0.4469 -0.4125  0.8885
  160SOL    HW1  638   0.406   0.987   1.607 -1.3652 -1.0091 -0.5786
  160SOL    HW2  639   0.445   1.136   1.627 -1.5197  0.6513 -1.0061
  160SOL     MW  640   0.420   1.068   1.575 -0.0516 -0.3509  0.4449
  161SOL     OW  641   0.545   2.142   2.654  0.8476 -0.0011 -0.1638
  161SOL    HW1  642   0.471   2.174   2.714  1.5093 -0.3113  1.2490
  161SOL    HW2  643   0.515   2.092   2.583 -0.4792  0.1543 -0.8404
  161SOL     MW  644   0.532   2.139   2.652  0.7599 -0.0216 -0.0666
  162SOL     OW  645   1.023   1.728   1.836  0.0122 -0.7195  0.1824
  162SOL    HW1  646   1.010   1.811   1.870  0.3871  1.3417 -1.7428
  162SOL    HW2  647   0.944   1.681   1.829  0.6486 -0.1111 -2.2677
  162SOL     MW  648   1.011   1.733   1.839  0.1456 -0.3673 -0.3949
  163SOL     OW  649   2.155   0.161   0.994  0.0039 -0.2960  0.3074
  163SOL    HW1  650   2.151   0.186   0.897 -1.0533  1.1188 -1.1530
  163SOL    HW2  651   2.116   0.079   1.001  0.5643 -0.6460 -0.7129
  163SOL     MW  652   2.149   0.153   0.982 -0.0616 -0.1555 -0.0199
  164SOL     OW  653   0.305   0.221   0.843  0.0616 -0.3616  0.0941
  164SOL    HW1  654   0.221   0.256   0.882 -4.6775 -2.3232 -0.4327
  164SOL    HW2  655   0.284   0.133   0.812  1.5930 -1.5757 -1.3635
  164SOL     MW  656   0.291   0.214   0.844 -0.3617 -0.7806 -0.1677
  165SOL     OW  657   1.393   1.192   0.383 -0.1685 -0.0567  0.1068
  165SOL    HW1  658   1.363   1.130   0.444  0.5065  2.8201  0.4639
  165SOL    HW2  659   1.491   1.178   0.378  0.2637 -0.7298 -1.4362
  165SOL     MW  660   1.402   1.182   0.390 -0.0224  0.2340 -0.0497
  166SOL     OW  661   0.535   1.095   0.974  0.0708  1.0238  0.2995
  166SOL    HW1  662   0.475   1.046   1.032  0.7228  0.5387  0.9784
  166SOL    HW2  663   0.611   1.034   0.965  1.2574 -2.0069 -2.5325
  166SOL     MW  664   0.537   1.080   0.981  0.3134  0.5599  0.0154
  167SOL     OW  665   0.961   1.162   0.355  0.0014  0.3383 -0.0155
  167SOL    HW1  666   0.885   1.204   0.405 -3.7714  1.3121  1.6623
  167SOL    HW2  667   0.929   1.131   0.264  0.7232 -3.5125 -1.4278
  167SOL     MW  668   0.947   1.164   0.350 -0.4011 -0.0413  0.0195
  168SOL     OW  669   1.687   1.749   2.919  0.2011  0.1493 -0.2008
  168SOL    HW1  670   1.665   1.822   2.980 -0.2850  0.8621 -2.3982
  168SOL    HW2  671   1.668   1.671   2.968  2.6017 -0.6036  2.5707
  168SOL     MW  672   1.681   1.748   2.933  0.4537  0.1440 -0.1251
  169SOL     OW  673   0.328   0.985   1.281  0.1360 -0.4856  0.2203
  169SOL    HW1  674   0.378   0.994   1.359  1.5270 -2.2638  0.5583
  169SOL    HW2  675   0.291   1.078   1.270 -4.6417  0.1426 -0.0869
  169SOL     MW  676   0.330   0.999   1.290 -0.3108 -0.6373  0.2243
  170SOL     OW  677   1.023   1.446   1.531 -0.1574 -0.1216 -0.5255
  170SOL    HW1  678   0.969   1.524   1.543  0.9419 -0.9306 -0.9159
  170SOL    HW2  679   1.083   1.461   1.463 -1.9083 -1.6997 -1.0545
  170SOL     MW  680   1.024   1.459   1.524 -0.2433 -0.4365 -0.6468
  171SOL     OW  681   0.562   1.384   0.686  0.0729  0.5534 -0.3596
  171SOL    HW1  682   0.536   1.386   0.778  1.9362 -0.7998 -1.4714
  171SOL    HW2  683   0.576   1.288   0.662 -0.9950 -1.7154  0.1251
  171SOL     MW  684   0.560   1.371   0.695  0.1779  0.0755 -0.4423
  172SOL     OW  685   0.837   0.299   1.202  0.0733  0.5279 -0.2581
  172SOL    HW1  686   0.847   0.308   1.110 -0.1497  1.6948 -0.3977
  172SOL    HW2  687   0.767   0.356   1.235  0.8552  0.8543  1.0237
  172SOL     MW  688   0.829   0.308   1.194  0.1471  0.7249 -0.1074
  173SOL     OW  689   0.408   1.639   0.356  0.0588  0.4401 -0.3621
  173SOL    HW1  690   0.400   1.548   0.342  2.8119  0.6857  0.1023
  173SOL    HW2  691   0.463   1.653   0.435 -0.2039  0.2226  0.9772
  173SOL     MW  692   0.414   1.629   0.365  0.3874  0.4438 -0.1241
  174SOL     OW  693   2.026   0.947   1.497 -0.2907  0.2909  0.7979
  174SOL    HW1  694   1.968   0.874   1.534 -0.8693  0.7414  3.2209
  174SOL    HW2  695   1.963   1.006   1.463  0.3337  1.9128  1.5257
  174SOL     MW  696   2.010   0.945   1.498 -0.2846  0.5644  1.2136
  175SOL     OW  697   0.366   1.363   0.386 -0.2792  0.0006 -0.2122
  175SOL    HW1  698   0.354   1.337   0.294  0.5529 -1.5466  1.8427
  175SOL    HW2  699   0.458   1.336   0.398  1.5671 -1.5036 -1.5959
  175SOL     MW  700   0.377   1.356   0.375  0.0742 -0.4020 -0.1237
  176SOL     OW  701   0.222   1.236   1.251 -0.4228 -0.0900 -0.1180
  176SOL    HW1  702   0.159   1.244   1.180  1.8616 -0.0229 -0.0691
  176SOL    HW2  703   0.174   1.257   1.328 -0.4441  1.0800  3.4958
  176SOL     MW  704   0.207   1.240   1.252 -0.1242  0.0732  0.3653
  177SOL     OW  705   0.633   0.428   1.299 -0.3272  0.2398  0.7230
  177SOL    HW1  706   0.594   0.482   1.230  1.2259 -1.0796  2.1905
  177SOL    HW2  707   0.611   0.460   1.387  0.8430  1.4947  1.0137
  177SOL     MW  708   0.625   0.440   1.301  0.0321  0.2313  0.9550
  178SOL     OW  709   3.094   0.428   3.032  0.1281 -0.5837 -0.2592
  178SOL    HW1  710   3.036   0.481   3.095  1.8517 -0.0242 -1.3019
  178SOL    HW2  711   3.054   0.450   2.953  0.9593 -0.0593  0.4529
  178SOL     MW  712   3.081   0.438   3.030  0.4651 -0.4407 -0.3028
  179SOL     OW  713   1.635   1.326   1.482  0.1236 -0.1488 -0.3933
  179SOL    HW1  714   1.601   1.330   1.576  1.0334 -0.3869  1.5332
  179SOL    HW2  715   1.731   1.325   1.492 -1.6996  2.1098 -1.8138
  179SOL     MW  716   1.643   1.327   1.496  0.0031  0.1178 -0.3265
  180SOL     OW  717   2.985   0.299   0.488  0.3111 -0.1357 -0.2989
  180SOL    HW1  718   2.959   0.315   0.396  1.3595  0.7869  2.0591
  180SOL    HW2  719   3.011   0.383   0.519 -1.3363  2.2243 -0.4164
  180SOL     MW  720   2.985   0.312   0.480  0.2321  0.2974 -0.0033
  181SOL     OW  721   1.140   1.364   3.038  0.2898  0.1787  0.0327
  181SOL    HW1  722   1.206   1.413   3.081  1.2852  1.4074 -1.8470
  181SOL    HW2  723   1.184   1.319   2.967 -2.4684  0.7661 -0.4764
  181SOL     MW  724   1.154   1.365   3.034  0.0572  0.4183 -0.2825
  182SOL     OW  725   0.461   0.845   1.708  0.0536 -0.8007 -0.6314
  182SOL    HW1  726   0.379   0.799   1.705  2.9098 -2.4435 -1.8619
  182SOL    HW2  727   0.520   0.789   1.753 -0.7710 -2.0008  0.8746
  182SOL     MW  728   0.458   0.831   1.714  0.3216 -1.1758 -0.5951
  183SOL     OW  729   1.575   1.515   1.284  0.3787  0.1270 -0.2939
  183SOL    HW1  730   1.533   1.594   1.318 -4.2184 -0.6765  2.2865
  183SOL    HW2  731   1.618   1.469   1.364 -0.0647  0.5308  1.4641
  183SOL     MW  732   1.575   1.520   1.299 -0.2863  0.0743  0.2785
  184SOL     OW  733   0.803   0.484   1.955 -0.6679  0.2163  0.1920
  184SOL    HW1  734   0.889   0.515   1.932  2.1080  1.1954  3.2427
  184SOL    HW2  735   0.816   0.454   2.042  1.1948  4.0903  2.8453
  184SOL     MW  736   0.816   0.484   1.963 -0.0559  0.8566  0.9446
  185SOL     OW  737   1.125   0.914   1.963  0.2684 -0.3592 -0.0120
  185SOL    HW1  738   1.091   0.835   2.001  0.0136  0.8207 -0.0743
  185SOL    HW2  739   1.186   0.962   2.027  1.2521 -0.1023 -0.0186
  185SOL     MW  740   1.128   0.910   1.977  0.3646 -0.1697 -0.0211
  186SOL     OW  741   0.361   1.772   1.450 -0.3556 -0.3114  0.2753
  186SOL    HW1  742   0.427   1.832   1.425  1.5217 -3.1194 -0.5635
  186SOL    HW2  743   0.351   1.715   1.377 -0.0932  0.7671 -2.0535
  186SOL     MW  744   0.368   1.772   1.437 -0.0733 -0.5396 -0.1426
  187SOL     OW  745   1.518   0.720   1.499  0.1489 -0.6421  0.1526
  187SOL    HW1  746   1.467   0.732   1.581  0.3909 -0.0651  0.3671
  187SOL    HW2  747   1.450   0.705   1.436  0.1382 -0.8574  1.9057
  187SOL     MW  748   1.502   0.720   1.501  0.1794 -0.5944  0.4122
  188SOL     OW  749   1.918   1.080   0.699 -0.1081  0.1472 -0.0413
  188SOL    HW1  750   1.917   1.044   0.785  1.9655  0.3656 -1.4793
  188SOL    HW2  751   1.992   1.041   0.657 -0.0229 -0.2611  0.9071
  188SOL     MW  752   1.928   1.070   0.705  0.1767  0.1221 -0.1059
  189SOL     OW  753   0.635   0.780   0.756 -0.1137 -0.6514  0.5182
  189SOL    HW1  754   0.548   0.806   0.730 -0.8079  3.2036  0.7737
  189SOL    HW2  755   0.676   0.831   0.830  2.2375  1.4585  1.1421
  189SOL     MW  756   0.629   0.790   0.762  0.1049  0.1356  0.6342
  190SOL     OW  757   1.882   0.355   1.957 -0.3458  0.3834  0.4482
  190SOL    HW1  758   1.933   0.288   1.999  0.6392 -0.8143  1.7987
  190SOL    HW2  759   1.950   0.416   1.919 -1.0340  0.5176  0.4485
  190SOL     MW  760   1.898   0.354   1.958 -0.3066  0.2431  0.6264
  191SOL     OW  761   1.620   0.979   1.503 -0.1654 -0.3743  0.2085
  191SOL    HW1  762   1.556   1.021   1.444  0.7189 -1.9001  3.9593
  191SOL    HW2  763   1.593   0.886   1.503  1.8305  0.8386 -1.2211
  191SOL     MW  764   1.608   0.972   1.495  0.2146 -0.4156  0.5148
  192SOL     OW  765   0.681   2.041   2.872 -0.0915 -0.1626  0.1717
  192SOL    HW1  766   0.649   2.080   2.787  0.1843  0.4697 -1.1203
  192SOL    HW2  767   0.672   1.943   2.870  1.2025 -1.9894  1.8885
  192SOL     MW  768   0.676   2.033   2.861  0.1156 -0.3202  0.2278
  193SOL     OW  769   0.992   1.537   0.740 -0.4225 -0.0576 -0.6862
  193SOL    HW1  770   0.956   1.559   0.822  0.4846 -0.1704 -2.2560
  193SOL    HW2  771   0.928   1.471   0.706  1.7495 -0.3610  0.5320
  193SOL     MW  772   0.979   1.531   0.747 -0.0162 -0.1125 -0.7326
  194SOL     OW  773   0.502   1.355   0.958 -0.0456  0.0599  0.4116
  194SOL    HW1  774   0.503   1.260   0.965  1.7022 -3.2090  0.8640
  194SOL    HW2  775   0.415   1.381   0.930  0.1527 -0.9849 -2.7343
  194SOL     MW  776   0.491   1.346   0.956  0.2111 -0.5092  0.0562
  195SOL     OW  777   1.307   1.144   2.914  0.5057 -0.1633  0.3423
  195SOL    HW1  778   1.334   1.163   3.005  1.4771  0.2921 -0.6138
  195SOL    HW2  779   1.215   1.109   2.917 -0.4188  0.2434  4.3887
  195SOL     MW  780   1.299   1.142   2.926  0.5119 -0.0496  0.7501
  196SOL     OW  781   2.208   1.073   0.597  0.2956 -0.9759  0.1704
  196SOL    HW1  782   2.149   1.079   0.516 -0.2331 -0.6173  0.2269
  196SOL    HW2  783   2.189   1.158   0.643  2.7144  0.1208 -1.2113
  196SOL     MW  784   2.198   1.085   0.592  0.5450 -0.7839 -0.0045
  197SOL     OW  785   0.537   1.178   1.956 -0.0351  0.6797 -0.0281
  197SOL    HW1  786   0.538   1.086   1.932 -0.4516  3.7826  1.8669
  197SOL    HW2  787   0.523   1.227   1.879  2.5376 -1.5065 -1.7351
  197SOL     MW  788   0.535   1.173   1.943  0.2494  0.8007 -0.0033
  198SOL     OW  789   2.911   1.407   1.086  0.3195 -0.6786 -0.3049
  198SOL    HW1  790   2.892   1.494   1.045 -2.1320 -1.6170 -3.1558
  198SOL    HW2  791   2.836   1.355   1.059 -2.3490 -0.4685 -1.2675
  198SOL     MW  792   2.898   1.411   1.077 -0.3560 -0.7747 -0.8080
  199SOL     OW  793   0.422   1.286   1.737  0.1747 -0.1692  0.1338
  199SOL    HW1  794   0.325   1.287   1.757 -1.4638  2.5687 -0.2633
  199SOL    HW2  795   0.445   1.361   1.670 -0.9883 -1.4950  0.6153
  199SOL     MW  796   0.413   1.296   1.731 -0.1949  0.0171  0.1449
  200SOL     OW  797   1.943   3.005   1.267  0.2435  0.1642  0.5367
  200SOL    HW1  798   1.933   3.004   1.173 -2.4944  3.1851  0.2691
  200SOL    HW2  799   1.864   3.049   1.296  1.3668  2.1637  0.8356
  200SOL     MW  800   1.931   3.010   1.259  0.0305  0.8266  0.5409
  201SOL     OW  801   1.053   0.301   0.759  0.2002  0.1872  0.3248
  201SOL    HW1  802   1.039   0.215   0.728  3.1001 -1.8988 -1.0753
  201SOL    HW2  803   1.040   0.357   0.678  2.4379 -0.0003 -1.9474
  201SOL     MW  804   1.049   0.297   0.744  0.8780 -0.1127 -0.1597
  202SOL     OW  805   1.564   1.591   1.018  0.8231 -0.3539 -0.1133
  202SOL    HW1  806   1.599   1.508   0.982  1.7102  0.7110  1.1340
  202SOL    HW2  807   1.607   1.592   1.103 -2.1249 -1.3836  0.7023
  202SOL     MW  808   1.574   1.580   1.024  0.5512 -0.3492  0.1589
  203SOL     OW  809   2.992   0.470   1.210  0.4435  0.2893  0.1615
  203SOL    HW1  810   3.074   0.439   1.158 -0.1159  0.1873 -2.2374
  203SOL    HW2  811   3.027   0.519   1.284  1.4863  2.7297  3.7262
  203SOL     MW  812   3.007   0.472   1.213  0.5073  0.5979  0.3153
  204SOL     OW  813   1.048   1.778   0.572  0.1494 -0.2806  0.3953
  204SOL    HW1  814   1.017   1.699   0.622 -0.9931  0.2857  1.4854
  204SOL    HW2  815   0.970   1.816   0.527  1.7936  0.3048  0.5823
  204SOL     MW  816   1.034   1.773   0.573  0.2156 -0.1286  0.5638
  205SOL     OW  817   1.447   0.068   1.218 -0.6358 -0.8154  0.2454
  205SOL    HW1  818   1.436   0.043   1.126 -1.7020  1.9834  0.7609
  205SOL    HW2  819   1.439   0.164   1.221 -0.7850  0.2709 -1.0382
  205SOL     MW  820   1.445   0.077   1.206 -0.7962 -0.3028  0.1441
  206SOL     OW  821   0.486   3.090   1.367  0.3811  0.7062 -0.1872
  206SOL    HW1  822   0.457   3.058   1.284 -0.6316  1.2548  1.4262
  206SOL    HW2  823   0.557   3.023   1.397  1.7581  1.2460  0.6183
  206SOL     MW  824   0.492   3.077   1.360  0.4292  0.8498  0.1319
  207SOL     OW  825   1.001   1.600   0.238 -0.0152  0.5439 -0.4421
  207SOL    HW1  826   1.025   1.684   0.200 -2.7345 -1.4820  3.0421
  207SOL    HW2  827   1.081   1.547   0.249  1.0471 -1.6749  1.1211
  207SOL     MW  828   1.015   1.604   0.235 -0.2338 -0.0162  0.2238
  208SOL     OW  829   0.604   1.576   1.302  0.1831 -0.3528 -0.7806
  208SOL    HW1  830   0.678   1.571   1.363  2.1245  2.2335  0.3741
  208SOL    HW2  831   0.594   1.492   1.265 -0.4333  1.5645  1.9853
  208SOL     MW  832   0.613   1.564   1.305  0.3579  0.2414 -0.2633
  209SOL     OW  833   1.509   0.553   2.798  0.3796 -0.2467 -0.0066
  209SOL    HW1  834   1.571   0.622   2.824 -1.8698  0.1040  0.9533
  209SOL    HW2  835   1.570   0.481   2.788 -1.2245  1.0251  0.3427
  209SOL     MW  836   1.525   0.553   2.800 -0.1288 -0.0326  0.1661
  210SOL     OW  837   1.628   1.335   0.882  0.3383 -0.4026  0.7458
  210SOL    HW1  838   1.715   1.324   0.845 -1.7070 -1.5416 -0.9231
  210SOL    HW2  839   1.561   1.308   0.821 -1.3180 -1.1890  2.5047
  210SOL     MW  840   1.631   1.330   0.869 -0.1501 -0.6566  0.7577
  211SOL     OW  841   1.723   0.493   0.950 -0.6645  0.0809 -0.4592
  211SOL    HW1  842   1.681   0.511   0.860  1.0186  0.3495  1.7872
  211SOL    HW2  843   1.818   0.504   0.932 -0.1676 -0.9408 -0.1886
  211SOL     MW  844   1.730   0.496   0.936 -0.3769 -0.0185 -0.1271
  212SOL     OW  845   0.323   1.128   0.045 -0.2752 -0.2740 -0.4632
  212SOL    HW1  846   0.243   1.080   0.084  1.5149 -2.2808  0.2006
  212SOL    HW2  847   0.373   1.063  -0.010 -0.3254  0.1788  1.2409
  212SOL     MW  848   0.319   1.113   0.043 -0.0457 -0.4790 -0.1508
  213SOL     OW  849   0.513   1.706   3.073 -0.2227  0.0866  0.3555
  213SOL    HW1  850   0.551   1.739   3.161 -0.1165 -1.1254 -0.4921
  213SOL    HW2  851   0.577   1.725   3.000  0.8844 -0.3554 -0.7679
  213SOL     MW  852   0.527   1.713   3.075 -0.0626 -0.1316  0.0954
  214SOL     OW  853   0.612   0.232   2.279 -0.2923 -0.1199 -0.1208
  214SOL    HW1  854   0.551   0.294   2.228 -1.7303  0.0849 -1.1131
  214SOL    HW2  855   0.705   0.251   2.251  2.3827  0.8465  0.9522
  214SOL     MW  856   0.616   0.242   2.269 -0.1291  0.0347 -0.1102
  215SOL     OW  857   0.495   0.691   2.618  0.7432 -0.6917 -0.4416
  215SOL    HW1  858   0.510   0.673   2.526 -0.3939  0.8443  0.5159
  215SOL    HW2  859   0.408   0.650   2.641  0.2044  2.4802 -2.0898
  215SOL     MW  860   0.486   0.683   2.608  0.5220 -0.0705 -0.5327
  216SOL     OW  861   3.067   0.001   2.835  0.3915  0.4125 -0.1089
  216SOL    HW1  862   3.015  -0.013   2.913 -0.0021 -0.2103 -2.9865
  216SOL    HW2  863   3.090   0.092   2.815  0.8856 -3.2813 -0.0399
  216SOL     MW  864   3.063   0.011   2.843  0.4048 -0.1570 -0.4794
  217SOL     OW  865   0.977   1.159   0.074 -0.2061 -0.4373 -0.0225
  217SOL    HW1  866   1.016   1.103   0.006  0.4617  1.6442 -3.5421
  217SOL    HW2  867   1.016   1.246   0.054  0.6106  4.0176  0.8512
  217SOL     MW  868   0.987   1.163   0.062 -0.0103  0.4252 -0.3716
  218SOL     OW  869   0.926   1.318   2.482 -0.1788  0.0696 -0.3411
  218SOL    HW1  870   0.927   1.234   2.533 -0.0998 -1.0771  0.7163
  218SOL    HW2  871   1.008   1.371   2.504  2.7788  1.7136 -1.8180
  218SOL     MW  872   0.937   1.314   2.491  0.2218  0.1352 -0.3965
  219SOL     OW  873   1.032   0.376   2.568 -0.1405  0.3795 -0.0049
  219SOL    HW1  874   1.095   0.425   2.622  1.0430  2.6075 -2.8507
  219SOL    HW2  875   0.948   0.388   2.610  1.7322 -0.9919 -0.7876
  219SOL     MW  876   1.029   0.384   2.581  0.2627  0.4925 -0.4836
  220SOL     OW  877   1.751   0.556   2.176 -0.2967  0.0443 -0.1823
  220SOL    HW1  878   1.673   0.606   2.181  2.2326 -1.8325  3.2360
  220SOL    HW2  879   1.739   0.510   2.094  2.6301  1.1261 -3.1525
  220SOL     MW  880   1.739   0.556   2.166  0.4232 -0.0606 -0.1232
  221SOL     OW  881   0.388   1.423   2.926 -0.0923  0.7941  0.1020
  221SOL    HW1  882   0.359   1.340   2.893  0.8903 -2.2199  3.6852
  221SOL    HW2  883   0.408   1.474   2.846  1.8222  2.3712 -0.3648
  221SOL     MW  884   0.387   1.419   2.911  0.2900  0.6045  0.5131
  222SOL     OW  885   0.408   0.929   2.673  0.4938  0.3573 -0.1119
  222SOL    HW1  886   0.343   0.943   2.599  0.4375 -1.2899  0.9003
  222SOL    HW2  887   0.446   0.841   2.651 -2.7080  2.4401 -0.8706
  222SOL     MW  888   0.405   0.919   2.661  0.0640  0.4148 -0.0784
  223SOL     OW  889   3.040   2.012   2.673  0.2773 -0.0201  0.0853
  223SOL    HW1  890   3.115   1.958   2.667  1.9657  1.2616 -1.7205
  223SOL    HW2  891   3.049   2.092   2.619 -2.4192 -0.5632  0.3530
  223SOL     MW  892   3.051   2.015   2.665  0.1443  0.0773 -0.1176
  224SOL     OW  893   1.544   0.791   2.578 -0.1315 -0.2280  0.5565
  224SOL    HW1  894   1.530   0.794   2.675 -0.8435 -0.4242  3.6720
  224SOL    HW2  895   1.538   0.882   2.556  1.7749 -1.5832  1.0508
  224SOL     MW  896   1.542   0.804   2.588  0.0261 -0.4327  1.0328
  225SOL     OW  897   2.981   1.499   2.275  0.0174 -0.9995  0.5502
  225SOL    HW1  898   3.000   1.556   2.199  0.6302 -1.5981 -1.5608
  225SOL    HW2  899   2.902   1.544   2.299  0.7059 -0.0440  1.0109
  225SOL     MW  900   2.973   1.513   2.268  0.1891 -0.9524  0.3325
  226SOL     OW  901   0.428   1.531   2.672  0.3178 -0.5624  0.0416
  226SOL    HW1  902   0.505   1.502   2.633  0.3898  2.4189  0.6632
  226SOL    HW2  903   0.427   1.625   2.682 -1.7074  1.0236 -1.1002
  226SOL     MW  904   0.438   1.540   2.669  0.0601  0.0402 -0.0271
  227SOL     OW  905   0.454   1.166   2.813 -0.7765 -0.4570  0.2595
  227SOL    HW1  906   0.513   1.234   2.779 -3.2670  0.8504 -0.8708
  227SOL    HW2  907   0.426   1.102   2.747  2.6450  2.5885  2.1773
  227SOL     MW  908   0.458   1.167   2.800 -0.6537  0.1173  0.3634
  228SOL     OW  909   0.672   0.927   1.986  0.0021 -0.2404 -0.2579
  228SOL    HW1  910   0.758   0.963   2.013  2.1393  1.0891  0.6930
  228SOL    HW2  911   0.642   0.876   2.067 -0.9994 -0.4399  0.7645
  228SOL     MW  912   0.680   0.925   2.000  0.1519 -0.0913  0.0024
  229SOL     OW  913   0.271   0.480   3.065  0.4636 -0.1086 -0.1907
  229SOL    HW1  914   0.178   0.450   3.031 -2.2382 -2.6389 -2.1317
  229SOL    HW2  915   0.284   0.442   3.157 -0.0698  1.9674  1.8663
  229SOL     MW  916   0.260   0.471   3.073  0.0368 -0.1685 -0.1754
  230SOL     OW  917   1.701   1.382   2.101  0.5750 -0.2185  0.1953
  230SOL    HW1  918   1.653   1.392   2.181  0.1275  0.1746  2.0113
  230SOL    HW2  919   1.743   1.294   2.112 -0.8995  0.2673 -0.9862
  230SOL     MW  920   1.700   1.372   2.113  0.3214 -0.1025  0.2790
  231SOL     OW  921   2.825   1.280   2.196  0.1643 -1.1287  0.6762
  231SOL    HW1  922   2.891   1.333   2.232 -2.5138 -4.0865 -1.4342
  231SOL    HW2  923   2.752   1.325   2.154 -1.3782 -1.7795 -0.1496
  231SOL     MW  924   2.824   1.293   2.195 -0.3926 -1.6048  0.2888
  232SOL     OW  925   2.294   1.026   2.106  0.3106 -0.0834 -0.1298
  232SOL    HW1  926   2.240   1.045   2.038  0.8490  1.0052  1.5863
  232SOL    HW2  927   2.248   0.957   2.157  0.9936 -0.3690 -2.1869
  232SOL     MW  928   2.281   1.020   2.104  0.4718  0.0225 -0.1748
  233SOL     OW  929   2.022   0.596   1.887 -0.0359 -0.3639 -0.0670
  233SOL    HW1  930   2.056   0.560   1.804  1.0622  0.9492  1.1124
  233SOL    HW2  931   2.096   0.600   1.950 -1.3615  1.4029  2.9818
  233SOL     MW  932   2.037   0.592   1.885 -0.0659  0.0425  0.4909
  234SOL     OW  933   0.215   0.974   2.486  0.1777  0.3289 -0.4655
  234SOL    HW1  934   0.119   0.970   2.469 -0.5845  3.2573 -1.2419
  234SOL    HW2  935   0.236   1.068   2.451 -0.7212  1.2997  1.3468
  234SOL     MW  936   0.205   0.986   2.479 -0.0414  0.8434 -0.3288
  235SOL     OW  937   0.988   3.045   2.792  0.2029 -0.2018  0.2705
  235SOL    HW1  938   1.006   2.996   2.872  1.1356  0.2679  0.0084
  235SOL    HW2  939   0.995   3.135   2.833  0.5719 -0.0648 -0.0479
  235SOL     MW  940   0.991   3.051   2.808  0.3747 -0.1217  0.1939
  236SOL     OW  941   2.942   0.554   0.106 -0.5536 -0.2523 -0.2533
  236SOL    HW1  942   2.846   0.558   0.086 -0.9317  0.1260 -1.2211
  236SOL    HW2  943   2.960   0.641   0.116  1.4887 -1.2454  0.8278
  236SOL     MW  944   2.932   0.566   0.105 -0.3341 -0.3334 -0.2383
  237SOL     OW  945   1.755   0.898   2.179  0.2443 -0.5276 -0.3930
  237SOL    HW1  946   1.799   0.977   2.142 -3.1649 -0.9095 -0.8778
  237SOL    HW2  947   1.801   0.886   2.262  0.3984 -1.3192  0.9627
  237SOL     MW  948   1.767   0.907   2.185 -0.1852 -0.6824 -0.2781
  238SOL     OW  949   1.039   1.765   2.962  0.3836  0.1027 -0.0133
  238SOL    HW1  950   1.007   1.674   2.958  0.3345 -0.9867 -0.6572
  238SOL    HW2  951   1.132   1.760   2.956  0.9153 -1.3739  0.4384
  238SOL     MW  952   1.047   1.752   2.961  0.4473 -0.2359 -0.0387
  239SOL     OW  953   1.268   1.430   2.343 -0.3961 -0.4682 -0.7477
  239SOL    HW1  954   1.216   1.441   2.424  1.0245  2.4679  3.4995
  239SOL    HW2  955   1.358   1.451   2.365 -1.9715 -0.6748 -1.5621
  239SOL     MW  956   1.273   1.434   2.357 -0.4165 -0.1081 -0.2948
  240SOL     OW  957   0.600   0.830   2.230  0.2766 -0.4395  0.2622
  240SOL    HW1  958   0.581   0.910   2.281  0.5910 -0.4605 -0.1257
  240SOL    HW2  959   0.686   0.804   2.272  3.3322  0.8330 -1.9725
  240SOL     MW  960   0.609   0.837   2.242  0.7212 -0.2744 -0.0838
  241SOL     OW  961   0.659   0.335   3.022  0.5349  0.0998  0.1317
  241SOL    HW1  962   0.658   0.408   3.087  1.3180  0.5086 -1.7585
  241SOL    HW2  963   0.610   0.381   2.953  0.5767  2.1647 -0.7039
  241SOL     MW  964   0.653   0.351   3.021  0.6437  0.4262 -0.2279
  242SOL     OW  965   1.424   1.689   2.298 -0.1910 -0.3349  1.0486
  242SOL    HW1  966   1.405   1.773   2.337  1.3277 -1.4849 -2.5305
  242SOL    HW2  967   1.350   1.661   2.242  0.0165  1.1836 -2.4063
  242SOL     MW  968   1.411   1.697   2.296  0.0367 -0.2863  0.1206
  243SOL     OW  969   1.064   0.210   2.370  0.0097 -0.2299 -0.5986
  243SOL    HW1  970   1.146   0.167   2.354  0.8745  0.2088 -0.4065
  243SOL    HW2  971   1.079   0.261   2.450  2.8455  0.8722 -1.6202
  243SOL     MW  972   1.077   0.211   2.379  0.4979 -0.0266 -0.7081
  244SOL     OW  973   0.233   0.758   2.323  0.0632 -0.0011  0.3259
  244SOL    HW1  974   0.244   0.846   2.355  0.7066  2.0672 -1.4604
  244SOL    HW2  975   0.320   0.715   2.335 -1.8923  2.0435 -2.5968
  244SOL     MW  976   0.246   0.764   2.329 -0.1100  0.5416 -0.2954
  245SOL     OW  977   1.334   0.143   2.317 -0.3472  0.3428 -0.2718
  245SOL    HW1  978   1.308   0.063   2.274  0.7235  0.0653 -0.8435
  245SOL    HW2  979   1.430   0.138   2.304  1.1749 -0.9569  3.3504
  245SOL     MW  980   1.343   0.132   2.309 -0.0051  0.1347  0.1307
  246SOL     OW  981   1.167   1.140   2.172  0.3165 -0.2663  0.0610
  246SOL    HW1  982   1.108   1.116   2.241  1.5288  0.8210 -3.8312
  246SOL    HW2  983   1.254   1.157   2.214  0.1817 -0.0444  0.0803
  246SOL     MW  984   1.171   1.139   2.186  0.4586 -0.0936 -0.4500
  247SOL     OW  985   0.637   0.574   0.120  0.3205 -0.4749 -0.2836
  247SOL    HW1  986   0.597   0.644   0.074  2.0991  1.6105  0.5359
  247SOL    HW2  987   0.729   0.597   0.139  0.3254 -0.5444  2.9303
  247SOL     MW  988   0.643   0.586   0.117  0.5558 -0.2089  0.2486
  248SOL     OW  989   0.339   1.203   2.422 -0.0977 -0.0433  0.1514
  248SOL    HW1  990   0.336   1.268   2.355 -1.6075 -0.4907  0.0488
  248SOL    HW2  991   0.317   1.245   2.504  2.8215 -0.8128  2.1713
  248SOL     MW  992   0.336   1.217   2.424  0.0882 -0.2038  0.4044
  249SOL     OW  993   0.144   1.830   2.714  0.3576 -0.1765  0.2953
  249SOL    HW1  994   0.089   1.758   2.680  0.1169 -2.4005  1.2910
  249SOL    HW2  995   0.174   1.813   2.805 -0.8805 -0.8988  1.0698
  249SOL     MW  996   0.140   1.819   2.722  0.1625 -0.5652  0.5289
  250SOL     OW  997   2.173   0.883   2.309 -0.6295  0.7884  0.1092
  250SOL    HW1  998   2.221   0.802   2.297 -2.3100 -0.6097  2.5613
  250SOL    HW2  999   2.220   0.943   2.372  1.8536  1.5880 -0.5256
  250SOL     MW 1000   2.185   0.880   2.316 -0.5236  0.7094  0.3490
  251SOL     OW 1001   0.085   0.823   2.070  0.4156 -0.2641 -0.5877
  251SOL    HW1 1002   0.155   0.802   2.131 -0.6524  2.8890 -1.4041
  251SOL    HW2 1003   0.040   0.743   2.070 -0.2784  1.9453 -0.1940
  251SOL     MW 1004   0.088   0.810   2.078  0.1831  0.4434 -0.6435
  252SOL     OW 1005   1.696   0.999   2.787  0.0288  0.1792 -0.1480
  252SOL    HW1 1006   1.699   1.040   2.873 -4.4763  0.0558  0.8791
  252SOL    HW2 1007   1.751   1.047   2.728  2.3442 -1.7143  1.1784
  252SOL     MW 1008   1.704   1.011   2.790 -0.2601 -0.0869  0.1625
  253SOL     OW 1009   1.141   1.752   2.567 -0.1032  0.2830  0.3699
  253SOL    HW1 1010   1.139   1.788   2.479  1.9996 -0.5867 -0.2102
  253SOL    HW2 1011   1.052   1.783   2.607 -1.0826  1.9038  1.2422
  253SOL     MW 1012   1.129   1.761   2.561  0.0450  0.3821  0.4085
  254SOL     OW 1013   0.953   1.065   2.331  0.0503  0.3233 -0.7431
  254SOL    HW1 1014   0.939   0.970   2.321 -3.1355 -0.1187  1.3150
  254SOL    HW2 1015   0.880   1.091   2.274  1.6532  1.1178  1.1697
  254SOL     MW 1016   0.941   1.056   2.322 -0.1586  0.3698 -0.2191
  255SOL     OW 1017   0.722   2.316   2.294  0.2430  1.0438 -0.7475
  255SOL    HW1 1018   0.632   2.301   2.298  1.7419  1.4306  0.6635
  255SOL    HW2 1019   0.754   2.349   2.379  1.4595 -0.8510  0.5623
  255SOL     MW 1020   0.714   2.319   2.306  0.6013  0.8449 -0.3885
  256SOL     OW 1021   1.200   2.866   2.972 -0.1427  0.1038 -0.2080
  256SOL    HW1 1022   1.244   2.779   2.979 -0.2054 -0.4673 -1.9786
  256SOL    HW2 1023   1.261   2.901   2.905 -0.0701 -0.9470  1.1777
  256SOL     MW 1024   1.214   2.859   2.964 -0.1414 -0.1102 -0.2588
  257SOL     OW 1025   0.130   1.854   0.013 -0.2511  0.2084 -0.1705
  257SOL    HW1 1026   0.129   1.809   0.098  1.5574 -1.7075  1.9044
  257SOL    HW2 1027   0.175   1.788  -0.037 -0.9173  0.0598 -0.6164
  257SOL     MW 1028   0.136   1.839   0.017 -0.1004 -0.0640  0.0444
  258SOL     OW 1029   0.558   1.038   2.397  0.8255 -0.0562  0.7898
  258SOL    HW1 1030   0.617   1.094   2.347  0.1557  1.1285 -0.9498
  258SOL    HW2 1031   0.476   1.095   2.401  0.7117 -1.9147 -1.5031
  258SOL     MW 1032   0.555   1.053   2.391  0.7221 -0.1451  0.2578
  259SOL     OW 1033   0.606   0.363   2.533 -0.2999  0.0004 -0.4292
  259SOL    HW1 1034   0.539   0.424   2.504  4.8259 -1.4604 -0.6299
  259SOL    HW2 1035   0.621   0.299   2.460  0.9323 -1.6043 -1.4549
  259SOL     MW 1036   0.599   0.363   2.520  0.5390 -0.4041 -0.5910
  260SOL     OW 1037   0.590   0.155   1.589 -0.1719 -0.1179 -0.2855
  260SOL    HW1 1038   0.523   0.175   1.527  3.2394 -0.7251 -2.1754
  260SOL    HW2 1039   0.677   0.138   1.549 -1.2434  1.1801  0.0940
  260SOL     MW 1040   0.593   0.155   1.576  0.1368 -0.0268 -0.4848
  261SOL     OW 1041   1.045   0.676   2.078  0.4622  0.3741 -0.2114
  261SOL    HW1 1042   1.088   0.656   2.162  1.1812  0.2495  1.5549
  261SOL    HW2 1043   1.097   0.626   2.017 -0.8264  2.8707 -1.6825
  261SOL     MW 1044   1.057   0.667   2.081  0.3870  0.6871 -0.1725
  262SOL     OW 1045   1.145   0.400   0.137 -0.2987 -0.0548 -0.1119
  262SOL    HW1 1046   1.173   0.312   0.164  0.9084  0.5881 -0.2521
  262SOL    HW2 1047   1.190   0.422   0.055 -0.3656 -1.4877  1.6165
  262SOL     MW 1048   1.155   0.391   0.130 -0.1483 -0.1591  0.0976
  263SOL     OW 1049   0.418   3.000   2.473  0.4399 -0.2485  0.2956
  263SOL    HW1 1050   0.374   3.079   2.446  1.9634  1.2231  1.2515
  263SOL    HW2 1051   0.490   2.986   2.416 -0.1502  4.0278  2.2447
  263SOL     MW 1052   0.422   3.008   2.462  0.5630  0.5099  0.6789
  264SOL     OW 1053   1.475   1.328   1.978  0.3406 -0.0493 -0.5489
  264SOL    HW1 1054   1.426   1.311   2.059  2.3180 -3.3745  1.6824
  264SOL    HW2 1055   1.560   1.350   2.024 -0.7981  1.1909  0.9530
  264SOL     MW 1056   1.479   1.329   1.995  0.4513 -0.3244 -0.0564
  265SOL     OW 1057   0.750   2.748   2.205 -0.0642 -0.6394 -0.0848
  265SOL    HW1 1058   0.787   2.666   2.175 -0.3436  2.0060  0.7646
  265SOL    HW2 1059   0.720   2.748   2.298 -1.9288 -0.8022  1.3475
  265SOL     MW 1060   0.751   2.737   2.213 -0.3471 -0.3119  0.2163
  266SOL     OW 1061   0.881   0.800   2.282 -0.0202  0.4671 -0.1415
  266SOL    HW1 1062   0.928   0.764   2.213  0.8123 -1.1754  1.4378
  266SOL    HW2 1063   0.872   0.727   2.343  1.4972  0.0663  0.0856
  266SOL     MW 1064   0.886   0.785   2.281  0.2899  0.1975  0.0968
  267SOL     OW 1065   1.385   1.814   2.682  0.0620  0.4092 -0.3889
  267SOL    HW1 1066   1.443   1.738   2.649 -0.5768 -1.3580 -0.3406
  267SOL    HW2 1067   1.301   1.792   2.655  2.6400 -0.0849 -1.7710
  267SOL     MW 1068   1.381   1.801   2.674  0.3178  0.1108 -0.5649
  268SOL     OW 1069   0.197   0.764   1.660  0.1497 -0.3231 -0.2280
  268SOL    HW1 1070   0.150   0.848   1.625 -0.8533  2.3468 -0.4856
  268SOL    HW2 1071   0.165   0.685   1.613  2.8537  0.8464  1.1870
  268SOL     MW 1072   0.186   0.765   1.649  0.3742  0.1834 -0.0753
  269SOL     OW 1073   1.384   1.947   2.446  0.7751  0.1326  0.0962
  269SOL    HW1 1074   1.396   1.922   2.538 -1.0052 -1.8169 -1.2230
  269SOL    HW2 1075   1.319   2.015   2.441  0.8672 -1.1794 -2.1417
  269SOL     MW 1076   1.377   1.953   2.458  0.5524 -0.2977 -0.3731
  270SOL     OW 1077   1.196   0.484   1.643 -0.3040 -0.3012 -0.2816
  270SOL    HW1 1078   1.178   0.397   1.677  1.2224 -1.5595  0.1667
  270SOL    HW2 1079   1.292   0.471   1.606  0.1679  0.5356 -1.1977
  270SOL     MW 1080   1.206   0.471   1.643 -0.0404 -0.3568 -0.3433
  271SOL     OW 1081   0.906   0.011   2.465 -0.1728  0.0622 -0.0911
  271SOL    HW1 1082   0.980  -0.045   2.493 -1.0705 -2.4872  1.5490
  271SOL    HW2 1083   0.947   0.097   2.441 -1.4743 -1.2688 -1.9726
  271SOL     MW 1084   0.921   0.015   2.466 -0.4630 -0.4498 -0.1229
  272SOL     OW 1085   1.362   3.002   2.774 -0.0470  0.2199  0.0550
  272SOL    HW1 1086   1.283   3.015   2.716  2.3207 -0.9432  1.5205
  272SOL    HW2 1087   1.345   3.074   2.850  1.4344  1.2765  1.2410
  272SOL     MW 1088   1.350   3.013   2.776  0.4608  0.2058  0.4048
  273SOL     OW 1089   1.435   0.932   2.793 -0.2086 -0.0310  0.3122
  273SOL    HW1 1090   1.509   0.978   2.752 -0.6297  2.1004  1.6564
  273SOL    HW2 1091   1.375   1.002   2.824  1.3399 -0.4861 -1.1674
  273SOL     MW 1092   1.436   0.947   2.792 -0.0598  0.1901  0.2943
  274SOL     OW 1093   1.358   0.720   0.123 -0.2243 -0.1164  0.2103
  274SOL    HW1 1094   1.400   0.642   0.152  0.0162 -0.4853  1.8764
  274SOL    HW2 1095   1.276   0.711   0.172  1.6996  0.1546 -1.9538
  274SOL     MW 1096   1.353   0.709   0.133  0.0613 -0.1293  0.1446
  275SOL     OW 1097   1.677   0.644   1.760  0.0197  0.6357 -0.5054
  275SOL    HW1 1098   1.731   0.689   1.832 -0.8368  2.2504 -1.3569
  275SOL    HW2 1099   1.663   0.551   1.793 -1.9300 -0.9459  1.4030
  275SOL     MW 1100   1.682   0.638   1.774 -0.3505  0.6400 -0.3659
  276SOL     OW 1101   0.180   1.177   1.823  0.6533  0.0806  0.0083
  276SOL    HW1 1102   0.238   1.107   1.868  2.2591 -1.5740 -1.4487
  276SOL    HW2 1103   0.096   1.174   1.865  2.8361  0.5847 -0.6812
  276SOL     MW 1104   0.176   1.167   1.834  1.1531 -0.0712 -0.2749
  277SOL     OW 1105   1.901   1.375   2.733 -0.0130  0.2759  0.1300
  277SOL    HW1 1106   1.950   1.439   2.682  2.8034  1.1567 -0.5805
  277SOL    HW2 1107   1.927   1.288   2.713  0.3065 -2.7579  1.6434
  277SOL     MW 1108   1.911   1.372   2.723  0.4007 -0.0082  0.2359
  278SOL     OW 1109   1.427   0.735   1.758  0.5242  0.0003  0.0272
  278SOL    HW1 1110   1.366   0.676   1.809 -2.5445  0.5627  0.1748
  278SOL    HW2 1111   1.514   0.689   1.759  0.8039  1.4927 -3.3743
  278SOL     MW 1112   1.430   0.721   1.765  0.1562  0.2714 -0.4021
  279SOL     OW 1113   0.576   3.041   2.265 -0.3934  0.6394 -0.1889
  279SOL    HW1 1114   0.652   3.043   2.205  0.5174  3.2298 -0.0170
  279SOL    HW2 1115   0.566   3.135   2.287 -1.5810 -0.9481  0.7710
  279SOL     MW 1116   0.585   3.053   2.260 -0.4299  0.7717 -0.0396
  280SOL     OW 1117   1.424   1.164   2.248 -0.1057 -0.2974 -0.6124
  280SOL    HW1 1118   1.447   1.093   2.187 -0.5962  0.6000  2.8510
  280SOL    HW2 1119   1.427   1.128   2.338  0.2070  2.6142 -0.2344
  280SOL     MW 1120   1.428   1.150   2.252 -0.1292  0.2051 -0.1056
  281SOL     OW 1121   1.327   1.372   2.771 -0.0960  0.8293  0.6765
  281SOL    HW1 1122   1.409   1.412   2.801  2.0292 -0.2156  0.7610
  281SOL    HW2 1123   1.346   1.283   2.807  1.4459 -0.2262  0.2666
  281SOL     MW 1124   1.340   1.366   2.780  0.3878  0.5522  0.6335
  282SOL     OW 1125   1.146   1.324   1.736 -0.3674 -0.5051  0.6315
  282SOL    HW1 1126   1.094   1.371   1.666  1.4039 -4.4946 -1.0880
  282SOL    HW2 1127   1.083   1.254   1.759 -1.5201  1.5021 -0.4458
  282SOL     MW 1128   1.131   1.321   1.730 -0.2858 -0.7666  0.2625
  283SOL     OW 1129   0.704   1.192   0.080 -0.4176 -0.1636 -0.7629
  283SOL    HW1 1130   0.803   1.196   0.066  1.6330 -0.2221  1.3433
  283SOL    HW2 1131   0.684   1.281   0.058 -0.6181 -0.4093 -0.7030
  283SOL     MW 1132   0.715   1.204   0.075 -0.1735 -0.2037 -0.4771
  284SOL     OW 1133   0.456   0.606   2.362  0.0114 -0.3419 -0.1902
  284SOL    HW1 1134   0.502   0.691   2.337  0.4665 -0.9588 -0.3972
  284SOL    HW2 1135   0.445   0.552   2.282  0.6538 -0.2645 -0.0152
  284SOL     MW 1136   0.460   0.610   2.348  0.1562 -0.4131 -0.1944
  285SOL     OW 1137   0.857   0.908   2.779  0.5902 -0.4727 -0.0673
  285SOL    HW1 1138   0.826   0.936   2.691 -0.4065 -1.7042 -0.7853
  285SOL    HW2 1139   0.807   0.825   2.791 -0.2030  3.4345 -2.4894
  285SOL     MW 1140   0.847   0.901   2.769  0.3540 -0.1196 -0.4816
  286SOL     OW 1141   1.141   1.463   2.583  0.2849 -0.0451  0.4561
  286SOL    HW1 1142   1.207   1.426   2.647  1.7928 -2.5124  1.3662
  286SOL    HW2 1143   1.143   1.557   2.612 -0.8449 -0.3237 -0.4889
  286SOL     MW 1144   1.150   1.471   2.596  0.3348 -0.4074  0.4515
  287SOL     OW 1145   1.104   0.947   0.388  0.3092 -0.2938  0.3781
  287SOL    HW1 1146   1.172   0.965   0.454 -1.8367 -0.1258  0.1212
  287SOL    HW2 1147   1.069   1.039   0.374 -0.7767  0.0110  0.1059
  287SOL     MW 1148   1.109   0.961   0.395 -0.1172 -0.2314  0.3083
  288SOL     OW 1149   1.475   0.673   2.154  0.3461  1.1668  0.5180
  288SOL    HW1 1150   1.450   0.656   2.250 -0.4884 -1.1283  2.4400
  288SOL    HW2 1151   1.470   0.770   2.148 -0.6596  0.5473 -0.7896
  288SOL     MW 1152   1.471   0.684   2.166  0.1033  0.7822  0.5991
  289SOL     OW 1153   0.791   1.000   2.528  0.2619  0.8723  0.6458
  289SOL    HW1 1154   0.849   1.032   2.458  0.7703  0.8022 -1.5605
  289SOL    HW2 1155   0.693   1.005   2.514 -4.2594  2.5079 -1.5920
  289SOL     MW 1156   0.786   1.005   2.517 -0.2676  1.0789  0.0594
  290SOL     OW 1157   0.841   0.709   1.557 -0.2939  0.2157 -0.2516
  290SOL    HW1 1158   0.891   0.642   1.507  0.2488 -0.9355  0.0079
  290SOL    HW2 1159   0.885   0.691   1.641  1.3939 -2.3982 -0.5491
  290SOL     MW 1160   0.853   0.698   1.562  0.0004 -0.2811 -0.2566
  291SOL     OW 1161   0.258   0.375   0.211 -0.1633 -0.0175 -0.4684
  291SOL    HW1 1162   0.346   0.338   0.207 -1.8617  1.9199  0.1026
  291SOL    HW2 1163   0.201   0.309   0.172  1.0395 -0.2116 -1.1414
  291SOL     MW 1164   0.262   0.362   0.205 -0.2287  0.2125 -0.4819
  292SOL     OW 1165   0.925   0.551   0.098  0.3193  0.5754  0.2329
  292SOL    HW1 1166   0.965   0.630   0.130  1.9784 -1.4082 -0.0546
  292SOL    HW2 1167   0.993   0.487   0.119 -0.2710 -0.4848 -2.0909
  292SOL     MW 1168   0.939   0.553   0.105  0.4603  0.1738 -0.1116
  293SOL     OW 1169   0.244   0.099   2.448  0.2633 -0.5557  0.9599
  293SOL    HW1 1170   0.155   0.074   2.417  0.8095 -0.3925 -1.5881
  293SOL    HW2 1171   0.231   0.147   2.531 -0.2554  3.0926  1.3342
  293SOL     MW 1172   0.231   0.102   2.454  0.2669 -0.0528  0.6731
  294SOL     OW 1173   1.438   0.602   2.413 -0.3846  0.4944  0.0282
  294SOL    HW1 1174   1.480   0.663   2.476  3.2351 -1.8327 -0.7148
  294SOL    HW2 1175   1.467   0.513   2.439 -0.1417  2.5550  1.5361
  294SOL     MW 1176   1.447   0.598   2.425  0.1251  0.4593  0.1291
  295SOL     OW 1177   0.785   0.582   2.476 -0.6097 -0.0610  0.9051
  295SOL    HW1 1178   0.739   0.498   2.463 -2.7765 -0.4634 -3.0831
  295SOL    HW2 1179   0.798   0.595   2.566  1.4156  3.2811  3.2194
  295SOL     MW 1180   0.781   0.573   2.487 -0.6284  0.3269  0.6843
  296SOL     OW 1181   1.253   0.277   2.056 -0.2010 -0.1232  0.1109
  296SOL    HW1 1182   1.343   0.252   2.041  1.0906  2.3255  4.5696
  296SOL    HW2 1183   1.249   0.295   2.152  1.5411  1.2947  2.4884
  296SOL     MW 1184   1.264   0.276   2.067  0.1992  0.3870  1.0129
  297SOL     OW 1185   1.444   0.439   1.531  0.2367 -0.2733 -0.2381
  297SOL    HW1 1186   1.481   0.522   1.507  1.9895 -1.6016 -0.0837
  297SOL    HW2 1187   1.503   0.383   1.575 -1.8680  2.2094 -0.3915
  297SOL     MW 1188   1.457   0.442   1.534  0.1903 -0.1210 -0.2380
  298SOL     OW 1189   1.503   0.959   2.100 -0.3699 -0.1853 -0.5328
  298SOL    HW1 1190   1.488   0.974   2.008  0.0393 -1.7653  0.3565
  298SOL    HW2 1191   1.594   0.928   2.122 -0.3647 -0.3526  0.9853
  298SOL     MW 1192   1.513   0.957   2.091 -0.3152 -0.4158 -0.2152
  299SOL     OW 1193   0.538   0.996   3.011 -1.0133  0.2189 -0.2148
  299SOL    HW1 1194   0.594   1.044   3.081  2.4639  0.0627  0.3176
  299SOL    HW2 1195   0.520   1.050   2.939 -3.1346 -2.1648  2.1236
  299SOL     MW 1196   0.543   1.009   3.011 -0.8344 -0.1162  0.1640
  300SOL     OW 1197   1.177   1.047   2.554 -0.0774  0.4497 -0.3180
  300SOL    HW1 1198   1.132   1.082   2.483  2.5052  2.9767  3.4034
  300SOL    HW2 1199   1.127   0.973   2.585 -2.7947  2.1145 -0.0850
  300SOL     MW 1200   1.164   1.042   2.549 -0.0951  1.0028  0.2038
  301SOL     OW 1201   1.388   0.726   0.541  0.3920  0.3432 -0.0754
  301SOL    HW1 1202   1.412   0.691   0.630  0.9454 -0.5743  1.1000
  301SOL    HW2 1203   1.313   0.675   0.502  0.5217  0.4448  4.2331
  301SOL     MW 1204   1.381   0.715   0.548  0.4821  0.2356  0.6482
  302SOL     OW 1205   0.142   1.500   1.967  0.1530  0.3175 -0.4178
  302SOL    HW1 1206   0.156   1.447   2.047 -1.9646  1.2064  0.2545
  302SOL    HW2 1207   0.065   1.555   1.991  1.6548  1.6369 -2.0043
  302SOL     MW 1208   0.133   1.500   1.981  0.0717  0.6089 -0.5384
  303SOL     OW 1209   0.430   1.819   2.665 -0.6917  0.2032 -0.4552
  303SOL    HW1 1210   0.449   1.865   2.583  0.3098  1.7742  0.8804
  303SOL    HW2 1211   0.340   1.849   2.675 -1.4862 -1.5926  1.6034
  303SOL     MW 1212   0.421   1.829   2.656 -0.6644  0.1736 -0.0074
  304SOL     OW 1213   0.521   1.966   2.419  0.6871  0.5144 -0.1453
  304SOL    HW1 1214   0.513   2.036   2.357 -2.9999  0.6467  1.9696
  304SOL    HW2 1215   0.606   1.925   2.413  0.4424 -1.8226  0.0586
  304SOL     MW 1216   0.531   1.970   2.410  0.1683  0.2235  0.1606
  305SOL     OW 1217   1.186   0.545   0.451  0.2118  0.3891 -0.3375
  305SOL    HW1 1218   1.099   0.521   0.476 -3.5094  1.1389 -0.8831
  305SOL    HW2 1219   1.230   0.459   0.469 -0.1447  2.3574 -0.0618
  305SOL     MW 1220   1.180   0.531   0.457 -0.3262  0.7477 -0.3731
  306SOL     OW 1221   1.216   1.428   0.274 -0.1173 -0.2761  0.2135
  306SOL    HW1 1222   1.238   1.335   0.296  1.8173 -0.0245  1.1108
  306SOL    HW2 1223   1.277   1.454   0.197 -0.7488 -2.2534 -1.2119
  306SOL     MW 1224   1.227   1.419   0.267  0.0546 -0.5038  0.1438
  307SOL     OW 1225   1.315   0.547   1.959 -0.1081  0.6235  0.1835
  307SOL    HW1 1226   1.300   0.459   1.997  0.1031  0.3293  0.0371
  307SOL    HW2 1227   1.377   0.589   2.017  2.1341 -1.8185  2.4198
  307SOL     MW 1228   1.322   0.541   1.971  0.2156  0.2625  0.4593
  308SOL     OW 1229   2.136   0.560   2.761  0.1321 -0.1116 -0.1963
  308SOL    HW1 1230   2.101   0.461   2.749 -0.3761 -0.3506  0.6839
  308SOL    HW2 1231   2.234   0.562   2.762 -0.7690 -1.6093 -2.7404
  308SOL     MW 1232   2.144   0.547   2.760 -0.0538 -0.3408 -0.4158
  309SOL     OW 1233   0.521   0.506   0.371 -0.6343  0.1575  0.0559
  309SOL    HW1 1234   0.564   0.422   0.394  0.7783  1.0461 -1.2911
  309SOL    HW2 1235   0.533   0.514   0.277 -1.1989 -0.1626  2.1804
  309SOL     MW 1236   0.528   0.496   0.362 -0.5224  0.2325  0.1585
  310SOL     OW 1237   0.406   0.518   1.903  0.0513 -0.1140  0.4288
  310SOL    HW1 1238   0.464   0.464   1.842  3.2412  1.3115 -1.7939
  310SOL    HW2 1239   0.459   0.596   1.893  0.2488  1.5865 -1.8982
  310SOL     MW 1240   0.420   0.521   1.893  0.4983  0.2984 -0.1715
  311SOL     OW 1241   1.824   0.770   1.945  0.4548 -0.3404  0.6798
  311SOL    HW1 1242   1.814   0.788   2.038 -0.4122 -1.2815 -0.3579
  311SOL    HW2 1243   1.894   0.711   1.938 -3.0337  2.2816  0.4868
  311SOL     MW 1244   1.832   0.765   1.956 -0.1198 -0.1187  0.5174
  312SOL     OW 1245   1.746   2.638   3.087 -0.6416 -0.5861 -0.5485
  312SOL    HW1 1246   1.813   2.652   3.155  0.1889  2.7757 -0.8076
  312SOL    HW2 1247   1.667   2.637   3.134  3.2472 -1.0223  1.4099
  312SOL     MW 1248   1.745   2.640   3.102 -0.0189 -0.2001 -0.3243
  313SOL     OW 1249   0.140   1.184   2.912  0.0083  0.5916  0.6993
  313SOL    HW1 1250   0.203   1.146   2.974 -1.9792 -1.1351 -1.5304
  313SOL    HW2 1251   0.178   1.200   2.821 -0.4851 -1.8425 -0.3119
  313SOL     MW 1252   0.154   1.181   2.908 -0.3190  0.0426  0.2717
  314SOL     OW 1253   2.142   3.043   2.986  0.2938  0.2746  0.0782
  314SOL    HW1 1254   2.069   3.083   2.934  0.6616 -0.4091  1.0573
  314SOL    HW2 1255   2.171   3.122   3.039  0.7995  4.6909  1.4656
  314SOL     MW 1256   2.136   3.058   2.986  0.4090  0.7671  0.3904
  315SOL     OW 1257   1.567   1.992   3.012 -0.0184  0.1658  0.0273
  315SOL    HW1 1258   1.471   2.013   3.034  0.7901  0.2642  0.7695
  315SOL    HW2 1259   1.600   2.038   2.936 -2.7571 -2.1314  1.0262
  315SOL     MW 1260   1.558   2.001   3.005 -0.2731 -0.1243  0.2570
  316SOL     OW 1261   1.213   0.622   2.702  0.0241  0.4213 -0.5759
  316SOL    HW1 1262   1.307   0.622   2.691 -0.3008 -0.4914  1.5750
  316SOL    HW2 1263   1.210   0.663   2.792  0.5985 -1.2749  2.4803
  316SOL     MW 1264   1.225   0.627   2.712  0.0570  0.0771  0.1111
  317SOL     OW 1265   0.677   1.349   2.595 -0.0942 -0.0306 -0.2449
  317SOL    HW1 1266   0.719   1.287   2.648 -0.4729  0.8818 -2.1564
  317SOL    HW2 1267   0.742   1.357   2.519 -1.2160  0.5292 -2.7076
  317SOL     MW 1268   0.691   1.342   2.592 -0.2921  0.1637 -0.8220
  318SOL     OW 1269   1.293   0.437   2.948 -0.4997 -0.6059 -0.2477
  318SOL    HW1 1270   1.210   0.466   2.915 -0.1841  1.2479 -0.3408
  318SOL    HW2 1271   1.360   0.487   2.893 -1.1102  0.1260 -0.3509
  318SOL     MW 1272   1.291   0.447   2.937 -0.5386 -0.2648 -0.2736
  319SOL     OW 1273   0.767   0.418   2.744 -0.5188 -0.2014 -0.2233
  319SOL    HW1 1274   0.720   0.398   2.665 -0.0353  0.7441 -1.3058
  319SOL    HW2 1275   0.763   0.333   2.787  0.8958 -0.3803  0.5084
  319SOL     MW 1276   0.760   0.404   2.739 -0.2684 -0.1003 -0.2696
  320SOL     OW 1277   0.997   1.313   2.033 -0.0180 -0.0278 -0.4118
  320SOL    HW1 1278   1.048   1.264   2.094  0.6044  0.0593 -0.8844
  320SOL    HW2 1279   1.057   1.382   2.007 -0.8857 -0.2076 -1.8296
  320SOL     MW 1280   1.012   1.316   2.038 -0.0504 -0.0401 -0.6612
  321SOL     OW 1281   1.082   0.991   2.977  0.5780 -0.0311 -0.0405
  321SOL    HW1 1282   1.005   0.948   2.921  1.8760 -0.1181  1.3530
  321SOL    HW2 1283   1.154   0.923   2.980  1.3806 -3.1852 -0.4840
  321SOL     MW 1284   1.082   0.977   2.970  0.8552 -0.4587  0.0849
  322SOL     OW 1285   1.225   0.910   1.706  0.3951 -0.4993 -0.0744
  322SOL    HW1 1286   1.313   0.863   1.711  1.0493 -0.1476  0.4116
  322SOL    HW2 1287   1.201   0.934   1.794  0.2539 -1.7027  0.9628
  322SOL     MW 1288   1.234   0.907   1.718  0.4628 -0.6116  0.1266
  323SOL     OW 1289   1.185   1.516   1.919  0.3870 -0.1130 -0.0902
  323SOL    HW1 1290   1.177   1.458   1.836  0.4371  2.6612 -0.3728
  323SOL    HW2 1291   1.152   1.603   1.904  0.3683 -0.2678  0.4638
  323SOL     MW 1292   1.180   1.520   1.906  0.3911  0.2326 -0.0544
  324SOL     OW 1293   1.486   1.070   2.538 -0.0387  0.5925 -1.1165
  324SOL    HW1 1294   1.404   1.095   2.564  4.6998  0.5044  1.0576
  324SOL    HW2 1295   1.538   1.141   2.576  0.1297 -1.5324  0.5197
  324SOL     MW 1296   1.482   1.083   2.546  0.6087  0.3005 -0.6138
  325SOL     OW 1297   0.988   0.441   2.916  0.0886 -0.0379 -0.2023
  325SOL    HW1 1298   0.944   0.497   2.993 -0.2918  0.3233 -0.5226
  325SOL    HW2 1299   0.924   0.446   2.840 -1.5033  1.6116  0.8754
  325SOL     MW 1300   0.974   0.449   2.916 -0.1716  0.2274 -0.1023
  326SOL     OW 1301   0.406   1.334   2.170 -0.8001 -0.1494  0.1749
  326SOL    HW1 1302   0.459   1.292   2.100  1.1422  3.1999  1.6131
  326SOL    HW2 1303   0.433   1.425   2.162  0.3563  0.3646 -0.8094
  326SOL     MW 1304   0.416   1.341   2.160 -0.3913  0.3603  0.2348
  327SOL     OW 1305   1.900   0.859   2.419  0.3269 -0.2463 -0.2484
  327SOL    HW1 1306   1.898   0.794   2.489 -1.9445  1.0831  0.1809
  327SOL    HW2 1307   1.991   0.877   2.399 -2.2627 -0.2476  0.3900
  327SOL     MW 1308   1.911   0.853   2.426 -0.3145 -0.0711 -0.1075
  328SOL     OW 1309   0.131   1.246   2.173  0.6372  0.3421  0.6111
  328SOL    HW1 1310   0.103   1.166   2.132 -1.8429  2.4665  2.8231
  328SOL    HW2 1311   0.225   1.261   2.163 -1.7208 -0.3865 -1.7089
  328SOL     MW 1312   0.140   1.238   2.166 -0.0012  0.5263  0.5969
  329SOL     OW 1313   0.116   0.161   1.416  0.1221  0.2663 -0.3634
  329SOL    HW1 1314   0.089   0.160   1.511  0.4416  2.6061 -0.0705
  329SOL    HW2 1315   0.202   0.197   1.418 -0.1498 -3.1997  0.2152
  329SOL     MW 1316   0.124   0.165   1.429  0.1284  0.1177 -0.2484
  330SOL     OW 1317   0.417   2.967   2.069  0.0003 -0.3028  0.6367
  330SOL    HW1 1318   0.475   2.974   2.149 -0.1099 -1.9949 -0.2368
  330SOL    HW2 1319   0.340   2.923   2.099  1.3643  0.2508 -0.7806
  330SOL     MW 1320   0.414   2.962   2.084  0.1657 -0.4531  0.3344
  331SOL     OW 1321   0.736   1.179   2.218 -0.2816 -0.2457  0.3142
  331SOL    HW1 1322   0.682   1.148   2.141  1.9937 -2.3935  1.1365
  331SOL    HW2 1323   0.740   1.274   2.200  3.5205  0.6675  1.5481
  331SOL     MW 1324   0.730   1.188   2.205  0.5203 -0.4086  0.5855
  332SOL     OW 1325   1.352   1.759   2.955 -0.0351 -0.1265 -0.1622
  332SOL    HW1 1326   1.356   1.788   2.859  1.1598 -2.0254 -3.2157
  332SOL    HW2 1327   1.447   1.761   2.962  0.1862  0.0723 -1.9037
  332SOL     MW 1328   1.365   1.763   2.943  0.1518 -0.3508 -0.7949
  333SOL     OW 1329   1.737   1.494   3.039  0.1432  0.6398 -0.3136
  333SOL    HW1 1330   1.831   1.481   3.011  0.5844 -1.1232 -2.0327
  333SOL    HW2 1331   1.703   1.420   3.092 -4.0418  2.0964  0.8504
  333SOL     MW 1332   1.745   1.483   3.042 -0.3508  0.5994 -0.3868
  334SOL     OW 1333   1.177   0.007   2.594 -0.5223 -0.4986 -0.2495
  334SOL    HW1 1334   1.108  -0.005   2.664 -2.0670 -0.3531  0.3477
  334SOL    HW2 1335   1.221   0.089   2.621 -0.8725 -1.0344 -0.1226
  334SOL     MW 1336   1.174   0.016   2.607 -0.7723 -0.5501 -0.1540
  335SOL     OW 1337   1.257   0.779   2.938  0.1445 -0.1364  0.1880
  335SOL    HW1 1338   1.296   0.760   3.024 -1.9128 -1.4806 -1.1373
  335SOL    HW2 1339   1.331   0.813   2.880  1.5919  1.0836 -1.6800
  335SOL     MW 1340   1.272   0.781   2.942  0.0641 -0.1528 -0.2334
  336SOL     OW 1341   0.949   1.118   1.855 -0.4474 -0.8836 -0.0931
  336SOL    HW1 1342   0.965   1.191   1.920  1.6832 -1.2222  3.4137
  336SOL    HW2 1343   1.003   1.049   1.884 -0.6530  1.1482  0.7889
  336SOL     MW 1344   0.958   1.119   1.867 -0.1934 -0.6602  0.4860
  337SOL     OW 1345   0.653   1.763   2.841  0.0608 -0.0531 -0.2534
  337SOL    HW1 1346   0.577   1.788   2.786 -1.0888  2.1429  0.2903
  337SOL    HW2 1347   0.685   1.684   2.811 -3.3046  0.6585 -2.9183
  337SOL     MW 1348   0.647   1.756   2.830 -0.5349  0.3306 -0.5332
  338SOL     OW 1349   1.042   0.814   2.590 -0.3183 -0.3979 -0.4056
  338SOL    HW1 1350   0.977   0.836   2.665 -1.3070  1.2210 -0.5484
  338SOL    HW2 1351   1.096   0.748   2.629  3.3839  1.6741 -0.8630
  338SOL     MW 1352   1.040   0.808   2.605  0.0397  0.0891 -0.4848
  339SOL     OW 1353   1.404   1.096   1.867  0.2005  0.1041 -0.3481
  339SOL    HW1 1354   1.386   1.127   1.781 -1.7485  2.8893  0.8664
  339SOL    HW2 1355   1.435   1.176   1.903  0.2989  1.7408  0.0059
  339SOL     MW 1356   1.405   1.110   1.860 -0.0437  0.6875 -0.1411
  340SOL     OW 1357   1.380   1.518   0.074 -0.2471  0.4789  0.4845
  340SOL    HW1 1358   1.379   1.590   0.015 -0.5635  1.0991 -0.7766
  340SOL    HW2 1359   1.451   1.539   0.136 -1.4228  0.1290  0.5868
  340SOL     MW 1360   1.389   1.530   0.075 -0.4440  0.5145  0.3316
  341SOL     OW 1361   0.227   1.272   2.643 -0.3302 -0.7689 -0.2195
  341SOL    HW1 1362   0.244   1.365   2.642 -2.1326  1.2453 -2.2088
  341SOL    HW2 1363   0.164   1.259   2.576  0.9824 -0.2248 -0.0990
  341SOL     MW 1364   0.221   1.283   2.634 -0.3948 -0.4314 -0.4661
  342SOL     OW 1365   1.405   0.256   0.076 -0.0988  0.1328  0.2060
  342SOL    HW1 1366   1.394   0.316   0.147 -0.7412  0.3392 -2.2300
  342SOL    HW2 1367   1.394   0.319   0.008  0.7501 -0.0292  0.3547
  342SOL     MW 1368   1.402   0.273   0.076 -0.0716  0.1387 -0.0958
  343SOL     OW 1369   0.239   0.307   2.255 -0.1564  0.2613  0.2352
  343SOL    HW1 1370   0.269   0.232   2.301  0.1497  2.3842 -0.9356
  343SOL    HW2 1371   0.180   0.272   2.186 -3.0481  0.4695  0.9131
  343SOL     MW 1372   0.235   0.292   2.252 -0.4976  0.5689  0.1702
  344SOL     OW 1373   1.693   2.181   0.079 -0.2516  0.1780  0.2517
  344SOL    HW1 1374   1.719   2.245   0.009 -0.8776  0.5311  2.8503
  344SOL    HW2 1375   1.651   2.105   0.034 -1.4333 -2.2738  1.8059
  344SOL     MW 1376   1.691   2.180   0.064 -0.4901 -0.0989  0.7996
  345SOL     OW 1377   0.650   1.565   2.359  0.4699  0.2467  0.2592
  345SOL    HW1 1378   0.574   1.571   2.296 -0.5957  2.9378  0.2777
  345SOL    HW2 1379   0.727   1.526   2.309  1.1847 -0.1876  0.3339
  345SOL     MW 1380   0.650   1.561   2.344  0.4236  0.5445  0.2715
  346SOL     OW 1381   1.676   1.019   0.001 -0.0526  0.1401  0.4105
  346SOL    HW1 1382   1.771   1.001  -0.008  0.3784  3.1814  0.1087
  346SOL    HW2 1383   1.649   0.966   0.073  1.2838  1.8290  0.8040
  346SOL     MW 1384   1.685   1.010   0.009  0.1806  0.7642  0.4226
  347SOL     OW 1385   1.162   0.661   2.345  0.6635 -0.1871  0.0574
  347SOL    HW1 1386   1.254   0.669   2.377  2.5636 -0.0875  1.7720
  347SOL    HW2 1387   1.102   0.696   2.419 -1.0194 -0.6459  1.5745
  347SOL     MW 1388   1.167   0.667   2.359  0.6921 -0.2345  0.4838
  348SOL     OW 1389   1.306   2.666   1.886  0.1429  0.4448  0.0152
  348SOL    HW1 1390   1.346   2.584   1.904 -3.2504 -0.6540  0.5712
  348SOL    HW2 1391   1.343   2.724   1.950 -0.5785  1.4283  0.2122
  348SOL     MW 1392   1.316   2.663   1.896 -0.4000  0.4296  0.1146
  349SOL     OW 1393   1.317   0.235   2.682  0.2192 -0.7005  0.1709
  349SOL    HW1 1394   1.297   0.291   2.758  0.5613  1.0029 -1.4125
  349SOL    HW2 1395   1.401   0.193   2.707  1.3576 -0.9018  0.7110
  349SOL     MW 1396   1.326   0.237   2.696  0.4145 -0.5023  0.0333
  350SOL     OW 1397   1.909   0.692   2.633 -0.3189 -0.7215  0.2758
  350SOL    HW1 1398   1.872   0.605   2.612  2.2077 -1.1986 -0.4837
  350SOL    HW2 1399   1.986   0.665   2.687  0.8848  1.2431  1.6464
  350SOL     MW 1400   1.914   0.677   2.637  0.1733 -0.5252  0.3565
  351SOL     OW 1401   0.075   0.987   1.551 -0.4273  0.0402  0.3434
  351SOL    HW1 1402   0.009   1.007   1.621  0.1822  0.9933 -0.3642
  351SOL    HW2 1403   0.125   1.073   1.547 -0.2867 -1.8849  2.8428
  351SOL     MW 1404   0.073   1.001   1.560 -0.3283 -0.0880  0.5798
  352SOL     OW 1405   0.826   1.589   2.722  0.1873 -0.3387  0.1985
  352SOL    HW1 1406   0.870   1.555   2.800 -2.4362  0.7897 -0.4317
  352SOL    HW2 1407   0.792   1.514   2.676 -2.3220 -1.0259  0.2687
  352SOL     MW 1408   0.827   1.575   2.726 -0.4899 -0.2805  0.1246
  353SOL     OW 1409   3.062   2.444   2.790  0.9543 -0.4280 -0.1302
  353SOL    HW1 1410   3.140   2.437   2.746 -1.5950  1.9631  1.2118
  353SOL    HW2 1411   3.013   2.521   2.757  0.9310 -1.8714  2.3403
  353SOL     MW 1412   3.066   2.453   2.780  0.6148 -0.3030  0.3728
  354SOL     OW 1413   0.330   2.473   0.885  0.3903  0.0892  0.1420
  354SOL    HW1 1414   0.367   2.438   0.973  2.8020 -1.9877  0.5160
  354SOL    HW2 1415   0.248   2.425   0.863 -0.0366 -0.1798  1.3183
  354SOL     MW 1416   0.324   2.462   0.894  0.6522 -0.2203  0.3465
  355SOL     OW 1417   0.069   2.263   0.373  0.2593  0.4134  0.7296
  355SOL    HW1 1418  -0.005   2.204   0.376 -0.9215 -1.3195 -0.7335
  355SOL    HW2 1419   0.058   2.318   0.451  0.5941  2.8638 -0.4418
  355SOL     MW 1420   0.058   2.262   0.384  0.1477  0.5081  0.3820
  356SOL     OW 1421   0.724   2.930   0.979 -0.2765  0.1003 -0.2574
  356SOL    HW1 1422   0.811   2.915   0.941 -2.9521 -0.2885 -0.0674
  356SOL    HW2 1423   0.669   2.859   0.938 -1.5049 -0.9463 -0.6224
  356SOL     MW 1424   0.728   2.918   0.968 -0.7916 -0.0891 -0.2805
  357SOL     OW 1425   1.772   3.000   0.377  0.1787 -0.0901 -0.3144
  357SOL    HW1 1426   1.728   2.929   0.428 -0.6390 -0.8581  1.3026
  357SOL    HW2 1427   1.859   2.954   0.363  2.8762 -1.2173 -0.7768
  357SOL     MW 1428   1.778   2.984   0.382  0.4267 -0.3402 -0.1620
  358SOL     OW 1429   0.508   0.137   1.025  0.4431  0.0054  0.2256
  358SOL    HW1 1430   0.590   0.134   0.975  2.6148 -0.5345 -1.2265
  358SOL    HW2 1431   0.442   0.175   0.966 -0.1952 -0.5946  0.8225
  358SOL     MW 1432   0.510   0.141   1.010  0.6454 -0.1450  0.1128
  359SOL     OW 1433   0.908   2.724   1.921  0.3014 -0.4834 -0.3034
  359SOL    HW1 1434   0.857   2.646   1.962  3.6559 -1.4843 -1.7691
  359SOL    HW2 1435   0.972   2.683   1.864 -1.1600  0.6247 -0.2569
  359SOL     MW 1436   0.910   2.708   1.919  0.5512 -0.4693 -0.4907
  360SOL     OW 1437   0.508   2.734   0.933 -0.1349 -0.3939 -0.3912
  360SOL    HW1 1438   0.522   2.665   0.870 -3.2350  1.8945 -0.2626
  360SOL    HW2 1439   0.516   2.687   1.018  0.8435 -1.3300 -3.0530
  360SOL     MW 1440   0.511   2.719   0.936 -0.4148 -0.2155 -0.7255
  361SOL     OW 1441   0.177   2.740   1.375 -0.0830  0.1432  0.2305
  361SOL    HW1 1442   0.162   2.816   1.418  1.9425  2.2223 -1.3287
  361SOL    HW2 1443   0.270   2.733   1.390  0.0806 -0.0537 -0.6757
  361SOL     MW 1444   0.187   2.749   1.382  0.2059  0.3916 -0.0948
  362SOL     OW 1445   1.450   2.410   0.629  0.5893 -0.3385  0.2489
  362SOL    HW1 1446   1.462   2.324   0.668 -0.9294 -1.0998 -0.6774
  362SOL    HW2 1447   1.454   2.479   0.692  0.0903  0.2483 -2.0674
  362SOL     MW 1448   1.452   2.408   0.642  0.3231 -0.3615 -0.1790
  363SOL     OW 1449   0.290   3.087   0.697 -0.1373 -0.3483 -0.5199
  363SOL    HW1 1450   0.269   3.014   0.760 -1.6467 -3.4856  3.1130
  363SOL    HW2 1451   0.216   3.095   0.640  2.1356  1.6869 -1.4605
  363SOL     MW 1452   0.278   3.079   0.698 -0.0365 -0.4937 -0.1646
  364SOL     OW 1453   0.758   0.148   0.241 -0.0600 -0.3058  0.0369
  364SOL    HW1 1454   0.717   0.067   0.277 -2.0713  0.7325 -1.7305
  364SOL    HW2 1455   0.687   0.194   0.196 -1.8103  1.3440  2.0260
  364SOL     MW 1456   0.743   0.143   0.240 -0.5563  0.0489  0.0662
  365SOL     OW 1457   1.039   2.004   1.139 -0.0249 -0.3725 -0.2532
  365SOL    HW1 1458   1.018   2.073   1.078  1.0948  3.2074 -1.1888
  365SOL    HW2 1459   0.980   1.939   1.100 -1.5375 -1.4889  0.4888
  365SOL     MW 1460   1.028   2.004   1.126 -0.0767 -0.0475 -0.2787
  366SOL     OW 1461   2.861   2.621   0.985  0.3694  0.1793  0.2089
  366SOL    HW1 1462   2.918   2.649   1.050 -1.4242  1.2681 -2.8364
  366SOL    HW2 1463   2.899   2.657   0.902  0.8011  1.4496 -0.5844
  366SOL     MW 1464   2.873   2.629   0.983  0.1897  0.4905 -0.2976
  367SOL     OW 1465   1.246   2.943   0.836  0.2561  0.1784  0.4543
  367SOL    HW1 1466   1.192   3.011   0.878 -0.1639  1.0821  1.8018
  367SOL    HW2 1467   1.188   2.890   0.783  2.1259  3.0759  2.1105
  367SOL     MW 1468   1.231   2.945   0.835  0.4474  0.6799  0.8506
  368SOL     OW 1469   1.713   0.467   0.659 -0.6478 -0.1802 -0.0558
  368SOL    HW1 1470   1.744   0.378   0.672 -1.3937 -0.7780 -0.4155
  368SOL    HW2 1471   1.795   0.508   0.624  3.2566 -0.8114 -3.0392
  368SOL     MW 1472   1.728   0.460   0.656 -0.2311 -0.3424 -0.4969
  369SOL     OW 1473   0.137   2.451   1.745  0.7325  0.2915  0.1253
  369SOL    HW1 1474   0.219   2.409   1.777  0.9713 -0.5041  1.2904
  369SOL    HW2 1475   0.124   2.543   1.781 -0.1124 -1.9752 -0.5557
  369SOL     MW 1476   0.146   2.457   1.754  0.6526 -0.1125  0.1892
  370SOL     OW 1477   0.730   0.086   0.859 -0.5144  0.0045 -0.1030
  370SOL    HW1 1478   0.777   0.164   0.892 -1.6405  0.2330  1.2506
  370SOL    HW2 1479   0.745   0.009   0.920 -0.4903  1.1006 -1.0834
  370SOL     MW 1480   0.738   0.086   0.872 -0.6598  0.1793 -0.0538
  371SOL     OW 1481   1.387   2.986   1.452  0.3153  0.4434  0.5797
  371SOL    HW1 1482   1.346   2.896   1.443 -3.6848 -2.2746 -2.2449
  371SOL    HW2 1483   1.382   3.029   1.366 -3.1674 -0.8627  1.2101
  371SOL     MW 1484   1.381   2.980   1.439 -0.6720 -0.0875  0.2902
  372SOL     OW 1485   0.774   2.296   0.466  0.1628  0.1632  0.2629
  372SOL    HW1 1486   0.716   2.231   0.497 -1.8998  1.3101 -2.2305
  372SOL    HW2 1487   0.782   2.304   0.372  0.9587 -2.0706  1.0875
  372SOL     MW 1488   0.767   2.289   0.458 -0.0043  0.0198  0.0428
  373SOL     OW 1489   2.816   2.980   1.406 -0.7328  0.5244 -1.0483
  373SOL    HW1 1490   2.885   2.965   1.333  2.5720  1.3040 -2.0044
  373SOL    HW2 1491   2.782   3.060   1.367 -0.8381  0.0290  0.6548
  373SOL     MW 1492   2.821   2.988   1.391 -0.3107  0.5619 -0.9498
  374SOL     OW 1493   1.505   0.480   0.225 -0.7527  0.4799  0.5106
  374SOL    HW1 1494   1.574   0.496   0.161  2.2278 -0.2187 -1.5777
  374SOL    HW2 1495   1.548   0.466   0.311 -1.0246  2.1783  4.2704
  374SOL     MW 1496   1.520   0.481   0.228 -0.3953  0.6118  0.7311
  375SOL     OW 1497   1.115   2.114   2.250  0.4082  0.3277 -0.0150
  375SOL    HW1 1498   1.151   2.139   2.335 -0.4100 -0.3640  0.9204
  375SOL    HW2 1499   1.095   2.022   2.246 -1.6317 -1.0338 -0.4301
  375SOL     MW 1500   1.117   2.105   2.261  0.0311  0.0568  0.0536
  376SOL     OW 1501   0.658   2.547   0.141  0.2492  0.7809  0.5989
  376SOL    HW1 1502   0.719   2.492   0.186 -0.2026 -1.9295 -1.0407
  376SOL    HW2 1503   0.603   2.487   0.088 -2.6225  0.4509  1.0064
  376SOL     MW 1504   0.659   2.532   0.140 -0.1893  0.3798  0.4363
  377SOL     OW 1505   1.298   2.061   0.898  0.1511  0.9082 -0.2423
  377SOL    HW1 1506   1.225   2.038   0.837  0.2918 -0.3826  1.3692
  377SOL    HW2 1507   1.286   2.000   0.963  1.4444  0.7611 -1.9714
  377SOL     MW 1508   1.286   2.050   0.899  0.3403  0.7185 -0.2578
  378SOL     OW 1509   0.992   2.856   1.496  0.3772 -0.5387  0.1803
  378SOL    HW1 1510   0.965   2.765   1.519 -0.2764 -0.1054  0.2728
  378SOL    HW2 1511   0.956   2.867   1.405  0.8574  1.3440 -1.5697
  378SOL     MW 1512   0.983   2.846   1.487  0.3544 -0.2331 -0.0384
  379SOL     OW 1513   1.055   1.829   2.264 -0.4102 -0.3885  0.1873
  379SOL    HW1 1514   0.959   1.837   2.255  0.5572  0.7879  0.7958
  379SOL    HW2 1515   1.064   1.734   2.242 -0.8623  0.1977  1.3161
  379SOL     MW 1516   1.044   1.817   2.260 -0.3422 -0.1559  0.4165
  380SOL     OW 1517   0.924   0.226   1.472 -0.1674  0.4425  0.5426
  380SOL    HW1 1518   0.945   0.173   1.401 -1.0177  0.9937  0.7282
  380SOL    HW2 1519   0.980   0.207   1.546  0.7669 -3.1546  0.3658
  380SOL     MW 1520   0.934   0.217   1.473 -0.1563  0.0406  0.5438
  381SOL     OW 1521   0.841   1.998   0.812  0.0083  0.0005 -0.5348
  381SOL    HW1 1522   0.937   1.985   0.790 -1.8775  0.2812  0.4751
  381SOL    HW2 1523   0.858   2.080   0.868 -0.3115  1.8412  0.5007
  381SOL     MW 1524   0.856   2.007   0.816 -0.2827  0.2804 -0.2649
  382SOL     OW 1525   0.652   0.037   0.615  0.1012 -0.2044 -0.3707
  382SOL    HW1 1526   0.664   0.071   0.702  4.2598 -0.5967  2.1955
  382SOL    HW2 1527   0.652  -0.058   0.624 -1.7456 -0.9602 -1.5661
  382SOL     MW 1528   0.654   0.029   0.627  0.4062 -0.3559 -0.1898
  383SOL     OW 1529   0.519   0.043   0.367 -0.0428 -0.1530 -0.7474
  383SOL    HW1 1530   0.554   0.048   0.458  0.8239  3.0030  0.0216
  383SOL    HW2 1531   0.454  -0.036   0.367  1.6237 -0.0615 -0.3620
  383SOL     MW 1532   0.515   0.033   0.379  0.2914  0.2755 -0.5951
  384SOL     OW 1533   0.632   2.838   0.555 -0.3331  0.1107  0.4039
  384SOL    HW1 1534   0.614   2.757   0.607 -1.2734  0.4226  1.4032
  384SOL    HW2 1535   0.543   2.846   0.508 -0.6449 -1.0823  0.1734
  384SOL     MW 1536   0.618   2.829   0.556 -0.4983 -0.0055  0.5053
  385SOL     OW 1537   1.340   2.048   1.558  0.1905 -0.2507 -0.2055
  385SOL    HW1 1538   1.423   2.070   1.603 -1.1219  0.6483 -1.3404
  385SOL    HW2 1539   1.306   1.963   1.599 -2.8594  2.9609  1.0611
  385SOL     MW 1540   1.347   2.040   1.569 -0.3851  0.2916 -0.1881
  386SOL     OW 1541   1.267   0.421   0.942  0.1023  0.3117  0.2554
  386SOL    HW1 1542   1.181   0.405   0.896  2.1371  0.3060  0.2558
  386SOL    HW2 1543   1.239   0.443   1.030 -0.0829  2.6175 -0.5563
  386SOL     MW 1544   1.252   0.421   0.947  0.3464  0.6152  0.1484
  387SOL     OW 1545   0.854   2.223   1.461 -0.0739 -0.1241 -0.3673
  387SOL    HW1 1546   0.915   2.292   1.422  1.4625  0.1027 -2.4457
  387SOL    HW2 1547   0.883   2.142   1.424 -2.2824 -0.1578  0.2067
  387SOL     MW 1548   0.866   2.221   1.451 -0.1625 -0.0986 -0.5658
  388SOL     OW 1549   1.571   2.848   1.231 -0.1923  0.3008 -0.1973
  388SOL    HW1 1550   1.494   2.843   1.167 -2.3128 -0.4748  1.2419
  388SOL    HW2 1551   1.640   2.786   1.188 -0.9317  0.6817 -1.4135
  388SOL     MW 1552   1.570   2.839   1.217 -0.5697  0.2487 -0.1679
  389SOL     OW 1553   0.466   0.061   3.063 -0.8149  0.2609  0.5566
  389SOL    HW1 1554   0.564   0.068   3.043  1.0043  1.2916 -0.0149
  389SOL    HW2 1555   0.465  -0.009   3.122 -0.0399  1.6260 -0.9244
  389SOL     MW 1556   0.479   0.053   3.068 -0.4726  0.5770  0.2858
  390SOL     OW 1557   1.361   0.110   0.651 -0.3001 -0.1113 -0.2460
  390SOL    HW1 1558   1.442   0.075   0.620  0.4849 -1.5813  1.7786
  390SOL    HW2 1559   1.373   0.143   0.740  0.3867 -1.4581  0.0568
  390SOL     MW 1560   1.373   0.110   0.659 -0.1059 -0.4830  0.0611
  391SOL     OW 1561   0.292   2.287   1.454 -0.5253  0.4100 -0.1414
  391SOL    HW1 1562   0.247   2.213   1.493  2.1210  0.3808 -3.3029
  391SOL    HW2 1563   0.221   2.355   1.457  3.9871 -1.4123 -2.0415
  391SOL     MW 1564   0.276   2.286   1.460  0.4192  0.1657 -0.8092
  392SOL     OW 1565   2.038   2.179   0.261 -0.7551 -0.5989  0.4344
  392SOL    HW1 1566   1.994   2.248   0.305  1.2165 -2.1208 -0.2455
  392SOL    HW2 1567   2.088   2.140   0.327 -0.0977  3.5127  0.9054
  392SOL     MW 1568   2.039   2.183   0.276 -0.4082 -0.2572  0.4069
  393SOL     OW 1569   0.193   3.003   2.934  0.4076  0.4809 -0.0785
  393SOL    HW1 1570   0.262   3.038   2.884 -0.4417  0.5692  2.9159
  393SOL    HW2 1571   0.115   3.028   2.888  2.8479 -2.5502 -0.2014
  393SOL     MW 1572   0.192   3.011   2.921  0.6175  0.0926  0.3004
  394SOL     OW 1573   0.831   1.675   1.485 -0.3977  0.4116 -0.4109
  394SOL    HW1 1574   0.783   1.687   1.574 -2.7073  0.1404  2.4249
  394SOL    HW2 1575   0.847   1.761   1.457 -1.2135 -4.0075 -0.7134
  394SOL     MW 1576   0.827   1.688   1.493 -0.8101 -0.2072 -0.0766
  395SOL     OW 1577   0.915   2.836   2.625  0.0326  0.4277 -0.0215
  395SOL    HW1 1578   0.956   2.918   2.661  2.1706  1.3437  1.5497
  395SOL    HW2 1579   0.975   2.805   2.548 -0.8175 -1.2585 -2.8188
  395SOL     MW 1580   0.929   2.843   2.620  0.2025  0.3260 -0.1833
  396SOL     OW 1581   0.753   1.822   2.380 -0.3544  0.3545  0.1281
  396SOL    HW1 1582   0.802   1.829   2.468  2.6478 -0.4267  2.3257
  396SOL    HW2 1583   0.723   1.732   2.383  0.7431  1.3383  0.5171
  396SOL     MW 1584   0.755   1.811   2.392  0.1865  0.3812  0.4694
  397SOL     OW 1585   1.041   2.347   1.273 -0.0417  0.0477 -0.1337
  397SOL    HW1 1586   1.075   2.373   1.190  1.8122 -1.2277  1.7342
  397SOL    HW2 1587   1.118   2.337   1.333  2.1829 -0.9296  0.7404
  397SOL     MW 1588   1.055   2.349   1.270  0.4964 -0.2495  0.2281
  398SOL     OW 1589   0.575   2.607   0.691 -0.0540  0.2081 -0.4034
  398SOL    HW1 1590   0.502   2.583   0.637  1.8419 -2.2356  3.4746
  398SOL    HW2 1591   0.654   2.552   0.661  0.9350 -1.3879 -1.9317
  398SOL     MW 1592   0.575   2.597   0.680  0.3266 -0.3249 -0.0933
  399SOL     OW 1593   0.236   2.023   0.352  0.1993  0.4995 -0.1361
  399SOL    HW1 1594   0.198   2.107   0.362  0.0577 -1.0049  1.8339
  399SOL    HW2 1595   0.311   2.039   0.283  5.5498 -0.5230 -2.4392
  399SOL     MW 1596   0.241   2.036   0.344  0.8866  0.1661 -0.1800
  400SOL     OW 1597   0.568   1.819   0.208  0.0882  0.0308 -0.3555
  400SOL    HW1 1598   0.528   1.909   0.195  3.8836  0.4717 -2.4346
  400SOL    HW2 1599   0.506   1.763   0.258  0.1033  2.3501  0.9220
  400SOL     MW 1600   0.554   1.823   0.213  0.5910  0.3950 -0.4612
  401SOL     OW 1601   1.007   2.110   0.103  0.2026 -0.1588 -0.4923
  401SOL    HW1 1602   1.037   2.020   0.113  2.5033  2.5365 -1.5183
  401SOL    HW2 1603   1.045   2.156   0.174 -1.9258 -2.0314 -0.5195
  401SOL     MW 1604   1.016   2.104   0.114  0.2253 -0.0503 -0.6313
  402SOL     OW 1605   0.683   2.678   1.738 -0.4595  0.6349 -0.2413
  402SOL    HW1 1606   0.597   2.712   1.760  1.7906 -0.4403  0.6771
  402SOL    HW2 1607   0.746   2.724   1.792 -1.1760 -0.4367 -3.8140
  402SOL     MW 1608   0.680   2.688   1.748 -0.2571  0.3516 -0.5915
  403SOL     OW 1609   0.077   0.566   0.337 -0.1041  0.2458  0.3918
  403SOL    HW1 1610   0.126   0.575   0.417  0.8628  1.8485 -0.7411
  403SOL    HW2 1611   0.138   0.514   0.280 -0.8509  1.0493  2.7853
  403SOL     MW 1612   0.091   0.560   0.340 -0.0750  0.5633  0.5581
  404SOL     OW 1613   0.971   2.903   0.877  0.5424  0.3379  0.2430
  404SOL    HW1 1614   1.007   2.827   0.836 -3.8434  1.4038 -0.5407
  404SOL    HW2 1615   0.966   2.970   0.809  1.2075 -0.6004  0.2584
  404SOL     MW 1616   0.975   2.902   0.863  0.0515  0.3547  0.1416
  405SOL     OW 1617   0.445   2.463   1.586 -0.1317 -0.1381 -0.1929
  405SOL    HW1 1618   0.462   2.539   1.524 -0.2692 -3.2305 -0.2293
  405SOL    HW2 1619   0.413   2.397   1.532  2.1723 -1.0273  0.9270
  405SOL     MW 1620   0.443   2.464   1.570  0.1542 -0.6634 -0.0499
  406SOL     OW 1621   0.406   2.408   1.151  0.2990  0.2156  0.4845
  406SOL    HW1 1622   0.311   2.420   1.158  1.5076 -0.5963 -0.0610
  406SOL    HW2 1623   0.432   2.327   1.187  0.8102  3.0428 -1.3806
  406SOL     MW 1624   0.397   2.399   1.157  0.5259  0.4815  0.1664
  407SOL     OW 1625   3.065   2.737   1.165  0.0960 -0.4141  0.2431
  407SOL    HW1 1626   3.117   2.746   1.250  0.4238  1.1254  1.4512
  407SOL    HW2 1627   3.136   2.734   1.103 -0.8696 -0.3634 -0.8674
  407SOL     MW 1628   3.081   2.738   1.168  0.0119 -0.2043  0.2560
  408SOL     OW 1629   2.096   2.039   0.517 -0.4218  0.6508  0.9917
  408SOL    HW1 1630   2.086   2.078   0.604  0.4117  2.0062  1.0932
  408SOL    HW2 1631   2.026   1.973   0.503 -1.6218 -1.3059 -2.2423
  408SOL     MW 1632   2.086   2.036   0.527 -0.4702  0.5715  0.5784
  409SOL     OW 1633   1.424   0.165   0.930  0.0110  0.2614 -0.8142
  409SOL    HW1 1634   1.439   0.244   0.980  1.4615  1.3904 -0.8524
  409SOL    HW2 1635   1.503   0.105   0.922 -0.1809 -2.3058  1.5336
  409SOL     MW 1636   1.437   0.168   0.936  0.1770  0.0716 -0.5095
  410SOL     OW 1637   1.071   2.517   1.047 -0.0536 -0.0072 -0.1957
  410SOL    HW1 1638   0.987   2.533   1.000  0.1261 -2.0191  2.4464
  410SOL    HW2 1639   1.132   2.468   0.990  0.7050 -3.3862 -0.8282
  410SOL     MW 1640   1.068   2.513   1.034  0.0702 -0.7185  0.0694
  411SOL     OW 1641   1.938   0.086   2.876  0.3254  0.0465 -0.0713
  411SOL    HW1 1642   1.889   0.059   2.799 -1.5578  2.2575  0.9539
  411SOL    HW2 1643   1.866   0.113   2.932  0.4457 -1.7402 -3.0152
  411SOL     MW 1644   1.922   0.086   2.873  0.0928  0.1025 -0.3244
  412SOL     OW 1645   1.012   2.231   0.583  0.3114  0.0347 -0.3592
  412SOL    HW1 1646   1.074   2.306   0.604 -1.7430 -1.5644 -2.3184
  412SOL    HW2 1647   0.925   2.278   0.572  0.0338  1.2989  0.3097
  412SOL     MW 1648   1.009   2.247   0.584  0.0037 -0.0095 -0.5295
  413SOL     OW 1649   0.530   2.789   0.070  0.6245 -0.3191  1.0385
  413SOL    HW1 1650   0.611   2.735   0.094  1.8197 -2.7930  1.3716
  413SOL    HW2 1651   0.557   2.821  -0.020 -0.4556 -0.7578  1.2627
  413SOL     MW 1652   0.545   2.786   0.061  0.6397 -0.7034  1.1120
  414SOL     OW 1653   2.011   3.014   1.007 -0.5663  0.0508  0.2058
  414SOL    HW1 1654   1.949   2.976   0.945  3.4837  2.0278 -1.2342
  414SOL    HW2 1655   2.083   2.950   0.997  0.3803  0.6963  1.4421
  414SOL     MW 1656   2.012   3.001   0.997  0.0929  0.3968  0.1789
  415SOL     OW 1657   1.730   2.666   1.111  0.0453  0.0234 -0.0285
  415SOL    HW1 1658   1.664   2.606   1.158 -0.7966 -0.2206  1.4502
  415SOL    HW2 1659   1.818   2.657   1.160 -0.3623  0.2290 -0.0283
  415SOL     MW 1660   1.733   2.657   1.123 -0.1196  0.0184  0.1666
  416SOL     OW 1661   0.566   1.937   1.395 -0.0428  0.0711 -0.0110
  416SOL    HW1 1662   0.554   2.028   1.359  0.1127 -0.9765  0.6519
  416SOL    HW2 1663   0.586   1.879   1.318 -1.5690 -1.1759  1.3592
  416SOL     MW 1664   0.567   1.942   1.380 -0.2237 -0.2316  0.2572
  417SOL     OW 1665   1.055   2.983   2.027  0.4129  0.3221 -0.3790
  417SOL    HW1 1666   1.000   2.978   2.110 -0.0295 -0.2232 -1.7537
  417SOL    HW2 1667   1.021   2.906   1.983  0.8481  0.2514 -1.7769
  417SOL     MW 1668   1.043   2.972   2.032  0.4120  0.2408 -0.7448
  418SOL     OW 1669   0.717   2.970   0.171  0.0046 -0.7034  0.3856
  418SOL    HW1 1670   0.753   2.947   0.081  1.0303  2.5877 -1.9330
  418SOL    HW2 1671   0.640   2.915   0.181 -0.2406  0.2122  0.2470
  418SOL     MW 1672   0.711   2.960   0.161  0.1076 -0.1484  0.0614
  419SOL     OW 1673   0.463   2.687   1.406  0.2337 -0.3535 -0.0520
  419SOL    HW1 1674   0.528   2.749   1.424 -0.3046 -0.3747 -0.5292
  419SOL    HW2 1675   0.476   2.664   1.315 -4.1974 -0.1477  0.9790
  419SOL     MW 1676   0.473   2.693   1.396 -0.4220 -0.3291  0.0211
  420SOL     OW 1677   0.917   2.216   0.959  0.4145 -0.0565  0.8351
  420SOL    HW1 1678   0.843   2.209   1.022 -1.8104  2.0802 -2.2173
  420SOL    HW2 1679   0.900   2.306   0.928 -3.8299  0.0710  1.5599
  420SOL     MW 1680   0.905   2.227   0.963 -0.4391  0.2423  0.5280
  421SOL     OW 1681   2.939   0.094   0.099  0.0793  0.2961 -0.6861
  421SOL    HW1 1682   2.888   0.082   0.025 -2.7231 -0.0107  1.0727
  421SOL    HW2 1683   2.950   0.011   0.143 -1.7413  3.2216  0.0460
  421SOL     MW 1684   2.934   0.082   0.095 -0.5306  0.6416 -0.3575
  422SOL     OW 1685   0.828   2.504   0.908  0.2030  0.0706 -0.2402
  422SOL    HW1 1686   0.742   2.535   0.932  1.1283  0.5291 -1.1720
  422SOL    HW2 1687   0.841   2.543   0.813  1.1386  1.5311 -1.5512
  422SOL     MW 1688   0.818   2.513   0.899  0.4486  0.3238 -0.5361
  423SOL     OW 1689   1.622   0.092   0.524 -0.0226 -0.0154  0.3106
  423SOL    HW1 1690   1.649   0.043   0.448 -1.5423  1.1872 -1.4632
  423SOL    HW2 1691   1.612   0.183   0.494  1.5519 -0.5945  1.4393
  423SOL     MW 1692   1.624   0.098   0.510 -0.0153  0.0669  0.2254
  424SOL     OW 1693   0.739   2.175   1.184  0.1081  0.1891  0.3798
  424SOL    HW1 1694   0.641   2.187   1.204  0.0104 -0.0923 -0.0735
  424SOL    HW2 1695   0.786   2.202   1.265 -1.7486 -2.3534 -1.0932
  424SOL     MW 1696   0.732   2.181   1.197 -0.1498 -0.1835  0.1257
  425SOL     OW 1697   1.755   2.796   2.062 -0.3305  0.1121 -0.0483
  425SOL    HW1 1698   1.760   2.806   1.967 -0.5004 -0.9464  0.5793
  425SOL    HW2 1699   1.756   2.699   2.078 -1.6062 -0.9025  1.4738
  425SOL     MW 1700   1.756   2.785   2.051 -0.5213 -0.1614  0.2353
  426SOL     OW 1701   0.764   1.647   1.918  0.0318  0.0963  0.1656
  426SOL    HW1 1702   0.701   1.652   1.839 -0.7121 -0.0580  0.2710
  426SOL    HW2 1703   0.763   1.733   1.966  0.1134  0.6322 -0.2960
  426SOL     MW 1704   0.756   1.659   1.914 -0.0556  0.1467  0.1186
  427SOL     OW 1705   0.392   1.550   1.886  0.2435 -0.0654 -1.2395
  427SOL    HW1 1706   0.404   1.467   1.840 -0.6485  3.3650  0.4431
  427SOL    HW2 1707   0.299   1.549   1.908 -0.8386  1.8526 -2.1648
  427SOL     MW 1708   0.382   1.539   1.883 -0.0170  0.6402 -1.1396
  428SOL     OW 1709   0.593   2.592   1.167  0.2193 -0.2016  0.4450
  428SOL    HW1 1710   0.669   2.553   1.214 -0.0038  1.1205  0.1678
  428SOL    HW2 1711   0.524   2.522   1.165  1.2130 -0.2462  1.9208
  428SOL     MW 1712   0.594   2.578   1.173  0.3210 -0.0330  0.6031
  429SOL     OW 1713   1.387   2.815   1.051 -0.0240 -0.6320  0.2441
  429SOL    HW1 1714   1.305   2.771   1.093  0.0244 -2.6536  0.1554
  429SOL    HW2 1715   1.350   2.877   0.991 -0.8973 -1.9441 -0.0397
  429SOL     MW 1716   1.371   2.817   1.049 -0.1328 -1.0718  0.1950
  430SOL     OW 1717   1.123   2.720   0.696  0.2972  0.0119 -0.0868
  430SOL    HW1 1718   1.172   2.643   0.714  1.6587  0.5804 -2.1919
  430SOL    HW2 1719   1.081   2.698   0.617  1.7450 -0.6332 -0.0489
  430SOL     MW 1720   1.124   2.707   0.688  0.6678  0.0018 -0.3595
  431SOL     OW 1721   0.393   2.033   1.104  0.1916 -0.0077  0.9448
  431SOL    HW1 1722   0.458   1.959   1.089 -0.3510  1.0222  4.1101
  431SOL    HW2 1723   0.351   2.070   1.024  0.9888 -2.4179  2.0615
  431SOL     MW 1724   0.396   2.028   1.091  0.2252 -0.1898  1.5097
  432SOL     OW 1725   0.083   0.047   1.179  0.6730 -0.5960 -0.8004
  432SOL    HW1 1726   0.077   0.097   1.271  0.3447 -0.3437  1.7176
  432SOL    HW2 1727   0.003  -0.015   1.174  0.9547 -1.0401  0.4876
  432SOL     MW 1728   0.072   0.046   1.190  0.6668 -0.6213 -0.2982
  433SOL     OW 1729   0.670   2.909   1.447  0.0114 -0.6456  0.1980
  433SOL    HW1 1730   0.715   2.888   1.525  1.0446  2.4652  1.5000
  433SOL    HW2 1731   0.728   2.893   1.371 -2.0776  1.2907 -0.2065
  433SOL     MW 1732   0.684   2.904   1.448 -0.1279  0.0203  0.3164
  434SOL     OW 1733   1.620   2.866   1.519 -0.2962 -0.4691 -0.0900
  434SOL    HW1 1734   1.542   2.914   1.487  0.3596  2.7795  1.5767
  434SOL    HW2 1735   1.664   2.837   1.436 -0.0198 -0.0788  1.9231
  434SOL     MW 1736   1.616   2.868   1.504 -0.1732  0.0110  0.3955
  435SOL     OW 1737   2.829   1.798   0.279  0.2886 -0.1171 -0.7331
  435SOL    HW1 1738   2.873   1.861   0.220  0.6203  0.7106 -1.7253
  435SOL    HW2 1739   2.800   1.733   0.217  1.0008  0.7645  1.5175
  435SOL     MW 1740   2.831   1.797   0.263  0.4264  0.1084 -0.5671
  436SOL     OW 1741   1.478   2.800   0.317 -0.4675  0.5111 -0.0679
  436SOL    HW1 1742   1.541   2.787   0.394 -0.4877 -2.5781 -0.4895
  436SOL    HW2 1743   1.419   2.871   0.355 -1.7504 -1.6238  2.2891
  436SOL     MW 1744   1.478   2.808   0.332 -0.6394 -0.1781  0.1875
  437SOL     OW 1745   0.854   2.913   1.235 -0.2100  1.0337  0.1377
  437SOL    HW1 1746   0.887   3.008   1.234  2.3174  0.3355  0.7674
  437SOL    HW2 1747   0.803   2.920   1.154 -3.4097  1.2931 -0.9633
  437SOL     MW 1748   0.852   2.926   1.224 -0.2987  0.9758  0.0755
  438SOL     OW 1749   0.816   2.499   2.079 -0.3026  0.2613  0.0277
  438SOL    HW1 1750   0.819   2.448   2.159 -0.1674  1.6337 -2.5500
  438SOL    HW2 1751   0.742   2.461   2.034  1.4791  0.1627 -0.0076
  438SOL     MW 1752   0.807   2.487   2.084 -0.0497  0.4294 -0.3171
  439SOL     OW 1753   1.130   2.186   0.340  0.2728  0.1148 -0.4750
  439SOL    HW1 1754   1.072   2.185   0.423  0.9999  0.2689 -1.3562
  439SOL    HW2 1755   1.141   2.279   0.314 -0.1579  1.6918 -0.6592
  439SOL     MW 1756   1.124   2.198   0.347  0.3119  0.3432 -0.6156
  440SOL     OW 1757   1.624   3.049   2.985 -0.4212 -0.8743  0.4047
  440SOL    HW1 1758   1.602   3.014   3.070  2.3652  1.0961  0.1539
  440SOL    HW2 1759   1.691   2.991   2.946  0.0788  0.7163 -0.3543
  440SOL     MW 1760   1.630   3.037   2.991  0.0124 -0.4044  0.2715
  441SOL     OW 1761   0.353   2.642   0.507 -0.2929 -0.3385  0.5788
  441SOL    HW1 1762   0.345   2.599   0.420  0.3418  1.7333  1.9023
  441SOL    HW2 1763   0.351   2.735   0.486 -0.1148 -0.0430 -2.8346
  441SOL     MW 1764   0.352   2.649   0.493 -0.1856 -0.0262  0.3031
  442SOL     OW 1765   3.105   2.368   0.611  0.1130 -0.3573 -0.0699
  442SOL    HW1 1766   3.102   2.470   0.608  0.4670  1.8985 -3.7317
  442SOL    HW2 1767   3.016   2.335   0.630 -0.8344  0.8802 -1.1924
  442SOL     MW 1768   3.093   2.377   0.613  0.0347  0.1036 -0.7012
  443SOL     OW 1769   1.423   1.695   1.921  0.0210  0.6634 -0.2678
  443SOL    HW1 1770   1.375   1.746   1.859  2.5961 -1.6243  2.4441
  443SOL    HW2 1771   1.366   1.630   1.961 -0.9036 -2.1487  1.9321
  443SOL     MW 1772   1.409   1.693   1.918  0.2388 -0.0095  0.3803
  444SOL     OW 1773   0.885   2.607   1.562 -0.6920 -0.2263  0.2714
  444SOL    HW1 1774   0.941   2.579   1.632  1.1701  0.0595  1.3580
  444SOL    HW2 1775   0.802   2.612   1.605  3.6771  0.6622 -0.4999
  444SOL     MW 1776   0.881   2.604   1.577  0.1301 -0.0714  0.3130
  445SOL     OW 1777   0.952   0.057   1.247  0.2342 -0.5407  0.5000
  445SOL    HW1 1778   0.898   0.137   1.217 -0.9170  2.4059  0.4740
  445SOL    HW2 1779   1.033   0.077   1.200  1.5620  1.6715 -1.5555
  445SOL     MW 1780   0.955   0.070   1.237  0.2575  0.1399  0.2253
  446SOL     OW 1781   2.723   2.850   1.057 -0.1782  0.1269 -0.1909
  446SOL    HW1 1782   2.700   2.878   0.967 -0.2668  0.3511  0.8904
  446SOL    HW2 1783   2.742   2.754   1.044 -0.2778  0.6583 -1.4604
  446SOL     MW 1784   2.722   2.841   1.044 -0.2030  0.2266 -0.2158
  447SOL     OW 1785   3.022   2.028   1.677  0.2149  0.6035 -0.0682
  447SOL    HW1 1786   3.072   1.964   1.736 -0.7166  1.0282  1.2166
  447SOL    HW2 1787   2.965   1.971   1.620 -1.5402  1.1098 -0.9334
  447SOL     MW 1788   3.021   2.012   1.677 -0.1396  0.7263 -0.0128
  448SOL     OW 1789   1.683   2.387   1.683 -0.0641  0.1506  0.0400
  448SOL    HW1 1790   1.605   2.331   1.681  1.3389  0.0523 -1.1398
  448SOL    HW2 1791   1.650   2.478   1.664 -0.7427  1.0194 -0.5166
  448SOL     MW 1792   1.668   2.392   1.680  0.0315  0.2523 -0.1891
  449SOL     OW 1793   0.850   2.883   0.390 -0.4428  0.6327 -0.1677
  449SOL    HW1 1794   0.818   2.886   0.296 -1.6831 -2.2158  0.6979
  449SOL    HW2 1795   0.777   2.871   0.450  1.2414  2.2551 -0.1673
  449SOL     MW 1796   0.836   2.882   0.386 -0.3842  0.4709 -0.0534
  450SOL     OW 1797   1.192   2.434   0.636  0.0659  0.0853 -0.4489
  450SOL    HW1 1798   1.189   2.426   0.729 -0.9505 -2.7767  0.6904
  450SOL    HW2 1799   1.287   2.437   0.612  0.9962 -0.8353 -0.9705
  450SOL     MW 1800   1.204   2.434   0.645  0.0546 -0.4138 -0.3674
  451SOL     OW 1801   0.631   1.931   1.645 -0.0955  0.6710 -0.1314
  451SOL    HW1 1802   0.694   1.995   1.672 -0.3475 -0.4709 -2.3583
  451SOL    HW2 1803   0.635   1.927   1.548  0.1018  1.3678 -0.4256
  451SOL     MW 1804   0.640   1.939   1.636 -0.1027  0.6123 -0.4640
  452SOL     OW 1805   0.318   2.646   0.022 -0.3069  0.4623 -0.3576
  452SOL    HW1 1806   0.403   2.698   0.029  1.6739 -0.5293 -0.7367
  452SOL    HW2 1807   0.298   2.641  -0.069 -0.1497  0.4767 -0.1685
  452SOL     MW 1808   0.326   2.652   0.011 -0.0248  0.3334 -0.3827
  453SOL     OW 1809   0.409   3.009   1.663  0.2374 -0.7427 -0.5442
  453SOL    HW1 1810   0.488   3.056   1.623 -0.3124  0.0909  1.5607
  453SOL    HW2 1811   0.338   3.009   1.597  0.1734 -0.5008  0.5794
  453SOL     MW 1812   0.410   3.015   1.649  0.1564 -0.6008 -0.1182
  454SOL     OW 1813   1.147   2.755   1.159 -0.4837 -0.1237  0.1478
  454SOL    HW1 1814   1.097   2.682   1.116 -0.1304 -0.5607 -1.2476
  454SOL    HW2 1815   1.094   2.831   1.156  0.4936  0.3791  1.2854
  454SOL     MW 1816   1.134   2.756   1.153 -0.3082 -0.1150  0.1138
  455SOL     OW 1817   1.623   2.942   0.135  0.4470  0.2732  0.1298
  455SOL    HW1 1818   1.712   2.950   0.168 -0.3163  0.9592  0.9582
  455SOL    HW2 1819   1.585   2.881   0.195  1.3829 -0.5684 -0.8368
  455SOL     MW 1820   1.630   2.935   0.148  0.4698  0.2527  0.1116
  456SOL     OW 1821   2.851   0.312   1.387  0.5075 -0.2291 -0.0191
  456SOL    HW1 1822   2.808   0.234   1.356  0.6832 -1.0299  1.3536
  456SOL    HW2 1823   2.904   0.348   1.310  0.7826  0.9600  1.5406
  456SOL     MW 1824   2.852   0.306   1.373  0.5670 -0.1778  0.3678
  457SOL     OW 1825   0.931   1.521   2.960  0.5869  0.6558  0.3017
  457SOL    HW1 1826   0.863   1.507   3.032  0.8920 -1.3262  1.6405
  457SOL    HW2 1827   1.005   1.468   2.984 -1.3611 -0.5307 -0.7646
  457SOL     MW 1828   0.932   1.512   2.973  0.3701  0.2377  0.3377
  458SOL     OW 1829   1.434   1.335   0.650  0.3400  0.6813 -0.4083
  458SOL    HW1 1830   1.363   1.383   0.704 -0.2949 -0.1787 -1.6855
  458SOL    HW2 1831   1.382   1.287   0.584 -0.3751  0.6750 -1.3347
  458SOL     MW 1832   1.418   1.335   0.648  0.1619  0.5670 -0.6990
  459SOL     OW 1833   1.613   0.107   0.205  0.3898 -0.5169 -0.0055
  459SOL    HW1 1834   1.599   0.011   0.204 -1.3751  2.5149  1.9185
  459SOL    HW2 1835   1.544   0.146   0.148 -1.9925  0.6968  1.8140
  459SOL     MW 1836   1.602   0.099   0.197 -0.1574  0.0432  0.4884
  460SOL     OW 1837   1.750   2.159   0.626 -0.7349  0.2993  0.0594
  460SOL    HW1 1838   1.672   2.173   0.673  1.9544  0.1654 -1.6539
  460SOL    HW2 1839   1.758   2.079   0.569  3.1928  1.1691 -0.3061
  460SOL     MW 1840   1.740   2.150   0.625  0.1381  0.3964 -0.2148
  461SOL     OW 1841   0.362   2.316   0.645  0.4264  0.0835  0.3196
  461SOL    HW1 1842   0.284   2.352   0.611 -1.9860  2.5113  1.8585
  461SOL    HW2 1843   0.387   2.363   0.725 -0.6139 -0.0268  1.4087
  461SOL     MW 1844   0.355   2.327   0.651 -0.0291  0.3893  0.6664
  462SOL     OW 1845   0.408   0.246   1.364 -0.3352 -0.0882 -0.0388
  462SOL    HW1 1846   0.433   0.156   1.346  0.1766  2.0463  1.1729
  462SOL    HW2 1847   0.497   0.296   1.353  0.6726  0.3099 -0.2098
  462SOL     MW 1848   0.423   0.241   1.360 -0.1347  0.2460  0.0985
  463SOL     OW 1849   0.962   3.081   0.674 -0.5534  0.1871 -0.3195
  463SOL    HW1 1850   1.011   3.078   0.589  0.0396 -1.1498  0.5838
  463SOL    HW2 1851   0.874   3.082   0.633  0.1781 -1.0117 -0.2943
  463SOL     MW 1852   0.957   3.081   0.658 -0.3787 -0.1474 -0.1970
  464SOL     OW 1853   0.872   2.988   2.223  0.2405  0.1278 -1.0260
  464SOL    HW1 1854   0.823   2.905   2.225 -2.3983 -2.7598  0.1476
  464SOL    HW2 1855   0.872   3.017   2.314  0.7136 -2.8624 -1.6165
  464SOL     MW 1856   0.866   2.981   2.236 -0.0453 -0.6477 -0.9491
  465SOL     OW 1857   0.702   0.294   0.481 -0.4383 -0.7647  0.0653
  465SOL    HW1 1858   0.694   0.222   0.548  1.3295 -0.4877  2.3137
  465SOL    HW2 1859   0.730   0.254   0.396  1.9889  0.4402  0.5685
  465SOL     MW 1860   0.704   0.280   0.479  0.1152 -0.5692  0.4284
  466SOL     OW 1861   1.096   2.005   0.742  0.2884 -0.2866 -0.0915
  466SOL    HW1 1862   1.099   1.940   0.674  0.3404  2.3989  1.0418
  466SOL    HW2 1863   1.061   2.079   0.694  2.3919 -0.7326 -0.3075
  466SOL     MW 1864   1.091   2.006   0.727  0.5728  0.0089  0.0296
  467SOL     OW 1865   1.253   2.355   0.907  0.0153  0.6398  0.4640
  467SOL    HW1 1866   1.344   2.384   0.887  0.2917 -4.3716 -0.6812
  467SOL    HW2 1867   1.263   2.263   0.923  3.6617 -0.2813  2.8843
  467SOL     MW 1868   1.266   2.347   0.907  0.5329 -0.1429  0.6323
  468SOL     OW 1869   0.329   2.610   2.012 -0.1736  0.4465 -0.1055
  468SOL    HW1 1870   0.348   2.527   1.967 -0.7618  1.8042 -1.7439
  468SOL    HW2 1871   0.369   2.674   1.949  1.1328 -2.3450 -2.4117
  468SOL     MW 1872   0.337   2.607   1.998 -0.0788  0.2573 -0.6260
  469SOL     OW 1873   0.414   2.077   1.756  0.4312 -0.2152  0.4327
  469SOL    HW1 1874   0.360   2.045   1.685  1.1048 -1.5597  0.7419
  469SOL    HW2 1875   0.496   2.027   1.731  0.0965 -0.8449 -0.0177
  469SOL     MW 1876   0.418   2.066   1.743  0.4759 -0.4757  0.4141
  470SOL     OW 1877   3.095   2.604   0.209 -0.4309  0.3200 -0.0503
  470SOL    HW1 1878   3.023   2.550   0.236 -2.1139  2.1098 -1.4674
  470SOL    HW2 1879   3.089   2.593   0.116 -0.2117  3.2931  0.5737
  470SOL     MW 1880   3.085   2.596   0.200 -0.6240  0.9484 -0.1550
  471SOL     OW 1881   1.229   2.744   1.437 -0.1180 -0.1557  0.3693
  471SOL    HW1 1882   1.146   2.788   1.460 -1.4963 -1.0866  0.7696
  471SOL    HW2 1883   1.225   2.752   1.345 -0.1315 -0.0643 -0.5159
  471SOL     MW 1884   1.217   2.751   1.428 -0.3017 -0.2665  0.3054
  472SOL     OW 1885   2.952   2.091   0.404 -0.0133  0.5650 -0.0811
  472SOL    HW1 1886   2.953   2.065   0.312 -0.1218  1.4150  2.7627
  472SOL    HW2 1887   2.951   2.017   0.466  0.1324 -0.8936 -0.0613
  472SOL     MW 1888   2.952   2.078   0.400 -0.0084  0.4847  0.2968
  473SOL     OW 1889   0.812   2.514   1.304 -0.9206  0.4114  0.2707
  473SOL    HW1 1890   0.896   2.473   1.276 -0.4204 -1.1750 -0.9735
  473SOL    HW2 1891   0.813   2.520   1.400 -0.2538  0.9928  1.5350
  473SOL     MW 1892   0.823   2.509   1.313 -0.7666  0.2788  0.2734
  474SOL     OW 1893   0.842   2.112   1.725 -0.0674  0.6427  0.0414
  474SOL    HW1 1894   0.919   2.095   1.766 -1.8328  0.1833 -0.0935
  474SOL    HW2 1895   0.858   2.169   1.649 -0.7871 -0.1574 -0.3869
  474SOL     MW 1896   0.854   2.117   1.721 -0.3952  0.4765 -0.0329
  475SOL     OW 1897   1.681   0.008   1.340 -0.2226 -0.4327  0.8800
  475SOL    HW1 1898   1.610   0.042   1.279 -0.0064 -1.9203 -1.2870
  475SOL    HW2 1899   1.643  -0.074   1.368 -0.4031 -0.7506  1.3011
  475SOL     MW 1900   1.667   0.002   1.336 -0.2179 -0.6710  0.6497
  476SOL     OW 1901   1.460   2.615   0.829  0.3374 -0.4350 -0.6326
  476SOL    HW1 1902   1.447   2.654   0.920 -2.2224  3.1250  0.5287
  476SOL    HW2 1903   1.506   2.689   0.785  0.0356  0.9145 -1.0721
  476SOL     MW 1904   1.464   2.630   0.835 -0.0402  0.2128 -0.5373
  477SOL     OW 1905   0.823   2.528   0.609 -0.2762 -0.6341 -0.0267
  477SOL    HW1 1906   0.887   2.569   0.559 -1.0391 -3.6807 -0.3443
  477SOL    HW2 1907   0.805   2.450   0.550  2.1092  0.5981 -1.0976
  477SOL     MW 1908   0.829   2.523   0.595 -0.0621 -0.8735 -0.2099
  478SOL     OW 1909   0.159   2.680   0.982  0.4581 -0.7428  0.4508
  478SOL    HW1 1910   0.186   2.761   0.944  2.2732 -0.7838  0.3311
  478SOL    HW2 1911   0.229   2.619   0.964 -0.7156 -0.5718  0.5211
  478SOL     MW 1912   0.172   2.683   0.975  0.5427 -0.7256  0.4443
  479SOL     OW 1913   1.467   1.934   1.313 -0.3107 -0.2680  0.0566
  479SOL    HW1 1914   1.409   1.962   1.384  0.8094 -1.1463 -1.0012
  479SOL    HW2 1915   1.532   1.876   1.359 -0.0368  1.9633 -0.9217
  479SOL     MW 1916   1.468   1.930   1.329 -0.1268 -0.0895 -0.2120
  480SOL     OW 1917   1.847   2.427   1.358 -0.2153 -0.2434 -0.1136
  480SOL    HW1 1918   1.857   2.351   1.419 -2.6880  0.8261 -1.2944
  480SOL    HW2 1919   1.897   2.401   1.282 -1.9269  2.5304 -0.4105
  480SOL     MW 1920   1.855   2.413   1.356 -0.7674  0.2637 -0.3085
  481SOL     OW 1921   1.163   0.157   1.083 -0.4443 -0.2866  0.1125
  481SOL    HW1 1922   1.228   0.156   1.015 -1.2191 -0.1058 -1.4649
  481SOL    HW2 1923   1.163   0.251   1.115  1.1921  0.5616 -0.8356
  481SOL     MW 1924   1.171   0.169   1.078 -0.3306 -0.1508 -0.2207
  482SOL     OW 1925   1.059   3.041   0.437  0.0197  0.4176  0.1660
  482SOL    HW1 1926   0.993   2.977   0.412  2.0841 -1.0231  0.0367
  482SOL    HW2 1927   1.018   3.126   0.415  0.0232 -0.8869 -0.5422
  482SOL     MW 1928   1.045   3.044   0.431  0.2925  0.0554  0.0555
  483SOL     OW 1929   0.387   2.922   0.484 -0.1674  0.0044  0.1042
  483SOL    HW1 1930   0.317   2.959   0.427  0.0595 -1.9643  5.7310
  483SOL    HW2 1931   0.373   2.969   0.565 -0.6711 -3.1795  0.3757
  483SOL     MW 1932   0.376   2.933   0.487 -0.2039 -0.6754  0.8824
  484SOL     OW 1933   1.688   1.823   1.448 -0.3138  0.3637  0.2744
  484SOL    HW1 1934   1.749   1.891   1.414 -1.6615  2.1423 -1.6771
  484SOL    HW2 1935   1.680   1.843   1.542 -0.7384 -0.0899 -0.6119
  484SOL     MW 1936   1.695   1.835   1.456 -0.5477  0.5385 -0.1000
  485SOL     OW 1937   0.429   2.319   0.323  1.2618 -0.4418 -0.3932
  485SOL    HW1 1938   0.425   2.326   0.417 -2.3175 -0.8420 -0.9433
  485SOL    HW2 1939   0.371   2.383   0.281  1.1711 -1.0841  3.1005
  485SOL     MW 1940   0.420   2.328   0.330  0.7776 -0.5793 -0.0048
  486SOL     OW 1941   0.104   2.475   1.473 -0.0778  0.4946 -0.0774
  486SOL    HW1 1942   0.130   2.558   1.434 -3.0537  0.9646 -0.7998
  486SOL    HW2 1943   0.132   2.483   1.567  3.0689  1.7653  2.3961
  486SOL     MW 1944   0.111   2.487   1.480 -0.0553  0.7243  0.1536
  487SOL     OW 1945   1.304   1.554   1.117  0.2494  0.1938  0.2931
  487SOL    HW1 1946   1.298   1.648   1.110  1.2003  0.6949  0.8093
  487SOL    HW2 1947   1.397   1.537   1.082  2.0284  0.5922 -0.2625
  487SOL     MW 1948   1.316   1.564   1.111  0.6096  0.3125  0.2879
  488SOL     OW 1949   1.428   1.787   0.588 -0.5345  0.2920 -0.3568
  488SOL    HW1 1950   1.420   1.874   0.548  0.5263  0.9515 -0.6030
  488SOL    HW2 1951   1.358   1.736   0.554  0.8328 -2.1807  1.2342
  488SOL     MW 1952   1.418   1.792   0.578 -0.2142  0.0528 -0.1793
  489SOL     OW 1953   0.704   0.666   0.476 -0.1718 -0.0424  0.4680
  489SOL    HW1 1954   0.641   0.615   0.421 -0.3442 -1.7246  1.1596
  489SOL    HW2 1955   0.655   0.692   0.555  0.7098  0.6320 -0.4647
  489SOL     MW 1956   0.690   0.663   0.480 -0.0783 -0.1754  0.4362
  490SOL     OW 1957   1.362   2.082   0.439 -0.3937  0.5760  1.1056
  490SOL    HW1 1958   1.439   2.130   0.402  1.6187 -2.3848 -1.3014
  490SOL    HW2 1959   1.285   2.137   0.411  1.4107 -0.8229 -2.4647
  490SOL     MW 1960   1.362   2.095   0.430  0.1099  0.0008  0.3170
  491SOL     OW 1961   1.331   3.003   0.410 -0.0323 -0.4291 -0.3262
  491SOL    HW1 1962   1.332   3.070   0.475  0.8300 -0.8512 -1.2798
  491SOL    HW2 1963   1.234   2.998   0.427 -2.1271  1.3445  0.9346
  491SOL     MW 1964   1.318   3.011   0.421 -0.1949 -0.2508 -0.2857
  492SOL     OW 1965   1.468   2.153   0.702  0.5219 -0.1597  0.0688
  492SOL    HW1 1966   1.417   2.130   0.627  1.0481  0.3298 -0.2977
  492SOL    HW2 1967   1.427   2.119   0.775  0.5505  0.3775 -1.1022
  492SOL     MW 1968   1.456   2.145   0.701  0.5951 -0.0242 -0.1341
  493SOL     OW 1969   0.207   3.032   0.327 -0.1789  0.5423  0.0800
  493SOL    HW1 1970   0.139   3.072   0.370  1.3683  0.8781  0.0393
  493SOL    HW2 1971   0.182   2.991   0.246  0.8268  0.2416  0.1241
  493SOL     MW 1972   0.195   3.032   0.322  0.1579  0.5469  0.0804
  494SOL     OW 1973   0.388   2.348   1.825 -0.1240 -0.4011 -0.0043
  494SOL    HW1 1974   0.379   2.253   1.798  1.1614 -1.7742  1.3068
  494SOL    HW2 1975   0.436   2.393   1.755 -0.0774 -0.4782 -3.3997
  494SOL     MW 1976   0.393   2.342   1.812  0.0518 -0.5924 -0.2793
  495SOL     OW 1977   2.806   1.630   2.667 -0.6182 -0.3432 -0.3000
  495SOL    HW1 1978   2.809   1.702   2.732  0.7424 -0.4246 -0.1677
  495SOL    HW2 1979   2.750   1.565   2.705  2.1847 -0.3245  0.5966
  495SOL     MW 1980   2.799   1.631   2.681 -0.0689 -0.3515 -0.1643
  496SOL     OW 1981   2.824   2.292   2.752 -0.2424 -0.2623 -0.2788
  496SOL    HW1 1982   2.839   2.217   2.802  1.3990  1.5302  0.2292
  496SOL    HW2 1983   2.913   2.326   2.757 -0.5595 -0.5875 -0.5162
  496SOL     MW 1984   2.838   2.287   2.760 -0.0677 -0.0687 -0.2431
  497SOL     OW 1985   1.473   2.419   2.570  0.1823 -0.4817 -0.4715
  497SOL    HW1 1986   1.489   2.351   2.497  0.0361 -2.3121 -0.5104
  497SOL    HW2 1987   1.472   2.369   2.649  1.1024 -1.1805 -1.2119
  497SOL     MW 1988   1.475   2.404   2.571  0.2844 -0.8154 -0.5743
  498SOL     OW 1989   1.480   2.738   2.317 -0.2892  0.1560 -0.2207
  498SOL    HW1 1990   1.457   2.646   2.319 -1.1245  0.1993 -1.6866
  498SOL    HW2 1991   1.575   2.737   2.321  0.1875  0.2691  3.7776
  498SOL     MW 1992   1.489   2.726   2.318 -0.3365  0.1766  0.1135
  499SOL     OW 1993   0.965   0.068   0.111  0.0952  0.2638  0.2936
  499SOL    HW1 1994   0.887   0.089   0.163  0.9340  0.9276 -2.1418
  499SOL    HW2 1995   0.933  -0.006   0.058  0.0457 -0.0938 -0.4978
  499SOL     MW 1996   0.950   0.061   0.110  0.1993  0.3042 -0.1322
  500SOL     OW 1997   1.037   2.537   2.731 -0.1583 -0.1458 -0.0690
  500SOL    HW1 1998   1.080   2.502   2.814  1.8726  2.7641 -0.8355
  500SOL    HW2 1999   0.995   2.623   2.746  0.9674  0.3078 -0.4805
  500SOL     MW 2000   1.037   2.544   2.744  0.2582  0.2980 -0.2244
  501SOL     OW 2001   1.805   2.300   2.938  0.1717 -0.3607 -0.4653
  501SOL    HW1 2002   1.787   2.386   2.901  0.4044 -1.5031 -0.7805
  501SOL    HW2 2003   1.897   2.307   2.964 -0.3819  1.2495  0.1440
  501SOL     MW 2004   1.815   2.312   2.936  0.1293 -0.2990 -0.4265
  502SOL     OW 2005   0.323   2.746   2.855 -0.3865  0.2747  0.5809
  502SOL    HW1 2006   0.343   2.778   2.763  2.6781 -0.9554  0.7005
  502SOL    HW2 2007   0.287   2.820   2.903 -1.3518  0.1277 -0.5022
  502SOL     MW 2008   0.321   2.760   2.849 -0.1095  0.0930  0.4538
  503SOL     OW 2009   1.107   2.477   2.071 -0.0220  0.3980  0.2262
  503SOL    HW1 2010   1.148   2.559   2.042  1.3376  2.2517  0.3055
  503SOL    HW2 2011   1.037   2.475   2.009  0.3551  1.8821 -2.2301
  503SOL     MW 2012   1.103   2.487   2.059  0.2072  0.8384 -0.0874
  504SOL     OW 2013   0.062   2.632   2.194 -0.0070  0.4533  0.3499
  504SOL    HW1 2014   0.123   2.561   2.176 -1.0945 -0.3032  0.7961
  504SOL    HW2 2015  -0.004   2.592   2.258 -2.1174 -0.4395  1.9966
  504SOL     MW 2016   0.061   2.618   2.200 -0.4289  0.2357  0.6260
  505SOL     OW 2017   1.584   2.838   2.741 -0.2819 -0.4886  0.2362
  505SOL    HW1 2018   1.625   2.861   2.654  0.3820 -0.6947  0.1783
  505SOL    HW2 2019   1.524   2.913   2.760 -2.0468 -2.2876 -0.6590
  505SOL     MW 2020   1.581   2.851   2.732 -0.4272 -0.7532  0.1105
  506SOL     OW 2021   1.570   0.141   2.759  0.6366  0.1202 -0.4872
  506SOL    HW1 2022   1.559   0.098   2.841  1.0988 -0.3426  1.4947
  506SOL    HW2 2023   1.627   0.084   2.706 -1.4745  1.3352  0.0490
  506SOL     MW 2024   1.576   0.128   2.763  0.4191  0.2195 -0.1550
  507SOL     OW 2025   0.805   2.684   2.834  0.5434 -0.2974  0.1802
  507SOL    HW1 2026   0.815   2.757   2.770 -1.2433 -1.9766 -0.9654
  507SOL    HW2 2027   0.713   2.664   2.840  1.5317 -2.3807 -0.0849
  507SOL     MW 2028   0.794   2.691   2.826  0.4381 -0.7938 -0.0060
  508SOL     OW 2029   1.203   2.152   2.542  0.0847 -0.1712 -0.5061
  508SOL    HW1 2030   1.258   2.177   2.615  1.3965  0.8837  1.1611
  508SOL    HW2 2031   1.115   2.164   2.571  1.9142 -0.9289  0.2162
  508SOL     MW 2032   1.199   2.157   2.556  0.4992 -0.1320 -0.1908
  509SOL     OW 2033   0.563   2.559   2.864  0.2947 -0.9642 -0.1858
  509SOL    HW1 2034   0.566   2.511   2.775 -0.7847 -0.6161  0.8025
  509SOL    HW2 2035   0.481   2.614   2.864  3.2156  0.6736 -1.7924
  509SOL     MW 2036   0.553   2.560   2.852  0.5377 -0.7022 -0.2674
  510SOL     OW 2037   1.520   2.639   1.647  0.3351  0.0079 -0.2661
  510SOL    HW1 2038   1.559   2.715   1.607  0.7165 -1.1241  0.4564
  510SOL    HW2 2039   1.460   2.662   1.718  0.1747  1.3057 -1.0920
  510SOL     MW 2040   1.517   2.652   1.651  0.3643  0.0297 -0.2797
  511SOL     OW 2041   0.402   2.575   2.514  0.1516 -0.4878  0.0466
  511SOL    HW1 2042   0.467   2.510   2.551  0.9043 -4.3402  0.0861
  511SOL    HW2 2043   0.429   2.586   2.421  0.6810 -1.5002 -0.9030
  511SOL     MW 2044   0.414   2.568   2.507  0.3207 -1.1296 -0.0735
  512SOL     OW 2045   0.937   1.978   2.812  0.5067 -0.6016  0.0083
  512SOL    HW1 2046   0.855   2.007   2.851  0.1115 -0.5714  2.7489
  512SOL    HW2 2047   0.961   1.900   2.867 -1.2498 -1.1950  0.7710
  512SOL     MW 2048   0.929   1.972   2.824  0.2228 -0.6759  0.4705
  513SOL     OW 2049   1.500   2.409   2.245  0.5523  0.1791  0.8747
  513SOL    HW1 2050   1.590   2.451   2.229 -0.7073  1.9145 -3.3464
  513SOL    HW2 2051   1.520   2.330   2.294  1.4268  0.0960  0.8194
  513SOL     MW 2052   1.515   2.404   2.249  0.5015  0.3971  0.3105
  514SOL     OW 2053   0.220   2.382   2.678  0.1464 -0.1110  0.4442
  514SOL    HW1 2054   0.284   2.395   2.608  1.3048  1.2563  1.0318
  514SOL    HW2 2055   0.274   2.335   2.744 -1.2343  0.9386  1.0298
  514SOL     MW 2056   0.236   2.377   2.677  0.1170  0.2079  0.5990
  515SOL     OW 2057   1.070   2.010   1.894 -0.1248 -0.3507 -0.0046
  515SOL    HW1 2058   1.085   2.108   1.890  2.1735  2.9427 -2.6508
  515SOL    HW2 2059   1.145   1.989   1.945 -0.4180 -0.1316 -2.5292
  515SOL     MW 2060   1.082   2.020   1.900  0.1397  0.1127 -0.6868
  516SOL     OW 2061   1.348   2.624   2.911 -0.0136 -0.2012  0.0261
  516SOL    HW1 2062   1.357   2.658   2.823 -0.8202 -1.4561 -0.8491
  516SOL    HW2 2063   1.289   2.552   2.907  0.8462  3.3723  1.3609
  516SOL     MW 2064   1.341   2.619   2.899 -0.0066  0.1047  0.0868
  517SOL     OW 2065   0.445   2.267   2.327  0.2890  0.1560  0.0440
  517SOL    HW1 2066   0.442   2.365   2.340  0.6938 -0.0044  1.3755
  517SOL    HW2 2067   0.402   2.250   2.239  0.8066  0.2948 -1.2705
  517SOL     MW 2068   0.439   2.278   2.317  0.4107  0.1532  0.0463
  518SOL     OW 2069   1.736   0.198   3.037 -0.6625  0.2042  0.4412
  518SOL    HW1 2070   1.747   0.215   3.130  0.5317  0.9503  1.0303
  518SOL    HW2 2071   1.684   0.124   3.021  2.5866 -2.3050  1.3713
  518SOL     MW 2072   1.730   0.190   3.048 -0.0763 -0.0284  0.6417
  519SOL     OW 2073   0.596   2.351   1.975 -0.0082  0.3435  0.0900
  519SOL    HW1 2074   0.627   2.266   1.957 -1.0659  1.7987 -0.9983
  519SOL    HW2 2075   0.514   2.351   1.918  1.8119 -2.2176 -0.7104
  519SOL     MW 2076   0.589   2.340   1.965  0.0924  0.1976 -0.1592
  520SOL     OW 2077   1.155   2.128   2.893  0.5145 -0.2561  0.1016
  520SOL    HW1 2078   1.087   2.069   2.854  1.1291  1.0869 -0.5061
  520SOL    HW2 2079   1.171   2.088   2.976  3.4105 -0.7538 -2.3294
  520SOL     MW 2080   1.148   2.115   2.898  0.9777 -0.1446 -0.2993
  521SOL     OW 2081   1.686   2.073   2.210  0.1828 -0.9794 -0.0298
  521SOL    HW1 2082   1.761   2.090   2.149 -0.7195  1.9648  2.2273
  521SOL    HW2 2083   1.661   1.973   2.201  0.3486 -1.3149  3.7914
  521SOL     MW 2084   1.692   2.062   2.201  0.0856 -0.6352  0.7722
  522SOL     OW 2085   2.845   2.561   2.161  0.1961  0.4310  0.1284
  522SOL    HW1 2086   2.912   2.514   2.204 -2.3755 -1.2450  0.1029
  522SOL    HW2 2087   2.880   2.638   2.129 -2.8258 -2.0298 -2.8771
  522SOL     MW 2088   2.858   2.565   2.162 -0.5419 -0.1148 -0.2715
  523SOL     OW 2089   0.821   1.484   2.141  0.3462 -0.6200  0.3733
  523SOL    HW1 2090   0.774   1.534   2.072 -0.9575  0.4433 -0.8010
  523SOL    HW2 2091   0.881   1.424   2.097 -0.7687  1.4389  0.4710
  523SOL     MW 2092   0.822   1.482   2.126  0.0271 -0.2080  0.2313
  524SOL     OW 2093   0.572   2.375   3.050  0.2844 -0.3206 -0.4774
  524SOL    HW1 2094   0.589   2.428   2.968  0.8455 -1.5294  1.0735
  524SOL    HW2 2095   0.643   2.314   3.065 -4.4937  3.3282  0.8374
  524SOL     MW 2096   0.583   2.374   3.041 -0.2720  0.0013 -0.0993
  525SOL     OW 2097   0.306   2.170   2.103 -0.0017  0.0912 -0.4229
  525SOL    HW1 2098   0.265   2.114   2.176  0.3006  0.1456 -1.9970
  525SOL    HW2 2099   0.330   2.109   2.033 -0.2552 -0.9746  0.8301
  525SOL     MW 2100   0.304   2.155   2.103  0.0048 -0.0423 -0.4653
  526SOL     OW 2101   0.664   2.083   1.955  0.4548 -0.6202  0.6356
  526SOL    HW1 2102   0.697   2.107   1.875  0.3941  1.2956 -1.4792
  526SOL    HW2 2103   0.736   2.102   2.010  3.2194 -2.8577 -1.1723
  526SOL     MW 2104   0.678   2.089   1.952  0.8115 -0.6626  0.1180
  527SOL     OW 2105   1.277   1.924   2.070  0.2560 -0.0821  0.2530
  527SOL    HW1 2106   1.213   1.886   2.125  0.4532  1.6779 -2.1550
  527SOL    HW2 2107   1.319   1.848   2.045  0.0762  0.8775 -0.8485
  527SOL     MW 2108   1.274   1.909   2.074  0.2583  0.2767 -0.2100
  528SOL     OW 2109   0.618   2.925   2.947 -0.1758  0.2125  0.3084
  528SOL    HW1 2110   0.680   2.997   2.950 -2.5440  2.3628 -1.5926
  528SOL    HW2 2111   0.608   2.913   2.856  1.8569 -0.7589  1.9484
  528SOL     MW 2112   0.625   2.933   2.936 -0.2201  0.3681  0.2739
  529SOL     OW 2113   1.108   2.301   1.791  0.1132 -0.1524  0.2558
  529SOL    HW1 2114   1.169   2.283   1.865 -0.7482  0.3622  1.8902
  529SOL    HW2 2115   1.142   2.292   1.701  0.1397  0.3842 -0.3008
  529SOL     MW 2116   1.120   2.298   1.789  0.0030 -0.0137  0.3980
  530SOL     OW 2117   1.135   2.412   2.944  0.2275  0.4129 -0.1795
  530SOL    HW1 2118   1.071   2.442   3.005  2.8084 -1.0113  1.6358
  530SOL    HW2 2119   1.115   2.317   2.927  1.5303 -0.9354  0.5549
  530SOL     MW 2120   1.124   2.403   2.950  0.7399  0.0471  0.1569
  531SOL     OW 2121   0.891   1.822   2.598 -0.0118 -0.2709 -0.1620
  531SOL    HW1 2122   0.889   1.889   2.675 -0.4469  1.9712  2.0406
  531SOL    HW2 2123   0.849   1.745   2.643 -0.2288 -1.1866  1.1631
  531SOL     MW 2124   0.885   1.821   2.614 -0.0979 -0.0959  0.3035
  532SOL     OW 2125   1.725   0.363   2.796  0.4637  0.2243  0.4418
  532SOL    HW1 2126   1.680   0.277   2.787 -0.0426 -2.1521 -1.1227
  532SOL    HW2 2127   1.751   0.367   2.886 -0.3985 -1.3423  2.2441
  532SOL     MW 2128   1.723   0.352   2.807  0.2831 -0.2959  0.4732
  533SOL     OW 2129   1.791   2.847   2.907 -0.2711 -0.0556 -0.4389
  533SOL    HW1 2130   1.760   2.781   2.975 -1.5498 -0.0990 -0.8680
  533SOL    HW2 2131   1.719   2.833   2.843  1.0592  0.2919  0.2302
  533SOL     MW 2132   1.778   2.837   2.907 -0.2643 -0.0155 -0.4073
  534SOL     OW 2133   1.777   2.540   2.514  0.0424 -0.2195  0.6068
  534SOL    HW1 2134   1.689   2.496   2.531  0.6195  1.4028 -2.0665
  534SOL    HW2 2135   1.813   2.529   2.596  0.0473 -0.4084 -2.5637
  534SOL     MW 2136   1.770   2.533   2.527  0.1192 -0.0304 -0.1642
  535SOL     OW 2137   1.808   2.386   1.925 -0.0488  0.0872 -0.1245
  535SOL    HW1 2138   1.755   2.375   1.848  1.0796  1.9291  0.4320
  535SOL    HW2 2139   1.888   2.429   1.889  2.7269  0.2072  0.7006
  535SOL     MW 2140   1.812   2.390   1.910  0.4663  0.3460  0.0578
  536SOL     OW 2141   0.393   1.926   1.979  0.2708 -0.4194 -0.3249
  536SOL    HW1 2142   0.390   1.973   1.891  1.2827 -2.1526 -1.8319
  536SOL    HW2 2143   0.482   1.887   1.982 -0.0359 -1.2469 -0.7962
  536SOL     MW 2144   0.404   1.927   1.968  0.3639 -0.7573 -0.5859
  537SOL     OW 2145   1.012   0.165   2.960 -0.3309  0.5670  0.0043
  537SOL    HW1 2146   0.998   0.139   3.050 -0.8496  0.7384 -0.9582
  537SOL    HW2 2147   1.004   0.260   2.952  2.1845 -2.4046  0.3778
  537SOL     MW 2148   1.009   0.174   2.971 -0.0675  0.1975 -0.0734
  538SOL     OW 2149   1.308   0.076   2.960 -0.5675 -0.3841  0.0903
  538SOL    HW1 2150   1.217   0.100   2.968 -1.8950  1.4699 -1.9174
  538SOL    HW2 2151   1.354   0.120   3.025 -2.1619 -2.3996 -1.8682
  538SOL     MW 2152   1.302   0.085   2.970 -0.9530 -0.4054 -0.4330
  539SOL     OW 2153   0.674   2.747   2.469 -0.3755  0.2970  0.3096
  539SOL    HW1 2154   0.748   2.793   2.517 -0.4081  0.3293 -1.4375
  539SOL    HW2 2155   0.697   2.651   2.472 -1.3155 -0.9280  1.7400
  539SOL     MW 2156   0.687   2.741   2.476 -0.5038  0.1396  0.2678
  540SOL     OW 2157   0.379   2.249   2.864  0.1470 -0.4728  0.6744
  540SOL    HW1 2158   0.448   2.290   2.921  0.1578  0.9607  2.2345
  540SOL    HW2 2159   0.337   2.195   2.929 -0.9328  0.2293 -0.3194
  540SOL     MW 2160   0.383   2.247   2.880  0.0059 -0.1910  0.7491
  541SOL     OW 2161   0.165   2.884   2.252  0.4452  0.2968 -0.2322
  541SOL    HW1 2162   0.138   2.804   2.206 -1.2180  1.2386 -1.4736
  541SOL    HW2 2163   0.222   2.851   2.318  0.6624 -0.5199  0.9437
  541SOL     MW 2164   0.169   2.870   2.255  0.2544  0.3133 -0.2409
  542SOL     OW 2165   0.844   2.340   2.774 -0.1253  0.4298 -0.5923
  542SOL    HW1 2166   0.836   2.341   2.863  0.2982 -1.6040 -0.6352
  542SOL    HW2 2167   0.917   2.402   2.763  0.1615 -2.7388  1.7041
  542SOL     MW 2168   0.853   2.348   2.784 -0.0316 -0.2566 -0.2950
  543SOL     OW 2169   1.359   2.677   2.623 -0.0005  0.5225  0.8909
  543SOL    HW1 2170   1.376   2.587   2.601  0.9905  0.8681  0.2443
  543SOL    HW2 2171   1.443   2.719   2.628 -1.8296  0.1430 -0.8767
  543SOL     MW 2172   1.372   2.671   2.621 -0.1111  0.5180  0.5724
  544SOL     OW 2173   0.681   0.104   2.712  0.7877  0.3416  0.0616
  544SOL    HW1 2174   0.587   0.105   2.694 -2.2159  0.3425  0.6169
  544SOL    HW2 2175   0.729   0.079   2.635 -1.2024 -0.1600  2.9892
  544SOL     MW 2176   0.675   0.101   2.699  0.1289  0.2756  0.5211
  545SOL     OW 2177   1.539   2.180   2.397  0.0109  0.2029  0.3373
  545SOL    HW1 2178   1.478   2.110   2.421 -2.5931 -1.2509 -1.4736
  545SOL    HW2 2179   1.600   2.140   2.338 -2.3194 -2.1419 -2.3144
  545SOL     MW 2180   1.539   2.166   2.392 -0.6401 -0.2983 -0.2515
  546SOL     OW 2181   2.993   1.986   0.148  0.1802 -0.1020  0.0428
  546SOL    HW1 2182   2.958   2.065   0.095 -2.0334  1.0242 -2.0720
  546SOL    HW2 2183   3.069   1.960   0.101 -0.0809 -0.5844 -2.5837
  546SOL     MW 2184   2.999   1.993   0.135 -0.1463 -0.0170 -0.5828
  547SOL     OW 2185   0.160   2.881   0.084  0.3568  0.1064  0.2074
  547SOL    HW1 2186   0.184   2.927   0.004 -0.3266 -0.0362  0.0727
  547SOL    HW2 2187   0.208   2.796   0.074  2.1733 -1.5592  2.1306
  547SOL     MW 2188   0.169   2.876   0.072  0.5063 -0.1322  0.4434
  548SOL     OW 2189   0.274   2.556   0.259 -0.1681  0.0488  0.3825
  548SOL    HW1 2190   0.297   2.575   0.165 -0.2583  2.2766 -2.7497
  548SOL    HW2 2191   0.181   2.575   0.264  1.4109 -0.3356 -0.2191
  548SOL     MW 2192   0.265   2.561   0.247  0.0283  0.2920 -0.1101
  549SOL     OW 2193   0.704   1.837   2.098  0.4600  0.2280 -0.6398
  549SOL    HW1 2194   0.726   1.922   2.064  0.6892 -4.4382 -1.5728
  549SOL    HW2 2195   0.680   1.840   2.188 -0.8739 -1.7728 -2.8747
  549SOL     MW 2196   0.704   1.849   2.105  0.3142 -0.6516 -1.0578
  550SOL     OW 2197   1.772   1.802   2.488  0.4254 -0.2833  0.1723
  550SOL    HW1 2198   1.744   1.790   2.394 -0.5289 -0.6002 -2.5416
  550SOL    HW2 2199   1.773   1.900   2.513  0.4822  1.4554  3.4617
  550SOL     MW 2200   1.768   1.813   2.478  0.3069 -0.0957  0.2482
  551SOL     OW 2201   0.867   2.358   0.206 -0.0894 -0.3964 -0.0065
  551SOL    HW1 2202   0.949   2.401   0.189 -1.4957  2.7471  1.0560
  551SOL    HW2 2203   0.859   2.291   0.143 -0.1685 -1.5239 -0.3629
  551SOL     MW 2204   0.877   2.355   0.195 -0.2854 -0.1304  0.0867
  552SOL     OW 2205   1.678   1.812   2.218  0.0125 -0.3267  0.7021
  552SOL    HW1 2206   1.596   1.761   2.204 -1.0987 -1.1381 -0.9938
  552SOL    HW2 2207   1.743   1.784   2.154 -0.8838  0.3867 -3.0979
  552SOL     MW 2208   1.675   1.801   2.208 -0.2524 -0.3396 -0.0230
  553SOL     OW 2209   1.241   2.307   1.532 -0.4900  0.3106 -0.1879
  553SOL    HW1 2210   1.293   2.226   1.543  0.0057  1.5491 -0.7721
  553SOL    HW2 2211   1.302   2.379   1.507 -0.3818 -0.6226  1.9644
  553SOL     MW 2212   1.256   2.306   1.530 -0.4103  0.3509  0.0190
  554SOL     OW 2213   0.555   2.867   2.694  0.2992 -0.3632 -0.0051
  554SOL    HW1 2214   0.502   2.934   2.645  0.2399 -1.9643 -1.5465
  554SOL    HW2 2215   0.582   2.804   2.623  0.0389 -1.8043 -0.4528
  554SOL     MW 2216   0.551   2.867   2.678  0.2571 -0.7646 -0.2675
  555SOL     OW 2217   0.594   2.428   2.644 -0.4347 -0.0536 -0.3581
  555SOL    HW1 2218   0.602   2.333   2.626 -0.3656  1.2136  0.2457
  555SOL    HW2 2219   0.677   2.443   2.593 -0.1037  0.3726  0.0240
  555SOL     MW 2220   0.606   2.418   2.635 -0.3819  0.1698 -0.2280
  556SOL     OW 2221   1.051   1.843   0.125  0.0033 -0.1840  0.3016
  556SOL    HW1 2222   1.059   1.830   0.031  0.5088 -1.7611 -0.4231
  556SOL    HW2 2223   1.138   1.852   0.164 -0.7906  1.5914 -1.8300
  556SOL     MW 2224   1.063   1.842   0.118 -0.0348 -0.1578 -0.0753
  557SOL     OW 2225   1.003   2.634   0.433  0.7632  0.0294 -0.3915
  557SOL    HW1 2226   1.074   2.611   0.376 -1.7013  1.6545 -0.2753
  557SOL    HW2 2227   0.975   2.720   0.407  0.9776  1.8995 -0.1343
  557SOL     MW 2228   1.008   2.642   0.422  0.4663  0.4906 -0.3422
  558SOL     OW 2229   0.263   2.119   3.069  0.0370 -0.3650 -0.3420
  558SOL    HW1 2230   0.208   2.040   3.068  1.3077 -1.1763 -1.0480
  558SOL    HW2 2231   0.208   2.189   3.110 -3.1846  3.0864 -0.7482
  558SOL     MW 2232   0.248   2.118   3.074 -0.2204 -0.0167 -0.4887
  559SOL     OW 2233   1.241   2.235   2.029  0.4863 -0.1941 -0.0306
  559SOL    HW1 2234   1.242   2.322   2.074 -3.4531  1.5917  0.4879
  559SOL    HW2 2235   1.207   2.184   2.100  0.1895  0.1842 -0.1760
  559SOL     MW 2236   1.236   2.240   2.044 -0.0727  0.0914  0.0186
  560SOL     OW 2237   1.930   2.953   0.039  0.0042  0.5117 -0.1605
  560SOL    HW1 2238   2.006   2.989  -0.000  1.6965 -0.9608 -2.2662
  560SOL    HW2 2239   1.870   2.924  -0.033 -1.0999  1.4443 -0.8106
  560SOL     MW 2240   1.932   2.954   0.024  0.0818  0.4405 -0.5241
  561SOL     OW 2241   0.442   2.067   0.182  0.5380  0.2294  0.0301
  561SOL    HW1 2242   0.418   2.072   0.094  1.4576 -1.3221 -2.9801
  561SOL    HW2 2243   0.445   2.161   0.214  1.5702 -2.0443 -0.3518
  561SOL     MW 2244   0.439   2.080   0.175  0.7955 -0.2753 -0.4174
  562SOL     OW 2245   0.849   2.115   2.139 -0.6721  0.1461  0.2466
  562SOL    HW1 2246   0.796   2.173   2.193  0.5692 -0.3859  3.3485
  562SOL    HW2 2247   0.938   2.125   2.185  2.3524  2.3228  0.6985
  562SOL     MW 2248   0.854   2.124   2.152 -0.1092  0.3631  0.7155
  563SOL     OW 2249   1.277   0.301   0.479  0.3096 -0.5388  0.2909
  563SOL    HW1 2250   1.228   0.231   0.425 -1.1676  0.2989 -0.1831
  563SOL    HW2 2251   1.306   0.244   0.551 -1.3696  1.9490 -0.2930
  563SOL     MW 2252   1.274   0.284   0.481 -0.1068 -0.1000  0.1513
  564SOL     OW 2253   1.016   2.547   2.333 -0.2568  0.3512 -0.4679
  564SOL    HW1 2254   1.057   2.516   2.249  2.2296  0.4784  0.5778
  564SOL    HW2 2255   1.078   2.610   2.371  1.3110 -1.5230 -4.6852
  564SOL     MW 2256   1.030   2.552   2.327  0.2781  0.1207 -0.8864
  565SOL     OW 2257   2.923   2.670   2.694  0.2127  0.9289  0.4782
  565SOL    HW1 2258   2.988   2.737   2.686  0.4844  0.3412 -0.5032
  565SOL    HW2 2259   2.872   2.656   2.612 -0.9237 -1.6051 -1.5646
  565SOL     MW 2260   2.925   2.677   2.682  0.0986  0.5170  0.0791
  566SOL     OW 2261   2.155   2.078   2.346 -0.0238 -0.5538  0.5489
  566SOL    HW1 2262   2.184   2.083   2.254 -0.7514 -2.7198  0.8368
  566SOL    HW2 2263   2.230   2.112   2.394  1.7706 -3.3128 -0.5222
  566SOL     MW 2264   2.169   2.083   2.340  0.1170 -1.2036  0.4455
  567SOL     OW 2265   1.135   2.879   0.135  0.4024 -0.2375 -0.4697
  567SOL    HW1 2266   1.136   2.971   0.160  0.9909  2.1293 -1.4297
  567SOL    HW2 2267   1.159   2.884   0.042  0.4997  1.0297 -3.1489
  567SOL     MW 2268   1.138   2.892   0.126  0.4929  0.2420 -0.9498
  568SOL     OW 2269   1.637   2.143   2.788  0.2821 -0.1885  0.2849
  568SOL    HW1 2270   1.696   2.205   2.832 -1.1198 -1.2098 -0.8079
  568SOL    HW2 2271   1.686   2.115   2.710  0.6048  0.2301 -0.6013
  568SOL     MW 2272   1.652   2.148   2.784  0.1397 -0.2680  0.0238
  569SOL     OW 2273   0.027   2.234   2.505  0.1026  0.1472 -0.2109
  569SOL    HW1 2274  -0.023   2.284   2.447 -1.7404 -0.3267 -0.7702
  569SOL    HW2 2275   0.076   2.292   2.557 -2.0072 -1.0940  1.2666
  569SOL     MW 2276   0.027   2.248   2.504 -0.4190 -0.0791 -0.0898
  570SOL     OW 2277   1.560   0.350   0.457 -0.1259  0.4637 -0.3017
  570SOL    HW1 2278   1.469   0.318   0.472 -0.3532  0.0186  1.0159
  570SOL    HW2 2279   1.592   0.400   0.532  1.8218 -0.0529  1.6654
  570SOL     MW 2280   1.552   0.353   0.469  0.1011  0.3368  0.1317
  571SOL     OW 2281   1.441   2.442   1.972  0.2389  0.2187  0.8009
  571SOL    HW1 2282   1.472   2.447   2.062 -0.7598 -0.2809 -2.5463
  571SOL    HW2 2283   1.439   2.351   1.943 -1.9623 -0.1821 -0.5066
  571SOL     MW 2284   1.445   2.431   1.980 -0.1833  0.0999  0.1868
  572SOL     OW 2285   0.910   2.533   3.049  0.0927 -0.3353  0.1165
  572SOL    HW1 2286   0.866   2.595   2.982 -1.6687 -2.3546 -0.6452
  572SOL    HW2 2287   0.847   2.517   3.118 -0.1455  1.0292 -0.5050
  572SOL     MW 2288   0.896   2.539   3.049 -0.1712 -0.4217 -0.0660
  573SOL     OW 2289   1.149   2.419   0.205  0.0511 -0.3783 -0.2323
  573SOL    HW1 2290   1.220   2.372   0.162 -2.9643 -1.9048  2.3100
  573SOL    HW2 2291   1.190   2.502   0.233  1.3022  0.0575 -1.1591
  573SOL     MW 2292   1.164   2.423   0.203 -0.1817 -0.5222 -0.0191
  574SOL     OW 2293   1.250   2.656   0.274  0.4613  0.3780 -0.3012
  574SOL    HW1 2294   1.332   2.661   0.318 -0.0943  0.7996  0.2170
  574SOL    HW2 2295   1.231   2.738   0.233  2.0996  0.9236  0.7300
  574SOL     MW 2296   1.258   2.667   0.274  0.6041  0.5056 -0.0968
  575SOL     OW 2297   3.071   2.265   1.821 -1.2144 -0.1935 -0.2807
  575SOL    HW1 2298   3.071   2.203   1.750  0.2918  0.5797 -3.0442
  575SOL    HW2 2299   3.138   2.331   1.791 -0.0436 -1.1000 -0.8360
  575SOL     MW 2300   3.080   2.265   1.808 -0.8612 -0.2111 -0.7186
  576SOL     OW 2301   2.786   1.841   2.062  0.9503 -0.2804 -0.2044
  576SOL    HW1 2302   2.811   1.909   1.999  3.2455 -2.8740  1.2932
  576SOL    HW2 2303   2.720   1.785   2.021  0.7307 -0.7584  1.4348
  576SOL     MW 2304   2.781   1.842   2.048  1.2242 -0.6857  0.2095
  577SOL     OW 2305   2.057   0.339   0.081  0.3053 -0.4929 -0.3084
  577SOL    HW1 2306   2.008   0.388   0.021  1.2218  2.3594  2.3835
  577SOL    HW2 2307   1.990   0.279   0.129 -1.8778 -0.9827  1.8755
  577SOL     MW 2308   2.042   0.337   0.079  0.1382 -0.1812  0.3349
  578SOL     OW 2309   1.923   2.205   2.352 -0.0762  0.0905 -0.3556
  578SOL    HW1 2310   1.856   2.134   2.342 -2.6217 -1.0259 -2.3682
  578SOL    HW2 2311   2.006   2.148   2.342  1.0995 -1.9837 -1.3243
  578SOL     MW 2312   1.925   2.188   2.350 -0.2569 -0.3305 -0.7489
  579SOL     OW 2313   0.813   2.495   2.499 -0.3331 -0.2204  0.0722
  579SOL    HW1 2314   0.873   2.467   2.565  1.0038 -1.1690  1.4370
  579SOL    HW2 2315   0.874   2.510   2.421  1.1167 -1.1590 -1.4027
  579SOL     MW 2316   0.829   2.493   2.497  0.0346 -0.4694  0.0577
  580SOL     OW 2317   0.866   2.860   3.057 -0.4375 -0.1410  0.2625
  580SOL    HW1 2318   0.930   2.803   3.097 -3.1272  0.1613 -1.7629
  580SOL    HW2 2319   0.823   2.816   2.981  1.2959  1.1833  0.5641
  580SOL     MW 2320   0.869   2.846   3.053 -0.5637  0.0736  0.0351
  581SOL     OW 2321   1.065   2.572   1.767  0.4095  1.1617 -0.0024
  581SOL    HW1 2322   1.149   2.605   1.807 -0.6634  2.0851  0.8983
  581SOL    HW2 2323   1.065   2.466   1.772 -4.2619 -1.6145  5.0199
  581SOL     MW 2324   1.076   2.562   1.773 -0.3484  0.9172  0.7791
  582SOL     OW 2325  -0.004   2.882   2.636  0.1178 -0.2529 -0.1500
  582SOL    HW1 2326   0.007   2.953   2.698 -1.5944 -0.8311  0.6092
  582SOL    HW2 2327   0.082   2.869   2.589 -2.0757  0.3513 -0.4377
  582SOL     MW 2328   0.009   2.890   2.638 -0.3976 -0.2495 -0.0878
  583SOL     OW 2329   1.939   2.517   2.721 -0.2112  0.4399 -0.4504
  583SOL    HW1 2330   2.004   2.568   2.660  2.4278  0.3882 -0.7699
  583SOL    HW2 2331   1.958   2.425   2.698 -0.1656 -0.0928  2.8387
  583SOL     MW 2332   1.950   2.512   2.710  0.1430  0.3628 -0.0586
  584SOL     OW 2333   0.160   1.830   2.110 -0.0123 -0.1059 -0.1248
  584SOL    HW1 2334   0.242   1.865   2.069 -0.3674  0.5897  1.6065
  584SOL    HW2 2335   0.142   1.897   2.177 -0.7359  1.6676 -1.1750
  584SOL     MW 2336   0.169   1.844   2.114 -0.1547  0.2199 -0.0349
  585SOL     OW 2337   1.437   2.555   0.049 -0.4939  0.3643 -0.8882
  585SOL    HW1 2338   1.429   2.595  -0.036 -2.0938  1.3406  2.8432
  585SOL    HW2 2339   1.359   2.588   0.095  2.4413 -3.0904 -2.0907
  585SOL     MW 2340   1.426   2.565   0.043 -0.3177  0.0373 -0.5545
  586SOL     OW 2341   1.268   2.972   2.332  0.5160 -0.0665  0.4325
  586SOL    HW1 2342   1.330   2.906   2.346 -0.7262 -0.2804  1.3772
  586SOL    HW2 2343   1.254   3.026   2.410 -2.2219  0.8553 -1.6749
  586SOL     MW 2344   1.275   2.970   2.344 -0.0091  0.0269  0.2791
  587SOL     OW 2345   1.207   1.620   2.163  0.0921  0.0876  0.0745
  587SOL    HW1 2346   1.205   1.545   2.225 -1.8187  0.8338 -2.3203
  587SOL    HW2 2347   1.192   1.578   2.072 -1.2756 -1.2261 -0.9709
  587SOL     MW 2348   1.205   1.605   2.159 -0.3404  0.0128 -0.3794
  588SOL     OW 2349   1.379   2.217   2.753 -0.1717  0.3936  0.1107
  588SOL    HW1 2350   1.463   2.192   2.791 -2.4851  1.8782  0.3974
  588SOL    HW2 2351   1.315   2.183   2.831 -1.0194 -3.4962 -0.3347
  588SOL     MW 2352   1.382   2.209   2.768 -0.5888  0.0763  0.0897
  589SOL     OW 2353   1.322   2.063  -0.000  0.1007  0.2118  0.0270
  589SOL    HW1 2354   1.323   2.156   0.027  1.3958  1.8466 -0.1821
  589SOL    HW2 2355   1.304   2.004   0.069 -1.3170  0.4937 -2.0444
  589SOL     MW 2356   1.320   2.067   0.013  0.0845  0.4647 -0.2739
  590SOL     OW 2357   0.465   2.548   2.248  0.6148 -0.1202  0.3485
  590SOL    HW1 2358   0.394   2.582   2.189 -0.9954 -1.2161  1.0887
  590SOL    HW2 2359   0.538   2.528   2.192  0.3176  1.2177 -0.8618
  590SOL     MW 2360   0.465   2.550   2.233  0.3631 -0.0883  0.2865
  591SOL     OW 2361   2.213   0.684   3.008 -0.0991  0.2543  0.2668
  591SOL    HW1 2362   2.111   0.691   3.003 -1.1385  3.0634 -0.1080
  591SOL    HW2 2363   2.243   0.682   2.918 -0.6123 -1.6099 -0.0151
  591SOL     MW 2364   2.203   0.685   2.995 -0.3039  0.3790  0.1802
  592SOL     OW 2365   1.827   2.892   0.815 -0.8694  0.2157  0.3968
  592SOL    HW1 2366   1.878   2.950   0.751 -1.5118  1.6474 -1.2254
  592SOL    HW2 2367   1.847   2.804   0.789  0.7155 -0.7593 -0.9243
  592SOL     MW 2368   1.837   2.888   0.803 -0.7451  0.2760  0.0085
  593SOL     OW 2369   1.922   0.843   0.911  0.1977  0.0793  0.3195
  593SOL    HW1 2370   1.832   0.839   0.884  0.4472 -0.8923  0.0779
  593SOL    HW2 2371   1.932   0.750   0.940 -1.8060 -0.9445  1.5216
  593SOL     MW 2372   1.912   0.830   0.911 -0.0337 -0.1840  0.4462
  594SOL     OW 2373   2.771   1.117   1.396 -0.0278  0.4684  0.2145
  594SOL    HW1 2374   2.857   1.144   1.371  0.9824 -0.2999 -1.5919
  594SOL    HW2 2375   2.732   1.096   1.310 -0.9249  2.4433 -0.4941
  594SOL     MW 2376   2.777   1.118   1.381 -0.0129  0.6276 -0.1173
  595SOL     OW 2377   0.416   0.995   0.739 -0.0962 -0.3033  0.7377
  595SOL    HW1 2378   0.487   1.036   0.672  3.6931  1.1847 -2.2687
  595SOL    HW2 2379   0.452   1.035   0.822 -0.9334  0.5743 -0.3390
  595SOL     MW 2380   0.430   1.006   0.741  0.2933  0.0088  0.1989
  596SOL     OW 2381   2.414   1.335   0.616 -0.3612 -0.3320 -0.2079
  596SOL    HW1 2382   2.450   1.422   0.600  1.9250  0.0512  1.0430
  596SOL    HW2 2383   2.491   1.289   0.660  0.6109  1.4094  0.1768
  596SOL     MW 2384   2.429   1.340   0.620  0.0687 -0.0517  0.0079
  597SOL     OW 2385   2.281   0.684   1.722 -0.6033  0.3185  0.2934
  597SOL    HW1 2386   2.297   0.616   1.780 -0.3412 -1.3761  1.0175
  597SOL    HW2 2387   2.312   0.648   1.639 -0.4611  2.7406  0.0796
  597SOL     MW 2388   2.287   0.670   1.719 -0.5500  0.4145  0.3607
  598SOL     OW 2389   2.625   1.005   2.819  0.1062 -0.4145  0.6571
  598SOL    HW1 2390   2.671   0.946   2.756  0.2351  0.9679  1.2513
  598SOL    HW2 2391   2.692   1.028   2.879  0.9836  1.4378  1.1787
  598SOL     MW 2392   2.640   1.000   2.818  0.2389  0.0123  0.8043
  599SOL     OW 2393   2.906   0.368   2.074 -0.0076 -0.3307 -0.3080
  599SOL    HW1 2394   2.854   0.353   2.153 -3.1394  0.6113 -2.8313
  599SOL    HW2 2395   2.959   0.447   2.083 -1.7216 -0.1958  0.4167
  599SOL     MW 2396   2.906   0.376   2.085 -0.6469 -0.1886 -0.5453
  600SOL     OW 2397   1.851   1.625   0.865  0.3333  0.3580  0.3493
  600SOL    HW1 2398   1.886   1.631   0.953 -2.5545  0.0276 -2.1231
  600SOL    HW2 2399   1.768   1.674   0.865 -2.8223 -0.4782  0.6284
  600SOL     MW 2400   1.845   1.632   0.877 -0.4641  0.2041  0.0599
  601SOL     OW 2401   2.457   0.739   0.892 -0.0943  0.2705  0.2003
  601SOL    HW1 2402   2.481   0.734   0.987  1.5978  2.9164 -1.1883
  601SOL    HW2 2403   2.386   0.799   0.885  3.5770 -1.2441 -1.6940
  601SOL     MW 2404   2.451   0.746   0.904  0.6134  0.4198 -0.2329
  602SOL     OW 2405   2.264   1.930   0.714 -0.0444 -0.0605 -0.5278
  602SOL    HW1 2406   2.218   1.847   0.732  0.5679  0.3832 -2.4475
  602SOL    HW2 2407   2.240   1.955   0.620 -2.4471  1.6326 -0.1499
  602SOL     MW 2408   2.255   1.923   0.704 -0.2806  0.2214 -0.7312
  603SOL     OW 2409   3.003   1.343   1.841 -0.3984 -0.1776  0.0632
  603SOL    HW1 2410   3.090   1.362   1.877  0.7747  2.2342 -1.3092
  603SOL    HW2 2411   2.992   1.255   1.812  1.3282 -0.3836 -1.3202
  603SOL     MW 2412   3.013   1.334   1.842 -0.0158  0.1135 -0.3004
  604SOL     OW 2413   2.055   1.501   0.501 -0.3593 -0.4716  0.1474
  604SOL    HW1 2414   2.083   1.447   0.574 -0.2830 -0.8955 -0.5925
  604SOL    HW2 2415   1.987   1.554   0.529  0.6275  0.0100  0.6532
  604SOL     MW 2416   2.050   1.501   0.514 -0.2190 -0.4640  0.1165
  605SOL     OW 2417   2.659   1.541   0.801 -0.2786 -0.0559 -0.4657
  605SOL    HW1 2418   2.618   1.614   0.749 -1.0825  0.0005  0.0912
  605SOL    HW2 2419   2.605   1.505   0.874  0.1269 -0.5934  1.7012
  605SOL     MW 2420   2.646   1.546   0.803 -0.3311 -0.1194 -0.1063
  606SOL     OW 2421   2.530   1.819   1.895 -0.0987 -0.6108  0.0367
  606SOL    HW1 2422   2.442   1.817   1.938  0.1171  2.2733  1.8228
  606SOL    HW2 2423   2.571   1.734   1.870  1.3656  0.2222 -2.2961
  606SOL     MW 2424   2.524   1.808   1.897  0.1230 -0.1203 -0.0354
  607SOL     OW 2425   2.376   1.033   2.976 -0.4836 -0.2211 -0.3184
  607SOL    HW1 2426   2.469   1.033   2.951 -1.5770 -0.6332  3.8505
  607SOL    HW2 2427   2.370   1.060   3.065 -3.0236 -0.8153  0.7262
  607SOL     MW 2428   2.388   1.036   2.984 -0.9630 -0.3539  0.3695
  608SOL     OW 2429   1.918   0.246   0.658  0.2311 -0.6721 -0.6835
  608SOL    HW1 2430   1.944   0.283   0.573 -1.1868  3.6337 -0.5588
  608SOL    HW2 2431   1.890   0.150   0.648 -1.2930 -1.1874  2.4918
  608SOL     MW 2432   1.917   0.238   0.646 -0.1571 -0.1719 -0.2481
  609SOL     OW 2433   2.127   1.950   3.005 -0.0988 -0.3348  0.2980
  609SOL    HW1 2434   2.052   1.915   2.959  1.8988 -1.0472 -2.1949
  609SOL    HW2 2435   2.113   1.926   3.095 -0.3941 -1.6698  0.3590
  609SOL     MW 2436   2.115   1.943   3.011  0.1258 -0.6049 -0.0229
  610SOL     OW 2437   1.848   1.092   1.367  0.1872  0.1031 -0.7742
  610SOL    HW1 2438   1.862   1.026   1.299 -2.1261  0.9353  0.3663
  610SOL    HW2 2439   1.776   1.057   1.428 -0.5682  1.5131  1.1515
  610SOL     MW 2440   1.840   1.079   1.366 -0.2177  0.3989 -0.3697
  611SOL     OW 2441   2.511   1.784   0.722 -0.0789 -0.8299 -0.2993
  611SOL    HW1 2442   2.428   1.841   0.725 -0.7239  1.9597 -0.1784
  611SOL    HW2 2443   2.523   1.733   0.643 -1.2486  0.0034  0.8507
  611SOL     MW 2444   2.502   1.784   0.712 -0.3183 -0.3519 -0.1316
  612SOL     OW 2445   2.776   2.776   0.402  0.5022 -0.0624  1.0728
  612SOL    HW1 2446   2.806   2.851   0.461 -0.9136  0.5335 -1.4058
  612SOL    HW2 2447   2.856   2.761   0.354  0.5221 -0.9640  0.7095
  612SOL     MW 2448   2.790   2.784   0.404  0.3180 -0.1027  0.6978
  613SOL     OW 2449   1.633   1.004   1.101 -0.4168  0.4306 -0.1217
  613SOL    HW1 2450   1.618   1.087   1.142 -0.7757 -1.7173  1.2512
  613SOL    HW2 2451   1.683   0.955   1.164 -0.4210 -1.5656 -0.1635
  613SOL     MW 2452   1.638   1.009   1.115 -0.4647 -0.1161  0.0539
  614SOL     OW 2453   2.004   0.518   1.526 -0.9778  0.4276  0.5800
  614SOL    HW1 2454   2.004   0.430   1.571  1.0478 -0.1279 -1.6689
  614SOL    HW2 2455   2.040   0.501   1.440  0.4692 -0.2973 -0.2419
  614SOL     MW 2456   2.008   0.504   1.521 -0.5196  0.2587  0.1748
  615SOL     OW 2457   2.232   0.793   0.174  0.1453  0.3160 -0.2322
  615SOL    HW1 2458   2.290   0.739   0.236  2.2013 -1.0222 -0.6329
  615SOL    HW2 2459   2.260   0.775   0.083 -3.2152 -0.1643  0.2041
  615SOL     MW 2460   2.244   0.783   0.171 -0.0269  0.0761 -0.2275
  616SOL     OW 2461   2.632   0.356   1.636 -0.0809  0.0500  0.0971
  616SOL    HW1 2462   2.577   0.300   1.581  1.0979 -0.6480 -1.1542
  616SOL    HW2 2463   2.603   0.446   1.613 -0.6400  0.6705 -0.2163
  616SOL     MW 2464   2.621   0.360   1.626  0.0009  0.0398 -0.1093
  617SOL     OW 2465   2.922   0.569   1.757  0.2886 -0.2606  0.4904
  617SOL    HW1 2466   2.825   0.580   1.771 -2.5472  0.8636 -1.5768
  617SOL    HW2 2467   2.942   0.476   1.743  2.2831  1.4505  1.5518
  617SOL     MW 2468   2.912   0.558   1.757  0.1776  0.1135  0.3577
  618SOL     OW 2469   2.673   0.364   1.932  0.2612  0.1348  0.1550
  618SOL    HW1 2470   2.678   0.454   1.893 -0.8372  1.2954  0.6525
  618SOL    HW2 2471   2.762   0.356   1.966 -0.9807 -1.4830 -0.6688
  618SOL     MW 2472   2.685   0.375   1.931 -0.0476  0.0745  0.1119
  619SOL     OW 2473   2.579   0.821   0.150  0.3785  1.0544 -0.2020
  619SOL    HW1 2474   2.656   0.862   0.191 -0.2821  0.6894 -1.5759
  619SOL    HW2 2475   2.526   0.784   0.221  1.0405 -0.1104  1.4764
  619SOL     MW 2476   2.582   0.822   0.165  0.3787  0.8526 -0.1618
  620SOL     OW 2477   2.295   1.145   0.935  0.0707 -0.0630 -0.2205
  620SOL    HW1 2478   2.375   1.093   0.913  0.0874 -0.8935  1.6349
  620SOL    HW2 2479   2.225   1.082   0.907 -0.5568 -1.1893 -1.5943
  620SOL     MW 2480   2.297   1.130   0.928 -0.0099 -0.3212 -0.1570
  621SOL     OW 2481   1.522   2.149   1.992  0.2815 -0.3106  0.5925
  621SOL    HW1 2482   1.430   2.134   1.993  0.0778  0.7769  0.2201
  621SOL    HW2 2483   1.557   2.135   2.080  1.1961 -0.5502 -1.3158
  621SOL     MW 2484   1.515   2.145   2.003  0.3753 -0.1987  0.2916
  622SOL     OW 2485   2.629   0.227   0.104 -0.0806 -0.4656  0.5611
  622SOL    HW1 2486   2.698   0.252   0.169  1.0547  2.3127  0.7397
  622SOL    HW2 2487   2.647   0.141   0.071 -0.5452  2.1955 -1.3376
  622SOL     MW 2488   2.640   0.219   0.108  0.0079  0.2521  0.3341
  623SOL     OW 2489   2.411   2.765   0.821 -0.7509 -0.0425 -0.1924
  623SOL    HW1 2490   2.454   2.854   0.824 -0.0644  1.1004 -2.4389
  623SOL    HW2 2491   2.348   2.778   0.890  1.6198  0.3894 -0.8242
  623SOL     MW 2492   2.409   2.778   0.830 -0.3475  0.1653 -0.5722
  624SOL     OW 2493   2.201   1.627   2.907 -0.1288  0.1481  0.2895
  624SOL    HW1 2494   2.126   1.586   2.954  0.9455 -0.3941  0.9635
  624SOL    HW2 2495   2.206   1.717   2.934 -1.0306 -1.6218  1.8211
  624SOL     MW 2496   2.192   1.634   2.917 -0.1060 -0.1569  0.5805
  625SOL     OW 2497   2.201   1.938   1.089 -0.5524 -0.2489 -0.0962
  625SOL    HW1 2498   2.279   1.921   1.140 -2.0111 -1.4435  0.7593
  625SOL    HW2 2499   2.215   1.901   0.999  0.8508  0.4830 -1.8089
  625SOL     MW 2500   2.213   1.931   1.084 -0.5598 -0.3099 -0.2093
  626SOL     OW 2501   0.113   1.586   2.412  0.3951  0.0750 -0.3228
  626SOL    HW1 2502   0.049   1.539   2.362  0.9254  2.5115 -1.1817
  626SOL    HW2 2503   0.081   1.570   2.504  0.5942 -3.2772 -2.6739
  626SOL     MW 2504   0.100   1.578   2.418  0.4914 -0.0458 -0.7463
  627SOL     OW 2505   2.454   0.834   2.586  0.3611  0.2549 -0.0152
  627SOL    HW1 2506   2.385   0.907   2.573 -0.0250  1.5585 -0.1456
  627SOL    HW2 2507   2.431   0.779   2.510 -0.3603  0.5799  0.9058
  627SOL     MW 2508   2.442   0.837   2.574  0.2150  0.4698  0.0891
  628SOL     OW 2509   2.331   1.370   1.359  0.3924 -0.4260  0.3669
  628SOL    HW1 2510   2.303   1.300   1.292  1.7297  0.6139 -0.0486
  628SOL    HW2 2511   2.420   1.398   1.338 -2.0333 -0.6990 -0.2552
  628SOL     MW 2512   2.339   1.365   1.347  0.2488 -0.3248  0.2300
  629SOL     OW 2513   2.051   0.556   1.216  0.1039  0.3892 -0.3665
  629SOL    HW1 2514   2.091   0.636   1.191 -0.9039 -1.5311  0.2669
  629SOL    HW2 2515   1.971   0.582   1.260  0.2256  0.9951  0.0425
  629SOL     MW 2516   2.045   0.570   1.219 -0.0130  0.2158 -0.2290
  630SOL     OW 2517   2.484   1.822   3.091 -0.3332 -0.2699 -0.2071
  630SOL    HW1 2518   2.429   1.879   3.039 -0.5132 -0.7906 -1.0184
  630SOL    HW2 2519   2.471   1.725   3.072 -0.9727 -4.0109 -0.0093
  630SOL     MW 2520   2.475   1.817   3.081 -0.4413 -0.8322 -0.2881
  631SOL     OW 2521   1.976   1.755   1.622  0.0148 -0.2587 -0.3357
  631SOL    HW1 2522   1.988   1.671   1.684 -3.1670 -2.5235  0.2424
  631SOL    HW2 2523   1.958   1.720   1.540  0.3329 -0.2474  1.3116
  631SOL     MW 2524   1.975   1.739   1.619 -0.3630 -0.5561 -0.0421
  632SOL     OW 2525   0.171   2.072   1.594  0.4706  0.0419 -0.2941
  632SOL    HW1 2526   0.075   2.054   1.619  1.3534  1.3995 -2.4819
  632SOL    HW2 2527   0.205   1.982   1.572 -0.9254  0.9603  1.8492
  632SOL     MW 2528   0.162   2.058   1.594  0.4029  0.3422 -0.3000
  633SOL     OW 2529   2.419   0.693   0.353 -0.3067  0.2829 -0.0533
  633SOL    HW1 2530   2.504   0.699   0.403  0.3450  2.7203  0.5333
  633SOL    HW2 2531   2.386   0.592   0.355  0.9429 -0.6710  0.8926
  633SOL     MW 2532   2.426   0.681   0.360 -0.0558  0.4786  0.1489
  634SOL     OW 2533   2.634   3.093   0.607  0.6549 -0.2190 -0.1943
  634SOL    HW1 2534   2.669   3.182   0.595  0.2774 -0.5970 -1.7470
  634SOL    HW2 2535   2.599   3.057   0.524  2.7765 -0.6626  0.9783
  634SOL     MW 2536   2.634   3.100   0.595  0.8850 -0.3274 -0.2444
  635SOL     OW 2537   2.626   0.104   1.837 -0.1654  0.4631 -0.0822
  635SOL    HW1 2538   2.701   0.062   1.788 -0.3552 -1.6163  1.1306
  635SOL    HW2 2539   2.659   0.196   1.847 -1.2189  3.3709  1.9901
  635SOL     MW 2540   2.641   0.110   1.832 -0.3294  0.5724  0.3512
  636SOL     OW 2541   2.916   1.672   1.028 -0.0341 -0.4165  0.4941
  636SOL    HW1 2542   2.852   1.725   0.976  0.1833 -2.1334  0.2910
  636SOL    HW2 2543   2.947   1.718   1.108  1.3487  0.2141 -1.7499
  636SOL     MW 2544   2.912   1.685   1.032  0.1770 -0.5598  0.1712
  637SOL     OW 2545   2.915   1.487   0.705  0.4329  0.1494  0.0070
  637SOL    HW1 2546   2.972   1.563   0.701 -0.2853 -1.1703 -0.9578
  637SOL    HW2 2547   2.840   1.524   0.748 -0.2023  0.1646  0.2829
  637SOL     MW 2548   2.913   1.502   0.710  0.2543 -0.0227 -0.0839
  638SOL     OW 2549   2.675   0.679   0.485  0.2287 -0.2250  0.3458
  638SOL    HW1 2550   2.766   0.648   0.469  0.5400 -1.8493  0.6836
  638SOL    HW2 2551   2.652   0.638   0.569  1.0212 -1.3346  0.1891
  638SOL     MW 2552   2.684   0.669   0.494  0.3743 -0.5857  0.3697
  639SOL     OW 2553   1.897   3.082   0.639 -0.6586 -0.2425 -0.0829
  639SOL    HW1 2554   1.830   3.072   0.572 -2.4144 -0.9979 -0.5038
  639SOL    HW2 2555   1.973   3.105   0.589  1.8097  1.9036  1.5484
  639SOL     MW 2556   1.898   3.084   0.624 -0.5646 -0.0590  0.0768
  640SOL     OW 2557   0.389   1.372   0.114  0.0013 -0.4257 -0.0991
  640SOL    HW1 2558   0.409   1.432   0.040 -1.9790  0.6815 -0.4427
  640SOL    HW2 2559   0.373   1.279   0.079  2.6669 -1.2812 -0.7689
  640SOL     MW 2560   0.390   1.367   0.100  0.0917 -0.3925 -0.2328
  641SOL     OW 2561   2.315   0.462   0.377  0.0295 -0.2461 -0.1776
  641SOL    HW1 2562   2.318   0.426   0.288  1.9811  0.5383 -1.5969
  641SOL    HW2 2563   2.393   0.419   0.427  1.8167 -1.1609  0.4745
  641SOL     MW 2564   2.325   0.451   0.372  0.5228 -0.2633 -0.2788
  642SOL     OW 2565   3.085   0.029   0.481  0.0145 -0.4282  0.1599
  642SOL    HW1 2566   3.041   0.114   0.485  0.2527 -0.8172 -0.5466
  642SOL    HW2 2567   3.026  -0.030   0.524 -0.4304  0.9480 -0.9671
  642SOL     MW 2568   3.072   0.033   0.487 -0.0127 -0.2980 -0.0820
  643SOL     OW 2569   2.073   0.281   1.637 -0.7184  0.2961 -0.5306
  643SOL    HW1 2570   2.149   0.250   1.683 -0.2434 -0.7859 -1.6107
  643SOL    HW2 2571   2.077   0.228   1.561 -0.9599  2.5259 -0.3705
  643SOL     MW 2572   2.083   0.270   1.633 -0.6876  0.4475 -0.6520
  644SOL     OW 2573   2.726   1.842   0.911 -0.4495  0.2979 -0.0635
  644SOL    HW1 2574   2.689   1.809   0.996 -1.8132  1.3386  3.0109
  644SOL    HW2 2575   2.660   1.834   0.844  0.4288  0.5942  0.0858
  644SOL     MW 2576   2.712   1.836   0.914 -0.5135  0.4743  0.3618
  645SOL     OW 2577   2.757   0.916   0.620 -0.2061 -0.0054  0.3899
  645SOL    HW1 2578   2.798   0.880   0.695 -0.1868  1.8187  0.0370
  645SOL    HW2 2579   2.721   0.843   0.567 -1.0427  0.8663  0.9014
  645SOL     MW 2580   2.757   0.901   0.623 -0.3140  0.3503  0.4108
  646SOL     OW 2581   0.094   2.326   0.887  0.6963  0.0061  0.0417
  646SOL    HW1 2582   0.133   2.237   0.906 -0.1315 -3.0372  0.4782
  646SOL    HW2 2583   0.058   2.337   0.790  0.7157 -3.9001 -0.2966
  646SOL     MW 2584   0.095   2.316   0.877  0.5896 -0.9108  0.0546
  647SOL     OW 2585   2.750   0.593   3.009  0.4269 -0.5831  0.0526
  647SOL    HW1 2586   2.710   0.513   3.000 -2.0380 -0.9562 -2.3838
  647SOL    HW2 2587   2.674   0.657   3.008 -1.3451  2.2065 -1.9860
  647SOL     MW 2588   2.735   0.591   3.008 -0.1321 -0.2643 -0.5378
  648SOL     OW 2589   2.227   0.736   1.101  0.0638 -0.3564  0.0712
  648SOL    HW1 2590   2.206   0.763   1.016 -0.3845  1.6354  2.9024
  648SOL    HW2 2591   2.211   0.811   1.162  0.6933  1.0527 -1.5848
  648SOL     MW 2592   2.222   0.749   1.098  0.0877  0.0923  0.2262
  649SOL     OW 2593   2.360   2.684   1.198  0.0232 -0.0386 -0.2288
  649SOL    HW1 2594   2.435   2.741   1.213 -0.0591  1.7168  0.3365
  649SOL    HW2 2595   2.394   2.593   1.198 -2.2966 -2.0482  0.7414
  649SOL     MW 2596   2.375   2.679   1.200 -0.2937 -0.0721 -0.0262
  650SOL     OW 2597   2.737   0.229   0.639  0.5169  0.3663 -0.0236
  650SOL    HW1 2598   2.748   0.266   0.730  1.2456 -0.0057 -1.3354
  650SOL    HW2 2599   2.812   0.254   0.588 -1.2480 -0.8598  0.6867
  650SOL     MW 2600   2.748   0.238   0.644  0.3802  0.1555 -0.1029
  651SOL     OW 2601   3.045   0.292   0.827 -0.2800  0.1283  0.3763
  651SOL    HW1 2602   3.108   0.343   0.775  0.5266  1.7658  0.5922
  651SOL    HW2 2603   2.966   0.350   0.838  0.5350  0.7377 -1.5373
  651SOL     MW 2604   3.043   0.306   0.822 -0.0661  0.4248  0.1523
  652SOL     OW 2605   2.398   1.437   2.986  0.0623 -0.5975  0.3495
  652SOL    HW1 2606   2.457   1.421   2.913 -1.1518  0.2553 -0.2765
  652SOL    HW2 2607   2.342   1.509   2.955 -0.0047  0.9964 -0.6285
  652SOL     MW 2608   2.399   1.445   2.972 -0.1067 -0.2747  0.1378
  653SOL     OW 2609   1.977   0.372   0.422 -0.2524  0.0359  0.0974
  653SOL    HW1 2610   1.933   0.318   0.349  0.9346  2.6600 -3.2091
  653SOL    HW2 2611   2.065   0.392   0.398  0.5700 -1.8739  0.3712
  653SOL     MW 2612   1.983   0.368   0.409  0.0127  0.1302 -0.3028
  654SOL     OW 2613   2.460   0.978   0.738 -0.0571  0.0813 -0.7443
  654SOL    HW1 2614   2.379   0.997   0.692  0.6861  1.6302  0.6037
  654SOL    HW2 2615   2.461   0.882   0.749  0.5238 -0.0525  1.0438
  654SOL     MW 2616   2.449   0.968   0.733  0.1176  0.2680 -0.3305
  655SOL     OW 2617   3.078   0.925   0.443  0.0420 -0.4992  0.1008
  655SOL    HW1 2618   3.107   0.945   0.529  1.4829  1.4866 -0.5677
  655SOL    HW2 2619   3.028   0.843   0.445  1.6121 -0.1318 -0.1154
  655SOL     MW 2620   3.075   0.917   0.454  0.4392 -0.1887 -0.0160
  656SOL     OW 2621   1.973   2.727   1.225  0.0516 -0.1582 -0.4218
  656SOL    HW1 2622   1.959   2.816   1.253  1.1353 -1.5807 -0.1656
  656SOL    HW2 2623   2.019   2.683   1.295 -0.0661  3.8519  1.6331
  656SOL     MW 2624   1.978   2.733   1.238  0.1791  0.1832 -0.1169
  657SOL     OW 2625   0.205   1.619   1.276 -0.4433 -0.8533 -0.1931
  657SOL    HW1 2626   0.112   1.597   1.294 -0.4772  1.0668 -1.2935
  657SOL    HW2 2627   0.213   1.605   1.185 -1.1866 -0.4178 -1.6300
  657SOL     MW 2628   0.194   1.614   1.267 -0.5459 -0.5425 -0.5279
  658SOL     OW 2629   2.675   1.360   0.264  0.5791  0.2898 -0.3120
  658SOL    HW1 2630   2.631   1.290   0.311 -0.5481 -0.6275 -3.2135
  658SOL    HW2 2631   2.714   1.425   0.330  0.8372 -1.0769 -0.4962
  658SOL     MW 2632   2.674   1.359   0.279  0.4644 -0.0116 -0.7191
  659SOL     OW 2633   2.210   1.566   1.002 -0.4785  0.4851 -0.4845
  659SOL    HW1 2634   2.296   1.533   0.981  0.8536 -0.9080  0.7745
  659SOL    HW2 2635   2.215   1.590   1.096 -0.4461  2.9763  3.5033
  659SOL     MW 2636   2.222   1.565   1.012 -0.2985  0.6300  0.2078
  660SOL     OW 2637   2.023   1.556   1.777  0.1425 -0.3466  0.1593
  660SOL    HW1 2638   2.061   1.566   1.864  1.8760 -0.9660  1.5400
  660SOL    HW2 2639   2.003   1.469   1.784 -0.2732  4.6366 -0.0414
  660SOL     MW 2640   2.026   1.546   1.790  0.3164  0.2292  0.3150
  661SOL     OW 2641   2.321   1.067   0.134  0.5327 -0.4223 -0.6018
  661SOL    HW1 2642   2.373   1.101   0.206  0.9307  3.1055  0.6102
  661SOL    HW2 2643   2.319   0.973   0.147  0.9584 -0.1806 -0.4444
  661SOL     MW 2644   2.328   1.059   0.146  0.6414  0.0751 -0.4211
  662SOL     OW 2645   2.567   2.985   0.856 -0.6726 -0.2158  0.1367
  662SOL    HW1 2646   2.535   3.045   0.920  0.3976 -0.7402  2.3567
  662SOL    HW2 2647   2.600   3.038   0.780 -2.2738  2.1337  1.2579
  662SOL     MW 2648   2.568   3.000   0.854 -0.7427  0.0250  0.5775
  663SOL     OW 2649   2.810   1.525   0.416  0.0101  0.2880 -0.0203
  663SOL    HW1 2650   2.888   1.562   0.388  0.5964  1.4775  0.8444
  663SOL    HW2 2651   2.829   1.500   0.503 -1.4782  1.3320  1.2180
  663SOL     MW 2652   2.823   1.526   0.424 -0.1089  0.5826  0.2572
  664SOL     OW 2653   2.460   1.583   1.639 -0.1353  0.3088 -0.0646
  664SOL    HW1 2654   2.431   1.674   1.614 -1.8341  0.6028 -0.2874
  664SOL    HW2 2655   2.385   1.526   1.650  0.1029  3.1579 -3.2154
  664SOL     MW 2656   2.447   1.587   1.637 -0.3280  0.7235 -0.5098
  665SOL     OW 2657   2.864   0.822   2.026 -0.0644 -0.0933 -0.0964
  665SOL    HW1 2658   2.863   0.855   1.935 -1.8206 -0.0842 -0.0746
  665SOL    HW2 2659   2.948   0.774   2.030 -0.2564 -0.0018 -0.3032
  665SOL     MW 2660   2.875   0.820   2.015 -0.3214 -0.0800 -0.1208
  666SOL     OW 2661   2.796   3.032   1.684  0.3647 -0.2556  0.4100
  666SOL    HW1 2662   2.808   3.018   1.587  0.4521  0.8886 -1.8019
  666SOL    HW2 2663   2.730   2.965   1.713 -0.8059 -1.9329 -1.9809
  666SOL     MW 2664   2.789   3.021   1.675  0.2218 -0.3260 -0.1973
  667SOL     OW 2665   1.937   2.667   1.737 -0.7357  0.1721 -0.9432
  667SOL    HW1 2666   1.979   2.590   1.777 -3.1404  0.4294 -2.8146
  667SOL    HW2 2667   2.009   2.731   1.720 -1.6555 -0.6709 -0.5836
  667SOL     MW 2668   1.952   2.666   1.740 -1.1743  0.0948 -1.1427
  668SOL     OW 2669   2.689   0.618   0.769  0.4903  0.7230  0.3906
  668SOL    HW1 2670   2.766   0.656   0.802 -1.2046 -1.4205  1.8082
  668SOL    HW2 2671   2.621   0.667   0.815  1.0269 -2.8755 -0.1157
  668SOL     MW 2672   2.690   0.630   0.779  0.3375 -0.0346  0.5108
  669SOL     OW 2673   0.152   0.904   0.730  0.2298  1.2212  0.0319
  669SOL    HW1 2674   0.076   0.940   0.781 -2.8481  0.2613  0.1101
  669SOL    HW2 2675   0.226   0.952   0.758 -2.3534  0.2443 -0.7780
  669SOL     MW 2676   0.152   0.915   0.740 -0.5171  0.9657 -0.0647
  670SOL     OW 2677   2.883   0.318   0.242 -0.2889 -0.3100  0.0963
  670SOL    HW1 2678   2.921   0.231   0.222 -0.0606 -0.1051  4.3352
  670SOL    HW2 2679   2.930   0.386   0.193  0.8888 -3.1831  0.0015
  670SOL     MW 2680   2.894   0.316   0.233 -0.1034 -0.6621  0.6431
  671SOL     OW 2681   2.169   3.076   1.595 -0.7049  0.3328 -0.2585
  671SOL    HW1 2682   2.147   3.122   1.507 -4.7086  4.5561  3.5698
  671SOL    HW2 2683   2.084   3.076   1.636  4.1103 -0.9884  1.3739
  671SOL     MW 2684   2.155   3.082   1.589 -0.5979  0.7157  0.4619
  672SOL     OW 2685   1.913   1.675   1.355 -0.0335  0.5548 -0.1220
  672SOL    HW1 2686   1.824   1.698   1.387 -0.5058 -1.3557  0.7617
  672SOL    HW2 2687   1.922   1.723   1.272 -1.1540  3.6512 -1.8052
  672SOL     MW 2688   1.902   1.684   1.348 -0.2436  0.7112 -0.2275
  673SOL     OW 2689   2.782   1.159   0.475 -0.0110 -0.1968 -0.2588
  673SOL    HW1 2690   2.777   1.077   0.525  0.6817 -0.1247  4.0781
  673SOL    HW2 2691   2.856   1.197   0.523 -0.3871 -0.3152  3.2326
  673SOL     MW 2692   2.791   1.154   0.488  0.0308 -0.2029  0.7740
  674SOL     OW 2693   2.414   0.061   1.289 -0.4620 -0.3321  0.0287
  674SOL    HW1 2694   2.420   0.095   1.199 -1.0281 -1.3845 -0.0605
  674SOL    HW2 2695   2.436  -0.032   1.284 -1.9384 -2.3301  2.4067
  674SOL     MW 2696   2.418   0.053   1.276 -0.7315 -0.7346  0.3307
  675SOL     OW 2697   2.944   0.959   1.096  0.1134  0.6963  0.1620
  675SOL    HW1 2698   3.016   0.917   1.142  1.1580  3.6652 -1.3978
  675SOL    HW2 2699   2.983   0.992   1.014  0.9452  2.3903 -3.7382
  675SOL     MW 2700   2.958   0.958   1.092  0.3610  1.3115 -0.5584
  676SOL     OW 2701   2.868   1.530   1.671 -0.2967  0.0132  0.0194
  676SOL    HW1 2702   2.816   1.450   1.661 -2.9318  2.2482 -1.2044
  676SOL    HW2 2703   2.931   1.500   1.730 -0.0453  1.6464  0.4163
  676SOL     MW 2704   2.869   1.516   1.678 -0.6112  0.5236 -0.0897
  677SOL     OW 2705   2.479   0.834   1.831 -0.2400  0.1806 -0.2260
  677SOL    HW1 2706   2.394   0.797   1.804  2.3664 -2.0185  1.1903
  677SOL    HW2 2707   2.466   0.923   1.797 -0.8243  3.9675  1.9277
  677SOL     MW 2708   2.466   0.841   1.823  0.0268  0.3901  0.2450
  678SOL     OW 2709   2.522   1.569   0.533 -0.0799  0.0349 -0.2144
  678SOL    HW1 2710   2.456   1.585   0.464 -1.2565  1.0534  2.7646
  678SOL    HW2 2711   2.604   1.542   0.488  1.8440  0.7854  0.8863
  678SOL     MW 2712   2.524   1.568   0.518  0.0187  0.2683  0.3239
  679SOL     OW 2713   2.376   0.538   1.218  0.5657  0.0077 -0.7345
  679SOL    HW1 2714   2.333   0.451   1.228  1.3229 -1.5206 -0.1195
  679SOL    HW2 2715   2.316   0.593   1.168 -0.2414 -1.4641 -0.0614
  679SOL     MW 2716   2.362   0.534   1.213  0.5591 -0.3881 -0.5646
  680SOL     OW 2717   2.423   0.220   1.516  0.3968  0.3717 -0.4401
  680SOL    HW1 2718   2.397   0.173   1.593  1.7999  1.6352 -2.1143
  680SOL    HW2 2719   2.405   0.160   1.439 -0.6163  1.0020  2.0981
  680SOL     MW 2720   2.417   0.206   1.516  0.4483  0.6215 -0.3261
  681SOL     OW 2721   0.302   0.506   1.527 -0.6738 -0.2116  0.1987
  681SOL    HW1 2722   0.289   0.419   1.578 -1.4689 -0.6389  2.6578
  681SOL    HW2 2723   0.395   0.514   1.526 -0.8755 -1.3334  0.4117
  681SOL     MW 2724   0.313   0.496   1.534 -0.8053 -0.4160  0.5512
  682SOL     OW 2725   0.186   2.984   1.509 -0.9269  0.2834 -0.5159
  682SOL    HW1 2726   0.146   3.051   1.444 -4.0310  0.6043 -3.5354
  682SOL    HW2 2727   0.120   2.983   1.580  0.3960 -1.5947 -0.2302
  682SOL     MW 2728   0.172   2.992   1.510 -1.1619  0.0779 -0.8766
  683SOL     OW 2729   1.937   0.784   2.994  0.0899 -0.1057  0.1105
  683SOL    HW1 2730   1.848   0.789   2.949  0.7441  0.2193 -1.6905
  683SOL    HW2 2731   1.953   0.872   3.037  0.4751  2.6674 -1.1600
  683SOL     MW 2732   1.927   0.796   2.994  0.2271  0.3031 -0.2947
  684SOL     OW 2733   2.108   1.729   0.815 -0.1177 -0.2769  0.1200
  684SOL    HW1 2734   2.014   1.708   0.820  0.3830 -0.6434 -0.5727
  684SOL    HW2 2735   2.159   1.667   0.869  1.7823 -0.3773 -0.1284
  684SOL     MW 2736   2.103   1.718   0.823  0.1991 -0.3385 -0.0042
  685SOL     OW 2737   2.649   1.743   1.182 -0.5830 -0.1149  0.1185
  685SOL    HW1 2738   2.728   1.746   1.239  0.7159 -0.7031  2.0280
  685SOL    HW2 2739   2.622   1.651   1.199 -0.8141 -0.1601  1.2627
  685SOL     MW 2740   2.656   1.731   1.192 -0.4421 -0.1985  0.5214
  686SOL     OW 2741   2.929   0.694   1.513  1.2715  0.3142 -0.2604
  686SOL    HW1 2742   2.938   0.639   1.596  0.3910  1.2176 -0.5424
  686SOL    HW2 2743   3.021   0.696   1.492  0.4344 -0.3761  1.2506
  686SOL     MW 2744   2.942   0.687   1.521  1.0449  0.3423 -0.0982
  687SOL     OW 2745   2.200   0.329   1.225 -0.6212  0.2512  0.5053
  687SOL    HW1 2746   2.186   0.287   1.140  0.3334 -1.9060 -0.7117
  687SOL    HW2 2747   2.132   0.395   1.234  0.5744 -0.4786 -0.1821
  687SOL     MW 2748   2.190   0.332   1.215 -0.3375 -0.1297  0.2540
  688SOL     OW 2749   2.359   0.522   1.488  0.0698 -0.1221  0.2016
  688SOL    HW1 2750   2.361   0.427   1.512 -1.3168 -0.7817 -2.5901
  688SOL    HW2 2751   2.369   0.534   1.391  0.2114  2.2341  2.0634
  688SOL     MW 2752   2.360   0.511   1.478 -0.0945  0.1017  0.0789
  689SOL     OW 2753   2.571   0.787   2.970 -0.0588  0.4738 -0.4391
  689SOL    HW1 2754   2.589   0.857   2.903  0.4190 -0.8658  1.3353
  689SOL    HW2 2755   2.576   0.832   3.053  0.7205 -3.2257  0.0728
  689SOL     MW 2756   2.574   0.803   2.972  0.1070 -0.1910 -0.1375
  690SOL     OW 2757   2.061   1.023   1.945 -0.1186  0.0809 -0.0432
  690SOL    HW1 2758   2.043   0.931   1.949  0.5309  1.2871 -1.7162
  690SOL    HW2 2759   2.083   1.030   1.853 -1.5595  0.6589  1.7070
  690SOL     MW 2760   2.061   1.012   1.933 -0.2230  0.3163 -0.0330
  691SOL     OW 2761   2.458   0.375   0.860 -0.2931 -0.2367 -0.1016
  691SOL    HW1 2762   2.529   0.427   0.889  1.2531 -0.4602 -0.7237
  691SOL    HW2 2763   2.388   0.439   0.856 -0.8849 -1.4667 -3.3141
  691SOL     MW 2764   2.458   0.390   0.864 -0.1672 -0.4285 -0.6075
  692SOL     OW 2765   2.827   1.659   1.414  0.3574  0.0031 -0.7095
  692SOL    HW1 2766   2.792   1.638   1.494  0.1418  0.7679  1.6887
  692SOL    HW2 2767   2.837   1.753   1.424 -0.0177 -3.4416 -2.3233
  692SOL     MW 2768   2.824   1.669   1.426  0.2795 -0.3505 -0.6060
  693SOL     OW 2769   2.313   0.472   0.094  0.5057 -0.8246 -0.1794
  693SOL    HW1 2770   2.235   0.421   0.099  2.2392  2.0516  0.9653
  693SOL    HW2 2771   2.302   0.546   0.034 -0.9221  1.9386  1.0611
  693SOL     MW 2772   2.301   0.475   0.086  0.5461 -0.0805  0.1353
  694SOL     OW 2773   1.969   1.263   1.205 -0.1324 -0.0165  0.2115
  694SOL    HW1 2774   2.058   1.229   1.203  0.9352  0.3705  1.1699
  694SOL    HW2 2775   1.924   1.186   1.242 -1.1840 -0.0603  2.3955
  694SOL     MW 2776   1.974   1.248   1.209 -0.1302  0.0288  0.6261
  695SOL     OW 2777   3.046   1.506   1.343 -0.1333  0.4277  0.8208
  695SOL    HW1 2778   3.006   1.487   1.259 -1.5888  3.1327 -0.6541
  695SOL    HW2 2779   3.002   1.584   1.376 -0.3402  1.7807  0.7580
  695SOL     MW 2780   3.035   1.514   1.336 -0.3527  0.9631  0.6179
  696SOL     OW 2781   2.018   1.360   0.945 -0.1686  0.0449  0.2187
  696SOL    HW1 2782   2.087   1.426   0.967  0.2220  1.6041 -1.3397
  696SOL    HW2 2783   2.007   1.307   1.024 -0.7270 -1.8556 -2.5015
  696SOL     MW 2784   2.026   1.362   0.959 -0.1907 -0.0001 -0.3458
  697SOL     OW 2785   2.870   1.007   2.264  0.0435 -0.4497 -0.0622
  697SOL    HW1 2786   2.843   1.094   2.251 -1.3233 -0.4471 -0.3016
  697SOL    HW2 2787   2.837   0.959   2.188 -2.9168 -1.5663 -1.4516
  697SOL     MW 2788   2.862   1.012   2.252 -0.5274 -0.5967 -0.2771
  698SOL     OW 2789   2.524   0.403   3.022  0.4291  0.5560  0.8675
  698SOL    HW1 2790   2.461   0.448   3.076 -1.6824 -3.1665  0.6072
  698SOL    HW2 2791   2.564   0.335   3.077  2.3345 -2.7668 -2.0050
  698SOL     MW 2792   2.521   0.400   3.037  0.4019 -0.3736  0.4542
  699SOL     OW 2793   1.831   1.635   2.036  0.0575 -0.4120  0.1431
  699SOL    HW1 2794   1.788   1.551   2.060  1.2271 -0.0658 -0.0597
  699SOL    HW2 2795   1.925   1.622   2.024  0.9847  0.5279  0.7225
  699SOL     MW 2796   1.838   1.622   2.038  0.3341 -0.2423  0.1928
  700SOL     OW 2797   2.702   0.877   1.543  0.3498  0.0967  0.4051
  700SOL    HW1 2798   2.694   0.958   1.488  0.0525  2.9030  0.8665
  700SOL    HW2 2799   2.784   0.834   1.527 -1.7957 -1.1246  0.1349
  700SOL     MW 2800   2.712   0.882   1.534  0.0275  0.3059  0.4303
  701SOL     OW 2801   1.674   1.300   2.577  0.2390 -0.1394  0.4726
  701SOL    HW1 2802   1.768   1.310   2.599 -0.4841  0.9825  0.9539
  701SOL    HW2 2803   1.635   1.341   2.658 -1.0865 -2.5748  2.8933
  701SOL     MW 2804   1.681   1.307   2.591 -0.0313 -0.3127  0.8555
  702SOL     OW 2805   2.228   0.506   0.772 -0.2698 -0.3882 -0.8034
  702SOL    HW1 2806   2.199   0.419   0.769 -0.2948  1.2920  1.0360
  702SOL    HW2 2807   2.208   0.549   0.692 -0.0235 -0.6508 -2.2842
  702SOL     MW 2808   2.222   0.500   0.761 -0.2406 -0.2012 -0.7561
  703SOL     OW 2809   2.692   1.285   0.997  0.3931  0.2687  0.5444
  703SOL    HW1 2810   2.683   1.261   0.901 -2.8695 -0.0433 -0.8527
  703SOL    HW2 2811   2.682   1.199   1.040 -1.0553 -0.9948 -3.1060
  703SOL     MW 2812   2.690   1.271   0.990 -0.2285  0.0608 -0.1216
  704SOL     OW 2813   0.003   1.305   0.216  0.3909 -0.0341  0.5035
  704SOL    HW1 2814  -0.075   1.255   0.194 -1.1029  1.6346  0.3716
  704SOL    HW2 2815   0.057   1.238   0.246  0.2240 -2.4337  2.4782
  704SOL     MW 2816  -0.000   1.290   0.217  0.1718 -0.1305  0.7466
  705SOL     OW 2817   2.235   1.626   1.318  0.0024 -0.0868  0.3568
  705SOL    HW1 2818   2.150   1.645   1.349 -0.3928 -1.3341  0.9194
  705SOL    HW2 2819   2.258   1.537   1.330 -0.1477  2.9138  0.5930
  705SOL     MW 2820   2.227   1.616   1.324 -0.0695  0.1446  0.4622
  706SOL     OW 2821   2.982   1.237   0.635  0.2967  0.1025 -0.1915
  706SOL    HW1 2822   3.071   1.210   0.611 -0.6211  0.7178  1.1728
  706SOL    HW2 2823   2.965   1.338   0.650 -2.9395  2.9573  2.1789
  706SOL     MW 2824   2.992   1.246   0.634 -0.2514  0.5603  0.3012
  707SOL     OW 2825   2.452   0.106   1.005  0.4886 -0.0073  0.4966
  707SOL    HW1 2826   2.468   0.195   0.977  1.9535  1.5823  0.0281
  707SOL    HW2 2827   2.357   0.100   1.011  1.4168  2.7237 -1.8417
  707SOL     MW 2828   2.442   0.117   1.002  0.8044  0.5627  0.1263
  708SOL     OW 2829   2.534   1.537   0.119  0.7940 -0.0341 -0.4906
  708SOL    HW1 2830   2.582   1.465   0.172  0.4360 -1.3424 -0.8926
  708SOL    HW2 2831   2.483   1.496   0.049 -4.0639 -3.5908 -0.3820
  708SOL     MW 2832   2.533   1.522   0.117  0.1058 -0.6760 -0.5293
  709SOL     OW 2833   1.772   1.684   0.135  0.1089  0.1860  0.0151
  709SOL    HW1 2834   1.755   1.624   0.066 -0.4781 -0.6916 -0.3781
  709SOL    HW2 2835   1.716   1.651   0.208 -0.7594 -2.2273 -1.5244
  709SOL     MW 2836   1.763   1.672   0.136 -0.0831 -0.2482 -0.2399
  710SOL     OW 2837   2.222   1.179   1.200  0.1323  0.1388  0.2723
  710SOL    HW1 2838   2.249   1.186   1.110  0.9748  2.0291  3.4612
  710SOL    HW2 2839   2.265   1.096   1.228  1.4871 -3.1246  1.1233
  710SOL     MW 2840   2.231   1.169   1.192  0.4222 -0.0424  0.8053
  711SOL     OW 2841   2.314   0.131   1.756  0.3063  0.4714 -0.1948
  711SOL    HW1 2842   2.406   0.120   1.774 -1.8265 -0.0690 -0.1272
  711SOL    HW2 2843   2.289   0.063   1.701 -0.6152 -1.7975  2.8128
  711SOL     MW 2844   2.323   0.120   1.751 -0.0967  0.1008  0.2109
  712SOL     OW 2845   1.604   0.647   3.083 -0.2307 -0.2626 -0.4282
  712SOL    HW1 2846   1.648   0.712   3.029 -1.6178  1.6482  0.1236
  712SOL    HW2 2847   1.537   0.696   3.124 -0.2486  1.8317 -2.4229
  712SOL     MW 2848   1.601   0.662   3.081 -0.4161  0.2658 -0.6186
  713SOL     OW 2849   2.580   0.774   1.147  0.2152  0.2157  0.3913
  713SOL    HW1 2850   2.643   0.700   1.121  2.9924 -1.8427  1.3862
  713SOL    HW2 2851   2.546   0.746   1.236  0.3409 -2.4069 -2.4930
  713SOL     MW 2852   2.584   0.760   1.156  0.5982 -0.4019  0.1420
  714SOL     OW 2853   2.249   0.150   2.025 -0.3320 -0.3162 -0.5718
  714SOL    HW1 2854   2.303   0.093   2.080  1.4073  1.5837 -0.5095
  714SOL    HW2 2855   2.279   0.131   1.932  1.1143 -1.4612  0.3480
  714SOL     MW 2856   2.260   0.140   2.020  0.0883 -0.2166 -0.4423
  715SOL     OW 2857   1.748   1.927   1.712  0.1894  0.9097  0.2984
  715SOL    HW1 2858   1.837   1.900   1.674  1.4465 -2.4552 -0.0280
  715SOL    HW2 2859   1.712   1.843   1.743  0.4542 -0.8695  2.3111
  715SOL     MW 2860   1.755   1.913   1.711  0.3902  0.2310  0.5209
  716SOL     OW 2861   2.193   0.723   0.570  0.5722 -0.2542  0.6393
  716SOL    HW1 2862   2.259   0.719   0.504 -1.3769 -1.6630  1.6022
  716SOL    HW2 2863   2.108   0.722   0.518  0.8622  0.8634 -1.0428
  716SOL     MW 2864   2.191   0.723   0.555  0.3533 -0.2926  0.5444
  717SOL     OW 2865   2.898   1.426   2.978  0.0037  0.0662 -0.6001
  717SOL    HW1 2866   2.973   1.453   2.929 -0.6964 -0.3147  0.6121
  717SOL    HW2 2867   2.867   1.506   3.029 -2.7585  0.6718  1.7886
  717SOL     MW 2868   2.904   1.440   2.978 -0.4531  0.0959 -0.1250
  718SOL     OW 2869   2.565   1.494   1.277 -0.1699 -0.0210  0.4245
  718SOL    HW1 2870   2.576   1.501   1.375 -0.7678 -1.4147 -1.5787
  718SOL    HW2 2871   2.641   1.435   1.251  1.1877 -1.2101  1.7339
  718SOL     MW 2872   2.577   1.487   1.286 -0.0696 -0.3617  0.3330
  719SOL     OW 2873   2.154   1.330   0.685 -0.7716  0.3663 -0.1709
  719SOL    HW1 2874   2.242   1.321   0.644  0.5188  3.6919  1.1232
  719SOL    HW2 2875   2.167   1.326   0.777  0.8777 -2.9557 -1.1083
  719SOL     MW 2876   2.168   1.328   0.692 -0.3837  0.3668 -0.1239
  720SOL     OW 2877   2.863   1.169   0.159 -0.2427  0.1424 -0.2578
  720SOL    HW1 2878   2.866   1.088   0.211 -2.8587  0.1307 -4.3354
  720SOL    HW2 2879   2.802   1.223   0.206 -2.0377 -1.8970  2.0572
  720SOL     MW 2880   2.856   1.166   0.172 -0.8247 -0.1283 -0.4904
  721SOL     OW 2881   2.461   0.783   1.416  0.3583 -0.0034 -0.4165
  721SOL    HW1 2882   2.451   0.706   1.474 -2.3775 -0.9670 -1.8031
  721SOL    HW2 2883   2.528   0.823   1.474  0.8344 -3.0456 -2.0764
  721SOL     MW 2884   2.468   0.778   1.431  0.0602 -0.5319 -0.8185
  722SOL     OW 2885   2.496   1.162   0.350  0.1284  0.1651 -0.2578
  722SOL    HW1 2886   2.435   1.184   0.422 -0.1358  0.4385  2.5463
  722SOL    HW2 2887   2.565   1.107   0.384  3.4346  1.7300  1.4156
  722SOL     MW 2888   2.497   1.158   0.364  0.5298  0.4076  0.3329
  723SOL     OW 2889   2.249   1.382   1.642 -0.1841  0.1718 -0.1436
  723SOL    HW1 2890   2.248   1.376   1.546  1.9829 -1.7958 -1.0864
  723SOL    HW2 2891   2.173   1.334   1.671 -0.7548  1.3100  0.4895
  723SOL     MW 2892   2.239   1.374   1.633  0.0265  0.0624 -0.1845
  724SOL     OW 2893   2.500   0.358   0.588 -0.0092 -0.0377 -0.1559
  724SOL    HW1 2894   2.469   0.375   0.676 -2.4145  0.0150 -3.2439
  724SOL    HW2 2895   2.592   0.338   0.599 -1.1611  1.3858 -0.1140
  724SOL     MW 2896   2.508   0.357   0.601 -0.4786  0.1571 -0.5578
  725SOL     OW 2897   2.644   0.493   1.132  0.1724  0.5804  0.1311
  725SOL    HW1 2898   2.683   0.492   1.223  0.5576  0.5807  1.8919
  725SOL    HW2 2899   2.551   0.507   1.142 -0.7198 -1.6355 -2.6951
  725SOL     MW 2900   2.637   0.495   1.145  0.1055  0.2880 -0.0095
  726SOL     OW 2901   2.568   2.399   0.540 -0.0547  0.0220  0.6404
  726SOL    HW1 2902   2.503   2.459   0.511  3.3311  0.6933  1.5367
  726SOL    HW2 2903   2.551   2.394   0.631 -0.5800  3.8097  0.3433
  726SOL     MW 2904   2.557   2.406   0.548  0.3227  0.6103  0.7195
  727SOL     OW 2905   2.889   0.289   1.660 -0.2640  0.0022  0.0340
  727SOL    HW1 2906   2.911   0.277   1.566 -0.8320  0.8876 -3.0929
  727SOL    HW2 2907   2.792   0.311   1.662  0.7785 -3.4081  1.8558
  727SOL     MW 2908   2.879   0.291   1.648 -0.2014 -0.3309 -0.1382
  728SOL     OW 2909   2.773   1.163   2.999  0.6252 -0.3232  0.2201
  728SOL    HW1 2910   2.792   1.251   2.977 -4.2818 -2.3033 -0.1291
  728SOL    HW2 2911   2.796   1.160   3.087 -1.1770  1.4826  0.1769
  728SOL     MW 2912   2.778   1.174   3.007 -0.2600 -0.3462  0.1683
  729SOL     OW 2913   2.467   1.455   0.988  0.1136 -0.0457  0.2162
  729SOL    HW1 2914   2.486   1.496   1.068 -1.2058  0.9995  1.7466
  729SOL    HW2 2915   2.516   1.375   0.999 -0.9037  1.4627 -0.4120
  729SOL     MW 2916   2.476   1.450   1.000 -0.1947  0.2912  0.3353
  730SOL     OW 2917   2.073   1.173   0.172 -0.0803  0.9420  0.1484
  730SOL    HW1 2918   2.166   1.141   0.165 -0.5358 -2.5141  0.9615
  730SOL    HW2 2919   2.083   1.268   0.185 -0.3169  1.1054  0.0358
  730SOL     MW 2920   2.087   1.182   0.173 -0.1716  0.5076  0.2408
  731SOL     OW 2921   2.789   1.798   2.873  0.3325  0.0626 -0.0875
  731SOL    HW1 2922   2.698   1.822   2.865 -0.4711 -0.0407 -0.1124
  731SOL    HW2 2923   2.823   1.886   2.889  1.3088  1.2387  1.2245
  731SOL     MW 2924   2.781   1.813   2.874  0.3553  0.2041  0.0823
  732SOL     OW 2925   2.230   0.929   1.292 -0.4115  0.8274 -0.4852
  732SOL    HW1 2926   2.160   0.941   1.355  1.4597 -2.0779  0.6368
  732SOL    HW2 2927   2.298   0.859   1.326  0.4644 -2.4552 -1.3266
  732SOL     MW 2928   2.230   0.922   1.305 -0.0490  0.0110 -0.4482
  733SOL     OW 2929   2.381   2.850   3.037 -0.2185 -0.5932 -0.6023
  733SOL    HW1 2930   2.298   2.897   3.024 -1.4257  2.3564 -0.2738
  733SOL    HW2 2931   2.356   2.759   3.052  0.7442 -1.7520 -2.0822
  733SOL     MW 2932   2.367   2.844   3.037 -0.2507 -0.3569 -0.7542
  734SOL     OW 2933   1.512   0.381   2.528  0.0395  0.3430  0.2474
  734SOL    HW1 2934   1.440   0.350   2.586 -3.6933  2.0497  1.3925
  734SOL    HW2 2935   1.510   0.318   2.451  0.4701  2.4889  0.4668
  734SOL     MW 2936   1.502   0.369   2.525 -0.3962  0.8513  0.4274
  735SOL     OW 2937   2.990   0.887   2.751 -0.2594  0.0148  0.0035
  735SOL    HW1 2938   2.909   0.837   2.744 -1.5571  0.0620  0.7374
  735SOL    HW2 2939   2.981   0.931   2.833 -2.2934 -2.7190 -0.0462
  735SOL     MW 2940   2.978   0.886   2.761 -0.6990 -0.3397  0.0937
  736SOL     OW 2941   0.039   0.643   2.486 -0.1293  0.0566 -0.3439
  736SOL    HW1 2942   0.091   0.694   2.422  0.6401 -0.9038 -0.2374
  736SOL    HW2 2943   0.038   0.553   2.450 -0.8149  1.4015 -3.6920
  736SOL     MW 2944   0.046   0.638   2.473 -0.1182  0.1073 -0.7716
  737SOL     OW 2945   2.871   0.619   2.556  0.3899  0.2425 -0.1346
  737SOL    HW1 2946   2.835   0.587   2.472  0.4334  0.7854  1.0891
  737SOL    HW2 2947   2.955   0.660   2.526 -0.6118  1.8087 -1.4965
  737SOL     MW 2948   2.878   0.621   2.541  0.2635  0.5208 -0.1528
  738SOL     OW 2949   0.158   0.392   1.902  0.1738  0.2772  0.0581
  738SOL    HW1 2950   0.235   0.436   1.917 -0.3046  0.3587 -2.7812
  738SOL    HW2 2951   0.191   0.329   1.838  1.2959  0.1432  0.8130
  738SOL     MW 2952   0.173   0.389   1.896  0.2587  0.2702 -0.2169
  739SOL     OW 2953   2.559   1.025   2.193  0.0145  0.1415  0.4784
  739SOL    HW1 2954   2.476   0.996   2.161  0.2838 -1.4357 -0.5214
  739SOL    HW2 2955   2.592   1.079   2.122  0.7588  1.0139  0.4373
  739SOL     MW 2956   2.553   1.028   2.180  0.1482  0.0485  0.3410
  740SOL     OW 2957   0.286   1.704   2.927 -0.4594  0.0334  0.1950
  740SOL    HW1 2958   0.271   1.611   2.942  0.7091  0.6093  0.0863
  740SOL    HW2 2959   0.363   1.721   2.986 -0.3878 -0.7816  0.2936
  740SOL     MW 2960   0.294   1.694   2.936 -0.2958  0.0018  0.1936
  741SOL     OW 2961   2.216   1.264   2.643  0.0752  0.2316  0.5623
  741SOL    HW1 2962   2.238   1.352   2.618 -1.0876 -0.5537  1.2965
  741SOL    HW2 2963   2.203   1.273   2.736  3.2397 -0.4122  3.2128
  741SOL     MW 2964   2.217   1.277   2.652  0.3393  0.0431  1.0089
  742SOL     OW 2965   1.564   1.370   2.346  0.5785 -0.2675 -0.4997
  742SOL    HW1 2966   1.521   1.292   2.315 -0.4823  2.7928  1.0816
  742SOL    HW2 2967   1.602   1.332   2.432 -0.8048 -1.6179  0.2074
  742SOL     MW 2968   1.564   1.354   2.353  0.2560 -0.0419 -0.1978
  743SOL     OW 2969   2.498   1.215   2.693 -0.4195 -0.2832  0.2704
  743SOL    HW1 2970   2.405   1.219   2.666  0.6183  0.1551  0.3303
  743SOL    HW2 2971   2.516   1.131   2.724 -0.8907  3.1903  2.3011
  743SOL     MW 2972   2.488   1.205   2.693 -0.3448  0.2329  0.5462
  744SOL     OW 2973   2.779   0.968   1.803 -0.3198  0.0293  0.0286
  744SOL    HW1 2974   2.712   1.009   1.864 -0.9506  1.7469 -0.2319
  744SOL    HW2 2975   2.721   0.927   1.734  1.8108 -1.4375 -1.5493
  744SOL     MW 2976   2.763   0.968   1.802 -0.1219  0.0624 -0.2140
  745SOL     OW 2977   1.795   0.482   2.468 -0.7711  0.1969 -0.3254
  745SOL    HW1 2978   1.746   0.469   2.378 -3.1881 -1.1459  1.6256
  745SOL    HW2 2979   1.734   0.428   2.517 -1.8998  1.1581  0.5989
  745SOL     MW 2980   1.781   0.473   2.462 -1.2389  0.1465  0.0539
  746SOL     OW 2981   1.591   1.435   1.727 -0.1666  0.1383 -0.2391
  746SOL    HW1 2982   1.629   1.508   1.774  2.2913 -1.1361  3.5812
  746SOL    HW2 2983   1.545   1.392   1.794  2.8061 -0.5142 -1.6314
  746SOL     MW 2984   1.590   1.439   1.742  0.5499 -0.1159  0.0813
  747SOL     OW 2985   2.605   1.148   1.932  0.7661 -0.6972 -0.5176
  747SOL    HW1 2986   2.520   1.163   1.886 -0.5445  0.4162  0.0774
  747SOL    HW2 2987   2.614   1.229   1.992 -2.0359 -0.9024 -0.6002
  747SOL     MW 2988   2.595   1.161   1.933  0.2235 -0.5774 -0.4500
  748SOL     OW 2989   0.126   3.007   1.963  0.0657  1.1210  0.3648
  748SOL    HW1 2990   0.189   3.053   1.911  1.8451 -0.3297 -1.6598
  748SOL    HW2 2991   0.084   3.061   2.027 -2.9580 -1.3887 -2.1652
  748SOL     MW 2992   0.129   3.020   1.965 -0.0985  0.5984 -0.2361
  749SOL     OW 2993   2.406   0.637   2.798  0.3673  0.2864 -0.3256
  749SOL    HW1 2994   2.390   0.715   2.746 -0.2194 -4.1817  2.0122
  749SOL    HW2 2995   2.457   0.668   2.878  0.1535 -0.1884 -1.9049
  749SOL     MW 2996   2.410   0.651   2.801  0.2616 -0.3657 -0.2255
  750SOL     OW 2997   2.073   3.059   2.004  0.8070 -0.1568  0.1566
  750SOL    HW1 2998   2.126   3.145   2.011  0.3239 -1.2794  2.1545
  750SOL    HW2 2999   2.133   2.984   1.989  0.2793  1.1117  0.1754
  750SOL     MW 3000   2.088   3.060   2.003  0.6736 -0.1376  0.4227
  751SOL     OW 3001   0.025   0.372   2.440 -0.0425 -0.0198  0.5434
  751SOL    HW1 3002  -0.054   0.331   2.399  0.3482 -1.4380 -2.5709
  751SOL    HW2 3003   0.088   0.372   2.368 -2.9009 -1.0381  1.3497
  751SOL     MW 3004   0.023   0.366   2.425 -0.3681 -0.3413  0.2389
  752SOL     OW 3005   2.156   0.963   2.785 -0.1758  0.0159  0.4319
  752SOL    HW1 3006   2.239   0.979   2.826  2.2113 -1.5967 -1.8745
  752SOL    HW2 3007   2.132   0.877   2.816 -0.7606  0.1918  1.3256
  752SOL     MW 3008   2.164   0.954   2.794  0.0620 -0.1736  0.2455
  753SOL     OW 3009   2.856   0.292   2.336 -0.0037  0.6605 -0.3614
  753SOL    HW1 3010   2.808   0.204   2.340 -0.0597 -1.1722 -1.1245
  753SOL    HW2 3011   2.792   0.355   2.359  1.2105 -2.3031 -1.0067
  753SOL     MW 3012   2.841   0.289   2.339  0.1491  0.0277 -0.5472
  754SOL     OW 3013   2.242   3.010   2.619  0.2690  0.2609 -0.4680
  754SOL    HW1 3014   2.255   2.957   2.539  3.0636  0.5169  0.4974
  754SOL    HW2 3015   2.311   2.982   2.683 -1.4447  0.2454  0.4806
  754SOL     MW 3016   2.253   2.999   2.617  0.4116  0.2927 -0.2155
  755SOL     OW 3017   2.771   1.608   2.384 -0.4127 -0.0712 -0.0889
  755SOL    HW1 3018   2.752   1.515   2.409 -0.7033 -1.5038  1.0623
  755SOL    HW2 3019   2.798   1.649   2.468 -1.5049 -1.5272 -1.6047
  755SOL     MW 3020   2.772   1.601   2.399 -0.5951 -0.4524 -0.1370
  756SOL     OW 3021   2.207   1.246   2.969 -0.2170 -0.1321  0.1327
  756SOL    HW1 3022   2.274   1.313   2.970 -1.3737  0.0633 -0.2892
  756SOL    HW2 3023   2.258   1.162   2.962 -0.9527 -0.8365  0.1646
  756SOL     MW 3024   2.223   1.243   2.968 -0.4667 -0.1992  0.0813
  757SOL     OW 3025   2.188   0.967   1.710 -0.3285 -0.1995  0.7171
  757SOL    HW1 3026   2.205   0.874   1.701 -1.7121 -0.5127 -0.3515
  757SOL    HW2 3027   2.126   0.973   1.634  0.4576 -0.6243  0.6620
  757SOL     MW 3028   2.182   0.955   1.699 -0.4074 -0.2969  0.5689
  758SOL     OW 3029   2.176   1.843   2.517  0.2412 -0.3198  0.7245
  758SOL    HW1 3030   2.140   1.915   2.459  1.7450  0.6458  0.3299
  758SOL    HW2 3031   2.261   1.838   2.477  1.0312  0.1844 -0.5881
  758SOL     MW 3032   2.183   1.852   2.504  0.5439 -0.1259  0.4993
  759SOL     OW 3033   1.587   1.461   2.812  0.1052  0.0098  0.2581
  759SOL    HW1 3034   1.608   1.528   2.735 -0.9907  1.5838 -2.0610
  759SOL    HW2 3035   1.657   1.479   2.875  0.2041  1.5132  1.0449
  759SOL     MW 3036   1.599   1.472   2.810 -0.0263  0.4159  0.0559
  760SOL     OW 3037   2.580   1.925   2.717 -0.1508  0.2898  0.0895
  760SOL    HW1 3038   2.544   1.851   2.674 -2.1571  1.8609  0.5025
  760SOL    HW2 3039   2.653   1.959   2.668 -1.8163 -0.5475  0.3361
  760SOL     MW 3040   2.585   1.920   2.705 -0.6352  0.3867  0.1765
  761SOL     OW 3041   2.317   0.433   2.380 -0.4703  0.0965  0.7498
  761SOL    HW1 3042   2.236   0.395   2.418  2.3416 -0.2388  3.1265
  761SOL    HW2 3043   2.369   0.457   2.459 -1.8272  0.9502 -1.2775
  761SOL     MW 3044   2.313   0.432   2.396 -0.2783  0.1649  0.7959
  762SOL     OW 3045   0.015   0.185   2.137  0.2025  0.2192 -0.4178
  762SOL    HW1 3046  -0.014   0.133   2.214  0.9944 -0.5455 -0.2975
  762SOL    HW2 3047  -0.055   0.243   2.113 -0.6154 -0.8494 -0.2341
  762SOL     MW 3048   0.002   0.186   2.144  0.1990 -0.0227 -0.3777
  763SOL     OW 3049   2.448   1.205   2.396  0.2291  0.7321 -0.0111
  763SOL    HW1 3050   2.488   1.157   2.322  1.9343  0.2440 -0.2975
  763SOL    HW2 3051   2.522   1.231   2.444 -2.9192 -1.1083 -0.4267
  763SOL     MW 3052   2.463   1.202   2.393  0.0387  0.4249 -0.1037
  764SOL     OW 3053   0.394   0.038   2.785 -0.3961  0.0399  0.1999
  764SOL    HW1 3054   0.337   0.108   2.776  0.1501 -3.2398 -0.3028
  764SOL    HW2 3055   0.425   0.038   2.879  0.1995  0.1912  1.1667
  764SOL     MW 3056   0.391   0.047   2.797 -0.2454 -0.3729  0.2612
  765SOL     OW 3057   2.772   0.025   2.340  0.0181 -0.7744 -0.1755
  765SOL    HW1 3058   2.726   0.012   2.259  1.6798  2.4545  1.2120
  765SOL    HW2 3059   2.811  -0.060   2.361 -2.8367 -1.4415 -1.5370
  765SOL     MW 3060   2.771   0.012   2.332 -0.1393 -0.4364 -0.1721
  766SOL     OW 3061   1.923   2.983   2.206  0.0960  0.3548 -0.1802
  766SOL    HW1 3062   1.978   3.026   2.137 -0.1230 -1.2839 -4.6754
  766SOL    HW2 3063   1.839   2.946   2.163  0.8331  1.1676 -3.7887
  766SOL     MW 3064   1.919   2.984   2.192  0.1643  0.2458 -1.2494
  767SOL     OW 3065   2.649   0.628   1.893 -0.0898  0.0130 -0.1309
  767SOL    HW1 3066   2.654   0.651   1.982  2.3286 -1.5449 -1.0189
  767SOL    HW2 3067   2.582   0.690   1.864  1.0487  0.9438  1.2659
  767SOL     MW 3068   2.641   0.639   1.901  0.3795 -0.0697 -0.0638
  768SOL     OW 3069   0.071   1.461   2.892  0.3236  0.2712 -0.0560
  768SOL    HW1 3070   0.065   1.505   2.974 -0.9743  1.6842  1.5549
  768SOL    HW2 3071   0.106   1.376   2.921 -2.8895 -0.7997 -3.0189
  768SOL     MW 3072   0.075   1.455   2.907 -0.2716  0.3163 -0.2344
  769SOL     OW 3073   2.391   0.700   2.347 -0.0085 -0.1608 -0.2545
  769SOL    HW1 3074   2.365   0.603   2.331 -0.5786  1.0248 -0.9231
  769SOL    HW2 3075   2.458   0.718   2.280  1.7549  1.5080 -2.8528
  769SOL     MW 3076   2.397   0.689   2.336  0.1490  0.2158 -0.6855
  770SOL     OW 3077   3.087   1.597   2.663  0.1221 -0.7072  0.5862
  770SOL    HW1 3078   2.993   1.604   2.665  1.3735 -1.1650  0.7385
  770SOL    HW2 3079   3.125   1.552   2.741 -0.6397 -1.0452  0.4845
  770SOL     MW 3080   3.079   1.592   2.674  0.1867 -0.8122  0.5929
  771SOL     OW 3081   3.070   0.564   1.988  0.1821  0.3136 -0.3044
  771SOL    HW1 3082   3.016   0.587   1.911 -0.1077 -1.7749  0.0894
  771SOL    HW2 3083   3.136   0.494   1.970  0.3675  4.0335  1.9106
  771SOL     MW 3084   3.071   0.558   1.976  0.1684  0.5288  0.0398
  772SOL     OW 3085   3.091   0.007   2.343 -0.3391  0.2513  0.2661
  772SOL    HW1 3086   3.001   0.006   2.360  0.0050 -1.0755 -0.9927
  772SOL    HW2 3087   3.124  -0.082   2.308 -0.6154  0.1322 -1.4308
  772SOL     MW 3088   3.083  -0.005   2.340 -0.3301  0.0605 -0.1239
  773SOL     OW 3089   2.477   2.912   2.762 -0.0629  0.2278 -0.3888
  773SOL    HW1 3090   2.514   2.825   2.743 -0.7934 -1.4462 -1.3548
  773SOL    HW2 3091   2.470   2.909   2.859  1.5268 -1.4848  0.9126
  773SOL     MW 3092   2.481   2.900   2.772  0.0504 -0.2190 -0.3446
  774SOL     OW 3093   2.382   1.169   1.768 -0.3286 -0.3552 -0.7620
  774SOL    HW1 3094   2.390   1.241   1.709  0.3481  0.2867 -2.1669
  774SOL    HW2 3095   2.312   1.121   1.722  0.4700  2.0887  0.6547
  774SOL     MW 3096   2.374   1.172   1.754 -0.1340  0.0519 -0.7604
  775SOL     OW 3097   2.329   2.886   2.388 -0.2745  0.3075 -0.1510
  775SOL    HW1 3098   2.351   2.973   2.348  0.3619  0.1665 -1.4549
  775SOL    HW2 3099   2.395   2.835   2.349 -0.3172 -1.4189  0.2749
  775SOL     MW 3100   2.341   2.891   2.378 -0.1962  0.0611 -0.2669
  776SOL     OW 3101   0.137   1.507   0.067  0.1789  0.1296  0.6441
  776SOL    HW1 3102   0.215   1.454   0.084 -0.0005  0.5928  0.4697
  776SOL    HW2 3103   0.068   1.455   0.116 -0.6136 -1.9215 -0.7850
  776SOL     MW 3104   0.139   1.493   0.076  0.0507 -0.0799  0.4325
  777SOL     OW 3105   2.978   1.123   1.693 -0.8551 -0.5211  0.8978
  777SOL    HW1 3106   2.952   1.158   1.611 -2.1562  2.1698 -2.9599
  777SOL    HW2 3107   2.902   1.075   1.726 -2.1025  3.3330  3.7447
  777SOL     MW 3108   2.964   1.121   1.686 -1.1913  0.3424  0.7644
  778SOL     OW 3109   2.935   0.499   2.835 -0.4109  0.1019  0.1307
  778SOL    HW1 3110   2.885   0.544   2.909 -0.5758 -0.2894  1.9606
  778SOL    HW2 3111   2.902   0.541   2.757  0.0069  2.0829  0.2691
  778SOL     MW 3112   2.924   0.510   2.835 -0.3776  0.3116  0.3904
  779SOL     OW 3113   2.222   0.543   2.104  0.1896 -0.6226 -0.0198
  779SOL    HW1 3114   2.138   0.570   2.154  0.6810 -1.8331  2.1021
  779SOL    HW2 3115   2.245   0.469   2.152  0.1376  1.7975  0.3245
  779SOL     MW 3116   2.214   0.537   2.117  0.2476 -0.4630  0.3056
  780SOL     OW 3117   0.219   0.255   2.719  0.0881  0.2012 -0.2649
  780SOL    HW1 3118   0.123   0.273   2.718 -3.9183 -0.2156  1.6710
  780SOL    HW2 3119   0.266   0.335   2.727 -1.3689  3.4021  1.0033
  780SOL     MW 3120   0.212   0.268   2.720 -0.6327  0.5686  0.1579
  781SOL     OW 3121   0.007   1.206   2.420  0.0854  0.0582 -0.4140
  781SOL    HW1 3122   0.040   1.220   2.327  1.3078 -0.1271 -1.3480
  781SOL    HW2 3123  -0.013   1.116   2.428  2.0101  1.6679  0.4885
  781SOL     MW 3124   0.009   1.196   2.409  0.5006  0.2461 -0.4182
  782SOL     OW 3125   0.737   1.491   0.050  0.0293  0.2297 -0.3318
  782SOL    HW1 3126   0.655   1.542   0.040 -3.7647  1.0787  1.6729
  782SOL    HW2 3127   0.747   1.496   0.148  1.3947 -0.4412 -0.2180
  782SOL     MW 3128   0.727   1.498   0.062 -0.2911  0.2532 -0.0523
  783SOL     OW 3129   2.706   0.528   2.358 -0.3600 -0.5759  0.0626
  783SOL    HW1 3130   2.681   0.594   2.297  0.9461 -0.7711  2.0332
  783SOL    HW2 3131   2.641   0.537   2.426  1.0394 -0.4964 -1.0204
  783SOL     MW 3132   2.694   0.538   2.359 -0.0031 -0.5912  0.1797
  784SOL     OW 3133   0.139   0.803   2.830  0.4371 -0.1634 -0.4176
  784SOL    HW1 3134   0.059   0.828   2.790  1.2965  1.0166 -0.2768
  784SOL    HW2 3135   0.203   0.840   2.769  0.7556 -1.4327 -1.8921
  784SOL     MW 3136   0.137   0.811   2.816  0.5925 -0.1752 -0.5936
  785SOL     OW 3137   0.453   0.437   2.161 -0.7200  0.1640  0.3675
  785SOL    HW1 3138   0.452   0.465   2.066  0.7995 -1.3514  1.6174
  785SOL    HW2 3139   0.371   0.383   2.176 -0.9021 -0.4961 -2.0224
  785SOL     MW 3140   0.442   0.433   2.150 -0.5435 -0.1231  0.2171
  786SOL     OW 3141   1.877   0.513   3.036 -0.0143 -0.4361  0.0914
  786SOL    HW1 3142   1.881   0.572   2.956  2.5698  2.1935  0.3167
  786SOL    HW2 3143   1.785   0.532   3.063 -2.9433 -1.0101 -1.3990
  786SOL     MW 3144   1.865   0.523   3.029 -0.0598 -0.1649 -0.0755
  787SOL     OW 3145   2.388   0.198   2.913 -0.0961 -0.0454 -0.0647
  787SOL    HW1 3146   2.467   0.152   2.870  1.8924 -2.3861 -0.5754
  787SOL    HW2 3147   2.427   0.279   2.952 -0.2497  1.6115  0.7750
  787SOL     MW 3148   2.404   0.203   2.913  0.1460 -0.1356 -0.0213
  788SOL     OW 3149   2.921   2.886   2.386 -0.1195  0.3895 -0.0375
  788SOL    HW1 3150   2.990   2.875   2.451  1.3434 -0.8734  0.4468
  788SOL    HW2 3151   2.949   2.853   2.298  0.2620  1.9964  0.7790
  788SOL     MW 3152   2.933   2.880   2.383  0.1238  0.4349  0.1341
  789SOL     OW 3153   0.104   0.196   0.067  0.1304  0.3932 -0.6080
  789SOL    HW1 3154   0.038   0.130   0.094 -0.9229 -1.7524  0.9365
  789SOL    HW2 3155   0.065   0.263   0.012  2.6617  0.6971  0.5151
  789SOL     MW 3156   0.090   0.196   0.063  0.3254  0.1502 -0.2561
  790SOL     OW 3157   3.042   0.945   2.477 -0.4047  0.3898 -0.0011
  790SOL    HW1 3158   3.009   0.925   2.564  2.2836  0.7221 -3.7575
  790SOL    HW2 3159   2.976   0.942   2.403 -0.6957 -1.9684 -0.6664
  790SOL     MW 3160   3.029   0.942   2.479 -0.0884  0.1225 -0.5845
  791SOL     OW 3161   2.514   0.506   2.581  0.6422 -0.0687 -0.1039
  791SOL    HW1 3162   2.485   0.537   2.669  0.8383 -1.1432 -0.3517
  791SOL    HW2 3163   2.540   0.415   2.595 -0.9453  1.5377  2.9314
  791SOL     MW 3164   2.513   0.498   2.595  0.4586  0.0014  0.2639
  792SOL     OW 3165   2.487   0.225   2.444 -0.1964 -0.0945  0.1781
  792SOL    HW1 3166   2.463   0.300   2.387 -0.1325 -0.0164 -1.4601
  792SOL    HW2 3167   2.424   0.213   2.516 -2.1175  1.0128  0.1175
  792SOL     MW 3168   2.476   0.233   2.446 -0.4415  0.0619 -0.0461
  793SOL     OW 3169   1.841   1.137   2.051 -0.5380 -0.3539 -0.2767
  793SOL    HW1 3170   1.794   1.120   1.972  0.7682  0.2200  2.6805
  793SOL    HW2 3171   1.931   1.114   2.026 -1.6894 -0.3775 -0.0050
  793SOL     MW 3172   1.847   1.132   2.037 -0.5176 -0.2813  0.1494
  794SOL     OW 3173   1.370   2.299   0.116 -0.1241  0.5807 -0.1198
  794SOL    HW1 3174   1.406   2.381   0.077 -3.7442 -0.4362  1.1018
  794SOL    HW2 3175   1.438   2.262   0.163 -0.5503 -0.7784 -0.0323
  794SOL     MW 3176   1.384   2.305   0.117 -0.6579  0.2672  0.0529
  795SOL     OW 3177   2.280   1.029   2.510 -0.2838  0.1072  0.5520
  795SOL    HW1 3178   2.224   1.093   2.556  0.4515  1.6554 -1.6674
  795SOL    HW2 3179   2.354   1.090   2.475  2.7569  1.4729 -4.7895
  795SOL     MW 3180   2.282   1.045   2.511  0.2144  0.4916 -0.4456
  796SOL     OW 3181   0.251   0.590   2.678  0.1399  0.4615  0.1283
  796SOL    HW1 3182   0.206   0.632   2.749  0.6951  0.6518  1.2302
  796SOL    HW2 3183   0.199   0.614   2.601 -3.2040 -0.8858  0.4544
  796SOL     MW 3184   0.238   0.599   2.677 -0.2280  0.3089  0.3167
  797SOL     OW 3185   2.763   0.216   2.659 -0.2425 -0.1412 -0.3200
  797SOL    HW1 3186   2.726   0.196   2.571 -1.0200  0.6947  1.2752
  797SOL    HW2 3187   2.854   0.243   2.657 -1.9911  0.9092  0.5601
  797SOL     MW 3188   2.770   0.217   2.647 -0.5758  0.1077  0.0066
  798SOL     OW 3189   2.412   0.012   2.270 -0.2571 -0.7148  0.5439
  798SOL    HW1 3190   2.445   0.067   2.349  0.4914  0.2840 -0.9582
  798SOL    HW2 3191   2.489   0.000   2.216 -0.1980 -1.7132  2.5730
  798SOL     MW 3192   2.426   0.018   2.273 -0.1505 -0.7147  0.6134
  799SOL     OW 3193   2.579   3.017   0.076 -0.1046  1.0800  0.1173
  799SOL    HW1 3194   2.506   2.980   0.029 -0.6629 -0.9780  0.8675
  799SOL    HW2 3195   2.563   2.982   0.171 -1.7970  0.3631  0.8975
  799SOL     MW 3196   2.567   3.007   0.083 -0.4016  0.7139  0.3192
  800SOL     OW 3197   1.947   2.996   1.742  0.2892 -0.1975 -0.5723
  800SOL    HW1 3198   1.860   2.952   1.733 -1.8293  0.4719  2.4514
  800SOL    HW2 3199   1.962   3.029   1.827 -0.3552  0.2682 -0.6753
  800SOL     MW 3200   1.938   2.995   1.752 -0.0753 -0.0477 -0.1870
  801SOL     OW 3201   2.891   1.263   2.586  0.0932 -0.5837  0.3723
  801SOL    HW1 3202   2.867   1.176   2.597  0.5511 -0.2846  0.3413
  801SOL    HW2 3203   2.974   1.255   2.537  0.3532  0.3647 -0.5510
  801SOL     MW 3204   2.899   1.251   2.581  0.1879 -0.4191  0.2464
  802SOL     OW 3205   2.635   1.415   2.823 -0.1659 -0.2800 -0.4325
  802SOL    HW1 3206   2.638   1.329   2.764  2.1610 -0.7495  1.3324
  802SOL    HW2 3207   2.703   1.401   2.885  1.5874 -0.3456  0.9486
  802SOL     MW 3208   2.644   1.402   2.823  0.3724 -0.3506 -0.0174
  803SOL     OW 3209   2.344   1.409   1.991 -0.5456  0.3573  0.1791
  803SOL    HW1 3210   2.312   1.386   2.075  2.0495  0.2735 -0.4422
  803SOL    HW2 3211   2.333   1.329   1.940  0.7395  0.1553 -0.2933
  803SOL     MW 3212   2.338   1.395   1.995 -0.0337  0.3196  0.0348
  804SOL     OW 3213   2.245   0.124   0.048  0.2422 -0.2701 -0.0505
  804SOL    HW1 3214   2.185   0.194   0.042  3.7337  1.0044  0.6094
  804SOL    HW2 3215   2.305   0.141  -0.024 -2.6074 -0.7754  0.1627
  804SOL     MW 3216   2.245   0.136   0.038  0.3269 -0.1686  0.0647
  805SOL     OW 3217   2.718   0.812   2.659 -0.1984  0.0964 -0.5362
  805SOL    HW1 3218   2.633   0.808   2.614 -0.6445 -0.9235 -0.8954
  805SOL    HW2 3219   2.754   0.735   2.623 -4.4626 -1.5335  1.2125
  805SOL     MW 3220   2.711   0.801   2.649 -0.8199 -0.2532 -0.3529
  806SOL     OW 3221   2.655   0.747   2.193  0.6919 -0.4316 -0.0981
  806SOL    HW1 3222   2.734   0.776   2.149  2.2736 -2.1264 -0.2539
  806SOL    HW2 3223   2.623   0.833   2.224  0.7322 -1.1267  0.6623
  806SOL     MW 3224   2.661   0.762   2.191  0.9059 -0.7469 -0.0183
  807SOL     OW 3225   3.060   1.066   2.014  0.6416  0.4948  0.1524
  807SOL    HW1 3226   3.078   0.972   2.024  0.7996  0.6749  3.7917
  807SOL    HW2 3227   3.005   1.085   2.094 -3.2612 -0.5923  2.6015
  807SOL     MW 3228   3.055   1.056   2.026  0.1475  0.3751  0.9557
  808SOL     OW 3229   2.609   0.071   2.822  0.3452 -0.5373  0.1149
  808SOL    HW1 3230   2.607  -0.017   2.781 -1.3820 -0.1912 -2.4890
  808SOL    HW2 3231   2.663   0.119   2.765  1.3232  2.5942  1.6840
  808SOL     MW 3232   2.616   0.065   2.809  0.2464 -0.0785 -0.0217
  809SOL     OW 3233   2.693   1.357   2.440 -0.3669  0.2413 -0.2922
  809SOL    HW1 3234   2.772   1.344   2.503 -2.0250 -1.9411 -0.0496
  809SOL    HW2 3235   2.721   1.332   2.354  0.3443 -0.9831  1.3040
  809SOL     MW 3236   2.707   1.352   2.437 -0.4919 -0.2082 -0.0496
  810SOL     OW 3237   2.239   1.300   2.214  0.1382 -0.2371  0.6348
  810SOL    HW1 3238   2.310   1.281   2.273  0.2091  1.1733 -0.0295
  810SOL    HW2 3239   2.210   1.215   2.187 -3.6710  0.7592  0.9094
  810SOL     MW 3240   2.245   1.286   2.218 -0.3550  0.0804  0.5834
  811SOL     OW 3241   1.626   0.208   2.268 -0.0188 -0.4493 -0.3203
  811SOL    HW1 3242   1.696   0.137   2.283  3.4429 -1.1263 -0.1209
  811SOL    HW2 3243   1.616   0.219   2.167  2.0032 -0.6726 -2.5467
  811SOL     MW 3244   1.634   0.200   2.257  0.7047 -0.5680 -0.5877
  812SOL     OW 3245   1.471   2.800   2.055  0.5536 -0.2252 -0.2884
  812SOL    HW1 3246   1.562   2.802   2.032 -0.6969 -1.0334  0.2416
  812SOL    HW2 3247   1.472   2.779   2.152  0.0451  3.1129  1.5686
  812SOL     MW 3248   1.483   2.798   2.065  0.3215  0.1086  0.0265
  813SOL     OW 3249   1.988   0.632   2.252  0.8127  0.0006  0.0922
  813SOL    HW1 3250   1.891   0.603   2.227 -0.6907 -2.0748 -1.9711
  813SOL    HW2 3251   1.987   0.729   2.271 -3.8458 -1.0089 -0.2111
  813SOL     MW 3252   1.975   0.641   2.251 -0.0003 -0.4064 -0.2201
  814SOL     OW 3253   2.706   1.293   1.645 -0.0939 -0.3402 -0.1954
  814SOL    HW1 3254   2.694   1.234   1.716 -1.0708  4.1280  2.2238
  814SOL    HW2 3255   2.735   1.242   1.570  0.2992 -1.6597  0.6419
  814SOL     MW 3256   2.708   1.278   1.645 -0.1709  0.0752  0.2343
  815SOL     OW 3257   2.541   1.769   2.371  0.0247 -0.3776  0.5436
  815SOL    HW1 3258   2.497   1.690   2.320 -0.5026 -3.1692  0.6835
  815SOL    HW2 3259   2.633   1.737   2.373  0.6209 -0.7544 -1.1826
  815SOL     MW 3260   2.547   1.755   2.365  0.0338 -0.7957  0.3343
  816SOL     OW 3261   0.700   0.687   2.779  0.3054 -0.0299  0.1985
  816SOL    HW1 3262   0.723   0.593   2.781 -0.4639  3.3540  1.9028
  816SOL    HW2 3263   0.626   0.692   2.719  2.6357  1.6711  4.2762
  816SOL     MW 3264   0.693   0.675   2.771  0.5113  0.6410  0.9614
  817SOL     OW 3265   3.001   1.271   1.445 -0.2626  0.1868 -0.3817
  817SOL    HW1 3266   3.090   1.266   1.487  1.3286 -2.0360  0.5525
  817SOL    HW2 3267   2.991   1.364   1.437 -1.2580  0.4029  0.7724
  817SOL     MW 3268   3.012   1.282   1.449 -0.1840 -0.0780 -0.1062
  818SOL     OW 3269   1.929   1.054   2.640  0.4902 -0.2925  0.0185
  818SOL    HW1 3270   1.903   0.977   2.579  0.6457 -2.9900 -1.2003
  818SOL    HW2 3271   2.004   1.035   2.700 -0.8271  1.4989 -0.6443
  818SOL     MW 3272   1.936   1.041   2.639  0.3369 -0.4120 -0.2298
  819SOL     OW 3273   2.053   0.325   2.420 -0.9447  0.4291  0.5351
  819SOL    HW1 3274   1.992   0.398   2.406 -0.0096  1.1938  0.0223
  819SOL    HW2 3275   2.046   0.308   2.510  0.6622  1.0333  0.9565
  819SOL     MW 3276   2.044   0.332   2.430 -0.6093  0.6097  0.5230
  820SOL     OW 3277   2.482   1.672   2.618  0.0383  0.1648  1.2077
  820SOL    HW1 3278   2.557   1.623   2.650  1.0225 -0.0936  0.9001
  820SOL    HW2 3279   2.508   1.711   2.535  0.5136  2.5613  2.6228
  820SOL     MW 3280   2.495   1.671   2.611  0.2308  0.4469  1.3538
  821SOL     OW 3281   2.623   1.384   2.046  0.0743 -0.3507 -0.7630
  821SOL    HW1 3282   2.665   1.439   1.980 -1.5579  0.0776 -0.8932
  821SOL    HW2 3283   2.529   1.421   2.042 -1.7080  0.5384 -1.3954
  821SOL     MW 3284   2.616   1.396   2.037 -0.3762 -0.1769 -0.8636
  822SOL     OW 3285   2.954   2.720   1.513 -0.4027 -0.5586  0.0103
  822SOL    HW1 3286   2.949   2.702   1.611  0.9468 -0.0835 -2.0921
  822SOL    HW2 3287   2.906   2.798   1.504  1.5174  0.0672  0.1350
  822SOL     MW 3288   2.947   2.728   1.525  0.0287 -0.4134 -0.2506
  823SOL     OW 3289   2.379   0.464   1.878 -0.0041 -0.2033 -0.2447
  823SOL    HW1 3290   2.470   0.433   1.906  2.8354 -2.2671  0.3398
  823SOL    HW2 3291   2.331   0.490   1.955 -1.4087  1.0911 -1.1981
  823SOL     MW 3292   2.385   0.464   1.892  0.1852 -0.3048 -0.2934
  824SOL     OW 3293   2.259   1.535   2.509  0.2025 -0.3600  0.7388
  824SOL    HW1 3294   2.324   1.582   2.561  0.9519 -1.1975 -0.9183
  824SOL    HW2 3295   2.184   1.592   2.487  1.3774 -1.9812 -0.5634
  824SOL     MW 3296   2.258   1.549   2.513  0.4564 -0.6844  0.3484
  825SOL     OW 3297   1.901   2.629   0.231  0.4666 -0.5608 -0.1921
  825SOL    HW1 3298   1.859   2.549   0.253 -1.5158  4.6177 -0.2141
  825SOL    HW2 3299   1.974   2.600   0.183 -0.0391  1.9667  1.5876
  825SOL     MW 3300   1.905   2.615   0.228  0.1383  0.4559  0.0398
  826SOL     OW 3301   1.853   2.338   0.398 -0.4464 -0.8234  0.9360
  826SOL    HW1 3302   1.821   2.277   0.463  0.7008  0.4828  1.4541
  826SOL    HW2 3303   1.859   2.410   0.453  0.8869 -0.0562 -0.0169
  826SOL     MW 3304   1.850   2.340   0.414 -0.1191 -0.5498  0.8787
  827SOL     OW 3305   1.977   2.185   0.762 -0.2162  0.2248 -0.8154
  827SOL    HW1 3306   1.903   2.186   0.697 -1.2355 -1.8389 -1.8126
  827SOL    HW2 3307   1.952   2.102   0.814  0.9298 -1.0550  0.1020
  827SOL     MW 3308   1.964   2.174   0.760 -0.1995 -0.2163 -0.8259
  828SOL     OW 3309   0.049   2.642   0.616 -0.4511 -0.4001 -0.4721
  828SOL    HW1 3310   0.143   2.634   0.606 -1.3333 -0.0568 -0.4186
  828SOL    HW2 3311   0.017   2.698   0.541 -1.0956  0.3146  0.6292
  828SOL     MW 3312   0.057   2.648   0.605 -0.6525 -0.2605 -0.3197
  829SOL     OW 3313   2.964   2.984   1.185  0.2714  0.1159  0.2180
  829SOL    HW1 3314   2.880   2.979   1.143  3.9601 -1.4391 -0.2942
  829SOL    HW2 3315   3.003   2.893   1.178  1.6764 -2.9614 -2.5986
  829SOL     MW 3316   2.958   2.972   1.178  0.9434 -0.4953 -0.2212
  830SOL     OW 3317   2.535   2.833   1.997  0.0133  0.3448  0.3068
  830SOL    HW1 3318   2.449   2.836   1.953  0.4296 -3.1053 -1.0609
  830SOL    HW2 3319   2.601   2.807   1.929  2.4511 -1.1344  0.7199
  830SOL     MW 3320   2.533   2.830   1.982  0.3898 -0.3056  0.1809
  831SOL     OW 3321   2.427   2.412   1.219 -0.3704 -0.2437  0.4719
  831SOL    HW1 3322   2.364   2.376   1.275  0.5306  0.9928  1.1564
  831SOL    HW2 3323   2.508   2.358   1.230 -0.2518  1.2190 -2.3749
  831SOL     MW 3324   2.429   2.400   1.228 -0.2359  0.1125  0.1866
  832SOL     OW 3325   2.297   2.189   1.842 -0.0075 -0.4910 -0.6712
  832SOL    HW1 3326   2.339   2.283   1.832 -1.7992  0.3666  0.0352
  832SOL    HW2 3327   2.376   2.134   1.838 -0.6324 -2.8152 -0.1874
  832SOL     MW 3328   2.313   2.194   1.840 -0.3263 -0.6845 -0.5142
  833SOL     OW 3329   1.721   2.515   0.884 -0.1198  0.1174  0.5549
  833SOL    HW1 3330   1.648   2.461   0.902 -0.1049  2.8784 -2.2023
  833SOL    HW2 3331   1.732   2.581   0.952 -2.3341 -3.5210 -1.1230
  833SOL     MW 3332   1.713   2.516   0.895 -0.4100  0.0016 -0.0302
  834SOL     OW 3333   2.136   2.444   0.551 -0.8276 -0.1388  0.2206
  834SOL    HW1 3334   2.120   2.362   0.601 -0.0898  0.7225  2.0592
  834SOL    HW2 3335   2.201   2.425   0.483  1.3321  0.7633 -0.5212
  834SOL     MW 3336   2.142   2.431   0.549 -0.4453  0.0939  0.3654
  835SOL     OW 3337   1.831   2.573   0.636 -0.0448  0.4650 -0.1437
  835SOL    HW1 3338   1.794   2.538   0.711  0.2503 -0.7613 -3.7783
  835SOL    HW2 3339   1.924   2.592   0.662  0.2087 -1.5160  0.0628
  835SOL     MW 3340   1.838   2.571   0.649  0.0276  0.0419 -0.5960
  836SOL     OW 3341   1.900   2.236   1.547 -0.1046  0.1781  0.5225
  836SOL    HW1 3342   1.991   2.230   1.574  2.1780  0.7347  0.3901
  836SOL    HW2 3343   1.854   2.293   1.612  1.7316  1.5385 -0.9108
  836SOL     MW 3344   1.906   2.243   1.559  0.4388  0.4310  0.3159
  837SOL     OW 3345   2.165   0.239   0.735  0.1155 -0.1824 -0.3171
  837SOL    HW1 3346   2.065   0.238   0.714 -2.3349 -1.7692  1.1997
  837SOL    HW2 3347   2.218   0.215   0.654 -1.2469 -1.7615 -1.4124
  837SOL     MW 3348   2.159   0.235   0.722 -0.3876 -0.6001 -0.2615
  838SOL     OW 3349   2.940   2.076   0.941 -0.0644  0.1170  0.2844
  838SOL    HW1 3350   2.886   1.994   0.937  2.9977  0.5280  0.2748
  838SOL    HW2 3351   3.026   2.046   0.908  0.3409 -0.2862  0.7604
  838SOL     MW 3352   2.944   2.061   0.936  0.3931  0.1180  0.3459
  839SOL     OW 3353   1.516   2.346   1.051  0.0047  0.9264 -0.1165
  839SOL    HW1 3354   1.528   2.400   1.129 -1.4182 -2.0909  1.4763
  839SOL    HW2 3355   1.551   2.255   1.071  0.2500 -0.6393 -1.0261
  839SOL     MW 3356   1.522   2.341   1.064 -0.1507  0.3217 -0.0263
  840SOL     OW 3357   2.393   2.244   2.429 -0.1109  0.2212 -0.9880
  840SOL    HW1 3358   2.353   2.312   2.384  1.0543 -0.5627  2.4351
  840SOL    HW2 3359   2.360   2.259   2.517 -1.2052  2.7367  0.8377
  840SOL     MW 3360   2.384   2.255   2.435 -0.1015  0.4497 -0.2955
  841SOL     OW 3361   2.094   2.497   0.103 -1.0194 -0.0872 -0.4330
  841SOL    HW1 3362   2.158   2.529   0.035 -1.3029  0.2859  0.2193
  841SOL    HW2 3363   2.081   2.409   0.062  0.6038 -0.5238  0.0928
  841SOL     MW 3364   2.101   2.490   0.088 -0.8427 -0.0956 -0.2776
  842SOL     OW 3365   2.666   2.097   1.557 -0.1190 -0.3080 -0.5406
  842SOL    HW1 3366   2.634   2.088   1.649  1.7310 -2.1874 -0.9702
  842SOL    HW2 3367   2.593   2.059   1.512  1.4543  1.5789  0.9204
  842SOL     MW 3368   2.652   2.091   1.563  0.3327 -0.3070 -0.4045
  843SOL     OW 3369   2.663   2.761   1.763  0.0570 -0.0309  0.3782
  843SOL    HW1 3370   2.750   2.732   1.784 -1.1885  0.9902  0.7316
  843SOL    HW2 3371   2.614   2.676   1.734  1.3262  1.4436 -3.0120
  843SOL     MW 3372   2.668   2.746   1.762  0.0601  0.2984 -0.0224
  844SOL     OW 3373   2.707   2.324   1.238  0.3779  0.0956 -0.0201
  844SOL    HW1 3374   2.685   2.325   1.145 -2.0322  0.1741  0.2790
  844SOL    HW2 3375   2.776   2.399   1.251  1.0681  4.8300 -1.9646
  844SOL     MW 3376   2.713   2.334   1.227  0.1510  0.7306 -0.2372
  845SOL     OW 3377   2.867   2.471   0.345 -0.3169 -0.1383  0.2751
  845SOL    HW1 3378   2.817   2.386   0.342 -0.4633 -0.1328 -0.0378
  845SOL    HW2 3379   2.868   2.494   0.437  1.6179  0.4767 -0.8631
  845SOL     MW 3380   2.860   2.463   0.357 -0.0809 -0.0564  0.0836
  846SOL     OW 3381   1.514   2.877   0.755  0.4481  0.0285  0.0346
  846SOL    HW1 3382   1.574   2.921   0.818  0.0808  3.5730  0.9358
  846SOL    HW2 3383   1.430   2.922   0.772  0.5643 -2.0563 -1.9816
  846SOL     MW 3384   1.511   2.889   0.766  0.4150  0.2211 -0.1125
  847SOL     OW 3385   2.629   1.987   0.170 -0.1018  0.6610  0.7801
  847SOL    HW1 3386   2.659   1.946   0.250  2.4639 -1.0989  1.0118
  847SOL    HW2 3387   2.575   1.924   0.130  1.4775 -0.9348 -0.9688
  847SOL     MW 3388   2.625   1.973   0.175  0.4451  0.2183  0.5799
  848SOL     OW 3389   2.516   2.085   1.283  0.3759  0.4181  0.1541
  848SOL    HW1 3390   2.610   2.104   1.272  1.4279  3.0893  1.1181
  848SOL    HW2 3391   2.501   1.991   1.253  1.4947 -0.1866 -0.7767
  848SOL     MW 3392   2.527   2.075   1.277  0.6623  0.6907  0.1585
  849SOL     OW 3393   2.039   2.675   0.772 -0.5801 -0.2804  0.0296
  849SOL    HW1 3394   2.053   2.586   0.802 -2.3207  3.0271 -2.5240
  849SOL    HW2 3395   2.113   2.692   0.710 -1.3197  2.6869  0.3597
  849SOL     MW 3396   2.051   2.665   0.768 -0.9074  0.5475 -0.2637
  850SOL     OW 3397   2.216   1.903   1.716 -0.0808  0.4663  0.3192
  850SOL    HW1 3398   2.143   1.850   1.681 -0.5360  2.3548 -1.2425
  850SOL    HW2 3399   2.183   1.988   1.694 -1.2493 -0.2106 -1.4313
  850SOL     MW 3400   2.202   1.907   1.709 -0.2951  0.6261 -0.1178
  851SOL     OW 3401   2.286   2.384   0.315 -0.1714  0.2966  0.0844
  851SOL    HW1 3402   2.219   2.418   0.258 -0.7654 -3.0944  0.4445
  851SOL    HW2 3403   2.361   2.450   0.300 -0.1591 -0.7927 -0.7163
  851SOL     MW 3404   2.287   2.397   0.306 -0.2482 -0.2945  0.0263
  852SOL     OW 3405   2.347   2.104   0.288  0.4551 -0.1811 -0.1044
  852SOL    HW1 3406   2.320   2.198   0.309  1.1366  0.2678 -0.7927
  852SOL    HW2 3407   2.399   2.118   0.208  2.6842 -1.1004  1.2480
  852SOL     MW 3408   2.350   2.118   0.280  0.8391 -0.2432 -0.0168
  853SOL     OW 3409   2.431   2.432   1.870  0.2871 -0.1516  0.3793
  853SOL    HW1 3410   2.455   2.483   1.791 -0.3748 -0.0078 -1.1011
  853SOL    HW2 3411   2.513   2.400   1.904 -3.0317  0.8485  3.3917
  853SOL     MW 3412   2.445   2.435   1.864 -0.2381 -0.0006  0.5815
  854SOL     OW 3413   2.818   2.247   0.748  0.5132 -0.1854 -0.4736
  854SOL    HW1 3414   2.775   2.186   0.688  0.1606 -0.2664 -0.8101
  854SOL    HW2 3415   2.850   2.188   0.820 -3.1467 -0.4142  1.5454
  854SOL     MW 3416   2.816   2.232   0.750 -0.0162 -0.2263 -0.2516
  855SOL     OW 3417   2.718   2.245   0.368 -0.2325  0.2428 -0.1231
  855SOL    HW1 3418   2.671   2.275   0.449  2.1525 -1.4111 -1.9022
  855SOL    HW2 3419   2.783   2.178   0.396  0.1496 -1.4287 -1.7477
  855SOL     MW 3420   2.721   2.240   0.383  0.1326 -0.1959 -0.5722
  856SOL     OW 3421   2.186   1.872   0.197  0.7286  0.2446 -0.4990
  856SOL    HW1 3422   2.093   1.893   0.223  0.7509 -0.2056 -0.5721
  856SOL    HW2 3423   2.232   1.950   0.225 -1.9299  2.2446 -0.3705
  856SOL     MW 3424   2.180   1.885   0.204  0.3808  0.4491 -0.4917
  857SOL     OW 3425   2.463   1.897   0.440  0.0316 -0.3571  0.0206
  857SOL    HW1 3426   2.418   1.969   0.392 -1.9749  2.4607  0.2080
  857SOL    HW2 3427   2.408   1.818   0.428 -0.0005  1.8320 -2.0951
  857SOL     MW 3428   2.450   1.896   0.432 -0.2374  0.3035 -0.2338
  858SOL     OW 3429   2.935   2.685   1.794 -0.2048  0.0913 -0.6168
  858SOL    HW1 3430   3.032   2.682   1.817 -0.3517 -0.4077  0.0443
  858SOL    HW2 3431   2.921   2.596   1.770  2.8377 -1.0921  1.9658
  858SOL     MW 3432   2.946   2.673   1.794  0.1772 -0.1307 -0.1888
  859SOL     OW 3433   2.061   2.415   0.883  0.5156 -0.0987  0.4498
  859SOL    HW1 3434   2.028   2.347   0.826  0.5222  1.4524 -1.4720
  859SOL    HW2 3435   2.154   2.402   0.896 -2.2012 -1.4946 -2.3016
  859SOL     MW 3436   2.069   2.404   0.878  0.1580 -0.0782 -0.1668
  860SOL     OW 3437   2.672   2.570   0.165 -0.0893  0.5287  0.1801
  860SOL    HW1 3438   2.728   2.548   0.236 -1.0545 -2.4972 -0.2281
  860SOL    HW2 3439   2.711   2.655   0.130  0.7784  0.4719 -0.2111
  860SOL     MW 3440   2.684   2.578   0.170 -0.1021  0.1220  0.0746
  861SOL     OW 3441   1.636   2.097   1.180 -0.3249 -0.4674  0.1778
  861SOL    HW1 3442   1.713   2.092   1.241 -0.2828 -2.9655  1.1910
  861SOL    HW2 3443   1.573   2.042   1.233  0.9281 -2.1111 -0.6724
  861SOL     MW 3444   1.638   2.089   1.195 -0.1541 -1.0138  0.1993
  862SOL     OW 3445   2.445   1.856   1.556  0.0252 -0.0660  0.6399
  862SOL    HW1 3446   2.367   1.873   1.616  0.9631 -0.8271  0.6678
  862SOL    HW2 3447   2.417   1.847   1.465  1.1419 -3.3142 -0.8111
  862SOL     MW 3448   2.431   1.857   1.552  0.2963 -0.5950  0.4521
  863SOL     OW 3449   3.008   1.820   1.241  0.0896  0.0608  0.3603
  863SOL    HW1 3450   3.047   1.811   1.327 -1.5491 -0.0451  1.2754
  863SOL    HW2 3451   3.001   1.912   1.251 -1.0735 -2.3252 -0.5911
  863SOL     MW 3452   3.012   1.831   1.254 -0.2801 -0.2680  0.3555
  864SOL     OW 3453   0.050   1.867   0.922  0.5381  0.2845  0.0900
  864SOL    HW1 3454  -0.017   1.851   0.983 -1.7499  0.6913 -1.2196
  864SOL    HW2 3455   0.016   1.829   0.845  2.9255  1.7271 -0.6551
  864SOL     MW 3456   0.037   1.860   0.920  0.5512  0.5285 -0.1811
  865SOL     OW 3457   2.474   2.170   0.040 -0.3932  0.4293  0.0016
  865SOL    HW1 3458   2.533   2.112   0.092 -0.2474 -1.2251  3.3431
  865SOL    HW2 3459   2.450   2.124  -0.038  1.9958  1.5062  1.7909
  865SOL     MW 3460   2.479   2.156   0.037 -0.0587  0.3531  0.6786
  866SOL     OW 3461   2.715   2.359   1.534  0.6502 -0.2846  0.5924
  866SOL    HW1 3462   2.708   2.263   1.526 -2.0059  0.1921  1.3285
  866SOL    HW2 3463   2.749   2.389   1.449 -1.0131 -1.9133  1.7703
  866SOL     MW 3464   2.719   2.351   1.521  0.0803 -0.4366  0.8450
  867SOL     OW 3465   0.101   2.701   1.855  0.0357  0.2383 -0.1293
  867SOL    HW1 3466   0.178   2.700   1.905 -1.7308  3.1200  0.6331
  867SOL    HW2 3467   0.112   2.785   1.817 -0.0569 -1.8692  1.2220
  867SOL     MW 3468   0.112   2.712   1.856 -0.2096  0.3404  0.1496
  868SOL     OW 3469   2.764   2.571   0.605  0.1308 -0.3725 -0.5448
  868SOL    HW1 3470   2.690   2.515   0.594  0.3787 -1.0878  0.1190
  868SOL    HW2 3471   2.764   2.627   0.530 -2.7717 -1.5460  0.5993
  868SOL     MW 3472   2.754   2.571   0.593 -0.2195 -0.6217 -0.3063
  869SOL     OW 3473   1.900   2.312   1.095 -0.0015  0.2472  0.2896
  869SOL    HW1 3474   1.949   2.340   1.020  0.1648  0.6714  2.2288
  869SOL    HW2 3475   1.802   2.318   1.080 -2.7242 -2.1234 -1.9994
  869SOL     MW 3476   1.893   2.317   1.083 -0.3388 -0.0096  0.2435
  870SOL     OW 3477   2.323   0.117   0.532  0.3640  0.2622  0.3825
  870SOL    HW1 3478   2.344   0.147   0.443 -1.6283 -0.5277 -2.2402
  870SOL    HW2 3479   2.400   0.091   0.578 -1.2943 -2.8178 -0.6249
  870SOL     MW 3480   2.336   0.118   0.526 -0.1177 -0.2484 -0.0964
  871SOL     OW 3481   2.453   2.163   0.786  0.2928 -0.0397  0.3301
  871SOL    HW1 3482   2.383   2.097   0.777 -1.3319 -3.8547 -0.9883
  871SOL    HW2 3483   2.417   2.241   0.828  0.1127 -0.5330 -0.8632
  871SOL     MW 3484   2.439   2.165   0.791  0.0547 -0.6081 -0.0013
  872SOL     OW 3485   2.036   2.589   1.460 -0.0589  0.2265 -0.2968
  872SOL    HW1 3486   2.022   2.608   1.554  1.5447  3.8988 -0.2202
  872SOL    HW2 3487   1.963   2.532   1.426 -2.7450 -0.0075  1.2529
  872SOL     MW 3488   2.024   2.584   1.468 -0.2018  0.6801 -0.0823
  873SOL     OW 3489   2.831   2.030   1.893  0.0219  0.3668  0.3157
  873SOL    HW1 3490   2.880   2.103   1.943 -0.1138 -0.7199  0.4852
  873SOL    HW2 3491   2.885   2.001   1.818 -2.5479 -1.3073 -0.0899
  873SOL     MW 3492   2.845   2.035   1.890 -0.3351  0.0025  0.2846
  874SOL     OW 3493   2.438   1.546   2.270  0.3006 -0.4658  0.1182
  874SOL    HW1 3494   2.363   1.535   2.325  0.5633  1.0666 -2.5033
  874SOL    HW2 3495   2.485   1.469   2.293  0.7744  1.5007 -1.2109
  874SOL     MW 3496   2.434   1.535   2.280  0.3978 -0.0042 -0.4031
  875SOL     OW 3497   2.339   2.387   0.953 -0.0317  0.1979 -0.3992
  875SOL    HW1 3498   2.396   2.453   0.899  3.0477 -0.5589 -0.8380
  875SOL    HW2 3499   2.364   2.394   1.045  0.5342  1.1997  0.4920
  875SOL     MW 3500   2.350   2.397   0.958  0.4493  0.2302 -0.3395
  876SOL     OW 3501   3.049   2.318   1.321  0.2468 -0.1481 -0.0667
  876SOL    HW1 3502   3.113   2.326   1.248  1.5978 -0.3401 -2.3756
  876SOL    HW2 3503   3.087   2.378   1.391  0.8491 -1.0362  1.4939
  876SOL     MW 3504   3.063   2.327   1.321  0.5045 -0.2906 -0.1654
  877SOL     OW 3505   3.086   2.793   0.421  0.0118 -0.5397 -0.6475
  877SOL    HW1 3506   3.096   2.879   0.385 -2.0334  0.3245 -0.5008
  877SOL    HW2 3507   3.078   2.729   0.348  2.8559 -1.1420 -1.1204
  877SOL     MW 3508   3.087   2.796   0.407  0.1172 -0.5051 -0.6906
  878SOL     OW 3509   2.409   1.828   1.245  0.2090  0.0719  0.3432
  878SOL    HW1 3510   2.360   1.749   1.282 -0.9897 -1.7871  1.1770
  878SOL    HW2 3511   2.498   1.804   1.213 -2.6513 -4.8463 -0.2392
  878SOL     MW 3512   2.414   1.815   1.245 -0.3265 -0.8223  0.3764
  879SOL     OW 3513   2.694   2.408   0.962 -0.1311 -0.3347 -0.2039
  879SOL    HW1 3514   2.751   2.484   0.984 -1.4988 -1.0088 -0.3631
  879SOL    HW2 3515   2.747   2.348   0.909  1.0861 -0.4635  3.0373
  879SOL     MW 3516   2.709   2.410   0.958 -0.1510 -0.4406  0.2027
  880SOL     OW 3517   2.702   2.017   0.615 -0.4955 -0.4899  0.5347
  880SOL    HW1 3518   2.632   2.028   0.682  1.4892  0.7927  0.9300
  880SOL    HW2 3519   2.652   2.021   0.531 -3.2964 -1.6283  0.2600
  880SOL     MW 3520   2.686   2.019   0.613 -0.6032 -0.4708  0.5506
  881SOL     OW 3521   2.924   2.748   0.752  0.3535 -0.3387 -0.3826
  881SOL    HW1 3522   2.871   2.680   0.697 -3.0932 -0.9036 -0.5395
  881SOL    HW2 3523   3.020   2.726   0.736 -1.1054 -1.7518 -0.7690
  881SOL     MW 3524   2.930   2.736   0.743 -0.2938 -0.5996 -0.4543
  882SOL     OW 3525   2.278   2.837   1.882  0.2354 -0.3793 -0.3636
  882SOL    HW1 3526   2.250   2.836   1.792 -0.9267 -0.6396 -0.0009
  882SOL    HW2 3527   2.231   2.763   1.915 -0.0146 -1.4174  0.1403
  882SOL     MW 3528   2.268   2.827   1.875  0.0491 -0.5506 -0.2492
  883SOL     OW 3529   2.268   2.206   1.373 -0.0812  0.0755  0.1244
  883SOL    HW1 3530   2.349   2.163   1.338 -0.6021  0.8445 -1.2495
  883SOL    HW2 3531   2.194   2.171   1.318 -1.9147  0.6559 -3.9475
  883SOL     MW 3532   2.269   2.196   1.361 -0.3919  0.2536 -0.5941
  884SOL     OW 3533   1.973   1.781   1.097 -0.3282  0.4613 -0.2846
  884SOL    HW1 3534   1.925   1.860   1.065  1.2502 -1.6224  1.1570
  884SOL    HW2 3535   2.066   1.807   1.101 -0.2945  2.4161 -2.7049
  884SOL     MW 3536   1.979   1.795   1.094 -0.1155  0.4443 -0.4137
  885SOL     OW 3537   2.846   2.416   1.778  0.1690 -0.7855  0.6732
  885SOL    HW1 3538   2.914   2.354   1.789 -0.9439  1.4538  0.6000
  885SOL    HW2 3539   2.803   2.390   1.700  2.4549 -1.1691  2.1053
  885SOL     MW 3540   2.849   2.404   1.769  0.3238 -0.5406  0.8525
  886SOL     OW 3541   2.848   2.536   1.337  0.0187  0.8549  0.4732
  886SOL    HW1 3542   2.933   2.498   1.309 -1.0923 -0.9568 -1.3758
  886SOL    HW2 3543   2.877   2.601   1.397  0.0713  0.0306 -0.8842
  886SOL     MW 3544   2.863   2.540   1.341 -0.1209  0.5071  0.0502
  887SOL     OW 3545   2.318   2.621   1.456 -0.5520  0.1410 -0.4480
  887SOL    HW1 3546   2.332   2.646   1.366  0.2986 -0.6332  0.7927
  887SOL    HW2 3547   2.234   2.574   1.448 -1.7703  1.4801  1.8858
  887SOL     MW 3548   2.309   2.618   1.443 -0.6005  0.2155  0.0236
  888SOL     OW 3549   1.835   2.040   1.374 -0.0390 -0.1085 -0.7285
  888SOL    HW1 3550   1.914   2.060   1.323 -3.3831  1.2986 -1.1191
  888SOL    HW2 3551   1.844   2.108   1.447  1.8365  1.2177  0.1268
  888SOL     MW 3552   1.846   2.052   1.377 -0.2328  0.2521 -0.6672
  889SOL     OW 3553   2.271   2.083   2.100  0.2600  0.0365 -0.1410
  889SOL    HW1 3554   2.354   2.065   2.150  0.5980  0.4952 -0.2253
  889SOL    HW2 3555   2.281   2.150   2.032  0.5792 -1.2335 -0.5053
  889SOL     MW 3556   2.283   2.090   2.098  0.3467 -0.0705 -0.2002
  890SOL     OW 3557   0.103   2.305   0.079  0.0030  0.1138 -0.2115
  890SOL    HW1 3558   0.057   2.379   0.035  2.4289  2.4660 -0.9171
  890SOL    HW2 3559   0.081   2.312   0.172 -2.1864  2.8322 -1.4692
  890SOL     MW 3560   0.094   2.316   0.086  0.0342  0.7828 -0.4705
  891SOL     OW 3561   3.053   2.046   1.353 -0.6216 -0.3743 -0.3211
  891SOL    HW1 3562   3.128   2.029   1.411  1.0891 -0.5492 -1.4390
  891SOL    HW2 3563   3.058   2.147   1.343 -0.9454 -2.0340  0.6516
  891SOL     MW 3564   3.064   2.057   1.359 -0.4386 -0.6164 -0.3402
  892SOL     OW 3565   2.341   2.359   2.925  0.1156  0.3592  0.4797
  892SOL    HW1 3566   2.362   2.318   3.005 -0.1662  1.6803  0.4597
  892SOL    HW2 3567   2.420   2.350   2.873 -1.2233 -1.7547 -0.1030
  892SOL     MW 3568   2.354   2.352   2.928 -0.0982  0.2546  0.4001
  893SOL     OW 3569   1.585   2.501   1.275  0.8431  0.3357 -0.8873
  893SOL    HW1 3570   1.515   2.485   1.340 -2.6021 -0.7866  1.3386
  893SOL    HW2 3571   1.670   2.471   1.318  3.8584 -0.1577 -0.1285
  893SOL     MW 3572   1.587   2.495   1.289  0.7864  0.1225 -0.4935
  894SOL     OW 3573   2.897   1.829   0.550  0.1296  0.1968 -0.4917
  894SOL    HW1 3574   2.822   1.880   0.591 -4.6937  1.1361  3.6174
  894SOL    HW2 3575   2.849   1.789   0.475  1.7566  1.7141  1.6910
  894SOL     MW 3576   2.881   1.831   0.545 -0.2921  0.5209  0.3384
  895SOL     OW 3577   2.072   2.133   1.222 -0.2529 -0.1879 -0.0485
  895SOL    HW1 3578   2.027   2.198   1.167  1.3413  0.5521  1.9223
  895SOL    HW2 3579   2.111   2.062   1.167 -1.5280 -1.8444  0.5762
  895SOL     MW 3580   2.071   2.132   1.207 -0.2108 -0.3088  0.2940
  896SOL     OW 3581   2.198   2.803   1.006  0.0488 -0.2795  0.6637
  896SOL    HW1 3582   2.224   2.749   1.081  0.3466  0.4984  0.8369
  896SOL    HW2 3583   2.130   2.763   0.962  1.9193  1.4138 -0.6956
  896SOL     MW 3584   2.192   2.790   1.010  0.3349  0.0466  0.5072
  897SOL     OW 3585   2.992   2.940   0.194  0.1182  0.4221 -0.1230
  897SOL    HW1 3586   3.070   2.912   0.146  0.2412  1.3505  2.0208
  897SOL    HW2 3587   2.917   2.897   0.141 -2.8201 -0.0316  0.1360
  897SOL     MW 3588   2.992   2.931   0.181 -0.2533  0.4847  0.1940
  898SOL     OW 3589   2.086   0.140   1.398  0.3289  0.1136  0.3349
  898SOL    HW1 3590   2.048   0.069   1.347 -0.1855 -0.1206  1.2679
  898SOL    HW2 3591   2.144   0.185   1.334  0.7395  1.4358 -1.9922
  898SOL     MW 3592   2.089   0.136   1.383  0.3152  0.2571  0.1509
  899SOL     OW 3593   2.863   2.956   0.583 -0.0097 -0.5557  0.2525
  899SOL    HW1 3594   2.872   2.880   0.643 -1.0323 -0.7978 -1.7852
  899SOL    HW2 3595   2.783   3.004   0.609  0.0688  1.0761 -1.4635
  899SOL     MW 3596   2.853   2.952   0.594 -0.1343 -0.3724 -0.2427
  900SOL     OW 3597   0.122   2.435   1.135 -0.2036 -0.8027  0.1488
  900SOL    HW1 3598   0.093   2.525   1.136  0.1271 -1.1902  1.6803
  900SOL    HW2 3599   0.097   2.398   1.047  1.0279 -0.7838  0.7341
  900SOL     MW 3600   0.115   2.442   1.123  0.0025 -0.8513  0.4280
  901SOL     OW 3601   1.731   2.831   1.782  0.2438 -0.3869  0.3863
  901SOL    HW1 3602   1.802   2.762   1.758  2.0807  2.1636 -1.1497
  901SOL    HW2 3603   1.696   2.847   1.692 -1.2817 -0.7116 -2.8632
  901SOL     MW 3604   1.736   2.824   1.767  0.2849 -0.0932 -0.2451
  902SOL     OW 3605   2.574   2.094   1.816  0.2688  0.0237  0.0275
  902SOL    HW1 3606   2.559   1.994   1.829 -1.1814 -0.3375  2.9001
  902SOL    HW2 3607   2.661   2.092   1.862  1.0566  2.0284 -1.1211
  902SOL     MW 3608   2.583   2.081   1.824  0.1814  0.2405  0.2550
  903SOL     OW 3609   1.675   2.787   0.520 -0.2545 -0.3292  0.1243
  903SOL    HW1 3610   1.707   2.701   0.546 -1.4667  3.9844 -1.2516
  903SOL    HW2 3611   1.636   2.823   0.598  0.5449  0.2367  0.1774
  903SOL     MW 3612   1.674   2.780   0.534 -0.3090  0.3146 -0.0502
  904SOL     OW 3613   2.519   2.545   1.636 -0.1322 -0.2167  0.1143
  904SOL    HW1 3614   2.443   2.554   1.579 -1.4877 -1.1031 -0.4820
  904SOL    HW2 3615   2.575   2.488   1.581 -2.8475 -2.2081 -2.2659
  904SOL     MW 3616   2.516   2.539   1.621 -0.6693 -0.5964 -0.2784
  905SOL     OW 3617   2.396   2.556   2.113 -0.3214  0.3320  0.3931
  905SOL    HW1 3618   2.417   2.518   2.028 -0.7355  1.5859  0.2255
  905SOL    HW2 3619   2.338   2.503   2.174 -1.3751 -1.2704 -0.8326
  905SOL     MW 3620   2.391   2.544   2.110 -0.5150  0.2860  0.2093
  906SOL     OW 3621   2.521   2.513   0.782  0.2027 -0.1858  0.0493
  906SOL    HW1 3622   2.581   2.491   0.854  0.7592  1.0169 -1.5855
  906SOL    HW2 3623   2.515   2.610   0.784  0.7727  2.8019 -1.2971
  906SOL     MW 3624   2.528   2.523   0.792  0.3513  0.3671 -0.3440
  907SOL     OW 3625   2.557   2.889   1.261  0.3208 -0.4749  0.2586
  907SOL    HW1 3626   2.620   2.910   1.329  1.7740  0.1685  0.7662
  907SOL    HW2 3627   2.609   2.869   1.184 -2.0152  0.4245 -0.2074
  907SOL     MW 3628   2.572   2.889   1.260  0.2043 -0.2713  0.2641
  908SOL     OW 3629   2.667   2.356  -0.001  0.5777 -0.3548 -0.0075
  908SOL    HW1 3630   2.589   2.308   0.034 -2.8447 -0.2513  1.8190
  908SOL    HW2 3631   2.672   2.443   0.053  0.2193  2.2039  3.3297
  908SOL     MW 3632   2.658   2.361   0.011  0.0789 -0.0035  0.6738
  909SOL     OW 3633   1.739   0.175   1.035 -0.5474  0.3336  0.0003
  909SOL    HW1 3634   1.747   0.265   1.006 -0.8282  1.8987 -0.6162
  909SOL    HW2 3635   1.749   0.174   1.129  1.0358  1.9560  0.0313
  909SOL     MW 3636   1.742   0.187   1.043 -0.3756  0.7542 -0.0770
  910SOL     OW 3637   2.288   1.685   0.414  0.0615  0.5357  0.0131
  910SOL    HW1 3638   2.208   1.642   0.446 -1.0319 -1.9652  1.6452
  910SOL    HW2 3639   2.265   1.721   0.328 -2.0416  0.3402 -0.2259
  910SOL     MW 3640   2.274   1.684   0.407 -0.3602  0.1800  0.1969
  911SOL     OW 3641   2.149   2.158   1.617 -0.1086  0.7738 -0.5311
  911SOL    HW1 3642   2.210   2.180   1.688  0.2953 -0.0187 -0.7056
  911SOL    HW2 3643   2.193   2.168   1.534  2.8447  0.7195  0.5498
  911SOL     MW 3644   2.163   2.162   1.616  0.3343  0.6621 -0.4115
  912SOL     OW 3645   2.857   1.918   1.507  0.4496 -0.3170 -0.4687
  912SOL    HW1 3646   2.919   1.967   1.452 -0.3341  1.1675  0.6131
  912SOL    HW2 3647   2.781   1.983   1.516  1.3766  0.2878  0.7322
  912SOL     MW 3648   2.855   1.933   1.501  0.4685 -0.0413 -0.1675
  913SOL     OW 3649   2.553   2.942   0.343 -0.4419 -0.4140  0.4717
  913SOL    HW1 3650   2.615   2.869   0.347 -1.5529  1.4018  0.6784
  913SOL    HW2 3651   2.465   2.905   0.354 -0.2961  1.3233 -0.1738
  913SOL     MW 3652   2.549   2.928   0.345 -0.5692  0.0548  0.4138
  914SOL     OW 3653   2.798   1.637   0.025 -0.2856 -0.2393  0.1525
  914SOL    HW1 3654   2.781   1.703  -0.042  0.5516 -2.1176  1.6633
  914SOL    HW2 3655   2.712   1.610   0.062 -3.3127 -0.6185  2.6115
  914SOL     MW 3656   2.784   1.642   0.021 -0.5745 -0.5372  0.6763
  915SOL     OW 3657   1.894   0.176   0.219 -0.7588 -0.2299 -0.4620
  915SOL    HW1 3658   1.936   0.106   0.270 -1.4893  0.8969 -0.2935
  915SOL    HW2 3659   1.799   0.158   0.224 -0.1326 -0.9418  0.1626
  915SOL     MW 3660   1.887   0.165   0.227 -0.7725 -0.1752 -0.3574
  916SOL     OW 3661   1.851   2.097   1.966 -0.1188  0.3082 -0.4497
  916SOL    HW1 3662   1.827   2.191   1.964 -2.8398  2.4604 -0.1051
  916SOL    HW2 3663   1.820   2.056   1.884 -2.2014  3.2100 -1.3631
  916SOL     MW 3664   1.844   2.104   1.955 -0.7526  0.9750 -0.5247
  917SOL     OW 3665   2.225   2.338   2.661  0.2148 -0.1277  0.4183
  917SOL    HW1 3666   2.247   2.327   2.757 -1.3461  0.5081  2.8659
  917SOL    HW2 3667   2.278   2.420   2.642  0.1147  0.4165 -0.2846
  917SOL     MW 3668   2.235   2.348   2.671 -0.0044  0.0280  0.6485
  918SOL     OW 3669   1.978   1.661   2.601  0.3142 -0.1626  0.2430
  918SOL    HW1 3670   1.896   1.697   2.558 -1.6061 -1.4035 -1.8800
  918SOL    HW2 3671   2.041   1.726   2.572  0.1003 -1.8292  1.4743
  918SOL     MW 3672   1.975   1.674   2.592  0.0326 -0.5462  0.1254
  919SOL     OW 3673   3.010   2.372   2.280  0.2969  0.1646 -0.4399
  919SOL    HW1 3674   2.934   2.317   2.254  4.2260  0.9017 -0.4298
  919SOL    HW2 3675   3.063   2.343   2.202 -0.8039  2.2124  0.4065
  919SOL     MW 3676   3.007   2.361   2.266  0.6700  0.5321 -0.3269
  920SOL     OW 3677   2.769   2.815   0.059 -0.0833  0.2911 -0.8644
  920SOL    HW1 3678   2.706   2.888   0.068 -0.5466 -0.5544  0.5159
  920SOL    HW2 3679   2.752   2.774  -0.027  0.1014 -0.4772 -1.0379
  920SOL     MW 3680   2.758   2.819   0.049 -0.1200  0.0782 -0.7052
  921SOL     OW 3681   2.563   2.664   2.686 -0.0826  0.1677  0.0125
  921SOL    HW1 3682   2.613   2.625   2.617 -2.8162  0.6824 -2.4649
  921SOL    HW2 3683   2.577   2.606   2.757 -2.3929  4.1078  0.2221
  921SOL     MW 3684   2.571   2.651   2.686 -0.7481  0.7554 -0.2867
  922SOL     OW 3685   2.036   2.861   0.292 -0.8757 -0.1954  0.4098
  922SOL    HW1 3686   2.035   2.905   0.209  1.4803 -1.8888  1.9888
  922SOL    HW2 3687   1.968   2.798   0.283 -3.5600  0.5769 -1.7910
  922SOL     MW 3688   2.027   2.858   0.280 -0.9190 -0.3169  0.3278
  923SOL     OW 3689   2.171   2.791   1.616 -0.0016  0.5086 -0.7259
  923SOL    HW1 3690   2.215   2.734   1.551 -2.8893  2.4015 -1.3916
  923SOL    HW2 3691   2.181   2.880   1.581  2.3120 -0.1221 -2.3777
  923SOL     MW 3692   2.178   2.795   1.603 -0.0774  0.6751 -1.0317
  924SOL     OW 3693   1.143   2.747   2.465  0.7468 -0.3652 -0.0962
  924SOL    HW1 3694   1.168   2.817   2.405 -0.9608 -0.5287  0.2907
  924SOL    HW2 3695   1.214   2.733   2.527  0.8284  0.4094 -0.8456
  924SOL     MW 3696   1.155   2.754   2.465  0.5323 -0.2846 -0.1440
  925SOL     OW 3697   3.050   0.273   2.671 -0.3448 -0.1359  0.0559
  925SOL    HW1 3698   3.083   0.303   2.588  1.7863  0.0260  0.5957
  925SOL    HW2 3699   3.016   0.340   2.730 -2.2024  0.1697 -0.5751
  925SOL     MW 3700   3.050   0.286   2.668 -0.3087 -0.0742  0.0439
  926SOL     OW 3701   2.686   2.394   1.999 -0.3921  0.2586  0.4773
  926SOL    HW1 3702   2.718   2.456   2.068  3.9314  1.7937  2.0929
  926SOL    HW2 3703   2.742   2.398   1.918 -1.0471 -2.0234  1.5859
  926SOL     MW 3704   2.697   2.402   1.997  0.0919  0.1601  0.8367
  927SOL     OW 3705   2.384   0.162   0.273  0.0251 -0.3581  0.2289
  927SOL    HW1 3706   2.472   0.185   0.241  0.1091 -0.0282  0.1429
  927SOL    HW2 3707   2.332   0.118   0.199  2.1477  3.0151  1.1103
  927SOL     MW 3708   2.389   0.159   0.259  0.3163  0.1305  0.3338
  928SOL     OW 3709   2.075   2.447   1.852 -0.8532 -0.2171 -0.4475
  928SOL    HW1 3710   2.108   2.359   1.845 -0.0680  3.1653  0.5327
  928SOL    HW2 3711   2.124   2.497   1.919  0.9143 -0.3891  1.2192
  928SOL     MW 3712   2.086   2.442   1.860 -0.5164  0.2065 -0.0983
  929SOL     OW 3713   2.716   2.313   2.490  0.4803  0.0051 -0.1366
  929SOL    HW1 3714   2.628   2.278   2.504 -0.0778  0.0663 -0.0381
  929SOL    HW2 3715   2.767   2.315   2.569 -2.3901  1.2595 -1.4077
  929SOL     MW 3716   2.711   2.308   2.502  0.0279  0.1787 -0.2913
  930SOL     OW 3717   2.020   2.892   2.700 -0.3227 -0.7543  0.0239
  930SOL    HW1 3718   2.038   2.850   2.788 -0.5463  1.1286  0.0891
  930SOL    HW2 3719   2.103   2.953   2.685 -0.5897  1.4212 -3.1933
  930SOL     MW 3720   2.034   2.894   2.710 -0.3874 -0.2188 -0.3919
  931SOL     OW 3721   2.959   2.815   2.114 -0.5164  0.4726  0.9312
  931SOL    HW1 3722   3.026   2.748   2.109 -0.4744 -2.2676  0.3739
  931SOL    HW2 3723   2.922   2.829   2.028 -1.1612  0.4469  2.6252
  931SOL     MW 3724   2.963   2.808   2.102 -0.5959  0.1077  1.0812
  932SOL     OW 3725   2.812   1.931   2.547 -0.0610 -0.5685  0.1831
  932SOL    HW1 3726   2.887   1.948   2.605  1.4586 -1.0306 -0.3886
  932SOL    HW2 3727   2.828   2.000   2.481  2.2674  1.4574 -0.0118
  932SOL     MW 3728   2.824   1.942   2.546  0.4467 -0.3621  0.0819
  933SOL     OW 3729   2.107   2.793   2.270 -0.1067  0.6523  0.0135
  933SOL    HW1 3730   2.190   2.824   2.311 -0.6810 -0.7108 -1.1945
  933SOL    HW2 3731   2.052   2.864   2.240  0.5708  0.4623  0.1325
  933SOL     MW 3732   2.111   2.806   2.271 -0.0931  0.4474 -0.1302
  934SOL     OW 3733   2.080   2.697   2.531 -0.1891 -0.7827 -0.3925
  934SOL    HW1 3734   2.064   2.781   2.580  1.6441 -1.9023  0.1531
  934SOL    HW2 3735   2.082   2.722   2.434  2.3620 -1.0111 -3.2824
  934SOL     MW 3736   2.078   2.712   2.524  0.3894 -0.9605 -0.7018
  935SOL     OW 3737   2.659   1.577   1.826 -0.0801  0.3884 -0.2378
  935SOL    HW1 3738   2.745   1.579   1.776  0.9449 -0.9663 -3.1517
  935SOL    HW2 3739   2.578   1.564   1.762 -1.1006  0.8612 -2.1681
  935SOL     MW 3740   2.660   1.576   1.811 -0.0795  0.2721 -0.8769
  936SOL     OW 3741   2.880   2.195   0.013  0.0296  0.2293 -0.2612
  936SOL    HW1 3742   2.944   2.249   0.056  0.2748 -1.2142 -2.9109
  936SOL    HW2 3743   2.796   2.235   0.040  1.5949  1.0365  2.5239
  936SOL     MW 3744   2.877   2.207   0.022  0.2684  0.1454 -0.2433
  937SOL     OW 3745   1.975   2.259   2.626 -0.0434 -0.0350  0.0988
  937SOL    HW1 3746   2.070   2.259   2.625  1.7709 -2.4361  0.5594
  937SOL    HW2 3747   1.947   2.236   2.533  2.0325 -0.9589 -0.1333
  937SOL     MW 3748   1.984   2.256   2.613  0.4699 -0.4737  0.1290
  938SOL     OW 3749   2.272   1.837   1.981 -0.5008  0.1381 -0.1973
  938SOL    HW1 3750   2.237   1.848   1.896  1.6016 -2.1104  1.4076
  938SOL    HW2 3751   2.292   1.923   2.026  0.3499 -0.5607  1.4021
  938SOL     MW 3752   2.270   1.849   1.976 -0.1112 -0.2507  0.2255
  939SOL     OW 3753   2.765   2.041   2.268  0.5476  0.0876 -0.4195
  939SOL    HW1 3754   2.777   1.967   2.210  1.2386  2.0715  0.6809
  939SOL    HW2 3755   2.669   2.056   2.268 -2.9729  0.0663  0.7506
  939SOL     MW 3756   2.754   2.034   2.261  0.1743  0.3465 -0.1200
  940SOL     OW 3757   2.310   0.170   2.654 -0.4527 -0.3555  0.1645
  940SOL    HW1 3758   2.283   0.081   2.634  1.1215  3.4167  0.7069
  940SOL    HW2 3759   2.326   0.170   2.752 -0.0102 -1.6306  1.5454
  940SOL     MW 3760   2.309   0.158   2.664 -0.1866 -0.0260  0.4183
  941SOL     OW 3761   0.086   2.348   2.080 -0.3943 -0.1805 -0.4765
  941SOL    HW1 3762   0.157   2.292   2.078 -4.8705  2.9157  1.2242
  941SOL    HW2 3763   0.021   2.309   2.017  1.6179  0.2765 -2.5687
  941SOL     MW 3764   0.086   2.335   2.071 -0.7194  0.2883 -0.5282
  942SOL     OW 3765   2.882   2.221   2.093  0.2217 -0.2927 -0.2135
  942SOL    HW1 3766   2.815   2.274   2.057 -0.2781 -1.1073 -0.6443
  942SOL    HW2 3767   2.833   2.164   2.155  0.4109 -0.1697  0.3652
  942SOL     MW 3768   2.866   2.221   2.096  0.1807 -0.3839 -0.1940
  943SOL     OW 3769   0.202   2.025   2.331  0.3021 -0.2428  0.0317
  943SOL    HW1 3770   0.147   2.086   2.374  1.1016 -0.2584 -0.2746
  943SOL    HW2 3771   0.260   1.986   2.396  1.1682 -1.6027  0.3382
  943SOL     MW 3772   0.202   2.028   2.345  0.5218 -0.4243  0.0317
  944SOL     OW 3773   2.151   2.648   2.025 -0.1313  0.4977  0.3618
  944SOL    HW1 3774   2.244   2.629   2.056 -1.4033 -2.4654 -0.3965
  944SOL    HW2 3775   2.118   2.701   2.098  0.0170 -0.5485 -0.6454
  944SOL     MW 3776   2.159   2.653   2.039 -0.2795 -0.0313  0.1289
  945SOL     OW 3777   2.782   2.630   2.945 -0.2520  0.2460 -0.4175
  945SOL    HW1 3778   2.735   2.551   2.911  0.0430  0.0372  0.7638
  945SOL    HW2 3779   2.816   2.676   2.869 -2.2086 -4.0550 -0.3253
  945SOL     MW 3780   2.781   2.626   2.930 -0.4712 -0.3490 -0.2495
  946SOL     OW 3781   2.552   2.708   2.286 -0.2249 -0.6230  0.0280
  946SOL    HW1 3782   2.594   2.778   2.234 -1.7023  2.3138 -1.8939
  946SOL    HW2 3783   2.505   2.656   2.215  1.5239  1.0901  1.2223
  946SOL     MW 3784   2.551   2.710   2.269 -0.1891 -0.0095 -0.0680
  947SOL     OW 3785   2.073   0.017   0.425 -0.1758  0.6289 -0.0022
  947SOL    HW1 3786   2.088  -0.075   0.395  1.2299  1.8779 -0.4397
  947SOL    HW2 3787   2.161   0.042   0.447 -4.2679 -0.1571 -2.8762
  947SOL     MW 3788   2.087   0.008   0.424 -0.5302  0.6900 -0.4392
  948SOL     OW 3789   1.827   3.088   2.643 -0.1357  0.3230  0.4367
  948SOL    HW1 3790   1.874   3.010   2.633  1.2764 -0.2357  0.5302
  948SOL    HW2 3791   1.844   3.125   2.558 -0.6383  1.0724  0.1657
  948SOL     MW 3792   1.835   3.082   2.630 -0.0157  0.3481  0.4133
  949SOL     OW 3793   2.487   2.026   2.268  0.2036  0.8403  0.1591
  949SOL    HW1 3794   2.507   1.944   2.307 -0.0233  1.0832  0.2262
  949SOL    HW2 3795   2.469   2.086   2.341  3.2994  1.0696  0.9627
  949SOL     MW 3796   2.487   2.023   2.283  0.5821  0.9026  0.2740
  950SOL     OW 3797   2.271   2.599   3.019 -0.6564 -0.1128  0.4899
  950SOL    HW1 3798   2.291   2.520   2.968 -0.3647  0.1945  0.0132
  950SOL    HW2 3799   2.191   2.630   2.966  0.9352 -1.6088 -1.5950
  950SOL     MW 3800   2.263   2.592   3.005 -0.4079 -0.2696  0.1519
  951SOL     OW 3801   2.883   2.066   2.875 -0.2425 -0.2000  0.0742
  951SOL    HW1 3802   2.896   2.110   2.955 -3.0261 -0.3994 -1.2729
  951SOL    HW2 3803   2.970   2.064   2.828  2.0186  1.7794  0.5744
  951SOL     MW 3804   2.896   2.071   2.879 -0.3114  0.0348 -0.0375
  952SOL     OW 3805   3.048   1.674   2.069  0.0186  0.0778 -0.4448
  952SOL    HW1 3806   2.962   1.716   2.061 -1.7044 -3.0473 -0.3986
  952SOL    HW2 3807   3.122   1.741   2.083 -0.3899  0.9728 -0.1670
  952SOL     MW 3808   3.047   1.689   2.070 -0.2626 -0.2164 -0.4020
  953SOL     OW 3809   1.928   1.835   2.802  0.0896  0.5146  0.5220
  953SOL    HW1 3810   1.850   1.805   2.848 -1.4017 -0.0152 -2.1646
  953SOL    HW2 3811   1.951   1.767   2.744 -1.9503  1.4479  0.0642
  953SOL     MW 3812   1.921   1.822   2.801 -0.3763  0.5679  0.1071
  954SOL     OW 3813   2.416   2.039   2.905  0.0012 -0.5314 -0.2173
  954SOL    HW1 3814   2.340   2.048   2.843  0.8131 -1.0761  1.4548
  954SOL    HW2 3815   2.487   2.006   2.842 -1.5066 -0.7531 -1.6321
  954SOL     MW 3816   2.415   2.036   2.888 -0.0906 -0.6325 -0.1834
  955SOL     OW 3817   1.579   1.610   2.566 -0.0113  0.3259  0.2681
  955SOL    HW1 3818   1.595   1.555   2.490 -0.8285  0.0119  1.5051
  955SOL    HW2 3819   1.636   1.686   2.543  0.9460 -3.3162  0.8556
  955SOL     MW 3820   1.588   1.613   2.553  0.0072 -0.1961  0.5088
  956SOL     OW 3821   2.612   2.406   2.850 -0.3352 -0.7134 -0.3513
  956SOL    HW1 3822   2.635   2.366   2.945  0.6106 -1.6813  1.9164
  956SOL    HW2 3823   2.686   2.369   2.794 -0.2469 -1.1595 -0.7139
  956SOL     MW 3824   2.625   2.396   2.855 -0.1987 -0.9000 -0.0999
  957SOL     OW 3825   2.315   2.822   0.375 -0.0529  0.6814  0.3890
  957SOL    HW1 3826   2.235   2.822   0.316 -4.1871 -0.1554  1.3455
  957SOL    HW2 3827   2.273   2.782   0.455  1.8920 -0.9649 -0.1332
  957SOL     MW 3828   2.299   2.817   0.378 -0.3417  0.3537  0.4463
  958SOL     OW 3829   2.032   2.700   2.919  0.3991 -0.3763 -0.0329
  958SOL    HW1 3830   1.988   2.625   2.877  3.6212 -0.7435 -1.7056
  958SOL    HW2 3831   1.956   2.756   2.934 -1.6378 -1.1381 -0.4259
  958SOL     MW 3832   2.016   2.697   2.916  0.5555 -0.5253 -0.3055
  959SOL     OW 3833   2.473   2.580   0.352 -0.4184 -0.1040  0.1821
  959SOL    HW1 3834   2.537   2.572   0.282 -0.5666 -1.3647  0.0300
  959SOL    HW2 3835   2.426   2.665   0.335 -1.7287  2.1345  1.5511
  959SOL     MW 3836   2.475   2.590   0.341 -0.6109  0.0250  0.3426
  960SOL     OW 3837   1.969   2.461   2.310 -0.3338 -0.2940 -0.7688
  960SOL    HW1 3838   1.968   2.371   2.342  1.3768  2.2067  0.2029
  960SOL    HW2 3839   1.909   2.503   2.374  1.6682  2.4900 -2.1648
  960SOL     MW 3840   1.961   2.455   2.322  0.1560  0.4032 -0.8248
  961SOL     OW 3841   2.243   2.461   2.325  0.3562 -0.1139 -0.1012
  961SOL    HW1 3842   2.150   2.473   2.310 -1.2486  1.3614 -0.2604
  961SOL    HW2 3843   2.275   2.514   2.402 -1.2068  2.0147 -0.1581
  961SOL     MW 3844   2.235   2.470   2.333 -0.0618  0.3616 -0.1297
  962SOL     OW 3845   2.187   2.021   2.747  0.6046  0.4952  0.3463
  962SOL    HW1 3846   2.165   1.991   2.835  0.1147  1.8290  2.5987
  962SOL    HW2 3847   2.216   1.948   2.698  0.0407  2.8169  0.3329
  962SOL     MW 3848   2.188   2.008   2.752  0.4655  0.9775  0.6418
  963SOL     OW 3849   1.732   2.517   2.166 -0.4135 -0.2535  0.3157
  963SOL    HW1 3850   1.808   2.496   2.223  2.8447 -2.1711  3.1245
  963SOL    HW2 3851   1.747   2.462   2.081 -1.9962 -0.7855 -3.3650
  963SOL     MW 3852   1.744   2.507   2.162 -0.1924 -0.5767  0.2006
  964SOL     OW 3853   1.843   2.026   2.642 -0.2606 -0.3492 -0.3916
  964SOL    HW1 3854   1.905   2.099   2.661  0.3877 -1.3379 -2.3637
  964SOL    HW2 3855   1.872   1.965   2.710 -3.0937  0.2147 -4.2218
  964SOL     MW 3856   1.855   2.028   2.654 -0.5489 -0.4052 -1.1572
  965SOL     OW 3857   2.248   2.704   0.603  0.2550  0.0880  0.4491
  965SOL    HW1 3858   2.231   2.611   0.590 -0.7479 -1.2293  0.7589
  965SOL    HW2 3859   2.326   2.722   0.657 -0.0867 -2.4113 -1.9371
  965SOL     MW 3860   2.256   2.694   0.608  0.0776 -0.4156  0.1752
  966SOL     OW 3861   2.730   2.588   2.471 -0.0184  0.1937  0.9739
  966SOL    HW1 3862   2.663   2.628   2.412 -1.3378 -1.6097  1.8944
  966SOL    HW2 3863   2.730   2.502   2.441  0.1161  0.8647  0.5146
  966SOL     MW 3864   2.721   2.582   2.459 -0.1747  0.0443  1.0348
  967SOL     OW 3865   2.816   3.072   2.980  0.0327 -0.4606 -0.8241
  967SOL    HW1 3866   2.750   3.008   2.996 -0.2974  0.7870 -0.3194
  967SOL    HW2 3867   2.767   3.135   2.930 -0.4327 -1.0235  0.6321
  967SOL     MW 3868   2.801   3.072   2.976 -0.0722 -0.3703 -0.5654
  968SOL     OW 3869   3.025   2.481   3.047  0.1558  0.1469 -0.4126
  968SOL    HW1 3870   2.934   2.496   3.041  4.1351  1.2158 -1.7675
  968SOL    HW2 3871   3.048   2.463   2.951 -0.2273  0.5429  0.4557
  968SOL     MW 3872   3.016   2.481   3.033  0.6303  0.3402 -0.4768
  969SOL     OW 3873   1.535   2.133   1.708 -0.5243 -0.0421 -0.3631
  969SOL    HW1 3874   1.614   2.078   1.704  2.0563 -1.6347  3.7632
  969SOL    HW2 3875   1.525   2.135   1.801 -0.6171 -1.0503 -0.4696
  969SOL     MW 3876   1.544   2.126   1.720 -0.1960 -0.3852  0.1673
  970SOL     OW 3877   1.668   1.674   1.822  0.5186  0.0617 -0.1811
  970SOL    HW1 3878   1.731   1.660   1.894 -1.2656 -1.1272  1.8997
  970SOL    HW2 3879   1.583   1.697   1.862  2.1391  0.0950  0.1897
  970SOL     MW 3880   1.665   1.675   1.837  0.4970 -0.0908  0.1424
  971SOL     OW 3881   1.887   0.087   2.367  0.1168 -0.4420 -0.3484
  971SOL    HW1 3882   1.929   0.012   2.311 -0.6551 -2.4303 -2.8154
  971SOL    HW2 3883   1.949   0.156   2.368 -2.1365 -0.2134 -0.6735
  971SOL     MW 3884   1.901   0.086   2.359 -0.2824 -0.6742 -0.7168
  972SOL     OW 3885   0.237   2.797   2.541 -0.4323 -0.8000  0.2668
  972SOL    HW1 3886   0.287   2.715   2.575  0.5602 -0.3126 -0.4054
  972SOL    HW2 3887   0.290   2.868   2.504 -1.3216  0.5876  0.3347
  972SOL     MW 3888   0.251   2.796   2.540 -0.4187 -0.5526  0.1871
  973SOL     OW 3889   2.643   3.060   2.100 -0.4727  0.1599 -0.8237
  973SOL    HW1 3890   2.595   2.979   2.076 -2.6098  0.3388  2.1623
  973SOL    HW2 3891   2.623   3.110   2.016  0.8023  1.4543 -2.6220
  973SOL     MW 3892   2.634   3.056   2.086 -0.5864  0.3543 -0.6670
  974SOL     OW 3893   2.013   0.314   2.690  0.6285 -0.0406  0.2459
  974SOL    HW1 3894   2.044   0.236   2.736  2.3621 -0.1189 -1.2071
  974SOL    HW2 3895   1.923   0.320   2.718  2.6122 -0.7031 -0.8739
  974SOL     MW 3896   2.005   0.304   2.700  1.1190 -0.1383 -0.0935
  975SOL     OW 3897   2.319   2.579   2.570 -0.2967  0.6063 -0.0143
  975SOL    HW1 3898   2.390   2.631   2.617 -2.1013  1.1027  3.0902
  975SOL    HW2 3899   2.230   2.621   2.574 -0.0214 -1.0111 -1.2323
  975SOL     MW 3900   2.316   2.592   2.577 -0.4985  0.4584  0.2346
  976SOL     OW 3901   0.283   0.254   1.691  0.0161 -0.0145 -0.1360
  976SOL    HW1 3902   0.325   0.218   1.768  1.5651 -0.0442  1.1251
  976SOL    HW2 3903   0.191   0.220   1.689 -1.5927  0.6391  0.2970
  976SOL     MW 3904   0.276   0.245   1.701  0.0082  0.0678  0.0875
  977SOL     OW 3905   1.714   2.804   2.471 -0.1818 -0.4415  0.4793
  977SOL    HW1 3906   1.756   2.721   2.478 -3.3958 -0.9708 -2.3821
  977SOL    HW2 3907   1.787   2.856   2.445 -0.5462 -0.4183  1.0043
  977SOL     MW 3908   1.729   2.800   2.468 -0.6539 -0.5083  0.1711
   3.10000   3.10000   3.10000
