977 TIP4P/2005f water molecules t=   0.33000 step= 330
 3908
    1SOL     OW    1   0.294   0.766   0.049 -0.0262  0.2089  0.2486
    1SOL    HW1    2   0.254   0.791  -0.034 -1.3941  2.2361 -0.9923
    1SOL    HW2    3   0.313   0.672   0.032 -1.7720  0.5540 -1.2318
    1SOL     MW    4   0.291   0.757   0.036 -0.4370  0.5219 -0.1104
    2SOL     OW    5   0.319   3.049   1.155 -1.0019  0.7069  0.4623
    2SOL    HW1    6   0.346   3.125   1.102  0.0062 -2.9571 -0.2789
    2SOL    HW2    7   0.227   3.070   1.167  0.0394  1.9869  0.5898
    2SOL     MW    8   0.310   3.061   1.149 -0.7315  0.3923  0.3813
    3SOL     OW    9   2.661   0.400   0.914  0.4560 -0.4031 -0.1757
    3SOL    HW1   10   2.671   0.471   0.852 -1.2602  0.6636 -2.1666
    3SOL    HW2   11   2.649   0.447   0.991 -2.8983 -1.0750 -2.2462
    3SOL     MW   12   2.661   0.415   0.916 -0.2130 -0.3510 -0.7116
    4SOL     OW   13   3.065   1.805   0.595 -0.2012 -0.5780 -1.0601
    4SOL    HW1   14   2.982   1.849   0.580 -1.7892  1.5640 -2.2506
    4SOL    HW2   15   3.068   1.732   0.536  3.0020 -0.9349  0.2870
    4SOL     MW   16   3.055   1.801   0.585  0.0119 -0.3424 -1.0395
    5SOL     OW   17   1.695   1.423   0.541 -0.0062  0.1084  0.5979
    5SOL    HW1   18   1.743   1.387   0.609  0.6132 -0.8381 -0.0958
    5SOL    HW2   19   1.611   1.428   0.581  0.0984  0.1981  0.3194
    5SOL     MW   20   1.690   1.419   0.555  0.0893 -0.0046  0.4696
    6SOL     OW   21   0.855   1.395   0.618  0.2071 -0.4842  0.3266
    6SOL    HW1   22   0.771   1.399   0.662 -0.4007 -0.0203  1.7370
    6SOL    HW2   23   0.886   1.310   0.653 -1.6759  0.8936  0.0233
    6SOL     MW   24   0.848   1.384   0.628 -0.1215 -0.2412  0.4727
    7SOL     OW   25   1.990   1.051   0.035  0.0640 -0.3341 -0.0412
    7SOL    HW1   26   1.987   1.145   0.009  0.4575 -0.5387  1.1780
    7SOL    HW2   27   2.027   1.049   0.122  0.1328  2.5430  1.8179
    7SOL     MW   28   1.995   1.063   0.043  0.1250  0.0185  0.3649
    8SOL     OW   29   1.004   1.327   1.025 -0.2199  0.3150 -0.5000
    8SOL    HW1   30   1.079   1.274   1.055 -1.0040 -3.2699  0.8248
    8SOL    HW2   31   0.931   1.275   1.027 -2.4558  2.8295 -0.1160
    8SOL     MW   32   1.004   1.313   1.029 -0.6184  0.1737 -0.2746
    9SOL     OW   33   1.043   0.469   1.341  0.2399 -0.1481  0.3571
    9SOL    HW1   34   0.978   0.415   1.290  0.2891 -0.7073  0.0445
    9SOL    HW2   35   1.052   0.425   1.428 -1.3049 -1.6912  1.8477
    9SOL     MW   36   1.036   0.456   1.346  0.0426 -0.4255  0.5125
   10SOL     OW   37   0.315   0.806   0.463 -0.1092 -0.8758 -0.2642
   10SOL    HW1   38   0.403   0.836   0.417 -2.0624  0.4306  0.5537
   10SOL    HW2   39   0.316   0.858   0.544  1.7330 -0.8139 -1.3779
   10SOL     MW   40   0.327   0.817   0.467 -0.1239 -0.6953 -0.3032
   11SOL     OW   41   0.867   1.084   1.614 -0.8278 -0.2450  0.1536
   11SOL    HW1   42   0.844   1.088   1.706 -2.1681  0.3663 -1.2922
   11SOL    HW2   43   0.810   1.010   1.574  1.4623  0.8269 -2.6562
   11SOL     MW   44   0.857   1.075   1.621 -0.7025 -0.0229 -0.4079
   12SOL     OW   45   0.013   1.156   0.829 -0.1401 -0.1731 -0.2678
   12SOL    HW1   46   0.042   1.205   0.906 -0.3121  1.2014  2.9115
   12SOL    HW2   47   0.003   1.207   0.748  2.6250 -1.0881 -2.9400
   12SOL     MW   48   0.015   1.169   0.829  0.2020 -0.1125 -0.2009
   13SOL     OW   49   1.906   1.428   1.371 -0.6893 -0.0804 -0.4588
   13SOL    HW1   50   1.928   1.381   1.290  0.6324 -0.1167 -1.3193
   13SOL    HW2   51   1.865   1.510   1.348  1.6976 -2.4365  0.5834
   13SOL     MW   52   1.903   1.433   1.357 -0.2000 -0.3960 -0.4349
   14SOL     OW   53   0.617   0.328   1.804 -0.2216 -0.0455  0.5961
   14SOL    HW1   54   0.594   0.249   1.761 -0.3832  1.7463  0.3393
   14SOL    HW2   55   0.705   0.309   1.829 -1.5251 -1.4892 -0.8844
   14SOL     MW   56   0.626   0.315   1.802 -0.4149  0.0004  0.3669
   15SOL     OW   57   2.003   0.547   0.944  0.4238 -0.0562  0.5484
   15SOL    HW1   58   2.026   0.536   1.039 -0.4030 -1.3162  0.7923
   15SOL    HW2   59   2.082   0.510   0.901  0.3218 -1.2663  0.3931
   15SOL     MW   60   2.016   0.541   0.951  0.3013 -0.3821  0.5601
   16SOL     OW   61   0.211   1.767   0.333  0.0769 -0.4517 -0.0686
   16SOL    HW1   62   0.295   1.735   0.357 -0.6828  1.9521 -1.1904
   16SOL    HW2   63   0.223   1.860   0.367  0.1560 -0.8522  2.7449
   16SOL     MW   64   0.223   1.775   0.340 -0.0129 -0.1874  0.1546
   17SOL     OW   65   1.068   0.813   1.476 -0.5829  0.0331  0.4808
   17SOL    HW1   66   1.086   0.820   1.573 -0.6870 -2.2846 -0.1770
   17SOL    HW2   67   0.986   0.755   1.471  1.4226 -1.2644  1.1757
   17SOL     MW   68   1.059   0.806   1.488 -0.3320 -0.4439  0.4857
   18SOL     OW   69   0.043   1.545   0.416  0.4903  0.0305  0.1173
   18SOL    HW1   70   0.092   1.613   0.374 -0.8108 -1.3010  3.2231
   18SOL    HW2   71   0.028   1.477   0.351  0.3129  0.9404 -2.2950
   18SOL     MW   72   0.048   1.545   0.402  0.2952 -0.0251  0.2088
   19SOL     OW   73   0.110   1.324   1.035 -0.4084  0.9413  0.1367
   19SOL    HW1   74   0.149   1.370   0.966  1.8862 -1.0354  2.1107
   19SOL    HW2   75   0.015   1.342   1.033 -0.6786  0.8582  0.3726
   19SOL     MW   76   0.103   1.332   1.026 -0.1413  0.6695  0.4283
   20SOL     OW   77   0.464   2.134   1.303 -0.1908 -0.5924 -0.0737
   20SOL    HW1   78   0.396   2.067   1.275  1.8356 -0.5708 -1.3014
   20SOL    HW2   79   0.416   2.202   1.355  0.6663 -0.0199  1.0394
   20SOL     MW   80   0.449   2.134   1.306  0.1896 -0.5140 -0.0888
   21SOL     OW   81   0.549   0.888   0.335  0.1241 -0.1133  0.2182
   21SOL    HW1   82   0.600   0.863   0.408 -0.3012 -0.6097 -0.8989
   21SOL    HW2   83   0.585   0.842   0.257  1.0237 -0.9101 -0.6068
   21SOL     MW   84   0.561   0.878   0.334  0.1867 -0.2839 -0.0380
   22SOL     OW   85   1.523   0.555   1.132  0.2883  0.5659 -0.3804
   22SOL    HW1   86   1.582   0.544   1.055 -1.0102  3.2154  0.6268
   22SOL    HW2   87   1.473   0.631   1.111 -1.0235  0.9964 -0.5472
   22SOL     MW   88   1.525   0.564   1.119 -0.0561  0.9723 -0.2695
   23SOL     OW   89   3.047   0.736   0.739  0.6991 -0.1847 -0.2072
   23SOL    HW1   90   3.083   0.643   0.733 -0.5416 -0.6169 -0.7348
   23SOL    HW2   91   3.132   0.783   0.738 -3.3521  1.3341 -0.0943
   23SOL     MW   92   3.063   0.730   0.738  0.0009 -0.0413 -0.2619
   24SOL     OW   93   2.026   2.192   0.032 -0.1153 -0.0473 -0.1232
   24SOL    HW1   94   2.011   2.161   0.126 -0.5082 -2.4827  0.5281
   24SOL    HW2   95   2.085   2.130  -0.002 -0.1452  0.5003  2.0070
   24SOL     MW   96   2.031   2.180   0.040 -0.1711 -0.2964  0.2438
   25SOL     OW   97   0.277   1.413   0.535  0.2975 -0.6123 -0.1850
   25SOL    HW1   98   0.204   1.465   0.488 -2.6753  0.0009 -2.6178
   25SOL    HW2   99   0.352   1.428   0.482 -1.3211 -0.2957 -0.4752
   25SOL     MW  100   0.277   1.422   0.522 -0.3083 -0.4896 -0.5443
   26SOL     OW  101   2.061   0.933   0.418 -0.0858 -0.3294  0.6857
   26SOL    HW1  102   1.976   0.978   0.423 -1.9464  0.3206 -1.1701
   26SOL    HW2  103   2.122   1.000   0.379  0.3987  1.9196  1.9359
   26SOL     MW  104   2.058   0.948   0.413 -0.2674  0.0531  0.6058
   27SOL     OW  105   1.984   1.406   0.246  0.2240 -0.4757 -0.1618
   27SOL    HW1  106   1.915   1.362   0.296 -0.1178 -1.2946  0.6114
   27SOL    HW2  107   2.030   1.458   0.311 -1.4591 -1.1743  2.4565
   27SOL     MW  108   1.981   1.407   0.261 -0.0432 -0.6759  0.2857
   28SOL     OW  109   0.400   0.986   1.903  0.2426  1.0589  0.2157
   28SOL    HW1  110   0.331   0.921   1.906  2.3921 -1.9142 -0.1777
   28SOL    HW2  111   0.478   0.941   1.944 -3.2672 -0.6481  4.4307
   28SOL     MW  112   0.401   0.971   1.909  0.0631  0.4414  0.7199
   29SOL     OW  113   0.245   1.439   0.819 -0.1065 -0.7053  0.3028
   29SOL    HW1  114   0.219   1.529   0.847 -0.4733 -0.7616  0.8052
   29SOL    HW2  115   0.247   1.434   0.725  2.3929  3.4345 -1.6302
   29SOL     MW  116   0.242   1.450   0.810  0.1749 -0.1665  0.1141
   30SOL     OW  117   0.895   1.038   1.143  0.0398  0.0961  0.1500
   30SOL    HW1  118   0.814   1.059   1.196 -0.4556  0.7509 -2.2099
   30SOL    HW2  119   0.960   1.055   1.214 -1.7507  0.8806  0.8548
   30SOL     MW  120   0.893   1.043   1.159 -0.2618  0.2860 -0.0684
   31SOL     OW  121   0.463   0.277   0.251 -0.0003 -0.2776  0.1341
   31SOL    HW1  122   0.481   0.188   0.295 -1.2379  0.5826 -1.5678
   31SOL    HW2  123   0.435   0.261   0.158 -4.3205  1.1175 -2.6400
   31SOL     MW  124   0.462   0.263   0.245 -0.7336  0.0199 -0.4564
   32SOL     OW  125   2.708   1.058   1.102  0.2368  0.3451 -0.4506
   32SOL    HW1  126   2.679   0.968   1.129 -3.0480 -1.0051 -2.3277
   32SOL    HW2  127   2.808   1.053   1.101 -0.1203  0.6858 -0.2393
   32SOL     MW  128   2.717   1.046   1.106 -0.2437  0.2119 -0.6704
   33SOL     OW  129   1.737   1.266   0.322  0.1004  0.6651  0.2613
   33SOL    HW1  130   1.755   1.177   0.350 -0.5261  1.9859  0.0679
   33SOL    HW2  131   1.705   1.316   0.398 -3.4505 -1.5819  0.4397
   33SOL     MW  132   1.735   1.261   0.336 -0.4508  0.5429  0.2593
   34SOL     OW  133   1.231   1.847   1.131 -0.2928 -0.5127 -0.9225
   34SOL    HW1  134   1.155   1.908   1.137  2.5136 -1.6515 -1.5034
   34SOL    HW2  135   1.298   1.878   1.202  2.3554 -0.2235  1.4904
   34SOL     MW  136   1.229   1.859   1.141  0.4269 -0.6248 -0.6808
   35SOL     OW  137   0.352   0.089   1.857 -0.7360  0.3185 -0.7673
   35SOL    HW1  138   0.390   0.040   1.936  0.8542  2.8904  0.4232
   35SOL    HW2  139   0.391   0.035   1.781 -0.1789 -0.9204  2.2571
   35SOL     MW  140   0.362   0.075   1.858 -0.4527  0.4943 -0.2112
   36SOL     OW  141   1.894   1.968   0.571 -0.6645  0.1479  0.1129
   36SOL    HW1  142   1.919   1.963   0.479 -0.3298  0.1277  0.1420
   36SOL    HW2  143   1.893   1.874   0.596  0.7700 -0.7906 -1.7084
   36SOL     MW  144   1.897   1.955   0.562 -0.4311  0.0214 -0.1236
   37SOL     OW  145   1.734   2.053   0.971  0.0766  0.5344 -0.3722
   37SOL    HW1  146   1.702   1.978   0.924 -1.3578 -0.1245  3.5032
   37SOL    HW2  147   1.663   2.073   1.049 -1.7825  0.3170  0.9724
   37SOL     MW  148   1.720   2.046   0.975 -0.3579  0.4188  0.3165
   38SOL     OW  149   2.854   0.953   0.194 -0.2483  0.1092 -0.1255
   38SOL    HW1  150   2.893   0.959   0.278  0.1057 -1.1631 -0.8969
   38SOL    HW2  151   2.907   0.882   0.148 -0.6042 -0.3785 -0.9022
   38SOL     MW  152   2.866   0.945   0.199 -0.2486 -0.1230 -0.3298
   39SOL     OW  153   1.468   0.682   0.835  0.0449 -0.2723 -0.8900
   39SOL    HW1  154   1.448   0.591   0.864 -1.6100  0.2962 -0.3849
   39SOL    HW2  155   1.412   0.739   0.884  1.1828  0.0386  0.0292
   39SOL     MW  156   1.458   0.678   0.846 -0.0233 -0.1562 -0.7021
   40SOL     OW  157   1.281   1.875   0.259 -0.1276 -0.3393  0.1875
   40SOL    HW1  158   1.301   1.797   0.312  0.8622  0.6604 -0.6337
   40SOL    HW2  159   1.255   1.940   0.324 -1.4983  0.4530 -1.1960
   40SOL     MW  160   1.280   1.873   0.274 -0.1778 -0.1028 -0.1034
   41SOL     OW  161   0.593   0.552   1.585  0.0708  0.1060 -0.0073
   41SOL    HW1  162   0.682   0.567   1.555  1.8910 -0.2121 -0.0581
   41SOL    HW2  163   0.610   0.471   1.634 -0.0847 -0.8009  1.5693
   41SOL     MW  164   0.607   0.543   1.588  0.2905 -0.0556  0.1940
   42SOL     OW  165   1.320   3.088   1.948 -0.4765 -0.4212  0.1498
   42SOL    HW1  166   1.226   3.091   1.952 -0.0776  4.0867  1.5306
   42SOL    HW2  167   1.341   2.995   1.972  0.2048  0.2160 -0.7814
   42SOL     MW  168   1.310   3.076   1.952 -0.3340  0.2576  0.2091
   43SOL     OW  169   1.583   0.223   1.625  0.5662 -0.0203  0.7957
   43SOL    HW1  170   1.639   0.160   1.584  0.3823 -0.4456 -0.6845
   43SOL    HW2  171   1.513   0.168   1.674 -0.7737 -2.9782  2.7864
   43SOL     MW  172   1.581   0.208   1.626  0.3651 -0.4667  0.8630
   44SOL     OW  173   1.316   0.751   1.105 -0.0839 -0.0162 -0.1882
   44SOL    HW1  174   1.316   0.845   1.094 -0.6341 -0.1156 -2.6882
   44SOL    HW2  175   1.296   0.726   1.198  1.0445  1.5771  1.7428
   44SOL     MW  176   1.313   0.760   1.116 -0.0076  0.1809 -0.2633
   45SOL     OW  177   1.129   0.694   0.758  0.8562 -0.4698 -0.2840
   45SOL    HW1  178   1.105   0.644   0.836 -1.5208  0.0017 -3.4625
   45SOL    HW2  179   1.074   0.651   0.689 -3.2884 -1.9074 -2.2108
   45SOL     MW  180   1.118   0.682   0.759 -0.0043 -0.5972 -0.9576
   46SOL     OW  181   0.580   1.158   0.563 -0.2605 -0.2284 -0.8425
   46SOL    HW1  182   0.567   1.183   0.468  0.6628  1.5466  0.8779
   46SOL    HW2  183   0.663   1.107   0.557  0.5084 -2.5651 -1.8195
   46SOL     MW  184   0.590   1.155   0.549 -0.0373 -0.3025 -0.7444
   47SOL     OW  185   0.151   1.927   1.854  0.2587 -0.2081 -0.1223
   47SOL    HW1  186   0.194   1.861   1.798 -1.5484  1.6202  1.5619
   47SOL    HW2  187   0.158   1.896   1.945 -1.0575  1.2450 -0.4685
   47SOL     MW  188   0.158   1.914   1.858 -0.1534  0.2249  0.0542
   48SOL     OW  189   1.052   0.651   1.028  0.2866 -0.2560 -0.3760
   48SOL    HW1  190   0.964   0.658   1.059  0.6565 -0.3523  0.3883
   48SOL    HW2  191   1.093   0.728   1.070  2.2007  2.9605  0.4614
   48SOL     MW  192   1.046   0.662   1.037  0.5880  0.1557 -0.1647
   49SOL     OW  193   1.886   0.738   1.598 -0.1658 -0.0571  0.1621
   49SOL    HW1  194   1.846   0.697   1.672 -0.3774  3.4304 -3.3296
   49SOL    HW2  195   1.932   0.667   1.548  0.6463  0.8455  0.2775
   49SOL     MW  196   1.887   0.723   1.601 -0.0866  0.5222 -0.2834
   50SOL     OW  197   1.270   0.989   0.519 -0.3215  0.4659 -0.0842
   50SOL    HW1  198   1.266   1.030   0.611 -0.3448 -0.4654 -1.5544
   50SOL    HW2  199   1.296   0.902   0.532 -3.6278  1.1136  2.4241
   50SOL     MW  200   1.273   0.983   0.533 -0.7608  0.4285  0.0528
   51SOL     OW  201   0.358   2.847   0.969  0.6081 -0.0473  0.1627
   51SOL    HW1  202   0.445   2.820   0.984 -1.1272 -0.6395  1.2445
   51SOL    HW2  203   0.335   2.910   1.044  0.1178 -1.3516  1.5578
   51SOL     MW  204   0.367   2.852   0.981  0.3144 -0.2975  0.4895
   52SOL     OW  205   0.821   1.797   0.385  0.2985 -0.9839  0.0184
   52SOL    HW1  206   0.791   1.874   0.428 -0.7745 -1.7753  0.7303
   52SOL    HW2  207   0.793   1.812   0.298  2.2606 -0.2106  1.0869
   52SOL     MW  208   0.813   1.809   0.379  0.4158 -0.9863  0.2533
   53SOL     OW  209   0.458   2.061   0.576  0.1754  0.0838 -0.4921
   53SOL    HW1  210   0.369   2.059   0.521  0.3928  0.9515  3.0400
   53SOL    HW2  211   0.458   2.151   0.588  1.5209  0.6925 -0.9786
   53SOL     MW  212   0.446   2.072   0.570  0.3816  0.2786 -0.0902
   54SOL     OW  213   2.202   0.807   0.921 -0.2323 -0.0566  0.3467
   54SOL    HW1  214   2.201   0.736   0.856 -1.5266 -1.3379  1.2647
   54SOL    HW2  215   2.110   0.841   0.921 -0.7342  0.9808  0.2872
   54SOL     MW  216   2.190   0.802   0.912 -0.4692 -0.0888  0.4600
   55SOL     OW  217   0.542   1.491   1.552 -0.1217 -0.0719 -0.0784
   55SOL    HW1  218   0.468   1.533   1.501  0.3822  1.9119 -0.2888
   55SOL    HW2  219   0.606   1.445   1.496  0.2626 -1.2798  0.8806
   55SOL     MW  220   0.540   1.490   1.538 -0.0045  0.0305  0.0204
   56SOL     OW  221   0.576   0.779   0.104  0.7754 -0.4458  0.0883
   56SOL    HW1  222   0.598   0.861   0.056 -0.2156 -0.7388  1.1773
   56SOL    HW2  223   0.483   0.783   0.109  3.3777 -0.0387 -0.6329
   56SOL     MW  224   0.567   0.790   0.098  0.9880 -0.4307  0.1368
   57SOL     OW  225   1.256   1.221   1.167  0.3320  0.4206  0.1851
   57SOL    HW1  226   1.347   1.249   1.174  0.7738 -0.8450  1.7889
   57SOL    HW2  227   1.235   1.192   1.261 -0.3530  0.6393  0.3080
   57SOL     MW  228   1.265   1.221   1.181  0.2999  0.2825  0.4129
   58SOL     OW  229   0.690   1.112   1.303 -0.1926  0.1572  0.3172
   58SOL    HW1  230   0.641   1.184   1.265 -0.5635 -3.0032  1.2554
   58SOL    HW2  231   0.663   1.100   1.391 -1.2916  1.3650 -0.9713
   58SOL     MW  232   0.680   1.120   1.310 -0.3865 -0.1004  0.2710
   59SOL     OW  233   1.540   1.636   0.298  0.5809 -0.1569  0.7079
   59SOL    HW1  234   1.608   1.586   0.338 -0.0501  1.0731 -2.0269
   59SOL    HW2  235   1.485   1.674   0.372 -1.5519  0.2590 -1.0350
   59SOL     MW  236   1.542   1.634   0.313  0.2162  0.0603  0.1171
   60SOL     OW  237   3.076   0.158   1.642 -0.0651 -0.6704  0.7507
   60SOL    HW1  238   2.990   0.184   1.610 -0.6593 -0.3704 -0.4027
   60SOL    HW2  239   3.071   0.067   1.662  0.8938 -0.2764  3.8985
   60SOL     MW  240   3.064   0.149   1.640 -0.0170 -0.5788  1.0138
   61SOL     OW  241   1.986   1.500   0.006 -0.6398 -0.0632  0.0500
   61SOL    HW1  242   1.991   1.471   0.098  0.4677 -1.0970 -1.0580
   61SOL    HW2  243   2.050   1.434  -0.028 -0.1595 -3.1020 -1.0855
   61SOL     MW  244   1.995   1.487   0.014 -0.4303 -0.6006 -0.2460
   62SOL     OW  245   0.584   1.623   0.578  0.1182 -0.6525 -0.1216
   62SOL    HW1  246   0.658   1.622   0.507  2.3992  0.8487 -3.2002
   62SOL    HW2  247   0.595   1.542   0.627  0.1114  3.4394 -0.5183
   62SOL     MW  248   0.595   1.612   0.575  0.4183  0.0855 -0.5801
   63SOL     OW  249   1.712   0.732   0.658 -0.1497  0.2106 -0.1657
   63SOL    HW1  250   1.690   0.761   0.571 -1.1151 -1.7370 -1.2601
   63SOL    HW2  251   1.627   0.718   0.701 -1.0800  4.1390  1.3026
   63SOL     MW  252   1.698   0.734   0.652 -0.3998  0.4719 -0.1164
   64SOL     OW  253   0.245   1.679   0.943 -0.1553 -0.3879 -0.7474
   64SOL    HW1  254   0.319   1.716   0.884  0.7301  1.8598 -2.1605
   64SOL    HW2  255   0.165   1.720   0.910  2.8806  0.7029  0.5708
   64SOL     MW  256   0.244   1.689   0.931  0.3621  0.0526 -0.7599
   65SOL     OW  257   1.541   2.286   0.325 -0.4833 -0.1947 -0.3876
   65SOL    HW1  258   1.626   2.237   0.307  2.6097  1.5922 -0.6585
   65SOL    HW2  259   1.563   2.358   0.386  1.5233  0.7208  4.3027
   65SOL     MW  260   1.555   2.289   0.331  0.1896  0.1619  0.1955
   66SOL     OW  261   0.304   0.534   0.521  0.1733 -0.3198  0.2771
   66SOL    HW1  262   0.363   0.499   0.455  0.6880 -2.3926 -1.2500
   66SOL    HW2  263   0.320   0.629   0.521  0.2012 -1.0430  2.0054
   66SOL     MW  264   0.314   0.542   0.513  0.2449 -0.6887  0.3037
   67SOL     OW  265   1.539   0.135   2.030 -0.1798 -0.8590 -0.1512
   67SOL    HW1  266   1.562   0.196   1.961 -0.6145  1.3918  0.3063
   67SOL    HW2  267   1.469   0.076   2.011  0.1206  3.3796  1.8420
   67SOL     MW  268   1.533   0.135   2.019 -0.1975 -0.0028  0.1721
   68SOL     OW  269   0.629   0.076   2.942 -0.3162 -0.1851 -0.4650
   68SOL    HW1  270   0.601   0.110   2.858  0.6178  1.1799 -0.4291
   68SOL    HW2  271   0.642   0.155   2.989  0.3781 -1.1581  0.6011
   68SOL     MW  272   0.627   0.091   2.937 -0.1014 -0.1334 -0.3196
   69SOL     OW  273   1.027   0.202   1.947 -0.8963  0.1875  0.2801
   69SOL    HW1  274   1.114   0.239   1.974  0.9916 -2.4480 -1.4313
   69SOL    HW2  275   1.030   0.111   1.976  1.5435  1.9108  0.3397
   69SOL     MW  276   1.039   0.195   1.954 -0.3253  0.0671  0.0621
   70SOL     OW  277   0.585   1.824   1.126 -0.4374  0.8013  0.0851
   70SOL    HW1  278   0.624   1.745   1.157  1.2270  1.6698  1.2874
   70SOL    HW2  279   0.645   1.842   1.056 -1.9652  0.6564  3.4977
   70SOL     MW  280   0.598   1.816   1.121 -0.4194  0.8968  0.6940
   71SOL     OW  281   1.749   0.686   1.239 -0.3800  0.0149  0.0792
   71SOL    HW1  282   1.716   0.711   1.323  1.1484 -2.7595  1.6467
   71SOL    HW2  283   1.679   0.626   1.210 -1.8063 -3.3736  0.2591
   71SOL     MW  284   1.736   0.682   1.247 -0.3666 -0.7983  0.3097
   72SOL     OW  285   0.832   1.797   0.967  0.3625 -0.6619  0.0738
   72SOL    HW1  286   0.839   1.853   0.887  1.0390 -0.3384 -0.3467
   72SOL    HW2  287   0.832   1.707   0.939 -0.7817  1.2997 -0.1664
   72SOL     MW  288   0.833   1.793   0.953  0.3008 -0.3604 -0.0134
   73SOL     OW  289   1.243   0.659   1.352 -0.5709 -0.0509  0.1785
   73SOL    HW1  290   1.199   0.575   1.332 -0.6007 -1.4483  2.1765
   73SOL    HW2  291   1.185   0.707   1.412  1.4917 -0.0334 -0.2140
   73SOL     MW  292   1.229   0.654   1.357 -0.3027 -0.2329  0.3904
   74SOL     OW  293   2.788   0.144   1.001  0.5259  0.3830 -0.3311
   74SOL    HW1  294   2.755   0.062   0.968 -0.8254  2.9952 -0.5880
   74SOL    HW2  295   2.750   0.216   0.951  2.4057  1.9290 -2.1012
   74SOL     MW  296   2.778   0.143   0.990  0.5956  0.9316 -0.5985
   75SOL     OW  297   1.602   1.320   0.080 -0.3688  0.1242  0.1513
   75SOL    HW1  298   1.650   1.316   0.164 -2.3043 -0.5369 -0.1050
   75SOL    HW2  299   1.617   1.233   0.043 -2.8839  0.6580 -0.4417
   75SOL     MW  300   1.611   1.308   0.086 -0.9560  0.1074  0.0392
   76SOL     OW  301   2.937   0.659   0.467  0.5178 -0.0950 -0.0391
   76SOL    HW1  302   2.948   0.674   0.564  0.7075 -1.1051  1.5846
   76SOL    HW2  303   3.014   0.607   0.432  0.6921 -0.5380  1.0256
   76SOL     MW  304   2.949   0.654   0.475  0.5658 -0.2867  0.3156
   77SOL     OW  305   0.905   0.433   0.503 -0.7948  0.3019 -0.4150
   77SOL    HW1  306   0.860   0.513   0.483  0.9412 -0.1430 -1.3150
   77SOL    HW2  307   0.840   0.357   0.496 -0.6145  2.2433 -0.3176
   77SOL     MW  308   0.891   0.433   0.500 -0.5420  0.4994 -0.5209
   78SOL     OW  309   0.775   0.756   1.199 -0.3907  0.2659 -0.0156
   78SOL    HW1  310   0.696   0.751   1.140 -0.9205 -1.3871 -2.4036
   78SOL    HW2  311   0.828   0.831   1.171  1.3047 -0.4236  0.1128
   78SOL     MW  312   0.772   0.765   1.187 -0.2369 -0.0432 -0.3137
   79SOL     OW  313   1.904   1.696   0.601  1.3293  0.4583  0.1054
   79SOL    HW1  314   1.831   1.636   0.584 -1.9963 -0.9726  0.2326
   79SOL    HW2  315   1.931   1.672   0.690  0.5705 -0.4200  1.2177
   79SOL     MW  316   1.898   1.685   0.610  0.7904  0.1536  0.2689
   80SOL     OW  317   0.137   1.004   0.309  0.6456  0.5328  0.1318
   80SOL    HW1  318   0.043   0.977   0.330 -2.6980  2.1911 -0.6062
   80SOL    HW2  319   0.184   0.925   0.343 -2.5668  0.0613  1.2462
   80SOL     MW  320   0.131   0.990   0.316 -0.2194  0.6894  0.1815
   81SOL     OW  321   1.900   1.894   0.219 -0.6387 -0.3447 -0.1359
   81SOL    HW1  322   1.846   1.853   0.146 -0.0716 -2.4736  0.6511
   81SOL    HW2  323   1.873   1.991   0.223 -1.9582  1.0202  0.3841
   81SOL     MW  324   1.889   1.902   0.210 -0.7380 -0.4455  0.0366
   82SOL     OW  325   0.808   0.995   0.558 -0.3237  0.8879  0.0711
   82SOL    HW1  326   0.870   1.003   0.482 -0.3798  0.3697  1.5823
   82SOL    HW2  327   0.792   0.894   0.562  0.9954 -2.1030 -1.6485
   82SOL     MW  328   0.814   0.983   0.549 -0.1571  0.4249  0.0436
   83SOL     OW  329   0.126   0.618   1.376  0.5903 -0.3133 -0.3868
   83SOL    HW1  330   0.164   0.697   1.343 -0.7921  3.6705 -1.7344
   83SOL    HW2  331   0.193   0.587   1.441 -0.2189 -1.1749  3.6342
   83SOL     MW  332   0.140   0.625   1.380  0.3012  0.0986 -0.0341
   84SOL     OW  333   0.076   0.268   1.008  0.1381  0.2519 -0.3305
   84SOL    HW1  334   0.003   0.283   0.945 -0.6728 -0.4006 -0.9829
   84SOL    HW2  335   0.071   0.172   1.024  1.0353  0.2549 -2.4015
   84SOL     MW  336   0.065   0.257   1.002  0.1495  0.1662 -0.6899
   85SOL     OW  337   0.416   0.441   0.753 -0.1790 -0.0237 -0.3195
   85SOL    HW1  338   0.363   0.471   0.688  0.3340  0.5546  1.6071
   85SOL    HW2  339   0.382   0.355   0.771 -2.6487  3.6980 -0.1165
   85SOL     MW  340   0.405   0.434   0.747 -0.4372  0.5436 -0.0385
   86SOL     OW  341   1.195   0.435   1.123  0.2921 -0.0620 -0.3169
   86SOL    HW1  342   1.149   0.510   1.073  1.2921 -1.1583 -0.9173
   86SOL    HW2  343   1.127   0.434   1.191 -1.1994  1.3364 -0.3068
   86SOL     MW  344   1.180   0.445   1.125  0.2272 -0.0222 -0.3948
   87SOL     OW  345   1.216   1.488   1.248  0.3033  0.6756 -0.6632
   87SOL    HW1  346   1.237   1.546   1.171 -0.3657 -0.1578 -1.7002
   87SOL    HW2  347   1.216   1.404   1.210  0.7016  1.1859  0.5417
   87SOL     MW  348   1.219   1.485   1.233  0.2676  0.6330 -0.6410
   88SOL     OW  349   1.318   1.028   1.000 -0.2571 -0.3860  0.3425
   88SOL    HW1  350   1.410   1.020   1.024  0.7538  1.4699 -0.4147
   88SOL    HW2  351   1.281   1.082   1.073  0.3225 -1.3467  1.3827
   88SOL     MW  352   1.325   1.034   1.013 -0.0472 -0.2679  0.3799
   89SOL     OW  353   1.744   0.651   0.338  0.2547  0.5071  0.0924
   89SOL    HW1  354   1.797   0.577   0.370  2.1442  0.5079  4.3179
   89SOL    HW2  355   1.806   0.697   0.274  0.8600 -1.2799 -1.3186
   89SOL     MW  356   1.759   0.647   0.334  0.5839  0.2714  0.4637
   90SOL     OW  357   0.712   1.197   2.772 -0.2361  0.3716  0.1605
   90SOL    HW1  358   0.798   1.159   2.771 -1.2977  1.0412  1.8299
   90SOL    HW2  359   0.716   1.235   2.862  1.8090  0.5587  1.4687
   90SOL     MW  360   0.724   1.197   2.784 -0.1063  0.4847  0.5534
   91SOL     OW  361   2.102   0.663   0.532 -0.0645 -0.3909  0.4725
   91SOL    HW1  362   2.123   0.756   0.498  2.2324  1.4678  1.6050
   91SOL    HW2  363   2.048   0.628   0.464  1.3304  0.0142  1.2048
   91SOL     MW  364   2.098   0.670   0.518  0.4226 -0.0922  0.7186
   92SOL     OW  365   1.572   0.834   0.434 -0.0506  0.7449 -0.2250
   92SOL    HW1  366   1.499   0.786   0.476 -4.0424  1.7662 -2.4026
   92SOL    HW2  367   1.634   0.769   0.394 -2.3237  1.3982  1.2495
   92SOL     MW  368   1.570   0.819   0.434 -0.8772  0.9658 -0.3178
   93SOL     OW  369   1.072   0.271   0.339 -0.1669  0.5866 -0.3831
   93SOL    HW1  370   0.992   0.323   0.358  0.8638  1.8728 -0.9736
   93SOL    HW2  371   1.102   0.293   0.252 -3.4133  1.9790 -0.8071
   93SOL     MW  372   1.066   0.280   0.330 -0.4593  0.9400 -0.5169
   94SOL     OW  373   1.922   1.310   1.661 -0.2515  0.0419 -0.1266
   94SOL    HW1  374   1.927   1.307   1.570 -2.1853 -0.8791  1.3150
   94SOL    HW2  375   1.877   1.235   1.692 -2.7860 -1.2716 -0.3942
   94SOL     MW  376   1.916   1.300   1.653 -0.8411 -0.2530  0.0283
   95SOL     OW  377   0.820   1.528   0.968 -0.6073 -0.0680 -0.3491
   95SOL    HW1  378   0.884   1.471   1.001 -1.8831  0.3492  2.8095
   95SOL    HW2  379   0.759   1.530   1.046 -2.4849  0.7464  1.5030
   95SOL     MW  380   0.820   1.521   0.982 -1.0233  0.0945  0.3120
   96SOL     OW  381   1.242   1.810   1.593  0.0291  0.1034  0.1596
   96SOL    HW1  382   1.159   1.775   1.589 -0.1421 -3.1202  1.2474
   96SOL    HW2  383   1.288   1.761   1.527  1.5839  0.9594  0.4570
   96SOL     MW  384   1.237   1.799   1.584  0.2117 -0.2090  0.3424
   97SOL     OW  385   1.234   1.398   0.818 -0.7780  0.6232  0.0074
   97SOL    HW1  386   1.249   1.451   0.891 -2.3757  1.7747 -0.2439
   97SOL    HW2  387   1.163   1.449   0.780  1.3085 -0.5595 -2.0544
   97SOL     MW  388   1.227   1.412   0.823 -0.7135  0.6191 -0.2978
   98SOL     OW  389   1.519   1.311   1.146 -0.2200 -0.3983 -0.7030
   98SOL    HW1  390   1.565   1.386   1.185  0.5595 -0.6306 -0.4966
   98SOL    HW2  391   1.522   1.321   1.050  0.7082  0.8736 -0.3194
   98SOL     MW  392   1.525   1.322   1.138  0.0053 -0.2612 -0.6252
   99SOL     OW  393   1.527   0.322   1.290 -0.3047 -0.3329  0.3301
   99SOL    HW1  394   1.526   0.393   1.232  2.6482  1.1248  0.1477
   99SOL    HW2  395   1.497   0.371   1.370 -2.3740  0.3154  0.2831
   99SOL     MW  396   1.523   0.338   1.293 -0.1881 -0.0550  0.2999
  100SOL     OW  397   1.045   1.080   1.394 -0.4673  0.1000  1.0116
  100SOL    HW1  398   0.980   1.089   1.465 -0.1682  0.7630  0.1302
  100SOL    HW2  399   1.072   0.988   1.406  0.3581  0.6414  1.8051
  100SOL     MW  400   1.040   1.069   1.405 -0.3189  0.2589  1.0000
  101SOL     OW  401   0.622   1.152   0.290  0.4127 -0.3645 -0.5953
  101SOL    HW1  402   0.594   1.057   0.296 -1.0482 -1.1743 -2.0954
  101SOL    HW2  403   0.588   1.181   0.210 -0.7484  1.1083  0.5187
  101SOL     MW  404   0.614   1.144   0.280  0.0668 -0.2770 -0.6462
  102SOL     OW  405   2.955   0.594   0.995  0.2214  0.0700  0.1175
  102SOL    HW1  406   3.018   0.655   0.961 -3.8270 -1.3210  2.5417
  102SOL    HW2  407   2.985   0.571   1.081 -1.3732 -0.1712 -1.0706
  102SOL     MW  408   2.967   0.599   1.002 -0.5231 -0.1453  0.2806
  103SOL     OW  409   1.623   0.372   1.867  0.2602  0.3890 -0.1172
  103SOL    HW1  410   1.627   0.325   1.777  0.5232 -0.0495 -0.8949
  103SOL    HW2  411   1.712   0.375   1.893 -3.1740 -0.6098 -0.3508
  103SOL     MW  412   1.636   0.366   1.859 -0.1582  0.1994 -0.2506
  104SOL     OW  413   0.151   1.859   1.399  0.8767  0.4818 -0.0741
  104SOL    HW1  414   0.233   1.819   1.383 -1.1313  0.6207  0.7330
  104SOL    HW2  415   0.094   1.785   1.374  1.3863 -4.0019 -1.8979
  104SOL     MW  416   0.154   1.844   1.393  0.6790 -0.0915 -0.2082
  105SOL     OW  417   0.178   1.154   0.559  0.0271  0.4636  0.2131
  105SOL    HW1  418   0.177   1.113   0.474 -0.1951  2.4881  1.8350
  105SOL    HW2  419   0.212   1.248   0.542  2.2269 -0.7301 -3.1272
  105SOL     MW  420   0.183   1.161   0.546  0.2880  0.5732 -0.0136
  106SOL     OW  421   0.854   0.328   0.933  0.2970 -0.0584  0.0014
  106SOL    HW1  422   0.807   0.399   0.892  2.9300  0.1225  0.7687
  106SOL    HW2  423   0.942   0.332   0.900  0.0994 -0.3604  0.9352
  106SOL     MW  424   0.859   0.338   0.923  0.6183 -0.0743  0.2258
  107SOL     OW  425   0.811   2.191   3.028  0.5239 -0.3747 -0.2860
  107SOL    HW1  426   0.766   2.130   2.966 -0.8404  1.5687 -1.8786
  107SOL    HW2  427   0.851   2.131   3.094 -2.1757  0.0397  1.6834
  107SOL     MW  428   0.810   2.175   3.029 -0.0123 -0.0636 -0.2363
  108SOL     OW  429   1.386   1.600   1.429 -0.2543  0.1493 -0.6195
  108SOL    HW1  430   1.313   1.559   1.384 -2.7724  2.8211  0.0203
  108SOL    HW2  431   1.433   1.535   1.483 -7.0062  2.2803  1.5948
  108SOL     MW  432   1.382   1.586   1.430 -1.4774  0.7830 -0.2430
  109SOL     OW  433   1.943   0.759   0.213 -0.4022 -0.0079 -0.4425
  109SOL    HW1  434   1.990   0.769   0.135  0.6630 -1.5333  0.1240
  109SOL    HW2  435   1.979   0.828   0.275 -0.4792  1.6584  0.3512
  109SOL     MW  436   1.954   0.770   0.211 -0.2719  0.0107 -0.2630
  110SOL     OW  437   0.418   1.804   0.700 -0.0726  0.2300  0.3751
  110SOL    HW1  438   0.475   1.733   0.672  1.0164  1.5028  0.0445
  110SOL    HW2  439   0.433   1.867   0.627  2.6205  1.8873 -1.0606
  110SOL     MW  440   0.427   1.803   0.687  0.4264  0.6166  0.1421
  111SOL     OW  441   0.731   0.855   1.510  0.0848 -0.4476  0.2761
  111SOL    HW1  442   0.737   0.806   1.426 -2.5117 -1.0970 -1.1431
  111SOL    HW2  443   0.647   0.834   1.553  0.5651  1.0360 -0.1449
  111SOL     MW  444   0.721   0.846   1.504 -0.1944 -0.3376  0.0333
  112SOL     OW  445   1.315   1.084   1.693  0.0854 -0.7349  1.0397
  112SOL    HW1  446   1.272   1.173   1.677  2.5086 -0.0155 -2.8740
  112SOL    HW2  447   1.241   1.028   1.680  2.4886  0.7546  2.3844
  112SOL     MW  448   1.300   1.088   1.689  0.7222 -0.4434  0.7007
  113SOL     OW  449   1.379   0.076   1.704 -0.5277 -1.3039  0.2403
  113SOL    HW1  450   1.362   0.038   1.795  0.7225  0.4867  0.9478
  113SOL    HW2  451   1.362   0.006   1.638  2.3637  0.3561  0.5345
  113SOL     MW  452   1.375   0.062   1.707  0.0187 -0.8486  0.3724
  114SOL     OW  453   0.464   2.809   1.830  0.6048  0.2800  0.2303
  114SOL    HW1  454   0.463   2.876   1.899  1.1975  1.5820  0.7294
  114SOL    HW2  455   0.423   2.857   1.758 -1.7956  0.8499 -0.2789
  114SOL     MW  456   0.458   2.824   1.830  0.3663  0.5270  0.2290
  115SOL     OW  457   0.460   0.825   1.112 -0.0507 -0.3142  0.3681
  115SOL    HW1  458   0.486   0.738   1.089  1.1639  1.3454  3.5396
  115SOL    HW2  459   0.448   0.829   1.209 -2.0334 -0.5156  1.3430
  115SOL     MW  460   0.462   0.814   1.122 -0.1520 -0.1218  0.9152
  116SOL     OW  461   0.766   1.015   0.909 -0.2899  0.2989 -0.0731
  116SOL    HW1  462   0.795   1.090   0.859 -1.4041 -1.2181  0.6264
  116SOL    HW2  463   0.807   1.015   0.993  1.7916  0.8742  0.7217
  116SOL     MW  464   0.775   1.025   0.914 -0.1623  0.1747  0.1241
  117SOL     OW  465   1.223   1.124   0.756  0.0136 -0.6936 -0.5980
  117SOL    HW1  466   1.268   1.090   0.836  0.8664  1.4908 -4.5020
  117SOL    HW2  467   1.225   1.222   0.768  0.2554 -0.1545 -1.2472
  117SOL     MW  468   1.229   1.132   0.768  0.1580 -0.3342 -1.1987
  118SOL     OW  469   3.059   2.990   1.696 -0.7718  0.6198 -0.6575
  118SOL    HW1  470   3.077   3.027   1.783  0.0703  2.2085  1.0495
  118SOL    HW2  471   2.965   2.978   1.700  1.4101  0.2343 -1.8185
  118SOL     MW  472   3.049   2.993   1.708 -0.3729  0.7785 -0.5854
  119SOL     OW  473   0.549   1.326   1.205 -0.2919  0.0910 -0.0123
  119SOL    HW1  474   0.529   1.328   1.110 -2.3287  0.1645  1.4854
  119SOL    HW2  475   0.472   1.285   1.247 -3.9117 -1.1188 -0.8386
  119SOL     MW  476   0.537   1.321   1.198 -1.0382 -0.0589  0.0763
  120SOL     OW  477   0.215   0.685   0.927 -0.1197  0.1576  0.1095
  120SOL    HW1  478   0.219   0.616   0.997 -2.0817  0.4905 -0.4408
  120SOL    HW2  479   0.194   0.768   0.961 -1.0610  0.2672 -1.4007
  120SOL     MW  480   0.213   0.687   0.941 -0.5027  0.2160 -0.1624
  121SOL     OW  481   1.819   1.035   1.708  0.2548  0.1921 -0.0251
  121SOL    HW1  482   1.723   1.045   1.703 -1.7420  1.4512 -0.4411
  121SOL    HW2  483   1.850   0.951   1.668  1.3990 -0.4586 -0.3773
  121SOL     MW  484   1.810   1.025   1.702  0.1423  0.2724 -0.1264
  122SOL     OW  485   0.094   0.514   0.753 -0.1277  0.0715  0.4872
  122SOL    HW1  486   0.163   0.462   0.711 -1.3468 -1.0580 -0.0327
  122SOL    HW2  487   0.137   0.572   0.814  1.2338 -0.0010  0.5751
  122SOL     MW  488   0.109   0.514   0.756 -0.1089 -0.0871  0.4302
  123SOL     OW  489   1.784   1.024   0.474 -0.0244 -0.2233 -0.3820
  123SOL    HW1  490   1.694   0.983   0.485 -1.8310  2.2882  3.1913
  123SOL    HW2  491   1.819   1.028   0.568  1.4841  0.1460 -0.1935
  123SOL     MW  492   1.776   1.019   0.487 -0.0637  0.1568  0.1143
  124SOL     OW  493   0.658   0.516   0.846 -0.1085  0.0195  0.4489
  124SOL    HW1  494   0.568   0.489   0.806  0.9252 -2.0916  0.5490
  124SOL    HW2  495   0.662   0.610   0.825 -0.7949 -1.5976  2.5968
  124SOL     MW  496   0.647   0.525   0.838 -0.0627 -0.4724  0.7455
  125SOL     OW  497   0.690   1.708   1.669  0.2619  0.6619 -0.0053
  125SOL    HW1  498   0.614   1.654   1.624 -3.3958  1.5568  0.9204
  125SOL    HW2  499   0.645   1.795   1.676  0.7348  1.4570  1.8428
  125SOL     MW  500   0.674   1.713   1.664 -0.1583  0.8849  0.3607
  126SOL     OW  501   2.123   1.612   1.966 -0.5540 -0.0948  0.2656
  126SOL    HW1  502   2.183   1.691   1.954  0.0917  0.1729 -0.6671
  126SOL    HW2  503   2.179   1.546   2.001 -1.0656 -1.5493 -0.0955
  126SOL     MW  504   2.138   1.613   1.969 -0.5363 -0.2513  0.0949
  127SOL     OW  505   0.620   0.731   1.889  0.2499  0.2852 -0.4013
  127SOL    HW1  506   0.690   0.677   1.907 -1.7449  2.3171  1.2692
  127SOL    HW2  507   0.659   0.823   1.897  0.1373  1.4582 -0.8709
  127SOL     MW  508   0.634   0.736   1.893 -0.0282  0.7080 -0.2428
  128SOL     OW  509   1.804   0.751   2.885  0.7747 -0.3789  0.0013
  128SOL    HW1  510   1.791   0.713   2.799 -0.2377 -1.2319  1.6122
  128SOL    HW2  511   1.786   0.846   2.870  1.8321 -0.3292  1.6031
  128SOL     MW  512   1.800   0.758   2.872  0.7806 -0.4849  0.4251
  129SOL     OW  513   1.490   0.976   0.216 -0.1228  0.2971 -0.0015
  129SOL    HW1  514   1.453   0.905   0.169 -0.1653  3.6953  0.0694
  129SOL    HW2  515   1.526   0.925   0.289 -0.3614  0.8271 -0.1116
  129SOL     MW  516   1.490   0.959   0.219 -0.1599  0.8154 -0.0067
  130SOL     OW  517   0.752   1.477   0.372  0.1453 -0.1304 -0.0766
  130SOL    HW1  518   0.792   1.439   0.457  0.8133 -2.1834  1.9837
  130SOL    HW2  519   0.832   1.518   0.333  1.2489  1.6404  1.0913
  130SOL     MW  520   0.768   1.477   0.378  0.3790 -0.1676  0.3493
  131SOL     OW  521   3.055   0.774   0.074  0.3466  0.1878  0.6636
  131SOL    HW1  522   3.079   0.845   0.001 -0.6779  3.0826 -1.8217
  131SOL    HW2  523   3.133   0.751   0.117  0.0755  0.6680 -2.8565
  131SOL     MW  524   3.068   0.781   0.070  0.1756  0.6331 -0.1288
  132SOL     OW  525   2.763   0.153   1.270  0.1655  0.1509 -0.1751
  132SOL    HW1  526   2.780   0.153   1.175  0.9384 -0.8058  0.8806
  132SOL    HW2  527   2.664   0.151   1.276  0.0702  1.1863 -0.7677
  132SOL     MW  528   2.752   0.153   1.259  0.2549  0.1613 -0.1140
  133SOL     OW  529   1.124   0.184   1.697  0.2168 -0.3347  0.0059
  133SOL    HW1  530   1.219   0.157   1.695  1.2962  1.6532  1.6972
  133SOL    HW2  531   1.091   0.178   1.785 -1.3958  1.6265 -1.2896
  133SOL     MW  532   1.132   0.180   1.709  0.1464  0.1864  0.0581
  134SOL     OW  533   1.358   2.505   1.397 -0.6545 -0.0272  0.3315
  134SOL    HW1  534   1.301   2.586   1.375  2.5453 -0.1054 -0.1248
  134SOL    HW2  535   1.413   2.535   1.478  1.7985 -0.6985 -0.0154
  134SOL     MW  536   1.358   2.519   1.405  0.0913 -0.1261  0.2255
  135SOL     OW  537   3.030   0.971   2.971  0.1224  0.2023 -0.1598
  135SOL    HW1  538   3.080   1.047   2.951 -1.8421 -0.4019 -0.3752
  135SOL    HW2  539   2.952   1.015   3.024 -2.0126  0.8229 -0.4679
  135SOL     MW  540   3.027   0.987   2.975 -0.4185  0.2045 -0.2289
  136SOL     OW  541   0.290   2.010   0.853  0.3101 -0.1685  0.0433
  136SOL    HW1  542   0.247   1.924   0.836 -1.0634 -1.1503  3.2735
  136SOL    HW2  543   0.377   1.988   0.824 -1.0473  3.5015  2.0342
  136SOL     MW  544   0.296   1.996   0.847 -0.0502  0.1862  0.7322
  137SOL     OW  545   0.724   2.013   0.549  0.8896  0.0113 -0.5227
  137SOL    HW1  546   0.744   2.019   0.644  3.9041  0.1006  1.5420
  137SOL    HW2  547   0.627   2.010   0.540 -1.2135 -2.0004  0.2574
  137SOL     MW  548   0.714   2.013   0.560  1.0098 -0.2423 -0.1473
  138SOL     OW  549   0.536   0.567   1.082  0.1255  0.0658  0.1656
  138SOL    HW1  550   0.458   0.521   1.060  3.4938 -0.0750 -0.9882
  138SOL    HW2  551   0.600   0.523   1.019  0.4136 -2.0520  0.0589
  138SOL     MW  552   0.534   0.555   1.071  0.6079 -0.2322 -0.0007
  139SOL     OW  553   2.728   0.483   1.408 -0.3863 -0.2388 -0.2360
  139SOL    HW1  554   2.789   0.438   1.345  1.3875 -2.7957  1.5274
  139SOL    HW2  555   2.797   0.544   1.445  1.9305 -1.4714  1.5509
  139SOL     MW  556   2.745   0.485   1.405  0.1534 -0.7388  0.2324
  140SOL     OW  557   0.864   0.347   2.104 -0.0738  0.5303 -0.5965
  140SOL    HW1  558   0.915   0.282   2.056 -1.0809 -0.5686 -0.0580
  140SOL    HW2  559   0.907   0.343   2.187  2.7425  3.4055 -1.3894
  140SOL     MW  560   0.876   0.338   2.109  0.1649  0.7647 -0.6301
  141SOL     OW  561   1.008   0.618   1.739  0.2124 -0.2578 -0.6169
  141SOL    HW1  562   1.067   0.544   1.704  0.9848 -0.8818 -0.5629
  141SOL    HW2  563   1.062   0.695   1.747 -0.6440  2.2450  1.5278
  141SOL     MW  564   1.023   0.618   1.736  0.2013 -0.0099 -0.3268
  142SOL     OW  565   0.939   1.177   0.759  0.7307  0.5280 -0.1151
  142SOL    HW1  566   0.912   1.123   0.681 -1.9764 -1.1357 -0.7692
  142SOL    HW2  567   1.035   1.147   0.771 -1.4309  1.9278  0.5876
  142SOL     MW  568   0.948   1.166   0.750  0.0883  0.4932 -0.1087
  143SOL     OW  569   1.869   0.903   1.113 -0.4900 -0.4730 -0.3819
  143SOL    HW1  570   1.867   0.879   1.021 -0.6683  0.2786  0.1991
  143SOL    HW2  571   1.820   0.834   1.156 -0.5549 -0.6414  0.0794
  143SOL     MW  572   1.862   0.890   1.106 -0.5221 -0.3961 -0.2444
  144SOL     OW  573   0.149   1.167   1.538  0.7406 -0.3047  0.0088
  144SOL    HW1  574   0.233   1.151   1.495  2.4030  0.8893  1.8666
  144SOL    HW2  575   0.176   1.187   1.630 -1.9362  0.1235 -0.4510
  144SOL     MW  576   0.163   1.167   1.545  0.6068 -0.0907  0.1933
  145SOL     OW  577   0.267   0.482   1.084 -0.7817 -0.4714 -0.3910
  145SOL    HW1  578   0.293   0.444   1.164 -0.2052 -1.5597 -1.7678
  145SOL    HW2  579   0.241   0.392   1.046  1.0933  0.1779  1.6980
  145SOL     MW  580   0.267   0.465   1.089 -0.4582 -0.5293 -0.2971
  146SOL     OW  581   0.899   1.886   1.372 -0.1516  0.1705  0.2943
  146SOL    HW1  582   0.934   1.934   1.288 -2.0543 -0.2542 -2.9835
  146SOL    HW2  583   0.801   1.902   1.384 -1.5170 -0.1890  3.0290
  146SOL     MW  584   0.890   1.894   1.362 -0.5828  0.0670  0.2226
  147SOL     OW  585   0.386   0.437   2.883  0.0573 -0.3571  0.7017
  147SOL    HW1  586   0.333   0.457   2.957  1.0618 -2.1775 -2.1923
  147SOL    HW2  587   0.347   0.492   2.815 -0.5261  0.5413  0.5239
  147SOL     MW  588   0.374   0.447   2.884  0.1129 -0.4787  0.2964
  148SOL     OW  589   0.026   0.933   1.322 -0.3191 -0.3092  0.2837
  148SOL    HW1  590   0.118   0.936   1.335  1.0589  0.7326  2.0721
  148SOL    HW2  591  -0.004   0.954   1.416 -1.6778  0.3731  2.1115
  148SOL     MW  592   0.034   0.936   1.336 -0.3166 -0.0817  0.7608
  149SOL     OW  593   1.417   1.153   1.431 -0.1739  0.7484  0.3360
  149SOL    HW1  594   1.386   1.134   1.526  0.6935  0.9672  2.8080
  149SOL    HW2  595   1.486   1.222   1.437 -1.0624  2.6900  1.8094
  149SOL     MW  596   1.422   1.160   1.445 -0.1766  1.0334  0.8566
  150SOL     OW  597   1.817   1.304   0.781  0.0855 -0.9013  0.3017
  150SOL    HW1  598   1.849   1.216   0.783 -0.6681 -0.1082  0.3306
  150SOL    HW2  599   1.888   1.362   0.798  0.4517  0.2176  2.6622
  150SOL     MW  600   1.831   1.300   0.784  0.0344 -0.6490  0.6169
  151SOL     OW  601   1.628   1.811   0.856  0.5904  0.4524  0.1923
  151SOL    HW1  602   1.592   1.805   0.768  0.2397  1.8224  1.7876
  151SOL    HW2  603   1.580   1.753   0.919 -0.6836  2.2666 -1.5064
  151SOL     MW  604   1.617   1.802   0.853  0.3761  0.8725  0.1786
  152SOL     OW  605   0.794   1.358   1.532  0.1843 -0.2866 -0.1209
  152SOL    HW1  606   0.799   1.275   1.590  1.0275 -1.5968 -1.1857
  152SOL    HW2  607   0.882   1.384   1.509 -2.4531  1.0988 -0.5853
  152SOL     MW  608   0.806   1.350   1.536 -0.0524 -0.2767 -0.3226
  153SOL     OW  609   2.671   1.233   0.716 -0.1580 -0.2049  0.5160
  153SOL    HW1  610   2.748   1.184   0.679  2.1462  0.3061  0.9566
  153SOL    HW2  611   2.597   1.160   0.715  0.9080 -0.4008 -0.5754
  153SOL     MW  612   2.671   1.217   0.711  0.2867 -0.1633  0.4301
  154SOL     OW  613   0.329   1.769   1.688  0.1532 -0.3507 -0.0352
  154SOL    HW1  614   0.352   1.737   1.595  1.1146  1.0356 -2.4464
  154SOL    HW2  615   0.365   1.698   1.741 -1.4518  0.1567  1.2232
  154SOL     MW  616   0.337   1.755   1.682  0.0683 -0.1008 -0.1873
  155SOL     OW  617   1.108   0.693   0.312 -0.1988 -0.7034 -0.1168
  155SOL    HW1  618   1.123   0.644   0.395  1.9318 -1.6562  0.4127
  155SOL    HW2  619   1.077   0.784   0.332 -0.1082  0.8790 -2.0403
  155SOL     MW  620   1.106   0.699   0.326  0.0943 -0.6204 -0.3007
  156SOL     OW  621   1.484   3.029   1.035 -0.0048  0.0983 -0.1144
  156SOL    HW1  622   1.558   3.088   1.043 -2.7628 -1.6124  1.2769
  156SOL    HW2  623   1.489   2.964   1.105 -0.4318 -0.1016 -1.3996
  156SOL     MW  624   1.494   3.028   1.046 -0.4250 -0.1538 -0.1004
  157SOL     OW  625   1.359   1.228   0.139  0.2025 -0.1869  0.2885
  157SOL    HW1  626   1.370   1.131   0.162 -1.9369 -2.4484  1.6760
  157SOL    HW2  627   1.442   1.272   0.114 -0.8148 -1.7008  1.0466
  157SOL     MW  628   1.371   1.221   0.139 -0.2140 -0.6850  0.5716
  158SOL     OW  629   0.406   1.674   2.268  0.6884 -0.1199 -0.2229
  158SOL    HW1  630   0.407   1.711   2.181  2.7386  2.2919  1.8146
  158SOL    HW2  631   0.320   1.662   2.306 -1.3568 -0.2067 -1.4635
  158SOL     MW  632   0.395   1.677   2.262  0.6890  0.1868 -0.1177
  159SOL     OW  633   1.320   1.659   0.452  0.0864 -0.0243 -0.0088
  159SOL    HW1  634   1.307   1.586   0.395  0.9621  3.0884  0.8147
  159SOL    HW2  635   1.230   1.665   0.492 -2.0952 -1.6967 -0.4885
  159SOL     MW  636   1.306   1.650   0.450 -0.0859  0.1658  0.0366
  160SOL     OW  637   0.456   1.076   1.551  0.1653  0.3445  0.1348
  160SOL    HW1  638   0.455   0.985   1.575  0.1519  0.8964 -0.5848
  160SOL    HW2  639   0.503   1.124   1.617  2.1019 -1.4089  0.0858
  160SOL     MW  640   0.462   1.070   1.563  0.4190  0.1860  0.0334
  161SOL     OW  641   0.573   2.108   2.709 -0.3035 -0.2366 -0.3514
  161SOL    HW1  642   0.491   2.125   2.755 -0.2858  0.5014 -1.3368
  161SOL    HW2  643   0.560   2.113   2.620 -0.1733  0.4107  2.5822
  161SOL     MW  644   0.561   2.111   2.704 -0.2840 -0.0538 -0.0944
  162SOL     OW  645   1.001   1.682   1.790 -0.4264 -0.2797 -0.1695
  162SOL    HW1  646   0.982   1.775   1.821 -3.0589 -2.2776 -2.1693
  162SOL    HW2  647   0.924   1.641   1.817  2.6562 -1.8057  0.2778
  162SOL     MW  648   0.989   1.689   1.798 -0.3670 -0.7446 -0.3744
  163SOL     OW  649   2.115   0.178   0.961 -0.0705  0.6481 -0.1523
  163SOL    HW1  650   2.088   0.199   0.875  1.9254 -1.2869  2.9261
  163SOL    HW2  651   2.061   0.106   0.994 -0.4176  0.8850  0.4900
  163SOL     MW  652   2.104   0.171   0.954  0.1471  0.4240  0.3386
  164SOL     OW  653   0.243   0.220   0.797  0.0361  0.4722 -0.9471
  164SOL    HW1  654   0.173   0.224   0.865 -3.0997 -0.8798  0.2165
  164SOL    HW2  655   0.248   0.129   0.771  2.5011  1.5909  0.6407
  164SOL     MW  656   0.234   0.209   0.803 -0.0524  0.4414 -0.5840
  165SOL     OW  657   1.367   1.235   0.414  0.0649  0.1235  0.5891
  165SOL    HW1  658   1.335   1.146   0.422 -0.7780  1.6858 -2.1986
  165SOL    HW2  659   1.385   1.240   0.320 -0.7790  2.5531 -0.7686
  165SOL     MW  660   1.365   1.224   0.403 -0.1577  0.6502  0.0421
  166SOL     OW  661   0.484   1.075   0.962 -0.1456 -0.6578 -0.4250
  166SOL    HW1  662   0.466   1.003   1.026 -3.2702 -1.9678  1.1583
  166SOL    HW2  663   0.580   1.070   0.958  0.4388  1.4664 -2.6590
  166SOL     MW  664   0.494   1.065   0.970 -0.4808 -0.5504 -0.5109
  167SOL     OW  665   0.892   1.139   0.258 -0.2979 -0.2424  0.1436
  167SOL    HW1  666   0.802   1.160   0.265 -1.4424  1.5537 -1.0930
  167SOL    HW2  667   0.925   1.202   0.191 -1.1803  2.5798 -0.5205
  167SOL     MW  668   0.884   1.150   0.250 -0.5654  0.3669 -0.1072
  168SOL     OW  669   1.708   1.739   2.880 -0.3348 -0.1749 -0.3455
  168SOL    HW1  670   1.625   1.788   2.874 -0.5192  1.8737  0.7045
  168SOL    HW2  671   1.696   1.662   2.948  0.4476  0.7794  1.5749
  168SOL     MW  672   1.695   1.736   2.888 -0.2559  0.2213  0.0464
  169SOL     OW  673   0.325   0.950   1.336  0.6755 -0.2724  0.0980
  169SOL    HW1  674   0.377   1.000   1.402 -1.6607  0.7411  0.1002
  169SOL    HW2  675   0.300   1.023   1.276 -2.1963  2.4807  2.4809
  169SOL     MW  676   0.328   0.966   1.336 -0.0116  0.2245  0.4127
  170SOL     OW  677   1.044   1.463   1.480  0.8001 -0.3445 -0.2246
  170SOL    HW1  678   0.972   1.533   1.477 -1.9292  2.0211 -1.1116
  170SOL    HW2  679   1.079   1.470   1.395  0.1302  1.1632  2.3352
  170SOL     MW  680   1.039   1.473   1.468  0.3516  0.1666 -0.0039
  171SOL     OW  681   0.618   1.386   0.713 -0.0921  0.3720  0.0582
  171SOL    HW1  682   0.567   1.398   0.797  2.0922  0.6485  1.2640
  171SOL    HW2  683   0.593   1.309   0.666  0.2628  0.2798  1.1739
  171SOL     MW  684   0.608   1.378   0.718  0.2429  0.3963  0.3645
  172SOL     OW  685   0.859   0.322   1.211  0.4227 -0.2576 -0.2102
  172SOL    HW1  686   0.869   0.326   1.110 -0.9872  0.9637 -0.8367
  172SOL    HW2  687   0.769   0.361   1.230  2.5433  0.3011 -0.6612
  172SOL     MW  688   0.848   0.327   1.200  0.5165 -0.0227 -0.3524
  173SOL     OW  689   0.479   1.719   0.349 -0.2320  0.8537  0.7141
  173SOL    HW1  690   0.492   1.627   0.314  3.0777  0.0820  0.7529
  173SOL    HW2  691   0.514   1.700   0.435  1.4067 -0.2227 -0.2841
  173SOL     MW  692   0.485   1.704   0.355  0.4209  0.6099  0.5875
  174SOL     OW  693   2.028   0.939   1.492 -0.8305  0.0922 -0.1703
  174SOL    HW1  694   1.977   0.869   1.537 -1.6641 -4.4712  0.5503
  174SOL    HW2  695   1.962   0.995   1.459  0.5606 -2.3053 -1.2960
  174SOL     MW  696   2.013   0.937   1.493 -0.7569 -0.8262 -0.2237
  175SOL     OW  697   0.472   1.436   0.320  0.7616  0.2583 -0.3233
  175SOL    HW1  698   0.453   1.405   0.234  0.9473  0.9494 -2.2849
  175SOL    HW2  699   0.552   1.400   0.348  1.3854  0.4494  0.1296
  175SOL     MW  700   0.480   1.427   0.313  0.8684  0.3747 -0.5223
  176SOL     OW  701   0.302   1.203   1.240 -0.1328  1.0093 -0.6076
  176SOL    HW1  702   0.254   1.199   1.154 -1.1866 -0.5042 -1.2546
  176SOL    HW2  703   0.299   1.296   1.263  1.8216 -2.4621 -3.2540
  176SOL     MW  704   0.295   1.215   1.232 -0.0140  0.3516 -1.0421
  177SOL     OW  705   0.623   0.455   1.306  0.0445 -0.6868  0.3203
  177SOL    HW1  706   0.571   0.506   1.230 -0.6535 -0.6415 -1.0851
  177SOL    HW2  707   0.625   0.521   1.373 -1.3509  1.6756  0.7247
  177SOL     MW  708   0.616   0.471   1.304 -0.2317 -0.3691  0.1882
  178SOL     OW  709   3.095   0.418   2.950 -0.1688 -0.5285 -0.1184
  178SOL    HW1  710   3.024   0.445   3.019 -0.7168 -1.6894 -0.1399
  178SOL    HW2  711   3.053   0.442   2.868  2.1993  1.1703  2.4262
  178SOL     MW  712   3.080   0.425   2.948  0.0713 -0.4575  0.2145
  179SOL     OW  713   1.636   1.313   1.489  0.4255 -0.3995 -0.1192
  179SOL    HW1  714   1.620   1.374   1.562  0.7469  1.1254  3.0226
  179SOL    HW2  715   1.732   1.297   1.483  0.7975  0.1059 -2.2319
  179SOL     MW  716   1.647   1.319   1.498  0.5169 -0.1316  0.0166
  180SOL     OW  717   3.028   0.277   0.476 -0.5691 -0.8801 -0.2040
  180SOL    HW1  718   2.994   0.268   0.383 -2.0258 -0.3121 -2.4172
  180SOL    HW2  719   3.085   0.351   0.468  0.0173 -0.7408  0.2881
  180SOL     MW  720   3.031   0.285   0.463 -0.6839 -0.7868 -0.4311
  181SOL     OW  721   1.113   1.444   3.065 -0.1901  0.2459  0.0991
  181SOL    HW1  722   1.147   1.484   3.144 -0.6823  2.3320 -1.0643
  181SOL    HW2  723   1.189   1.425   3.005 -0.0696  1.6681  0.9611
  181SOL     MW  724   1.127   1.447   3.067 -0.2391  0.7088  0.0593
  182SOL     OW  725   0.475   0.816   1.622 -0.3759  0.1874 -0.0235
  182SOL    HW1  726   0.386   0.808   1.651 -1.2413  0.7792 -0.5134
  182SOL    HW2  727   0.523   0.774   1.694 -0.4936  0.7167 -0.4708
  182SOL     MW  728   0.470   0.809   1.635 -0.5056  0.3353 -0.1472
  183SOL     OW  729   1.643   1.529   1.299  0.2582 -0.2602 -0.1841
  183SOL    HW1  730   1.571   1.571   1.347 -1.3477  0.8318  2.1261
  183SOL    HW2  731   1.662   1.451   1.349  0.2146 -0.2797 -2.3034
  183SOL     MW  732   1.636   1.524   1.312  0.0406 -0.1187 -0.1589
  184SOL     OW  733   0.858   0.616   1.986  0.3144 -0.1649  0.5483
  184SOL    HW1  734   0.914   0.585   1.911  1.7074  0.1368  0.2913
  184SOL    HW2  735   0.858   0.539   2.036  0.0581  3.1515 -1.0615
  184SOL     MW  736   0.865   0.602   1.983  0.4644  0.3125  0.3020
  185SOL     OW  737   1.118   0.949   1.950 -0.3385 -0.2154  0.5535
  185SOL    HW1  738   1.117   0.878   2.014  0.4373 -2.1530  2.4083
  185SOL    HW2  739   1.171   1.022   1.995 -2.2903  0.4873 -0.0167
  185SOL     MW  740   1.125   0.949   1.965 -0.4936 -0.3783  0.7230
  186SOL     OW  741   0.391   1.671   1.414  0.3840  0.0374  0.0469
  186SOL    HW1  742   0.456   1.716   1.363  0.2860 -0.8336  1.7147
  186SOL    HW2  743   0.336   1.625   1.350 -2.2755  0.7290  1.0501
  186SOL     MW  744   0.392   1.671   1.399  0.0202  0.0138  0.3993
  187SOL     OW  745   1.517   0.682   1.468 -0.2147 -0.0856 -0.3245
  187SOL    HW1  746   1.483   0.698   1.557  0.3258  2.1942 -0.3846
  187SOL    HW2  747   1.438   0.665   1.412 -0.0269 -0.5199 -1.1482
  187SOL     MW  748   1.502   0.682   1.472 -0.1186  0.1579 -0.4411
  188SOL     OW  749   1.905   1.036   0.720 -0.1459  0.1320 -0.1572
  188SOL    HW1  750   1.919   0.949   0.763 -0.2054  1.0103 -2.1195
  188SOL    HW2  751   1.994   1.058   0.695 -1.9815 -0.1793  1.6888
  188SOL     MW  752   1.919   1.027   0.722 -0.3959  0.2068 -0.1726
  189SOL     OW  753   0.660   0.782   0.801 -0.0681  0.1123 -0.0865
  189SOL    HW1  754   0.569   0.795   0.786 -0.2464  0.6293  0.5383
  189SOL    HW2  755   0.702   0.860   0.845 -3.5848  5.2736  0.4229
  189SOL     MW  756   0.653   0.794   0.805 -0.5556  0.8615  0.0632
  190SOL     OW  757   1.869   0.326   1.963  0.0116 -1.0768  0.1599
  190SOL    HW1  758   1.898   0.257   1.900  1.9915  0.6857 -0.0675
  190SOL    HW2  759   1.940   0.397   1.953  0.2665 -0.9287 -1.1466
  190SOL     MW  760   1.882   0.327   1.954  0.3065 -0.8247 -0.0425
  191SOL     OW  761   1.625   0.938   1.397  0.9749  0.2481 -1.5136
  191SOL    HW1  762   1.552   1.006   1.401  0.2215 -0.8545 -0.3163
  191SOL    HW2  763   1.590   0.852   1.425  2.8037 -0.1038 -0.9457
  191SOL     MW  764   1.610   0.936   1.401  1.1168  0.0562 -1.2807
  192SOL     OW  765   0.758   1.972   2.849 -0.0345  0.2268 -1.0271
  192SOL    HW1  766   0.705   2.003   2.773  0.1894  2.4822  0.4653
  192SOL    HW2  767   0.705   1.902   2.886 -0.9861  0.7817 -3.1680
  192SOL     MW  768   0.744   1.967   2.844 -0.1305  0.5976 -1.1126
  193SOL     OW  769   1.055   1.591   0.744  0.1728 -0.2961  0.5655
  193SOL    HW1  770   1.037   1.638   0.820  0.2037  2.3935  0.4883
  193SOL    HW2  771   0.978   1.534   0.741 -1.8722  0.3747  1.3037
  193SOL     MW  772   1.042   1.589   0.753 -0.0929  0.1473  0.6527
  194SOL     OW  773   0.476   1.355   0.938  0.1748  0.6030 -0.2960
  194SOL    HW1  774   0.471   1.259   0.933  1.2657 -2.0162 -0.1609
  194SOL    HW2  775   0.390   1.386   0.915 -0.9584  1.9425  1.2487
  194SOL     MW  776   0.464   1.347   0.935  0.1693  0.4342 -0.0744
  195SOL     OW  777   1.276   1.156   2.990 -0.3954 -0.8192  0.2832
  195SOL    HW1  778   1.303   1.173   3.079  1.0115  0.5657  1.0458
  195SOL    HW2  779   1.198   1.095   2.993 -2.0449 -0.5859 -0.3577
  195SOL     MW  780   1.270   1.150   3.002 -0.4274 -0.6057  0.2992
  196SOL     OW  781   2.175   1.088   0.635  0.2997  0.9771  0.6000
  196SOL    HW1  782   2.202   1.050   0.553  2.3124 -0.8869  1.3840
  196SOL    HW2  783   2.195   1.178   0.622  1.0672 -0.2066  1.1190
  196SOL     MW  784   2.181   1.095   0.622  0.6666  0.5750  0.7719
  197SOL     OW  785   0.571   1.257   2.010  0.3115 -0.0480 -0.4293
  197SOL    HW1  786   0.579   1.161   2.001  1.7574 -1.1277 -2.0917
  197SOL    HW2  787   0.560   1.281   1.921 -0.4926  0.0140  3.4771
  197SOL     MW  788   0.571   1.247   1.997  0.3962 -0.1823 -0.1332
  198SOL     OW  789   2.945   1.403   1.038  0.8700 -0.2258 -0.1080
  198SOL    HW1  790   2.940   1.496   1.009  0.4958  0.6815  0.5052
  198SOL    HW2  791   2.855   1.374   1.038 -3.1750 -0.0435  2.1101
  198SOL     MW  792   2.932   1.412   1.034  0.2869 -0.0820  0.2656
  199SOL     OW  793   0.513   1.282   1.743  0.3127 -0.2828  0.0751
  199SOL    HW1  794   0.414   1.282   1.750  1.2873  2.7385 -1.3201
  199SOL    HW2  795   0.531   1.359   1.687 -2.1347  1.7543 -2.1889
  199SOL     MW  796   0.502   1.292   1.737  0.1184  0.3846 -0.4077
  200SOL     OW  797   1.909   3.092   1.359 -0.7478  0.0862  0.7525
  200SOL    HW1  798   1.914   3.078   1.261  0.0087  0.0202 -1.5544
  200SOL    HW2  799   1.818   3.109   1.384 -0.9145 -1.0226 -0.0676
  200SOL     MW  800   1.898   3.093   1.349 -0.6700 -0.0688  0.3399
  201SOL     OW  801   1.099   0.302   0.821 -0.8120 -0.0528  0.3956
  201SOL    HW1  802   1.085   0.210   0.780  1.6285  3.0056 -0.5138
  201SOL    HW2  803   1.142   0.340   0.740 -0.9113  2.2437 -1.1917
  201SOL     MW  804   1.102   0.295   0.805 -0.5031  0.6537  0.0662
  202SOL     OW  805   1.556   1.615   1.041 -0.1514  0.7604  0.2393
  202SOL    HW1  806   1.572   1.533   0.989 -3.3410  0.4876  0.8857
  202SOL    HW2  807   1.608   1.610   1.119 -1.4321 -0.0959 -0.5763
  202SOL     MW  808   1.565   1.603   1.044 -0.7412  0.6114  0.2170
  203SOL     OW  809   3.082   0.448   1.211  0.8160 -0.2882 -0.4576
  203SOL    HW1  810   3.132   0.393   1.152  3.2650  2.5980  2.8462
  203SOL    HW2  811   3.137   0.515   1.246 -0.1852 -2.8529 -3.3435
  203SOL     MW  812   3.096   0.449   1.208  1.0070 -0.2458 -0.4025
  204SOL     OW  813   1.073   1.757   0.522 -0.3649  0.0407 -0.5312
  204SOL    HW1  814   1.062   1.682   0.588 -0.7940  2.7914  0.4068
  204SOL    HW2  815   0.987   1.767   0.476  0.2369  2.4654 -0.6889
  204SOL     MW  816   1.060   1.748   0.525 -0.3421  0.7236 -0.4283
  205SOL     OW  817   1.391   0.077   1.332 -0.4020  0.6567 -0.3211
  205SOL    HW1  818   1.330   0.088   1.261  1.6649  0.0945 -0.4533
  205SOL    HW2  819   1.436   0.158   1.317 -1.5994  1.4567  1.2496
  205SOL     MW  820   1.389   0.089   1.321 -0.2873  0.6881 -0.1313
  206SOL     OW  821   0.494   3.072   1.376 -0.7118 -0.4250  0.1710
  206SOL    HW1  822   0.432   3.063   1.301  0.8732 -1.2412  0.4681
  206SOL    HW2  823   0.549   2.997   1.377  0.0245  4.6649 -0.3057
  206SOL     MW  824   0.493   3.061   1.366 -0.4055  0.1389  0.1473
  207SOL     OW  825   0.968   1.550   0.248 -1.2408  0.3434  0.4815
  207SOL    HW1  826   0.997   1.640   0.222  0.6785  1.2859  1.4902
  207SOL    HW2  827   1.053   1.506   0.279  1.9731 -0.9757 -0.0067
  207SOL     MW  828   0.983   1.556   0.249 -0.5635  0.2937  0.5502
  208SOL     OW  829   0.658   1.568   1.204  0.5775 -0.4452 -0.4101
  208SOL    HW1  830   0.722   1.573   1.269 -1.2574  1.0137  0.6286
  208SOL    HW2  831   0.612   1.486   1.228 -0.5433 -2.2189 -0.2780
  208SOL     MW  832   0.660   1.558   1.216  0.1875 -0.4868 -0.2556
  209SOL     OW  833   1.474   0.533   2.812  0.1738  0.6550  0.2205
  209SOL    HW1  834   1.504   0.603   2.870 -0.0800  0.2177  0.1591
  209SOL    HW2  835   1.539   0.460   2.836 -0.8903  0.5402 -0.0157
  209SOL     MW  836   1.487   0.532   2.823 -0.0001  0.5821  0.1812
  210SOL     OW  837   1.577   1.391   0.871  0.3179  0.5388 -0.2938
  210SOL    HW1  838   1.658   1.344   0.855  1.0554  0.2106 -0.7490
  210SOL    HW2  839   1.527   1.395   0.792  0.3374 -0.0646  1.6644
  210SOL     MW  840   1.581   1.385   0.858  0.4178  0.4159 -0.0955
  211SOL     OW  841   1.710   0.481   0.935 -0.0445  0.0467 -0.0518
  211SOL    HW1  842   1.704   0.471   0.840  0.7732  1.1945  1.2183
  211SOL    HW2  843   1.809   0.505   0.941 -1.2366  0.0836  2.1378
  211SOL     MW  844   1.723   0.483   0.923 -0.0939  0.2030  0.4047
  212SOL     OW  845   0.236   1.098   0.071  0.1254  0.3563  0.6765
  212SOL    HW1  846   0.220   1.045   0.148 -0.5750 -0.9959 -0.7203
  212SOL    HW2  847   0.327   1.081   0.051  0.4197  0.3858 -2.0131
  212SOL     MW  848   0.246   1.089   0.078  0.0718  0.1818  0.1373
  213SOL     OW  849   0.457   1.675   3.097 -0.6311 -0.1187 -0.0395
  213SOL    HW1  850   0.476   1.754   3.145  0.3289 -1.8036  1.8009
  213SOL    HW2  851   0.463   1.699   3.006 -1.3466  0.9954 -3.2591
  213SOL     MW  852   0.460   1.688   3.091 -0.5988 -0.1940 -0.2215
  214SOL     OW  853   0.652   0.257   2.293  0.0747 -0.2981  0.0066
  214SOL    HW1  854   0.581   0.301   2.251 -0.0248  1.4699  0.0347
  214SOL    HW2  855   0.713   0.256   2.221  2.2134 -1.7663 -2.2491
  214SOL     MW  856   0.651   0.263   2.278  0.3438 -0.2585 -0.2873
  215SOL     OW  857   0.481   0.752   2.624 -0.1914 -0.1428 -0.4916
  215SOL    HW1  858   0.490   0.777   2.530 -1.1260 -0.6531  0.8842
  215SOL    HW2  859   0.419   0.682   2.622 -1.1452  1.9003 -0.3075
  215SOL     MW  860   0.474   0.746   2.611 -0.4405  0.0595 -0.2858
  216SOL     OW  861   3.081   3.076   2.735 -0.0757 -0.2067 -0.2631
  216SOL    HW1  862   3.035   3.041   2.816 -3.2638 -2.9743  1.9065
  216SOL    HW2  863   3.028   3.146   2.691 -1.4463  0.9899 -0.3397
  216SOL     MW  864   3.068   3.081   2.740 -0.6772 -0.4140  0.0130
  217SOL     OW  865   0.970   1.192   3.095 -0.3620  0.3146  0.0415
  217SOL    HW1  866   1.027   1.119   3.063  1.0781 -0.8256  2.1390
  217SOL    HW2  867   1.001   1.274   3.041  0.0962  3.5588 -0.6012
  217SOL     MW  868   0.982   1.193   3.084 -0.1115  0.5922  0.2334
  218SOL     OW  869   0.908   1.346   2.492 -0.5821 -1.2503  0.0207
  218SOL    HW1  870   0.940   1.284   2.554  2.5771 -1.4948  1.4799
  218SOL    HW2  871   0.973   1.415   2.472  3.8680 -1.1924 -1.6194
  218SOL     MW  872   0.921   1.347   2.497  0.4219 -1.2749 -0.0032
  219SOL     OW  873   1.029   0.438   2.482  0.2968  0.3350  0.4393
  219SOL    HW1  874   1.105   0.485   2.451  1.3483 -1.1780  1.8661
  219SOL    HW2  875   0.956   0.503   2.493  0.5073  2.0265 -0.9457
  219SOL     MW  876   1.030   0.453   2.480  0.4633  0.3585  0.4448
  220SOL     OW  877   1.756   0.510   2.216 -0.3045 -0.2770  0.5228
  220SOL    HW1  878   1.688   0.565   2.182  1.4733  0.0806  1.0009
  220SOL    HW2  879   1.761   0.422   2.175  3.3398 -2.5855 -0.9592
  220SOL     MW  880   1.747   0.505   2.206  0.4109 -0.5344  0.3904
  221SOL     OW  881   0.408   1.386   2.900 -0.1137 -0.3495  0.2854
  221SOL    HW1  882   0.425   1.299   2.864  0.5549 -0.7138 -3.2245
  221SOL    HW2  883   0.391   1.448   2.834  0.1476 -0.7240 -2.2421
  221SOL     MW  884   0.408   1.383   2.886  0.0090 -0.4470 -0.5112
  222SOL     OW  885   0.307   0.961   2.634  0.0902  0.0075 -0.0286
  222SOL    HW1  886   0.274   0.962   2.545 -2.8738 -0.2394 -2.4858
  222SOL    HW2  887   0.370   0.892   2.646 -1.4958  2.2526  0.2889
  222SOL     MW  888   0.311   0.952   2.624 -0.5101  0.2711 -0.3109
  223SOL     OW  889  -0.006   2.000   2.608  0.2838  0.5672 -0.3630
  223SOL    HW1  890   0.074   1.956   2.656  1.4597  1.6230 -1.3357
  223SOL    HW2  891   0.037   2.030   2.524 -3.6097 -1.6115  1.0646
  223SOL     MW  892   0.011   1.998   2.603 -0.0748  0.4190 -0.3030
  224SOL     OW  893   1.484   0.830   2.610 -0.4413 -0.1443  0.2772
  224SOL    HW1  894   1.452   0.848   2.695 -0.0701 -1.6051 -1.2383
  224SOL    HW2  895   1.493   0.915   2.574 -1.3817  0.2305  2.5636
  224SOL     MW  896   1.481   0.844   2.616 -0.5164 -0.2876  0.3789
  225SOL     OW  897   2.915   1.489   2.238  0.3656 -0.0493  0.5340
  225SOL    HW1  898   2.976   1.540   2.184  1.4799  1.2061  0.5652
  225SOL    HW2  899   2.885   1.554   2.305 -1.1383 -1.3845 -0.4074
  225SOL     MW  900   2.919   1.504   2.240  0.3142 -0.0598  0.4139
  226SOL     OW  901   0.384   1.487   2.626  0.1585 -0.4739  0.0205
  226SOL    HW1  902   0.470   1.460   2.605 -1.9052 -1.7354  0.3025
  226SOL    HW2  903   0.370   1.573   2.587 -1.1538 -1.5747  1.4902
  226SOL     MW  904   0.393   1.495   2.618 -0.2869 -0.7856  0.2516
  227SOL     OW  905   0.430   1.117   2.854  0.7348 -0.4899 -0.1124
  227SOL    HW1  906   0.519   1.123   2.826 -1.6721 -0.3536 -0.5659
  227SOL    HW2  907   0.380   1.097   2.773 -3.5771 -2.4857 -1.1762
  227SOL     MW  908   0.435   1.115   2.840 -0.1517 -0.7352 -0.3126
  228SOL     OW  909   0.691   0.989   1.974 -0.0171  0.3204 -0.0048
  228SOL    HW1  910   0.766   1.047   1.959 -1.9818 -2.7185  0.1679
  228SOL    HW2  911   0.686   0.966   2.070  0.0173 -2.1888  1.7212
  228SOL     MW  912   0.700   0.994   1.985 -0.2718 -0.4116  0.2457
  229SOL     OW  913   0.220   0.465   3.093 -0.7877 -0.3464 -0.0934
  229SOL    HW1  914   0.139   0.469   3.041  0.2455  1.5219  1.2568
  229SOL    HW2  915   0.203   0.413   3.175 -0.5356  0.1834 -2.3268
  229SOL     MW  916   0.207   0.459   3.097 -0.6181 -0.0300 -0.2099
  230SOL     OW  917   1.776   1.348   2.094  0.1451  0.1348 -0.6797
  230SOL    HW1  918   1.738   1.357   2.182 -1.8862  2.0939 -0.6245
  230SOL    HW2  919   1.794   1.255   2.067  2.5102  1.2922  1.4471
  230SOL     MW  920   1.774   1.337   2.102  0.1891  0.5460 -0.3918
  231SOL     OW  921   2.770   1.270   2.144 -0.7239  0.8873 -0.5921
  231SOL    HW1  922   2.847   1.323   2.146  0.0676 -1.4340 -0.5086
  231SOL    HW2  923   2.697   1.310   2.100  0.0411 -0.6241 -0.1092
  231SOL     MW  924   2.771   1.282   2.138 -0.5185  0.3816 -0.5174
  232SOL     OW  925   2.285   0.906   2.104 -0.4866 -0.5046  0.3731
  232SOL    HW1  926   2.210   0.935   2.052  2.6710 -0.6005 -3.1729
  232SOL    HW2  927   2.242   0.886   2.193 -0.6633 -0.2057 -0.4106
  232SOL     MW  928   2.269   0.907   2.109 -0.0933 -0.4778 -0.1982
  233SOL     OW  929   2.051   0.515   1.947 -0.2445 -0.0163 -0.0962
  233SOL    HW1  930   2.080   0.546   1.855  2.3478 -0.8037  2.0189
  233SOL    HW2  931   2.127   0.478   1.992 -0.3965  1.8091 -0.8757
  233SOL     MW  932   2.065   0.515   1.941  0.0775  0.1206  0.0800
  234SOL     OW  933   0.279   0.990   2.340  0.3284 -0.1311 -0.6833
  234SOL    HW1  934   0.191   1.029   2.333 -0.5958  1.2111  0.3170
  234SOL    HW2  935   0.331   1.059   2.388  1.7558  1.0517 -0.3606
  234SOL     MW  936   0.274   1.004   2.345  0.3948  0.2021 -0.5088
  235SOL     OW  937   1.025   3.050   2.797  0.5418  0.1481  0.2528
  235SOL    HW1  938   1.024   2.970   2.851 -0.3293  0.8353 -1.9092
  235SOL    HW2  939   0.999   3.126   2.851  0.2433 -0.1368  0.3479
  235SOL     MW  940   1.021   3.049   2.811  0.3875  0.2012 -0.0199
  236SOL     OW  941   2.930   0.513   0.035  0.2159 -0.3924 -0.3466
  236SOL    HW1  942   2.841   0.519  -0.012 -1.1385  2.3609 -0.3588
  236SOL    HW2  943   2.955   0.610   0.054 -0.0927  0.7049 -0.3634
  236SOL     MW  944   2.921   0.526   0.032 -0.0035  0.1157 -0.3504
  237SOL     OW  945   1.748   0.876   2.176 -0.2709 -0.3245 -0.0004
  237SOL    HW1  946   1.758   0.957   2.116 -1.6194  0.8984  0.8031
  237SOL    HW2  947   1.791   0.898   2.263 -0.6232  1.8953 -1.1800
  237SOL     MW  948   1.755   0.889   2.180 -0.4953  0.1297 -0.0500
  238SOL     OW  949   1.100   1.739   2.972  0.1777 -0.2574 -0.1932
  238SOL    HW1  950   1.076   1.645   2.979  0.0348  0.4138 -2.8417
  238SOL    HW2  951   1.198   1.741   2.984 -1.2858 -0.5613  0.8370
  238SOL     MW  952   1.110   1.727   2.975 -0.0342 -0.2089 -0.4067
  239SOL     OW  953   1.165   1.399   2.319 -0.6097  0.3215 -0.0358
  239SOL    HW1  954   1.206   1.387   2.405  0.1452  0.3901  1.2532
  239SOL    HW2  955   1.139   1.310   2.309  2.1932 -1.4181  0.1994
  239SOL     MW  956   1.167   1.386   2.329 -0.1403  0.1010  0.1653
  240SOL     OW  957   0.623   0.883   2.281  0.4130  0.7983  0.1802
  240SOL    HW1  958   0.654   0.943   2.346  0.5885 -0.8986 -0.0372
  240SOL    HW2  959   0.703   0.834   2.261  3.5966 -0.5753  0.5588
  240SOL     MW  960   0.638   0.884   2.287  0.8562  0.3932  0.2015
  241SOL     OW  961   0.633   0.349   2.996 -0.6343 -0.2973  0.1670
  241SOL    HW1  962   0.663   0.414   3.066  3.1442 -3.8491  1.7974
  241SOL    HW2  963   0.547   0.379   2.965 -0.3197 -0.8710  1.2159
  241SOL     MW  964   0.626   0.361   3.001 -0.0943 -0.8416  0.5205
  242SOL     OW  965   1.488   1.730   2.331  0.7153  0.6816 -0.5024
  242SOL    HW1  966   1.462   1.818   2.368  1.6504  1.5946  3.0551
  242SOL    HW2  967   1.423   1.707   2.263  1.2651  1.5460 -1.9929
  242SOL     MW  968   1.476   1.739   2.327  0.9112  0.9161 -0.2297
  243SOL     OW  969   0.941   0.218   2.349 -0.1024 -0.1422 -0.1670
  243SOL    HW1  970   1.027   0.206   2.317 -2.2295 -0.6885 -0.0068
  243SOL    HW2  971   0.947   0.288   2.416 -5.7129  0.1200 -4.9877
  243SOL     MW  972   0.953   0.226   2.353 -1.1233 -0.1797 -0.7819
  244SOL     OW  973   0.197   0.707   2.298  0.0005  0.2871  0.3341
  244SOL    HW1  974   0.212   0.800   2.303  0.7058 -3.2607  1.1234
  244SOL    HW2  975   0.280   0.667   2.319  0.2767 -1.3556  2.2633
  244SOL     MW  976   0.210   0.714   2.301  0.1300 -0.3977  0.6928
  245SOL     OW  977   1.234   0.174   2.321 -0.0267  0.7040  0.6085
  245SOL    HW1  978   1.234   0.081   2.294 -0.3983 -1.1722  0.4958
  245SOL    HW2  979   1.240   0.162   2.416 -1.4161  2.1443  1.5390
  245SOL     MW  980   1.235   0.160   2.330 -0.2590  0.6465  0.7164
  246SOL     OW  981   1.205   1.151   2.107  1.3128  0.1262 -0.8346
  246SOL    HW1  982   1.163   1.107   2.184  0.6384  1.7673  1.0741
  246SOL    HW2  983   1.302   1.157   2.131 -0.4469  2.0442  0.5384
  246SOL     MW  984   1.212   1.146   2.120  0.9917  0.5958 -0.4016
  247SOL     OW  985   0.692   0.516   0.103  0.2800  0.2928 -0.3216
  247SOL    HW1  986   0.646   0.598   0.096 -0.4594 -0.1107 -0.3726
  247SOL    HW2  987   0.788   0.536   0.105  0.2537 -0.0743  1.7107
  247SOL     MW  988   0.698   0.530   0.102  0.1790  0.1911 -0.0602
  248SOL     OW  989   0.425   1.197   2.438  0.2579  0.0852  0.5865
  248SOL    HW1  990   0.418   1.234   2.350 -1.9888  1.1971  2.2951
  248SOL    HW2  991   0.417   1.276   2.488 -2.4850 -3.2574 -0.5538
  248SOL     MW  992   0.423   1.212   2.433 -0.4004 -0.2091  0.6615
  249SOL     OW  993   0.185   1.835   2.722  0.2203  0.8030 -0.0773
  249SOL    HW1  994   0.119   1.772   2.687  1.3848  0.2600 -0.7547
  249SOL    HW2  995   0.199   1.810   2.812  2.3183 -0.8761 -0.7751
  249SOL     MW  996   0.178   1.824   2.729  0.6508  0.5098 -0.2587
  250SOL     OW  997   2.165   0.902   2.358  0.0573  0.0033 -0.4133
  250SOL    HW1  998   2.232   0.825   2.378 -0.1241 -0.6803  0.6661
  250SOL    HW2  999   2.204   0.975   2.413  1.4281 -1.9884 -0.5562
  250SOL     MW 1000   2.179   0.901   2.368  0.2142 -0.3497 -0.2898
  251SOL     OW 1001   0.185   0.826   1.991 -0.0626  0.0567  0.2004
  251SOL    HW1 1002   0.173   0.775   2.071 -1.1232  0.2567 -2.6193
  251SOL    HW2 1003   0.180   0.763   1.920 -1.4302 -2.3065  0.1639
  251SOL     MW 1004   0.183   0.811   1.992 -0.3830 -0.2287 -0.1764
  252SOL     OW 1005   1.717   1.013   2.819 -0.3346  0.2393  0.2495
  252SOL    HW1 1006   1.709   1.087   2.872  0.4665 -0.1955 -1.0458
  252SOL    HW2 1007   1.776   1.031   2.746 -1.0529  0.0929  0.7636
  252SOL     MW 1008   1.724   1.025   2.816 -0.3237  0.1626  0.1465
  253SOL     OW 1009   1.149   1.738   2.546  0.0609 -0.1898 -0.0726
  253SOL    HW1 1010   1.115   1.754   2.457 -0.4266  0.9626 -1.4422
  253SOL    HW2 1011   1.064   1.753   2.598  3.2968  2.6763 -0.2284
  253SOL     MW 1012   1.133   1.742   2.541  0.4236  0.3404 -0.2739
  254SOL     OW 1013   1.033   1.030   2.297  0.3257  0.5989 -0.7347
  254SOL    HW1 1014   1.003   0.941   2.272 -0.6357  0.3943 -0.9576
  254SOL    HW2 1015   0.960   1.086   2.276  1.1224 -1.0341  1.1464
  254SOL     MW 1016   1.019   1.025   2.291  0.3040  0.3564 -0.5160
  255SOL     OW 1017   0.797   2.413   2.216  0.3074  0.2534 -0.4084
  255SOL    HW1 1018   0.704   2.391   2.209 -2.5057  2.5721  0.6417
  255SOL    HW2 1019   0.818   2.410   2.311 -1.1387 -0.6961  1.1653
  255SOL     MW 1020   0.788   2.410   2.227 -0.2546  0.4341 -0.0622
  256SOL     OW 1021   1.154   2.821   2.906  0.0876 -0.1493  0.4518
  256SOL    HW1 1022   1.187   2.732   2.916 -1.4972  1.4266 -0.5551
  256SOL    HW2 1023   1.224   2.872   2.852  0.4873  2.0210  1.1479
  256SOL     MW 1024   1.168   2.816   2.900 -0.0688  0.3450  0.4108
  257SOL     OW 1025   0.122   1.852   0.080  0.0083 -0.0373  0.8816
  257SOL    HW1 1026   0.164   1.817   0.160 -2.5934  2.6385 -1.5861
  257SOL    HW2 1027   0.141   1.789   0.009  2.5919  2.9194  1.2556
  257SOL     MW 1028   0.130   1.839   0.081  0.0059  0.7059  0.6054
  258SOL     OW 1029   0.673   1.068   2.450  0.6664  0.2453 -0.5108
  258SOL    HW1 1030   0.693   1.124   2.377 -2.5249  3.3287 -0.5668
  258SOL    HW2 1031   0.588   1.113   2.477 -2.1822  1.9210 -1.2121
  258SOL     MW 1032   0.664   1.081   2.444 -0.1305  0.8732 -0.6107
  259SOL     OW 1033   0.698   0.484   2.424  0.4937  0.5217 -0.4254
  259SOL    HW1 1034   0.611   0.520   2.396 -1.5291 -2.8538 -1.4898
  259SOL    HW2 1035   0.698   0.390   2.387  0.1838  0.8560 -0.9099
  259SOL     MW 1036   0.686   0.476   2.415  0.1859  0.1205 -0.6298
  260SOL     OW 1037   0.582   0.114   1.600 -0.1885 -0.2103  0.1579
  260SOL    HW1 1038   0.559   0.090   1.509 -0.7822 -1.6559 -0.5628
  260SOL    HW2 1039   0.674   0.146   1.591 -0.2314  0.1799  1.1527
  260SOL     MW 1040   0.591   0.115   1.586 -0.2725 -0.3495  0.1941
  261SOL     OW 1041   1.137   0.672   2.121  0.1769  0.6736  0.0062
  261SOL    HW1 1042   1.146   0.645   2.215 -1.3162 -0.4104 -1.0305
  261SOL    HW2 1043   1.189   0.617   2.066 -1.8926 -0.8990  0.7170
  261SOL     MW 1044   1.145   0.661   2.126 -0.2931  0.3231 -0.0368
  262SOL     OW 1045   1.135   0.352   0.076  0.2733 -0.0899 -0.1100
  262SOL    HW1 1046   1.224   0.354   0.052 -1.7658  0.4150 -1.5575
  262SOL    HW2 1047   1.092   0.295   0.008  0.2103 -2.8860  0.7014
  262SOL     MW 1048   1.141   0.345   0.064 -0.0040 -0.3922 -0.1939
  263SOL     OW 1049   0.472   3.027   2.554 -0.4481 -0.0674  0.1934
  263SOL    HW1 1050   0.388   3.078   2.550 -1.2962  2.5441  0.8467
  263SOL    HW2 1051   0.518   3.035   2.470  0.3757 -0.5836  1.4444
  263SOL     MW 1052   0.467   3.035   2.542 -0.4513  0.2091  0.4446
  264SOL     OW 1053   1.542   1.380   1.937 -0.2050 -0.2590 -0.1349
  264SOL    HW1 1054   1.487   1.339   2.006 -1.0940 -0.3705 -0.4746
  264SOL    HW2 1055   1.625   1.385   1.988  0.3720  1.2323  0.0375
  264SOL     MW 1056   1.546   1.375   1.953 -0.2462 -0.0770 -0.1570
  265SOL     OW 1057   0.691   2.712   2.236 -0.0973 -0.9940  0.2629
  265SOL    HW1 1058   0.777   2.683   2.218  1.7369 -2.6010 -0.1270
  265SOL    HW2 1059   0.688   2.718   2.332  0.8662 -2.4811 -2.2772
  265SOL     MW 1060   0.702   2.709   2.247  0.2718 -1.4022 -0.1237
  266SOL     OW 1061   0.890   0.810   2.228 -0.2412 -0.0252 -0.5890
  266SOL    HW1 1062   0.939   0.771   2.153 -3.0349  1.3225 -0.9924
  266SOL    HW2 1063   0.912   0.742   2.299 -0.2276 -1.5374 -0.0812
  266SOL     MW 1064   0.899   0.796   2.228 -0.6080 -0.0469 -0.5752
  267SOL     OW 1065   1.387   1.791   2.702 -0.1301 -0.1007 -0.2153
  267SOL    HW1 1066   1.455   1.739   2.665  1.8064 -0.4957  1.3901
  267SOL    HW2 1067   1.313   1.774   2.645 -0.1692 -0.6910 -3.6508
  267SOL     MW 1068   1.387   1.782   2.690  0.1202 -0.2307 -0.4568
  268SOL     OW 1069   0.200   0.752   1.720  0.5102 -0.1287  0.4596
  268SOL    HW1 1070   0.133   0.798   1.669  1.1941 -1.9515 -2.1574
  268SOL    HW2 1071   0.227   0.676   1.673 -2.9853  3.1002  2.1068
  268SOL     MW 1072   0.195   0.748   1.707  0.1392  0.0568  0.3316
  269SOL     OW 1073   1.426   1.975   2.451 -0.7489 -0.1420 -0.1305
  269SOL    HW1 1074   1.490   1.975   2.517 -0.4556  2.5519  4.0519
  269SOL    HW2 1075   1.351   1.945   2.488  1.4380  1.5479  0.2445
  269SOL     MW 1076   1.424   1.971   2.464 -0.4216  0.4364  0.4708
  270SOL     OW 1077   1.152   0.430   1.596 -0.2195 -0.3563 -0.7261
  270SOL    HW1 1078   1.144   0.338   1.636 -2.2062 -2.3626  1.6701
  270SOL    HW2 1079   1.243   0.439   1.578 -1.6949 -0.5294  0.7855
  270SOL     MW 1080   1.163   0.419   1.599 -0.6763 -0.6439 -0.2105
  271SOL     OW 1081   0.835   3.068   2.390 -0.3349 -0.5037  0.1498
  271SOL    HW1 1082   0.898   3.026   2.451 -2.1398  0.6546  1.3682
  271SOL    HW2 1083   0.861   3.161   2.391 -1.1297  1.0580 -2.3189
  271SOL     MW 1084   0.847   3.074   2.398 -0.6779 -0.1448 -0.0152
  272SOL     OW 1085   1.386   2.939   2.845  0.2283 -0.8697  0.3261
  272SOL    HW1 1086   1.346   3.010   2.797 -0.5848  1.0172  0.7675
  272SOL    HW2 1087   1.409   2.976   2.929  0.9675 -2.0342 -0.8896
  272SOL     MW 1088   1.384   2.953   2.850  0.2186 -0.7744  0.2239
  273SOL     OW 1089   1.431   0.946   2.883  0.0779  0.0723 -0.2708
  273SOL    HW1 1090   1.518   0.971   2.860 -2.2143  3.0381  0.6172
  273SOL    HW2 1091   1.378   1.023   2.906 -0.4678 -0.1196  0.2535
  273SOL     MW 1092   1.435   0.959   2.883 -0.2966  0.4382 -0.0844
  274SOL     OW 1093   1.328   0.753   0.172  0.2073  0.3076  0.6775
  274SOL    HW1 1094   1.380   0.682   0.207 -1.3213 -3.3732 -0.2174
  274SOL    HW2 1095   1.247   0.747   0.227 -2.3752  2.1431  1.3347
  274SOL     MW 1096   1.324   0.743   0.184 -0.3351  0.0641  0.6462
  275SOL     OW 1097   1.697   0.711   1.817  0.2865 -0.2244  0.4747
  275SOL    HW1 1098   1.771   0.747   1.872  0.0775  1.4606 -0.7595
  275SOL    HW2 1099   1.669   0.636   1.873  1.4847 -0.6014 -0.5497
  275SOL     MW 1100   1.703   0.706   1.832  0.4170 -0.0518  0.1767
  276SOL     OW 1101   0.229   1.194   1.804 -0.0064  0.5969 -0.4118
  276SOL    HW1 1102   0.285   1.124   1.829 -2.7848 -0.1459 -2.3626
  276SOL    HW2 1103   0.160   1.190   1.873  0.3265 -1.2263  0.0599
  276SOL     MW 1104   0.227   1.184   1.816 -0.3291  0.2584 -0.6069
  277SOL     OW 1105   1.935   1.363   2.632 -0.1799 -0.3180 -0.3789
  277SOL    HW1 1106   1.994   1.435   2.622 -1.7651 -2.6668  1.2366
  277SOL    HW2 1107   1.984   1.296   2.683  0.4655  2.4999 -0.3537
  277SOL     MW 1108   1.949   1.364   2.637 -0.3039 -0.2561 -0.1624
  278SOL     OW 1109   1.449   0.690   1.730 -0.0086  0.8715  0.1034
  278SOL    HW1 1110   1.429   0.613   1.786 -1.0234  0.3382 -0.6007
  278SOL    HW2 1111   1.545   0.703   1.755  0.0445  0.8350 -1.5282
  278SOL     MW 1112   1.459   0.681   1.740 -0.1355  0.7963 -0.2047
  279SOL     OW 1113   0.571   3.065   2.243  0.1160  0.4797 -0.6035
  279SOL    HW1 1114   0.630   2.994   2.214 -2.7895 -0.8454  1.5264
  279SOL    HW2 1115   0.620   3.145   2.222  0.7076  1.1800  0.7369
  279SOL     MW 1116   0.585   3.066   2.237 -0.1893  0.3972 -0.1457
  280SOL     OW 1117   1.505   1.150   2.212  0.1053  0.0898 -0.0668
  280SOL    HW1 1118   1.524   1.074   2.157  0.0006  1.8580 -1.2321
  280SOL    HW2 1119   1.486   1.111   2.294 -4.6399  0.6245 -0.0274
  280SOL     MW 1120   1.505   1.135   2.216 -0.5346  0.3937 -0.2154
  281SOL     OW 1121   1.274   1.387   2.838  0.3628 -0.4641 -0.8985
  281SOL    HW1 1122   1.369   1.409   2.822 -0.1148  0.2806  0.0189
  281SOL    HW2 1123   1.270   1.301   2.877 -2.0126 -1.5194 -0.6853
  281SOL     MW 1124   1.286   1.379   2.841 -0.0137 -0.5050 -0.7493
  282SOL     OW 1125   1.137   1.317   1.694 -0.0386  0.1250  0.0348
  282SOL    HW1 1126   1.110   1.367   1.613  0.5562  2.5974  0.3084
  282SOL    HW2 1127   1.071   1.252   1.719  1.2966 -1.6154 -1.6389
  282SOL     MW 1128   1.125   1.315   1.686  0.2161  0.2216 -0.1499
  283SOL     OW 1129   0.713   1.259   3.067 -0.4751  0.1909 -0.6242
  283SOL    HW1 1130   0.806   1.239   3.075 -1.5869  1.1092  3.0402
  283SOL    HW2 1131   0.694   1.336   3.114  1.5957 -0.9673 -2.6902
  283SOL     MW 1132   0.723   1.266   3.074 -0.3486  0.1593 -0.4133
  284SOL     OW 1133   0.458   0.627   2.341 -0.3554 -0.1180  0.1415
  284SOL    HW1 1134   0.502   0.695   2.290  0.6268  0.0996  1.7080
  284SOL    HW2 1135   0.455   0.569   2.265  1.9834 -0.9156  2.0281
  284SOL     MW 1136   0.463   0.628   2.324  0.0828 -0.1945  0.5971
  285SOL     OW 1137   0.862   0.976   2.864 -0.1053  0.7003  0.8274
  285SOL    HW1 1138   0.877   0.993   2.773  1.4802  0.5630 -2.7698
  285SOL    HW2 1139   0.805   0.899   2.844 -1.4092 -1.0645 -1.9365
  285SOL     MW 1140   0.856   0.968   2.849 -0.0681  0.4493 -0.0119
  286SOL     OW 1141   1.172   1.448   2.581 -0.1269 -0.1844  0.1813
  286SOL    HW1 1142   1.211   1.415   2.660  0.1803  0.9732 -2.6299
  286SOL    HW2 1143   1.166   1.544   2.589  1.1025  0.6460  1.1771
  286SOL     MW 1144   1.176   1.456   2.592  0.0758  0.0779 -0.0582
  287SOL     OW 1145   1.043   0.944   0.367 -0.2335 -0.1130 -0.7036
  287SOL    HW1 1146   1.117   0.971   0.427 -0.1837 -1.3771 -1.9395
  287SOL    HW2 1147   1.006   1.013   0.308  0.6268 -1.3488  0.2790
  287SOL     MW 1148   1.048   0.956   0.367 -0.1134 -0.4428 -0.7370
  288SOL     OW 1149   1.506   0.643   2.128  0.4093  0.4682 -0.1369
  288SOL    HW1 1150   1.473   0.638   2.223  2.9958  0.8072 -2.5789
  288SOL    HW2 1151   1.525   0.736   2.118  1.4532 -0.1870  0.1262
  288SOL     MW 1152   1.504   0.655   2.139  0.8883  0.4265 -0.4244
  289SOL     OW 1153   0.923   1.083   2.616  0.7406 -0.4098  0.4987
  289SOL    HW1 1154   0.989   1.015   2.602 -1.4309  0.3265  1.7622
  289SOL    HW2 1155   0.854   1.077   2.548 -1.5805 -2.4486 -0.9415
  289SOL     MW 1156   0.923   1.073   2.605  0.1478 -0.5817  0.4754
  290SOL     OW 1157   0.850   0.575   1.522 -0.0312 -0.6133 -0.3748
  290SOL    HW1 1158   0.902   0.523   1.463  0.9699 -0.4082 -2.5150
  290SOL    HW2 1159   0.894   0.593   1.606  0.2238  0.7941 -0.1046
  290SOL     MW 1160   0.863   0.570   1.525  0.1345 -0.4006 -0.6216
  291SOL     OW 1161   0.165   0.344   0.224 -0.1983 -0.1584 -0.2746
  291SOL    HW1 1162   0.256   0.338   0.252  0.6706 -3.5024  0.3037
  291SOL    HW2 1163   0.154   0.263   0.177 -0.7437 -0.5289  0.2687
  291SOL     MW 1164   0.175   0.332   0.221 -0.1556 -0.6485 -0.1266
  292SOL     OW 1165   0.967   0.556   0.103  0.4942 -0.1189  0.2609
  292SOL    HW1 1166   1.006   0.618   0.162 -1.8228  0.1226 -0.2151
  292SOL    HW2 1167   1.036   0.492   0.093  0.1847  1.9129  1.9491
  292SOL     MW 1168   0.981   0.556   0.109  0.1477  0.1810  0.4208
  293SOL     OW 1169   0.243   0.061   2.497  0.3700  0.1995 -0.0292
  293SOL    HW1 1170   0.170   0.016   2.450 -0.5613 -1.2566  2.9891
  293SOL    HW2 1171   0.205   0.124   2.555 -1.8782  0.3959 -0.1850
  293SOL     MW 1172   0.228   0.063   2.498 -0.0495  0.0333  0.3484
  294SOL     OW 1173   1.451   0.626   2.386  0.3739 -0.1607 -0.4609
  294SOL    HW1 1174   1.448   0.697   2.457 -2.1224  1.4844  2.0206
  294SOL    HW2 1175   1.464   0.539   2.432 -0.5630  1.4369 -0.9659
  294SOL     MW 1176   1.452   0.624   2.401 -0.0791  0.2672 -0.2001
  295SOL     OW 1177   0.867   0.669   2.499 -0.0351  0.1023  0.3076
  295SOL    HW1 1178   0.794   0.606   2.480  0.1889 -2.6026 -1.1789
  295SOL    HW2 1179   0.849   0.681   2.596 -0.2682  1.7360  0.0872
  295SOL     MW 1180   0.855   0.663   2.509 -0.0363 -0.0390  0.0824
  296SOL     OW 1181   1.324   0.316   2.079  0.1943 -0.0884 -0.1818
  296SOL    HW1 1182   1.396   0.258   2.052  3.7445 -3.3678  0.3111
  296SOL    HW2 1183   1.290   0.279   2.161 -1.9435 -1.5003  0.6547
  296SOL     MW 1184   1.329   0.303   2.086  0.3807 -0.7074 -0.0064
  297SOL     OW 1185   1.439   0.430   1.515  0.2748  0.5715 -0.0921
  297SOL    HW1 1186   1.496   0.506   1.498 -1.5445 -0.7026 -0.8991
  297SOL    HW2 1187   1.489   0.360   1.560 -2.4454 -1.1805  1.9918
  297SOL     MW 1188   1.453   0.430   1.519 -0.3241  0.1722  0.0764
  298SOL     OW 1189   1.516   0.915   2.062 -0.3778 -0.2694 -0.4418
  298SOL    HW1 1190   1.529   0.956   1.975  0.5485 -2.4696 -0.1673
  298SOL    HW2 1191   1.602   0.923   2.109 -0.7796  0.5515 -1.4768
  298SOL     MW 1192   1.529   0.921   2.057 -0.3086 -0.4514 -0.5421
  299SOL     OW 1193   0.519   1.055   3.104 -0.4244  0.8178  0.0904
  299SOL    HW1 1194   0.593   1.123   3.102  3.4601  2.3810 -3.6486
  299SOL    HW2 1195   0.492   1.059   3.008  1.2890  0.7631  1.2801
  299SOL     MW 1196   0.525   1.064   3.091  0.3142  1.0168 -0.2459
  300SOL     OW 1197   1.246   1.145   2.514  0.5243  0.2378  0.1548
  300SOL    HW1 1198   1.186   1.069   2.488  2.5718  0.2405  0.1016
  300SOL    HW2 1199   1.212   1.205   2.575  0.0089 -0.6363  0.0573
  300SOL     MW 1200   1.234   1.143   2.519  0.7264  0.1228  0.1349
  301SOL     OW 1201   1.354   0.731   0.580  0.0508  0.6288  0.3368
  301SOL    HW1 1202   1.383   0.712   0.670  0.1974  0.2620 -0.1979
  301SOL    HW2 1203   1.276   0.671   0.580 -0.5913 -2.1471  1.0370
  301SOL     MW 1204   1.348   0.720   0.592 -0.0146  0.2142  0.3587
  302SOL     OW 1205   0.126   1.462   1.975 -0.1412  0.1356  0.2026
  302SOL    HW1 1206   0.123   1.413   2.057  4.1549  1.7257  0.2713
  302SOL    HW2 1207   0.074   1.539   1.991  0.0700 -2.2465  2.2579
  302SOL     MW 1208   0.119   1.466   1.988  0.4535  0.0311  0.4829
  303SOL     OW 1209   0.398   1.752   2.562 -0.3645  0.3537 -0.1662
  303SOL    HW1 1210   0.406   1.792   2.477 -0.1516 -1.6026 -0.3579
  303SOL    HW2 1211   0.329   1.797   2.609  3.0712 -0.1835 -0.3996
  303SOL     MW 1212   0.390   1.763   2.557  0.1169  0.0247 -0.2223
  304SOL     OW 1213   0.573   2.089   2.420  1.1112 -0.0007  0.0238
  304SOL    HW1 1214   0.577   2.155   2.352  1.0592 -1.6624 -0.6201
  304SOL    HW2 1215   0.616   2.014   2.386 -0.7778  3.4996 -1.6183
  304SOL     MW 1216   0.579   2.088   2.406  0.8551  0.2419 -0.2778
  305SOL     OW 1217   1.130   0.555   0.527 -0.3617  0.3249  0.5088
  305SOL    HW1 1218   1.044   0.506   0.550 -0.5919 -2.3482  3.2210
  305SOL    HW2 1219   1.194   0.482   0.526  1.5438  0.3043  2.2204
  305SOL     MW 1220   1.127   0.539   0.530 -0.1406 -0.0305  1.0925
  306SOL     OW 1221   1.223   1.441   0.310  0.4626  0.2320  0.2969
  306SOL    HW1 1222   1.250   1.357   0.341  1.0818  0.3162  0.5284
  306SOL    HW2 1223   1.299   1.464   0.249 -3.2320  0.1563 -0.5185
  306SOL     MW 1224   1.236   1.433   0.306  0.0568  0.2331  0.2198
  307SOL     OW 1225   1.314   0.558   1.948  0.0450 -0.6024 -0.1998
  307SOL    HW1 1226   1.308   0.470   1.989 -3.4295  2.5574  0.3813
  307SOL    HW2 1227   1.386   0.607   1.992 -0.8517  0.8541 -1.4157
  307SOL     MW 1228   1.323   0.553   1.959 -0.5317  0.0067 -0.2836
  308SOL     OW 1229   2.120   0.632   2.679  0.0793  0.8228 -0.3464
  308SOL    HW1 1230   2.152   0.553   2.714 -0.0654  0.9842 -2.4923
  308SOL    HW2 1231   2.188   0.682   2.714  0.5017 -0.2021  1.5855
  308SOL     MW 1232   2.133   0.628   2.688  0.1159  0.7089 -0.3746
  309SOL     OW 1233   0.582   0.516   0.435  0.6810  0.0869  0.1684
  309SOL    HW1 1234   0.582   0.426   0.466  0.6249  1.6269  0.5189
  309SOL    HW2 1235   0.586   0.503   0.340 -0.1696  0.6933  0.4025
  309SOL     MW 1236   0.582   0.502   0.427  0.5614  0.3701  0.2456
  310SOL     OW 1237   0.451   0.502   1.920  0.5578 -0.5533  0.4339
  310SOL    HW1 1238   0.518   0.435   1.885 -1.3556 -0.3065 -2.3795
  310SOL    HW2 1239   0.492   0.585   1.896 -1.5283 -1.6232 -0.7593
  310SOL     MW 1240   0.465   0.504   1.912  0.0301 -0.6619 -0.0948
  311SOL     OW 1241   1.922   0.768   1.992  0.2980  0.4024 -0.2235
  311SOL    HW1 1242   1.870   0.794   2.075  1.7988  1.5143  2.8545
  311SOL    HW2 1243   1.960   0.684   2.007 -1.2618  1.9694 -0.2330
  311SOL     MW 1244   1.920   0.760   2.005  0.2902  0.7559  0.1813
  312SOL     OW 1245   1.756   2.524   0.005  0.7965 -0.4418  0.3309
  312SOL    HW1 1246   1.793   2.556   0.083  0.2303  3.6511 -0.9221
  312SOL    HW2 1247   1.666   2.537   0.036  0.9519  0.7322 -1.4818
  312SOL     MW 1248   1.749   2.530   0.019  0.7423  0.2531 -0.0736
  313SOL     OW 1249   0.099   1.232   2.950  0.2744 -0.1967 -0.4620
  313SOL    HW1 1250   0.169   1.212   3.011 -0.3054  1.0543 -1.1585
  313SOL    HW2 1251   0.141   1.240   2.866 -1.1233 -1.5763 -1.2879
  313SOL     MW 1252   0.114   1.230   2.947  0.0135 -0.2136 -0.6629
  314SOL     OW 1253   2.140   3.036   2.964 -0.1585 -0.5870  0.3568
  314SOL    HW1 1254   2.080   3.097   2.908  0.4008 -0.5316  0.8864
  314SOL    HW2 1255   2.185   3.089   3.025 -1.8154  1.6082 -1.4281
  314SOL     MW 1256   2.138   3.051   2.964 -0.3033 -0.2901  0.1912
  315SOL     OW 1257   1.558   1.959   3.026 -0.2289 -0.4695  0.7111
  315SOL    HW1 1258   1.503   1.998   3.089  1.0355 -0.3463 -2.4768
  315SOL    HW2 1259   1.580   2.036   2.964 -0.6876 -0.3684 -2.7307
  315SOL     MW 1260   1.554   1.974   3.026 -0.1226 -0.4399 -0.1636
  316SOL     OW 1261   1.246   0.658   2.714  0.5149 -0.2647  1.2135
  316SOL    HW1 1262   1.331   0.619   2.726  2.1902 -0.8253 -1.0814
  316SOL    HW2 1263   1.195   0.621   2.785  0.1109 -5.0325  3.3969
  316SOL     MW 1264   1.251   0.648   2.725  0.6826 -0.9677  1.1988
  317SOL     OW 1265   0.654   1.427   2.600  0.4269  0.0041  0.7130
  317SOL    HW1 1266   0.669   1.363   2.665  1.8023  2.8880  3.5196
  317SOL    HW2 1267   0.722   1.424   2.543 -0.3126  1.4698  2.4766
  317SOL     MW 1268   0.665   1.418   2.601  0.5108  0.5780  1.3160
  318SOL     OW 1269   1.312   0.337   2.908  0.4950 -0.0908 -0.2393
  318SOL    HW1 1270   1.224   0.387   2.922 -0.5120  1.8658 -0.6347
  318SOL    HW2 1271   1.360   0.406   2.862 -0.1847  2.9261  1.2512
  318SOL     MW 1272   1.307   0.353   2.904  0.2724  0.5654 -0.0948
  319SOL     OW 1273   0.827   0.419   2.778 -0.2377  0.5201  0.5227
  319SOL    HW1 1274   0.802   0.356   2.711 -0.0626 -1.5165 -0.4825
  319SOL    HW2 1275   0.755   0.413   2.842  0.4708  0.8946  1.9462
  319SOL     MW 1276   0.815   0.410   2.777 -0.1211  0.3008  0.5779
  320SOL     OW 1277   1.013   1.337   2.023  0.6625  0.5476  0.1357
  320SOL    HW1 1278   1.075   1.265   2.057  2.5908 -0.7630  1.3420
  320SOL    HW2 1279   1.081   1.395   1.984  0.1051 -0.8084  0.2714
  320SOL     MW 1280   1.030   1.335   2.022  0.8434  0.1958  0.3128
  321SOL     OW 1281   1.104   0.957   3.021 -0.2770  0.0180  0.1383
  321SOL    HW1 1282   1.017   0.946   2.976 -1.0733  0.1460 -1.6813
  321SOL    HW2 1283   1.138   0.868   3.032  1.9671  1.0947 -1.5651
  321SOL     MW 1284   1.097   0.944   3.016 -0.0860  0.1769 -0.3265
  322SOL     OW 1285   1.186   0.819   1.731  0.2751  0.1719  0.0783
  322SOL    HW1 1286   1.264   0.764   1.730  1.1966 -0.4552 -2.8871
  322SOL    HW2 1287   1.176   0.868   1.814  0.5233  0.3927  0.2117
  322SOL     MW 1288   1.195   0.818   1.742  0.4294  0.1183 -0.2954
  323SOL     OW 1289   1.174   1.485   1.888 -0.7262 -0.2305  0.3197
  323SOL    HW1 1290   1.169   1.423   1.822 -0.0296 -0.0535 -0.4565
  323SOL    HW2 1291   1.119   1.562   1.862  0.0279  1.7774 -0.2350
  323SOL     MW 1292   1.166   1.487   1.876 -0.5348  0.0578  0.1441
  324SOL     OW 1293   1.525   1.096   2.497 -0.1657 -0.0996 -0.0235
  324SOL    HW1 1294   1.431   1.109   2.514  2.0357  0.1337 -0.8124
  324SOL    HW2 1295   1.584   1.169   2.524 -1.2681 -3.4359 -0.5453
  324SOL     MW 1296   1.520   1.107   2.503 -0.0207 -0.5090 -0.1965
  325SOL     OW 1297   1.084   0.493   2.885  0.6416  0.3601 -0.2846
  325SOL    HW1 1298   1.031   0.532   2.958  1.8202 -1.1500  0.6120
  325SOL    HW2 1299   1.014   0.482   2.822  0.2698 -1.0167 -0.2796
  325SOL     MW 1300   1.068   0.496   2.886  0.7481 -0.0208 -0.1656
  326SOL     OW 1301   0.421   1.336   2.216  0.5879 -0.4847  0.3919
  326SOL    HW1 1302   0.477   1.304   2.145 -0.2011  0.5789 -0.9778
  326SOL    HW2 1303   0.451   1.425   2.226  0.1536 -1.2494 -0.3366
  326SOL     MW 1304   0.432   1.344   2.208  0.4265 -0.4452  0.1150
  327SOL     OW 1305   1.890   0.867   2.421  0.0685  1.1329  0.0604
  327SOL    HW1 1306   1.859   0.805   2.487 -1.0186  2.4322  0.6993
  327SOL    HW2 1307   1.986   0.874   2.431  1.7502 -0.4936 -0.1140
  327SOL     MW 1308   1.898   0.860   2.431  0.1470  1.0898  0.1217
  328SOL     OW 1309   0.135   1.314   2.209 -0.0963 -0.8791  0.3052
  328SOL    HW1 1310   0.083   1.253   2.155  0.7033  1.2381 -1.7633
  328SOL    HW2 1311   0.222   1.285   2.196 -0.9525  0.7977  0.4943
  328SOL     MW 1312   0.139   1.302   2.200 -0.1038 -0.3785  0.0572
  329SOL     OW 1313   0.134   0.178   1.373  0.3625  0.3511  0.2446
  329SOL    HW1 1314   0.064   0.204   1.425  3.8038 -1.6632 -1.5044
  329SOL    HW2 1315   0.194   0.251   1.370 -1.3484 -1.4965  0.8163
  329SOL     MW 1316   0.133   0.191   1.380  0.5909 -0.1585  0.0892
  330SOL     OW 1317   0.396   2.979   2.055 -0.2947 -0.2573 -0.2200
  330SOL    HW1 1318   0.453   3.010   2.125 -1.4178 -2.7878 -0.7523
  330SOL    HW2 1319   0.323   2.930   2.097  1.5242  2.0208 -1.6731
  330SOL     MW 1320   0.394   2.976   2.070 -0.2029 -0.2906 -0.4820
  331SOL     OW 1321   0.825   1.205   2.275 -0.4290  0.5103  0.4314
  331SOL    HW1 1322   0.804   1.272   2.213  4.8508 -1.7587  1.4260
  331SOL    HW2 1323   0.866   1.255   2.349  1.2037 -0.0473  0.8913
  331SOL     MW 1324   0.827   1.220   2.276  0.4831  0.1373  0.6233
  332SOL     OW 1325   1.361   1.774   2.965 -0.5322  0.2872  0.3507
  332SOL    HW1 1326   1.355   1.788   2.868 -2.2489 -0.1716  1.0446
  332SOL    HW2 1327   1.421   1.842   2.991 -0.0218 -0.1864  1.6048
  332SOL     MW 1328   1.368   1.785   2.956 -0.6914  0.1642  0.6077
  333SOL     OW 1329   1.708   1.496   3.004 -0.1730 -0.8096 -0.0660
  333SOL    HW1 1330   1.800   1.484   3.025  2.0651  1.5571 -1.3953
  333SOL    HW2 1331   1.668   1.468   3.085  0.4479 -0.0352 -0.1064
  333SOL     MW 1332   1.715   1.491   3.017  0.2042 -0.3952 -0.2467
  334SOL     OW 1333   1.241   3.089   2.636  0.2899 -0.1523 -0.1018
  334SOL    HW1 1334   1.163   3.074   2.689  4.9019 -1.8309 -0.6476
  334SOL    HW2 1335   1.263   3.186   2.640  1.7936  0.3717 -1.2311
  334SOL     MW 1336   1.233   3.100   2.643  1.0968 -0.3046 -0.3228
  335SOL     OW 1337   1.261   0.734   2.985  0.0336  0.0104 -0.1122
  335SOL    HW1 1338   1.293   0.742   3.077  0.5309 -1.9768  2.8154
  335SOL    HW2 1339   1.319   0.792   2.939 -0.8793 -0.7816  0.3259
  335SOL     MW 1340   1.273   0.743   2.991 -0.0213 -0.3562  0.3318
  336SOL     OW 1341   0.905   1.143   1.883  0.4119  0.1407  0.3231
  336SOL    HW1 1342   0.915   1.224   1.930 -0.8978 -2.1571  3.4087
  336SOL    HW2 1343   0.962   1.072   1.910 -0.3773 -2.3744  0.9247
  336SOL     MW 1344   0.914   1.145   1.893  0.1350 -0.4943  0.8096
  337SOL     OW 1345   0.528   1.778   2.838 -0.1228 -0.4234 -0.0374
  337SOL    HW1 1346   0.478   1.766   2.758  3.6892  2.9991 -0.1857
  337SOL    HW2 1347   0.609   1.727   2.813  0.6779  1.7503  0.4921
  337SOL     MW 1348   0.532   1.769   2.824  0.4858  0.3150  0.0129
  338SOL     OW 1349   1.095   0.821   2.540  0.6815  0.4892 -0.0221
  338SOL    HW1 1350   1.016   0.774   2.512  1.5814  0.0302  1.9450
  338SOL    HW2 1351   1.139   0.755   2.591 -1.1713 -1.9382  0.8405
  338SOL     MW 1352   1.091   0.806   2.543  0.5558  0.1084  0.3512
  339SOL     OW 1353   1.563   1.080   1.837  0.6830 -0.7248  0.1257
  339SOL    HW1 1354   1.475   1.061   1.797  1.0102  1.4184  0.9230
  339SOL    HW2 1355   1.565   1.172   1.849  3.1422 -0.7160  0.7418
  339SOL     MW 1356   1.551   1.090   1.833  1.0506 -0.4409  0.3122
  340SOL     OW 1357   1.340   1.598   0.103  0.2904 -0.4382  0.6538
  340SOL    HW1 1358   1.324   1.659   0.034 -0.2475  0.3279 -1.2359
  340SOL    HW2 1359   1.422   1.624   0.141 -0.3155  1.1364 -1.8708
  340SOL     MW 1360   1.348   1.610   0.099  0.1395 -0.1294  0.0714
  341SOL     OW 1361   0.158   1.315   2.682 -0.4687 -0.5201  0.6613
  341SOL    HW1 1362   0.231   1.367   2.654 -0.4527  0.5372  0.6967
  341SOL    HW2 1363   0.085   1.306   2.614 -1.5010  1.1933 -2.2246
  341SOL     MW 1364   0.158   1.321   2.669 -0.6028 -0.1545  0.2852
  342SOL     OW 1365   1.411   0.325   0.061  0.2873  0.6628  0.2697
  342SOL    HW1 1366   1.437   0.410   0.104 -1.5065 -0.0146  1.2692
  342SOL    HW2 1367   1.415   0.333  -0.038 -0.3265  1.9442 -1.7925
  342SOL     MW 1368   1.415   0.337   0.053 -0.0304  0.7425  0.1295
  343SOL     OW 1369   0.205   0.286   2.314  0.0395 -0.1019  0.1245
  343SOL    HW1 1370   0.215   0.193   2.346 -0.6471  0.0081 -0.9025
  343SOL    HW2 1371   0.164   0.280   2.223  1.8164 -2.1446 -1.4810
  343SOL     MW 1372   0.201   0.273   2.306  0.1834 -0.3569 -0.2228
  344SOL     OW 1373   1.706   2.106   0.187 -0.0244 -0.5010  0.2414
  344SOL    HW1 1374   1.712   2.155   0.106 -1.0341 -3.1104 -0.8986
  344SOL    HW2 1375   1.654   2.032   0.171 -2.9524 -1.7789  1.5951
  344SOL     MW 1376   1.700   2.103   0.174 -0.5439 -1.0139  0.2696
  345SOL     OW 1377   0.671   1.613   2.347 -0.2165 -0.1358  0.0187
  345SOL    HW1 1378   0.580   1.634   2.316  0.7826  0.8208 -1.2312
  345SOL    HW2 1379   0.727   1.589   2.272 -0.8343 -0.5653 -0.3132
  345SOL     MW 1380   0.666   1.612   2.333 -0.1662 -0.0662 -0.1900
  346SOL     OW 1381   1.674   1.072   0.023 -0.3342  0.5647 -0.1001
  346SOL    HW1 1382   1.764   1.064   0.040 -1.3461 -0.6022  0.0098
  346SOL    HW2 1383   1.633   1.045   0.104  3.5814 -2.2816 -1.7319
  346SOL     MW 1384   1.681   1.068   0.036  0.0489  0.0352 -0.3009
  347SOL     OW 1385   1.195   0.615   2.372  0.1581  0.6642 -0.5830
  347SOL    HW1 1386   1.294   0.602   2.357 -2.1766  1.3957 -0.8373
  347SOL    HW2 1387   1.189   0.694   2.427  0.2706  1.9283  1.0685
  347SOL     MW 1388   1.207   0.624   2.377 -0.1351  0.9275 -0.3986
  348SOL     OW 1389   1.346   2.624   1.898 -0.5321 -0.1870  0.1506
  348SOL    HW1 1390   1.401   2.548   1.910 -1.3763 -1.7242  1.6327
  348SOL    HW2 1391   1.387   2.700   1.934  0.0783 -1.5800 -3.3348
  348SOL     MW 1392   1.359   2.624   1.904 -0.5630 -0.5736 -0.1137
  349SOL     OW 1393   1.381   0.218   2.659  0.0776 -0.0224 -0.2102
  349SOL    HW1 1394   1.341   0.249   2.743 -0.3837 -2.3831  1.3790
  349SOL    HW2 1395   1.454   0.155   2.687 -1.7632 -1.9652  1.7738
  349SOL     MW 1396   1.386   0.214   2.674 -0.2261 -0.5902  0.2613
  350SOL     OW 1397   1.834   0.703   2.619 -0.1765 -0.4241  0.3581
  350SOL    HW1 1398   1.797   0.619   2.584  0.0025 -0.1755 -2.7719
  350SOL    HW2 1399   1.924   0.682   2.642 -0.9817 -3.2957  1.5420
  350SOL     MW 1400   1.841   0.689   2.617 -0.2591 -0.7702  0.1013
  351SOL     OW 1401   0.021   0.940   1.603  0.5292  0.2466  0.3817
  351SOL    HW1 1402  -0.039   0.991   1.656  0.0708  0.8044 -0.0316
  351SOL    HW2 1403   0.080   1.009   1.576  1.9356 -0.3993 -0.5373
  351SOL     MW 1404   0.021   0.956   1.606  0.6543  0.2350  0.2059
  352SOL     OW 1405   0.748   1.627   2.768 -1.0110  0.2832  0.1497
  352SOL    HW1 1406   0.781   1.592   2.856 -0.6814 -1.2234  3.9661
  352SOL    HW2 1407   0.706   1.549   2.724  0.5101 -0.8868 -1.4737
  352SOL     MW 1408   0.747   1.612   2.774 -0.7668 -0.0699  0.4391
  353SOL     OW 1409   3.001   2.412   2.761 -0.4126  0.3534 -0.6268
  353SOL    HW1 1410   3.091   2.382   2.738  1.1714 -0.2738  0.0057
  353SOL    HW2 1411   2.988   2.491   2.707 -0.9467 -0.7703 -2.3490
  353SOL     MW 1412   3.011   2.418   2.751 -0.2741  0.1224 -0.7705
  354SOL     OW 1413   0.408   2.385   0.862  0.1675 -0.2563 -0.1906
  354SOL    HW1 1414   0.434   2.366   0.951 -2.9991  1.2365 -1.7119
  354SOL    HW2 1415   0.325   2.336   0.849  0.5919 -0.3486 -0.8024
  354SOL     MW 1416   0.400   2.376   0.872 -0.1943 -0.0715 -0.4720
  355SOL     OW 1417   0.075   2.215   0.375 -0.0568 -0.6829  0.0869
  355SOL    HW1 1418  -0.019   2.184   0.366 -2.5403 -0.4388 -1.8124
  355SOL    HW2 1419   0.074   2.253   0.460  0.2904 -0.1981 -2.3731
  355SOL     MW 1420   0.063   2.216   0.385 -0.3386 -0.5867 -0.4883
  356SOL     OW 1421   0.817   2.952   1.027  0.6752  0.0467 -0.1468
  356SOL    HW1 1422   0.878   2.936   0.950  0.6862 -0.7291 -2.8991
  356SOL    HW2 1423   0.741   2.895   1.000  1.1372  1.4289  2.3047
  356SOL     MW 1424   0.815   2.943   1.013  0.7376  0.1267 -0.1865
  357SOL     OW 1425   1.782   2.919   0.360 -0.3233 -0.6531 -0.1336
  357SOL    HW1 1426   1.727   2.869   0.418  2.0172 -0.0793 -1.7587
  357SOL    HW2 1427   1.858   2.874   0.333  1.0194 -0.5187  0.8787
  357SOL     MW 1428   1.785   2.907   0.364  0.1627 -0.5597 -0.2144
  358SOL     OW 1429   0.389   0.161   1.015 -0.0682 -0.4230  0.0021
  358SOL    HW1 1430   0.476   0.133   1.001  2.0843  0.7181 -1.6292
  358SOL    HW2 1431   0.358   0.191   0.930 -0.9755  2.1756  2.7623
  358SOL     MW 1432   0.397   0.162   1.002  0.0961  0.0704  0.1510
  359SOL     OW 1433   0.981   2.804   1.834 -0.2127  0.6148 -0.0829
  359SOL    HW1 1434   0.956   2.720   1.882 -2.8702  1.8621  0.3059
  359SOL    HW2 1435   0.994   2.788   1.739 -2.7507  5.2103 -0.8324
  359SOL     MW 1436   0.979   2.791   1.828 -0.8982  1.3857 -0.1305
  360SOL     OW 1437   0.627   2.794   0.950 -0.4540 -0.0571  0.8568
  360SOL    HW1 1438   0.653   2.760   0.863 -1.8238 -0.6787  0.0585
  360SOL    HW2 1439   0.602   2.721   1.012  0.1285 -0.6461 -1.9098
  360SOL     MW 1440   0.627   2.780   0.947 -0.5579 -0.2168  0.3865
  361SOL     OW 1441   0.163   2.750   1.367  0.4130 -0.4484  0.3776
  361SOL    HW1 1442   0.133   2.830   1.402  2.8127 -1.0270 -0.7274
  361SOL    HW2 1443   0.256   2.761   1.378 -2.4737  0.5134  0.0397
  361SOL     MW 1444   0.171   2.762   1.373  0.3488 -0.3978  0.1872
  362SOL     OW 1445   1.500   2.434   0.592  0.0138  0.5923  0.3260
  362SOL    HW1 1446   1.464   2.356   0.633  2.0186  1.1436  0.1986
  362SOL    HW2 1447   1.488   2.496   0.664  1.5963 -1.0490 -1.1179
  362SOL     MW 1448   1.493   2.432   0.607  0.4871  0.4485  0.1187
  363SOL     OW 1449   0.227   3.043   0.752  0.3193 -0.0826 -0.1065
  363SOL    HW1 1450   0.215   2.989   0.831 -0.8365  0.1558  2.9988
  363SOL    HW2 1451   0.147   3.041   0.699 -0.4141  0.6703 -0.1238
  363SOL     MW 1452   0.215   3.035   0.755  0.0700  0.0482  0.3009
  364SOL     OW 1453   0.714   0.178   0.155 -0.5942  0.0454  0.0502
  364SOL    HW1 1454   0.701   0.082   0.176 -2.6796 -2.1820  1.8454
  364SOL    HW2 1455   0.636   0.228   0.168 -1.8885  1.7452  2.2686
  364SOL     MW 1456   0.702   0.172   0.160 -1.0401 -0.0242  0.5797
  365SOL     OW 1457   0.978   1.959   1.135 -0.8765  0.0782 -0.4694
  365SOL    HW1 1458   0.947   2.046   1.120 -0.3475  1.5476 -0.3522
  365SOL    HW2 1459   0.931   1.905   1.077 -0.8853  1.2658  1.2699
  365SOL     MW 1460   0.968   1.963   1.126 -0.8078  0.4287 -0.2245
  366SOL     OW 1461   2.866   2.674   1.007  0.0022 -0.3000 -0.8460
  366SOL    HW1 1462   2.953   2.658   1.057 -1.3714  2.2873 -1.1138
  366SOL    HW2 1463   2.893   2.682   0.917  1.8085  0.2040 -2.5894
  366SOL     MW 1464   2.881   2.673   1.002  0.0593  0.1079 -1.1114
  367SOL     OW 1465   1.282   2.882   0.874 -0.2091 -1.1701 -0.4986
  367SOL    HW1 1466   1.191   2.917   0.867 -3.6133  0.6057  0.0316
  367SOL    HW2 1467   1.282   2.809   0.805 -0.6530  0.8250 -0.3928
  367SOL     MW 1468   1.270   2.877   0.864 -0.7168 -0.6726 -0.4147
  368SOL     OW 1469   1.676   0.448   0.651 -0.6310 -0.0850  0.0577
  368SOL    HW1 1470   1.745   0.392   0.615  2.4799  2.9340  2.3455
  368SOL    HW2 1471   1.702   0.539   0.633  0.8775  2.4887  1.3691
  368SOL     MW 1472   1.689   0.453   0.644 -0.0215  0.6529  0.5326
  369SOL     OW 1473   0.135   2.498   1.739  0.2950 -0.3999 -0.4330
  369SOL    HW1 1474   0.225   2.473   1.762 -0.8922  0.8731 -0.6288
  369SOL    HW2 1475   0.126   2.586   1.765  1.8228 -3.5644 -1.4118
  369SOL     MW 1476   0.146   2.506   1.745  0.3399 -0.6494 -0.5880
  370SOL     OW 1477   0.662   0.105   0.957 -0.1325  0.0472  0.3097
  370SOL    HW1 1478   0.718   0.184   0.947  0.4481  0.1833  1.0657
  370SOL    HW2 1479   0.714   0.033   0.995  0.2749 -0.6009  1.1538
  370SOL     MW 1480   0.676   0.106   0.961 -0.0021 -0.0204  0.5208
  371SOL     OW 1481   1.323   2.976   1.510 -0.5727  0.3106  0.0581
  371SOL    HW1 1482   1.246   2.930   1.490  1.1463 -2.2115 -2.5129
  371SOL    HW2 1483   1.329   3.048   1.439  3.0082  0.7779  0.2116
  371SOL     MW 1484   1.314   2.979   1.498  0.1265  0.0395 -0.2608
  372SOL     OW 1485   0.830   2.253   0.520  0.1089  0.8047 -0.5052
  372SOL    HW1 1486   0.772   2.169   0.531 -1.6474 -0.3791 -1.2654
  372SOL    HW2 1487   0.847   2.280   0.426  0.0589  1.9088  0.5084
  372SOL     MW 1488   0.825   2.246   0.509 -0.1294  0.7942 -0.4718
  373SOL     OW 1489   2.851   3.039   1.418  0.5332 -0.5714  0.6898
  373SOL    HW1 1490   2.923   2.998   1.368  0.0450  0.2608  0.6515
  373SOL    HW2 1491   2.830   3.111   1.357 -0.0097  0.7730  0.3986
  373SOL     MW 1492   2.857   3.043   1.404  0.3971 -0.2842  0.6463
  374SOL     OW 1493   1.493   0.511   0.240  0.0331 -0.1284  0.6210
  374SOL    HW1 1494   1.569   0.558   0.252  1.3517  0.1045 -0.7250
  374SOL    HW2 1495   1.460   0.469   0.320 -1.9344 -1.1161 -1.3984
  374SOL     MW 1496   1.499   0.512   0.252 -0.0525 -0.2280  0.1770
  375SOL     OW 1497   1.156   2.102   2.263  0.0475 -0.0859 -0.0637
  375SOL    HW1 1498   1.165   2.124   2.362 -1.2148 -0.2067  1.7361
  375SOL    HW2 1499   1.128   2.007   2.265 -1.6015  0.6170 -0.7800
  375SOL     MW 1500   1.153   2.092   2.276 -0.3366 -0.0091  0.0792
  376SOL     OW 1501   0.650   2.546   0.134 -0.3657  0.1801 -0.3572
  376SOL    HW1 1502   0.631   2.475   0.192 -1.8431 -1.0005 -0.4577
  376SOL    HW2 1503   0.662   2.492   0.055  0.3715 -0.2158 -0.0180
  376SOL     MW 1504   0.649   2.530   0.132 -0.4633 -0.0279 -0.3257
  377SOL     OW 1505   1.214   2.035   0.905  0.5213 -0.3578 -0.4624
  377SOL    HW1 1506   1.170   1.984   0.834  0.2385  0.6353 -0.6249
  377SOL    HW2 1507   1.233   1.972   0.978 -0.9158 -1.8273  0.8175
  377SOL     MW 1508   1.211   2.020   0.906  0.2944 -0.4207 -0.3150
  378SOL     OW 1509   0.975   2.812   1.528  0.7008  0.0375  0.5210
  378SOL    HW1 1510   0.904   2.742   1.553 -2.6276  0.3654 -0.3686
  378SOL    HW2 1511   0.943   2.835   1.440 -0.2109 -0.1782  0.9981
  378SOL     MW 1512   0.961   2.806   1.520  0.1413  0.0523  0.4666
  379SOL     OW 1513   1.066   1.845   2.290  0.3389  0.1401 -0.2666
  379SOL    HW1 1514   0.971   1.835   2.293 -0.3678  0.1618  0.7198
  379SOL    HW2 1515   1.113   1.775   2.238  1.9057 -1.3770 -2.1650
  379SOL     MW 1516   1.060   1.835   2.284  0.4524 -0.0572 -0.3869
  380SOL     OW 1517   0.895   0.213   1.535 -0.4282 -0.0785 -0.6458
  380SOL    HW1 1518   0.921   0.176   1.446 -0.5583 -0.8105 -0.2030
  380SOL    HW2 1519   0.973   0.191   1.593  2.1819 -3.7100 -0.5220
  380SOL     MW 1520   0.908   0.205   1.531 -0.1010 -0.6542 -0.5710
  381SOL     OW 1521   0.822   2.011   0.799 -0.0315  0.1084 -0.0293
  381SOL    HW1 1522   0.915   2.007   0.765 -0.8753 -0.3632  1.6178
  381SOL    HW2 1523   0.829   2.066   0.880  0.1136 -0.0869 -1.4538
  381SOL     MW 1524   0.836   2.018   0.805 -0.1237  0.0204  0.0000
  382SOL     OW 1525   0.722   0.014   0.707  0.5979 -0.2517  0.0220
  382SOL    HW1 1526   0.695   0.049   0.795  3.7415  0.5904  1.6568
  382SOL    HW2 1527   0.664  -0.059   0.696  0.0915 -1.2547  1.8636
  382SOL     MW 1528   0.711   0.009   0.717  0.9458 -0.2729  0.4807
  383SOL     OW 1529   0.482   0.030   0.375 -0.3118  0.8727  0.3282
  383SOL    HW1 1530   0.557  -0.034   0.361  1.4905 -1.3897 -1.4432
  383SOL    HW2 1531   0.403  -0.021   0.382  2.9536 -0.0639 -0.2088
  383SOL     MW 1532   0.482   0.015   0.374  0.3568  0.4506  0.0236
  384SOL     OW 1533   0.588   2.884   0.576 -0.0611 -0.0034  0.2331
  384SOL    HW1 1534   0.605   2.808   0.630 -0.2536  2.5366 -1.1353
  384SOL    HW2 1535   0.496   2.892   0.569 -0.6239  0.6796  0.5866
  384SOL     MW 1536   0.578   2.875   0.582 -0.1608  0.4218  0.0992
  385SOL     OW 1537   1.318   2.082   1.554 -0.0914  0.1441  0.2472
  385SOL    HW1 1538   1.407   2.075   1.601  0.4104  0.3757  4.0858
  385SOL    HW2 1539   1.275   1.997   1.588  0.1902 -1.0725  0.6047
  385SOL     MW 1540   1.324   2.070   1.565  0.0119  0.0141  0.8008
  386SOL     OW 1541   1.377   0.427   0.914 -0.1858 -0.5507 -0.2354
  386SOL    HW1 1542   1.304   0.368   0.886 -0.7622 -0.2145  0.6227
  386SOL    HW2 1543   1.334   0.466   0.992  0.0204  2.4432 -0.6043
  386SOL     MW 1544   1.362   0.424   0.920 -0.2346 -0.1114 -0.1709
  387SOL     OW 1545   0.852   2.177   1.511 -0.5689  0.4590 -0.2218
  387SOL    HW1 1546   0.897   2.248   1.476  0.5455 -1.8860 -2.3633
  387SOL    HW2 1547   0.906   2.097   1.484 -0.9600 -0.2418 -0.2514
  387SOL     MW 1548   0.865   2.176   1.503 -0.4735  0.0571 -0.5082
  388SOL     OW 1549   1.516   2.800   1.213 -0.4582 -0.1617  0.5609
  388SOL    HW1 1550   1.455   2.744   1.164 -0.7474  0.9967  0.2686
  388SOL    HW2 1551   1.589   2.765   1.164 -2.1949  0.2916  0.1442
  388SOL     MW 1552   1.517   2.788   1.200 -0.7255  0.0510  0.4674
  389SOL     OW 1553   0.372   0.195   3.086  0.1849 -0.0445 -0.0547
  389SOL    HW1 1554   0.417   0.135   3.028  0.9658  3.2838 -2.5430
  389SOL    HW2 1555   0.280   0.184   3.077 -2.4036 -3.3598  1.3125
  389SOL     MW 1556   0.366   0.186   3.077 -0.0536 -0.0428 -0.2026
  390SOL     OW 1557   1.350   0.059   0.596 -0.1891  0.2350  0.3008
  390SOL    HW1 1558   1.441   0.076   0.586 -0.7095 -1.3429  1.7214
  390SOL    HW2 1559   1.330   0.050   0.692  1.5946 -0.3312  0.9358
  390SOL     MW 1560   1.359   0.060   0.607 -0.0224 -0.0479  0.5720
  391SOL     OW 1561   0.297   2.288   1.449  0.2912 -0.5293  0.3345
  391SOL    HW1 1562   0.248   2.217   1.494 -1.3993 -1.0288  1.3350
  391SOL    HW2 1563   0.237   2.362   1.430 -0.2065 -1.1086  0.4176
  391SOL     MW 1564   0.283   2.288   1.452  0.0025 -0.6717  0.4775
  392SOL     OW 1565   1.987   2.165   0.326  0.2570  0.4677  0.2659
  392SOL    HW1 1566   1.929   2.232   0.353 -1.0243  2.5017 -0.8492
  392SOL    HW2 1567   2.049   2.155   0.400  0.3766  1.1029  0.3112
  392SOL     MW 1568   1.988   2.172   0.339  0.1037  0.8199  0.1248
  393SOL     OW 1569   0.254   3.000   2.874  0.2853  0.0449 -1.0911
  393SOL    HW1 1570   0.318   3.062   2.858 -1.5783  0.6387  1.6058
  393SOL    HW2 1571   0.182   3.039   2.829 -0.7846  1.6343  0.1933
  393SOL     MW 1572   0.253   3.014   2.866 -0.1017  0.3329 -0.5658
  394SOL     OW 1573   0.833   1.631   1.408 -0.0520  0.3675  0.0737
  394SOL    HW1 1574   0.768   1.629   1.484  1.9721 -0.3649  1.4940
  394SOL    HW2 1575   0.855   1.730   1.393 -1.4736 -1.1076 -1.2666
  394SOL     MW 1576   0.827   1.644   1.416  0.0275  0.0762  0.0843
  395SOL     OW 1577   0.931   2.877   2.585  0.2063 -0.3640  0.2783
  395SOL    HW1 1578   0.958   2.940   2.648 -1.8693 -0.8296  0.8321
  395SOL    HW2 1579   1.005   2.829   2.540 -1.4990 -0.5008  0.4228
  395SOL     MW 1580   0.944   2.879   2.587 -0.2925 -0.4435  0.3705
  396SOL     OW 1581   0.766   1.866   2.378 -0.0066 -0.0742 -0.0989
  396SOL    HW1 1582   0.815   1.882   2.457 -2.2052 -1.4712  1.5074
  396SOL    HW2 1583   0.740   1.771   2.380  0.2690 -1.7488 -2.9387
  396SOL     MW 1584   0.769   1.855   2.389 -0.2603 -0.4795 -0.2616
  397SOL     OW 1585   1.012   2.336   1.340 -0.1593 -0.3470  0.1031
  397SOL    HW1 1586   1.029   2.405   1.281 -3.5392  1.0009 -0.9667
  397SOL    HW2 1587   1.094   2.341   1.389  1.3243  1.0565  0.6236
  397SOL     MW 1588   1.025   2.346   1.339 -0.4095  0.0160  0.0306
  398SOL     OW 1589   0.660   2.657   0.725  0.3937  0.9064 -0.0380
  398SOL    HW1 1590   0.587   2.601   0.725  1.2379 -2.6386  3.4209
  398SOL    HW2 1591   0.718   2.625   0.664  1.0942  2.4286  0.3567
  398SOL     MW 1592   0.658   2.646   0.717  0.5975  0.6395  0.4705
  399SOL     OW 1593   0.278   2.031   0.364 -0.0023 -0.5320  0.0744
  399SOL    HW1 1594   0.212   2.099   0.356 -1.4260 -1.4116 -0.2925
  399SOL    HW2 1595   0.351   2.060   0.298 -0.7651  1.0637  0.1146
  399SOL     MW 1596   0.279   2.043   0.355 -0.2908 -0.4375  0.0313
  400SOL     OW 1597   0.618   1.847   0.157 -0.1512 -0.1940 -0.4194
  400SOL    HW1 1598   0.569   1.930   0.159  0.4585  0.5533  0.3491
  400SOL    HW2 1599   0.571   1.802   0.228  0.7633 -0.5981 -0.8517
  400SOL     MW 1600   0.605   1.852   0.167  0.0499 -0.1487 -0.3750
  401SOL     OW 1601   0.992   2.060   0.104 -0.5064  0.4661  1.1427
  401SOL    HW1 1602   0.995   1.956   0.109  0.5283  0.0428  0.7418
  401SOL    HW2 1603   1.063   2.095   0.154 -0.1391 -0.8976  0.5234
  401SOL     MW 1604   1.002   2.051   0.111 -0.3214  0.2303  1.0081
  402SOL     OW 1605   0.734   2.877   1.738  0.2457  0.4499 -0.2617
  402SOL    HW1 1606   0.659   2.843   1.781 -1.8347  1.5457 -1.4814
  402SOL    HW2 1607   0.810   2.837   1.786  0.9982 -3.2091 -1.9324
  402SOL     MW 1608   0.734   2.867   1.750  0.0705  0.1117 -0.6431
  403SOL     OW 1609   0.058   0.497   0.423  0.0238  0.0612  0.3738
  403SOL    HW1 1610   0.150   0.515   0.464 -1.6677 -1.1515  3.6198
  403SOL    HW2 1611   0.083   0.450   0.334  3.2051  0.1693  2.3370
  403SOL     MW 1612   0.074   0.494   0.416  0.2204 -0.0845  1.0611
  404SOL     OW 1613   0.984   2.901   0.796  0.4147  0.0402 -0.2006
  404SOL    HW1 1614   1.035   2.831   0.763  0.2685 -0.1726 -0.8559
  404SOL    HW2 1615   1.016   2.985   0.760 -0.9494 -1.3743  1.1774
  404SOL     MW 1616   0.995   2.903   0.787  0.2154 -0.1745 -0.1053
  405SOL     OW 1617   0.480   2.473   1.542 -0.1291 -0.2792  0.1460
  405SOL    HW1 1618   0.452   2.558   1.491  0.5028  2.6891 -1.3590
  405SOL    HW2 1619   0.431   2.401   1.510  3.2479  2.3607  0.7186
  405SOL     MW 1620   0.470   2.475   1.531  0.3999  0.4607  0.0229
  406SOL     OW 1621   0.418   2.377   1.148  0.1788 -0.3464 -0.0877
  406SOL    HW1 1622   0.323   2.384   1.119 -2.1861 -1.2741  2.3284
  406SOL    HW2 1623   0.423   2.291   1.200 -0.1381 -0.0298 -2.3292
  406SOL     MW 1624   0.406   2.366   1.151 -0.1751 -0.4270 -0.0646
  407SOL     OW 1625   0.027   2.691   1.118 -0.0232  0.2884 -0.3799
  407SOL    HW1 1626   0.080   2.708   1.200 -0.2012  3.2494 -3.2554
  407SOL    HW2 1627   0.095   2.696   1.042  2.7849 -1.0220 -1.1090
  407SOL     MW 1628   0.043   2.694   1.119  0.3238  0.5062 -0.8555
  408SOL     OW 1629   2.130   2.131   0.580  0.4252 -0.3538  0.1849
  408SOL    HW1 1630   2.137   2.201   0.650  0.4327  1.0503  4.4739
  408SOL    HW2 1631   2.036   2.094   0.601 -1.7221 -0.5201 -0.1898
  408SOL     MW 1632   2.118   2.135   0.592  0.1429 -0.1905  0.7013
  409SOL     OW 1633   1.323   0.101   0.885 -0.5684 -0.8132  0.1580
  409SOL    HW1 1634   1.402   0.159   0.900  2.1615 -0.7391 -0.8979
  409SOL    HW2 1635   1.360   0.029   0.935 -0.4100 -0.0244  0.3187
  409SOL     MW 1636   1.339   0.099   0.894 -0.1874 -0.6993  0.0399
  410SOL     OW 1637   1.093   2.499   1.061 -0.2055  0.5993  0.0739
  410SOL    HW1 1638   1.020   2.496   0.994 -2.4094  1.6287  0.7910
  410SOL    HW2 1639   1.146   2.415   1.046 -1.5991 -1.4233  0.3292
  410SOL     MW 1640   1.090   2.488   1.050 -0.6801  0.4682  0.2022
  411SOL     OW 1641   1.976   0.109   2.853 -0.0400 -0.1635 -0.6594
  411SOL    HW1 1642   1.909   0.082   2.787 -0.4334 -1.8271  1.3868
  411SOL    HW2 1643   1.920   0.134   2.931 -1.3077  1.4550  2.1669
  411SOL     MW 1644   1.960   0.109   2.854 -0.2592 -0.1695 -0.0165
  412SOL     OW 1645   1.081   2.207   0.566  0.5270 -0.0911  0.0388
  412SOL    HW1 1646   1.113   2.292   0.598  0.7377  1.7882 -0.9454
  412SOL    HW2 1647   0.987   2.214   0.545 -0.7931 -0.9670  1.6914
  412SOL     MW 1648   1.073   2.219   0.567  0.3806  0.0413  0.1270
  413SOL     OW 1649   0.557   2.802   0.161  0.2161  0.0623 -0.0141
  413SOL    HW1 1650   0.599   2.709   0.164  3.7095 -0.3951  2.1594
  413SOL    HW2 1651   0.568   2.835   0.072 -1.9910  1.9627 -0.5954
  413SOL     MW 1652   0.564   2.794   0.150  0.3858  0.2527  0.1959
  414SOL     OW 1653   1.985   3.061   1.083 -0.2012  0.3019 -0.1766
  414SOL    HW1 1654   1.921   3.043   1.010 -2.0600  0.3721  1.8212
  414SOL    HW2 1655   2.054   2.990   1.078 -1.4668 -1.6977  1.1093
  414SOL     MW 1656   1.985   3.049   1.073 -0.6134  0.0473  0.2566
  415SOL     OW 1657   1.712   2.668   1.058  0.0915 -0.3317 -0.4267
  415SOL    HW1 1658   1.683   2.609   1.136  1.1135  0.7719  2.2653
  415SOL    HW2 1659   1.792   2.712   1.077 -3.1996 -0.2491  1.3946
  415SOL     MW 1660   1.718   2.666   1.071 -0.2079 -0.1752  0.1688
  416SOL     OW 1661   0.622   1.925   1.385  0.3400 -0.3874 -0.0321
  416SOL    HW1 1662   0.587   2.015   1.386  0.8471  0.1358 -2.2281
  416SOL    HW2 1663   0.613   1.904   1.288 -0.2151 -0.9930 -0.4058
  416SOL     MW 1664   0.616   1.934   1.372  0.3337 -0.3983 -0.3711
  417SOL     OW 1665   1.022   3.018   1.983  0.1514  0.6602  0.0175
  417SOL    HW1 1666   0.949   3.007   2.048  0.0972 -0.4063  1.5620
  417SOL    HW2 1667   1.012   2.949   1.916 -1.5851 -0.2736  2.3199
  417SOL     MW 1668   1.011   3.007   1.982 -0.0848  0.3963  0.5251
  418SOL     OW 1669   0.705   3.003   0.216 -0.0582 -0.6276  0.2249
  418SOL    HW1 1670   0.784   2.994   0.168 -1.4812  1.5094 -0.8556
  418SOL    HW2 1671   0.660   2.919   0.197 -1.7957  0.3907  0.8770
  418SOL     MW 1672   0.709   2.990   0.207 -0.4752 -0.2113  0.1684
  419SOL     OW 1673   0.453   2.701   1.374 -0.2211 -0.1219 -0.2242
  419SOL    HW1 1674   0.514   2.748   1.428 -1.8504  0.8377 -2.4300
  419SOL    HW2 1675   0.513   2.670   1.306  0.0411 -0.6816 -0.1741
  419SOL     MW 1676   0.469   2.703   1.372 -0.4015 -0.0692 -0.5086
  420SOL     OW 1677   0.862   2.180   1.008 -0.7074 -0.3934 -0.2208
  420SOL    HW1 1678   0.819   2.203   1.091 -0.3799  1.2582 -0.3884
  420SOL    HW2 1679   0.880   2.260   0.957 -2.3796 -0.3042 -0.7714
  420SOL     MW 1680   0.859   2.194   1.012 -0.8848 -0.1637 -0.3155
  421SOL     OW 1681   2.951   0.083   0.014  0.3799  0.0180  0.2022
  421SOL    HW1 1682   2.930   0.038  -0.064 -0.3644  1.8578  2.0715
  421SOL    HW2 1683   2.952   0.012   0.081 -1.8548  0.9351 -2.0293
  421SOL     MW 1684   2.948   0.068   0.012 -0.0132  0.3817  0.1544
  422SOL     OW 1685   0.893   2.452   0.881  0.5640 -0.3385  0.3864
  422SOL    HW1 1686   0.804   2.488   0.886  0.0273  0.8138  0.4207
  422SOL    HW2 1687   0.901   2.452   0.789  0.7539  0.2482  1.9662
  422SOL     MW 1688   0.882   2.457   0.870  0.5182 -0.1091  0.5994
  423SOL     OW 1689   1.588   0.170   0.493 -0.6249  0.3996  0.0389
  423SOL    HW1 1690   1.575   0.148   0.401  1.0152  0.8921  0.0127
  423SOL    HW2 1691   1.586   0.265   0.484  1.2991  0.9449  0.1068
  423SOL     MW 1692   1.586   0.180   0.480 -0.1547  0.5365  0.0444
  424SOL     OW 1693   0.731   2.218   1.250 -0.2634  0.3105 -0.1830
  424SOL    HW1 1694   0.643   2.187   1.253  0.9116 -0.6658  3.7041
  424SOL    HW2 1695   0.763   2.213   1.343 -0.1869  0.0112  0.1178
  424SOL     MW 1696   0.723   2.213   1.263 -0.0983  0.1422  0.3696
  425SOL     OW 1697   1.752   2.864   2.008  0.0737 -0.0296 -0.5050
  425SOL    HW1 1698   1.737   2.869   1.913  0.2987 -1.5319  1.3183
  425SOL    HW2 1699   1.765   2.774   2.037  1.4386 -0.5912 -0.9720
  425SOL     MW 1700   1.752   2.853   2.000  0.2834 -0.3019 -0.3261
  426SOL     OW 1701   0.758   1.623   1.910  0.4936  0.3323  0.2686
  426SOL    HW1 1702   0.722   1.651   1.826 -1.6076  1.0225 -1.6379
  426SOL    HW2 1703   0.745   1.689   1.973 -0.2348 -0.0036 -0.1099
  426SOL     MW 1704   0.751   1.635   1.907  0.1203  0.3790 -0.0329
  427SOL     OW 1705   0.402   1.567   1.862 -0.1323  0.1508  0.3706
  427SOL    HW1 1706   0.474   1.600   1.923 -1.2839  3.0371 -3.1488
  427SOL    HW2 1707   0.350   1.503   1.907  1.0784  0.7122 -0.7422
  427SOL     MW 1708   0.405   1.563   1.876 -0.1245  0.6057 -0.2406
  428SOL     OW 1709   0.574   2.595   1.153 -0.1447 -0.7776 -0.0348
  428SOL    HW1 1710   0.657   2.593   1.208  1.9622  1.8923  0.6589
  428SOL    HW2 1711   0.510   2.529   1.179 -1.7285 -0.1874  1.7713
  428SOL     MW 1712   0.577   2.586   1.164 -0.0757 -0.3474  0.2950
  429SOL     OW 1713   1.336   2.658   1.052 -0.2515 -0.7467 -0.7386
  429SOL    HW1 1714   1.261   2.607   1.083  0.6437  1.9530  0.1840
  429SOL    HW2 1715   1.295   2.741   1.028 -1.1213 -1.8452  1.4378
  429SOL     MW 1716   1.321   2.662   1.053 -0.2481 -0.5355 -0.3297
  430SOL     OW 1717   1.190   2.718   0.687 -0.2818  0.0894 -0.2939
  430SOL    HW1 1718   1.226   2.633   0.710 -1.4367  1.1849 -1.5333
  430SOL    HW2 1719   1.138   2.692   0.611  0.7436  0.0303  0.2255
  430SOL     MW 1720   1.188   2.703   0.680 -0.2989  0.2261 -0.3889
  431SOL     OW 1721   0.302   1.950   1.153 -0.1878  0.3091 -0.0741
  431SOL    HW1 1722   0.384   1.898   1.126  1.0524  1.8795 -1.4890
  431SOL    HW2 1723   0.244   1.941   1.078 -1.1061 -2.0768  1.7989
  431SOL     MW 1724   0.305   1.942   1.140 -0.1454  0.2015 -0.0136
  432SOL     OW 1725   0.054   0.046   1.151  0.0733 -0.0048 -0.2132
  432SOL    HW1 1726   0.082   0.091   1.230  0.0591 -1.0705 -2.4191
  432SOL    HW2 1727  -0.004  -0.021   1.184 -2.0303  2.6193  0.4811
  432SOL     MW 1728   0.050   0.043   1.166 -0.2061  0.2008 -0.4126
  433SOL     OW 1729   0.678   2.863   1.461 -0.2648 -0.0155  0.5974
  433SOL    HW1 1730   0.711   2.881   1.553  1.3483  2.0203 -2.0754
  433SOL    HW2 1731   0.746   2.891   1.401  0.2025 -0.6493 -1.5177
  433SOL     MW 1732   0.691   2.869   1.465  0.0097  0.1695 -0.0343
  434SOL     OW 1733   1.552   2.816   1.468  0.1735  0.1348  0.6976
  434SOL    HW1 1734   1.470   2.863   1.490 -0.5955 -1.5407 -3.3229
  434SOL    HW2 1735   1.547   2.815   1.367  2.8092  1.5713 -0.9785
  434SOL     MW 1736   1.540   2.822   1.458  0.4198  0.1033 -0.0540
  435SOL     OW 1737   2.864   1.796   0.251 -0.1117 -0.3665 -0.1425
  435SOL    HW1 1738   2.937   1.839   0.203 -1.1475  0.5639 -2.1915
  435SOL    HW2 1739   2.836   1.735   0.178 -0.0792  1.6422  1.3717
  435SOL     MW 1740   2.870   1.794   0.235 -0.2441  0.0213 -0.2131
  436SOL     OW 1741   1.410   2.761   0.314 -0.3704 -0.5055 -0.0656
  436SOL    HW1 1742   1.445   2.736   0.398 -3.6302  2.0766 -0.3625
  436SOL    HW2 1743   1.362   2.843   0.337 -1.8459 -2.3596 -0.1900
  436SOL     MW 1744   1.408   2.768   0.328 -0.9951 -0.4095 -0.1212
  437SOL     OW 1745   0.880   2.934   1.295  0.0731 -0.1680  0.8667
  437SOL    HW1 1746   0.913   3.025   1.313  2.1266  0.7452 -0.1658
  437SOL    HW2 1747   0.836   2.956   1.211  3.3091 -0.5428  0.2636
  437SOL     MW 1748   0.879   2.949   1.286  0.7710 -0.0969  0.6509
  438SOL     OW 1749   0.850   2.573   1.994 -0.0026  0.3241  0.2967
  438SOL    HW1 1750   0.867   2.504   2.058 -1.7202  1.0967 -4.2485
  438SOL    HW2 1751   0.769   2.536   1.957  1.1762 -0.3080 -0.2249
  438SOL     MW 1752   0.841   2.559   1.998 -0.0737  0.3426 -0.3718
  439SOL     OW 1753   1.162   2.164   0.312  0.0860  0.5013 -0.0150
  439SOL    HW1 1754   1.124   2.186   0.404 -0.0644 -1.6970 -0.7557
  439SOL    HW2 1755   1.174   2.248   0.269 -1.0313 -0.9413  0.7328
  439SOL     MW 1756   1.158   2.178   0.318 -0.0813  0.0209 -0.0141
  440SOL     OW 1757   1.654   2.988   3.011 -0.5332 -0.7165  0.0350
  440SOL    HW1 1758   1.634   2.957   3.099  1.2156 -0.5109  0.1910
  440SOL    HW2 1759   1.694   2.911   2.975  0.1780 -0.2119 -0.0442
  440SOL     MW 1760   1.657   2.974   3.018 -0.2087 -0.6228  0.0451
  441SOL     OW 1761   0.310   2.568   0.539  0.1041 -0.1405 -0.1578
  441SOL    HW1 1762   0.305   2.564   0.437 -2.0447 -0.8999  0.4367
  441SOL    HW2 1763   0.340   2.662   0.548  0.8406  1.0964 -1.0031
  441SOL     MW 1764   0.313   2.580   0.527 -0.0822 -0.0775 -0.1909
  442SOL     OW 1765   0.032   2.348   0.645 -0.6050  0.0287 -0.1424
  442SOL    HW1 1766   0.014   2.441   0.644 -1.7930 -2.4253 -0.0237
  442SOL    HW2 1767  -0.052   2.313   0.667  1.3326 -1.4716 -2.2447
  442SOL     MW 1768   0.019   2.356   0.648 -0.5061 -0.4930 -0.4041
  443SOL     OW 1769   1.333   1.690   1.830 -0.0395 -0.0637 -0.2468
  443SOL    HW1 1770   1.308   1.733   1.745 -4.7725  0.3454 -3.4056
  443SOL    HW2 1771   1.275   1.612   1.832 -1.4376  2.2865 -0.2350
  443SOL     MW 1772   1.322   1.686   1.819 -0.8485  0.3003 -0.6620
  444SOL     OW 1773   0.827   2.569   1.589 -0.0759 -0.0726  0.5589
  444SOL    HW1 1774   0.894   2.530   1.640 -2.7997  0.2040 -0.7224
  444SOL    HW2 1775   0.748   2.546   1.635  1.4257 -1.1036 -3.0324
  444SOL     MW 1776   0.826   2.561   1.602 -0.2371 -0.1721 -0.0840
  445SOL     OW 1777   0.976   0.094   1.293 -0.1140  0.0147 -0.3429
  445SOL    HW1 1778   0.930   0.172   1.262  1.4702 -2.0238  1.1984
  445SOL    HW2 1779   1.057   0.103   1.237  4.2248  1.1996  1.4418
  445SOL     MW 1780   0.981   0.105   1.281  0.6675 -0.0979  0.0959
  446SOL     OW 1781   2.785   2.943   1.020  0.1259 -0.1004 -0.1745
  446SOL    HW1 1782   2.712   2.957   0.959 -1.1005  0.4967 -0.9251
  446SOL    HW2 1783   2.819   2.849   1.009 -1.5674 -0.7793  1.4046
  446SOL     MW 1784   2.780   2.933   1.011 -0.2593 -0.1112 -0.0652
  447SOL     OW 1785   3.016   2.049   1.738  0.0631 -0.1002  0.9931
  447SOL    HW1 1786   3.092   2.002   1.774 -0.5250  2.1305  0.6075
  447SOL    HW2 1787   2.972   2.007   1.661  0.1314 -0.6583  1.2452
  447SOL     MW 1788   3.020   2.037   1.732 -0.0055  0.1204  0.9755
  448SOL     OW 1789   1.686   2.324   1.660  0.6253 -0.2021 -0.1286
  448SOL    HW1 1790   1.621   2.250   1.683  0.3220  1.7552  1.5966
  448SOL    HW2 1791   1.634   2.401   1.654 -0.8916  0.0260 -1.1202
  448SOL     MW 1792   1.671   2.325   1.663  0.3851  0.0863 -0.0318
  449SOL     OW 1793   0.843   2.909   0.426 -0.2884  0.6280  0.4338
  449SOL    HW1 1794   0.791   2.923   0.347  1.0858  0.6000 -1.3103
  449SOL    HW2 1795   0.778   2.878   0.490  0.9062 -1.3595 -1.9585
  449SOL     MW 1796   0.828   2.907   0.424  0.0506  0.3621 -0.1119
  450SOL     OW 1797   1.225   2.415   0.680  0.1069 -0.2834  1.1731
  450SOL    HW1 1798   1.262   2.382   0.757 -1.4844 -1.4728 -2.2186
  450SOL    HW2 1799   1.294   2.465   0.637 -0.9446  0.3400  0.0030
  450SOL     MW 1800   1.239   2.417   0.685 -0.2418 -0.3581  0.5712
  451SOL     OW 1801   0.609   1.957   1.680 -0.3378  0.2708 -0.0303
  451SOL    HW1 1802   0.695   2.005   1.683  1.6277  2.9649 -0.3826
  451SOL    HW2 1803   0.585   1.969   1.588 -0.3564 -0.0194  1.0262
  451SOL     MW 1804   0.617   1.965   1.668 -0.0809  0.5880  0.0626
  452SOL     OW 1805   0.292   2.724   0.123 -0.3448  0.1784  0.7727
  452SOL    HW1 1806   0.384   2.757   0.141  2.5287  1.2969  0.0760
  452SOL    HW2 1807   0.290   2.698   0.031 -0.9212  0.3050  2.8117
  452SOL     MW 1808   0.304   2.725   0.113 -0.0417  0.3427  0.9498
  453SOL     OW 1809   0.371   2.976   1.636  0.1562  0.2054  0.4708
  453SOL    HW1 1810   0.437   3.020   1.589 -2.3831  0.5742 -0.4509
  453SOL    HW2 1811   0.284   2.982   1.596  1.8136 -3.3316 -0.9329
  453SOL     MW 1812   0.369   2.983   1.625  0.0399 -0.2126  0.1640
  454SOL     OW 1813   1.072   2.796   1.134  0.4300  0.3725 -0.2995
  454SOL    HW1 1814   1.061   2.707   1.094  0.5837 -1.9331 -2.2849
  454SOL    HW2 1815   0.986   2.833   1.156 -0.1506 -1.2611 -4.2750
  454SOL     MW 1816   1.059   2.789   1.131  0.3737 -0.1473 -1.0860
  455SOL     OW 1817   1.599   2.937   0.169 -0.3220  0.2566  0.0246
  455SOL    HW1 1818   1.664   2.948   0.234 -0.1736  1.1737  1.9241
  455SOL    HW2 1819   1.527   2.888   0.209  0.7812 -1.7081  1.9127
  455SOL     MW 1820   1.598   2.932   0.183 -0.1568  0.1184  0.5243
  456SOL     OW 1821   2.957   0.307   1.407  0.5086  0.8036 -0.5723
  456SOL    HW1 1822   2.892   0.272   1.352 -0.1164  1.5171  0.6346
  456SOL    HW2 1823   3.016   0.358   1.342 -0.8691 -0.9169  2.3030
  456SOL     MW 1824   2.956   0.310   1.391  0.2444  0.6707 -0.0337
  457SOL     OW 1825   0.867   1.552   2.999 -0.5990 -0.0881 -0.0993
  457SOL    HW1 1826   0.798   1.537   3.060 -1.2077  1.5549  0.0662
  457SOL    HW2 1827   0.946   1.513   3.036 -2.4796  0.0070 -2.2417
  457SOL     MW 1828   0.868   1.545   3.012 -0.9275  0.1412 -0.3601
  458SOL     OW 1829   1.442   1.413   0.632 -0.0058 -0.3323 -0.1801
  458SOL    HW1 1830   1.371   1.423   0.693 -0.9428  2.1927 -1.2746
  458SOL    HW2 1831   1.421   1.330   0.581 -1.4900 -0.2932 -1.8775
  458SOL     MW 1832   1.430   1.403   0.633 -0.3252  0.0060 -0.5485
  459SOL     OW 1833   1.551   0.121   0.220 -0.1823  0.0039 -0.1477
  459SOL    HW1 1834   1.555   0.045   0.164 -0.8512  0.4371 -0.7651
  459SOL    HW2 1835   1.505   0.186   0.163 -0.8818  1.1848 -0.8099
  459SOL     MW 1836   1.546   0.120   0.205 -0.3629  0.2169 -0.3165
  460SOL     OW 1837   1.696   2.167   0.575 -0.1402 -0.1152 -0.1702
  460SOL    HW1 1838   1.614   2.156   0.610 -2.8800  2.5338  1.0944
  460SOL    HW2 1839   1.740   2.078   0.578  0.7998  1.4733 -0.8160
  460SOL     MW 1840   1.691   2.154   0.580 -0.3777  0.4439 -0.0885
  461SOL     OW 1841   0.494   2.343   0.608  0.7277  0.7830 -0.1643
  461SOL    HW1 1842   0.417   2.386   0.583  2.8994 -0.1029  1.2395
  461SOL    HW2 1843   0.481   2.345   0.701  0.7084  0.6766 -0.4554
  461SOL     MW 1844   0.482   2.349   0.617  1.0117  0.6521 -0.0175
  462SOL     OW 1845   0.367   0.313   1.298 -0.6310  0.3965 -0.2244
  462SOL    HW1 1846   0.381   0.235   1.240  0.7041  0.1254  0.1483
  462SOL    HW2 1847   0.430   0.308   1.364 -3.0881  0.3653 -1.6564
  462SOL     MW 1848   0.377   0.302   1.299 -0.7790  0.3566 -0.3641
  463SOL     OW 1849   1.015   0.051   0.705 -0.1260 -0.0021 -0.2805
  463SOL    HW1 1850   1.026   0.038   0.609 -4.0917 -0.8179 -0.0662
  463SOL    HW2 1851   0.917   0.047   0.714  1.3617 -2.0215 -0.2892
  463SOL     MW 1852   1.003   0.048   0.693 -0.4529 -0.3761 -0.2534
  464SOL     OW 1853   0.800   2.938   2.158 -0.8477 -0.3400 -0.8110
  464SOL    HW1 1854   0.761   2.852   2.186 -1.3354  2.1213  1.5902
  464SOL    HW2 1855   0.823   2.997   2.242  3.5130  0.0207  1.5208
  464SOL     MW 1856   0.798   2.934   2.173 -0.3367  0.0323 -0.1865
  465SOL     OW 1857   0.744   0.209   0.472  0.4226 -0.1477  0.5201
  465SOL    HW1 1858   0.707   0.154   0.538  0.0677 -0.5961 -0.7606
  465SOL    HW2 1859   0.746   0.150   0.401  0.0892  1.1065 -1.7472
  465SOL     MW 1860   0.739   0.194   0.471  0.3317 -0.0414  0.0520
  466SOL     OW 1861   1.053   1.973   0.699 -0.5384 -0.4351  0.1966
  466SOL    HW1 1862   1.070   1.893   0.647 -0.0093  0.2336 -0.5237
  466SOL    HW2 1863   1.087   2.053   0.653  1.3423  0.8018  0.0417
  466SOL     MW 1864   1.060   1.973   0.686 -0.2205 -0.1837  0.0812
  467SOL     OW 1865   1.266   2.326   0.955 -0.3013 -0.4996 -0.7491
  467SOL    HW1 1866   1.355   2.324   0.982 -1.4770 -0.1655 -1.7793
  467SOL    HW2 1867   1.242   2.231   0.940 -0.3935  1.3739 -0.6152
  467SOL     MW 1868   1.274   2.313   0.956 -0.4686 -0.2084 -0.8673
  468SOL     OW 1869   0.317   2.627   1.966  0.3826  0.0747 -0.2888
  468SOL    HW1 1870   0.331   2.535   1.943 -2.9593 -1.2943 -0.1132
  468SOL    HW2 1871   0.367   2.670   1.896  0.3181 -1.4078  0.7806
  468SOL     MW 1872   0.325   2.620   1.953 -0.0668 -0.3016 -0.1245
  469SOL     OW 1873   0.407   2.078   1.827  0.2125 -0.1101 -0.2008
  469SOL    HW1 1874   0.322   2.041   1.798 -1.9204  1.7514  0.7944
  469SOL    HW2 1875   0.483   2.040   1.771 -0.9372 -1.1965  0.2198
  469SOL     MW 1876   0.405   2.068   1.815 -0.2206 -0.0078 -0.0140
  470SOL     OW 1877   3.064   2.504   0.170 -0.1656 -0.4205 -0.5749
  470SOL    HW1 1878   2.984   2.504   0.223  0.9100  1.1759  0.0696
  470SOL    HW2 1879   3.041   2.532   0.080 -1.1122  2.0834  1.5685
  470SOL     MW 1880   3.051   2.508   0.165 -0.1486  0.1205 -0.2071
  471SOL     OW 1881   1.170   2.702   1.367  0.0403 -0.1872 -0.3195
  471SOL    HW1 1882   1.107   2.737   1.431  0.0185  0.0986  1.0390
  471SOL    HW2 1883   1.149   2.734   1.279  0.6382 -1.0933 -1.5483
  471SOL     MW 1884   1.159   2.711   1.364  0.1163 -0.2691 -0.3024
  472SOL     OW 1885   2.926   2.122   0.339 -0.1446  0.2093 -0.4584
  472SOL    HW1 1886   2.936   2.081   0.249  1.2727  2.6065 -0.1952
  472SOL    HW2 1887   2.898   2.053   0.395 -1.5537 -1.4615  1.1669
  472SOL     MW 1888   2.923   2.107   0.335 -0.1435  0.3051 -0.2093
  473SOL     OW 1889   0.801   2.544   1.287 -0.2067  0.2671 -0.5122
  473SOL    HW1 1890   0.801   2.451   1.284  1.9820  1.1811 -0.6670
  473SOL    HW2 1891   0.799   2.568   1.381 -0.7343  0.4394 -0.0477
  473SOL     MW 1892   0.801   2.535   1.299  0.0125  0.4104 -0.4713
  474SOL     OW 1893   0.842   2.209   1.772 -0.1127  0.1297  0.5873
  474SOL    HW1 1894   0.933   2.217   1.789 -1.3303 -0.7643  2.2695
  474SOL    HW2 1895   0.833   2.194   1.672 -0.1146  0.4519 -1.8379
  474SOL     MW 1896   0.853   2.208   1.761 -0.2736  0.0542  0.4893
  475SOL     OW 1897   1.626   3.082   1.426 -0.2665 -0.1318 -0.2518
  475SOL    HW1 1898   1.539   3.100   1.383  0.5313 -2.5756 -1.5383
  475SOL    HW2 1899   1.647   2.987   1.418  1.1149  0.1359 -0.4255
  475SOL     MW 1900   1.617   3.072   1.420  0.0210 -0.4189 -0.4445
  476SOL     OW 1901   1.428   2.586   0.797 -0.5416 -0.3045  0.3569
  476SOL    HW1 1902   1.398   2.577   0.886  0.1285  2.8530 -0.4223
  476SOL    HW2 1903   1.475   2.672   0.791  0.7011  2.0448  1.0263
  476SOL     MW 1904   1.430   2.597   0.808 -0.2892  0.4221  0.3424
  477SOL     OW 1905   0.871   2.502   0.602  0.4252 -0.6955 -0.0552
  477SOL    HW1 1906   0.925   2.549   0.537 -1.1637  0.9450  4.2988
  477SOL    HW2 1907   0.843   2.419   0.548  1.0580 -0.7043  0.3574
  477SOL     MW 1908   0.874   2.497   0.586  0.2991 -0.4802  0.5737
  478SOL     OW 1909   0.237   2.587   0.963  0.1113  0.0807 -0.3749
  478SOL    HW1 1910   0.256   2.676   0.934  0.9782 -1.1115 -3.0646
  478SOL    HW2 1911   0.291   2.525   0.912  1.2980  1.7511 -1.9286
  478SOL     MW 1912   0.247   2.590   0.952  0.3823  0.1438 -0.9347
  479SOL     OW 1913   1.408   1.950   1.306  0.2530  0.4586 -0.2161
  479SOL    HW1 1914   1.385   1.996   1.388 -1.7538 -1.5509 -0.9464
  479SOL    HW2 1915   1.481   1.896   1.339 -0.1934 -1.1994  0.6181
  479SOL     MW 1916   1.414   1.949   1.321 -0.0706 -0.0253 -0.2024
  480SOL     OW 1917   1.796   2.373   1.285  0.1316 -0.2959  0.1752
  480SOL    HW1 1918   1.789   2.278   1.314  2.4277  0.4221 -1.3370
  480SOL    HW2 1919   1.836   2.368   1.195  0.5757  0.0414 -2.2792
  480SOL     MW 1920   1.800   2.360   1.277  0.4932 -0.1567 -0.3482
  481SOL     OW 1921   1.197   0.154   1.150  0.8646 -0.2622  0.2559
  481SOL    HW1 1922   1.201   0.118   1.065 -0.3261 -2.2306  1.7808
  481SOL    HW2 1923   1.219   0.249   1.138  1.0171  0.5109 -0.1874
  481SOL     MW 1924   1.200   0.162   1.137  0.7276 -0.4199  0.3986
  482SOL     OW 1925   1.013   0.015   0.435  0.1763 -0.0427  0.2269
  482SOL    HW1 1926   0.937  -0.044   0.433 -0.8484  3.9749 -0.1500
  482SOL    HW2 1927   1.010   0.084   0.368 -0.4456  1.1111  1.8878
  482SOL     MW 1928   1.002   0.017   0.426 -0.0409  0.6396  0.3963
  483SOL     OW 1929   0.306   2.847   0.558  0.3984 -0.1729  0.9840
  483SOL    HW1 1930   0.295   2.896   0.469  1.3590  2.6725 -1.5727
  483SOL    HW2 1931   0.273   2.905   0.626  0.8323 -1.8664 -0.6839
  483SOL     MW 1932   0.300   2.861   0.555  0.5824 -0.0209  0.4266
  484SOL     OW 1933   1.648   1.869   1.415  0.1611  0.0863 -0.5570
  484SOL    HW1 1934   1.703   1.937   1.386 -3.0688 -1.4925 -0.9826
  484SOL    HW2 1935   1.649   1.871   1.509  0.0085  0.5353  1.4419
  484SOL     MW 1936   1.655   1.878   1.424 -0.2852 -0.0628 -0.3494
  485SOL     OW 1937   0.533   2.342   0.291 -0.0260 -0.0470  0.0961
  485SOL    HW1 1938   0.566   2.309   0.377 -2.6272 -1.4781  1.1240
  485SOL    HW2 1939   0.441   2.371   0.315 -0.9133 -1.1650  2.4235
  485SOL     MW 1940   0.525   2.341   0.305 -0.4863 -0.3833  0.5388
  486SOL     OW 1941   0.081   2.485   1.474  0.0815 -0.2709  0.1875
  486SOL    HW1 1942   0.129   2.564   1.452  1.9482  1.3182  0.3666
  486SOL    HW2 1943   0.076   2.475   1.569 -1.4163  1.6102 -2.6043
  486SOL     MW 1944   0.086   2.494   1.484  0.1302  0.1869 -0.1572
  487SOL     OW 1945   1.287   1.611   1.013 -0.3548 -0.2457 -0.2091
  487SOL    HW1 1946   1.252   1.697   1.052  1.0265 -0.5061  1.9494
  487SOL    HW2 1947   1.382   1.609   1.026  0.1067 -2.3670  0.1046
  487SOL     MW 1948   1.295   1.622   1.020 -0.1116 -0.5599  0.1171
  488SOL     OW 1949   1.488   1.812   0.621  0.4026  0.1932  0.4356
  488SOL    HW1 1950   1.475   1.883   0.558 -0.5822 -0.1445 -1.6134
  488SOL    HW2 1951   1.434   1.744   0.584  0.6334  0.3777 -2.1874
  488SOL     MW 1952   1.479   1.812   0.608  0.3031  0.1730 -0.1808
  489SOL     OW 1953   0.689   0.743   0.525 -0.3087  0.0526 -0.5888
  489SOL    HW1 1954   0.649   0.657   0.501  0.8760  0.0667  0.4943
  489SOL    HW2 1955   0.680   0.757   0.621  2.0023 -1.3608  0.3360
  489SOL     MW 1956   0.682   0.733   0.535  0.1525 -0.1320 -0.3238
  490SOL     OW 1957   1.395   2.075   0.446  0.6405  0.4913 -0.5902
  490SOL    HW1 1958   1.452   2.138   0.400  1.2037 -1.0247 -0.8011
  490SOL    HW2 1959   1.309   2.106   0.413  0.1544 -0.2960 -1.5663
  490SOL     MW 1960   1.391   2.088   0.436  0.6507  0.1874 -0.7468
  491SOL     OW 1961   1.272   2.985   0.367 -0.5536 -0.0560  0.0735
  491SOL    HW1 1962   1.303   3.025   0.446 -1.1261  0.6365 -1.9645
  491SOL    HW2 1963   1.180   3.023   0.373 -0.8458 -0.2758 -0.2297
  491SOL     MW 1964   1.264   2.995   0.378 -0.6677  0.0063 -0.2354
  492SOL     OW 1965   1.449   2.143   0.709 -0.1908 -0.3010  0.0357
  492SOL    HW1 1966   1.391   2.107   0.643 -2.1139  1.3612 -0.9245
  492SOL    HW2 1967   1.397   2.147   0.784  0.6732  0.4666 -0.0659
  492SOL     MW 1968   1.435   2.139   0.710 -0.3305  0.0196 -0.1044
  493SOL     OW 1969   0.229   3.000   0.354 -0.7998 -0.4999  0.0894
  493SOL    HW1 1970   0.155   3.060   0.370 -0.5910 -0.8108 -1.3496
  493SOL    HW2 1971   0.216   2.966   0.263  2.3618  1.8285 -2.2105
  493SOL     MW 1972   0.218   3.003   0.344 -0.3551 -0.2337 -0.4039
  494SOL     OW 1973   0.381   2.381   1.796 -0.4535  0.1543  0.0653
  494SOL    HW1 1974   0.370   2.288   1.800 -1.0423  1.1964 -3.4023
  494SOL    HW2 1975   0.419   2.412   1.707  0.4622  3.1396 -0.5121
  494SOL     MW 1976   0.385   2.373   1.785 -0.4104  0.6856 -0.4684
  495SOL     OW 1977   2.900   1.636   2.701 -0.0378 -0.1483  0.6554
  495SOL    HW1 1978   2.857   1.706   2.751 -0.8099  1.7982  0.9262
  495SOL    HW2 1979   2.915   1.566   2.768  2.0614 -1.1455  0.5410
  495SOL     MW 1980   2.897   1.636   2.717  0.1373 -0.0230  0.6760
  496SOL     OW 1981   2.768   2.269   2.715 -0.5629  0.2377  0.0844
  496SOL    HW1 1982   2.785   2.180   2.743  0.6868  1.1714 -0.3321
  496SOL    HW2 1983   2.856   2.318   2.737  0.9112 -1.5492  0.4228
  496SOL     MW 1984   2.782   2.264   2.722 -0.2035  0.1251  0.0741
  497SOL     OW 1985   1.493   2.332   2.555 -0.1440 -0.1440 -0.4352
  497SOL    HW1 1986   1.508   2.283   2.466 -0.5041  2.2973 -1.2281
  497SOL    HW2 1987   1.464   2.258   2.614  0.7589 -0.4703  0.8191
  497SOL     MW 1988   1.491   2.316   2.551 -0.0724  0.1350 -0.3743
  498SOL     OW 1989   1.443   2.771   2.300  0.0244  0.1650 -0.4806
  498SOL    HW1 1990   1.432   2.678   2.278  0.3506  0.5555  0.9450
  498SOL    HW2 1991   1.515   2.770   2.370  2.3852 -0.7567 -0.3315
  498SOL     MW 1992   1.451   2.758   2.307  0.3789  0.0949 -0.2729
  499SOL     OW 1993   0.949   0.093   0.076  0.1361  0.8546 -0.0479
  499SOL    HW1 1994   0.861   0.124   0.116 -1.7080  0.5504  2.1803
  499SOL    HW2 1995   0.939  -0.004   0.061  0.0530  0.4390 -1.1583
  499SOL     MW 1996   0.936   0.085   0.079 -0.1182  0.7596  0.0996
  500SOL     OW 1997   1.031   2.525   2.722  0.0355  0.0472  0.1961
  500SOL    HW1 1998   1.091   2.510   2.798 -0.5574 -0.7829  0.1534
  500SOL    HW2 1999   0.970   2.595   2.753  0.1134  2.3410  1.0651
  500SOL     MW 2000   1.031   2.532   2.736 -0.0325  0.2403  0.3052
  501SOL     OW 2001   1.756   2.268   3.055 -0.8838 -0.2311  0.8993
  501SOL    HW1 2002   1.747   2.360   3.081 -0.1204  0.5859  0.5456
  501SOL    HW2 2003   1.853   2.257   3.067  0.2428  0.6954 -1.9303
  501SOL     MW 2004   1.768   2.278   3.060 -0.6344 -0.0011  0.4793
  502SOL     OW 2005   0.262   2.717   2.960 -0.1074 -0.5945  0.4104
  502SOL    HW1 2006   0.207   2.674   2.896 -0.4276 -0.5979  2.7071
  502SOL    HW2 2007   0.270   2.807   2.927 -0.5765  0.7354 -0.8215
  502SOL     MW 2008   0.256   2.723   2.947 -0.2116 -0.4195  0.5509
  503SOL     OW 2009   1.139   2.565   2.091  0.4266  0.4121  0.4599
  503SOL    HW1 2010   1.207   2.593   2.029  1.6487 -2.8306 -1.3911
  503SOL    HW2 2011   1.048   2.596   2.062 -0.7354  1.1654  2.2923
  503SOL     MW 2012   1.136   2.573   2.079  0.4345  0.0836  0.4574
  504SOL     OW 2013   0.077   2.651   2.161 -0.5447  0.5519  0.0870
  504SOL    HW1 2014   0.157   2.618   2.111  0.5771 -1.5385  1.5326
  504SOL    HW2 2015   0.050   2.574   2.207 -0.5170 -0.5182 -0.2159
  504SOL     MW 2016   0.084   2.637   2.160 -0.3930  0.1349  0.2378
  505SOL     OW 2017   1.604   2.790   2.754  0.1403 -0.0937 -0.3912
  505SOL    HW1 2018   1.648   2.788   2.672  1.6368  0.1884  1.4092
  505SOL    HW2 2019   1.525   2.852   2.744 -2.1852 -0.2509  0.2295
  505SOL     MW 2020   1.599   2.798   2.742  0.0309 -0.0772 -0.0718
  506SOL     OW 2021   1.602   0.075   2.750  0.1163 -0.4644 -0.0595
  506SOL    HW1 2022   1.592   0.012   2.816 -1.9209 -0.9413  1.5537
  506SOL    HW2 2023   1.684   0.052   2.709 -1.9703 -2.0411  1.1194
  506SOL     MW 2024   1.611   0.064   2.753 -0.4278 -0.7353  0.3089
  507SOL     OW 2025   0.872   2.721   2.808 -0.0954  0.2714  0.0199
  507SOL    HW1 2026   0.887   2.763   2.722  2.7553 -2.0978 -1.4301
  507SOL    HW2 2027   0.788   2.675   2.793 -1.5428  1.4640 -0.8047
  507SOL     MW 2028   0.863   2.721   2.795  0.0898  0.1162 -0.2802
  508SOL     OW 2029   1.154   2.112   2.576  0.0151 -0.1259  0.7404
  508SOL    HW1 2030   1.231   2.135   2.623 -1.4487  0.0368 -1.3546
  508SOL    HW2 2031   1.085   2.103   2.639  1.2471 -0.6125  1.6050
  508SOL     MW 2032   1.155   2.114   2.591 -0.0155 -0.1687  0.5780
  509SOL     OW 2033   0.639   2.572   2.790 -0.1595 -0.3479 -0.3997
  509SOL    HW1 2034   0.614   2.521   2.713  0.6056 -2.3039  1.0546
  509SOL    HW2 2035   0.592   2.653   2.794 -0.3956  0.9269  3.4341
  509SOL     MW 2036   0.630   2.576   2.780 -0.0897 -0.4377  0.2980
  510SOL     OW 2037   1.503   2.563   1.618  0.2563 -0.1175  0.2056
  510SOL    HW1 2038   1.513   2.656   1.585 -1.5308 -0.0590 -0.3624
  510SOL    HW2 2039   1.449   2.574   1.694  1.8489 -1.8657 -0.6814
  510SOL     MW 2040   1.497   2.577   1.623  0.2306 -0.3404  0.0136
  511SOL     OW 2041   0.350   2.517   2.540  0.0907  0.1557  0.7436
  511SOL    HW1 2042   0.426   2.476   2.584 -0.7909 -1.2276 -0.9613
  511SOL    HW2 2043   0.368   2.516   2.448 -1.2844  0.1153 -0.3162
  511SOL     MW 2044   0.362   2.511   2.534 -0.2070 -0.0322  0.3789
  512SOL     OW 2045   1.025   1.965   2.834 -0.1562  0.2812  0.3716
  512SOL    HW1 2046   0.928   1.981   2.847 -1.0792 -1.9153  0.7455
  512SOL    HW2 2047   1.060   1.879   2.878  0.1990 -0.5471  1.0319
  512SOL     MW 2048   1.017   1.956   2.842 -0.2311 -0.1179  0.5080
  513SOL     OW 2049   1.514   2.502   2.214  0.5807  0.2913 -0.7455
  513SOL    HW1 2050   1.608   2.515   2.204 -0.0926  2.2735 -4.3237
  513SOL    HW2 2051   1.511   2.424   2.262 -1.6803  1.3213  2.6157
  513SOL     MW 2052   1.526   2.494   2.219  0.1936  0.6888 -0.7741
  514SOL     OW 2053   0.194   2.339   2.681 -0.3992  0.1433 -0.1933
  514SOL    HW1 2054   0.234   2.407   2.623 -0.5284  0.4872 -0.3247
  514SOL    HW2 2055   0.257   2.293   2.743 -2.3780  0.0702  1.2495
  514SOL     MW 2056   0.207   2.342   2.681 -0.6774  0.1790 -0.0202
  515SOL     OW 2057   1.080   1.973   1.830  0.4586 -0.2387 -0.2053
  515SOL    HW1 2058   1.105   2.050   1.790 -0.2425  0.1368  0.5920
  515SOL    HW2 2059   1.162   1.940   1.878 -1.6920 -1.1572 -1.1658
  515SOL     MW 2060   1.094   1.979   1.831  0.0823 -0.3104 -0.2268
  516SOL     OW 2061   1.297   2.595   2.947 -0.1647  0.3871  0.3176
  516SOL    HW1 2062   1.307   2.590   2.850 -0.2332  0.9460 -1.0259
  516SOL    HW2 2063   1.242   2.518   2.968 -0.6221 -2.1809  0.4416
  516SOL     MW 2064   1.291   2.584   2.937 -0.2341  0.1220  0.1567
  517SOL     OW 2065   0.539   2.343   2.267  0.9211  0.4865  0.8025
  517SOL    HW1 2066   0.493   2.428   2.259 -1.9934  0.1547 -1.3824
  517SOL    HW2 2067   0.498   2.283   2.205  0.2232 -1.6227  0.5360
  517SOL     MW 2068   0.527   2.346   2.258  0.4445  0.1644  0.4791
  518SOL     OW 2069   1.808   0.117   3.060  0.0563 -0.6883  0.5580
  518SOL    HW1 2070   1.819   0.141   3.152  1.3227 -0.2173 -2.1985
  518SOL    HW2 2071   1.771   0.029   3.059  1.5943 -0.4442  2.1936
  518SOL     MW 2072   1.804   0.108   3.072  0.4263 -0.5939  0.4101
  519SOL     OW 2073   0.648   2.416   1.903  0.4891  0.5857 -0.9308
  519SOL    HW1 2074   0.692   2.331   1.918  0.5746 -1.2686 -0.3256
  519SOL    HW2 2075   0.570   2.395   1.850  0.4542  0.6749  1.4802
  519SOL     MW 2076   0.644   2.402   1.898  0.4958  0.3528 -0.5328
  520SOL     OW 2077   1.226   2.131   2.937  0.2815  0.1263 -0.0192
  520SOL    HW1 2078   1.149   2.077   2.921 -1.7139 -1.3239  1.5751
  520SOL    HW2 2079   1.260   2.099   3.024 -0.1198 -0.1772 -0.5504
  520SOL     MW 2080   1.221   2.119   2.946 -0.0347 -0.1051  0.1210
  521SOL     OW 2081   1.767   2.031   2.248 -0.0705 -0.0842  0.4329
  521SOL    HW1 2082   1.771   2.030   2.150 -0.9647 -0.0538 -1.0171
  521SOL    HW2 2083   1.764   1.936   2.264  0.0542 -2.6510  1.1922
  521SOL     MW 2084   1.767   2.018   2.237 -0.1721 -0.4189  0.3418
  522SOL     OW 2085   2.860   2.549   2.230  0.4326 -0.6270 -0.3419
  522SOL    HW1 2086   2.880   2.511   2.312  1.4984  2.1959  1.6267
  522SOL    HW2 2087   2.913   2.627   2.239  1.4151  1.4880  1.0322
  522SOL     MW 2088   2.869   2.554   2.242  0.7028  0.0245  0.0991
  523SOL     OW 2089   0.823   1.493   2.149 -0.1972 -0.0567  0.0269
  523SOL    HW1 2090   0.769   1.505   2.071  1.1420  3.0337  1.2957
  523SOL    HW2 2091   0.899   1.449   2.110  0.5988  1.6602  0.7775
  523SOL     MW 2092   0.826   1.489   2.133  0.0845  0.5776  0.2933
  524SOL     OW 2093   0.624   2.400   3.004  0.5195  0.1686 -0.3942
  524SOL    HW1 2094   0.634   2.457   2.924  1.0576  2.2686 -3.4708
  524SOL    HW2 2095   0.700   2.351   3.018 -2.3541  1.9722  1.3008
  524SOL     MW 2096   0.636   2.401   2.995  0.2114  0.6837 -0.5765
  525SOL     OW 2097   0.378   2.182   2.112  0.4453  0.1627  0.2606
  525SOL    HW1 2098   0.352   2.130   2.184  0.7076 -0.3315 -2.2044
  525SOL    HW2 2099   0.402   2.122   2.045  0.2083  2.6450  2.1677
  525SOL     MW 2100   0.378   2.167   2.113  0.4486  0.4250  0.1870
  526SOL     OW 2101   0.716   2.119   1.999 -0.3498  0.4081 -0.0538
  526SOL    HW1 2102   0.757   2.136   1.904  0.5973  0.3246  4.3690
  526SOL    HW2 2103   0.791   2.134   2.061  1.1432  0.5089 -1.2017
  526SOL     MW 2104   0.732   2.123   1.995 -0.0278  0.4104  0.3783
  527SOL     OW 2105   1.293   1.904   2.005 -0.4937  0.0042  0.1020
  527SOL    HW1 2106   1.280   1.899   2.097  0.0040 -1.3475  1.1197
  527SOL    HW2 2107   1.297   1.817   1.966 -0.0501  0.8994 -1.7175
  527SOL     MW 2108   1.292   1.892   2.012 -0.3695 -0.0560 -0.0038
  528SOL     OW 2109   0.618   2.890   3.016  0.3172  0.3715 -0.8668
  528SOL    HW1 2110   0.620   2.988   3.011  1.4871 -2.2998  1.4172
  528SOL    HW2 2111   0.612   2.863   2.922 -1.8950  0.3075 -0.9242
  528SOL     MW 2112   0.618   2.899   3.003  0.1797  0.0106 -0.5731
  529SOL     OW 2113   1.126   2.253   1.774 -0.0199 -0.7617 -0.1059
  529SOL    HW1 2114   1.172   2.273   1.857  0.2838 -0.4196 -0.8529
  529SOL    HW2 2115   1.147   2.302   1.695 -0.3091 -2.2513  0.1863
  529SOL     MW 2116   1.135   2.262   1.774 -0.0180 -0.9131 -0.1659
  530SOL     OW 2117   1.141   2.376   2.980  0.2579  0.0988 -0.4641
  530SOL    HW1 2118   1.073   2.362   3.041  3.0862  0.7923  0.2320
  530SOL    HW2 2119   1.167   2.288   2.959 -0.4649 -1.7685  0.3718
  530SOL     MW 2120   1.135   2.363   2.986  0.5357 -0.0561 -0.2620
  531SOL     OW 2121   0.896   1.818   2.636  0.0964  0.2102  0.2891
  531SOL    HW1 2122   0.961   1.854   2.696  1.7151 -0.9739 -0.0673
  531SOL    HW2 2123   0.862   1.740   2.678 -0.0940  1.2655 -0.2773
  531SOL     MW 2124   0.900   1.813   2.649  0.2849  0.1932  0.1674
  532SOL     OW 2125   1.683   0.322   2.870 -0.5665  0.2375 -0.0941
  532SOL    HW1 2126   1.671   0.243   2.825  0.6497  2.3510  3.3313
  532SOL    HW2 2127   1.720   0.296   2.954  2.0749 -0.0406 -0.7844
  532SOL     MW 2128   1.686   0.308   2.875 -0.0575  0.4796  0.2668
  533SOL     OW 2129   1.766   2.746   2.957  0.2258 -0.5549  0.3298
  533SOL    HW1 2130   1.751   2.660   2.987  0.2587  0.7518 -0.4648
  533SOL    HW2 2131   1.734   2.755   2.865 -1.7077 -1.2924 -0.5017
  533SOL     MW 2132   1.760   2.736   2.949 -0.0250 -0.4798  0.1153
  534SOL     OW 2133   1.751   2.487   2.514 -0.0589 -0.0593  0.1817
  534SOL    HW1 2134   1.676   2.433   2.542  1.8414  0.6113 -0.2192
  534SOL    HW2 2135   1.826   2.463   2.579  1.9549 -1.0287  0.4435
  534SOL     MW 2136   1.751   2.476   2.526  0.4575 -0.0987  0.1633
  535SOL     OW 2137   1.797   2.346   1.911  0.4668 -0.3915 -0.1119
  535SOL    HW1 2138   1.734   2.348   1.832 -0.7749  1.7484 -0.6047
  535SOL    HW2 2139   1.862   2.403   1.869  0.3686 -0.0916 -1.0060
  535SOL     MW 2140   1.797   2.354   1.895  0.2900 -0.0696 -0.2949
  536SOL     OW 2141   0.432   1.843   2.031 -0.0015 -0.1716  0.0303
  536SOL    HW1 2142   0.432   1.900   1.950 -2.5332 -3.2702 -3.1011
  536SOL    HW2 2143   0.524   1.854   2.061 -0.2614  0.2089  1.4312
  536SOL     MW 2144   0.444   1.852   2.024 -0.3698 -0.5302 -0.1980
  537SOL     OW 2145   0.974   0.189   2.938  0.4229 -0.1511 -0.0285
  537SOL    HW1 2146   0.964   0.157   3.031  0.7300 -1.5794  1.2771
  537SOL    HW2 2147   0.898   0.238   2.920  0.2546 -0.1653 -1.8270
  537SOL     MW 2148   0.963   0.191   2.948  0.4412 -0.3414 -0.0936
  538SOL     OW 2149   1.310   0.056   3.053  0.0218 -0.4331  0.0442
  538SOL    HW1 2150   1.244   0.108   2.999 -1.3007 -1.3677 -0.2914
  538SOL    HW2 2151   1.365   0.124   3.092  0.6015 -2.9629 -3.3204
  538SOL     MW 2152   1.309   0.072   3.051 -0.0762 -0.8902 -0.4440
  539SOL     OW 2153   0.727   2.692   2.528 -0.2850  0.0274  0.3977
  539SOL    HW1 2154   0.804   2.750   2.532 -1.0688  1.2356  4.3250
  539SOL    HW2 2155   0.764   2.607   2.515 -0.8720 -0.7354 -0.6846
  539SOL     MW 2156   0.742   2.688   2.527 -0.4659  0.0862  0.7731
  540SOL     OW 2157   0.365   2.224   2.853 -0.2991  0.2099 -0.2977
  540SOL    HW1 2158   0.433   2.288   2.886 -0.1959 -0.6139 -1.1794
  540SOL    HW2 2159   0.335   2.180   2.935 -1.5800  0.8983 -0.3006
  540SOL     MW 2160   0.370   2.227   2.868 -0.4545  0.1920 -0.4144
  541SOL     OW 2161   0.188   2.881   2.266 -0.0773 -0.2221  0.2866
  541SOL    HW1 2162   0.151   2.802   2.223 -0.6505  0.9353  0.2233
  541SOL    HW2 2163   0.231   2.853   2.345  1.1194  0.8161  0.5009
  541SOL     MW 2164   0.189   2.867   2.270  0.0049  0.0676  0.3065
  542SOL     OW 2165   0.885   2.283   2.765 -0.0849 -0.2828 -0.4663
  542SOL    HW1 2166   0.851   2.285   2.848  0.7295 -1.4472 -2.6362
  542SOL    HW2 2167   0.958   2.350   2.757  1.3009  0.5749  0.2073
  542SOL     MW 2168   0.890   2.292   2.775  0.2054 -0.3232 -0.6637
  543SOL     OW 2169   1.389   2.629   2.667  0.2415 -0.9112 -0.0434
  543SOL    HW1 2170   1.428   2.554   2.621  1.1942 -0.0844  0.6389
  543SOL    HW2 2171   1.462   2.684   2.707 -0.2850  1.8595  0.5996
  543SOL     MW 2172   1.404   2.627   2.666  0.2977 -0.4365  0.1315
  544SOL     OW 2173   0.704   0.094   2.584  0.0695  0.6546  0.4641
  544SOL    HW1 2174   0.620   0.072   2.601  1.3073  1.0146  1.0556
  544SOL    HW2 2175   0.739   0.027   2.531 -0.7792 -1.5375  1.9406
  544SOL     MW 2176   0.698   0.082   2.580  0.1208  0.4129  0.7370
  545SOL     OW 2177   1.558   2.179   2.335 -0.6198 -0.6973 -0.0358
  545SOL    HW1 2178   1.503   2.106   2.344  3.5909  0.7878  1.8038
  545SOL    HW2 2179   1.640   2.132   2.322  0.9791 -2.4543 -0.9441
  545SOL     MW 2180   1.561   2.163   2.335  0.1467 -0.7332  0.0870
  546SOL     OW 2181   2.979   2.013   0.097  0.4014 -0.4364 -0.3844
  546SOL    HW1 2182   2.977   2.086   0.032 -0.7678  1.3568  1.0293
  546SOL    HW2 2183   3.070   1.965   0.087  2.6209 -0.5910 -1.4689
  546SOL     MW 2184   2.990   2.016   0.087  0.5400 -0.2202 -0.3410
  547SOL     OW 2185   0.126   2.924   0.059  0.1639  0.1627  0.2940
  547SOL    HW1 2186   0.152   2.978  -0.019  0.9887 -1.3741 -1.1266
  547SOL    HW2 2187   0.173   2.840   0.046  2.1530 -0.2968 -0.3589
  547SOL     MW 2188   0.135   2.920   0.047  0.5352 -0.1007  0.0204
  548SOL     OW 2189   0.329   2.485   0.274  0.7753  0.3373 -0.1577
  548SOL    HW1 2190   0.354   2.563   0.226  0.5854  0.4246 -1.6713
  548SOL    HW2 2191   0.261   2.449   0.217 -2.5049 -1.0549 -0.4914
  548SOL     MW 2192   0.323   2.490   0.261  0.3174  0.1651 -0.4014
  549SOL     OW 2193   0.696   1.845   2.119  0.0991  0.1809  1.0188
  549SOL    HW1 2194   0.708   1.924   2.059 -1.1474  2.1032 -3.8109
  549SOL    HW2 2195   0.724   1.866   2.211 -0.1445  2.6710  0.9776
  549SOL     MW 2196   0.701   1.858   2.123 -0.0975  0.7631  0.3761
  550SOL     OW 2197   1.838   1.748   2.541 -0.3623 -0.2540  0.5795
  550SOL    HW1 2198   1.808   1.746   2.454 -1.3184 -0.2547 -0.0912
  550SOL    HW2 2199   1.834   1.832   2.587 -1.1409 -1.1742 -0.4919
  550SOL     MW 2200   1.834   1.759   2.536 -0.5912 -0.3755  0.3496
  551SOL     OW 2201   0.857   2.312   0.254  0.4485  0.1128  0.4172
  551SOL    HW1 2202   0.938   2.356   0.230 -0.5203  0.2636 -1.5023
  551SOL    HW2 2203   0.878   2.222   0.226 -0.5900 -0.0038  0.2880
  551SOL     MW 2204   0.870   2.306   0.247  0.1836  0.1173  0.1469
  552SOL     OW 2205   1.747   1.763   2.280  0.1196  0.5539 -0.1536
  552SOL    HW1 2206   1.655   1.754   2.300 -0.6738 -1.6514  1.0394
  552SOL    HW2 2207   1.782   1.710   2.203  1.4891  1.6809  1.4755
  552SOL     MW 2208   1.739   1.755   2.272  0.1956  0.4116  0.2187
  553SOL     OW 2209   1.220   2.331   1.523  0.1879  0.4269  0.0520
  553SOL    HW1 2210   1.251   2.241   1.507 -0.8400 -0.9543  0.9194
  553SOL    HW2 2211   1.277   2.398   1.476  1.0972  1.5166  0.2420
  553SOL     MW 2212   1.231   2.328   1.515  0.1722  0.3884  0.1915
  554SOL     OW 2213   0.543   2.817   2.714  0.5994  0.4138 -0.4870
  554SOL    HW1 2214   0.521   2.909   2.683 -1.9398  0.6603 -0.7501
  554SOL    HW2 2215   0.600   2.792   2.648 -1.4290 -2.9074  0.9140
  554SOL     MW 2216   0.548   2.826   2.701 -0.0032  0.0081 -0.3368
  555SOL     OW 2217   0.578   2.381   2.614  0.9559  0.3386 -0.0090
  555SOL    HW1 2218   0.575   2.299   2.657 -1.9512 -1.4815 -0.3004
  555SOL    HW2 2219   0.634   2.363   2.538 -2.3638  0.3259  0.6616
  555SOL     MW 2220   0.585   2.368   2.609  0.1343  0.0968  0.0410
  556SOL     OW 2221   1.048   1.804   0.132  0.0090 -0.5062  0.3604
  556SOL    HW1 2222   1.059   1.796   0.033 -1.6644  3.5639 -0.5633
  556SOL    HW2 2223   1.132   1.815   0.175  0.4080 -2.5801 -3.5044
  556SOL     MW 2224   1.061   1.804   0.125 -0.1592 -0.2428 -0.2714
  557SOL     OW 2225   1.019   2.690   0.471 -0.5441 -0.1585  0.6860
  557SOL    HW1 2226   1.068   2.690   0.388 -0.7840 -1.6512  2.1120
  557SOL    HW2 2227   0.953   2.768   0.465 -2.9343 -0.9479 -1.3201
  557SOL     MW 2228   1.017   2.700   0.459 -0.8911 -0.4596  0.6095
  558SOL     OW 2229   0.289   2.104   3.086  0.0181  0.3154 -0.3484
  558SOL    HW1 2230   0.235   2.031   3.070  3.5242  0.5620 -0.1216
  558SOL    HW2 2231   0.241   2.175   3.122  1.0262 -0.3378  1.1016
  558SOL     MW 2232   0.276   2.104   3.089  0.6137  0.2618 -0.1272
  559SOL     OW 2233   1.185   2.294   2.058 -0.2325  0.2012  0.3139
  559SOL    HW1 2234   1.191   2.381   2.100 -1.5867  1.8940  1.3199
  559SOL    HW2 2235   1.213   2.229   2.129  1.5570  1.1233 -0.0563
  559SOL     MW 2236   1.190   2.297   2.073 -0.1750  0.5462  0.3978
  560SOL     OW 2237   1.953   2.906   0.029  0.5547 -0.8280 -0.3245
  560SOL    HW1 2238   2.001   2.955  -0.039  1.3760 -2.3687  0.0604
  560SOL    HW2 2239   1.886   2.858  -0.025  0.6994 -1.7142 -2.5810
  560SOL     MW 2240   1.951   2.906   0.013  0.6822 -1.1482 -0.5715
  561SOL     OW 2241   0.467   2.089   0.180  0.3474  0.1113  1.0853
  561SOL    HW1 2242   0.403   2.115   0.103 -3.9241  2.2268 -3.8982
  561SOL    HW2 2243   0.503   2.174   0.208  0.2135 -1.6519  0.3707
  561SOL     MW 2244   0.463   2.104   0.173 -0.2338  0.1578  0.3335
  562SOL     OW 2245   0.884   2.158   2.214  0.2470  0.3565 -0.5132
  562SOL    HW1 2246   0.868   2.253   2.208  2.0564  0.0953 -0.9310
  562SOL    HW2 2247   0.977   2.136   2.227  0.5920  0.1621 -0.2575
  562SOL     MW 2248   0.894   2.168   2.215  0.5312  0.2964 -0.5346
  563SOL     OW 2249   1.221   0.284   0.571  0.2744 -0.3356  0.4533
  563SOL    HW1 2250   1.159   0.272   0.496 -1.3171  0.8082  0.3856
  563SOL    HW2 2251   1.262   0.192   0.578 -0.0597 -0.8983  2.2722
  563SOL     MW 2252   1.218   0.270   0.562  0.0203 -0.2589  0.6844
  564SOL     OW 2253   1.018   2.608   2.356 -0.1345 -0.1173  0.3542
  564SOL    HW1 2254   1.067   2.579   2.277  1.8725 -1.3008  2.2292
  564SOL    HW2 2255   1.077   2.655   2.416 -1.3424 -3.3641  0.2204
  564SOL     MW 2256   1.032   2.610   2.353 -0.0290 -0.7018  0.5839
  565SOL     OW 2257   2.918   2.641   2.615 -0.0410 -0.4509 -0.5540
  565SOL    HW1 2258   2.983   2.713   2.604  4.2579  1.4750 -3.9880
  565SOL    HW2 2259   2.835   2.655   2.557  0.8503 -1.5630 -1.3567
  565SOL     MW 2260   2.915   2.652   2.606  0.6438 -0.3436 -1.1130
  566SOL     OW 2261   2.252   1.940   2.364  0.0920 -0.1055  0.0167
  566SOL    HW1 2262   2.282   1.929   2.275  0.4799 -0.8580 -0.5379
  566SOL    HW2 2263   2.293   2.026   2.394  0.6350 -0.0326  2.0220
  566SOL     MW 2264   2.261   1.950   2.356  0.2148 -0.1952  0.2081
  567SOL     OW 2265   1.186   2.925   0.056  0.3664 -0.2424 -1.0607
  567SOL    HW1 2266   1.213   3.021   0.051 -0.0278  1.6579  1.4659
  567SOL    HW2 2267   1.198   2.886  -0.035 -3.3553  1.4861 -2.1721
  567SOL     MW 2268   1.191   2.932   0.044 -0.1767  0.2364 -0.8740
  568SOL     OW 2269   1.657   2.131   2.837 -0.0613 -0.2197 -0.1902
  568SOL    HW1 2270   1.712   2.182   2.906 -1.2188  2.0539  0.9447
  568SOL    HW2 2271   1.723   2.086   2.786 -1.5790  0.1672  2.1444
  568SOL     MW 2272   1.673   2.131   2.840 -0.4143  0.1313  0.2676
  569SOL     OW 2273   0.092   2.181   2.430 -0.0055 -0.3683  0.0692
  569SOL    HW1 2274   0.057   2.257   2.384  1.5996 -2.1979  0.9354
  569SOL    HW2 2275   0.093   2.198   2.525 -0.9280 -1.3930  0.1916
  569SOL     MW 2276   0.088   2.193   2.436  0.0845 -0.7449  0.1996
  570SOL     OW 2277   1.443   0.420   0.489 -0.5908  0.2209 -0.0308
  570SOL    HW1 2278   1.387   0.358   0.536  0.3670 -0.8288  0.5994
  570SOL    HW2 2279   1.492   0.462   0.559 -3.4759 -3.6126 -2.2462
  570SOL     MW 2280   1.442   0.417   0.505 -0.8451 -0.4234 -0.2399
  571SOL     OW 2281   1.474   2.399   1.975  0.0011  0.2397 -0.6432
  571SOL    HW1 2282   1.465   2.422   2.069  0.7208 -0.7881 -1.1114
  571SOL    HW2 2283   1.475   2.304   1.977 -1.7592 -0.2671 -1.7689
  571SOL     MW 2284   1.473   2.390   1.988 -0.1362  0.0372 -0.8535
  572SOL     OW 2285   0.918   2.588   3.079  0.2313  0.4703  0.1863
  572SOL    HW1 2286   0.875   2.622   3.001  0.6763  0.8585 -0.0754
  572SOL    HW2 2287   0.843   2.571   3.140  0.5420 -2.1255 -0.5310
  572SOL     MW 2288   0.902   2.590   3.077  0.3310  0.1790  0.0571
  573SOL     OW 2289   1.109   2.414   0.192  0.0056 -0.2070  0.2431
  573SOL    HW1 2290   1.200   2.404   0.153 -0.1214  0.4473 -0.3767
  573SOL    HW2 2291   1.104   2.508   0.222 -0.9279  3.7126  2.3177
  573SOL     MW 2292   1.120   2.425   0.191 -0.1343  0.3965  0.4350
  574SOL     OW 2293   1.157   2.686   0.234  0.3159 -0.1345  0.4223
  574SOL    HW1 2294   1.248   2.705   0.266 -1.6533 -0.5265 -0.4017
  574SOL    HW2 2295   1.141   2.750   0.170 -1.7424  0.1760  0.0278
  574SOL     MW 2296   1.167   2.697   0.230 -0.2155 -0.1453  0.2615
  575SOL     OW 2297   3.051   2.322   1.881  0.2293  0.0652  0.6193
  575SOL    HW1 2298   3.059   2.233   1.851 -3.1578 -1.1995 -1.5003
  575SOL    HW2 2299   3.103   2.376   1.816  1.9119  1.9934  2.0085
  575SOL     MW 2300   3.059   2.317   1.868  0.0044  0.1528  0.5230
  576SOL     OW 2301   2.830   1.816   2.039 -0.1359  0.3205  0.0614
  576SOL    HW1 2302   2.826   1.905   2.003  1.0804 -1.3072 -0.8242
  576SOL    HW2 2303   2.739   1.788   2.032  0.1306 -0.4596 -0.5716
  576SOL     MW 2304   2.817   1.824   2.033  0.0597  0.0028 -0.1390
  577SOL     OW 2305   2.076   0.231   0.077  0.4442  0.7374  0.2580
  577SOL    HW1 2306   2.010   0.280   0.038 -0.4276 -1.6666 -0.8010
  577SOL    HW2 2307   2.036   0.157   0.128 -1.4134 -3.7883  0.4621
  577SOL     MW 2308   2.062   0.227   0.079  0.0841 -0.1769  0.1452
  578SOL     OW 2309   2.026   2.105   2.365  0.5061 -0.2118  1.1563
  578SOL    HW1 2310   1.955   2.064   2.306  2.0810 -1.5904 -1.1745
  578SOL    HW2 2311   2.109   2.051   2.357 -0.3749 -1.4943  0.8167
  578SOL     MW 2312   2.027   2.092   2.356  0.5977 -0.5629  0.8040
  579SOL     OW 2313   0.847   2.430   2.522  0.1428 -0.3266  0.0041
  579SOL    HW1 2314   0.881   2.368   2.585 -1.3719 -0.7329 -0.9582
  579SOL    HW2 2315   0.930   2.481   2.501 -0.5263  0.2537 -2.6166
  579SOL     MW 2316   0.862   2.429   2.528 -0.1453 -0.3037 -0.4686
  580SOL     OW 2317   0.925   2.919   0.025 -0.1722 -0.1181  0.1035
  580SOL    HW1 2318   1.026   2.919   0.033  1.1411 -1.0268 -2.6041
  580SOL    HW2 2319   0.913   2.851  -0.047 -1.5653  0.6771 -0.4738
  580SOL     MW 2320   0.937   2.910   0.017 -0.1828 -0.1331 -0.3299
  581SOL     OW 2321   1.100   2.533   1.743  0.1667 -0.0321 -0.3118
  581SOL    HW1 2322   1.187   2.574   1.736  1.4633 -2.3837 -3.5360
  581SOL    HW2 2323   1.117   2.453   1.796  1.6550 -2.1917 -1.4866
  581SOL     MW 2324   1.114   2.528   1.749  0.5342 -0.6273 -0.8922
  582SOL     OW 2325   0.008   2.845   2.575 -0.1428 -0.0527 -0.5120
  582SOL    HW1 2326   0.012   2.931   2.622  3.3090 -1.4147 -1.0652
  582SOL    HW2 2327   0.103   2.816   2.577  1.6006 -2.5659 -2.6715
  582SOL     MW 2328   0.021   2.852   2.581  0.5426 -0.5640 -0.8699
  583SOL     OW 2329   1.981   2.460   2.651  0.0056 -0.3300 -0.4753
  583SOL    HW1 2330   2.053   2.494   2.601  1.1844  3.2192  0.1832
  583SOL    HW2 2331   1.991   2.363   2.652 -0.4435 -3.2438 -0.1911
  583SOL     MW 2332   1.992   2.452   2.644  0.1019 -0.2462 -0.3509
  584SOL     OW 2333   0.179   1.849   2.104  0.7981  0.1481 -0.2345
  584SOL    HW1 2334   0.275   1.840   2.081  1.4120  0.1512 -1.4016
  584SOL    HW2 2335   0.181   1.868   2.201  1.4570 -0.9964  1.9380
  584SOL     MW 2336   0.192   1.851   2.114  0.9660 -0.0025 -0.1019
  585SOL     OW 2337   1.496   2.558   0.023 -0.0603 -0.3666  0.3851
  585SOL    HW1 2338   1.445   2.585  -0.056  1.2684  0.0157 -2.9048
  585SOL    HW2 2339   1.450   2.605   0.093 -1.2020  3.4154  2.1898
  585SOL     MW 2340   1.484   2.568   0.022 -0.0357  0.1828  0.1892
  586SOL     OW 2341   1.246   3.012   2.379 -0.4506  0.1117 -0.0257
  586SOL    HW1 2342   1.326   2.972   2.337 -0.1003 -1.4366 -0.2732
  586SOL    HW2 2343   1.268   3.043   2.474 -0.3510  0.5057  1.6513
  586SOL     MW 2344   1.259   3.011   2.386 -0.3912 -0.0406  0.1629
  587SOL     OW 2345   1.217   1.621   2.156  0.5600 -0.0923 -0.9019
  587SOL    HW1 2346   1.199   1.554   2.225 -0.4761  0.5434  0.3108
  587SOL    HW2 2347   1.219   1.572   2.079  0.5653  1.9507  0.6295
  587SOL     MW 2348   1.215   1.605   2.155  0.4240  0.2611 -0.5398
  588SOL     OW 2349   1.410   2.127   2.726  0.3055 -0.8203  0.2170
  588SOL    HW1 2350   1.488   2.144   2.773  0.5100  1.7992  2.1032
  588SOL    HW2 2351   1.349   2.125   2.802  1.8490  0.6488  0.5565
  588SOL     MW 2352   1.413   2.129   2.742  0.5361 -0.2809  0.5107
  589SOL     OW 2353   1.354   2.060   0.071  0.2201  0.1375 -0.0762
  589SOL    HW1 2354   1.338   2.153   0.096  0.4015  0.3358  3.3057
  589SOL    HW2 2355   1.312   2.003   0.137 -1.5067  1.5910 -1.6509
  589SOL     MW 2356   1.346   2.065   0.083  0.0162  0.3555  0.1623
  590SOL     OW 2357   0.432   2.611   2.242 -0.3199  0.2440  0.1975
  590SOL    HW1 2358   0.415   2.613   2.147 -1.6767  1.1237  0.2601
  590SOL    HW2 2359   0.517   2.654   2.243 -0.5860  0.3480 -1.5382
  590SOL     MW 2360   0.441   2.617   2.229 -0.5340  0.3738 -0.0232
  591SOL     OW 2361   2.289   0.710   3.060  0.1320  0.1651  0.3864
  591SOL    HW1 2362   2.210   0.732   3.011  1.2865  0.9094 -2.9812
  591SOL    HW2 2363   2.354   0.767   3.022  1.3094 -2.2493 -0.1464
  591SOL     MW 2364   2.287   0.721   3.048  0.4396 -0.0553 -0.1282
  592SOL     OW 2365   1.845   2.987   0.849  0.1187  0.4848 -0.1672
  592SOL    HW1 2366   1.830   3.020   0.758 -2.6242  2.0275  1.0099
  592SOL    HW2 2367   1.916   2.925   0.825  3.3291  0.2152 -0.3691
  592SOL     MW 2368   1.852   2.983   0.834  0.1804  0.6528 -0.0385
  593SOL     OW 2369   1.917   0.803   0.845  0.1304 -0.4698  0.8491
  593SOL    HW1 2370   1.843   0.785   0.785 -1.6914  1.5697 -2.2572
  593SOL    HW2 2371   1.940   0.712   0.864 -3.3271 -0.7657 -1.3950
  593SOL     MW 2372   1.910   0.788   0.840 -0.5661 -0.2397  0.1432
  594SOL     OW 2373   2.730   1.126   1.359 -0.4840 -0.2854  0.0821
  594SOL    HW1 2374   2.823   1.154   1.368  1.5708  0.6014  0.4740
  594SOL    HW2 2375   2.701   1.104   1.268  2.5120 -0.7282 -1.6743
  594SOL     MW 2376   2.738   1.127   1.348  0.1824 -0.2268 -0.0979
  595SOL     OW 2377   0.454   0.937   0.725  0.7400 -0.1056 -0.1242
  595SOL    HW1 2378   0.455   1.012   0.665 -2.6341 -3.0059  0.2347
  595SOL    HW2 2379   0.451   0.978   0.809 -0.3484  0.4528 -0.1157
  595SOL     MW 2380   0.454   0.952   0.728  0.1512 -0.4146 -0.0757
  596SOL     OW 2381   2.448   1.348   0.580 -0.7089  0.7323  0.3959
  596SOL    HW1 2382   2.498   1.402   0.521  1.3547 -1.1719 -0.4196
  596SOL    HW2 2383   2.511   1.320   0.646 -0.8145 -3.0698 -1.0962
  596SOL     MW 2384   2.463   1.352   0.581 -0.4506 -0.0206  0.0914
  597SOL     OW 2385   2.193   0.667   1.732  0.2356 -0.2390  0.0704
  597SOL    HW1 2386   2.261   0.609   1.769 -1.8724 -1.0637 -0.3653
  597SOL    HW2 2387   2.168   0.626   1.648  2.0434 -1.0774  2.1135
  597SOL     MW 2388   2.199   0.654   1.726  0.1960 -0.4584  0.2825
  598SOL     OW 2389   2.595   1.011   2.869 -0.0837  0.0048 -0.2168
  598SOL    HW1 2390   2.669   0.991   2.803 -2.3342  1.4346  1.0025
  598SOL    HW2 2391   2.638   1.084   2.923 -0.1814  1.7348  1.2482
  598SOL     MW 2392   2.611   1.018   2.867 -0.3935  0.4217  0.1374
  599SOL     OW 2393   2.922   0.362   2.014  0.4279 -0.3856  0.2246
  599SOL    HW1 2394   2.890   0.364   2.105  0.6145 -1.7025 -1.8243
  599SOL    HW2 2395   2.960   0.449   2.004 -4.1778  0.5873  0.2943
  599SOL     MW 2396   2.923   0.374   2.024 -0.1551 -0.4310 -0.0365
  600SOL     OW 2397   1.894   1.718   0.887 -0.2720  0.5114  0.0410
  600SOL    HW1 2398   1.886   1.728   0.982  0.6344 -2.6945  1.8825
  600SOL    HW2 2399   1.806   1.743   0.862  3.0111 -0.1721  0.8845
  600SOL     MW 2400   1.881   1.723   0.896  0.2808 -0.0018  0.3953
  601SOL     OW 2401   2.550   0.800   0.870 -0.4551  0.1393 -0.2478
  601SOL    HW1 2402   2.560   0.823   0.966 -0.1760 -0.3528  0.1999
  601SOL    HW2 2403   2.460   0.781   0.855  2.9807  1.8293  0.0515
  601SOL     MW 2404   2.539   0.801   0.881  0.0350  0.2973 -0.1492
  602SOL     OW 2405   2.311   1.929   0.691  0.1308 -0.4566  0.1212
  602SOL    HW1 2406   2.242   1.866   0.715  0.8991 -0.7308  2.2842
  602SOL    HW2 2407   2.257   1.997   0.647 -0.6267  2.3935  1.7817
  602SOL     MW 2408   2.295   1.929   0.689  0.1323 -0.1167  0.6257
  603SOL     OW 2409   2.978   1.403   1.797 -0.0471 -0.0638 -0.4672
  603SOL    HW1 2410   3.064   1.429   1.839 -0.1037 -0.1038 -0.8867
  603SOL    HW2 2411   2.974   1.310   1.804  0.6698  2.0269  0.8385
  603SOL     MW 2412   2.989   1.394   1.803  0.0400  0.2068 -0.3503
  604SOL     OW 2413   2.113   1.571   0.449  0.3549  1.1205 -0.1017
  604SOL    HW1 2414   2.139   1.516   0.525  0.2173 -0.9448 -2.7561
  604SOL    HW2 2415   2.034   1.616   0.483 -0.4759 -0.3877 -1.3539
  604SOL     MW 2416   2.106   1.570   0.464  0.2272  0.6490 -0.6172
  605SOL     OW 2417   2.655   1.571   0.865  0.2970  0.0495 -0.3621
  605SOL    HW1 2418   2.579   1.605   0.825  2.6955 -1.8285  1.4212
  605SOL    HW2 2419   2.625   1.542   0.953 -1.8428  0.0013  0.4468
  605SOL     MW 2420   2.641   1.572   0.871  0.3311 -0.2046 -0.0201
  606SOL     OW 2421   2.547   1.764   1.999  0.6666  0.2704 -0.5631
  606SOL    HW1 2422   2.452   1.762   1.970 -0.4549 -1.9255  0.5409
  606SOL    HW2 2423   2.592   1.682   1.973 -0.0969 -0.7686  0.7781
  606SOL     MW 2424   2.540   1.753   1.991  0.4179 -0.1564 -0.2405
  607SOL     OW 2425   2.357   1.002   3.000 -0.0564 -0.1930 -0.0059
  607SOL    HW1 2426   2.436   1.029   2.952 -0.3389 -2.5932 -0.7439
  607SOL    HW2 2427   2.383   1.038   3.090  5.1332  0.6703  0.0393
  607SOL     MW 2428   2.371   1.011   3.006  0.5910 -0.3957 -0.0973
  608SOL     OW 2429   1.898   0.289   0.567 -0.2502  0.5176 -0.3621
  608SOL    HW1 2430   1.923   0.329   0.480 -0.4518 -0.5723 -2.6725
  608SOL    HW2 2431   1.906   0.186   0.569 -1.7191 -3.0822 -1.9307
  608SOL     MW 2432   1.902   0.280   0.556 -0.4706 -0.1012 -0.8739
  609SOL     OW 2433   2.164   1.943   3.046  0.0518  0.3863  0.6346
  609SOL    HW1 2434   2.079   1.903   3.017  0.3658 -0.2615 -0.6968
  609SOL    HW2 2435   2.167   1.916   3.140  0.7525  1.3230 -0.1984
  609SOL     MW 2436   2.153   1.934   3.055  0.1857  0.4244  0.3490
  610SOL     OW 2437   1.853   1.064   1.319 -0.1074 -0.5603 -0.4643
  610SOL    HW1 2438   1.869   0.992   1.253 -1.1644  0.7666 -1.4489
  610SOL    HW2 2439   1.762   1.050   1.347 -1.8645  0.9073  0.2110
  610SOL     MW 2440   1.843   1.053   1.314 -0.4787 -0.1916 -0.5051
  611SOL     OW 2441   2.451   1.656   0.715  0.0084 -0.1690 -0.0178
  611SOL    HW1 2442   2.420   1.726   0.662  0.9373 -1.7865  0.3448
  611SOL    HW2 2443   2.500   1.609   0.640 -1.0953  0.1928 -2.2384
  611SOL     MW 2444   2.453   1.659   0.698 -0.0146 -0.3347 -0.2629
  612SOL     OW 2445   2.781   2.841   0.461  0.1911  0.4542  0.4538
  612SOL    HW1 2446   2.828   2.889   0.530 -2.0299 -0.2360  0.2243
  612SOL    HW2 2447   2.853   2.801   0.406 -1.0095  0.6156 -0.9313
  612SOL     MW 2448   2.797   2.842   0.463 -0.2604  0.3844  0.2408
  613SOL     OW 2449   1.569   1.056   1.115 -0.8218  0.6391 -0.3244
  613SOL    HW1 2450   1.569   1.153   1.129 -0.4470 -1.3159 -2.0871
  613SOL    HW2 2451   1.653   1.021   1.146 -0.6206 -1.2642 -0.1862
  613SOL     MW 2452   1.580   1.064   1.121 -0.7458  0.1301 -0.5387
  614SOL     OW 2453   2.044   0.557   1.499 -0.0326  0.7403  0.0760
  614SOL    HW1 2454   2.036   0.470   1.533  3.0113  0.0758  1.8257
  614SOL    HW2 2455   2.029   0.548   1.404 -1.6060 -0.2931 -0.8266
  614SOL     MW 2456   2.041   0.544   1.491  0.1614  0.5163  0.1878
  615SOL     OW 2457   2.279   0.853   0.209 -0.3505 -0.5980  0.6362
  615SOL    HW1 2458   2.324   0.788   0.258 -0.4643 -1.0713 -0.3630
  615SOL    HW2 2459   2.286   0.823   0.119  1.7069  0.4996  2.5240
  615SOL     MW 2460   2.286   0.840   0.204 -0.0941 -0.5156  0.7534
  616SOL     OW 2461   2.542   0.427   1.612 -0.5348 -0.0253  0.1618
  616SOL    HW1 2462   2.490   0.352   1.582 -2.4777  1.4188  1.2558
  616SOL    HW2 2463   2.594   0.460   1.534 -0.9334 -0.9408 -0.6694
  616SOL     MW 2464   2.542   0.422   1.598 -0.8437  0.0445  0.1964
  617SOL     OW 2465   2.869   0.573   1.719 -0.3020  0.4237 -0.3060
  617SOL    HW1 2466   2.795   0.612   1.759  2.7653  1.0109 -0.5326
  617SOL    HW2 2467   2.840   0.480   1.723 -2.5448  1.6441  1.6269
  617SOL     MW 2468   2.855   0.566   1.724 -0.1932  0.6622 -0.0808
  618SOL     OW 2469   2.657   0.360   1.899  0.5078 -0.1350 -0.1416
  618SOL    HW1 2470   2.642   0.454   1.917 -0.3573 -1.2071  2.0611
  618SOL    HW2 2471   2.741   0.334   1.934 -0.5337 -1.1058 -1.6418
  618SOL     MW 2472   2.666   0.369   1.906  0.2563 -0.4046 -0.0489
  619SOL     OW 2473   2.583   0.812   0.158 -0.3474 -0.9822  0.2039
  619SOL    HW1 2474   2.658   0.872   0.188  2.1163 -0.9664 -0.5206
  619SOL    HW2 2475   2.543   0.766   0.236 -0.7474 -0.5504  3.5165
  619SOL     MW 2476   2.588   0.814   0.172 -0.0751 -0.9232  0.5454
  620SOL     OW 2477   2.291   1.094   0.943  0.1440  0.0569  0.2874
  620SOL    HW1 2478   2.306   1.096   0.849 -0.5731  2.3711 -0.5442
  620SOL    HW2 2479   2.241   1.009   0.951  1.6895 -1.8296 -1.2319
  620SOL     MW 2480   2.286   1.083   0.932  0.2533  0.1133 -0.0228
  621SOL     OW 2481   1.474   2.121   2.002  0.4695 -0.1216  0.3903
  621SOL    HW1 2482   1.408   2.056   2.005  1.5242  0.9277 -1.5792
  621SOL    HW2 2483   1.554   2.091   2.038 -1.1112 -0.9661  0.3034
  621SOL     MW 2484   1.476   2.109   2.007  0.4001 -0.0946  0.1189
  622SOL     OW 2485   2.616   0.144   0.207  0.0877 -0.4210  0.6296
  622SOL    HW1 2486   2.713   0.153   0.187  1.5412 -2.7608  0.4987
  622SOL    HW2 2487   2.592   0.050   0.176  1.8451  0.9655  0.4926
  622SOL     MW 2488   2.626   0.132   0.200  0.5114 -0.5468  0.5942
  623SOL     OW 2489   2.351   2.763   0.862 -0.0238 -0.6867  0.7146
  623SOL    HW1 2490   2.415   2.831   0.860 -0.2272 -0.6010  0.5618
  623SOL    HW2 2491   2.307   2.776   0.944 -0.6241  0.8290 -0.0293
  623SOL     MW 2492   2.354   2.773   0.872 -0.1299 -0.4754  0.5963
  624SOL     OW 2493   2.250   1.657   3.044  0.1982  0.1116  0.1491
  624SOL    HW1 2494   2.181   1.620   3.092  1.4577 -0.7064 -0.9399
  624SOL    HW2 2495   2.221   1.743   3.021  1.4413 -0.3253  0.1419
  624SOL     MW 2496   2.237   1.663   3.047  0.5284 -0.0540  0.0045
  625SOL     OW 2497   2.135   1.933   1.056 -0.4372  0.7064 -0.1842
  625SOL    HW1 2498   2.187   1.885   1.116 -3.9495  1.2174  1.3003
  625SOL    HW2 2499   2.153   1.892   0.973  0.1302  0.3487 -0.1800
  625SOL     MW 2500   2.144   1.921   1.053 -0.8258  0.7266  0.0122
  626SOL     OW 2501   0.160   1.547   2.361  0.2348  0.2277 -0.7890
  626SOL    HW1 2502   0.141   1.462   2.317  3.6625  0.5220  2.0096
  626SOL    HW2 2503   0.129   1.549   2.450  0.8817  4.9624 -0.4017
  626SOL     MW 2504   0.153   1.536   2.367  0.7724  0.8912 -0.3687
  627SOL     OW 2505   2.455   0.815   2.576  0.7893  0.2502  0.6536
  627SOL    HW1 2506   2.409   0.905   2.575 -0.6033 -0.2016 -3.7819
  627SOL    HW2 2507   2.430   0.768   2.496 -1.9584 -0.3535  2.3738
  627SOL     MW 2508   2.446   0.820   2.565  0.2431  0.1109  0.2953
  628SOL     OW 2509   2.272   1.362   1.355 -0.8497  0.0898 -0.3764
  628SOL    HW1 2510   2.262   1.290   1.296 -1.6862  3.3374 -2.0660
  628SOL    HW2 2511   2.368   1.361   1.361  0.5510  1.0546  0.1559
  628SOL     MW 2512   2.284   1.352   1.348 -0.7753  0.6456 -0.5291
  629SOL     OW 2513   2.001   0.541   1.222  0.4499  0.3394  0.0441
  629SOL    HW1 2514   2.069   0.616   1.208 -0.3551  1.6467  1.7610
  629SOL    HW2 2515   1.916   0.583   1.241 -0.0790 -3.2008  1.0142
  629SOL     MW 2516   1.999   0.556   1.223  0.2739  0.0448  0.3986
  630SOL     OW 2517   2.525   1.809   3.050 -0.4289 -0.0163 -0.7871
  630SOL    HW1 2518   2.476   1.868   3.000 -0.7078 -1.1567 -0.6451
  630SOL    HW2 2519   2.472   1.736   3.066 -0.2882  1.8766 -0.6651
  630SOL     MW 2520   2.511   1.807   3.045 -0.4471  0.0830 -0.7523
  631SOL     OW 2521   1.971   1.797   1.580 -0.0156  0.2348 -0.1459
  631SOL    HW1 2522   2.035   1.728   1.607 -0.0068 -1.1754 -2.4434
  631SOL    HW2 2523   1.930   1.771   1.492  0.0437  0.6636 -2.4216
  631SOL     MW 2524   1.974   1.785   1.572 -0.0066  0.1053 -0.7493
  632SOL     OW 2525   0.143   2.088   1.556 -0.1889  0.2366 -1.0624
  632SOL    HW1 2526   0.070   2.080   1.618 -0.8449 -3.5184  2.6799
  632SOL    HW2 2527   0.132   1.998   1.515  1.4415  0.8582  0.9525
  632SOL     MW 2528   0.132   2.075   1.558 -0.0603 -0.1768 -0.3028
  633SOL     OW 2529   2.423   0.681   0.355 -0.1612 -0.5019 -0.2431
  633SOL    HW1 2530   2.502   0.667   0.407  0.0666  2.5118  3.1665
  633SOL    HW2 2531   2.356   0.610   0.364 -2.3183  1.4480 -0.5587
  633SOL     MW 2532   2.425   0.670   0.363 -0.4157  0.1530  0.1651
  634SOL     OW 2533   2.649   3.087   0.651  0.2474  0.2978  0.4925
  634SOL    HW1 2534   2.669   3.179   0.641  0.4657  0.1276  2.4192
  634SOL    HW2 2535   2.621   3.057   0.562 -0.8159  0.1722 -2.0089
  634SOL     MW 2536   2.648   3.095   0.638  0.1359  0.2588  0.4167
  635SOL     OW 2537   2.585   0.105   1.799  0.0167 -0.7991  0.0861
  635SOL    HW1 2538   2.652   0.059   1.748 -0.1404 -1.8693 -0.2150
  635SOL    HW2 2539   2.622   0.192   1.816 -3.8340  0.5423  0.9023
  635SOL     MW 2540   2.598   0.110   1.795 -0.5121 -0.7633  0.1541
  636SOL     OW 2541   2.950   1.661   0.962 -0.3168  0.4198 -0.1263
  636SOL    HW1 2542   2.863   1.697   0.941 -1.3081  1.9065 -1.9255
  636SOL    HW2 2543   2.946   1.681   1.056 -2.2751  1.9823  0.8341
  636SOL     MW 2544   2.938   1.669   0.972 -0.7060  0.8221 -0.2370
  637SOL     OW 2545   2.885   1.488   0.682 -0.4502  0.2963 -0.2474
  637SOL    HW1 2546   2.951   1.552   0.715  0.3852 -1.9646 -1.1352
  637SOL    HW2 2547   2.816   1.483   0.751 -0.1391  0.7750  1.2495
  637SOL     MW 2548   2.884   1.496   0.696 -0.2989  0.0612 -0.1670
  638SOL     OW 2549   2.651   0.646   0.505  0.6191 -0.2996  0.4294
  638SOL    HW1 2550   2.726   0.662   0.452 -1.1822 -1.3249  0.5436
  638SOL    HW2 2551   2.690   0.590   0.571 -1.2179 -1.1623 -0.6627
  638SOL     MW 2552   2.666   0.641   0.507  0.1391 -0.5487  0.3004
  639SOL     OW 2553   1.837   0.018   0.546  0.2316  0.5718 -0.8311
  639SOL    HW1 2554   1.756   0.069   0.551  1.9797 -1.1577  0.4491
  639SOL    HW2 2555   1.834  -0.040   0.470 -1.0940 -0.6250 -0.0674
  639SOL     MW 2556   1.826   0.017   0.536  0.2874  0.1857 -0.5614
  640SOL     OW 2557   0.354   1.362   0.073 -0.6707 -0.4990 -0.4695
  640SOL    HW1 2558   0.385   1.377  -0.021 -0.4620  2.2927 -2.0019
  640SOL    HW2 2559   0.301   1.284   0.078  1.1643  0.9286 -0.1018
  640SOL     MW 2560   0.351   1.354   0.061 -0.4010  0.0577 -0.6231
  641SOL     OW 2561   2.254   0.452   0.380  0.6973  0.1518  0.0548
  641SOL    HW1 2562   2.273   0.431   0.288  0.6447  0.3559  0.2536
  641SOL    HW2 2563   2.318   0.417   0.438 -0.1228 -0.6207  0.9701
  641SOL     MW 2564   2.265   0.444   0.376  0.5822  0.0768  0.2018
  642SOL     OW 2565   0.008   3.086   0.560  0.7103 -0.1495  0.0628
  642SOL    HW1 2566  -0.041   3.171   0.561  0.6719  0.0915 -1.8881
  642SOL    HW2 2567  -0.054   3.017   0.586 -2.1434  0.1308  0.8029
  642SOL     MW 2568  -0.007   3.088   0.564  0.3287 -0.0807 -0.0969
  643SOL     OW 2569   2.019   0.348   1.672  0.1602 -0.1611  0.6862
  643SOL    HW1 2570   2.086   0.309   1.728  0.1429 -0.8152  0.3799
  643SOL    HW2 2571   2.037   0.290   1.593 -3.5492  1.0565 -0.4324
  643SOL     MW 2572   2.030   0.335   1.669 -0.3315 -0.0868  0.4982
  644SOL     OW 2573   2.716   1.868   1.020 -0.1500  0.5396  0.4172
  644SOL    HW1 2574   2.672   1.834   1.100 -3.0509  2.6294  2.2800
  644SOL    HW2 2575   2.642   1.906   0.974  1.7183 -0.7790  0.8312
  644SOL     MW 2576   2.700   1.869   1.024 -0.2863  0.6413  0.7176
  645SOL     OW 2577   2.820   0.893   0.647  0.3183 -0.1479  0.1446
  645SOL    HW1 2578   2.887   0.851   0.696 -0.1934  0.4144  0.1782
  645SOL    HW2 2579   2.748   0.839   0.673 -0.7752  2.9046 -0.7987
  645SOL     MW 2580   2.820   0.880   0.657  0.1065  0.3290  0.0246
  646SOL     OW 2581   0.179   2.250   0.849  0.1795 -0.0228  0.2138
  646SOL    HW1 2582   0.227   2.165   0.835  0.1901 -1.8504  3.1294
  646SOL    HW2 2583   0.116   2.275   0.774 -0.5925  1.4916  2.3629
  646SOL     MW 2584   0.177   2.242   0.837  0.0790 -0.0641  0.8820
  647SOL     OW 2585   2.713   0.543   2.975 -0.6578 -0.1975 -0.0340
  647SOL    HW1 2586   2.662   0.470   3.012 -1.8202 -3.1759 -0.8008
  647SOL    HW2 2587   2.666   0.621   2.983  1.8379 -0.1938 -0.0576
  647SOL     MW 2588   2.700   0.544   2.981 -0.4819 -0.5900 -0.1383
  648SOL     OW 2589   2.198   0.724   1.166 -0.8417 -0.0509 -0.5720
  648SOL    HW1 2590   2.202   0.763   1.081  2.5116  0.8385  1.7749
  648SOL    HW2 2591   2.222   0.796   1.226  0.4581 -0.4928 -0.3125
  648SOL     MW 2592   2.202   0.739   1.162 -0.2278  0.0082 -0.2281
  649SOL     OW 2593   2.392   2.730   1.256  0.1342 -0.1237  0.3461
  649SOL    HW1 2594   2.476   2.779   1.248 -0.9790 -0.3635 -0.4087
  649SOL    HW2 2595   2.397   2.653   1.199  0.7208  3.3822 -1.4694
  649SOL     MW 2596   2.404   2.726   1.247  0.0647  0.3072  0.0069
  650SOL     OW 2597   2.809   0.240   0.648  0.2755 -0.1426  0.5072
  650SOL    HW1 2598   2.838   0.289   0.724 -2.0058  1.9834  0.8020
  650SOL    HW2 2599   2.883   0.254   0.583  1.1748 -0.6457  1.2213
  650SOL     MW 2600   2.822   0.248   0.650  0.0932  0.0715  0.6403
  651SOL     OW 2601   2.997   0.359   0.842  0.4129  0.4027 -0.0903
  651SOL    HW1 2602   3.081   0.386   0.794 -0.2084  0.7609  0.9860
  651SOL    HW2 2603   2.976   0.429   0.905  0.6534 -1.3710  0.1704
  651SOL     MW 2604   3.005   0.372   0.844  0.3627  0.2159  0.0861
  652SOL     OW 2605   2.388   1.401   2.970  0.0824  0.0049 -0.2431
  652SOL    HW1 2606   2.450   1.424   2.898  1.1449 -0.7719  3.8185
  652SOL    HW2 2607   2.343   1.485   2.999  0.4765 -0.9799  0.7833
  652SOL     MW 2608   2.390   1.415   2.964  0.2746 -0.2275  0.4282
  653SOL     OW 2609   1.959   0.423   0.352 -0.6044  0.0870 -0.3263
  653SOL    HW1 2610   1.957   0.377   0.271  1.5583 -1.1820  1.2637
  653SOL    HW2 2611   2.052   0.438   0.359 -1.2422 -2.7757 -0.7427
  653SOL     MW 2612   1.971   0.419   0.342 -0.4032 -0.4581 -0.1715
  654SOL     OW 2613   2.469   1.040   0.713  0.0316  0.1745  0.6253
  654SOL    HW1 2614   2.386   1.017   0.677 -0.2449 -0.7064  2.0044
  654SOL    HW2 2615   2.493   0.971   0.773 -1.5981 -0.1654 -0.8850
  654SOL     MW 2616   2.462   1.028   0.716 -0.2199  0.0134  0.6080
  655SOL     OW 2617   3.010   0.925   0.420  0.0371 -0.0638 -0.0888
  655SOL    HW1 2618   2.993   0.952   0.511 -3.5566  1.1233 -0.3328
  655SOL    HW2 2619   2.996   0.826   0.426 -1.1946 -1.8556 -2.3396
  655SOL     MW 2620   3.006   0.916   0.432 -0.5996 -0.1436 -0.4180
  656SOL     OW 2621   1.950   2.745   1.228  0.0613 -0.8749  0.1388
  656SOL    HW1 2622   1.910   2.815   1.270  1.6513 -0.6468 -2.1495
  656SOL    HW2 2623   1.978   2.681   1.288  1.6047 -0.4569 -2.9801
  656SOL     MW 2624   1.948   2.746   1.241  0.4747 -0.7896 -0.5746
  657SOL     OW 2625   0.241   1.524   1.239 -0.3593  0.2493 -0.3232
  657SOL    HW1 2626   0.152   1.489   1.257 -0.6226 -1.6852  1.1452
  657SOL    HW2 2627   0.240   1.528   1.142  0.9069 -0.8190 -0.2309
  657SOL     MW 2628   0.229   1.520   1.229 -0.2270 -0.1469 -0.1173
  658SOL     OW 2629   2.701   1.395   0.249  0.4197  0.3996  0.0686
  658SOL    HW1 2630   2.643   1.331   0.289  0.7545 -0.7135 -0.3359
  658SOL    HW2 2631   2.730   1.444   0.324  1.2219 -0.4107  1.5268
  658SOL     MW 2632   2.697   1.393   0.264  0.5697  0.1458  0.2076
  659SOL     OW 2633   2.274   1.550   1.039  0.8364 -0.2759  0.6211
  659SOL    HW1 2634   2.366   1.538   1.055 -3.8193 -0.6800 -0.7014
  659SOL    HW2 2635   2.221   1.552   1.119 -1.8689  2.0439  0.8878
  659SOL     MW 2636   2.279   1.549   1.052 -0.1348 -0.0232  0.4818
  660SOL     OW 2637   2.055   1.555   1.682  0.4268  0.4818 -0.2321
  660SOL    HW1 2638   2.050   1.589   1.777 -1.3452  0.8396 -0.3230
  660SOL    HW2 2639   2.006   1.476   1.675  1.6240  1.8527  0.8016
  660SOL     MW 2640   2.048   1.549   1.694  0.3510  0.7099 -0.1077
  661SOL     OW 2641   2.378   1.093   0.179  0.6308  0.5877 -0.1721
  661SOL    HW1 2642   2.435   1.107   0.253 -0.7156  3.1766  2.8531
  661SOL    HW2 2643   2.336   1.005   0.200 -0.2028  1.1224  0.3453
  661SOL     MW 2644   2.380   1.083   0.192  0.3431  0.9998  0.2953
  662SOL     OW 2645   2.518   2.976   0.868 -0.1573 -0.0947  0.1877
  662SOL    HW1 2646   2.460   3.044   0.906  0.3143 -1.3008 -1.3216
  662SOL    HW2 2647   2.551   3.013   0.787  0.2483  0.3735 -0.1043
  662SOL     MW 2648   2.515   2.990   0.862 -0.0416 -0.1920 -0.0500
  663SOL     OW 2649   2.806   1.574   0.430 -0.3479 -0.4100 -0.2055
  663SOL    HW1 2650   2.883   1.620   0.392 -0.7464  1.1520 -0.0285
  663SOL    HW2 2651   2.835   1.538   0.510 -1.5484 -1.1145 -2.1468
  663SOL     MW 2652   2.820   1.575   0.435 -0.5589 -0.2969 -0.4383
  664SOL     OW 2653   2.496   1.594   1.546 -0.1529  0.2969 -0.6306
  664SOL    HW1 2654   2.464   1.686   1.542  2.3121 -0.1236  3.8101
  664SOL    HW2 2655   2.425   1.540   1.578  0.0650  1.4916  2.4916
  664SOL     MW 2656   2.483   1.599   1.550  0.2011  0.3991  0.3673
  665SOL     OW 2657   2.872   0.801   2.047  0.2678 -0.0374  0.1423
  665SOL    HW1 2658   2.861   0.865   1.979  2.8616  1.3102  3.3586
  665SOL    HW2 2659   2.938   0.739   2.018  0.8662 -0.5756 -1.5659
  665SOL     MW 2660   2.879   0.801   2.035  0.6890  0.0694  0.3413
  666SOL     OW 2661   2.795   3.028   1.683 -0.1361  0.2034 -0.0668
  666SOL    HW1 2662   2.802   3.048   1.588  2.8242  1.0744  0.4997
  666SOL    HW2 2663   2.756   2.938   1.686  2.1459 -3.6860 -1.1990
  666SOL     MW 2664   2.791   3.019   1.671  0.5556 -0.1948 -0.1415
  667SOL     OW 2665   1.964   2.721   1.611  0.3123 -0.1513  0.1049
  667SOL    HW1 2666   1.952   2.645   1.670 -1.8447  2.9611  2.3263
  667SOL    HW2 2667   2.056   2.752   1.627 -1.0502 -1.6960 -0.8232
  667SOL     MW 2668   1.975   2.715   1.621 -0.1521  0.0555  0.2755
  668SOL     OW 2669   2.736   0.624   0.782  0.1104 -0.0571 -0.5360
  668SOL    HW1 2670   2.817   0.617   0.835 -0.6772  0.3662 -1.9195
  668SOL    HW2 2671   2.679   0.687   0.832  0.8501 -3.6875 -0.7465
  668SOL     MW 2672   2.739   0.631   0.795  0.1041 -0.4802 -0.7463
  669SOL     OW 2673   0.172   0.895   0.730  0.2194  0.5412 -0.3689
  669SOL    HW1 2674   0.146   0.985   0.715 -0.5515 -0.0724  0.1447
  669SOL    HW2 2675   0.275   0.897   0.747  1.2973  0.4587  0.3781
  669SOL     MW 2676   0.182   0.907   0.730  0.2599  0.4493 -0.2026
  670SOL     OW 2677   2.939   0.288   0.203  0.2331  0.0046 -0.5456
  670SOL    HW1 2678   2.951   0.214   0.140 -0.7789 -0.7346 -2.4506
  670SOL    HW2 2679   2.923   0.370   0.148  0.6772  1.8282  0.0570
  670SOL     MW 2680   2.939   0.289   0.188  0.1581  0.1477 -0.7174
  671SOL     OW 2681   2.166   3.092   1.605 -0.3868 -0.2871 -0.1825
  671SOL    HW1 2682   2.146   3.148   1.529  2.5666 -0.4309  2.7850
  671SOL    HW2 2683   2.089   3.083   1.669 -0.1542  0.2531 -0.9724
  671SOL     MW 2684   2.153   3.098   1.603  0.0336 -0.2348  0.1048
  672SOL     OW 2685   1.867   1.702   1.341  0.0321 -0.0939 -0.2958
  672SOL    HW1 2686   1.776   1.718   1.361 -3.3413  2.8101  1.2935
  672SOL    HW2 2687   1.888   1.756   1.267 -0.9840  0.5977  2.7021
  672SOL     MW 2688   1.858   1.711   1.334 -0.5470  0.3805  0.3094
  673SOL     OW 2689   2.786   1.107   0.487 -0.8008  0.0269  0.4871
  673SOL    HW1 2690   2.783   1.020   0.534  0.4519 -0.0009 -0.2055
  673SOL    HW2 2691   2.867   1.148   0.537  1.4084  1.5775  0.5436
  673SOL     MW 2692   2.796   1.101   0.500 -0.3440  0.2278  0.4032
  674SOL     OW 2693   2.490   0.077   1.284 -0.5173  0.4912 -0.5368
  674SOL    HW1 2694   2.450   0.067   1.195 -0.8382 -1.6520  3.3141
  674SOL    HW2 2695   2.524  -0.015   1.294 -0.0347  0.2313  0.6746
  674SOL     MW 2696   2.489   0.064   1.274 -0.4959  0.1742  0.1311
  675SOL     OW 2697   2.984   1.046   1.120  0.7078 -0.4653  0.1416
  675SOL    HW1 2698   3.028   0.985   1.182 -0.1212  1.9478 -0.4814
  675SOL    HW2 2699   3.000   1.017   1.028 -0.1225 -0.8451 -0.4558
  675SOL     MW 2700   2.992   1.034   1.116  0.4889 -0.1970 -0.0194
  676SOL     OW 2701   2.787   1.489   1.620  0.1919  0.3941 -0.3925
  676SOL    HW1 2702   2.774   1.400   1.624  1.5394  3.0887 -2.3778
  676SOL    HW2 2703   2.876   1.491   1.662 -2.7409  0.4078  2.5797
  676SOL     MW 2704   2.797   1.478   1.626 -0.0173  0.7514 -0.2623
  677SOL     OW 2705   2.430   0.812   1.887 -0.5009 -0.1456  0.0180
  677SOL    HW1 2706   2.365   0.769   1.840  0.1559 -3.0631  1.1238
  677SOL    HW2 2707   2.384   0.851   1.957  1.4434  1.9097  0.7488
  677SOL     MW 2708   2.416   0.811   1.890 -0.1577 -0.2594  0.2603
  678SOL     OW 2709   2.539   1.593   0.457  0.8334  0.3184  0.1042
  678SOL    HW1 2710   2.485   1.661   0.422 -1.1461 -1.2019 -2.5302
  678SOL    HW2 2711   2.631   1.603   0.439  3.4655  0.9438  2.8026
  678SOL     MW 2712   2.544   1.604   0.450  0.9195  0.2003  0.1126
  679SOL     OW 2713   2.362   0.486   1.097 -0.1126  0.1834 -0.3901
  679SOL    HW1 2714   2.303   0.422   1.144 -1.2045  1.2556  2.9686
  679SOL    HW2 2715   2.325   0.572   1.100 -0.9064 -0.1736 -2.3281
  679SOL     MW 2716   2.349   0.489   1.103 -0.3614  0.2777 -0.2027
  680SOL     OW 2717   2.389   0.268   1.445 -0.2748 -0.7934  0.2737
  680SOL    HW1 2718   2.363   0.221   1.530 -2.4665  1.6269  3.1225
  680SOL    HW2 2719   2.438   0.208   1.389  0.6473  3.4229 -0.7464
  680SOL     MW 2720   2.392   0.254   1.449 -0.4423  0.0823  0.5150
  681SOL     OW 2721   0.292   0.540   1.577 -0.0318  0.0881  0.1351
  681SOL    HW1 2722   0.270   0.463   1.626  1.6981  1.2151  2.5467
  681SOL    HW2 2723   0.383   0.559   1.581 -2.7467  0.3308  1.0036
  681SOL     MW 2724   0.301   0.532   1.584 -0.1617  0.2688  0.5679
  682SOL     OW 2725   0.155   2.994   1.498  0.0165 -0.6580  0.4049
  682SOL    HW1 2726   0.163   3.087   1.470 -0.7924  1.8647 -0.1495
  682SOL    HW2 2727   0.080   3.005   1.565 -0.4551  4.8290 -0.6891
  682SOL     MW 2728   0.146   3.008   1.503 -0.1524  0.3988  0.1874
  683SOL     OW 2729   2.041   0.822   2.998  0.6077 -0.3983  0.3675
  683SOL    HW1 2730   1.963   0.787   2.954 -0.7273  0.0356  1.6312
  683SOL    HW2 2731   2.023   0.905   3.036  2.4393  2.0723 -0.4199
  683SOL     MW 2732   2.029   0.828   2.997  0.6732 -0.0151  0.4304
  684SOL     OW 2733   2.159   1.759   0.846  0.1785  0.4402  0.1271
  684SOL    HW1 2734   2.067   1.753   0.879  1.5310  0.9955 -1.4042
  684SOL    HW2 2735   2.213   1.698   0.905 -0.5656 -1.9460 -0.7201
  684SOL     MW 2736   2.154   1.750   0.858  0.2588  0.1986 -0.1867
  685SOL     OW 2737   2.568   1.731   1.217 -0.0012  0.1700  0.0476
  685SOL    HW1 2738   2.630   1.727   1.288 -3.2832 -1.3040  0.3247
  685SOL    HW2 2739   2.561   1.643   1.183  2.6638  0.3266  0.7272
  685SOL     MW 2740   2.575   1.718   1.222 -0.0826 -0.0038  0.1738
  686SOL     OW 2741   2.901   0.704   1.492 -0.5823  0.3840  0.0194
  686SOL    HW1 2742   2.915   0.657   1.576  0.0660 -2.3971  0.9097
  686SOL    HW2 2743   2.984   0.758   1.495  1.2591 -0.7849  1.3775
  686SOL     MW 2744   2.914   0.705   1.504 -0.2538 -0.1371  0.3161
  687SOL     OW 2745   2.173   0.325   1.204 -0.2108 -0.4118  0.3419
  687SOL    HW1 2746   2.143   0.286   1.120  2.2022  1.1699 -3.4313
  687SOL    HW2 2747   2.102   0.389   1.230  0.8668  1.5047 -2.3106
  687SOL     MW 2748   2.160   0.328   1.197  0.2497  0.0498 -0.5059
  688SOL     OW 2749   2.356   0.556   1.433  0.5579 -0.1639  0.8207
  688SOL    HW1 2750   2.397   0.550   1.519  2.7074  0.0259  0.7277
  688SOL    HW2 2751   2.330   0.468   1.406  3.9065  1.1693 -1.0425
  688SOL     MW 2752   2.358   0.544   1.441  1.2833  0.0370  0.5626
  689SOL     OW 2753   2.588   0.780   2.991  0.1212  0.1463 -0.1767
  689SOL    HW1 2754   2.579   0.866   2.944 -0.2929 -1.8372 -2.6564
  689SOL    HW2 2755   2.584   0.807   3.090  1.1725 -0.1103  0.7399
  689SOL     MW 2756   2.586   0.795   2.998  0.2053 -0.1493 -0.3829
  690SOL     OW 2757   2.069   0.993   1.969  0.6871 -1.1813  0.0468
  690SOL    HW1 2758   2.017   0.908   1.968  1.6502 -0.6075  0.3380
  690SOL    HW2 2759   2.110   0.999   1.878  1.3854 -0.2737 -2.6031
  690SOL     MW 2760   2.068   0.982   1.957  0.9063 -0.9858 -0.2644
  691SOL     OW 2761   2.466   0.247   0.824  0.0519 -0.4367  0.0763
  691SOL    HW1 2762   2.540   0.294   0.865 -0.1347 -1.1683  0.3712
  691SOL    HW2 2763   2.390   0.312   0.851 -1.0799  2.2183  0.1075
  691SOL     MW 2764   2.466   0.262   0.833 -0.1220 -0.1829  0.1194
  692SOL     OW 2765   2.789   1.700   1.384  0.6960  0.4898  0.5380
  692SOL    HW1 2766   2.787   1.638   1.458 -1.7753  1.0773 -1.3718
  692SOL    HW2 2767   2.835   1.769   1.429 -0.7306 -2.4602 -2.4502
  692SOL     MW 2768   2.794   1.701   1.400  0.1817  0.1781 -0.1083
  693SOL     OW 2769   2.265   0.438   0.097 -0.2349  0.2809 -0.3336
  693SOL    HW1 2770   2.192   0.396   0.058  4.2564  2.4576  1.4998
  693SOL    HW2 2771   2.266   0.527   0.062  2.8317  1.8553 -0.9468
  693SOL     MW 2772   2.255   0.445   0.088  0.7623  0.7758 -0.1726
  694SOL     OW 2773   1.975   1.271   1.154 -0.4565 -0.3234 -0.6973
  694SOL    HW1 2774   2.066   1.249   1.171 -1.0973  0.4221  0.8229
  694SOL    HW2 2775   1.932   1.200   1.202  1.6639 -2.9655 -0.6005
  694SOL     MW 2776   1.981   1.259   1.162 -0.2613 -0.5737 -0.4840
  695SOL     OW 2777   2.951   1.464   1.307 -0.0497 -0.3112 -0.3358
  695SOL    HW1 2778   2.953   1.422   1.216 -1.3150 -0.4650 -3.2786
  695SOL    HW2 2779   2.886   1.534   1.314 -1.2793 -0.7578  2.2442
  695SOL     MW 2780   2.943   1.468   1.296 -0.3789 -0.3904 -0.3837
  696SOL     OW 2781   2.057   1.397   0.915  0.3841 -0.0522 -0.5435
  696SOL    HW1 2782   2.139   1.445   0.927  0.2554 -0.4846  3.8504
  696SOL    HW2 2783   2.035   1.347   0.992  2.3119 -2.6084  0.9195
  696SOL     MW 2784   2.065   1.397   0.926  0.6215 -0.4465  0.2292
  697SOL     OW 2785   2.860   0.975   2.278  0.3328  0.6012 -0.3547
  697SOL    HW1 2786   2.817   1.042   2.215  0.7126  1.9145 -1.0264
  697SOL    HW2 2787   2.855   0.893   2.225 -2.8463  0.5321 -0.3746
  697SOL     MW 2788   2.854   0.973   2.262 -0.0366  0.7653 -0.4459
  698SOL     OW 2789   2.535   0.337   0.032 -0.2172  0.4022 -0.0979
  698SOL    HW1 2790   2.451   0.366   0.058  1.7594  0.4487  3.2256
  698SOL    HW2 2791   2.569   0.276   0.098 -0.5432 -2.4314  1.1914
  698SOL     MW 2792   2.529   0.333   0.044  0.0005  0.0345  0.5107
  699SOL     OW 2793   1.839   1.619   2.068  0.6626  0.0513  0.3006
  699SOL    HW1 2794   1.835   1.524   2.087 -0.0873  1.4845 -2.4780
  699SOL    HW2 2795   1.932   1.626   2.044  0.1295  0.2130 -1.3155
  699SOL     MW 2796   1.851   1.607   2.068  0.4933  0.2617 -0.2792
  700SOL     OW 2797   2.728   0.916   1.538  0.1292 -0.2289  0.5024
  700SOL    HW1 2798   2.696   0.969   1.468 -2.1796  1.2214  3.8508
  700SOL    HW2 2799   2.795   0.863   1.502 -2.1192  1.0324  0.7729
  700SOL     MW 2800   2.733   0.916   1.524 -0.4721  0.1289  0.9799
  701SOL     OW 2801   1.672   1.285   2.624  0.0841  0.4239  0.4671
  701SOL    HW1 2802   1.766   1.306   2.630 -0.0306  0.1738  0.1921
  701SOL    HW2 2803   1.629   1.349   2.684 -0.4241 -3.2385  0.3893
  701SOL     MW 2804   1.679   1.296   2.632  0.0019 -0.0923  0.4206
  702SOL     OW 2805   2.261   0.447   0.811  0.1566 -0.0322 -0.0853
  702SOL    HW1 2806   2.215   0.388   0.745 -1.0767  0.0333  0.6984
  702SOL    HW2 2807   2.294   0.521   0.754 -1.5648 -0.2283 -2.3744
  702SOL     MW 2808   2.259   0.449   0.795 -0.2333 -0.0494 -0.2839
  703SOL     OW 2809   2.647   1.287   0.968  0.2340 -0.2895 -0.6310
  703SOL    HW1 2810   2.651   1.263   0.877  1.1673  1.8729 -0.1067
  703SOL    HW2 2811   2.680   1.209   1.020 -1.0861 -1.4083  3.3798
  703SOL     MW 2812   2.652   1.273   0.963  0.1830 -0.1518 -0.0327
  704SOL     OW 2813   0.023   1.304   0.250  0.1306  0.8340  0.1813
  704SOL    HW1 2814  -0.058   1.268   0.217  2.6968 -0.8243  0.3563
  704SOL    HW2 2815   0.071   1.225   0.257 -3.6644 -0.8542 -0.7906
  704SOL     MW 2816   0.019   1.289   0.246 -0.0315  0.3925  0.0762
  705SOL     OW 2817   2.148   1.583   1.290  0.1123 -0.4902 -0.7372
  705SOL    HW1 2818   2.072   1.572   1.341  2.6094  1.0441  1.2602
  705SOL    HW2 2819   2.199   1.507   1.334 -1.9813  1.6394  1.3975
  705SOL     MW 2820   2.145   1.571   1.303  0.1656 -0.0068 -0.1920
  706SOL     OW 2821   2.997   1.242   0.589  0.4687 -0.0962  0.4129
  706SOL    HW1 2822   3.085   1.237   0.558 -1.0419  1.3234  1.8461
  706SOL    HW2 2823   2.984   1.332   0.613 -0.0804 -1.4275 -1.3231
  706SOL     MW 2824   3.007   1.253   0.588  0.1970 -0.0845  0.3730
  707SOL     OW 2825   2.385   0.065   1.020  0.1625 -0.2281 -0.5905
  707SOL    HW1 2826   2.413   0.139   0.969 -0.0828 -0.1685 -0.7858
  707SOL    HW2 2827   2.292   0.047   1.004  0.7407 -0.7913  0.0144
  707SOL     MW 2828   2.377   0.072   1.012  0.2064 -0.2946 -0.5365
  708SOL     OW 2829   2.532   1.530   0.079  0.4363  1.0501  0.2519
  708SOL    HW1 2830   2.595   1.495   0.142 -4.4512  2.9033  2.7176
  708SOL    HW2 2831   2.499   1.451   0.033  0.7191 -1.7522  0.7737
  708SOL     MW 2832   2.536   1.515   0.082 -0.1713  0.9249  0.6461
  709SOL     OW 2833   1.693   1.773   0.098 -0.2802  1.0631 -0.5543
  709SOL    HW1 2834   1.642   1.829   0.047  1.1725 -0.7662  2.6498
  709SOL    HW2 2835   1.636   1.743   0.168  1.6825  0.4367  2.1285
  709SOL     MW 2836   1.679   1.776   0.100  0.1704  0.7391  0.2224
  710SOL     OW 2837   2.233   1.178   1.188 -0.3450 -0.5651 -0.9785
  710SOL    HW1 2838   2.269   1.157   1.100  0.0419  0.0859  1.6914
  710SOL    HW2 2839   2.257   1.102   1.250  1.2233 -1.2890  1.8064
  710SOL     MW 2840   2.241   1.165   1.185 -0.0870 -0.5748 -0.2588
  711SOL     OW 2841   2.359   0.166   1.700  0.1661 -0.1628 -1.0376
  711SOL    HW1 2842   2.453   0.137   1.715  0.6508  3.7365 -0.9594
  711SOL    HW2 2843   2.285   0.097   1.683 -3.0733 -1.6971  0.6826
  711SOL     MW 2844   2.362   0.153   1.699 -0.1974  0.1493 -0.8003
  712SOL     OW 2845   1.620   0.583   3.041  0.3667  0.2501 -0.2933
  712SOL    HW1 2846   1.675   0.655   3.011 -0.9312 -0.7071  1.3324
  712SOL    HW2 2847   1.552   0.627   3.099 -2.2204 -0.5568 -0.8312
  712SOL     MW 2848   1.618   0.598   3.045 -0.1459  0.0173 -0.1498
  713SOL     OW 2849   2.586   0.799   1.149 -0.0355  0.5807 -0.1120
  713SOL    HW1 2850   2.602   0.702   1.143  0.5544  0.0133 -0.6133
  713SOL    HW2 2851   2.559   0.814   1.246 -0.3796  0.9670  0.8517
  713SOL     MW 2852   2.585   0.788   1.161 -0.0030  0.5568 -0.0510
  714SOL     OW 2853   2.260   0.152   1.977 -0.2956 -0.3664 -0.0194
  714SOL    HW1 2854   2.312   0.123   2.056  0.1547 -1.5961  0.3105
  714SOL    HW2 2855   2.327   0.154   1.908 -2.8162 -1.5439 -2.4908
  714SOL     MW 2856   2.276   0.149   1.978 -0.5687 -0.6840 -0.3020
  715SOL     OW 2857   1.766   1.911   1.714 -0.0352 -0.0589  0.1916
  715SOL    HW1 2858   1.840   1.884   1.653  2.3296 -2.4560 -0.4509
  715SOL    HW2 2859   1.737   1.822   1.746  1.7101 -1.6433  1.6278
  715SOL     MW 2860   1.772   1.895   1.710  0.5071 -0.5842  0.2963
  716SOL     OW 2861   2.342   0.653   0.660  0.6431 -0.6157  0.9211
  716SOL    HW1 2862   2.406   0.599   0.613  0.8474 -2.7073  0.1570
  716SOL    HW2 2863   2.260   0.661   0.605  2.5462  1.5565 -0.0729
  716SOL     MW 2864   2.339   0.647   0.646  0.9212 -0.6051  0.6892
  717SOL     OW 2865   2.822   1.450   2.947  0.1483  0.1778  0.2585
  717SOL    HW1 2866   2.917   1.472   2.957 -0.0555 -0.5349  0.2945
  717SOL    HW2 2867   2.786   1.507   3.022 -1.4466  1.0270  0.2646
  717SOL     MW 2868   2.830   1.460   2.958 -0.0890  0.1958  0.2640
  718SOL     OW 2869   2.527   1.337   1.403 -0.0068 -0.3036  0.2914
  718SOL    HW1 2870   2.569   1.414   1.443 -0.6781 -2.4043 -1.3939
  718SOL    HW2 2871   2.585   1.261   1.412 -0.2090 -1.0804  0.4943
  718SOL     MW 2872   2.540   1.337   1.409 -0.1220 -0.6833  0.0958
  719SOL     OW 2873   2.164   1.375   0.641 -0.4736 -0.5124  0.2472
  719SOL    HW1 2874   2.257   1.353   0.658  2.3040  1.4611  0.8643
  719SOL    HW2 2875   2.122   1.371   0.728 -1.3379  2.5100  0.5611
  719SOL     MW 2876   2.171   1.372   0.655 -0.2211  0.1468  0.3700
  720SOL     OW 2877   2.889   1.220   0.135  0.1172 -0.1341 -0.1767
  720SOL    HW1 2878   2.889   1.127   0.166  1.4890 -1.6626 -0.0408
  720SOL    HW2 2879   2.820   1.281   0.173 -1.4299  1.8472  3.9016
  720SOL     MW 2880   2.880   1.216   0.144  0.0941 -0.0744  0.3793
  721SOL     OW 2881   2.495   0.801   1.416  0.4848 -0.2876  0.4675
  721SOL    HW1 2882   2.487   0.705   1.410 -0.3297  2.9018 -4.8765
  721SOL    HW2 2883   2.564   0.829   1.475 -0.7835  2.1540 -2.7624
  721SOL     MW 2884   2.503   0.792   1.423  0.2100  0.4554 -0.6637
  722SOL     OW 2885   2.543   1.211   0.378 -0.2205 -0.7902 -0.2580
  722SOL    HW1 2886   2.489   1.251   0.444  2.8158  2.0702 -1.2319
  722SOL    HW2 2887   2.613   1.156   0.420  2.6409  1.9081 -0.7575
  722SOL     MW 2888   2.545   1.209   0.392  0.5577 -0.0568 -0.4524
  723SOL     OW 2889   2.302   1.417   1.634 -0.3479 -0.6261  0.3588
  723SOL    HW1 2890   2.293   1.386   1.544  1.6819 -0.4116 -1.0300
  723SOL    HW2 2891   2.216   1.448   1.661  1.1957 -0.7558 -0.6879
  723SOL     MW 2892   2.289   1.417   1.626  0.1236 -0.6149  0.0375
  724SOL     OW 2893   2.461   0.384   0.552 -0.6209 -0.2652 -0.0376
  724SOL    HW1 2894   2.458   0.338   0.633 -0.5397  1.2788 -0.8065
  724SOL    HW2 2895   2.533   0.346   0.502  0.7091 -0.8838  0.4947
  724SOL     MW 2896   2.470   0.373   0.556 -0.4347 -0.1431 -0.0689
  725SOL     OW 2897   2.631   0.536   1.143 -1.1364 -0.0247 -0.2097
  725SOL    HW1 2898   2.675   0.531   1.221 -1.0905 -1.0181 -0.5536
  725SOL    HW2 2899   2.538   0.501   1.150 -0.9414 -2.3613  0.4749
  725SOL     MW 2900   2.625   0.531   1.154 -1.1046 -0.4641 -0.1647
  726SOL     OW 2901   2.581   2.421   0.516 -0.2880 -0.0465  0.7873
  726SOL    HW1 2902   2.515   2.453   0.449  0.2645 -1.2894 -3.0682
  726SOL    HW2 2903   2.535   2.413   0.601 -0.5996  0.9895  3.5718
  726SOL     MW 2904   2.566   2.424   0.518 -0.2562 -0.0738  0.6460
  727SOL     OW 2905   2.782   0.280   1.638  0.0059 -0.3576 -0.1158
  727SOL    HW1 2906   2.830   0.312   1.558 -2.4071  1.7481  1.8055
  727SOL    HW2 2907   2.698   0.326   1.643 -0.5252  0.3581  2.0822
  727SOL     MW 2908   2.777   0.291   1.628 -0.3825  0.0147  0.4277
  728SOL     OW 2909   2.795   1.153   2.991 -0.2757  0.5961 -0.4110
  728SOL    HW1 2910   2.828   1.221   2.936 -1.2194 -1.4766 -3.2039
  728SOL    HW2 2911   2.819   1.180   3.081 -0.2178  2.7410 -0.5632
  728SOL     MW 2912   2.802   1.166   2.996 -0.3925  0.6056 -0.7996
  729SOL     OW 2913   2.535   1.453   1.136  0.2743 -0.4857  0.3647
  729SOL    HW1 2914   2.551   1.407   1.214  0.9159  1.1331 -2.1626
  729SOL    HW2 2915   2.566   1.384   1.079 -1.0679 -3.2127  1.5403
  729SOL     MW 2916   2.541   1.438   1.139  0.1819 -0.6319  0.1864
  730SOL     OW 2917   2.132   1.172   0.245  0.3057 -0.0987  0.6559
  730SOL    HW1 2918   2.224   1.173   0.217  3.3589  2.3651 -0.9185
  730SOL    HW2 2919   2.096   1.260   0.227 -0.5361 -0.5064 -0.1296
  730SOL     MW 2920   2.139   1.184   0.239  0.5975  0.1725  0.3446
  731SOL     OW 2921   2.828   1.823   2.917  0.3247  0.8055 -0.0342
  731SOL    HW1 2922   2.736   1.845   2.941 -0.8445 -0.4498  3.6936
  731SOL    HW2 2923   2.871   1.902   2.884 -0.1830 -1.9364 -0.1542
  731SOL     MW 2924   2.822   1.837   2.916  0.1034  0.2781  0.4418
  732SOL     OW 2925   2.255   0.936   1.338  0.4898 -0.0557 -0.8310
  732SOL    HW1 2926   2.162   0.940   1.368 -1.0939 -0.0172 -1.8748
  732SOL    HW2 2927   2.308   0.896   1.405  4.3722 -1.8290  0.9161
  732SOL     MW 2928   2.249   0.931   1.351  0.7931 -0.2846 -0.7382
  733SOL     OW 2929   2.338   2.855   3.037 -0.6811 -0.9215  0.2178
  733SOL    HW1 2930   2.266   2.914   3.017 -2.3306 -1.5038  0.4689
  733SOL    HW2 2931   2.291   2.774   3.026  0.1659  0.3873  0.9692
  733SOL     MW 2932   2.322   2.852   3.033 -0.7870 -0.8257  0.3500
  734SOL     OW 2933   1.492   0.372   2.446  0.4518  0.2802 -0.3773
  734SOL    HW1 2934   1.448   0.321   2.511 -2.2007  3.8923 -4.4995
  734SOL    HW2 2935   1.530   0.300   2.396 -0.0838 -1.1496  0.9366
  734SOL     MW 2936   1.491   0.356   2.448  0.0312  0.5682 -0.7478
  735SOL     OW 2937   3.093   0.889   2.670  0.3827  0.5047 -0.1978
  735SOL    HW1 2938   3.050   0.807   2.643  0.2222  1.1898  1.2278
  735SOL    HW2 2939   3.034   0.926   2.736  2.0828  0.8938  0.4082
  735SOL     MW 2940   3.080   0.883   2.675  0.5858  0.6464  0.0703
  736SOL     OW 2941   0.041   0.599   2.499  0.6710 -0.2398  0.2497
  736SOL    HW1 2942   0.096   0.631   2.423  0.4051  1.4109 -0.0909
  736SOL    HW2 2943   0.014   0.509   2.467 -1.0628 -0.3105 -3.2008
  736SOL     MW 2944   0.045   0.591   2.485  0.4072 -0.0313 -0.2505
  737SOL     OW 2945   2.895   0.700   2.537  0.4972  0.2856  0.7655
  737SOL    HW1 2946   2.819   0.674   2.480 -0.4372  2.1856  1.4500
  737SOL    HW2 2947   2.973   0.647   2.517 -0.1269  1.3241 -1.1412
  737SOL     MW 2948   2.895   0.689   2.527  0.2916  0.6733  0.6042
  738SOL     OW 2949   0.173   0.448   1.981  0.1988  0.2907  0.4973
  738SOL    HW1 2950   0.265   0.473   1.982  0.0663  0.9183 -2.5347
  738SOL    HW2 2951   0.152   0.386   1.918 -3.3614  2.6433  0.4851
  738SOL     MW 2952   0.183   0.443   1.973 -0.2884  0.6839  0.0956
  739SOL     OW 2953   2.542   0.985   2.135 -0.2566  0.2194  0.6893
  739SOL    HW1 2954   2.455   0.946   2.123 -2.5228  2.3322 -1.5720
  739SOL    HW2 2955   2.558   1.025   2.050 -0.3960 -2.9682  1.1137
  739SOL     MW 2956   2.533   0.985   2.123 -0.5740  0.0776  0.4470
  740SOL     OW 2957   0.193   1.681   2.969 -0.4882  0.2534  0.5828
  740SOL    HW1 2958   0.123   1.615   2.960 -0.6112  0.1142 -1.7169
  740SOL    HW2 2959   0.264   1.655   3.026 -1.5237 -1.8491 -0.5256
  740SOL     MW 2960   0.193   1.669   2.975 -0.6411 -0.0424  0.1331
  741SOL     OW 2961   2.205   1.206   2.743  0.5679 -0.2049 -0.2087
  741SOL    HW1 2962   2.211   1.295   2.701 -0.9955  2.2506  1.9250
  741SOL    HW2 2963   2.180   1.241   2.827 -1.8517 -1.3073 -1.9419
  741SOL     MW 2964   2.203   1.223   2.749  0.0424 -0.0264 -0.1559
  742SOL     OW 2965   1.678   1.355   2.349  0.0400  0.0744 -0.6138
  742SOL    HW1 2966   1.623   1.280   2.328 -0.7275 -0.8293 -0.6312
  742SOL    HW2 2967   1.700   1.349   2.445  0.7165  0.3280  3.1513
  742SOL     MW 2968   1.674   1.344   2.359  0.0280 -0.0113 -0.1194
  743SOL     OW 2969   2.513   1.221   2.711 -0.5690 -0.0349 -0.1898
  743SOL    HW1 2970   2.417   1.209   2.720 -4.1425 -2.0468 -0.4989
  743SOL    HW2 2971   2.559   1.155   2.766 -3.1419 -2.8455 -1.9739
  743SOL     MW 2972   2.506   1.211   2.720 -1.3800 -0.6712 -0.4660
  744SOL     OW 2973   2.762   0.920   1.806 -0.3322 -0.4422  0.3533
  744SOL    HW1 2974   2.703   0.976   1.851  0.0097  1.0876 -1.0662
  744SOL    HW2 2975   2.724   0.920   1.718 -1.2561 -1.6926  0.1686
  744SOL     MW 2976   2.749   0.927   1.801 -0.4090 -0.4053  0.1417
  745SOL     OW 2977   1.755   0.465   2.483  0.0693  0.1541 -0.0166
  745SOL    HW1 2978   1.773   0.490   2.389  3.3636 -2.0513  0.9979
  745SOL    HW2 2979   1.667   0.425   2.463 -1.5156  1.9750  0.0957
  745SOL     MW 2980   1.746   0.463   2.468  0.2949  0.1034  0.1321
  746SOL     OW 2981   1.575   1.499   1.687 -0.4702 -0.5572 -0.3512
  746SOL    HW1 2982   1.592   1.588   1.713 -1.0272 -0.3739 -1.1722
  746SOL    HW2 2983   1.544   1.452   1.767  0.6744 -0.6676 -0.9103
  746SOL     MW 2984   1.573   1.505   1.701 -0.3927 -0.5476 -0.5333
  747SOL     OW 2985   2.589   1.115   1.876 -0.0323 -0.0205  0.6995
  747SOL    HW1 2986   2.510   1.107   1.828 -1.1251 -1.5764  4.8281
  747SOL    HW2 2987   2.589   1.202   1.921  1.3204  0.6552  0.6735
  747SOL     MW 2988   2.579   1.125   1.875  0.0020 -0.1367  1.2408
  748SOL     OW 2989   0.108   3.092   1.931  0.1250  0.3789  0.2793
  748SOL    HW1 2990   0.190   3.130   1.904  0.5857  1.0057 -3.0300
  748SOL    HW2 2991   0.091   3.150   2.006  1.7450 -0.0077  0.2114
  748SOL     MW 2992   0.116   3.105   1.938  0.3995  0.4106 -0.1663
  749SOL     OW 2993   2.395   0.644   2.784 -0.5151 -0.3334  0.3739
  749SOL    HW1 2994   2.427   0.709   2.713 -0.8222  2.2954 -1.2723
  749SOL    HW2 2995   2.437   0.659   2.865  1.3186 -2.1876  1.5173
  749SOL     MW 2996   2.405   0.654   2.786 -0.3137 -0.2312  0.3075
  750SOL     OW 2997   2.124   3.019   1.951 -0.2385 -0.5302 -0.7743
  750SOL    HW1 2998   2.161   3.113   1.952  1.0692  0.9395  0.8447
  750SOL    HW2 2999   2.205   2.960   1.934 -1.2880 -0.3731  2.0738
  750SOL     MW 3000   2.139   3.024   1.949 -0.2044 -0.3156 -0.1849
  751SOL     OW 3001   3.056   0.346   2.437  0.5723  0.0222 -0.3768
  751SOL    HW1 3002   2.992   0.360   2.366 -2.6289  0.4612 -0.8501
  751SOL    HW2 3003   3.136   0.320   2.396 -1.6195  0.7559 -1.5642
  751SOL     MW 3004   3.058   0.344   2.422 -0.1392  0.1769 -0.5959
  752SOL     OW 3005   2.132   0.927   2.760 -0.4316  0.5055 -0.2624
  752SOL    HW1 3006   2.178   1.007   2.786  1.8034 -1.7874 -1.5858
  752SOL    HW2 3007   2.095   0.881   2.838 -1.1792 -0.8632 -0.1582
  752SOL     MW 3008   2.134   0.931   2.773 -0.2354  0.0224 -0.4232
  753SOL     OW 3009   2.840   0.362   2.267 -0.3641  0.7552  0.1496
  753SOL    HW1 3010   2.782   0.288   2.273 -0.0835 -0.5922  3.3095
  753SOL    HW2 3011   2.795   0.431   2.317  2.5238  0.7549  0.2725
  753SOL     MW 3012   2.826   0.362   2.274  0.0540  0.5774  0.5828
  754SOL     OW 3013   2.294   2.959   2.624  0.2162 -0.1256  0.2801
  754SOL    HW1 3014   2.305   2.950   2.526  0.6378  0.8337  0.3892
  754SOL    HW2 3015   2.377   2.923   2.657 -0.3623 -1.0702  0.7549
  754SOL     MW 3016   2.307   2.953   2.615  0.1955 -0.1236  0.3572
  755SOL     OW 3017   2.782   1.597   2.453  0.4450 -0.3641  0.0292
  755SOL    HW1 3018   2.735   1.514   2.452  0.4197  1.6027 -1.5374
  755SOL    HW2 3019   2.810   1.610   2.543  0.2125 -0.3307  1.5845
  755SOL     MW 3020   2.780   1.587   2.465  0.4110 -0.1002  0.0277
  756SOL     OW 3021   2.165   1.268   3.020  0.2223  0.2762 -0.2296
  756SOL    HW1 3022   2.255   1.312   2.997 -2.4769  1.6946 -3.3516
  756SOL    HW2 3023   2.181   1.178   3.053 -0.5652 -0.6444  0.2394
  756SOL     MW 3024   2.179   1.262   3.021 -0.2377  0.3419 -0.5796
  757SOL     OW 3025   2.179   0.935   1.715  0.2817  0.4057 -0.5168
  757SOL    HW1 3026   2.167   0.836   1.727 -2.7471  1.0940  0.7391
  757SOL    HW2 3027   2.130   0.949   1.631 -3.3733  1.3323 -1.5257
  757SOL     MW 3028   2.171   0.924   1.705 -0.6001  0.6187 -0.4842
  758SOL     OW 3029   2.246   1.873   2.611 -0.0480 -0.4714  0.2382
  758SOL    HW1 3030   2.251   1.887   2.518  2.1008 -0.8672 -0.4201
  758SOL    HW2 3031   2.318   1.810   2.624 -0.3014  0.1159  1.2756
  758SOL     MW 3032   2.256   1.867   2.600  0.2021 -0.4461  0.2882
  759SOL     OW 3033   1.531   1.444   2.787  0.4195  0.6432 -0.4260
  759SOL    HW1 3034   1.539   1.508   2.711 -1.8505  0.6389  0.0811
  759SOL    HW2 3035   1.595   1.469   2.858  2.7406  2.0150  1.6796
  759SOL     MW 3036   1.540   1.456   2.786  0.4262  0.8236 -0.0813
  760SOL     OW 3037   2.594   1.982   2.732  0.0176  0.2269  0.2332
  760SOL    HW1 3038   2.560   1.894   2.714 -0.0087  0.7073 -1.2151
  760SOL    HW2 3039   2.668   1.987   2.675  1.0481  1.3023  0.1127
  760SOL     MW 3040   2.599   1.971   2.722  0.1501  0.4322  0.0262
  761SOL     OW 3041   2.191   0.468   2.464  0.1407 -0.8431  0.4185
  761SOL    HW1 3042   2.108   0.420   2.446  1.7743 -2.9753 -2.0508
  761SOL    HW2 3043   2.156   0.535   2.523 -1.1248 -0.0675  1.2759
  761SOL     MW 3044   2.176   0.471   2.470  0.1893 -1.0221  0.2059
  762SOL     OW 3045   0.021   0.179   2.120  0.0180 -0.2769 -0.6942
  762SOL    HW1 3046  -0.005   0.132   2.198 -2.5139  0.0734 -1.1843
  762SOL    HW2 3047  -0.048   0.236   2.082  0.6698  0.4065 -0.6129
  762SOL     MW 3048   0.008   0.180   2.125 -0.2300 -0.1405 -0.7481
  763SOL     OW 3049   2.462   1.176   2.320 -0.5700 -0.3699 -0.5679
  763SOL    HW1 3050   2.505   1.117   2.249  4.6013 -3.4734  0.2807
  763SOL    HW2 3051   2.530   1.237   2.346 -1.9468 -2.1868  2.5739
  763SOL     MW 3052   2.477   1.177   2.314 -0.0693 -1.0191 -0.0414
  764SOL     OW 3053   0.387   0.136   2.789  0.1583  0.5147  0.0831
  764SOL    HW1 3054   0.314   0.168   2.741 -1.2457  1.8272  0.3753
  764SOL    HW2 3055   0.386   0.195   2.862  0.6826  1.0577 -1.8214
  764SOL     MW 3056   0.377   0.148   2.792  0.0423  0.7595 -0.1296
  765SOL     OW 3057   2.687   0.119   2.289 -0.1545  0.0262  0.0170
  765SOL    HW1 3058   2.678   0.079   2.203 -1.0833 -1.9949  0.9739
  765SOL    HW2 3059   2.714   0.049   2.355 -0.0411 -1.5960  0.0398
  765SOL     MW 3060   2.689   0.105   2.286 -0.2621 -0.4545  0.1463
  766SOL     OW 3061   1.925   3.065   2.135 -0.2061 -0.2220 -0.6066
  766SOL    HW1 3062   2.002   3.071   2.074 -1.3225  1.1407 -3.3208
  766SOL    HW2 3063   1.856   3.021   2.087 -1.1836 -0.5336 -3.4960
  766SOL     MW 3064   1.926   3.060   2.120 -0.4824 -0.0833 -1.3459
  767SOL     OW 3065   2.644   0.639   1.945 -0.5612  0.2396  0.5006
  767SOL    HW1 3066   2.716   0.701   1.960  0.2774  2.4733 -0.7794
  767SOL    HW2 3067   2.566   0.690   1.913 -0.8916 -1.4320  1.1365
  767SOL     MW 3068   2.643   0.654   1.943 -0.4941  0.3138  0.4156
  768SOL     OW 3069  -0.002   1.491   2.990  0.2721 -0.3863  0.1894
  768SOL    HW1 3070   0.023   1.507   3.084 -2.8857  1.4969 -2.3040
  768SOL    HW2 3071   0.016   1.395   2.976  0.7143 -2.5661  0.8462
  768SOL     MW 3072   0.003   1.480   3.000 -0.0862 -0.4254 -0.0530
  769SOL     OW 3073   2.328   0.673   2.368 -0.1471  0.2492  0.3127
  769SOL    HW1 3074   2.275   0.594   2.368  0.2268 -1.6703  1.8586
  769SOL    HW2 3075   2.398   0.643   2.311  0.8121 -0.6504 -1.0304
  769SOL     MW 3076   2.331   0.659   2.361  0.0288 -0.1228  0.3395
  770SOL     OW 3077   0.046   1.598   2.606  0.1723 -0.1091  0.0719
  770SOL    HW1 3078  -0.045   1.620   2.634  2.0969  3.0369 -0.4552
  770SOL    HW2 3079   0.060   1.525   2.667 -1.0558  2.2431  1.0145
  770SOL     MW 3080   0.036   1.591   2.618  0.2642  0.6163  0.1268
  771SOL     OW 3081   3.049   0.608   1.954 -0.6118 -0.0290  0.0125
  771SOL    HW1 3082   3.019   0.587   1.861 -0.8836 -0.1057 -2.1525
  771SOL    HW2 3083   3.133   0.566   1.965 -3.8860  0.6802 -4.1914
  771SOL     MW 3084   3.056   0.600   1.943 -1.0797  0.0545 -0.8278
  772SOL     OW 3085   0.031   3.094   2.342 -0.1016 -0.7733 -0.3627
  772SOL    HW1 3086  -0.057   3.067   2.350 -0.9663  1.4575  1.1395
  772SOL    HW2 3087   0.079   3.022   2.299  1.4062  0.4141  2.6952
  772SOL     MW 3088   0.026   3.081   2.337 -0.0167 -0.3223  0.2390
  773SOL     OW 3089   2.491   2.864   2.801  0.4189 -1.0799  0.2507
  773SOL    HW1 3090   2.493   2.771   2.789 -0.9733 -1.8505 -0.8764
  773SOL    HW2 3091   2.421   2.876   2.871 -2.7619 -1.7608  1.5602
  773SOL     MW 3092   2.482   2.853   2.809 -0.1845 -1.2714  0.2748
  774SOL     OW 3093   2.347   1.143   1.756 -0.8237  0.4374 -0.0667
  774SOL    HW1 3094   2.327   1.215   1.697 -0.1989  0.4178 -1.0869
  774SOL    HW2 3095   2.286   1.063   1.735  0.6581 -0.6435  2.8144
  774SOL     MW 3096   2.336   1.142   1.746 -0.5458  0.2922  0.1788
  775SOL     OW 3097   2.296   2.927   2.323 -0.5388  0.9843 -0.3213
  775SOL    HW1 3098   2.327   2.992   2.258  1.2176 -0.6374  0.4927
  775SOL    HW2 3099   2.371   2.865   2.327 -2.0278  0.1632  0.3756
  775SOL     MW 3100   2.310   2.928   2.315 -0.5035  0.6620 -0.1219
  776SOL     OW 3101   0.122   1.516   0.129  0.2847  0.3868  0.1132
  776SOL    HW1 3102   0.210   1.486   0.104 -0.4120 -1.6906  1.1024
  776SOL    HW2 3103   0.079   1.430   0.156 -3.1886  0.7237  0.8021
  776SOL     MW 3104   0.128   1.501   0.129 -0.2655  0.1572  0.3346
  777SOL     OW 3105   2.967   1.108   1.754  0.6393 -0.1490 -0.2082
  777SOL    HW1 3106   2.927   1.152   1.679 -0.1968  0.9086 -3.1700
  777SOL    HW2 3107   2.903   1.032   1.759  1.5503 -1.7346  1.4610
  777SOL     MW 3108   2.953   1.104   1.745  0.6492 -0.2187 -0.3788
  778SOL     OW 3109   2.871   0.457   2.756 -0.3239 -0.3180  0.5566
  778SOL    HW1 3110   2.828   0.507   2.828 -0.8619  1.1700 -0.7581
  778SOL    HW2 3111   2.842   0.503   2.678 -1.2980 -2.5787 -0.4442
  778SOL     MW 3112   2.862   0.470   2.755 -0.5234 -0.4200  0.2511
  779SOL     OW 3113   2.267   0.444   2.114  0.1989  1.0166 -0.0274
  779SOL    HW1 3114   2.233   0.480   2.199  2.3036  1.7370  1.6822
  779SOL    HW2 3115   2.241   0.354   2.127 -2.3475  0.1356 -0.0164
  779SOL     MW 3116   2.259   0.437   2.127  0.1406  0.9954  0.1996
  780SOL     OW 3117   0.155   0.239   2.699  0.1156 -0.0576  0.0754
  780SOL    HW1 3118   0.082   0.207   2.750  0.8907  2.9312 -3.3865
  780SOL    HW2 3119   0.142   0.332   2.698 -0.0840 -3.1592 -0.5600
  780SOL     MW 3120   0.144   0.247   2.706  0.1916 -0.0725 -0.4652
  781SOL     OW 3121   3.057   1.328   2.493 -0.2936  0.0075  0.0573
  781SOL    HW1 3122   3.057   1.412   2.442  0.4479  1.3470  2.2733
  781SOL    HW2 3123   3.069   1.252   2.431 -0.7138 -0.5332 -1.8064
  781SOL     MW 3124   3.059   1.329   2.478 -0.2512  0.1129  0.1038
  782SOL     OW 3125   0.657   1.492   0.099 -0.6440  0.1076  0.1234
  782SOL    HW1 3126   0.606   1.565   0.066 -0.5719 -2.8536 -1.2542
  782SOL    HW2 3127   0.696   1.495   0.184 -1.4922  0.8000  0.9607
  782SOL     MW 3128   0.656   1.502   0.106 -0.7464 -0.1917  0.0521
  783SOL     OW 3129   2.720   0.560   2.404 -0.4607  0.8714  0.1757
  783SOL    HW1 3130   2.679   0.602   2.328 -3.7641 -0.9496 -0.2047
  783SOL    HW2 3131   2.637   0.543   2.457 -1.5556 -1.2488 -1.9431
  783SOL     MW 3132   2.703   0.563   2.401 -1.0410  0.3514 -0.1540
  784SOL     OW 3133   0.190   0.857   2.867 -0.2458  0.1977 -0.0859
  784SOL    HW1 3134   0.094   0.860   2.843 -0.6705  1.3075  2.3610
  784SOL    HW2 3135   0.224   0.916   2.806  0.9116  0.8755  1.5479
  784SOL     MW 3136   0.182   0.865   2.856 -0.1491  0.4336  0.4526
  785SOL     OW 3137   0.447   0.416   2.181  0.4578  0.6328 -0.0996
  785SOL    HW1 3138   0.466   0.449   2.091  3.5663 -2.7145  0.9903
  785SOL    HW2 3139   0.362   0.369   2.182 -1.6153  1.7681 -1.0301
  785SOL     MW 3140   0.438   0.414   2.169  0.5944  0.3409 -0.0786
  786SOL     OW 3141   1.898   0.426   3.078  0.3658 -0.0153 -0.7082
  786SOL    HW1 3142   1.824   0.485   3.094 -2.6494  1.4069 -1.5330
  786SOL    HW2 3143   1.891   0.413   2.982 -0.0832 -1.6742 -2.2873
  786SOL     MW 3144   1.888   0.432   3.067 -0.0913 -0.0465 -1.0253
  787SOL     OW 3145   2.462   0.158   2.924 -0.1926 -0.4360 -0.4421
  787SOL    HW1 3146   2.528   0.099   2.901  1.3498 -2.7378 -1.3422
  787SOL    HW2 3147   2.504   0.221   2.982  1.1390 -0.1410  0.6544
  787SOL     MW 3148   2.476   0.159   2.929  0.1866 -0.7008 -0.4162
  788SOL     OW 3149   2.840   3.006   2.417 -0.4578  0.5409 -0.0804
  788SOL    HW1 3150   2.844   2.978   2.508 -1.0947  3.2442  0.1177
  788SOL    HW2 3151   2.858   2.926   2.366  1.1842 -0.3206  0.1226
  788SOL     MW 3152   2.843   2.992   2.422 -0.3252  0.7839 -0.0274
  789SOL     OW 3153   0.098   0.188   3.071 -0.5387  0.7324 -0.5797
  789SOL    HW1 3154   0.011   0.146   3.090 -4.6561  3.5367 -0.8579
  789SOL    HW2 3155   0.087   0.272   3.032  1.5303  0.3236 -0.2616
  789SOL     MW 3156   0.085   0.194   3.069 -0.8090  1.0485 -0.5744
  790SOL     OW 3157   0.014   1.050   2.405 -0.1203  0.3532 -0.4764
  790SOL    HW1 3158   0.030   0.990   2.479  0.4434  0.1181  2.2946
  790SOL    HW2 3159  -0.073   1.017   2.365 -2.6051  0.7747 -0.9580
  790SOL     MW 3160   0.004   1.038   2.410 -0.3738  0.3778 -0.1743
  791SOL     OW 3161   2.529   0.485   2.602 -0.0759 -0.0736  0.0319
  791SOL    HW1 3162   2.469   0.516   2.669 -0.8813  1.4205 -0.9508
  791SOL    HW2 3163   2.551   0.400   2.630  3.7537  0.3088 -2.7655
  791SOL     MW 3164   2.524   0.478   2.615  0.3231  0.1740 -0.4669
  792SOL     OW 3165   2.359   0.234   2.438 -0.5584  0.6885 -0.3486
  792SOL    HW1 3166   2.325   0.319   2.455 -3.7108 -1.2548 -0.9625
  792SOL    HW2 3167   2.334   0.189   2.519  1.4593  0.4142  1.2791
  792SOL     MW 3168   2.351   0.239   2.451 -0.7081  0.3959 -0.2149
  793SOL     OW 3169   1.813   1.090   2.015  0.1627  0.2104 -0.2122
  793SOL    HW1 3170   1.791   1.079   1.926  2.1391  0.7837  1.9729
  793SOL    HW2 3171   1.908   1.067   2.021  2.9185  0.5529 -1.2101
  793SOL     MW 3172   1.823   1.085   2.004  0.7871  0.3312 -0.0555
  794SOL     OW 3173   1.369   2.324   0.126 -0.1506  0.2758  0.4173
  794SOL    HW1 3174   1.424   2.360   0.067 -1.2133 -1.5392  0.9689
  794SOL    HW2 3175   1.429   2.340   0.203  2.1822  1.9515  0.0150
  794SOL     MW 3176   1.384   2.331   0.128  0.0170  0.2574  0.4370
  795SOL     OW 3177   2.305   1.047   2.534  0.0733 -0.1643  0.1395
  795SOL    HW1 3178   2.280   1.094   2.614  1.5101 -0.0004 -1.1303
  795SOL    HW2 3179   2.363   1.108   2.489  3.0477 -0.4491  0.1975
  795SOL     MW 3180   2.309   1.061   2.539  0.6553 -0.1802 -0.0204
  796SOL     OW 3181   0.234   0.615   2.674 -0.1234  0.0939 -0.1392
  796SOL    HW1 3182   0.223   0.692   2.731  0.5619 -0.4796  0.5816
  796SOL    HW2 3183   0.165   0.622   2.607  1.1615  1.8954 -1.6079
  796SOL     MW 3184   0.223   0.626   2.673  0.1366  0.2559 -0.2379
  797SOL     OW 3185   2.612   0.166   2.585 -0.6608 -0.3378  0.1230
  797SOL    HW1 3186   2.551   0.182   2.517 -0.6110  1.0010 -5.1670
  797SOL    HW2 3187   2.691   0.171   2.532 -1.3061  0.0435 -1.4593
  797SOL     MW 3188   2.614   0.169   2.569 -0.7394 -0.1108 -0.7837
  798SOL     OW 3189   2.383   0.051   2.208  0.2482  0.1659 -0.3452
  798SOL    HW1 3190   2.387   0.108   2.288 -0.7627 -0.1352 -1.4422
  798SOL    HW2 3191   2.476   0.050   2.188  0.3497  0.7118 -0.6779
  798SOL     MW 3192   2.396   0.058   2.216  0.1282  0.1982 -0.5338
  799SOL     OW 3193   2.561   2.983   0.128  0.2768  0.3567  0.3126
  799SOL    HW1 3194   2.474   2.972   0.084 -1.2618 -0.5485 -1.4867
  799SOL    HW2 3195   2.555   2.967   0.222  1.5745 -2.5504  0.7336
  799SOL     MW 3196   2.549   2.980   0.135  0.2450 -0.1463  0.1307
  800SOL     OW 3197   1.942   3.072   1.772  0.4746  0.0544  0.3498
  800SOL    HW1 3198   1.884   3.000   1.751  0.9061  2.3156 -2.5198
  800SOL    HW2 3199   1.993   3.037   1.847 -0.6741 -0.4636 -3.0076
  800SOL     MW 3200   1.941   3.058   1.779  0.3800  0.2844 -0.4718
  801SOL     OW 3201   2.822   1.225   2.612 -0.4717  0.0756 -0.3602
  801SOL    HW1 3202   2.818   1.127   2.620 -3.9518  0.4672  0.0947
  801SOL    HW2 3203   2.908   1.253   2.579 -0.3373 -0.1305 -2.8432
  801SOL     MW 3204   2.833   1.216   2.608 -0.9131  0.1001 -0.6278
  802SOL     OW 3205   2.593   1.469   2.774  0.1300 -0.0517  0.1880
  802SOL    HW1 3206   2.578   1.385   2.738  1.1169  1.5219  1.1656
  802SOL    HW2 3207   2.677   1.481   2.824 -0.5829  1.4643 -1.4284
  802SOL     MW 3208   2.602   1.459   2.776  0.1661  0.3560  0.1037
  803SOL     OW 3209   2.276   1.376   2.029  0.1244 -0.2185  0.5684
  803SOL    HW1 3210   2.257   1.364   2.122  1.1381  1.9605  0.9779
  803SOL    HW2 3211   2.227   1.307   1.984  0.4860 -0.4724  1.9618
  803SOL     MW 3212   2.267   1.366   2.035  0.3058  0.0355  0.8062
  804SOL     OW 3213   2.298   0.064   0.040  0.0026 -0.6049  0.4395
  804SOL    HW1 3214   2.230   0.129   0.059  0.7255 -1.2766  1.6415
  804SOL    HW2 3215   2.340   0.104  -0.041 -0.7409 -1.5865 -0.7920
  804SOL     MW 3216   2.294   0.078   0.032 -0.0001 -0.8231  0.4356
  805SOL     OW 3217   2.737   0.903   2.640  0.2652  0.6893 -0.2563
  805SOL    HW1 3218   2.647   0.903   2.608  2.8481 -0.0187  0.2897
  805SOL    HW2 3219   2.781   0.834   2.593 -1.2823 -1.4409  0.2942
  805SOL     MW 3220   2.731   0.894   2.629  0.4019  0.3148 -0.1116
  806SOL     OW 3221   2.566   0.685   2.190 -0.5827 -0.1254 -1.2002
  806SOL    HW1 3222   2.578   0.655   2.100  0.0990  0.1580 -1.2931
  806SOL    HW2 3223   2.595   0.778   2.196  2.6162 -0.6285  2.7679
  806SOL     MW 3224   2.571   0.693   2.179 -0.0707 -0.1544 -0.6889
  807SOL     OW 3225   0.089   1.071   2.061  0.1719 -0.5482 -0.5226
  807SOL    HW1 3226   0.140   1.007   2.016  0.4406  0.6925  2.9408
  807SOL    HW2 3227  -0.001   1.050   2.028  1.8624 -2.9688  2.2596
  807SOL     MW 3228   0.084   1.060   2.051  0.4304 -0.7039  0.3015
  808SOL     OW 3229   2.663   3.082   2.810 -0.2977 -0.5481 -0.2284
  808SOL    HW1 3230   2.640   2.995   2.779  2.6703  0.7240 -0.8623
  808SOL    HW2 3231   2.683   3.154   2.745  0.1504  0.7582  0.7730
  808SOL     MW 3232   2.663   3.080   2.798  0.1530 -0.2079 -0.1799
  809SOL     OW 3233   2.688   1.352   2.392 -0.2755 -0.5593  0.3342
  809SOL    HW1 3234   2.720   1.293   2.465 -2.2038  0.7366  2.1241
  809SOL    HW2 3235   2.735   1.328   2.307 -2.1411  0.2381  0.2297
  809SOL     MW 3236   2.698   1.341   2.391 -0.7761 -0.2831  0.5566
  810SOL     OW 3237   2.241   1.332   2.299  0.1498 -0.3694 -0.0700
  810SOL    HW1 3238   2.310   1.268   2.310  1.3338  2.7459 -1.5687
  810SOL    HW2 3239   2.170   1.307   2.356  1.2102 -1.3119 -0.1047
  810SOL     MW 3240   2.241   1.320   2.308  0.4459 -0.0827 -0.2723
  811SOL     OW 3241   1.573   0.152   2.310 -0.6702 -0.1596  0.1320
  811SOL    HW1 3242   1.665   0.147   2.339 -0.2585  0.7530  0.9695
  811SOL    HW2 3243   1.577   0.139   2.219  2.0110 -0.6657  1.1193
  811SOL     MW 3244   1.586   0.150   2.302 -0.2621 -0.1060  0.3727
  812SOL     OW 3245   1.475   2.826   2.036  0.3400 -0.4641 -0.1671
  812SOL    HW1 3246   1.571   2.825   2.025  0.2141  0.5380 -1.1849
  812SOL    HW2 3247   1.462   2.803   2.130  1.1257  0.3346  1.0507
  812SOL     MW 3248   1.486   2.823   2.047  0.4271 -0.2265 -0.1407
  813SOL     OW 3249   2.015   0.609   2.245 -0.4663 -0.0517 -0.2102
  813SOL    HW1 3250   1.928   0.580   2.232 -1.6815 -3.2127 -0.8162
  813SOL    HW2 3251   2.007   0.693   2.298 -0.9276  1.5116 -0.4003
  813SOL     MW 3252   2.002   0.616   2.251 -0.6875 -0.2625 -0.3152
  814SOL     OW 3253   2.704   1.210   1.657  0.5168  0.0374 -0.0766
  814SOL    HW1 3254   2.645   1.169   1.725  2.2042 -0.1076 -1.5309
  814SOL    HW2 3255   2.685   1.185   1.569 -0.3826 -0.5488 -0.1869
  814SOL     MW 3256   2.693   1.202   1.654  0.6208 -0.0591 -0.2831
  815SOL     OW 3257   2.547   1.762   2.405  0.4924  0.5072 -0.3412
  815SOL    HW1 3258   2.494   1.687   2.381 -0.4163 -1.6427 -2.0799
  815SOL    HW2 3259   2.632   1.722   2.406  2.0638  1.8441 -0.1858
  815SOL     MW 3260   2.551   1.747   2.402  0.5798  0.4000 -0.5501
  816SOL     OW 3261   0.749   0.703   2.771  0.0268 -0.4383 -0.5472
  816SOL    HW1 3262   0.765   0.613   2.770 -4.1151  3.0649 -1.6558
  816SOL    HW2 3263   0.657   0.710   2.724  2.4794  1.0630  0.6253
  816SOL     MW 3264   0.739   0.692   2.765 -0.1961  0.2220 -0.5388
  817SOL     OW 3265   2.991   1.238   1.464  0.2956  0.0131  0.3676
  817SOL    HW1 3266   3.084   1.246   1.472 -1.4069  0.1473 -1.8461
  817SOL    HW2 3267   2.969   1.313   1.399 -0.7979 -0.4692 -1.4720
  817SOL     MW 3268   3.000   1.249   1.457 -0.0733 -0.0329 -0.1672
  818SOL     OW 3269   1.924   1.041   2.632  0.9753 -0.2286  0.1963
  818SOL    HW1 3270   1.892   0.987   2.552  0.5696 -1.7526 -2.6416
  818SOL    HW2 3271   1.994   0.991   2.681 -0.6671 -3.2086 -3.4310
  818SOL     MW 3272   1.929   1.028   2.628  0.7051 -0.8228 -0.6567
  819SOL     OW 3273   1.974   0.316   2.492  0.3134 -0.6774  0.0248
  819SOL    HW1 3274   1.892   0.371   2.511  1.3194  1.1280  1.6830
  819SOL    HW2 3275   2.017   0.321   2.580 -0.8450  2.0110  1.1288
  819SOL     MW 3276   1.969   0.324   2.506  0.2933 -0.0845  0.3892
  820SOL     OW 3277   2.450   1.675   2.642 -0.1809  0.6478  0.6411
  820SOL    HW1 3278   2.518   1.620   2.686 -0.1012 -0.4634 -0.7280
  820SOL    HW2 3279   2.493   1.699   2.558  0.4593 -2.0862  0.6287
  820SOL     MW 3280   2.465   1.671   2.637 -0.0859  0.1405  0.4588
  821SOL     OW 3281   2.564   1.362   1.985 -0.5163 -0.1745 -0.3267
  821SOL    HW1 3282   2.566   1.434   1.923  1.9844 -1.8265  3.0109
  821SOL    HW2 3283   2.475   1.367   2.019 -1.3127 -1.4064  1.5333
  821SOL     MW 3284   2.552   1.372   1.981 -0.2915 -0.5550  0.3591
  822SOL     OW 3285   2.884   2.725   1.465 -0.6841 -0.7889 -0.1672
  822SOL    HW1 3286   2.885   2.680   1.548  1.2071 -1.9307  1.9689
  822SOL    HW2 3287   2.935   2.808   1.480  0.9873  0.3574  0.0912
  822SOL     MW 3288   2.891   2.730   1.478 -0.2141 -0.7883  0.1487
  823SOL     OW 3289   2.374   0.525   1.838  0.2487 -0.2357 -0.3776
  823SOL    HW1 3290   2.457   0.511   1.782  1.0614  0.0901 -4.8521
  823SOL    HW2 3291   2.369   0.470   1.916  0.5112  0.4902  2.9385
  823SOL     MW 3292   2.384   0.516   1.841  0.3906 -0.0969 -0.5304
  824SOL     OW 3293   2.268   1.456   2.661 -0.3324 -0.4277 -0.2820
  824SOL    HW1 3294   2.334   1.518   2.633 -0.8339 -0.3352  0.2527
  824SOL    HW2 3295   2.200   1.515   2.694  0.7716 -1.4734 -2.0316
  824SOL     MW 3296   2.268   1.472   2.661 -0.2529 -0.5535 -0.4423
  825SOL     OW 3297   1.896   2.552   0.256  0.2407  0.1379 -0.2425
  825SOL    HW1 3298   1.873   2.501   0.340  0.9058 -0.4889  2.9087
  825SOL    HW2 3299   1.974   2.511   0.218 -3.1781 -1.7234 -1.1731
  825SOL     MW 3300   1.903   2.540   0.262 -0.1227 -0.1904  0.0505
  826SOL     OW 3301   1.790   2.383   0.448  0.1702 -0.0445  0.4767
  826SOL    HW1 3302   1.757   2.294   0.478 -1.4985 -0.5756  3.4342
  826SOL    HW2 3303   1.761   2.443   0.515 -2.4743 -0.9489  1.0162
  826SOL     MW 3304   1.782   2.379   0.460 -0.3989 -0.2339  0.9381
  827SOL     OW 3305   1.885   2.188   0.797 -0.4113 -0.3662  0.0595
  827SOL    HW1 3306   1.814   2.204   0.733  1.4560 -0.6595 -2.0664
  827SOL    HW2 3307   1.841   2.134   0.859  1.1402 -0.7287  2.3783
  827SOL     MW 3308   1.870   2.183   0.797  0.0397 -0.4527  0.0850
  828SOL     OW 3309   0.036   2.610   0.574 -0.7076  0.2540  0.1996
  828SOL    HW1 3310   0.134   2.600   0.579 -1.8408 -2.3235 -0.9521
  828SOL    HW2 3311   0.013   2.665   0.500  0.8438 -1.9036 -0.9921
  828SOL     MW 3312   0.046   2.616   0.565 -0.6524 -0.3707 -0.1096
  829SOL     OW 3313   2.998   2.927   1.201  0.1705 -0.1414  0.1085
  829SOL    HW1 3314   2.924   2.939   1.143  1.6140  2.1987  0.8000
  829SOL    HW2 3315   3.042   2.843   1.171  0.4852 -0.2949  2.0683
  829SOL     MW 3316   2.994   2.918   1.189  0.4025  0.1471  0.4583
  830SOL     OW 3317   2.583   2.814   2.029 -0.0599  0.3285 -0.1473
  830SOL    HW1 3318   2.487   2.795   2.003  2.9894 -1.8588 -0.0880
  830SOL    HW2 3319   2.630   2.816   1.944  0.1232  2.8081  1.0774
  830SOL     MW 3320   2.577   2.812   2.014  0.3666  0.3671  0.0221
  831SOL     OW 3321   2.343   2.451   1.166 -0.2503  0.4285 -0.2553
  831SOL    HW1 3322   2.301   2.407   1.246 -0.6274  0.9738 -0.3063
  831SOL    HW2 3323   2.437   2.432   1.179 -0.6232  1.1661 -0.2760
  831SOL     MW 3324   2.350   2.443   1.178 -0.3492  0.5978 -0.2648
  832SOL     OW 3325   2.358   2.188   1.863 -0.1692 -0.0091  0.1049
  832SOL    HW1 3326   2.403   2.265   1.897  0.9490  0.8807 -1.7527
  832SOL    HW2 3327   2.430   2.122   1.849  0.7001 -1.0277  2.3974
  832SOL     MW 3328   2.373   2.189   1.866  0.0930 -0.0261  0.1623
  833SOL     OW 3329   1.730   2.463   0.865  0.1545 -0.1087  0.2569
  833SOL    HW1 3330   1.682   2.394   0.908 -1.1923  0.9581  0.7010
  833SOL    HW2 3331   1.728   2.530   0.930  0.1782 -4.6768 -2.3776
  833SOL     MW 3332   1.724   2.463   0.879 -0.0201 -0.5707 -0.0321
  834SOL     OW 3333   2.061   2.437   0.589 -0.4428  0.2539 -0.1436
  834SOL    HW1 3334   1.971   2.416   0.574  1.2451  0.7604  1.0991
  834SOL    HW2 3335   2.109   2.420   0.507  1.0298 -2.1583 -0.0875
  834SOL     MW 3336   2.056   2.432   0.576 -0.0258  0.0025  0.0278
  835SOL     OW 3337   1.763   2.574   0.625  0.0101  0.5875 -0.6691
  835SOL    HW1 3338   1.759   2.515   0.707  2.2214 -1.2540  2.6562
  835SOL    HW2 3339   1.806   2.660   0.649  1.4248  3.6538 -2.2966
  835SOL     MW 3340   1.768   2.578   0.639  0.4885  0.7491 -0.4451
  836SOL     OW 3341   1.902   2.173   1.579  0.1350  0.2468  0.2538
  836SOL    HW1 3342   1.989   2.209   1.595  1.1666  2.4796  0.6757
  836SOL    HW2 3343   1.841   2.228   1.633  0.2503  0.3975  0.6385
  836SOL     MW 3344   1.905   2.185   1.588  0.2863  0.5613  0.3602
  837SOL     OW 3345   2.131   0.237   0.680  0.3621 -0.0901 -0.2023
  837SOL    HW1 3346   2.056   0.276   0.629  0.2442  0.7626  1.3741
  837SOL    HW2 3347   2.168   0.167   0.627  2.3837 -0.3100  0.8109
  837SOL     MW 3348   2.126   0.233   0.666  0.6133 -0.0066  0.1394
  838SOL     OW 3349   2.920   2.035   0.937  0.0070  0.2000 -0.0281
  838SOL    HW1 3350   2.859   1.989   0.996  1.7243 -0.7019  1.6681
  838SOL    HW2 3351   2.987   1.978   0.902  0.0570 -1.0384  0.4864
  838SOL     MW 3352   2.921   2.021   0.940  0.2402 -0.0824  0.2635
  839SOL     OW 3353   1.519   2.323   1.052 -0.4496 -0.5714 -0.1014
  839SOL    HW1 3354   1.544   2.393   1.118  1.7159 -1.8134 -1.4166
  839SOL    HW2 3355   1.539   2.238   1.096 -0.9871  1.6639 -1.6453
  839SOL     MW 3356   1.525   2.321   1.067 -0.2348 -0.4403 -0.4787
  840SOL     OW 3357   2.360   2.161   2.472 -0.3665  0.0663  0.3045
  840SOL    HW1 3358   2.333   2.233   2.419  1.2494 -0.0486  0.4188
  840SOL    HW2 3359   2.361   2.181   2.563  0.8425 -2.5218 -2.3955
  840SOL     MW 3360   2.356   2.173   2.477  0.0062 -0.2904 -0.0367
  841SOL     OW 3361   2.102   2.459   0.126  1.0501  0.3067  0.4222
  841SOL    HW1 3362   2.130   2.515   0.052  1.2607 -2.2702 -2.5233
  841SOL    HW2 3363   2.095   2.368   0.094  1.4324 -2.6108 -0.0164
  841SOL     MW 3364   2.104   2.455   0.112  1.1283 -0.4183 -0.0243
  842SOL     OW 3365   2.663   2.088   1.531 -0.6073  0.0294 -0.0338
  842SOL    HW1 3366   2.618   2.018   1.577 -0.7155 -0.0073  0.9002
  842SOL    HW2 3367   2.616   2.103   1.444 -0.3426  3.6130  1.2141
  842SOL     MW 3368   2.651   2.081   1.525 -0.5867  0.4974  0.2541
  843SOL     OW 3369   2.682   2.783   1.767  0.6260  0.7601 -0.2149
  843SOL    HW1 3370   2.736   2.698   1.776  2.1383  0.1548 -1.0552
  843SOL    HW2 3371   2.593   2.742   1.737  1.0608  1.8740 -1.3643
  843SOL     MW 3372   2.677   2.766   1.764  0.8829  0.8272 -0.4774
  844SOL     OW 3373   2.611   2.374   1.163  0.1052 -0.4890  0.0939
  844SOL    HW1 3374   2.662   2.401   1.081 -1.4509  1.5329 -0.2073
  844SOL    HW2 3375   2.678   2.397   1.233 -2.1293 -0.2770  2.3241
  844SOL     MW 3376   2.627   2.381   1.161 -0.3949 -0.1943  0.3484
  845SOL     OW 3377   2.825   2.492   0.303  0.3292  0.4244  0.2690
  845SOL    HW1 3378   2.777   2.409   0.305 -0.8153 -0.7328 -0.7161
  845SOL    HW2 3379   2.826   2.511   0.396 -1.2966 -1.0240 -2.4848
  845SOL     MW 3380   2.818   2.484   0.316 -0.0363  0.0806 -0.2243
  846SOL     OW 3381   1.567   2.843   0.806 -0.7147  0.0770  0.3619
  846SOL    HW1 3382   1.637   2.886   0.855 -1.8357  0.1970  1.5201
  846SOL    HW2 3383   1.490   2.882   0.841 -1.4647 -0.3177  1.2866
  846SOL     MW 3384   1.566   2.854   0.817 -0.9615  0.0408  0.6367
  847SOL     OW 3385   2.607   1.903   0.190  0.4403 -0.2089  0.0921
  847SOL    HW1 3386   2.691   1.868   0.182 -0.3323  1.2995  1.3051
  847SOL    HW2 3387   2.562   1.853   0.129 -0.4715 -0.1667  0.2636
  847SOL     MW 3388   2.612   1.892   0.181  0.2180 -0.0043  0.2748
  848SOL     OW 3389   2.505   2.129   1.293 -0.4580  0.0289  0.0597
  848SOL    HW1 3390   2.524   2.197   1.223  2.0311  3.5155  0.0436
  848SOL    HW2 3391   2.462   2.055   1.249 -0.6130  0.9590  1.7727
  848SOL     MW 3392   2.502   2.128   1.278 -0.1500  0.6116  0.2836
  849SOL     OW 3393   1.990   2.739   0.806 -0.1841  0.4031  0.2466
  849SOL    HW1 3394   2.009   2.648   0.830  0.3023  0.5858 -2.5868
  849SOL    HW2 3395   2.053   2.751   0.740  0.6470 -1.2471 -0.0606
  849SOL     MW 3396   2.001   2.728   0.800 -0.0103  0.2095 -0.1678
  850SOL     OW 3397   2.191   1.968   1.683  0.0973  0.1125 -0.0359
  850SOL    HW1 3398   2.121   1.927   1.631 -2.9955 -0.8145  0.9651
  850SOL    HW2 3399   2.160   2.059   1.705 -0.4867  1.7895  1.1848
  850SOL     MW 3400   2.178   1.975   1.679 -0.3878  0.2114  0.2572
  851SOL     OW 3401   2.214   2.360   0.358 -0.3014  0.1578  0.0885
  851SOL    HW1 3402   2.197   2.409   0.281  3.0010  2.1096 -2.0199
  851SOL    HW2 3403   2.297   2.387   0.397  2.1513  0.2654 -1.0743
  851SOL     MW 3404   2.223   2.370   0.353  0.4580  0.4295 -0.3431
  852SOL     OW 3405   2.278   2.141   0.174 -0.2099  0.2101 -0.5807
  852SOL    HW1 3406   2.271   2.202   0.247 -0.8197  0.8788 -2.0038
  852SOL    HW2 3407   2.358   2.164   0.122 -0.2786  1.2791 -0.9827
  852SOL     MW 3408   2.288   2.152   0.177 -0.2994  0.4393 -0.8215
  853SOL     OW 3409   2.446   2.449   1.972  0.4040  0.0530  0.2446
  853SOL    HW1 3410   2.474   2.503   1.901 -0.5115 -1.9736  0.6861
  853SOL    HW2 3411   2.533   2.426   2.013 -1.1723  0.8716 -0.6578
  853SOL     MW 3412   2.461   2.453   1.968  0.0752 -0.1064  0.1838
  854SOL     OW 3413   2.885   2.229   0.740  0.1708  0.4152  0.0328
  854SOL    HW1 3414   2.813   2.182   0.695 -0.2253  1.8130  0.8478
  854SOL    HW2 3415   2.906   2.173   0.819  1.7126 -0.8899 -0.4910
  854SOL     MW 3416   2.879   2.215   0.745  0.3219  0.4275  0.0712
  855SOL     OW 3417   2.694   2.271   0.305  0.1488 -0.6918  0.2408
  855SOL    HW1 3418   2.664   2.281   0.391 -1.6797 -2.0086 -1.1552
  855SOL    HW2 3419   2.770   2.210   0.314 -1.3928 -3.2047  0.8773
  855SOL     MW 3420   2.700   2.264   0.318 -0.2959 -1.1971  0.1406
  856SOL     OW 3421   2.163   1.879   0.197 -0.0674  0.1984  0.6172
  856SOL    HW1 3422   2.065   1.876   0.201 -0.6154  0.1247  2.0796
  856SOL    HW2 3423   2.188   1.973   0.203  0.8654  2.3840 -0.8291
  856SOL     MW 3424   2.153   1.891   0.198 -0.0166  0.4770  0.6193
  857SOL     OW 3425   2.544   1.908   0.466 -0.1633  0.0749  0.2718
  857SOL    HW1 3426   2.568   1.902   0.376 -0.4306 -2.5573  4.0261
  857SOL    HW2 3427   2.453   1.874   0.457 -2.9289  0.0716 -4.0331
  857SOL     MW 3428   2.535   1.903   0.453 -0.5634 -0.2728  0.1991
  858SOL     OW 3429   2.920   2.624   1.733 -0.1126 -0.0454 -0.4550
  858SOL    HW1 3430   2.995   2.647   1.791 -1.3290  0.5961  0.7564
  858SOL    HW2 3431   2.873   2.556   1.780  0.9138  2.8669 -1.7662
  858SOL     MW 3432   2.923   2.618   1.747 -0.1377  0.4235 -0.4681
  859SOL     OW 3433   2.078   2.469   0.864  0.1439  0.5759 -0.6413
  859SOL    HW1 3434   2.058   2.438   0.777 -0.3400  1.3894 -2.9914
  859SOL    HW2 3435   2.143   2.408   0.899 -0.0044 -2.9885 -0.5875
  859SOL     MW 3436   2.084   2.457   0.857  0.0605  0.2130 -0.9443
  860SOL     OW 3437   2.652   2.630   0.143  0.4549 -0.2573 -0.5504
  860SOL    HW1 3438   2.720   2.600   0.206 -1.7329 -0.2188 -0.4385
  860SOL    HW2 3439   2.698   2.693   0.092 -0.1007 -1.0021  1.8785
  860SOL     MW 3440   2.667   2.635   0.144  0.0930 -0.3505 -0.2152
  861SOL     OW 3441   1.586   2.092   1.184  0.3381  0.0728  0.6577
  861SOL    HW1 3442   1.662   2.076   1.238 -0.1753 -1.9819  0.4292
  861SOL    HW2 3443   1.508   2.054   1.237 -1.2962  0.3110  0.0964
  861SOL     MW 3444   1.586   2.085   1.198  0.0547 -0.1669  0.5535
  862SOL     OW 3445   2.388   1.844   1.535  0.2449 -0.0527 -0.0360
  862SOL    HW1 3446   2.329   1.906   1.571  3.0154  1.2701 -2.0775
  862SOL    HW2 3447   2.348   1.850   1.444 -0.0745  2.4914  0.6458
  862SOL     MW 3448   2.375   1.853   1.527  0.5683  0.4575 -0.2154
  863SOL     OW 3449   3.055   1.794   1.189 -0.0000  0.0432  0.6682
  863SOL    HW1 3450   3.141   1.818   1.164  0.4140 -1.2199 -1.2525
  863SOL    HW2 3451   3.023   1.880   1.194 -0.5126 -2.2786  0.7599
  863SOL     MW 3452   3.062   1.809   1.186 -0.0130 -0.4298  0.4269
  864SOL     OW 3453   0.020   1.825   0.857  0.2464  0.0865 -0.6421
  864SOL    HW1 3454  -0.055   1.780   0.898 -0.0528 -0.9394 -1.2811
  864SOL    HW2 3455   0.009   1.814   0.755 -0.9182  0.8466 -1.6039
  864SOL     MW 3456   0.009   1.818   0.849  0.0533  0.0514 -0.8533
  865SOL     OW 3457   2.535   2.177   0.054  0.3390 -0.1120  0.2356
  865SOL    HW1 3458   2.595   2.110   0.101 -2.5344  1.5068  2.3482
  865SOL    HW2 3459   2.521   2.137  -0.030  0.5342 -0.0521 -0.3647
  865SOL     MW 3460   2.541   2.163   0.049 -0.0144  0.1095  0.4351
  866SOL     OW 3461   2.671   2.363   1.599 -0.6022 -0.5275  0.5848
  866SOL    HW1 3462   2.665   2.274   1.563 -1.4261  1.4387 -2.4327
  866SOL    HW2 3463   2.718   2.400   1.526 -1.9360 -2.2942  0.5427
  866SOL     MW 3464   2.676   2.356   1.585 -0.8869 -0.5012  0.1811
  867SOL     OW 3465   0.053   2.742   1.834 -0.7984  0.3137 -0.2711
  867SOL    HW1 3466   0.079   2.762   1.925 -0.8450  1.0564 -1.8463
  867SOL    HW2 3467   0.052   2.819   1.785  1.3082 -1.5669  0.2333
  867SOL     MW 3468   0.056   2.755   1.839 -0.5266  0.1636 -0.4124
  868SOL     OW 3469   2.795   2.567   0.555  0.4070  0.5839  0.0897
  868SOL    HW1 3470   2.709   2.519   0.562  0.2873 -0.1270  1.5614
  868SOL    HW2 3471   2.775   2.653   0.515 -1.2918  1.5999  1.7594
  868SOL     MW 3472   2.781   2.572   0.550  0.1671  0.6242  0.5042
  869SOL     OW 3473   1.944   2.335   1.056  0.1607  0.0956 -0.1303
  869SOL    HW1 3474   1.947   2.423   1.012 -1.4312 -0.0836 -0.5715
  869SOL    HW2 3475   1.910   2.282   0.974  0.5646  1.4920 -0.0772
  869SOL     MW 3476   1.940   2.340   1.039  0.0040  0.2562 -0.1815
  870SOL     OW 3477   2.233   0.022   0.517 -0.4634  0.0754  0.1324
  870SOL    HW1 3478   2.276   0.075   0.452  1.0385 -2.5360  1.4254
  870SOL    HW2 3479   2.272  -0.065   0.520 -1.1969 -0.3849  0.1818
  870SOL     MW 3480   2.244   0.018   0.509 -0.3620 -0.3299  0.3095
  871SOL     OW 3481   2.476   1.992   0.902 -0.0638 -0.8062  0.3812
  871SOL    HW1 3482   2.421   1.944   0.842 -0.0979 -0.7724  1.9944
  871SOL    HW2 3483   2.412   2.052   0.937  1.3328  0.8205  2.3252
  871SOL     MW 3484   2.460   1.994   0.898  0.1160 -0.5871  0.8506
  872SOL     OW 3485   2.003   2.509   1.371 -0.1054 -0.1435  0.3446
  872SOL    HW1 3486   1.986   2.548   1.457  0.2651 -2.7683 -2.3893
  872SOL    HW2 3487   1.921   2.463   1.356 -0.1667 -0.3268 -2.0685
  872SOL     MW 3488   1.990   2.508   1.380 -0.0646 -0.5140 -0.3345
  873SOL     OW 3489   2.831   2.075   1.936 -0.0399 -0.4378  0.2686
  873SOL    HW1 3490   2.863   2.127   2.006  1.5733 -2.2699 -1.4079
  873SOL    HW2 3491   2.883   2.091   1.855 -1.0518 -2.8792 -1.4264
  873SOL     MW 3492   2.842   2.084   1.935  0.0395 -1.0016 -0.1762
  874SOL     OW 3493   2.431   1.526   2.381 -0.2159 -0.5050  0.2281
  874SOL    HW1 3494   2.349   1.477   2.361 -3.2214 -0.3299 -1.2895
  874SOL    HW2 3495   2.504   1.465   2.389  2.5423 -0.0031  1.0184
  874SOL     MW 3496   2.430   1.511   2.379 -0.2485 -0.4157  0.1321
  875SOL     OW 3497   2.324   2.283   0.939  0.0757 -0.1526  0.5888
  875SOL    HW1 3498   2.360   2.341   0.869  0.0341  1.2572  1.2673
  875SOL    HW2 3499   2.317   2.343   1.011 -0.4167 -1.1431  2.3267
  875SOL     MW 3500   2.328   2.299   0.939  0.0053 -0.0973  0.9076
  876SOL     OW 3501   3.032   2.327   1.313  0.4836 -0.1656 -0.8382
  876SOL    HW1 3502   3.079   2.330   1.227  0.2481 -1.1630  0.7186
  876SOL    HW2 3503   3.072   2.371   1.389 -2.4572 -1.2793  0.9091
  876SOL     MW 3504   3.043   2.333   1.311  0.0645 -0.4441 -0.4023
  877SOL     OW 3505   3.007   2.736   0.336  0.1085 -0.4465  0.4057
  877SOL    HW1 3506   3.059   2.810   0.309 -0.1385 -1.0369 -0.2977
  877SOL    HW2 3507   3.037   2.663   0.285  0.0764 -0.4676  2.8717
  877SOL     MW 3508   3.018   2.736   0.326  0.0717 -0.5272  0.6383
  878SOL     OW 3509   2.300   1.827   1.271 -0.0985  0.0129 -0.8043
  878SOL    HW1 3510   2.251   1.741   1.272  0.8686  0.8030 -1.5704
  878SOL    HW2 3511   2.391   1.802   1.259 -1.3680  1.1702 -0.1542
  878SOL     MW 3512   2.306   1.813   1.270 -0.1384  0.2699 -0.8196
  879SOL     OW 3513   2.752   2.432   0.893 -0.2235 -0.0297  0.1137
  879SOL    HW1 3514   2.810   2.508   0.918 -1.4150 -1.5435 -0.1954
  879SOL    HW2 3515   2.807   2.374   0.846  2.0585 -0.2654  2.5773
  879SOL     MW 3516   2.767   2.434   0.890 -0.0796 -0.2605  0.3979
  880SOL     OW 3517   2.620   2.105   0.672 -0.0526  1.4191  0.1047
  880SOL    HW1 3518   2.572   2.081   0.757  0.8606  2.0400  1.4912
  880SOL    HW2 3519   2.573   2.061   0.602 -2.6889  0.1992 -0.4107
  880SOL     MW 3520   2.608   2.096   0.674 -0.2800  1.3401  0.2196
  881SOL     OW 3521   2.935   2.691   0.753  0.2777 -0.0095 -0.0464
  881SOL    HW1 3522   2.877   2.639   0.696  0.9602 -0.4662 -3.2945
  881SOL    HW2 3523   3.015   2.666   0.702  3.0666 -0.5667  0.8437
  881SOL     MW 3524   2.938   2.681   0.739  0.7358 -0.1433 -0.3575
  882SOL     OW 3525   2.316   2.820   1.921 -0.2760  1.0381  0.9332
  882SOL    HW1 3526   2.288   2.829   1.830 -1.4852 -0.6163  1.0526
  882SOL    HW2 3527   2.261   2.749   1.955  1.3583  1.0328  0.7302
  882SOL     MW 3528   2.305   2.812   1.913 -0.2199  0.8191  0.9222
  883SOL     OW 3529   2.269   2.273   1.379 -0.0232  0.1795  0.6330
  883SOL    HW1 3530   2.354   2.222   1.376  2.4083 -0.4223 -1.0002
  883SOL    HW2 3531   2.206   2.227   1.316 -0.4131  0.3813 -2.1675
  883SOL     MW 3532   2.272   2.260   1.370  0.2462  0.1267  0.0480
  884SOL     OW 3533   1.872   1.880   1.131 -0.0934 -0.1670 -0.1101
  884SOL    HW1 3534   1.838   1.962   1.096 -1.0841  0.7461 -0.2729
  884SOL    HW2 3535   1.962   1.895   1.112 -0.9356 -0.3400  0.7348
  884SOL     MW 3536   1.880   1.893   1.124 -0.3353 -0.0694 -0.0201
  885SOL     OW 3537   2.795   2.415   1.847  0.1143 -0.0370  0.3545
  885SOL    HW1 3538   2.879   2.379   1.886  4.0089 -1.2471 -1.1581
  885SOL    HW2 3539   2.782   2.384   1.757  0.9940 -1.5351 -1.1702
  885SOL     MW 3540   2.804   2.406   1.840  0.7442 -0.3943 -0.0462
  886SOL     OW 3541   2.797   2.452   1.349 -0.4276  0.0311 -0.5579
  886SOL    HW1 3542   2.884   2.420   1.321 -0.9432 -0.6319 -0.8912
  886SOL    HW2 3543   2.817   2.545   1.363 -0.1480 -1.6890 -1.5102
  886SOL     MW 3544   2.811   2.460   1.347 -0.4588 -0.2834 -0.7275
  887SOL     OW 3545   2.300   2.609   1.494 -0.0453  0.3818 -0.2627
  887SOL    HW1 3546   2.343   2.650   1.415  1.7445 -2.3394  0.0190
  887SOL    HW2 3547   2.236   2.543   1.463 -1.4457  0.3860  2.1867
  887SOL     MW 3548   2.297   2.606   1.480  0.0061  0.0233  0.0976
  888SOL     OW 3549   1.811   2.088   1.341  0.1869  0.5212  0.1759
  888SOL    HW1 3550   1.887   2.073   1.282  0.8944 -1.0240 -0.3146
  888SOL    HW2 3551   1.859   2.111   1.423  3.6260 -1.2342 -0.2509
  888SOL     MW 3552   1.827   2.089   1.344  0.7340  0.0857  0.0549
  889SOL     OW 3553   2.360   2.013   2.101  0.1099 -0.3036 -0.6516
  889SOL    HW1 3554   2.445   2.016   2.148 -1.7476  0.5746  2.1357
  889SOL    HW2 3555   2.368   2.087   2.039 -1.4083  2.3927 -0.9442
  889SOL     MW 3556   2.373   2.023   2.099 -0.3355  0.1680 -0.3225
  890SOL     OW 3557   0.103   2.283   0.105 -0.6322  0.0520  0.7451
  890SOL    HW1 3558   0.053   2.362   0.120 -0.9715  0.3470 -2.0879
  890SOL    HW2 3559   0.098   2.243   0.194 -1.2213 -0.3780 -0.6171
  890SOL     MW 3560   0.096   2.288   0.119 -0.7547  0.0342  0.1916
  891SOL     OW 3561   3.042   2.056   1.289 -0.2518  0.1705 -0.8577
  891SOL    HW1 3562   3.133   2.043   1.302  1.0925 -2.3151  1.9809
  891SOL    HW2 3563   3.030   2.144   1.317  0.0615  0.2015  0.4578
  891SOL     MW 3564   3.052   2.066   1.295 -0.0331 -0.1534 -0.3096
  892SOL     OW 3565   2.364   2.416   2.976 -0.6367 -0.0203 -0.3917
  892SOL    HW1 3566   2.369   2.337   3.023  1.9892  2.6759  2.4243
  892SOL    HW2 3567   2.453   2.430   2.935  0.4395  3.3652 -1.7103
  892SOL     MW 3568   2.377   2.408   2.977 -0.1482  0.7821 -0.1942
  893SOL     OW 3569   1.587   2.514   1.224  0.4993 -0.3783  0.0680
  893SOL    HW1 3570   1.496   2.519   1.276 -1.5758  2.1823  1.6266
  893SOL    HW2 3571   1.653   2.446   1.261  0.0623  1.0884  1.6270
  893SOL     MW 3572   1.583   2.506   1.236  0.1678  0.1530  0.4793
  894SOL     OW 3573   2.832   1.915   0.494  0.0922  0.0869 -0.3997
  894SOL    HW1 3574   2.736   1.940   0.501  1.6547 -0.8696 -1.1254
  894SOL    HW2 3575   2.840   1.853   0.413  1.1503  2.7223 -0.7966
  894SOL     MW 3576   2.821   1.910   0.484  0.4379  0.3084 -0.5478
  895SOL     OW 3577   2.085   2.158   1.200  0.4884 -0.0172  1.2544
  895SOL    HW1 3578   2.043   2.230   1.150  1.0836  0.7349 -0.1889
  895SOL    HW2 3579   2.116   2.087   1.140 -1.8826 -1.2628  0.9183
  895SOL     MW 3580   2.084   2.158   1.185  0.2541 -0.0823  1.0196
  896SOL     OW 3581   2.194   2.824   1.089 -0.0169 -0.2474  0.4169
  896SOL    HW1 3582   2.251   2.803   1.164 -1.0569  1.0001 -0.1855
  896SOL    HW2 3583   2.114   2.774   1.111 -3.9896  1.2922  2.3283
  896SOL     MW 3584   2.191   2.815   1.102 -0.6783  0.1203  0.5896
  897SOL     OW 3585   2.978   2.975   0.194  0.1302 -0.2126  0.0470
  897SOL    HW1 3586   3.059   2.944   0.152  0.2603 -1.6631  0.0290
  897SOL    HW2 3587   2.917   2.914   0.161 -0.6895  2.3904  3.8508
  897SOL     MW 3588   2.980   2.963   0.184  0.0392 -0.0605  0.5465
  898SOL     OW 3589   2.089   0.202   1.460  0.4805  0.3680  0.1988
  898SOL    HW1 3590   2.016   0.142   1.429  0.8158 -0.9375  2.9652
  898SOL    HW2 3591   2.132   0.226   1.378 -0.4186 -0.1533 -0.5687
  898SOL     MW 3592   2.085   0.197   1.445  0.4061  0.1270  0.4625
  899SOL     OW 3593   2.887   2.952   0.699 -0.6026 -0.4255  0.1988
  899SOL    HW1 3594   2.874   2.859   0.722 -0.0371 -0.9333 -2.3909
  899SOL    HW2 3595   2.799   2.997   0.696 -1.6350 -0.4198  2.2937
  899SOL     MW 3596   2.874   2.946   0.701 -0.6642 -0.4918  0.1335
  900SOL     OW 3597   0.128   2.357   1.108  0.0481 -0.3939 -0.1110
  900SOL    HW1 3598   0.144   2.452   1.096 -2.4362 -0.0862 -0.4327
  900SOL    HW2 3599   0.144   2.312   1.025  0.6443  0.5075 -0.7777
  900SOL     MW 3600   0.132   2.364   1.095 -0.2010 -0.2344 -0.2414
  901SOL     OW 3601   1.758   2.857   1.715  0.6046  0.9630  0.0590
  901SOL    HW1 3602   1.841   2.816   1.682 -0.1900  1.8034  0.0277
  901SOL    HW2 3603   1.690   2.846   1.651  0.3283  1.3251 -3.6608
  901SOL     MW 3604   1.760   2.850   1.702  0.4633  1.1217 -0.4360
  902SOL     OW 3605   2.578   2.007   1.842  0.4536  0.3788  0.3954
  902SOL    HW1 3606   2.559   1.925   1.889 -1.0571 -0.4886  1.3752
  902SOL    HW2 3607   2.658   2.056   1.868 -2.9229  1.9892 -1.3780
  902SOL     MW 3608   2.586   2.003   1.852 -0.1912  0.4769  0.2907
  903SOL     OW 3609   1.610   2.791   0.543 -0.5529 -0.4463  0.2963
  903SOL    HW1 3610   1.651   2.709   0.572  0.2341  0.1741 -3.1550
  903SOL    HW2 3611   1.591   2.825   0.637 -0.5625  0.3167 -0.1049
  903SOL     MW 3612   1.613   2.784   0.560 -0.4503 -0.2638 -0.2120
  904SOL     OW 3613   2.490   2.574   1.703 -0.1973 -0.0218  0.5578
  904SOL    HW1 3614   2.423   2.590   1.639 -1.1587 -1.0493  1.2856
  904SOL    HW2 3615   2.529   2.495   1.662 -1.6010  0.4561  1.9216
  904SOL     MW 3616   2.486   2.566   1.689 -0.5094 -0.0943  0.8338
  905SOL     OW 3617   2.330   2.576   2.189 -0.5031 -0.1390 -0.1648
  905SOL    HW1 3618   2.370   2.523   2.121  0.1730 -2.3668  3.0283
  905SOL    HW2 3619   2.289   2.505   2.251 -0.4825 -1.5901 -0.5173
  905SOL     MW 3620   2.330   2.560   2.188 -0.4112 -0.6244  0.2100
  906SOL     OW 3621   2.500   2.462   0.771 -0.6673  0.0292 -1.1092
  906SOL    HW1 3622   2.591   2.460   0.809 -0.1302 -2.7542 -0.3924
  906SOL    HW2 3623   2.455   2.547   0.790 -0.2873  1.4306 -0.1491
  906SOL     MW 3624   2.506   2.473   0.778 -0.5463 -0.1531 -0.8880
  907SOL     OW 3625   2.631   2.910   1.247  0.4080  0.7236  0.0129
  907SOL    HW1 3626   2.692   2.885   1.315 -1.3143 -1.0066  0.2763
  907SOL    HW2 3627   2.689   2.918   1.171  0.9173  0.2421 -1.7951
  907SOL     MW 3628   2.647   2.908   1.246  0.2480  0.4318 -0.1909
  908SOL     OW 3629   2.713   2.391   0.016  0.7542 -0.3304 -0.0541
  908SOL    HW1 3630   2.664   2.318   0.067 -3.5967 -1.9773  1.3438
  908SOL    HW2 3631   2.695   2.472   0.064 -3.5344  1.9061  1.5253
  908SOL     MW 3632   2.704   2.392   0.029 -0.3857 -0.2526  0.3387
  909SOL     OW 3633   1.607   0.197   1.035 -0.4680 -0.4534  0.2272
  909SOL    HW1 3634   1.663   0.251   0.979  2.2762 -4.1142  0.8739
  909SOL    HW2 3635   1.580   0.250   1.108  1.3404  0.5991  1.9864
  909SOL     MW 3636   1.611   0.211   1.037  0.1327 -0.7975  0.5447
  910SOL     OW 3637   2.299   1.775   0.417  0.3287  0.2449  0.1706
  910SOL    HW1 3638   2.231   1.709   0.445 -1.8607  0.6584  1.1813
  910SOL    HW2 3639   2.256   1.816   0.344  0.7416 -1.1845  1.6171
  910SOL     MW 3640   2.284   1.772   0.411  0.0943  0.1109  0.4948
  911SOL     OW 3641   2.158   2.306   1.662  0.2108 -0.1606  0.1424
  911SOL    HW1 3642   2.225   2.283   1.729  2.4014  1.0324  2.6080
  911SOL    HW2 3643   2.197   2.291   1.572 -0.0487  2.1667 -1.4056
  911SOL     MW 3644   2.172   2.301   1.659  0.4656  0.3039  0.2635
  912SOL     OW 3645   2.905   1.935   1.510 -0.2686  0.4516 -0.0331
  912SOL    HW1 3646   2.955   1.965   1.433  1.4153  1.3574  2.2006
  912SOL    HW2 3647   2.821   1.973   1.511 -1.4105  0.0239  1.7149
  912SOL     MW 3648   2.901   1.944   1.500 -0.1971  0.5147  0.4922
  913SOL     OW 3649   2.541   2.941   0.419 -0.0933  0.0838  0.2480
  913SOL    HW1 3650   2.624   2.887   0.414  0.0738 -0.9898 -2.1700
  913SOL    HW2 3651   2.463   2.885   0.437 -0.4608 -1.7623 -0.2141
  913SOL     MW 3652   2.542   2.927   0.421 -0.1197 -0.3014 -0.1320
  914SOL     OW 3653   2.781   1.652   0.020 -0.5169  0.3132 -0.0889
  914SOL    HW1 3654   2.823   1.703  -0.054  1.8940 -0.7271  2.8295
  914SOL    HW2 3655   2.690   1.654   0.013  2.5397 -3.6242  0.6777
  914SOL     MW 3656   2.774   1.659   0.009  0.2044 -0.3435  0.3973
  915SOL     OW 3657   1.846   0.175   0.233 -0.2677  0.3209  0.3478
  915SOL    HW1 3658   1.896   0.111   0.283  3.0156  1.6787  0.3895
  915SOL    HW2 3659   1.752   0.151   0.233 -2.7289  0.8680  0.0792
  915SOL     MW 3660   1.840   0.163   0.239 -0.1592  0.5722  0.3179
  916SOL     OW 3661   1.811   2.084   1.985 -0.4388  0.1598 -0.4407
  916SOL    HW1 3662   1.826   2.180   1.969  1.7706 -1.1920  1.4865
  916SOL    HW2 3663   1.840   2.041   1.907  0.7417  1.8542 -0.2722
  916SOL     MW 3664   1.817   2.091   1.972  0.0084  0.2050 -0.1642
  917SOL     OW 3665   2.324   2.346   2.687  0.6916  0.0380  0.0868
  917SOL    HW1 3666   2.321   2.360   2.780  0.8089 -2.3800  0.3492
  917SOL    HW2 3667   2.272   2.410   2.643 -0.9367 -1.1278  1.8631
  917SOL     MW 3668   2.317   2.356   2.693  0.4922 -0.4349  0.3558
  918SOL     OW 3669   2.077   1.661   2.667 -0.0989  0.0247  0.0811
  918SOL    HW1 3670   2.001   1.680   2.609 -2.5259  2.5034  3.2607
  918SOL    HW2 3671   2.129   1.741   2.652 -2.2759 -1.4029 -1.0619
  918SOL     MW 3672   2.074   1.674   2.657 -0.7064  0.1634  0.3498
  919SOL     OW 3673   3.100   2.379   2.261  0.1070 -0.1552 -0.0242
  919SOL    HW1 3674   3.011   2.335   2.229  2.2646 -0.4198 -0.8652
  919SOL    HW2 3675   3.162   2.361   2.189 -0.2460 -0.9267 -2.8581
  919SOL     MW 3676   3.096   2.371   2.247  0.3451 -0.2919 -0.5091
  920SOL     OW 3677   2.762   2.831   0.030 -0.0753  0.0871  0.1213
  920SOL    HW1 3678   2.688   2.885   0.068  0.4883 -1.6597  1.2258
  920SOL    HW2 3679   2.738   2.795  -0.059 -3.7029 -1.1266  1.8149
  920SOL     MW 3680   2.749   2.833   0.023 -0.4796 -0.3035  0.4905
  921SOL     OW 3681   2.502   2.620   2.667 -0.2959  0.3950 -0.2325
  921SOL    HW1 3682   2.566   2.642   2.601 -0.4098 -0.3908  0.1684
  921SOL    HW2 3683   2.525   2.540   2.704  1.4660 -1.3899  0.0796
  921SOL     MW 3684   2.513   2.612   2.663 -0.0785  0.0558 -0.1384
  922SOL     OW 3685   2.042   2.807   0.259 -0.0469 -0.0862  0.4218
  922SOL    HW1 3686   2.010   2.822   0.165 -0.1171 -1.5080  1.2735
  922SOL    HW2 3687   2.016   2.715   0.288  1.4425  2.4274  2.2500
  922SOL     MW 3688   2.035   2.797   0.251  0.1403  0.0579  0.7754
  923SOL     OW 3689   2.211   2.831   1.655  0.2889 -0.1380  0.1747
  923SOL    HW1 3690   2.232   2.770   1.581 -0.9832  1.0255 -0.0812
  923SOL    HW2 3691   2.207   2.918   1.613 -1.5195 -1.1402  1.7782
  923SOL     MW 3692   2.213   2.834   1.640 -0.1175 -0.1167  0.3525
  924SOL     OW 3693   1.168   2.782   2.509  0.0495  0.0232  0.6214
  924SOL    HW1 3694   1.218   2.858   2.471 -0.5008  1.3241  2.6456
  924SOL    HW2 3695   1.233   2.746   2.575  1.7694 -1.0755  0.1678
  924SOL     MW 3696   1.183   2.787   2.512  0.2038  0.0499  0.8286
  925SOL     OW 3697   2.949   0.195   2.663 -0.0703  0.0181 -0.5973
  925SOL    HW1 3698   2.987   0.220   2.579 -2.0162 -2.1127  1.5633
  925SOL    HW2 3699   2.919   0.282   2.707 -3.2754  0.1508 -2.3651
  925SOL     MW 3700   2.950   0.210   2.658 -0.7499 -0.2455 -0.5455
  926SOL     OW 3701   2.682   2.401   2.099  0.8089  0.1094 -0.1370
  926SOL    HW1 3702   2.736   2.458   2.154  1.3322 -1.2005 -0.3898
  926SOL    HW2 3703   2.721   2.392   2.010 -1.6980 -0.9929 -0.2639
  926SOL     MW 3704   2.694   2.407   2.094  0.5472 -0.2089 -0.1871
  927SOL     OW 3705   2.360   0.144   0.312  0.0404 -0.1072 -0.0973
  927SOL    HW1 3706   2.449   0.135   0.289  0.4791  1.4354  1.4702
  927SOL    HW2 3707   2.316   0.108   0.232  0.9025 -1.1502 -3.8006
  927SOL     MW 3708   2.366   0.138   0.299  0.2120 -0.0412 -0.3791
  928SOL     OW 3709   2.001   2.497   1.773 -0.1824 -0.3776 -0.1088
  928SOL    HW1 3710   2.086   2.451   1.753  1.3686  2.2191  1.0139
  928SOL    HW2 3711   2.031   2.549   1.850 -0.7406  1.4411  0.7213
  928SOL     MW 3712   2.016   2.498   1.781 -0.0515  0.2050  0.1489
  929SOL     OW 3713   2.764   2.363   2.465 -0.0402  0.3299  0.4132
  929SOL    HW1 3714   2.775   2.285   2.420  0.2082  0.5368  0.0563
  929SOL    HW2 3715   2.743   2.336   2.554 -2.3154 -4.4644 -1.1899
  929SOL     MW 3716   2.763   2.349   2.470 -0.3077 -0.2753  0.1546
  930SOL     OW 3717   2.030   2.909   2.670  0.0065 -0.1374  0.2989
  930SOL    HW1 3718   2.023   2.845   2.740  1.6855 -0.2163  0.3277
  930SOL    HW2 3719   2.125   2.925   2.652 -2.1243 -0.6085 -0.5526
  930SOL     MW 3720   2.041   2.903   2.677 -0.0531 -0.2100  0.1903
  931SOL     OW 3721   2.937   2.813   2.232  0.3830 -0.7394  0.1659
  931SOL    HW1 3722   3.029   2.813   2.254 -1.1895  0.2281  0.5724
  931SOL    HW2 3723   2.923   2.834   2.140  2.2221 -0.4185 -2.3538
  931SOL     MW 3724   2.947   2.816   2.223  0.4182 -0.5694 -0.1129
  932SOL     OW 3725   2.830   1.929   2.566 -0.2153  0.0182 -0.1822
  932SOL    HW1 3726   2.921   1.959   2.573  0.0754  0.0001 -0.9882
  932SOL    HW2 3727   2.811   1.908   2.476 -3.7101  0.6873 -2.9398
  932SOL     MW 3728   2.839   1.930   2.555 -0.6381  0.1041 -0.6524
  933SOL     OW 3729   2.027   2.814   2.216  0.2718 -0.0617 -0.3338
  933SOL    HW1 3730   2.115   2.845   2.240 -1.0386  0.1857  1.1170
  933SOL    HW2 3731   1.976   2.894   2.190 -5.5851 -2.2470  2.9580
  933SOL     MW 3732   2.032   2.829   2.216 -0.6738 -0.3174  0.2919
  934SOL     OW 3733   2.039   2.708   2.485  0.1357  0.6445  0.5000
  934SOL    HW1 3734   2.027   2.792   2.528  1.1136  2.4492 -1.2953
  934SOL    HW2 3735   2.024   2.734   2.390  0.8737  1.7289  1.5540
  934SOL     MW 3736   2.036   2.723   2.479  0.3621  1.0257  0.4022
  935SOL     OW 3737   2.604   1.563   1.802  0.1214 -0.8134  0.1947
  935SOL    HW1 3738   2.692   1.544   1.770 -1.3736  0.8284  3.3877
  935SOL    HW2 3739   2.553   1.569   1.727  1.3453  0.0865  4.2153
  935SOL     MW 3740   2.609   1.561   1.788  0.0857 -0.4780  1.1465
  936SOL     OW 3741   2.951   2.248   3.056 -0.1126  0.1142  0.4521
  936SOL    HW1 3742   3.034   2.297   3.067  2.2168 -0.1039  0.8402
  936SOL    HW2 3743   2.881   2.311   3.064 -0.4201 -2.1664 -1.2183
  936SOL     MW 3744   2.953   2.263   3.059  0.1542 -0.2155  0.2829
  937SOL     OW 3745   1.974   2.191   2.621  0.1833 -0.2507 -0.4033
  937SOL    HW1 3746   2.053   2.187   2.676  0.3520  0.8821  0.2432
  937SOL    HW2 3747   2.001   2.154   2.533 -0.6455 -0.0284 -1.1417
  937SOL     MW 3748   1.988   2.186   2.616  0.0962 -0.0719 -0.4154
  938SOL     OW 3749   2.292   1.826   1.901  0.5999 -0.5294  0.1253
  938SOL    HW1 3750   2.273   1.870   1.818 -0.5272  1.8512  0.5835
  938SOL    HW2 3751   2.305   1.893   1.964 -0.9407 -3.0937 -2.9975
  938SOL     MW 3752   2.291   1.840   1.898  0.2479 -0.5536 -0.2262
  939SOL     OW 3753   2.808   1.938   2.294  0.1790  0.2376  0.4662
  939SOL    HW1 3754   2.807   1.877   2.223  0.2738 -0.7283 -0.3765
  939SOL    HW2 3755   2.722   1.985   2.302 -0.4811  1.1607  0.6935
  939SOL     MW 3756   2.797   1.936   2.286  0.1044  0.2320  0.3850
  940SOL     OW 3757   2.298   0.133   2.705  0.7500 -0.2848  0.2171
  940SOL    HW1 3758   2.285   0.042   2.686  3.7692 -0.6030  2.4190
  940SOL    HW2 3759   2.370   0.129   2.764 -0.6476 -0.4663 -2.0359
  940SOL     MW 3760   2.306   0.120   2.710  0.9640 -0.3507  0.2104
  941SOL     OW 3761   0.146   2.337   2.062 -0.1650 -0.6719 -0.6425
  941SOL    HW1 3762   0.215   2.275   2.047 -3.1604  2.6243 -0.8498
  941SOL    HW2 3763   0.086   2.336   1.986  1.9760  1.2563  0.8188
  941SOL     MW 3764   0.148   2.329   2.050 -0.2778  0.0174 -0.4770
  942SOL     OW 3765   2.876   2.220   2.172 -0.2768 -0.5585  0.2310
  942SOL    HW1 3766   2.793   2.277   2.147 -1.2100  1.7348  1.7634
  942SOL    HW2 3767   2.853   2.145   2.227 -0.9260  2.4702 -0.3609
  942SOL     MW 3768   2.862   2.218   2.176 -0.4856  0.1437  0.3551
  943SOL     OW 3769   0.298   2.022   2.332  0.9573  0.4666 -0.1033
  943SOL    HW1 3770   0.235   2.094   2.361 -0.5369  0.8250  1.4074
  943SOL    HW2 3771   0.380   2.051   2.378  1.2740 -1.2222  3.7568
  943SOL     MW 3772   0.301   2.035   2.342  0.8019  0.2911  0.6053
  944SOL     OW 3773   2.117   2.637   1.999  0.2338 -0.6890  0.0812
  944SOL    HW1 3774   2.184   2.608   2.064 -0.4152  1.4304  1.2164
  944SOL    HW2 3775   2.076   2.705   2.049  2.3408 -0.3162  0.5864
  944SOL     MW 3776   2.120   2.642   2.014  0.4262 -0.3602  0.2977
  945SOL     OW 3777   2.764   2.678   2.882  0.2040 -0.1469 -0.2909
  945SOL    HW1 3778   2.691   2.620   2.870  3.0439 -0.9678  1.6601
  945SOL    HW2 3779   2.805   2.673   2.797 -1.3953  0.8534  0.2898
  945SOL     MW 3780   2.760   2.670   2.869  0.3677 -0.1233  0.0432
  946SOL     OW 3781   2.512   2.760   2.299  0.2056  0.0039  0.0012
  946SOL    HW1 3782   2.555   2.764   2.212 -1.3367 -2.4329 -0.2071
  946SOL    HW2 3783   2.447   2.693   2.289 -3.5357  2.0688 -0.0875
  946SOL     MW 3784   2.509   2.752   2.286 -0.4915 -0.0452 -0.0380
  947SOL     OW 3785   2.037   3.093   0.310 -0.4057 -0.9069 -0.9036
  947SOL    HW1 3786   2.016   2.996   0.289 -0.3349 -0.3282 -3.7242
  947SOL    HW2 3787   2.095   3.087   0.386  3.7194 -4.2462  2.6405
  947SOL     MW 3788   2.042   3.079   0.317  0.1479 -1.2712 -0.8081
  948SOL     OW 3789   1.813   3.073   2.623 -0.2639 -0.1254  0.6441
  948SOL    HW1 3790   1.880   3.003   2.632 -0.4456 -0.6713 -0.9700
  948SOL    HW2 3791   1.807   3.093   2.532  1.1336 -3.2060  0.7880
  948SOL     MW 3792   1.821   3.066   2.612 -0.1035 -0.6039  0.4501
  949SOL     OW 3793   2.543   2.025   2.296  0.7481  0.3219 -0.0275
  949SOL    HW1 3794   2.537   1.936   2.339  1.4911 -0.9042  0.0812
  949SOL    HW2 3795   2.511   2.096   2.357  1.4207  1.9193 -1.1843
  949SOL     MW 3796   2.538   2.023   2.310  0.9349  0.3709 -0.1658
  950SOL     OW 3797   2.186   2.625   3.037  0.2845  0.0615  0.0138
  950SOL    HW1 3798   2.257   2.560   3.018  1.5443 -0.0205 -3.7459
  950SOL    HW2 3799   2.145   2.628   2.950  2.1644  0.6935  1.1036
  950SOL     MW 3800   2.190   2.617   3.023  0.6988  0.1341 -0.3384
  951SOL     OW 3801   2.944   2.064   2.815  1.0509 -0.2018 -0.3030
  951SOL    HW1 3802   2.956   2.146   2.859 -1.2830  1.0793 -2.8986
  951SOL    HW2 3803   3.003   2.058   2.735 -1.0346  1.4380  1.6389
  951SOL     MW 3804   2.953   2.074   2.811  0.4678  0.1836 -0.3892
  952SOL     OW 3805   3.040   1.659   2.061 -0.8109  1.0026 -0.5734
  952SOL    HW1 3806   2.959   1.709   2.038 -1.9583  2.3529 -0.4074
  952SOL    HW2 3807   3.099   1.731   2.068 -2.3417 -0.8521 -0.7820
  952SOL     MW 3808   3.037   1.675   2.059 -1.1643  0.9360 -0.5790
  953SOL     OW 3809   1.956   1.826   2.873  0.7493 -0.0587  0.4524
  953SOL    HW1 3810   1.863   1.809   2.884  2.4343 -1.8446 -0.0944
  953SOL    HW2 3811   1.995   1.766   2.814 -2.0012  1.7031  0.0960
  953SOL     MW 3812   1.949   1.816   2.867  0.6087 -0.0618  0.3332
  954SOL     OW 3813   2.442   2.097   2.906  0.2127  0.1892 -0.9469
  954SOL    HW1 3814   2.351   2.104   2.862 -3.3663 -1.3900  1.1486
  954SOL    HW2 3815   2.501   2.074   2.829  1.2699  1.0249  2.0933
  954SOL     MW 3816   2.437   2.095   2.890 -0.1200  0.0911 -0.2693
  955SOL     OW 3817   1.597   1.622   2.589  0.6636 -0.7125 -0.1101
  955SOL    HW1 3818   1.576   1.616   2.493 -1.8868  0.6462 -3.7973
  955SOL    HW2 3819   1.686   1.669   2.582 -0.4380  1.8297 -1.0570
  955SOL     MW 3820   1.606   1.627   2.576  0.1818 -0.1978 -0.7215
  956SOL     OW 3821   2.616   2.442   2.872 -0.0855  0.6663 -0.8755
  956SOL    HW1 3822   2.645   2.444   2.967 -0.5531  2.3938  1.0508
  956SOL    HW2 3823   2.674   2.372   2.828  2.2455 -0.4313 -0.0206
  956SOL     MW 3824   2.627   2.433   2.879  0.1604  0.7494 -0.5085
  957SOL     OW 3825   2.297   2.791   0.401 -0.4098 -0.2081 -0.2606
  957SOL    HW1 3826   2.226   2.833   0.342  0.1779 -0.2362 -1.1352
  957SOL    HW2 3827   2.247   2.740   0.472  1.1667  0.7537  0.3005
  957SOL     MW 3828   2.281   2.790   0.403 -0.1242 -0.0849 -0.3020
  958SOL     OW 3829   2.000   2.679   2.828 -0.1027 -0.1239 -0.5431
  958SOL    HW1 3830   1.986   2.593   2.779 -0.5495  0.7543 -0.7858
  958SOL    HW2 3831   1.926   2.687   2.885  5.0484 -0.0559 -1.4509
  958SOL     MW 3832   1.989   2.669   2.829  0.5180  0.0009 -0.6949
  959SOL     OW 3833   2.431   2.564   0.325 -0.4946  0.0165 -0.4385
  959SOL    HW1 3834   2.478   2.598   0.250 -0.5349  1.0836  0.1812
  959SOL    HW2 3835   2.393   2.647   0.365  1.8521  3.3444  0.7420
  959SOL     MW 3836   2.432   2.579   0.320 -0.1903  0.5964 -0.2010
  960SOL     OW 3837   1.930   2.393   2.303 -0.1819 -0.6455  0.1953
  960SOL    HW1 3838   1.935   2.301   2.303 -0.7724  0.1944 -2.2990
  960SOL    HW2 3839   1.888   2.423   2.385 -1.5355  0.8419  0.6923
  960SOL     MW 3840   1.925   2.385   2.314 -0.4384 -0.3384 -0.0683
  961SOL     OW 3841   2.222   2.387   2.355 -0.4382 -1.0911 -0.0645
  961SOL    HW1 3842   2.137   2.408   2.320  0.8780  2.9500  3.4203
  961SOL    HW2 3843   2.212   2.443   2.435 -2.2948 -1.9421 -2.2707
  961SOL     MW 3844   2.209   2.397   2.361 -0.5095 -0.6702  0.1042
  962SOL     OW 3845   2.193   2.070   2.799  0.5110  0.5294 -0.2888
  962SOL    HW1 3846   2.189   2.000   2.863  0.8399  0.8159  0.5585
  962SOL    HW2 3847   2.228   2.017   2.729  1.1227 -0.6909 -2.1465
  962SOL     MW 3848   2.197   2.054   2.798  0.6351  0.4062 -0.4221
  963SOL     OW 3849   1.770   2.586   2.110  0.2544  0.2286 -0.5181
  963SOL    HW1 3850   1.828   2.545   2.165 -0.2744 -0.9627 -3.2437
  963SOL    HW2 3851   1.744   2.517   2.055  0.0958  2.9905  0.9857
  963SOL     MW 3852   1.774   2.571   2.110  0.1637  0.4358 -0.6793
  964SOL     OW 3853   1.820   1.977   2.700  0.1423  0.2803  0.2884
  964SOL    HW1 3854   1.879   2.054   2.661  5.3559  1.6791  0.7584
  964SOL    HW2 3855   1.883   1.948   2.772 -0.6654  0.9532  2.4859
  964SOL     MW 3856   1.836   1.984   2.704  0.7236  0.5536  0.6403
  965SOL     OW 3857   2.197   2.681   0.633  0.0751 -0.6927 -0.4523
  965SOL    HW1 3858   2.168   2.593   0.652 -1.7162  1.3666 -1.3662
  965SOL    HW2 3859   2.255   2.704   0.705 -0.7556  1.3870  1.4482
  965SOL     MW 3860   2.201   2.672   0.645 -0.2709 -0.1466 -0.3221
  966SOL     OW 3861   2.691   2.652   2.465 -0.5217  0.2503 -0.1748
  966SOL    HW1 3862   2.634   2.699   2.400 -0.3217  1.7309 -0.2985
  966SOL    HW2 3863   2.693   2.557   2.446 -2.0356  0.6330  1.2067
  966SOL     MW 3864   2.684   2.645   2.454 -0.6951  0.4962 -0.0089
  967SOL     OW 3865   2.879   2.992   2.923  0.2724 -0.0985  0.0501
  967SOL    HW1 3866   2.853   2.937   2.993 -0.8802 -2.1731 -2.4990
  967SOL    HW2 3867   2.794   3.024   2.874  0.1920  0.1469 -1.0798
  967SOL     MW 3868   2.864   2.989   2.926  0.1097 -0.3398 -0.4353
  968SOL     OW 3869   3.007   2.559   2.985 -0.1343  0.4751 -0.1591
  968SOL    HW1 3870   2.928   2.613   2.976 -5.1368  1.3102 -1.8280
  968SOL    HW2 3871   3.034   2.520   2.904  0.6715  0.0681  1.4629
  968SOL     MW 3872   3.000   2.561   2.973 -0.6880  0.5316 -0.1653
  969SOL     OW 3873   1.542   2.115   1.724 -0.4656 -0.3772 -0.2509
  969SOL    HW1 3874   1.602   2.040   1.742 -1.1717  1.5046 -1.2185
  969SOL    HW2 3875   1.511   2.148   1.814 -0.3658  2.8302  1.9267
  969SOL     MW 3876   1.546   2.110   1.738 -0.5456  0.2943 -0.0912
  970SOL     OW 3877   1.644   1.709   1.867 -0.3892  0.5022 -0.0372
  970SOL    HW1 3878   1.724   1.687   1.913 -0.9337  1.1677  0.6374
  970SOL    HW2 3879   1.568   1.675   1.917 -0.8007 -1.6314  1.7003
  970SOL     MW 3880   1.645   1.702   1.879 -0.5153  0.3085  0.2810
  971SOL     OW 3881   1.838   0.122   2.363 -0.3204  0.0398 -0.3534
  971SOL    HW1 3882   1.892   0.106   2.291 -0.5336  4.3170  1.5890
  971SOL    HW2 3883   1.882   0.201   2.413  2.2934  3.0139 -0.8121
  971SOL     MW 3884   1.851   0.131   2.360 -0.0037  0.9965 -0.1576
  972SOL     OW 3885   0.283   2.779   2.522 -0.3600 -0.5363 -0.2482
  972SOL    HW1 3886   0.316   2.685   2.538  2.4244  0.6327  0.0993
  972SOL    HW2 3887   0.354   2.832   2.565  1.3529  1.1009 -3.1331
  972SOL     MW 3888   0.297   2.773   2.530  0.2333 -0.1660 -0.5829
  973SOL     OW 3889   2.589   0.010   2.053  0.0291 -0.2565  0.0235
  973SOL    HW1 3890   2.568  -0.080   2.054 -1.0382  1.9174  1.5598
  973SOL    HW2 3891   2.580   0.036   1.962 -1.1372 -0.7838  0.6770
  973SOL     MW 3892   2.585   0.002   2.041 -0.2656 -0.0392  0.3124
  974SOL     OW 3893   2.117   0.358   2.741  0.1502 -0.5519  0.4499
  974SOL    HW1 3894   2.184   0.295   2.709  1.7609  0.2656  1.0240
  974SOL    HW2 3895   2.062   0.301   2.788  0.7240  1.2867 -1.2179
  974SOL     MW 3896   2.119   0.342   2.743  0.4384 -0.2015  0.3056
  975SOL     OW 3897   2.250   2.566   2.548 -0.1122  0.0556  0.5406
  975SOL    HW1 3898   2.338   2.587   2.571  0.5609 -0.7802 -0.5881
  975SOL    HW2 3899   2.205   2.650   2.548  0.2299  0.0554 -1.8677
  975SOL     MW 3900   2.256   2.580   2.551  0.0217 -0.0547  0.0740
  976SOL     OW 3901   0.216   0.285   1.695 -0.0731  0.8065 -0.3204
  976SOL    HW1 3902   0.271   0.226   1.752  2.3312  0.4828  3.4074
  976SOL    HW2 3903   0.126   0.238   1.689  0.0717  1.3554 -2.3070
  976SOL     MW 3904   0.212   0.271   1.702  0.2632  0.8362 -0.0907
  977SOL     OW 3905   1.702   2.749   2.480  0.3494 -0.2216  0.5470
  977SOL    HW1 3906   1.714   2.650   2.492 -1.0044 -0.5202 -1.2476
  977SOL    HW2 3907   1.752   2.781   2.405  0.5015 -0.3640  0.3467
  977SOL     MW 3908   1.710   2.740   2.472  0.1909 -0.2798  0.2838
   3.10000   3.10000   3.10000
