977 TIP4P/2005f water molecules t=   1.75000 step= 1750
 3908
    1SOL     OW    1   0.407   0.784   0.106 -0.0480 -0.2263 -0.0522
    1SOL    HW1    2   0.357   0.772   0.025  1.6720 -0.3225 -2.6188
    1SOL    HW2    3   0.403   0.709   0.167  0.8969  3.4132  1.1601
    1SOL     MW    4   0.400   0.773   0.103  0.3036  0.2412 -0.2309
    2SOL     OW    5   0.311   3.019   1.091 -0.3310 -0.1873  0.6367
    2SOL    HW1    6   0.354   3.104   1.065  0.9630  0.3007  0.3450
    2SOL    HW2    7   0.214   3.035   1.091  0.2246  0.6081 -2.0011
    2SOL     MW    8   0.304   3.032   1.088 -0.0870 -0.0180  0.2502
    3SOL     OW    9   2.679   0.350   0.984  0.2204  1.0201 -0.0553
    3SOL    HW1   10   2.725   0.428   0.943 -1.0569 -2.3521  0.4667
    3SOL    HW2   11   2.675   0.366   1.086  0.6333  0.0906 -0.8006
    3SOL     MW   12   2.685   0.362   0.992  0.1064  0.4526 -0.0848
    4SOL     OW   13   2.936   1.697   0.516 -0.6721 -0.3374  0.8622
    4SOL    HW1   14   2.882   1.780   0.516  2.1080  1.0415 -0.7673
    4SOL    HW2   15   3.012   1.700   0.457  0.2460 -3.4585  0.2665
    4SOL     MW   16   2.939   1.708   0.508 -0.1842 -0.5673  0.5686
    5SOL     OW   17   1.604   1.405   0.621  0.4818 -0.0231 -0.0436
    5SOL    HW1   18   1.661   1.436   0.697 -0.8912  2.5056  2.2937
    5SOL    HW2   19   1.523   1.444   0.639  1.1403  0.0803  0.1805
    5SOL     MW   20   1.601   1.414   0.633  0.3876  0.3242  0.2943
    6SOL     OW   21   0.791   1.432   0.605  0.4679 -0.1871  0.2380
    6SOL    HW1   22   0.697   1.406   0.585  0.0293  2.1760  1.0916
    6SOL    HW2   23   0.824   1.351   0.652  1.3850  0.6313 -0.2818
    6SOL     MW   24   0.783   1.418   0.609  0.5310  0.2327  0.2821
    7SOL     OW   25   1.954   1.039   0.014 -0.1702 -1.1436 -0.1418
    7SOL    HW1   26   2.020   1.103  -0.015  4.1312  0.3293  0.8440
    7SOL    HW2   27   1.963   1.029   0.114  2.2778 -0.6299  2.2319
    7SOL     MW   28   1.964   1.046   0.023  0.7203 -0.8815  0.3015
    8SOL     OW   29   0.805   1.449   1.048  0.3543 -0.6972 -0.5411
    8SOL    HW1   30   0.871   1.502   1.086 -2.7811  0.4541  3.6705
    8SOL    HW2   31   0.788   1.374   1.109  1.0547  0.7168 -1.9967
    8SOL     MW   32   0.811   1.446   1.061  0.0330 -0.3587 -0.1775
    9SOL     OW   33   0.922   0.519   1.311  0.1081  0.0826  0.0243
    9SOL    HW1   34   0.857   0.446   1.283 -1.8065 -0.2167  2.2459
    9SOL    HW2   35   0.986   0.467   1.359  2.3384  0.0676 -0.7187
    9SOL     MW   36   0.922   0.502   1.313  0.1498  0.0412  0.2194
   10SOL     OW   37   0.294   0.821   0.481  0.1576  0.1880 -0.1027
   10SOL    HW1   38   0.385   0.857   0.479  0.0676 -1.0000 -0.5782
   10SOL    HW2   39   0.263   0.853   0.571  0.6292 -1.2769  2.9432
   10SOL     MW   40   0.302   0.830   0.493  0.2079 -0.1620  0.2365
   11SOL     OW   41   0.772   1.131   1.476 -0.1612 -0.2146 -0.3326
   11SOL    HW1   42   0.813   1.136   1.564  1.2740  2.0713 -1.5066
   11SOL    HW2   43   0.822   1.058   1.426  0.4943  0.5688 -2.9990
   11SOL     MW   44   0.784   1.122   1.481  0.1147  0.1903 -0.8393
   12SOL     OW   45   0.054   1.076   0.914  0.6730 -0.0630  0.1665
   12SOL    HW1   46   0.108   1.149   0.948 -0.6271 -1.4324  1.0343
   12SOL    HW2   47  -0.006   1.114   0.845 -2.2027  0.8710 -1.8175
   12SOL     MW   48   0.053   1.091   0.909  0.1220 -0.1205  0.0192
   13SOL     OW   49   1.816   1.406   1.304 -0.0754  0.1628  0.1009
   13SOL    HW1   50   1.828   1.318   1.267  1.2689  0.8210  1.3730
   13SOL    HW2   51   1.899   1.456   1.293 -2.5110  4.1813  0.1932
   13SOL     MW   52   1.828   1.401   1.297 -0.2194  0.7798  0.2809
   14SOL     OW   53   0.573   0.317   1.816  0.7236 -0.4380  1.0262
   14SOL    HW1   54   0.494   0.272   1.784 -1.6392  0.0115 -1.3061
   14SOL    HW2   55   0.636   0.303   1.751 -0.5815  0.5996  1.2414
   14SOL     MW   56   0.571   0.310   1.803  0.2396 -0.2418  0.7469
   15SOL     OW   57   2.012   0.431   0.979  0.4262  0.2250 -0.3282
   15SOL    HW1   58   2.033   0.515   1.021  1.8345 -0.6565 -1.8020
   15SOL    HW2   59   2.053   0.447   0.897 -0.2169  1.0220  1.5549
   15SOL     MW   60   2.020   0.444   0.974  0.5272  0.2139 -0.2742
   16SOL     OW   61   0.266   1.818   0.275  0.1293  0.1791 -0.2059
   16SOL    HW1   62   0.349   1.780   0.304 -1.6854  2.4458 -1.3289
   16SOL    HW2   63   0.273   1.902   0.321  0.6562 -0.4064  1.4763
   16SOL     MW   64   0.278   1.824   0.285 -0.0406  0.4009 -0.1321
   17SOL     OW   65   1.117   0.858   1.413 -0.0695  0.2802  0.1982
   17SOL    HW1   66   1.149   0.836   1.503 -1.2852 -0.4489 -1.1142
   17SOL    HW2   67   1.015   0.859   1.414 -0.1130  0.8132  0.8441
   17SOL     MW   68   1.107   0.855   1.425 -0.2357  0.2544  0.1102
   18SOL     OW   69   0.041   1.648   0.347 -0.0919  0.2348  0.3024
   18SOL    HW1   70   0.112   1.715   0.333 -0.5778 -0.3475  2.5103
   18SOL    HW2   71   0.014   1.603   0.267  0.9632 -0.0202 -1.0271
   18SOL     MW   72   0.047   1.651   0.334 -0.0168  0.1244  0.4183
   19SOL     OW   73   0.110   1.345   0.984 -0.0030  0.6715  0.1167
   19SOL    HW1   74   0.108   1.361   0.891  0.0724 -3.3800 -0.5972
   19SOL    HW2   75   0.017   1.348   1.011 -1.6950 -0.9008  0.1756
   19SOL     MW   76   0.097   1.347   0.975 -0.2163 -0.0705  0.0303
   20SOL     OW   77   0.445   2.120   1.262  0.2802  0.2407 -0.0268
   20SOL    HW1   78   0.407   2.067   1.191 -0.1413 -0.7721  1.1381
   20SOL    HW2   79   0.401   2.084   1.344 -0.0865 -2.1070 -0.2507
   20SOL     MW   80   0.434   2.108   1.264  0.1762 -0.2027  0.0974
   21SOL     OW   81   0.558   0.898   0.420 -0.1375  0.6281  0.2568
   21SOL    HW1   82   0.628   0.838   0.449  3.1955 -2.8366  1.2860
   21SOL    HW2   83   0.584   0.933   0.334 -1.0760  0.0425  1.3758
   21SOL     MW   84   0.570   0.895   0.412  0.1784  0.0937  0.5402
   22SOL     OW   85   1.547   0.710   1.025 -0.0780  0.3134 -0.0432
   22SOL    HW1   86   1.560   0.718   0.933 -2.3799  0.7492 -0.0699
   22SOL    HW2   87   1.488   0.781   1.041  1.8535 -1.6518  1.2365
   22SOL     MW   88   1.541   0.720   1.015 -0.1268  0.1116  0.1221
   23SOL     OW   89   3.048   0.815   0.735 -0.0132  0.2639 -0.6492
   23SOL    HW1   90   3.103   0.759   0.791 -1.5168 -1.4079 -0.0983
   23SOL    HW2   91   3.114   0.880   0.709 -0.0051  2.1298 -2.6406
   23SOL     MW   92   3.064   0.817   0.739 -0.2105  0.2895 -0.8392
   24SOL     OW   93   2.078   2.144   0.077  0.2192 -0.8810 -0.1927
   24SOL    HW1   94   2.039   2.140   0.167 -0.0103 -1.2900  1.4156
   24SOL    HW2   95   2.044   2.060   0.050 -0.7288  0.5939  1.3745
   24SOL     MW   96   2.068   2.133   0.085  0.0638 -0.7404  0.2262
   25SOL     OW   97   0.221   1.438   0.415  0.0677  0.2000 -0.1631
   25SOL    HW1   98   0.159   1.518   0.402  1.3582 -2.6918 -1.4887
   25SOL    HW2   99   0.287   1.437   0.343  3.8106 -0.5958  0.1577
   25SOL     MW  100   0.221   1.448   0.404  0.7318 -0.2865 -0.2957
   26SOL     OW  101   2.004   1.062   0.273 -0.4523 -0.2858  0.4682
   26SOL    HW1  102   1.962   1.088   0.356 -1.4746 -0.7505 -0.0821
   26SOL    HW2  103   2.070   1.132   0.252  0.4376 -1.0247 -0.9853
   26SOL     MW  104   2.008   1.074   0.281 -0.4698 -0.4446  0.2038
   27SOL     OW  105   1.854   1.365   0.122  0.1128 -0.0540  0.5457
   27SOL    HW1  106   1.817   1.452   0.137 -0.1227 -0.3031  0.5703
   27SOL    HW2  107   1.904   1.360   0.200  0.0693  0.5537 -0.3903
   27SOL     MW  108   1.855   1.376   0.134  0.0760 -0.0067  0.4254
   28SOL     OW  109   0.426   0.934   2.056  0.4567  0.2227  0.2931
   28SOL    HW1  110   0.466   0.917   2.143  1.3604 -1.1809  2.0265
   28SOL    HW2  111   0.334   0.915   2.080 -0.2349 -0.5063  0.4808
   28SOL     MW  112   0.419   0.929   2.071  0.4847 -0.0587  0.5466
   29SOL     OW  113   0.169   1.435   0.725 -0.3077  0.1264 -0.2687
   29SOL    HW1  114   0.208   1.525   0.708 -1.6459  0.2867 -2.2618
   29SOL    HW2  115   0.107   1.418   0.654 -1.1068  0.3371 -0.9757
   29SOL     MW  116   0.166   1.445   0.713 -0.5897  0.1753 -0.6249
   30SOL     OW  117   0.731   1.278   1.239  0.7961 -0.1414  0.4104
   30SOL    HW1  118   0.636   1.273   1.258  1.4739  2.9096 -1.2263
   30SOL    HW2  119   0.773   1.239   1.316 -3.2113 -1.5096 -1.5523
   30SOL     MW  120   0.724   1.272   1.252  0.3568  0.0806 -0.0645
   31SOL     OW  121   0.509   0.248   0.227  0.2161 -0.9295 -0.0969
   31SOL    HW1  122   0.536   0.157   0.252 -0.8136  0.7949 -1.4026
   31SOL    HW2  123   0.494   0.236   0.133 -2.5153 -0.9850  2.5015
   31SOL     MW  124   0.511   0.234   0.218 -0.2802 -0.7093  0.0737
   32SOL     OW  125   2.709   0.966   1.069  0.1297  0.3880 -0.0825
   32SOL    HW1  126   2.670   0.881   1.113  0.1790 -0.4165  1.3669
   32SOL    HW2  127   2.806   0.954   1.059  2.2950  0.3894 -0.0540
   32SOL     MW  128   2.717   0.953   1.074  0.4219  0.2820  0.1125
   33SOL     OW  129   1.603   1.239   0.410 -0.3003 -0.1992  0.2095
   33SOL    HW1  130   1.696   1.214   0.413  2.0149  0.7210 -1.9076
   33SOL    HW2  131   1.581   1.281   0.492 -0.2842 -1.4905  1.1063
   33SOL     MW  132   1.613   1.241   0.421  0.0073 -0.2482  0.0485
   34SOL     OW  133   1.147   1.975   1.148 -0.3324 -0.4084  0.0519
   34SOL    HW1  134   1.079   1.965   1.210  0.9947  0.1608 -0.2184
   34SOL    HW2  135   1.230   1.982   1.192 -3.6712 -0.7663 -0.6976
   34SOL     MW  136   1.149   1.975   1.162 -0.5978 -0.3805 -0.0827
   35SOL     OW  137   0.344   0.138   1.718 -0.3211  0.0021 -1.1035
   35SOL    HW1  138   0.372   0.090   1.797 -0.8722  0.3880  0.2566
   35SOL    HW2  139   0.320   0.073   1.646 -2.6810 -1.6075 -1.5706
   35SOL     MW  140   0.344   0.123   1.719 -0.7052 -0.1593 -0.9856
   36SOL     OW  141   1.920   1.993   0.605  0.1686  0.7079  0.0357
   36SOL    HW1  142   1.910   1.984   0.513 -1.9012 -1.4076  2.1532
   36SOL    HW2  143   1.967   1.919   0.649 -0.7084 -1.0465  0.6326
   36SOL     MW  144   1.925   1.982   0.599 -0.2202  0.1973  0.3939
   37SOL     OW  145   1.792   2.086   0.988 -0.6022 -0.3603 -0.4945
   37SOL    HW1  146   1.749   2.025   0.925  0.1293 -0.8329 -1.9842
   37SOL    HW2  147   1.725   2.101   1.052  0.9929 -1.2494 -3.1853
   37SOL     MW  148   1.777   2.080   0.988 -0.2952 -0.5399 -1.0461
   38SOL     OW  149   2.797   0.961   0.029 -0.1437 -0.1335 -0.3883
   38SOL    HW1  150   2.810   0.941   0.122  0.0768 -1.3317 -2.1899
   38SOL    HW2  151   2.889   0.978  -0.012  1.7812  2.2287  0.7598
   38SOL     MW  152   2.811   0.961   0.036  0.1394  0.0200 -0.4745
   39SOL     OW  153   1.514   0.666   0.739 -0.5621  0.1556 -0.0505
   39SOL    HW1  154   1.493   0.587   0.796 -0.0954 -1.9313 -1.8749
   39SOL    HW2  155   1.435   0.714   0.725  1.0756 -0.8054 -0.6710
   39SOL     MW  156   1.501   0.662   0.744 -0.2844 -0.2466 -0.3731
   40SOL     OW  157   1.258   1.882   0.246  0.2946 -0.3176  0.3592
   40SOL    HW1  158   1.301   1.800   0.277 -1.5789 -1.2219  0.1528
   40SOL    HW2  159   1.220   1.926   0.326  2.9829  0.4821  1.4322
   40SOL     MW  160   1.258   1.877   0.260  0.4021 -0.3314  0.4735
   41SOL     OW  161   0.509   0.521   1.538  0.0744 -1.6431  0.5848
   41SOL    HW1  162   0.588   0.567   1.499  2.6465  3.4089 -0.1372
   41SOL    HW2  163   0.435   0.582   1.547  1.7346 -0.5639  0.2813
   41SOL     MW  164   0.510   0.535   1.534  0.6328 -0.8341  0.4495
   42SOL     OW  165   1.222   2.913   1.997  0.1844 -0.6980  0.0245
   42SOL    HW1  166   1.145   2.865   2.037  0.0276 -1.5521  2.1855
   42SOL    HW2  167   1.304   2.879   2.036  1.6867  3.4468  2.0047
   42SOL     MW  168   1.222   2.902   2.008  0.3619 -0.2638  0.5709
   43SOL     OW  169   1.410   0.099   1.697 -0.0641  0.5273  0.0809
   43SOL    HW1  170   1.479   0.053   1.642  0.9661 -1.5139 -0.1470
   43SOL    HW2  171   1.326   0.044   1.694  0.7438 -2.0074 -1.5077
   43SOL     MW  172   1.408   0.085   1.689  0.1784 -0.0765 -0.1588
   44SOL     OW  173   1.231   0.828   0.988 -0.0633  0.6277 -1.1896
   44SOL    HW1  174   1.193   0.915   1.000  0.1338  0.5673  0.4437
   44SOL    HW2  175   1.198   0.785   1.070  0.8598  0.9089 -1.1948
   44SOL     MW  176   1.221   0.834   1.001  0.0845  0.6568 -0.9748
   45SOL     OW  177   1.307   0.824   0.723 -0.1285 -0.7751  0.0840
   45SOL    HW1  178   1.268   0.817   0.810  1.6096 -1.2534  1.7540
   45SOL    HW2  179   1.253   0.778   0.653  1.0716  0.1158 -3.1662
   45SOL     MW  180   1.294   0.817   0.725  0.2592 -0.7207 -0.1245
   46SOL     OW  181   0.431   1.127   0.666 -0.4146 -0.1788  0.0277
   46SOL    HW1  182   0.478   1.146   0.583 -0.1464  0.4839  1.0735
   46SOL    HW2  183   0.433   1.212   0.707  2.5661 -0.7109  2.6553
   46SOL     MW  184   0.437   1.140   0.660  0.0141 -0.1616  0.5124
   47SOL     OW  185   0.093   2.000   1.922 -0.2369 -0.6750  0.9188
   47SOL    HW1  186   0.080   1.917   1.872  1.0750 -0.0052  2.7696
   47SOL    HW2  187   0.118   1.972   2.004 -1.3413  0.6699 -0.3479
   47SOL     MW  188   0.094   1.985   1.926 -0.2095 -0.4092  0.9959
   48SOL     OW  189   1.219   0.500   1.003  0.4983 -0.1458  0.1048
   48SOL    HW1  190   1.186   0.454   0.927 -3.1386 -0.0145 -0.0055
   48SOL    HW2  191   1.183   0.587   1.017 -0.3480 -0.1375 -0.9726
   48SOL     MW  192   1.210   0.505   0.995 -0.0932 -0.1274 -0.0519
   49SOL     OW  193   1.684   0.704   1.558  0.1492  0.4887 -0.4763
   49SOL    HW1  194   1.730   0.659   1.627 -0.0057  0.5313 -1.2838
   49SOL    HW2  195   1.736   0.672   1.487 -1.1719  0.5635 -0.5969
   49SOL     MW  196   1.697   0.694   1.558 -0.0455  0.5042 -0.5988
   50SOL     OW  197   1.315   1.214   0.632  0.4255 -0.0670  0.3589
   50SOL    HW1  198   1.239   1.205   0.701 -0.9992 -1.7630  1.5293
   50SOL    HW2  199   1.388   1.149   0.661  0.2936  0.4778  0.6504
   50SOL     MW  200   1.315   1.204   0.645  0.2201 -0.2189  0.5518
   51SOL     OW  201   0.348   2.890   0.855  0.4181 -0.5074 -0.1013
   51SOL    HW1  202   0.437   2.871   0.886 -0.4877  1.2731  2.3192
   51SOL    HW2  203   0.313   2.943   0.931  3.0425 -2.0597  1.2098
   51SOL     MW  204   0.355   2.894   0.869  0.6449 -0.4773  0.3911
   52SOL     OW  205   0.788   1.826   0.483  0.0272 -0.1143 -0.2974
   52SOL    HW1  206   0.783   1.923   0.491 -0.4879  0.6594  1.6862
   52SOL    HW2  207   0.803   1.801   0.392 -1.1675  1.1615  0.2157
   52SOL     MW  208   0.789   1.835   0.472 -0.1984  0.1561  0.0320
   53SOL     OW  209   0.478   2.141   0.586 -0.2083  0.7206 -0.4306
   53SOL    HW1  210   0.435   2.119   0.495 -2.7244  0.8523 -0.1100
   53SOL    HW2  211   0.471   2.235   0.585 -0.1389  1.5672 -0.9866
   53SOL     MW  212   0.472   2.151   0.574 -0.5312  0.8496 -0.4617
   54SOL     OW  213   2.026   0.971   0.740 -0.2846 -0.0656  0.0530
   54SOL    HW1  214   2.109   0.946   0.702  0.3374  0.7983  1.1138
   54SOL    HW2  215   1.983   0.887   0.755 -1.2732  0.7049 -4.9157
   54SOL     MW  216   2.032   0.957   0.737 -0.3330  0.1501 -0.4626
   55SOL     OW  217   0.431   1.534   1.720 -0.1131  0.0799 -0.1311
   55SOL    HW1  218   0.384   1.564   1.640 -1.2156  0.1510 -0.3483
   55SOL    HW2  219   0.522   1.524   1.689 -1.6540  0.7412  1.1924
   55SOL     MW  220   0.437   1.537   1.705 -0.4619  0.1766  0.0148
   56SOL     OW  221   0.627   0.908   0.135 -0.3274 -0.3512  0.2467
   56SOL    HW1  222   0.631   0.968   0.064  0.2518 -1.1214 -0.4466
   56SOL    HW2  223   0.543   0.852   0.132  1.3490 -1.0339 -1.8917
   56SOL     MW  224   0.616   0.908   0.125 -0.0298 -0.5429 -0.1269
   57SOL     OW  225   1.098   1.285   1.143  0.3348  0.1281 -0.1545
   57SOL    HW1  226   1.191   1.308   1.161 -0.2884 -0.6937  0.1227
   57SOL    HW2  227   1.070   1.244   1.232 -1.6014  1.1325  1.0368
   57SOL     MW  228   1.107   1.282   1.157 -0.0029  0.1522  0.0393
   58SOL     OW  229   0.435   1.281   1.296 -0.7475  0.0638  0.0616
   58SOL    HW1  230   0.402   1.373   1.300  1.3239  0.9761 -0.3444
   58SOL    HW2  231   0.436   1.255   1.389 -0.1952  0.0827 -2.4180
   58SOL     MW  232   0.431   1.290   1.308 -0.4013  0.1867 -0.3191
   59SOL     OW  233   1.429   1.685   0.377 -0.3323  0.2961 -0.4186
   59SOL    HW1  234   1.497   1.716   0.426 -1.3281  0.5941 -0.2205
   59SOL    HW2  235   1.351   1.674   0.441 -2.3474 -1.8162  1.1494
   59SOL     MW  236   1.428   1.688   0.392 -0.7296  0.0567 -0.1855
   60SOL     OW  237   3.096   0.187   1.642 -0.1057 -0.1468  0.2011
   60SOL    HW1  238   3.014   0.222   1.668  1.7043 -0.5649  1.8098
   60SOL    HW2  239   3.118   0.128   1.723  0.0754 -0.9299  0.2248
   60SOL     MW  240   3.088   0.184   1.656  0.1570 -0.3053  0.4165
   61SOL     OW  241   1.973   1.342   2.970  0.3887 -0.0402 -0.3834
   61SOL    HW1  242   1.946   1.333   3.064  0.9931  1.9590 -1.2749
   61SOL    HW2  243   2.055   1.285   2.968  0.7597  2.5143  0.9720
   61SOL     MW  244   1.980   1.333   2.982  0.5174  0.5606 -0.3222
   62SOL     OW  245   0.573   1.714   0.669 -0.0535  0.3696 -0.0218
   62SOL    HW1  246   0.654   1.738   0.626 -1.3572  2.2695 -1.4931
   62SOL    HW2  247   0.548   1.630   0.634 -2.4197  0.0851 -0.5958
   62SOL     MW  248   0.580   1.706   0.659 -0.5377  0.5827 -0.2917
   63SOL     OW  249   1.743   0.720   0.587  0.5638  0.2450 -1.0134
   63SOL    HW1  250   1.717   0.794   0.526  2.6168  1.2731 -1.0861
   63SOL    HW2  251   1.661   0.711   0.642 -0.1784  0.0606  0.5725
   63SOL     MW  252   1.729   0.729   0.586  0.7368  0.3563 -0.8138
   64SOL     OW  253   0.274   1.694   0.689 -0.2347  0.1714 -0.5957
   64SOL    HW1  254   0.330   1.771   0.685  0.1772 -0.4225  2.8323
   64SOL    HW2  255   0.196   1.744   0.709 -1.3729  2.4050  0.8962
   64SOL     MW  256   0.271   1.711   0.691 -0.3306  0.3878  0.0534
   65SOL     OW  257   1.486   2.294   0.393 -0.1689  0.2030  0.2922
   65SOL    HW1  258   1.561   2.352   0.398  0.3035 -0.8702 -1.7480
   65SOL    HW2  259   1.428   2.312   0.475 -1.0965 -1.7585  0.2165
   65SOL     MW  260   1.488   2.304   0.405 -0.2290 -0.1974  0.0130
   66SOL     OW  261   0.385   0.577   0.526  0.2929 -0.6027  0.7711
   66SOL    HW1  262   0.457   0.574   0.459 -0.7628 -2.4496 -1.3043
   66SOL    HW2  263   0.361   0.668   0.526 -0.7397 -4.3783 -2.0716
   66SOL     MW  264   0.392   0.588   0.517  0.0174 -1.3446  0.1222
   67SOL     OW  265   1.402   0.060   1.965 -0.8097 -0.0126  0.1759
   67SOL    HW1  266   1.393   0.097   1.875 -0.4113  0.8070 -1.2587
   67SOL    HW2  267   1.331  -0.007   1.981 -1.1724 -0.7431  0.5990
   67SOL     MW  268   1.391   0.056   1.955 -0.8050 -0.0008  0.0424
   68SOL     OW  269   0.762   0.088   2.925 -0.0405  0.4963 -0.8588
   68SOL    HW1  270   0.731   0.119   2.844 -1.8746  0.7381  1.3563
   68SOL    HW2  271   0.845   0.140   2.942  2.2979 -0.6807  0.9595
   68SOL     MW  272   0.769   0.099   2.917  0.0261  0.3729 -0.3266
   69SOL     OW  273   1.087   0.292   1.964 -0.3234  0.5158  0.4592
   69SOL    HW1  274   1.175   0.324   1.995  1.6425  0.6846  1.7676
   69SOL    HW2  275   1.073   0.222   2.026  0.9181 -2.5856 -2.5138
   69SOL     MW  276   1.097   0.287   1.976  0.0998  0.1289  0.2396
   70SOL     OW  277   0.522   1.737   1.111  0.3060 -0.0630  0.5014
   70SOL    HW1  278   0.604   1.781   1.139  2.8994 -0.5458 -0.8636
   70SOL    HW2  279   0.563   1.681   1.042 -1.6378 -0.6616 -0.4770
   70SOL     MW  280   0.538   1.735   1.105  0.3917 -0.2057  0.1922
   71SOL     OW  281   1.546   0.569   1.279  0.3425  0.7028 -0.0139
   71SOL    HW1  282   1.492   0.636   1.338 -0.4933  0.3739 -0.1913
   71SOL    HW2  283   1.557   0.610   1.192  0.1059  0.1735 -1.0418
   71SOL     MW  284   1.541   0.584   1.276  0.2010  0.5896 -0.1729
   72SOL     OW  285   0.789   1.819   1.009 -0.2976  0.0015  0.3323
   72SOL    HW1  286   0.820   1.896   0.957 -0.1493 -1.5279 -1.0590
   72SOL    HW2  287   0.802   1.733   0.966 -1.8388  0.0060  0.6276
   72SOL     MW  288   0.795   1.818   0.997 -0.4814 -0.1997  0.1877
   73SOL     OW  289   1.109   0.700   1.200 -0.4287 -0.1606 -1.0041
   73SOL    HW1  290   1.033   0.643   1.211  1.3588  0.7914  1.5088
   73SOL    HW2  291   1.106   0.759   1.282 -5.2035  1.1711  2.4547
   73SOL     MW  292   1.099   0.700   1.212 -0.8229  0.1407 -0.2162
   74SOL     OW  293   2.779   0.071   0.975  0.5305 -0.4200 -0.1266
   74SOL    HW1  294   2.860   0.057   0.931 -0.4848  1.3223 -0.1217
   74SOL    HW2  295   2.766   0.161   0.954 -1.8464 -2.5286 -1.0226
   74SOL     MW  296   2.788   0.081   0.966  0.0829 -0.4683 -0.2442
   75SOL     OW  297   1.513   1.323   0.181 -0.2605 -0.6641  0.2183
   75SOL    HW1  298   1.570   1.284   0.113  0.7225 -2.0631  1.3748
   75SOL    HW2  299   1.548   1.284   0.268 -0.4138  0.5590  0.6458
   75SOL     MW  300   1.525   1.313   0.183 -0.1511 -0.6873  0.4273
   76SOL     OW  301   3.036   0.690   0.453  0.7382 -0.0237 -0.4278
   76SOL    HW1  302   3.042   0.741   0.541 -2.0383  0.4520  0.7453
   76SOL    HW2  303   3.124   0.656   0.441 -0.8067  2.0487  0.4448
   76SOL     MW  304   3.049   0.692   0.463  0.1680  0.3125 -0.1579
   77SOL     OW  305   0.840   0.625   0.439  0.5600  0.1828 -0.2207
   77SOL    HW1  306   0.817   0.656   0.349 -2.2865  2.6881  1.0109
   77SOL    HW2  307   0.829   0.526   0.435  1.6669 -1.2542  0.3794
   77SOL     MW  308   0.835   0.616   0.427  0.3305  0.3238  0.0210
   78SOL     OW  309   0.794   0.867   1.081  0.9418 -0.0007  0.0840
   78SOL    HW1  310   0.776   0.953   1.048  0.2059  1.1670 -1.8944
   78SOL    HW2  311   0.719   0.850   1.143  2.3020 -0.0699 -0.6609
   78SOL     MW  312   0.782   0.876   1.085  1.0242  0.1442 -0.2753
   79SOL     OW  313   1.852   1.506   0.540  0.2323  0.3093  0.1799
   79SOL    HW1  314   1.762   1.470   0.549 -1.1416 -0.2870  0.2169
   79SOL    HW2  315   1.891   1.483   0.624 -1.3532 -2.5691 -2.9449
   79SOL     MW  316   1.846   1.498   0.553 -0.1582 -0.1492 -0.2275
   80SOL     OW  317   0.184   0.974   0.289  0.8697  0.1838 -0.0171
   80SOL    HW1  318   0.147   0.907   0.234 -1.5669 -0.8249  0.4796
   80SOL    HW2  319   0.234   0.924   0.354  1.2508  0.8221 -1.2452
   80SOL     MW  320   0.186   0.959   0.290  0.5985  0.1350 -0.1136
   81SOL     OW  321   1.843   1.880   0.363  0.2634 -0.4301  0.3796
   81SOL    HW1  322   1.813   1.798   0.335 -0.6744  1.6083 -0.1527
   81SOL    HW2  323   1.792   1.944   0.302 -2.9208  0.2212 -2.9527
   81SOL     MW  324   1.832   1.878   0.351 -0.2805 -0.0752 -0.1303
   82SOL     OW  325   0.965   1.039   0.554 -0.1769  0.1004  0.1018
   82SOL    HW1  326   0.915   1.086   0.487 -1.0675 -2.1283 -1.8222
   82SOL    HW2  327   0.901   0.974   0.580  2.5025 -0.9219 -1.4841
   82SOL     MW  328   0.950   1.036   0.549  0.0591 -0.3285 -0.3613
   83SOL     OW  329   0.025   0.741   1.573 -0.4714 -0.1929  0.0286
   83SOL    HW1  330   0.016   0.820   1.502 -2.5014  1.9708 -0.3714
   83SOL    HW2  331   0.104   0.687   1.541 -0.2377 -2.3266 -2.8279
   83SOL     MW  332   0.034   0.744   1.559 -0.7084 -0.1890 -0.4010
   84SOL     OW  333   0.014   0.180   0.923 -0.4679 -0.0204 -0.2308
   84SOL    HW1  334   0.019   0.271   0.957  1.5561  0.0124 -1.6656
   84SOL    HW2  335   0.033   0.109   0.988 -1.8528  2.1328 -2.1998
   84SOL     MW  336   0.017   0.182   0.936 -0.3836  0.2680 -0.6799
   85SOL     OW  337   0.338   0.500   0.782  0.2683 -0.0223  0.4313
   85SOL    HW1  338   0.367   0.507   0.691 -0.1139  0.0019  1.2514
   85SOL    HW2  339   0.302   0.411   0.784 -0.1122  2.9866 -0.8314
   85SOL     MW  340   0.337   0.489   0.770  0.1677  0.3779  0.3729
   86SOL     OW  341   1.272   0.282   1.170  1.1443  0.3612  0.5254
   86SOL    HW1  342   1.257   0.360   1.115 -0.8053 -2.0737  0.4966
   86SOL    HW2  343   1.349   0.301   1.223 -0.7211  1.3242  1.4528
   86SOL     MW  344   1.280   0.295   1.170  0.6409  0.1670  0.6439
   87SOL     OW  345   1.029   1.548   1.168 -0.2136  0.2867  0.0321
   87SOL    HW1  346   1.083   1.625   1.145  0.4747  1.4344 -0.8143
   87SOL    HW2  347   1.076   1.472   1.136  3.4941  1.3834  0.2184
   87SOL     MW  348   1.043   1.548   1.161  0.3664  0.5828 -0.0550
   88SOL     OW  349   1.163   1.087   0.979 -0.6150  0.2515 -0.3273
   88SOL    HW1  350   1.258   1.107   0.993 -1.2963  1.2817 -0.3027
   88SOL    HW2  351   1.118   1.132   1.054 -1.3133  0.0551  2.0569
   88SOL     MW  352   1.169   1.096   0.991 -0.7970  0.3615 -0.0095
   89SOL     OW  353   1.773   0.689   0.219  0.1607  0.0232  0.3753
   89SOL    HW1  354   1.717   0.613   0.234  1.0811 -0.9636  1.1712
   89SOL    HW2  355   1.853   0.679   0.267 -0.2210 -0.2757  0.6927
   89SOL     MW  356   1.776   0.677   0.228  0.2318 -0.1464  0.5222
   90SOL     OW  357   0.786   1.218   2.851  0.0106 -0.1473  0.0678
   90SOL    HW1  358   0.853   1.165   2.885  0.2929 -0.0792 -1.3649
   90SOL    HW2  359   0.779   1.289   2.913 -0.0076 -0.9700 -2.0133
   90SOL     MW  360   0.794   1.220   2.863  0.0455 -0.2469 -0.3958
   91SOL     OW  361   2.236   0.624   0.502  0.4849  0.1299  0.2832
   91SOL    HW1  362   2.295   0.674   0.440  1.0857 -0.3819  1.0469
   91SOL    HW2  363   2.240   0.531   0.464 -0.1527 -0.7421  2.7347
   91SOL     MW  364   2.244   0.618   0.489  0.4801 -0.0527  0.7074
   92SOL     OW  365   1.639   0.955   0.503  0.1275 -0.3381 -0.2733
   92SOL    HW1  366   1.587   0.969   0.581  0.8711  0.7348 -3.5036
   92SOL    HW2  367   1.572   0.965   0.438 -2.5921 -1.7917  0.4341
   92SOL     MW  368   1.623   0.958   0.505 -0.1332 -0.3883 -0.6061
   93SOL     OW  369   1.080   0.272   0.376  0.2632 -0.1790  0.1699
   93SOL    HW1  370   0.996   0.315   0.380 -2.1083 -2.2284 -0.6429
   93SOL    HW2  371   1.111   0.305   0.288  0.7047 -1.5256 -0.7908
   93SOL     MW  372   1.073   0.282   0.365  0.0086 -0.6270 -0.0641
   94SOL     OW  373   1.876   1.367   1.602 -0.7348 -0.8166 -0.1148
   94SOL    HW1  374   1.864   1.358   1.509  0.0461  0.2423  2.5009
   94SOL    HW2  375   1.859   1.276   1.644  0.1367 -0.4094  1.7841
   94SOL     MW  376   1.872   1.354   1.596 -0.5168 -0.6232  0.4808
   95SOL     OW  377   0.587   1.552   0.918 -0.0795  0.0661 -0.0383
   95SOL    HW1  378   0.665   1.504   0.964 -1.5925 -1.7314 -0.9616
   95SOL    HW2  379   0.525   1.484   0.894  0.5285 -1.6001 -1.2476
   95SOL     MW  380   0.589   1.537   0.921 -0.1989 -0.3909 -0.3197
   96SOL     OW  381   1.326   1.856   1.682  0.2551 -0.4332 -0.2329
   96SOL    HW1  382   1.235   1.852   1.725 -1.2733  1.2913  1.3079
   96SOL    HW2  383   1.330   1.766   1.647  3.0872 -1.3194  0.9410
   96SOL     MW  384   1.314   1.843   1.683  0.4271 -0.3226  0.1253
   97SOL     OW  385   1.106   1.571   0.834  0.2337  0.1486  0.1730
   97SOL    HW1  386   1.149   1.638   0.893  1.3909 -0.1316  0.8225
   97SOL    HW2  387   1.009   1.577   0.856 -2.5292  0.5289 -2.4357
   97SOL     MW  388   1.099   1.580   0.845  0.0218  0.1618 -0.0855
   98SOL     OW  389   1.341   1.405   1.215  0.4805 -0.1696  0.6534
   98SOL    HW1  390   1.401   1.427   1.282 -2.2831 -0.1943 -0.0637
   98SOL    HW2  391   1.390   1.434   1.136  0.6177  1.5063 -1.2629
   98SOL     MW  392   1.355   1.411   1.214  0.1340  0.0483  0.3059
   99SOL     OW  393   1.514   0.302   1.340  0.2655  0.0640 -0.5034
   99SOL    HW1  394   1.533   0.393   1.308  0.0518 -0.6147  2.4863
   99SOL    HW2  395   1.447   0.317   1.418 -1.6591  0.7171 -0.6282
   99SOL     MW  396   1.507   0.316   1.346 -0.0166  0.0606 -0.1254
  100SOL     OW  397   1.054   1.160   1.384  0.4671  0.4337  0.2220
  100SOL    HW1  398   1.071   1.192   1.477 -3.3220 -0.5252  1.9662
  100SOL    HW2  399   1.110   1.080   1.378 -1.0446  1.1515  1.8052
  100SOL     MW  400   1.064   1.154   1.396 -0.2323  0.4019  0.6610
  101SOL     OW  401   0.549   1.228   0.422  0.3553  0.0461  0.5328
  101SOL    HW1  402   0.489   1.193   0.356 -2.0471 -0.3614 -2.9759
  101SOL    HW2  403   0.640   1.206   0.399  1.7837  1.9036 -2.3028
  101SOL     MW  404   0.553   1.221   0.411  0.2268  0.2374 -0.3043
  102SOL     OW  405   2.950   0.605   1.104 -0.3215 -0.2948 -0.0163
  102SOL    HW1  406   2.988   0.687   1.094 -1.4844 -0.1696  0.6015
  102SOL    HW2  407   2.923   0.587   1.195  0.2658 -0.4850 -2.9124
  102SOL     MW  408   2.951   0.613   1.114 -0.3975 -0.3034 -0.3169
  103SOL     OW  409   1.853   0.257   1.773 -0.2085  0.3939 -0.2779
  103SOL    HW1  410   1.865   0.163   1.761  1.0763  2.3212  0.4620
  103SOL    HW2  411   1.858   0.268   1.872 -0.6156 -0.1240 -0.2815
  103SOL     MW  412   1.855   0.246   1.785 -0.0927  0.5799 -0.1807
  104SOL     OW  413   0.049   1.536   1.686  0.1459 -0.4285  0.3564
  104SOL    HW1  414   0.100   1.451   1.709 -1.3169  2.7555  1.0450
  104SOL    HW2  415  -0.040   1.518   1.658  1.8269 -2.1291  0.7034
  104SOL     MW  416   0.044   1.522   1.685  0.1747 -0.2328  0.4930
  105SOL     OW  417   0.042   1.225   0.413  0.8794 -0.0747  0.2676
  105SOL    HW1  418   0.108   1.158   0.406 -0.5453 -0.6484  0.7427
  105SOL    HW2  419   0.102   1.299   0.422  0.5672 -2.8189  0.2899
  105SOL     MW  420   0.058   1.226   0.413  0.6502 -0.5125  0.3332
  106SOL     OW  421   0.786   0.271   0.831  0.0927 -0.4745 -0.0491
  106SOL    HW1  422   0.720   0.340   0.847 -0.3996  1.7533 -2.2594
  106SOL    HW2  423   0.874   0.307   0.858  1.5261 -2.8038  3.0783
  106SOL     MW  424   0.789   0.285   0.837  0.2169 -0.4879  0.0719
  107SOL     OW  425   0.787   2.215   2.891 -0.6156  0.3080 -0.2850
  107SOL    HW1  426   0.690   2.197   2.898 -2.8897 -1.5443  1.6452
  107SOL    HW2  427   0.828   2.171   2.969  0.4579 -0.0345 -0.8951
  107SOL     MW  428   0.780   2.206   2.903 -0.7740  0.0185 -0.1108
  108SOL     OW  429   1.334   1.574   1.635 -0.1107  0.4627  0.4708
  108SOL    HW1  430   1.276   1.536   1.567 -3.8842 -2.5401  0.4406
  108SOL    HW2  431   1.423   1.540   1.609 -2.7139  0.9583 -1.9304
  108SOL     MW  432   1.338   1.565   1.622 -0.9520  0.1319  0.1500
  109SOL     OW  433   2.035   0.763   0.350 -0.1020  0.2230 -0.1105
  109SOL    HW1  434   2.021   0.854   0.334  1.4112 -2.7593 -1.7863
  109SOL    HW2  435   2.101   0.758   0.421  0.5722  2.0303  0.8619
  109SOL     MW  436   2.042   0.774   0.357  0.1866  0.0679 -0.2033
  110SOL     OW  437   0.421   1.932   0.744 -0.0613 -0.4399  0.3554
  110SOL    HW1  438   0.494   1.872   0.724  0.3655 -3.0468 -0.3782
  110SOL    HW2  439   0.418   1.997   0.668 -2.0020 -1.0030  1.9987
  110SOL     MW  440   0.430   1.933   0.731 -0.2611 -0.8581  0.4754
  111SOL     OW  441   0.860   0.880   1.349 -0.4594  0.1646  0.1686
  111SOL    HW1  442   0.852   0.878   1.255  1.6756  0.7221  0.0835
  111SOL    HW2  443   0.805   0.811   1.378 -1.4199  2.4703 -0.5570
  111SOL     MW  444   0.851   0.871   1.341 -0.3044  0.5424  0.0616
  112SOL     OW  445   1.399   1.118   1.609 -0.4141  0.6062  0.1493
  112SOL    HW1  446   1.318   1.167   1.607 -0.4763 -1.0871  1.0303
  112SOL    HW2  447   1.363   1.028   1.609  1.5290  0.7440 -1.3278
  112SOL     MW  448   1.384   1.113   1.608 -0.1659  0.4010  0.0706
  113SOL     OW  449   1.229   3.000   1.721 -0.3470 -0.3340 -0.2798
  113SOL    HW1  450   1.222   2.946   1.801  1.4415 -1.0422 -1.3446
  113SOL    HW2  451   1.187   2.951   1.654 -0.5775 -0.8327 -0.1467
  113SOL     MW  452   1.222   2.987   1.723 -0.1414 -0.4932 -0.4027
  114SOL     OW  453   0.367   2.872   1.772  0.7349  0.1654  0.3176
  114SOL    HW1  454   0.449   2.933   1.776  2.8188  3.4313 -0.2253
  114SOL    HW2  455   0.306   2.909   1.839 -0.9923  0.2290 -0.8043
  114SOL     MW  456   0.370   2.885   1.781  0.7819  0.6047  0.0979
  115SOL     OW  457   0.550   0.838   1.181 -0.0712 -0.2295 -0.0582
  115SOL    HW1  458   0.518   0.751   1.167 -0.6626 -0.0723  0.9396
  115SOL    HW2  459   0.468   0.894   1.167 -0.3724 -1.4206 -1.2606
  115SOL     MW  460   0.535   0.834   1.177 -0.1890 -0.3659 -0.0852
  116SOL     OW  461   0.695   1.124   0.964 -0.3805  0.0021  0.4296
  116SOL    HW1  462   0.716   1.169   0.877 -0.8230  0.5329 -0.9456
  116SOL    HW2  463   0.731   1.187   1.031 -0.7768 -0.6336  4.4876
  116SOL     MW  464   0.703   1.138   0.961 -0.4911 -0.0117  0.7835
  117SOL     OW  465   1.119   1.304   0.802 -0.6969  0.2163 -0.2159
  117SOL    HW1  466   1.128   1.260   0.892  1.6191 -1.6836  1.6664
  117SOL    HW2  467   1.112   1.407   0.810  2.8484  2.1478  1.2006
  117SOL     MW  468   1.119   1.312   0.815  0.0764  0.2204  0.2194
  118SOL     OW  469   3.071   2.926   1.802  0.2169 -0.3081 -0.2550
  118SOL    HW1  470   3.109   3.007   1.833  1.7910  1.2368 -3.0007
  118SOL    HW2  471   2.983   2.962   1.781  0.9166  0.9086  1.4293
  118SOL     MW  472   3.064   2.942   1.804  0.5169  0.0562 -0.3950
  119SOL     OW  473   0.367   1.546   1.274 -0.3260  0.2586  0.5701
  119SOL    HW1  474   0.428   1.585   1.207  0.8605 -3.3234  1.4657
  119SOL    HW2  475   0.280   1.536   1.231 -0.3396 -1.6977  1.5222
  119SOL     MW  476   0.363   1.550   1.259 -0.1712 -0.4722  0.8139
  120SOL     OW  477   0.271   0.837   0.987 -0.0897  0.5921 -0.4569
  120SOL    HW1  478   0.240   0.922   1.013  0.4652 -0.4041  0.6482
  120SOL    HW2  479   0.358   0.847   0.946  1.2856  0.6896  2.0300
  120SOL     MW  480   0.278   0.850   0.985  0.1650  0.4735  0.0171
  121SOL     OW  481   1.785   1.124   1.609  0.0317  0.3995 -0.2976
  121SOL    HW1  482   1.706   1.144   1.556 -1.0540  2.6776  2.6073
  121SOL    HW2  483   1.839   1.076   1.551 -1.1620 -0.9335  0.1326
  121SOL     MW  484   1.781   1.120   1.594 -0.2690  0.5242  0.1424
  122SOL     OW  485   0.120   0.658   0.873  1.1817  0.3495  0.8588
  122SOL    HW1  486   0.185   0.611   0.821 -0.5527 -1.3617  0.6250
  122SOL    HW2  487   0.164   0.718   0.935  0.4730 -3.9548  0.5220
  122SOL     MW  488   0.135   0.660   0.874  0.8594 -0.4442  0.7835
  123SOL     OW  489   1.869   1.102   0.536  0.2920  0.0209  0.1525
  123SOL    HW1  490   1.796   1.036   0.531 -2.1133  2.6443  0.2437
  123SOL    HW2  491   1.932   1.072   0.600 -0.3650 -0.2819 -0.8609
  123SOL     MW  492   1.868   1.089   0.544 -0.1121  0.3271  0.0308
  124SOL     OW  493   0.607   0.467   0.935 -0.1150  0.2819 -0.7678
  124SOL    HW1  494   0.520   0.467   0.890 -0.7980 -2.4519 -0.8786
  124SOL    HW2  495   0.630   0.562   0.934 -3.2644  0.4754  1.4957
  124SOL     MW  496   0.599   0.479   0.929 -0.6206 -0.0533 -0.4838
  125SOL     OW  497   0.678   1.694   1.744  0.0445 -0.2322 -0.3223
  125SOL    HW1  498   0.674   1.651   1.657 -1.6586  2.2085 -1.4648
  125SOL    HW2  499   0.621   1.768   1.738  1.6936 -2.9773  0.2799
  125SOL     MW  500   0.670   1.698   1.732  0.0374 -0.2724 -0.3936
  126SOL     OW  501   2.113   1.543   1.917 -0.0896 -0.0088 -0.1741
  126SOL    HW1  502   2.174   1.602   1.879 -1.0695 -0.4044  0.7033
  126SOL    HW2  503   2.165   1.465   1.932 -1.0063 -0.3080  1.8675
  126SOL     MW  504   2.128   1.540   1.914 -0.3398 -0.1004  0.2110
  127SOL     OW  505   0.507   0.777   1.816 -0.5312 -0.3728  0.0900
  127SOL    HW1  506   0.596   0.738   1.820 -2.1254  1.8924 -1.0736
  127SOL    HW2  507   0.493   0.822   1.899  1.7948  1.8708  3.7728
  127SOL     MW  508   0.517   0.778   1.827 -0.4347  0.2221  0.4224
  128SOL     OW  509   1.731   0.737   2.886  0.0185 -0.1712  0.0843
  128SOL    HW1  510   1.778   0.713   2.809  0.6124  0.1490 -0.8991
  128SOL    HW2  511   1.719   0.828   2.875 -0.2666 -1.8517 -2.5274
  128SOL     MW  512   1.736   0.746   2.874  0.0593 -0.3507 -0.3900
  129SOL     OW  513   1.564   0.863   0.181 -0.0997  0.5640 -0.3252
  129SOL    HW1  514   1.518   0.794   0.137 -1.4669 -0.9992  0.8130
  129SOL    HW2  515   1.651   0.830   0.202  1.0515  0.1343  0.7700
  129SOL     MW  516   1.569   0.850   0.178 -0.1282  0.3011 -0.0305
  130SOL     OW  517   0.828   1.462   0.349 -0.1039 -0.2640  0.3615
  130SOL    HW1  518   0.819   1.457   0.442  0.1991 -3.0304 -1.6423
  130SOL    HW2  519   0.923   1.490   0.335  1.4583  1.9963 -3.2137
  130SOL     MW  520   0.839   1.465   0.359  0.1422 -0.3308 -0.3746
  131SOL     OW  521   0.069   0.794   0.123 -0.1740 -0.6491  0.1950
  131SOL    HW1  522   0.042   0.841   0.043  0.7235  0.9017 -3.2717
  131SOL    HW2  523   0.126   0.723   0.093  0.2724 -1.1270 -0.3201
  131SOL     MW  524   0.073   0.791   0.109  0.0033 -0.5076 -0.3304
  132SOL     OW  525   2.729   0.084   1.246 -0.8175  0.0379 -0.0117
  132SOL    HW1  526   2.784   0.082   1.170  1.0889 -2.1158  1.4985
  132SOL    HW2  527   2.642   0.040   1.228 -0.7839 -1.2078  0.8955
  132SOL     MW  528   2.725   0.078   1.233 -0.5615 -0.4106  0.3073
  133SOL     OW  529   1.035   0.110   1.700  0.4923 -0.4809  0.8984
  133SOL    HW1  530   1.095   0.038   1.722 -0.6056  0.2143  0.6809
  133SOL    HW2  531   1.023   0.164   1.779  0.2855  2.0041  1.6830
  133SOL     MW  532   1.041   0.107   1.714  0.3201 -0.0613  0.9733
  134SOL     OW  533   1.400   2.480   1.449  0.2899 -0.0076  0.1314
  134SOL    HW1  534   1.319   2.533   1.428 -1.5669  0.0010 -2.7931
  134SOL    HW2  535   1.445   2.521   1.516 -4.2260  1.3459 -0.3420
  134SOL     MW  536   1.395   2.492   1.455 -0.5509  0.1721 -0.3169
  135SOL     OW  537   3.023   0.983   2.964 -0.0189  0.2617  0.0907
  135SOL    HW1  538   3.093   1.051   2.980 -1.7434  0.3084  0.5428
  135SOL    HW2  539   2.955   1.043   2.919 -0.8766  0.4817  0.9243
  135SOL     MW  540   3.024   1.000   2.960 -0.3596  0.2969  0.2603
  136SOL     OW  541   0.165   1.983   0.881 -0.4216  0.1940 -0.1337
  136SOL    HW1  542   0.112   1.918   0.838 -3.2878  0.5380  2.3901
  136SOL    HW2  543   0.255   1.984   0.839  0.9301  1.2554  0.3063
  136SOL     MW  544   0.170   1.975   0.870 -0.6214  0.3794  0.2573
  137SOL     OW  545   0.744   2.073   0.596 -0.0140  0.2938 -0.1244
  137SOL    HW1  546   0.763   2.046   0.688  0.7051 -0.1463  1.5618
  137SOL    HW2  547   0.658   2.117   0.603  0.4325 -1.2524  0.5693
  137SOL     MW  548   0.735   2.075   0.609  0.1398  0.0317  0.1896
  138SOL     OW  549   0.466   0.588   1.138  0.2201  0.2871 -0.8682
  138SOL    HW1  550   0.380   0.558   1.154  1.4273  0.5445 -1.2742
  138SOL    HW2  551   0.516   0.530   1.083 -2.6375  2.4749 -0.7531
  138SOL     MW  552   0.461   0.577   1.133  0.0024  0.6097 -0.9066
  139SOL     OW  553   2.847   0.533   1.366  0.2182 -0.3260  0.1300
  139SOL    HW1  554   2.930   0.478   1.366  0.7246 -0.7451  1.4653
  139SOL    HW2  555   2.831   0.565   1.455 -1.6351  0.3621 -1.1508
  139SOL     MW  556   2.856   0.530   1.378  0.0405 -0.2905  0.1372
  140SOL     OW  557   0.886   0.461   1.954  0.6244 -0.2258  0.5146
  140SOL    HW1  558   0.952   0.388   1.941 -1.6112 -0.9889 -0.4490
  140SOL    HW2  559   0.849   0.457   2.043  0.3172  0.9170  2.9424
  140SOL     MW  560   0.890   0.451   1.964  0.2889 -0.1757  0.7078
  141SOL     OW  561   1.082   0.624   1.670  0.6039  0.1482  0.3921
  141SOL    HW1  562   1.088   0.547   1.611 -0.5076  2.4366 -2.9269
  141SOL    HW2  563   1.175   0.647   1.688  3.6005 -1.1337  2.7195
  141SOL     MW  564   1.095   0.617   1.664  0.8526  0.2810  0.2613
  142SOL     OW  565   0.867   1.217   0.739  0.0118  0.1157 -0.0925
  142SOL    HW1  566   0.904   1.151   0.673  2.3655  1.9429  0.3688
  142SOL    HW2  567   0.957   1.247   0.767  1.7698 -1.5677  0.0218
  142SOL     MW  568   0.884   1.212   0.734  0.5543  0.1346 -0.0166
  143SOL     OW  569   1.832   0.723   1.031  0.0661 -0.0084  0.2315
  143SOL    HW1  570   1.864   0.698   0.948  1.1863 -2.6638  1.0662
  143SOL    HW2  571   1.739   0.723   1.018  0.1414 -2.2301  1.2425
  143SOL     MW  572   1.824   0.720   1.018  0.2238 -0.6519  0.4750
  144SOL     OW  573   0.236   1.320   1.725 -0.2741  0.1558  0.0224
  144SOL    HW1  574   0.315   1.381   1.717 -3.5321  1.7615  0.7249
  144SOL    HW2  575   0.251   1.262   1.797 -1.7504  1.7355 -0.0543
  144SOL     MW  576   0.248   1.320   1.734 -0.8987  0.5761  0.1049
  145SOL     OW  577   0.230   0.491   1.201  0.9668 -0.1622 -0.4247
  145SOL    HW1  578   0.262   0.402   1.219 -1.5440 -0.1532 -1.7300
  145SOL    HW2  579   0.173   0.476   1.128 -0.7557  3.6393 -2.4817
  145SOL     MW  580   0.227   0.477   1.193  0.4082  0.3406 -0.8683
  146SOL     OW  581   0.776   1.952   1.513  0.1223  0.8077  0.5534
  146SOL    HW1  582   0.811   1.975   1.419  2.4099  1.5957  1.1530
  146SOL    HW2  583   0.713   1.875   1.501 -0.3720 -0.0866 -0.3987
  146SOL     MW  584   0.772   1.945   1.499  0.3589  0.7936  0.5069
  147SOL     OW  585   0.468   0.501   2.945 -0.5204  0.3469  0.9193
  147SOL    HW1  586   0.395   0.543   2.996  0.7068  1.7780  0.6513
  147SOL    HW2  587   0.486   0.559   2.872  1.8556 -2.4789 -0.9030
  147SOL     MW  588   0.461   0.514   2.942 -0.0450  0.1629  0.6435
  148SOL     OW  589   0.049   0.917   1.369 -0.2037 -0.3071 -0.2976
  148SOL    HW1  590   0.145   0.916   1.353  1.1777  0.0082 -0.5638
  148SOL    HW2  591   0.018   1.005   1.356 -0.5593  0.2483 -0.8642
  148SOL     MW  592   0.057   0.929   1.366 -0.0684 -0.1922 -0.4074
  149SOL     OW  593   1.585   1.183   1.394 -1.0333 -0.0718  0.6912
  149SOL    HW1  594   1.508   1.179   1.453  3.7733 -1.1692 -0.1589
  149SOL    HW2  595   1.592   1.274   1.362  0.7929  0.5307  2.0820
  149SOL     MW  596   1.576   1.195   1.398 -0.1582 -0.1371  0.7625
  150SOL     OW  597   1.725   1.466   0.849 -0.5434 -0.0816 -0.6155
  150SOL    HW1  598   1.781   1.404   0.895  1.8352  0.3312  0.5867
  150SOL    HW2  599   1.775   1.548   0.842  2.7966 -1.0473  0.8134
  150SOL     MW  600   1.739   1.469   0.854  0.2111 -0.1546 -0.2683
  151SOL     OW  601   1.621   1.885   0.828 -0.3683  0.0301 -0.0353
  151SOL    HW1  602   1.600   1.854   0.739 -0.4983  0.0260  1.4582
  151SOL    HW2  603   1.548   1.851   0.881 -1.6624  0.6462 -1.0191
  151SOL     MW  604   1.608   1.877   0.824 -0.5562  0.1108  0.0319
  152SOL     OW  605   0.649   1.419   1.566  0.0060 -0.1268  0.4395
  152SOL    HW1  606   0.699   1.448   1.484 -0.0685 -0.3684 -3.3267
  152SOL    HW2  607   0.618   1.337   1.529  1.0482  2.1035  0.3794
  152SOL     MW  608   0.652   1.412   1.550  0.1336  0.1356 -0.0653
  153SOL     OW  609   2.582   1.230   0.718  0.3502  0.8135 -0.0867
  153SOL    HW1  610   2.653   1.187   0.676 -1.0734 -1.6972 -0.9474
  153SOL    HW2  611   2.513   1.164   0.731 -0.8730 -2.5111  1.8448
  153SOL     MW  612   2.582   1.215   0.714  0.0010  0.0436  0.0545
  154SOL     OW  613   0.120   1.776   1.771  0.0173 -0.5137 -0.3208
  154SOL    HW1  614   0.078   1.691   1.730 -0.4878  2.1026 -0.2193
  154SOL    HW2  615   0.209   1.749   1.806  3.1320  0.2654 -3.1485
  154SOL     MW  616   0.126   1.761   1.771  0.3616 -0.0657 -0.6805
  155SOL     OW  617   1.220   0.698   0.296 -0.0169 -0.2935  0.2982
  155SOL    HW1  618   1.219   0.678   0.385 -0.0525  0.4826 -3.9328
  155SOL    HW2  619   1.186   0.791   0.304 -2.4219  1.7236 -1.0461
  155SOL     MW  620   1.215   0.708   0.309 -0.3389  0.0750 -0.4374
  156SOL     OW  621   1.563   0.005   1.073  0.3683 -0.1441 -0.1526
  156SOL    HW1  622   1.614   0.044   1.138 -2.4408  1.5490  0.9606
  156SOL    HW2  623   1.585  -0.090   1.076 -1.5072  0.1388  1.8320
  156SOL     MW  624   1.573  -0.003   1.082 -0.2498  0.1166  0.2561
  157SOL     OW  625   1.318   1.130   0.194 -0.2072  0.0088 -0.2257
  157SOL    HW1  626   1.341   1.063   0.252 -2.0216  1.9337  0.2897
  157SOL    HW2  627   1.389   1.193   0.208  1.2772  1.3863  1.9575
  157SOL     MW  628   1.331   1.129   0.203 -0.2507  0.4445  0.1303
  158SOL     OW  629   0.384   1.647   2.246  0.1005 -0.2306  0.8691
  158SOL    HW1  630   0.429   1.728   2.222  0.1914  1.5243  1.9692
  158SOL    HW2  631   0.316   1.645   2.175  0.9719 -2.3709 -0.4883
  158SOL     MW  632   0.381   1.657   2.233  0.2274 -0.2814  0.8351
  159SOL     OW  633   1.195   1.679   0.536  0.1170  0.8594 -0.3703
  159SOL    HW1  634   1.166   1.645   0.450 -0.8076 -0.1030  1.0535
  159SOL    HW2  635   1.139   1.756   0.558  1.9014  0.7328 -0.9795
  159SOL     MW  636   1.184   1.685   0.527  0.2305  0.7157 -0.2628
  160SOL     OW  637   0.505   1.132   1.537 -0.2433 -0.0515  0.3760
  160SOL    HW1  638   0.462   1.048   1.532  1.4145  1.7526 -0.3708
  160SOL    HW2  639   0.601   1.116   1.527  0.4202 -5.9726 -0.2445
  160SOL     MW  640   0.512   1.119   1.535  0.0630 -0.5947  0.1956
  161SOL     OW  641   0.464   2.275   2.684  0.1959  0.3968  0.1138
  161SOL    HW1  642   0.374   2.297   2.664  3.9984  0.8626  0.5120
  161SOL    HW2  643   0.484   2.190   2.642 -0.0595  0.6027 -2.2965
  161SOL     MW  644   0.455   2.267   2.676  0.6639  0.4854 -0.1517
  162SOL     OW  645   1.092   1.820   1.800 -0.1614  0.0875  0.4681
  162SOL    HW1  646   1.085   1.909   1.847  1.6265 -0.9708  1.0514
  162SOL    HW2  647   1.040   1.761   1.858 -4.8603  0.8549  2.0082
  162SOL     MW  648   1.084   1.824   1.814 -0.5455  0.0491  0.7483
  163SOL     OW  649   2.131   3.079   0.821  0.0633 -0.6184 -0.6135
  163SOL    HW1  650   2.123   3.158   0.765 -0.1044  0.2706 -3.1690
  163SOL    HW2  651   2.063   3.022   0.785  1.0839  2.1330 -0.0323
  163SOL     MW  652   2.121   3.082   0.808  0.1759 -0.1381 -0.8740
  164SOL     OW  653   0.287   0.223   0.864 -0.2973  0.0002 -0.0238
  164SOL    HW1  654   0.190   0.222   0.887  0.2951  0.4259 -0.3706
  164SOL    HW2  655   0.301   0.156   0.797  1.7866 -0.5650  0.8365
  164SOL     MW  656   0.276   0.214   0.858  0.0558 -0.0182  0.0440
  165SOL     OW  657   1.179   1.313   0.398 -0.5113 -0.3294 -0.3723
  165SOL    HW1  658   1.218   1.265   0.480 -0.6617 -2.9526  1.1739
  165SOL    HW2  659   1.219   1.277   0.324  1.9799  0.6693 -0.2076
  165SOL     MW  660   1.189   1.302   0.399 -0.2025 -0.5437 -0.1465
  166SOL     OW  661   0.413   1.159   1.038 -0.9463 -0.4568 -0.4216
  166SOL    HW1  662   0.392   1.195   1.122  1.0596  1.0215 -0.6415
  166SOL    HW2  663   0.512   1.170   1.023  0.6670  0.9003  2.1834
  166SOL     MW  664   0.423   1.165   1.047 -0.4688 -0.0827 -0.1069
  167SOL     OW  665   0.835   1.162   0.361  0.3773 -0.2259  0.4991
  167SOL    HW1  666   0.873   1.250   0.380  0.5078  1.7754  2.2187
  167SOL    HW2  667   0.886   1.145   0.279 -0.2164  3.3777 -0.3632
  167SOL     MW  668   0.846   1.171   0.353  0.3162  0.5136  0.6122
  168SOL     OW  669   1.720   1.643   3.035  0.7911 -0.2727 -0.4828
  168SOL    HW1  670   1.663   1.722   3.022  0.6279  0.1632  0.2877
  168SOL    HW2  671   1.665   1.569   3.004 -0.4905  1.1045 -1.0703
  168SOL     MW  672   1.705   1.644   3.029  0.6005 -0.0335 -0.4587
  169SOL     OW  673   0.324   0.968   1.329 -0.5201 -0.3957  0.1534
  169SOL    HW1  674   0.349   0.927   1.407 -1.5543 -0.3535  0.2606
  169SOL    HW2  675   0.326   1.064   1.338 -1.1908  1.5059  0.6162
  169SOL     MW  676   0.328   0.976   1.340 -0.7451 -0.1392  0.2286
  170SOL     OW  677   1.125   1.512   1.466 -0.6061  0.6244 -0.4622
  170SOL    HW1  678   1.093   1.600   1.478  0.1450 -0.8597 -1.6210
  170SOL    HW2  679   1.116   1.489   1.372  2.7256 -2.6178 -0.4544
  170SOL     MW  680   1.120   1.521   1.455 -0.0674  0.0008 -0.6140
  171SOL     OW  681   0.499   1.453   0.556 -0.6325  0.4646 -0.4142
  171SOL    HW1  682   0.403   1.479   0.580  0.0283  0.2847 -0.2480
  171SOL    HW2  683   0.511   1.370   0.496 -2.0019 -1.1486 -3.2471
  171SOL     MW  684   0.488   1.446   0.551 -0.7260  0.2280 -0.7661
  172SOL     OW  685   0.747   0.300   1.308 -0.0476  0.0808  0.2305
  172SOL    HW1  686   0.733   0.251   1.229 -2.2472 -1.6957  0.0169
  172SOL    HW2  687   0.825   0.247   1.347  2.3081 -1.4523 -0.6846
  172SOL     MW  688   0.755   0.287   1.303 -0.0270 -0.3559  0.0816
  173SOL     OW  689   0.518   1.744   0.340 -0.8643  0.7796 -0.1921
  173SOL    HW1  690   0.535   1.656   0.341 -0.9602  2.9122  1.6067
  173SOL    HW2  691   0.547   1.777   0.424 -2.6994  0.1462  0.9872
  173SOL     MW  692   0.524   1.737   0.351 -1.1191  0.9774  0.2008
  174SOL     OW  693   1.898   0.932   1.471  0.1732 -0.1785  0.2233
  174SOL    HW1  694   1.824   0.891   1.509  1.8601 -1.3414  2.0785
  174SOL    HW2  695   1.876   0.935   1.377 -0.9808 -1.3681  2.4595
  174SOL     MW  696   1.885   0.927   1.463  0.2435 -0.4889  0.7631
  175SOL     OW  697   0.578   1.465   0.204  0.3409 -0.1189  0.7029
  175SOL    HW1  698   0.547   1.382   0.171  0.4389 -0.0191 -1.2945
  175SOL    HW2  699   0.665   1.457   0.239  2.9522 -1.3062  0.1153
  175SOL     MW  700   0.585   1.453   0.204  0.6983 -0.2624  0.3618
  176SOL     OW  701   0.087   1.511   1.181  0.3244 -0.0458  0.4399
  176SOL    HW1  702   0.097   1.463   1.095  1.2229  0.7052 -1.3586
  176SOL    HW2  703  -0.004   1.491   1.213 -0.5851 -2.6259 -0.1501
  176SOL     MW  704   0.076   1.502   1.174  0.3229 -0.2872  0.1247
  177SOL     OW  705   0.507   0.275   1.417  0.1976  0.1941  0.3283
  177SOL    HW1  706   0.595   0.283   1.370  0.1000 -4.1700 -0.7652
  177SOL    HW2  707   0.504   0.368   1.456  0.4297  0.1172  0.6269
  177SOL     MW  708   0.519   0.288   1.416  0.2153 -0.3918  0.2234
  178SOL     OW  709   3.062   0.544   2.996 -0.2249  0.1538 -0.6232
  178SOL    HW1  710   2.968   0.525   3.033  0.2813  2.2184  0.2025
  178SOL    HW2  711   3.042   0.524   2.909 -0.6924  2.5991 -1.7601
  178SOL     MW  712   3.047   0.539   2.989 -0.2198  0.7489 -0.6642
  179SOL     OW  713   1.556   1.487   1.369  0.2999  0.1406 -0.8937
  179SOL    HW1  714   1.551   1.483   1.467 -0.0131  1.1622  0.3410
  179SOL    HW2  715   1.655   1.482   1.365 -1.3485  1.1228 -1.6821
  179SOL     MW  716   1.568   1.486   1.381  0.0411  0.4050 -0.8348
  180SOL     OW  717   0.020   0.239   0.418  0.3369  0.0042  0.0972
  180SOL    HW1  718  -0.071   0.264   0.387 -2.8581  2.2214 -1.5648
  180SOL    HW2  719   0.050   0.325   0.452 -1.0487 -0.8588 -0.1007
  180SOL     MW  720   0.012   0.254   0.418 -0.2675  0.1829 -0.1482
  181SOL     OW  721   1.084   1.334   0.009 -0.2393 -0.0626 -0.1905
  181SOL    HW1  722   1.160   1.382   0.050 -0.6266 -0.3456  3.3029
  181SOL    HW2  723   1.116   1.303  -0.073 -2.6372 -0.1956  1.5034
  181SOL     MW  724   1.098   1.337   0.004 -0.6068 -0.1175  0.4939
  182SOL     OW  725   0.367   0.900   1.583  0.1927 -0.7752  0.0387
  182SOL    HW1  726   0.286   0.909   1.632 -1.6018 -1.4816  1.2764
  182SOL    HW2  727   0.421   0.876   1.656 -4.6616 -0.9618  0.9492
  182SOL     MW  728   0.363   0.898   1.599 -0.6846 -0.8930  0.3221
  183SOL     OW  729   1.580   1.752   1.273  0.2416 -0.2395  0.0670
  183SOL    HW1  730   1.673   1.755   1.264 -0.8856 -0.7131  2.7309
  183SOL    HW2  731   1.558   1.661   1.308  0.4201 -1.5338 -0.4202
  183SOL     MW  732   1.590   1.740   1.277  0.1164 -0.4727  0.3542
  184SOL     OW  733   0.820   0.630   1.763 -0.3204 -0.0721 -0.5433
  184SOL    HW1  734   0.915   0.631   1.731  1.0009 -1.9288  0.6049
  184SOL    HW2  735   0.825   0.562   1.833 -0.9832 -1.6060 -2.2646
  184SOL     MW  736   0.833   0.621   1.768 -0.2335 -0.5195 -0.6189
  185SOL     OW  737   1.128   0.963   1.868 -0.3234  0.2683 -0.1303
  185SOL    HW1  738   1.085   0.882   1.905 -1.5840 -1.1520  1.4261
  185SOL    HW2  739   1.170   1.004   1.948 -0.7472 -0.9337  0.4673
  185SOL     MW  740   1.128   0.958   1.883 -0.5457 -0.0777  0.1539
  186SOL     OW  741   0.266   1.601   1.517  0.2284 -0.1655 -0.1731
  186SOL    HW1  742   0.291   1.562   1.429  1.0920 -3.1566  1.2897
  186SOL    HW2  743   0.176   1.565   1.536 -0.3049  0.3957 -0.3667
  186SOL     MW  744   0.257   1.591   1.508  0.2720 -0.4861 -0.0057
  187SOL     OW  745   1.402   0.792   1.345  0.6580  0.1628 -0.5054
  187SOL    HW1  746   1.402   0.807   1.438  3.0178 -0.9654 -0.4664
  187SOL    HW2  747   1.311   0.775   1.322  1.2744  0.1446 -2.4638
  187SOL     MW  748   1.390   0.791   1.355  1.0507  0.0116 -0.7586
  188SOL     OW  749   1.867   1.229   0.929 -0.5120  0.0572  0.2164
  188SOL    HW1  750   1.882   1.210   1.024 -0.4600  0.4348  1.6709
  188SOL    HW2  751   1.873   1.139   0.893 -1.2294 -1.6800  0.4410
  188SOL     MW  752   1.869   1.215   0.937 -0.5998 -0.1222  0.4380
  189SOL     OW  753   0.706   0.712   0.881  0.1766  0.2730 -0.5686
  189SOL    HW1  754   0.630   0.764   0.870 -0.7048  0.5784  0.6707
  189SOL    HW2  755   0.751   0.753   0.952 -0.4740  3.0261 -2.5674
  189SOL     MW  756   0.702   0.724   0.889 -0.0255  0.6765 -0.6688
  190SOL     OW  757   1.881   0.272   2.050 -0.0182 -0.5305  0.1469
  190SOL    HW1  758   1.891   0.248   2.138  0.4848  2.4782 -2.2728
  190SOL    HW2  759   1.958   0.336   2.046  2.7527  0.0195 -2.2649
  190SOL     MW  760   1.893   0.278   2.061  0.4137 -0.0609 -0.4905
  191SOL     OW  761   1.561   0.976   1.226 -0.0553  0.5368  0.3924
  191SOL    HW1  762   1.562   1.054   1.285 -0.4905 -0.6602  1.0365
  191SOL    HW2  763   1.514   0.910   1.278 -0.5753  1.8238 -0.3984
  191SOL     MW  764   1.555   0.978   1.240 -0.1813  0.5487  0.3730
  192SOL     OW  765   0.521   2.172   2.949  0.4661  0.2073 -0.1424
  192SOL    HW1  766   0.468   2.219   2.883  1.1443 -0.6928 -1.1017
  192SOL    HW2  767   0.481   2.087   2.948  0.7620 -1.9238  2.4880
  192SOL     MW  768   0.509   2.167   2.940  0.5946 -0.1926  0.0780
  193SOL     OW  769   0.833   1.619   0.802 -0.1160 -0.5300 -0.4198
  193SOL    HW1  770   0.734   1.609   0.802 -5.7062 -0.4958 -0.6165
  193SOL    HW2  771   0.836   1.558   0.729  0.8852 -0.9152  2.3258
  193SOL     MW  772   0.820   1.609   0.793 -0.7215 -0.5763 -0.0835
  194SOL     OW  773   0.415   1.350   0.856 -0.3574  0.2217  0.2485
  194SOL    HW1  774   0.387   1.290   0.930  0.3159 -2.2877  4.1511
  194SOL    HW2  775   0.335   1.394   0.826 -1.5691  0.2011 -0.0154
  194SOL     MW  776   0.401   1.348   0.862 -0.4285 -0.1121  0.7286
  195SOL     OW  777   1.200   1.114   3.016 -0.2754  0.4058  0.1344
  195SOL    HW1  778   1.226   1.142   3.106  2.0110  1.4272  1.0186
  195SOL    HW2  779   1.168   1.024   3.032 -2.0327 -2.2224 -1.5505
  195SOL     MW  780   1.199   1.106   3.030 -0.2056  0.1938  0.0288
  196SOL     OW  781   2.237   1.025   0.507 -0.2015  0.1891 -0.0481
  196SOL    HW1  782   2.286   1.009   0.421  1.3439  1.0723  1.5001
  196SOL    HW2  783   2.229   1.117   0.517  3.1001 -0.9493 -2.5015
  196SOL     MW  784   2.242   1.035   0.497  0.4380  0.1554 -0.1675
  197SOL     OW  785   0.614   1.345   2.155  0.1007  0.1916  0.0225
  197SOL    HW1  786   0.645   1.263   2.116  0.3739  1.5908 -1.2345
  197SOL    HW2  787   0.677   1.409   2.122  0.0326  1.4680 -1.6651
  197SOL     MW  788   0.626   1.343   2.145  0.1278  0.5446 -0.3660
  198SOL     OW  789   2.940   1.387   1.020 -0.0722 -0.0570  0.0867
  198SOL    HW1  790   2.948   1.459   0.953 -1.3393 -0.1962 -0.2245
  198SOL    HW2  791   2.854   1.344   1.001  2.8120  2.0405  0.6756
  198SOL     MW  792   2.930   1.391   1.009  0.1412  0.2013  0.1234
  199SOL     OW  793   0.666   1.257   1.826  0.5131 -0.5561  0.1691
  199SOL    HW1  794   0.573   1.248   1.852 -2.2034 -0.4610 -0.6925
  199SOL    HW2  795   0.668   1.339   1.774 -0.5129  1.6470 -2.2002
  199SOL     MW  796   0.654   1.266   1.822  0.0193 -0.2529 -0.2572
  200SOL     OW  797   1.846   2.972   1.291 -0.5756  0.5735 -0.0232
  200SOL    HW1  798   1.916   2.981   1.220  2.7555 -0.2904 -0.6085
  200SOL    HW2  799   1.812   3.056   1.295  1.0143 -2.7069  0.5923
  200SOL     MW  800   1.851   2.984   1.282  0.0737  0.0267 -0.0192
  201SOL     OW  801   1.196   0.290   0.818 -0.0589  0.1455  0.0439
  201SOL    HW1  802   1.161   0.205   0.811  2.6107 -0.5025 -1.8084
  201SOL    HW2  803   1.290   0.288   0.805 -1.3930  0.5583 -1.9286
  201SOL     MW  804   1.204   0.279   0.815  0.1173  0.1145 -0.4607
  202SOL     OW  805   1.479   1.736   1.026 -0.2916  0.0441 -0.0554
  202SOL    HW1  806   1.488   1.646   1.025 -0.6134 -0.0658  0.6731
  202SOL    HW2  807   1.528   1.756   1.110 -1.2278  1.1814  1.9238
  202SOL     MW  808   1.486   1.727   1.037 -0.4576  0.1797  0.3018
  203SOL     OW  809   3.059   0.359   1.311  0.7715  0.4422  0.2792
  203SOL    HW1  810   3.086   0.280   1.368  1.5424 -0.5708  0.1123
  203SOL    HW2  811   3.140   0.369   1.262 -0.2387  1.7371 -0.2848
  203SOL     MW  812   3.073   0.350   1.312  0.7400  0.4794  0.1828
  204SOL     OW  813   0.992   1.824   0.662  0.6842  0.2933 -0.2184
  204SOL    HW1  814   0.975   1.739   0.699  0.0963  2.9742  1.2158
  204SOL    HW2  815   0.927   1.833   0.592 -2.2533 -0.9282  0.2062
  204SOL     MW  816   0.981   1.814   0.658  0.2191  0.4858  0.0269
  205SOL     OW  817   1.411   3.027   1.315 -0.0644 -0.7804 -0.5521
  205SOL    HW1  818   1.444   3.063   1.234  0.2982 -1.0237  0.3821
  205SOL    HW2  819   1.329   3.074   1.333  0.6523 -0.3524 -2.0165
  205SOL     MW  820   1.405   3.038   1.307  0.0780 -0.7560 -0.6220
  206SOL     OW  821   0.369   2.930   1.332 -0.2031  0.1225  0.1335
  206SOL    HW1  822   0.361   2.971   1.245  0.3098  2.6971  0.0827
  206SOL    HW2  823   0.464   2.924   1.348 -0.3477 -2.0143  0.4311
  206SOL     MW  824   0.381   2.935   1.322 -0.1545  0.1802  0.1661
  207SOL     OW  825   0.895   1.745   0.222  0.2562  0.2432 -0.2289
  207SOL    HW1  826   0.945   1.814   0.178 -1.4593  2.2482 -2.7325
  207SOL    HW2  827   0.958   1.685   0.269 -1.0168 -0.5329  0.5890
  207SOL     MW  828   0.910   1.746   0.222 -0.1381  0.4053 -0.4513
  208SOL     OW  829   0.781   1.548   1.325 -0.2841 -0.0553  0.2405
  208SOL    HW1  830   0.861   1.592   1.289  3.6453 -1.5874 -3.2022
  208SOL    HW2  831   0.761   1.486   1.253  2.7485 -0.0730  1.2301
  208SOL     MW  832   0.789   1.545   1.311  0.6345 -0.2598 -0.0832
  209SOL     OW  833   1.618   0.481   2.830  0.5638 -0.3969 -0.1378
  209SOL    HW1  834   1.670   0.562   2.827  0.1092  0.5698 -0.2296
  209SOL    HW2  835   1.680   0.409   2.819  1.5451  2.3676 -1.4616
  209SOL     MW  836   1.633   0.482   2.828  0.6333  0.0954 -0.3246
  210SOL     OW  837   1.485   1.422   0.976  0.4389 -0.4400  0.6756
  210SOL    HW1  838   1.570   1.420   0.934  0.3781  1.4764 -0.0291
  210SOL    HW2  839   1.431   1.452   0.901 -0.8128  0.6329  1.3195
  210SOL     MW  840   1.489   1.426   0.961  0.2657 -0.0456  0.6676
  211SOL     OW  841   1.746   0.460   0.903  0.0118  0.5135  0.0681
  211SOL    HW1  842   1.747   0.439   0.803  0.9678 -0.1726 -0.0060
  211SOL    HW2  843   1.823   0.427   0.956  2.0406  1.6595  1.1086
  211SOL     MW  844   1.756   0.453   0.897  0.4056  0.5742  0.1956
  212SOL     OW  845   0.361   1.177   0.211 -0.3826  0.6147 -0.4327
  212SOL    HW1  846   0.308   1.101   0.211  1.4703  1.9726 -1.0054
  212SOL    HW2  847   0.419   1.153   0.140  1.2443  0.7657 -1.3590
  212SOL     MW  848   0.362   1.164   0.202  0.0766  0.8138 -0.6305
  213SOL     OW  849   0.375   1.838   3.014  0.1827 -0.2153  0.4825
  213SOL    HW1  850   0.433   1.864   3.092  1.6031 -1.9973  0.2496
  213SOL    HW2  851   0.422   1.872   2.932  0.5553  1.0972 -2.0147
  213SOL     MW  852   0.389   1.846   3.013  0.4193 -0.2773  0.1223
  214SOL     OW  853   0.602   0.345   2.098 -0.6814  0.0321 -0.6508
  214SOL    HW1  854   0.539   0.417   2.123  1.2118 -1.9107 -1.4370
  214SOL    HW2  855   0.573   0.306   2.016  0.4151 -5.7234  0.6412
  214SOL     MW  856   0.590   0.349   2.091 -0.2869 -0.9836 -0.5840
  215SOL     OW  857   0.522   0.521   2.519  0.4077 -0.3492  0.2597
  215SOL    HW1  858   0.461   0.588   2.490 -2.2634  0.7550  0.4422
  215SOL    HW2  859   0.467   0.492   2.589  2.0297  0.0285  0.0788
  215SOL     MW  860   0.507   0.526   2.524  0.2693 -0.1537  0.2599
  216SOL     OW  861   2.894   3.094   2.776  0.6070  0.2571  0.4339
  216SOL    HW1  862   2.813   3.060   2.817  0.5634 -0.0920 -1.9529
  216SOL    HW2  863   2.881   3.178   2.740 -2.0839 -3.4003  1.7900
  216SOL     MW  864   2.881   3.101   2.777  0.2462 -0.2715  0.2979
  217SOL     OW  865   0.978   1.085   0.129 -0.7758  0.2448  0.2226
  217SOL    HW1  866   0.975   1.011   0.070 -0.3828 -0.2027 -0.6894
  217SOL    HW2  867   1.017   1.143   0.070 -0.9993 -1.7144  3.5151
  217SOL     MW  868   0.982   1.083   0.113 -0.7534 -0.0728  0.5367
  218SOL     OW  869   0.848   1.363   2.603 -0.2436  0.2624 -0.3291
  218SOL    HW1  870   0.818   1.313   2.678  1.1523  1.0243 -1.3590
  218SOL    HW2  871   0.940   1.379   2.621 -0.6123 -1.5789  1.4682
  218SOL     MW  872   0.856   1.359   2.615 -0.1081  0.1200 -0.2278
  219SOL     OW  873   1.056   0.452   2.601 -0.3107 -0.1357 -0.0134
  219SOL    HW1  874   1.124   0.521   2.611  2.5331  1.5347 -0.6726
  219SOL    HW2  875   0.974   0.500   2.584  2.1582 -0.8824 -1.0436
  219SOL     MW  876   1.054   0.467   2.600  0.3903 -0.0138 -0.2363
  220SOL     OW  877   1.715   0.508   2.201 -0.4058  0.4914 -0.0837
  220SOL    HW1  878   1.635   0.551   2.165  2.0831  1.5420 -1.6282
  220SOL    HW2  879   1.733   0.439   2.135 -0.0228  0.8180 -0.8755
  220SOL     MW  880   1.707   0.505   2.188 -0.0269  0.6731 -0.3920
  221SOL     OW  881   0.391   1.383   2.925 -0.1080 -0.0566 -0.1428
  221SOL    HW1  882   0.431   1.295   2.921 -0.3316 -0.9868 -0.1502
  221SOL    HW2  883   0.455   1.455   2.961 -0.5191  3.3744 -0.1357
  221SOL     MW  884   0.404   1.381   2.929 -0.1918  0.2733 -0.1428
  222SOL     OW  885   0.526   0.927   2.721  0.1317 -0.4763  0.0359
  222SOL    HW1  886   0.436   0.909   2.701 -0.3865  1.9212  2.3996
  222SOL    HW2  887   0.573   0.843   2.698  1.3971 -2.1309 -1.8864
  222SOL     MW  888   0.520   0.914   2.715  0.2303 -0.3783  0.0941
  223SOL     OW  889   3.093   2.042   2.542  0.0607  0.1359 -0.4281
  223SOL    HW1  890   3.071   2.041   2.637  0.1385 -1.1050  0.8002
  223SOL    HW2  891   3.126   2.131   2.520 -1.6233 -0.4906  2.1032
  223SOL     MW  892   3.094   2.053   2.552 -0.1512 -0.1105  0.0679
  224SOL     OW  893   1.462   0.693   2.444  0.0063 -0.3177 -0.2155
  224SOL    HW1  894   1.551   0.685   2.477  1.0032 -0.2828  3.7491
  224SOL    HW2  895   1.446   0.786   2.472  1.2362 -1.4619 -0.7372
  224SOL     MW  896   1.472   0.704   2.452  0.3001 -0.4641  0.2387
  225SOL     OW  897   2.952   1.492   2.247 -0.2234  0.1240 -0.1302
  225SOL    HW1  898   3.004   1.570   2.220  0.4970  1.2877 -3.7019
  225SOL    HW2  899   2.886   1.520   2.310 -2.8416 -1.3820 -0.4272
  225SOL     MW  900   2.950   1.506   2.252 -0.4738  0.0789 -0.6407
  226SOL     OW  901   0.433   1.552   2.685  0.5424  0.5560  0.2350
  226SOL    HW1  902   0.523   1.576   2.664  0.3347  1.7163  0.1976
  226SOL    HW2  903   0.386   1.640   2.694 -3.2321 -0.9328  0.3265
  226SOL     MW  904   0.438   1.567   2.684  0.0170  0.5127  0.2421
  227SOL     OW  905   0.515   1.138   2.924 -0.8253  0.2100 -0.5510
  227SOL    HW1  906   0.602   1.157   2.881 -2.5734  0.6986 -0.7265
  227SOL    HW2  907   0.475   1.066   2.873 -0.0487  2.9703  0.6187
  227SOL     MW  908   0.522   1.131   2.912 -0.9535  0.6387 -0.4198
  228SOL     OW  909   0.746   1.110   2.045  0.1690  0.3550 -0.6235
  228SOL    HW1  910   0.717   1.167   1.975 -0.9533 -2.0573  1.7037
  228SOL    HW2  911   0.798   1.157   2.109 -1.2948  0.2914 -0.9615
  228SOL     MW  912   0.749   1.124   2.044 -0.1722  0.0284 -0.3610
  229SOL     OW  913   0.206   0.567   0.016 -0.1747  0.0800  0.8224
  229SOL    HW1  914   0.124   0.556  -0.039  3.5290 -0.1741 -0.3552
  229SOL    HW2  915   0.197   0.498   0.086  0.5739  0.8184  0.1735
  229SOL     MW  916   0.194   0.556   0.018  0.4128  0.1439  0.5814
  230SOL     OW  917   1.725   1.376   2.050 -0.4825 -0.0349  0.5333
  230SOL    HW1  918   1.669   1.346   2.120 -2.5263  0.6658 -0.2946
  230SOL    HW2  919   1.805   1.327   2.053 -0.7359  2.6621 -0.2648
  230SOL     MW  920   1.728   1.365   2.060 -0.7856  0.4134  0.3188
  231SOL     OW  921   2.734   1.261   2.234  0.1646  0.3054 -0.2136
  231SOL    HW1  922   2.785   1.344   2.243  0.6143  1.5383 -1.6263
  231SOL    HW2  923   2.687   1.289   2.153 -1.0698  4.5712 -1.6968
  231SOL     MW  924   2.734   1.276   2.224  0.0610  1.0309 -0.5957
  232SOL     OW  925   2.292   0.893   1.937  0.1643  0.1007  0.3020
  232SOL    HW1  926   2.209   0.927   1.915 -1.3474 -0.1648  1.1996
  232SOL    HW2  927   2.281   0.854   2.023  0.0058  0.8301  1.0667
  232SOL     MW  928   2.280   0.892   1.945 -0.0561  0.1619  0.5213
  233SOL     OW  929   2.097   0.419   2.043 -0.1250  0.3854 -0.2770
  233SOL    HW1  930   2.146   0.332   2.028  0.0599 -5.9895 -0.5831
  233SOL    HW2  931   2.119   0.443   2.135  0.2126 -0.4595 -1.7052
  233SOL     MW  932   2.106   0.410   2.053 -0.0561 -0.5672 -0.5058
  234SOL     OW  933   0.242   1.063   2.670  0.2423 -0.1817  0.2703
  234SOL    HW1  934   0.170   1.038   2.615  1.8217  2.9878 -0.7610
  234SOL    HW2  935   0.277   1.150   2.640 -2.0652 -1.4106  0.8661
  234SOL     MW  936   0.237   1.071   2.659  0.1462  0.0744  0.2129
  235SOL     OW  937   1.141   3.080   2.835  0.0615  0.8630  0.4015
  235SOL    HW1  938   1.220   3.078   2.888 -1.5550  2.3399  0.9546
  235SOL    HW2  939   1.115   3.175   2.849 -1.5216  2.0341  0.8705
  235SOL     MW  940   1.148   3.092   2.844 -0.3607  1.2123  0.5364
  236SOL     OW  941   2.984   0.598   0.216  0.2087 -0.3284 -0.5036
  236SOL    HW1  942   2.988   0.615   0.313 -1.0420  0.4647 -0.1011
  236SOL    HW2  943   3.032   0.668   0.167 -0.4694  0.6021 -4.0361
  236SOL     MW  944   2.991   0.610   0.222 -0.0458 -0.1010 -0.9165
  237SOL     OW  945   1.894   1.061   2.129 -0.1974 -0.2570 -0.2326
  237SOL    HW1  946   1.819   1.074   2.185  1.6946 -1.5702 -2.9218
  237SOL    HW2  947   1.860   1.021   2.051 -3.4061 -0.0039 -2.4374
  237SOL     MW  948   1.879   1.057   2.126 -0.3711 -0.3969 -0.8783
  238SOL     OW  949   1.072   1.721   2.936 -0.2669 -0.1546 -0.2283
  238SOL    HW1  950   1.019   1.645   2.943  4.4478 -2.6578 -0.9494
  238SOL    HW2  951   1.159   1.685   2.913 -0.3849  0.9063 -0.6935
  238SOL     MW  952   1.077   1.706   2.934  0.3396 -0.3449 -0.3848
  239SOL     OW  953   1.191   1.318   2.354 -0.1133  0.0405  0.0810
  239SOL    HW1  954   1.125   1.301   2.290 -1.5762  0.9258 -0.1788
  239SOL    HW2  955   1.165   1.269   2.431 -1.9885 -0.7462 -2.5668
  239SOL     MW  956   1.179   1.310   2.356 -0.5538  0.0535 -0.3026
  240SOL     OW  957   0.576   0.879   2.278 -0.0373 -0.1775 -0.1279
  240SOL    HW1  958   0.599   0.947   2.342  1.0209  1.8247  1.4822
  240SOL    HW2  959   0.660   0.858   2.238  2.8309 -0.8363 -1.2505
  240SOL     MW  960   0.590   0.885   2.281  0.4807 -0.0003 -0.0636
  241SOL     OW  961   0.699   0.437   3.098  0.2540  0.0905  0.0976
  241SOL    HW1  962   0.707   0.525   3.138  0.3429  0.8429 -2.4131
  241SOL    HW2  963   0.604   0.437   3.066  2.7611  1.3195  1.4872
  241SOL     MW  964   0.688   0.449   3.099  0.5965  0.3519 -0.0503
  242SOL     OW  965   1.505   1.634   2.305 -0.4064 -1.0817  0.0447
  242SOL    HW1  966   1.460   1.713   2.312  1.6445 -0.5090  0.9225
  242SOL    HW2  967   1.458   1.593   2.235  2.5796  2.2756 -1.9844
  242SOL     MW  968   1.493   1.639   2.297  0.2581 -0.5632 -0.1072
  243SOL     OW  969   1.022   0.303   2.370  0.2366 -1.1477  0.1752
  243SOL    HW1  970   1.112   0.266   2.371 -1.6626 -1.8984  0.1208
  243SOL    HW2  971   1.022   0.358   2.452 -2.0852 -0.3209  1.9338
  243SOL     MW  972   1.034   0.305   2.381 -0.3203 -1.1377  0.4000
  244SOL     OW  973   0.097   0.772   2.368 -0.5485  0.3575 -0.2109
  244SOL    HW1  974   0.097   0.860   2.408  2.5200  1.4581  2.3211
  244SOL    HW2  975   0.188   0.761   2.344 -3.8453  0.9639  0.7860
  244SOL     MW  976   0.109   0.782   2.370 -0.5787  0.5827  0.2547
  245SOL     OW  977   1.252   0.162   2.430 -0.8231 -0.3571  0.4880
  245SOL    HW1  978   1.283   0.111   2.348 -0.2999 -0.7762  1.3935
  245SOL    HW2  979   1.299   0.109   2.496 -0.3452  1.8919 -0.8686
  245SOL     MW  980   1.262   0.148   2.428 -0.6910 -0.1157  0.4284
  246SOL     OW  981   1.220   1.144   2.100  0.2641 -0.0777  0.0518
  246SOL    HW1  982   1.144   1.143   2.165 -2.4753  1.7845  0.4110
  246SOL    HW2  983   1.288   1.093   2.148  0.3934 -0.1686  4.7586
  246SOL     MW  984   1.219   1.137   2.115 -0.0803  0.1560  0.7202
  247SOL     OW  985   0.766   0.674   0.187 -0.1612 -0.0822  0.4814
  247SOL    HW1  986   0.726   0.765   0.175  1.5144  1.2702 -1.9626
  247SOL    HW2  987   0.852   0.676   0.138  1.6695 -0.4042 -1.3377
  247SOL     MW  988   0.772   0.686   0.179  0.3014  0.0537 -0.0811
  248SOL     OW  989   0.302   1.334   2.586 -0.0429 -0.5332  0.4819
  248SOL    HW1  990   0.335   1.354   2.498 -1.3420 -0.1651  2.2950
  248SOL    HW2  991   0.339   1.406   2.636 -2.2938 -0.7056  0.3330
  248SOL     MW  992   0.311   1.346   2.581 -0.5113 -0.5074  0.7015
  249SOL     OW  993   3.027   1.925   2.784  0.3087 -0.2872 -0.0006
  249SOL    HW1  994   3.009   1.851   2.727  1.3114 -0.2050 -2.1611
  249SOL    HW2  995   3.098   1.893   2.840 -1.8442 -2.1210  0.6540
  249SOL     MW  996   3.034   1.911   2.784  0.1569 -0.5183 -0.1993
  250SOL     OW  997   2.242   0.769   2.169  0.1100 -0.3502 -0.2509
  250SOL    HW1  998   2.185   0.693   2.203 -0.4511 -1.8528 -0.1917
  250SOL    HW2  999   2.261   0.833   2.236  2.3304 -0.1186  0.6286
  250SOL     MW 1000   2.237   0.767   2.183  0.3289 -0.5179 -0.1270
  251SOL     OW 1001   0.152   0.881   2.038  0.0022 -0.1478 -0.2194
  251SOL    HW1 1002   0.110   0.805   2.067  1.0781 -0.5997  2.2564
  251SOL    HW2 1003   0.166   0.871   1.941  1.0720 -1.6411  1.8289
  251SOL     MW 1004   0.149   0.869   2.029  0.2853 -0.4044  0.3775
  252SOL     OW 1005   1.719   0.999   2.877  0.3962  0.9179  0.1417
  252SOL    HW1 1006   1.723   1.050   2.957 -2.4161 -1.0859  2.2262
  252SOL    HW2 1007   1.805   1.026   2.838 -1.3061  2.0628  0.2928
  252SOL     MW 1008   1.731   1.009   2.883 -0.1994  0.8045  0.4367
  253SOL     OW 1009   1.147   1.696   2.511 -0.4235 -0.3754  0.3625
  253SOL    HW1 1010   1.121   1.650   2.425 -1.4186 -1.9279 -0.0849
  253SOL    HW2 1011   1.062   1.744   2.536  2.7750 -0.2440  2.2749
  253SOL     MW 1012   1.132   1.697   2.503 -0.1328 -0.5629  0.5558
  254SOL     OW 1013   0.971   1.122   2.227  0.0596 -0.5736  0.5426
  254SOL    HW1 1014   0.955   1.028   2.231  0.6967 -0.7348  1.2096
  254SOL    HW2 1015   0.909   1.161   2.296 -3.8341 -1.1277  1.4164
  254SOL     MW 1016   0.961   1.115   2.236 -0.3701 -0.6680  0.7459
  255SOL     OW 1017   0.849   2.541   2.150  0.2196 -0.8815 -0.2114
  255SOL    HW1 1018   0.770   2.485   2.126 -1.6435  2.6130 -0.8586
  255SOL    HW2 1019   0.927   2.490   2.167  2.1143  3.2784 -0.6245
  255SOL     MW 1020   0.849   2.527   2.149  0.2237  0.1284 -0.3513
  256SOL     OW 1021   1.305   2.790   3.049  0.5447 -0.3070  0.6694
  256SOL    HW1 1022   1.336   2.702   3.072  0.5584 -0.3753 -0.5047
  256SOL    HW2 1023   1.334   2.781   2.956  0.5440  0.6813 -0.2167
  256SOL     MW 1024   1.313   2.777   3.040  0.5464 -0.1856  0.3976
  257SOL     OW 1025   0.034   1.911   0.087  0.1468  0.5444 -0.4282
  257SOL    HW1 1026   0.114   1.937   0.133 -3.5401  1.1942 -0.1349
  257SOL    HW2 1027   0.059   1.850   0.019 -1.0980 -1.4434 -0.1225
  257SOL     MW 1028   0.048   1.906   0.084 -0.5039  0.3679 -0.3492
  258SOL     OW 1029   0.679   1.016   2.513  0.1735 -0.0279  0.3444
  258SOL    HW1 1030   0.705   1.103   2.474  3.0047  0.8316 -1.9600
  258SOL    HW2 1031   0.615   1.015   2.580  2.0785  3.2755  2.5812
  258SOL     MW 1032   0.674   1.027   2.517  0.7984  0.5214  0.3354
  259SOL     OW 1033   0.809   0.463   2.250  0.1316  0.4728  0.0527
  259SOL    HW1 1034   0.739   0.404   2.207  0.6935 -0.6206  1.8490
  259SOL    HW2 1035   0.878   0.397   2.262  1.2040  0.8596  1.2617
  259SOL     MW 1036   0.809   0.446   2.246  0.3472  0.3795  0.4492
  260SOL     OW 1037   0.647   0.100   1.601 -0.1661 -0.3171  0.3394
  260SOL    HW1 1038   0.585   0.135   1.543  0.6601 -4.1055  0.3071
  260SOL    HW2 1039   0.733   0.112   1.554 -1.5878  2.5357 -0.5807
  260SOL     MW 1040   0.650   0.106   1.587 -0.2447 -0.4405  0.2138
  261SOL     OW 1041   1.027   0.736   2.022 -0.2494 -0.1927  0.3898
  261SOL    HW1 1042   1.091   0.698   2.079 -1.4474  2.3833 -1.0702
  261SOL    HW2 1043   0.991   0.664   1.973 -2.3747  1.3191 -0.3207
  261SOL     MW 1044   1.031   0.721   2.023 -0.6879  0.3466  0.1034
  262SOL     OW 1045   1.131   0.338   0.122 -0.6606 -0.0682  0.6257
  262SOL    HW1 1046   1.229   0.354   0.102  0.3189 -0.9153 -0.5355
  262SOL    HW2 1047   1.110   0.263   0.064 -1.8605  0.4044  1.2991
  262SOL     MW 1048   1.141   0.330   0.112 -0.6896 -0.1176  0.5614
  263SOL     OW 1049   0.417   0.004   2.505  0.4616 -0.4341 -0.7606
  263SOL    HW1 1050   0.350   0.066   2.534 -0.7714 -0.9301  2.1947
  263SOL    HW2 1051   0.456   0.036   2.424 -0.3916 -1.6577 -3.4263
  263SOL     MW 1052   0.413   0.017   2.498  0.1863 -0.6610 -0.7224
  264SOL     OW 1053   1.543   1.488   1.903  0.3246 -0.1471  0.5785
  264SOL    HW1 1054   1.472   1.421   1.902 -0.1478  0.3193  0.4556
  264SOL    HW2 1055   1.621   1.431   1.940  1.1080 -1.5939  0.2439
  264SOL     MW 1056   1.544   1.472   1.908  0.3657 -0.2764  0.5182
  265SOL     OW 1057   0.730   2.812   2.295  0.2145 -0.0838 -0.2187
  265SOL    HW1 1058   0.813   2.818   2.248 -1.2246 -1.1152 -1.8412
  265SOL    HW2 1059   0.744   2.787   2.388  0.3461  2.0474 -0.1405
  265SOL     MW 1060   0.743   2.809   2.301  0.0420  0.0613 -0.4225
  266SOL     OW 1061   0.831   0.870   2.138 -0.1573 -0.5538  0.4856
  266SOL    HW1 1062   0.810   0.934   2.070 -0.4986  0.1520 -0.9525
  266SOL    HW2 1063   0.911   0.815   2.094  1.9822 -0.4063 -1.2443
  266SOL     MW 1064   0.839   0.871   2.124  0.0799 -0.4412  0.0677
  267SOL     OW 1065   1.398   1.706   2.646 -0.0058  0.5553  0.2822
  267SOL    HW1 1066   1.471   1.642   2.621  0.5251 -0.7102  0.4075
  267SOL    HW2 1067   1.323   1.684   2.592 -1.7785  1.9815 -1.2737
  267SOL     MW 1068   1.398   1.695   2.636 -0.1697  0.5765  0.0935
  268SOL     OW 1069   0.128   0.895   1.762  0.1776  0.5333 -0.0561
  268SOL    HW1 1070   0.049   0.941   1.787  1.4871  0.3989  0.0427
  268SOL    HW2 1071   0.089   0.848   1.687  0.5995 -3.2703 -1.5519
  268SOL     MW 1072   0.112   0.895   1.756  0.4061  0.0137 -0.2404
  269SOL     OW 1073   1.361   1.882   2.335  0.3930  0.1573  0.3239
  269SOL    HW1 1074   1.396   1.965   2.359 -0.0843 -0.8413  1.9987
  269SOL    HW2 1075   1.287   1.882   2.395  0.2228  1.5880  2.2609
  269SOL     MW 1076   1.356   1.893   2.346  0.3075  0.2143  0.8005
  270SOL     OW 1077   1.092   0.392   1.514 -0.3315  0.9996 -0.2732
  270SOL    HW1 1078   1.049   0.319   1.558 -1.0092  1.6467  0.6525
  270SOL    HW2 1079   1.186   0.377   1.534 -3.1995 -0.3768 -0.1203
  270SOL     MW 1080   1.099   0.380   1.523 -0.7993  0.9034 -0.1309
  271SOL     OW 1081   0.883   0.085   2.498 -0.8081  0.0330  0.3633
  271SOL    HW1 1082   0.928   0.017   2.544  0.7984  1.2541 -0.2223
  271SOL    HW2 1083   0.938   0.161   2.474  0.7539 -3.1240 -0.7048
  271SOL     MW 1084   0.896   0.086   2.501 -0.3900 -0.2224  0.1451
  272SOL     OW 1085   1.465   2.765   2.788  0.1016  0.0468 -0.1606
  272SOL    HW1 1086   1.408   2.770   2.716  1.7485 -0.4798  1.8646
  272SOL    HW2 1087   1.501   2.857   2.802 -0.1119 -0.2273  0.9235
  272SOL     MW 1088   1.463   2.778   2.781  0.2907 -0.0589  0.2496
  273SOL     OW 1089   1.478   0.819   2.816  0.1095 -0.0126  0.3881
  273SOL    HW1 1090   1.534   0.743   2.841  2.5759 -1.1762  0.1224
  273SOL    HW2 1091   1.527   0.895   2.845 -1.7059 -0.6191 -1.2136
  273SOL     MW 1092   1.492   0.819   2.823  0.1954 -0.2461  0.1417
  274SOL     OW 1093   1.419   0.632   0.122 -0.9062  0.3202  0.0607
  274SOL    HW1 1094   1.496   0.600   0.169 -0.1812 -0.9451 -0.6988
  274SOL    HW2 1095   1.355   0.667   0.190 -1.8174  0.4043 -0.4477
  274SOL     MW 1096   1.421   0.632   0.137 -0.9308  0.1643 -0.1066
  275SOL     OW 1097   1.839   0.556   1.734  0.1679  0.0863 -0.1236
  275SOL    HW1 1098   1.910   0.574   1.802  1.5437 -1.3404 -0.4763
  275SOL    HW2 1099   1.829   0.458   1.736 -0.7696  0.6316 -1.5165
  275SOL     MW 1100   1.847   0.546   1.743  0.2257 -0.0300 -0.3539
  276SOL     OW 1101   0.376   1.187   1.933 -0.5030 -0.4999 -0.0290
  276SOL    HW1 1102   0.410   1.105   1.973  2.5109 -1.6552 -0.9324
  276SOL    HW2 1103   0.338   1.231   2.010 -0.9001 -0.1671  2.5243
  276SOL     MW 1104   0.376   1.182   1.948 -0.1577 -0.6084  0.1887
  277SOL     OW 1105   2.009   1.126   2.488 -0.1798 -0.3126  0.3049
  277SOL    HW1 1106   2.046   1.213   2.514  1.9605  1.6921 -0.7876
  277SOL    HW2 1107   1.916   1.139   2.483  1.2323  0.3388  3.2918
  277SOL     MW 1108   2.001   1.139   2.491  0.2889  0.0379  0.5549
  278SOL     OW 1109   1.443   0.608   1.647  0.4970 -0.2100 -0.6331
  278SOL    HW1 1110   1.449   0.564   1.741 -0.1204  0.5577 -0.0767
  278SOL    HW2 1111   1.528   0.652   1.631  1.2756  2.5273  0.6533
  278SOL     MW 1112   1.455   0.608   1.657  0.5183  0.2525 -0.3899
  279SOL     OW 1113   0.519   0.122   2.249 -0.0402  0.2933  0.0999
  279SOL    HW1 1114   0.614   0.085   2.246  0.5767 -0.2971 -1.8603
  279SOL    HW2 1115   0.527   0.208   2.207  1.7085  0.0332 -2.2619
  279SOL     MW 1116   0.532   0.129   2.243  0.2719  0.1811 -0.4703
  280SOL     OW 1117   1.421   1.018   2.220 -0.4070 -0.5164 -0.1051
  280SOL    HW1 1118   1.496   0.973   2.177  1.4369  0.1236 -0.7943
  280SOL    HW2 1119   1.380   0.966   2.287  0.7505 -1.8522 -0.0688
  280SOL     MW 1120   1.426   1.005   2.223 -0.0110 -0.6082 -0.1912
  281SOL     OW 1121   1.321   1.099   2.758  0.6196 -0.2853 -0.0341
  281SOL    HW1 1122   1.402   1.152   2.760 -0.0611 -0.5073  1.2927
  281SOL    HW2 1123   1.283   1.103   2.848  0.9153 -2.5662  1.3449
  281SOL     MW 1124   1.327   1.106   2.770  0.5688 -0.6156  0.3229
  282SOL     OW 1125   1.164   1.290   1.636 -0.3415 -0.3044  0.1922
  282SOL    HW1 1126   1.160   1.367   1.587 -1.0013  1.7518 -2.0182
  282SOL    HW2 1127   1.078   1.293   1.678  1.1211 -0.7870 -1.4142
  282SOL     MW 1128   1.152   1.301   1.635 -0.2356 -0.0968 -0.3114
  283SOL     OW 1129   0.804   1.387   3.075  0.3094 -0.3562 -0.5159
  283SOL    HW1 1130   0.898   1.379   3.094  1.1464 -0.4134 -1.2638
  283SOL    HW2 1131   0.788   1.481   3.094 -2.4028  1.1215 -1.6885
  283SOL     MW 1132   0.814   1.398   3.080  0.0620 -0.1688 -0.7693
  284SOL     OW 1133   0.366   0.689   2.340  0.0629  0.4155  0.1717
  284SOL    HW1 1134   0.441   0.740   2.310  1.0798 -0.5698 -0.2586
  284SOL    HW2 1135   0.386   0.613   2.285 -0.9880  1.2802 -1.2885
  284SOL     MW 1136   0.379   0.686   2.329  0.0584  0.3996 -0.0777
  285SOL     OW 1137   0.873   0.833   2.849 -0.3470  0.0432 -0.1852
  285SOL    HW1 1138   0.901   0.879   2.770 -0.7438  1.5085  0.6757
  285SOL    HW2 1139   0.795   0.785   2.834  1.3252  2.2120 -0.6177
  285SOL     MW 1140   0.866   0.832   2.837 -0.1787  0.5227 -0.1287
  286SOL     OW 1141   1.083   1.486   2.696 -0.2850  0.2209  0.0527
  286SOL    HW1 1142   1.168   1.443   2.696  1.5766 -1.9337  1.5806
  286SOL    HW2 1143   1.085   1.537   2.609  1.8644  2.8814  1.3523
  286SOL     MW 1144   1.094   1.487   2.684  0.2442  0.2876  0.4258
  287SOL     OW 1145   1.140   0.951   0.339 -0.2730 -0.4065 -0.3331
  287SOL    HW1 1146   1.115   0.994   0.427 -0.7920 -2.2152  3.2232
  287SOL    HW2 1147   1.088   0.994   0.267  0.4693  0.7827  1.3313
  287SOL     MW 1148   1.130   0.962   0.341 -0.2435 -0.4882  0.3557
  288SOL     OW 1149   1.493   0.667   2.125  0.0526  0.3041 -0.1356
  288SOL    HW1 1150   1.453   0.672   2.211 -1.3722 -0.4255  3.2108
  288SOL    HW2 1151   1.538   0.752   2.097 -0.0143  1.7238 -2.2140
  288SOL     MW 1152   1.494   0.679   2.133 -0.1442  0.3951  0.0317
  289SOL     OW 1153   0.934   0.958   2.606 -0.2390  0.1157 -0.2366
  289SOL    HW1 1154   0.968   0.892   2.550 -1.6495  0.5605 -0.0606
  289SOL    HW2 1155   0.839   0.982   2.575  3.2274 -1.0825  0.4748
  289SOL     MW 1156   0.926   0.952   2.595  0.0323  0.0163 -0.1195
  290SOL     OW 1157   0.746   0.648   1.508 -0.2105  0.3792  0.0238
  290SOL    HW1 1158   0.810   0.603   1.456 -0.7551  2.1132 -2.0324
  290SOL    HW2 1159   0.763   0.633   1.600  0.0112  0.5381 -1.1195
  290SOL     MW 1160   0.756   0.640   1.514 -0.2531  0.6290 -0.3983
  291SOL     OW 1161   0.238   0.324   0.189 -0.0142  0.5877  0.3702
  291SOL    HW1 1162   0.334   0.312   0.198 -0.3786  1.2317  0.6218
  291SOL    HW2 1163   0.217   0.232   0.163 -1.0112 -0.4566 -0.2565
  291SOL     MW 1164   0.248   0.310   0.187 -0.1938  0.5349  0.3207
  292SOL     OW 1165   1.020   0.572   0.098  0.1853 -0.9118 -0.0058
  292SOL    HW1 1166   1.090   0.631   0.131 -0.2580 -1.4989  0.0464
  292SOL    HW2 1167   1.050   0.482   0.113  3.1073 -0.3309 -1.3995
  292SOL     MW 1168   1.033   0.568   0.105  0.5123 -0.9126 -0.1828
  293SOL     OW 1169   0.129   0.084   2.553  0.5704  0.1300 -0.6892
  293SOL    HW1 1170   0.104   0.063   2.466  0.5905  0.9338  0.7241
  293SOL    HW2 1171   0.038   0.099   2.586  0.6831 -0.1944  0.1721
  293SOL     MW 1172   0.113   0.084   2.546  0.5879  0.1933 -0.3891
  294SOL     OW 1173   1.336   0.451   2.357 -0.0224 -0.2899  0.0449
  294SOL    HW1 1174   1.360   0.534   2.407 -0.0894  2.4607 -0.8673
  294SOL    HW2 1175   1.357   0.380   2.420 -0.7953  1.1324  1.3065
  294SOL     MW 1176   1.342   0.453   2.372 -0.1332  0.2607  0.0910
  295SOL     OW 1177   0.850   0.603   2.455 -0.3422  0.1564 -0.8418
  295SOL    HW1 1178   0.827   0.544   2.377 -1.1178 -0.6622  1.4705
  295SOL    HW2 1179   0.773   0.632   2.499  0.9593  0.2837 -1.3067
  295SOL     MW 1180   0.837   0.599   2.450 -0.2728  0.0652 -0.5981
  296SOL     OW 1181   1.348   0.307   2.071  0.3632  0.4267 -0.3509
  296SOL    HW1 1182   1.377   0.216   2.058  0.0555  1.3932  0.9402
  296SOL    HW2 1183   1.389   0.336   2.155  3.3964  0.8197 -0.3470
  296SOL     MW 1184   1.357   0.299   2.080  0.7228  0.6060 -0.1800
  297SOL     OW 1185   1.362   0.340   1.549  0.3073  0.1787 -0.7266
  297SOL    HW1 1186   1.379   0.428   1.587 -0.8164  2.9719 -0.4643
  297SOL    HW2 1187   1.421   0.284   1.599  0.1071  1.2165  0.9688
  297SOL     MW 1188   1.372   0.344   1.561  0.1326  0.6842 -0.4683
  298SOL     OW 1189   1.642   0.891   2.073  0.7026  0.8338  0.6006
  298SOL    HW1 1190   1.665   0.917   1.981 -0.0819 -0.6540  3.9067
  298SOL    HW2 1191   1.723   0.855   2.110 -1.1556  1.7810  0.0328
  298SOL     MW 1192   1.656   0.890   2.066  0.3539  0.7625  0.9619
  299SOL     OW 1193   0.636   1.182   0.051  0.2776 -0.1438  0.3958
  299SOL    HW1 1194   0.590   1.178  -0.041  0.0599  1.1013 -2.5656
  299SOL    HW2 1195   0.717   1.235   0.030  0.1127  1.1023 -2.4772
  299SOL     MW 1196   0.641   1.188   0.036  0.2271  0.1849 -0.3740
  300SOL     OW 1197   1.121   1.155   2.550  0.9213  0.6857  0.2410
  300SOL    HW1 1198   1.037   1.103   2.565 -0.9564  2.4026 -1.8518
  300SOL    HW2 1199   1.181   1.132   2.623 -0.1313 -0.1849 -0.3208
  300SOL     MW 1200   1.118   1.145   2.561  0.5347  0.7974 -0.1092
  301SOL     OW 1201   1.511   1.006   0.762  0.3118 -0.7647 -0.2822
  301SOL    HW1 1202   1.505   1.050   0.848 -1.6334  0.8294 -0.0933
  301SOL    HW2 1203   1.434   0.945   0.754 -0.8424 -1.6174 -1.1789
  301SOL     MW 1204   1.500   1.004   0.772 -0.0971 -0.6669 -0.3756
  302SOL     OW 1205   0.222   1.599   2.042 -0.2791  0.3196 -0.1931
  302SOL    HW1 1206   0.208   1.509   2.070 -2.1438  3.6480 -0.0056
  302SOL    HW2 1207   0.136   1.635   2.053 -0.9087 -0.7094  0.1537
  302SOL     MW 1208   0.209   1.592   2.047 -0.6082  0.6230 -0.1226
  303SOL     OW 1209   0.264   1.774   2.716  0.0405  0.2492 -0.0665
  303SOL    HW1 1210   0.242   1.792   2.627 -2.3104  2.0505  0.2212
  303SOL    HW2 1211   0.184   1.788   2.772 -1.7267  3.1383 -0.6591
  303SOL     MW 1212   0.251   1.778   2.712 -0.5028  0.8680 -0.1067
  304SOL     OW 1213   0.525   2.062   2.462 -0.4206 -0.0848 -0.3355
  304SOL    HW1 1214   0.594   2.128   2.439  1.4739  3.0284  3.4046
  304SOL    HW2 1215   0.581   1.984   2.450  2.9238  1.8122  4.3554
  304SOL     MW 1216   0.541   2.061   2.458  0.2707  0.5762  0.7769
  305SOL     OW 1217   1.161   0.639   0.552 -0.0915 -0.2210  0.2360
  305SOL    HW1 1218   1.073   0.640   0.516  2.6495  1.2377 -0.0849
  305SOL    HW2 1219   1.188   0.551   0.549 -0.4580 -1.9031  1.2194
  305SOL     MW 1220   1.153   0.627   0.547  0.2218 -0.2505  0.3234
  306SOL     OW 1221   1.109   1.554   0.303  0.4385  0.2209 -0.3076
  306SOL    HW1 1222   1.136   1.475   0.348  0.6711  2.3885  2.5495
  306SOL    HW2 1223   1.166   1.562   0.227  1.3005  0.3429 -1.0918
  306SOL     MW 1224   1.120   1.545   0.299  0.5829  0.5230 -0.0341
  307SOL     OW 1225   1.456   0.507   1.914  0.2463 -0.0372 -0.3060
  307SOL    HW1 1226   1.439   0.428   1.965 -1.6813 -0.1785 -1.1199
  307SOL    HW2 1227   1.471   0.577   1.981 -0.8774  0.6265 -0.1246
  307SOL     MW 1228   1.456   0.506   1.929 -0.1563  0.0317 -0.3895
  308SOL     OW 1229   2.257   0.561   2.754 -0.2504  0.8008  0.0932
  308SOL    HW1 1230   2.349   0.589   2.734  0.7698  0.7325  1.1789
  308SOL    HW2 1231   2.205   0.640   2.765 -1.5349 -0.4479  2.2771
  308SOL     MW 1232   2.262   0.575   2.753 -0.2853  0.6270  0.5246
  309SOL     OW 1233   0.503   0.545   0.260 -0.0558 -0.1410  0.3653
  309SOL    HW1 1234   0.576   0.608   0.248 -2.6620  2.8351  1.4020
  309SOL    HW2 1235   0.527   0.452   0.254 -0.7771 -1.0891 -0.5419
  309SOL     MW 1236   0.516   0.541   0.257 -0.4948  0.1266  0.3824
  310SOL     OW 1237   0.390   0.537   1.854 -0.5452 -0.0870 -0.2736
  310SOL    HW1 1238   0.456   0.481   1.812  0.1100  1.8707 -2.2994
  310SOL    HW2 1239   0.420   0.627   1.822 -0.8721  2.7236 -1.2058
  310SOL     MW 1240   0.403   0.542   1.844 -0.5019  0.5422 -0.6639
  311SOL     OW 1241   1.985   0.645   1.939  0.4240  0.2691 -0.2815
  311SOL    HW1 1242   1.933   0.667   2.013  2.1241  0.5895 -0.2542
  311SOL    HW2 1243   2.052   0.577   1.972  0.6952  1.0525 -1.1723
  311SOL     MW 1244   1.987   0.639   1.953  0.6841  0.4148 -0.3954
  312SOL     OW 1245   1.713   2.470   0.153  0.1659  0.4860 -0.0374
  312SOL    HW1 1246   1.732   2.439   0.242  2.7434 -1.3850  0.8306
  312SOL    HW2 1247   1.656   2.543   0.167  0.0629 -0.0339 -1.3249
  312SOL     MW 1248   1.708   2.476   0.166  0.4924  0.1705 -0.0928
  313SOL     OW 1249   0.160   1.159   3.024  0.1894  0.3439 -0.4986
  313SOL    HW1 1250   0.101   1.198   3.091  1.9358  1.9502 -0.4848
  313SOL    HW2 1251   0.148   1.230   2.955  1.5266  1.2127 -1.1888
  313SOL     MW 1252   0.150   1.173   3.024  0.5962  0.6704 -0.5879
  314SOL     OW 1253   2.178   2.898   0.016  0.0862 -0.2333 -0.4186
  314SOL    HW1 1254   2.101   2.899  -0.053 -0.2374 -0.7010 -0.5017
  314SOL    HW2 1255   2.218   2.976   0.011 -3.2871 -2.0593 -0.0754
  314SOL     MW 1256   2.173   2.908   0.006 -0.4016 -0.5359 -0.3843
  315SOL     OW 1257   1.543   1.845   3.011 -0.0141 -0.0021 -0.0992
  315SOL    HW1 1258   1.499   1.905   3.072  1.7651  1.8049  0.9862
  315SOL    HW2 1259   1.573   1.911   2.941 -0.8377  1.3740  1.0021
  315SOL     MW 1260   1.541   1.862   3.010  0.1120  0.4178  0.1893
  316SOL     OW 1261   1.209   0.678   2.686  0.1114  0.7523  0.4073
  316SOL    HW1 1262   1.294   0.728   2.699  1.9686  0.6311 -2.5497
  316SOL    HW2 1263   1.179   0.658   2.778 -0.5450  1.9576 -2.2502
  316SOL     MW 1264   1.216   0.682   2.700  0.2698  0.8954 -0.3335
  317SOL     OW 1265   0.713   1.585   2.626  0.2871  0.4420 -0.6615
  317SOL    HW1 1266   0.759   1.500   2.611  2.4974 -2.8085  0.4887
  317SOL    HW2 1267   0.664   1.596   2.547  2.0698  0.9729  2.9331
  317SOL     MW 1268   0.713   1.576   2.614  0.8140  0.0832 -0.0355
  318SOL     OW 1269   1.367   0.389   2.885 -0.2337  0.3312 -0.1479
  318SOL    HW1 1270   1.314   0.461   2.862 -0.9432 -0.2993  2.5534
  318SOL    HW2 1271   1.451   0.421   2.853  0.2830  0.0433 -1.2962
  318SOL     MW 1272   1.371   0.403   2.878 -0.2591  0.2100  0.0570
  319SOL     OW 1273   0.789   0.508   2.836  0.4723  0.5393  0.6441
  319SOL    HW1 1274   0.780   0.439   2.765 -1.8523 -0.9890 -0.4417
  319SOL    HW2 1275   0.746   0.477   2.911  0.7026 -0.2158 -2.5476
  319SOL     MW 1276   0.782   0.495   2.837  0.1960  0.2381  0.0797
  320SOL     OW 1277   1.023   1.333   1.987 -0.4768  0.1949 -0.3583
  320SOL    HW1 1278   1.102   1.282   2.005  1.6723 -0.8687 -0.0669
  320SOL    HW2 1279   1.060   1.416   1.951  1.6170 -0.5748 -0.5185
  320SOL     MW 1280   1.039   1.337   1.985  0.0830 -0.0470 -0.3410
  321SOL     OW 1281   1.041   0.895   3.046 -0.4537  0.1472  0.0755
  321SOL    HW1 1282   0.969   0.882   2.979  0.2946  2.5185 -3.3704
  321SOL    HW2 1283   1.096   0.814   3.041  1.3884  2.5003 -0.5813
  321SOL     MW 1284   1.039   0.882   3.036 -0.1119  0.7705 -0.4658
  322SOL     OW 1285   1.274   0.864   1.655  0.7375 -0.0267 -0.0962
  322SOL    HW1 1286   1.343   0.805   1.680  2.2923  0.5338 -1.0916
  322SOL    HW2 1287   1.231   0.894   1.737 -0.1990 -1.4561 -1.0711
  322SOL     MW 1288   1.277   0.860   1.669  0.8191 -0.1414 -0.3561
  323SOL     OW 1289   1.198   1.521   1.898 -0.3738  0.0945 -0.1104
  323SOL    HW1 1290   1.235   1.546   1.814  0.3107 -1.2290 -0.2496
  323SOL    HW2 1291   1.220   1.593   1.955  2.0012 -0.5044 -2.1585
  323SOL     MW 1292   1.206   1.534   1.894  0.0299 -0.1592 -0.3990
  324SOL     OW 1293   1.438   0.947   2.521  0.1857 -0.6081 -0.1551
  324SOL    HW1 1294   1.427   0.967   2.606  2.4273  0.2573 -0.5650
  324SOL    HW2 1295   1.511   0.994   2.484 -1.3523 -2.6788  0.6483
  324SOL     MW 1296   1.446   0.956   2.527  0.2785 -0.7672 -0.1032
  325SOL     OW 1297   1.070   0.533   2.915  0.5568 -0.1342 -0.2542
  325SOL    HW1 1298   1.061   0.551   3.009  0.8803  0.9623  1.7962
  325SOL    HW2 1299   0.977   0.518   2.884 -0.3096  0.0871  0.8448
  325SOL     MW 1300   1.057   0.534   2.923  0.4852  0.0397  0.1613
  326SOL     OW 1301   0.401   1.390   2.326  0.5085  0.0279  0.0558
  326SOL    HW1 1302   0.488   1.366   2.290  1.1338 -0.6449 -0.6819
  326SOL    HW2 1303   0.393   1.490   2.311 -1.5061  3.0391  0.2036
  326SOL     MW 1304   0.411   1.400   2.319  0.3252  0.3364 -0.0220
  327SOL     OW 1305   1.981   0.771   2.440 -0.0941 -0.3052  0.4019
  327SOL    HW1 1306   1.957   0.768   2.530 -2.4440  0.5992 -0.4747
  327SOL    HW2 1307   2.021   0.854   2.424 -0.7775  0.8579 -0.6535
  327SOL     MW 1308   1.983   0.781   2.450 -0.4943 -0.0324  0.1470
  328SOL     OW 1309   0.217   1.331   2.117  0.2755  0.1033  0.2479
  328SOL    HW1 1310   0.136   1.276   2.131  0.9936 -0.8656 -1.2743
  328SOL    HW2 1311   0.268   1.361   2.190  2.7135  1.4831  0.3541
  328SOL     MW 1312   0.213   1.328   2.128  0.6919  0.1575  0.0611
  329SOL     OW 1313   0.061   0.099   1.360  0.1122  0.0462 -0.2357
  329SOL    HW1 1314   0.051   0.061   1.454  1.5775  0.3696  2.7989
  329SOL    HW2 1315   0.149   0.136   1.358 -1.6388 -0.1000  1.3142
  329SOL     MW 1316   0.071   0.099   1.373  0.0745  0.0696  0.3692
  330SOL     OW 1317   0.377   0.052   2.001 -0.2210 -0.1459 -0.3523
  330SOL    HW1 1318   0.433   0.055   2.080 -3.1431 -1.3076  1.8511
  330SOL    HW2 1319   0.311  -0.014   2.025  1.4358 -0.4686 -1.0351
  330SOL     MW 1320   0.376   0.044   2.014 -0.3880 -0.3417 -0.1517
  331SOL     OW 1321   0.775   1.240   2.367  0.5304 -0.7377  0.4186
  331SOL    HW1 1322   0.724   1.293   2.304 -2.7089 -0.0715 -2.8338
  331SOL    HW2 1323   0.807   1.289   2.444 -1.2778  2.9318 -2.8157
  331SOL     MW 1324   0.773   1.253   2.369 -0.1356 -0.1656 -0.4373
  332SOL     OW 1325   1.348   1.649   2.922 -0.4412 -0.1655 -0.3175
  332SOL    HW1 1326   1.368   1.663   2.823  1.0316  1.9425 -0.4875
  332SOL    HW2 1327   1.374   1.728   2.967  1.9517 -2.4907  0.8855
  332SOL     MW 1328   1.354   1.661   2.914  0.0689 -0.1942 -0.1812
  333SOL     OW 1329   1.696   1.371   2.930  0.1595  0.3010  0.1229
  333SOL    HW1 1330   1.790   1.367   2.943 -0.1447  3.1802  0.3764
  333SOL    HW2 1331   1.653   1.302   2.990  3.5996 -0.4473  1.5639
  333SOL     MW 1332   1.703   1.361   2.940  0.5732  0.5822  0.3465
  334SOL     OW 1333   1.346   3.091   2.604 -0.0399 -0.4415  0.1096
  334SOL    HW1 1334   1.266   3.085   2.662 -0.4701  1.0663 -2.2715
  334SOL    HW2 1335   1.408   3.141   2.655 -0.2804 -1.4485 -0.8257
  334SOL     MW 1336   1.344   3.097   2.619 -0.1284 -0.3754 -0.3279
  335SOL     OW 1337   1.277   0.731   3.001  0.3361  0.5696  0.0639
  335SOL    HW1 1338   1.340   0.699   3.076  0.0216 -3.1803 -3.6821
  335SOL    HW2 1339   1.322   0.783   2.941 -1.3011 -3.2095 -0.0373
  335SOL     MW 1340   1.292   0.733   3.003  0.0786 -0.4238 -0.4437
  336SOL     OW 1341   0.915   1.163   1.720 -0.1711 -0.2422  0.0909
  336SOL    HW1 1342   0.827   1.181   1.766 -2.2325  2.7135  1.5249
  336SOL    HW2 1343   0.965   1.115   1.782  2.2691 -0.3123  0.4120
  336SOL     MW 1344   0.910   1.159   1.735 -0.1211  0.1386  0.3225
  337SOL     OW 1345   0.492   1.962   2.786 -0.2317 -0.1891  0.1302
  337SOL    HW1 1346   0.423   1.910   2.744 -0.6659  0.3013 -1.8998
  337SOL    HW2 1347   0.575   1.910   2.787 -1.8029  0.1274  0.8295
  337SOL     MW 1348   0.494   1.948   2.780 -0.4963 -0.0826 -0.0453
  338SOL     OW 1349   1.058   0.766   2.454  0.4785 -0.6254 -0.1701
  338SOL    HW1 1350   0.976   0.706   2.456  1.0673 -0.0341 -0.2039
  338SOL    HW2 1351   1.105   0.741   2.532  0.7452  0.7244  1.4022
  338SOL     MW 1352   1.053   0.755   2.465  0.5914 -0.3693  0.0329
  339SOL     OW 1353   1.403   1.273   1.920 -0.3090  0.6545  0.1629
  339SOL    HW1 1354   1.358   1.236   1.842 -0.8970 -0.2902  1.1089
  339SOL    HW2 1355   1.390   1.213   1.994 -0.3961 -1.2545 -0.5653
  339SOL     MW 1356   1.395   1.260   1.920 -0.3981  0.2780  0.1917
  340SOL     OW 1357   1.296   1.493   0.073  0.3216  0.7026  0.2214
  340SOL    HW1 1358   1.308   1.532  -0.013 -0.3257  0.1386  2.9047
  340SOL    HW2 1359   1.374   1.440   0.088  2.9614 -0.6807 -2.5704
  340SOL     MW 1360   1.308   1.491   0.064  0.5845  0.4457  0.2071
  341SOL     OW 1361   0.146   1.364   2.824  0.3682 -0.2221  0.8529
  341SOL    HW1 1362   0.236   1.388   2.836 -1.9918 -0.5607  1.7264
  341SOL    HW2 1363   0.147   1.344   2.729  1.9565  1.2780  1.3452
  341SOL     MW 1364   0.158   1.365   2.813  0.2664 -0.0689  1.0331
  342SOL     OW 1365   1.404   0.327   0.060  0.1400 -0.0883 -0.5951
  342SOL    HW1 1366   1.457   0.385   0.108 -3.7409  0.1973  3.1139
  342SOL    HW2 1367   1.382   0.366  -0.025 -0.7762 -1.5009 -3.1435
  342SOL     MW 1368   1.408   0.339   0.055 -0.4929 -0.2370 -0.4420
  343SOL     OW 1369   0.221   0.232   2.158 -0.4293  0.2646  0.4195
  343SOL    HW1 1370   0.276   0.180   2.100 -0.0089 -0.2879 -1.7345
  343SOL    HW2 1371   0.132   0.213   2.137 -0.6131  2.3847  2.2664
  343SOL     MW 1372   0.217   0.223   2.148 -0.3981  0.4714  0.3789
  344SOL     OW 1373   1.715   1.998   0.169  0.0754  0.4271  0.2041
  344SOL    HW1 1374   1.717   2.052   0.093 -0.6225  1.2496  4.4799
  344SOL    HW2 1375   1.656   1.914   0.153  1.1799  1.8757  0.7167
  344SOL     MW 1376   1.707   1.994   0.157  0.1290  0.7267  0.8359
  345SOL     OW 1377   0.667   1.624   2.345 -0.5872 -0.4188 -0.6760
  345SOL    HW1 1378   0.588   1.635   2.296  0.0820  0.6880 -2.0455
  345SOL    HW2 1379   0.738   1.623   2.280 -0.7764 -0.2297  1.5356
  345SOL     MW 1380   0.666   1.625   2.330 -0.5239 -0.2478 -0.5649
  346SOL     OW 1381   1.669   1.144   0.040  0.0950  0.3614  0.2838
  346SOL    HW1 1382   1.758   1.140   0.080  3.5062  3.1288 -2.8256
  346SOL    HW2 1383   1.609   1.074   0.071 -1.4516  1.8501 -1.6574
  346SOL     MW 1384   1.673   1.134   0.050  0.3410  0.9229 -0.3826
  347SOL     OW 1385   1.174   0.614   2.213  0.0076  0.3982  0.1018
  347SOL    HW1 1386   1.228   0.535   2.236  1.4688 -1.5718  0.1113
  347SOL    HW2 1387   1.139   0.660   2.289  0.8846  0.2001 -0.4065
  347SOL     MW 1388   1.176   0.609   2.226  0.3161  0.1122  0.0360
  348SOL     OW 1389   1.326   2.552   1.925 -0.6694  0.4712  0.5285
  348SOL    HW1 1390   1.336   2.492   2.008 -1.1195  0.5607 -0.7632
  348SOL    HW2 1391   1.342   2.637   1.953  2.1319 -1.3414  0.5253
  348SOL     MW 1392   1.330   2.556   1.939 -0.3592  0.2438  0.3576
  349SOL     OW 1393   1.478   0.161   2.787  0.1252  0.2973 -0.0921
  349SOL    HW1 1394   1.423   0.238   2.806 -0.6109  1.9800 -2.0101
  349SOL    HW2 1395   1.518   0.118   2.861 -0.6710  0.2147 -1.7151
  349SOL     MW 1396   1.476   0.165   2.799 -0.0770  0.5084 -0.5593
  350SOL     OW 1397   1.840   0.632   2.651  0.7436 -0.6031  0.5150
  350SOL    HW1 1398   1.797   0.567   2.597  2.7891  1.1772  0.0276
  350SOL    HW2 1399   1.923   0.600   2.691 -1.1952  0.1958 -0.3609
  350SOL     MW 1400   1.845   0.619   2.649  0.7577 -0.2628  0.3351
  351SOL     OW 1401   0.078   1.179   1.563 -0.3792  0.5634 -0.5617
  351SOL    HW1 1402   0.084   1.094   1.605  2.3465  0.3990 -1.1209
  351SOL    HW2 1403   0.142   1.228   1.617  1.3854 -2.6350  1.3667
  351SOL     MW 1404   0.088   1.174   1.576  0.2133  0.1197 -0.3810
  352SOL     OW 1405   0.737   1.849   2.781 -0.0960  0.2036 -0.0027
  352SOL    HW1 1406   0.750   1.832   2.872  1.2955  1.1448 -0.8371
  352SOL    HW2 1407   0.724   1.762   2.739 -4.2805 -1.8720 -0.2597
  352SOL     MW 1408   0.737   1.835   2.787 -0.4645  0.0539 -0.1467
  353SOL     OW 1409   3.091   2.598   2.627 -0.3076 -0.1212 -0.2819
  353SOL    HW1 1410   3.175   2.556   2.610  0.0085  2.2249  1.0584
  353SOL    HW2 1411   3.077   2.655   2.552  0.3367  1.4783  1.3470
  353SOL     MW 1412   3.100   2.600   2.615 -0.1809  0.3994  0.1098
  354SOL     OW 1413   0.369   2.415   0.835 -0.3267 -0.1783  0.1999
  354SOL    HW1 1414   0.415   2.397   0.917  1.3864 -0.6944  0.3243
  354SOL    HW2 1415   0.304   2.343   0.833  1.9660  3.4158  2.2820
  354SOL     MW 1416   0.366   2.403   0.845  0.2018  0.2278  0.4910
  355SOL     OW 1417   0.083   2.228   0.406  0.5313 -0.0096  0.0021
  355SOL    HW1 1418   0.002   2.172   0.408  0.9878  2.0222  0.8188
  355SOL    HW2 1419   0.058   2.270   0.489  0.7397  0.1458 -2.1099
  355SOL     MW 1420   0.069   2.226   0.417  0.6190  0.2789 -0.1688
  356SOL     OW 1421   0.754   2.949   1.054  0.5530 -0.6050  0.1017
  356SOL    HW1 1422   0.813   2.956   0.977  0.0104 -0.3620  0.9179
  356SOL    HW2 1423   0.694   2.885   1.012 -3.0070  0.6440 -1.2737
  356SOL     MW 1424   0.754   2.941   1.038  0.0117 -0.4082  0.0279
  357SOL     OW 1425   1.852   2.791   0.443 -0.0415 -0.3588  0.0440
  357SOL    HW1 1426   1.859   2.792   0.536  2.3033 -0.9063 -0.4821
  357SOL    HW2 1427   1.931   2.736   0.416 -0.3194  1.5439  0.8447
  357SOL     MW 1428   1.863   2.784   0.451  0.2312 -0.1800  0.0802
  358SOL     OW 1429   0.428   0.146   1.055 -0.7727  0.1236 -0.0855
  358SOL    HW1 1430   0.522   0.135   1.032  0.4968  0.7500 -1.5819
  358SOL    HW2 1431   0.378   0.177   0.975 -1.9130 -0.8841 -0.4697
  358SOL     MW 1432   0.434   0.148   1.042 -0.7557  0.0733 -0.3336
  359SOL     OW 1433   0.882   2.983   1.852 -0.6884  0.0710  0.0048
  359SOL    HW1 1434   0.876   2.885   1.851  0.3346 -3.9094 -0.4981
  359SOL    HW2 1435   0.896   3.021   1.771  2.1159  0.6983  2.2371
  359SOL     MW 1436   0.883   2.975   1.841 -0.1834 -0.3714  0.2330
  360SOL     OW 1437   0.591   2.794   0.913 -0.0960 -0.2443  0.0025
  360SOL    HW1 1438   0.604   2.762   0.822  1.7655 -3.2881  2.3380
  360SOL    HW2 1439   0.579   2.713   0.971  0.9718  1.3041  2.5043
  360SOL     MW 1440   0.591   2.779   0.909  0.2905 -0.4416  0.6407
  361SOL     OW 1441   0.209   2.689   1.376 -0.4134 -0.6421  0.7045
  361SOL    HW1 1442   0.144   2.733   1.425 -0.5693  1.8284  0.9326
  361SOL    HW2 1443   0.287   2.750   1.377 -2.1239  0.0608  1.5760
  361SOL     MW 1444   0.210   2.703   1.382 -0.6596 -0.2234  0.8496
  362SOL     OW 1445   1.374   2.413   0.615 -0.1280 -0.2370  0.2208
  362SOL    HW1 1446   1.427   2.367   0.683  0.8961  1.0185  2.8389
  362SOL    HW2 1447   1.417   2.496   0.602  0.9665  0.2163 -2.0324
  362SOL     MW 1448   1.387   2.418   0.622  0.1515 -0.0115  0.2690
  363SOL     OW 1449   0.300   0.016   0.698  0.1545  0.3061  0.0947
  363SOL    HW1 1450   0.312  -0.060   0.760  1.7309 -0.3706  1.6296
  363SOL    HW2 1451   0.216   0.007   0.653 -1.0776  1.5847  1.0045
  363SOL     MW 1452   0.291   0.005   0.700  0.1999  0.3855  0.4173
  364SOL     OW 1453   0.804   0.190   0.130  0.0742 -0.2205  0.3236
  364SOL    HW1 1454   0.761   0.142   0.203  1.9444  1.6584  0.1671
  364SOL    HW2 1455   0.756   0.267   0.103 -1.1440  0.2077 -3.0257
  364SOL     MW 1456   0.792   0.194   0.136  0.1603  0.0839 -0.1390
  365SOL     OW 1457   0.882   2.020   1.260  0.1330  0.2104  0.8635
  365SOL    HW1 1458   0.876   2.115   1.245 -3.1842  1.7669  1.0232
  365SOL    HW2 1459   0.837   1.985   1.189  2.7788 -0.7661  3.2564
  365SOL     MW 1460   0.875   2.028   1.249  0.0445  0.2869  1.2003
  366SOL     OW 1461   2.922   2.660   0.934 -0.1957  0.1439  0.0241
  366SOL    HW1 1462   2.999   2.618   0.964 -5.1276 -0.3439  2.3734
  366SOL    HW2 1463   2.947   2.703   0.847 -1.3316  0.3576  0.2448
  366SOL     MW 1464   2.936   2.660   0.927 -0.9963  0.1078  0.3632
  367SOL     OW 1465   1.244   3.001   1.005  0.3813 -0.1284  0.2517
  367SOL    HW1 1466   1.333   3.035   1.014  3.5284  1.1205 -1.0775
  367SOL    HW2 1467   1.239   2.983   0.907  1.8829  3.4461 -0.3022
  367SOL     MW 1468   1.255   3.003   0.993  0.9947  0.5080  0.0033
  368SOL     OW 1469   1.704   0.449   0.619 -0.4083  0.0261 -0.4004
  368SOL    HW1 1470   1.777   0.406   0.578 -0.9711 -0.6947 -0.6939
  368SOL    HW2 1471   1.716   0.546   0.607 -0.4171 -0.2780 -0.3800
  368SOL     MW 1472   1.715   0.456   0.612 -0.4837 -0.1091 -0.4365
  369SOL     OW 1473   0.136   2.370   1.739 -0.2043 -0.1352  0.0327
  369SOL    HW1 1474   0.225   2.389   1.755  0.3893 -1.4910  0.3205
  369SOL    HW2 1475   0.094   2.456   1.747 -0.1259  0.5020  0.5266
  369SOL     MW 1476   0.142   2.384   1.742 -0.1156 -0.2300  0.1358
  370SOL     OW 1477   0.688   0.118   1.044  0.5980  0.3841  0.0930
  370SOL    HW1 1478   0.740   0.175   0.987  0.5749 -1.9448 -0.3520
  370SOL    HW2 1479   0.729   0.027   1.068  0.2401 -1.9250  0.2783
  370SOL     MW 1480   0.700   0.113   1.040  0.5478 -0.2278  0.0587
  371SOL     OW 1481   1.145   2.904   1.471 -0.5848  0.6879  0.0265
  371SOL    HW1 1482   1.168   2.815   1.437 -1.0339 -2.2117  2.9398
  371SOL    HW2 1483   1.118   2.947   1.391  0.1308 -2.1544 -1.2722
  371SOL     MW 1484   1.144   2.898   1.456 -0.5496 -0.0697  0.2395
  372SOL     OW 1485   0.807   2.336   0.459 -0.2665 -0.2184 -0.3527
  372SOL    HW1 1486   0.824   2.258   0.516  1.1025 -0.7046 -2.2277
  372SOL    HW2 1487   0.838   2.302   0.373 -0.4680 -1.2146  0.3417
  372SOL     MW 1488   0.814   2.321   0.455 -0.1125 -0.4140 -0.5085
  373SOL     OW 1489   2.856   3.005   1.423 -0.3759  0.0734  0.1872
  373SOL    HW1 1490   2.922   2.969   1.362 -0.6580 -1.8598 -0.7173
  373SOL    HW2 1491   2.826   3.076   1.379  0.4042 -0.9380  3.4461
  373SOL     MW 1492   2.861   3.010   1.409 -0.3102 -0.3151  0.4979
  374SOL     OW 1493   1.600   0.488   0.273  0.1676  0.3609 -0.1472
  374SOL    HW1 1494   1.670   0.429   0.256  0.5913 -1.4218 -1.8522
  374SOL    HW2 1495   1.560   0.452   0.350 -1.9745  0.2046 -1.3441
  374SOL     MW 1496   1.604   0.475   0.281 -0.0591  0.1051 -0.5301
  375SOL     OW 1497   1.066   2.085   2.254  0.6611 -0.5345 -0.4726
  375SOL    HW1 1498   1.079   2.053   2.340 -0.5987 -1.2599 -0.2735
  375SOL    HW2 1499   0.999   2.028   2.219  1.0786  0.0025 -0.6935
  375SOL     MW 1500   1.059   2.073   2.260  0.5500 -0.5594 -0.4755
  376SOL     OW 1501   0.812   2.525   0.120  0.0997  0.5871 -0.2547
  376SOL    HW1 1502   0.765   2.457   0.168 -0.7489 -0.7458  1.8098
  376SOL    HW2 1503   0.805   2.491   0.026  1.7629 -2.8796 -0.4552
  376SOL     MW 1504   0.805   2.511   0.114  0.2072 -0.0461 -0.0088
  377SOL     OW 1505   1.369   2.067   0.916  0.0563  0.5421 -0.0966
  377SOL    HW1 1506   1.287   2.033   0.882 -1.1436 -0.4274 -0.1364
  377SOL    HW2 1507   1.359   2.057   1.006  0.3176 -2.4710 -1.3514
  377SOL     MW 1508   1.357   2.061   0.923 -0.0675  0.0166 -0.2674
  378SOL     OW 1509   0.882   2.859   1.555 -0.4358  0.4337  0.5888
  378SOL    HW1 1510   0.909   2.781   1.604  4.4745 -3.3427  1.7080
  378SOL    HW2 1511   0.962   2.907   1.521  3.7473  0.2578  1.2727
  378SOL     MW 1512   0.896   2.855   1.557  0.7640 -0.0878  0.8267
  379SOL     OW 1513   1.076   1.580   2.278  0.0321 -0.3703  0.7236
  379SOL    HW1 1514   1.018   1.556   2.204 -2.0480 -3.3695  0.9812
  379SOL    HW2 1515   1.163   1.547   2.267 -0.5506 -0.5177 -1.0007
  379SOL     MW 1516   1.080   1.573   2.267 -0.3193 -0.7854  0.5301
  380SOL     OW 1517   0.869   0.122   1.466 -0.3376  0.3559  0.2239
  380SOL    HW1 1518   0.896   0.053   1.404 -0.1636  1.8789  2.0883
  380SOL    HW2 1519   0.946   0.127   1.529 -1.6630  1.7653  0.6390
  380SOL     MW 1520   0.883   0.113   1.466 -0.4895  0.7428  0.5247
  381SOL     OW 1521   0.834   2.061   0.854  0.3053  0.0405  0.2288
  381SOL    HW1 1522   0.931   2.055   0.843  2.8109  0.2663  0.0997
  381SOL    HW2 1523   0.820   2.128   0.924  0.4856 -2.4251  0.5164
  381SOL     MW 1524   0.845   2.069   0.862  0.6597 -0.2551  0.2497
  382SOL     OW 1525   0.845   0.151   0.573  0.0044 -0.1260 -0.4184
  382SOL    HW1 1526   0.828   0.188   0.663  0.6902  2.5801  1.0114
  382SOL    HW2 1527   0.794   0.071   0.564  3.8164  0.3370  0.8181
  382SOL     MW 1528   0.836   0.145   0.583  0.5979  0.2921 -0.0666
  383SOL     OW 1529   0.647   0.011   0.312 -0.0146  0.0146 -0.1687
  383SOL    HW1 1530   0.674  -0.056   0.247 -1.2189  1.6504 -0.4392
  383SOL    HW2 1531   0.573  -0.017   0.365  2.4721  1.5218 -0.4442
  383SOL     MW 1532   0.641  -0.001   0.310  0.1546  0.4293 -0.2408
  384SOL     OW 1533   0.760   2.978   0.622  0.0941 -0.2024  0.1172
  384SOL    HW1 1534   0.814   2.987   0.701  0.5731 -1.9582 -4.7905
  384SOL    HW2 1535   0.704   2.901   0.650  0.5570 -1.0006 -3.5958
  384SOL     MW 1536   0.759   2.969   0.637  0.2183 -0.5394 -1.0202
  385SOL     OW 1537   1.341   2.075   1.522  0.1892 -0.3072 -0.1865
  385SOL    HW1 1538   1.427   2.090   1.560  0.3830 -3.5984  1.5976
  385SOL    HW2 1539   1.317   1.995   1.571  1.3756 -0.1325 -0.1155
  385SOL     MW 1540   1.349   2.066   1.533  0.3713 -0.7184  0.0582
  386SOL     OW 1541   1.474   0.444   0.885 -0.0636 -0.1904 -0.5065
  386SOL    HW1 1542   1.421   0.496   0.946  1.5701  1.0555 -0.2245
  386SOL    HW2 1543   1.558   0.453   0.929 -0.7019  0.7136 -1.8027
  386SOL     MW 1544   1.478   0.452   0.899  0.0677  0.0932 -0.6403
  387SOL     OW 1545   0.788   2.217   1.592 -0.0091  0.0737 -0.4035
  387SOL    HW1 1546   0.864   2.253   1.555  0.2499 -3.0922  0.4331
  387SOL    HW2 1547   0.792   2.122   1.569 -2.5645  3.1885 -0.8059
  387SOL     MW 1548   0.799   2.209   1.584 -0.3121  0.0670 -0.3462
  388SOL     OW 1549   1.466   2.763   1.421 -0.3036  0.9580  0.4796
  388SOL    HW1 1550   1.443   2.838   1.364  0.3918 -1.6892  0.7070
  388SOL    HW2 1551   1.466   2.686   1.360 -1.9979  1.4925 -0.0049
  388SOL     MW 1552   1.463   2.763   1.405 -0.4354  0.6793  0.4457
  389SOL     OW 1553   0.480   0.138   3.057 -0.2704 -0.0133 -0.0960
  389SOL    HW1 1554   0.569   0.104   3.070 -1.3915 -0.6942  0.9811
  389SOL    HW2 1555   0.494   0.181   2.967  2.4861  1.1851 -1.4189
  389SOL     MW 1556   0.494   0.139   3.047 -0.0546  0.0550 -0.1284
  390SOL     OW 1557   1.363   0.027   0.744 -0.1042 -0.1081 -0.6082
  390SOL    HW1 1558   1.403   0.022   0.657  0.6496  0.9652  2.3460
  390SOL    HW2 1559   1.449   0.054   0.787  2.9920 -2.0634 -0.3675
  390SOL     MW 1560   1.380   0.030   0.738  0.4038 -0.2245 -0.1867
  391SOL     OW 1561   0.323   2.188   1.510 -0.2400 -0.3884  0.2633
  391SOL    HW1 1562   0.311   2.175   1.599 -0.9560  0.3314 -0.9262
  391SOL    HW2 1563   0.280   2.275   1.496 -1.6207 -0.1857 -0.3004
  391SOL     MW 1564   0.316   2.198   1.520 -0.5166 -0.2667  0.0320
  392SOL     OW 1565   1.947   2.188   0.308 -0.3325 -0.8678 -0.0252
  392SOL    HW1 1566   2.005   2.260   0.327 -1.3615 -1.2814 -0.4963
  392SOL    HW2 1567   1.861   2.230   0.299 -1.4093  0.0803 -0.1564
  392SOL     MW 1568   1.943   2.203   0.310 -0.6103 -0.7973 -0.1046
  393SOL     OW 1569   0.243   2.951   2.858 -0.1023 -0.1028 -0.2311
  393SOL    HW1 1570   0.326   2.934   2.808 -0.0566 -0.2181 -4.2783
  393SOL    HW2 1571   0.224   3.044   2.857  0.8071  0.0069 -1.3910
  393SOL     MW 1572   0.251   2.961   2.851  0.0237 -0.1036 -0.9182
  394SOL     OW 1573   1.037   1.793   1.525 -0.3602  0.0687  0.6721
  394SOL    HW1 1574   1.052   1.785   1.622  0.2178  0.2498 -0.2759
  394SOL    HW2 1575   0.948   1.832   1.515 -1.3322  1.1651  0.4827
  394SOL     MW 1576   1.028   1.797   1.537 -0.4122  0.2373  0.5221
  395SOL     OW 1577   0.944   2.932   2.707  0.7661 -0.3661 -0.4392
  395SOL    HW1 1578   1.001   3.004   2.759 -0.0405  0.2404  1.7917
  395SOL    HW2 1579   1.012   2.868   2.669  1.2889 -2.1548 -0.5785
  395SOL     MW 1580   0.960   2.933   2.709  0.7286 -0.5221 -0.1632
  396SOL     OW 1581   0.760   1.912   2.367 -0.4757 -0.2026 -0.1682
  396SOL    HW1 1582   0.830   1.915   2.433  0.8313  1.3105  0.7500
  396SOL    HW2 1583   0.714   1.830   2.372 -1.7903 -0.4922 -1.4451
  396SOL     MW 1584   0.763   1.902   2.377 -0.4767 -0.0412 -0.2156
  397SOL     OW 1585   1.000   2.309   1.391  0.3634 -0.2734 -0.4086
  397SOL    HW1 1586   1.012   2.326   1.300 -1.7833 -0.4960 -0.2800
  397SOL    HW2 1587   1.082   2.305   1.438  1.8327  0.3406  1.9940
  397SOL     MW 1588   1.012   2.311   1.385  0.2740 -0.2218 -0.0746
  398SOL     OW 1589   0.630   2.731   0.664 -0.1144  0.4873  0.2354
  398SOL    HW1 1590   0.584   2.709   0.586  1.9153 -0.5983 -0.6420
  398SOL    HW2 1591   0.710   2.673   0.658 -0.0153 -0.2332 -2.2269
  398SOL     MW 1592   0.635   2.720   0.653  0.1665  0.2490 -0.2052
  399SOL     OW 1593   0.348   2.088   0.370  0.1211 -0.4674  0.1079
  399SOL    HW1 1594   0.273   2.148   0.382  1.5134  0.8159  1.1238
  399SOL    HW2 1595   0.400   2.118   0.289  1.1474  0.9206 -1.3295
  399SOL     MW 1596   0.345   2.100   0.361  0.4402 -0.1149  0.0523
  400SOL     OW 1597   0.590   1.929   0.077 -0.2785  0.4432  0.2275
  400SOL    HW1 1598   0.555   2.019   0.116 -0.5537  1.9298 -0.1806
  400SOL    HW2 1599   0.603   1.873   0.152  1.0940 -0.3776 -0.2612
  400SOL     MW 1600   0.587   1.934   0.092 -0.1338  0.5311  0.1091
  401SOL     OW 1601   0.853   2.064   0.013  0.5483 -0.6844 -0.3032
  401SOL    HW1 1602   0.930   2.006  -0.002  0.0992  0.0983  0.6676
  401SOL    HW2 1603   0.774   2.003   0.019  0.3327 -1.7293  2.2281
  401SOL     MW 1604   0.852   2.048   0.012  0.4606 -0.7190  0.1589
  402SOL     OW 1605   0.583   3.020   1.768  0.6815 -0.0303  0.4535
  402SOL    HW1 1606   0.654   3.017   1.829  1.5939  0.1073 -0.1011
  402SOL    HW2 1607   0.604   3.094   1.710  2.5577 -1.5035 -0.8127
  402SOL     MW 1608   0.596   3.030   1.769  1.0494 -0.2065  0.2133
  403SOL     OW 1609   0.159   0.517   0.389 -0.1238 -0.3708 -0.2781
  403SOL    HW1 1610   0.243   0.532   0.437  1.9165 -2.2869  0.2739
  403SOL    HW2 1611   0.170   0.448   0.330 -0.7872 -1.1788 -0.7413
  403SOL     MW 1612   0.171   0.510   0.387  0.0579 -0.7302 -0.2664
  404SOL     OW 1613   0.917   2.958   0.845 -0.2925  0.3511 -0.1625
  404SOL    HW1 1614   0.977   2.881   0.844  0.2191 -0.8986  0.2564
  404SOL    HW2 1615   0.981   3.025   0.831 -0.7369 -1.8985  2.0006
  404SOL     MW 1616   0.934   2.956   0.843 -0.2836 -0.1106  0.1782
  405SOL     OW 1617   0.521   2.471   1.504  0.3846  0.2349 -0.0246
  405SOL    HW1 1618   0.524   2.528   1.432 -3.1923 -0.8188 -3.3953
  405SOL    HW2 1619   0.565   2.393   1.461  1.4113 -1.7648  1.2358
  405SOL     MW 1620   0.527   2.468   1.489  0.0481 -0.1679 -0.3030
  406SOL     OW 1621   0.431   2.358   1.109  0.6749 -0.1704 -0.5894
  406SOL    HW1 1622   0.335   2.371   1.116  0.2439  1.0495  0.2709
  406SOL    HW2 1623   0.452   2.270   1.132  0.7407  1.3275  0.1321
  406SOL     MW 1624   0.421   2.348   1.113  0.6268  0.1882 -0.3807
  407SOL     OW 1625   0.044   2.637   1.141 -0.1785  0.0462 -0.6718
  407SOL    HW1 1626   0.087   2.661   1.219 -0.8369  0.0332 -1.9830
  407SOL    HW2 1627   0.110   2.655   1.072 -2.1652 -2.5456 -2.9685
  407SOL     MW 1628   0.059   2.642   1.142 -0.5275 -0.2975 -1.1479
  408SOL     OW 1629   2.131   2.137   0.734  0.5079  0.0522 -0.8715
  408SOL    HW1 1630   2.059   2.180   0.793 -0.8106  1.7768  1.2797
  408SOL    HW2 1631   2.066   2.108   0.658 -1.6391  0.2248 -0.7704
  408SOL     MW 1632   2.113   2.139   0.732  0.0507  0.3025 -0.5743
  409SOL     OW 1633   1.626   0.102   0.830 -0.0714 -0.5062 -0.1667
  409SOL    HW1 1634   1.650   0.195   0.837 -2.6652 -0.8591  2.5648
  409SOL    HW2 1635   1.611   0.076   0.921  0.5900  1.2856  0.1902
  409SOL     MW 1636   1.627   0.111   0.843 -0.3263 -0.3164  0.2408
  410SOL     OW 1637   1.092   2.416   1.149  0.3352 -0.0901  0.1950
  410SOL    HW1 1638   1.036   2.480   1.106  1.3211  1.2034  0.9707
  410SOL    HW2 1639   1.134   2.381   1.074 -0.7265  0.4861 -0.9783
  410SOL     MW 1640   1.090   2.420   1.133  0.3252  0.1566  0.1426
  411SOL     OW 1641   2.001   2.946   2.919 -0.3844 -0.1801  0.2589
  411SOL    HW1 1642   2.021   2.933   2.828  0.6778 -0.6846  0.2179
  411SOL    HW2 1643   1.961   3.032   2.918  0.4514 -0.9710  1.7546
  411SOL     MW 1644   1.998   2.956   2.907 -0.1340 -0.3510  0.4508
  412SOL     OW 1645   1.058   2.249   0.619  0.0756  0.8171  0.7998
  412SOL    HW1 1646   1.071   2.319   0.687  0.6006  0.2056  0.5489
  412SOL    HW2 1647   1.022   2.297   0.540 -0.8245  3.5706  2.3020
  412SOL     MW 1648   1.055   2.265   0.618  0.0261  1.0997  0.9649
  413SOL     OW 1649   0.619   2.707   0.052  0.2966 -0.2030 -0.1891
  413SOL    HW1 1650   0.688   2.656   0.105 -0.2453 -0.4539 -1.3373
  413SOL    HW2 1651   0.615   2.653  -0.029  2.9500 -2.7464 -0.3379
  413SOL     MW 1652   0.628   2.693   0.048  0.5752 -0.5717 -0.3602
  414SOL     OW 1653   2.006   3.027   1.082  0.6463 -0.1143  0.1986
  414SOL    HW1 1654   2.022   3.114   1.116 -0.9700 -0.0004  1.4885
  414SOL    HW2 1655   2.030   3.022   0.987 -1.4437  0.9819  0.7368
  414SOL     MW 1656   2.011   3.038   1.074  0.1573  0.0454  0.4398
  415SOL     OW 1657   1.615   2.843   1.115  0.4057  0.5973  0.0938
  415SOL    HW1 1658   1.664   2.834   1.197 -0.0860 -1.8370 -0.0208
  415SOL    HW2 1659   1.674   2.800   1.055 -1.3595  0.3135  0.4955
  415SOL     MW 1660   1.629   2.836   1.118  0.1079  0.2386  0.1316
  416SOL     OW 1661   0.631   1.735   1.467 -0.1828  0.5866 -0.5088
  416SOL    HW1 1662   0.557   1.694   1.419  2.1065  2.0072 -1.1518
  416SOL    HW2 1663   0.707   1.693   1.428  0.7331  0.2461 -2.2768
  416SOL     MW 1664   0.631   1.724   1.456  0.2401  0.7291 -0.8269
  417SOL     OW 1665   0.956   0.039   2.088 -0.2120  0.5608 -0.6874
  417SOL    HW1 1666   0.883   0.042   2.156 -0.5122  1.4763 -0.1451
  417SOL    HW2 1667   0.924  -0.015   2.020  2.7275 -0.5507  0.6928
  417SOL     MW 1668   0.942   0.033   2.088  0.1363  0.5349 -0.4337
  418SOL     OW 1669   0.734   2.910   0.169  0.5740 -0.6724  0.5599
  418SOL    HW1 1670   0.811   2.926   0.115  0.2614 -0.7668  0.8317
  418SOL    HW2 1671   0.678   2.847   0.113  0.2187 -0.4869 -1.1774
  418SOL     MW 1672   0.737   2.904   0.155  0.4859 -0.6604  0.3665
  419SOL     OW 1673   0.611   2.674   1.351  0.3846  0.3140  0.2307
  419SOL    HW1 1674   0.612   2.763   1.392 -0.4200  0.0878  0.3348
  419SOL    HW2 1675   0.688   2.629   1.378  2.0944 -0.3589 -2.0472
  419SOL     MW 1676   0.621   2.680   1.360  0.5040  0.1954 -0.0561
  420SOL     OW 1677   0.787   2.241   1.074 -0.2077  0.4623  1.0922
  420SOL    HW1 1678   0.720   2.266   1.140 -0.0954  0.1919  1.0623
  420SOL    HW2 1679   0.829   2.322   1.045  0.4705 -2.3528  2.5043
  420SOL     MW 1680   0.784   2.255   1.079 -0.1034  0.0552  1.2745
  421SOL     OW 1681   2.895   0.184   0.067 -0.1730 -0.2468  0.2220
  421SOL    HW1 1682   2.824   0.121   0.051 -1.5951  1.6372  0.1529
  421SOL    HW2 1683   2.970   0.127   0.056 -0.0208 -2.0547  3.4756
  421SOL     MW 1684   2.895   0.168   0.064 -0.3405 -0.2368  0.6421
  422SOL     OW 1685   0.890   2.495   0.966 -0.1521 -0.2856 -0.4043
  422SOL    HW1 1686   0.812   2.530   0.999  1.8484 -0.5827  0.7629
  422SOL    HW2 1687   0.883   2.485   0.874 -0.6846  0.0695  1.1051
  422SOL     MW 1688   0.879   2.498   0.958  0.0416 -0.2779 -0.0511
  423SOL     OW 1689   1.490   0.048   0.483  0.2987 -0.1186  0.3884
  423SOL    HW1 1690   1.505   0.016   0.391  1.8853 -2.7565 -1.5106
  423SOL    HW2 1691   1.480   0.140   0.467  2.6837 -1.6419  1.2526
  423SOL     MW 1692   1.491   0.056   0.468  0.8227 -0.6676  0.2518
  424SOL     OW 1693   0.654   2.270   1.334  0.3908  0.2398 -0.6735
  424SOL    HW1 1694   0.577   2.217   1.321  2.0259 -0.3042 -0.1190
  424SOL    HW2 1695   0.695   2.241   1.412 -2.2921 -1.6558 -1.0639
  424SOL     MW 1696   0.649   2.259   1.342  0.2526 -0.0821 -0.6519
  425SOL     OW 1697   1.691   2.796   2.035 -0.0323  0.1823  0.3827
  425SOL    HW1 1698   1.721   2.845   1.957  0.4114  1.4738  0.1827
  425SOL    HW2 1699   1.738   2.714   2.033  1.3549  1.4019 -0.2753
  425SOL     MW 1700   1.701   2.792   2.025  0.2093  0.5136  0.2695
  426SOL     OW 1701   0.886   1.701   1.959  0.2036 -0.4382 -0.1996
  426SOL    HW1 1702   0.817   1.690   1.892 -1.1029 -1.2868 -1.4388
  426SOL    HW2 1703   0.866   1.785   2.004  1.7860 -2.6074 -1.6134
  426SOL     MW 1704   0.874   1.710   1.956  0.2400 -0.8364 -0.5496
  427SOL     OW 1705   0.387   1.738   1.901 -0.1810  0.2676 -0.4415
  427SOL    HW1 1706   0.426   1.674   1.848 -1.0375  4.0250  1.8290
  427SOL    HW2 1707   0.325   1.689   1.956 -0.1521 -0.2227  1.2723
  427SOL     MW 1708   0.384   1.723   1.901 -0.2902  0.6986  0.0842
  428SOL     OW 1709   0.607   2.565   1.099  0.8090  0.0377 -0.2250
  428SOL    HW1 1710   0.528   2.503   1.096 -1.1864 -2.1680  1.8804
  428SOL    HW2 1711   0.610   2.599   1.188  0.7113 -2.5025 -1.8681
  428SOL     MW 1712   0.597   2.561   1.110  0.5329 -0.5885 -0.1640
  429SOL     OW 1713   1.170   2.733   1.080  0.7457  0.3178 -0.2497
  429SOL    HW1 1714   1.078   2.747   1.100 -0.0962  0.6236 -0.6795
  429SOL    HW2 1715   1.213   2.817   1.069 -1.3541  2.4771  0.0077
  429SOL     MW 1716   1.163   2.746   1.081  0.3575  0.6430 -0.2724
  430SOL     OW 1717   1.162   2.790   0.803 -0.0683  0.8220  0.6112
  430SOL    HW1 1718   1.164   2.722   0.875  0.4455 -0.6455  2.1186
  430SOL    HW2 1719   1.117   2.763   0.726  0.6776 -1.1026  2.7710
  430SOL     MW 1720   1.157   2.777   0.802  0.0979  0.3745  1.0950
  431SOL     OW 1721   0.325   1.919   1.101  0.0936  0.1493 -0.2764
  431SOL    HW1 1722   0.380   1.842   1.098  4.1710 -1.8369  1.7985
  431SOL    HW2 1723   0.301   1.942   1.011  0.8380 -0.5408 -0.1534
  431SOL     MW 1724   0.329   1.912   1.089  0.7298 -0.2038  0.0136
  432SOL     OW 1725   0.048   3.072   1.116 -0.6067 -0.1586 -0.0137
  432SOL    HW1 1726   0.072   3.102   1.206  4.1357 -0.3342  1.7916
  432SOL    HW2 1727  -0.000   2.995   1.140  1.8261  0.8451 -2.7826
  432SOL     MW 1728   0.045   3.066   1.131  0.3400 -0.0493 -0.1408
  433SOL     OW 1729   0.630   2.937   1.476 -0.2543 -0.1910  0.1766
  433SOL    HW1 1730   0.602   2.952   1.565  1.6351  2.7606 -0.5644
  433SOL    HW2 1731   0.724   2.903   1.501  4.0162 -2.0294  1.1982
  433SOL     MW 1732   0.639   2.934   1.491  0.5584 -0.0441  0.2136
  434SOL     OW 1733   1.518   2.823   1.689 -0.3784  0.1835  1.3716
  434SOL    HW1 1734   1.453   2.882   1.722  1.2977  0.5208  0.6111
  434SOL    HW2 1735   1.496   2.797   1.597  0.6640  1.7577  1.9776
  434SOL     MW 1736   1.507   2.828   1.682 -0.0197  0.4357  1.3512
  435SOL     OW 1737   2.720   1.738   0.216 -0.5880  0.2719  0.1410
  435SOL    HW1 1738   2.792   1.780   0.162  0.7776  1.4888  0.0048
  435SOL    HW2 1739   2.639   1.785   0.204 -3.3945  2.3676  0.9933
  435SOL     MW 1740   2.719   1.750   0.208 -0.7781  0.7090  0.2354
  436SOL     OW 1741   1.328   2.713   0.331  0.3483 -0.2188  0.6117
  436SOL    HW1 1742   1.384   2.699   0.406  1.7461  2.3753  2.1664
  436SOL    HW2 1743   1.271   2.780   0.361 -1.1648 -1.7252  0.6874
  436SOL     MW 1744   1.328   2.720   0.345  0.3331 -0.0753  0.8268
  437SOL     OW 1745   0.976   3.045   1.288 -0.8258 -0.0777  0.0335
  437SOL    HW1 1746   0.974   3.099   1.208 -0.5454 -1.6097  1.1629
  437SOL    HW2 1747   0.952   2.953   1.260  0.3390 -2.0349  0.0138
  437SOL     MW 1748   0.973   3.040   1.274 -0.6351 -0.5381  0.1799
  438SOL     OW 1749   0.898   2.712   1.950 -0.2424  0.0062  1.0335
  438SOL    HW1 1750   0.876   2.649   2.028 -0.4605  1.4713  3.1243
  438SOL    HW2 1751   0.872   2.659   1.871  1.7686 -0.9312 -2.7499
  438SOL     MW 1752   0.891   2.696   1.950 -0.0058  0.0758  0.8102
  439SOL     OW 1753   1.192   2.073   0.427 -0.0601 -0.3809 -0.3875
  439SOL    HW1 1754   1.157   2.120   0.507  3.3823  0.2445 -0.1418
  439SOL    HW2 1755   1.181   2.139   0.352 -1.2091 -0.6697  0.3878
  439SOL     MW 1756   1.186   2.088   0.428  0.2425 -0.3365 -0.2528
  440SOL     OW 1757   1.750   2.875   3.007  0.2121 -1.1813 -0.2214
  440SOL    HW1 1758   1.752   2.915   3.092  0.9644 -1.0750 -1.0746
  440SOL    HW2 1759   1.837   2.894   2.975  1.7320 -0.0841 -0.7572
  440SOL     MW 1760   1.761   2.883   3.014  0.5119 -1.0225 -0.4047
  441SOL     OW 1761   0.496   2.662   0.423  0.4211  0.4981 -0.1963
  441SOL    HW1 1762   0.464   2.628   0.338  1.7845  2.4482  0.9174
  441SOL    HW2 1763   0.507   2.761   0.416  2.8315  1.8328  0.3514
  441SOL     MW 1764   0.493   2.670   0.411  0.9190  0.9315  0.0229
  442SOL     OW 1765   0.028   2.340   0.632  0.0884  0.0358  0.0619
  442SOL    HW1 1766   0.038   2.434   0.600  0.4070  1.9226  1.1763
  442SOL    HW2 1767  -0.064   2.331   0.654  2.5278  0.9439 -0.4435
  442SOL     MW 1768   0.017   2.351   0.631  0.4523  0.4046  0.1423
  443SOL     OW 1769   1.473   1.753   1.930 -0.0390 -0.4648  0.4522
  443SOL    HW1 1770   1.418   1.763   1.857  0.5876  1.9729  2.3118
  443SOL    HW2 1771   1.502   1.662   1.934 -0.8654  1.3037 -1.6556
  443SOL     MW 1772   1.470   1.743   1.921 -0.0654  0.0902  0.4194
  444SOL     OW 1773   0.960   2.584   1.612 -0.4918  0.0807  0.0541
  444SOL    HW1 1774   1.030   2.538   1.658  0.2576  2.6352 -0.6398
  444SOL    HW2 1775   0.886   2.589   1.675  0.5264 -0.0282  2.1647
  444SOL     MW 1776   0.960   2.578   1.626 -0.2585  0.4034  0.2410
  445SOL     OW 1777   1.229   0.089   1.409 -0.6108 -0.6850  0.2016
  445SOL    HW1 1778   1.268   0.123   1.490 -3.0253 -0.7929  0.6451
  445SOL    HW2 1779   1.227   0.151   1.337  1.3207 -2.4298  0.1180
  445SOL     MW 1780   1.234   0.101   1.410 -0.6746 -0.9295  0.2491
  446SOL     OW 1781   2.778   2.873   1.045 -1.0042 -0.1519 -0.1762
  446SOL    HW1 1782   2.718   2.913   0.979  0.5791  0.5547  1.6550
  446SOL    HW2 1783   2.812   2.790   1.015  1.8394  2.1059 -0.0049
  446SOL     MW 1784   2.775   2.867   1.032 -0.4201  0.2392  0.0880
  447SOL     OW 1785   0.018   1.928   1.557 -0.1652  0.0374  0.1649
  447SOL    HW1 1786   0.034   1.878   1.639 -0.6021 -0.6184 -2.0473
  447SOL    HW2 1787  -0.058   1.891   1.501  0.8152  0.3731 -0.2596
  447SOL     MW 1788   0.010   1.917   1.560 -0.0935 -0.0049 -0.1830
  448SOL     OW 1789   1.720   2.361   1.664 -0.1364 -0.6651  0.0575
  448SOL    HW1 1790   1.665   2.285   1.660  0.6339 -2.8552 -2.3023
  448SOL    HW2 1791   1.658   2.431   1.681 -0.7841  1.0286 -1.4766
  448SOL     MW 1792   1.704   2.360   1.666 -0.1202 -0.7306 -0.4562
  449SOL     OW 1793   0.914   2.952   0.393  0.5806 -0.6344 -0.0658
  449SOL    HW1 1794   0.845   2.923   0.331 -1.6460  1.9000 -0.0734
  449SOL    HW2 1795   0.864   2.953   0.476  0.0244 -2.1222 -0.7756
  449SOL     MW 1796   0.898   2.948   0.395  0.2134 -0.4963 -0.1605
  450SOL     OW 1797   1.139   2.476   0.781 -0.1001 -0.5484 -0.5182
  450SOL    HW1 1798   1.192   2.421   0.852 -0.9775 -0.1931  0.8661
  450SOL    HW2 1799   1.197   2.480   0.703 -0.7593  1.3176 -1.7518
  450SOL     MW 1800   1.153   2.470   0.780 -0.3028 -0.2554 -0.4983
  451SOL     OW 1801   0.541   1.968   1.689  0.6229  0.8492  0.2955
  451SOL    HW1 1802   0.621   1.997   1.639  1.9757  2.0813  0.6013
  451SOL    HW2 1803   0.475   1.960   1.618 -0.8665 -0.0492 -1.8800
  451SOL     MW 1804   0.543   1.971   1.673  0.6048  0.8932  0.0488
  452SOL     OW 1805   0.364   2.644   0.010  0.6140  0.0530 -0.2955
  452SOL    HW1 1806   0.434   2.677   0.064 -0.7917  1.8471 -0.4572
  452SOL    HW2 1807   0.312   2.726   0.005 -0.7675  0.8913 -2.7443
  452SOL     MW 1808   0.367   2.660   0.017  0.2462  0.4004 -0.6399
  453SOL     OW 1809   0.251   3.021   1.565 -0.4856 -0.3118 -0.4017
  453SOL    HW1 1810   0.305   2.967   1.621 -1.3266 -0.5917  0.6361
  453SOL    HW2 1811   0.287   2.993   1.479  0.0843  1.9210 -2.0465
  453SOL     MW 1812   0.263   3.010   1.561 -0.5214 -0.0542 -0.4818
  454SOL     OW 1813   0.906   2.774   1.211 -0.6384 -0.0855 -0.2745
  454SOL    HW1 1814   0.894   2.691   1.259 -2.3716  3.8517 -1.1395
  454SOL    HW2 1815   0.818   2.798   1.180 -0.0063  1.6410 -2.1104
  454SOL     MW 1816   0.892   2.766   1.213 -0.7837  0.6618 -0.6309
  455SOL     OW 1817   1.795   2.865   0.190  0.4655  0.1624 -0.1612
  455SOL    HW1 1818   1.810   2.835   0.279 -0.9502 -1.0925 -0.7268
  455SOL    HW2 1819   1.730   2.799   0.154 -1.6119 -1.0100  1.8842
  455SOL     MW 1820   1.789   2.852   0.197  0.0046 -0.1579  0.0341
  456SOL     OW 1821   2.763   0.270   1.459 -0.2259  0.0256 -0.0769
  456SOL    HW1 1822   2.762   0.212   1.382 -0.8646  1.5921  0.4503
  456SOL    HW2 1823   2.818   0.347   1.432  1.6519  0.7060 -0.1685
  456SOL     MW 1824   2.770   0.273   1.445 -0.0624  0.3220 -0.0195
  457SOL     OW 1825   0.798   1.654   3.025 -0.0476 -0.4986  0.1591
  457SOL    HW1 1826   0.704   1.646   3.036  1.3551  1.1824 -0.4197
  457SOL    HW2 1827   0.828   1.686   3.113 -3.1196 -1.1427  0.9827
  457SOL     MW 1828   0.789   1.657   3.038 -0.2678 -0.3618  0.1914
  458SOL     OW 1829   1.347   1.475   0.701 -0.6127 -0.0600 -0.4236
  458SOL    HW1 1830   1.297   1.544   0.664  1.0458 -1.9444  3.3696
  458SOL    HW2 1831   1.307   1.391   0.676  0.8763 -1.2529 -1.2680
  458SOL     MW 1832   1.335   1.473   0.693 -0.1974 -0.4660 -0.0345
  459SOL     OW 1833   1.632   3.081   0.242 -0.6143 -0.3567 -0.2175
  459SOL    HW1 1834   1.675   2.995   0.247 -0.1831 -0.2684  0.3130
  459SOL    HW2 1835   1.558   3.074   0.184 -0.9439 -1.0266  0.9965
  459SOL     MW 1836   1.628   3.069   0.235 -0.6009 -0.4334  0.0127
  460SOL     OW 1837   1.790   2.225   0.627  0.2003 -0.1270 -0.3563
  460SOL    HW1 1838   1.716   2.219   0.689  2.0570 -2.0585 -1.0896
  460SOL    HW2 1839   1.825   2.131   0.619  0.5454  0.1999 -2.1385
  460SOL     MW 1840   1.785   2.212   0.634  0.4908 -0.3387 -0.6882
  461SOL     OW 1841   0.403   2.417   0.570 -0.2834 -0.3288 -0.8247
  461SOL    HW1 1842   0.416   2.503   0.524 -0.2940 -0.8147 -2.2021
  461SOL    HW2 1843   0.390   2.435   0.667  2.8286 -0.5282 -1.8706
  461SOL     MW 1844   0.403   2.431   0.577  0.1258 -0.4192 -1.1445
  462SOL     OW 1845   0.295   0.238   1.266  0.0035  0.2751  0.0193
  462SOL    HW1 1846   0.332   0.217   1.180  0.6118 -1.3172  0.4147
  462SOL    HW2 1847   0.366   0.246   1.331 -1.3198 -0.9077 -0.8350
  462SOL     MW 1848   0.309   0.236   1.263 -0.0908 -0.0910 -0.0413
  463SOL     OW 1849   1.079   0.051   0.762  0.2642 -0.0432 -0.2639
  463SOL    HW1 1850   1.176   0.034   0.748  0.6329  1.4751  1.7565
  463SOL    HW2 1851   1.052   0.083   0.675 -0.6355 -1.5993 -2.5520
  463SOL     MW 1852   1.088   0.053   0.749  0.1942 -0.0482 -0.2992
  464SOL     OW 1853   0.749   3.088   2.257 -0.8025 -0.4196  0.4799
  464SOL    HW1 1854   0.737   2.992   2.269  0.3246 -0.3106  0.6639
  464SOL    HW2 1855   0.796   3.110   2.343  3.2420 -3.6361 -1.9380
  464SOL     MW 1856   0.753   3.078   2.270 -0.1202 -0.8296  0.1852
  465SOL     OW 1857   0.810   0.346   0.407  0.3332 -0.6319 -0.3159
  465SOL    HW1 1858   0.833   0.282   0.474 -0.4937 -0.7632 -0.2575
  465SOL    HW2 1859   0.774   0.299   0.330  2.7363 -2.1270  1.2510
  465SOL     MW 1860   0.808   0.331   0.405  0.5412 -0.8465 -0.1014
  466SOL     OW 1861   1.095   2.037   0.811 -0.0604  0.0834 -0.4222
  466SOL    HW1 1862   1.069   1.957   0.770  3.4323  0.3247  4.6777
  466SOL    HW2 1863   1.076   2.110   0.750 -0.2429 -0.6089  1.0584
  466SOL     MW 1864   1.089   2.036   0.797  0.3764  0.0239  0.4461
  467SOL     OW 1865   1.298   2.350   0.938 -0.6489  0.3734  0.0391
  467SOL    HW1 1866   1.372   2.374   0.994 -0.1794  1.0074 -1.9012
  467SOL    HW2 1867   1.302   2.256   0.950 -0.9566 -0.6554 -1.5403
  467SOL     MW 1868   1.308   2.340   0.947 -0.6275  0.3213 -0.4253
  468SOL     OW 1869   0.511   2.698   1.898  0.3708  0.1124  0.3590
  468SOL    HW1 1870   0.494   2.625   1.832  0.9890 -4.8875  2.2190
  468SOL    HW2 1871   0.483   2.787   1.856  1.6491  1.1797  1.8487
  468SOL     MW 1872   0.505   2.701   1.884  0.6210 -0.4065  0.8010
  469SOL     OW 1873   0.331   2.104   1.831  0.0077  0.5465 -0.4404
  469SOL    HW1 1874   0.243   2.062   1.838  1.0457  0.3680  0.4111
  469SOL    HW2 1875   0.393   2.048   1.780 -2.2241 -0.8268 -0.2543
  469SOL     MW 1876   0.328   2.091   1.825 -0.1498  0.3418 -0.3035
  470SOL     OW 1877   3.057   2.580   0.095 -0.0500 -0.1284 -0.2213
  470SOL    HW1 1878   2.964   2.591   0.119  0.7590 -0.0611 -0.2040
  470SOL    HW2 1879   3.060   2.588   0.000 -1.1937 -0.8259  0.7116
  470SOL     MW 1880   3.045   2.583   0.085 -0.0942 -0.2116 -0.0959
  471SOL     OW 1881   1.173   2.622   1.368 -0.0522  0.3193 -0.3866
  471SOL    HW1 1882   1.121   2.559   1.417 -0.6034  0.9614  0.4818
  471SOL    HW2 1883   1.179   2.603   1.272 -2.6786  0.9171 -0.0853
  471SOL     MW 1884   1.167   2.611   1.362 -0.4714  0.4829 -0.2323
  472SOL     OW 1885   2.929   2.115   0.336  1.1638  0.5099 -0.2043
  472SOL    HW1 1886   2.928   2.050   0.264  0.4988 -1.0371  0.3795
  472SOL    HW2 1887   2.866   2.068   0.391  0.2390 -1.7400  2.0182
  472SOL     MW 1888   2.921   2.100   0.334  0.9540  0.0089  0.1660
  473SOL     OW 1889   0.845   2.532   1.368  0.2754  0.1057 -1.3668
  473SOL    HW1 1890   0.894   2.450   1.349  0.7108 -0.6843  1.1848
  473SOL    HW2 1891   0.874   2.553   1.460  0.1237 -1.6393 -1.0193
  473SOL     MW 1892   0.856   2.524   1.377  0.3129 -0.2287 -0.9843
  474SOL     OW 1893   0.654   2.301   1.831  0.0345 -0.3890  0.3288
  474SOL    HW1 1894   0.722   2.312   1.895 -1.5602  0.2752  0.5083
  474SOL    HW2 1895   0.690   2.266   1.752 -0.5772 -0.7016  4.4694
  474SOL     MW 1896   0.667   2.298   1.829 -0.2566 -0.3426  0.8988
  475SOL     OW 1897   1.582   3.074   1.538 -0.0596 -0.1600  0.6580
  475SOL    HW1 1898   1.538   3.042   1.461  1.0295  0.7903  1.3707
  475SOL    HW2 1899   1.575   2.991   1.583  0.3773 -0.0891 -1.6562
  475SOL     MW 1900   1.575   3.059   1.534  0.1417 -0.0252  0.4467
  476SOL     OW 1901   1.445   2.621   1.175 -0.3029 -0.2439 -0.3333
  476SOL    HW1 1902   1.369   2.650   1.132  0.5307 -0.5968  2.8208
  476SOL    HW2 1903   1.505   2.690   1.149  2.3793  0.3029  0.2178
  476SOL     MW 1904   1.443   2.634   1.166  0.1610 -0.2183  0.1556
  477SOL     OW 1905   0.830   2.541   0.670  0.0792  0.1573  0.7282
  477SOL    HW1 1906   0.902   2.588   0.634  1.4669 -2.5444  2.0499
  477SOL    HW2 1907   0.808   2.483   0.603  0.4133 -0.9020  1.2764
  477SOL     MW 1908   0.836   2.540   0.656  0.3064 -0.3389  0.9749
  478SOL     OW 1909   0.225   2.620   0.938  0.5779  0.1908 -0.6061
  478SOL    HW1 1910   0.272   2.694   0.893 -0.2752 -2.1920 -1.4823
  478SOL    HW2 1911   0.270   2.543   0.905  0.3329  1.3698 -0.1726
  478SOL     MW 1912   0.237   2.620   0.928  0.4330  0.0320 -0.6645
  479SOL     OW 1913   1.407   1.998   1.267  0.2387 -0.2685  0.0529
  479SOL    HW1 1914   1.367   2.037   1.348 -1.0471 -1.8115 -1.0993
  479SOL    HW2 1915   1.438   1.913   1.292  1.5628  2.3791  1.8728
  479SOL     MW 1916   1.406   1.992   1.281  0.2438 -0.1227  0.1410
  480SOL     OW 1917   2.012   2.431   1.343 -0.1403 -0.2308  0.7399
  480SOL    HW1 1918   2.026   2.343   1.373  0.1623 -0.8279 -1.8206
  480SOL    HW2 1919   1.999   2.417   1.243  1.7023 -0.1352 -2.3550
  480SOL     MW 1920   2.013   2.418   1.334  0.1427 -0.2970 -0.0063
  481SOL     OW 1921   1.045   0.111   1.074  0.0941  0.0303 -0.2765
  481SOL    HW1 1922   1.081   0.044   1.018 -0.1744  1.1660 -1.5364
  481SOL    HW2 1923   1.119   0.168   1.087  0.8828 -0.5642 -0.5767
  481SOL     MW 1924   1.059   0.110   1.069  0.1628  0.1017 -0.4823
  482SOL     OW 1925   1.065   0.032   0.276 -0.0493  0.3661 -0.1660
  482SOL    HW1 1926   1.002  -0.037   0.316 -1.1636 -1.0044  0.0454
  482SOL    HW2 1927   1.067   0.117   0.329 -0.2273  2.3013  1.2254
  482SOL     MW 1928   1.057   0.034   0.288 -0.2198  0.4406  0.0455
  483SOL     OW 1929   0.422   3.005   0.452  0.2510 -0.1005  0.2690
  483SOL    HW1 1930   0.341   3.004   0.400 -0.2373  0.9362 -1.7562
  483SOL    HW2 1931   0.394   3.032   0.539 -0.9696  1.1841  3.2275
  483SOL     MW 1932   0.408   3.008   0.457  0.0255  0.2058  0.3922
  484SOL     OW 1933   1.840   1.996   1.457 -0.4458  0.6777 -0.8644
  484SOL    HW1 1934   1.891   2.073   1.442  1.2996 -2.8708 -3.0488
  484SOL    HW2 1935   1.814   2.002   1.551 -1.8213  0.0198  0.4622
  484SOL     MW 1936   1.843   2.007   1.467 -0.3970  0.1227 -0.9776
  485SOL     OW 1937   0.588   2.398   0.257  0.3236  0.3198  0.4664
  485SOL    HW1 1938   0.617   2.368   0.343  2.3879 -0.7683  2.0964
  485SOL    HW2 1939   0.488   2.401   0.253  0.3867 -0.6189 -1.1891
  485SOL     MW 1940   0.579   2.394   0.268  0.6043  0.0524  0.4631
  486SOL     OW 1941   0.198   2.416   1.455  0.0230  0.2920 -1.1487
  486SOL    HW1 1942   0.209   2.510   1.431 -0.0855 -0.7129 -1.9674
  486SOL    HW2 1943   0.158   2.419   1.540 -0.4575 -1.2800 -2.4292
  486SOL     MW 1944   0.194   2.429   1.463 -0.0547 -0.0480 -1.4256
  487SOL     OW 1945   1.209   1.744   1.022 -0.2093  0.4049 -0.0306
  487SOL    HW1 1946   1.180   1.834   1.056 -0.3618  4.2156 -0.1813
  487SOL    HW2 1947   1.303   1.751   1.001  1.5460  1.3370  2.5827
  487SOL     MW 1948   1.218   1.756   1.024  0.0022  1.0307  0.2943
  488SOL     OW 1949   1.597   1.810   0.564  0.2634  0.0237  0.2046
  488SOL    HW1 1950   1.674   1.830   0.508  0.6768 -0.2019  1.8017
  488SOL    HW2 1951   1.540   1.890   0.549 -1.9543  0.3137  2.1835
  488SOL     MW 1952   1.600   1.823   0.554  0.0253  0.0322  0.6764
  489SOL     OW 1953   0.794   0.833   0.618 -0.3178  0.1722  0.2456
  489SOL    HW1 1954   0.813   0.749   0.571 -0.6838  0.2715  0.5381
  489SOL    HW2 1955   0.746   0.811   0.699  1.5745 -1.0125  2.0030
  489SOL     MW 1956   0.790   0.819   0.623 -0.1164  0.0290  0.5161
  490SOL     OW 1957   1.461   2.049   0.524 -0.7314  0.3024  0.3686
  490SOL    HW1 1958   1.489   2.126   0.466 -1.4132  2.1841 -0.3625
  490SOL    HW2 1959   1.369   2.045   0.506  1.4085  0.0378 -0.5719
  490SOL     MW 1960   1.453   2.059   0.514 -0.5390  0.5158  0.1481
  491SOL     OW 1961   1.256   2.974   0.421 -0.4507  0.5641 -0.2197
  491SOL    HW1 1962   1.310   3.041   0.473  0.5315 -2.2073 -0.6827
  491SOL    HW2 1963   1.193   3.026   0.373 -1.1062  2.0267 -1.8230
  491SOL     MW 1964   1.255   2.990   0.422 -0.4076  0.3914 -0.4923
  492SOL     OW 1965   1.523   2.230   0.758 -0.2941  0.1078 -0.1450
  492SOL    HW1 1966   1.510   2.170   0.687  0.1602 -1.9051  0.7687
  492SOL    HW2 1967   1.475   2.189   0.827 -0.3903 -0.6976 -0.1060
  492SOL     MW 1968   1.515   2.217   0.758 -0.2469 -0.2641 -0.0193
  493SOL     OW 1969   0.195   2.980   0.297  0.7072 -0.7953 -0.2399
  493SOL    HW1 1970   0.135   3.026   0.360 -1.0262 -0.8895 -2.9981
  493SOL    HW2 1971   0.209   3.048   0.236 -1.3326  2.3669 -0.1505
  493SOL     MW 1972   0.189   2.995   0.297  0.2094 -0.3905 -0.5920
  494SOL     OW 1973   0.411   2.456   1.766  0.2819 -0.2066  0.2224
  494SOL    HW1 1974   0.479   2.407   1.808 -0.2069  1.1957 -1.2973
  494SOL    HW2 1975   0.435   2.452   1.674 -1.6858 -0.9056  2.3354
  494SOL     MW 1976   0.423   2.449   1.760 -0.0422 -0.1138  0.3007
  495SOL     OW 1977   2.840   1.745   2.572  0.0070 -0.1023 -0.1300
  495SOL    HW1 1978   2.817   1.840   2.567 -3.7863  2.0842 -0.2007
  495SOL    HW2 1979   2.823   1.736   2.671 -1.7025 -0.2198 -0.5447
  495SOL     MW 1980   2.835   1.756   2.585 -0.7190  0.1707 -0.1940
  496SOL     OW 1981   2.929   2.368   2.669 -0.4243 -0.2404  0.1046
  496SOL    HW1 1982   2.967   2.329   2.747  1.5796  2.9682 -1.9711
  496SOL    HW2 1983   2.995   2.435   2.647  0.0953 -0.5930 -0.6092
  496SOL     MW 1984   2.943   2.371   2.676 -0.0913  0.1364 -0.2634
  497SOL     OW 1985   1.567   2.194   2.644 -0.2782  0.2021  0.6429
  497SOL    HW1 1986   1.473   2.163   2.642 -0.8641 -1.0414  0.5762
  497SOL    HW2 1987   1.608   2.140   2.714 -1.6689 -1.2238  0.9404
  497SOL     MW 1988   1.560   2.183   2.653 -0.5390 -0.1501  0.6733
  498SOL     OW 1989   1.489   2.692   2.383  0.2245 -0.3392 -0.0821
  498SOL    HW1 1990   1.481   2.598   2.397  1.0892 -0.3995 -0.4249
  498SOL    HW2 1991   1.579   2.715   2.400  1.3370  1.5973  0.4683
  498SOL     MW 1992   1.500   2.683   2.387  0.4854 -0.0916 -0.0548
  499SOL     OW 1993   1.005   0.166   3.047 -0.5171 -0.2724  0.4124
  499SOL    HW1 1994   0.926   0.166   3.100  2.6239  0.8418 -2.0065
  499SOL    HW2 1995   1.029   0.078   3.036  0.1454  1.9309  0.3086
  499SOL     MW 1996   0.998   0.154   3.053 -0.0152  0.1653  0.0796
  500SOL     OW 1997   1.049   2.496   2.751 -0.2827  0.0840  0.3999
  500SOL    HW1 1998   1.129   2.461   2.798  1.9902  2.3503 -0.8688
  500SOL    HW2 1999   0.985   2.515   2.817 -2.8931 -2.2128 -0.7997
  500SOL     MW 2000   1.051   2.494   2.766 -0.3272  0.0800  0.0743
  501SOL     OW 2001   1.781   2.201   3.085 -0.1521  0.2721 -0.1106
  501SOL    HW1 2002   1.737   2.273   3.132  0.4526 -0.2581  2.3650
  501SOL    HW2 2003   1.858   2.238   3.050 -1.6283 -0.7365 -0.8992
  501SOL     MW 2004   1.785   2.216   3.087 -0.2671  0.0690  0.1120
  502SOL     OW 2005   0.149   2.811   3.058 -0.2964  0.1851  0.2340
  502SOL    HW1 2006   0.081   2.763   3.013  1.9254  2.4593 -2.2683
  502SOL    HW2 2007   0.184   2.869   2.983  0.3607  0.2751 -1.7568
  502SOL     MW 2008   0.144   2.812   3.043  0.0834  0.4970 -0.3588
  503SOL     OW 2009   0.974   2.857   2.167 -0.1204  0.3343 -0.3229
  503SOL    HW1 2010   0.965   2.807   2.087 -0.8132 -1.5273  3.4124
  503SOL    HW2 2011   1.000   2.945   2.138 -0.4067 -4.1619  1.7189
  503SOL     MW 2012   0.977   2.862   2.152 -0.2496 -0.5046  0.4393
  504SOL     OW 2013   0.042   2.745   2.155  0.2534  0.3544 -0.0104
  504SOL    HW1 2014   0.061   2.657   2.116 -2.5598 -3.3672  0.1172
  504SOL    HW2 2015   0.029   2.742   2.254 -0.1556 -1.2157  2.3812
  504SOL     MW 2016   0.043   2.733   2.163 -0.1718 -0.3438  0.3220
  505SOL     OW 2017   1.713   2.725   2.665  0.4474  0.2867 -0.0952
  505SOL    HW1 2018   1.712   2.774   2.585 -2.7065  0.9994  1.0453
  505SOL    HW2 2019   1.628   2.736   2.712  1.7994  0.2154  1.2038
  505SOL     MW 2020   1.702   2.733   2.660  0.2097  0.3713  0.2267
  506SOL     OW 2021   1.608   3.014   2.812 -0.0283 -0.4592  0.2330
  506SOL    HW1 2022   1.654   2.975   2.888  1.8090 -1.3956 -0.8371
  506SOL    HW2 2023   1.668   3.016   2.735 -1.7590  0.1205 -0.9090
  506SOL     MW 2024   1.622   3.009   2.812 -0.0142 -0.5063 -0.0589
  507SOL     OW 2025   0.837   2.738   2.872 -0.5697  0.3612  0.3773
  507SOL    HW1 2026   0.881   2.800   2.812 -2.5746 -2.5185  2.9515
  507SOL    HW2 2027   0.772   2.797   2.913  2.8702 -0.9643  1.8775
  507SOL     MW 2028   0.834   2.754   2.870 -0.3803 -0.1936  0.9149
  508SOL     OW 2029   1.126   2.034   2.538  0.1396 -0.2916  0.0835
  508SOL    HW1 2030   1.197   2.041   2.602 -1.7476 -2.0440 -0.0060
  508SOL    HW2 2031   1.086   2.121   2.540 -0.3117 -1.8013 -1.1770
  508SOL     MW 2032   1.130   2.047   2.547 -0.1689 -0.7220 -0.0946
  509SOL     OW 2033   0.602   2.552   2.936 -0.5597 -0.1629 -0.6715
  509SOL    HW1 2034   0.610   2.558   2.845 -0.6040 -1.5162 -1.6248
  509SOL    HW2 2035   0.518   2.508   2.944 -0.8255 -2.0569  2.4620
  509SOL     MW 2036   0.592   2.547   2.925 -0.6006 -0.5914 -0.3839
  510SOL     OW 2037   1.511   2.561   1.725 -0.2255 -0.4613 -0.0944
  510SOL    HW1 2038   1.524   2.653   1.705  1.5692  0.2554  0.0578
  510SOL    HW2 2039   1.456   2.564   1.802  2.6200 -0.5866 -0.7158
  510SOL     MW 2040   1.505   2.574   1.732  0.3867 -0.3832 -0.1563
  511SOL     OW 2041   0.380   2.614   2.436 -0.1045  0.0421  0.3938
  511SOL    HW1 2042   0.461   2.581   2.478 -3.4078 -1.6297 -0.9301
  511SOL    HW2 2043   0.384   2.628   2.337  0.0266  0.6036  1.4631
  511SOL     MW 2044   0.392   2.611   2.428 -0.5231 -0.1044  0.3602
  512SOL     OW 2045   1.021   1.985   2.829  0.2544  0.2474  0.3864
  512SOL    HW1 2046   0.926   1.989   2.833  0.2497 -0.3435 -0.0807
  512SOL    HW2 2047   1.050   1.894   2.837  0.4931  0.7166  0.1220
  512SOL     MW 2048   1.012   1.974   2.830  0.2853  0.2314  0.2899
  513SOL     OW 2049   1.443   2.400   2.397  0.0638  0.2468  0.1566
  513SOL    HW1 2050   1.537   2.384   2.373  2.5668 -1.1267  0.9385
  513SOL    HW2 2051   1.423   2.314   2.432 -1.8774 -0.4535 -0.7246
  513SOL     MW 2052   1.453   2.386   2.398  0.1380 -0.0268  0.1435
  514SOL     OW 2053   0.239   2.437   2.613 -0.4174 -0.2230 -0.0490
  514SOL    HW1 2054   0.311   2.487   2.577  2.0011 -0.8131 -0.9176
  514SOL    HW2 2055   0.240   2.441   2.713 -1.8718  0.1919 -0.4363
  514SOL     MW 2056   0.248   2.444   2.622 -0.2902 -0.2461 -0.2147
  515SOL     OW 2057   1.100   2.028   1.960  0.1880 -0.0320 -0.4637
  515SOL    HW1 2058   1.054   2.112   1.951  1.5349 -2.9905  1.6492
  515SOL    HW2 2059   1.183   2.034   2.015  2.7585  0.1138 -1.4513
  515SOL     MW 2060   1.105   2.040   1.966  0.7049 -0.4031 -0.3153
  516SOL     OW 2061   1.464   2.527   3.064  0.1974  0.2848 -0.3595
  516SOL    HW1 2062   1.537   2.501   3.005 -4.3471 -0.3801 -2.4584
  516SOL    HW2 2063   1.384   2.490   3.021 -3.0260 -0.5777 -1.7777
  516SOL     MW 2064   1.463   2.519   3.051 -0.8275  0.0833 -0.8235
  517SOL     OW 2065   0.597   2.406   2.132 -0.2058  0.1684 -0.0663
  517SOL    HW1 2066   0.570   2.497   2.155  0.7687 -3.2007 -2.7363
  517SOL    HW2 2067   0.530   2.356   2.089 -0.3360 -1.6843 -1.9707
  517SOL     MW 2068   0.584   2.411   2.129 -0.0944 -0.5206 -0.6698
  518SOL     OW 2069   1.891   0.090   2.953 -0.1805 -0.1214  0.2463
  518SOL    HW1 2070   1.861   0.159   2.894  0.3208  0.5485  0.9010
  518SOL    HW2 2071   1.844   0.110   3.037 -2.0436  2.3888 -1.0960
  518SOL     MW 2072   1.881   0.102   2.956 -0.3602  0.2982  0.1556
  519SOL     OW 2073   0.741   2.577   1.758 -0.5104  0.1402  0.0080
  519SOL    HW1 2074   0.714   2.491   1.788  1.4516 -2.7869  4.5745
  519SOL    HW2 2075   0.674   2.637   1.787  0.0920  1.7007  1.7075
  519SOL     MW 2076   0.729   2.573   1.766 -0.1721 -0.0401  0.8347
  520SOL     OW 2077   1.235   2.120   2.920 -0.5971  0.3542 -0.4690
  520SOL    HW1 2078   1.151   2.078   2.893 -0.2498  0.2283 -0.7333
  520SOL    HW2 2079   1.259   2.081   3.001 -2.3186  1.6482 -0.9564
  520SOL     MW 2080   1.227   2.109   2.927 -0.7784  0.5083 -0.5682
  521SOL     OW 2081   1.733   2.033   2.229  0.3102 -0.2362 -0.3324
  521SOL    HW1 2082   1.778   2.067   2.151  0.7285 -0.2230 -0.3707
  521SOL    HW2 2083   1.734   1.939   2.234 -0.8082  0.3179 -0.0957
  521SOL     MW 2084   1.739   2.025   2.219  0.2178 -0.1614 -0.3062
  522SOL     OW 2085   2.823   2.555   2.179 -0.0575  0.6686  0.4004
  522SOL    HW1 2086   2.901   2.534   2.222 -2.2632 -0.7036 -1.0292
  522SOL    HW2 2087   2.756   2.567   2.242  1.0953  0.9181  1.8443
  522SOL     MW 2088   2.825   2.554   2.193 -0.1964  0.5205  0.4023
  523SOL     OW 2089   0.848   1.486   2.122 -0.7139  0.2568  0.3220
  523SOL    HW1 2090   0.854   1.559   2.056 -0.9494 -1.8823 -0.8255
  523SOL    HW2 2091   0.913   1.417   2.090 -1.3374 -1.8141  0.7507
  523SOL     MW 2092   0.858   1.486   2.109 -0.8272 -0.2986  0.2271
  524SOL     OW 2093   0.879   2.471   2.962 -0.5197 -0.0974  0.3777
  524SOL    HW1 2094   0.810   2.540   2.942 -0.0200  1.0390  1.4042
  524SOL    HW2 2095   0.847   2.384   2.940 -0.0348 -0.6856  1.7694
  524SOL     MW 2096   0.866   2.469   2.957 -0.3898 -0.0251  0.6968
  525SOL     OW 2097   0.355   2.271   2.067  0.4170  0.7765 -0.6805
  525SOL    HW1 2098   0.339   2.235   2.161 -1.5541 -0.2893  0.8250
  525SOL    HW2 2099   0.336   2.193   2.007  0.2265  0.4633 -0.0657
  525SOL     MW 2100   0.350   2.256   2.071  0.1318  0.5946 -0.4007
  526SOL     OW 2101   0.644   2.091   2.042  0.0328  0.5118  0.4071
  526SOL    HW1 2102   0.615   2.142   1.969  0.9891  0.4206  2.5190
  526SOL    HW2 2103   0.608   2.135   2.116  0.6176  3.0039  0.1127
  526SOL     MW 2104   0.636   2.104   2.042  0.2361  0.8286  0.6469
  527SOL     OW 2105   1.378   1.964   2.057  0.7292  0.6245  1.0311
  527SOL    HW1 2106   1.379   1.931   2.147 -0.0810 -5.2421  0.5847
  527SOL    HW2 2107   1.425   1.889   2.013  0.2294  2.0749 -2.3416
  527SOL     MW 2108   1.384   1.950   2.063  0.5564  0.0418  0.5272
  528SOL     OW 2109   0.650   2.930   2.945  0.0587  0.2493  0.4317
  528SOL    HW1 2110   0.702   3.007   2.935 -0.7227 -0.7208 -0.0372
  528SOL    HW2 2111   0.594   2.916   2.870 -2.0859  0.7431  0.8618
  528SOL     MW 2112   0.650   2.939   2.934 -0.3274  0.1865  0.4266
  529SOL     OW 2113   0.947   2.262   1.938  0.6597  0.0737  0.3222
  529SOL    HW1 2114   0.966   2.296   2.026 -1.8643  1.1612  1.3586
  529SOL    HW2 2115   0.987   2.322   1.878 -1.5704 -2.6419  0.4431
  529SOL     MW 2116   0.954   2.274   1.942  0.0325 -0.1411  0.4749
  530SOL     OW 2117   1.228   2.412   2.984  0.2545 -0.3252 -0.1062
  530SOL    HW1 2118   1.167   2.452   3.052  1.9568  0.7743 -1.8396
  530SOL    HW2 2119   1.231   2.317   2.991  1.8677  0.4064 -1.2884
  530SOL     MW 2120   1.220   2.405   2.994  0.6920 -0.0836 -0.4909
  531SOL     OW 2121   0.924   1.853   2.563  0.1093  0.0916  0.5480
  531SOL    HW1 2122   0.999   1.911   2.560  1.9770  0.4249 -4.2450
  531SOL    HW2 2123   0.880   1.873   2.644  0.5635 -1.0866 -3.7545
  531SOL     MW 2124   0.928   1.864   2.573  0.4157 -0.0198 -0.6520
  532SOL     OW 2125   1.778   0.268   2.768 -0.5487 -0.7282  0.1816
  532SOL    HW1 2126   1.697   0.211   2.773 -1.4424 -2.3038  1.5968
  532SOL    HW2 2127   1.838   0.229   2.698 -1.4103 -1.6549 -0.3357
  532SOL     MW 2128   1.775   0.256   2.760 -0.7803 -1.0584  0.3001
  533SOL     OW 2129   1.901   2.615   3.090  0.6675 -0.9943  0.9031
  533SOL    HW1 2130   1.831   2.577   3.146 -1.4616  1.8564  0.6183
  533SOL    HW2 2131   1.853   2.681   3.038 -1.8026  0.2275 -3.2021
  533SOL     MW 2132   1.885   2.619   3.090  0.0607 -0.4569  0.3239
  534SOL     OW 2133   1.723   2.381   2.476 -0.6541 -0.3587 -0.1129
  534SOL    HW1 2134   1.693   2.300   2.520  1.2428 -0.0258  0.2157
  534SOL    HW2 2135   1.800   2.415   2.529  1.7432  2.2828 -1.0552
  534SOL     MW 2136   1.730   2.375   2.489 -0.0875  0.0338 -0.1939
  535SOL     OW 2137   1.892   2.415   1.873  0.3588 -0.0057 -0.5758
  535SOL    HW1 2138   1.854   2.382   1.792  0.0125 -0.8264 -0.4169
  535SOL    HW2 2139   1.983   2.389   1.858 -0.4931  0.7543 -2.2557
  535SOL     MW 2140   1.899   2.407   1.860  0.2007 -0.0137 -0.7765
  536SOL     OW 2141   0.518   1.856   2.104 -0.8541 -0.2673  0.3779
  536SOL    HW1 2142   0.492   1.799   2.027 -0.1236 -0.3980  1.9788
  536SOL    HW2 2143   0.552   1.937   2.065 -1.7926 -2.4220  3.2945
  536SOL     MW 2144   0.519   1.859   2.089 -0.8816 -0.5688  0.9740
  537SOL     OW 2145   1.081   0.241   2.781  0.0462  0.5932  0.0682
  537SOL    HW1 2146   1.065   0.280   2.865 -0.5080 -0.6312 -1.8111
  537SOL    HW2 2147   1.068   0.317   2.716 -0.7279  0.7877 -1.2170
  537SOL     MW 2148   1.077   0.257   2.783 -0.1291  0.4573 -0.3493
  538SOL     OW 2149   1.435   0.060   0.053 -0.1272 -0.3616  0.2901
  538SOL    HW1 2150   1.421   0.155   0.044 -2.1641 -0.6298  1.9063
  538SOL    HW2 2151   1.346   0.036   0.066 -1.4764 -0.1551  2.6806
  538SOL     MW 2152   1.421   0.069   0.054 -0.5740 -0.3697  0.8188
  539SOL     OW 2153   0.680   2.790   2.573 -0.0583 -0.3488  0.6676
  539SOL    HW1 2154   0.728   2.861   2.617  0.8225  1.5521 -0.8731
  539SOL    HW2 2155   0.704   2.702   2.611 -0.2127 -2.5642 -0.5283
  539SOL     MW 2156   0.690   2.788   2.584  0.0376 -0.3903  0.3065
  540SOL     OW 2157   0.247   2.475   2.902  0.3078 -0.1288 -0.0899
  540SOL    HW1 2158   0.292   2.534   2.968 -0.8713 -1.5255  1.6803
  540SOL    HW2 2159   0.239   2.388   2.951 -1.9484  0.4882 -1.7894
  540SOL     MW 2160   0.252   2.471   2.917 -0.1454 -0.2317 -0.0806
  541SOL     OW 2161   0.236   2.940   2.132  0.5891  0.4084  0.2199
  541SOL    HW1 2162   0.172   2.873   2.115  0.7726  1.7676  1.6192
  541SOL    HW2 2163   0.290   2.907   2.208  1.5677 -0.1897  2.6226
  541SOL     MW 2164   0.235   2.927   2.140  0.7424  0.5088  0.7215
  542SOL     OW 2165   0.989   2.261   2.604 -0.4028  0.1345 -0.6417
  542SOL    HW1 2166   0.931   2.224   2.669  0.9131 -0.4174 -1.6155
  542SOL    HW2 2167   1.027   2.343   2.651  0.4375  1.3529 -0.8542
  542SOL     MW 2168   0.986   2.267   2.619 -0.1183  0.2224 -0.7982
  543SOL     OW 2169   1.614   2.441   2.803 -0.4289 -0.4973  0.2621
  543SOL    HW1 2170   1.618   2.362   2.745 -0.3228  2.2205 -0.7462
  543SOL    HW2 2171   1.650   2.501   2.741 -2.8258  1.0376  0.4735
  543SOL     MW 2172   1.619   2.439   2.787 -0.7311  0.0638  0.1570
  544SOL     OW 2173   0.710   0.270   2.699 -0.2468  0.3303  0.1338
  544SOL    HW1 2174   0.616   0.254   2.721  0.7064  1.3764  1.9303
  544SOL    HW2 2175   0.737   0.220   2.623  0.0454  3.6286 -0.4049
  544SOL     MW 2176   0.701   0.261   2.692 -0.0825  0.9035  0.2997
  545SOL     OW 2177   1.486   2.126   2.323 -0.1448 -0.0006  0.0306
  545SOL    HW1 2178   1.447   2.141   2.236 -0.9970  0.5670  0.5484
  545SOL    HW2 2179   1.585   2.105   2.314 -0.2049 -1.6505 -0.5822
  545SOL     MW 2180   1.494   2.125   2.311 -0.2652 -0.1434  0.0180
  546SOL     OW 2181   2.875   1.957   0.105  0.5651 -0.5517  0.2214
  546SOL    HW1 2182   2.884   2.041   0.062 -0.8374  1.1393  1.9762
  546SOL    HW2 2183   2.971   1.929   0.093 -1.3848 -2.8617  2.3777
  546SOL     MW 2184   2.889   1.965   0.097  0.1228 -0.6334  0.7374
  547SOL     OW 2185   0.220   0.061   0.082 -0.0571  0.1661  0.3745
  547SOL    HW1 2186   0.292   0.058   0.023  0.4713  1.7871 -1.4572
  547SOL    HW2 2187   0.145   0.005   0.055 -0.9440  0.3705 -0.8570
  547SOL     MW 2188   0.219   0.053   0.071 -0.1044  0.4070 -0.0296
  548SOL     OW 2189   0.314   2.483   0.215 -0.2241  0.6328  0.4933
  548SOL    HW1 2190   0.305   2.550   0.146  0.1831  0.4027 -0.6090
  548SOL    HW2 2191   0.244   2.424   0.199  4.1221  0.9807  2.4455
  548SOL     MW 2192   0.304   2.484   0.204  0.4031  0.6483  0.6055
  549SOL     OW 2193   0.864   1.922   2.113 -0.4161  0.5435 -0.5141
  549SOL    HW1 2194   0.806   1.977   2.064  1.2762 -2.4902  0.4204
  549SOL    HW2 2195   0.829   1.917   2.201 -0.5387 -1.0327  2.0188
  549SOL     MW 2196   0.852   1.928   2.118 -0.2090 -0.0647 -0.0566
  550SOL     OW 2197   1.910   1.722   2.508 -0.4957 -0.4373 -0.2355
  550SOL    HW1 2198   1.869   1.724   2.421 -0.0775 -3.1447  1.3597
  550SOL    HW2 2199   1.861   1.781   2.569  2.4274 -0.4716 -1.5657
  550SOL     MW 2200   1.898   1.730   2.504 -0.0549 -0.7991 -0.2005
  551SOL     OW 2201   0.901   2.216   0.243  0.4076 -0.0589 -0.3718
  551SOL    HW1 2202   0.995   2.222   0.231 -3.0714 -0.4545 -1.3492
  551SOL    HW2 2203   0.881   2.162   0.168  3.9661  0.5085 -2.9011
  551SOL     MW 2204   0.911   2.209   0.232  0.4181 -0.0362 -0.8345
  552SOL     OW 2205   1.737   1.746   2.257  0.2379 -0.7839 -0.6912
  552SOL    HW1 2206   1.658   1.705   2.260  4.2748 -1.5957 -1.5554
  552SOL    HW2 2207   1.798   1.689   2.207 -1.3129  0.5850  0.1000
  552SOL     MW 2208   1.735   1.733   2.251  0.5659 -0.7104 -0.7008
  553SOL     OW 2209   1.213   2.319   1.539  0.5032  0.3871 -0.0363
  553SOL    HW1 2210   1.248   2.226   1.536 -0.5401 -0.3395  0.7363
  553SOL    HW2 2211   1.283   2.372   1.506  0.5426 -0.0734  1.7153
  553SOL     MW 2212   1.227   2.314   1.535  0.3708  0.2305  0.2968
  554SOL     OW 2213   0.488   2.921   2.712  0.1546  0.7828 -0.4236
  554SOL    HW1 2214   0.479   2.994   2.653 -3.5870 -2.2601 -0.2026
  554SOL    HW2 2215   0.538   2.854   2.664 -0.3826 -0.5349  0.4105
  554SOL     MW 2216   0.493   2.922   2.698 -0.4099  0.2075 -0.2844
  555SOL     OW 2217   0.590   2.503   2.617  1.0778  0.8757  0.5294
  555SOL    HW1 2218   0.548   2.414   2.636  0.1942  0.0330  0.0697
  555SOL    HW2 2219   0.672   2.487   2.569 -2.6797  1.5976 -0.7490
  555SOL     MW 2220   0.596   2.489   2.613  0.4654  0.8597  0.3001
  556SOL     OW 2221   1.067   1.876   0.057  0.1081 -0.4663  0.5233
  556SOL    HW1 2222   1.076   1.827  -0.025 -3.2083  0.5732 -0.3844
  556SOL    HW2 2223   1.145   1.874   0.108  0.8370  0.7431 -1.8997
  556SOL     MW 2224   1.078   1.869   0.053 -0.2333 -0.1696  0.0838
  557SOL     OW 2225   1.042   2.730   0.545  0.4235 -0.0255  0.2884
  557SOL    HW1 2226   1.058   2.657   0.482 -3.2034  3.6415  0.6572
  557SOL    HW2 2227   1.004   2.803   0.492 -1.2264 -0.4952  1.1410
  557SOL     MW 2228   1.039   2.730   0.529 -0.2727  0.3964  0.4496
  558SOL     OW 2229   0.195   2.222   3.050  0.3423  0.1021 -0.0795
  558SOL    HW1 2230   0.111   2.210   3.004 -0.7678 -2.5005 -1.1463
  558SOL    HW2 2231   0.173   2.252   3.138 -0.2389  3.1329  2.1175
  558SOL     MW 2232   0.181   2.225   3.056  0.1191  0.1586  0.0696
  559SOL     OW 2233   1.069   2.361   2.159  0.0820 -0.0413  1.0606
  559SOL    HW1 2234   1.161   2.379   2.162 -0.3742  0.8821  0.4728
  559SOL    HW2 2235   1.062   2.269   2.196  1.5636 -0.5018 -2.0759
  559SOL     MW 2236   1.080   2.351   2.164  0.2173  0.0198  0.5692
  560SOL     OW 2237   2.118   2.671   0.162  0.7229  0.0676  0.2472
  560SOL    HW1 2238   2.151   2.751   0.115 -0.7203 -0.4310 -0.9213
  560SOL    HW2 2239   2.044   2.633   0.112  1.6086 -3.3659  2.3963
  560SOL     MW 2240   2.113   2.676   0.149  0.6493 -0.4512  0.3766
  561SOL     OW 2241   0.501   2.169   0.150 -0.0656  0.0792  1.3794
  561SOL    HW1 2242   0.502   2.173   0.054 -1.5438 -0.2359  1.6276
  561SOL    HW2 2243   0.538   2.260   0.169  0.9839 -1.4785 -0.3938
  561SOL     MW 2244   0.506   2.182   0.140 -0.1222 -0.1679  1.1782
  562SOL     OW 2245   0.694   2.260   2.363  0.2091  0.9108  0.1930
  562SOL    HW1 2246   0.678   2.276   2.273 -0.7510 -1.1505  1.7023
  562SOL    HW2 2247   0.731   2.333   2.417  1.1952  1.3733  1.7098
  562SOL     MW 2248   0.697   2.272   2.359  0.2126  0.6999  0.5922
  563SOL     OW 2249   1.230   0.386   0.571 -0.5288  0.5071  0.4782
  563SOL    HW1 2250   1.178   0.338   0.508  3.1475 -0.7646 -1.1327
  563SOL    HW2 2251   1.211   0.351   0.658 -1.2534 -1.9295  4.6786
  563SOL     MW 2252   1.220   0.375   0.574 -0.1393  0.0179  0.8198
  564SOL     OW 2253   1.026   2.656   2.362  0.0668  0.7050  0.5761
  564SOL    HW1 2254   1.015   2.725   2.290 -1.2194  0.6394 -1.6467
  564SOL    HW2 2255   1.050   2.688   2.449 -0.1159  0.0831 -0.4754
  564SOL     MW 2256   1.028   2.669   2.364 -0.1270  0.6143  0.1441
  565SOL     OW 2257   2.762   2.837   2.554  0.0345 -0.5103  0.6009
  565SOL    HW1 2258   2.759   2.916   2.498 -3.3526  0.1938  1.3601
  565SOL    HW2 2259   2.729   2.753   2.509  1.1349 -0.4169  0.6916
  565SOL     MW 2260   2.757   2.836   2.541 -0.2672 -0.4050  0.7130
  566SOL     OW 2261   2.191   1.958   2.354  0.4371  0.0097 -0.3387
  566SOL    HW1 2262   2.208   1.925   2.270  1.0500 -0.0558  1.6861
  566SOL    HW2 2263   2.267   2.015   2.361 -3.7063  1.6853  1.5898
  566SOL     MW 2264   2.203   1.961   2.344 -0.0287  0.2221  0.1829
  567SOL     OW 2265   1.194   3.022   0.042 -0.3917  1.0641 -0.2877
  567SOL    HW1 2266   1.157   3.041   0.127 -0.0969  0.8796 -1.1236
  567SOL    HW2 2267   1.230   2.931   0.048 -1.7384 -1.6844  0.5851
  567SOL     MW 2268   1.194   3.013   0.054 -0.5305  0.6771 -0.2829
  568SOL     OW 2269   1.656   2.048   2.852 -0.2248 -0.3126 -0.7472
  568SOL    HW1 2270   1.717   2.109   2.903 -1.2077 -0.8636  0.7797
  568SOL    HW2 2271   1.724   1.994   2.800  1.1606  0.1240 -1.9155
  568SOL     MW 2272   1.673   2.049   2.852 -0.1717 -0.3277 -0.6999
  569SOL     OW 2273   0.112   2.258   2.440 -0.4160 -0.2228  0.1596
  569SOL    HW1 2274   0.040   2.287   2.380  3.0319 -0.3831 -2.0316
  569SOL    HW2 2275   0.156   2.336   2.470 -1.3444 -2.1648 -2.6674
  569SOL     MW 2276   0.108   2.272   2.436 -0.0836 -0.5002 -0.5025
  570SOL     OW 2277   1.487   0.337   0.480  0.3789 -0.2130 -0.4171
  570SOL    HW1 2278   1.402   0.362   0.512 -1.7862  1.4857 -2.4926
  570SOL    HW2 2279   1.550   0.382   0.534  1.2377 -2.3911 -2.9546
  570SOL     MW 2280   1.484   0.346   0.491  0.2066 -0.2763 -1.0257
  571SOL     OW 2281   1.337   2.381   2.142 -0.0679 -0.1078  0.1283
  571SOL    HW1 2282   1.374   2.395   2.234  1.4601  2.7224 -0.9548
  571SOL    HW2 2283   1.408   2.337   2.090 -0.8758  1.0112 -1.0487
  571SOL     MW 2284   1.351   2.377   2.147  0.0271  0.4133 -0.1699
  572SOL     OW 2285   1.068   2.568   0.079  0.2882  0.0995  0.0227
  572SOL    HW1 2286   1.069   2.673   0.064  0.0825  2.3673 -1.4819
  572SOL    HW2 2287   0.971   2.546   0.093  1.5265  0.4542  2.3561
  572SOL     MW 2288   1.055   2.579   0.079  0.4245  0.4455  0.1320
  573SOL     OW 2289   1.178   2.259   0.228  0.5578  0.5474  0.6215
  573SOL    HW1 2290   1.261   2.275   0.183  1.6174 -2.5776  1.3768
  573SOL    HW2 2291   1.168   2.346   0.275 -0.6776  1.4041  0.3679
  573SOL     MW 2292   1.188   2.273   0.228  0.5346  0.2482  0.6877
  574SOL     OW 2293   1.150   2.503   0.334  0.2760 -0.0061  0.2557
  574SOL    HW1 2294   1.223   2.568   0.328  3.1639  2.6735  2.1412
  574SOL    HW2 2295   1.112   2.515   0.241  0.2469  1.6202  3.4882
  574SOL     MW 2296   1.154   2.513   0.321  0.6532  0.5620  0.9309
  575SOL     OW 2297   3.069   2.195   1.638  0.1505  0.3218 -0.6439
  575SOL    HW1 2298   3.092   2.116   1.589  0.5160 -0.0906 -0.6634
  575SOL    HW2 2299   3.149   2.223   1.682 -0.7696  0.1434  3.1376
  575SOL     MW 2300   3.083   2.188   1.637  0.0773  0.2439 -0.1475
  576SOL     OW 2301   2.869   1.878   1.963  0.1794 -0.0946 -0.2713
  576SOL    HW1 2302   2.868   1.952   1.905  0.4626  0.0649  0.6036
  576SOL    HW2 2303   2.801   1.819   1.915 -2.6512 -1.3415 -1.8238
  576SOL     MW 2304   2.860   1.880   1.949 -0.1567 -0.2381 -0.3607
  577SOL     OW 2305   2.112   0.163   0.002 -0.3255 -0.7815  0.3998
  577SOL    HW1 2306   2.045   0.144  -0.067 -1.0265  0.0988 -2.1852
  577SOL    HW2 2307   2.080   0.129   0.084  3.6270 -1.0710 -1.4625
  577SOL     MW 2308   2.099   0.156   0.004  0.1035 -0.7036 -0.1870
  578SOL     OW 2309   1.977   2.141   2.380  0.2585  0.0135 -0.1546
  578SOL    HW1 2310   1.889   2.104   2.361  0.8447  2.8686 -1.7499
  578SOL    HW2 2311   2.051   2.087   2.342  1.5580  1.1157  1.5569
  578SOL     MW 2312   1.975   2.129   2.372  0.5073  0.5356 -0.1393
  579SOL     OW 2313   0.843   2.448   2.465 -0.6699  0.1917  0.0816
  579SOL    HW1 2314   0.902   2.384   2.500  0.9937  1.0325 -1.5300
  579SOL    HW2 2315   0.883   2.510   2.406 -0.1799 -2.3697 -1.3596
  579SOL     MW 2316   0.856   2.447   2.462 -0.3857 -0.0353 -0.3212
  580SOL     OW 2317   0.968   2.857   3.079  0.1442  0.2701 -0.1909
  580SOL    HW1 2318   1.058   2.887   3.056  1.3210  0.1881  2.7109
  580SOL    HW2 2319   0.923   2.812   3.007 -1.0781  0.1575  0.3720
  580SOL     MW 2320   0.974   2.855   3.067  0.1382  0.2445  0.2662
  581SOL     OW 2321   1.123   2.436   1.770 -0.1607  0.1843  0.3223
  581SOL    HW1 2322   1.192   2.465   1.828  1.8460  0.3402  0.2893
  581SOL    HW2 2323   1.169   2.391   1.702  1.5239  0.5189 -1.0722
  581SOL     MW 2324   1.138   2.434   1.769  0.3263  0.2490  0.1339
  582SOL     OW 2325   3.094   2.925   2.657 -0.4930  0.9314 -0.0667
  582SOL    HW1 2326   3.013   2.953   2.701  1.6712 -0.3847  0.1352
  582SOL    HW2 2327   3.158   2.987   2.686 -0.0061 -0.0849  0.7404
  582SOL     MW 2328   3.091   2.937   2.667 -0.1432  0.6237  0.0664
  583SOL     OW 2329   1.968   2.402   2.620 -0.3167  0.6480  0.2163
  583SOL    HW1 2330   2.038   2.432   2.561 -0.7091 -0.8737  1.8498
  583SOL    HW2 2331   1.982   2.309   2.623 -0.0330 -0.6073  0.7350
  583SOL     MW 2332   1.979   2.394   2.613 -0.3310  0.2816  0.5003
  584SOL     OW 2333   0.153   1.889   2.196  0.4589 -0.1834 -0.1237
  584SOL    HW1 2334   0.172   1.840   2.275  1.2663  4.0248 -0.1216
  584SOL    HW2 2335   0.181   1.979   2.221  0.0936  0.4033  1.1847
  584SOL     MW 2336   0.159   1.894   2.210  0.5172  0.4493  0.0492
  585SOL     OW 2337   1.552   2.710   0.170 -0.3784  0.1097  0.2128
  585SOL    HW1 2338   1.531   2.683   0.083  2.1911 -0.7526  0.4415
  585SOL    HW2 2339   1.466   2.730   0.212 -0.7260 -0.6738 -1.5456
  585SOL     MW 2340   1.538   2.709   0.164 -0.0852 -0.1075  0.0110
  586SOL     OW 2341   1.340   2.813   2.563  0.1092 -0.1860 -0.4095
  586SOL    HW1 2342   1.387   2.775   2.485 -0.4692  0.0755 -1.6138
  586SOL    HW2 2343   1.365   2.903   2.555  1.4363  3.0231 -0.5928
  586SOL     MW 2344   1.349   2.819   2.552  0.2079  0.2719 -0.5926
  587SOL     OW 2345   1.344   1.448   2.170 -0.1948 -0.2585  0.3794
  587SOL    HW1 2346   1.318   1.394   2.242 -0.0107  1.0849  0.1391
  587SOL    HW2 2347   1.340   1.389   2.096 -0.4382 -1.3756 -1.9173
  587SOL     MW 2348   1.340   1.433   2.170 -0.2026 -0.2286  0.0447
  588SOL     OW 2349   1.357   2.007   2.700 -0.0414  0.2746  0.2846
  588SOL    HW1 2350   1.401   1.920   2.696 -0.7648 -0.4758  1.1860
  588SOL    HW2 2351   1.325   2.024   2.789 -3.9481  0.7333  0.5808
  588SOL     MW 2352   1.359   1.998   2.712 -0.6523  0.2361  0.4426
  589SOL     OW 2353   1.400   2.032   0.054 -1.0119 -0.1217  0.0954
  589SOL    HW1 2354   1.407   2.132   0.075 -1.3323  1.9361 -0.7793
  589SOL    HW2 2355   1.374   1.994   0.137  1.0533 -0.2066  0.0971
  589SOL     MW 2356   1.398   2.040   0.068 -0.7817  0.1386 -0.0198
  590SOL     OW 2357   0.534   2.663   2.177 -0.3652  0.2289 -0.1938
  590SOL    HW1 2358   0.516   2.679   2.083  0.0186 -0.6023 -2.8285
  590SOL    HW2 2359   0.605   2.717   2.212  0.6075 -0.7042 -0.3149
  590SOL     MW 2360   0.541   2.672   2.169 -0.1862 -0.0039 -0.5574
  591SOL     OW 2361   2.224   0.683   0.141 -0.3876 -0.3092  0.3218
  591SOL    HW1 2362   2.151   0.721   0.199 -3.7353  1.1739  3.2328
  591SOL    HW2 2363   2.202   0.727   0.063  1.5194  0.6423  0.9466
  591SOL     MW 2364   2.211   0.694   0.138 -0.5777  0.0120  0.7883
  592SOL     OW 2365   1.663   2.932   0.817 -0.3594 -0.2713 -0.4103
  592SOL    HW1 2366   1.650   3.024   0.810  0.4196 -1.2756  2.0190
  592SOL    HW2 2367   1.757   2.919   0.838  1.4741 -0.3201 -0.3013
  592SOL     MW 2368   1.674   2.942   0.819 -0.0147 -0.4102 -0.0754
  593SOL     OW 2369   1.937   0.716   0.773 -0.1931  0.5447 -0.5635
  593SOL    HW1 2370   1.859   0.719   0.710 -1.9029 -1.7766 -1.7905
  593SOL    HW2 2371   1.968   0.625   0.756 -3.2083 -1.0065 -0.5837
  593SOL     MW 2372   1.931   0.705   0.762 -0.8165  0.0338 -0.7281
  594SOL     OW 2373   2.799   1.022   1.417  0.0946 -0.8296  0.1324
  594SOL    HW1 2374   2.880   1.068   1.397 -0.5112 -3.4569 -2.9396
  594SOL    HW2 2375   2.755   0.994   1.335  0.2227  1.6693  0.4596
  594SOL     MW 2376   2.803   1.024   1.404  0.0315 -0.8466 -0.2298
  595SOL     OW 2377   0.520   0.918   0.836  0.4289 -0.2694 -0.1868
  595SOL    HW1 2378   0.475   0.971   0.772 -2.0168  0.2447  1.4925
  595SOL    HW2 2379   0.576   0.975   0.895  2.2789 -0.8126  1.7251
  595SOL     MW 2380   0.521   0.932   0.835  0.3503 -0.2733  0.2870
  596SOL     OW 2381   2.467   1.368   0.495  0.1711  0.2815  0.0240
  596SOL    HW1 2382   2.443   1.452   0.458 -2.5093 -2.0250 -1.3434
  596SOL    HW2 2383   2.522   1.393   0.570 -0.7122  1.0672  0.9311
  596SOL     MW 2384   2.471   1.383   0.500 -0.2991  0.0808 -0.0368
  597SOL     OW 2385   2.251   0.626   1.574 -0.3138  0.5257  0.1243
  597SOL    HW1 2386   2.285   0.557   1.628 -1.1377  3.1412 -1.4990
  597SOL    HW2 2387   2.161   0.594   1.536 -0.9531 -0.7702 -0.2421
  597SOL     MW 2388   2.243   0.612   1.576 -0.5069  0.6998 -0.1382
  598SOL     OW 2389   2.594   1.036   2.898 -0.0733  0.0069 -0.2470
  598SOL    HW1 2390   2.637   0.952   2.904  1.3728  1.7392  1.5163
  598SOL    HW2 2391   2.660   1.102   2.890 -1.3417 -1.2497  1.1962
  598SOL     MW 2392   2.608   1.034   2.897 -0.0499  0.0697  0.1761
  599SOL     OW 2393   3.086   0.442   2.270 -0.0981  0.6082  0.1404
  599SOL    HW1 2394   3.147   0.482   2.326  3.2607  2.0428  1.7816
  599SOL    HW2 2395   3.074   0.509   2.203  0.2609  3.9155  0.8117
  599SOL     MW 2396   3.092   0.456   2.268  0.3924  1.2339  0.4455
  600SOL     OW 2397   1.840   1.718   0.829 -0.3293 -0.0095  0.0900
  600SOL    HW1 2398   1.880   1.764   0.902 -1.8312 -1.6619 -0.1027
  600SOL    HW2 2399   1.759   1.770   0.815 -0.4139 -0.2994  0.0088
  600SOL     MW 2400   1.835   1.731   0.837 -0.5386 -0.2658  0.0539
  601SOL     OW 2401   2.555   0.751   0.832 -0.0504  0.4721  0.5418
  601SOL    HW1 2402   2.534   0.729   0.920  2.5499  1.3438 -0.7888
  601SOL    HW2 2403   2.502   0.695   0.775 -1.8968  1.4222 -2.0430
  601SOL     MW 2404   2.545   0.740   0.836  0.0490  0.7125  0.0252
  602SOL     OW 2405   2.258   1.894   0.757  0.1144  0.2351  0.5517
  602SOL    HW1 2406   2.192   1.826   0.727 -0.7022 -3.2086 -0.7390
  602SOL    HW2 2407   2.212   1.973   0.748 -1.0459  1.2224 -1.3343
  602SOL     MW 2408   2.243   1.896   0.752 -0.1464 -0.0890  0.1325
  603SOL     OW 2409   2.975   1.376   1.959  0.5778 -0.5696  0.4246
  603SOL    HW1 2410   2.983   1.422   2.045 -0.2566  1.9762 -2.3062
  603SOL    HW2 2411   3.025   1.302   1.977 -1.6275  0.9373 -0.1169
  603SOL     MW 2412   2.983   1.372   1.973  0.1767 -0.0349 -0.0071
  604SOL     OW 2413   2.026   1.363   0.374 -0.0095 -0.2141 -0.8723
  604SOL    HW1 2414   2.088   1.331   0.444 -1.2750 -0.0815 -0.6751
  604SOL    HW2 2415   1.957   1.405   0.426  1.6508  0.9065  1.4386
  604SOL     MW 2416   2.025   1.365   0.390  0.0426 -0.0487 -0.5414
  605SOL     OW 2417   2.423   1.443   0.799  0.1883 -0.1160 -0.0202
  605SOL    HW1 2418   2.420   1.509   0.731  2.2911  0.1128  0.6363
  605SOL    HW2 2419   2.477   1.372   0.762  0.6841 -0.7250  0.1196
  605SOL     MW 2420   2.430   1.443   0.785  0.5312 -0.1662  0.0849
  606SOL     OW 2421   2.684   1.740   1.807  0.7783  0.6208  0.1655
  606SOL    HW1 2422   2.615   1.800   1.779  0.3944  0.2886  0.9868
  606SOL    HW2 2423   2.635   1.650   1.803  0.9366 -1.4952 -0.8536
  606SOL     MW 2424   2.669   1.736   1.803  0.7485  0.2978  0.1394
  607SOL     OW 2425   2.383   0.968   3.068  0.1515 -0.4724  0.3758
  607SOL    HW1 2426   2.457   1.014   3.026 -0.9098  0.3588 -0.6944
  607SOL    HW2 2427   2.406   0.986   3.163  1.2108 -0.5696 -1.4519
  607SOL     MW 2428   2.396   0.976   3.075  0.1512 -0.3755 -0.0066
  608SOL     OW 2429   1.867   0.246   0.524 -0.0366  0.3319 -0.1720
  608SOL    HW1 2430   1.892   0.252   0.435 -0.5843 -0.9296 -1.8309
  608SOL    HW2 2431   1.822   0.156   0.532  0.1720 -1.1479 -2.0871
  608SOL     MW 2432   1.864   0.235   0.513 -0.0813 -0.0298 -0.6436
  609SOL     OW 2433   2.123   1.879   3.070  0.2574  0.0054 -0.5906
  609SOL    HW1 2434   2.047   1.829   3.032 -0.4408  1.2081  0.7301
  609SOL    HW2 2435   2.106   1.866   3.162 -0.4053  0.4801 -0.7197
  609SOL     MW 2436   2.111   1.871   3.077  0.0778  0.2267 -0.4334
  610SOL     OW 2437   1.836   0.930   1.222 -0.3497  0.4699 -0.0760
  610SOL    HW1 2438   1.865   0.870   1.156 -0.1893  1.4943  1.0305
  610SOL    HW2 2439   1.735   0.919   1.234 -0.4602  2.0345 -1.1503
  610SOL     MW 2440   1.827   0.921   1.215 -0.3431  0.8115 -0.0717
  611SOL     OW 2441   2.472   1.650   0.615 -0.5373  0.3392 -0.4337
  611SOL    HW1 2442   2.492   1.624   0.524 -1.5411 -1.7169  1.5713
  611SOL    HW2 2443   2.462   1.744   0.608  0.0033  2.2517  1.9829
  611SOL     MW 2444   2.474   1.659   0.602 -0.5984  0.3202  0.1497
  612SOL     OW 2445   2.902   2.929   0.345 -1.2427 -0.2794  0.0076
  612SOL    HW1 2446   2.934   2.953   0.433  2.0424  1.9348  1.7192
  612SOL    HW2 2447   2.980   2.875   0.317 -0.0926 -1.2148  0.0777
  612SOL     MW 2448   2.916   2.925   0.353 -0.6575 -0.1106  0.2427
  613SOL     OW 2449   1.441   1.113   1.004 -0.4965 -0.5593 -0.1562
  613SOL    HW1 2450   1.490   1.196   1.013 -1.5603  1.1879  2.1823
  613SOL    HW2 2451   1.466   1.071   1.086  2.8600  0.5185 -0.3914
  613SOL     MW 2452   1.451   1.118   1.016 -0.1940 -0.1866  0.1213
  614SOL     OW 2453   2.030   0.467   1.389 -0.0066  0.3652  0.0349
  614SOL    HW1 2454   2.013   0.417   1.471 -0.7517 -0.8338  2.8455
  614SOL    HW2 2455   1.956   0.513   1.355 -0.2474 -1.4230 -0.2886
  614SOL     MW 2456   2.018   0.467   1.395 -0.1367 -0.0289  0.3631
  615SOL     OW 2457   2.419   0.735   0.330  0.3785 -0.2804  0.4441
  615SOL    HW1 2458   2.471   0.660   0.363 -0.9699 -1.3922  1.1090
  615SOL    HW2 2459   2.378   0.699   0.249 -1.2688 -2.1640 -2.1925
  615SOL     MW 2460   2.421   0.720   0.324 -0.0168 -0.6756  0.1839
  616SOL     OW 2461   2.574   0.417   1.611  0.3605 -0.1636  0.4083
  616SOL    HW1 2462   2.624   0.371   1.546  0.5477 -0.4458 -0.3370
  616SOL    HW2 2463   2.577   0.503   1.573  1.4785 -1.5020 -1.6966
  616SOL     MW 2464   2.581   0.422   1.597  0.5327 -0.3774  0.0322
  617SOL     OW 2465   2.834   0.544   1.872 -0.3344  0.2039 -0.3896
  617SOL    HW1 2466   2.765   0.550   1.940  1.2882 -1.5086 -0.9864
  617SOL    HW2 2467   2.834   0.460   1.834  0.7994 -0.5449 -0.5946
  617SOL     MW 2468   2.825   0.534   1.876  0.0293 -0.1208 -0.4954
  618SOL     OW 2469   2.799   0.241   2.005  0.2804  0.6255 -0.1385
  618SOL    HW1 2470   2.740   0.296   2.065  0.6782  1.2197  2.2445
  618SOL    HW2 2471   2.886   0.235   2.052  1.6104  1.2330  1.3903
  618SOL     MW 2472   2.803   0.247   2.019  0.5084  0.7841  0.3776
  619SOL     OW 2473   2.701   0.705   0.088 -0.1909  0.4144 -0.1282
  619SOL    HW1 2474   2.751   0.776   0.054  0.5680  0.4550  0.0012
  619SOL    HW2 2475   2.746   0.675   0.167 -0.5983  1.1497 -1.3192
  619SOL     MW 2476   2.714   0.711   0.094 -0.1445  0.5167 -0.2682
  620SOL     OW 2477   2.228   1.037   0.948  0.3025 -0.2020 -0.0707
  620SOL    HW1 2478   2.309   1.026   0.898  0.6228  1.5586  0.7659
  620SOL    HW2 2479   2.165   1.014   0.881  1.1759 -0.7361 -1.5518
  620SOL     MW 2480   2.230   1.033   0.933  0.4600 -0.0402 -0.1557
  621SOL     OW 2481   1.509   2.213   2.012 -0.1229 -0.5855  0.1034
  621SOL    HW1 2482   1.451   2.135   2.016  0.9541  1.8758  0.3024
  621SOL    HW2 2483   1.596   2.174   2.033 -0.8949 -0.1202 -0.2213
  621SOL     MW 2484   1.513   2.197   2.015 -0.0827 -0.1994  0.0868
  622SOL     OW 2485   2.643   0.287   0.215  0.4567  0.2612  0.2429
  622SOL    HW1 2486   2.737   0.321   0.234  2.1949 -1.9258 -0.4650
  622SOL    HW2 2487   2.649   0.192   0.212 -2.8807  2.2238 -0.0089
  622SOL     MW 2488   2.656   0.279   0.217  0.2457  0.2316  0.1163
  623SOL     OW 2489   2.366   2.760   0.825  0.1227  0.1932 -0.3256
  623SOL    HW1 2490   2.435   2.822   0.813  3.0119  0.2924  1.5179
  623SOL    HW2 2491   2.318   2.795   0.905  0.2636 -0.5960  0.5901
  623SOL     MW 2492   2.369   2.773   0.834  0.5225  0.1022  0.0384
  624SOL     OW 2493   2.133   1.546   3.066 -0.6646  0.4532 -0.1715
  624SOL    HW1 2494   2.082   1.480   3.029  0.7752  2.4412 -1.1675
  624SOL    HW2 2495   2.083   1.626   3.035 -2.6731  1.8508 -0.8256
  624SOL     MW 2496   2.120   1.548   3.057 -0.7396  0.8999 -0.3892
  625SOL     OW 2497   2.178   1.865   1.014 -0.0916 -0.8765 -0.3362
  625SOL    HW1 2498   2.214   1.786   1.053 -2.6469  0.1639  0.0183
  625SOL    HW2 2499   2.195   1.851   0.921 -0.9190 -2.7065 -0.6312
  625SOL     MW 2500   2.185   1.853   1.007 -0.5379 -0.9807 -0.3283
  626SOL     OW 2501   0.198   1.841   2.469 -0.7164  0.0971  0.1563
  626SOL    HW1 2502   0.134   1.775   2.469  2.1869 -0.1338 -0.2847
  626SOL    HW2 2503   0.142   1.920   2.476  1.4984  3.9029 -0.7505
  626SOL     MW 2504   0.182   1.843   2.470 -0.0411  0.5687 -0.0215
  627SOL     OW 2505   2.603   0.807   2.573  0.5799  0.4105 -0.2970
  627SOL    HW1 2506   2.512   0.845   2.561 -1.6797 -0.1612 -0.0068
  627SOL    HW2 2507   2.605   0.734   2.511  2.6921  0.6169 -0.8622
  627SOL     MW 2508   2.592   0.802   2.563  0.5605  0.3623 -0.3333
  628SOL     OW 2509   2.334   1.417   1.302  0.4134  1.2726 -0.5083
  628SOL    HW1 2510   2.346   1.338   1.254  0.2455  1.0117  1.5067
  628SOL    HW2 2511   2.397   1.481   1.266  2.7807  0.9029  1.7910
  628SOL     MW 2512   2.344   1.415   1.291  0.7036  1.1894  0.0610
  629SOL     OW 2513   1.817   0.624   1.320 -0.2717  0.1550  0.3373
  629SOL    HW1 2514   1.825   0.676   1.243  0.8024 -0.2336 -0.3158
  629SOL    HW2 2515   1.736   0.576   1.301  1.5896  0.2689 -1.5283
  629SOL     MW 2516   1.807   0.624   1.308  0.1156  0.1187  0.0050
  630SOL     OW 2517   2.408   1.894   3.061 -0.6353  0.2738  0.2387
  630SOL    HW1 2518   2.414   1.983   3.032  2.8558  2.2893  1.3006
  630SOL    HW2 2519   2.313   1.870   3.073 -0.1624 -0.8284  2.1626
  630SOL     MW 2520   2.396   1.903   3.059 -0.1123  0.3943  0.6327
  631SOL     OW 2521   2.088   1.835   1.498  0.1083  0.2873  0.0720
  631SOL    HW1 2522   2.079   1.744   1.525  0.8045 -1.9382 -0.5590
  631SOL    HW2 2523   2.002   1.874   1.507 -0.5073 -0.5319 -2.9618
  631SOL     MW 2524   2.076   1.828   1.503  0.1189 -0.1144 -0.4116
  632SOL     OW 2525   0.327   1.870   1.517  0.5710 -0.1240 -0.7784
  632SOL    HW1 2526   0.254   1.921   1.499 -2.3415 -2.1053 -0.1534
  632SOL    HW2 2527   0.293   1.784   1.516  0.0214  0.8120 -1.2375
  632SOL     MW 2528   0.313   1.866   1.514  0.1142 -0.2619 -0.7565
  633SOL     OW 2529   2.575   0.516   0.374  0.1197  0.1106 -0.6432
  633SOL    HW1 2530   2.649   0.541   0.430 -1.4133 -1.1030 -0.8833
  633SOL    HW2 2531   2.593   0.434   0.333 -1.5093  1.5784  0.4423
  633SOL     MW 2532   2.587   0.508   0.376 -0.2975  0.1442 -0.5317
  634SOL     OW 2533   2.657   3.077   0.595  0.8448 -0.4106 -0.1415
  634SOL    HW1 2534   2.705   3.160   0.583 -0.7163  1.3694 -2.2088
  634SOL    HW2 2535   2.676   3.026   0.517  0.5152  0.6111 -1.3995
  634SOL     MW 2536   2.666   3.081   0.583  0.5953 -0.0410 -0.5803
  635SOL     OW 2537   2.637   0.048   1.880 -0.1018 -0.8226 -0.2784
  635SOL    HW1 2538   2.714   0.025   1.819 -1.9203 -0.3144  0.4698
  635SOL    HW2 2539   2.656   0.131   1.917 -1.6503  1.1485 -0.5170
  635SOL     MW 2540   2.649   0.056   1.877 -0.5461 -0.4955 -0.2112
  636SOL     OW 2541   2.701   1.701   0.746  0.6617 -0.0661  0.3772
  636SOL    HW1 2542   2.623   1.683   0.692  0.2494 -2.1611  0.5235
  636SOL    HW2 2543   2.662   1.765   0.804 -1.3163 -1.0976 -0.8513
  636SOL     MW 2544   2.686   1.707   0.746  0.3464 -0.4786  0.2344
  637SOL     OW 2545   2.867   1.490   0.688  0.6371  0.0675  0.0474
  637SOL    HW1 2546   2.913   1.555   0.633 -0.7832  1.4268 -0.1032
  637SOL    HW2 2547   2.787   1.544   0.714  0.2985 -1.2241 -0.3502
  637SOL     MW 2548   2.862   1.506   0.684  0.4051  0.0764 -0.0249
  638SOL     OW 2549   2.829   0.532   0.538  0.4416  0.4172 -0.4247
  638SOL    HW1 2550   2.910   0.572   0.518 -1.3330  1.6248  0.9403
  638SOL    HW2 2551   2.822   0.561   0.628  2.6210 -1.6727 -1.9959
  638SOL     MW 2552   2.839   0.541   0.547  0.4950  0.3007 -0.4519
  639SOL     OW 2553   1.786   3.066   0.548  0.5540  0.4320  0.2685
  639SOL    HW1 2554   1.693   3.085   0.550  2.3684 -4.2557 -2.7432
  639SOL    HW2 2555   1.810   3.010   0.479  0.8931  1.5902  0.7720
  639SOL     MW 2556   1.777   3.061   0.539  0.8382 -0.0336 -0.0624
  640SOL     OW 2557   0.286   1.429   0.094  0.0695 -0.1168 -0.1111
  640SOL    HW1 2558   0.267   1.416   0.003  0.8713  1.3064  2.7989
  640SOL    HW2 2559   0.313   1.342   0.124  0.5531 -0.8142 -0.9693
  640SOL     MW 2560   0.287   1.416   0.086  0.2391 -0.0210  0.1596
  641SOL     OW 2561   2.237   0.332   0.412  0.6713  0.1045 -0.0057
  641SOL    HW1 2562   2.269   0.263   0.350  0.0464 -2.7913  0.5617
  641SOL    HW2 2563   2.293   0.319   0.484 -0.5820  0.0444 -1.3781
  641SOL     MW 2564   2.249   0.321   0.414  0.4235 -0.2855 -0.1119
  642SOL     OW 2565   0.081   0.000   0.519 -0.3448 -0.4306 -0.5149
  642SOL    HW1 2566   0.078   0.091   0.481  1.4866 -1.3670 -4.9043
  642SOL    HW2 2567   0.009   0.005   0.582 -0.6398 -0.6294 -1.3970
  642SOL     MW 2568   0.071   0.013   0.522 -0.1421 -0.5804 -1.2104
  643SOL     OW 2569   2.106   0.308   1.664  0.4173 -0.0247  0.1751
  643SOL    HW1 2570   2.027   0.268   1.702  0.6346 -0.3706 -0.1616
  643SOL    HW2 2571   2.144   0.246   1.600  1.6378 -1.2353 -1.0790
  643SOL     MW 2572   2.101   0.294   1.660  0.6070 -0.2300 -0.0348
  644SOL     OW 2573   2.656   1.887   0.954  0.9497 -0.3311 -0.5883
  644SOL    HW1 2574   2.634   1.850   1.039  2.9550 -0.9309 -0.5442
  644SOL    HW2 2575   2.593   1.961   0.953 -1.1625 -0.5087  0.9358
  644SOL     MW 2576   2.645   1.892   0.965  0.9356 -0.4336 -0.3814
  645SOL     OW 2577   2.787   0.907   0.770  0.1329  0.4900  0.7843
  645SOL    HW1 2578   2.877   0.871   0.782 -1.0796 -1.5202  2.4595
  645SOL    HW2 2579   2.730   0.885   0.848 -0.7300  2.2627  0.7642
  645SOL     MW 2580   2.791   0.899   0.782 -0.1409  0.4587  1.0027
  646SOL     OW 2581   0.163   2.260   0.862 -0.3257  0.1141 -0.2344
  646SOL    HW1 2582   0.126   2.164   0.877 -1.0969  0.9825  0.8697
  646SOL    HW2 2583   0.115   2.282   0.783 -1.6962  0.4488  1.9225
  646SOL     MW 2584   0.152   2.250   0.854 -0.6083  0.2728  0.1959
  647SOL     OW 2585   2.786   0.526   2.988  0.4313 -0.3591 -0.2221
  647SOL    HW1 2586   2.723   0.459   3.013 -0.5486 -2.0554 -0.5975
  647SOL    HW2 2587   2.771   0.604   3.039 -2.6735 -1.7939 -1.2145
  647SOL     MW 2588   2.775   0.528   2.998 -0.1076 -0.7722 -0.4026
  648SOL     OW 2589   2.201   0.639   1.133 -0.8077 -0.2080  0.0219
  648SOL    HW1 2590   2.238   0.569   1.188 -2.2776  1.4862 -2.1875
  648SOL    HW2 2591   2.181   0.717   1.184 -0.8630  1.4962 -1.0326
  648SOL     MW 2592   2.204   0.640   1.147 -1.0089  0.2404 -0.4087
  649SOL     OW 2593   2.394   2.706   1.297  0.1366  0.0491  0.7546
  649SOL    HW1 2594   2.485   2.724   1.315 -0.6311 -0.5459 -1.4892
  649SOL    HW2 2595   2.396   2.613   1.264 -1.1154 -1.1596  1.0950
  649SOL     MW 2596   2.406   2.696   1.295 -0.1299 -0.1889  0.5035
  650SOL     OW 2597   2.741   0.259   0.541 -0.1831 -0.2642 -0.7609
  650SOL    HW1 2598   2.788   0.338   0.565 -3.1000  0.2407 -0.7281
  650SOL    HW2 2599   2.758   0.244   0.449  0.6958 -0.6896  0.2923
  650SOL     MW 2600   2.749   0.267   0.532 -0.4520 -0.2537 -0.6176
  651SOL     OW 2601   0.045   0.437   1.007 -0.1229  0.0952 -0.5329
  651SOL    HW1 2602   0.079   0.506   0.943 -0.5888 -1.2460 -0.0842
  651SOL    HW2 2603  -0.017   0.492   1.061 -2.3103  0.3402  0.8112
  651SOL     MW 2604   0.041   0.454   1.005 -0.4730 -0.0495 -0.2964
  652SOL     OW 2605   2.398   1.445   2.995  0.2726  0.0660 -0.7666
  652SOL    HW1 2606   2.456   1.497   2.941  0.0201  2.9127  1.4353
  652SOL    HW2 2607   2.312   1.490   2.983 -1.0972  0.2788 -0.6317
  652SOL     MW 2608   2.394   1.458   2.987  0.0586  0.4697 -0.4583
  653SOL     OW 2609   1.838   0.342   0.242  0.3948 -0.0190 -0.5590
  653SOL    HW1 2610   1.804   0.274   0.183  2.5344  0.9314  0.1771
  653SOL    HW2 2611   1.918   0.378   0.205 -0.6881  1.0548 -0.6119
  653SOL     MW 2612   1.844   0.338   0.230  0.5342  0.2480 -0.4689
  654SOL     OW 2613   2.434   0.996   0.764 -0.3658 -0.2411 -0.4403
  654SOL    HW1 2614   2.390   0.985   0.675  0.1887  1.5436 -3.5840
  654SOL    HW2 2615   2.495   0.918   0.788  0.0578 -2.5145  0.6581
  654SOL     MW 2616   2.436   0.985   0.755 -0.2367 -0.3056 -0.7101
  655SOL     OW 2617   2.881   0.918   0.291 -0.0566  0.3407 -0.4230
  655SOL    HW1 2618   2.871   0.956   0.377  0.1219 -0.5584  0.8693
  655SOL    HW2 2619   2.946   0.849   0.308 -1.3315 -0.8529 -1.8187
  655SOL     MW 2620   2.888   0.914   0.305 -0.2013  0.0646 -0.4366
  656SOL     OW 2621   1.799   2.644   1.417 -0.1934  0.0011  0.1305
  656SOL    HW1 2622   1.826   2.724   1.374 -1.3885  0.0373 -1.3828
  656SOL    HW2 2623   1.868   2.581   1.399 -1.5157  0.2710 -0.6139
  656SOL     MW 2624   1.812   2.647   1.409 -0.5255  0.0415 -0.1674
  657SOL     OW 2625   0.073   1.779   1.133 -0.4688  0.0831 -0.3871
  657SOL    HW1 2626   0.155   1.825   1.138 -1.6005 -2.2369 -0.3357
  657SOL    HW2 2627   0.076   1.695   1.176 -3.4347  0.5783  0.3923
  657SOL     MW 2628   0.084   1.774   1.140 -1.0094 -0.1577 -0.2775
  658SOL     OW 2629   2.656   1.368   0.230 -0.4478 -0.3854 -0.0856
  658SOL    HW1 2630   2.666   1.283   0.271  1.6575 -2.0824  0.6211
  658SOL    HW2 2631   2.678   1.438   0.291  1.0166 -1.1022 -0.3251
  658SOL     MW 2632   2.660   1.366   0.243  0.0232 -0.7039 -0.0239
  659SOL     OW 2633   2.131   1.439   1.028 -0.3962 -0.5594 -0.0280
  659SOL    HW1 2634   2.148   1.354   1.060  1.5049 -0.2659  0.7674
  659SOL    HW2 2635   2.089   1.486   1.102 -2.6056  0.3529  0.7813
  659SOL     MW 2636   2.128   1.434   1.042 -0.4369 -0.4003  0.1837
  660SOL     OW 2637   2.096   1.544   1.606  0.0128  0.2909 -0.3153
  660SOL    HW1 2638   2.105   1.586   1.691  2.0489  2.3640 -2.4760
  660SOL    HW2 2639   2.029   1.470   1.609  0.3721 -1.8943 -0.4027
  660SOL     MW 2640   2.088   1.540   1.618  0.3289  0.2761 -0.6119
  661SOL     OW 2641   2.405   0.986   0.251  0.4684  0.2428 -0.2658
  661SOL    HW1 2642   2.484   1.030   0.288 -0.6078  1.2944 -0.3480
  661SOL    HW2 2643   2.419   0.902   0.294 -1.3669 -1.5281  0.7249
  661SOL     MW 2644   2.418   0.981   0.262  0.0842  0.1479 -0.1460
  662SOL     OW 2645   2.568   2.964   0.835 -0.6468  0.1300 -0.6330
  662SOL    HW1 2646   2.546   3.038   0.889  0.9375  0.4581 -0.0841
  662SOL    HW2 2647   2.609   3.002   0.756 -1.5394  0.1374  2.9586
  662SOL     MW 2648   2.570   2.979   0.832 -0.5556  0.1742 -0.0867
  663SOL     OW 2649   2.709   1.555   0.406 -0.2034 -0.2785 -0.2039
  663SOL    HW1 2650   2.713   1.611   0.329  0.3339 -0.1568 -0.2591
  663SOL    HW2 2651   2.797   1.560   0.440  3.5616  0.8720  0.6358
  663SOL     MW 2652   2.721   1.563   0.400  0.3642 -0.1107 -0.1004
  664SOL     OW 2653   2.549   1.462   1.526 -0.0579 -0.7415  0.0197
  664SOL    HW1 2654   2.513   1.547   1.493  1.1923 -0.3346  0.1253
  664SOL    HW2 2655   2.475   1.405   1.529 -1.2032  2.5988 -1.2609
  664SOL     MW 2656   2.534   1.465   1.522 -0.0440 -0.2471 -0.1353
  665SOL     OW 2657   2.850   0.814   2.100  0.5764 -0.6766  0.7639
  665SOL    HW1 2658   2.790   0.829   2.022  0.5385 -0.2101  0.8758
  665SOL    HW2 2659   2.930   0.768   2.070 -0.7872 -0.9351 -2.8475
  665SOL     MW 2660   2.853   0.810   2.086  0.3915 -0.6491  0.3022
  666SOL     OW 2661   2.785   3.007   1.697  0.8274 -0.3760 -0.0784
  666SOL    HW1 2662   2.792   3.021   1.602 -0.8434  0.9168 -1.4812
  666SOL    HW2 2663   2.729   2.931   1.700 -1.5727 -0.1907  0.8471
  666SOL     MW 2664   2.778   2.999   1.685  0.2903 -0.1810 -0.1413
  667SOL     OW 2665   1.994   2.747   1.727  0.0211 -0.0310 -0.2393
  667SOL    HW1 2666   2.047   2.709   1.796 -0.2045  0.7619 -4.3397
  667SOL    HW2 2667   2.044   2.827   1.701  0.6684 -0.2391  1.5098
  667SOL     MW 2668   2.007   2.752   1.733  0.0768  0.0462 -0.5495
  668SOL     OW 2669   2.773   0.562   0.837  0.2741 -0.3352  0.0735
  668SOL    HW1 2670   2.831   0.586   0.906 -2.7125 -1.2262 -2.5497
  668SOL    HW2 2671   2.704   0.627   0.849 -1.1578 -0.1421 -1.3845
  668SOL     MW 2672   2.771   0.574   0.848 -0.3089 -0.4273 -0.4650
  669SOL     OW 2673   0.192   0.983   0.686 -0.3806  0.3390  0.0993
  669SOL    HW1 2674   0.153   1.008   0.770 -1.8641  0.2168 -1.7983
  669SOL    HW2 2675   0.280   1.036   0.677  0.9806 -2.2796 -0.3524
  669SOL     MW 2676   0.199   0.994   0.696 -0.3967 -0.0226 -0.2106
  670SOL     OW 2677   2.882   0.355   0.277  0.0722  0.4181  0.3382
  670SOL    HW1 2678   2.907   0.295   0.204  0.1722 -1.3504  0.6595
  670SOL    HW2 2679   2.920   0.443   0.259  3.8782  1.6940  2.0734
  670SOL     MW 2680   2.891   0.358   0.265  0.5875  0.3531  0.6095
  671SOL     OW 2681   2.023   3.041   1.489  0.4723  0.3921 -0.0786
  671SOL    HW1 2682   1.949   3.018   1.429  0.3100 -0.4128 -3.1444
  671SOL    HW2 2683   1.980   3.056   1.574  0.4929 -1.5041  1.4985
  671SOL     MW 2684   2.008   3.040   1.493  0.4536  0.0357 -0.2750
  672SOL     OW 2685   1.850   1.765   1.295 -1.0684  0.2175  0.4386
  672SOL    HW1 2686   1.861   1.845   1.344 -1.1459 -2.9223 -0.8269
  672SOL    HW2 2687   1.874   1.791   1.204  1.3687  0.7949 -3.1578
  672SOL     MW 2688   1.855   1.779   1.289 -0.7571 -0.1205 -0.2029
  673SOL     OW 2689   2.798   1.065   0.563  0.1702  0.4427 -0.8036
  673SOL    HW1 2690   2.789   1.004   0.634 -2.5301  0.6786 -2.5227
  673SOL    HW2 2691   2.864   1.124   0.587  1.9989  0.1413 -0.4745
  673SOL     MW 2692   2.805   1.065   0.576  0.0552  0.4340 -0.9870
  674SOL     OW 2693   2.469   3.100   1.221  0.4456 -0.3320 -0.8243
  674SOL    HW1 2694   2.424   3.099   1.132 -1.9661  2.0743  0.9925
  674SOL    HW2 2695   2.419   3.038   1.279  0.4970  2.3665  1.5913
  674SOL     MW 2696   2.456   3.092   1.217  0.1342  0.3416 -0.2659
  675SOL     OW 2697   3.016   0.893   1.090 -0.4493 -0.2261  0.0006
  675SOL    HW1 2698   3.080   0.890   1.162 -0.4005  1.7737 -1.1169
  675SOL    HW2 2699   3.045   0.973   1.034  2.0668 -2.1734  0.8253
  675SOL     MW 2700   3.028   0.904   1.092 -0.1109 -0.2191 -0.0380
  676SOL     OW 2701   2.884   1.461   1.695  0.0767  0.1681  0.1604
  676SOL    HW1 2702   2.870   1.371   1.655  1.3773  2.6556 -2.5117
  676SOL    HW2 2703   2.925   1.443   1.780 -2.0382  1.3974 -2.9147
  676SOL     MW 2704   2.888   1.447   1.701 -0.0307  0.6585 -0.5979
  677SOL     OW 2705   2.475   0.646   1.932  0.4483  0.6973 -0.5515
  677SOL    HW1 2706   2.435   0.579   1.870 -0.0785  2.6790 -0.7476
  677SOL    HW2 2707   2.400   0.705   1.958 -0.1575 -2.1988  1.1004
  677SOL     MW 2708   2.460   0.645   1.927  0.2989  0.5767 -0.3594
  678SOL     OW 2709   2.395   1.586   0.320 -0.1327 -0.1123 -0.3531
  678SOL    HW1 2710   2.301   1.596   0.352  0.2168 -1.7402  5.2188
  678SOL    HW2 2711   2.391   1.512   0.251 -2.5257  0.2192  0.3982
  678SOL     MW 2712   2.382   1.577   0.315 -0.4023 -0.2834  0.4812
  679SOL     OW 2713   2.275   0.416   1.274  0.6181  0.0341  0.4671
  679SOL    HW1 2714   2.251   0.357   1.204 -2.0472  2.6227  0.7059
  679SOL    HW2 2715   2.186   0.435   1.320  0.9015 -3.5696  0.7282
  679SOL     MW 2716   2.260   0.411   1.271  0.3038 -0.0998  0.5331
  680SOL     OW 2717   2.479   0.117   1.497 -0.3290  0.5258 -0.4800
  680SOL    HW1 2718   2.380   0.114   1.498  1.4249 -0.6385 -1.0280
  680SOL    HW2 2719   2.511   0.076   1.411  1.4029 -2.3846 -0.8397
  680SOL     MW 2720   2.470   0.111   1.486  0.1309 -0.0118 -0.5998
  681SOL     OW 2721   0.226   0.619   1.471 -0.3032  0.5800 -0.3233
  681SOL    HW1 2722   0.226   0.534   1.515  0.4819  1.8742  4.2962
  681SOL    HW2 2723   0.242   0.600   1.376 -2.6245  0.8452 -0.2166
  681SOL     MW 2724   0.228   0.605   1.465 -0.5059  0.7857  0.3003
  682SOL     OW 2725   0.028   2.858   1.543 -0.9934  0.2365  0.0305
  682SOL    HW1 2726   0.113   2.897   1.524 -2.0943 -0.4337 -0.4599
  682SOL    HW2 2727  -0.015   2.906   1.615 -1.2719  3.9840  1.2203
  682SOL     MW 2728   0.033   2.870   1.550 -1.1754  0.6425  0.1227
  683SOL     OW 2729   2.075   0.820   3.008  0.1661  0.2766  0.0178
  683SOL    HW1 2730   2.016   0.749   3.034 -1.8700  2.2894  4.6386
  683SOL    HW2 2731   2.036   0.904   3.045  0.3578  0.6495  1.1992
  683SOL     MW 2732   2.062   0.822   3.016 -0.0773  0.5914  0.7833
  684SOL     OW 2733   2.050   1.758   0.658 -0.1695  0.1746 -0.1320
  684SOL    HW1 2734   2.055   1.700   0.581  1.6627  0.3439  1.4890
  684SOL    HW2 2735   1.971   1.719   0.704  1.7009 -2.9798 -1.0450
  684SOL     MW 2736   2.040   1.745   0.654  0.3190 -0.2192 -0.0386
  685SOL     OW 2737   2.681   1.723   1.188 -0.2196  0.3655  0.1931
  685SOL    HW1 2738   2.707   1.697   1.273  1.0049  0.0744  0.3001
  685SOL    HW2 2739   2.622   1.654   1.168 -0.3871  2.0799 -1.1359
  685SOL     MW 2740   2.677   1.711   1.197 -0.0802  0.5533  0.0319
  686SOL     OW 2741   2.864   0.664   1.613 -0.6674 -0.0920 -0.0029
  686SOL    HW1 2742   2.856   0.634   1.700  1.0518 -1.9978 -0.4920
  686SOL    HW2 2743   2.958   0.701   1.606 -0.1245  0.6920  0.4465
  686SOL     MW 2744   2.875   0.665   1.623 -0.3689 -0.2400 -0.0081
  687SOL     OW 2745   2.101   0.177   1.141 -0.2696 -0.7838 -0.2906
  687SOL    HW1 2746   2.169   0.145   1.077 -1.7170 -1.6113 -3.8457
  687SOL    HW2 2747   2.055   0.256   1.111  4.1565  0.4398  0.3803
  687SOL     MW 2748   2.104   0.183   1.128  0.1234 -0.7316 -0.6711
  688SOL     OW 2749   2.474   0.594   1.411  0.3408  0.0164 -0.3535
  688SOL    HW1 2750   2.451   0.512   1.371 -0.0670 -0.3315 -0.6310
  688SOL    HW2 2751   2.398   0.605   1.471  0.1768  0.8172  0.4388
  688SOL     MW 2752   2.461   0.585   1.413  0.2653  0.0762 -0.2856
  689SOL     OW 2753   2.512   0.740   2.995 -0.0876  0.3526  0.5707
  689SOL    HW1 2754   2.465   0.819   3.023 -0.3751  0.4637  0.2892
  689SOL    HW2 2755   2.557   0.719   3.082  0.9537 -1.5232  1.1921
  689SOL     MW 2756   2.512   0.748   3.010  0.0118  0.1198  0.6155
  690SOL     OW 2757   2.040   0.893   1.844  0.1267  0.1741  0.4380
  690SOL    HW1 2758   2.031   0.809   1.892 -0.1810  0.0033 -0.2116
  690SOL    HW2 2759   2.076   0.863   1.762  0.6792  1.2204  2.7218
  690SOL     MW 2760   2.043   0.878   1.840  0.1590  0.2896  0.6536
  691SOL     OW 2761   2.429   0.299   0.879  0.3500 -0.1629 -0.0736
  691SOL    HW1 2762   2.518   0.325   0.903 -1.1214 -1.3601  0.3606
  691SOL    HW2 2763   2.387   0.385   0.859 -0.5302  1.8232  1.3464
  691SOL     MW 2764   2.435   0.314   0.880  0.0397 -0.0588  0.1711
  692SOL     OW 2765   2.825   1.613   1.414 -0.5392 -0.0242 -0.6447
  692SOL    HW1 2766   2.817   1.579   1.501 -0.7169  3.6220  0.6113
  692SOL    HW2 2767   2.872   1.698   1.414 -2.1142 -1.7156  0.0059
  692SOL     MW 2768   2.830   1.620   1.425 -0.7705  0.2337 -0.3931
  693SOL     OW 2769   2.322   0.407   0.006 -0.4353  0.5355 -0.1554
  693SOL    HW1 2770   2.257   0.347  -0.007  0.0302  1.8166 -2.5060
  693SOL    HW2 2771   2.287   0.468   0.076 -1.2514 -0.0837  0.5153
  693SOL     MW 2772   2.309   0.407   0.014 -0.4815  0.6228 -0.3770
  694SOL     OW 2773   1.915   1.190   1.196  0.6519 -0.5344  0.1503
  694SOL    HW1 2774   2.008   1.181   1.186  0.5784 -0.8033  1.6658
  694SOL    HW2 2775   1.886   1.098   1.216 -1.4402  3.9121  0.7588
  694SOL     MW 2776   1.924   1.176   1.197  0.3662  0.0168  0.4305
  695SOL     OW 2777   2.926   1.392   1.295 -0.7651  0.3890  0.1216
  695SOL    HW1 2778   2.913   1.400   1.205 -1.5665 -0.2626  2.6070
  695SOL    HW2 2779   2.893   1.475   1.335 -0.4061 -0.4191 -2.2901
  695SOL     MW 2780   2.920   1.404   1.289 -0.8235  0.1964  0.1314
  696SOL     OW 2781   2.019   1.428   0.758  0.4165 -0.0316 -0.6902
  696SOL    HW1 2782   2.092   1.445   0.822  0.6281  1.5477  1.4107
  696SOL    HW2 2783   1.974   1.350   0.793 -0.9638 -0.1212 -3.2999
  696SOL     MW 2784   2.022   1.420   0.771  0.2623  0.1650 -0.7573
  697SOL     OW 2785   2.934   1.064   2.216 -0.3672 -0.1129 -0.3483
  697SOL    HW1 2786   2.855   1.121   2.234 -2.8841  0.7101 -0.4737
  697SOL    HW2 2787   2.895   0.984   2.193 -0.5955 -0.5293  1.4244
  697SOL     MW 2788   2.918   1.061   2.215 -0.7294 -0.0593 -0.1310
  698SOL     OW 2789   2.591   0.359   3.060 -0.4883  1.0044 -0.0115
  698SOL    HW1 2790   2.510   0.406   3.055 -0.4199 -0.8280  0.3082
  698SOL    HW2 2791   2.597   0.328   3.154  0.2765  1.0675 -2.1645
  698SOL     MW 2792   2.581   0.361   3.072 -0.3784  0.7710 -0.2534
  699SOL     OW 2793   1.886   1.612   2.059 -0.3710  0.2840 -0.5109
  699SOL    HW1 2794   1.823   1.553   2.019 -3.0710  0.6777 -0.1957
  699SOL    HW2 2795   1.967   1.580   2.014 -0.3776 -3.6056  2.6954
  699SOL     MW 2796   1.888   1.600   2.047 -0.7281 -0.1773 -0.0463
  700SOL     OW 2797   2.673   0.864   1.598  0.6009  0.3512  0.1846
  700SOL    HW1 2798   2.729   0.933   1.553 -0.5238  1.1958 -3.5658
  700SOL    HW2 2799   2.727   0.789   1.614 -1.1119 -1.5507  0.0215
  700SOL     MW 2800   2.687   0.863   1.594  0.2265  0.2117 -0.3317
  701SOL     OW 2801   1.686   1.088   2.513 -0.4700 -0.3925  0.0426
  701SOL    HW1 2802   1.728   1.011   2.556  1.2106 -1.5336  0.7357
  701SOL    HW2 2803   1.675   1.139   2.591  0.8131 -2.2781  1.8189
  701SOL     MW 2804   1.690   1.084   2.529 -0.0790 -0.7918  0.3684
  702SOL     OW 2805   2.075   0.470   0.685 -0.4873 -0.1344 -0.7583
  702SOL    HW1 2806   2.103   0.377   0.669 -0.5244  1.2194 -0.3513
  702SOL    HW2 2807   2.132   0.517   0.625  2.0272 -1.0176  2.2392
  702SOL     MW 2808   2.086   0.464   0.675 -0.1604 -0.0723 -0.3091
  703SOL     OW 2809   2.707   1.261   0.964 -0.4033 -0.2684  0.2027
  703SOL    HW1 2810   2.649   1.263   0.889 -0.5727  2.1248  1.4870
  703SOL    HW2 2811   2.711   1.177   1.003  1.1753  0.3508  1.1573
  703SOL     MW 2812   2.700   1.250   0.960 -0.2174  0.1290  0.4981
  704SOL     OW 2813   3.078   1.258   0.133 -0.1555 -0.2068  0.5858
  704SOL    HW1 2814   2.990   1.259   0.096 -0.5088  0.3812 -2.0661
  704SOL    HW2 2815   3.080   1.217   0.219 -0.5494  2.5850  0.9269
  704SOL     MW 2816   3.067   1.253   0.139 -0.2541  0.2392  0.2809
  705SOL     OW 2817   2.045   1.551   1.300 -0.2444  0.4122  0.0511
  705SOL    HW1 2818   2.001   1.634   1.300 -0.8737 -1.2721 -1.3423
  705SOL    HW2 2819   2.080   1.546   1.389  1.3594  0.8852  0.8151
  705SOL     MW 2820   2.044   1.561   1.312 -0.1158  0.2524 -0.0320
  706SOL     OW 2821   3.002   1.223   0.702 -0.1088 -0.2912  0.2411
  706SOL    HW1 2822   3.072   1.232   0.636 -0.2044  1.7772  2.3320
  706SOL    HW2 2823   2.948   1.304   0.694 -0.7173  0.0602 -1.8476
  706SOL     MW 2824   3.004   1.235   0.693 -0.2017  0.0281  0.2414
  707SOL     OW 2825   2.360   0.038   0.974 -0.0748  0.0902  0.1351
  707SOL    HW1 2826   2.382   0.133   0.960  0.2268  3.1612  0.3511
  707SOL    HW2 2827   2.295   0.017   0.903  0.5817  0.6704  0.6601
  707SOL     MW 2828   2.354   0.047   0.963  0.0516  0.5719  0.2329
  708SOL     OW 2829   2.387   1.373   0.154 -0.3178  0.1217 -0.6705
  708SOL    HW1 2830   2.479   1.376   0.178 -1.4455 -0.7971 -0.1706
  708SOL    HW2 2831   2.386   1.397   0.058  1.3015 -2.8429  0.3339
  708SOL     MW 2832   2.399   1.377   0.145 -0.2529 -0.3907 -0.4720
  709SOL     OW 2833   1.727   1.645   0.201 -0.7252 -0.2868 -0.0133
  709SOL    HW1 2834   1.720   1.637   0.103  1.7182 -0.5089 -1.3092
  709SOL    HW2 2835   1.652   1.610   0.240  1.1222  0.9861 -0.9491
  709SOL     MW 2836   1.716   1.639   0.193 -0.1591 -0.1482 -0.3078
  710SOL     OW 2837   2.176   1.171   1.184 -0.2810  0.1072 -0.5929
  710SOL    HW1 2838   2.208   1.115   1.106 -0.7174 -1.0998  0.4358
  710SOL    HW2 2839   2.207   1.124   1.267  2.4919 -1.1763  1.6348
  710SOL     MW 2840   2.185   1.157   1.185  0.0273 -0.2214 -0.1632
  711SOL     OW 2841   2.396   0.121   1.782 -0.2923 -0.4829  0.5157
  711SOL    HW1 2842   2.472   0.066   1.807  0.9831  1.9021 -1.8157
  711SOL    HW2 2843   2.421   0.153   1.692  0.5426 -2.3424  0.2705
  711SOL     MW 2844   2.409   0.118   1.773 -0.0138 -0.4135  0.1757
  712SOL     OW 2845   1.889   0.600   3.090 -0.3546  0.0782 -0.4885
  712SOL    HW1 2846   1.835   0.643   3.024  3.1200 -1.6306  0.8946
  712SOL    HW2 2847   1.849   0.633   3.171 -0.1132 -0.4749  1.9384
  712SOL     MW 2848   1.876   0.610   3.092  0.1357 -0.2203  0.0142
  713SOL     OW 2849   2.529   0.684   1.100  0.5135 -0.2062  0.5412
  713SOL    HW1 2850   2.549   0.598   1.124  0.9219  3.0581  0.6792
  713SOL    HW2 2851   2.491   0.713   1.180 -0.3354 -0.9040  0.4297
  713SOL     MW 2852   2.526   0.677   1.114  0.4554  0.1324  0.5447
  714SOL     OW 2853   2.224   0.183   2.003  0.3562  1.1338  0.3432
  714SOL    HW1 2854   2.286   0.132   2.053 -0.6803  0.0170  1.4149
  714SOL    HW2 2855   2.243   0.174   1.911 -2.6105 -2.2525 -0.4537
  714SOL     MW 2856   2.235   0.175   1.998 -0.1720  0.5397  0.3795
  715SOL     OW 2857   1.822   2.009   1.737  0.5298 -0.0760 -0.2403
  715SOL    HW1 2858   1.915   2.030   1.734 -2.0295 -2.4678 -2.1301
  715SOL    HW2 2859   1.809   1.915   1.766  0.8495 -1.9092 -2.1205
  715SOL     MW 2860   1.832   2.000   1.741  0.2343 -0.6334 -0.7377
  716SOL     OW 2861   2.431   0.564   0.678  0.3864  0.1093  0.5221
  716SOL    HW1 2862   2.459   0.477   0.640  1.1305 -1.7564 -1.4702
  716SOL    HW2 2863   2.359   0.588   0.625  2.2116 -0.5416  2.6147
  716SOL     MW 2864   2.425   0.556   0.666  0.7254 -0.2227  0.5353
  717SOL     OW 2865   2.830   1.619   2.827 -0.4472  0.3939  0.1942
  717SOL    HW1 2866   2.919   1.599   2.853  2.0993 -1.9033 -2.5113
  717SOL    HW2 2867   2.790   1.668   2.903 -0.6762  1.5868 -1.0246
  717SOL     MW 2868   2.836   1.623   2.840 -0.1414  0.2482 -0.3235
  718SOL     OW 2869   2.652   1.345   1.267  0.3818 -0.1275  0.0790
  718SOL    HW1 2870   2.624   1.387   1.350 -1.4640  2.8450  1.1266
  718SOL    HW2 2871   2.747   1.333   1.284  1.8298 -0.6840  1.8024
  718SOL     MW 2872   2.661   1.349   1.280  0.3293  0.1913  0.4446
  719SOL     OW 2873   2.203   1.289   0.566 -0.0672 -0.7200 -0.3357
  719SOL    HW1 2874   2.288   1.335   0.560 -2.6173  3.0889  2.3203
  719SOL    HW2 2875   2.157   1.349   0.622  1.4445 -0.0466 -0.9123
  719SOL     MW 2876   2.208   1.303   0.572 -0.2042 -0.1286 -0.0614
  720SOL     OW 2877   2.811   1.278   0.024 -0.5441  0.4630 -0.2322
  720SOL    HW1 2878   2.770   1.192   0.038  1.6191 -2.1807  0.3011
  720SOL    HW2 2879   2.760   1.339   0.074 -0.6126  1.0642  1.3677
  720SOL     MW 2880   2.799   1.275   0.032 -0.2677  0.1935  0.0493
  721SOL     OW 2881   2.538   0.838   1.366  0.4021 -0.1644 -0.3127
  721SOL    HW1 2882   2.503   0.748   1.395  1.0366 -1.8677  1.7585
  721SOL    HW2 2883   2.609   0.856   1.435  0.2881  1.9678 -1.2513
  721SOL     MW 2884   2.543   0.828   1.379  0.4708 -0.1078 -0.1633
  722SOL     OW 2885   2.581   1.137   0.378 -0.0986  0.2543  0.0837
  722SOL    HW1 2886   2.529   1.212   0.408 -1.5113 -1.0424 -2.3944
  722SOL    HW2 2887   2.655   1.123   0.435  1.7577  2.5863  0.2510
  722SOL     MW 2888   2.584   1.145   0.389 -0.0400  0.3909 -0.2212
  723SOL     OW 2889   2.264   1.355   1.546 -0.0921 -0.2430  0.0394
  723SOL    HW1 2890   2.302   1.372   1.459 -0.4221  1.3872  2.9672
  723SOL    HW2 2891   2.222   1.440   1.577  2.6158  2.8823  1.9547
  723SOL     MW 2892   2.264   1.369   1.538  0.2216  0.3845  0.6784
  724SOL     OW 2893   2.492   0.305   0.611 -0.3742 -0.4150  0.1127
  724SOL    HW1 2894   2.478   0.297   0.705 -1.5548 -1.1433 -0.8593
  724SOL    HW2 2895   2.585   0.291   0.593 -0.7021 -2.0337  1.0931
  724SOL     MW 2896   2.503   0.302   0.621 -0.5732 -0.7247  0.1138
  725SOL     OW 2897   2.611   0.420   1.234 -0.0643  0.0280 -0.7006
  725SOL    HW1 2898   2.688   0.466   1.273 -2.5985  0.3239 -0.5035
  725SOL    HW2 2899   2.602   0.337   1.282  0.3392 -0.7407  1.4865
  725SOL     MW 2900   2.620   0.415   1.246 -0.3455 -0.0344 -0.3860
  726SOL     OW 2901   2.497   2.508   0.452  0.2748 -0.2112 -0.6268
  726SOL    HW1 2902   2.481   2.596   0.412 -0.3756 -0.0382  0.1903
  726SOL    HW2 2903   2.489   2.533   0.549 -0.7620  1.1055  0.2509
  726SOL     MW 2904   2.494   2.523   0.459  0.0522 -0.0147 -0.4032
  727SOL     OW 2905   2.869   0.293   1.733 -0.1599  0.2150  0.5077
  727SOL    HW1 2906   2.817   0.256   1.662  0.3147  0.4821  0.5364
  727SOL    HW2 2907   2.846   0.255   1.811  0.7781 -0.9827 -1.6647
  727SOL     MW 2908   2.859   0.283   1.734  0.0265  0.0922  0.2249
  728SOL     OW 2909   2.841   1.173   2.855 -0.1218 -0.1157 -0.0149
  728SOL    HW1 2910   2.850   1.214   2.770 -0.9338 -1.4148  2.8034
  728SOL    HW2 2911   2.845   1.237   2.927  0.8004 -0.1887  0.7741
  728SOL     MW 2912   2.843   1.187   2.853 -0.1073 -0.2967  0.4610
  729SOL     OW 2913   2.516   1.516   1.103  0.0577  0.1449 -0.9153
  729SOL    HW1 2914   2.545   1.435   1.149 -0.2149  1.5821  2.5744
  729SOL    HW2 2915   2.490   1.489   1.018 -1.7770 -0.5251  1.0008
  729SOL     MW 2916   2.516   1.502   1.098 -0.2203  0.2461 -0.2021
  730SOL     OW 2917   2.225   1.176   0.188  0.2814  0.8361 -0.2251
  730SOL    HW1 2918   2.275   1.103   0.214 -2.3628  0.4577  0.8352
  730SOL    HW2 2919   2.294   1.245   0.170  0.8441 -0.0100 -2.3241
  730SOL     MW 2920   2.241   1.176   0.189  0.0068  0.6745 -0.3622
  731SOL     OW 2921   2.756   2.056   2.879 -0.0192 -0.4354  0.4234
  731SOL    HW1 2922   2.683   2.018   2.829  4.5251 -1.3101 -2.2621
  731SOL    HW2 2923   2.838   2.038   2.834 -1.1006 -0.0824 -1.3872
  731SOL     MW 2924   2.757   2.049   2.867  0.4377 -0.5043 -0.1698
  732SOL     OW 2925   2.279   0.974   1.371  0.6765 -0.4472  0.2539
  732SOL    HW1 2926   2.228   0.965   1.455  0.6097 -1.8377 -1.2515
  732SOL    HW2 2927   2.355   0.920   1.376  1.8828  0.2417 -0.6281
  732SOL     MW 2928   2.283   0.966   1.383  0.8269 -0.5398 -0.0611
  733SOL     OW 2929   2.390   2.755   3.004  0.1004 -0.7309 -0.2847
  733SOL    HW1 2930   2.304   2.788   3.032  2.0828 -1.4601  0.6902
  733SOL    HW2 2931   2.387   2.655   3.003 -1.5909 -0.8330 -2.3520
  733SOL     MW 2932   2.379   2.746   3.007  0.1388 -0.8406 -0.4288
  734SOL     OW 2933   1.529   0.277   2.533 -0.4271  0.0095 -0.3268
  734SOL    HW1 2934   1.478   0.243   2.604 -2.1515  1.5703 -0.9399
  734SOL    HW2 2935   1.527   0.218   2.461 -2.8023  2.3785 -2.1794
  734SOL     MW 2936   1.522   0.265   2.533 -0.9680  0.5280 -0.6521
  735SOL     OW 2937   2.988   0.904   2.687  0.3651 -0.6150 -0.7132
  735SOL    HW1 2938   2.966   0.808   2.688 -0.7499 -2.6051 -0.2376
  735SOL    HW2 2939   3.017   0.918   2.778 -0.7640 -1.8114 -0.5216
  735SOL     MW 2940   2.989   0.893   2.699  0.0690 -1.0354 -0.6252
  736SOL     OW 2941   0.136   0.574   2.569 -0.1237 -0.4002 -0.3982
  736SOL    HW1 2942   0.129   0.643   2.494  1.9666 -0.5355 -1.6910
  736SOL    HW2 2943   0.164   0.496   2.526 -1.3079  1.0476  0.8142
  736SOL     MW 2944   0.139   0.572   2.553 -0.0041 -0.2270 -0.4088
  737SOL     OW 2945   2.972   0.639   2.666 -0.1993 -0.7196  0.4840
  737SOL    HW1 2946   2.918   0.634   2.582 -1.0178  0.6921 -0.4847
  737SOL    HW2 2947   3.057   0.612   2.645 -1.8842 -0.2256 -0.5048
  737SOL     MW 2948   2.976   0.635   2.652 -0.5296 -0.4681  0.2257
  738SOL     OW 2949   0.117   0.462   1.872  0.0113 -0.2391 -0.1770
  738SOL    HW1 2950   0.207   0.497   1.867  0.0648 -0.7805 -1.2085
  738SOL    HW2 2951   0.085   0.457   1.781  0.1671 -2.5329  1.2368
  738SOL     MW 2952   0.124   0.466   1.859  0.0389 -0.6132 -0.1265
  739SOL     OW 2953   2.467   0.989   2.123 -0.1483 -0.3031 -0.1471
  739SOL    HW1 2954   2.428   0.966   2.043  2.3029  1.5080  3.0075
  739SOL    HW2 2955   2.527   1.057   2.101 -0.6821  0.4909  1.0229
  739SOL     MW 2956   2.470   0.995   2.110  0.1047  0.0406  0.4235
  740SOL     OW 2957   0.121   1.807   2.928  0.0050 -0.5197  0.6877
  740SOL    HW1 2958   0.101   1.711   2.918  0.8620 -2.0845 -1.0031
  740SOL    HW2 2959   0.210   1.811   2.962 -0.7273 -0.3019 -1.7589
  740SOL     MW 2960   0.130   1.795   2.931  0.0215 -0.6974  0.1418
  741SOL     OW 2961   2.188   1.140   2.708 -0.0777  0.4314 -0.0923
  741SOL    HW1 2962   2.153   1.220   2.675 -0.0145 -3.6841  1.6911
  741SOL    HW2 2963   2.198   1.149   2.808  0.2926  0.8113 -1.3378
  741SOL     MW 2964   2.185   1.152   2.717 -0.0205 -0.0615 -0.0213
  742SOL     OW 2965   1.621   1.229   2.264 -0.8776  0.0933  0.2177
  742SOL    HW1 2966   1.539   1.210   2.223  0.9569 -0.7301  0.0779
  742SOL    HW2 2967   1.619   1.201   2.354 -0.4526  2.8472 -0.5730
  742SOL     MW 2968   1.610   1.223   2.271 -0.5794  0.3480  0.0950
  743SOL     OW 2969   2.496   1.239   2.720  0.2016 -0.0076  0.3963
  743SOL    HW1 2970   2.406   1.233   2.703 -1.8115  0.0443  1.7117
  743SOL    HW2 2971   2.513   1.169   2.787  0.4114 -2.3264 -0.0814
  743SOL     MW 2972   2.487   1.229   2.727 -0.0364 -0.3067  0.5068
  744SOL     OW 2973   2.675   0.861   1.898 -0.6912  0.1147 -0.0991
  744SOL    HW1 2974   2.668   0.957   1.885 -0.3694 -0.4370  1.0207
  744SOL    HW2 2975   2.640   0.830   1.818 -3.1020  1.1552  0.8211
  744SOL     MW 2976   2.669   0.870   1.886 -0.9668  0.1792  0.1700
  745SOL     OW 2977   1.673   0.492   2.482 -0.4957 -0.1125  0.7637
  745SOL    HW1 2978   1.667   0.485   2.383  2.8163  0.9198 -0.8303
  745SOL    HW2 2979   1.622   0.417   2.511 -0.0918 -0.8343 -0.0875
  745SOL     MW 2980   1.666   0.481   2.472 -0.0054 -0.0716  0.4411
  746SOL     OW 2981   1.632   1.438   1.658  0.5335  0.2337  0.2859
  746SOL    HW1 2982   1.722   1.407   1.634 -0.0130  0.2278 -3.8095
  746SOL    HW2 2983   1.617   1.464   1.752 -0.7042 -1.9025 -1.1211
  746SOL     MW 2984   1.642   1.437   1.667  0.2981 -0.0489 -0.4401
  747SOL     OW 2985   2.625   1.128   1.819 -0.4707 -0.6119 -0.0046
  747SOL    HW1 2986   2.538   1.123   1.769 -0.6254 -2.8170 -0.5433
  747SOL    HW2 2987   2.608   1.188   1.896  0.7973  1.8656 -0.3692
  747SOL     MW 2988   2.611   1.135   1.823 -0.3238 -0.5760 -0.1238
  748SOL     OW 2989   0.053   0.087   1.903 -0.1279  0.5390  0.3912
  748SOL    HW1 2990   0.112   0.167   1.894  1.9242  2.4135 -1.5101
  748SOL    HW2 2991  -0.000   0.109   1.983  2.0361  1.6569 -0.8364
  748SOL     MW 2992   0.054   0.100   1.912  0.4284  0.9338 -0.0216
  749SOL     OW 2993   2.534   0.616   2.753  0.3633 -0.7899  0.6964
  749SOL    HW1 2994   2.551   0.688   2.690  1.1333 -3.4853 -0.1803
  749SOL    HW2 2995   2.536   0.669   2.838  0.7362 -0.4650 -0.3966
  749SOL     MW 2996   2.537   0.633   2.756  0.5141 -1.1026  0.4365
  750SOL     OW 2997   2.028   3.075   1.991 -0.4633 -0.0579 -0.1039
  750SOL    HW1 2998   2.076   3.156   2.003 -0.1979 -1.3331 -0.1658
  750SOL    HW2 2999   2.104   3.015   1.974 -1.7619  0.4431  0.8910
  750SOL     MW 3000   2.044   3.078   1.991 -0.5996 -0.1600  0.0192
  751SOL     OW 3001   0.246   0.302   2.440  1.2220  0.2079 -0.2888
  751SOL    HW1 3002   0.199   0.244   2.498  1.8429  1.2344 -2.9176
  751SOL    HW2 3003   0.232   0.278   2.348  1.1691  0.1212 -1.3537
  751SOL     MW 3004   0.238   0.291   2.435  1.2970  0.3319 -0.7761
  752SOL     OW 3005   2.133   0.802   2.723  0.4656 -0.1426 -0.2987
  752SOL    HW1 3006   2.204   0.841   2.669  1.0688 -0.0772  0.4352
  752SOL    HW2 3007   2.126   0.847   2.809 -1.9916  0.9745 -0.8270
  752SOL     MW 3008   2.141   0.813   2.728  0.2210  0.0134 -0.2716
  753SOL     OW 3009   2.829   0.194   2.395 -0.6264  0.1728  0.5443
  753SOL    HW1 3010   2.817   0.100   2.370 -0.2015 -2.3377  1.5006
  753SOL    HW2 3011   2.789   0.244   2.325 -0.0804  0.0507  0.1134
  753SOL     MW 3012   2.822   0.188   2.382 -0.4983 -0.1745  0.6136
  754SOL     OW 3013   2.226   2.957   2.587  0.0350 -0.6378  0.0638
  754SOL    HW1 3014   2.272   2.960   2.502 -0.5364  3.7069 -0.3253
  754SOL    HW2 3015   2.287   2.902   2.638  0.1007 -1.5075 -0.2399
  754SOL     MW 3016   2.240   2.950   2.583 -0.0317 -0.1793 -0.0276
  755SOL     OW 3017   2.724   1.534   2.420  0.4514 -0.2118 -1.0019
  755SOL    HW1 3018   2.721   1.450   2.470 -1.6045 -0.1799  0.4794
  755SOL    HW2 3019   2.778   1.597   2.477  1.3233  2.1115 -1.2588
  755SOL     MW 3020   2.731   1.531   2.434  0.2952  0.0990 -0.8403
  756SOL     OW 3021   2.205   1.207   2.967  0.1421 -0.4381 -0.0749
  756SOL    HW1 3022   2.269   1.278   2.962 -1.3148 -1.1472  0.8739
  756SOL    HW2 3023   2.238   1.146   3.034 -0.9413  0.2430 -2.6894
  756SOL     MW 3024   2.218   1.208   2.975 -0.1931 -0.4418 -0.2947
  757SOL     OW 3025   2.169   0.894   1.601  0.3513 -0.0546 -0.2202
  757SOL    HW1 3026   2.211   0.810   1.602 -1.1422  0.5940  0.6165
  757SOL    HW2 3027   2.079   0.900   1.558 -1.7628  1.9915 -2.4157
  757SOL     MW 3028   2.163   0.884   1.595 -0.1247  0.3010 -0.3995
  758SOL     OW 3029   2.198   1.864   2.617 -0.0156 -0.0705  0.2075
  758SOL    HW1 3030   2.191   1.897   2.530 -2.3033 -0.9533  2.5095
  758SOL    HW2 3031   2.284   1.823   2.620 -0.8114 -0.3828 -0.3712
  758SOL     MW 3032   2.208   1.863   2.606 -0.4224 -0.2282  0.4349
  759SOL     OW 3033   1.535   1.276   2.695 -0.1379  0.4541  0.0122
  759SOL    HW1 3034   1.520   1.346   2.627 -0.9803 -1.0544  1.9761
  759SOL    HW2 3035   1.590   1.318   2.764 -0.9719  0.5337  1.4907
  759SOL     MW 3036   1.540   1.291   2.695 -0.3591  0.2656  0.4664
  760SOL     OW 3037   2.507   1.983   2.734  0.2923  0.3060  0.3287
  760SOL    HW1 3038   2.507   1.898   2.688  1.7374  0.6369 -3.4916
  760SOL    HW2 3039   2.524   2.045   2.665  1.1210 -2.3727 -1.2122
  760SOL     MW 3040   2.509   1.980   2.719  0.5923 -0.0038 -0.3787
  761SOL     OW 3041   2.159   0.408   2.545  0.3743  0.3943  0.4574
  761SOL    HW1 3042   2.099   0.333   2.573 -1.9940  1.0409  0.8188
  761SOL    HW2 3043   2.176   0.471   2.622  1.3717 -2.2423  3.0027
  761SOL     MW 3044   2.153   0.407   2.559  0.1934  0.1317  0.8409
  762SOL     OW 3045   3.042   0.196   2.149  0.6837 -0.0811 -0.1337
  762SOL    HW1 3046   3.063   0.119   2.199  2.2266  1.4726 -0.8225
  762SOL    HW2 3047   3.034   0.275   2.213 -2.6276  0.2568 -0.0611
  762SOL     MW 3048   3.044   0.196   2.164  0.4504  0.1685 -0.2150
  763SOL     OW 3049   2.331   1.027   2.335  0.0539 -0.2322 -0.6496
  763SOL    HW1 3050   2.389   1.014   2.256  3.7551 -2.8636  2.3893
  763SOL    HW2 3051   2.398   1.085   2.385  1.5572  1.7943  3.2693
  763SOL     MW 3052   2.348   1.033   2.331  0.7405 -0.3120  0.2684
  764SOL     OW 3053   0.454   0.267   2.814 -0.4250  0.3211  0.2632
  764SOL    HW1 3054   0.370   0.227   2.841 -0.9175  1.0124 -0.6926
  764SOL    HW2 3055   0.455   0.346   2.867 -0.0326  0.3641  0.2350
  764SOL     MW 3056   0.443   0.272   2.824 -0.4382  0.4179  0.1334
  765SOL     OW 3057   2.742   3.031   2.361 -0.3823 -0.8926  0.0269
  765SOL    HW1 3058   2.674   3.015   2.299  1.6058  2.5753 -1.1960
  765SOL    HW2 3059   2.820   2.979   2.325  0.9854 -1.2138  0.2808
  765SOL     MW 3060   2.744   3.022   2.348  0.0604 -0.4774 -0.1009
  766SOL     OW 3061   1.872   2.951   2.180 -0.0267 -0.5245 -0.0439
  766SOL    HW1 3062   1.904   3.017   2.118 -0.4913  0.8628  0.0802
  766SOL    HW2 3063   1.814   2.904   2.121  0.8846 -0.1072  0.3949
  766SOL     MW 3064   1.869   2.954   2.164  0.0322 -0.2864  0.0304
  767SOL     OW 3065   2.691   0.573   2.095 -0.2140  0.3120 -0.1998
  767SOL    HW1 3066   2.738   0.657   2.114 -4.0110  2.6833 -0.6209
  767SOL    HW2 3067   2.605   0.584   2.053 -1.5831  0.7902  1.9672
  767SOL     MW 3068   2.686   0.585   2.092 -0.8956  0.6879  0.0306
  768SOL     OW 3069   3.080   1.550   2.908 -0.2342 -0.1380 -0.7953
  768SOL    HW1 3070   3.074   1.520   3.003 -1.5880 -2.6403  3.9164
  768SOL    HW2 3071   3.135   1.474   2.865 -0.2636  2.3939  1.3001
  768SOL     MW 3072   3.087   1.536   2.915 -0.4167 -0.1341  0.1028
  769SOL     OW 3073   2.471   0.694   2.368  0.1997 -0.1780  0.0218
  769SOL    HW1 3074   2.404   0.630   2.360  2.6347  0.8219 -1.1327
  769SOL    HW2 3075   2.539   0.663   2.309 -0.6812 -0.6436 -0.8712
  769SOL     MW 3076   2.471   0.682   2.359  0.4047 -0.1075 -0.2484
  770SOL     OW 3077   3.103   1.636   2.564  0.6194 -0.2823 -0.2752
  770SOL    HW1 3078   3.002   1.656   2.558 -3.3806  6.4143  1.1993
  770SOL    HW2 3079   3.105   1.543   2.559 -4.3607  1.2208 -2.9242
  770SOL     MW 3080   3.090   1.626   2.563 -0.5654  0.7996 -0.4302
  771SOL     OW 3081   3.056   0.600   2.040 -0.1752  0.1380 -1.0950
  771SOL    HW1 3082   2.978   0.601   1.981 -2.1771  0.2310 -1.3162
  771SOL    HW2 3083   3.123   0.540   1.991  1.1844 -2.2331 -0.9557
  771SOL     MW 3084   3.055   0.592   2.026 -0.2599 -0.1626 -1.1058
  772SOL     OW 3085   0.059   0.013   2.298 -0.0531 -0.6232  0.0863
  772SOL    HW1 3086   0.006  -0.063   2.310 -0.4734 -0.0897  1.7207
  772SOL    HW2 3087   0.145  -0.014   2.265 -0.7266  0.0889  1.5539
  772SOL     MW 3088   0.063  -0.001   2.296 -0.1974 -0.4588  0.4955
  773SOL     OW 3089   2.428   2.855   2.747  0.2964 -0.2619 -0.0436
  773SOL    HW1 3090   2.452   2.776   2.700  0.9295 -0.4260 -1.3970
  773SOL    HW2 3091   2.424   2.823   2.837 -0.5015 -2.3837  1.7136
  773SOL     MW 3092   2.431   2.840   2.752  0.2747 -0.5635  0.0097
  774SOL     OW 3093   2.360   1.155   1.735  0.4315 -0.0486  0.2106
  774SOL    HW1 3094   2.340   1.213   1.663  0.0742 -0.6239 -0.4600
  774SOL    HW2 3095   2.323   1.066   1.720  0.9225 -2.8571 -0.0074
  774SOL     MW 3096   2.353   1.151   1.723  0.4491 -0.4950  0.0934
  775SOL     OW 3097   2.328   2.910   2.326 -0.2092  0.3822 -0.0485
  775SOL    HW1 3098   2.350   2.991   2.270 -1.0100  2.7265  0.4969
  775SOL    HW2 3099   2.388   2.841   2.321  1.0313  3.9626  2.0735
  775SOL     MW 3100   2.339   2.912   2.318 -0.1512  1.1639  0.3034
  776SOL     OW 3101   0.035   1.523   0.101  0.0742  0.5283 -0.0397
  776SOL    HW1 3102   0.128   1.516   0.107 -0.0883 -2.2777  0.1405
  776SOL    HW2 3103   0.008   1.434   0.117  1.6203  2.7117 -0.7434
  776SOL     MW 3104   0.044   1.511   0.104  0.2567  0.4461 -0.1088
  777SOL     OW 3105   2.973   1.009   1.748 -0.3883 -0.5768 -0.1166
  777SOL    HW1 3106   2.933   1.096   1.716  0.1371  1.5969  1.8479
  777SOL    HW2 3107   2.905   0.959   1.797  0.9092 -1.9838  1.5040
  777SOL     MW 3108   2.958   1.014   1.750 -0.1478 -0.4756  0.3564
  778SOL     OW 3109   2.888   0.411   2.769 -0.0147 -0.3215  0.1501
  778SOL    HW1 3110   2.846   0.448   2.853  0.5358 -1.5917  0.6708
  778SOL    HW2 3111   2.911   0.488   2.718  0.1757 -1.6790  1.3394
  778SOL     MW 3112   2.885   0.426   2.773  0.0830 -0.6682  0.3757
  779SOL     OW 3113   2.113   0.563   2.314 -0.0902 -0.3977  0.1728
  779SOL    HW1 3114   2.068   0.618   2.369  0.5409 -1.9955 -2.1037
  779SOL    HW2 3115   2.142   0.498   2.370 -2.8022  1.4773 -1.6480
  779SOL     MW 3116   2.111   0.562   2.329 -0.3648 -0.3611 -0.3678
  780SOL     OW 3117   0.198   0.126   2.834 -0.7171 -0.3596  0.1372
  780SOL    HW1 3118   0.127   0.157   2.892  0.1586  1.4848  1.9799
  780SOL    HW2 3119   0.180   0.122   2.737 -1.0880 -0.4904 -0.0784
  780SOL     MW 3120   0.187   0.130   2.829 -0.6505 -0.1335  0.3519
  781SOL     OW 3121   3.062   1.353   2.485 -0.4119  0.5013 -0.6097
  781SOL    HW1 3122   3.057   1.381   2.395  1.9945 -0.2283 -1.6973
  781SOL    HW2 3123   3.124   1.286   2.495  0.9913 -0.0792  0.2304
  781SOL     MW 3124   3.069   1.348   2.475  0.0907  0.3284 -0.6424
  782SOL     OW 3125   0.516   1.599   3.048  0.4335 -1.1669  0.0808
  782SOL    HW1 3126   0.453   1.672   3.052  0.2421  0.8313 -2.5691
  782SOL    HW2 3127   0.505   1.568   3.144  0.6428  0.8407  0.7349
  782SOL     MW 3128   0.506   1.604   3.061  0.4359 -0.6384 -0.1825
  783SOL     OW 3129   2.782   0.560   2.467  0.0299  0.2269 -0.6337
  783SOL    HW1 3130   2.820   0.508   2.397  1.8019 -0.3444  3.2168
  783SOL    HW2 3131   2.743   0.496   2.523  1.8306  0.5199 -1.6867
  783SOL     MW 3132   2.782   0.545   2.465  0.5013  0.1902 -0.2646
  784SOL     OW 3133   0.229   0.920   2.913 -0.4879  0.1307 -0.6373
  784SOL    HW1 3134   0.234   1.002   2.971  0.2947  2.3327  1.0336
  784SOL    HW2 3135   0.237   0.974   2.837 -2.2415  1.0660  3.5741
  784SOL     MW 3136   0.231   0.938   2.911 -0.6160  0.5446  0.1388
  785SOL     OW 3137   0.354   0.474   2.111 -0.3353 -0.1024 -0.0189
  785SOL    HW1 3138   0.364   0.504   2.018 -1.7047 -0.8597  1.5193
  785SOL    HW2 3139   0.298   0.397   2.117  1.6670  1.6342 -3.5494
  785SOL     MW 3140   0.348   0.468   2.100 -0.2518  0.0268 -0.2818
  786SOL     OW 3141   1.983   0.499   2.846  0.7424  0.5637 -1.0122
  786SOL    HW1 3142   1.940   0.483   2.931  0.9685  2.0064  0.7146
  786SOL    HW2 3143   2.072   0.507   2.865 -2.0411  0.0516  1.2662
  786SOL     MW 3144   1.989   0.498   2.859  0.4049  0.6865 -0.4838
  787SOL     OW 3145   2.439   0.193   2.908  0.3811  0.2134  0.3583
  787SOL    HW1 3146   2.497   0.131   2.868 -0.2753 -0.8726  0.2871
  787SOL    HW2 3147   2.488   0.260   2.950  0.2382 -1.6663  0.6768
  787SOL     MW 3148   2.453   0.194   2.908  0.2757 -0.1779  0.3909
  788SOL     OW 3149   2.963   2.918   2.281  0.0305  0.1975 -0.3283
  788SOL    HW1 3150   2.989   2.879   2.197 -2.1017 -1.4132  2.1416
  788SOL    HW2 3151   3.007   2.873   2.354  0.8638  0.6772  0.2119
  788SOL     MW 3152   2.973   2.907   2.280 -0.1409  0.0483  0.0688
  789SOL     OW 3153   0.017   0.242   3.026 -0.5177  0.4467  0.0252
  789SOL    HW1 3154  -0.068   0.281   3.016  1.9751 -0.3231 -0.1053
  789SOL    HW2 3155   0.062   0.289   3.097  2.0834 -0.8178  1.8423
  789SOL     MW 3156   0.012   0.253   3.034  0.1544  0.1783  0.2477
  790SOL     OW 3157   0.016   1.061   2.486  0.0906  0.2762  0.6401
  790SOL    HW1 3158  -0.031   1.009   2.548  0.8124 -0.8119  0.0668
  790SOL    HW2 3159  -0.028   1.043   2.405  0.3324 -1.6435  2.2551
  790SOL     MW 3160   0.004   1.052   2.483  0.2178 -0.1206  0.7776
  791SOL     OW 3161   2.649   0.391   2.633  0.1917 -0.1551  0.0715
  791SOL    HW1 3162   2.605   0.464   2.671  0.1549 -1.5825 -1.1602
  791SOL    HW2 3163   2.734   0.380   2.675 -0.5772  0.9053 -0.8368
  791SOL     MW 3164   2.655   0.399   2.644  0.0854 -0.2035 -0.2108
  792SOL     OW 3165   2.405   0.235   2.389  0.8468 -0.1162 -0.0255
  792SOL    HW1 3166   2.349   0.279   2.448  3.8522 -0.1521 -1.9718
  792SOL    HW2 3167   2.451   0.175   2.444 -2.3069 -0.8043 -0.0192
  792SOL     MW 3168   2.403   0.233   2.404  0.8272 -0.2117 -0.2815
  793SOL     OW 3169   1.745   1.029   1.859 -0.1837  0.1965 -0.1768
  793SOL    HW1 3170   1.715   1.092   1.797 -1.2241  3.0131 -0.3303
  793SOL    HW2 3171   1.820   1.001   1.811  0.8214  4.1154  0.0008
  793SOL     MW 3172   1.751   1.033   1.844 -0.1884  1.0852 -0.1736
  794SOL     OW 3173   1.414   2.288   0.122  0.0131  0.1858 -0.1458
  794SOL    HW1 3174   1.441   2.379   0.101 -0.7952  1.9455 -0.5040
  794SOL    HW2 3175   1.442   2.279   0.213  0.8365  0.4804 -0.9146
  794SOL     MW 3176   1.422   2.298   0.131  0.0151  0.4568 -0.2945
  795SOL     OW 3177   2.352   0.929   2.591  0.4263  0.1193  0.0558
  795SOL    HW1 3178   2.326   1.009   2.631  0.9011 -2.1681  0.7970
  795SOL    HW2 3179   2.335   0.947   2.498 -0.6895 -1.0292 -0.5673
  795SOL     MW 3180   2.346   0.942   2.584  0.3417 -0.3340  0.0714
  796SOL     OW 3181   0.318   0.683   2.771  0.0511  0.3742  0.3745
  796SOL    HW1 3182   0.276   0.746   2.830 -0.0156 -0.0941 -0.4164
  796SOL    HW2 3183   0.248   0.658   2.714  1.6668 -1.6051 -1.3604
  796SOL     MW 3184   0.303   0.688   2.771  0.2555  0.0512  0.0413
  797SOL     OW 3185   2.590   0.130   2.563 -0.1672  0.3463 -0.3549
  797SOL    HW1 3186   2.596   0.229   2.579 -1.1437  3.4005  0.7439
  797SOL    HW2 3187   2.656   0.108   2.498  0.1103  0.3714  0.9233
  797SOL     MW 3188   2.600   0.140   2.557 -0.2594  0.7526 -0.0413
  798SOL     OW 3189   2.382   0.042   2.184  0.0121 -0.1838  0.2683
  798SOL    HW1 3190   2.406   0.106   2.252  1.0906 -0.5937  0.9460
  798SOL    HW2 3191   2.468  -0.002   2.164 -1.3675 -1.3788 -0.4254
  798SOL     MW 3192   2.396   0.045   2.191 -0.0277 -0.3956  0.2662
  799SOL     OW 3193   2.492   2.937   0.198  0.5022  0.4152  0.0159
  799SOL    HW1 3194   2.538   2.871   0.144  0.1544 -0.5215  2.9334
  799SOL    HW2 3195   2.441   2.988   0.137 -0.2708  1.2803 -0.3075
  799SOL     MW 3196   2.492   2.935   0.183  0.3543  0.4058  0.3582
  800SOL     OW 3197   1.909   3.098   1.743  0.4770 -0.3952 -1.0162
  800SOL    HW1 3198   1.861   3.013   1.750 -1.9077  1.2216  1.3643
  800SOL    HW2 3199   1.952   3.102   1.833  1.0111  1.5093 -0.7912
  800SOL     MW 3200   1.909   3.087   1.755  0.2328  0.0694 -0.6724
  801SOL     OW 3201   2.815   1.285   2.586  0.3605  0.2268  0.5922
  801SOL    HW1 3202   2.793   1.191   2.560  1.8143 -1.8296  2.8765
  801SOL    HW2 3203   2.894   1.309   2.537 -0.9414  1.2522 -1.3813
  801SOL     MW 3204   2.823   1.276   2.576  0.3806  0.0907  0.6332
  802SOL     OW 3205   2.556   1.499   2.776  0.2701 -0.2614  0.2388
  802SOL    HW1 3206   2.556   1.404   2.757 -1.1476 -1.0181 -0.3063
  802SOL    HW2 3207   2.643   1.519   2.803 -2.4244 -0.6094  0.7838
  802SOL     MW 3208   2.567   1.489   2.777 -0.2725 -0.4071  0.2388
  803SOL     OW 3209   2.294   1.308   1.967 -0.2140  0.4891 -0.1652
  803SOL    HW1 3210   2.259   1.260   2.040 -2.6754 -0.6856 -0.6175
  803SOL    HW2 3211   2.284   1.244   1.896  0.0155  2.3436  0.4763
  803SOL     MW 3212   2.288   1.293   1.967 -0.5085  0.5788 -0.1403
  804SOL     OW 3213   2.350   0.047   0.043 -0.0871 -0.2576  0.0918
  804SOL    HW1 3214   2.264   0.092   0.022  0.4094 -1.2587 -0.2437
  804SOL    HW2 3215   2.400   0.094  -0.027  0.0023  0.4757  0.3438
  804SOL     MW 3216   2.345   0.059   0.031 -0.0098 -0.2929  0.0808
  805SOL     OW 3217   2.767   1.019   2.531 -0.0669 -0.1461 -0.0793
  805SOL    HW1 3218   2.705   0.944   2.544  2.9752 -2.0379  0.2910
  805SOL    HW2 3219   2.848   0.984   2.574  0.6949 -0.4306 -0.8382
  805SOL     MW 3220   2.769   1.004   2.538  0.4350 -0.4332 -0.1306
  806SOL     OW 3221   2.683   0.346   2.228 -0.2937 -0.1226 -0.4213
  806SOL    HW1 3222   2.591   0.326   2.239  1.4525 -3.2772 -0.6972
  806SOL    HW2 3223   2.674   0.437   2.209 -0.4378 -1.6391  3.1758
  806SOL     MW 3224   2.670   0.356   2.227 -0.0823 -0.7389  0.0169
  807SOL     OW 3225   0.023   1.155   2.064 -0.0951  0.1053  0.5690
  807SOL    HW1 3226   0.086   1.081   2.061  1.9556  2.5477 -1.5444
  807SOL    HW2 3227  -0.051   1.110   2.109 -0.4289 -2.5834 -0.1442
  807SOL     MW 3228   0.021   1.139   2.069  0.1314  0.0728  0.1960
  808SOL     OW 3229   2.577   3.087   2.800 -0.0282  0.0374 -0.3279
  808SOL    HW1 3230   2.540   2.996   2.788  3.8952 -1.7433  0.2786
  808SOL    HW2 3231   2.585   3.127   2.712  0.7975  0.5352  2.9483
  808SOL     MW 3232   2.573   3.081   2.787  0.5984 -0.1319  0.1844
  809SOL     OW 3233   2.493   1.238   2.411  0.1157 -0.2718 -0.0114
  809SOL    HW1 3234   2.506   1.270   2.495 -1.4424 -0.5661 -2.3948
  809SOL    HW2 3235   2.570   1.245   2.356  1.2000  2.2164 -0.7365
  809SOL     MW 3236   2.505   1.243   2.415  0.0532  0.0177 -0.4215
  810SOL     OW 3237   2.162   1.186   2.166 -0.2673 -0.1702 -0.2325
  810SOL    HW1 3238   2.215   1.132   2.225 -0.9454  1.9121  3.2383
  810SOL    HW2 3239   2.074   1.143   2.168 -0.2894 -1.6640 -0.0820
  810SOL     MW 3240   2.157   1.173   2.174 -0.3597 -0.0925  0.2453
  811SOL     OW 3241   1.491   0.100   2.250  0.4522 -0.6446 -0.2735
  811SOL    HW1 3242   1.576   0.053   2.280  4.6085  2.6705  1.2440
  811SOL    HW2 3243   1.482   0.083   2.151  2.7524  3.2756 -0.3034
  811SOL     MW 3244   1.501   0.092   2.241  1.3041  0.3101 -0.0772
  812SOL     OW 3245   1.426   2.771   2.115  0.7297 -0.2444  0.1758
  812SOL    HW1 3246   1.525   2.781   2.107 -0.9797  2.6275  0.5074
  812SOL    HW2 3247   1.415   2.712   2.189  1.8570  0.1691  0.0649
  812SOL     MW 3248   1.438   2.765   2.124  0.6529  0.1891  0.2049
  813SOL     OW 3249   1.851   0.757   2.164 -0.0127 -0.4443  0.0288
  813SOL    HW1 3250   1.799   0.685   2.198 -2.8201 -0.8060 -2.7351
  813SOL    HW2 3251   1.912   0.781   2.239 -0.7120  0.2962  1.7631
  813SOL     MW 3252   1.852   0.751   2.178 -0.4754 -0.3943 -0.1070
  814SOL     OW 3253   2.795   1.202   1.618  0.3115  0.0551  0.3154
  814SOL    HW1 3254   2.732   1.199   1.697 -2.9681 -0.7863 -0.5019
  814SOL    HW2 3255   2.780   1.124   1.564  1.1641 -0.4808  1.0052
  814SOL     MW 3256   2.785   1.191   1.621 -0.0087 -0.1266  0.2986
  815SOL     OW 3257   2.470   1.635   2.342  0.4260 -0.4324  0.1316
  815SOL    HW1 3258   2.416   1.562   2.300 -2.0856 -0.3203 -2.4035
  815SOL    HW2 3259   2.549   1.594   2.364 -2.2762 -0.0539  1.7745
  815SOL     MW 3260   2.473   1.620   2.339 -0.2619 -0.3677  0.0139
  816SOL     OW 3261   0.658   0.672   2.677 -0.3456 -0.5809 -0.6726
  816SOL    HW1 3262   0.707   0.615   2.737 -2.2376  0.0925 -1.8332
  816SOL    HW2 3263   0.618   0.613   2.604  0.3393  0.0233  0.3688
  816SOL     MW 3264   0.659   0.656   2.675 -0.5049 -0.4123 -0.6883
  817SOL     OW 3265   3.011   1.151   1.349  0.4919  0.2621 -0.0872
  817SOL    HW1 3266   3.060   1.176   1.426  1.9804 -1.5878 -0.5982
  817SOL    HW2 3267   2.984   1.238   1.309  1.8060  1.3280 -5.9236
  817SOL     MW 3268   3.014   1.166   1.354  0.8617  0.1587 -0.9247
  818SOL     OW 3269   1.911   0.964   2.686 -0.4071 -0.2312  0.2457
  818SOL    HW1 3270   1.957   1.031   2.634 -0.6345  2.1725 -0.2860
  818SOL    HW2 3271   1.982   0.906   2.712  2.8295  2.6677 -1.9824
  818SOL     MW 3272   1.926   0.965   2.682 -0.0101  0.4684 -0.1184
  819SOL     OW 3273   1.874   0.257   2.334  1.1433 -0.2836  0.1607
  819SOL    HW1 3274   1.850   0.354   2.337 -0.4587  0.8493 -2.2977
  819SOL    HW2 3275   1.921   0.242   2.415  0.2541  1.4008 -1.1857
  819SOL     MW 3276   1.877   0.268   2.345  0.8146  0.0881 -0.3413
  820SOL     OW 3277   2.487   1.748   2.608  0.1489  0.2153 -0.4895
  820SOL    HW1 3278   2.486   1.665   2.655 -3.3018 -0.6505  4.2091
  820SOL    HW2 3279   2.509   1.709   2.522 -1.7268 -1.2450 -0.0323
  820SOL     MW 3280   2.490   1.732   2.603 -0.5539 -0.0916  0.1908
  821SOL     OW 3281   2.579   1.330   1.991 -0.0744 -0.1528  0.1592
  821SOL    HW1 3282   2.607   1.390   1.916  0.1687 -1.2407 -0.7212
  821SOL    HW2 3283   2.487   1.333   1.986  0.5715 -0.3304  1.0021
  821SOL     MW 3284   2.570   1.338   1.981  0.0429 -0.3198  0.1542
  822SOL     OW 3285   2.924   2.656   1.423  0.0850 -0.6072  0.8649
  822SOL    HW1 3286   2.837   2.684   1.403  0.4175 -2.3492 -0.6107
  822SOL    HW2 3287   2.971   2.735   1.439 -0.4214  2.2811  0.4293
  822SOL     MW 3288   2.919   2.670   1.422  0.0621 -0.4560  0.6127
  823SOL     OW 3289   2.339   0.466   1.760  0.5856  0.4951  0.7419
  823SOL    HW1 3290   2.427   0.430   1.736 -0.0709 -2.8886  2.4449
  823SOL    HW2 3291   2.273   0.392   1.749  0.5428 -0.8157  0.4502
  823SOL     MW 3292   2.342   0.451   1.755  0.4933 -0.1243  0.9281
  824SOL     OW 3293   2.116   1.373   2.594 -0.0579 -0.4113  0.2933
  824SOL    HW1 3294   2.149   1.408   2.508 -0.0693  2.2484 -0.5072
  824SOL    HW2 3295   2.062   1.448   2.632  0.1573 -0.1841  0.7635
  824SOL     MW 3296   2.113   1.388   2.587 -0.0310 -0.0304  0.2497
  825SOL     OW 3297   2.132   2.395   0.354 -0.1888 -0.3464 -0.1544
  825SOL    HW1 3298   2.195   2.378   0.277  2.2339  1.7262 -0.8197
  825SOL    HW2 3299   2.175   2.375   0.435  1.0805 -2.5558 -2.3063
  825SOL     MW 3300   2.146   2.390   0.355  0.2983 -0.3645 -0.5261
  826SOL     OW 3301   1.741   2.390   0.420 -0.1197  0.1129 -0.2344
  826SOL    HW1 3302   1.767   2.318   0.485  0.4779 -0.3660  2.0682
  826SOL    HW2 3303   1.752   2.470   0.474  2.1516  0.9102  2.4062
  826SOL     MW 3304   1.746   2.391   0.436  0.2588  0.1549  0.4178
  827SOL     OW 3305   1.934   2.278   0.861 -0.0032 -0.1936 -0.0740
  827SOL    HW1 3306   1.878   2.277   0.779  0.0809 -1.0015 -0.3698
  827SOL    HW2 3307   1.880   2.212   0.908 -5.0519  1.0899  2.0265
  827SOL     MW 3308   1.919   2.269   0.856 -0.6582 -0.1308  0.1641
  828SOL     OW 3309   0.083   2.608   0.552  0.5423  0.2192 -0.1798
  828SOL    HW1 3310   0.180   2.615   0.553  1.2488  2.1217  0.7021
  828SOL    HW2 3311   0.051   2.626   0.460  1.1564 -2.5063 -0.0596
  828SOL     MW 3312   0.091   2.611   0.540  0.7165  0.1106 -0.0476
  829SOL     OW 3313   2.986   2.873   1.198  0.1949 -0.5679 -0.3141
  829SOL    HW1 3314   2.909   2.881   1.138  2.2279 -1.3949  2.5798
  829SOL    HW2 3315   3.039   2.801   1.170  0.2030  1.7777  0.1365
  829SOL     MW 3316   2.983   2.864   1.186  0.4642 -0.3675  0.1272
  830SOL     OW 3317   2.517   2.783   1.999  0.5865  0.3128  0.1422
  830SOL    HW1 3318   2.427   2.814   1.973 -3.7414  2.2450 -0.3102
  830SOL    HW2 3319   2.571   2.782   1.922 -2.4049 -2.3894 -0.4222
  830SOL     MW 3320   2.512   2.787   1.986 -0.3792  0.2112  0.0080
  831SOL     OW 3321   2.463   2.423   1.236  0.1314 -0.2316  0.3173
  831SOL    HW1 3322   2.419   2.348   1.283  0.0510  1.3381  1.9891
  831SOL    HW2 3323   2.552   2.395   1.211  0.3392 -0.2347 -1.5296
  831SOL     MW 3324   2.469   2.409   1.239  0.1482 -0.0249  0.2942
  832SOL     OW 3325   2.432   2.119   1.911  0.0223 -0.4298 -0.1719
  832SOL    HW1 3326   2.461   2.211   1.928  0.8160  3.4039 -1.3903
  832SOL    HW2 3327   2.490   2.090   1.844  1.4851  0.0123  2.6744
  832SOL     MW 3328   2.444   2.128   1.905  0.3200  0.1344  0.0429
  833SOL     OW 3329   1.627   2.515   0.821 -0.2490 -0.8023 -0.2447
  833SOL    HW1 3330   1.605   2.473   0.909 -0.0608  1.4325 -1.1561
  833SOL    HW2 3331   1.560   2.587   0.794  1.1459  0.3100 -4.2774
  833SOL     MW 3332   1.615   2.519   0.829 -0.0401 -0.3607 -0.8970
  834SOL     OW 3333   2.241   2.380   0.653 -0.7294  0.5103 -0.1282
  834SOL    HW1 3334   2.217   2.292   0.697 -2.4634  1.2742  1.9601
  834SOL    HW2 3335   2.335   2.392   0.665  2.2735  0.0085  0.5270
  834SOL     MW 3336   2.250   2.370   0.661 -0.5620  0.5449  0.2338
  835SOL     OW 3337   1.834   2.546   0.638  1.5140  0.7481  0.6678
  835SOL    HW1 3338   1.773   2.524   0.702  0.8935  3.6104  2.6352
  835SOL    HW2 3339   1.914   2.578   0.678 -1.3499  1.8165  2.5791
  835SOL     MW 3340   1.837   2.547   0.652  1.0542  1.2667  1.1796
  836SOL     OW 3341   2.092   2.071   1.738 -0.3284 -0.3454  0.6887
  836SOL    HW1 3342   2.175   2.027   1.731  0.7281 -0.8261 -0.3106
  836SOL    HW2 3343   2.111   2.156   1.778 -0.4857 -1.3017  1.6751
  836SOL     MW 3344   2.105   2.076   1.742 -0.2098 -0.5350  0.6870
  837SOL     OW 3345   2.118   0.175   0.627  0.2507  0.0971  0.6072
  837SOL    HW1 3346   2.033   0.192   0.592  5.6807  0.1057  0.2567
  837SOL    HW2 3347   2.148   0.106   0.567 -0.6608 -0.2954  2.7017
  837SOL     MW 3348   2.111   0.168   0.614  0.8469  0.0465  0.8373
  838SOL     OW 3349   2.922   2.061   0.903  0.4222 -0.1111  0.2437
  838SOL    HW1 3350   2.871   1.979   0.883  0.1568 -0.7951  0.0745
  838SOL    HW2 3351   2.983   2.027   0.967 -0.6338  0.9559 -0.8407
  838SOL     MW 3352   2.923   2.046   0.909  0.2478 -0.0606  0.0783
  839SOL     OW 3353   1.526   2.390   1.071  0.1702 -0.1017  0.8578
  839SOL    HW1 3354   1.521   2.468   1.125 -1.2701 -1.1974  1.5402
  839SOL    HW2 3355   1.575   2.325   1.133 -4.0511  1.3731 -0.0725
  839SOL     MW 3356   1.532   2.392   1.087 -0.5768 -0.0517  0.8251
  840SOL     OW 3357   2.428   2.111   2.322 -0.3614  0.0348 -0.0843
  840SOL    HW1 3358   2.377   2.189   2.292 -0.1921 -0.2287 -1.0178
  840SOL    HW2 3359   2.463   2.129   2.414 -0.5752 -0.1986  1.0441
  840SOL     MW 3360   2.426   2.124   2.330 -0.3673 -0.0308 -0.0586
  841SOL     OW 3361   2.320   2.297   0.118 -0.5422  0.0422 -0.1048
  841SOL    HW1 3362   2.320   2.379   0.064 -0.2849  1.7387  1.6240
  841SOL    HW2 3363   2.245   2.251   0.082 -0.0769  0.8014 -1.4377
  841SOL     MW 3364   2.310   2.302   0.106 -0.4469  0.3662 -0.0525
  842SOL     OW 3365   2.650   1.929   1.477  0.6723  0.2655  0.4302
  842SOL    HW1 3366   2.620   1.838   1.473  0.5174 -0.5259 -1.7557
  842SOL    HW2 3367   2.627   1.967   1.392  1.0157  0.2224  2.2407
  842SOL     MW 3368   2.643   1.922   1.465  0.6971  0.1554  0.3806
  843SOL     OW 3369   2.652   2.780   1.763 -0.2647  0.2853  0.1128
  843SOL    HW1 3370   2.738   2.752   1.783 -0.9015 -0.4202 -1.0191
  843SOL    HW2 3371   2.602   2.697   1.735  2.0813 -2.2450  0.6567
  843SOL     MW 3372   2.657   2.765   1.762 -0.0392 -0.1416  0.0352
  844SOL     OW 3373   2.687   2.333   1.083 -0.2576  0.1041 -0.1257
  844SOL    HW1 3374   2.715   2.367   0.999 -2.7058  0.5932 -1.1213
  844SOL    HW2 3375   2.750   2.363   1.150 -0.2998 -1.2513  0.4565
  844SOL     MW 3376   2.699   2.342   1.081 -0.5862 -0.0102 -0.1803
  845SOL     OW 3377   2.850   2.607   0.282 -0.7516  0.1320 -0.3350
  845SOL    HW1 3378   2.834   2.523   0.333  1.0788  1.9205 -1.5093
  845SOL    HW2 3379   2.861   2.685   0.340  1.9918  2.2281 -0.3815
  845SOL     MW 3380   2.850   2.607   0.297 -0.1481  0.6445 -0.4960
  846SOL     OW 3381   1.462   2.748   0.782 -0.0639 -0.3524 -0.3507
  846SOL    HW1 3382   1.531   2.816   0.789 -1.4432  0.8213 -0.6061
  846SOL    HW2 3383   1.378   2.788   0.800 -2.0255 -1.7478 -0.5019
  846SOL     MW 3384   1.460   2.762   0.785 -0.5047 -0.3816 -0.4043
  847SOL     OW 3385   2.456   1.836   0.219 -0.3712 -0.4159 -0.0216
  847SOL    HW1 3386   2.428   1.743   0.247  0.0567 -2.8688  1.5094
  847SOL    HW2 3387   2.419   1.850   0.122  1.0554 -0.4050 -2.1738
  847SOL     MW 3388   2.447   1.826   0.210 -0.1265 -0.7381 -0.1035
  848SOL     OW 3389   2.680   2.049   1.201  0.3254  0.0429 -0.3221
  848SOL    HW1 3390   2.688   2.136   1.161 -0.8281  1.7014  4.4724
  848SOL    HW2 3391   2.734   1.996   1.145  0.5302 -2.9068  0.6616
  848SOL     MW 3392   2.688   2.053   1.189  0.2003 -0.1274  0.4403
  849SOL     OW 3393   1.945   2.843   0.826 -0.2315  0.1387  0.1934
  849SOL    HW1 3394   1.898   2.791   0.894  2.1463 -5.3175  0.2141
  849SOL    HW2 3395   1.992   2.773   0.774  1.5870  1.1993 -1.6700
  849SOL     MW 3396   1.945   2.827   0.828  0.3222 -0.4413 -0.0497
  850SOL     OW 3397   2.326   1.927   1.619  0.0513  0.3689 -0.2568
  850SOL    HW1 3398   2.248   1.904   1.561  1.5781  1.1153 -1.1971
  850SOL    HW2 3399   2.355   2.022   1.595  3.5247  3.6079  1.7931
  850SOL     MW 3400   2.319   1.936   1.608  0.7111  0.8947 -0.1104
  851SOL     OW 3401   2.525   2.201   0.389  0.7770 -0.2308  0.4958
  851SOL    HW1 3402   2.554   2.196   0.294  0.7149 -1.0122 -1.4249
  851SOL    HW2 3403   2.494   2.290   0.391 -2.4390 -2.4217 -0.6203
  851SOL     MW 3404   2.525   2.212   0.377  0.3445 -0.6230  0.0951
  852SOL     OW 3405   2.277   1.995   0.351  0.0875 -0.0790 -0.1208
  852SOL    HW1 3406   2.336   2.070   0.336  0.7001  0.1493 -2.4120
  852SOL    HW2 3407   2.323   1.938   0.287 -0.2311  1.3176  0.1110
  852SOL     MW 3408   2.291   1.997   0.341  0.1263  0.1354 -0.3925
  853SOL     OW 3409   2.533   2.374   1.909  0.1497  0.4051 -0.2838
  853SOL    HW1 3410   2.507   2.432   1.837 -2.7083  0.9525  0.0530
  853SOL    HW2 3411   2.627   2.394   1.936 -1.5365 -0.5211 -0.2501
  853SOL     MW 3412   2.542   2.384   1.903 -0.4499  0.3551 -0.2350
  854SOL     OW 3413   2.880   2.260   0.734 -0.7892 -0.5317 -0.1090
  854SOL    HW1 3414   2.812   2.237   0.674  0.4298  0.5279 -0.2126
  854SOL    HW2 3415   2.904   2.181   0.791 -3.2148 -1.3254  2.7120
  854SOL     MW 3416   2.874   2.247   0.734 -0.9484 -0.4966  0.2495
  855SOL     OW 3417   2.793   2.383   0.429  0.1337 -0.1438  0.0801
  855SOL    HW1 3418   2.699   2.385   0.422  0.9206 -1.2792 -1.4840
  855SOL    HW2 3419   2.819   2.300   0.396  0.6108  1.0022  1.5829
  855SOL     MW 3420   2.784   2.373   0.424  0.3005 -0.1424  0.0720
  856SOL     OW 3421   2.077   1.866   0.243  0.7338  0.1137  0.1216
  856SOL    HW1 3422   1.993   1.889   0.283  0.1415 -0.4673 -0.4046
  856SOL    HW2 3423   2.141   1.925   0.286  2.8478 -1.1415  0.6514
  856SOL     MW 3424   2.074   1.877   0.254  0.9346 -0.1285  0.1221
  857SOL     OW 3425   2.463   1.929   0.584 -0.1370 -0.7071 -0.2001
  857SOL    HW1 3426   2.416   1.963   0.506  0.6117 -0.7143  1.4493
  857SOL    HW2 3427   2.385   1.927   0.648 -2.0804  0.7330  1.3783
  857SOL     MW 3428   2.447   1.934   0.582 -0.2946 -0.5180  0.2258
  858SOL     OW 3429   2.900   2.695   1.801  0.7184 -0.4716  0.4271
  858SOL    HW1 3430   2.973   2.751   1.822 -0.5806  1.6519 -1.8769
  858SOL    HW2 3431   2.929   2.632   1.739  1.0722  1.9783  0.9433
  858SOL     MW 3432   2.913   2.694   1.796  0.5937  0.1318  0.1912
  859SOL     OW 3433   1.785   2.669   0.968 -0.8044 -0.4258 -0.1465
  859SOL    HW1 3434   1.729   2.612   0.913 -0.7376 -2.4652 -1.6488
  859SOL    HW2 3435   1.839   2.619   1.028  0.7356 -2.2239  3.6169
  859SOL     MW 3436   1.785   2.655   0.968 -0.5924 -0.9322  0.1518
  860SOL     OW 3437   2.624   2.582   0.138  0.6275  0.0804 -0.3766
  860SOL    HW1 3438   2.705   2.586   0.192 -0.7896 -0.7235 -1.5559
  860SOL    HW2 3439   2.624   2.672   0.095 -0.6017  2.3167 -1.1541
  860SOL     MW 3440   2.634   2.595   0.139  0.2783  0.2694 -0.6347
  861SOL     OW 3441   1.614   2.145   1.186 -0.2054  0.0055 -0.5634
  861SOL    HW1 3442   1.653   2.187   1.263 -0.8490  4.6705  0.2855
  861SOL    HW2 3443   1.537   2.092   1.214 -0.2263 -1.4989 -0.1459
  861SOL     MW 3444   1.609   2.144   1.200 -0.2931  0.4225 -0.3963
  862SOL     OW 3445   2.412   1.715   1.427 -0.3641  0.0710  0.2447
  862SOL    HW1 3446   2.379   1.784   1.476 -1.2594 -0.1191 -1.8690
  862SOL    HW2 3447   2.400   1.738   1.336 -0.0739 -2.4078 -0.8582
  862SOL     MW 3448   2.406   1.727   1.422 -0.4439 -0.2811 -0.1797
  863SOL     OW 3449   2.939   1.716   0.974 -0.7639  0.1004 -0.0038
  863SOL    HW1 3450   2.955   1.763   1.054 -1.5760 -0.8291  0.2700
  863SOL    HW2 3451   2.845   1.729   0.958 -1.8613 -3.2373 -1.8273
  863SOL     MW 3452   2.929   1.724   0.982 -1.0159 -0.4626 -0.2083
  864SOL     OW 3453   0.021   1.761   0.763  0.1055 -0.1604  0.0719
  864SOL    HW1 3454  -0.025   1.732   0.843  0.1254  0.0535 -0.1598
  864SOL    HW2 3455  -0.040   1.727   0.698 -4.2122 -1.8734  1.7688
  864SOL     MW 3456   0.007   1.753   0.765 -0.4615 -0.3582  0.2652
  865SOL     OW 3457   2.556   2.143   0.127 -0.4769 -0.2752  0.4005
  865SOL    HW1 3458   2.565   2.084   0.058 -0.3920  0.4455  1.6893
  865SOL    HW2 3459   2.467   2.184   0.103  1.7391 -1.3269 -1.4207
  865SOL     MW 3460   2.546   2.141   0.115 -0.1733 -0.3189  0.3302
  866SOL     OW 3461   2.720   2.349   1.525  0.5537  0.1180 -0.3524
  866SOL    HW1 3462   2.717   2.258   1.557  1.7243 -2.3918  2.1745
  866SOL    HW2 3463   2.756   2.344   1.435 -1.4958  0.9117 -0.0595
  866SOL     MW 3464   2.724   2.336   1.518  0.4377 -0.1084  0.0197
  867SOL     OW 3465   0.103   2.663   1.735  0.3577  0.2883  0.1428
  867SOL    HW1 3466   0.190   2.683   1.765 -1.0021  0.2879 -1.1123
  867SOL    HW2 3467   0.081   2.713   1.652 -0.3343  0.3091 -0.3208
  867SOL     MW 3468   0.112   2.672   1.728  0.0870  0.2910 -0.0840
  868SOL     OW 3469   2.737   2.690   0.584  0.2070 -0.3427  0.5356
  868SOL    HW1 3470   2.740   2.591   0.571 -0.5349  1.2083  1.7429
  868SOL    HW2 3471   2.671   2.721   0.519 -1.3603  0.0531 -0.3678
  868SOL     MW 3472   2.728   2.681   0.574 -0.0977 -0.0859  0.5757
  869SOL     OW 3473   1.974   2.468   1.056 -1.0794  0.0013  0.4106
  869SOL    HW1 3474   2.045   2.516   1.011 -0.8747  0.9898 -0.7416
  869SOL    HW2 3475   1.964   2.405   0.986 -1.7927 -1.8313  0.4541
  869SOL     MW 3476   1.982   2.466   1.041 -1.1465 -0.1101  0.2643
  870SOL     OW 3477   2.222   3.078   0.460 -0.7186  0.2686 -0.5990
  870SOL    HW1 3478   2.308   3.111   0.444  1.5282 -2.2748  0.1092
  870SOL    HW2 3479   2.236   2.987   0.492 -0.0074 -1.7338  0.4321
  870SOL     MW 3480   2.235   3.070   0.462 -0.3283 -0.3312 -0.3695
  871SOL     OW 3481   2.476   2.097   0.910 -0.1803 -0.1961  0.2846
  871SOL    HW1 3482   2.386   2.095   0.895  0.0542  0.9447  0.6651
  871SOL    HW2 3483   2.478   2.182   0.953  0.7950  0.3751  0.3677
  871SOL     MW 3484   2.464   2.108   0.914 -0.0207  0.0298  0.3458
  872SOL     OW 3485   2.119   2.524   1.630 -0.0527 -0.4060  0.9375
  872SOL    HW1 3486   2.060   2.599   1.626 -0.9974 -0.9357  1.6703
  872SOL    HW2 3487   2.110   2.489   1.536 -0.5306 -0.1642 -0.0803
  872SOL     MW 3488   2.110   2.529   1.617 -0.2404 -0.4440  0.8999
  873SOL     OW 3489   2.865   2.165   1.821 -0.2201  0.1520  0.4112
  873SOL    HW1 3490   2.857   2.254   1.850 -0.0841 -1.3361 -1.2718
  873SOL    HW2 3491   2.951   2.161   1.776  0.9112  1.9205  2.6006
  873SOL     MW 3492   2.875   2.176   1.819 -0.0529  0.1890  0.4781
  874SOL     OW 3493   2.259   1.413   2.329  0.3947  0.5702 -0.0091
  874SOL    HW1 3494   2.208   1.362   2.263 -0.2980  0.0249  0.9954
  874SOL    HW2 3495   2.332   1.360   2.356  3.4864 -0.2556  2.8459
  874SOL     MW 3496   2.262   1.399   2.324  0.7112  0.3893  0.5001
  875SOL     OW 3497   2.387   2.357   0.955 -0.0571 -0.2943  0.1170
  875SOL    HW1 3498   2.434   2.411   0.893  0.3643 -0.1894  1.2010
  875SOL    HW2 3499   2.405   2.405   1.042  0.1126 -1.7367  3.1879
  875SOL     MW 3500   2.395   2.371   0.958  0.0209 -0.4708  0.6652
  876SOL     OW 3501   3.075   2.236   1.317  0.3487 -0.7469  0.4437
  876SOL    HW1 3502   3.157   2.270   1.278 -1.7151  1.0213 -0.6681
  876SOL    HW2 3503   3.091   2.230   1.411  2.1403  3.0837  2.7655
  876SOL     MW 3504   3.088   2.239   1.324  0.3128 -0.0082  0.6033
  877SOL     OW 3505   0.016   2.745   0.315  0.2174  0.4602 -0.3125
  877SOL    HW1 3506   0.075   2.813   0.291 -0.9163  3.3416  0.7986
  877SOL    HW2 3507  -0.013   2.689   0.236 -0.8808 -0.0285 -1.8858
  877SOL     MW 3508   0.020   2.746   0.301 -0.0771  0.7759 -0.3735
  878SOL     OW 3509   2.261   1.663   1.158  0.2502 -0.1280 -0.0056
  878SOL    HW1 3510   2.203   1.631   1.242 -1.0598 -0.7053 -0.1721
  878SOL    HW2 3511   2.270   1.584   1.102 -0.5389 -2.0347 -1.6597
  878SOL     MW 3512   2.254   1.649   1.161 -0.0267 -0.4557 -0.2458
  879SOL     OW 3513   2.733   2.481   0.850  0.4324  0.1025  0.3022
  879SOL    HW1 3514   2.803   2.543   0.871  0.6294 -1.5245 -1.9467
  879SOL    HW2 3515   2.784   2.408   0.804 -2.6577  0.2992 -0.2871
  879SOL     MW 3516   2.749   2.479   0.847  0.0507 -0.0862 -0.0723
  880SOL     OW 3517   2.603   2.214   0.681  0.7117 -0.0494  0.6248
  880SOL    HW1 3518   2.570   2.156   0.747  1.3076  0.3145 -3.3642
  880SOL    HW2 3519   2.544   2.212   0.599 -0.4845  0.4266 -2.0161
  880SOL     MW 3520   2.591   2.207   0.679  0.6325  0.0614 -0.2499
  881SOL     OW 3521   2.987   2.766   0.709 -0.0237 -0.5516 -0.0796
  881SOL    HW1 3522   2.896   2.755   0.669  0.9802 -0.2883  0.8826
  881SOL    HW2 3523   3.048   2.700   0.674 -1.3784  2.8375 -0.2491
  881SOL     MW 3524   2.983   2.756   0.699 -0.0700 -0.0697  0.0250
  882SOL     OW 3525   2.230   2.903   1.938 -0.1939 -0.2038  0.0311
  882SOL    HW1 3526   2.243   2.930   1.845 -1.5257  0.9306  0.0575
  882SOL    HW2 3527   2.204   2.814   1.941 -0.8661  0.6834 -1.2804
  882SOL     MW 3528   2.228   2.895   1.926 -0.4583  0.0629 -0.1385
  883SOL     OW 3529   2.463   2.146   1.299  0.3046  0.1343  0.0774
  883SOL    HW1 3530   2.531   2.097   1.252  1.3866 -0.1250 -2.3210
  883SOL    HW2 3531   2.376   2.123   1.256 -0.1172 -1.6003 -2.1616
  883SOL     MW 3532   2.460   2.136   1.287  0.3917 -0.1288 -0.5344
  884SOL     OW 3533   1.916   1.852   1.046 -0.0549  0.6806 -0.4094
  884SOL    HW1 3534   1.874   1.941   1.034 -1.9564 -1.1146  3.0742
  884SOL    HW2 3535   2.012   1.857   1.037 -0.0504  0.9562  0.2497
  884SOL     MW 3536   1.923   1.865   1.043 -0.3052  0.4801  0.1372
  885SOL     OW 3537   2.936   2.429   1.681  0.5149  0.2704  0.2076
  885SOL    HW1 3538   2.990   2.354   1.660 -0.4504 -1.2768 -0.5872
  885SOL    HW2 3539   2.860   2.415   1.622 -1.3278 -1.6411 -2.1311
  885SOL     MW 3540   2.933   2.417   1.671  0.1444 -0.1860 -0.2058
  886SOL     OW 3541   2.880   2.426   1.265 -0.6201 -0.2573 -0.1872
  886SOL    HW1 3542   2.958   2.380   1.256 -2.1710  0.1234 -1.5235
  886SOL    HW2 3543   2.913   2.507   1.314 -0.4225  2.6077  0.6137
  886SOL     MW 3544   2.895   2.430   1.271 -0.7986  0.1710 -0.2578
  887SOL     OW 3545   2.319   2.694   1.566 -0.0699 -0.5209  0.2601
  887SOL    HW1 3546   2.357   2.671   1.477 -0.5119 -1.3547 -1.0307
  887SOL    HW2 3547   2.243   2.635   1.579 -1.9584 -0.7191 -2.2412
  887SOL     MW 3548   2.314   2.683   1.556 -0.3774 -0.6571 -0.2402
  888SOL     OW 3549   2.047   2.170   1.417  0.0978  0.6229  0.1422
  888SOL    HW1 3550   2.087   2.138   1.336  0.6267 -0.7066  1.0949
  888SOL    HW2 3551   2.112   2.145   1.488 -1.1326 -2.5268  1.6466
  888SOL     MW 3552   2.061   2.162   1.416  0.0052  0.0319  0.4664
  889SOL     OW 3553   2.289   1.896   2.079 -0.1913  0.1657  0.9174
  889SOL    HW1 3554   2.379   1.853   2.092 -0.4277 -2.5982  2.2696
  889SOL    HW2 3555   2.313   1.988   2.061  1.3165 -1.1223 -0.5411
  889SOL     MW 3556   2.304   1.902   2.078 -0.0235 -0.3689  0.9034
  890SOL     OW 3557   0.056   2.348   0.160  0.4828 -0.2304 -0.1583
  890SOL    HW1 3558   0.008   2.437   0.148 -0.7007 -0.2019  0.6559
  890SOL    HW2 3559   0.057   2.319   0.248 -1.4767 -0.8873 -4.6260
  890SOL     MW 3560   0.050   2.356   0.170  0.0681 -0.3133 -0.6403
  891SOL     OW 3561   3.004   1.988   1.165  0.1525 -0.8383 -0.1234
  891SOL    HW1 3562   3.078   1.931   1.151  1.1138 -0.7053 -3.8757
  891SOL    HW2 3563   3.028   2.076   1.207 -3.1684  1.6676 -0.3627
  891SOL     MW 3564   3.017   1.992   1.169 -0.1588 -0.4901 -0.6501
  892SOL     OW 3565   2.481   2.368   2.787 -0.1784 -0.3840 -0.2892
  892SOL    HW1 3566   2.441   2.289   2.821  0.7249  2.5462 -2.1000
  892SOL    HW2 3567   2.567   2.380   2.834  0.0864 -1.5969  1.3930
  892SOL     MW 3568   2.487   2.359   2.797 -0.0243 -0.1574 -0.3062
  893SOL     OW 3569   1.634   2.337   1.398 -0.1583  0.2520  0.5752
  893SOL    HW1 3570   1.547   2.387   1.395  0.4844 -0.5744  2.1636
  893SOL    HW2 3571   1.673   2.363   1.481 -1.6473 -0.2775  1.2071
  893SOL     MW 3572   1.628   2.347   1.408 -0.2699  0.0731  0.8681
  894SOL     OW 3573   2.759   1.939   0.473 -0.2309  0.9561  0.1720
  894SOL    HW1 3574   2.691   1.946   0.534  1.3343  0.8538 -2.4451
  894SOL    HW2 3575   2.719   1.893   0.399 -2.2780 -0.7248 -0.4189
  894SOL     MW 3576   2.745   1.934   0.472 -0.2945  0.7208 -0.2513
  895SOL     OW 3577   2.245   2.117   1.128 -0.2888  0.7998  0.6572
  895SOL    HW1 3578   2.263   2.180   1.061  0.5903 -2.2366  1.2712
  895SOL    HW2 3579   2.215   2.039   1.086 -0.7239  0.1939 -0.6509
  895SOL     MW 3580   2.243   2.115   1.113 -0.2302  0.3192  0.5656
  896SOL     OW 3581   2.225   2.810   1.068  0.0565  0.5663  0.1549
  896SOL    HW1 3582   2.281   2.780   1.141 -2.5786  0.7823  0.6359
  896SOL    HW2 3583   2.163   2.874   1.099  0.6616  0.1002 -0.3829
  896SOL     MW 3584   2.224   2.814   1.082 -0.2114  0.5333  0.1474
  897SOL     OW 3585   3.097   3.036   3.102  0.2502  0.5390 -0.3631
  897SOL    HW1 3586   3.154   2.956   3.087  2.1980 -2.6886 -1.2118
  897SOL    HW2 3587   3.053   3.057   3.015 -1.1992 -0.0274  0.7923
  897SOL     MW 3588   3.098   3.029   3.088  0.3160  0.0384 -0.3226
  898SOL     OW 3589   2.197   0.156   1.457  0.4031  0.5296 -0.0088
  898SOL    HW1 3590   2.142   0.077   1.455 -0.2938 -0.3244  1.2432
  898SOL    HW2 3591   2.190   0.199   1.376 -0.1129 -2.3762  0.6919
  898SOL     MW 3592   2.189   0.151   1.446  0.2431  0.0335  0.2489
  899SOL     OW 3593   2.948   3.034   0.627  0.5623 -0.0942  0.3005
  899SOL    HW1 3594   2.982   2.961   0.677  2.6275  1.2630  0.1158
  899SOL    HW2 3595   2.855   3.027   0.646  1.2087  1.4037 -2.6288
  899SOL     MW 3596   2.940   3.023   0.636  0.9201  0.2825 -0.1103
  900SOL     OW 3597   0.161   2.394   1.113  0.4943  0.2584  0.7466
  900SOL    HW1 3598   0.134   2.486   1.099 -1.9156 -0.0648 -0.7378
  900SOL    HW2 3599   0.154   2.355   1.024 -2.6967 -1.2539  0.2443
  900SOL     MW 3600   0.156   2.401   1.099 -0.2447  0.0162  0.4845
  901SOL     OW 3601   1.774   2.869   1.783  0.3923 -0.5573  0.0677
  901SOL    HW1 3602   1.856   2.814   1.755 -3.5103 -1.2888  2.3291
  901SOL    HW2 3603   1.702   2.818   1.748  0.4722  0.0358 -1.8437
  901SOL     MW 3604   1.775   2.855   1.775 -0.1121 -0.5755  0.1139
  902SOL     OW 3605   2.631   2.106   1.688 -0.8088  0.0339  0.3321
  902SOL    HW1 3606   2.655   2.025   1.642 -1.0073 -0.2967  1.9228
  902SOL    HW2 3607   2.710   2.133   1.735  0.5015 -0.1809  0.0543
  902SOL     MW 3608   2.644   2.099   1.688 -0.6621 -0.0381  0.5053
  903SOL     OW 3609   1.512   2.649   0.536 -0.0424  0.2513 -0.3188
  903SOL    HW1 3610   1.605   2.649   0.523  0.1849 -0.4709  0.8164
  903SOL    HW2 3611   1.481   2.683   0.623 -1.6949 -0.7950  2.0925
  903SOL     MW 3612   1.520   2.653   0.546 -0.2304  0.0179  0.1491
  904SOL     OW 3613   2.520   2.541   1.675  0.3284 -0.0402 -0.2760
  904SOL    HW1 3614   2.449   2.592   1.629  0.6186  0.6872 -0.8510
  904SOL    HW2 3615   2.570   2.485   1.611 -0.3826 -2.2940 -3.0274
  904SOL     MW 3616   2.517   2.540   1.660  0.2729 -0.2416 -0.7148
  905SOL     OW 3617   2.330   2.480   2.093 -0.4173 -0.2109  0.3741
  905SOL    HW1 3618   2.413   2.437   2.058  2.1914  0.1613 -1.0974
  905SOL    HW2 3619   2.301   2.410   2.160  0.5243  0.8882 -0.9131
  905SOL     MW 3620   2.337   2.465   2.097  0.0511 -0.0168  0.0101
  906SOL     OW 3621   2.472   2.530   0.716 -0.3638  0.2215  0.0213
  906SOL    HW1 3622   2.561   2.529   0.746 -2.3643 -2.2151 -0.7891
  906SOL    HW2 3623   2.429   2.605   0.755 -0.1291 -1.6452  3.1767
  906SOL     MW 3624   2.478   2.540   0.725 -0.5968 -0.3463  0.3307
  907SOL     OW 3625   2.661   2.793   1.304 -0.0257 -0.6217  0.2137
  907SOL    HW1 3626   2.702   2.858   1.361  1.3529 -1.6868 -2.8060
  907SOL    HW2 3627   2.694   2.809   1.219  2.4114  0.8853  1.0221
  907SOL     MW 3628   2.670   2.804   1.300  0.4777 -0.5634 -0.0780
  908SOL     OW 3629   2.683   2.360   3.080 -0.2167 -0.4847 -0.2989
  908SOL    HW1 3630   2.626   2.299   3.127  2.5513  0.5639 -0.5748
  908SOL    HW2 3631   2.660   2.438   3.141 -1.2130  1.8018  0.1011
  908SOL     MW 3632   2.673   2.362   3.095  0.0170 -0.0447 -0.2825
  909SOL     OW 3633   1.707   0.107   1.313  0.5911  0.1832 -0.1786
  909SOL    HW1 3634   1.670   0.200   1.310  0.8674  0.4926 -0.0579
  909SOL    HW2 3635   1.679   0.070   1.401 -0.1245  0.8168 -1.9130
  909SOL     MW 3636   1.698   0.115   1.324  0.5331  0.3076 -0.3915
  910SOL     OW 3637   2.134   1.630   0.401  0.0917 -0.5380  0.6266
  910SOL    HW1 3638   2.111   1.535   0.378  0.3587  1.6545 -2.2370
  910SOL    HW2 3639   2.087   1.687   0.337 -0.4799 -0.0285  0.1405
  910SOL     MW 3640   2.125   1.625   0.390  0.0515 -0.1815  0.1846
  911SOL     OW 3641   2.392   2.180   1.560  0.4892  0.3400 -0.1077
  911SOL    HW1 3642   2.477   2.180   1.609  4.4097  1.3442  0.7225
  911SOL    HW2 3643   2.424   2.191   1.468 -1.5242 -1.3080  0.2380
  911SOL     MW 3644   2.408   2.182   1.555  0.7408  0.2551  0.0475
  912SOL     OW 3645   2.916   1.863   1.391 -0.4671 -0.0852  0.8800
  912SOL    HW1 3646   2.943   1.895   1.304 -1.2178  0.7406 -1.4115
  912SOL    HW2 3647   2.848   1.922   1.395  1.6925 -0.0937 -1.4378
  912SOL     MW 3648   2.911   1.875   1.380 -0.2812  0.0226  0.2719
  913SOL     OW 3649   2.707   0.021   0.265  0.0909 -0.1457  0.4132
  913SOL    HW1 3650   2.790  -0.025   0.274  0.1859 -1.9636 -0.1428
  913SOL    HW2 3651   2.638  -0.044   0.249  4.1187 -0.3624 -0.0983
  913SOL     MW 3652   2.709   0.006   0.264  0.6349 -0.4142  0.2723
  914SOL     OW 3653   2.674   1.800   2.972 -0.7769 -0.0466  0.8387
  914SOL    HW1 3654   2.710   1.886   2.960 -0.4148  0.4296  1.5090
  914SOL    HW2 3655   2.591   1.810   3.016  1.1164 -1.3248 -0.2565
  914SOL     MW 3656   2.668   1.812   2.976 -0.4793 -0.1524  0.7826
  915SOL     OW 3657   1.807   0.106   0.102  0.3464 -0.0220  0.2017
  915SOL    HW1 3658   1.879   0.064   0.152  1.0476 -0.5649  0.8505
  915SOL    HW2 3659   1.733   0.063   0.148  2.6973  1.5745 -2.0009
  915SOL     MW 3660   1.807   0.095   0.115  0.7491  0.1170 -0.0033
  916SOL     OW 3661   1.784   2.149   1.980  0.3200  0.2839  0.3133
  916SOL    HW1 3662   1.829   2.230   1.965 -1.4006 -2.6296 -1.2980
  916SOL    HW2 3663   1.787   2.108   1.891 -1.2145 -0.8488  0.4977
  916SOL     MW 3664   1.791   2.154   1.966 -0.1095 -0.2499  0.1250
  917SOL     OW 3665   2.541   2.180   2.563 -0.3526 -0.0671 -0.6210
  917SOL    HW1 3666   2.530   2.246   2.627  1.1297 -1.5548 -2.2697
  917SOL    HW2 3667   2.615   2.207   2.514  1.4857 -0.2531 -1.0498
  917SOL     MW 3668   2.549   2.192   2.565  0.0855 -0.2879 -0.8951
  918SOL     OW 3669   2.042   1.607   2.720 -0.2480  0.2422  0.5770
  918SOL    HW1 3670   1.994   1.652   2.654  0.4736 -1.8615  0.3130
  918SOL    HW2 3671   2.128   1.638   2.704  1.4519  0.8077  2.0708
  918SOL     MW 3672   2.047   1.617   2.709  0.0715  0.0393  0.7392
  919SOL     OW 3673   3.046   2.417   2.303  0.1809 -0.3271  0.3347
  919SOL    HW1 3674   2.976   2.352   2.277 -1.0481 -0.3585  1.3258
  919SOL    HW2 3675   3.107   2.418   2.232 -2.8238 -3.3872 -1.9459
  919SOL     MW 3676   3.045   2.408   2.290 -0.3777 -0.7350  0.1646
  920SOL     OW 3677   2.644   2.827   3.099  0.3514  0.2718  0.0182
  920SOL    HW1 3678   2.558   2.806   3.064 -0.6060  2.7097  0.8960
  920SOL    HW2 3679   2.704   2.784   3.038 -1.8220 -0.5484  3.4867
  920SOL     MW 3680   2.641   2.818   3.086 -0.0617  0.4852  0.5916
  921SOL     OW 3681   2.436   2.598   2.617 -0.2899 -0.0084 -0.5167
  921SOL    HW1 3682   2.501   2.587   2.549 -2.4331 -1.4398 -2.3646
  921SOL    HW2 3683   2.466   2.528   2.675  3.1339  0.6117 -1.8764
  921SOL     MW 3684   2.449   2.588   2.616 -0.1209 -0.1155 -0.9399
  922SOL     OW 3685   2.077   2.661   0.425  0.0219  0.0141  0.2404
  922SOL    HW1 3686   2.104   2.677   0.331  1.9665 -0.9703  1.1520
  922SOL    HW2 3687   2.086   2.568   0.429 -0.2949  4.2852 -2.2919
  922SOL     MW 3688   2.081   2.651   0.413  0.2367  0.4477  0.0266
  923SOL     OW 3689   2.201   2.918   1.662  0.0883  0.0918  0.0472
  923SOL    HW1 3690   2.255   2.844   1.625 -1.2032  0.7119 -1.2865
  923SOL    HW2 3691   2.145   2.958   1.594 -1.0640 -1.4530  0.3930
  923SOL     MW 3692   2.201   2.914   1.648 -0.2342 -0.0302 -0.0832
  924SOL     OW 3693   1.089   2.737   2.612 -0.3150  0.0828 -0.5921
  924SOL    HW1 3694   1.183   2.749   2.596 -1.3320 -0.2964 -0.7334
  924SOL    HW2 3695   1.088   2.656   2.660 -1.3677  0.3875  2.7762
  924SOL     MW 3696   1.101   2.728   2.616 -0.5881  0.0730 -0.1663
  925SOL     OW 3697   2.990   0.198   2.613 -0.7366 -0.7215 -0.4385
  925SOL    HW1 3698   2.935   0.208   2.537 -1.7873 -0.1611  0.7164
  925SOL    HW2 3699   2.969   0.282   2.661  2.7038  2.6769  1.5433
  925SOL     MW 3700   2.980   0.211   2.609 -0.4213 -0.1992 -0.0246
  926SOL     OW 3701   2.801   2.401   1.963  0.5477 -0.0733 -0.5274
  926SOL    HW1 3702   2.807   2.459   2.049 -2.3172 -0.2173 -0.5137
  926SOL    HW2 3703   2.832   2.460   1.893 -1.8482 -0.0654  0.6181
  926SOL     MW 3704   2.806   2.416   1.965 -0.1464 -0.0913 -0.3745
  927SOL     OW 3705   2.406   0.108   0.306 -0.2420 -0.4245  0.3006
  927SOL    HW1 3706   2.502   0.100   0.314 -1.6205  0.0197  0.6041
  927SOL    HW2 3707   2.376   0.094   0.209 -0.7105 -1.4438 -0.0782
  927SOL     MW 3708   2.415   0.105   0.294 -0.4857 -0.5004  0.2907
  928SOL     OW 3709   2.151   2.330   1.824  0.0460 -0.0058  0.4666
  928SOL    HW1 3710   2.135   2.405   1.761 -2.3037 -1.6846 -1.3832
  928SOL    HW2 3711   2.242   2.348   1.845 -1.4808  1.0967 -1.9248
  928SOL     MW 3712   2.161   2.342   1.818 -0.4655 -0.0818 -0.0930
  929SOL     OW 3713   2.759   2.350   2.427 -0.5701  0.3244  0.1216
  929SOL    HW1 3714   2.796   2.287   2.357  1.6132  1.8645  0.0714
  929SOL    HW2 3715   2.829   2.364   2.496  4.0423 -0.7267  1.0410
  929SOL     MW 3716   2.773   2.343   2.427  0.3266  0.3889  0.2363
  930SOL     OW 3717   2.009   2.820   2.670  0.3442  0.3341 -0.0592
  930SOL    HW1 3718   2.015   2.747   2.733 -0.3283 -0.3139  1.4818
  930SOL    HW2 3719   2.089   2.838   2.622 -1.0413  2.9128 -2.4676
  930SOL     MW 3720   2.020   2.813   2.672  0.0726  0.5889 -0.1737
  931SOL     OW 3721   0.052   2.796   2.437  0.2570 -0.4292 -0.0101
  931SOL    HW1 3722   0.035   2.845   2.514 -1.1818 -0.2997  0.7853
  931SOL    HW2 3723   0.148   2.812   2.421 -1.1618 -1.9637  1.8152
  931SOL     MW 3724   0.062   2.805   2.445 -0.1200 -0.6146  0.3357
  932SOL     OW 3725   2.779   1.999   2.495 -0.1505  0.8028 -0.5250
  932SOL    HW1 3726   2.871   2.020   2.482 -0.9621 -1.2717 -2.0149
  932SOL    HW2 3727   2.740   1.978   2.412 -1.9101  0.4990  0.1143
  932SOL     MW 3728   2.786   1.999   2.483 -0.4897  0.4890 -0.6372
  933SOL     OW 3729   2.098   2.801   2.218  0.1842  0.0418  0.0733
  933SOL    HW1 3730   2.174   2.847   2.242  0.0591  1.2179  2.2016
  933SOL    HW2 3731   2.034   2.860   2.197  0.4298 -0.8037 -0.3990
  933SOL     MW 3732   2.100   2.815   2.218  0.2001  0.0854  0.2918
  934SOL     OW 3733   2.019   2.670   2.436 -0.0069  0.0372  0.3336
  934SOL    HW1 3734   1.995   2.718   2.510  1.3619 -1.7855  0.6594
  934SOL    HW2 3735   2.043   2.733   2.359 -1.2743  0.8269 -0.6575
  934SOL     MW 3736   2.019   2.685   2.436  0.0065 -0.0991  0.2458
  935SOL     OW 3737   2.635   1.471   1.777 -0.1979 -0.3112 -0.1471
  935SOL    HW1 3738   2.731   1.478   1.750  0.4999  1.8244 -0.0867
  935SOL    HW2 3739   2.600   1.438   1.692  0.0774  0.2060  1.1328
  935SOL     MW 3740   2.643   1.467   1.762 -0.0695  0.0388  0.0298
  936SOL     OW 3741   2.927   2.230   0.041 -0.4292  0.0953  0.5415
  936SOL    HW1 3742   2.998   2.258   0.094  0.5610 -4.2725 -2.0979
  936SOL    HW2 3743   2.848   2.262   0.075  0.0486 -0.5177 -1.7607
  936SOL     MW 3744   2.926   2.238   0.052 -0.2355 -0.5619 -0.1105
  937SOL     OW 3745   1.946   2.108   2.644  0.0279 -0.5859 -0.3480
  937SOL    HW1 3746   2.020   2.096   2.705 -0.4037 -1.1862 -1.2166
  937SOL    HW2 3747   1.981   2.104   2.556 -0.5652  1.1838  1.7542
  937SOL     MW 3748   1.960   2.106   2.641 -0.1073 -0.4316 -0.1852
  938SOL     OW 3749   2.276   1.763   1.850 -0.3781  0.4412 -0.1935
  938SOL    HW1 3750   2.310   1.821   1.777 -1.1331  2.0513  2.0415
  938SOL    HW2 3751   2.274   1.805   1.943 -1.2725  2.4248  0.5182
  938SOL     MW 3752   2.280   1.776   1.853 -0.5958  0.9154  0.1953
  939SOL     OW 3753   2.758   1.967   2.210  0.3798 -0.0758 -0.5355
  939SOL    HW1 3754   2.809   1.942   2.129 -0.5738  0.5544 -2.7824
  939SOL    HW2 3755   2.665   1.928   2.201  0.1534 -0.1170 -0.0620
  939SOL     MW 3756   2.752   1.959   2.198  0.2241  0.0019 -0.7695
  940SOL     OW 3757   2.159   0.119   2.770 -0.0919 -0.3614  0.2332
  940SOL    HW1 3758   2.204   0.053   2.710  2.2448 -0.7367  0.6570
  940SOL    HW2 3759   2.223   0.168   2.820 -1.1380  2.5896 -0.5485
  940SOL     MW 3760   2.173   0.117   2.769  0.0784 -0.0216  0.1860
  941SOL     OW 3761   0.114   2.456   2.049 -0.1582 -0.0832  0.6725
  941SOL    HW1 3762   0.208   2.441   2.045  1.7945  0.1424  0.8612
  941SOL    HW2 3763   0.070   2.425   1.976 -1.3153 -0.1534  2.2009
  941SOL     MW 3764   0.120   2.450   2.039 -0.0532 -0.0627  0.8990
  942SOL     OW 3765   2.831   2.214   2.214 -0.1052  0.3105 -0.1859
  942SOL    HW1 3766   2.808   2.252   2.131 -1.0808  1.0484 -0.7985
  942SOL    HW2 3767   2.817   2.115   2.221  0.5146 -2.4002 -0.9708
  942SOL     MW 3768   2.826   2.206   2.204 -0.1521  0.0502 -0.3703
  943SOL     OW 3769   0.319   2.133   2.293  0.0615 -0.2543 -0.3018
  943SOL    HW1 3770   0.249   2.177   2.348  3.4048 -2.2051  0.5426
  943SOL    HW2 3771   0.387   2.102   2.353  1.4383  1.4858 -2.2689
  943SOL     MW 3772   0.319   2.135   2.309  0.6842 -0.2821 -0.4499
  944SOL     OW 3773   2.135   2.637   1.970  0.3891  0.2131 -0.0368
  944SOL    HW1 3774   2.209   2.575   1.992  2.6965  2.9729  0.5870
  944SOL    HW2 3775   2.091   2.660   2.045 -0.5600 -0.8324 -0.4379
  944SOL     MW 3776   2.139   2.632   1.983  0.5683  0.4393 -0.0074
  945SOL     OW 3777   2.772   2.737   2.843 -0.5071 -0.0806  0.3545
  945SOL    HW1 3778   2.757   2.641   2.828  1.0026 -1.9868 -1.1997
  945SOL    HW2 3779   2.781   2.772   2.756 -2.7062 -3.0881  2.3052
  945SOL     MW 3780   2.771   2.729   2.830 -0.5980 -0.7289  0.4068
  946SOL     OW 3781   2.478   2.676   2.237 -0.0378  0.4015  0.2497
  946SOL    HW1 3782   2.500   2.713   2.154  2.2275 -0.5039 -1.6991
  946SOL    HW2 3783   2.407   2.620   2.217  0.1938 -0.3395  1.2448
  946SOL     MW 3784   2.471   2.674   2.223  0.2917  0.1843  0.1239
  947SOL     OW 3785   2.053   3.103   0.239  0.1356 -0.2877  0.2660
  947SOL    HW1 3786   2.045   3.027   0.191  0.7878  2.3203  0.7698
  947SOL    HW2 3787   2.090   3.084   0.330  0.9153  2.0279 -1.5827
  947SOL     MW 3788   2.057   3.090   0.245  0.3245  0.3619  0.0886
  948SOL     OW 3789   1.801   3.023   2.608  0.3562  0.4522 -0.3466
  948SOL    HW1 3790   1.864   2.952   2.625  0.5519  2.8040 -0.9816
  948SOL    HW2 3791   1.776   3.030   2.514 -0.5460  1.0940 -0.0892
  948SOL     MW 3792   1.806   3.015   2.598  0.2630  0.8472 -0.3964
  949SOL     OW 3793   2.521   1.867   2.195  0.2496  0.4408 -0.0581
  949SOL    HW1 3794   2.500   1.784   2.236 -0.7379  0.4150 -1.1725
  949SOL    HW2 3795   2.475   1.937   2.243 -1.0145 -2.2306  0.9680
  949SOL     MW 3796   2.512   1.865   2.207 -0.0475  0.0849 -0.0698
  950SOL     OW 3797   2.320   2.478   2.995 -0.1461 -1.2393  0.2542
  950SOL    HW1 3798   2.368   2.435   2.924 -3.2248  0.0618 -2.0948
  950SOL    HW2 3799   2.242   2.497   2.947  2.3293 -2.1717  0.0902
  950SOL     MW 3800   2.316   2.475   2.979 -0.2257 -1.1907 -0.0774
  951SOL     OW 3801   3.044   2.212   2.878  0.0196  0.5325 -0.3299
  951SOL    HW1 3802   2.992   2.234   2.959  0.0300  0.0220  0.6732
  951SOL    HW2 3803   3.016   2.125   2.866  0.2761  1.5413  0.4704
  951SOL     MW 3804   3.034   2.203   2.887  0.0549  0.5982 -0.0920
  952SOL     OW 3805   3.033   1.733   2.141  0.6028  0.3123 -0.0352
  952SOL    HW1 3806   2.989   1.770   2.061 -0.1542  0.3680 -2.0580
  952SOL    HW2 3807   3.114   1.784   2.158 -1.0963  1.0543 -3.0404
  952SOL     MW 3808   3.038   1.745   2.133  0.2787  0.4176 -0.6986
  953SOL     OW 3809   1.964   1.729   2.919 -0.4831  0.1709  0.2189
  953SOL    HW1 3810   1.874   1.700   2.953 -0.8704 -1.4345  0.1616
  953SOL    HW2 3811   1.980   1.672   2.838 -1.5815  1.7623  0.4559
  953SOL     MW 3812   1.954   1.718   2.913 -0.6792  0.1691  0.2426
  954SOL     OW 3813   2.371   2.141   2.887 -0.0931 -0.1593  0.0950
  954SOL    HW1 3814   2.280   2.109   2.874 -0.2530  0.3385  0.3572
  954SOL    HW2 3815   2.422   2.075   2.839  1.8821 -0.0800  2.5115
  954SOL     MW 3816   2.365   2.128   2.879  0.1464 -0.0832  0.4484
  955SOL     OW 3817   1.579   1.513   2.547 -0.2946 -0.0164 -0.3212
  955SOL    HW1 3818   1.540   1.575   2.477 -0.0715  0.5982  3.3676
  955SOL    HW2 3819   1.669   1.547   2.550  1.6657 -0.0829 -0.0439
  955SOL     MW 3820   1.586   1.526   2.538 -0.0066  0.0559  0.2021
  956SOL     OW 3821   2.729   2.465   2.838 -0.0286 -0.5992 -0.5064
  956SOL    HW1 3822   2.725   2.428   2.922 -1.8937 -1.4860 -4.8995
  956SOL    HW2 3823   2.798   2.425   2.782  0.3782  1.6759 -1.5007
  956SOL     MW 3824   2.738   2.455   2.842 -0.2210 -0.4160 -1.2172
  957SOL     OW 3825   2.249   2.818   0.570 -0.4282 -0.1946 -1.2662
  957SOL    HW1 3826   2.190   2.755   0.539 -0.4539  2.9224 -0.2997
  957SOL    HW2 3827   2.274   2.802   0.667  1.9990  0.6628 -0.5310
  957SOL     MW 3828   2.244   2.808   0.579 -0.1113  0.3298 -1.0417
  958SOL     OW 3829   2.084   2.556   2.888  0.1558 -0.3580 -0.7068
  958SOL    HW1 3830   2.044   2.525   2.802 -0.3543 -0.3946 -0.6399
  958SOL    HW2 3831   2.011   2.549   2.949 -0.8548  1.5480 -1.3945
  958SOL     MW 3832   2.069   2.551   2.885 -0.0448 -0.1114 -0.7887
  959SOL     OW 3833   2.510   2.801   0.452 -0.3208 -0.2352  0.0088
  959SOL    HW1 3834   2.497   2.853   0.374  1.3145 -2.4920 -1.9682
  959SOL    HW2 3835   2.427   2.803   0.500  1.0580  0.9803 -0.6582
  959SOL     MW 3836   2.497   2.808   0.448  0.0769 -0.3726 -0.3401
  960SOL     OW 3837   1.921   2.402   2.269  0.0752  0.2097  0.1043
  960SOL    HW1 3838   1.948   2.308   2.271  0.6971  0.3512  1.9857
  960SOL    HW2 3839   1.859   2.399   2.345 -1.2683  2.1518  0.5775
  960SOL     MW 3840   1.917   2.389   2.280 -0.0200  0.4846  0.4150
  961SOL     OW 3841   2.229   2.330   2.314  0.0328  0.3775 -0.3392
  961SOL    HW1 3842   2.137   2.344   2.285 -0.5908 -0.3878  0.7992
  961SOL    HW2 3843   2.223   2.392   2.386 -1.3190  2.0896 -1.5722
  961SOL     MW 3844   2.216   2.340   2.319 -0.2279  0.5024 -0.3517
  962SOL     OW 3845   2.133   2.025   2.815 -0.9578  0.1574 -1.0071
  962SOL    HW1 3846   2.145   1.969   2.894  0.5377  0.8590 -2.6574
  962SOL    HW2 3847   2.173   1.966   2.740  0.0189 -0.1803  4.0223
  962SOL     MW 3848   2.140   2.010   2.815 -0.6316  0.2054 -0.5612
  963SOL     OW 3849   1.873   2.601   2.082 -0.5404 -0.7299  0.4211
  963SOL    HW1 3850   1.883   2.526   2.141 -0.5732 -0.4293 -1.5301
  963SOL    HW2 3851   1.870   2.553   1.996 -0.4933 -0.6619 -1.2952
  963SOL     MW 3852   1.874   2.585   2.079 -0.5385 -0.6813 -0.0628
  964SOL     OW 3853   1.834   1.884   2.735 -0.0292 -0.2075 -0.3261
  964SOL    HW1 3854   1.884   1.968   2.713 -1.6469  0.4222  1.4745
  964SOL    HW2 3855   1.874   1.827   2.797  0.5090 -1.9387  1.6935
  964SOL     MW 3856   1.846   1.888   2.740 -0.1716 -0.3528  0.1779
  965SOL     OW 3857   2.088   2.593   0.806 -0.0273 -0.1733 -0.2505
  965SOL    HW1 3858   2.157   2.526   0.785 -1.0820 -1.3130  0.6415
  965SOL    HW2 3859   2.138   2.662   0.847 -0.5398 -1.3606 -2.4538
  965SOL     MW 3860   2.104   2.593   0.809 -0.2341 -0.4803 -0.4235
  966SOL     OW 3861   2.666   2.613   2.417 -0.3729  0.0385  0.1681
  966SOL    HW1 3862   2.606   2.632   2.344 -1.2030  0.9611  2.9567
  966SOL    HW2 3863   2.680   2.517   2.425  0.5482 -1.4654 -2.2256
  966SOL     MW 3864   2.660   2.602   2.408 -0.3609 -0.0382  0.2202
  967SOL     OW 3865   2.719   3.093   3.029 -0.3559  0.5969  0.5331
  967SOL    HW1 3866   2.701   3.011   3.074  3.6810  3.7230  1.0292
  967SOL    HW2 3867   2.658   3.084   2.954 -3.0435  2.0658 -0.0786
  967SOL     MW 3868   2.708   3.081   3.025 -0.1779  1.2032  0.5179
  968SOL     OW 3869   3.061   2.695   2.896 -0.4177 -0.1876 -0.4590
  968SOL    HW1 3870   2.967   2.712   2.869 -2.1438 -3.1158  0.7762
  968SOL    HW2 3871   3.105   2.697   2.809 -2.4775  0.9476  0.0636
  968SOL     MW 3872   3.054   2.697   2.881 -0.9172 -0.4242 -0.2271
  969SOL     OW 3873   1.555   2.150   1.693  0.1396 -0.2431  0.0227
  969SOL    HW1 3874   1.633   2.101   1.718 -0.0776 -3.2478  0.2925
  969SOL    HW2 3875   1.513   2.171   1.783  0.4697 -2.6249  1.1084
  969SOL     MW 3876   1.560   2.146   1.708  0.1545 -0.9538  0.2016
  970SOL     OW 3877   1.753   1.805   1.901  0.1973 -0.2420 -0.0810
  970SOL    HW1 3878   1.808   1.750   1.958  0.9926 -0.7230 -0.2923
  970SOL    HW2 3879   1.663   1.809   1.929  0.2892  0.9418 -1.0040
  970SOL     MW 3880   1.748   1.798   1.912  0.3143 -0.1493 -0.2307
  971SOL     OW 3881   1.748   0.020   2.355  0.0149 -0.5237  0.5577
  971SOL    HW1 3882   1.803  -0.023   2.280 -1.4958 -0.4282 -1.0032
  971SOL    HW2 3883   1.772   0.114   2.366 -0.2376  1.7429  0.5414
  971SOL     MW 3884   1.759   0.027   2.347 -0.2177 -0.2121  0.3496
  972SOL     OW 3885   0.303   2.864   2.391  0.1188 -0.2015 -0.2693
  972SOL    HW1 3886   0.345   2.778   2.415 -1.3672  0.1240 -0.9701
  972SOL    HW2 3887   0.345   2.925   2.448  1.3159  0.9516 -0.8238
  972SOL     MW 3888   0.314   2.861   2.401  0.0807 -0.0064 -0.4349
  973SOL     OW 3889   2.592   3.000   2.132  0.4993 -0.0570  0.0831
  973SOL    HW1 3890   2.546   2.927   2.084  0.5836  2.1567  0.7392
  973SOL    HW2 3891   2.618   3.030   2.051 -0.2209 -2.5628  0.6464
  973SOL     MW 3892   2.589   2.995   2.115  0.4154 -0.0956  0.2440
  974SOL     OW 3893   1.958   0.149   2.593  0.7075 -0.2823 -0.4252
  974SOL    HW1 3894   2.028   0.134   2.658 -0.4489 -0.5332 -1.9154
  974SOL    HW2 3895   1.911   0.066   2.580 -0.9162  0.7808 -0.2039
  974SOL     MW 3896   1.961   0.136   2.600  0.3407 -0.1751 -0.5926
  975SOL     OW 3897   2.207   2.497   2.526  0.1118  0.3669 -0.0449
  975SOL    HW1 3898   2.293   2.522   2.565 -1.4639 -0.5165  0.4944
  975SOL    HW2 3899   2.161   2.570   2.495  1.1505 -3.2629 -1.2221
  975SOL     MW 3900   2.212   2.510   2.527  0.0409 -0.2286 -0.1290
  976SOL     OW 3901   0.188   0.372   1.583 -0.2669 -0.2420 -0.1491
  976SOL    HW1 3902   0.241   0.312   1.632  0.1794  0.1179 -1.9137
  976SOL    HW2 3903   0.106   0.327   1.599 -0.7364  1.1444  1.7330
  976SOL     MW 3904   0.185   0.358   1.592 -0.2700 -0.0116 -0.1336
  977SOL     OW 3905   1.743   2.754   2.391 -0.3079 -0.0336 -0.1887
  977SOL    HW1 3906   1.814   2.695   2.391 -2.7425 -0.1764  1.5870
  977SOL    HW2 3907   1.770   2.800   2.315  4.0059 -3.3514  1.7117
  977SOL     MW 3908   1.756   2.752   2.381 -0.0599 -0.4902  0.2963
   3.10000   3.10000   3.10000
