977 TIP4P/2005f water molecules t=   0.03000 step= 30
 3908
    1SOL     OW    1   0.201   0.766   3.092 -0.3621  0.4606 -0.3078
    1SOL    HW1    2   0.183   0.786   2.998 -0.4276 -3.0575 -0.7429
    1SOL    HW2    3   0.193   0.669   3.088 -1.8706  0.5218 -2.3868
    1SOL     MW    4   0.197   0.756   3.079 -0.5697  0.0045 -0.6395
    2SOL     OW    5   0.334   3.040   1.098  0.4476  0.0706 -0.3761
    2SOL    HW1    6   0.383   3.120   1.073  2.0499 -0.8997  1.0644
    2SOL    HW2    7   0.247   3.069   1.131 -1.4382 -1.5705 -1.0975
    2SOL     MW    8   0.329   3.054   1.099  0.4102 -0.2740 -0.2812
    3SOL     OW    9   2.771   0.365   0.886 -0.3880  0.0238 -0.2731
    3SOL    HW1   10   2.740   0.449   0.850 -0.3090 -0.9072  1.2615
    3SOL    HW2   11   2.764   0.384   0.983 -1.8581  2.7151  3.1141
    3SOL     MW   12   2.766   0.379   0.894 -0.5715  0.2561  0.3763
    4SOL     OW   13   3.088   1.672   0.731  0.2308  0.1545  0.1841
    4SOL    HW1   14   3.035   1.743   0.687  2.6541  1.3844  1.0561
    4SOL    HW2   15   3.152   1.643   0.666 -2.3684  0.3997 -2.7605
    4SOL     MW   16   3.090   1.677   0.716  0.2076  0.3491 -0.0894
    5SOL     OW   17   1.668   1.433   0.548  0.0597  0.1721  0.1026
    5SOL    HW1   18   1.747   1.412   0.606  1.3200 -0.4567  0.4169
    5SOL    HW2   19   1.595   1.410   0.599  3.6255 -0.4855 -1.7726
    5SOL     MW   20   1.669   1.427   0.563  0.6965  0.0024 -0.1034
    6SOL     OW   21   0.828   1.362   0.572  0.0170 -0.4941 -0.2658
    6SOL    HW1   22   0.743   1.369   0.624  1.5324 -1.3921 -0.6474
    6SOL    HW2   23   0.869   1.284   0.618  0.8387  0.3659  0.7805
    6SOL     MW   24   0.822   1.353   0.585  0.3253 -0.4991 -0.1781
    7SOL     OW   25   1.985   1.064   3.013 -0.0861 -0.3486  0.5469
    7SOL    HW1   26   2.038   1.136   2.978  0.0499  0.5871  0.4160
    7SOL    HW2   27   2.022   1.068   3.098  2.5961  1.5634  1.1855
    7SOL     MW   28   1.997   1.074   3.020  0.2857  0.0271  0.6139
    8SOL     OW   29   1.007   1.311   1.058  0.3243  0.4088  0.1035
    8SOL    HW1   30   1.080   1.291   1.106  1.7201  1.4618 -3.7084
    8SOL    HW2   31   0.945   1.243   1.076  1.0804  2.0490 -1.1833
    8SOL     MW   32   1.008   1.300   1.066  0.6082  0.7642 -0.5692
    9SOL     OW   33   0.995   0.479   1.465  0.1048  0.3778 -0.1634
    9SOL    HW1   34   0.954   0.392   1.476  0.3438 -0.2416 -0.3026
    9SOL    HW2   35   1.074   0.485   1.516 -1.1770 -0.2777 -1.4865
    9SOL     MW   36   1.000   0.469   1.473 -0.0328  0.2096 -0.3563
   10SOL     OW   37   0.302   0.863   0.435  0.2781 -0.5782 -0.5114
   10SOL    HW1   38   0.402   0.870   0.418 -0.7112  0.6565 -0.1668
   10SOL    HW2   39   0.286   0.896   0.525 -3.6928  2.7653 -1.3051
   10SOL     MW   40   0.313   0.868   0.444 -0.3764  0.0258 -0.5706
   11SOL     OW   41   0.923   1.069   1.586  0.3373  0.4455 -0.4728
   11SOL    HW1   42   0.937   1.105   1.677  0.8301 -0.9058  1.3034
   11SOL    HW2   43   0.842   1.012   1.583 -2.8222 -0.9230  1.0793
   11SOL     MW   44   0.914   1.066   1.597 -0.0146  0.0866 -0.0337
   12SOL     OW   45   3.047   1.031   0.865 -0.2130 -0.1280  0.3165
   12SOL    HW1   46   3.051   1.097   0.934  0.3651  2.5004  0.4320
   12SOL    HW2   47   3.047   1.083   0.789 -0.4213 -1.2027 -2.8970
   12SOL     MW   48   3.048   1.046   0.864 -0.1642  0.0770 -0.0923
   13SOL     OW   49   1.925   1.380   1.439  0.0470  0.0742  0.3035
   13SOL    HW1   50   1.941   1.339   1.354  3.8869  1.4816 -0.6992
   13SOL    HW2   51   1.923   1.480   1.427 -1.0059 -0.0884 -0.9723
   13SOL     MW   52   1.927   1.388   1.426  0.4147  0.2384  0.0029
   14SOL     OW   53   0.619   0.370   1.775 -0.0384  0.2792 -0.0024
   14SOL    HW1   54   0.609   0.279   1.751  0.9853 -0.5350 -0.6665
   14SOL    HW2   55   0.704   0.378   1.821  1.3247  1.0379  0.9463
   14SOL     MW   56   0.629   0.359   1.778  0.2765  0.2719  0.0352
   15SOL     OW   57   1.991   0.586   0.961  0.0549 -0.5888 -0.6872
   15SOL    HW1   58   2.021   0.556   1.048 -1.1609  0.1870  1.3840
   15SOL    HW2   59   2.066   0.595   0.904 -0.6884 -0.2404 -1.1717
   15SOL     MW   60   2.005   0.583   0.965 -0.2036 -0.4405 -0.4779
   16SOL     OW   61   0.140   1.754   0.298 -0.3758  0.2866 -0.3981
   16SOL    HW1   62   0.225   1.716   0.314  0.5643  0.3532 -1.7638
   16SOL    HW2   63   0.146   1.847   0.325  0.2619 -0.5719 -1.9384
   16SOL     MW   64   0.152   1.761   0.304 -0.1676  0.1821 -0.7815
   17SOL     OW   65   1.151   0.798   1.447  0.6137 -0.2740  0.2328
   17SOL    HW1   66   1.170   0.832   1.534  0.0154 -1.7398  2.9597
   17SOL    HW2   67   1.091   0.728   1.455 -1.6574  0.9908 -1.5732
   17SOL     MW   68   1.146   0.793   1.459  0.2351 -0.3005  0.3543
   18SOL     OW   69   3.086   1.535   0.376  0.4175  0.3167  0.2818
   18SOL    HW1   70   3.134   1.611   0.338 -0.1818  2.0231 -1.1881
   18SOL    HW2   71   3.087   1.460   0.315 -0.7762  0.1774  2.6134
   18SOL     MW   72   3.093   1.535   0.363  0.1809  0.5235  0.3955
   19SOL     OW   73   0.036   1.285   1.031  0.5258 -0.5982  0.0979
   19SOL    HW1   74   0.111   1.307   0.977  0.3166 -1.2456  1.6955
   19SOL    HW2   75  -0.021   1.364   1.046 -1.7529 -2.6821  0.2224
   19SOL     MW   76   0.038   1.298   1.026  0.1975 -0.9585  0.3251
   20SOL     OW   77   0.468   2.173   1.275  0.6553 -0.0701  0.5914
   20SOL    HW1   78   0.427   2.108   1.209 -0.4665 -0.0602 -1.5544
   20SOL    HW2   79   0.411   2.198   1.348 -0.7731  0.1602  1.0890
   20SOL     MW   80   0.455   2.168   1.276  0.3189 -0.0384  0.3739
   21SOL     OW   81   0.574   0.880   0.359  0.3834 -0.0916  0.4460
   21SOL    HW1   82   0.622   0.808   0.390 -0.6549  1.0999  0.5158
   21SOL    HW2   83   0.537   0.855   0.268 -0.4507  0.8060 -0.2558
   21SOL     MW   84   0.575   0.867   0.351  0.1364  0.1840  0.3626
   22SOL     OW   85   1.601   0.627   1.141  0.2121 -0.0342  0.1213
   22SOL    HW1   86   1.641   0.583   1.062 -1.7909  0.8000  1.1173
   22SOL    HW2   87   1.524   0.673   1.110 -2.1308  2.3691  1.0327
   22SOL     MW   88   1.596   0.627   1.126 -0.3613  0.3930  0.3730
   23SOL     OW   89   3.085   0.690   0.654  0.1704  0.5533  0.1453
   23SOL    HW1   90   3.115   0.612   0.689 -0.4125 -1.6440 -1.8909
   23SOL    HW2   91   3.156   0.751   0.660 -1.9638 -1.0968 -1.0047
   23SOL     MW   92   3.098   0.688   0.660 -0.1881  0.0457 -0.2751
   24SOL     OW   93   2.042   2.224   3.069  0.7727  0.1366  0.2592
   24SOL    HW1   94   2.024   2.222   3.162  0.2747 -0.6384 -0.2816
   24SOL    HW2   95   2.067   2.136   3.046  1.9980 -1.2057  0.2927
   24SOL     MW   96   2.043   2.212   3.078  0.8686 -0.1428  0.1923
   25SOL     OW   97   0.170   1.498   0.576 -0.0353 -0.3020 -0.1512
   25SOL    HW1   98   0.100   1.511   0.513 -2.0798  2.2184  2.3999
   25SOL    HW2   99   0.250   1.522   0.520 -0.0675 -2.7599 -1.3811
   25SOL     MW  100   0.172   1.503   0.560 -0.3093 -0.2938  0.0231
   26SOL     OW  101   1.987   1.033   0.389 -0.3626 -0.1765 -0.0138
   26SOL    HW1  102   1.889   1.046   0.384  1.1135 -0.5038  0.2493
   26SOL    HW2  103   2.018   1.077   0.304 -0.9760 -0.9196 -0.7812
   26SOL     MW  104   1.978   1.041   0.377 -0.2488 -0.3177 -0.0803
   27SOL     OW  105   2.018   1.389   0.247 -0.1536  0.4808 -0.5610
   27SOL    HW1  106   1.935   1.346   0.260  0.9989  0.4106  0.1082
   27SOL    HW2  107   2.043   1.426   0.335 -0.7396  1.5217  1.5117
   27SOL     MW  108   2.010   1.388   0.261 -0.0789  0.6089 -0.1992
   28SOL     OW  109   0.274   0.966   1.922  0.7982 -0.3408 -0.2005
   28SOL    HW1  110   0.226   0.895   1.963  1.9336  3.5480 -2.8220
   28SOL    HW2  111   0.338   0.931   1.860  2.0494 -0.9716 -0.0250
   28SOL     MW  112   0.276   0.952   1.919  1.1131  0.0891 -0.5233
   29SOL     OW  113   0.243   1.416   0.881  0.5619  0.3962  0.7488
   29SOL    HW1  114   0.245   1.508   0.913 -0.2242 -2.3577  1.0655
   29SOL    HW2  115   0.228   1.416   0.782  1.5892  1.8361 -0.3128
   29SOL     MW  116   0.241   1.428   0.872  0.5937  0.2228  0.6505
   30SOL     OW  117   0.887   1.044   1.158  0.3932 -0.7115 -0.2154
   30SOL    HW1  118   0.800   1.047   1.194 -1.0561 -2.2982 -5.2200
   30SOL    HW2  119   0.950   1.072   1.225 -1.1631  0.9634 -0.6400
   30SOL     MW  120   0.884   1.048   1.172 -0.0033 -0.6998 -0.9317
   31SOL     OW  121   0.509   0.237   0.148  0.0235  0.6770 -0.1305
   31SOL    HW1  122   0.486   0.194   0.236  0.0189 -0.3779 -1.3309
   31SOL    HW2  123   0.483   0.172   0.075 -0.7788 -1.8797  0.6537
   31SOL     MW  124   0.502   0.223   0.150 -0.0829  0.2005 -0.1854
   32SOL     OW  125   2.695   1.032   1.151 -0.1297  0.1851  0.1532
   32SOL    HW1  126   2.641   0.949   1.167  1.3022  0.5618  2.9975
   32SOL    HW2  127   2.790   0.999   1.147 -0.1666 -0.3296  1.7893
   32SOL     MW  128   2.701   1.017   1.153  0.0543  0.1669  0.7443
   33SOL     OW  129   1.775   1.283   0.336  0.5789 -0.1752 -0.1005
   33SOL    HW1  130   1.757   1.205   0.384  0.7677 -0.7627 -0.8519
   33SOL    HW2  131   1.732   1.356   0.389  0.8907 -0.5726 -1.3518
   33SOL     MW  132   1.767   1.282   0.349  0.6450 -0.3051 -0.3647
   34SOL     OW  133   1.278   1.850   1.105  0.2102  0.1844 -0.2056
   34SOL    HW1  134   1.197   1.897   1.099 -1.1551 -0.1894 -2.1542
   34SOL    HW2  135   1.328   1.888   1.174  0.9527 -0.8282 -2.0183
   34SOL     MW  136   1.274   1.861   1.113  0.1280  0.0015 -0.7018
   35SOL     OW  137   0.349   0.083   1.891  0.3750 -0.4450 -0.6882
   35SOL    HW1  138   0.379   0.020   1.955  2.1791 -1.4862  1.1757
   35SOL    HW2  139   0.370   0.029   1.815 -0.4384 -1.1150  0.6445
   35SOL     MW  140   0.356   0.067   1.890  0.5057 -0.6707 -0.2664
   36SOL     OW  141   1.818   1.926   0.469 -0.1222 -0.4494  0.0257
   36SOL    HW1  142   1.837   1.927   0.372  0.2219  3.0239 -0.5962
   36SOL    HW2  143   1.812   1.838   0.511  1.3787  1.3060 -0.1391
   36SOL     MW  144   1.820   1.914   0.462  0.1213  0.2405 -0.0781
   37SOL     OW  145   1.828   1.971   0.954 -0.1332 -0.0618 -0.6147
   37SOL    HW1  146   1.772   1.916   0.899  2.7376  4.4037 -0.0004
   37SOL    HW2  147   1.773   2.027   1.006 -0.5750  2.5550  2.1285
   37SOL     MW  148   1.813   1.971   0.954  0.1873  0.8726 -0.1717
   38SOL     OW  149   2.812   0.907   0.294  0.1570  0.3311 -0.4507
   38SOL    HW1  150   2.865   0.919   0.377 -1.2176  0.5757 -1.8425
   38SOL    HW2  151   2.884   0.869   0.240  1.5343  1.7973  0.8865
   38SOL     MW  152   2.829   0.903   0.298  0.1574  0.5568 -0.4579
   39SOL     OW  153   1.436   0.634   0.803  0.2152  0.3694 -0.6140
   39SOL    HW1  154   1.386   0.556   0.789  2.4826  1.3132  1.4506
   39SOL    HW2  155   1.423   0.663   0.893  3.4649  0.4178 -1.7836
   39SOL     MW  156   1.427   0.628   0.813  0.9431  0.5003 -0.4959
   40SOL     OW  157   1.300   1.901   0.221 -0.0573  0.4020  0.2357
   40SOL    HW1  158   1.268   1.828   0.277 -2.3149  1.1800 -2.4005
   40SOL    HW2  159   1.335   1.963   0.284  1.7311 -1.6951  2.6442
   40SOL     MW  160   1.301   1.900   0.237 -0.1192  0.2280  0.2057
   41SOL     OW  161   0.588   0.574   1.559 -0.3656 -0.5397 -0.1444
   41SOL    HW1  162   0.656   0.630   1.589  2.6464  1.4644  1.8286
   41SOL    HW2  163   0.591   0.501   1.616 -1.6187  1.3110 -1.4300
   41SOL     MW  164   0.597   0.572   1.570 -0.1335 -0.0311 -0.0537
   42SOL     OW  165   1.383   3.061   2.001  0.5011 -0.3604  0.0964
   42SOL    HW1  166   1.284   3.064   2.004  1.9600 -0.7335 -2.2005
   42SOL    HW2  167   1.412   2.969   2.006 -0.4080  0.5870  0.4569
   42SOL     MW  168   1.374   3.049   2.002  0.5736 -0.2846 -0.1591
   43SOL     OW  169   1.584   0.171   1.580 -0.1238 -0.3094 -0.1561
   43SOL    HW1  170   1.633   0.140   1.499 -0.3542 -1.3387  0.1911
   43SOL    HW2  171   1.518   0.103   1.605 -2.3774 -1.5578  4.6840
   43SOL     MW  172   1.582   0.158   1.573 -0.4515 -0.6099  0.5283
   44SOL     OW  173   1.347   0.745   1.066 -0.5172 -0.1186  0.7780
   44SOL    HW1  174   1.319   0.833   1.038 -1.2244  0.1972 -0.1847
   44SOL    HW2  175   1.337   0.748   1.162  1.5092 -0.5149  1.2353
   44SOL     MW  176   1.342   0.757   1.075 -0.3431 -0.1292  0.7113
   45SOL     OW  177   1.000   0.844   0.795  0.0309 -0.4265  0.0457
   45SOL    HW1  178   1.003   0.764   0.852 -2.5985 -0.7385 -0.7004
   45SOL    HW2  179   0.971   0.818   0.696  3.2675  1.5444 -0.5467
   45SOL     MW  180   0.997   0.830   0.789  0.1110 -0.2076 -0.1309
   46SOL     OW  181   0.642   1.106   0.622 -0.1496  0.8472 -1.3982
   46SOL    HW1  182   0.640   1.117   0.530 -1.0315  1.6802  1.8244
   46SOL    HW2  183   0.717   1.047   0.642 -0.5775 -2.4815 -0.8407
   46SOL     MW  184   0.652   1.100   0.613 -0.3224  0.5179 -0.8994
   47SOL     OW  185   0.056   1.809   1.815  0.0650  1.1880 -0.4799
   47SOL    HW1  186   0.146   1.788   1.790  1.7856  2.1256 -0.7003
   47SOL    HW2  187   0.032   1.764   1.896  1.2629  1.6138  2.4605
   47SOL     MW  188   0.065   1.800   1.822  0.4501  1.3679 -0.1210
   48SOL     OW  189   1.051   0.626   0.986 -0.4643 -0.0838  1.0129
   48SOL    HW1  190   1.017   0.683   1.060  2.1183 -1.2758  0.1999
   48SOL    HW2  191   1.149   0.640   0.980  3.1151 -0.1425 -0.7145
   48SOL     MW  192   1.059   0.636   0.995  0.3487 -0.2488  0.6777
   49SOL     OW  193   1.886   0.716   1.585 -0.2269  0.8253 -0.0497
   49SOL    HW1  194   1.826   0.688   1.650 -0.6446  3.3135  0.5984
   49SOL    HW2  195   1.940   0.638   1.573 -1.1194 -1.2988  0.2852
   49SOL     MW  196   1.886   0.702   1.592 -0.3997  0.8734  0.0800
   50SOL     OW  197   1.290   1.033   0.570 -0.2714 -0.1623  0.2917
   50SOL    HW1  198   1.256   1.080   0.647 -0.6196 -2.4258 -0.9653
   50SOL    HW2  199   1.303   0.943   0.585 -1.3711  4.2175  1.0819
   50SOL     MW  200   1.287   1.027   0.582 -0.4624  0.1169  0.2301
   51SOL     OW  201   0.297   2.906   0.876 -0.5215 -0.2994  0.0954
   51SOL    HW1  202   0.385   2.863   0.883 -1.0060  2.4287  0.7104
   51SOL    HW2  203   0.303   2.967   0.955 -0.0732  0.2373 -2.1762
   51SOL     MW  204   0.309   2.909   0.887 -0.5263  0.1313 -0.1231
   52SOL     OW  205   0.816   1.884   0.479  0.2844  0.1900  0.0398
   52SOL    HW1  206   0.736   1.918   0.522 -0.9610  0.2606 -0.6120
   52SOL    HW2  207   0.777   1.871   0.394  3.0177  1.8174  0.3363
   52SOL     MW  208   0.800   1.887   0.474  0.4807  0.4140 -0.0071
   53SOL     OW  209   0.395   2.056   0.641  0.3601  0.0212 -0.5955
   53SOL    HW1  210   0.374   2.030   0.548  0.2843 -0.6622  1.4402
   53SOL    HW2  211   0.393   2.148   0.643 -2.1568 -3.7554 -1.1733
   53SOL     MW  212   0.392   2.065   0.629  0.0180 -0.5672 -0.4031
   54SOL     OW  213   2.184   0.849   0.852  0.0725  0.0151  0.0662
   54SOL    HW1  214   2.193   0.828   0.761 -1.4182 -1.7189  1.6103
   54SOL    HW2  215   2.091   0.849   0.869 -1.2552  0.0355  0.6683
   54SOL     MW  216   2.173   0.846   0.842 -0.2994 -0.2110  0.3494
   55SOL     OW  217   0.514   1.455   1.533  0.5501 -0.1330 -0.2325
   55SOL    HW1  218   0.519   1.515   1.457  0.8576 -0.5541 -1.6520
   55SOL    HW2  219   0.600   1.403   1.525  0.5774 -0.3231  0.5291
   55SOL     MW  220   0.526   1.456   1.522  0.5943 -0.2136 -0.3193
   56SOL     OW  221   0.479   0.815   0.104 -0.0340 -0.2439  0.4677
   56SOL    HW1  222   0.522   0.867   0.039  0.0035 -1.5817 -1.0591
   56SOL    HW2  223   0.389   0.801   0.074 -0.2199  0.0786 -0.7880
   56SOL     MW  224   0.473   0.820   0.092 -0.0536 -0.3778  0.1006
   57SOL     OW  225   1.253   1.215   1.177  0.4270  0.1846 -0.1401
   57SOL    HW1  226   1.349   1.213   1.179 -0.8312  1.2976 -1.2693
   57SOL    HW2  227   1.220   1.173   1.260 -0.5467 -1.4893 -0.1675
   57SOL     MW  228   1.261   1.209   1.188  0.1325  0.1106 -0.2927
   58SOL     OW  229   0.665   1.091   1.280 -0.3745 -0.2367 -0.0940
   58SOL    HW1  230   0.592   1.149   1.240 -2.8695 -0.9462 -0.5540
   58SOL    HW2  231   0.637   1.047   1.361  1.9462 -1.1942 -0.2424
   58SOL     MW  232   0.651   1.093   1.285 -0.3975 -0.4566 -0.1743
   59SOL     OW  233   1.574   1.602   0.331  0.0572 -0.3196 -0.6633
   59SOL    HW1  234   1.595   1.560   0.415 -1.0409  0.6700 -2.5505
   59SOL    HW2  235   1.507   1.672   0.343 -0.0812 -0.4682  2.1165
   59SOL     MW  236   1.568   1.606   0.343 -0.1059 -0.2086 -0.5456
   60SOL     OW  237   0.041   0.141   1.693  0.4717 -0.0418  0.2358
   60SOL    HW1  238  -0.045   0.185   1.674 -0.8639 -0.7714  1.8831
   60SOL    HW2  239   0.027   0.046   1.685  1.1229 -0.1882 -0.1429
   60SOL     MW  240   0.028   0.134   1.690  0.3814 -0.1574  0.4031
   61SOL     OW  241   2.029   1.479   3.034 -0.5655 -0.1005  0.5088
   61SOL    HW1  242   2.027   1.489   3.133  1.1874  2.8148  0.1634
   61SOL    HW2  243   2.060   1.393   3.015 -3.8645  2.7547  1.6125
   61SOL     MW  244   2.033   1.469   3.045 -0.7695  0.6609  0.6089
   62SOL     OW  245   0.585   1.621   0.540  0.2791 -0.0597 -0.1033
   62SOL    HW1  246   0.655   1.587   0.475 -0.4872 -0.0307  0.7250
   62SOL    HW2  247   0.581   1.540   0.599 -0.4550 -1.9207  0.7465
   62SOL     MW  248   0.594   1.606   0.539  0.0811 -0.3014  0.1181
   63SOL     OW  249   1.696   0.782   0.742  0.6329  0.2778  0.1906
   63SOL    HW1  250   1.672   0.800   0.650  2.2443 -0.1567 -0.0926
   63SOL    HW2  251   1.608   0.752   0.767  0.4547 -0.4884  1.4229
   63SOL     MW  252   1.681   0.780   0.733  0.8220  0.1194  0.3158
   64SOL     OW  253   0.243   1.687   0.955  0.2491 -0.3363  0.0830
   64SOL    HW1  254   0.317   1.714   0.902  1.6721 -0.3758 -1.2536
   64SOL    HW2  255   0.179   1.752   0.934  2.0938  1.0112 -2.7591
   64SOL     MW  256   0.244   1.699   0.945  0.6803 -0.1637 -0.4684
   65SOL     OW  257   1.599   2.270   0.313 -0.9781 -0.9084  0.6976
   65SOL    HW1  258   1.636   2.247   0.226 -1.1295 -0.9606 -2.3483
   65SOL    HW2  259   1.607   2.368   0.330  0.6870  2.7009  3.3889
   65SOL     MW  260   1.605   2.280   0.303 -0.7784 -0.4391  0.6508
   66SOL     OW  261   0.311   0.603   0.538 -0.7813  0.6699  0.4369
   66SOL    HW1  262   0.379   0.579   0.470 -2.0529 -0.5441  2.0721
   66SOL    HW2  263   0.309   0.697   0.515 -0.8391 -1.7338  1.2621
   66SOL     MW  264   0.320   0.612   0.526 -0.9567  0.1926  0.7615
   67SOL     OW  265   1.518   0.208   2.006  0.0132  0.0963 -0.0560
   67SOL    HW1  266   1.557   0.238   1.928 -0.8714  1.1289  2.5421
   67SOL    HW2  267   1.491   0.117   2.007  2.6498  0.5843  0.5404
   67SOL     MW  268   1.519   0.200   1.996  0.2444  0.2969  0.3655
   68SOL     OW  269   0.760   0.072   2.996 -0.1296 -0.6800  0.1334
   68SOL    HW1  270   0.758   0.079   2.897 -2.2241  4.2804 -0.8630
   68SOL    HW2  271   0.734   0.162   3.021  0.5527 -1.9180 -0.9664
   68SOL     MW  272   0.756   0.085   2.986 -0.3159 -0.1888 -0.1432
   69SOL     OW  273   1.024   0.172   1.970 -0.0358  0.2488 -0.0512
   69SOL    HW1  274   1.110   0.216   1.985 -1.1608 -1.7401  0.5085
   69SOL    HW2  275   1.046   0.077   1.965  3.3021  0.5911 -1.7374
   69SOL     MW  276   1.039   0.165   1.971  0.2562  0.0315 -0.1998
   70SOL     OW  277   0.583   1.825   1.144  0.2408  0.2940  0.4513
   70SOL    HW1  278   0.566   1.731   1.151  2.3038  0.7754  1.6448
   70SOL    HW2  279   0.674   1.825   1.104 -1.7530 -0.0971  1.1318
   70SOL     MW  280   0.593   1.812   1.140  0.2499  0.3059  0.6986
   71SOL     OW  281   1.827   0.636   1.320  0.1518  0.3549  0.1195
   71SOL    HW1  282   1.823   0.652   1.412 -1.8415  1.2507  1.0006
   71SOL    HW2  283   1.740   0.624   1.287  1.4871 -0.3956  0.1823
   71SOL     MW  284   1.815   0.637   1.328  0.0650  0.3740  0.2441
   72SOL     OW  285   0.832   1.832   1.021 -0.1668 -0.2992 -0.0812
   72SOL    HW1  286   0.817   1.877   0.938 -0.0941  1.3270 -1.4293
   72SOL    HW2  287   0.835   1.734   1.002  0.4830  0.6670 -3.5217
   72SOL     MW  288   0.831   1.825   1.008 -0.0715  0.0429 -0.7130
   73SOL     OW  289   1.314   0.609   1.322  0.9738 -0.4764 -0.3306
   73SOL    HW1  290   1.241   0.561   1.277 -0.2983 -0.5990  2.3241
   73SOL    HW2  291   1.269   0.686   1.360 -0.3083 -1.8957  1.1319
   73SOL     MW  292   1.298   0.613   1.321  0.6368 -0.6798  0.2126
   74SOL     OW  293   2.794   0.085   1.033 -0.1068  0.3852 -0.3322
   74SOL    HW1  294   2.747   0.065   0.955  1.3539  1.1619  2.1474
   74SOL    HW2  295   2.886   0.084   1.005  0.7143  0.9886  0.1094
   74SOL     MW  296   2.800   0.082   1.019  0.1943  0.5673  0.0532
   75SOL     OW  297   1.639   1.277   0.084  0.8061  0.6294  0.1846
   75SOL    HW1  298   1.692   1.274   0.170 -1.1346  1.5675 -0.2249
   75SOL    HW2  299   1.653   1.186   0.042  1.4359  0.8860  0.5197
   75SOL     MW  300   1.648   1.264   0.090  0.6332  0.7871  0.1748
   76SOL     OW  301   2.938   0.628   0.435 -0.0308  0.1879  1.1928
   76SOL    HW1  302   2.973   0.641   0.527  0.9430 -1.7343 -0.5284
   76SOL    HW2  303   3.005   0.571   0.393  2.2156  1.4850  2.1234
   76SOL     MW  304   2.951   0.622   0.442  0.3941  0.1054  1.0885
   77SOL     OW  305   0.917   0.488   0.517  0.1642 -0.1144  0.0998
   77SOL    HW1  306   0.882   0.574   0.490  1.2496  1.2919 -3.2713
   77SOL    HW2  307   0.839   0.432   0.534 -1.6065  0.2706  0.5531
   77SOL     MW  308   0.902   0.492   0.516  0.0738  0.1220 -0.2852
   78SOL     OW  309   0.913   0.747   1.212 -0.6534  0.1881 -0.2701
   78SOL    HW1  310   0.857   0.684   1.262  0.1229 -1.5755  0.5068
   78SOL    HW2  311   0.890   0.831   1.248 -2.1937 -0.9880  0.1397
   78SOL     MW  312   0.903   0.749   1.223 -0.7542 -0.1998 -0.1135
   79SOL     OW  313   1.861   1.652   0.563  0.0605 -0.2480  0.5011
   79SOL    HW1  314   1.781   1.625   0.516 -1.6646 -2.2957 -0.5032
   79SOL    HW2  315   1.839   1.639   0.654  0.2574 -0.2440  2.9152
   79SOL     MW  316   1.848   1.647   0.569 -0.1411 -0.5177  0.6871
   80SOL     OW  317   0.157   1.087   0.294  0.3172 -0.1903 -0.3044
   80SOL    HW1  318   0.079   1.037   0.288 -1.4026 -2.2955  0.2985
   80SOL    HW2  319   0.209   1.018   0.331 -0.3878  1.0048 -0.3314
   80SOL     MW  320   0.154   1.071   0.298 -0.0027 -0.3104 -0.2284
   81SOL     OW  321   1.893   1.902   0.207  0.3340 -0.0325  0.1609
   81SOL    HW1  322   1.837   1.824   0.190  0.1207  0.1510  0.1535
   81SOL    HW2  323   1.870   1.959   0.135  1.9029 -2.3788  2.0332
   81SOL     MW  324   1.883   1.899   0.195  0.5129 -0.3178  0.4070
   82SOL     OW  325   0.903   0.858   0.547 -1.1973 -0.1106  0.0531
   82SOL    HW1  326   0.972   0.895   0.489 -1.1922 -1.0938 -0.9089
   82SOL    HW2  327   0.838   0.808   0.497 -2.1224  0.6696 -1.3959
   82SOL     MW  328   0.904   0.856   0.533 -1.3187 -0.1374 -0.2650
   83SOL     OW  329   0.066   0.578   1.360  0.0557 -0.0785  0.2766
   83SOL    HW1  330   0.071   0.674   1.336  3.8344  0.4756 -0.6481
   83SOL    HW2  331   0.147   0.544   1.394 -0.6081 -0.7442 -2.3804
   83SOL     MW  332   0.077   0.586   1.362  0.4667 -0.0932 -0.1959
   84SOL     OW  333   0.074   0.290   1.062 -0.4434 -0.2128  0.4559
   84SOL    HW1  334   0.027   0.296   0.978  2.0005 -0.0820  0.8890
   84SOL    HW2  335   0.043   0.212   1.106  1.3132  0.4136  1.2481
   84SOL     MW  336   0.064   0.281   1.057  0.1108 -0.1129  0.6176
   85SOL     OW  337   0.484   0.406   0.705  0.0713 -0.3081  0.3932
   85SOL    HW1  338   0.438   0.472   0.654 -5.1801 -0.1253 -0.8520
   85SOL    HW2  339   0.414   0.360   0.753 -1.6905 -0.8272  1.9367
   85SOL     MW  340   0.469   0.408   0.704 -0.8540 -0.3525  0.4326
   86SOL     OW  341   1.129   0.458   1.201  0.4076 -0.1826  0.4702
   86SOL    HW1  342   1.069   0.501   1.133  1.3088 -0.4737 -1.2278
   86SOL    HW2  343   1.074   0.451   1.281 -1.7794  0.0284  0.0940
   86SOL     MW  344   1.114   0.463   1.203  0.2379 -0.1931  0.1966
   87SOL     OW  345   1.247   1.459   1.367  0.4614 -0.9244  0.0656
   87SOL    HW1  346   1.270   1.506   1.282 -0.6560  0.2755  0.0929
   87SOL    HW2  347   1.258   1.367   1.347 -0.7055 -2.2786 -0.3623
   87SOL     MW  348   1.252   1.453   1.353  0.1600 -0.9447  0.0128
   88SOL     OW  349   1.345   1.012   0.995  0.1660  0.3479  0.2377
   88SOL    HW1  350   1.431   1.007   1.027 -2.3033 -1.7621  0.6098
   88SOL    HW2  351   1.285   1.055   1.054  2.2105 -2.0959  0.7831
   88SOL     MW  352   1.348   1.017   1.007  0.1099 -0.2529  0.3587
   89SOL     OW  353   1.817   0.581   0.322  0.2668 -0.6401 -0.5468
   89SOL    HW1  354   1.874   0.513   0.364 -0.8776 -1.1253 -0.7871
   89SOL    HW2  355   1.879   0.623   0.254  1.7526 -2.0052 -1.8339
   89SOL     MW  356   1.833   0.578   0.318  0.3118 -0.8843 -0.7483
   90SOL     OW  357   0.788   1.232   2.843 -0.1827  0.6293  0.1335
   90SOL    HW1  358   0.823   1.152   2.808 -2.5244 -1.0559 -2.2374
   90SOL    HW2  359   0.853   1.266   2.898 -2.8731 -1.6336 -1.4327
   90SOL     MW  360   0.801   1.226   2.846 -0.8466  0.1084 -0.3860
   91SOL     OW  361   1.928   0.783   0.478  0.5639 -0.0042 -0.6164
   91SOL    HW1  362   1.972   0.868   0.446 -2.3897  0.1181  0.3783
   91SOL    HW2  363   1.899   0.728   0.407 -0.7900 -2.4692 -0.0093
   91SOL     MW  364   1.930   0.787   0.464 -0.0044 -0.3133 -0.4051
   92SOL     OW  365   1.635   0.773   0.457  0.6593 -0.3797  0.0284
   92SOL    HW1  366   1.538   0.754   0.457 -1.0642  1.8461  0.7490
   92SOL    HW2  367   1.684   0.695   0.434  0.6413 -1.5875 -4.4930
   92SOL     MW  368   1.628   0.760   0.454  0.4295 -0.2454 -0.4730
   93SOL     OW  369   0.997   0.236   0.392 -0.3164 -0.2896  0.1495
   93SOL    HW1  370   0.994   0.330   0.397  0.6963 -1.1586 -0.0740
   93SOL    HW2  371   0.924   0.233   0.328 -1.7298  0.2651  0.8908
   93SOL     MW  372   0.987   0.248   0.384 -0.3693 -0.3311  0.2178
   94SOL     OW  373   1.977   1.302   1.693 -0.3592 -0.3137  0.0519
   94SOL    HW1  374   1.942   1.323   1.608 -1.4920 -0.1206 -2.1074
   94SOL    HW2  375   1.928   1.236   1.738  1.8861  2.4690  0.6859
   94SOL     MW  376   1.966   1.296   1.688 -0.2124  0.0789 -0.1493
   95SOL     OW  377   0.931   1.565   1.012 -0.1675  0.2550  0.0791
   95SOL    HW1  378   0.961   1.478   1.035 -0.6305 -0.5170 -0.8480
   95SOL    HW2  379   0.997   1.621   1.045 -1.9113 -1.1299 -3.2890
   95SOL     MW  380   0.943   1.561   1.019 -0.4587 -0.0296 -0.4876
   96SOL     OW  381   1.316   1.812   1.712 -0.6341 -0.4136  0.0664
   96SOL    HW1  382   1.226   1.782   1.723 -2.1958 -3.1129 -0.6744
   96SOL    HW2  383   1.358   1.743   1.657 -0.1039  0.2834  0.8690
   96SOL     MW  384   1.310   1.799   1.707 -0.7702 -0.6777  0.0746
   97SOL     OW  385   1.220   1.439   0.870 -0.5014  0.4574  0.1938
   97SOL    HW1  386   1.225   1.490   0.952  1.1981 -0.6900 -1.7863
   97SOL    HW2  387   1.141   1.479   0.820 -1.7976  1.7517 -0.5368
   97SOL     MW  388   1.210   1.451   0.874 -0.4482  0.4768 -0.1638
   98SOL     OW  389   1.546   1.270   1.143 -0.1166  0.0109  0.7542
   98SOL    HW1  390   1.588   1.346   1.185 -1.1748  2.0438 -0.6141
   98SOL    HW2  391   1.586   1.265   1.058 -1.8174  0.1943  0.6683
   98SOL     MW  392   1.557   1.279   1.138 -0.4806  0.3033  0.5624
   99SOL     OW  393   1.433   0.368   1.202  0.3106  0.2606 -0.3252
   99SOL    HW1  394   1.488   0.439   1.180 -1.3454  1.3435  2.3729
   99SOL    HW2  395   1.387   0.394   1.282 -0.9889  0.6310  1.9974
   99SOL     MW  396   1.434   0.381   1.209 -0.0793  0.4524  0.3372
  100SOL     OW  397   1.079   1.050   1.361  0.4894  0.1894 -0.0569
  100SOL    HW1  398   1.019   1.064   1.442 -0.2579 -1.5457 -1.2238
  100SOL    HW2  399   1.105   0.958   1.366  0.0392  2.3862 -2.3650
  100SOL     MW  400   1.074   1.040   1.372  0.3314  0.2504 -0.5154
  101SOL     OW  401   0.644   1.145   0.356  0.5479  0.3804  0.0270
  101SOL    HW1  402   0.643   1.046   0.331 -1.0851 -0.7360 -0.5340
  101SOL    HW2  403   0.670   1.181   0.271  1.0576 -0.1288  1.8249
  101SOL     MW  404   0.647   1.136   0.342  0.3997  0.1659  0.1902
  102SOL     OW  405   2.900   0.664   0.934  0.5075 -0.5374 -0.1467
  102SOL    HW1  406   2.978   0.670   0.886  0.9505  0.7218  0.7397
  102SOL    HW2  407   2.926   0.644   1.025  2.4399 -1.6242  1.1797
  102SOL     MW  408   2.914   0.662   0.939  0.8209 -0.5146  0.1452
  103SOL     OW  409   1.710   0.347   1.768 -0.4373  0.3516 -0.1604
  103SOL    HW1  410   1.688   0.269   1.714  1.5514  0.1965  1.5582
  103SOL    HW2  411   1.790   0.324   1.829 -1.4917  0.4688 -0.0494
  103SOL     MW  412   1.717   0.334   1.769 -0.3140  0.3466  0.0810
  104SOL     OW  413   0.090   1.809   1.477  0.2482  0.0204  0.1866
  104SOL    HW1  414   0.180   1.783   1.462 -1.3219  1.3118  1.9110
  104SOL    HW2  415   0.060   1.752   1.540  1.8041  1.7713 -2.9570
  104SOL     MW  416   0.098   1.798   1.483  0.2463  0.4218 -0.0007
  105SOL     OW  417   0.129   1.213   0.539  0.1909 -0.8108  0.2363
  105SOL    HW1  418   0.161   1.201   0.453 -2.5718 -0.9764  1.3614
  105SOL    HW2  419   0.135   1.311   0.545  0.0339 -0.2330 -1.0622
  105SOL     MW  420   0.134   1.225   0.528 -0.1943 -0.7564  0.2134
  106SOL     OW  421   0.827   0.323   0.921  0.5935 -0.7637  0.0426
  106SOL    HW1  422   0.790   0.413   0.918 -1.2882  3.0556 -1.0133
  106SOL    HW2  423   0.894   0.320   0.855 -0.7347  1.0153 -0.3571
  106SOL     MW  424   0.831   0.335   0.912  0.1700 -0.0250 -0.1494
  107SOL     OW  425   0.795   2.205   3.064 -0.3772 -0.3730  0.0950
  107SOL    HW1  426   0.741   2.136   3.029  2.1457  0.5886  0.8624
  107SOL    HW2  427   0.856   2.154   3.117  2.2444 -1.1642  1.8539
  107SOL     MW  428   0.796   2.189   3.067  0.3016 -0.3505  0.4283
  108SOL     OW  429   1.380   1.566   1.581  0.3389  0.2924 -0.3479
  108SOL    HW1  430   1.343   1.514   1.517 -0.7414  1.9736 -1.5601
  108SOL    HW2  431   1.429   1.508   1.637 -1.2808  0.9575 -0.2989
  108SOL     MW  432   1.381   1.552   1.580 -0.0173  0.6020 -0.5014
  109SOL     OW  433   1.959   0.755   0.169  0.4206  0.2782  0.3061
  109SOL    HW1  434   1.959   0.806   0.084 -3.3287  2.8516  0.0919
  109SOL    HW2  435   2.049   0.754   0.201 -0.7557  1.3776 -1.3469
  109SOL     MW  436   1.971   0.761   0.162 -0.2293  0.7628  0.0597
  110SOL     OW  437   0.455   1.798   0.748 -0.2541 -0.0021 -0.0744
  110SOL    HW1  438   0.515   1.763   0.677  0.3607 -0.4950 -4.3313
  110SOL    HW2  439   0.440   1.886   0.718 -1.5268 -1.4783  0.1248
  110SOL     MW  440   0.461   1.805   0.735 -0.3409 -0.2619 -0.6098
  111SOL     OW  441   0.696   0.911   1.496 -0.0811  0.2852 -0.4689
  111SOL    HW1  442   0.759   0.833   1.504 -0.8070 -0.3331  1.4877
  111SOL    HW2  443   0.627   0.888   1.562  1.0086 -0.4917  0.3057
  111SOL     MW  444   0.695   0.897   1.506 -0.0331  0.1011 -0.1085
  112SOL     OW  445   1.305   1.147   1.611 -0.3418  0.1211 -0.8073
  112SOL    HW1  446   1.246   1.221   1.647 -0.6514 -0.7062  0.9411
  112SOL    HW2  447   1.247   1.074   1.605  1.7729  0.2484  3.2657
  112SOL     MW  448   1.289   1.147   1.615 -0.1037  0.0288 -0.0392
  113SOL     OW  449   1.346   0.032   1.690  0.3184  0.0957  0.3798
  113SOL    HW1  450   1.354  -0.023   1.766  2.2249  1.6959  0.8814
  113SOL    HW2  451   1.320  -0.030   1.626  1.3891  2.6130  0.3266
  113SOL     MW  452   1.344   0.016   1.691  0.7112  0.6390  0.4389
  114SOL     OW  453   0.449   2.786   1.850 -0.1286  0.5403 -0.2014
  114SOL    HW1  454   0.419   2.856   1.908  1.3898  0.9403  2.0859
  114SOL    HW2  455   0.465   2.840   1.774  0.6167 -0.2142 -1.1132
  114SOL     MW  456   0.447   2.802   1.848  0.1701  0.4936 -0.0199
  115SOL     OW  457   0.371   0.837   1.050  0.0132  0.2607 -0.1507
  115SOL    HW1  458   0.407   0.755   1.077  0.3785  1.4325  1.6772
  115SOL    HW2  459   0.360   0.885   1.136  0.1593  1.0818 -1.1424
  115SOL     MW  460   0.375   0.833   1.065  0.0807  0.5237 -0.0404
  116SOL     OW  461   0.780   0.968   0.911 -0.0316 -0.1442  0.1381
  116SOL    HW1  462   0.865   0.942   0.868  1.0939  0.3384 -2.1787
  116SOL    HW2  463   0.798   1.010   0.995 -2.8646 -1.0591  3.1067
  116SOL     MW  464   0.794   0.970   0.917 -0.2569 -0.2012  0.2241
  117SOL     OW  465   1.216   1.176   0.805  0.1925  0.6134 -0.6010
  117SOL    HW1  466   1.272   1.123   0.861  1.2452 -1.6127  0.8829
  117SOL    HW2  467   1.192   1.256   0.851 -0.9472  1.0644  1.2887
  117SOL     MW  468   1.220   1.179   0.818  0.1810  0.3792 -0.1559
  118SOL     OW  469   3.096   2.980   1.720  0.4466 -0.0569  0.0049
  118SOL    HW1  470   3.133   2.987   1.814 -1.6971  0.0630  3.2671
  118SOL    HW2  471   2.996   2.974   1.727 -1.0008 -2.3392  1.5094
  118SOL     MW  472   3.087   2.980   1.733 -0.0272 -0.3422  0.6338
  119SOL     OW  473   0.494   1.298   1.224 -0.1257 -0.5105  0.3926
  119SOL    HW1  474   0.496   1.344   1.135 -1.2855 -1.2897 -0.8734
  119SOL    HW2  475   0.398   1.275   1.237 -2.1022 -0.2459  0.2967
  119SOL     MW  476   0.482   1.301   1.214 -0.5395 -0.5784  0.2129
  120SOL     OW  477   0.187   0.600   0.964 -0.2661 -0.2398 -0.1317
  120SOL    HW1  478   0.238   0.576   1.045  0.7065  0.2217 -0.9446
  120SOL    HW2  479   0.181   0.698   0.969 -0.0611 -0.5835  0.3587
  120SOL     MW  480   0.192   0.610   0.975 -0.1107 -0.2242 -0.1742
  121SOL     OW  481   1.792   1.039   1.791  0.3526  0.4655 -0.3989
  121SOL    HW1  482   1.754   1.029   1.707 -0.3068 -3.9710  0.8875
  121SOL    HW2  483   1.791   0.950   1.826  2.3171 -3.1300 -1.9186
  121SOL     MW  484   1.787   1.026   1.784  0.5248 -0.5942 -0.4297
  122SOL     OW  485   0.137   0.483   0.723 -0.5912  0.0318 -0.0329
  122SOL    HW1  486   0.194   0.492   0.643  0.3233  1.8619 -0.7393
  122SOL    HW2  487   0.183   0.513   0.805 -0.3297 -0.9266  0.2917
  122SOL     MW  488   0.151   0.488   0.723 -0.4361  0.1468 -0.0833
  123SOL     OW  489   1.721   1.047   0.471  0.0275 -0.3901 -0.2050
  123SOL    HW1  490   1.693   0.956   0.467  1.0770  0.6239  0.7386
  123SOL    HW2  491   1.785   1.034   0.545  0.2367  2.0426  0.4441
  123SOL     MW  492   1.726   1.033   0.480  0.1936  0.0647  0.0052
  124SOL     OW  493   0.626   0.535   0.906  0.4845 -0.1143 -0.5970
  124SOL    HW1  494   0.567   0.491   0.845 -1.1842 -0.0824  0.2378
  124SOL    HW2  495   0.633   0.626   0.876 -0.3026  0.9999 -0.2724
  124SOL     MW  496   0.619   0.541   0.894  0.1605  0.0370 -0.4440
  125SOL     OW  497   0.643   1.637   1.694 -0.6625 -0.1679  0.0035
  125SOL    HW1  498   0.576   1.598   1.641 -0.5274  1.7726  1.4853
  125SOL    HW2  499   0.630   1.737   1.695 -1.1619  1.4822  0.7264
  125SOL     MW  500   0.633   1.645   1.687 -0.7106  0.3058  0.2944
  126SOL     OW  501   2.127   1.602   2.052  0.2658  0.3090 -0.0367
  126SOL    HW1  502   2.181   1.672   2.028 -0.2050 -0.7165 -2.1375
  126SOL    HW2  503   2.176   1.538   2.097 -0.6603 -0.5834 -1.3516
  126SOL     MW  504   2.140   1.603   2.055  0.0815  0.0559 -0.4874
  127SOL     OW  505   0.641   0.679   1.856 -0.2795  0.0089  0.1653
  127SOL    HW1  506   0.703   0.609   1.872  1.7627 -1.9751  0.6261
  127SOL    HW2  507   0.672   0.755   1.911 -0.4274  0.3687  3.4621
  127SOL     MW  508   0.653   0.680   1.865 -0.0296 -0.2054  0.6611
  128SOL     OW  509   1.736   0.731   2.810 -0.1285 -0.1688 -0.1809
  128SOL    HW1  510   1.784   0.708   2.730 -2.6986  0.0828  2.3192
  128SOL    HW2  511   1.711   0.824   2.805  2.0092  1.0652 -0.4589
  128SOL     MW  512   1.739   0.740   2.799 -0.1856  0.0272  0.1123
  129SOL     OW  513   1.622   0.844   0.190 -0.5071 -0.1195  0.5146
  129SOL    HW1  514   1.536   0.814   0.175  2.7274 -0.6832  1.3266
  129SOL    HW2  515   1.647   0.796   0.268  1.7324  2.4275  2.8918
  129SOL     MW  516   1.614   0.834   0.198  0.2151  0.1422  0.9354
  130SOL     OW  517   0.748   1.516   0.352  0.0956  0.5684 -0.0578
  130SOL    HW1  518   0.771   1.448   0.423 -0.7133 -1.1352 -1.7046
  130SOL    HW2  519   0.829   1.560   0.323 -3.0900 -0.3949 -0.2282
  130SOL     MW  520   0.762   1.512   0.358 -0.4314  0.2165 -0.2975
  131SOL     OW  521   3.027   0.842   0.085 -0.2441 -1.3329 -0.2630
  131SOL    HW1  522   3.013   0.922   0.020 -2.7535  0.9238 -2.9919
  131SOL    HW2  523   3.117   0.808   0.069  0.9411  1.2995  1.6500
  131SOL     MW  524   3.037   0.848   0.074 -0.4188 -0.6878 -0.3707
  132SOL     OW  525   2.709   0.109   1.295 -0.6331  0.4874 -0.1459
  132SOL    HW1  526   2.731   0.106   1.200 -0.8340 -1.5515 -0.3720
  132SOL    HW2  527   2.610   0.106   1.290 -0.6720 -1.3248 -0.4999
  132SOL     MW  528   2.699   0.108   1.282 -0.6648 -0.0207 -0.2225
  133SOL     OW  529   1.089   0.223   1.692 -0.2953 -0.0105 -0.0533
  133SOL    HW1  530   1.169   0.170   1.684 -0.2817  2.3635 -1.9382
  133SOL    HW2  531   1.056   0.210   1.777 -0.2704  1.8248  0.4751
  133SOL     MW  532   1.096   0.214   1.702 -0.2903  0.5449 -0.2323
  134SOL     OW  533   1.381   2.530   1.487  0.4721 -0.3454 -0.4763
  134SOL    HW1  534   1.337   2.599   1.440  1.1543 -1.9475  1.3630
  134SOL    HW2  535   1.438   2.571   1.556  0.2260 -0.4964  0.5130
  134SOL     MW  536   1.383   2.544   1.490  0.5296 -0.5767 -0.1031
  135SOL     OW  537   2.996   1.031   3.002  0.1890 -0.0432 -0.1866
  135SOL    HW1  538   3.077   1.075   2.987 -0.3247 -1.3027  2.0112
  135SOL    HW2  539   2.918   1.085   3.009  0.1983  0.0181  0.3936
  135SOL     MW  540   2.996   1.044   3.001  0.1225 -0.2013  0.1799
  136SOL     OW  541   0.208   2.087   0.866  1.1682 -0.2364  0.8671
  136SOL    HW1  542   0.132   2.029   0.869 -0.5524  2.3489 -1.3693
  136SOL    HW2  543   0.257   2.072   0.778  2.3418 -2.2660  4.2161
  136SOL     MW  544   0.205   2.078   0.855  1.0960 -0.1631  1.0139
  137SOL     OW  545   0.670   2.071   0.600 -0.0169 -0.0184  0.1097
  137SOL    HW1  546   0.726   2.038   0.670 -1.5070  1.1943 -0.4796
  137SOL    HW2  547   0.578   2.057   0.628 -2.7468  3.1626  1.5306
  137SOL     MW  548   0.665   2.064   0.613 -0.5737  0.5613  0.2194
  138SOL     OW  549   0.471   0.588   1.129  0.2005 -0.1606 -0.2915
  138SOL    HW1  550   0.404   0.520   1.130 -0.5841 -0.5842  1.7887
  138SOL    HW2  551   0.534   0.570   1.060  0.1472  0.7378  1.1805
  138SOL     MW  552   0.470   0.577   1.120  0.0900 -0.0979  0.1772
  139SOL     OW  553   2.698   0.538   1.385  0.6947  0.3810  0.4023
  139SOL    HW1  554   2.754   0.453   1.380 -1.5200  0.1423 -1.1220
  139SOL    HW2  555   2.761   0.591   1.432  1.5467 -0.5550 -0.9990
  139SOL     MW  556   2.714   0.534   1.391  0.5149  0.2260  0.0163
  140SOL     OW  557   0.887   0.276   2.165 -0.0083  0.5772  0.7101
  140SOL    HW1  558   0.916   0.229   2.079  3.2179 -4.2185 -1.6173
  140SOL    HW2  559   0.957   0.259   2.227 -0.2785 -1.3313 -1.5530
  140SOL     MW  560   0.900   0.267   2.162  0.3817 -0.3073  0.1044
  141SOL     OW  561   1.052   0.686   1.762 -0.0400 -0.2446 -0.1281
  141SOL    HW1  562   1.108   0.607   1.746  1.1147 -1.3109 -2.3796
  141SOL    HW2  563   1.105   0.766   1.758  0.7807  0.7384  3.2446
  141SOL     MW  564   1.066   0.686   1.760  0.2206 -0.2556  0.0198
  142SOL     OW  565   0.941   1.141   0.726  0.3217 -0.0782 -0.0978
  142SOL    HW1  566   0.946   1.067   0.664  0.0199 -2.2977 -3.4916
  142SOL    HW2  567   1.020   1.152   0.779  0.8508  0.7599  0.7333
  142SOL     MW  568   0.952   1.132   0.725  0.3517 -0.2605 -0.4359
  143SOL     OW  569   1.893   0.896   1.191  0.3358 -0.0278  0.3139
  143SOL    HW1  570   1.885   0.850   1.105 -1.4842 -0.8254 -1.4068
  143SOL    HW2  571   1.896   0.824   1.254  2.4099 -1.1008  2.1567
  143SOL     MW  572   1.892   0.881   1.188  0.3693 -0.2746  0.3300
  144SOL     OW  573   0.173   1.267   1.549 -0.4706 -0.3591 -0.3256
  144SOL    HW1  574   0.261   1.228   1.548  0.4115 -2.3014  0.3280
  144SOL    HW2  575   0.145   1.238   1.635 -1.2229  2.0971  0.5960
  144SOL     MW  576   0.181   1.258   1.560 -0.4535 -0.2913 -0.1177
  145SOL     OW  577   0.296   0.388   1.152 -0.0736  0.6601 -0.1949
  145SOL    HW1  578   0.331   0.325   1.212 -1.1156  1.1286 -0.5637
  145SOL    HW2  579   0.213   0.354   1.118  0.4925  0.6321  0.3837
  145SOL     MW  580   0.290   0.375   1.156 -0.1364  0.7182 -0.1672
  146SOL     OW  581   0.875   1.944   1.364 -0.4977 -0.3385 -0.0357
  146SOL    HW1  582   0.933   1.956   1.290  3.3894  1.0608 -1.7190
  146SOL    HW2  583   0.791   1.967   1.328  0.8499  0.9581  2.3012
  146SOL     MW  584   0.872   1.949   1.350  0.1930  0.0172  0.0505
  147SOL     OW  585   0.482   0.441   2.852 -0.2070 -0.1910  0.2968
  147SOL    HW1  586   0.399   0.475   2.881 -1.8004 -3.2264 -1.7998
  147SOL    HW2  587   0.538   0.519   2.840  0.0378 -1.5350 -0.9270
  147SOL     MW  588   0.479   0.456   2.854 -0.3849 -0.7688 -0.1413
  148SOL     OW  589   0.081   0.866   1.287 -0.1797  0.6692  0.3527
  148SOL    HW1  590   0.174   0.875   1.264  1.7831 -0.4676  2.3560
  148SOL    HW2  591   0.078   0.912   1.373 -1.7862  1.1116 -2.1483
  148SOL     MW  592   0.093   0.873   1.295 -0.1327  0.5776  0.2870
  149SOL     OW  593   1.435   1.136   1.377 -0.4054 -0.7108 -0.0861
  149SOL    HW1  594   1.386   1.135   1.458  0.8182  2.2540 -0.0485
  149SOL    HW2  595   1.495   1.210   1.381  0.9208 -1.2335 -0.7059
  149SOL     MW  596   1.436   1.146   1.388 -0.0690 -0.3886 -0.1629
  150SOL     OW  597   1.851   1.327   0.722  0.1893  0.5631 -0.6045
  150SOL    HW1  598   1.870   1.235   0.731 -1.2656 -0.9283 -1.4904
  150SOL    HW2  599   1.917   1.371   0.779 -0.6535  1.0417 -0.8326
  150SOL     MW  600   1.862   1.321   0.731 -0.1139  0.4295 -0.7515
  151SOL     OW  601   1.610   1.799   0.840 -0.2178  0.1814 -0.1418
  151SOL    HW1  602   1.568   1.790   0.749 -2.3941 -1.5062 -1.4920
  151SOL    HW2  603   1.560   1.748   0.903  0.9551  0.4113 -0.4210
  151SOL     MW  604   1.598   1.791   0.836 -0.3502 -0.0109 -0.3568
  152SOL     OW  605   0.737   1.322   1.434  0.2492  0.2188  0.6969
  152SOL    HW1  606   0.746   1.248   1.368  2.4920  0.4596 -1.0546
  152SOL    HW2  607   0.821   1.339   1.465  0.6939 -0.0400  1.3643
  152SOL     MW  608   0.749   1.314   1.430  0.6038  0.2164  0.5539
  153SOL     OW  609   2.619   1.195   0.742 -0.3125  0.8327  0.3258
  153SOL    HW1  610   2.684   1.190   0.672 -0.1487 -0.8978 -3.2484
  153SOL    HW2  611   2.566   1.112   0.752  2.8503  2.0690 -2.6221
  153SOL     MW  612   2.621   1.183   0.734  0.1264  0.7675 -0.5347
  154SOL     OW  613   0.325   1.755   1.730 -0.2454 -0.1757 -0.3922
  154SOL    HW1  614   0.341   1.754   1.639  2.1539 -0.0517 -1.4206
  154SOL    HW2  615   0.374   1.678   1.766  0.1178 -3.1242  0.8673
  154SOL     MW  616   0.334   1.745   1.723  0.1191 -0.5483 -0.3617
  155SOL     OW  617   1.101   0.707   0.233 -0.3785  0.4234  0.6675
  155SOL    HW1  618   1.132   0.641   0.291  1.8668  1.4819 -0.8978
  155SOL    HW2  619   1.094   0.781   0.294  0.6816  0.4084  1.4432
  155SOL     MW  620   1.104   0.708   0.249  0.0576  0.5611  0.5633
  156SOL     OW  621   1.605   3.037   0.996 -0.2570 -0.2529  0.1079
  156SOL    HW1  622   1.683   3.093   1.003 -1.0375  2.5240  0.3780
  156SOL    HW2  623   1.608   2.962   1.059 -0.9183 -1.4267  1.2643
  156SOL     MW  624   1.615   3.035   1.005 -0.4472 -0.0414  0.2961
  157SOL     OW  625   1.354   1.210   0.097  0.6081  0.0708  0.1132
  157SOL    HW1  626   1.345   1.181   0.185  2.4857 -1.2007  0.6520
  157SOL    HW2  627   1.420   1.284   0.094  1.3606 -0.6304 -3.0066
  157SOL     MW  628   1.362   1.216   0.108  0.9551 -0.1895 -0.2273
  158SOL     OW  629   0.376   1.580   2.232  0.3469  0.6151  0.5853
  158SOL    HW1  630   0.381   1.578   2.136  0.8405  0.4832 -0.7737
  158SOL    HW2  631   0.285   1.597   2.243 -1.1453 -1.6936  0.3339
  158SOL     MW  632   0.365   1.582   2.221  0.2152  0.2931  0.3728
  159SOL     OW  633   1.259   1.708   0.407 -0.1926 -0.0278 -0.1497
  159SOL    HW1  634   1.250   1.623   0.353 -2.1087  0.9787 -2.2484
  159SOL    HW2  635   1.183   1.709   0.471 -1.6756 -0.8690  1.3543
  159SOL     MW  636   1.248   1.697   0.408 -0.6411 -0.0060 -0.2282
  160SOL     OW  637   0.395   1.091   1.526  0.4717 -0.6681  0.2418
  160SOL    HW1  638   0.406   1.038   1.605  0.2344  2.1605  1.9775
  160SOL    HW2  639   0.460   1.160   1.549  0.1642 -0.0641  1.9645
  160SOL     MW  640   0.405   1.093   1.539  0.3999 -0.2152  0.6981
  161SOL     OW  641   0.523   2.147   2.654 -0.0490 -0.2086  0.0342
  161SOL    HW1  642   0.458   2.184   2.723 -1.7602  0.5646  0.7682
  161SOL    HW2  643   0.471   2.081   2.607  4.9254  0.7402  0.0869
  161SOL     MW  644   0.508   2.143   2.657  0.3816  0.0186  0.1380
  162SOL     OW  645   1.024   1.757   1.837 -0.4372 -0.6477 -0.0689
  162SOL    HW1  646   1.017   1.842   1.874  2.5282  1.6331 -0.0256
  162SOL    HW2  647   0.942   1.722   1.857 -0.4175  1.9456 -0.9087
  162SOL     MW  648   1.012   1.764   1.845 -0.0434 -0.0046 -0.1740
  163SOL     OW  649   2.157   0.160   0.997  0.0472  0.3056  0.5111
  163SOL    HW1  650   2.162   0.189   0.900  1.9836  1.6024 -0.1110
  163SOL    HW2  651   2.128   0.072   0.999  0.0607  2.5301 -2.6271
  163SOL     MW  652   2.154   0.152   0.984  0.3044  0.7702  0.0150
  164SOL     OW  653   0.309   0.249   0.852 -0.1489 -0.3430  0.1720
  164SOL    HW1  654   0.227   0.229   0.884  2.0142 -0.8806  0.3995
  164SOL    HW2  655   0.334   0.182   0.786  1.0043  0.0277 -1.5336
  164SOL     MW  656   0.301   0.237   0.848  0.2887 -0.3650 -0.0230
  165SOL     OW  657   1.397   1.187   0.381 -0.2441 -0.0074 -0.0800
  165SOL    HW1  658   1.343   1.135   0.442  0.6319  0.4507 -1.2389
  165SOL    HW2  659   1.484   1.155   0.390 -0.3223  0.9231  3.9385
  165SOL     MW  660   1.402   1.176   0.390 -0.1388  0.1758  0.2973
  166SOL     OW  661   0.513   1.045   0.958  0.2109  0.8381  0.5598
  166SOL    HW1  662   0.454   0.975   0.994  1.7400 -0.6770  0.6241
  166SOL    HW2  663   0.595   1.003   0.932  2.0792  0.3261 -0.5602
  166SOL     MW  664   0.516   1.030   0.959  0.6591  0.5706  0.4205
  167SOL     OW  665   0.954   1.182   0.357 -0.1896 -0.8559  0.1696
  167SOL    HW1  666   0.910   1.255   0.385  0.7537 -1.4234 -0.1555
  167SOL    HW2  667   0.969   1.196   0.261  3.6138  2.8115 -3.0278
  167SOL     MW  668   0.950   1.193   0.348  0.4367 -0.4469 -0.2952
  168SOL     OW  669   1.683   1.740   2.919 -0.0526 -0.0145  0.1096
  168SOL    HW1  670   1.638   1.824   2.944  0.9161  1.3612  2.7315
  168SOL    HW2  671   1.720   1.703   2.999 -1.5164 -0.2945 -1.1104
  168SOL     MW  672   1.682   1.746   2.933 -0.1180  0.1300  0.2946
  169SOL     OW  673   0.338   1.007   1.279  0.1092 -0.1641  0.3084
  169SOL    HW1  674   0.389   1.036   1.354 -3.4505  0.6873 -1.5382
  169SOL    HW2  675   0.266   1.072   1.274 -1.1025  1.7430  1.2911
  169SOL     MW  676   0.335   1.019   1.288 -0.5204  0.1998  0.1944
  170SOL     OW  677   1.022   1.470   1.536 -0.0796 -0.1820 -0.0441
  170SOL    HW1  678   0.972   1.553   1.529 -0.3319 -0.3615 -0.0822
  170SOL    HW2  679   1.054   1.472   1.448  0.1010  0.5429  3.6413
  170SOL     MW  680   1.020   1.482   1.524 -0.0890 -0.1101  0.4371
  171SOL     OW  681   0.572   1.363   0.690 -0.6099  0.2156  0.4580
  171SOL    HW1  682   0.574   1.374   0.789  0.3474  2.7817 -1.4492
  171SOL    HW2  683   0.593   1.269   0.683 -0.7178 -1.0380  0.4499
  171SOL     MW  684   0.575   1.352   0.702 -0.4979  0.3888  0.2053
  172SOL     OW  685   0.834   0.288   1.177  0.2552 -0.2743  0.5306
  172SOL    HW1  686   0.842   0.297   1.083  0.1442  0.5121  1.8108
  172SOL    HW2  687   0.760   0.342   1.195  0.8203 -0.6222  0.9839
  172SOL     MW  688   0.825   0.296   1.167  0.3151 -0.2165  0.7593
  173SOL     OW  689   0.381   1.635   0.361  0.7510 -0.6316  0.0029
  173SOL    HW1  690   0.399   1.542   0.346  0.6573  0.2181  0.6471
  173SOL    HW2  691   0.456   1.646   0.423  0.9928  1.2347  0.5773
  173SOL     MW  692   0.394   1.624   0.367  0.7706 -0.2732  0.1637
  174SOL     OW  693   2.045   0.923   1.473  0.2634  0.6157 -0.2364
  174SOL    HW1  694   1.994   0.850   1.520 -3.3767  0.8087  0.4366
  174SOL    HW2  695   1.984   0.982   1.435 -0.7599  1.0280 -0.1582
  174SOL     MW  696   2.030   0.921   1.474 -0.3519  0.6956 -0.1373
  175SOL     OW  697   0.376   1.366   0.395 -0.0540  0.0519 -0.2339
  175SOL    HW1  698   0.369   1.362   0.300  0.5423  1.2977  1.2240
  175SOL    HW2  699   0.440   1.305   0.422 -2.3627  2.3954  0.4250
  175SOL     MW  700   0.383   1.358   0.386 -0.2799  0.5255  0.0454
  176SOL     OW  701   0.207   1.253   1.241  0.5577 -0.4031  0.1729
  176SOL    HW1  702   0.141   1.266   1.172  0.7686 -2.0182  2.9745
  176SOL    HW2  703   0.177   1.290   1.321 -0.0259 -2.9367 -3.5241
  176SOL     MW  704   0.194   1.260   1.242  0.5085 -0.9504  0.0548
  177SOL     OW  705   0.611   0.432   1.282  0.4029  0.0130 -0.3573
  177SOL    HW1  706   0.562   0.489   1.220  0.6417 -1.4524  1.0849
  177SOL    HW2  707   0.594   0.476   1.365  0.2845 -0.2506 -0.2982
  177SOL     MW  708   0.602   0.446   1.285  0.4188 -0.2151 -0.1592
  178SOL     OW  709   0.007   0.435   3.045 -0.3299  0.2725 -0.0974
  178SOL    HW1  710  -0.038   0.492   3.112  0.2996 -1.2688 -0.9546
  178SOL    HW2  711  -0.023   0.464   2.963  0.2216 -1.5462  2.7234
  178SOL     MW  712  -0.003   0.446   3.043 -0.1741 -0.1708  0.1617
  179SOL     OW  713   1.632   1.326   1.480 -0.1937  0.3606  0.2814
  179SOL    HW1  714   1.625   1.337   1.578  2.4166 -1.8361  2.3793
  179SOL    HW2  715   1.732   1.334   1.462  0.0904 -1.2984 -1.6652
  179SOL     MW  716   1.644   1.328   1.491  0.1882 -0.1481  0.3013
  180SOL     OW  717   2.963   0.288   0.501  0.3659  0.3597  0.1217
  180SOL    HW1  718   2.917   0.310   0.422  1.1371 -1.5327  0.9525
  180SOL    HW2  719   3.018   0.367   0.517  0.6889 -1.6498 -2.9976
  180SOL     MW  720   2.964   0.302   0.493  0.5102 -0.1551 -0.1803
  181SOL     OW  721   1.136   1.352   3.046 -0.0802  0.0260 -0.1190
  181SOL    HW1  722   1.204   1.346   3.112 -2.4486  1.7493  0.1604
  181SOL    HW2  723   1.185   1.317   2.970  1.9492  1.5994 -0.1725
  181SOL     MW  724   1.152   1.347   3.044 -0.1249  0.4610 -0.0892
  182SOL     OW  725   0.445   0.879   1.723  0.2201 -0.8745  0.0219
  182SOL    HW1  726   0.363   0.832   1.718 -1.2508  2.9782  2.1491
  182SOL    HW2  727   0.502   0.821   1.766  0.8632  2.2427 -2.2403
  182SOL     MW  728   0.442   0.865   1.728  0.1109  0.0451  0.0041
  183SOL     OW  729   1.582   1.521   1.310 -0.3140 -0.1844 -0.2647
  183SOL    HW1  730   1.587   1.604   1.357  1.4874 -2.2890 -0.4961
  183SOL    HW2  731   1.581   1.457   1.390 -0.2518 -0.9436 -1.5485
  183SOL     MW  732   1.582   1.524   1.327 -0.0681 -0.5623 -0.4646
  184SOL     OW  733   0.829   0.463   1.931 -0.3614  0.3275  0.7201
  184SOL    HW1  734   0.887   0.537   1.923 -3.0089 -0.8471 -2.9454
  184SOL    HW2  735   0.841   0.431   2.018 -2.3676  0.5093 -2.1114
  184SOL     MW  736   0.838   0.468   1.942 -0.9754  0.1965 -0.1371
  185SOL     OW  737   1.099   0.942   1.971  0.6053 -0.8090 -0.4035
  185SOL    HW1  738   1.078   0.864   2.023  0.6326  0.4008 -1.0892
  185SOL    HW2  739   1.152   0.995   2.031  1.4325  0.9642  1.7682
  185SOL     MW  740   1.103   0.938   1.986  0.7180 -0.4154 -0.2074
  186SOL     OW  741   0.371   1.785   1.456 -0.1961 -0.0113 -0.4600
  186SOL    HW1  742   0.436   1.839   1.418  0.4051 -0.6855  2.2767
  186SOL    HW2  743   0.349   1.723   1.387 -3.7036 -3.2062  0.3534
  186SOL     MW  744   0.377   1.784   1.442 -0.5796 -0.5218  0.0084
  187SOL     OW  745   1.512   0.739   1.491 -0.0510 -0.1713  0.1264
  187SOL    HW1  746   1.465   0.751   1.572 -0.1249  1.5093  0.7233
  187SOL    HW2  747   1.464   0.693   1.426  1.5136  2.5154  0.5998
  187SOL     MW  748   1.499   0.735   1.493  0.1457  0.4049  0.2676
  188SOL     OW  749   1.913   1.067   0.698  0.3554  0.3877  0.0932
  188SOL    HW1  750   1.917   0.989   0.756 -2.0571  0.8743  1.5637
  188SOL    HW2  751   2.003   1.086   0.674 -1.6339  0.8596  0.7840
  188SOL     MW  752   1.925   1.059   0.703 -0.2254  0.5142  0.3783
  189SOL     OW  753   0.629   0.783   0.719 -0.1288  0.0895  0.5242
  189SOL    HW1  754   0.562   0.851   0.733  0.9794 -0.1218  0.4550
  189SOL    HW2  755   0.687   0.808   0.790  3.6350 -0.9303  2.1336
  189SOL     MW  756   0.628   0.796   0.730  0.5140 -0.0729  0.7274
  190SOL     OW  757   1.905   0.341   1.942 -1.2350 -0.0854  0.0144
  190SOL    HW1  758   1.966   0.283   1.892  1.0230  2.4938  2.4442
  190SOL    HW2  759   1.925   0.430   1.900  1.7473  1.2423  0.3751
  190SOL     MW  760   1.916   0.345   1.930 -0.5436  0.4301  0.3825
  191SOL     OW  761   1.631   0.985   1.505 -0.0128  0.1126 -0.6432
  191SOL    HW1  762   1.566   1.036   1.469  1.1214 -0.7572  1.4204
  191SOL    HW2  763   1.596   0.895   1.493  1.8234  0.7888 -2.5750
  191SOL     MW  764   1.618   0.980   1.498  0.3791  0.0871 -0.6258
  192SOL     OW  765   0.672   2.048   2.865  0.3738  0.0374  0.1394
  192SOL    HW1  766   0.631   2.077   2.781 -0.6072 -2.1851 -1.5885
  192SOL    HW2  767   0.665   1.951   2.861 -0.8560 -1.5421  0.0534
  192SOL     MW  768   0.666   2.039   2.854  0.0821 -0.4642 -0.0999
  193SOL     OW  769   0.986   1.552   0.747  0.2993 -0.3780  0.6108
  193SOL    HW1  770   0.954   1.562   0.835 -0.4415 -1.7710 -0.7464
  193SOL    HW2  771   0.939   1.478   0.703  0.8520 -2.8391 -0.1393
  193SOL     MW  772   0.976   1.544   0.753  0.2745 -0.8865  0.3328
  194SOL     OW  773   0.519   1.345   0.960 -0.0894  0.8954 -0.1880
  194SOL    HW1  774   0.512   1.249   0.958 -2.2718 -1.9738 -0.3383
  194SOL    HW2  775   0.431   1.381   0.951 -2.0672 -1.1818 -2.2565
  194SOL     MW  776   0.506   1.337   0.958 -0.6383  0.2428 -0.4807
  195SOL     OW  777   1.278   1.135   2.915  0.5419  0.4014 -0.2422
  195SOL    HW1  778   1.322   1.167   2.996  0.9599  0.8385 -1.6493
  195SOL    HW2  779   1.194   1.094   2.941  1.0969 -0.0175 -1.0282
  195SOL     MW  780   1.273   1.134   2.929  0.6703  0.4038 -0.5316
  196SOL     OW  781   2.184   1.076   0.583  0.5169  0.5789  0.4435
  196SOL    HW1  782   2.120   1.074   0.509 -0.3099  1.9239 -2.4619
  196SOL    HW2  783   2.201   1.169   0.606  3.3889 -0.0863 -0.0331
  196SOL     MW  784   2.178   1.088   0.576  0.7868  0.6686 -0.0027
  197SOL     OW  785   0.540   1.161   1.977 -0.3369  0.0227 -0.5894
  197SOL    HW1  786   0.570   1.066   1.977 -0.7210  1.4176  1.9223
  197SOL    HW2  787   0.522   1.186   1.888  0.8261 -1.4209  3.4739
  197SOL     MW  788   0.542   1.152   1.965 -0.2341  0.0163  0.2781
  198SOL     OW  789   2.909   1.434   1.101  0.4070  0.0143  0.1589
  198SOL    HW1  790   2.896   1.513   1.045  1.4311  1.8651  3.2369
  198SOL    HW2  791   2.853   1.365   1.073  2.4202 -0.9392  4.6586
  198SOL     MW  792   2.900   1.435   1.090  0.8077  0.1327  1.1587
  199SOL     OW  793   0.416   1.292   1.742  0.0027  0.1119 -0.5311
  199SOL    HW1  794   0.331   1.309   1.779  0.6473 -2.2220  1.2025
  199SOL    HW2  795   0.445   1.360   1.675  1.1778 -2.5824  3.0567
  199SOL     MW  796   0.409   1.303   1.738  0.2428 -0.5515  0.1710
  200SOL     OW  797   1.940   3.001   1.249 -0.0545 -0.2421  0.4278
  200SOL    HW1  798   1.940   2.991   1.155  0.1767 -1.0644 -0.5564
  200SOL    HW2  799   1.862   3.051   1.270  1.4697  0.1865  0.2463
  200SOL     MW  800   1.930   3.006   1.239  0.1771 -0.2940  0.2740
  201SOL     OW  801   1.041   0.302   0.743  0.1134 -0.2037  0.4043
  201SOL    HW1  802   1.088   0.221   0.733 -2.1212  1.7334  0.4338
  201SOL    HW2  803   1.028   0.338   0.660 -1.1383  0.7567  0.9242
  201SOL     MW  804   1.045   0.296   0.730 -0.3466  0.1786  0.4768
  202SOL     OW  805   1.533   1.596   1.004  0.6237  0.2487  0.1519
  202SOL    HW1  806   1.564   1.518   0.952 -0.1714  2.1224 -2.0309
  202SOL    HW2  807   1.553   1.584   1.099  0.6630 -3.1480  0.3493
  202SOL     MW  808   1.540   1.584   1.010  0.5240  0.0478 -0.1101
  203SOL     OW  809   2.961   0.446   1.182  0.1023  0.3705  1.0924
  203SOL    HW1  810   3.022   0.407   1.113  0.6692 -1.9915 -2.2795
  203SOL    HW2  811   3.023   0.499   1.228  5.3814  1.0240 -2.7530
  203SOL     MW  812   2.978   0.448   1.179  0.8736  0.1451  0.1401
  204SOL     OW  813   1.057   1.784   0.566 -0.1561  0.1707 -0.3474
  204SOL    HW1  814   1.032   1.725   0.637 -1.2288 -0.0923  1.2769
  204SOL    HW2  815   0.974   1.817   0.531 -0.1167  0.6958  0.8263
  204SOL     MW  816   1.043   1.780   0.571 -0.2924  0.2053  0.0218
  205SOL     OW  817   1.465   0.102   1.216  0.0925 -0.3737 -0.6232
  205SOL    HW1  818   1.422   0.087   1.129  0.0657 -3.1075 -0.6304
  205SOL    HW2  819   1.482   0.197   1.207 -0.9753 -0.5545  3.3540
  205SOL     MW  820   1.462   0.112   1.204 -0.0519 -0.7583 -0.0994
  206SOL     OW  821   0.445   3.060   1.352  0.8933  0.2989  0.3378
  206SOL    HW1  822   0.416   3.024   1.266  1.1410 -0.0638  2.3932
  206SOL    HW2  823   0.523   3.007   1.384  1.7201 -0.2316  0.3137
  206SOL     MW  824   0.452   3.048   1.345  1.0351  0.1810  0.6058
  207SOL     OW  825   0.984   1.589   0.248  0.5735  0.1943 -0.3123
  207SOL    HW1  826   1.006   1.681   0.219  0.9121 -2.3876  2.8247
  207SOL    HW2  827   1.062   1.538   0.257  1.6920  1.0621 -0.3499
  207SOL     MW  828   0.997   1.595   0.246  0.7657 -0.0319  0.0966
  208SOL     OW  829   0.597   1.593   1.314  0.0566 -0.4590  0.3617
  208SOL    HW1  830   0.684   1.586   1.342 -1.5514 -0.6864 -1.7779
  208SOL    HW2  831   0.572   1.500   1.287  0.9293 -0.7181  1.8533
  208SOL     MW  832   0.605   1.580   1.314 -0.0404 -0.5232  0.2762
  209SOL     OW  833   1.504   0.562   2.791 -0.2187 -0.1001  0.1950
  209SOL    HW1  834   1.571   0.632   2.787  1.2923 -2.7929  0.5082
  209SOL    HW2  835   1.557   0.479   2.773 -0.8253 -0.8616  0.1364
  209SOL     MW  836   1.520   0.561   2.788 -0.0993 -0.5558  0.2286
  210SOL     OW  837   1.607   1.371   0.863  0.4307 -0.8999 -0.2689
  210SOL    HW1  838   1.684   1.342   0.812  0.6740 -0.0033 -0.0064
  210SOL    HW2  839   1.537   1.345   0.802 -0.4097 -0.5768  1.6794
  210SOL     MW  840   1.608   1.364   0.848  0.3519 -0.7389  0.0228
  211SOL     OW  841   1.752   0.480   0.958 -0.2208  0.8980  0.1290
  211SOL    HW1  842   1.732   0.469   0.855  0.9957 -3.4174 -0.8393
  211SOL    HW2  843   1.844   0.511   0.958 -0.0076 -0.2684  1.1852
  211SOL     MW  844   1.762   0.482   0.944 -0.0322  0.1747  0.1406
  212SOL     OW  845   0.321   1.130   0.043  0.0318  0.0422  0.0300
  212SOL    HW1  846   0.279   1.097   0.126 -2.3784 -1.8696  1.2405
  212SOL    HW2  847   0.416   1.099   0.038  0.4955 -2.0342 -2.6260
  212SOL     MW  848   0.328   1.122   0.054 -0.2251 -0.4840 -0.1607
  213SOL     OW  849   0.530   1.688   3.074 -0.1853  0.9257 -0.4583
  213SOL    HW1  850   0.571   1.721   3.160 -1.2862 -0.6145 -1.1274
  213SOL    HW2  851   0.590   1.713   3.001  0.7173 -0.4162 -1.5155
  213SOL     MW  852   0.543   1.695   3.076 -0.2115  0.5454 -0.6861
  214SOL     OW  853   0.635   0.234   2.288 -0.7337 -0.1564  0.0580
  214SOL    HW1  854   0.575   0.292   2.232 -0.5924  0.0826 -2.5595
  214SOL    HW2  855   0.722   0.253   2.245  0.6455  2.5855 -0.8184
  214SOL     MW  856   0.639   0.244   2.275 -0.5331  0.2369 -0.4030
  215SOL     OW  857   0.468   0.683   2.622  0.1376  0.2717  0.0522
  215SOL    HW1  858   0.480   0.664   2.531  0.9038 -0.3686  0.9284
  215SOL    HW2  859   0.404   0.618   2.647  0.5229 -1.0375 -1.8734
  215SOL     MW  860   0.461   0.672   2.614  0.2895  0.0145 -0.0863
  216SOL     OW  861   3.040  -0.003   2.836  0.6176 -0.1054  0.4570
  216SOL    HW1  862   2.962   0.015   2.891 -0.1048  0.6720 -3.9496
  216SOL    HW2  863   3.033   0.079   2.781  0.3411  2.0164  0.4810
  216SOL     MW  864   3.029   0.010   2.836  0.4858  0.2771 -0.1212
  217SOL     OW  865   0.986   1.174   0.074 -0.1549 -0.3275  0.0941
  217SOL    HW1  866   1.009   1.108   0.008 -1.4933 -2.0977  1.1929
  217SOL    HW2  867   1.028   1.253   0.042 -0.1816  1.8776 -2.5811
  217SOL     MW  868   0.995   1.176   0.061 -0.3350 -0.2701 -0.1139
  218SOL     OW  869   0.922   1.308   2.502  0.0822  0.3084 -0.1051
  218SOL    HW1  870   0.986   1.256   2.465 -0.9650  0.1117  0.3404
  218SOL    HW2  871   0.980   1.387   2.525  2.1137  1.8606 -1.9688
  218SOL     MW  872   0.938   1.312   2.500  0.2120  0.4872 -0.2922
  219SOL     OW  873   1.026   0.375   2.611  0.0430 -0.2832 -1.4271
  219SOL    HW1  874   1.079   0.453   2.628  1.6211 -1.5981  1.7912
  219SOL    HW2  875   0.942   0.393   2.658 -0.9002  2.0200  1.3366
  219SOL     MW  876   1.022   0.388   2.619  0.1268 -0.1528 -0.6378
  220SOL     OW  877   1.719   0.553   2.181  0.1131  0.3421 -0.2348
  220SOL    HW1  878   1.625   0.584   2.174  2.5273 -5.0910 -1.4374
  220SOL    HW2  879   1.721   0.458   2.166  1.6862  1.8796  1.4756
  220SOL     MW  880   1.707   0.544   2.178  0.6392 -0.1719 -0.1678
  221SOL     OW  881   0.387   1.393   2.914 -0.2686  0.4034  0.3856
  221SOL    HW1  882   0.416   1.303   2.891  3.1205  2.9857 -1.3837
  221SOL    HW2  883   0.400   1.455   2.841  0.5687 -1.9145 -2.0944
  221SOL     MW  884   0.392   1.390   2.901  0.2891  0.4382 -0.1751
  222SOL     OW  885   0.375   0.954   2.706  0.8057 -0.7962 -1.1083
  222SOL    HW1  886   0.307   0.951   2.639  0.8474  1.7835  1.8015
  222SOL    HW2  887   0.430   0.877   2.697 -1.3369  2.0598 -2.4284
  222SOL     MW  888   0.373   0.943   2.696  0.5285 -0.0791 -0.8986
  223SOL     OW  889   3.048   2.023   2.663 -0.1664 -0.3541  0.3249
  223SOL    HW1  890   3.125   1.973   2.648  0.3430  0.1167 -1.0076
  223SOL    HW2  891   3.065   2.103   2.606 -0.9529  0.9957 -0.0306
  223SOL     MW  892   3.060   2.027   2.653 -0.2029 -0.1139  0.1022
  224SOL     OW  893   1.551   0.803   2.532 -0.3013 -0.0751  0.8728
  224SOL    HW1  894   1.484   0.777   2.588  2.2712 -0.2011 -1.2152
  224SOL    HW2  895   1.547   0.897   2.530 -0.1526 -0.7906  2.9494
  224SOL     MW  896   1.542   0.812   2.540  0.0577 -0.1861  0.8713
  225SOL     OW  897   2.989   1.523   2.265 -0.3026 -0.6992 -0.3393
  225SOL    HW1  898   3.036   1.577   2.195  0.1803  2.0831 -0.6263
  225SOL    HW2  899   2.940   1.583   2.320 -2.4550  1.2847 -1.2744
  225SOL     MW  900   2.989   1.538   2.263 -0.5229 -0.0704 -0.5006
  226SOL     OW  901   0.418   1.528   2.670  0.2421  0.6465 -0.0249
  226SOL    HW1  902   0.498   1.497   2.628 -1.8854  0.2277  1.5257
  226SOL    HW2  903   0.430   1.619   2.660 -1.9401 -0.2002 -0.3586
  226SOL     MW  904   0.430   1.536   2.663 -0.3266  0.4795  0.1357
  227SOL     OW  905   0.503   1.163   2.802 -1.4162 -0.0233 -0.2798
  227SOL    HW1  906   0.571   1.198   2.747  1.0025 -0.7580  2.1890
  227SOL    HW2  907   0.455   1.105   2.745 -0.0903  4.1453  1.9105
  227SOL     MW  908   0.506   1.160   2.787 -0.9221  0.4297  0.3349
  228SOL     OW  909   0.670   0.926   1.984  0.1749  0.3278  0.0482
  228SOL    HW1  910   0.753   0.959   2.012 -1.6357 -1.0583 -2.1274
  228SOL    HW2  911   0.633   0.883   2.068  1.0259  0.7755  0.4311
  228SOL     MW  912   0.676   0.925   1.999  0.0483  0.2040 -0.1884
  229SOL     OW  913   0.260   0.503   3.064  0.1604 -0.5620 -0.0685
  229SOL    HW1  914   0.156   0.482   3.056 -0.7708 -1.3406 -1.0534
  229SOL    HW2  915   0.280   0.471   3.154 -1.9535 -0.2381  2.0305
  229SOL     MW  916   0.249   0.496   3.075 -0.2414 -0.6220  0.0785
  230SOL     OW  917   1.701   1.398   2.105 -0.2198 -0.1336 -0.2383
  230SOL    HW1  918   1.663   1.413   2.188  0.0241 -2.1735  1.3931
  230SOL    HW2  919   1.745   1.308   2.101  0.1960 -0.8132 -1.6149
  230SOL     MW  920   1.702   1.388   2.116 -0.1328 -0.4924 -0.2046
  231SOL     OW  921   2.838   1.318   2.197  0.1837 -0.0933 -0.0219
  231SOL    HW1  922   2.902   1.380   2.226 -0.0315 -0.9628 -0.5212
  231SOL    HW2  923   2.780   1.386   2.157 -5.0521  0.8922 -1.5937
  231SOL     MW  924   2.839   1.335   2.196 -0.5355 -0.0780 -0.2952
  232SOL     OW  925   2.275   1.035   2.127  0.3415  0.2928 -0.5948
  232SOL    HW1  926   2.219   1.048   2.059 -0.4907 -0.1126  0.6971
  232SOL    HW2  927   2.241   0.947   2.156  1.5798 -1.6102 -1.4313
  232SOL     MW  928   2.263   1.025   2.122  0.3951 -0.0118 -0.5347
  233SOL     OW  929   2.027   0.598   1.881 -0.0761 -0.2886  0.2419
  233SOL    HW1  930   2.083   0.628   1.808 -0.8542  3.6224 -1.6233
  233SOL    HW2  931   2.093   0.582   1.948  1.9643  0.3359 -2.6913
  233SOL     MW  932   2.043   0.600   1.880  0.0904  0.3098 -0.3912
  234SOL     OW  933   0.212   0.946   2.493 -0.0653  0.2088  0.1985
  234SOL    HW1  934   0.118   0.929   2.479  0.2065 -1.7176 -0.8927
  234SOL    HW2  935   0.230   1.044   2.480  2.9138  2.1697  0.7028
  234SOL     MW  936   0.202   0.957   2.489  0.3636  0.2133  0.1211
  235SOL     OW  937   0.986   3.048   2.783 -0.1859  0.1391  0.2489
  235SOL    HW1  938   0.995   2.983   2.853 -1.1554 -0.8827 -0.2714
  235SOL    HW2  939   0.985   3.136   2.827 -0.1767  0.0451  1.3004
  235SOL     MW  940   0.987   3.051   2.798 -0.3126 -0.0081  0.3190
  236SOL     OW  941   2.939   0.570   0.125  0.4035 -0.3972  0.1318
  236SOL    HW1  942   2.866   0.584   0.060 -0.2242  1.6896 -2.7383
  236SOL    HW2  943   2.963   0.643   0.168 -0.4151 -2.7283 -1.1549
  236SOL     MW  944   2.932   0.581   0.122  0.2127 -0.4294 -0.4167
  237SOL     OW  945   1.772   0.930   2.186 -0.5225 -0.5643  0.1716
  237SOL    HW1  946   1.802   1.017   2.149  0.0319 -1.3821  1.4263
  237SOL    HW2  947   1.807   0.915   2.271 -0.1529 -0.5610 -0.1287
  237SOL     MW  948   1.780   0.940   2.192 -0.4006 -0.6718  0.2975
  238SOL     OW  949   1.033   1.774   2.958  0.0856 -0.1002  0.1668
  238SOL    HW1  950   0.991   1.690   2.946 -1.0405 -0.9615  0.8191
  238SOL    HW2  951   1.126   1.761   2.951 -1.0903  1.0477  0.3811
  238SOL     MW  952   1.039   1.761   2.955 -0.2181 -0.0624  0.2811
  239SOL     OW  953   1.288   1.442   2.361 -0.0726 -0.1574  0.0594
  239SOL    HW1  954   1.256   1.454   2.449 -1.4044 -0.1654  0.7994
  239SOL    HW2  955   1.386   1.431   2.365 -0.3173  1.3395 -3.1751
  239SOL     MW  956   1.297   1.442   2.373 -0.2806  0.0390 -0.2697
  240SOL     OW  957   0.588   0.825   2.228 -0.4513  0.3395  0.2453
  240SOL    HW1  958   0.572   0.905   2.278  0.0654  0.2073 -0.4432
  240SOL    HW2  959   0.673   0.789   2.261  1.1250  0.1513  0.1951
  240SOL     MW  960   0.597   0.831   2.239 -0.1752  0.2972  0.1479
  241SOL     OW  961   0.656   0.328   3.019 -0.2577  0.1381 -0.0177
  241SOL    HW1  962   0.610   0.327   3.105 -1.2923  1.9290  1.6636
  241SOL    HW2  963   0.592   0.370   2.958  0.4911  0.4800 -2.9610
  241SOL     MW  964   0.642   0.334   3.022 -0.2954  0.4195 -0.1842
  242SOL     OW  965   1.453   1.734   2.269 -0.2777 -0.9900  0.2190
  242SOL    HW1  966   1.403   1.810   2.308 -0.2103 -1.4864  0.9734
  242SOL    HW2  967   1.383   1.681   2.238  0.3505 -0.1446 -1.2241
  242SOL     MW  968   1.437   1.737   2.270 -0.1860 -0.9440  0.1281
  243SOL     OW  969   1.067   0.223   2.374  0.0356 -0.4166  0.0588
  243SOL    HW1  970   1.149   0.188   2.343 -1.8604  0.5982 -1.0878
  243SOL    HW2  971   1.085   0.270   2.456 -2.0102 -0.6770  2.7753
  243SOL     MW  972   1.080   0.225   2.381 -0.4844 -0.3171  0.2659
  244SOL     OW  973   0.215   0.752   2.308  0.6392 -0.0404  0.0805
  244SOL    HW1  974   0.235   0.829   2.359 -0.2880  0.9583  1.6683
  244SOL    HW2  975   0.301   0.702   2.317 -0.6616  1.5284 -1.2026
  244SOL     MW  976   0.229   0.756   2.316  0.3453  0.2983  0.1207
  245SOL     OW  977   1.344   0.138   2.313  0.1290  0.0105  0.1167
  245SOL    HW1  978   1.307   0.051   2.305  1.4804  0.1144  2.0996
  245SOL    HW2  979   1.433   0.123   2.337  0.7261 -0.4135  0.5512
  245SOL     MW  980   1.351   0.125   2.315  0.3861 -0.0318  0.4356
  246SOL     OW  981   1.152   1.139   2.171 -0.5078  0.3103  0.2523
  246SOL    HW1  982   1.088   1.094   2.228  2.7159  0.2668 -2.0315
  246SOL    HW2  983   1.236   1.152   2.219  0.4122 -0.1980 -0.1990
  246SOL     MW  984   1.155   1.135   2.185  0.0389  0.2375 -0.1086
  247SOL     OW  985   0.617   0.572   0.126  0.4618  0.3734 -0.1376
  247SOL    HW1  986   0.582   0.651   0.090  0.0712  1.9859  4.5989
  247SOL    HW2  987   0.708   0.567   0.104  0.0192 -1.6269 -2.9408
  247SOL     MW  988   0.624   0.581   0.118  0.3519  0.3222  0.1175
  248SOL     OW  989   0.330   1.213   2.400  0.8408 -0.2176  0.1214
  248SOL    HW1  990   0.359   1.267   2.326  0.6849  1.1984  3.2058
  248SOL    HW2  991   0.315   1.263   2.475  0.2837 -1.4253  0.2485
  248SOL     MW  992   0.332   1.227   2.400  0.7467 -0.1901  0.5451
  249SOL     OW  993   0.150   1.837   2.706 -0.7403 -0.2319 -0.0596
  249SOL    HW1  994   0.087   1.761   2.679 -2.3586 -0.1437 -1.8637
  249SOL    HW2  995   0.153   1.826   2.802  1.4691  0.4211  1.6876
  249SOL     MW  996   0.142   1.826   2.715 -0.6623 -0.1341 -0.0671
  250SOL     OW  997   2.181   0.850   2.307  0.5433  0.2893 -0.0765
  250SOL    HW1  998   2.235   0.771   2.315 -1.1805  0.4597 -1.3317
  250SOL    HW2  999   2.219   0.903   2.384  0.0780  0.4567 -0.1841
  250SOL     MW 1000   2.193   0.847   2.318  0.2545  0.3338 -0.2563
  251SOL     OW 1001   0.074   0.809   2.093  0.2357  0.1409 -0.0577
  251SOL    HW1 1002   0.130   0.792   2.173 -3.0894  1.6606  0.9243
  251SOL    HW2 1003   0.038   0.721   2.063  6.2192 -0.5781  0.5594
  251SOL     MW 1004   0.077   0.795   2.100  0.5864  0.2466  0.1533
  252SOL     OW 1005   1.704   1.002   2.795  0.1324  0.1342 -0.4773
  252SOL    HW1 1006   1.686   1.015   2.888 -0.3459  0.7815 -1.3465
  252SOL    HW2 1007   1.779   1.055   2.771  0.0950 -2.1965  0.6602
  252SOL     MW 1008   1.711   1.010   2.804  0.0644 -0.0879 -0.4419
  253SOL     OW 1009   1.152   1.735   2.541 -0.0646  0.0065  0.5600
  253SOL    HW1 1010   1.170   1.761   2.450 -1.1864  0.1129  1.2385
  253SOL    HW2 1011   1.062   1.780   2.553 -0.1105  1.4288 -0.5542
  253SOL     MW 1012   1.142   1.745   2.530 -0.2186  0.2082  0.5025
  254SOL     OW 1013   0.969   1.040   2.344 -0.1579  0.8432 -0.0219
  254SOL    HW1 1014   0.966   0.950   2.306 -2.1390 -0.3309 -4.1895
  254SOL    HW2 1015   0.887   1.087   2.321  0.7772  0.2910  0.6969
  254SOL     MW 1016   0.958   1.034   2.336 -0.2959  0.6154 -0.4770
  255SOL     OW 1017   0.712   2.273   2.321 -0.2636  0.7330 -0.3690
  255SOL    HW1 1018   0.619   2.283   2.323  0.9268 -0.3194 -2.0716
  255SOL    HW2 1019   0.736   2.312   2.401  1.7437  0.7288 -1.6419
  255SOL     MW 1020   0.703   2.279   2.332  0.1583  0.5936 -0.7616
  256SOL     OW 1021   1.210   2.858   2.978 -0.1180  0.2198 -0.1695
  256SOL    HW1 1022   1.256   2.775   2.966  0.5046 -0.4422 -0.6870
  256SOL    HW2 1023   1.251   2.924   2.917 -1.3270  0.8139 -0.3657
  256SOL     MW 1024   1.221   2.856   2.969 -0.1953  0.2108 -0.2637
  257SOL     OW 1025   0.141   1.861   0.014 -0.2703 -0.3562 -0.3408
  257SOL    HW1 1026   0.135   1.829   0.101  0.9630 -1.2910  2.5881
  257SOL    HW2 1027   0.170   1.787  -0.037 -0.4627  1.4981 -0.7982
  257SOL     MW 1028   0.144   1.847   0.019 -0.1329 -0.2349 -0.0147
  258SOL     OW 1029   0.548   1.050   2.364 -0.4685 -0.2317  0.6767
  258SOL    HW1 1030   0.591   1.106   2.300 -1.4543 -0.4441  0.8780
  258SOL    HW2 1031   0.468   1.106   2.387 -2.1654 -2.1665  0.1235
  258SOL     MW 1032   0.543   1.065   2.359 -0.8225 -0.5150  0.6303
  259SOL     OW 1033   0.606   0.380   2.530  0.2225 -0.2907  0.3624
  259SOL    HW1 1034   0.524   0.361   2.586 -4.6916  0.8703  1.4408
  259SOL    HW2 1035   0.597   0.320   2.454 -0.6227 -0.6524 -0.7556
  259SOL     MW 1036   0.594   0.369   2.527 -0.5374 -0.1852  0.3572
  260SOL     OW 1037   0.595   0.160   1.607  0.0109  0.0693 -0.1743
  260SOL    HW1 1038   0.533   0.224   1.560 -1.9058 -0.0878  2.9556
  260SOL    HW2 1039   0.676   0.163   1.556  1.3043 -2.2965 -2.1596
  260SOL     MW 1040   0.597   0.169   1.594 -0.0714 -0.2636 -0.0233
  261SOL     OW 1041   1.042   0.658   2.090 -0.3771  0.1490  0.0182
  261SOL    HW1 1042   1.080   0.649   2.183  1.8546  0.5326  0.5312
  261SOL    HW2 1043   1.110   0.625   2.028  1.0592 -1.0470  1.3582
  261SOL     MW 1044   1.056   0.653   2.094  0.1068  0.0418  0.2627
  262SOL     OW 1045   1.155   0.401   0.129 -0.1657 -0.0195  0.3154
  262SOL    HW1 1046   1.203   0.326   0.159 -1.8037 -1.5746 -0.6774
  262SOL    HW2 1047   1.217   0.453   0.074  1.3643  1.4252 -0.0197
  262SOL     MW 1048   1.170   0.398   0.126 -0.1800 -0.0341  0.1402
  263SOL     OW 1049   0.410   3.018   2.456 -0.1730 -1.0525  0.4487
  263SOL    HW1 1050   0.366   3.099   2.432 -0.8457 -0.5577  0.4804
  263SOL    HW2 1051   0.476   3.007   2.389 -0.3575 -0.3778  3.2174
  263SOL     MW 1052   0.413   3.027   2.444 -0.2861 -0.8982  0.8182
  264SOL     OW 1053   1.442   1.343   1.984  0.4289 -0.2955  0.1522
  264SOL    HW1 1054   1.370   1.394   2.017  2.2448 -0.9961 -0.4828
  264SOL    HW2 1055   1.528   1.357   2.026  2.6819 -2.6816 -0.3125
  264SOL     MW 1056   1.444   1.352   1.994  0.9658 -0.7028  0.0071
  265SOL     OW 1057   0.756   2.752   2.204 -0.0236  0.5426  0.0807
  265SOL    HW1 1058   0.745   2.660   2.167 -0.0743 -0.3753  0.7603
  265SOL    HW2 1059   0.722   2.741   2.295 -3.7982  0.3458  0.0754
  265SOL     MW 1060   0.750   2.739   2.211 -0.5283  0.3955  0.1697
  266SOL     OW 1061   0.862   0.783   2.275  0.9411 -0.0783  0.4619
  266SOL    HW1 1062   0.929   0.750   2.220 -1.5829  0.7124  1.7326
  266SOL    HW2 1063   0.844   0.704   2.330 -1.2559  0.1558  2.5101
  266SOL     MW 1064   0.868   0.768   2.275  0.3182  0.0569  0.8998
  267SOL     OW 1065   1.376   1.792   2.696 -0.0964  0.7647 -0.1216
  267SOL    HW1 1066   1.445   1.752   2.641  3.1050 -3.3720  0.8943
  267SOL    HW2 1067   1.301   1.770   2.647 -1.3674  1.2768  2.5200
  267SOL     MW 1068   1.375   1.783   2.682  0.1583  0.2865  0.3610
  268SOL     OW 1069   0.203   0.771   1.679 -0.3178  0.3247 -0.2242
  268SOL    HW1 1070   0.135   0.826   1.631 -2.4110 -0.4081 -2.2248
  268SOL    HW2 1071   0.211   0.693   1.619 -1.9281 -2.4739 -2.5212
  268SOL     MW 1072   0.195   0.768   1.665 -0.8064 -0.1413 -0.7913
  269SOL     OW 1073   1.350   1.951   2.456  0.4284 -0.0938 -0.1757
  269SOL    HW1 1074   1.374   1.923   2.543  1.2113 -0.0503 -1.1750
  269SOL    HW2 1075   1.277   2.011   2.475  2.0045  0.9837  0.2936
  269SOL     MW 1076   1.343   1.955   2.470  0.7397  0.0541 -0.2457
  270SOL     OW 1077   1.197   0.478   1.650  0.1898  0.3025  0.1017
  270SOL    HW1 1078   1.169   0.397   1.686  1.1844  0.9866  1.2912
  270SOL    HW2 1079   1.291   0.471   1.611 -1.2973  0.6081 -0.5841
  270SOL     MW 1080   1.206   0.467   1.650  0.1248  0.4331  0.1682
  271SOL     OW 1081   0.917   0.014   2.492 -0.3054 -0.0186 -1.0286
  271SOL    HW1 1082   0.959  -0.003   2.572  1.7806 -2.3341 -4.5774
  271SOL    HW2 1083   0.964   0.093   2.455 -0.9421  0.0861  1.5267
  271SOL     MW 1084   0.929   0.022   2.498 -0.1142 -0.3103 -1.1597
  272SOL     OW 1085   1.353   2.984   2.776 -0.1638  0.5789 -0.6410
  272SOL    HW1 1086   1.294   3.033   2.714  0.0014 -1.3213  4.1492
  272SOL    HW2 1087   1.400   3.049   2.837 -0.5073 -1.2984  0.6795
  272SOL     MW 1088   1.352   2.999   2.776 -0.1873  0.0805  0.1653
  273SOL     OW 1089   1.423   0.925   2.808  0.1925  0.3048 -0.4700
  273SOL    HW1 1090   1.512   0.960   2.808  1.2961 -1.6001 -0.9328
  273SOL    HW2 1091   1.369   1.007   2.831 -0.3945 -1.8642 -2.6764
  273SOL     MW 1092   1.428   0.941   2.811  0.2606 -0.2327 -0.8222
  274SOL     OW 1093   1.352   0.718   0.122  0.2282  0.0068  0.0458
  274SOL    HW1 1094   1.394   0.638   0.141 -2.5734  0.9768 -0.6144
  274SOL    HW2 1095   1.260   0.723   0.161  0.3208  1.6693 -0.2416
  274SOL     MW 1096   1.345   0.708   0.130 -0.1293  0.3541 -0.0792
  275SOL     OW 1097   1.673   0.611   1.768  0.2110  0.1349 -0.0554
  275SOL    HW1 1098   1.725   0.650   1.842  1.6125 -0.0666 -0.1250
  275SOL    HW2 1099   1.680   0.509   1.773 -0.6076 -0.3973  4.4410
  275SOL     MW 1100   1.681   0.603   1.778  0.2879  0.0381  0.5287
  276SOL     OW 1101   0.144   1.182   1.829  0.4416 -0.0111 -0.0012
  276SOL    HW1 1102   0.201   1.111   1.872 -1.4668 -0.9438  1.0135
  276SOL    HW2 1103   0.063   1.124   1.813  0.7106 -0.3838 -0.7443
  276SOL     MW 1104   0.141   1.165   1.832  0.2253 -0.1834  0.0346
  277SOL     OW 1105   1.905   1.359   2.716 -0.0374  0.3373  0.1869
  277SOL    HW1 1106   1.930   1.443   2.690 -1.4046 -1.6001  2.0424
  277SOL    HW2 1107   1.955   1.306   2.660 -2.0300  2.0784  2.1633
  277SOL     MW 1108   1.915   1.363   2.705 -0.4807  0.3114  0.6925
  278SOL     OW 1109   1.399   0.722   1.760  0.5034  0.4947 -0.0602
  278SOL    HW1 1110   1.349   0.655   1.813  3.4012 -2.2591  0.8125
  278SOL    HW2 1111   1.488   0.678   1.763 -0.9374  1.6135  2.4517
  278SOL     MW 1112   1.404   0.707   1.767  0.6957  0.2790  0.3864
  279SOL     OW 1113   0.603   3.027   2.259 -0.4767 -0.1430  0.1307
  279SOL    HW1 1114   0.698   3.016   2.246 -0.7988 -3.9561  1.9734
  279SOL    HW2 1115   0.594   3.126   2.247  3.6958  1.2623 -0.7543
  279SOL     MW 1116   0.615   3.039   2.256  0.0313 -0.4607  0.2571
  280SOL     OW 1117   1.422   1.152   2.286  0.4166  0.4399 -1.0520
  280SOL    HW1 1118   1.454   1.074   2.246 -2.0844  1.5906 -1.6020
  280SOL    HW2 1119   1.429   1.132   2.381 -0.7682 -0.4924 -0.4193
  280SOL     MW 1120   1.427   1.139   2.294 -0.0697  0.4687 -1.0411
  281SOL     OW 1121   1.323   1.355   2.724  0.0990  0.0635  1.0222
  281SOL    HW1 1122   1.403   1.392   2.762  1.7010  0.8879 -0.8736
  281SOL    HW2 1123   1.310   1.265   2.756 -1.2091 -1.8825  0.5646
  281SOL     MW 1124   1.332   1.348   2.733  0.1378 -0.0845  0.7117
  282SOL     OW 1125   1.160   1.329   1.730 -0.0753 -0.0753 -0.3566
  282SOL    HW1 1126   1.116   1.379   1.667  1.0755  1.7411  2.3436
  282SOL    HW2 1127   1.102   1.258   1.766  0.9791  0.7719  2.2211
  282SOL     MW 1128   1.147   1.326   1.727  0.2157  0.2761  0.3397
  283SOL     OW 1129   0.714   1.208   0.083 -0.4208 -0.3604 -0.0353
  283SOL    HW1 1130   0.814   1.201   0.072  2.2267 -0.4293  1.3702
  283SOL    HW2 1131   0.685   1.299   0.067  2.4608 -0.2014  1.1605
  283SOL     MW 1132   0.723   1.219   0.079  0.3087 -0.3485  0.3079
  284SOL     OW 1133   0.470   0.634   2.355 -0.4839 -0.3793  0.3124
  284SOL    HW1 1134   0.521   0.702   2.301  1.5836 -0.9727  1.8399
  284SOL    HW2 1135   0.465   0.567   2.289 -0.1354 -0.9096  3.1757
  284SOL     MW 1136   0.476   0.634   2.339 -0.1651 -0.5276  0.8917
  285SOL     OW 1137   0.841   0.931   2.790 -0.0169 -0.7887 -0.2218
  285SOL    HW1 1138   0.800   0.943   2.703  1.1863  2.2449  0.4273
  285SOL    HW2 1139   0.802   0.852   2.825  4.0142  2.7060 -1.6711
  285SOL     MW 1140   0.831   0.923   2.783  0.6737  0.0726 -0.3274
  286SOL     OW 1141   1.127   1.471   2.577  0.1823 -0.0485 -0.3267
  286SOL    HW1 1142   1.195   1.428   2.640  0.6823  1.3754  2.1212
  286SOL    HW2 1143   1.118   1.571   2.600 -0.0149 -1.1618  0.0187
  286SOL     MW 1144   1.135   1.478   2.588  0.2222 -0.0075  0.0418
  287SOL     OW 1145   1.097   0.942   0.386  0.2347  0.4001 -0.0938
  287SOL    HW1 1146   1.184   0.956   0.425 -1.4473 -0.6070  1.3310
  287SOL    HW2 1147   1.051   1.029   0.369  1.0343 -0.5404 -0.3237
  287SOL     MW 1148   1.102   0.955   0.389  0.1182  0.1431  0.0639
  288SOL     OW 1149   1.474   0.635   2.127  0.2774  0.4192  0.3513
  288SOL    HW1 1150   1.438   0.631   2.221 -1.9911  0.8137  0.4467
  288SOL    HW2 1151   1.462   0.727   2.096 -1.9048  1.5138  1.4777
  288SOL     MW 1152   1.468   0.646   2.135 -0.3099  0.6157  0.5125
  289SOL     OW 1153   0.763   0.952   2.538  0.9675  0.8330 -0.1851
  289SOL    HW1 1154   0.838   0.976   2.482  4.9768 -1.5076 -1.4684
  289SOL    HW2 1155   0.694   1.013   2.508 -3.9750  2.2763 -1.3504
  289SOL     MW 1156   0.764   0.963   2.526  0.8444  0.7146 -0.5081
  290SOL     OW 1157   0.857   0.685   1.566 -0.2330  0.5688 -0.0945
  290SOL    HW1 1158   0.873   0.598   1.526 -0.4067 -0.0576 -1.4607
  290SOL    HW2 1159   0.902   0.688   1.651 -1.0853  2.3677  0.3120
  290SOL     MW 1160   0.865   0.674   1.572 -0.3684  0.7235 -0.2211
  291SOL     OW 1161   0.264   0.364   0.226 -0.0785  0.1208 -0.1169
  291SOL    HW1 1162   0.360   0.341   0.213 -1.1893  2.4274  1.0366
  291SOL    HW2 1163   0.216   0.295   0.184  1.6419  0.4530  0.0844
  291SOL     MW 1164   0.271   0.352   0.219  0.0019  0.4690  0.0619
  292SOL     OW 1165   0.913   0.536   0.082  0.1830  0.2185  0.4143
  292SOL    HW1 1166   0.957   0.610   0.126 -1.3922  0.0424  1.0823
  292SOL    HW2 1167   0.968   0.461   0.107 -1.2229  1.3273 -0.4279
  292SOL     MW 1168   0.926   0.536   0.091 -0.2104  0.3416  0.3913
  293SOL     OW 1169   0.229   0.112   2.432  0.1197 -0.2035 -0.5705
  293SOL    HW1 1170   0.144   0.076   2.396 -1.2065  2.1207 -1.2572
  293SOL    HW2 1171   0.211   0.195   2.468 -0.3447 -0.8527  2.5453
  293SOL     MW 1172   0.215   0.118   2.432 -0.1165  0.0175 -0.2500
  294SOL     OW 1173   1.430   0.596   2.400  0.6006  0.2717  0.5396
  294SOL    HW1 1174   1.478   0.669   2.443 -0.8172  0.7245  0.3546
  294SOL    HW2 1175   1.487   0.523   2.437 -1.8155 -0.4473 -1.2327
  294SOL     MW 1176   1.444   0.596   2.411  0.0947  0.2366  0.2813
  295SOL     OW 1177   0.812   0.587   2.439 -0.1060 -0.1486  0.3805
  295SOL    HW1 1178   0.729   0.542   2.437  0.6225  2.5416  1.4061
  295SOL    HW2 1179   0.804   0.655   2.507 -2.6325 -3.4496 -2.5626
  295SOL     MW 1180   0.800   0.590   2.448 -0.3432 -0.2292  0.1275
  296SOL     OW 1181   1.271   0.277   2.043 -0.0348 -0.0634  0.1035
  296SOL    HW1 1182   1.365   0.262   2.023 -1.1769  4.2325 -2.0762
  296SOL    HW2 1183   1.262   0.241   2.128 -2.2787 -0.3262 -1.6824
  296SOL     MW 1184   1.282   0.270   2.052 -0.4815  0.4687 -0.4197
  297SOL     OW 1185   1.447   0.442   1.543 -0.2287  0.2193 -0.2781
  297SOL    HW1 1186   1.529   0.493   1.542 -2.2868  1.2106 -1.2236
  297SOL    HW2 1187   1.483   0.348   1.555 -0.4517  1.3471  0.1900
  297SOL     MW 1188   1.462   0.436   1.545 -0.5297  0.4989 -0.3411
  298SOL     OW 1189   1.500   0.955   2.109  0.3964  0.5335 -0.1406
  298SOL    HW1 1190   1.494   0.982   2.016 -0.1817  0.2689 -0.1586
  298SOL    HW2 1191   1.591   0.935   2.124  0.9418 -0.8744 -0.7592
  298SOL     MW 1192   1.511   0.956   2.098  0.3921  0.3128 -0.2246
  299SOL     OW 1193   0.580   1.002   3.038 -0.7081 -0.4298 -0.7550
  299SOL    HW1 1194   0.641   1.074   3.055  1.0310  2.9771 -3.1265
  299SOL    HW2 1195   0.535   1.037   2.959 -1.5063 -2.0845  3.5894
  299SOL     MW 1196   0.582   1.016   3.030 -0.5839 -0.1986 -0.4947
  300SOL     OW 1197   1.192   1.036   2.551 -0.2010  0.1872  0.0403
  300SOL    HW1 1198   1.146   1.058   2.465 -3.2850 -0.7181 -0.1922
  300SOL    HW2 1199   1.138   0.963   2.570  1.9278  0.1453  1.7918
  300SOL     MW 1200   1.179   1.029   2.542 -0.3270  0.0622  0.2407
  301SOL     OW 1201   1.374   0.722   0.526 -0.2067 -0.3985 -0.1321
  301SOL    HW1 1202   1.388   0.686   0.616  1.4404  0.8778  2.0004
  301SOL    HW2 1203   1.294   0.665   0.498  1.0417  1.5260 -0.5038
  301SOL     MW 1204   1.365   0.709   0.534  0.1753  0.0238  0.1003
  302SOL     OW 1205   0.125   1.462   2.003  0.4385  0.7304 -0.8136
  302SOL    HW1 1206   0.111   1.417   2.087 -1.0419  0.7087 -0.4901
  302SOL    HW2 1207   0.072   1.545   2.006 -0.9703  0.8667 -1.6788
  302SOL     MW 1208   0.116   1.467   2.014  0.0573  0.7455 -0.8851
  303SOL     OW 1209   0.463   1.805   2.664 -0.2580  0.0308  0.1603
  303SOL    HW1 1210   0.478   1.860   2.581 -0.6912  4.5996  0.7406
  303SOL    HW2 1211   0.375   1.812   2.704 -0.8300  1.0336  0.7289
  303SOL     MW 1212   0.453   1.813   2.658 -0.3906  0.7659  0.3119
  304SOL     OW 1213   0.495   1.951   2.430  0.5535 -0.2141 -0.2875
  304SOL    HW1 1214   0.506   2.040   2.394  0.0907 -0.4929 -1.8564
  304SOL    HW2 1215   0.560   1.903   2.384  0.1032  3.6332 -0.6250
  304SOL     MW 1216   0.505   1.956   2.419  0.4330  0.2567 -0.5390
  305SOL     OW 1217   1.177   0.556   0.462  0.3232 -0.4295 -0.1526
  305SOL    HW1 1218   1.089   0.541   0.482 -0.5696 -1.4140  1.8423
  305SOL    HW2 1219   1.230   0.474   0.468  0.6284  0.7476  1.3088
  305SOL     MW 1220   1.172   0.544   0.465  0.2457 -0.4041  0.3034
  306SOL     OW 1221   1.223   1.448   0.267 -0.3256 -0.4086  0.1541
  306SOL    HW1 1222   1.276   1.391   0.318 -1.2786 -2.9709 -0.4206
  306SOL    HW2 1223   1.287   1.476   0.194 -1.2903 -0.8106  0.2405
  306SOL     MW 1224   1.238   1.444   0.264 -0.5786 -0.7997  0.0897
  307SOL     OW 1225   1.303   0.533   1.942  0.6567  0.0607  0.4334
  307SOL    HW1 1226   1.268   0.454   1.985 -2.4822 -0.9950 -1.0285
  307SOL    HW2 1227   1.370   0.560   2.004  1.7278  0.2078  0.1721
  307SOL     MW 1228   1.307   0.526   1.956  0.3839 -0.0592  0.2061
  308SOL     OW 1229   2.112   0.563   2.754  0.5528  0.0566  0.0165
  308SOL    HW1 1230   2.079   0.463   2.765  1.5348 -1.1811  2.1610
  308SOL    HW2 1231   2.210   0.549   2.742  1.7298  0.4514  0.5640
  308SOL     MW 1232   2.121   0.548   2.754  0.8376 -0.0546  0.3717
  309SOL     OW 1233   0.537   0.493   0.371  0.2232  0.0252 -0.1908
  309SOL    HW1 1234   0.607   0.428   0.396 -0.0604  0.4779  0.0583
  309SOL    HW2 1235   0.545   0.515   0.279 -1.6297 -0.2926  1.2493
  309SOL     MW 1236   0.547   0.487   0.362 -0.0587  0.0430  0.0320
  310SOL     OW 1237   0.402   0.516   1.899 -0.1075  0.3391  0.0702
  310SOL    HW1 1238   0.459   0.449   1.864 -1.6490 -3.5172 -0.7106
  310SOL    HW2 1239   0.438   0.599   1.882 -0.6802 -0.6787  0.0779
  310SOL     MW 1240   0.414   0.518   1.892 -0.3864 -0.3039 -0.0318
  311SOL     OW 1241   1.834   0.799   1.926 -0.5122 -0.7814  0.1443
  311SOL    HW1 1242   1.797   0.813   2.013 -1.1919 -0.8848 -0.4152
  311SOL    HW2 1243   1.895   0.734   1.927 -1.1367  0.1555  1.7391
  311SOL     MW 1244   1.837   0.792   1.938 -0.6843 -0.6714  0.2809
  312SOL     OW 1245   1.748   2.657   0.009  0.4317 -0.0751 -0.4067
  312SOL    HW1 1246   1.814   2.660   0.077  0.0833  2.8984  0.2997
  312SOL    HW2 1247   1.680   2.596   0.047  0.2260  1.1035 -2.4398
  312SOL     MW 1248   1.748   2.649   0.023  0.3586  0.4727 -0.5818
  313SOL     OW 1249   0.151   1.164   2.885 -0.2578  0.1666  0.6264
  313SOL    HW1 1250   0.220   1.192   2.951  0.6189  3.1932  0.1708
  313SOL    HW2 1251   0.189   1.203   2.803  0.6670 -1.4580 -1.9815
  313SOL     MW 1252   0.165   1.172   2.883 -0.0201  0.3516  0.2222
  314SOL     OW 1253   2.132   3.015   2.988  0.1737  0.3252 -0.6745
  314SOL    HW1 1254   2.065   3.039   2.919 -0.9565 -0.4474  0.9103
  314SOL    HW2 1255   2.143   3.102   3.045  0.7122  2.7386  2.9244
  314SOL     MW 1256   2.124   3.029   2.986  0.0956  0.5417  0.0094
  315SOL     OW 1257   1.573   1.988   3.012 -0.1316  0.2196 -0.1722
  315SOL    HW1 1258   1.484   2.024   3.038 -0.1742  0.5166  1.0985
  315SOL    HW2 1259   1.592   2.051   2.941  0.6354 -2.8011  0.8026
  315SOL     MW 1260   1.564   2.001   3.006 -0.0360 -0.1398  0.1241
  316SOL     OW 1261   1.206   0.601   2.730 -0.0461  0.5291 -0.6752
  316SOL    HW1 1262   1.291   0.565   2.701 -0.8152 -0.9409 -3.2436
  316SOL    HW2 1263   1.228   0.661   2.803  1.8695  1.3401  0.3832
  316SOL     MW 1264   1.220   0.604   2.736  0.1052  0.4421 -0.8744
  317SOL     OW 1265   0.681   1.361   2.629 -0.0305 -0.6463 -0.8202
  317SOL    HW1 1266   0.719   1.309   2.700 -1.4765  1.3803 -1.2959
  317SOL    HW2 1267   0.753   1.360   2.558  2.4370 -1.3394 -1.5616
  317SOL     MW 1268   0.695   1.354   2.629  0.1043 -0.4704 -0.9808
  318SOL     OW 1269   1.313   0.450   2.975 -0.4978 -0.1152 -0.6609
  318SOL    HW1 1270   1.228   0.472   2.932  1.7921  0.4055 -1.1070
  318SOL    HW2 1271   1.387   0.474   2.914  2.0464 -1.3595  0.9911
  318SOL     MW 1272   1.312   0.456   2.961  0.1400 -0.2107 -0.5018
  319SOL     OW 1273   0.786   0.413   2.756 -0.5347  0.4555 -0.4784
  319SOL    HW1 1274   0.764   0.360   2.681  1.9938 -1.4465  1.0634
  319SOL    HW2 1275   0.742   0.380   2.833 -0.6001  0.9147 -1.1873
  319SOL     MW 1276   0.777   0.401   2.756 -0.2097  0.2651 -0.3685
  320SOL     OW 1277   1.007   1.334   2.055 -0.1390 -0.7488 -0.1726
  320SOL    HW1 1278   1.060   1.281   2.113  2.7542 -1.0996  0.2570
  320SOL    HW2 1279   1.063   1.389   2.000 -1.3479 -0.4281 -0.8702
  320SOL     MW 1280   1.021   1.334   2.055  0.0832 -0.7528 -0.2079
  321SOL     OW 1281   1.044   0.985   2.959  0.6077  0.1857  0.3749
  321SOL    HW1 1282   0.960   0.957   2.899 -0.0285  2.7457  1.7002
  321SOL    HW2 1283   1.107   0.911   2.963  0.8923 -0.3565  0.2905
  321SOL     MW 1284   1.041   0.972   2.952  0.5613  0.4519  0.5386
  322SOL     OW 1285   1.198   0.908   1.710  0.2905  0.5058 -0.2888
  322SOL    HW1 1286   1.285   0.860   1.728  0.1442 -0.8308 -0.5489
  322SOL    HW2 1287   1.186   0.940   1.799 -0.4207  1.2550 -0.0591
  322SOL     MW 1288   1.208   0.906   1.724  0.1773  0.4283 -0.2928
  323SOL     OW 1289   1.162   1.516   1.922  0.4992 -0.4839 -0.2943
  323SOL    HW1 1290   1.153   1.470   1.835  1.3138  0.8237  1.2075
  323SOL    HW2 1291   1.119   1.599   1.895  0.2358  1.5027  2.2055
  323SOL     MW 1292   1.155   1.521   1.907  0.5720 -0.0492  0.2336
  324SOL     OW 1293   1.469   1.069   2.551 -0.1746 -0.4893  0.6510
  324SOL    HW1 1294   1.388   1.047   2.594  4.4313 -0.3077 -1.0140
  324SOL    HW2 1295   1.539   1.107   2.603  0.1576  1.9856 -0.8416
  324SOL     MW 1296   1.468   1.071   2.564  0.4769 -0.1388  0.2344
  325SOL     OW 1297   1.001   0.436   2.940 -0.4819  0.1451 -0.7145
  325SOL    HW1 1298   0.953   0.488   3.017 -0.1814  0.9296  1.4857
  325SOL    HW2 1299   0.934   0.421   2.870 -0.5445  0.1454 -2.5737
  325SOL     MW 1300   0.986   0.441   2.941 -0.4505  0.2486 -0.6695
  326SOL     OW 1301   0.431   1.314   2.161 -0.0721  0.8743 -0.3172
  326SOL    HW1 1302   0.461   1.275   2.078 -0.8279 -0.7959  0.0055
  326SOL    HW2 1303   0.420   1.406   2.173 -2.2735 -1.0813  1.1491
  326SOL     MW 1304   0.433   1.321   2.152 -0.4623  0.3959 -0.0812
  327SOL     OW 1305   1.914   0.895   2.421 -0.9613 -0.9990  0.2130
  327SOL    HW1 1306   1.904   0.822   2.483  3.0190  0.7968  1.2023
  327SOL    HW2 1307   2.012   0.898   2.398 -0.8835 -1.6869 -0.2544
  327SOL     MW 1308   1.925   0.885   2.426 -0.4258 -0.8528  0.2818
  328SOL     OW 1309   0.118   1.232   2.142  0.0321  0.1792  0.5692
  328SOL    HW1 1310   0.146   1.207   2.051  0.6993 -0.6323  0.6438
  328SOL    HW2 1311   0.206   1.227   2.185  0.1269  0.3528  0.0465
  328SOL     MW 1312   0.133   1.228   2.136  0.1326  0.0950  0.5101
  329SOL     OW 1313   0.124   0.152   1.451 -0.3297  0.2119 -0.4081
  329SOL    HW1 1314   0.078   0.152   1.541 -4.0618  0.4819 -0.5102
  329SOL    HW2 1315   0.214   0.196   1.462 -1.4787  2.1702  0.7024
  329SOL     MW 1316   0.130   0.158   1.464 -0.9737  0.5059 -0.2750
  330SOL     OW 1317   0.414   2.977   2.056 -0.2650  0.0869 -0.2398
  330SOL    HW1 1318   0.497   2.967   2.111 -0.2484 -1.8893 -2.0074
  330SOL    HW2 1319   0.337   2.935   2.100 -1.9153  1.5956  0.2833
  330SOL     MW 1320   0.415   2.970   2.069 -0.4806  0.0252 -0.4040
  331SOL     OW 1321   0.723   1.190   2.190  0.2387 -0.4747  0.4105
  331SOL    HW1 1322   0.685   1.226   2.106  1.1836  3.2273  0.0848
  331SOL    HW2 1323   0.743   1.273   2.232 -0.3918 -0.1126 -1.6097
  331SOL     MW 1324   0.720   1.206   2.184  0.2802  0.0615  0.1010
  332SOL     OW 1325   1.346   1.759   2.977  0.3589  0.2205 -0.4738
  332SOL    HW1 1326   1.387   1.749   2.890  1.5042 -2.3409 -3.2929
  332SOL    HW2 1327   1.339   1.851   2.999  2.1677  0.1663  0.7835
  332SOL     MW 1328   1.351   1.770   2.968  0.7487 -0.1246 -0.6799
  333SOL     OW 1329   1.744   1.482   3.041 -0.1933  0.0172  0.4292
  333SOL    HW1 1330   1.835   1.462   3.015  0.3797 -5.5275 -0.8670
  333SOL    HW2 1331   1.712   1.400   3.081 -1.5896 -0.0732  0.3762
  333SOL     MW 1332   1.752   1.469   3.043 -0.3019 -0.7263  0.2512
  334SOL     OW 1333   1.201   0.023   2.602  0.0243 -0.1712 -0.2173
  334SOL    HW1 1334   1.136   0.010   2.671 -1.6442 -0.9238 -0.6667
  334SOL    HW2 1335   1.249   0.104   2.626 -2.5768  0.5827 -0.6850
  334SOL     MW 1336   1.199   0.032   2.614 -0.5390 -0.1710 -0.3383
  335SOL     OW 1337   1.249   0.781   2.945  0.1289  0.4246 -0.2755
  335SOL    HW1 1338   1.295   0.754   3.031  2.4196 -2.9096 -1.4720
  335SOL    HW2 1339   1.325   0.823   2.896  1.4425 -0.6954 -0.9368
  335SOL     MW 1340   1.265   0.783   2.950  0.6045 -0.1631 -0.5206
  336SOL     OW 1341   0.977   1.150   1.839 -0.6044 -0.9495  0.2983
  336SOL    HW1 1342   0.976   1.208   1.915 -1.5478  2.1420  0.2695
  336SOL    HW2 1343   1.018   1.069   1.875 -1.1753  1.3054 -3.1583
  336SOL     MW 1344   0.982   1.147   1.854 -0.8042 -0.2441 -0.1616
  337SOL     OW 1345   0.658   1.777   2.851 -0.0689 -0.7067  0.1507
  337SOL    HW1 1346   0.574   1.793   2.802 -1.3810  0.4565 -0.2323
  337SOL    HW2 1347   0.683   1.700   2.811 -1.9152  2.8201  0.1149
  337SOL     MW 1348   0.650   1.769   2.839 -0.4856 -0.0879  0.0954
  338SOL     OW 1349   1.053   0.797   2.617 -0.0426  0.4153 -0.8634
  338SOL    HW1 1350   0.994   0.814   2.693 -1.7748  0.8660  2.6395
  338SOL    HW2 1351   1.120   0.733   2.649 -0.7723  3.2492  2.1618
  338SOL     MW 1352   1.054   0.790   2.631 -0.3674  0.8487 -0.0021
  339SOL     OW 1353   1.408   1.076   1.882 -0.1804  0.1744 -0.3489
  339SOL    HW1 1354   1.390   1.104   1.792  0.5903 -1.2211  0.2232
  339SOL    HW2 1355   1.416   1.151   1.936 -0.9463  2.9226  0.5069
  339SOL     MW 1356   1.406   1.090   1.877 -0.1798  0.3529 -0.1605
  340SOL     OW 1357   1.397   1.508   0.055 -0.3804  0.0279  0.4337
  340SOL    HW1 1358   1.374   1.571  -0.013  0.5121 -2.4155  1.9198
  340SOL    HW2 1359   1.484   1.534   0.085  0.3162  0.0463 -1.3177
  340SOL     MW 1360   1.406   1.520   0.050 -0.1707 -0.2920  0.3987
  341SOL     OW 1361   0.221   1.319   2.660  0.3611 -0.8802 -0.1189
  341SOL    HW1 1362   0.287   1.372   2.694 -1.2354 -2.3717 -0.4316
  341SOL    HW2 1363   0.189   1.371   2.587 -2.6015 -0.9753  1.8870
  341SOL     MW 1364   0.226   1.333   2.655 -0.2404 -1.0895  0.1045
  342SOL     OW 1365   1.408   0.265   0.057 -0.1071 -0.4357  0.1994
  342SOL    HW1 1366   1.446   0.337   0.109  0.0449 -0.3530 -0.5209
  342SOL    HW2 1367   1.375   0.299  -0.024  1.0830 -3.0004  0.4117
  342SOL     MW 1368   1.409   0.279   0.053  0.0699 -0.7632  0.1324
  343SOL     OW 1369   0.248   0.304   2.234  0.1197 -0.3667  0.9675
  343SOL    HW1 1370   0.264   0.231   2.289  1.1654 -0.2753 -1.4443
  343SOL    HW2 1371   0.181   0.275   2.172 -1.8003 -1.1215  1.5017
  343SOL     MW 1372   0.241   0.291   2.233  0.0043 -0.4543  0.7197
  344SOL     OW 1373   1.706   2.174   0.071 -0.1137  0.1034 -0.0324
  344SOL    HW1 1374   1.717   2.242  -0.005 -1.2162  0.1969 -0.3275
  344SOL    HW2 1375   1.673   2.100   0.021 -1.1300  2.5958 -3.1667
  344SOL     MW 1376   1.703   2.173   0.054 -0.3932  0.4446 -0.4849
  345SOL     OW 1377   0.635   1.561   2.342  0.4930 -0.0203  0.4180
  345SOL    HW1 1378   0.545   1.558   2.305 -1.0825 -0.0430  0.3360
  345SOL    HW2 1379   0.695   1.529   2.265 -1.1998 -0.6509 -1.9128
  345SOL     MW 1380   0.631   1.557   2.327  0.0618 -0.1065  0.0997
  346SOL     OW 1381   1.694   1.015   3.084 -0.8189 -0.4091  0.3248
  346SOL    HW1 1382   1.788   1.029   3.068  0.1957 -0.1827  2.5042
  346SOL    HW2 1383   1.684   0.959   3.159 -0.0182  0.5108 -1.4647
  346SOL     MW 1384   1.705   1.010   3.092 -0.5794 -0.2579  0.3762
  347SOL     OW 1385   1.136   0.674   2.333  0.1173 -0.3822 -0.3379
  347SOL    HW1 1386   1.199   0.613   2.366 -0.9734 -0.4322 -0.1688
  347SOL    HW2 1387   1.104   0.714   2.411  1.6129  2.9455  2.6487
  347SOL     MW 1388   1.140   0.671   2.348  0.1707  0.0503  0.0785
  348SOL     OW 1389   1.309   2.637   1.871 -0.5535  0.6586  0.5669
  348SOL    HW1 1390   1.362   2.555   1.892  3.0140 -1.5413  0.5403
  348SOL    HW2 1391   1.343   2.695   1.936  2.1586  0.7938 -1.6311
  348SOL     MW 1392   1.321   2.634   1.882  0.2751  0.3862  0.2734
  349SOL     OW 1393   1.319   0.266   2.688 -0.2069 -0.4779 -0.3553
  349SOL    HW1 1394   1.271   0.291   2.766  0.0868 -0.3026  0.7635
  349SOL    HW2 1395   1.395   0.217   2.723  1.3346 -1.3562 -0.5120
  349SOL     MW 1396   1.322   0.263   2.703  0.0352 -0.5707 -0.2284
  350SOL     OW 1397   1.924   0.692   2.616 -0.4761  0.5785  0.4286
  350SOL    HW1 1398   1.915   0.607   2.570 -1.2857  0.3109  1.5770
  350SOL    HW2 1399   2.001   0.685   2.674 -0.0542 -0.6352  1.0151
  350SOL     MW 1400   1.933   0.680   2.618 -0.5273  0.3831  0.6575
  351SOL     OW 1401   0.090   0.975   1.530 -0.3514  0.4155  0.5739
  351SOL    HW1 1402   0.013   1.019   1.578  0.0452 -0.6283 -1.1961
  351SOL    HW2 1403   0.166   1.033   1.555  1.5113  1.9826 -0.3889
  351SOL     MW 1404   0.090   0.988   1.540 -0.0533  0.4845  0.2133
  352SOL     OW 1405   0.820   1.593   2.706  0.4873  0.0154  0.2606
  352SOL    HW1 1406   0.847   1.539   2.781 -2.7036  0.8821  0.4847
  352SOL    HW2 1407   0.766   1.537   2.655  0.0797  2.4834  0.3793
  352SOL     MW 1408   0.816   1.579   2.709  0.0125  0.4554  0.3058
  353SOL     OW 1409   3.048   2.451   2.786 -0.2335 -0.0538 -0.2756
  353SOL    HW1 1410   3.125   2.437   2.732 -4.0584  1.0586  1.9992
  353SOL    HW2 1411   3.012   2.532   2.752 -0.9455  0.4211  0.6925
  353SOL     MW 1412   3.054   2.460   2.775 -0.8321  0.1556  0.1523
  354SOL     OW 1413   0.300   2.474   0.869  0.4895  0.1305  0.5940
  354SOL    HW1 1414   0.344   2.441   0.950  3.4806 -1.5831  2.4845
  354SOL    HW2 1415   0.216   2.422   0.873  2.2668 -0.7293 -1.9289
  354SOL     MW 1416   0.295   2.463   0.880  1.1186 -0.2090  0.5106
  355SOL     OW 1417   0.050   2.233   0.349  0.7754  0.8634 -0.4101
  355SOL    HW1 1418  -0.020   2.176   0.378 -0.6680  0.1736  2.2227
  355SOL    HW2 1419   0.054   2.293   0.423 -1.0958 -2.0809  1.0957
  355SOL     MW 1420   0.041   2.234   0.362  0.3381  0.3839  0.1359
  356SOL     OW 1421   0.731   2.927   1.009  0.2308  0.3041 -0.8861
  356SOL    HW1 1422   0.810   2.900   0.963  0.7554 -0.9878 -0.4345
  356SOL    HW2 1423   0.659   2.868   0.982 -1.8798 -0.8097 -1.9357
  356SOL     MW 1424   0.732   2.916   0.999  0.0215 -0.0133 -0.9650
  357SOL     OW 1425   1.778   3.000   0.385 -0.2078  0.3775 -0.0422
  357SOL    HW1 1426   1.745   2.930   0.447 -0.4823 -1.8970  1.6821
  357SOL    HW2 1427   1.861   2.976   0.361 -2.3960  0.3044  0.1974
  357SOL     MW 1428   1.785   2.987   0.390 -0.5327  0.0677  0.2169
  358SOL     OW 1429   0.493   0.146   1.010 -0.0412 -0.0338  0.1459
  358SOL    HW1 1430   0.561   0.123   0.953 -0.6950 -0.9504  0.9030
  358SOL    HW2 1431   0.426   0.195   0.956 -0.7841 -1.8204 -2.1166
  358SOL     MW 1432   0.493   0.150   0.996 -0.2255 -0.3905 -0.0527
  359SOL     OW 1433   0.891   2.746   1.929  0.2576 -0.7932 -0.2420
  359SOL    HW1 1434   0.877   2.732   2.024 -1.3704  0.5700  3.3641
  359SOL    HW2 1435   0.964   2.693   1.893 -2.5733  1.0408 -0.7449
  359SOL     MW 1436   0.899   2.737   1.937 -0.3307 -0.3714  0.1674
  360SOL     OW 1437   0.525   2.761   0.941 -0.2707 -0.9066  0.4184
  360SOL    HW1 1438   0.539   2.708   0.862 -2.3790  2.8288  0.7198
  360SOL    HW2 1439   0.535   2.706   1.020 -0.9636 -1.3046 -1.1553
  360SOL     MW 1440   0.528   2.747   0.941 -0.6403 -0.4663  0.2506
  361SOL     OW 1441   0.176   2.720   1.368 -0.0079  0.4657  0.3443
  361SOL    HW1 1442   0.192   2.793   1.416  1.6588 -2.3075 -1.8557
  361SOL    HW2 1443   0.258   2.676   1.368  0.4181  1.5682 -1.8354
  361SOL     MW 1444   0.189   2.724   1.374  0.2682  0.2453 -0.2335
  362SOL     OW 1445   1.456   2.438   0.620 -0.2251 -0.6007  0.0615
  362SOL    HW1 1446   1.450   2.354   0.658 -0.9482  0.6389  1.7262
  362SOL    HW2 1447   1.443   2.493   0.696  0.8643 -1.7640 -1.2004
  362SOL     MW 1448   1.454   2.434   0.635 -0.1768 -0.5906  0.1147
  363SOL     OW 1449   0.283   0.008   0.689  0.5441 -0.3336  0.3023
  363SOL    HW1 1450   0.266  -0.069   0.754 -0.1770 -0.5725  1.5152
  363SOL    HW2 1451   0.196   0.022   0.646 -2.0848 -2.8851  3.2775
  363SOL     MW 1452   0.269  -0.000   0.692  0.1021 -0.7017  0.8549
  364SOL     OW 1453   0.753   0.172   0.248 -0.3043 -0.3408 -0.0236
  364SOL    HW1 1454   0.715   0.085   0.226  1.2108 -0.8060 -0.8563
  364SOL    HW2 1455   0.686   0.227   0.212  1.2741  0.7158  1.7494
  364SOL     MW 1456   0.739   0.168   0.240  0.1039 -0.2628  0.1005
  365SOL     OW 1457   1.031   1.998   1.141  0.5148  0.2681  0.2265
  365SOL    HW1 1458   1.041   2.091   1.133 -2.5434 -0.7472 -2.2159
  365SOL    HW2 1459   0.953   1.966   1.090 -2.1075  3.1078 -2.3298
  365SOL     MW 1460   1.022   2.006   1.133 -0.2347  0.5088 -0.4330
  366SOL     OW 1461   2.863   2.624   0.997 -0.1546  0.0068 -0.3787
  366SOL    HW1 1462   2.921   2.655   1.068 -3.2315 -2.7483 -2.0559
  366SOL    HW2 1463   2.905   2.664   0.919  1.9238 -2.5696 -0.8696
  366SOL     MW 1464   2.876   2.634   0.996 -0.2863 -0.6967 -0.6647
  367SOL     OW 1465   1.251   2.930   0.797 -0.1575  0.0176  0.9474
  367SOL    HW1 1466   1.182   2.980   0.838 -0.9193 -2.1230 -2.1656
  367SOL    HW2 1467   1.205   2.844   0.790  0.8047  2.2188  1.1079
  367SOL     MW 1468   1.236   2.926   0.802 -0.1311  0.0256  0.5578
  368SOL     OW 1469   1.727   0.475   0.678  0.4745 -0.2308 -0.5337
  368SOL    HW1 1470   1.796   0.407   0.688  0.8594 -1.1925  0.9193
  368SOL    HW2 1471   1.761   0.559   0.685 -3.6090 -1.9712 -0.4145
  368SOL     MW 1472   1.741   0.477   0.680 -0.0135 -0.5873 -0.3262
  369SOL     OW 1473   0.131   2.460   1.729 -0.3084 -0.0631  0.2942
  369SOL    HW1 1474   0.222   2.431   1.756  0.6996  1.6521 -0.7208
  369SOL    HW2 1475   0.134   2.554   1.761  0.9498 -0.3452 -2.9581
  369SOL     MW 1476   0.143   2.469   1.737 -0.0094  0.1259 -0.2689
  370SOL     OW 1477   0.730   0.068   0.878  0.4810  0.7599 -0.0646
  370SOL    HW1 1478   0.774   0.151   0.903  0.8118  1.7422 -1.1115
  370SOL    HW2 1479   0.741  -0.000   0.954  1.7050 -0.9038 -0.8776
  370SOL     MW 1480   0.738   0.070   0.892  0.6861  0.6700 -0.3100
  371SOL     OW 1481   1.387   2.986   1.438 -0.0229 -0.4534 -0.1376
  371SOL    HW1 1482   1.354   2.894   1.422 -1.4551 -4.3161  2.0901
  371SOL    HW2 1483   1.350   3.044   1.368  2.5640  3.9060  0.2003
  371SOL     MW 1484   1.378   2.981   1.427  0.1294 -0.3879  0.2009
  372SOL     OW 1485   0.772   2.304   0.477 -0.1730 -0.6521 -0.5050
  372SOL    HW1 1486   0.711   2.231   0.479 -1.9885  3.9089  0.1530
  372SOL    HW2 1487   0.810   2.305   0.387  2.1649 -0.8978  0.6436
  372SOL     MW 1488   0.769   2.294   0.465 -0.1041 -0.0828 -0.2666
  373SOL     OW 1489   2.831   2.966   1.435 -0.1148 -0.2275  0.5134
  373SOL    HW1 1490   2.873   2.966   1.344  0.1450 -0.1371 -2.4432
  373SOL    HW2 1491   2.752   3.024   1.428  0.3991  0.3261  0.0074
  373SOL     MW 1492   2.826   2.974   1.422 -0.0127 -0.1425  0.0565
  374SOL     OW 1493   1.529   0.459   0.190 -0.3660  0.2523  0.3786
  374SOL    HW1 1494   1.586   0.518   0.150 -0.3614 -1.0043  2.1810
  374SOL    HW2 1495   1.557   0.454   0.279  0.8597  1.6080  3.4316
  374SOL     MW 1496   1.541   0.466   0.196 -0.2037  0.2654  1.0192
  375SOL     OW 1497   1.103   2.110   2.258  0.1063  0.0181 -0.2747
  375SOL    HW1 1498   1.108   2.128   2.351  0.6172  1.4985  0.1203
  375SOL    HW2 1499   1.096   2.014   2.260 -1.4504 -1.2258 -0.3301
  375SOL     MW 1500   1.102   2.099   2.271 -0.0317  0.0493 -0.2299
  376SOL     OW 1501   0.665   2.548   0.124 -0.1271 -0.5687  0.1229
  376SOL    HW1 1502   0.727   2.482   0.156  0.2892  1.3114  0.2685
  376SOL    HW2 1503   0.605   2.495   0.071 -1.9360 -3.1897  1.1377
  376SOL     MW 1504   0.665   2.532   0.121 -0.3109 -0.6665  0.2760
  377SOL     OW 1505   1.298   2.034   0.904  0.0009 -0.0084  0.5206
  377SOL    HW1 1506   1.231   2.011   0.842 -1.0947  1.6241 -0.4694
  377SOL    HW2 1507   1.295   1.978   0.979  1.6114  1.6663 -0.8642
  377SOL     MW 1508   1.289   2.024   0.906  0.0689  0.4279  0.2072
  378SOL     OW 1509   0.976   2.865   1.487  0.1066  0.1396  0.2352
  378SOL    HW1 1510   0.946   2.777   1.523  0.1241 -1.4115 -1.9931
  378SOL    HW2 1511   0.943   2.873   1.398  1.3921  0.6453 -1.4873
  378SOL     MW 1512   0.967   2.855   1.480  0.2786  0.0016 -0.2861
  379SOL     OW 1513   1.074   1.839   2.262 -0.1023  0.0592 -0.5585
  379SOL    HW1 1514   0.986   1.824   2.300 -1.2901 -1.4219  0.3872
  379SOL    HW2 1515   1.112   1.752   2.229 -0.1678  0.8915  0.1649
  379SOL     MW 1516   1.067   1.825   2.263 -0.2676 -0.0264 -0.3383
  380SOL     OW 1517   0.928   0.209   1.474  0.3102  0.2712 -0.3427
  380SOL    HW1 1518   0.958   0.144   1.413 -2.2407  1.2949  0.7958
  380SOL    HW2 1519   0.982   0.194   1.550 -1.3265 -0.4462  1.8794
  380SOL     MW 1520   0.939   0.198   1.476 -0.2423  0.3116  0.1007
  381SOL     OW 1521   0.821   1.996   0.813  0.6351 -0.4474  0.3805
  381SOL    HW1 1522   0.899   1.966   0.762  0.5285  1.7348  0.9983
  381SOL    HW2 1523   0.840   2.084   0.861 -0.3380  0.5526  1.6491
  381SOL     MW 1524   0.834   2.004   0.812  0.4926 -0.0275  0.6294
  382SOL     OW 1525   0.651   0.033   0.616 -0.4344  0.3510 -0.2306
  382SOL    HW1 1526   0.659   0.027   0.707  3.0666  0.0089  0.7429
  382SOL    HW2 1527   0.642  -0.058   0.590 -0.2150 -0.1954 -1.5560
  382SOL     MW 1528   0.651   0.020   0.625  0.0565  0.2337 -0.2770
  383SOL     OW 1529   0.514   0.062   0.381  0.4105 -0.4005  0.0218
  383SOL    HW1 1530   0.553   0.079   0.467 -0.2947 -2.4087  0.4805
  383SOL    HW2 1531   0.474  -0.025   0.400 -2.1153 -3.6466  2.3146
  383SOL     MW 1532   0.514   0.052   0.395 -0.0158 -1.0938  0.3848
  384SOL     OW 1533   0.652   2.845   0.549  0.0250 -0.4174 -0.3217
  384SOL    HW1 1534   0.625   2.778   0.613 -0.3479  0.7820  1.4963
  384SOL    HW2 1535   0.582   2.849   0.479 -2.7405 -0.0902 -1.2829
  384SOL     MW 1536   0.639   2.837   0.548 -0.3891 -0.2159 -0.2087
  385SOL     OW 1537   1.345   2.032   1.559 -0.4757  0.4113 -0.1481
  385SOL    HW1 1538   1.434   2.051   1.589 -3.4558  0.0290  2.9109
  385SOL    HW2 1539   1.320   1.954   1.620 -0.3690  1.5291  2.2632
  385SOL     MW 1540   1.354   2.024   1.571 -0.8548  0.5083  0.5737
  386SOL     OW 1541   1.274   0.408   0.918 -0.2737  0.2586  1.0081
  386SOL    HW1 1542   1.195   0.362   0.875 -1.0635 -3.2145 -1.3272
  386SOL    HW2 1543   1.259   0.419   1.013 -2.7196  0.5501  0.2724
  386SOL     MW 1544   1.262   0.403   0.925 -0.7006 -0.1612  0.6029
  387SOL     OW 1545   0.861   2.214   1.481 -0.0538  0.5509 -0.2189
  387SOL    HW1 1546   0.940   2.249   1.455 -1.8388  1.4964 -0.8741
  387SOL    HW2 1547   0.869   2.119   1.454 -0.2418  1.0534 -1.7161
  387SOL     MW 1548   0.872   2.206   1.474 -0.3141  0.7419 -0.5029
  388SOL     OW 1549   1.599   2.848   1.240 -0.4861 -0.5067 -0.3135
  388SOL    HW1 1550   1.512   2.856   1.197 -1.6883 -0.0793  2.3237
  388SOL    HW2 1551   1.641   2.769   1.198 -3.0094  2.3241 -0.3628
  388SOL     MW 1552   1.593   2.839   1.229 -0.9777 -0.0768  0.0280
  389SOL     OW 1553   0.495   0.048   3.037 -0.3548  0.3617  0.2501
  389SOL    HW1 1554   0.596   0.053   3.023  0.8351 -1.9522  2.2945
  389SOL    HW2 1555   0.473  -0.050   3.032 -1.5219 -0.7729  1.1169
  389SOL     MW 1556   0.506   0.036   3.034 -0.3518 -0.0933  0.6342
  390SOL     OW 1557   1.386   0.119   0.659 -0.7444  0.0202 -0.0444
  390SOL    HW1 1558   1.471   0.089   0.632 -0.5822  1.0887 -2.3545
  390SOL    HW2 1559   1.377   0.076   0.744  0.0109  0.2513  0.3001
  390SOL     MW 1560   1.396   0.109   0.667 -0.6233  0.1917 -0.3037
  391SOL     OW 1561   0.302   2.262   1.467 -0.5506  0.4290 -0.1082
  391SOL    HW1 1562   0.254   2.185   1.495  0.7332  2.5662 -0.4138
  391SOL    HW2 1563   0.244   2.335   1.471  0.9127 -2.5894  1.1029
  391SOL     MW 1564   0.288   2.261   1.471 -0.1882  0.3127  0.0113
  392SOL     OW 1565   2.057   2.207   0.242  0.3040 -0.6408  0.5521
  392SOL    HW1 1566   2.017   2.284   0.283 -0.4318 -1.1599 -4.0366
  392SOL    HW2 1567   2.107   2.162   0.310 -1.9907  1.0450 -0.6464
  392SOL     MW 1568   2.058   2.211   0.256 -0.0958 -0.4869 -0.2114
  393SOL     OW 1569   0.196   2.979   2.923 -0.4136  0.5966  0.2905
  393SOL    HW1 1570   0.264   3.038   2.891 -2.2946 -0.5892  2.2103
  393SOL    HW2 1571   0.115   3.009   2.890  2.5106 -0.9200  1.2257
  393SOL     MW 1572   0.194   2.990   2.914 -0.2759  0.2401  0.6672
  394SOL     OW 1573   0.855   1.665   1.496  0.2921 -0.1146 -0.2845
  394SOL    HW1 1574   0.792   1.658   1.567 -2.8636  1.1922  2.8761
  394SOL    HW2 1575   0.852   1.757   1.455 -1.6021 -2.0647  1.2548
  394SOL     MW 1576   0.846   1.677   1.500 -0.3742 -0.1994  0.3356
  395SOL     OW 1577   0.898   2.823   2.623  0.2873 -0.2444  0.2242
  395SOL    HW1 1578   0.925   2.905   2.665  0.2667  1.4449 -2.2487
  395SOL    HW2 1579   0.978   2.804   2.557  0.3976  0.3032 -0.5204
  395SOL     MW 1580   0.912   2.832   2.620  0.2991  0.0507 -0.2003
  396SOL     OW 1581   0.751   1.800   2.367 -0.1216  0.2901 -0.3228
  396SOL    HW1 1582   0.774   1.819   2.462  0.5022  1.3288  2.3842
  396SOL    HW2 1583   0.718   1.710   2.361  1.3110  0.5230 -0.4663
  396SOL     MW 1584   0.750   1.791   2.379  0.1497  0.4579  0.0154
  397SOL     OW 1585   1.049   2.344   1.272 -0.4220  0.3952 -0.0810
  397SOL    HW1 1586   1.070   2.405   1.201 -1.4130  0.4412  0.9695
  397SOL    HW2 1587   1.119   2.348   1.330 -1.7080 -0.6479 -0.1623
  397SOL     MW 1588   1.061   2.352   1.270 -0.7224  0.2636  0.0468
  398SOL     OW 1589   0.563   2.613   0.700  0.0950 -0.5991 -0.4709
  398SOL    HW1 1590   0.492   2.587   0.638  0.8046 -0.6803  2.7907
  398SOL    HW2 1591   0.648   2.570   0.669  2.8630  0.5931 -0.6725
  398SOL     MW 1592   0.565   2.604   0.687  0.5538 -0.4525 -0.0672
  399SOL     OW 1593   0.210   2.008   0.375  0.2852  0.2134 -0.4686
  399SOL    HW1 1594   0.160   2.091   0.380  2.2243 -1.1688 -2.7290
  399SOL    HW2 1595   0.278   2.026   0.295  0.0429  2.3946 -1.8092
  399SOL     MW 1596   0.213   2.021   0.365  0.5091  0.3188 -0.9437
  400SOL     OW 1597   0.557   1.815   0.229  0.2081 -0.1902 -0.1968
  400SOL    HW1 1598   0.523   1.904   0.210 -0.5292 -0.1882 -0.2222
  400SOL    HW2 1599   0.479   1.774   0.268  1.2477  1.6586 -0.0487
  400SOL     MW 1600   0.542   1.821   0.232  0.2480  0.0540 -0.1806
  401SOL     OW 1601   0.999   2.112   0.125  0.3457  0.2148 -0.1440
  401SOL    HW1 1602   1.026   2.019   0.130 -0.3531  0.4504 -2.3740
  401SOL    HW2 1603   1.013   2.138   0.216 -0.7491 -0.9671 -2.2887
  401SOL     MW 1604   1.004   2.103   0.138  0.1091  0.0900 -0.7212
  402SOL     OW 1605   0.703   2.666   1.757 -0.1877  0.2224 -0.2007
  402SOL    HW1 1606   0.613   2.688   1.786 -0.3021  0.8524 -0.9790
  402SOL    HW2 1607   0.761   2.711   1.820 -1.9976 -1.7707 -2.3183
  402SOL     MW 1608   0.699   2.675   1.769 -0.4416  0.0426 -0.5828
  403SOL     OW 1609   0.087   0.545   0.328 -0.1458  0.3945 -0.2007
  403SOL    HW1 1610   0.148   0.610   0.364 -1.1193 -0.5179  1.2400
  403SOL    HW2 1611   0.148   0.466   0.307 -0.9562 -0.8517  0.1931
  403SOL     MW 1612   0.103   0.543   0.330 -0.3812  0.1097  0.0413
  404SOL     OW 1613   0.957   2.871   0.862  0.3414  0.7905  0.2544
  404SOL    HW1 1614   0.993   2.803   0.800 -1.5793 -0.1959  0.2877
  404SOL    HW2 1615   0.960   2.948   0.808  0.0394  0.6507  0.6106
  404SOL     MW 1616   0.962   2.872   0.846  0.0481  0.6419  0.3058
  405SOL     OW 1617   0.448   2.486   1.588  0.1082 -0.6714  0.0600
  405SOL    HW1 1618   0.464   2.566   1.529 -1.0189  1.0421 -1.0982
  405SOL    HW2 1619   0.445   2.416   1.531 -1.8078  1.6559  3.4458
  405SOL     MW 1620   0.450   2.487   1.572 -0.2933 -0.1382  0.3539
  406SOL     OW 1621   0.386   2.390   1.130  0.0373 -0.0341  0.5591
  406SOL    HW1 1622   0.290   2.398   1.131  0.9525  0.4223 -0.5342
  406SOL    HW2 1623   0.396   2.307   1.171  0.6838  2.6722 -1.6043
  406SOL     MW 1624   0.375   2.380   1.136  0.2434  0.3832  0.1294
  407SOL     OW 1625   3.068   2.742   1.162 -0.2862  0.0405 -0.3389
  407SOL    HW1 1626   3.131   2.744   1.237  1.9470 -0.3662  1.9058
  407SOL    HW2 1627   3.121   2.734   1.082  1.4508 -1.3993  0.5156
  407SOL     MW 1628   3.083   2.741   1.161  0.2377 -0.2032  0.0700
  408SOL     OW 1629   2.101   2.011   0.474  0.2519  0.2475  0.5716
  408SOL    HW1 1630   2.101   2.052   0.558  0.3452  0.2528  0.6959
  408SOL    HW2 1631   2.016   1.979   0.477  0.3831  3.0493  2.5234
  408SOL     MW 1632   2.089   2.012   0.485  0.2815  0.6179  0.8455
  409SOL     OW 1633   1.418   0.160   0.953  0.2998  0.3632  0.2178
  409SOL    HW1 1634   1.423   0.245   0.913 -1.0522 -1.0741 -1.0953
  409SOL    HW2 1635   1.503   0.122   0.941  1.7552 -1.5948  0.7458
  409SOL     MW 1636   1.430   0.166   0.946  0.3135 -0.0848  0.1142
  410SOL     OW 1637   1.075   2.516   1.054 -0.2415  0.1305 -0.1297
  410SOL    HW1 1638   0.980   2.529   1.026  0.7220  0.7793  0.2506
  410SOL    HW2 1639   1.110   2.460   0.988 -2.5178  1.3177 -0.8340
  410SOL     MW 1640   1.067   2.510   1.041 -0.4147  0.3727 -0.1725
  411SOL     OW 1641   1.940   0.089   2.864 -0.6145 -0.2456  0.7076
  411SOL    HW1 1642   1.888   0.054   2.795  0.2145  2.3594  0.1500
  411SOL    HW2 1643   1.885   0.119   2.935  2.6842  1.8018  2.5035
  411SOL     MW 1644   1.926   0.088   2.864 -0.0699  0.3682  0.8710
  412SOL     OW 1645   1.007   2.232   0.603  0.3787  0.1189 -0.2541
  412SOL    HW1 1646   1.056   2.308   0.628 -0.8703 -2.7303 -1.4042
  412SOL    HW2 1647   0.915   2.257   0.581 -1.7432 -0.8575 -0.6360
  412SOL     MW 1648   1.001   2.245   0.603 -0.0660 -0.3859 -0.4562
  413SOL     OW 1649   0.511   2.808   0.052  0.0169 -0.0037 -0.5621
  413SOL    HW1 1650   0.573   2.743   0.090  2.6274 -1.5967 -1.8550
  413SOL    HW2 1651   0.541   2.832  -0.038 -0.6983 -1.3174  1.2273
  413SOL     MW 1652   0.523   2.802   0.045  0.2670 -0.3872 -0.4966
  414SOL     OW 1653   2.027   3.010   0.989 -0.4848 -0.1712  0.4013
  414SOL    HW1 1654   1.947   2.975   0.946  1.3292  0.7617 -0.9003
  414SOL    HW2 1655   2.089   2.935   0.994  0.9780 -1.4719 -0.0707
  414SOL     MW 1656   2.025   2.996   0.984 -0.0524 -0.2197  0.1673
  415SOL     OW 1657   1.737   2.656   1.112 -0.0898  0.5633  0.0288
  415SOL    HW1 1658   1.688   2.591   1.166  0.6188  0.4163  2.5899
  415SOL    HW2 1659   1.826   2.663   1.155 -0.8032  0.9801 -2.9762
  415SOL     MW 1660   1.742   2.648   1.125 -0.0905  0.5989 -0.0298
  416SOL     OW 1661   0.585   1.955   1.379 -0.5813 -0.3320  0.0584
  416SOL    HW1 1662   0.534   2.032   1.345 -1.1227 -1.2521  0.6193
  416SOL    HW2 1663   0.586   1.895   1.305  0.0423  0.4915 -1.4815
  416SOL     MW 1664   0.579   1.957   1.365 -0.5705 -0.3448 -0.0707
  417SOL     OW 1665   1.040   2.974   2.041  0.0989 -0.1229  0.0567
  417SOL    HW1 1666   0.977   2.996   2.117 -0.4599 -1.6826 -0.0312
  417SOL    HW2 1667   0.997   2.916   1.980  1.6278  1.0453 -0.1734
  417SOL     MW 1668   1.026   2.970   2.043  0.2269 -0.1745  0.0148
  418SOL     OW 1669   0.721   2.981   0.157 -0.0570  0.1368  0.4860
  418SOL    HW1 1670   0.778   2.965   0.082  0.0036 -1.1926  0.2072
  418SOL    HW2 1671   0.640   2.932   0.134  1.0031 -0.3782 -1.0841
  418SOL     MW 1672   0.718   2.973   0.144  0.0909 -0.1065  0.2420
  419SOL     OW 1673   0.466   2.705   1.402 -0.0158 -0.1533  0.2603
  419SOL    HW1 1674   0.520   2.781   1.427 -3.6398 -1.1192 -2.3337
  419SOL    HW2 1675   0.497   2.691   1.312  0.4797 -0.2916  2.0140
  419SOL     MW 1676   0.477   2.713   1.393 -0.4286 -0.2990  0.1494
  420SOL     OW 1677   0.897   2.220   0.950  0.5231 -0.0285  0.1059
  420SOL    HW1 1678   0.859   2.222   1.041 -1.0274 -3.1873 -2.4872
  420SOL    HW2 1679   0.880   2.312   0.922  2.1126 -1.0202 -4.1107
  420SOL     MW 1680   0.890   2.233   0.958  0.5283 -0.5762 -0.7926
  421SOL     OW 1681   2.951   0.074   0.130 -0.4914  0.1444 -0.4853
  421SOL    HW1 1682   2.940   0.083   0.040  0.7720 -1.8901 -0.5496
  421SOL    HW2 1683   2.974  -0.017   0.141  1.1474  1.5913 -0.8112
  421SOL     MW 1684   2.952   0.063   0.119 -0.1085  0.0669 -0.5368
  422SOL     OW 1685   0.827   2.495   0.918  0.1133  0.1952 -0.0007
  422SOL    HW1 1686   0.742   2.505   0.963 -1.1571 -0.6695  1.0886
  422SOL    HW2 1687   0.824   2.545   0.834 -2.3911  1.2566 -4.2849
  422SOL     MW 1688   0.815   2.503   0.913 -0.3848  0.2212 -0.4223
  423SOL     OW 1689   1.620   0.083   0.526  0.3231  0.2060 -0.3939
  423SOL    HW1 1690   1.661   0.023   0.464 -3.0879 -0.4034 -1.1336
  423SOL    HW2 1691   1.624   0.170   0.483 -2.5365  0.6030  0.8262
  423SOL     MW 1692   1.626   0.087   0.513 -0.5042  0.1780 -0.3305
  424SOL     OW 1693   0.753   2.181   1.174 -0.0940 -0.2584 -0.2304
  424SOL    HW1 1694   0.655   2.182   1.182 -2.8055 -1.4788  1.4630
  424SOL    HW2 1695   0.773   2.229   1.261  0.3349  0.6948  2.2483
  424SOL     MW 1696   0.743   2.188   1.187 -0.3952 -0.2937  0.3200
  425SOL     OW 1697   1.760   2.798   2.061  0.4777  0.0420 -0.1565
  425SOL    HW1 1698   1.758   2.792   1.965 -2.1024  0.4809  0.9828
  425SOL    HW2 1699   1.765   2.705   2.096 -2.5035 -1.2279  0.5765
  425SOL     MW 1700   1.760   2.785   2.053 -0.2561 -0.0676  0.0905
  426SOL     OW 1701   0.780   1.648   1.925 -0.4231 -0.3562 -0.3191
  426SOL    HW1 1702   0.721   1.636   1.842  1.7630 -0.9134 -0.7445
  426SOL    HW2 1703   0.743   1.725   1.971 -2.5298 -1.3648  0.1544
  426SOL     MW 1704   0.767   1.656   1.920 -0.4126 -0.5628 -0.3127
  427SOL     OW 1705   0.393   1.536   1.939 -0.0399  0.4961 -0.8553
  427SOL    HW1 1706   0.440   1.456   1.898  0.3384 -2.6706 -2.6356
  427SOL    HW2 1707   0.310   1.500   1.967  0.5998  0.5567 -1.7013
  427SOL     MW 1708   0.388   1.520   1.938  0.0944  0.0862 -1.2018
  428SOL     OW 1709   0.590   2.597   1.157 -0.0747  0.1605 -0.2252
  428SOL    HW1 1710   0.666   2.563   1.209 -0.3385  0.5595 -0.7569
  428SOL    HW2 1711   0.526   2.527   1.159 -0.5310  2.1555  1.7997
  428SOL     MW 1712   0.592   2.583   1.164 -0.1697  0.4764 -0.0282
  429SOL     OW 1713   1.383   2.845   1.038  0.2121 -0.4122 -0.1052
  429SOL    HW1 1714   1.300   2.814   1.086  0.3548  0.5907  0.9467
  429SOL    HW2 1715   1.350   2.895   0.963  0.6584 -0.6868  1.4722
  429SOL     MW 1716   1.368   2.847   1.034  0.2898 -0.3161  0.2417
  430SOL     OW 1717   1.104   2.715   0.700  0.3805  0.3700 -0.0756
  430SOL    HW1 1718   1.113   2.621   0.704  0.7121  2.4970  0.3189
  430SOL    HW2 1719   1.055   2.735   0.619 -1.1592  0.5468  4.8447
  430SOL     MW 1720   1.099   2.706   0.689  0.2211  0.6740  0.6256
  431SOL     OW 1721   0.399   2.025   1.065 -0.4806  0.4635  0.1627
  431SOL    HW1 1722   0.427   1.933   1.054 -0.9779 -2.4224 -0.1099
  431SOL    HW2 1723   0.334   2.029   0.998  2.2671 -0.4205  1.0604
  431SOL     MW 1724   0.394   2.013   1.055 -0.1837 -0.0339  0.2452
  432SOL     OW 1725   0.060   0.045   1.200 -0.0024  0.2601 -0.2367
  432SOL    HW1 1726   0.055   0.096   1.288  0.1458 -0.9144 -1.4672
  432SOL    HW2 1727  -0.028  -0.000   1.185  1.8860  0.7924  0.5766
  432SOL     MW 1728   0.048   0.046   1.210  0.2663  0.1754 -0.2917
  433SOL     OW 1729   0.675   2.909   1.437 -0.0460  0.1313  0.3935
  433SOL    HW1 1730   0.737   2.933   1.509 -0.5060 -2.9585 -1.9113
  433SOL    HW2 1731   0.740   2.887   1.368 -0.3139  2.6828  1.2639
  433SOL     MW 1732   0.692   2.909   1.437 -0.1420  0.0603  0.2043
  434SOL     OW 1733   1.627   2.876   1.518  0.0723 -0.1727  0.1053
  434SOL    HW1 1734   1.540   2.917   1.512  1.0858  1.5566 -0.4756
  434SOL    HW2 1735   1.632   2.836   1.427 -1.4474 -1.2331 -1.7415
  434SOL     MW 1736   1.617   2.876   1.505  0.0055 -0.0845 -0.2150
  435SOL     OW 1737   2.819   1.795   0.298  0.1538  0.2778 -0.0318
  435SOL    HW1 1738   2.874   1.855   0.250  0.5729  0.2095  0.3575
  435SOL    HW2 1739   2.801   1.722   0.235 -1.7603  0.0047 -1.4989
  435SOL     MW 1740   2.824   1.793   0.283 -0.0434  0.2328 -0.1740
  436SOL     OW 1741   1.487   2.787   0.327  0.1698  0.2565 -0.4491
  436SOL    HW1 1742   1.563   2.767   0.386  1.2832 -1.2176 -0.6865
  436SOL    HW2 1743   1.442   2.866   0.370  2.3838  0.2440  2.8090
  436SOL     MW 1744   1.491   2.795   0.340  0.6088  0.0604 -0.0506
  437SOL     OW 1745   0.872   2.873   1.233 -0.5535  0.1689  0.3473
  437SOL    HW1 1746   0.901   2.972   1.247  0.8829 -0.3423 -1.7104
  437SOL    HW2 1747   0.810   2.872   1.160 -0.9172  1.5449 -2.3751
  437SOL     MW 1748   0.867   2.886   1.226 -0.4119  0.2830 -0.2834
  438SOL     OW 1749   0.814   2.480   2.096 -0.0593  0.2015 -1.0474
  438SOL    HW1 1750   0.799   2.423   2.176 -1.3074  0.6569  0.6937
  438SOL    HW2 1751   0.749   2.459   2.030 -0.3746  2.2318  1.6024
  438SOL     MW 1752   0.803   2.470   2.097 -0.2656  0.5295 -0.4681
  439SOL     OW 1753   1.126   2.183   0.368 -0.2426 -0.0880 -0.3810
  439SOL    HW1 1754   1.071   2.192   0.450  2.4630 -0.1032 -0.4441
  439SOL    HW2 1755   1.119   2.270   0.332 -0.9400  1.3176 -0.5846
  439SOL     MW 1756   1.118   2.196   0.374  0.0224  0.0955 -0.4162
  440SOL     OW 1757   1.627   3.075   2.967  0.1516 -0.1681  0.0572
  440SOL    HW1 1758   1.600   3.046   3.056  0.1948  0.3107 -0.2373
  440SOL    HW2 1759   1.671   2.996   2.941  0.1323 -0.2859 -0.0802
  440SOL     MW 1760   1.629   3.061   2.976  0.1548 -0.1204  0.0002
  441SOL     OW 1761   0.366   2.654   0.503 -0.2325  0.0041 -0.4207
  441SOL    HW1 1762   0.336   2.610   0.421  0.9730 -1.4008  2.2004
  441SOL    HW2 1763   0.368   2.743   0.483  2.3859 -0.8784 -0.8874
  441SOL     MW 1764   0.363   2.660   0.489  0.2720 -0.2977 -0.1364
  442SOL     OW 1765   3.095   2.377   0.632  0.2534 -0.5173  0.0282
  442SOL    HW1 1766   3.123   2.472   0.641  0.3161  1.7940 -2.1982
  442SOL    HW2 1767   3.000   2.386   0.638 -0.0095  0.0247 -1.0926
  442SOL     MW 1768   3.086   2.391   0.634  0.2270 -0.1408 -0.4134
  443SOL     OW 1769   1.397   1.686   1.928  0.5056 -0.0458 -0.4254
  443SOL    HW1 1770   1.375   1.738   1.854  0.1560  1.7248  1.6941
  443SOL    HW2 1771   1.339   1.618   1.921  2.7498  2.1999  0.3609
  443SOL     MW 1772   1.386   1.684   1.917  0.7556  0.4841 -0.0420
  444SOL     OW 1773   0.894   2.618   1.550 -0.2235 -0.0211  0.5319
  444SOL    HW1 1774   0.949   2.587   1.617  1.6203 -3.0200 -2.1963
  444SOL    HW2 1775   0.812   2.630   1.593  2.7526 -2.4919 -1.1918
  444SOL     MW 1776   0.890   2.616   1.565  0.4125 -0.7428 -0.0555
  445SOL     OW 1777   0.960   0.042   1.228 -0.5175  1.1010  0.4082
  445SOL    HW1 1778   0.901   0.125   1.216 -0.7642 -0.4282 -0.8541
  445SOL    HW2 1779   1.042   0.078   1.203  0.1672 -1.2464 -1.2268
  445SOL     MW 1780   0.963   0.057   1.223 -0.4597  0.5895  0.0259
  446SOL     OW 1781   2.729   2.855   1.062  0.1834 -0.3919 -0.0443
  446SOL    HW1 1782   2.714   2.894   0.973 -0.3916 -0.0282 -0.0460
  446SOL    HW2 1783   2.761   2.764   1.044 -0.7153 -0.9380  0.3100
  446SOL     MW 1784   2.731   2.848   1.048 -0.0110 -0.4159  0.0022
  447SOL     OW 1785   3.021   2.013   1.706 -0.2278 -0.1543 -0.2130
  447SOL    HW1 1786   3.069   1.941   1.750  0.4611  0.5564 -2.0492
  447SOL    HW2 1787   2.963   1.968   1.644  1.2476 -0.9809 -1.4482
  447SOL     MW 1788   3.020   1.998   1.704  0.0578 -0.1696 -0.6183
  448SOL     OW 1789   1.682   2.377   1.682 -0.1512  0.0474 -0.1465
  448SOL    HW1 1790   1.641   2.287   1.691  0.7945  0.7555  1.2333
  448SOL    HW2 1791   1.613   2.440   1.687 -1.1548 -0.8473 -0.2378
  448SOL     MW 1792   1.668   2.373   1.684 -0.1588  0.0228  0.0235
  449SOL     OW 1793   0.857   2.856   0.377  0.0670  0.4724  0.7385
  449SOL    HW1 1794   0.817   2.826   0.293 -2.4754 -0.1597 -0.0459
  449SOL    HW2 1795   0.782   2.860   0.436  0.8622 -1.2149  1.3653
  449SOL     MW 1796   0.842   2.852   0.374 -0.1635  0.1664  0.7177
  450SOL     OW 1797   1.162   2.445   0.666  0.6138 -0.7668 -0.6117
  450SOL    HW1 1798   1.191   2.420   0.751 -0.3645  1.5198  2.0105
  450SOL    HW2 1799   1.240   2.455   0.613  2.4417  2.3118 -0.8154
  450SOL     MW 1800   1.176   2.443   0.670  0.7259 -0.0589 -0.2926
  451SOL     OW 1801   0.629   1.906   1.666  0.4827  0.5005 -0.0813
  451SOL    HW1 1802   0.699   1.961   1.700 -1.5649 -1.2487 -0.9411
  451SOL    HW2 1803   0.650   1.915   1.571 -0.7183 -0.0885 -0.7687
  451SOL     MW 1804   0.641   1.914   1.658  0.0541  0.1920 -0.2854
  452SOL     OW 1805   0.307   2.638   3.102  0.6579 -0.0478  0.4345
  452SOL    HW1 1806   0.391   2.691   3.119 -1.2229  2.5744 -0.2267
  452SOL    HW2 1807   0.308   2.603   3.012  0.0846  0.0414  0.5631
  452SOL     MW 1808   0.318   2.641   3.092  0.3341  0.3100  0.3642
  453SOL     OW 1809   0.422   3.040   1.678 -0.8437 -0.3491 -0.1689
  453SOL    HW1 1810   0.468   3.113   1.632 -0.6866  0.4801 -3.2459
  453SOL    HW2 1811   0.349   3.023   1.617 -0.5687  0.8960  0.9736
  453SOL     MW 1812   0.418   3.047   1.664 -0.7867 -0.0754 -0.4241
  454SOL     OW 1813   1.153   2.764   1.162  0.3235 -0.0510  0.2280
  454SOL    HW1 1814   1.135   2.679   1.117  0.8368  0.4435 -2.3193
  454SOL    HW2 1815   1.063   2.802   1.174  0.6005 -1.2978 -1.9421
  454SOL     MW 1816   1.138   2.758   1.158  0.4278 -0.1502 -0.3944
  455SOL     OW 1817   1.603   2.935   0.118  0.3311 -0.0497  0.4816
  455SOL    HW1 1818   1.694   2.926   0.145  0.2194 -1.9116 -0.5871
  455SOL    HW2 1819   1.551   2.897   0.184 -0.0148 -0.1123  0.0858
  455SOL     MW 1820   1.608   2.929   0.130  0.2707 -0.3036  0.2883
  456SOL     OW 1821   2.836   0.320   1.383 -0.1603 -0.1449 -0.2923
  456SOL    HW1 1822   2.792   0.238   1.365  2.3232 -0.5242 -2.2385
  456SOL    HW2 1823   2.908   0.335   1.316 -3.0278  0.8008  0.7001
  456SOL     MW 1824   2.840   0.311   1.372 -0.2109 -0.0702 -0.4182
  457SOL     OW 1825   0.914   1.487   2.955  0.3686  0.4943 -0.0658
  457SOL    HW1 1826   0.850   1.488   3.032 -1.0752 -1.3213  1.3505
  457SOL    HW2 1827   0.994   1.460   2.994  1.1562  1.2797 -2.3353
  457SOL     MW 1828   0.916   1.483   2.970  0.2820  0.3584 -0.1784
  458SOL     OW 1829   1.435   1.322   0.669  0.2275  0.1533 -0.2160
  458SOL    HW1 1830   1.348   1.332   0.718 -2.6526  0.2039  2.5614
  458SOL    HW2 1831   1.417   1.282   0.587 -1.4116 -0.3214  1.1554
  458SOL     MW 1832   1.421   1.318   0.665 -0.3687  0.0974  0.3314
  459SOL     OW 1833   1.623   0.121   0.190 -0.7420 -0.0360  0.1228
  459SOL    HW1 1834   1.598   0.027   0.206  1.3500  0.1368  1.4803
  459SOL    HW2 1835   1.540   0.163   0.179 -1.2823 -1.4102  1.7821
  459SOL     MW 1836   1.609   0.114   0.191 -0.5373 -0.1945  0.5208
  460SOL     OW 1837   1.761   2.146   0.616 -0.2896  0.3994  0.3920
  460SOL    HW1 1838   1.664   2.140   0.622  0.4328 -0.8047 -2.2665
  460SOL    HW2 1839   1.762   2.071   0.556  1.1833 -1.7599 -0.5142
  460SOL     MW 1840   1.748   2.135   0.609  0.0001 -0.0444 -0.0784
  461SOL     OW 1841   0.353   2.313   0.627  0.0238 -0.0943  0.0480
  461SOL    HW1 1842   0.321   2.346   0.543 -0.3366 -2.8903  2.1651
  461SOL    HW2 1843   0.316   2.366   0.696  2.6489 -1.9076  2.5633
  461SOL     MW 1844   0.344   2.324   0.625  0.3226 -0.7025  0.6592
  462SOL     OW 1845   0.424   0.249   1.361 -0.3773 -0.2597  0.0449
  462SOL    HW1 1846   0.447   0.157   1.345 -0.6100  2.7740  1.2964
  462SOL    HW2 1847   0.508   0.302   1.341  1.1311  2.4589 -0.3387
  462SOL     MW 1848   0.438   0.244   1.356 -0.2090  0.4993  0.1594
  463SOL     OW 1849   0.980   3.094   0.699 -0.3067 -0.5967 -0.3890
  463SOL    HW1 1850   1.008   3.088   0.605 -0.5621 -1.0284 -1.4996
  463SOL    HW2 1851   0.892   3.130   0.709 -1.7881  1.5127 -1.1087
  463SOL     MW 1852   0.972   3.098   0.688 -0.5358 -0.3754 -0.6305
  464SOL     OW 1853   0.870   3.001   2.253 -0.1346  0.2919  0.1344
  464SOL    HW1 1854   0.837   2.909   2.260 -1.9150 -3.6482 -1.4086
  464SOL    HW2 1855   0.884   3.039   2.342  2.3679 -0.9067 -0.4020
  464SOL     MW 1856   0.868   2.994   2.266 -0.0393 -0.3861 -0.1399
  465SOL     OW 1857   0.710   0.328   0.469  0.1229 -0.3036 -0.1311
  465SOL    HW1 1858   0.667   0.306   0.550 -0.6235 -2.3411 -0.4030
  465SOL    HW2 1859   0.719   0.238   0.429  1.4419 -1.1116 -0.8469
  465SOL     MW 1860   0.705   0.313   0.474  0.1984 -0.6790 -0.2614
  466SOL     OW 1861   1.082   2.000   0.716  0.0623  0.1713  0.3929
  466SOL    HW1 1862   1.087   1.931   0.651  0.2661  1.3592  1.2513
  466SOL    HW2 1863   1.044   2.077   0.678 -0.0723  1.7562 -0.0065
  466SOL     MW 1864   1.078   2.001   0.702  0.0714  0.5372  0.4535
  467SOL     OW 1865   1.245   2.337   0.899  0.1831  0.2549 -0.4813
  467SOL    HW1 1866   1.343   2.341   0.910  1.3075  2.6468  2.6901
  467SOL    HW2 1867   1.225   2.244   0.905 -2.7882  4.0244 -2.8339
  467SOL     MW 1868   1.255   2.325   0.901 -0.0606  1.0678 -0.3733
  468SOL     OW 1869   0.328   2.594   1.996  0.4260  0.3862  0.5925
  468SOL    HW1 1870   0.331   2.508   1.951 -1.9927 -1.0503  3.1186
  468SOL    HW2 1871   0.369   2.667   1.945 -1.9448  1.9633  1.3641
  468SOL     MW 1872   0.334   2.592   1.983 -0.2060  0.4047  1.0276
  469SOL     OW 1873   0.389   2.092   1.740  0.3241 -0.2064 -0.1312
  469SOL    HW1 1874   0.319   2.087   1.672 -0.7633 -1.1859  1.8664
  469SOL    HW2 1875   0.465   2.039   1.716  0.6804 -0.9371  1.0077
  469SOL     MW 1876   0.390   2.085   1.728  0.2276 -0.4321  0.2826
  470SOL     OW 1877   0.006   2.575   0.221  0.2160  0.3525 -0.5607
  470SOL    HW1 1878  -0.079   2.558   0.259  1.5514  2.2026 -0.2000
  470SOL    HW2 1879  -0.000   2.554   0.130 -0.7545  1.7917  1.5319
  470SOL     MW 1880  -0.006   2.570   0.214  0.2641  0.7865 -0.2370
  471SOL     OW 1881   1.235   2.753   1.412  0.2588 -0.1888  0.4609
  471SOL    HW1 1882   1.150   2.776   1.451 -1.8188 -1.2607  1.1135
  471SOL    HW2 1883   1.223   2.757   1.317 -1.5411  1.9605 -1.4034
  471SOL     MW 1884   1.222   2.757   1.405 -0.2528 -0.0467  0.3010
  472SOL     OW 1885   2.959   2.063   0.411 -0.2962  0.5529 -0.5193
  472SOL    HW1 1886   2.973   2.014   0.327  0.2940  1.3753 -0.2700
  472SOL    HW2 1887   2.967   1.984   0.463  0.7627 -0.3685 -0.0429
  472SOL     MW 1888   2.962   2.046   0.407 -0.0786  0.5398 -0.4236
  473SOL     OW 1889   0.831   2.508   1.291  0.2156 -0.3347  0.2602
  473SOL    HW1 1890   0.907   2.453   1.277  0.3829 -3.1232  0.8956
  473SOL    HW2 1891   0.849   2.543   1.376  1.4045  1.9644 -0.4972
  473SOL     MW 1892   0.844   2.506   1.300  0.3945 -0.3992  0.2441
  474SOL     OW 1893   0.840   2.073   1.724  0.3171  0.6232  0.3127
  474SOL    HW1 1894   0.926   2.076   1.768 -1.9792  1.1047 -2.4606
  474SOL    HW2 1895   0.844   2.138   1.654 -1.9608  2.4485  0.7375
  474SOL     MW 1896   0.852   2.082   1.721 -0.2864  0.9275  0.0028
  475SOL     OW 1897   1.706   0.027   1.308 -0.9281 -0.2230  0.3134
  475SOL    HW1 1898   1.620   0.057   1.270 -0.6553 -0.9384  0.2717
  475SOL    HW2 1899   1.687  -0.062   1.336  1.8696  0.7537  0.5606
  475SOL     MW 1900   1.692   0.019   1.306 -0.5230 -0.1885  0.3405
  476SOL     OW 1901   1.429   2.619   0.852  0.4648 -0.1483 -0.0344
  476SOL    HW1 1902   1.426   2.648   0.938  3.1275 -0.8040 -1.6606
  476SOL    HW2 1903   1.483   2.685   0.807  0.1420  2.2581 -1.6147
  476SOL     MW 1904   1.436   2.632   0.858  0.7735  0.0827 -0.4575
  477SOL     OW 1905   0.808   2.533   0.630  0.6807  0.4751 -0.6848
  477SOL    HW1 1906   0.865   2.580   0.577  0.2565  0.6824  1.7116
  477SOL    HW2 1907   0.780   2.461   0.567 -0.2455 -0.2455  0.3549
  477SOL     MW 1908   0.812   2.530   0.615  0.5025  0.4074 -0.2315
  478SOL     OW 1909   0.141   2.704   0.956  0.4442 -0.0942  0.5860
  478SOL    HW1 1910   0.180   2.779   0.918 -0.7612  1.4239 -0.3506
  478SOL    HW2 1911   0.163   2.638   0.888 -0.0902 -0.7815  1.0409
  478SOL     MW 1912   0.149   2.705   0.942  0.2146  0.0154  0.5225
  479SOL     OW 1913   1.470   1.943   1.322 -0.0453 -0.0921 -0.0496
  479SOL    HW1 1914   1.413   1.968   1.397  1.1366  0.4556 -1.1230
  479SOL    HW2 1915   1.535   1.872   1.346 -0.2966 -0.2655  1.2824
  479SOL     MW 1916   1.471   1.937   1.335  0.0775 -0.0427 -0.0154
  480SOL     OW 1917   1.853   2.417   1.344  0.3252  0.2777  0.7159
  480SOL    HW1 1918   1.869   2.338   1.398 -0.8776  1.7608 -1.1869
  480SOL    HW2 1919   1.882   2.396   1.253  1.0916 -0.6460  2.1838
  480SOL     MW 1920   1.859   2.404   1.339  0.2676  0.3515  0.6585
  481SOL     OW 1921   1.169   0.169   1.090  0.1096 -0.2616 -0.4259
  481SOL    HW1 1922   1.255   0.149   1.052 -0.1269 -1.4580  0.8483
  481SOL    HW2 1923   1.184   0.249   1.139 -0.1654  1.9980 -0.4502
  481SOL     MW 1924   1.182   0.177   1.092  0.0422 -0.1213 -0.2610
  482SOL     OW 1925   1.062   3.045   0.418 -0.1276 -0.5547  0.4922
  482SOL    HW1 1926   1.016   2.965   0.398  1.2781  0.2730 -3.3703
  482SOL    HW2 1927   1.018   3.119   0.372  0.0010  0.8516  1.2733
  482SOL     MW 1928   1.050   3.044   0.409  0.0749 -0.2599  0.0856
  483SOL     OW 1929   0.384   2.926   0.493  0.1977 -0.2544 -0.0916
  483SOL    HW1 1930   0.328   2.964   0.429  1.1745  2.2335 -1.0555
  483SOL    HW2 1931   0.353   2.960   0.577 -0.3155 -1.5768 -2.2595
  483SOL     MW 1932   0.373   2.936   0.496  0.2589 -0.1006 -0.5048
  484SOL     OW 1933   1.705   1.801   1.430 -0.2379  0.5405  0.3441
  484SOL    HW1 1934   1.766   1.875   1.412  0.5183  0.2315  2.4539
  484SOL    HW2 1935   1.686   1.816   1.526  0.3770 -1.3468  1.6174
  484SOL     MW 1936   1.711   1.813   1.440 -0.0570  0.2507  0.7905
  485SOL     OW 1937   0.378   2.318   0.341  0.4518  0.8673 -0.6217
  485SOL    HW1 1938   0.459   2.365   0.360  1.5206 -1.1992  2.2583
  485SOL    HW2 1939   0.330   2.392   0.299  0.8451 -2.0117  1.5822
  485SOL     MW 1940   0.383   2.334   0.338  0.6447  0.2148  0.0490
  486SOL     OW 1941   0.110   2.469   1.467 -0.3113 -0.3486  0.3353
  486SOL    HW1 1942   0.121   2.555   1.426 -1.4551  0.6605  1.2854
  486SOL    HW2 1943   0.134   2.478   1.565  4.0016  2.3214  2.0532
  486SOL     MW 1944   0.115   2.481   1.475  0.1068  0.1368  0.6873
  487SOL     OW 1945   1.276   1.567   1.103  0.6015 -0.8448  0.2790
  487SOL    HW1 1946   1.253   1.659   1.117 -1.6387 -1.9311 -0.2229
  487SOL    HW2 1947   1.364   1.570   1.057  2.2355  0.4281 -0.7961
  487SOL     MW 1948   1.284   1.580   1.099  0.5215 -0.8202  0.0709
  488SOL     OW 1949   1.456   1.779   0.599 -0.7347  0.0307 -0.1480
  488SOL    HW1 1950   1.465   1.867   0.566 -0.6271 -0.6222  0.2255
  488SOL    HW2 1951   1.379   1.752   0.550  1.3793  1.9367 -0.6749
  488SOL     MW 1952   1.447   1.787   0.588 -0.4416  0.1961 -0.1682
  489SOL     OW 1953   0.710   0.672   0.474  0.0931 -0.1827 -0.0907
  489SOL    HW1 1954   0.647   0.608   0.434 -0.6666  1.3384 -2.1309
  489SOL    HW2 1955   0.675   0.709   0.561  2.1718  0.0520  0.7157
  489SOL     MW 1956   0.697   0.668   0.480  0.2672  0.0490 -0.2535
  490SOL     OW 1957   1.372   2.062   0.425 -0.6740 -0.0239 -0.0733
  490SOL    HW1 1958   1.450   2.109   0.398 -1.1199 -0.0915 -1.5530
  490SOL    HW2 1959   1.299   2.124   0.409  1.9372  0.4822 -1.7410
  490SOL     MW 1960   1.373   2.077   0.419 -0.3883  0.0339 -0.4885
  491SOL     OW 1961   1.344   3.020   0.430 -0.5051 -0.2211 -0.3769
  491SOL    HW1 1962   1.394   3.084   0.481  1.9203 -0.9516  0.0454
  491SOL    HW2 1963   1.248   3.024   0.432 -4.1579  2.5671 -1.7078
  491SOL     MW 1964   1.338   3.029   0.437 -0.6670  0.0504 -0.4968
  492SOL     OW 1965   1.448   2.150   0.693  0.3145  0.1133  0.4315
  492SOL    HW1 1966   1.394   2.128   0.621  2.4736  0.4166  0.4198
  492SOL    HW2 1967   1.407   2.117   0.767 -2.0542 -0.5137  0.2771
  492SOL     MW 1968   1.436   2.143   0.694  0.2869  0.0706  0.4096
  493SOL     OW 1969   0.191   3.010   0.308  0.1173  0.3937  0.4561
  493SOL    HW1 1970   0.130   3.072   0.330  3.7778 -1.2484 -0.7178
  493SOL    HW2 1971   0.169   2.986   0.221  0.6239  1.0625 -0.2701
  493SOL     MW 1972   0.180   3.015   0.299  0.6671  0.2653  0.2054
  494SOL     OW 1973   0.366   2.382   1.819  0.3187 -0.6485  0.1921
  494SOL    HW1 1974   0.361   2.285   1.795  1.5867 -2.5185  1.8162
  494SOL    HW2 1975   0.416   2.419   1.736  1.2457 -0.6116 -1.7704
  494SOL     MW 1976   0.372   2.374   1.805  0.6083 -0.8904  0.1475
  495SOL     OW 1977   2.823   1.627   2.679 -0.0348  0.0521 -0.5484
  495SOL    HW1 1978   2.798   1.688   2.749  0.4457  0.0921  0.7397
  495SOL    HW2 1979   2.816   1.538   2.720  1.3140  1.0600  1.0511
  495SOL     MW 1980   2.819   1.623   2.693  0.2066  0.1903 -0.1674
  496SOL     OW 1981   2.828   2.298   2.746  0.3803  0.0996  0.2293
  496SOL    HW1 1982   2.823   2.218   2.792  0.1066 -0.9738  2.8384
  496SOL    HW2 1983   2.915   2.338   2.758  2.2064  1.2923 -1.1065
  496SOL     MW 1984   2.839   2.293   2.754  0.5851  0.1154  0.3973
  497SOL     OW 1985   1.479   2.427   2.591 -0.6869  0.3763 -0.0037
  497SOL    HW1 1986   1.495   2.367   2.520  1.2592  0.6437 -3.0892
  497SOL    HW2 1987   1.443   2.371   2.661  0.4638  1.5449 -0.3663
  497SOL     MW 1988   1.476   2.412   2.591 -0.2783  0.5657 -0.4586
  498SOL     OW 1989   1.487   2.727   2.325  0.1713 -0.0567 -0.4122
  498SOL    HW1 1990   1.435   2.657   2.363  0.8533 -0.0433  0.2177
  498SOL    HW2 1991   1.548   2.762   2.389 -2.9959  1.2762  0.6665
  498SOL     MW 1992   1.488   2.722   2.338 -0.1566  0.1209 -0.1867
  499SOL     OW 1993   0.974   0.037   0.093 -0.5569  0.7801  0.2390
  499SOL    HW1 1994   0.895   0.065   0.139  0.7303  0.7771  0.0971
  499SOL    HW2 1995   0.940  -0.031   0.039  0.1314  0.1050  1.4829
  499SOL     MW 1996   0.959   0.032   0.092 -0.2962  0.6906  0.3844
  500SOL     OW 1997   1.021   2.541   2.724  0.2923 -0.1947  0.2576
  500SOL    HW1 1998   1.081   2.496   2.791  1.3868 -1.8950 -0.6357
  500SOL    HW2 1999   0.974   2.597   2.785  1.2343  0.5828  0.9669
  500SOL     MW 2000   1.023   2.542   2.741  0.5610 -0.3165  0.2334
  501SOL     OW 2001   1.806   2.319   2.964 -0.1252 -0.5075 -0.5940
  501SOL    HW1 2002   1.816   2.414   2.972  0.0830  0.1099  0.8691
  501SOL    HW2 2003   1.889   2.280   2.996 -0.9164 -1.4422 -1.4551
  501SOL     MW 2004   1.818   2.327   2.969 -0.2021 -0.5494 -0.5146
  502SOL     OW 2005   0.320   2.737   2.829  0.6761 -0.1555  0.9230
  502SOL    HW1 2006   0.335   2.740   2.737 -0.3597 -0.8279 -0.9015
  502SOL    HW2 2007   0.273   2.820   2.844  1.3745  0.6496 -0.4003
  502SOL     MW 2008   0.316   2.748   2.819  0.6316 -0.1380  0.5076
  503SOL     OW 2009   1.106   2.477   2.073  0.2717 -0.0806  0.0231
  503SOL    HW1 2010   1.132   2.524   1.998 -2.7792 -0.0267 -0.2350
  503SOL    HW2 2011   1.012   2.480   2.081  1.1400 -1.0712  0.0904
  503SOL     MW 2012   1.097   2.484   2.064 -0.0163 -0.2042 -0.0021
  504SOL     OW 2013   0.074   2.613   2.176 -0.2469  0.4436  0.5593
  504SOL    HW1 2014   0.101   2.541   2.116 -1.2901  1.0503 -3.0403
  504SOL    HW2 2015   0.069   2.571   2.256 -0.0587 -1.8987 -2.2981
  504SOL     MW 2016   0.077   2.598   2.179 -0.3597  0.2146 -0.2927
  505SOL     OW 2017   1.601   2.856   2.711 -0.4352 -0.2901  0.9025
  505SOL    HW1 2018   1.664   2.885   2.643  0.2573  1.3304 -0.8750
  505SOL    HW2 2019   1.538   2.926   2.736 -0.1864 -0.6990 -1.1239
  505SOL     MW 2020   1.601   2.869   2.705 -0.3110 -0.1303  0.4006
  506SOL     OW 2021   1.549   0.129   2.759  0.0558  0.0821  0.8673
  506SOL    HW1 2022   1.578   0.093   2.839 -0.9249  0.6996 -0.0090
  506SOL    HW2 2023   1.595   0.068   2.696  3.1877  0.0183 -1.9273
  506SOL     MW 2024   1.559   0.116   2.761  0.3396  0.1552  0.3829
  507SOL     OW 2025   0.801   2.704   2.844 -0.4522  0.0391 -0.4435
  507SOL    HW1 2026   0.814   2.748   2.756 -0.1062 -1.6448 -1.0214
  507SOL    HW2 2027   0.715   2.669   2.846  2.2035 -0.3473  0.2381
  507SOL     MW 2028   0.791   2.705   2.833 -0.0562 -0.2341 -0.4298
  508SOL     OW 2029   1.190   2.152   2.552  0.3481  0.0468 -0.1078
  508SOL    HW1 2030   1.259   2.199   2.598  2.8209 -0.7271  1.4106
  508SOL    HW2 2031   1.114   2.158   2.608 -0.7947  0.9496  0.9172
  508SOL     MW 2032   1.189   2.159   2.565  0.5236  0.0638  0.2278
  509SOL     OW 2033   0.547   2.600   2.877 -0.4592 -0.4899 -0.3073
  509SOL    HW1 2034   0.542   2.550   2.795  0.9922  0.3882  2.2109
  509SOL    HW2 2035   0.468   2.664   2.877  2.6803  2.9903 -1.4859
  509SOL     MW 2036   0.536   2.602   2.866  0.1465  0.0851 -0.1305
  510SOL     OW 2037   1.523   2.641   1.695  0.0021  0.1360 -1.2492
  510SOL    HW1 2038   1.575   2.724   1.695 -2.7647  0.5990 -3.8006
  510SOL    HW2 2039   1.455   2.663   1.761 -0.8506 -0.3662 -0.5735
  510SOL     MW 2040   1.521   2.655   1.704 -0.4754  0.1308 -1.4967
  511SOL     OW 2041   0.387   2.594   2.515  0.1947  0.0925 -0.1303
  511SOL    HW1 2042   0.454   2.535   2.545  0.9152  0.3688  2.1595
  511SOL    HW2 2043   0.397   2.593   2.419 -0.8594 -1.9339 -1.0307
  511SOL     MW 2044   0.397   2.586   2.507  0.1507 -0.1384  0.0530
  512SOL     OW 2045   0.932   1.997   2.806 -0.1247 -0.2164  0.1907
  512SOL    HW1 2046   0.845   2.029   2.837 -0.2253  1.4275 -1.5690
  512SOL    HW2 2047   0.957   1.916   2.856  1.2389 -0.1458 -1.4509
  512SOL     MW 2048   0.924   1.991   2.816  0.0419  0.0098 -0.2581
  513SOL     OW 2049   1.472   2.408   2.214  0.1167 -0.2261  0.2401
  513SOL    HW1 2050   1.555   2.459   2.196  3.1143 -2.4731  0.7045
  513SOL    HW2 2051   1.492   2.337   2.276  1.3108  1.3170  0.3622
  513SOL     MW 2052   1.486   2.405   2.220  0.6697 -0.3190  0.3175
  514SOL     OW 2053   0.203   2.386   2.645  0.4478 -0.4196  0.3993
  514SOL    HW1 2054   0.237   2.473   2.633  0.8681 -0.1842  2.5302
  514SOL    HW2 2055   0.256   2.338   2.711  1.2083  0.1407  0.6092
  514SOL     MW 2056   0.215   2.391   2.652  0.6036 -0.3146  0.7082
  515SOL     OW 2057   1.071   2.013   1.901  0.0827  0.1646  0.0472
  515SOL    HW1 2058   1.032   2.083   1.939  2.0920 -1.9628 -1.4918
  515SOL    HW2 2059   1.143   1.985   1.956  0.3157  1.5977  0.5838
  515SOL     MW 2060   1.076   2.019   1.913  0.3785  0.0730 -0.0851
  516SOL     OW 2061   1.331   2.621   2.902  0.6242  0.2077 -0.0791
  516SOL    HW1 2062   1.341   2.608   2.810  1.5343  0.4909  2.3748
  516SOL    HW2 2063   1.265   2.553   2.929  0.5096  2.2451 -0.5219
  516SOL     MW 2064   1.324   2.610   2.894  0.7291  0.5139  0.1863
  517SOL     OW 2065   0.440   2.268   2.323 -0.1808 -0.3254 -0.1669
  517SOL    HW1 2066   0.427   2.363   2.320 -1.1533  1.4816 -0.6730
  517SOL    HW2 2067   0.400   2.239   2.237  0.3415  0.5256 -0.1663
  517SOL     MW 2068   0.433   2.277   2.311 -0.2402  0.0253 -0.2336
  518SOL     OW 2069   1.762   0.203   3.025 -0.2613 -0.2802 -0.1388
  518SOL    HW1 2070   1.752   0.227   3.115  1.2443 -3.5016 -0.4115
  518SOL    HW2 2071   1.697   0.138   3.023 -2.9283 -1.7411 -0.0334
  518SOL     MW 2072   1.752   0.198   3.037 -0.4146 -0.8980 -0.1609
  519SOL     OW 2073   0.606   2.361   1.994  0.0711 -0.8172 -0.3394
  519SOL    HW1 2074   0.601   2.266   1.980  2.0136 -1.6855 -0.1533
  519SOL    HW2 2075   0.553   2.388   1.914  0.3128  2.0757 -0.9073
  519SOL     MW 2076   0.599   2.352   1.981  0.3592 -0.5501 -0.3898
  520SOL     OW 2077   1.125   2.152   2.901 -0.0324 -0.3267 -0.1597
  520SOL    HW1 2078   1.052   2.105   2.854  2.0470  1.0674 -1.7729
  520SOL    HW2 2079   1.177   2.095   2.961  0.9333  0.0427 -2.9238
  520SOL     MW 2080   1.122   2.139   2.903  0.3694 -0.0941 -0.7372
  521SOL     OW 2081   1.700   2.115   2.179 -0.1077 -0.4601  0.1636
  521SOL    HW1 2082   1.766   2.105   2.112 -1.0544 -1.2324  1.4373
  521SOL    HW2 2083   1.688   2.016   2.174  3.9802 -0.0647 -0.5654
  521SOL     MW 2084   1.707   2.100   2.170  0.3068 -0.5098  0.2355
  522SOL     OW 2085   2.835   2.550   2.153  0.2903  0.4061  0.4588
  522SOL    HW1 2086   2.875   2.509   2.230  1.0298  1.0521 -3.6889
  522SOL    HW2 2087   2.897   2.615   2.114  1.5204 -2.2129  1.7342
  522SOL     MW 2088   2.849   2.553   2.158  0.5502  0.1458  0.0798
  523SOL     OW 2089   0.797   1.496   2.139  0.5154  0.1904 -0.2299
  523SOL    HW1 2090   0.780   1.551   2.060  0.3969 -0.4640 -2.0682
  523SOL    HW2 2091   0.876   1.447   2.110 -0.3824  0.1171  1.3668
  523SOL     MW 2092   0.805   1.497   2.125  0.3813  0.0944 -0.2618
  524SOL     OW 2093   0.553   2.359   3.041  0.9835  0.3812  0.5910
  524SOL    HW1 2094   0.585   2.431   2.986 -0.2287 -0.9690  2.1843
  524SOL    HW2 2095   0.632   2.312   3.060 -3.1842  4.8180  0.8842
  524SOL     MW 2096   0.568   2.362   3.036  0.2737  0.7884  0.8399
  525SOL     OW 2097   0.298   2.163   2.131  0.2058 -0.0516 -0.2246
  525SOL    HW1 2098   0.262   2.111   2.206 -0.1176  2.6645 -0.7669
  525SOL    HW2 2099   0.326   2.091   2.072  0.9008  1.5852 -0.5855
  525SOL     MW 2100   0.297   2.147   2.133  0.2548  0.5228 -0.3438
  526SOL     OW 2101   0.665   2.097   1.935 -0.4986  0.0480  0.1373
  526SOL    HW1 2102   0.695   2.107   1.852 -3.1964 -0.7602 -2.1558
  526SOL    HW2 2103   0.740   2.121   1.989  1.9574  1.1300  2.1559
  526SOL     MW 2104   0.679   2.101   1.931 -0.5305  0.0841  0.1011
  527SOL     OW 2105   1.272   1.909   2.055 -0.3805  0.2704  0.2469
  527SOL    HW1 2106   1.252   1.920   2.150  1.1648 -1.4850  2.0567
  527SOL    HW2 2107   1.308   1.822   2.036  0.0925  3.4992  1.7490
  527SOL     MW 2108   1.274   1.899   2.065 -0.1142  0.4648  0.6839
  528SOL     OW 2109   0.621   2.901   2.924  0.0583  0.1528  0.8170
  528SOL    HW1 2110   0.697   2.956   2.928 -1.7020 -1.3918  0.8365
  528SOL    HW2 2111   0.588   2.905   2.837 -0.6979 -3.5274 -0.5841
  528SOL     MW 2112   0.627   2.909   2.913 -0.2738 -0.5366  0.6347
  529SOL     OW 2113   1.112   2.278   1.775 -0.2448  0.9676  0.3900
  529SOL    HW1 2114   1.168   2.207   1.799  1.0158  0.3833 -1.1651
  529SOL    HW2 2115   1.144   2.275   1.685  2.9088  0.9197  0.6122
  529SOL     MW 2116   1.123   2.268   1.766  0.3376  0.8842  0.2141
  530SOL     OW 2117   1.130   2.407   2.951 -0.5200 -0.4240 -0.1591
  530SOL    HW1 2118   1.051   2.435   2.994  2.5129 -1.7390  2.2423
  530SOL    HW2 2119   1.122   2.310   2.942  0.1876 -1.9765  0.3335
  530SOL     MW 2120   1.119   2.398   2.955 -0.0265 -0.8024  0.2227
  531SOL     OW 2121   0.895   1.831   2.603 -0.3520 -0.1101  0.6093
  531SOL    HW1 2122   0.892   1.900   2.679 -0.2000 -0.1611 -1.0305
  531SOL    HW2 2123   0.875   1.740   2.638  0.9295  0.5766 -2.1223
  531SOL     MW 2124   0.892   1.828   2.618 -0.1629 -0.0262  0.0325
  532SOL     OW 2125   1.710   0.365   2.773  0.6930 -0.0090  0.5164
  532SOL    HW1 2126   1.664   0.289   2.743 -0.7266 -0.5286 -0.7541
  532SOL    HW2 2127   1.739   0.342   2.860 -1.2163  1.3688 -0.0483
  532SOL     MW 2128   1.708   0.352   2.780  0.2538  0.1042  0.2742
  533SOL     OW 2129   1.785   2.854   2.939  0.5330 -0.4027 -0.3894
  533SOL    HW1 2130   1.761   2.786   3.006  1.0133  0.4563 -0.2123
  533SOL    HW2 2131   1.744   2.834   2.855  0.8343  0.8591  1.1156
  533SOL     MW 2132   1.776   2.843   2.937  0.6361 -0.1229 -0.1675
  534SOL     OW 2133   1.766   2.544   2.513  0.7917 -0.1213 -0.4813
  534SOL    HW1 2134   1.683   2.492   2.528 -2.8566 -1.9219  1.3248
  534SOL    HW2 2135   1.812   2.556   2.593 -2.2399 -2.1186 -0.7430
  534SOL     MW 2136   1.761   2.538   2.525 -0.0897 -0.6224 -0.2775
  535SOL     OW 2137   1.815   2.370   1.934 -0.7139  0.5056 -0.1869
  535SOL    HW1 2138   1.772   2.379   1.847  1.0666  0.9173  0.3767
  535SOL    HW2 2139   1.907   2.389   1.922  0.2349  0.3489  0.5512
  535SOL     MW 2140   1.821   2.373   1.921 -0.3538  0.5392 -0.0152
  536SOL     OW 2141   0.385   1.951   1.997 -0.2708 -0.5100 -0.1506
  536SOL    HW1 2142   0.401   1.995   1.910 -0.5015 -1.1080 -1.8008
  536SOL    HW2 2143   0.471   1.932   2.033 -0.3145 -0.6658  1.0169
  536SOL     MW 2144   0.398   1.954   1.990 -0.3070 -0.6095 -0.2143
  537SOL     OW 2145   1.053   0.162   2.956 -1.3605 -0.0218  0.2144
  537SOL    HW1 2146   1.016   0.126   3.034 -2.5367  0.0769  0.6751
  537SOL    HW2 2147   1.016   0.251   2.965 -0.0246 -2.4109 -0.3163
  537SOL     MW 2148   1.043   0.169   2.968 -1.3394 -0.3240  0.2051
  538SOL     OW 2149   1.327   0.102   2.967  0.1313 -0.0670  0.3976
  538SOL    HW1 2150   1.242   0.134   2.977  1.5365 -0.9672 -0.5673
  538SOL    HW2 2151   1.361   0.120   3.052 -1.5009  0.0118 -2.3739
  538SOL     MW 2152   1.321   0.109   2.980  0.1014 -0.1754 -0.0954
  539SOL     OW 2153   0.705   2.739   2.472 -0.2575  0.0032 -0.1704
  539SOL    HW1 2154   0.777   2.784   2.532  1.0406  1.0000 -2.7045
  539SOL    HW2 2155   0.736   2.645   2.474 -0.1731 -0.8023  0.5490
  539SOL     MW 2156   0.718   2.732   2.480 -0.0751  0.0284 -0.4098
  540SOL     OW 2157   0.365   2.267   2.850  0.5374 -0.3497 -0.2649
  540SOL    HW1 2158   0.432   2.305   2.903  0.1519  0.0280  1.0985
  540SOL    HW2 2159   0.324   2.204   2.908  1.6670  0.8152 -1.2130
  540SOL     MW 2160   0.369   2.264   2.864  0.6356 -0.1461 -0.2101
  541SOL     OW 2161   0.149   2.871   2.273  0.0809  0.2752 -0.4161
  541SOL    HW1 2162   0.147   2.790   2.219  2.9413 -1.4890  1.0002
  541SOL    HW2 2163   0.179   2.851   2.361 -0.4416  1.3980 -2.2285
  541SOL     MW 2164   0.152   2.858   2.277  0.3893  0.1906 -0.4684
  542SOL     OW 2165   0.859   2.332   2.807 -0.0499  0.3892 -0.6822
  542SOL    HW1 2166   0.856   2.265   2.881 -0.6566  2.4233 -2.3471
  542SOL    HW2 2167   0.947   2.372   2.794  0.0888 -0.4609 -0.6763
  542SOL     MW 2168   0.870   2.328   2.815 -0.1116  0.5454 -0.9011
  543SOL     OW 2169   1.361   2.669   2.597  0.0066 -0.4297  0.3007
  543SOL    HW1 2170   1.398   2.580   2.592  1.3537 -1.5921  1.5445
  543SOL    HW2 2171   1.435   2.727   2.626 -0.2477  1.5975 -1.6201
  543SOL     MW 2172   1.375   2.665   2.600  0.1508 -0.3156  0.2114
  544SOL     OW 2173   0.669   0.087   2.704 -0.0943  0.3096 -0.0971
  544SOL    HW1 2174   0.579   0.067   2.705  1.5045  1.0982 -0.3232
  544SOL    HW2 2175   0.695   0.055   2.614  1.0115  0.1965 -2.6420
  544SOL     MW 2176   0.660   0.080   2.693  0.2625  0.3987 -0.4627
  545SOL     OW 2177   1.527   2.194   2.404  0.5361 -0.4501 -0.0671
  545SOL    HW1 2178   1.472   2.122   2.423 -1.1104 -0.0209  0.8739
  545SOL    HW2 2179   1.595   2.148   2.363  0.2616  0.0290 -1.9400
  545SOL     MW 2180   1.529   2.178   2.401  0.2826 -0.3303 -0.1900
  546SOL     OW 2181   2.990   1.969   0.163  0.2106  0.4595 -0.0892
  546SOL    HW1 2182   2.967   2.057   0.118 -2.1025  2.3468 -1.1951
  546SOL    HW2 2183   3.051   1.923   0.107 -1.5659  1.9065 -0.1806
  546SOL     MW 2184   2.995   1.975   0.150 -0.3290  0.8994 -0.2471
  547SOL     OW 2185   0.135   2.881   0.074  0.3253  0.1833  0.5165
  547SOL    HW1 2186   0.167   2.918  -0.009  0.1150 -0.0505 -0.6467
  547SOL    HW2 2187   0.171   2.795   0.084  0.5456 -0.4262 -0.7436
  547SOL     MW 2188   0.144   2.874   0.064  0.3266  0.0720  0.1967
  548SOL     OW 2189   0.261   2.544   0.271  0.1386  0.0601 -0.0369
  548SOL    HW1 2190   0.290   2.557   0.181  2.5231 -0.2445 -1.8060
  548SOL    HW2 2191   0.164   2.549   0.262  1.3492 -2.0652 -0.0851
  548SOL     MW 2192   0.252   2.547   0.258  0.6130 -0.2605 -0.2767
  549SOL     OW 2193   0.667   1.849   2.110  0.9306 -0.5770  0.7119
  549SOL    HW1 2194   0.734   1.921   2.095  0.9581  1.5137  0.8185
  549SOL    HW2 2195   0.683   1.840   2.203  1.8885  3.3280 -2.7801
  549SOL     MW 2196   0.678   1.857   2.121  1.0606  0.2140  0.2652
  550SOL     OW 2197   1.749   1.813   2.477  0.3622 -0.5066  0.1645
  550SOL    HW1 2198   1.731   1.833   2.384  0.1294  3.5372 -0.8885
  550SOL    HW2 2199   1.756   1.898   2.520 -0.9957  1.5290  1.5248
  550SOL     MW 2200   1.747   1.827   2.470  0.1523  0.2955  0.2051
  551SOL     OW 2201   0.861   2.377   0.205  0.3546 -0.3759 -0.0508
  551SOL    HW1 2202   0.942   2.425   0.208 -0.8301 -0.7949 -2.5933
  551SOL    HW2 2203   0.866   2.325   0.128  0.0931  1.4714  1.6020
  551SOL     MW 2204   0.873   2.376   0.196  0.1638 -0.1874 -0.1682
  552SOL     OW 2205   1.684   1.818   2.200 -0.5139 -0.6578  0.2477
  552SOL    HW1 2206   1.600   1.764   2.214 -1.5725 -0.7350  2.8316
  552SOL    HW2 2207   1.732   1.758   2.143 -0.9855  0.8703 -2.2982
  552SOL     MW 2208   1.679   1.803   2.195 -0.7158 -0.4664  0.2527
  553SOL     OW 2209   1.236   2.281   1.540  0.5929  0.2383  0.1554
  553SOL    HW1 2210   1.290   2.200   1.547 -0.6463 -0.0585 -1.9840
  553SOL    HW2 2211   1.296   2.353   1.516 -0.8404  0.8482  1.9327
  553SOL     MW 2212   1.251   2.280   1.538  0.2403  0.2796  0.1076
  554SOL     OW 2213   0.540   2.888   2.669  0.2454 -0.1248  0.8732
  554SOL    HW1 2214   0.473   2.948   2.633 -1.2169  1.6912  1.7545
  554SOL    HW2 2215   0.583   2.843   2.596 -0.8100 -0.5386 -0.3455
  554SOL     MW 2216   0.537   2.890   2.654 -0.0868  0.0602  0.8287
  555SOL     OW 2217   0.588   2.424   2.650  0.8121 -0.0538  0.0809
  555SOL    HW1 2218   0.552   2.331   2.643 -2.3405 -0.0953 -1.7508
  555SOL    HW2 2219   0.682   2.430   2.631  2.3736 -1.2468 -4.4613
  555SOL     MW 2220   0.596   2.412   2.647  0.6022 -0.2166 -0.7601
  556SOL     OW 2221   1.041   1.840   0.123  0.4079  0.1561 -0.0770
  556SOL    HW1 2222   1.038   1.804   0.036  0.8531 -1.1441 -1.3311
  556SOL    HW2 2223   1.134   1.840   0.148 -1.3647  3.2822  0.5081
  556SOL     MW 2224   1.053   1.835   0.115  0.2328  0.3970 -0.1652
  557SOL     OW 2225   0.995   2.644   0.449 -0.3196 -0.5404 -0.2502
  557SOL    HW1 2226   1.071   2.643   0.386  1.2572  0.5065  0.2098
  557SOL    HW2 2227   0.945   2.722   0.424 -1.8014  1.3140  0.2111
  557SOL     MW 2228   0.999   2.654   0.437 -0.3071 -0.1576 -0.1286
  558SOL     OW 2229   0.264   2.112   3.075  0.0478  0.5109  0.0774
  558SOL    HW1 2230   0.218   2.024   3.083  2.0021 -0.9262  2.2397
  558SOL    HW2 2231   0.214   2.181   3.138 -0.7024 -0.2862  2.5448
  558SOL     MW 2232   0.252   2.109   3.084  0.2067  0.2161  0.6883
  559SOL     OW 2233   1.231   2.219   2.030  0.3461  0.2373 -0.4207
  559SOL    HW1 2234   1.191   2.303   2.053 -0.3125  2.3605  0.8829
  559SOL    HW2 2235   1.221   2.160   2.103 -0.7249  0.4684 -0.5597
  559SOL     MW 2236   1.224   2.222   2.043  0.1179  0.5479 -0.2670
  560SOL     OW 2237   1.929   2.933   0.058  0.0684  0.3339 -0.1396
  560SOL    HW1 2238   2.003   2.949   0.001  1.1281 -1.3575 -0.3191
  560SOL    HW2 2239   1.866   2.923  -0.014 -2.9950 -1.2326 -0.0549
  560SOL     MW 2240   1.930   2.934   0.041 -0.1959 -0.0959 -0.1521
  561SOL     OW 2241   0.409   2.075   0.200  0.5100 -0.2842 -0.4185
  561SOL    HW1 2242   0.379   2.080   0.109 -0.0970  0.7238 -2.4143
  561SOL    HW2 2243   0.398   2.170   0.239  2.5383 -0.3916 -2.3784
  561SOL     MW 2244   0.403   2.088   0.193  0.6976 -0.1654 -0.9404
  562SOL     OW 2245   0.859   2.118   2.129 -0.1524  0.1297  0.2358
  562SOL    HW1 2246   0.794   2.145   2.193 -0.2916 -2.3861  1.4317
  562SOL    HW2 2247   0.947   2.128   2.174  5.4577 -4.1313 -1.1574
  562SOL     MW 2248   0.862   2.123   2.143  0.5694 -0.7644  0.2097
  563SOL     OW 2249   1.280   0.288   0.465  0.2757  0.4926  0.3876
  563SOL    HW1 2250   1.202   0.251   0.424 -2.5205 -0.7045  0.1578
  563SOL    HW2 2251   1.319   0.227   0.530 -0.0150  0.2153 -2.7005
  563SOL     MW 2252   1.275   0.275   0.468 -0.1316  0.2981 -0.0501
  564SOL     OW 2253   1.033   2.535   2.335 -0.3404  0.2785  0.3658
  564SOL    HW1 2254   1.091   2.510   2.262 -1.6229 -1.3019 -0.4563
  564SOL    HW2 2255   1.073   2.611   2.378 -5.4523 -1.3536  0.2172
  564SOL     MW 2256   1.046   2.542   2.331 -1.1841 -0.1454  0.2377
  565SOL     OW 2257   2.912   2.653   2.664  0.4823  0.0988  0.8723
  565SOL    HW1 2258   2.958   2.732   2.646 -1.3326 -0.7940  0.1540
  565SOL    HW2 2259   2.868   2.641   2.583  0.1206 -2.6801 -0.9863
  565SOL     MW 2260   2.912   2.662   2.651  0.1951 -0.3857  0.5323
  566SOL     OW 2261   2.165   2.105   2.347 -0.4477 -0.2024 -0.3994
  566SOL    HW1 2262   2.181   2.107   2.252  0.1548 -1.9496  0.5012
  566SOL    HW2 2263   2.244   2.142   2.387 -0.4486  0.2867 -1.6747
  566SOL     MW 2264   2.178   2.110   2.339 -0.3683 -0.3684 -0.4488
  567SOL     OW 2265   1.113   2.874   0.166  0.2694  0.2347 -0.3099
  567SOL    HW1 2266   1.111   2.959   0.203 -0.9749 -1.8792  1.0291
  567SOL    HW2 2267   1.157   2.881   0.084  1.8501  0.4360 -1.5412
  567SOL     MW 2268   1.119   2.886   0.160  0.3138 -0.0177 -0.2957
  568SOL     OW 2269   1.643   2.146   2.796  0.2138 -0.2220 -0.4318
  568SOL    HW1 2270   1.693   2.219   2.838 -4.9683  1.1213  0.1881
  568SOL    HW2 2271   1.699   2.115   2.728  0.0780  1.4838 -1.9320
  568SOL     MW 2272   1.657   2.152   2.793 -0.4879  0.1803 -0.5479
  569SOL     OW 2273   0.039   2.219   2.508 -0.2446  0.4438  0.1758
  569SOL    HW1 2274  -0.018   2.272   2.464 -0.8065  0.7959  1.9270
  569SOL    HW2 2275   0.101   2.276   2.551 -2.2538  0.2626  0.1985
  569SOL     MW 2276   0.040   2.233   2.508 -0.5838  0.4664  0.4099
  570SOL     OW 2277   1.564   0.344   0.455 -0.3383 -0.2576 -0.0429
  570SOL    HW1 2278   1.473   0.331   0.481 -1.8269 -0.5855  1.6747
  570SOL    HW2 2279   1.603   0.386   0.530  2.1329 -0.8777  0.5259
  570SOL     MW 2280   1.557   0.348   0.469 -0.2087 -0.3827  0.2588
  571SOL     OW 2281   1.448   2.424   1.947 -0.2826  0.2852  0.6789
  571SOL    HW1 2282   1.439   2.412   2.043  0.8669  1.1005 -0.9786
  571SOL    HW2 2283   1.463   2.333   1.937 -0.8668 -0.0591  1.0607
  571SOL     MW 2284   1.449   2.411   1.959 -0.2080  0.3474  0.5106
  572SOL     OW 2285   0.902   2.548   3.044  0.1400 -0.1426 -0.1339
  572SOL    HW1 2286   0.850   2.574   2.966 -2.0439 -0.6519 -1.6088
  572SOL    HW2 2287   0.847   2.572   3.120  2.9229 -2.1362  2.5690
  572SOL     MW 2288   0.888   2.555   3.043  0.2190 -0.4729  0.0281
  573SOL     OW 2289   1.140   2.402   0.207  0.2703  0.3976 -0.0310
  573SOL    HW1 2290   1.205   2.355   0.156 -1.9822  2.2966  0.0681
  573SOL    HW2 2291   1.184   2.480   0.239  1.7812  2.1008 -0.2354
  573SOL     MW 2292   1.154   2.406   0.204  0.1725  0.8729 -0.0449
  574SOL     OW 2293   1.229   2.672   0.290  0.4702 -0.5895 -0.3233
  574SOL    HW1 2294   1.310   2.704   0.327 -0.9115 -0.4202 -0.9535
  574SOL    HW2 2295   1.203   2.750   0.240 -0.9361 -1.7976 -3.0128
  574SOL     MW 2296   1.236   2.687   0.288  0.1024 -0.7265 -0.7613
  575SOL     OW 2297   3.082   2.254   1.861  0.1149  0.0695 -1.1248
  575SOL    HW1 2298   3.063   2.169   1.824  1.0671  0.7161  2.2814
  575SOL    HW2 2299   3.120   2.309   1.794  0.6874  1.0831  0.0310
  575SOL     MW 2300   3.085   2.250   1.848  0.3160  0.2885 -0.5229
  576SOL     OW 2301   2.746   1.846   2.079  0.4560  0.0581 -0.2776
  576SOL    HW1 2302   2.786   1.894   2.008  0.2693 -4.1986  0.8323
  576SOL    HW2 2303   2.658   1.841   2.043 -0.6081  1.9457  0.7497
  576SOL     MW 2304   2.740   1.852   2.065  0.2910 -0.2545  0.0044
  577SOL     OW 2305   2.052   0.356   0.075  0.4669 -0.0205  0.0520
  577SOL    HW1 2306   1.995   0.408   0.023  1.2115 -0.1211  2.0908
  577SOL    HW2 2307   1.989   0.293   0.114 -4.4123 -0.1751  0.9550
  577SOL     MW 2308   2.037   0.354   0.073 -0.0786 -0.0542  0.4402
  578SOL     OW 2309   1.905   2.198   2.373  0.9101  0.0581 -0.1736
  578SOL    HW1 2310   1.857   2.192   2.295 -0.8856  0.0825  2.8733
  578SOL    HW2 2311   1.994   2.149   2.365  0.9713 -1.0805 -1.1589
  578SOL     MW 2312   1.910   2.191   2.362  0.6813 -0.0889  0.0984
  579SOL     OW 2313   0.822   2.497   2.505 -0.1338  0.3914 -0.3525
  579SOL    HW1 2314   0.869   2.513   2.585 -1.7499  0.2587 -2.0623
  579SOL    HW2 2315   0.895   2.515   2.437 -0.9112  0.4308 -1.2587
  579SOL     MW 2316   0.838   2.502   2.507 -0.4496  0.3791 -0.6977
  580SOL     OW 2317   0.901   2.875   3.061 -0.7453 -0.5370  0.0265
  580SOL    HW1 2318   0.984   2.820   3.078  0.3129 -1.9274 -0.5539
  580SOL    HW2 2319   0.861   2.824   2.985 -0.9403  1.4398 -1.7681
  580SOL     MW 2320   0.907   2.861   3.053 -0.6314 -0.4596 -0.2869
  581SOL     OW 2321   1.059   2.553   1.766  0.0425  0.0492 -0.0305
  581SOL    HW1 2322   1.154   2.570   1.780  1.5221 -2.9332 -3.3317
  581SOL    HW2 2323   1.064   2.456   1.745  0.8023  0.2055 -0.6644
  581SOL     MW 2324   1.072   2.543   1.765  0.3380 -0.3237 -0.5497
  582SOL     OW 2325   3.082   2.886   2.635  0.5845  0.2505  0.0831
  582SOL    HW1 2326   3.080   2.946   2.709  1.1914 -1.9941 -0.4966
  582SOL    HW2 2327   3.176   2.889   2.603  0.7354  0.2599  1.4688
  582SOL     MW 2328   3.094   2.894   2.641  0.6845 -0.0444  0.1895
  583SOL     OW 2329   1.942   2.517   2.736 -0.3431 -0.6551 -0.0234
  583SOL    HW1 2330   2.001   2.550   2.666  4.9511 -2.1827 -1.7431
  583SOL    HW2 2331   1.938   2.423   2.712  0.8169 -0.1592 -1.8046
  583SOL     MW 2332   1.949   2.509   2.724  0.5084 -0.7913 -0.4853
  584SOL     OW 2333   0.172   1.840   2.117  0.1153 -0.1662 -0.4413
  584SOL    HW1 2334   0.255   1.869   2.075 -1.9227  0.4432 -0.9427
  584SOL    HW2 2335   0.162   1.895   2.193 -1.4879 -1.3961 -0.3413
  584SOL     MW 2336   0.182   1.851   2.121 -0.3651 -0.2480 -0.4943
  585SOL     OW 2337   1.467   2.550   0.080 -0.9053 -0.0364 -0.8007
  585SOL    HW1 2338   1.443   2.615   0.016 -1.2214 -3.6987  2.3153
  585SOL    HW2 2339   1.467   2.591   0.171 -0.3736  1.4420  1.6309
  585SOL     MW 2340   1.463   2.564   0.084 -0.8769 -0.3246 -0.0688
  586SOL     OW 2341   1.259   2.965   2.331 -0.0018  0.1014 -0.3054
  586SOL    HW1 2342   1.321   2.896   2.308 -0.6189  3.3374 -1.1456
  586SOL    HW2 2343   1.271   2.971   2.425  0.4518 -1.0828 -0.2859
  586SOL     MW 2344   1.268   2.956   2.341 -0.0234  0.3721 -0.4137
  587SOL     OW 2345   1.192   1.618   2.178  0.2885 -0.1493 -0.0834
  587SOL    HW1 2346   1.222   1.561   2.247 -0.4735  0.8695 -1.7756
  587SOL    HW2 2347   1.182   1.556   2.100 -0.0145  0.3997 -4.0012
  587SOL     MW 2348   1.195   1.602   2.177  0.1480  0.0576 -0.8236
  588SOL     OW 2349   1.376   2.217   2.735  0.2746  0.0798  0.2748
  588SOL    HW1 2350   1.469   2.194   2.748 -0.6775  2.3633  0.4039
  588SOL    HW2 2351   1.308   2.157   2.776 -1.6150 -5.2233  3.9630
  588SOL     MW 2352   1.379   2.206   2.742 -0.1003 -0.3186  0.7784
  589SOL     OW 2353   1.321   2.041   0.001 -0.0735 -0.0578  0.4642
  589SOL    HW1 2354   1.311   2.131   0.033  1.3872  2.4837  2.1889
  589SOL    HW2 2355   1.316   1.992   0.084 -3.5419  0.8198 -0.2736
  589SOL     MW 2356   1.319   2.046   0.016 -0.3384  0.3933  0.5944
  590SOL     OW 2357   0.448   2.541   2.245  0.1949  0.4858 -0.2027
  590SOL    HW1 2358   0.393   2.579   2.172  0.1368  0.0822 -1.1855
  590SOL    HW2 2359   0.521   2.515   2.188  0.8383 -0.0431  0.9568
  590SOL     MW 2360   0.450   2.542   2.228  0.2721  0.3628 -0.1794
  591SOL     OW 2361   2.226   0.680   3.021 -0.1762 -0.3836 -0.1040
  591SOL    HW1 2362   2.156   0.662   2.959 -2.1470 -0.9525 -2.7255
  591SOL    HW2 2363   2.307   0.662   2.972  0.2227 -0.5444  2.0018
  591SOL     MW 2364   2.227   0.676   3.006 -0.3836 -0.4799 -0.1720
  592SOL     OW 2365   1.871   2.878   0.816 -0.9796 -0.0842  0.1813
  592SOL    HW1 2366   1.887   2.935   0.740 -2.8921  2.7536 -2.5298
  592SOL    HW2 2367   1.934   2.807   0.808  1.2009  4.1450  0.7087
  592SOL     MW 2368   1.881   2.876   0.805 -0.9443  0.8482 -0.1068
  593SOL     OW 2369   1.908   0.834   0.909  0.1239  0.1891 -0.2873
  593SOL    HW1 2370   1.833   0.830   0.852 -0.6898  1.3414  2.1139
  593SOL    HW2 2371   1.930   0.736   0.920  4.0669 -0.0052  1.2809
  593SOL     MW 2372   1.901   0.821   0.903  0.5368  0.3155  0.2364
  594SOL     OW 2373   2.773   1.104   1.422  0.0643  0.1079 -0.5336
  594SOL    HW1 2374   2.858   1.144   1.421 -1.0937 -0.7720 -2.2965
  594SOL    HW2 2375   2.756   1.070   1.333 -1.7523 -1.2790 -0.7053
  594SOL     MW 2376   2.782   1.105   1.410 -0.3282 -0.1912 -0.7888
  595SOL     OW 2377   0.419   0.993   0.708 -0.3586  0.1961  0.8378
  595SOL    HW1 2378   0.503   1.038   0.663  2.8711  2.2506 -0.3710
  595SOL    HW2 2379   0.423   1.028   0.803 -0.8423  1.1466 -0.5915
  595SOL     MW 2380   0.431   1.003   0.715  0.0037  0.5925  0.4897
  596SOL     OW 2381   2.427   1.343   0.604 -0.5073  0.1241  0.5583
  596SOL    HW1 2382   2.472   1.427   0.586 -0.9837  0.5644 -0.2340
  596SOL    HW2 2383   2.497   1.294   0.657 -1.0882 -2.4389 -0.9788
  596SOL     MW 2384   2.442   1.348   0.609 -0.6468 -0.1559  0.2510
  597SOL     OW 2385   2.301   0.666   1.707 -0.3128  0.2435 -0.2470
  597SOL    HW1 2386   2.316   0.601   1.783  2.0257 -4.2390  2.2984
  597SOL    HW2 2387   2.338   0.612   1.635  1.2066  1.4610  0.0302
  597SOL     MW 2388   2.308   0.650   1.708  0.1962 -0.1873  0.1254
  598SOL     OW 2389   2.617   1.029   2.806 -0.0782 -0.8058 -0.2182
  598SOL    HW1 2390   2.645   0.947   2.765  0.7178  0.1154 -1.3749
  598SOL    HW2 2391   2.685   1.057   2.859  0.0825 -0.1302 -1.8754
  598SOL     MW 2392   2.630   1.022   2.807  0.0480 -0.5951 -0.5895
  599SOL     OW 2393   2.902   0.366   2.094  0.3918  0.1421  0.0309
  599SOL    HW1 2394   2.890   0.359   2.188  0.5679  1.5738 -1.2387
  599SOL    HW2 2395   2.951   0.447   2.083  0.9224 -0.1952 -1.3894
  599SOL     MW 2396   2.907   0.376   2.105  0.4850  0.2865 -0.3240
  600SOL     OW 2397   1.847   1.631   0.863  0.2415 -0.5412  0.1812
  600SOL    HW1 2398   1.864   1.607   0.959  0.3979  1.0592  1.8808
  600SOL    HW2 2399   1.761   1.670   0.864  0.7635 -0.7220 -2.3475
  600SOL     MW 2400   1.838   1.633   0.876  0.3310 -0.3539  0.0718
  601SOL     OW 2401   2.456   0.727   0.881 -0.0856  0.2042 -0.0252
  601SOL    HW1 2402   2.498   0.742   0.967 -1.8167  1.2490  0.5933
  601SOL    HW2 2403   2.370   0.701   0.926  0.0585  0.8385  2.0004
  601SOL     MW 2404   2.450   0.725   0.899 -0.2950  0.4257  0.3237
  602SOL     OW 2405   2.284   1.937   0.743 -0.6530 -0.2835 -0.2715
  602SOL    HW1 2406   2.219   1.869   0.771  2.1854 -1.8263 -1.9745
  602SOL    HW2 2407   2.272   1.941   0.649 -1.4517  0.6700 -2.6458
  602SOL     MW 2408   2.274   1.929   0.734 -0.3839 -0.3613 -0.8095
  603SOL     OW 2409   3.015   1.365   1.845 -0.0709 -0.3421 -0.1070
  603SOL    HW1 2410   3.103   1.388   1.869 -1.1967 -2.6981  3.3536
  603SOL    HW2 2411   3.029   1.281   1.809 -1.2046  0.2842 -1.1655
  603SOL     MW 2412   3.028   1.357   1.844 -0.3691 -0.5703  0.2100
  604SOL     OW 2413   2.093   1.521   0.479 -0.8593 -0.1137  0.1661
  604SOL    HW1 2414   2.107   1.464   0.555 -1.7847 -0.1903  0.3763
  604SOL    HW2 2415   2.033   1.587   0.510 -0.8236  1.3705  2.5811
  604SOL     MW 2416   2.087   1.522   0.493 -0.9767  0.0721  0.5124
  605SOL     OW 2417   2.668   1.553   0.821  0.2384 -0.6275 -0.4361
  605SOL    HW1 2418   2.610   1.605   0.767 -0.5230  2.4357 -1.7567
  605SOL    HW2 2419   2.601   1.524   0.881 -1.3689  1.3634  2.3893
  605SOL     MW 2420   2.652   1.556   0.822 -0.0742  0.0394 -0.2375
  606SOL     OW 2421   2.543   1.830   1.892 -0.0604  0.1715 -0.2606
  606SOL    HW1 2422   2.454   1.806   1.914 -0.0219 -1.3409  3.7526
  606SOL    HW2 2423   2.577   1.742   1.876 -2.8450 -0.1989 -2.7961
  606SOL     MW 2424   2.536   1.815   1.893 -0.4227 -0.0769 -0.0656
  607SOL     OW 2425   2.393   1.045   2.963 -0.0041 -0.0321  0.5269
  607SOL    HW1 2426   2.489   1.046   2.936  1.6625 -0.7135 -1.3934
  607SOL    HW2 2427   2.385   1.040   3.056 -0.0056 -1.9604 -2.6775
  607SOL     MW 2428   2.405   1.045   2.972  0.2156 -0.3764 -0.1492
  608SOL     OW 2429   1.909   0.285   0.676 -0.6171 -0.3949 -0.1500
  608SOL    HW1 2430   1.948   0.297   0.591 -0.3245 -2.5232  2.1267
  608SOL    HW2 2431   1.888   0.188   0.679  1.3210 -0.4738 -3.0305
  608SOL     MW 2432   1.911   0.274   0.665 -0.3228 -0.6861 -0.2296
  609SOL     OW 2433   2.115   1.957   3.007  0.2138  0.0270 -0.4754
  609SOL    HW1 2434   2.046   1.892   3.017 -0.2689  1.5884  2.7825
  609SOL    HW2 2435   2.173   1.938   3.080 -0.0622 -1.5053 -1.7604
  609SOL     MW 2436   2.114   1.946   3.018  0.1137  0.0308 -0.2151
  610SOL     OW 2437   1.835   1.079   1.373 -0.2176 -0.1957  0.4139
  610SOL    HW1 2438   1.846   1.018   1.298  1.3857 -0.9922  2.5813
  610SOL    HW2 2439   1.757   1.042   1.424  0.0177 -0.8444  0.5955
  610SOL     MW 2440   1.826   1.066   1.370  0.0250 -0.3864  0.7238
  611SOL     OW 2441   2.534   1.816   0.734 -0.3772 -0.7510 -0.1429
  611SOL    HW1 2442   2.447   1.853   0.760 -2.8244  0.5979  1.9951
  611SOL    HW2 2443   2.503   1.799   0.642 -1.6592 -0.2206 -0.6680
  611SOL     MW 2444   2.518   1.818   0.725 -0.8692 -0.5030  0.0699
  612SOL     OW 2445   2.766   2.788   0.376 -0.1803 -0.0890  0.3399
  612SOL    HW1 2446   2.846   2.833   0.410 -1.0631 -1.5304 -0.6022
  612SOL    HW2 2447   2.778   2.780   0.283  1.7232  0.8687  1.3414
  612SOL     MW 2448   2.778   2.793   0.368 -0.0456 -0.1528  0.3478
  613SOL     OW 2449   1.639   1.003   1.100  0.1820 -0.1148  0.1684
  613SOL    HW1 2450   1.624   1.069   1.168  1.0567  0.0655 -1.3920
  613SOL    HW2 2451   1.725   0.965   1.117 -0.4762  1.2494  0.5545
  613SOL     MW 2452   1.649   1.007   1.111  0.2106  0.0890  0.0135
  614SOL     OW 2453   2.045   0.507   1.515 -0.8143  0.0983 -0.1350
  614SOL    HW1 2454   2.073   0.432   1.572  0.0756 -0.3944 -0.0145
  614SOL    HW2 2455   2.081   0.495   1.428 -2.2129  3.5377  0.2734
  614SOL     MW 2456   2.053   0.496   1.511 -0.8815  0.4871 -0.0652
  615SOL     OW 2457   2.243   0.805   0.183 -0.1356 -0.6282  0.2301
  615SOL    HW1 2458   2.305   0.742   0.220  3.3761  0.3647 -1.4894
  615SOL    HW2 2459   2.230   0.777   0.089 -2.1041 -0.5409 -0.2551
  615SOL     MW 2460   2.249   0.793   0.175  0.0680 -0.4857 -0.0608
  616SOL     OW 2461   2.621   0.366   1.621  0.2938 -0.2699  0.4980
  616SOL    HW1 2462   2.555   0.306   1.590  1.4203 -0.6923  1.4071
  616SOL    HW2 2463   2.631   0.423   1.548 -0.7224 -1.5255 -0.3698
  616SOL     MW 2464   2.613   0.366   1.608  0.3084 -0.4913  0.5035
  617SOL     OW 2465   2.901   0.564   1.757  0.7650  0.1109 -0.4019
  617SOL    HW1 2466   2.815   0.575   1.791 -0.0772  0.0962 -0.6967
  617SOL    HW2 2467   2.909   0.470   1.732 -2.1547  1.0265 -0.3942
  617SOL     MW 2468   2.891   0.553   1.758  0.2686  0.2297 -0.4398
  618SOL     OW 2469   2.666   0.348   1.938 -0.0102  0.2819 -0.2478
  618SOL    HW1 2470   2.653   0.430   1.886  2.7311  2.9631  0.7668
  618SOL    HW2 2471   2.753   0.347   1.985 -0.4675 -0.6008 -0.9350
  618SOL     MW 2472   2.676   0.359   1.937  0.2912  0.5192 -0.2046
  619SOL     OW 2473   2.571   0.784   0.153 -0.3878  0.6075  0.2027
  619SOL    HW1 2474   2.645   0.831   0.194  1.4163 -1.0363 -0.8110
  619SOL    HW2 2475   2.524   0.747   0.226  0.8616 -0.4570  0.7953
  619SOL     MW 2476   2.574   0.785   0.168  0.0151  0.2501  0.1471
  620SOL     OW 2477   2.296   1.137   0.927 -0.0294  0.2109  0.6494
  620SOL    HW1 2478   2.374   1.111   0.879  0.8655  1.3791 -2.1073
  620SOL    HW2 2479   2.230   1.076   0.905 -0.2305  1.5941 -0.4503
  620SOL     MW 2480   2.297   1.126   0.918  0.0621  0.5476  0.1406
  621SOL     OW 2481   1.495   2.164   1.970  0.5244 -0.1666 -0.0142
  621SOL    HW1 2482   1.411   2.184   2.006  2.6971  0.3495  2.7830
  621SOL    HW2 2483   1.542   2.138   2.051  1.2714 -1.9756 -0.7677
  621SOL     MW 2484   1.490   2.163   1.986  0.9096 -0.3372  0.2554
  622SOL     OW 2485   2.628   0.227   0.094 -0.1918  0.1950  0.0529
  622SOL    HW1 2486   2.710   0.257   0.132  1.6602 -1.2654 -0.7466
  622SOL    HW2 2487   2.655   0.135   0.070  0.2556 -0.3897 -0.0246
  622SOL     MW 2488   2.643   0.219   0.096  0.1116 -0.0749 -0.0628
  623SOL     OW 2489   2.427   2.768   0.836 -0.4565 -0.2609 -0.0999
  623SOL    HW1 2490   2.479   2.850   0.827  1.8505  1.0661  0.4583
  623SOL    HW2 2491   2.352   2.780   0.897  0.8890  0.2241 -0.2927
  623SOL     MW 2492   2.424   2.780   0.843  0.0255 -0.0219 -0.0517
  624SOL     OW 2493   2.208   1.631   2.893  0.1625 -0.4388  0.4882
  624SOL    HW1 2494   2.148   1.561   2.925 -1.0074 -0.4205 -0.3129
  624SOL    HW2 2495   2.145   1.697   2.862  1.3314  3.2137  0.5273
  624SOL     MW 2496   2.192   1.630   2.893  0.1623  0.0456  0.3877
  625SOL     OW 2497   2.219   1.942   1.075  0.1556 -0.0833  0.6832
  625SOL    HW1 2498   2.289   1.913   1.133 -0.3584 -0.7163  0.0320
  625SOL    HW2 2499   2.262   1.978   1.002 -0.9974 -1.0665  0.0397
  625SOL     MW 2500   2.234   1.943   1.073 -0.0644 -0.2965  0.5124
  626SOL     OW 2501   0.109   1.572   2.413 -0.3733  0.4302  0.3944
  626SOL    HW1 2502   0.034   1.561   2.352  2.6054  2.1733 -0.0521
  626SOL    HW2 2503   0.067   1.568   2.502 -0.7956 -2.2992  0.8541
  626SOL     MW 2504   0.094   1.570   2.416 -0.0360  0.3001  0.3961
  627SOL     OW 2505   2.445   0.804   2.595 -0.0161  0.1849 -0.2052
  627SOL    HW1 2506   2.386   0.881   2.574  0.3255  2.6625 -0.2308
  627SOL    HW2 2507   2.436   0.747   2.518 -0.8576  2.0811 -0.1404
  627SOL     MW 2508   2.436   0.806   2.582 -0.0820  0.7620 -0.2000
  628SOL     OW 2509   2.311   1.386   1.349  0.1992 -0.0470 -0.0042
  628SOL    HW1 2510   2.283   1.309   1.292 -0.6162  0.5766  0.5507
  628SOL    HW2 2511   2.409   1.391   1.335 -0.9422  0.8627  0.5833
  628SOL     MW 2512   2.321   1.376   1.340 -0.0590  0.1553  0.1466
  629SOL     OW 2513   2.052   0.537   1.227 -0.2896  0.6313 -0.0413
  629SOL    HW1 2514   2.097   0.623   1.221 -0.6697 -1.0924  0.5599
  629SOL    HW2 2515   1.959   0.559   1.254 -1.9190  0.0796  3.0404
  629SOL     MW 2516   2.046   0.551   1.229 -0.5547  0.3311  0.4446
  630SOL     OW 2517   2.489   1.828   3.080  0.1247  0.2594  0.7274
  630SOL    HW1 2518   2.436   1.848   3.004  0.8743  1.2755 -0.6632
  630SOL    HW2 2519   2.430   1.794   3.139  2.2308  0.4368  0.0483
  630SOL     MW 2520   2.474   1.826   3.078  0.5015  0.4169  0.4543
  631SOL     OW 2521   1.979   1.792   1.623  0.0058 -0.5181 -0.1642
  631SOL    HW1 2522   1.999   1.713   1.681  0.4581  1.1933 -0.3266
  631SOL    HW2 2523   1.984   1.755   1.531 -0.2174  0.5544  1.9439
  631SOL     MW 2524   1.983   1.776   1.618  0.0360 -0.1508  0.0925
  632SOL     OW 2525   0.164   2.060   1.591  0.2242  0.6260  0.2915
  632SOL    HW1 2526   0.069   2.053   1.623  2.0436  1.1476  0.5069
  632SOL    HW2 2527   0.177   1.969   1.554  0.5045 -0.1345  2.4760
  632SOL     MW 2528   0.153   2.047   1.591  0.5013  0.5945  0.6082
  633SOL     OW 2529   2.427   0.694   0.362  0.2240 -0.1561 -0.6765
  633SOL    HW1 2530   2.504   0.701   0.424 -0.4054  2.2401  1.6567
  633SOL    HW2 2531   2.393   0.604   0.381  3.0644  3.4120  0.5557
  633SOL     MW 2532   2.433   0.683   0.373  0.5157  0.6308 -0.2061
  634SOL     OW 2533   2.593   3.085   0.599  0.4740  0.1110  0.4946
  634SOL    HW1 2534   2.619   3.174   0.586  0.9989  0.2554  3.4091
  634SOL    HW2 2535   2.561   3.052   0.513  0.0794  1.8913 -1.5649
  634SOL     MW 2536   2.592   3.092   0.586  0.4912  0.3650  0.6074
  635SOL     OW 2537   2.620   0.083   1.847  0.3031  0.1746 -0.5024
  635SOL    HW1 2538   2.693   0.030   1.801  2.0991  1.4777 -0.3727
  635SOL    HW2 2539   2.648   0.175   1.851  2.5977  0.4807 -1.0923
  635SOL     MW 2540   2.634   0.088   1.841  0.8428  0.3869 -0.5632
  636SOL     OW 2541   2.935   1.679   1.007 -0.4809  0.3350  0.6117
  636SOL    HW1 2542   2.861   1.724   0.956 -1.7900 -1.5535  1.7365
  636SOL    HW2 2543   2.941   1.729   1.090  0.7113  2.2222 -2.3127
  636SOL     MW 2544   2.926   1.691   1.011 -0.4964  0.3349  0.3742
  637SOL     OW 2545   2.889   1.473   0.693  0.4418  0.6187  0.2194
  637SOL    HW1 2546   2.963   1.530   0.710 -0.5806 -1.3453  0.3749
  637SOL    HW2 2547   2.818   1.501   0.755 -0.6521  1.3431  1.1254
  637SOL     MW 2548   2.889   1.484   0.703  0.1626  0.4552  0.3594
  638SOL     OW 2549   2.661   0.692   0.485 -0.0833 -0.0218 -0.3877
  638SOL    HW1 2550   2.749   0.675   0.451  0.0642  0.0951 -1.3561
  638SOL    HW2 2551   2.662   0.654   0.573 -0.4231 -1.0002 -0.7227
  638SOL     MW 2552   2.673   0.685   0.492 -0.1087 -0.1355 -0.5596
  639SOL     OW 2553   1.918   3.097   0.636  0.0975 -0.7098  0.2068
  639SOL    HW1 2554   1.844   3.104   0.577  0.7592  1.4558  0.5734
  639SOL    HW2 2555   1.991   3.084   0.578 -0.9438  1.9705 -5.4372
  639SOL     MW 2556   1.918   3.096   0.621  0.0474 -0.0704 -0.4895
  640SOL     OW 2557   0.385   1.403   0.114  0.1502 -0.4972  0.2985
  640SOL    HW1 2558   0.403   1.458   0.039 -1.4436 -1.0106 -1.1405
  640SOL    HW2 2559   0.353   1.320   0.073  0.4715 -0.8736  1.0377
  640SOL     MW 2560   0.383   1.399   0.099 -0.0177 -0.6146  0.2062
  641SOL     OW 2561   2.291   0.445   0.400  0.2406  0.4997 -0.8957
  641SOL    HW1 2562   2.308   0.416   0.312  3.8133  2.6900 -0.0105
  641SOL    HW2 2563   2.360   0.407   0.456  1.0685 -0.6560  2.6548
  641SOL     MW 2564   2.303   0.436   0.396  0.8213  0.6362 -0.3104
  642SOL     OW 2565   3.087   0.037   0.476  0.0469 -0.0570  0.0989
  642SOL    HW1 2566   3.057   0.125   0.493  1.1129 -0.3061  0.4648
  642SOL    HW2 2567   3.023  -0.015   0.524 -1.2013  1.2557 -1.7850
  642SOL     MW 2568   3.074   0.042   0.484  0.0229  0.0833 -0.1014
  643SOL     OW 2569   2.109   0.264   1.663 -0.6326  0.1760 -0.4657
  643SOL    HW1 2570   2.184   0.221   1.702 -1.5376  0.3680  0.1141
  643SOL    HW2 2571   2.082   0.220   1.583 -0.2116  0.6306  1.9912
  643SOL     MW 2572   2.115   0.252   1.658 -0.6965  0.2613 -0.0650
  644SOL     OW 2573   2.739   1.844   0.911 -0.0200 -0.5229 -0.3408
  644SOL    HW1 2574   2.708   1.833   0.999  0.5268 -0.6906  1.7382
  644SOL    HW2 2575   2.659   1.824   0.860  0.1814 -0.4186  1.4960
  644SOL     MW 2576   2.724   1.840   0.916  0.0787 -0.5312  0.1758
  645SOL     OW 2577   2.769   0.910   0.588 -0.4296  0.2029  0.5388
  645SOL    HW1 2578   2.827   0.867   0.652 -0.3791 -1.4272  1.3096
  645SOL    HW2 2579   2.728   0.833   0.546  0.8965 -0.5721  2.0787
  645SOL     MW 2580   2.771   0.895   0.591 -0.2480 -0.1145  0.8437
  646SOL     OW 2581   0.074   2.333   0.882  0.0548 -0.0207 -0.4429
  646SOL    HW1 2582   0.108   2.244   0.885 -0.6195 -0.8470  2.0548
  646SOL    HW2 2583   0.044   2.338   0.781  2.1702  1.9871  2.3796
  646SOL     MW 2584   0.074   2.322   0.869  0.2449  0.1352  0.2591
  647SOL     OW 2585   2.755   0.579   3.015 -0.2952  0.3459  0.2128
  647SOL    HW1 2586   2.679   0.529   3.024  0.5318  3.3350 -1.5404
  647SOL    HW2 2587   2.719   0.666   2.993 -1.3154  4.5754 -0.5336
  647SOL     MW 2588   2.740   0.584   3.013 -0.3207  1.2983 -0.1170
  648SOL     OW 2589   2.215   0.739   1.103  0.2938  0.3688 -0.3518
  648SOL    HW1 2590   2.206   0.789   1.023 -0.9390 -3.3959  0.8660
  648SOL    HW2 2591   2.211   0.805   1.172  0.1253 -1.9029  0.3554
  648SOL     MW 2592   2.213   0.754   1.102  0.1089 -0.4276 -0.0978
  649SOL     OW 2593   2.366   2.694   1.204 -0.1406  0.0155 -0.0733
  649SOL    HW1 2594   2.436   2.754   1.219  2.1738 -3.9905  1.2323
  649SOL    HW2 2595   2.405   2.610   1.185  0.6279  0.3088  0.3144
  649SOL     MW 2596   2.380   2.691   1.203  0.2662 -0.4744  0.1501
  650SOL     OW 2597   2.739   0.231   0.640 -0.0331  0.0298 -0.1533
  650SOL    HW1 2598   2.760   0.257   0.732  0.0872 -0.2565 -0.1384
  650SOL    HW2 2599   2.819   0.255   0.598 -2.1141 -0.3437  0.1436
  650SOL     MW 2600   2.752   0.238   0.647 -0.2918 -0.0573 -0.1122
  651SOL     OW 2601   3.040   0.276   0.820  0.1827  0.3279 -0.0931
  651SOL    HW1 2602   3.099   0.337   0.777  0.3019 -0.8381  0.0240
  651SOL    HW2 2603   2.951   0.319   0.821 -2.1444  0.2381 -1.7249
  651SOL     MW 2604   3.036   0.290   0.814 -0.1086  0.1622 -0.2930
  652SOL     OW 2605   2.406   1.468   2.975 -0.0609 -0.5560 -0.0546
  652SOL    HW1 2606   2.489   1.470   2.925  1.3155 -0.0514  2.2974
  652SOL    HW2 2607   2.352   1.546   2.953 -2.3395  0.9186  0.4296
  652SOL     MW 2608   2.410   1.479   2.966 -0.1799 -0.2949  0.3196
  653SOL     OW 2609   1.996   0.367   0.422 -0.5125 -0.2213 -0.3801
  653SOL    HW1 2610   1.981   0.293   0.356 -0.5873  1.2042 -2.8688
  653SOL    HW2 2611   2.092   0.374   0.429 -2.2789  0.1238  1.8300
  653SOL     MW 2612   2.007   0.358   0.414 -0.7554  0.0123 -0.4168
  654SOL     OW 2613   2.453   0.998   0.756  0.4292 -0.2634 -0.2831
  654SOL    HW1 2614   2.376   0.991   0.695 -0.1018 -2.6092  1.2491
  654SOL    HW2 2615   2.443   0.924   0.816 -0.1927  0.6460  0.2519
  654SOL     MW 2616   2.441   0.987   0.756  0.2771 -0.4529 -0.0104
  655SOL     OW 2617   3.063   0.940   0.436  0.0347 -0.1697  0.2289
  655SOL    HW1 2618   3.072   0.978   0.524  2.0248 -2.0973  0.0264
  655SOL    HW2 2619   3.112   0.859   0.445  0.6073 -1.1973 -0.6376
  655SOL     MW 2620   3.071   0.934   0.449  0.3728 -0.5596  0.0879
  656SOL     OW 2621   1.967   2.728   1.242  0.1845  0.1303 -0.0549
  656SOL    HW1 2622   1.948   2.822   1.260 -0.6839 -1.0989 -4.2154
  656SOL    HW2 2623   1.997   2.697   1.328 -1.1699  0.0264 -1.1703
  656SOL     MW 2624   1.968   2.736   1.256 -0.1088 -0.0456 -0.7510
  657SOL     OW 2625   0.224   1.647   1.274 -0.3252 -0.1333  0.5013
  657SOL    HW1 2626   0.149   1.586   1.277 -0.8372 -1.6257  1.2333
  657SOL    HW2 2627   0.246   1.664   1.183 -0.1398 -0.3225  2.2813
  657SOL     MW 2628   0.217   1.641   1.262 -0.3683 -0.3552  0.8327
  658SOL     OW 2629   2.657   1.341   0.262  0.1965  0.6112  0.3291
  658SOL    HW1 2630   2.604   1.267   0.292  3.2652 -0.6322 -0.1062
  658SOL    HW2 2631   2.696   1.376   0.345 -0.2961 -1.5662  0.3208
  658SOL     MW 2632   2.655   1.336   0.277  0.5364  0.1598  0.2706
  659SOL     OW 2633   2.220   1.538   1.020 -0.0630  0.3293 -0.4926
  659SOL    HW1 2634   2.314   1.512   1.008  3.0191 -0.5221  0.2731
  659SOL    HW2 2635   2.213   1.589   1.095 -1.3998 -0.5859  2.0131
  659SOL     MW 2636   2.232   1.541   1.028  0.1673  0.0962 -0.0610
  660SOL     OW 2637   2.016   1.553   1.787 -0.0230 -0.2737 -0.2565
  660SOL    HW1 2638   2.058   1.562   1.868  2.2989 -1.9661 -0.6020
  660SOL    HW2 2639   1.990   1.468   1.760  1.3802  1.9114  0.4843
  660SOL     MW 2640   2.018   1.543   1.794  0.4685 -0.2087 -0.2044
  661SOL     OW 2641   2.323   1.067   0.166 -0.3937  0.3050 -0.4735
  661SOL    HW1 2642   2.366   1.105   0.244  0.9260 -0.3706  2.4368
  661SOL    HW2 2643   2.337   0.972   0.177  0.7181  1.7754  1.1442
  661SOL     MW 2644   2.331   1.060   0.177 -0.0729  0.4099  0.1239
  662SOL     OW 2645   2.600   2.996   0.864 -0.5899 -0.1250 -0.6212
  662SOL    HW1 2646   2.550   3.043   0.928  1.6892 -1.2637  0.1049
  662SOL    HW2 2647   2.604   3.051   0.783  0.6177 -0.4103 -0.8181
  662SOL     MW 2648   2.594   3.010   0.862 -0.1299 -0.3129 -0.5514
  663SOL     OW 2649   2.813   1.509   0.442  0.3564  0.2211 -0.7156
  663SOL    HW1 2650   2.891   1.547   0.406 -4.7153  1.0367 -0.2154
  663SOL    HW2 2651   2.833   1.495   0.531  1.5754  2.6454 -1.7786
  663SOL     MW 2652   2.826   1.512   0.449 -0.1519  0.6486 -0.7899
  664SOL     OW 2653   2.477   1.561   1.644 -0.6372  0.2994 -0.0014
  664SOL    HW1 2654   2.463   1.649   1.609  2.4358  0.7970 -0.7363
  664SOL    HW2 2655   2.389   1.513   1.647  0.7273  0.0536  0.9475
  664SOL     MW 2656   2.464   1.566   1.640 -0.0517  0.3326  0.0268
  665SOL     OW 2657   2.864   0.823   2.053 -0.0119 -0.1490 -0.8496
  665SOL    HW1 2658   2.842   0.876   1.973  0.5027  1.4741 -0.7015
  665SOL    HW2 2659   2.957   0.806   2.050  2.0326  0.2720 -2.4110
  665SOL     MW 2660   2.874   0.828   2.042  0.3258  0.1207 -1.0361
  666SOL     OW 2661   2.790   3.030   1.694 -0.1716  0.4454 -0.7564
  666SOL    HW1 2662   2.822   3.026   1.601  1.9262 -0.6266 -1.5006
  666SOL    HW2 2663   2.725   2.961   1.695 -0.5149  0.0091 -0.0190
  666SOL     MW 2664   2.786   3.021   1.682  0.0599  0.2464 -0.7573
  667SOL     OW 2665   1.974   2.659   1.771  0.0622  0.2073 -0.3208
  667SOL    HW1 2666   2.000   2.564   1.778  0.6620  1.6546 -0.9991
  667SOL    HW2 2667   2.062   2.700   1.774 -1.0044 -1.4881 -0.2299
  667SOL     MW 2668   1.989   2.652   1.772  0.0006  0.1745 -0.3983
  668SOL     OW 2669   2.672   0.601   0.756  0.1392  0.4856 -0.1122
  668SOL    HW1 2670   2.734   0.657   0.796 -2.7554 -1.5171  2.2601
  668SOL    HW2 2671   2.581   0.622   0.789  1.6908 -1.6782  1.3367
  668SOL     MW 2672   2.668   0.611   0.766 -0.0380 -0.0641  0.3920
  669SOL     OW 2673   0.171   0.879   0.731 -0.4062 -0.0651 -0.1023
  669SOL    HW1 2674   0.113   0.921   0.790  1.2803  2.9873 -0.2158
  669SOL    HW2 2675   0.259   0.917   0.747 -3.2177 -1.4590  0.0379
  669SOL     MW 2676   0.175   0.889   0.741 -0.5546  0.1537 -0.0988
  670SOL     OW 2677   2.878   0.329   0.234  0.5120  0.2510 -0.1082
  670SOL    HW1 2678   2.941   0.258   0.224  0.8228  0.2930 -1.0763
  670SOL    HW2 2679   2.922   0.405   0.192 -0.1156  0.4257  0.0457
  670SOL     MW 2680   2.892   0.330   0.227  0.4702  0.2796 -0.2157
  671SOL     OW 2681   2.192   3.030   1.594 -0.0859  0.5673  0.0484
  671SOL    HW1 2682   2.165   3.092   1.524  0.6987  3.5645 -1.5290
  671SOL    HW2 2683   2.112   3.010   1.641  3.3291  1.5323 -0.9997
  671SOL     MW 2684   2.178   3.035   1.591  0.4682  1.0901 -0.2980
  672SOL     OW 2685   1.921   1.646   1.369 -0.3728  0.2178 -0.2154
  672SOL    HW1 2686   1.833   1.680   1.392 -0.0835  1.7351  0.6450
  672SOL    HW2 2687   1.939   1.687   1.286  0.8774  0.7517 -1.9935
  672SOL     MW 2688   1.912   1.656   1.361 -0.1697  0.4884 -0.3365
  673SOL     OW 2689   2.765   1.156   0.489  0.5740  0.1393 -0.4975
  673SOL    HW1 2690   2.771   1.061   0.491  0.2748 -1.0607 -1.0851
  673SOL    HW2 2691   2.851   1.192   0.505  1.3269  0.4377 -0.9703
  673SOL     MW 2692   2.777   1.148   0.491  0.6339  0.0204 -0.6374
  674SOL     OW 2693   2.444   0.071   1.276 -0.2974  0.0550  0.3756
  674SOL    HW1 2694   2.416   0.074   1.184 -1.5431 -0.1284  0.5389
  674SOL    HW2 2695   2.462  -0.020   1.286 -0.1225 -0.0669 -1.6170
  674SOL     MW 2696   2.442   0.060   1.265 -0.4387  0.0147  0.1343
  675SOL     OW 2697   2.945   0.906   1.118 -0.1421  0.6734 -0.5187
  675SOL    HW1 2698   3.025   0.915   1.176 -1.1302  1.7909  2.7133
  675SOL    HW2 2699   2.966   0.931   1.027 -0.9714  5.1952 -3.4667
  675SOL     MW 2700   2.958   0.910   1.113 -0.3819  1.4174 -0.4813
  676SOL     OW 2701   2.882   1.510   1.669  0.0650  0.4094  0.0689
  676SOL    HW1 2702   2.827   1.442   1.626 -0.2444  0.0681  1.1386
  676SOL    HW2 2703   2.931   1.464   1.736 -1.6706 -1.3736 -1.7457
  676SOL     MW 2704   2.881   1.495   1.672 -0.2049  0.1292 -0.0293
  677SOL     OW 2705   2.484   0.833   1.824 -0.0796 -0.0868  0.4184
  677SOL    HW1 2706   2.413   0.766   1.796  0.5758  1.8647 -2.1066
  677SOL    HW2 2707   2.501   0.895   1.754 -1.5406 -1.1159  2.4143
  677SOL     MW 2708   2.477   0.832   1.811 -0.1859  0.0349  0.3486
  678SOL     OW 2709   2.531   1.580   0.521 -0.2435 -0.8125  0.5185
  678SOL    HW1 2710   2.451   1.609   0.470  1.6452  1.3634  0.3606
  678SOL    HW2 2711   2.602   1.597   0.461 -2.0789  1.5598 -0.9515
  678SOL     MW 2712   2.530   1.586   0.507 -0.2365 -0.2124  0.3037
  679SOL     OW 2713   2.372   0.541   1.227 -0.2372  0.3069  0.1382
  679SOL    HW1 2714   2.326   0.457   1.239  1.2991 -2.1881  0.6705
  679SOL    HW2 2715   2.333   0.573   1.145  1.8202  1.2129 -0.2673
  679SOL     MW 2716   2.361   0.534   1.218  0.2370  0.0972  0.1550
  680SOL     OW 2717   2.407   0.220   1.530  0.2529 -0.4459 -0.0466
  680SOL    HW1 2718   2.388   0.165   1.610 -1.9048  1.5011 -0.6942
  680SOL    HW2 2719   2.402   0.166   1.446  0.5452 -0.0649  0.0181
  680SOL     MW 2720   2.404   0.206   1.530  0.0068 -0.1387 -0.1235
  681SOL     OW 2721   0.322   0.520   1.511  0.2338 -0.1212  0.2854
  681SOL    HW1 2722   0.309   0.442   1.564  0.9925 -4.0579  0.8832
  681SOL    HW2 2723   0.417   0.530   1.497 -0.9373  0.8379 -0.9731
  681SOL     MW 2724   0.333   0.511   1.516  0.1794 -0.5141  0.1982
  682SOL     OW 2725   0.205   2.967   1.530  0.3190  0.1576  0.0054
  682SOL    HW1 2726   0.182   3.047   1.483  1.4080  5.3505 -0.7620
  682SOL    HW2 2727   0.138   2.953   1.604 -1.8250  1.6868 -0.0174
  682SOL     MW 2728   0.193   2.975   1.534  0.1798  1.0445 -0.0988
  683SOL     OW 2729   1.941   0.802   2.983  0.0664 -0.6255  0.7004
  683SOL    HW1 2730   1.860   0.792   2.928 -0.6632 -0.3494 -1.9890
  683SOL    HW2 2731   1.961   0.898   2.978 -0.9804  0.8275 -0.4218
  683SOL     MW 2732   1.933   0.813   2.975 -0.1680 -0.3973  0.1975
  684SOL     OW 2733   2.108   1.741   0.820 -0.0626  0.1360 -0.4585
  684SOL    HW1 2734   2.019   1.706   0.828 -0.3361 -0.3126  1.8505
  684SOL    HW2 2735   2.155   1.668   0.857  0.0380 -0.3193  0.7132
  684SOL     MW 2736   2.103   1.727   0.826 -0.0854  0.0167  0.0008
  685SOL     OW 2737   2.675   1.750   1.171 -0.3677 -0.2761  0.4122
  685SOL    HW1 2738   2.739   1.779   1.230 -1.2450 -0.5787 -1.1551
  685SOL    HW2 2739   2.685   1.654   1.168 -0.4310 -0.7132  0.3335
  685SOL     MW 2740   2.685   1.741   1.178 -0.4918 -0.3737  0.1950
  686SOL     OW 2741   2.875   0.688   1.509  0.5554  0.5052  0.4955
  686SOL    HW1 2742   2.879   0.661   1.603 -1.2431 -0.6566 -0.7644
  686SOL    HW2 2743   2.962   0.674   1.470 -0.3542 -4.7492 -2.1839
  686SOL     MW 2744   2.887   0.682   1.516  0.1981 -0.3413 -0.0242
  687SOL     OW 2745   2.210   0.309   1.199  0.0918  0.4749  0.4320
  687SOL    HW1 2746   2.190   0.254   1.120  0.7706 -1.3421 -1.1233
  687SOL    HW2 2747   2.140   0.378   1.201 -1.2047 -1.7554 -0.9993
  687SOL     MW 2748   2.198   0.311   1.189  0.0103 -0.0591  0.0380
  688SOL     OW 2749   2.362   0.516   1.498 -0.2099  0.3407 -0.1216
  688SOL    HW1 2750   2.374   0.425   1.526  0.1269 -0.0797  0.0219
  688SOL    HW2 2751   2.368   0.507   1.402 -2.0627  1.6704  1.0959
  688SOL     MW 2752   2.364   0.503   1.489 -0.4099  0.4606  0.0580
  689SOL     OW 2753   2.553   0.781   2.982  0.4819 -0.0542 -0.2109
  689SOL    HW1 2754   2.519   0.874   2.985  2.6264  3.0472  1.3761
  689SOL    HW2 2755   2.564   0.760   3.074  0.7579  0.7058 -3.4362
  689SOL     MW 2756   2.550   0.791   2.995  0.8012  0.4553 -0.4271
  690SOL     OW 2757   2.085   0.998   1.940 -0.2666  0.5860  0.2941
  690SOL    HW1 2758   2.007   0.945   1.935 -1.5740  1.1678  1.3053
  690SOL    HW2 2759   2.119   1.009   1.852 -0.7961  1.2916  1.2946
  690SOL     MW 2760   2.079   0.993   1.928 -0.5090  0.7559  0.5595
  691SOL     OW 2761   2.467   0.381   0.880  0.1688 -0.1370 -0.5786
  691SOL    HW1 2762   2.530   0.419   0.943 -3.1630  0.4309 -0.7328
  691SOL    HW2 2763   2.384   0.428   0.880  0.9929  1.6612  0.1216
  691SOL     MW 2764   2.464   0.392   0.888 -0.1620  0.1752 -0.5066
  692SOL     OW 2765   2.808   1.653   1.452  0.3522  0.5459 -0.6442
  692SOL    HW1 2766   2.809   1.614   1.532  0.9612  1.5519  0.7650
  692SOL    HW2 2767   2.808   1.747   1.465 -1.5454 -1.7019 -2.4208
  692SOL     MW 2768   2.808   1.660   1.464  0.1822  0.3821 -0.6927
  693SOL     OW 2769   2.282   0.494   0.088  0.1806  0.1473  0.0624
  693SOL    HW1 2770   2.194   0.453   0.086  1.7932  0.2458 -0.6696
  693SOL    HW2 2771   2.258   0.551   0.014 -0.2004 -0.2526 -2.6630
  693SOL     MW 2772   2.267   0.496   0.078  0.3431  0.1075 -0.3938
  694SOL     OW 2773   1.962   1.270   1.192 -0.0775  0.2230  0.0404
  694SOL    HW1 2774   2.057   1.242   1.206  2.5851 -0.5023 -2.2999
  694SOL    HW2 2775   1.905   1.203   1.227  1.7313 -1.8414  0.5527
  694SOL     MW 2776   1.967   1.258   1.198  0.5125 -0.1451 -0.2008
  695SOL     OW 2777   3.058   1.499   1.300 -0.5946 -0.3296  0.0563
  695SOL    HW1 2778   2.992   1.466   1.233 -0.6219 -3.1145 -0.8808
  695SOL    HW2 2779   3.002   1.554   1.350  0.6661  2.2580 -0.2509
  695SOL     MW 2780   3.042   1.502   1.298 -0.4319 -0.3556 -0.1078
  696SOL     OW 2781   2.033   1.369   0.938 -0.2823 -0.1179  0.3621
  696SOL    HW1 2782   2.098   1.436   0.967  0.7532 -0.2553  1.7149
  696SOL    HW2 2783   2.003   1.331   1.025  2.6887 -1.9345 -0.4193
  696SOL     MW 2784   2.037   1.373   0.954  0.2463 -0.3757  0.4375
  697SOL     OW 2785   2.885   1.036   2.267 -0.3292 -0.3227 -0.0499
  697SOL    HW1 2786   2.875   1.124   2.239 -1.7077 -2.3566  0.4981
  697SOL    HW2 2787   2.883   0.985   2.190 -0.5878 -2.0771  1.2159
  697SOL     MW 2788   2.883   1.041   2.253 -0.5452 -0.8225  0.1894
  698SOL     OW 2789   2.521   0.416   3.006 -0.0091 -0.2439 -0.2491
  698SOL    HW1 2790   2.457   0.415   3.078 -1.3860 -4.2993 -1.3608
  698SOL    HW2 2791   2.578   0.353   3.045  0.9188 -2.5881  1.3575
  698SOL     MW 2792   2.520   0.408   3.020 -0.0684 -1.0883 -0.1838
  699SOL     OW 2793   1.820   1.643   2.041  0.2955 -0.1400 -0.2699
  699SOL    HW1 2794   1.799   1.554   2.081 -0.4809 -0.3082  0.3958
  699SOL    HW2 2795   1.915   1.645   2.044  0.1671  2.6967  1.4331
  699SOL     MW 2796   1.830   1.631   2.047  0.1762  0.2121  0.0427
  700SOL     OW 2797   2.691   0.877   1.535  0.3603 -0.1891 -0.1853
  700SOL    HW1 2798   2.710   0.961   1.488  0.9860  0.6749 -2.3414
  700SOL    HW2 2799   2.770   0.827   1.515 -2.5413 -0.9870 -1.5318
  700SOL     MW 2800   2.704   0.882   1.526  0.0600 -0.1804 -0.6475
  701SOL     OW 2801   1.661   1.298   2.579  0.2969  0.1687 -0.6228
  701SOL    HW1 2802   1.750   1.287   2.616  1.2479 -0.5788  2.1510
  701SOL    HW2 2803   1.630   1.369   2.637 -0.1231  0.7256 -0.4568
  701SOL     MW 2804   1.669   1.306   2.592  0.3669  0.1435 -0.2349
  702SOL     OW 2805   2.230   0.527   0.811 -0.0425 -0.4237 -0.7207
  702SOL    HW1 2806   2.213   0.438   0.796 -0.3960 -0.5644 -1.3898
  702SOL    HW2 2807   2.220   0.568   0.728  1.5670 -1.1584  1.2576
  702SOL     MW 2808   2.226   0.521   0.798  0.1232 -0.5392 -0.5480
  703SOL     OW 2809   2.678   1.260   0.998  0.2137  0.5814 -0.3880
  703SOL    HW1 2810   2.696   1.240   0.903 -1.3935  0.4991 -2.6556
  703SOL    HW2 2811   2.688   1.173   1.041 -0.8640  1.2917  0.3214
  703SOL     MW 2812   2.682   1.246   0.991 -0.1406  0.6643 -0.5936
  704SOL     OW 2813   0.003   1.320   0.195 -0.1592 -0.4881  0.2714
  704SOL    HW1 2814  -0.084   1.283   0.172 -3.0998 -0.0641  2.3935
  704SOL    HW2 2815   0.057   1.253   0.225 -2.4824  0.7785 -1.3971
  704SOL     MW 2816  -0.001   1.306   0.196 -0.8537 -0.2651  0.3313
  705SOL     OW 2817   2.228   1.633   1.283  0.3301 -0.2534  0.8355
  705SOL    HW1 2818   2.141   1.638   1.324  0.8872 -0.8424  2.8435
  705SOL    HW2 2819   2.242   1.541   1.294  2.0642 -0.9888 -1.2297
  705SOL     MW 2820   2.219   1.621   1.290  0.6324 -0.4282  0.8280
  706SOL     OW 2821   2.984   1.215   0.652  0.2313  0.1272 -0.5998
  706SOL    HW1 2822   3.065   1.219   0.599 -0.8270  3.4178  0.3736
  706SOL    HW2 2823   2.960   1.315   0.660 -0.1741  3.4524 -2.0482
  706SOL     MW 2824   2.992   1.229   0.646  0.0382  1.0001 -0.6624
  707SOL     OW 2825   2.416   0.103   0.977  0.5060  0.1802  0.6530
  707SOL    HW1 2826   2.459   0.181   0.953  0.8170 -1.3440  0.9912
  707SOL    HW2 2827   2.321   0.129   0.978  0.2796 -2.0122 -0.2670
  707SOL     MW 2828   2.409   0.117   0.974  0.5172 -0.3102  0.5763
  708SOL     OW 2829   2.513   1.554   0.126 -0.0245 -0.4021 -0.2716
  708SOL    HW1 2830   2.567   1.479   0.166  2.3987 -0.5722  1.4749
  708SOL    HW2 2831   2.453   1.508   0.077 -0.1569 -0.3638  2.9907
  708SOL     MW 2832   2.512   1.538   0.125  0.2777 -0.4195  0.3893
  709SOL     OW 2833   1.756   1.678   0.135  0.5188  0.2365  0.0260
  709SOL    HW1 2834   1.769   1.604   0.080 -0.2875  3.2474 -0.8280
  709SOL    HW2 2835   1.710   1.639   0.212  0.5895 -0.5789  1.5361
  709SOL     MW 2836   1.752   1.663   0.138  0.4217  0.5262  0.1126
  710SOL     OW 2837   2.223   1.174   1.191 -0.1089  0.3951 -0.3605
  710SOL    HW1 2838   2.242   1.163   1.099  0.3285  0.8817  0.2544
  710SOL    HW2 2839   2.258   1.094   1.229 -0.3610 -3.1418  0.4037
  710SOL     MW 2840   2.230   1.162   1.184 -0.0845 -0.0073 -0.1786
  711SOL     OW 2841   2.320   0.117   1.780 -0.3250  0.8008 -0.4312
  711SOL    HW1 2842   2.414   0.111   1.811 -0.0023 -2.7414 -3.7972
  711SOL    HW2 2843   2.292   0.038   1.736 -3.5861 -3.5727 -1.5571
  711SOL     MW 2844   2.329   0.106   1.778 -0.7127 -0.2436 -1.0239
  712SOL     OW 2845   1.640   0.640   0.008 -1.2376  0.7282 -0.4168
  712SOL    HW1 2846   1.580   0.642  -0.064  0.0273 -1.7146 -0.4219
  712SOL    HW2 2847   1.695   0.718   0.001 -1.4502  0.2918  2.7329
  712SOL     MW 2848   1.639   0.650  -0.002 -1.0987  0.3483 -0.0019
  713SOL     OW 2849   2.560   0.773   1.145  0.5871 -0.0931 -0.3243
  713SOL    HW1 2850   2.582   0.684   1.130  0.8809 -1.6846  0.7902
  713SOL    HW2 2851   2.501   0.775   1.228  0.7381  3.2233  1.1390
  713SOL     MW 2852   2.555   0.762   1.154  0.6458  0.1345  0.0158
  714SOL     OW 2853   2.252   0.165   2.053  0.2817 -0.3741 -0.5305
  714SOL    HW1 2854   2.318   0.153   2.123 -0.7902  2.3736 -0.2096
  714SOL    HW2 2855   2.290   0.150   1.964  1.3666  1.7383 -1.9707
  714SOL     MW 2856   2.266   0.162   2.050  0.2834  0.2671 -0.6782
  715SOL     OW 2857   1.736   1.894   1.694  0.2959  0.2723  0.3752
  715SOL    HW1 2858   1.831   1.881   1.670  2.0153  0.3223  0.3593
  715SOL    HW2 2859   1.705   1.806   1.733 -4.9562  0.1740 -0.3288
  715SOL     MW 2860   1.745   1.881   1.696 -0.1702  0.2660  0.2802
  716SOL     OW 2861   2.207   0.729   0.577 -0.4735  0.0568 -0.7862
  716SOL    HW1 2862   2.275   0.725   0.505  0.4817 -0.7574 -0.0475
  716SOL    HW2 2863   2.119   0.743   0.538 -0.4067 -1.6284  1.3195
  716SOL     MW 2864   2.204   0.731   0.562 -0.3386 -0.2729 -0.4109
  717SOL     OW 2865   2.897   1.411   2.990  0.2666 -0.2387 -0.3814
  717SOL    HW1 2866   2.988   1.436   2.962 -0.3321  2.0257  3.4038
  717SOL    HW2 2867   2.865   1.484   3.047 -0.8457  2.3965  0.4354
  717SOL     MW 2868   2.905   1.424   2.993  0.0409  0.4078  0.2258
  718SOL     OW 2869   2.585   1.499   1.256 -0.4415  0.0229  0.3283
  718SOL    HW1 2870   2.597   1.541   1.346 -1.3193  0.9149  1.8530
  718SOL    HW2 2871   2.643   1.427   1.248 -0.7591 -0.2803 -0.5958
  718SOL     MW 2872   2.594   1.495   1.267 -0.5992  0.1006  0.4075
  719SOL     OW 2873   2.165   1.342   0.702  0.3698 -0.8923 -0.1186
  719SOL    HW1 2874   2.259   1.353   0.704 -0.7801  1.7670 -0.8822
  719SOL    HW2 2875   2.140   1.316   0.794 -2.0783 -2.7007 -2.2716
  719SOL     MW 2876   2.174   1.340   0.715 -0.1049 -0.7800 -0.5034
  720SOL     OW 2877   2.862   1.185   0.168  0.6436 -0.2411 -0.4671
  720SOL    HW1 2878   2.875   1.096   0.211 -1.1825 -1.7737 -1.5568
  720SOL    HW2 2879   2.809   1.236   0.223 -0.2299 -0.6557 -0.1739
  720SOL     MW 2880   2.857   1.180   0.181  0.2874 -0.4980 -0.5722
  721SOL     OW 2881   2.453   0.798   1.435 -0.2133  0.0976 -0.2132
  721SOL    HW1 2882   2.430   0.710   1.469  0.1195 -1.3483 -1.1427
  721SOL    HW2 2883   2.542   0.836   1.472  0.5478 -3.5111 -0.8499
  721SOL     MW 2884   2.462   0.791   1.444 -0.0689 -0.5693 -0.4198
  722SOL     OW 2885   2.470   1.143   0.367  0.4248  0.0968 -0.7809
  722SOL    HW1 2886   2.460   1.213   0.428  0.6394  0.9049 -0.9811
  722SOL    HW2 2887   2.543   1.093   0.402 -1.9567 -1.2391 -2.1082
  722SOL     MW 2888   2.478   1.146   0.380  0.1389  0.0272 -0.9824
  723SOL     OW 2889   2.259   1.368   1.646 -0.2998  0.3628  0.3127
  723SOL    HW1 2890   2.279   1.337   1.558  0.1623 -0.6602  1.6986
  723SOL    HW2 2891   2.164   1.376   1.645 -0.8184  0.3046 -3.7485
  723SOL     MW 2892   2.249   1.365   1.634 -0.3073  0.2202 -0.0403
  724SOL     OW 2893   2.490   0.360   0.595  0.7179  0.0368  0.0918
  724SOL    HW1 2894   2.476   0.363   0.689  1.2973  0.8880 -1.7388
  724SOL    HW2 2895   2.584   0.345   0.594 -1.2891  0.2619  0.3635
  724SOL     MW 2896   2.500   0.358   0.607  0.5296  0.1788 -0.1139
  725SOL     OW 2897   2.624   0.475   1.116  0.3981  0.2664  0.1862
  725SOL    HW1 2898   2.668   0.500   1.200  0.9069  0.7378  3.3921
  725SOL    HW2 2899   2.542   0.464   1.161  0.8674 -2.3717 -0.0859
  725SOL     MW 2900   2.619   0.477   1.133  0.5271 -0.0195  0.5733
  726SOL     OW 2901   2.569   2.381   0.519 -0.0629  0.0702  0.1957
  726SOL    HW1 2902   2.550   2.453   0.457  3.1546  0.9568  0.4436
  726SOL    HW2 2903   2.504   2.380   0.590  0.7332  0.2366 -2.8783
  726SOL     MW 2904   2.558   2.390   0.521  0.4666  0.2091 -0.1771
  727SOL     OW 2905   2.911   0.304   1.666 -0.2701 -0.3249 -0.1163
  727SOL    HW1 2906   2.875   0.334   1.587 -1.8619  0.6108  0.4921
  727SOL    HW2 2907   2.825   0.300   1.716 -1.1779 -1.3144 -0.9763
  727SOL     MW 2908   2.895   0.307   1.662 -0.5999 -0.3320 -0.1495
  728SOL     OW 2909   2.766   1.186   2.991  0.4284 -0.4565  0.6006
  728SOL    HW1 2910   2.821   1.259   3.006 -1.5312  1.1516  1.5674
  728SOL    HW2 2911   2.731   1.188   3.075 -0.1100 -0.1137 -4.6605
  728SOL     MW 2912   2.769   1.196   3.004  0.0988 -0.1991  0.0340
  729SOL     OW 2913   2.474   1.449   0.984 -0.2234  0.1864 -0.2928
  729SOL    HW1 2914   2.498   1.492   1.066 -1.5749 -1.1948 -2.4330
  729SOL    HW2 2915   2.523   1.363   0.980 -1.5792 -0.4218  1.7589
  729SOL     MW 2916   2.483   1.443   0.994 -0.5806 -0.0761 -0.3044
  730SOL     OW 2917   2.057   1.141   0.164  0.3286  0.6391  0.4270
  730SOL    HW1 2918   2.154   1.116   0.157  0.0069  1.9193  1.0677
  730SOL    HW2 2919   2.054   1.235   0.194  1.2905 -0.2534  2.2790
  730SOL     MW 2920   2.069   1.150   0.167  0.4130  0.6903  0.7559
  731SOL     OW 2921   2.769   1.810   2.892  0.2822 -0.4055 -0.2550
  731SOL    HW1 2922   2.692   1.832   2.839  0.6101  1.5969 -2.0551
  731SOL    HW2 2923   2.810   1.893   2.912  0.5898  0.0068  0.0294
  731SOL     MW 2924   2.764   1.824   2.888  0.3660 -0.0869 -0.4550
  732SOL     OW 2925   2.255   0.905   1.309 -0.8655  0.0193  0.3843
  732SOL    HW1 2926   2.185   0.929   1.374  0.3213  0.7019 -1.1990
  732SOL    HW2 2927   2.327   0.863   1.374  0.9682  0.9576  0.2336
  732SOL     MW 2928   2.255   0.903   1.326 -0.4670  0.2332  0.1555
  733SOL     OW 2929   2.375   2.881   3.051  0.7613 -0.3284  0.0848
  733SOL    HW1 2930   2.298   2.937   3.047 -0.3679 -1.7346  3.3473
  733SOL    HW2 2931   2.345   2.790   3.062 -0.7483  0.1300  0.1842
  733SOL     MW 2932   2.361   2.876   3.052  0.4131 -0.4534  0.5284
  734SOL     OW 2933   1.528   0.336   2.509 -0.3348  0.4881  0.3891
  734SOL    HW1 2934   1.444   0.302   2.530 -0.8339  1.2082 -1.8389
  734SOL    HW2 2935   1.547   0.306   2.410 -1.2138 -0.6429  0.7269
  734SOL     MW 2936   1.519   0.328   2.499 -0.5166  0.4339  0.1397
  735SOL     OW 2937   2.993   0.897   2.747  0.3102 -0.4028  0.0717
  735SOL    HW1 2938   2.909   0.863   2.723  1.8556 -2.1678 -1.7599
  735SOL    HW2 2939   2.983   0.936   2.830  1.3890  2.6698  0.2985
  735SOL     MW 2940   2.981   0.898   2.755  0.6564 -0.2303 -0.1400
  736SOL     OW 2941   0.045   0.627   2.505  0.1150  0.2451 -0.2158
  736SOL    HW1 2942   0.119   0.682   2.473 -2.1562  3.7269 -0.6353
  736SOL    HW2 2943   0.045   0.544   2.455 -0.3366  0.5826  0.1526
  736SOL     MW 2944   0.055   0.623   2.494 -0.2442  0.7491 -0.2225
  737SOL     OW 2945   2.877   0.600   2.570 -0.2613  0.1701 -0.3145
  737SOL    HW1 2946   2.835   0.560   2.492 -0.5391 -0.0030  0.3221
  737SOL    HW2 2947   2.961   0.639   2.540 -1.0787  3.2298 -1.1998
  737SOL     MW 2948   2.882   0.600   2.556 -0.4058  0.5510 -0.3473
  738SOL     OW 2949   0.157   0.388   1.908 -0.0342 -0.0751 -0.3719
  738SOL    HW1 2950   0.234   0.437   1.908 -2.4799 -0.3339  1.2277
  738SOL    HW2 2951   0.162   0.315   1.850  0.1466 -0.0361 -0.3351
  738SOL     MW 2952   0.168   0.385   1.901 -0.3331 -0.1041 -0.1560
  739SOL     OW 2953   2.537   1.021   2.170  0.7085  0.0019  0.4514
  739SOL    HW1 2954   2.443   1.019   2.152  0.5118 -2.1433 -3.1313
  739SOL    HW2 2955   2.569   1.071   2.095 -0.4101  0.7751  1.1086
  739SOL     MW 2956   2.529   1.027   2.158  0.5350 -0.1792  0.0654
  740SOL     OW 2957   0.288   1.706   2.923  0.3849 -0.1954  0.0267
  740SOL    HW1 2958   0.247   1.620   2.910 -0.7712  0.2335 -0.5306
  740SOL    HW2 2959   0.369   1.695   2.976 -0.8433  0.3546  0.4250
  740SOL     MW 2960   0.293   1.693   2.928  0.0703 -0.0663  0.0057
  741SOL     OW 2961   2.214   1.273   2.625  0.0059 -0.4055  0.2177
  741SOL    HW1 2962   2.223   1.345   2.560 -1.1748 -0.7604  0.0705
  741SOL    HW2 2963   2.239   1.298   2.712 -1.5947  0.3417 -2.7718
  741SOL     MW 2964   2.218   1.286   2.628 -0.3610 -0.3537 -0.1962
  742SOL     OW 2965   1.544   1.398   2.342 -0.0558 -0.5136  0.5451
  742SOL    HW1 2966   1.529   1.312   2.312  1.8023 -0.1493 -1.5688
  742SOL    HW2 2967   1.598   1.392   2.426 -0.4957 -1.4262  0.7822
  742SOL     MW 2968   1.549   1.386   2.349  0.1313 -0.5860  0.2975
  743SOL     OW 2969   2.510   1.240   2.676  0.0059 -1.0796  0.5724
  743SOL    HW1 2970   2.417   1.243   2.656 -0.7217 -1.1754  1.4566
  743SOL    HW2 2971   2.534   1.158   2.718 -1.6185  0.9052 -2.6368
  743SOL     MW 2972   2.501   1.229   2.679 -0.3045 -0.8303  0.2656
  744SOL     OW 2973   2.792   0.973   1.797  0.0298 -0.4523  0.4309
  744SOL    HW1 2974   2.708   0.996   1.840 -1.5885  2.9817 -1.5859
  744SOL    HW2 2975   2.769   0.936   1.708 -2.5107 -0.7450 -1.1343
  744SOL     MW 2976   2.778   0.971   1.791 -0.5189 -0.0378 -0.0418
  745SOL     OW 2977   1.836   0.475   2.471 -0.7657 -0.3141  0.2956
  745SOL    HW1 2978   1.839   0.539   2.396  0.6103  3.6242 -2.2153
  745SOL    HW2 2979   1.750   0.461   2.511 -1.0575 -0.4500 -0.3748
  745SOL     MW 2980   1.825   0.481   2.467 -0.6227  0.1876 -0.1241
  746SOL     OW 2981   1.571   1.430   1.742  0.4779  0.1727 -0.4100
  746SOL    HW1 2982   1.585   1.514   1.778  0.7177  2.1541  2.2619
  746SOL    HW2 2983   1.533   1.381   1.819  2.0693 -0.2412 -1.6094
  746SOL     MW 2984   1.568   1.434   1.757  0.7195  0.3795 -0.2157
  747SOL     OW 2985   2.603   1.157   1.951 -0.7012 -0.0650 -0.0959
  747SOL    HW1 2986   2.519   1.172   1.903 -0.2977 -1.1403 -0.8970
  747SOL    HW2 2987   2.625   1.247   1.992 -0.1846 -0.9533  0.0914
  747SOL     MW 2988   2.594   1.171   1.950 -0.5798 -0.3241 -0.1769
  748SOL     OW 2989   0.139   2.982   1.961 -0.0844  0.6588 -0.0076
  748SOL    HW1 2990   0.175   3.064   1.977  1.1572 -2.3770  0.9728
  748SOL    HW2 2991   0.105   2.960   2.049  0.3413 -0.0255  1.1750
  748SOL     MW 2992   0.139   2.990   1.975  0.1356  0.1679  0.2778
  749SOL     OW 2993   2.396   0.653   2.801  0.2150 -0.0785 -0.2539
  749SOL    HW1 2994   2.392   0.715   2.732 -3.9544 -2.3817  5.2162
  749SOL    HW2 2995   2.467   0.691   2.855 -0.7146  0.3714 -1.0737
  749SOL     MW 2996   2.405   0.666   2.799 -0.4577 -0.3230  0.3597
  750SOL     OW 2997   2.051   3.060   1.988 -0.1952 -0.0437 -0.3117
  750SOL    HW1 2998   2.114   3.133   2.016 -1.7906 -1.1586  1.4262
  750SOL    HW2 2999   2.117   2.990   1.965 -0.0486 -0.3284 -1.2145
  750SOL     MW 3000   2.068   3.060   1.989 -0.3863 -0.2284 -0.2015
  751SOL     OW 3001   0.025   0.377   2.409 -0.0557  0.0286  0.2582
  751SOL    HW1 3002  -0.046   0.324   2.375 -1.4616  0.0468  2.2126
  751SOL    HW2 3003   0.096   0.377   2.338  1.6038  0.7052  3.4605
  751SOL     MW 3004   0.025   0.370   2.395 -0.0223  0.1203  0.9385
  752SOL     OW 3005   2.157   0.962   2.777  0.1021 -0.0807  0.2150
  752SOL    HW1 3006   2.238   0.985   2.818 -1.9373  0.0069 -1.3591
  752SOL    HW2 3007   2.143   0.869   2.791 -0.5661  0.5874 -1.0389
  752SOL     MW 3008   2.166   0.953   2.784 -0.2551  0.0190 -0.1581
  753SOL     OW 3009   2.868   0.298   2.366 -0.3619 -0.1436 -0.7228
  753SOL    HW1 3010   2.851   0.199   2.371  0.0378 -2.0204 -0.7748
  753SOL    HW2 3011   2.782   0.345   2.355  0.9338 -1.7494 -1.8873
  753SOL     MW 3012   2.855   0.291   2.366 -0.1382 -0.6031 -0.8833
  754SOL     OW 3013   2.273   3.004   2.637 -0.8404 -0.0478 -0.1403
  754SOL    HW1 3014   2.313   2.952   2.566  0.2791  2.6084 -1.0805
  754SOL    HW2 3015   2.324   2.963   2.709 -1.8102 -1.2034 -0.5358
  754SOL     MW 3016   2.285   2.992   2.637 -0.8207  0.1502 -0.3165
  755SOL     OW 3017   2.771   1.636   2.412  0.2219 -0.2908 -0.5841
  755SOL    HW1 3018   2.732   1.548   2.411  0.7997 -2.3152 -0.5129
  755SOL    HW2 3019   2.790   1.656   2.510 -1.8220 -0.5681 -0.9029
  755SOL     MW 3020   2.768   1.627   2.425  0.0285 -0.5945 -0.6167
  756SOL     OW 3021   2.217   1.263   2.955 -0.1406 -0.4048  0.4546
  756SOL    HW1 3022   2.287   1.327   2.959  0.5116 -2.3153 -2.8157
  756SOL    HW2 3023   2.267   1.181   2.970  0.6600 -1.5100  2.1981
  756SOL     MW 3024   2.233   1.260   2.957  0.0511 -0.8027  0.2532
  757SOL     OW 3025   2.214   0.971   1.688 -0.7246  0.0054  0.0464
  757SOL    HW1 3026   2.248   0.883   1.689 -0.1678  1.7367  0.5108
  757SOL    HW2 3027   2.156   0.978   1.609  1.3485  0.7326 -1.3209
  757SOL     MW 3028   2.211   0.960   1.677 -0.3776  0.3298 -0.0727
  758SOL     OW 3029   2.155   1.858   2.482  0.5113 -0.5723  0.6066
  758SOL    HW1 3030   2.173   1.930   2.419  0.7908  1.6862  0.8134
  758SOL    HW2 3031   2.230   1.799   2.494 -0.9668  0.4204  2.0176
  758SOL     MW 3032   2.168   1.860   2.475  0.3531 -0.1434  0.8201
  759SOL     OW 3033   1.579   1.451   2.792  0.0322 -0.0220  0.4935
  759SOL    HW1 3034   1.589   1.525   2.727  2.7000  5.0772 -0.2761
  759SOL    HW2 3035   1.635   1.475   2.868  2.3815 -1.2045  0.1205
  759SOL     MW 3036   1.588   1.464   2.793  0.6941  0.4948  0.3427
  760SOL     OW 3037   2.592   1.901   2.712  0.0632  0.4614 -0.0175
  760SOL    HW1 3038   2.552   1.824   2.674 -1.5389  2.9576  0.6211
  760SOL    HW2 3039   2.651   1.923   2.640  0.9075 -0.4409  0.2425
  760SOL     MW 3040   2.595   1.893   2.697 -0.0368  0.6717  0.1010
  761SOL     OW 3041   2.329   0.429   2.351 -0.3311  0.0903  0.6336
  761SOL    HW1 3042   2.248   0.386   2.380  1.8045 -0.1594  1.1276
  761SOL    HW2 3043   2.367   0.469   2.431  0.7516 -1.4000 -3.1947
  761SOL     MW 3044   2.323   0.429   2.365  0.0935 -0.1393  0.1937
  762SOL     OW 3045   0.016   0.184   2.140 -0.2727  0.2534  0.0144
  762SOL    HW1 3046  -0.016   0.119   2.204 -0.1499 -0.4327  0.4044
  762SOL    HW2 3047  -0.063   0.224   2.102 -0.5143 -4.1974 -1.2333
  762SOL     MW 3048   0.001   0.181   2.143 -0.2884 -0.4243 -0.0988
  763SOL     OW 3049   2.457   1.188   2.379  0.0174  0.3563  0.4699
  763SOL    HW1 3050   2.503   1.152   2.302  2.4188 -1.0792  1.1799
  763SOL    HW2 3051   2.524   1.222   2.443 -4.4235  0.1666  0.1916
  763SOL     MW 3052   2.472   1.188   2.377 -0.2517  0.1419  0.5269
  764SOL     OW 3053   0.403   0.038   2.785 -0.2612  0.1600 -0.2043
  764SOL    HW1 3054   0.359   0.116   2.756  0.0502 -0.5045  0.8251
  764SOL    HW2 3055   0.455   0.066   2.862  0.1897  1.7499  1.2258
  764SOL     MW 3056   0.404   0.052   2.791 -0.1606  0.2821  0.1202
  765SOL     OW 3057   2.778   0.035   2.353 -0.1670 -0.1037 -0.4784
  765SOL    HW1 3058   2.745   0.009   2.267  0.7525  2.3252  1.1453
  765SOL    HW2 3059   2.790  -0.053   2.393 -3.7209 -0.0889 -0.3485
  765SOL     MW 3060   2.775   0.020   2.347 -0.5146  0.2187 -0.2470
  766SOL     OW 3061   1.919   2.953   2.232 -0.0018  0.4585 -0.4380
  766SOL    HW1 3062   1.954   3.008   2.159  1.6556  0.1502  0.8941
  766SOL    HW2 3063   1.831   2.919   2.189 -0.0029  0.2170  0.6880
  766SOL     MW 3064   1.912   2.956   2.216  0.2167  0.3859 -0.1136
  767SOL     OW 3065   2.661   0.634   1.896 -0.4549 -0.0289 -0.1716
  767SOL    HW1 3066   2.666   0.633   1.995 -3.1704  0.4369  0.7105
  767SOL    HW2 3067   2.601   0.706   1.872  0.4636  0.3390  0.4090
  767SOL     MW 3068   2.654   0.643   1.906 -0.6920  0.0811  0.0214
  768SOL     OW 3069   0.053   1.452   2.892  0.3377  0.3001  0.2716
  768SOL    HW1 3070   0.086   1.469   2.983  2.9969 -2.9404  2.6636
  768SOL    HW2 3071   0.081   1.358   2.877  0.6454  0.0822  0.6791
  768SOL     MW 3072   0.061   1.442   2.902  0.7292 -0.1562  0.6410
  769SOL     OW 3073   2.400   0.696   2.350 -0.4934  0.4755  0.3377
  769SOL    HW1 3074   2.385   0.603   2.316 -0.9884 -0.2167  1.9467
  769SOL    HW2 3075   2.458   0.735   2.292 -1.0628 -1.4988 -0.3730
  769SOL     MW 3076   2.406   0.689   2.338 -0.6338  0.1237  0.4562
  770SOL     OW 3077   3.084   1.638   2.657 -0.2010 -0.4906 -0.4282
  770SOL    HW1 3078   2.989   1.652   2.666  0.8479  1.1701  0.4068
  770SOL    HW2 3079   3.097   1.595   2.743  0.2173 -2.5393 -0.0132
  770SOL     MW 3080   3.073   1.634   2.669 -0.0074 -0.5418 -0.2633
  771SOL     OW 3081   3.066   0.562   1.987  0.0680  0.1552  0.1315
  771SOL    HW1 3082   3.022   0.570   1.902  0.1430 -2.6640 -1.1731
  771SOL    HW2 3083   3.119   0.486   1.955  1.9752 -1.2015  4.1178
  771SOL     MW 3084   3.067   0.553   1.972  0.3295 -0.3957  0.4853
  772SOL     OW 3085   0.008   3.092   2.341 -0.1827  0.6485  0.3340
  772SOL    HW1 3086  -0.067   3.038   2.377  1.0862  1.6226 -1.0371
  772SOL    HW2 3087   0.068   3.014   2.312  2.3482  0.6450 -2.3495
  772SOL     MW 3088   0.006   3.074   2.342  0.3186  0.7766 -0.2010
  773SOL     OW 3089   2.474   2.911   2.784  0.0686  0.2159 -0.5180
  773SOL    HW1 3090   2.518   2.835   2.753  0.1812  0.0094 -1.6526
  773SOL    HW2 3091   2.470   2.917   2.879 -1.0531 -0.8877  0.8686
  773SOL     MW 3092   2.479   2.902   2.792 -0.0646  0.0431 -0.4847
  774SOL     OW 3093   2.376   1.178   1.796  0.7073 -0.1447 -0.3595
  774SOL    HW1 3094   2.338   1.248   1.745 -0.3029 -0.5998 -1.7075
  774SOL    HW2 3095   2.320   1.095   1.782 -0.5411 -0.8808  1.3388
  774SOL     MW 3096   2.363   1.176   1.787  0.4093 -0.3019 -0.3133
  775SOL     OW 3097   2.349   2.882   2.383 -0.4511 -0.3033  0.3275
  775SOL    HW1 3098   2.353   2.965   2.335  1.0873 -0.0390 -0.7954
  775SOL    HW2 3099   2.419   2.828   2.355 -0.4408  0.5619  2.7791
  775SOL     MW 3100   2.359   2.886   2.373 -0.2468 -0.1543  0.5028
  776SOL     OW 3101   0.137   1.498   0.037 -0.1500  0.4800  0.1737
  776SOL    HW1 3102   0.226   1.482   0.075  0.7272  1.0923 -0.7412
  776SOL    HW2 3103   0.077   1.447   0.099  0.4433 -4.4669  1.4900
  776SOL     MW 3104   0.141   1.489   0.050  0.0440 -0.0919  0.2267
  777SOL     OW 3105   3.013   1.116   1.679  0.0441  0.0158 -0.5573
  777SOL    HW1 3106   2.954   1.150   1.608 -3.4702  3.0186 -3.8229
  777SOL    HW2 3107   2.955   1.067   1.739 -2.2773  3.0956 -1.1967
  777SOL     MW 3108   2.998   1.114   1.678 -0.7259  0.8184 -1.0725
  778SOL     OW 3109   2.942   0.496   2.799  0.0421  0.2785  0.2722
  778SOL    HW1 3110   2.868   0.511   2.860 -2.3775 -0.7491  2.5738
  778SOL    HW2 3111   2.929   0.560   2.728 -0.5971  0.2882  1.3169
  778SOL     MW 3112   2.931   0.506   2.798 -0.3615  0.1442  0.7137
  779SOL     OW 3113   2.207   0.561   2.105 -0.0303 -0.2835 -0.0293
  779SOL    HW1 3114   2.120   0.588   2.150 -0.1536  1.7070 -1.6938
  779SOL    HW2 3115   2.250   0.504   2.175  0.6168  1.6546 -0.2308
  779SOL     MW 3116   2.201   0.557   2.120  0.0388  0.2348 -0.2755
  780SOL     OW 3117   0.240   0.234   2.717 -0.0580  0.3538  0.1994
  780SOL    HW1 3118   0.151   0.225   2.739 -3.9211 -2.2847  0.9656
  780SOL    HW2 3119   0.257   0.324   2.733  0.2811 -1.7552  1.7987
  780SOL     MW 3120   0.231   0.244   2.722 -0.5229 -0.2726  0.5115
  781SOL     OW 3121   0.010   1.209   2.441 -0.3789 -0.2996 -0.1115
  781SOL    HW1 3122   0.027   1.225   2.351  0.3292  0.5618 -0.2354
  781SOL    HW2 3123  -0.029   1.122   2.445  1.4084  1.2517 -0.8569
  781SOL     MW 3124   0.007   1.200   2.430 -0.0496  0.0187 -0.2262
  782SOL     OW 3125   0.719   1.481   0.065  0.4574 -0.0201 -0.3293
  782SOL    HW1 3126   0.641   1.529   0.054  1.6829  1.6792 -0.9479
  782SOL    HW2 3127   0.755   1.502   0.153  0.9051  0.7875  0.9852
  782SOL     MW 3128   0.713   1.490   0.075  0.6782  0.3107 -0.2375
  783SOL     OW 3129   2.705   0.553   2.359  0.2263 -0.2474 -0.0508
  783SOL    HW1 3130   2.689   0.630   2.309  1.1630 -1.8463  2.6714
  783SOL    HW2 3131   2.625   0.530   2.407  0.9928 -1.2358 -2.6858
  783SOL     MW 3132   2.692   0.560   2.359  0.4510 -0.5888 -0.0393
  784SOL     OW 3133   0.136   0.802   2.828 -0.2361  0.1675  0.2988
  784SOL    HW1 3134   0.047   0.821   2.803 -2.6442 -0.8472 -0.7472
  784SOL    HW2 3135   0.192   0.879   2.823 -1.1640  0.5283  2.2434
  784SOL     MW 3136   0.132   0.815   2.824 -0.6763  0.0813  0.4173
  785SOL     OW 3137   0.480   0.419   2.153 -0.4241  0.4776 -0.0775
  785SOL    HW1 3138   0.470   0.466   2.064  0.5208 -0.0715  0.2041
  785SOL    HW2 3139   0.388   0.392   2.172  0.0656 -0.4971 -0.9042
  785SOL     MW 3140   0.467   0.422   2.144 -0.2349  0.2766 -0.1494
  786SOL     OW 3141   1.869   0.503   3.036  0.2904  0.3484 -0.0492
  786SOL    HW1 3142   1.914   0.559   2.982 -2.6202 -0.2099 -2.0808
  786SOL    HW2 3143   1.783   0.536   3.051  0.8085  2.6442  2.3891
  786SOL     MW 3144   1.864   0.515   3.031 -0.0253  0.5777  0.0045
  787SOL     OW 3145   2.373   0.193   2.916  0.1303  0.1321  0.1532
  787SOL    HW1 3146   2.455   0.136   2.886  1.5407  0.3386  0.6611
  787SOL    HW2 3147   2.418   0.279   2.936  1.7295  0.1401  0.6093
  787SOL     MW 3148   2.390   0.197   2.915  0.5274  0.1604  0.2804
  788SOL     OW 3149   2.916   2.881   2.391  0.2527 -0.1744  0.1152
  788SOL    HW1 3150   2.985   2.853   2.450 -2.0094  0.2042 -0.2586
  788SOL    HW2 3151   2.929   2.842   2.303 -0.2021 -0.3273 -2.8439
  788SOL     MW 3152   2.927   2.872   2.387 -0.1058 -0.1446 -0.3246
  789SOL     OW 3153   0.089   0.195   0.092  0.2077 -0.1591 -0.2514
  789SOL    HW1 3154   0.018   0.139   0.084 -1.0728  0.9424 -3.7874
  789SOL    HW2 3155   0.074   0.257   0.020  1.1398 -1.4793 -1.3899
  789SOL     MW 3156   0.078   0.196   0.082  0.1617 -0.1880 -0.8682
  790SOL     OW 3157   3.044   0.935   2.479  0.1662  0.0880  0.4031
  790SOL    HW1 3158   3.001   0.926   2.564  1.8780 -2.1399 -2.4169
  790SOL    HW2 3159   2.968   0.956   2.425 -1.6997 -0.5862 -0.8511
  790SOL     MW 3160   3.029   0.937   2.483  0.1459 -0.2949 -0.1345
  791SOL     OW 3161   2.490   0.491   2.572  0.3948  0.6585  0.4740
  791SOL    HW1 3162   2.472   0.542   2.651 -0.8478 -0.6469 -0.4315
  791SOL    HW2 3163   2.530   0.406   2.596  1.4791 -0.5237 -2.4058
  791SOL     MW 3164   2.493   0.487   2.585  0.3740  0.3303 -0.0254
  792SOL     OW 3165   2.504   0.223   2.439 -0.3709 -0.0485  0.2019
  792SOL    HW1 3166   2.463   0.290   2.384  0.3453  2.7828  1.5895
  792SOL    HW2 3167   2.435   0.214   2.506 -0.3166 -2.3823  1.8354
  792SOL     MW 3168   2.489   0.230   2.441 -0.2692  0.0172  0.6005
  793SOL     OW 3169   1.852   1.157   2.052  0.0780 -0.5196 -0.0937
  793SOL    HW1 3170   1.828   1.114   1.965 -0.3837 -0.5860  3.0883
  793SOL    HW2 3171   1.948   1.160   2.042 -1.2838 -1.6452  1.2225
  793SOL     MW 3172   1.861   1.152   2.039 -0.1626 -0.6769  0.4998
  794SOL     OW 3173   1.389   2.288   0.124 -0.1969  0.0906 -0.2364
  794SOL    HW1 3174   1.406   2.372   0.082  1.3337 -1.8659  1.4134
  794SOL    HW2 3175   1.456   2.272   0.187 -3.9499  2.6037 -1.6749
  794SOL     MW 3176   1.400   2.297   0.127 -0.4901  0.1640 -0.2085
  795SOL     OW 3177   2.275   1.006   2.501 -0.2604  0.2541 -0.0067
  795SOL    HW1 3178   2.225   1.066   2.562  1.8194 -0.0695  3.2698
  795SOL    HW2 3179   2.349   1.067   2.460  1.3334  0.9246 -0.4845
  795SOL     MW 3180   2.278   1.022   2.503  0.2243  0.2999  0.3626
  796SOL     OW 3181   0.233   0.568   2.685  0.9345  0.6280 -0.7623
  796SOL    HW1 3182   0.221   0.646   2.736 -0.0124 -1.1600  1.1402
  796SOL    HW2 3183   0.167   0.583   2.619 -0.7354 -0.4486 -0.1806
  796SOL     MW 3184   0.223   0.580   2.683  0.5893  0.2501 -0.4345
  797SOL     OW 3185   2.782   0.215   2.649 -0.3473 -0.0832  0.4122
  797SOL    HW1 3186   2.777   0.238   2.557  0.4952  0.6582 -1.6629
  797SOL    HW2 3187   2.864   0.264   2.670  0.1658  0.3409  0.5733
  797SOL     MW 3188   2.792   0.225   2.640 -0.1684  0.0706  0.1597
  798SOL     OW 3189   2.424   0.046   2.238 -0.0415 -0.5076  0.4606
  798SOL    HW1 3190   2.454   0.088   2.325 -1.0580  1.0112  0.2728
  798SOL    HW2 3191   2.507   0.026   2.187 -3.4716 -3.8419  0.2994
  798SOL     MW 3192   2.439   0.049   2.243 -0.6282 -0.7471  0.4145
  799SOL     OW 3193   2.596   2.982   0.066 -0.8215  0.1009  0.3936
  799SOL    HW1 3194   2.514   2.961   0.022 -0.3692  1.3935 -2.3330
  799SOL    HW2 3195   2.575   2.985   0.163  0.3192 -1.3904 -0.5993
  799SOL     MW 3196   2.582   2.980   0.073 -0.6113  0.0747 -0.0972
  800SOL     OW 3197   1.947   3.015   1.753 -0.0847 -0.5538  0.5196
  800SOL    HW1 3198   1.861   2.970   1.765 -1.8939 -1.8438  0.3073
  800SOL    HW2 3199   1.962   3.046   1.843  1.9414  2.4619 -2.5899
  800SOL     MW 3200   1.938   3.013   1.766 -0.0561 -0.3261  0.0813
  801SOL     OW 3201   2.900   1.282   2.595 -0.1419 -0.1986 -0.4661
  801SOL    HW1 3202   2.895   1.195   2.639  0.0625 -2.1342 -2.3989
  801SOL    HW2 3203   2.984   1.286   2.546  0.2467 -1.7923 -1.7140
  801SOL     MW 3204   2.911   1.271   2.594 -0.0637 -0.6643 -0.8858
  802SOL     OW 3205   2.631   1.444   2.827  0.0975 -0.7752  0.3295
  802SOL    HW1 3206   2.606   1.372   2.758 -0.8923  1.1173 -0.9755
  802SOL    HW2 3207   2.705   1.417   2.880 -1.4902  0.7828 -2.4813
  802SOL     MW 3208   2.637   1.431   2.825 -0.2426 -0.3200 -0.2135
  803SOL     OW 3209   2.364   1.396   1.981 -0.1475  0.2863  0.3729
  803SOL    HW1 3210   2.310   1.358   2.049 -2.4285 -0.1489  0.3815
  803SOL    HW2 3211   2.362   1.331   1.911 -1.2090  0.4201 -0.7166
  803SOL     MW 3212   2.357   1.383   1.981 -0.5885  0.2466  0.2303
  804SOL     OW 3213   2.221   0.138   0.029  0.7438  0.0837  0.4032
  804SOL    HW1 3214   2.168   0.215   0.032  0.3129 -3.9442  0.4043
  804SOL    HW2 3215   2.283   0.151  -0.041 -1.3123 -2.6165  1.4387
  804SOL     MW 3216   2.222   0.150   0.020  0.4157 -0.8040  0.5400
  805SOL     OW 3217   2.735   0.808   2.676 -0.1109  0.1863 -0.3623
  805SOL    HW1 3218   2.647   0.808   2.639 -1.4573  1.5342  1.5711
  805SOL    HW2 3219   2.770   0.729   2.647  0.5502 -0.8265  2.5885
  805SOL     MW 3220   2.728   0.798   2.667 -0.2013  0.2305  0.2821
  806SOL     OW 3221   2.622   0.773   2.188  0.3683 -0.2968  0.1687
  806SOL    HW1 3222   2.704   0.781   2.142  0.6467  0.7412  1.5668
  806SOL    HW2 3223   2.585   0.866   2.185  0.2158  0.7050  0.4472
  806SOL     MW 3224   2.628   0.786   2.182  0.3849 -0.0276  0.3899
  807SOL     OW 3225   3.044   1.052   1.990  0.3163  0.3458  0.8198
  807SOL    HW1 3226   3.087   0.982   2.038  0.9002 -0.8335 -1.4891
  807SOL    HW2 3227   3.053   1.129   2.035 -2.4135 -1.2613 -2.9695
  807SOL     MW 3228   3.051   1.053   2.002  0.0332 -0.0218  0.0152
  808SOL     OW 3229   2.603   0.072   2.827 -0.1215  0.0469  0.1682
  808SOL    HW1 3230   2.577  -0.006   2.773 -1.8989  1.3409 -4.4987
  808SOL    HW2 3231   2.659   0.126   2.772  0.9027  1.6340 -1.9566
  808SOL     MW 3232   2.607   0.069   2.812 -0.2209  0.4270 -0.7279
  809SOL     OW 3233   2.689   1.364   2.415  0.2863 -0.6193  0.7241
  809SOL    HW1 3234   2.752   1.336   2.485 -1.0143  2.2710  0.7646
  809SOL    HW2 3235   2.733   1.319   2.343  0.0729  0.9151  0.9275
  809SOL     MW 3236   2.703   1.354   2.415  0.0865 -0.0355  0.7562
  810SOL     OW 3237   2.238   1.283   2.192  0.1971  0.3765 -0.0379
  810SOL    HW1 3238   2.301   1.298   2.263 -1.9468 -0.0842  2.3358
  810SOL    HW2 3239   2.234   1.188   2.193  1.6952  0.4923  2.6354
  810SOL     MW 3240   2.246   1.273   2.201  0.1119  0.3310  0.6280
  811SOL     OW 3241   1.608   0.233   2.292 -0.0750 -0.3657 -0.1401
  811SOL    HW1 3242   1.698   0.221   2.320  1.4581  1.7989  1.8661
  811SOL    HW2 3243   1.598   0.213   2.194  1.2616 -0.1282 -3.6223
  811SOL     MW 3244   1.618   0.229   2.283  0.3036 -0.0488 -0.3349
  812SOL     OW 3245   1.467   2.796   2.059 -0.1341  0.2610 -0.1252
  812SOL    HW1 3246   1.558   2.810   2.027 -0.3276 -1.5627  1.7205
  812SOL    HW2 3247   1.481   2.752   2.144 -1.3420  0.2788  1.6245
  812SOL     MW 3248   1.481   2.792   2.066 -0.3190  0.0227  0.3492
  813SOL     OW 3249   2.002   0.637   2.249  0.2130 -0.0293  0.0368
  813SOL    HW1 3250   1.917   0.610   2.203 -1.2364 -0.4068 -3.2945
  813SOL    HW2 3251   1.981   0.720   2.293 -0.1671  2.2660  2.7668
  813SOL     MW 3252   1.988   0.644   2.249 -0.0284  0.2237 -0.0425
  814SOL     OW 3253   2.721   1.297   1.639 -0.1975  0.1177  0.0782
  814SOL    HW1 3254   2.714   1.254   1.727 -0.3691 -4.1924 -0.5901
  814SOL    HW2 3255   2.647   1.265   1.587  0.1873  0.7442 -0.0114
  814SOL     MW 3256   2.710   1.287   1.644 -0.1694 -0.3683 -0.0218
  815SOL     OW 3257   2.552   1.778   2.342 -0.3036  0.3095  0.5018
  815SOL    HW1 3258   2.491   1.701   2.310 -0.8599  1.3881  3.0106
  815SOL    HW2 3259   2.644   1.742   2.339  0.3410  0.9750 -0.1320
  815SOL     MW 3260   2.556   1.763   2.337 -0.2919  0.5396  0.7492
  816SOL     OW 3261   0.705   0.672   2.769 -0.3564  0.0950  0.1508
  816SOL    HW1 3262   0.758   0.595   2.737 -0.1893  1.0144  0.1934
  816SOL    HW2 3263   0.629   0.688   2.724  1.1174 -0.6251  0.0079
  816SOL     MW 3264   0.702   0.664   2.759 -0.1399  0.1213  0.1376
  817SOL     OW 3265   3.006   1.261   1.450 -0.3029  0.0067  0.5363
  817SOL    HW1 3266   3.103   1.242   1.457  3.0406 -1.5500  1.0242
  817SOL    HW2 3267   2.998   1.350   1.422  0.3127  0.4870  0.3367
  817SOL     MW 3268   3.018   1.270   1.447  0.2195 -0.1353  0.5743
  818SOL     OW 3269   1.915   1.076   2.636 -0.2612 -0.5986  0.2872
  818SOL    HW1 3270   1.918   1.039   2.550  1.2002  1.1802 -3.0414
  818SOL    HW2 3271   2.011   1.074   2.662  2.0064 -0.9371  0.2913
  818SOL     MW 3272   1.928   1.071   2.628  0.2308 -0.4086 -0.1514
  819SOL     OW 3273   2.089   0.306   2.401 -0.5526  0.3236  0.0017
  819SOL    HW1 3274   2.026   0.376   2.397 -1.5377 -0.2103  0.0092
  819SOL    HW2 3275   2.088   0.288   2.489 -0.1945  1.0534 -1.0911
  819SOL     MW 3276   2.081   0.313   2.412 -0.6354  0.3494 -0.1415
  820SOL     OW 3277   2.474   1.665   2.574  0.2403 -0.1096  0.5371
  820SOL    HW1 3278   2.543   1.607   2.600 -0.8129 -0.8573 -0.8791
  820SOL    HW2 3279   2.508   1.713   2.499  0.5302  3.1785  2.3382
  820SOL     MW 3280   2.487   1.664   2.567  0.1396  0.2256  0.5879
  821SOL     OW 3281   2.609   1.430   2.070  0.6878 -0.7275 -0.7935
  821SOL    HW1 3282   2.648   1.474   1.994 -0.3850  0.0651  1.8174
  821SOL    HW2 3283   2.509   1.430   2.045 -1.6881 -1.6177  1.6500
  821SOL     MW 3284   2.601   1.436   2.057  0.2328 -0.7404 -0.1266
  822SOL     OW 3285   2.957   2.742   1.516 -0.0784  0.0593 -0.2752
  822SOL    HW1 3286   2.941   2.724   1.611 -0.1441 -0.0745  2.8914
  822SOL    HW2 3287   2.915   2.827   1.497  1.8061 -1.5613  2.1816
  822SOL     MW 3288   2.949   2.751   1.526  0.1616 -0.1722  0.4667
  823SOL     OW 3289   2.371   0.483   1.886  0.1900 -0.2963 -0.0610
  823SOL    HW1 3290   2.429   0.420   1.908 -0.7634  0.2103 -0.9905
  823SOL    HW2 3291   2.334   0.511   1.969  2.4970 -0.5187  0.3406
  823SOL     MW 3292   2.374   0.478   1.900  0.3686 -0.2588 -0.1307
  824SOL     OW 3293   2.243   1.544   2.481  0.6009  0.2053 -0.0734
  824SOL    HW1 3294   2.319   1.583   2.525 -1.3379  1.4014 -0.6836
  824SOL    HW2 3295   2.170   1.579   2.532  0.1571 -0.3419  2.6246
  824SOL     MW 3296   2.244   1.554   2.494  0.2865  0.2909  0.2021
  825SOL     OW 3297   1.894   2.619   0.236 -0.1073  0.3831 -0.4559
  825SOL    HW1 3298   1.858   2.553   0.304  0.7713  0.0068  1.3597
  825SOL    HW2 3299   1.966   2.573   0.201 -5.4258 -1.2089  0.7460
  825SOL     MW 3300   1.899   2.604   0.240 -0.6931  0.1234 -0.0578
  826SOL     OW 3301   1.866   2.382   0.375 -0.0208 -0.7193  0.1846
  826SOL    HW1 3302   1.805   2.309   0.365 -1.0117 -0.4131  1.3779
  826SOL    HW2 3303   1.863   2.418   0.463 -0.1138 -3.0353 -2.4472
  826SOL     MW 3304   1.857   2.377   0.386 -0.1638 -0.9845 -0.0052
  827SOL     OW 3305   1.989   2.165   0.799  0.1929  0.6426 -0.7165
  827SOL    HW1 3306   1.907   2.153   0.745 -1.5650 -0.9140 -1.0921
  827SOL    HW2 3307   1.969   2.112   0.875 -1.0526  1.0932  3.5955
  827SOL     MW 3308   1.975   2.156   0.802 -0.2034  0.4967 -0.1971
  828SOL     OW 3309   0.085   2.649   0.654 -0.7328 -0.1732 -0.5795
  828SOL    HW1 3310   0.180   2.658   0.637 -0.2971 -0.0412 -0.2796
  828SOL    HW2 3311   0.057   2.708   0.582  0.3990 -0.2535  0.0651
  828SOL     MW 3312   0.094   2.658   0.642 -0.5260 -0.1664 -0.4549
  829SOL     OW 3313   2.942   2.986   1.179  0.1851  0.2671 -0.3002
  829SOL    HW1 3314   2.851   2.970   1.135  1.7018  1.9588 -0.4468
  829SOL    HW2 3315   2.988   2.895   1.187 -0.2686 -1.4090  1.9807
  829SOL     MW 3316   2.936   2.972   1.174  0.3254  0.2692 -0.0186
  830SOL     OW 3317   2.535   2.833   1.986 -0.0442 -0.1663  0.2109
  830SOL    HW1 3318   2.460   2.842   1.929 -0.7005 -1.6990 -0.0270
  830SOL    HW2 3319   2.601   2.810   1.921  0.8804 -0.6379 -1.2207
  830SOL     MW 3320   2.534   2.831   1.970 -0.0088 -0.4308 -0.0094
  831SOL     OW 3321   2.442   2.413   1.207 -0.3346 -0.2371  0.0260
  831SOL    HW1 3322   2.405   2.384   1.291  3.4033 -1.3465 -1.9184
  831SOL    HW2 3323   2.530   2.367   1.208  0.2782  1.0204  0.9151
  831SOL     MW 3324   2.449   2.403   1.218  0.2395 -0.2175 -0.1133
  832SOL     OW 3325   2.311   2.213   1.867 -0.0358  0.1902  0.0018
  832SOL    HW1 3326   2.360   2.293   1.866 -2.0905 -2.7956 -0.8001
  832SOL    HW2 3327   2.379   2.149   1.839  0.2454  2.0168 -1.9066
  832SOL     MW 3328   2.327   2.215   1.863 -0.2698  0.0373 -0.3558
  833SOL     OW 3329   1.735   2.493   0.884  0.0381  0.8884 -0.0242
  833SOL    HW1 3330   1.638   2.485   0.877 -0.0884 -1.2414 -1.4190
  833SOL    HW2 3331   1.735   2.559   0.955 -1.5299 -0.7423 -2.8228
  833SOL     MW 3332   1.722   2.500   0.892 -0.1855  0.3922 -0.5774
  834SOL     OW 3333   2.183   2.449   0.543 -0.8056 -0.2057 -0.1474
  834SOL    HW1 3334   2.123   2.381   0.558 -1.3112  0.3200  0.6596
  834SOL    HW2 3335   2.231   2.415   0.467 -1.0036 -3.1319 -1.0868
  834SOL     MW 3336   2.181   2.436   0.535 -0.8984 -0.5224 -0.1649
  835SOL     OW 3337   1.831   2.558   0.628 -0.0858  0.0240  0.3472
  835SOL    HW1 3338   1.783   2.531   0.700 -2.2663  0.5257  1.0002
  835SOL    HW2 3339   1.897   2.606   0.675  0.1253  0.7609  2.1432
  835SOL     MW 3340   1.833   2.561   0.644 -0.3457  0.1875  0.6703
  836SOL     OW 3341   1.891   2.241   1.553  0.1301 -0.0858 -0.5729
  836SOL    HW1 3342   1.975   2.232   1.592  0.5883 -1.8083 -0.5811
  836SOL    HW2 3343   1.840   2.311   1.603 -1.3955 -0.6949  1.2986
  836SOL     MW 3344   1.896   2.249   1.565 -0.0107 -0.3934 -0.3270
  837SOL     OW 3345   2.181   0.262   0.739  0.0458 -0.4056  0.0899
  837SOL    HW1 3346   2.085   0.273   0.711 -0.4984  0.1964  0.1650
  837SOL    HW2 3347   2.213   0.186   0.685 -2.6848 -2.9263 -1.7352
  837SOL     MW 3348   2.172   0.253   0.728 -0.3863 -0.6587 -0.1410
  838SOL     OW 3349   2.929   2.058   0.917  0.4632  0.6390  0.3854
  838SOL    HW1 3350   2.849   1.996   0.915 -3.1248  2.2369  1.5979
  838SOL    HW2 3351   3.006   2.002   0.919  0.0434 -0.6144  2.3432
  838SOL     MW 3352   2.929   2.042   0.917 -0.0656  0.6845  0.8037
  839SOL     OW 3353   1.523   2.324   1.056  0.0103 -0.0945  0.0796
  839SOL    HW1 3354   1.540   2.387   1.129 -0.2325 -0.5353  0.6405
  839SOL    HW2 3355   1.589   2.255   1.066  2.2000 -0.3950 -1.6468
  839SOL     MW 3356   1.534   2.323   1.067  0.2672 -0.1923 -0.0742
  840SOL     OW 3357   2.390   2.225   2.464 -0.0643  0.7811 -0.3851
  840SOL    HW1 3358   2.379   2.299   2.403  1.9289 -1.9392  0.8119
  840SOL    HW2 3359   2.329   2.244   2.534 -1.5390  0.4168  0.7388
  840SOL     MW 3360   2.380   2.237   2.465  0.0041  0.3741 -0.0789
  841SOL     OW 3361   2.147   2.493   0.118 -0.5217  0.1979  0.1691
  841SOL    HW1 3362   2.200   2.557   0.068 -1.7030  1.1408 -0.5791
  841SOL    HW2 3363   2.134   2.416   0.063 -2.7764 -0.7358 -0.7664
  841SOL     MW 3364   2.152   2.492   0.104 -0.9751  0.1991 -0.0530
  842SOL     OW 3365   2.650   2.107   1.566  0.4354  0.0380  0.5438
  842SOL    HW1 3366   2.606   2.090   1.650  2.4803 -1.4247 -1.0034
  842SOL    HW2 3367   2.587   2.084   1.492  0.4270 -1.8679  0.4011
  842SOL     MW 3368   2.636   2.102   1.568  0.7041 -0.4065  0.3208
  843SOL     OW 3369   2.672   2.771   1.748 -0.4600 -0.7174  0.5619
  843SOL    HW1 3370   2.758   2.739   1.778 -1.1607 -0.5091 -1.3754
  843SOL    HW2 3371   2.618   2.692   1.704  1.2252  1.0625 -4.1431
  843SOL     MW 3372   2.676   2.756   1.746 -0.3301 -0.4551 -0.3145
  844SOL     OW 3373   2.680   2.302   1.208  0.4157  0.1824  1.0122
  844SOL    HW1 3374   2.698   2.303   1.112 -1.5967  0.1031  0.1629
  844SOL    HW2 3375   2.731   2.378   1.232  1.9478  3.8317  2.1289
  844SOL     MW 3376   2.689   2.312   1.199  0.3524  0.6535  1.0475
  845SOL     OW 3377   2.874   2.473   0.341  0.0352 -0.2266 -0.1570
  845SOL    HW1 3378   2.825   2.394   0.370  0.1577  0.2574  1.7361
  845SOL    HW2 3379   2.863   2.534   0.414 -1.6909  0.2133 -0.7487
  845SOL     MW 3380   2.866   2.471   0.354 -0.1764 -0.1047  0.0147
  846SOL     OW 3381   1.512   2.876   0.740 -0.5599 -0.1906  0.6204
  846SOL    HW1 3382   1.544   2.911   0.821  1.1903  1.3066 -0.3624
  846SOL    HW2 3383   1.420   2.916   0.737  0.6831  4.1191 -1.7847
  846SOL     MW 3384   1.504   2.886   0.750 -0.1650  0.5756  0.1734
  847SOL     OW 3385   2.643   1.975   0.148 -0.4803 -0.0068  0.2361
  847SOL    HW1 3386   2.660   1.915   0.221 -4.2190  0.1395 -0.9021
  847SOL    HW2 3387   2.590   1.922   0.084 -2.1283 -0.3110 -2.3462
  847SOL     MW 3388   2.638   1.960   0.149 -1.1911 -0.0276 -0.2548
  848SOL     OW 3389   2.492   2.076   1.296  0.1474 -0.1619 -0.5117
  848SOL    HW1 3390   2.526   2.144   1.238 -0.4985 -1.7809 -0.7365
  848SOL    HW2 3391   2.481   1.991   1.246 -0.1627 -1.0519 -0.8804
  848SOL     MW 3392   2.495   2.074   1.282  0.0213 -0.4929 -0.5900
  849SOL     OW 3393   2.056   2.669   0.790 -0.1215 -0.0986 -0.3099
  849SOL    HW1 3394   2.062   2.587   0.833  3.1080  0.7767 -1.2704
  849SOL    HW2 3395   2.123   2.680   0.719  0.2283  0.1014 -0.9541
  849SOL     MW 3396   2.066   2.660   0.787  0.3508  0.0433 -0.5216
  850SOL     OW 3397   2.219   1.874   1.701 -0.1695  0.5543  0.2727
  850SOL    HW1 3398   2.134   1.834   1.688  0.9940 -1.1899  0.9123
  850SOL    HW2 3399   2.202   1.965   1.699 -0.1464  0.8031 -0.3560
  850SOL     MW 3400   2.206   1.881   1.699 -0.0129  0.3570  0.2742
  851SOL     OW 3401   2.290   2.384   0.308 -0.4636  0.2412  0.1778
  851SOL    HW1 3402   2.223   2.422   0.248  1.9601 -2.2420  0.2163
  851SOL    HW2 3403   2.363   2.457   0.317 -1.6020  2.1612 -2.2494
  851SOL     MW 3404   2.291   2.399   0.301 -0.2940  0.1669 -0.1374
  852SOL     OW 3405   2.325   2.102   0.281  0.0638 -0.1088  0.2451
  852SOL    HW1 3406   2.307   2.199   0.284 -1.4499  1.8393  1.4556
  852SOL    HW2 3407   2.377   2.097   0.199  1.6144  1.9239  0.2163
  852SOL     MW 3408   2.330   2.114   0.270  0.0687  0.4165  0.4010
  853SOL     OW 3409   2.446   2.440   1.861 -0.8734 -0.9647 -0.1487
  853SOL    HW1 3410   2.479   2.493   1.788  0.0014  0.1065 -0.1357
  853SOL    HW2 3411   2.521   2.400   1.904 -1.9326  2.6959 -0.8575
  853SOL     MW 3412   2.460   2.442   1.857 -0.8977 -0.3404 -0.2405
  854SOL     OW 3413   2.811   2.257   0.773 -0.2436 -0.1175 -0.2530
  854SOL    HW1 3414   2.762   2.216   0.702  1.4118 -1.5215 -0.0274
  854SOL    HW2 3415   2.876   2.190   0.802 -0.1661 -0.3068 -0.5707
  854SOL     MW 3416   2.813   2.243   0.767 -0.0149 -0.3277 -0.2651
  855SOL     OW 3417   2.737   2.239   0.370 -0.9749  0.3249  0.3379
  855SOL    HW1 3418   2.683   2.268   0.441  0.4032  0.4857 -1.8466
  855SOL    HW2 3419   2.804   2.172   0.382  0.0056  0.8169  1.7344
  855SOL     MW 3420   2.739   2.234   0.381 -0.6637  0.4111  0.2339
  856SOL     OW 3421   2.171   1.859   0.212  0.1719  0.5163 -0.0672
  856SOL    HW1 3422   2.074   1.858   0.217 -0.9637 -2.6514 -0.7762
  856SOL    HW2 3423   2.203   1.943   0.244 -1.0291 -0.5199 -0.6812
  856SOL     MW 3424   2.163   1.870   0.217 -0.1364 -0.0384 -0.2417
  857SOL     OW 3425   2.464   1.909   0.445  0.0979 -0.3271 -0.1769
  857SOL    HW1 3426   2.432   1.990   0.411  1.1762  1.4110  1.6127
  857SOL    HW2 3427   2.421   1.840   0.391 -1.6004 -0.8744 -0.7632
  857SOL     MW 3428   2.454   1.911   0.433  0.0161 -0.1700 -0.0181
  858SOL     OW 3429   2.932   2.690   1.815  0.0558 -0.3985 -0.2675
  858SOL    HW1 3430   3.030   2.685   1.821  0.8028  0.0079 -0.1129
  858SOL    HW2 3431   2.903   2.617   1.766 -2.4312  0.6884 -1.5001
  858SOL     MW 3432   2.941   2.679   1.809 -0.1738 -0.2014 -0.4097
  859SOL     OW 3433   2.061   2.420   0.883 -0.3479  0.0183 -0.2782
  859SOL    HW1 3434   2.020   2.341   0.848 -2.2740 -1.1589  1.3485
  859SOL    HW2 3435   2.151   2.385   0.892 -0.9915  3.0621 -0.3941
  859SOL     MW 3436   2.068   2.405   0.880 -0.6869  0.2646 -0.0789
  860SOL     OW 3437   2.688   2.562   0.173 -0.3461  0.3397 -0.3263
  860SOL    HW1 3438   2.748   2.528   0.236 -0.8344  1.2095 -0.1521
  860SOL    HW2 3439   2.733   2.642   0.132  1.1161  1.1058 -0.4240
  860SOL     MW 3440   2.702   2.568   0.176 -0.2176  0.5555 -0.3162
  861SOL     OW 3441   1.662   2.121   1.168 -0.9460  0.3737  0.1353
  861SOL    HW1 3442   1.712   2.122   1.250  0.6340 -1.1029  0.6330
  861SOL    HW2 3443   1.577   2.077   1.196  0.0977 -3.7922 -1.0918
  861SOL     MW 3444   1.658   2.115   1.182 -0.5999 -0.3708  0.0390
  862SOL     OW 3445   2.433   1.862   1.529  0.1808  0.1579  0.4146
  862SOL    HW1 3446   2.346   1.869   1.578 -0.4157 -1.0750  0.0203
  862SOL    HW2 3447   2.407   1.872   1.438  0.4232  0.4022  1.8997
  862SOL     MW 3448   2.418   1.864   1.524  0.1341  0.0274  0.5585
  863SOL     OW 3449   3.019   1.821   1.221 -0.3060 -0.0673  0.3466
  863SOL    HW1 3450   3.054   1.744   1.262 -2.0807 -0.5782 -1.5886
  863SOL    HW2 3451   3.045   1.899   1.267 -3.3596 -2.6696  0.8880
  863SOL     MW 3452   3.027   1.821   1.232 -0.9431 -0.4781  0.1627
  864SOL     OW 3453   0.033   1.861   0.926 -0.2045 -0.2366 -0.1628
  864SOL    HW1 3454  -0.024   1.822   0.992  4.0035 -0.6417  0.5557
  864SOL    HW2 3455   0.020   1.801   0.854 -0.6737 -0.5243 -1.1666
  864SOL     MW 3456   0.024   1.848   0.925  0.2888 -0.3280 -0.2005
  865SOL     OW 3457   2.479   2.156   0.044 -0.0106  0.1885 -0.8075
  865SOL    HW1 3458   2.567   2.105   0.073 -0.3406 -1.0656  2.2230
  865SOL    HW2 3459   2.451   2.120  -0.037  1.6170  2.8526  1.1681
  865SOL     MW 3460   2.487   2.144   0.037  0.1606  0.3745 -0.1470
  866SOL     OW 3461   2.697   2.399   1.524  0.1240 -0.9339  0.1397
  866SOL    HW1 3462   2.692   2.306   1.503 -1.1378  0.6554 -1.9279
  866SOL    HW2 3463   2.751   2.442   1.454 -0.6527  0.0373  1.5239
  866SOL     MW 3464   2.704   2.393   1.512 -0.1450 -0.5960  0.0496
  867SOL     OW 3465   0.113   2.691   1.868 -0.2864 -0.1495 -0.3398
  867SOL    HW1 3466   0.181   2.651   1.918 -1.2411  1.3455 -1.0203
  867SOL    HW2 3467   0.129   2.778   1.823  0.3100 -0.2222 -1.5237
  867SOL     MW 3468   0.124   2.697   1.869 -0.3336  0.0382 -0.5858
  868SOL     OW 3469   2.778   2.606   0.600 -0.4271 -0.6683  0.3296
  868SOL    HW1 3470   2.733   2.537   0.639  1.7415  0.4971 -0.2586
  868SOL    HW2 3471   2.714   2.643   0.537  1.3460 -1.1200  0.5676
  868SOL     MW 3472   2.763   2.602   0.597  0.0929 -0.5741  0.2834
  869SOL     OW 3473   1.903   2.315   1.081 -0.1279 -0.4126  0.1558
  869SOL    HW1 3474   1.964   2.360   1.023  0.1417 -1.4625  1.0213
  869SOL    HW2 3475   1.834   2.305   1.023  0.2784  1.7578  2.7003
  869SOL     MW 3476   1.902   2.320   1.065 -0.0387 -0.2647  0.6057
  870SOL     OW 3477   2.312   0.112   0.526 -0.0715 -0.3134  0.5593
  870SOL    HW1 3478   2.346   0.123   0.440  0.7218 -0.4347 -1.5478
  870SOL    HW2 3479   2.362   0.186   0.564  0.9021  0.2030 -2.9912
  870SOL     MW 3480   2.323   0.123   0.520  0.1617 -0.2613 -0.1871
  871SOL     OW 3481   2.439   2.177   0.775  0.3835 -0.2949  0.0163
  871SOL    HW1 3482   2.394   2.102   0.751  1.4047  3.3054  0.6374
  871SOL    HW2 3483   2.383   2.217   0.842 -0.0029 -1.8374  2.5172
  871SOL     MW 3484   2.426   2.172   0.781  0.4672 -0.0234  0.4282
  872SOL     OW 3485   2.049   2.567   1.474 -0.3274  0.2331 -0.3905
  872SOL    HW1 3486   1.999   2.604   1.544 -0.2310 -0.5184 -0.4500
  872SOL    HW2 3487   1.979   2.520   1.427 -3.0159  0.2954 -0.6857
  872SOL     MW 3488   2.033   2.566   1.477 -0.6694  0.1422 -0.4373
  873SOL     OW 3489   2.833   2.053   1.883  0.4289 -0.7478 -0.3244
  873SOL    HW1 3490   2.886   2.112   1.943  1.7646 -0.7055 -1.8009
  873SOL    HW2 3491   2.893   2.033   1.812  0.6070  0.3370  1.4652
  873SOL     MW 3492   2.848   2.058   1.882  0.6286 -0.5991 -0.2830
  874SOL     OW 3493   2.415   1.556   2.277  0.1038 -0.1375  0.0760
  874SOL    HW1 3494   2.345   1.535   2.341  4.2288 -1.7512 -0.4457
  874SOL    HW2 3495   2.470   1.477   2.261  0.5243 -1.1032  1.1006
  874SOL     MW 3496   2.413   1.543   2.283  0.7035 -0.4778  0.1423
  875SOL     OW 3497   2.322   2.370   0.957  0.4116  0.3983  0.4129
  875SOL    HW1 3498   2.386   2.430   0.903  2.5675 -0.4185 -1.3546
  875SOL    HW2 3499   2.329   2.399   1.046  1.0080  2.4718 -0.5759
  875SOL     MW 3500   2.332   2.381   0.961  0.7747  0.5641  0.0492
  876SOL     OW 3501   3.038   2.336   1.313 -0.1266 -0.2588  0.4811
  876SOL    HW1 3502   3.070   2.366   1.232 -1.9694  0.1863  1.0265
  876SOL    HW2 3503   3.097   2.391   1.375 -1.1509  0.9999 -0.8194
  876SOL     MW 3504   3.050   2.347   1.311 -0.5049 -0.0340  0.3815
  877SOL     OW 3505   3.087   2.809   0.438 -0.1684  0.1715 -0.4908
  877SOL    HW1 3506   3.077   2.904   0.429 -0.3169 -0.4602 -0.8111
  877SOL    HW2 3507   3.110   2.790   0.348 -0.2340 -1.7391 -0.5374
  877SOL     MW 3508   3.089   2.819   0.425 -0.1967 -0.1639 -0.5392
  878SOL     OW 3509   2.409   1.826   1.233  0.1717  0.6696  0.1370
  878SOL    HW1 3510   2.361   1.741   1.263 -1.7263  0.4225  3.8736
  878SOL    HW2 3511   2.496   1.786   1.208 -2.3093  1.8537 -1.6346
  878SOL     MW 3512   2.414   1.809   1.233 -0.4061  0.7932  0.3962
  879SOL     OW 3513   2.696   2.403   0.962  0.1318  0.2310 -0.1304
  879SOL    HW1 3514   2.755   2.475   0.980 -1.8491  0.5071  1.1499
  879SOL    HW2 3515   2.734   2.359   0.885  1.7629 -0.3981  1.6632
  879SOL     MW 3516   2.709   2.407   0.955  0.0856  0.1844  0.2752
  880SOL     OW 3517   2.717   2.042   0.592  0.0686 -0.2692  0.4018
  880SOL    HW1 3518   2.634   2.000   0.622 -2.9779 -1.6010  0.3669
  880SOL    HW2 3519   2.697   2.083   0.511 -0.2604 -0.1101  0.0962
  880SOL     MW 3520   2.704   2.042   0.586 -0.3767 -0.4239  0.3569
  881SOL     OW 3521   2.923   2.763   0.770 -0.1791 -0.0847  0.0188
  881SOL    HW1 3522   2.864   2.707   0.710 -0.8719  0.2757 -0.6530
  881SOL    HW2 3523   3.015   2.730   0.748 -0.5584 -2.8847 -0.8806
  881SOL     MW 3524   2.927   2.751   0.759 -0.3206 -0.4066 -0.1885
  882SOL     OW 3525   2.256   2.874   1.907  0.7234 -0.7163 -0.9597
  882SOL    HW1 3526   2.239   2.849   1.816 -0.3040 -1.4242 -0.9448
  882SOL    HW2 3527   2.222   2.806   1.959 -0.4953 -0.9157 -0.1357
  882SOL     MW 3528   2.249   2.862   1.902  0.4270 -0.8360 -0.8490
  883SOL     OW 3529   2.296   2.214   1.393  0.0049 -0.3418 -0.5118
  883SOL    HW1 3530   2.365   2.144   1.368 -1.4724 -1.0223 -1.3819
  883SOL    HW2 3531   2.215   2.187   1.351 -2.9776 -0.4917 -2.2359
  883SOL     MW 3532   2.294   2.202   1.384 -0.5835 -0.4514 -0.8541
  884SOL     OW 3533   1.971   1.763   1.114  0.2252  0.1566 -0.3870
  884SOL    HW1 3534   1.904   1.825   1.069 -0.6892 -0.8143  0.5954
  884SOL    HW2 3535   2.051   1.793   1.069  1.0271  2.3280  2.7419
  884SOL     MW 3536   1.973   1.775   1.102  0.2103  0.3150  0.1554
  885SOL     OW 3537   2.847   2.441   1.742 -0.2239 -0.3120  0.5369
  885SOL    HW1 3538   2.908   2.370   1.745 -1.1546  2.6662  0.9598
  885SOL    HW2 3539   2.790   2.424   1.671  1.2354  1.3888 -0.0315
  885SOL     MW 3540   2.848   2.429   1.733 -0.1541  0.3053  0.5177
  886SOL     OW 3541   2.855   2.504   1.336  0.4663  0.2603 -0.2820
  886SOL    HW1 3542   2.925   2.431   1.326 -0.3638  0.4426  1.8447
  886SOL    HW2 3543   2.901   2.586   1.358  0.5639 -1.8462 -0.5648
  886SOL     MW 3544   2.870   2.505   1.338  0.3697  0.0064 -0.0387
  887SOL     OW 3545   2.330   2.618   1.473  0.5286 -0.0212 -0.3053
  887SOL    HW1 3546   2.343   2.662   1.389 -0.2495 -2.3231 -1.0424
  887SOL    HW2 3547   2.249   2.565   1.466 -0.8853  1.3857  1.0054
  887SOL     MW 3548   2.321   2.616   1.461  0.2394 -0.1393 -0.2296
  888SOL     OW 3549   1.846   2.029   1.377 -0.2416  0.3277  0.5918
  888SOL    HW1 3550   1.917   2.063   1.313 -1.3427 -2.1882 -1.9172
  888SOL    HW2 3551   1.853   2.082   1.461  0.6889  1.6489  0.6507
  888SOL     MW 3552   1.856   2.041   1.380 -0.2641  0.1700  0.2685
  889SOL     OW 3553   2.268   2.080   2.093  0.1035  0.1432  0.4825
  889SOL    HW1 3554   2.349   2.067   2.147  0.7588  1.5728 -0.1139
  889SOL    HW2 3555   2.293   2.152   2.034  0.3111 -1.4310 -0.6309
  889SOL     MW 3556   2.282   2.088   2.093  0.2173  0.1241  0.2569
  890SOL     OW 3557   0.102   2.293   0.096 -0.0418  0.2938  0.0815
  890SOL    HW1 3558   0.036   2.351   0.062  0.1627 -0.5735 -2.0358
  890SOL    HW2 3559   0.071   2.268   0.187  0.0888 -1.0790 -0.8703
  890SOL     MW 3560   0.089   2.298   0.103  0.0024 -0.0018 -0.3235
  891SOL     OW 3561   3.069   2.076   1.376  0.1851 -0.0862 -0.5666
  891SOL    HW1 3562   3.145   2.075   1.432 -2.7109  0.6820  0.9525
  891SOL    HW2 3563   3.056   2.163   1.332 -0.7600 -2.5944  0.5286
  891SOL     MW 3564   3.078   2.088   1.378 -0.3217 -0.3158 -0.2217
  892SOL     OW 3565   2.347   2.346   2.893 -0.1965  0.0560  0.7914
  892SOL    HW1 3566   2.338   2.251   2.914 -0.3061  1.3496  1.3201
  892SOL    HW2 3567   2.433   2.360   2.852 -0.1431 -1.3577  1.6144
  892SOL     MW 3568   2.357   2.336   2.891 -0.2039  0.0401  0.9698
  893SOL     OW 3569   1.575   2.483   1.286 -0.1918  0.5425 -0.2261
  893SOL    HW1 3570   1.510   2.484   1.364 -2.9114 -0.7316  2.8381
  893SOL    HW2 3571   1.657   2.450   1.319  0.1557 -1.1287  2.1461
  893SOL     MW 3572   1.577   2.479   1.300 -0.5048  0.1539  0.4912
  894SOL     OW 3573   2.904   1.821   0.561 -0.2100 -0.4668 -0.5431
  894SOL    HW1 3574   2.849   1.896   0.589 -2.9206  3.5730  1.7043
  894SOL    HW2 3575   2.863   1.786   0.476  0.9523  1.5188  1.2707
  894SOL     MW 3576   2.892   1.826   0.553 -0.4143  0.3282 -0.0073
  895SOL     OW 3577   2.060   2.130   1.219  0.2458  0.2506 -0.0383
  895SOL    HW1 3578   2.019   2.191   1.155  1.9206 -0.3638 -0.1398
  895SOL    HW2 3579   2.113   2.072   1.163 -0.6934  0.5171 -1.4994
  895SOL     MW 3580   2.062   2.130   1.203  0.3428  0.2047 -0.2445
  896SOL     OW 3581   2.204   2.805   0.971 -0.5227  0.1017  0.3384
  896SOL    HW1 3582   2.208   2.747   1.045  0.5087  0.0684  0.3090
  896SOL    HW2 3583   2.151   2.760   0.911  2.2716 -0.8659  2.9304
  896SOL     MW 3584   2.198   2.791   0.973 -0.0180 -0.0304  0.6765
  897SOL     OW 3585   2.997   2.911   0.178 -0.0729  0.4958  0.4929
  897SOL    HW1 3586   3.085   2.902   0.135 -2.1623  1.7841 -0.1130
  897SOL    HW2 3587   2.932   2.855   0.128 -1.0991  0.8106 -3.3714
  897SOL     MW 3588   3.000   2.902   0.166 -0.4840  0.7073 -0.0969
  898SOL     OW 3589   2.073   0.129   1.379  0.2793  0.1730  0.1415
  898SOL    HW1 3590   2.017   0.058   1.345 -3.1245  2.3609  0.0770
  898SOL    HW2 3591   2.112   0.168   1.304 -2.0484  1.1920 -1.7655
  898SOL     MW 3592   2.071   0.125   1.364 -0.4769  0.5961 -0.1186
  899SOL     OW 3593   2.866   2.981   0.574 -0.0470 -0.5559  0.2134
  899SOL    HW1 3594   2.893   2.912   0.637 -1.9442 -0.1823 -0.2441
  899SOL    HW2 3595   2.776   2.999   0.592  1.6119 -0.5536  0.7987
  899SOL     MW 3596   2.858   2.974   0.585 -0.0784 -0.5063  0.2302
  900SOL     OW 3597   0.118   2.467   1.127  0.2307 -0.3620  0.3508
  900SOL    HW1 3598   0.141   2.555   1.095  0.0445 -1.8060 -1.1510
  900SOL    HW2 3599   0.084   2.429   1.044  1.6899 -0.3347  0.9028
  900SOL     MW 3600   0.117   2.474   1.112  0.3987 -0.5489  0.2255
  901SOL     OW 3601   1.728   2.843   1.776 -0.2878 -0.2122  0.1117
  901SOL    HW1 3602   1.805   2.780   1.775  0.0319 -0.6631  0.1353
  901SOL    HW2 3603   1.701   2.871   1.688 -2.3460  2.4557 -0.8713
  901SOL     MW 3604   1.735   2.838   1.764 -0.5171  0.0803 -0.0149
  902SOL     OW 3605   2.550   2.082   1.818  0.5033  0.1671 -0.3714
  902SOL    HW1 3606   2.545   1.979   1.838 -0.3005  0.6994  2.7985
  902SOL    HW2 3607   2.640   2.113   1.841  1.0924  0.5473  0.0064
  902SOL     MW 3608   2.561   2.073   1.824  0.4749  0.2875  0.0967
  903SOL     OW 3609   1.679   2.784   0.536 -0.0636  0.0742 -0.5267
  903SOL    HW1 3610   1.729   2.707   0.572 -1.4363  3.4306 -1.2628
  903SOL    HW2 3611   1.635   2.820   0.612  0.5122 -0.1570 -1.8947
  903SOL     MW 3612   1.680   2.779   0.551 -0.1688  0.4865 -0.8043
  904SOL     OW 3613   2.535   2.562   1.640  0.0024 -0.5697 -0.1976
  904SOL    HW1 3614   2.461   2.576   1.579 -2.8233  0.1336  1.3977
  904SOL    HW2 3615   2.593   2.508   1.583  0.5057 -0.4480  0.7552
  904SOL     MW 3616   2.533   2.556   1.624 -0.3040 -0.4608  0.1386
  905SOL     OW 3617   2.407   2.552   2.115 -0.2804 -0.0592 -0.3171
  905SOL    HW1 3618   2.429   2.516   2.029  0.8657  0.9779 -0.2365
  905SOL    HW2 3619   2.362   2.475   2.155 -0.8353 -1.0502  0.4917
  905SOL     MW 3620   2.404   2.537   2.109 -0.2024 -0.0531 -0.1997
  906SOL     OW 3621   2.498   2.508   0.802  0.6616  0.0317 -0.4617
  906SOL    HW1 3622   2.568   2.468   0.858  0.3542  2.2480 -0.1326
  906SOL    HW2 3623   2.480   2.601   0.826 -1.9710  2.3489  0.0298
  906SOL     MW 3624   2.505   2.515   0.813  0.2737  0.6298 -0.3534
  907SOL     OW 3625   2.534   2.913   1.252  0.3450 -0.2465  0.1202
  907SOL    HW1 3626   2.569   2.882   1.333  0.2199  0.2546 -1.1770
  907SOL    HW2 3627   2.601   2.891   1.188  1.0806 -1.6544  0.1274
  907SOL     MW 3628   2.548   2.906   1.254  0.4256 -0.3661 -0.0500
  908SOL     OW 3629   2.646   2.354  -0.005  0.2369  0.1231  0.2003
  908SOL    HW1 3630   2.569   2.298   0.030  1.3398 -2.3907 -0.2419
  908SOL    HW2 3631   2.651   2.438   0.052  1.1716  2.5554  0.2601
  908SOL     MW 3632   2.636   2.357   0.007  0.5057  0.1124  0.1498
  909SOL     OW 3633   1.767   0.162   1.044 -0.4230  0.2527 -0.3690
  909SOL    HW1 3634   1.766   0.251   1.010  0.2076 -1.4293 -0.2180
  909SOL    HW2 3635   1.756   0.169   1.137 -1.2372 -0.3770 -0.1433
  909SOL     MW 3636   1.766   0.175   1.052 -0.4472 -0.0523 -0.3193
  910SOL     OW 3637   2.292   1.670   0.402 -0.2685  0.0320  0.2789
  910SOL    HW1 3638   2.229   1.609   0.438 -0.1857 -1.0750  3.1989
  910SOL    HW2 3639   2.239   1.730   0.351 -0.6670 -1.3093 -0.5088
  910SOL     MW 3640   2.277   1.670   0.400 -0.3102 -0.2910  0.5602
  911SOL     OW 3641   2.151   2.128   1.638 -0.0466  0.2381 -0.3906
  911SOL    HW1 3642   2.197   2.166   1.714 -1.3696 -0.4763  1.6205
  911SOL    HW2 3643   2.207   2.155   1.564 -1.2801  0.3677 -1.8162
  911SOL     MW 3644   2.165   2.136   1.638 -0.3839  0.1610 -0.3133
  912SOL     OW 3645   2.846   1.924   1.503  0.0656 -0.2431  0.4304
  912SOL    HW1 3646   2.909   1.982   1.459 -1.6826 -0.8196 -1.2613
  912SOL    HW2 3647   2.777   1.985   1.533 -0.1861 -1.7837 -1.2747
  912SOL     MW 3648   2.845   1.940   1.501 -0.1982 -0.5224 -0.0178
  913SOL     OW 3649   2.573   2.963   0.332  0.1934 -0.7674  0.0614
  913SOL    HW1 3650   2.637   2.903   0.364 -2.2094 -1.0015 -1.4513
  913SOL    HW2 3651   2.490   2.917   0.335  0.9315  1.1428 -2.0906
  913SOL     MW 3652   2.571   2.949   0.336 -0.0262 -0.5463 -0.4221
  914SOL     OW 3653   2.802   1.655   0.017  0.2904 -0.0741  0.1393
  914SOL    HW1 3654   2.793   1.715  -0.063  0.3857 -1.6366 -0.3991
  914SOL    HW2 3655   2.715   1.647   0.041  1.5079 -0.3758 -1.0329
  914SOL     MW 3656   2.789   1.662   0.009  0.4636 -0.3200 -0.0864
  915SOL     OW 3657   1.920   0.172   0.259 -0.3514  0.3116 -0.5191
  915SOL    HW1 3658   1.974   0.101   0.299  0.5293 -0.2617 -2.8056
  915SOL    HW2 3659   1.825   0.146   0.259 -0.4040  0.8218 -0.0402
  915SOL     MW 3660   1.914   0.159   0.264 -0.2421  0.3032 -0.7576
  916SOL     OW 3661   1.866   2.079   1.988 -0.7510  0.2335  0.0370
  916SOL    HW1 3662   1.834   2.158   1.953  0.5857  0.7170  1.6533
  916SOL    HW2 3663   1.848   2.011   1.925  0.3648 -2.1785  1.1413
  916SOL     MW 3664   1.859   2.080   1.975 -0.4274 -0.0209  0.3959
  917SOL     OW 3665   2.235   2.326   2.648 -0.3118  0.3297 -0.2599
  917SOL    HW1 3666   2.262   2.326   2.745  1.1757  1.1245  2.1248
  917SOL    HW2 3667   2.269   2.411   2.603 -0.8700  0.5265 -0.7952
  917SOL     MW 3668   2.243   2.337   2.655 -0.1892  0.4605 -0.0159
  918SOL     OW 3669   1.982   1.670   2.576 -0.2213  0.0974  0.9569
  918SOL    HW1 3670   1.900   1.671   2.524 -1.5298 -0.3140 -3.3153
  918SOL    HW2 3671   2.027   1.750   2.542  0.6954 -1.9776  0.2184
  918SOL     MW 3672   1.977   1.681   2.565 -0.2730 -0.2306  0.2958
  919SOL     OW 3673   3.009   2.368   2.311 -0.2170  0.1853 -0.2725
  919SOL    HW1 3674   2.928   2.316   2.276 -0.0100 -2.2172 -1.4154
  919SOL    HW2 3675   3.085   2.358   2.252  0.1331  1.0419  0.3781
  919SOL     MW 3676   3.008   2.359   2.298 -0.1435 -0.0187 -0.3375
  920SOL     OW 3677   2.779   2.791   0.091 -0.3897  0.7088 -0.0431
  920SOL    HW1 3678   2.719   2.866   0.086  0.9376  0.3998 -1.0725
  920SOL    HW2 3679   2.786   2.753   0.001 -0.9664  0.5161  0.7391
  920SOL     MW 3680   2.772   2.796   0.079 -0.2906  0.6426 -0.0757
  921SOL     OW 3681   2.577   2.646   2.676 -0.0822 -0.4174  0.8451
  921SOL    HW1 3682   2.623   2.614   2.599  1.0046  1.7081  2.6608
  921SOL    HW2 3683   2.602   2.598   2.756  1.3025  0.4755 -2.8570
  921SOL     MW 3684   2.586   2.635   2.676  0.2439 -0.0191  0.5962
  922SOL     OW 3685   2.076   2.872   0.270 -0.9576  0.2341  0.4736
  922SOL    HW1 3686   2.034   2.909   0.190  0.1091 -2.7037 -0.8204
  922SOL    HW2 3687   2.018   2.804   0.286  2.3269  0.8049  0.3821
  922SOL     MW 3688   2.063   2.868   0.261 -0.3835 -0.0782  0.2908
  923SOL     OW 3689   2.188   2.780   1.668 -0.9729  0.0164 -0.8656
  923SOL    HW1 3690   2.233   2.720   1.604 -1.0845  0.9041 -1.2980
  923SOL    HW2 3691   2.193   2.866   1.630 -1.0783  1.2716  3.8319
  923SOL     MW 3692   2.194   2.784   1.655 -1.0015  0.2992 -0.3029
  924SOL     OW 3693   1.118   2.772   2.473  0.3473 -0.3950  0.0722
  924SOL    HW1 3694   1.152   2.829   2.402  0.0317 -0.3067  0.1854
  924SOL    HW2 3695   1.194   2.742   2.521 -0.3397 -0.4521 -1.7364
  924SOL     MW 3696   1.132   2.775   2.470  0.2150 -0.3909 -0.1515
  925SOL     OW 3697   3.056   0.276   2.685 -0.0564 -0.1178 -0.3739
  925SOL    HW1 3698   3.084   0.313   2.603 -0.8038  0.8198 -2.2091
  925SOL    HW2 3699   3.024   0.361   2.724 -1.1229  0.4804  0.9348
  925SOL     MW 3700   3.056   0.292   2.680 -0.2957  0.0849 -0.4433
  926SOL     OW 3701   2.687   2.385   1.963 -0.1055 -0.0203  0.6225
  926SOL    HW1 3702   2.750   2.442   2.008  3.0410  1.6249  2.9107
  926SOL    HW2 3703   2.730   2.390   1.873 -1.3971 -1.8780 -1.0752
  926SOL     MW 3704   2.701   2.393   1.957  0.1392 -0.0483  0.7004
  927SOL     OW 3705   2.393   0.185   0.261 -0.3205 -0.5176  0.2916
  927SOL    HW1 3706   2.484   0.194   0.232 -0.7593  0.3056 -0.2521
  927SOL    HW2 3707   2.356   0.150   0.175  0.2080  0.2635  1.5536
  927SOL     MW 3708   2.400   0.182   0.246 -0.3087 -0.3059  0.3864
  928SOL     OW 3709   2.097   2.431   1.871 -0.2223  0.7590 -0.5866
  928SOL    HW1 3710   2.183   2.382   1.868  1.9068 -1.7260  0.7352
  928SOL    HW2 3711   2.122   2.507   1.927 -1.9523  2.2523 -1.0888
  928SOL     MW 3712   2.112   2.434   1.878 -0.1697  0.6281 -0.4785
  929SOL     OW 3713   2.696   2.314   2.497  0.4042 -0.1512 -0.0765
  929SOL    HW1 3714   2.631   2.249   2.488  0.4214  1.2926 -1.7052
  929SOL    HW2 3715   2.742   2.285   2.580  0.3654 -0.2053  0.1302
  929SOL     MW 3716   2.694   2.302   2.507  0.4013  0.0322 -0.2641
  930SOL     OW 3717   2.008   2.918   2.722  0.2832 -0.5037 -0.5589
  930SOL    HW1 3718   2.016   2.868   2.806  0.7679  0.8749  0.4691
  930SOL    HW2 3719   2.097   2.959   2.707 -1.6777 -0.8337  1.2728
  930SOL     MW 3720   2.021   2.917   2.731  0.0884 -0.3654 -0.1816
  931SOL     OW 3721   2.984   2.792   2.069 -0.3802  0.5125  0.7255
  931SOL    HW1 3722   3.045   2.729   2.095 -0.8680  2.2408  0.2567
  931SOL    HW2 3723   2.939   2.756   1.991 -1.9863  0.5467  0.2531
  931SOL     MW 3724   2.986   2.779   2.062 -0.6564  0.7450  0.6013
  932SOL     OW 3725   2.789   1.958   2.532  0.7304 -0.4045  0.4897
  932SOL    HW1 3726   2.867   1.960   2.583  1.2185 -1.4702  0.2355
  932SOL    HW2 3727   2.799   1.998   2.446 -1.7366 -0.8074 -2.2927
  932SOL     MW 3728   2.800   1.963   2.527  0.4693 -0.5983  0.0891
  933SOL     OW 3729   2.107   2.759   2.271 -0.2029  0.6567 -0.2672
  933SOL    HW1 3730   2.185   2.808   2.305  0.7266 -0.5219 -0.8772
  933SOL    HW2 3731   2.042   2.826   2.254  1.1897  0.5631  1.5382
  933SOL     MW 3732   2.109   2.775   2.273  0.1035  0.4888 -0.1095
  934SOL     OW 3733   2.080   2.712   2.551 -0.1747  0.3893 -0.0198
  934SOL    HW1 3734   2.054   2.781   2.613 -0.2246 -2.1158 -3.1045
  934SOL    HW2 3735   2.071   2.740   2.459 -0.0685  2.2739 -1.9652
  934SOL     MW 3736   2.076   2.725   2.547 -0.1673  0.3074 -0.6835
  935SOL     OW 3737   2.654   1.570   1.859 -0.1124 -0.2326 -0.1747
  935SOL    HW1 3738   2.734   1.560   1.807  2.4315  0.4270  0.3017
  935SOL    HW2 3739   2.586   1.538   1.786 -0.5761 -0.6236  0.3169
  935SOL     MW 3740   2.656   1.565   1.842  0.1620 -0.1972 -0.0470
  936SOL     OW 3741   2.893   2.199   0.030 -0.2645 -0.1289 -0.2726
  936SOL    HW1 3742   2.913   2.278   0.083 -1.0211  0.9570  1.8761
  936SOL    HW2 3743   2.797   2.198   0.016  0.2127 -0.5485 -3.5144
  936SOL     MW 3744   2.883   2.209   0.035 -0.3013 -0.0410 -0.4168
  937SOL     OW 3745   1.965   2.276   2.622  0.1796  0.0941 -0.1874
  937SOL    HW1 3746   2.062   2.283   2.617  2.1982 -1.7190  1.3973
  937SOL    HW2 3747   1.935   2.248   2.531 -0.0440  1.2309  0.7454
  937SOL     MW 3748   1.974   2.273   2.610  0.4164  0.0048  0.1447
  938SOL     OW 3749   2.275   1.836   1.973  0.2680  0.1209  0.3335
  938SOL    HW1 3750   2.250   1.852   1.887 -0.0549  1.2758  1.2049
  938SOL    HW2 3751   2.263   1.926   2.005 -2.6471  1.6046 -0.2888
  938SOL     MW 3752   2.270   1.850   1.966 -0.1592  0.4690  0.3664
  939SOL     OW 3753   2.747   2.026   2.273  0.6472 -0.0008  0.2571
  939SOL    HW1 3754   2.763   1.955   2.208  0.4230  3.8556 -1.6848
  939SOL    HW2 3755   2.652   2.035   2.268 -2.5160  1.4653 -0.9965
  939SOL     MW 3756   2.736   2.018   2.264  0.2003  0.7015 -0.1645
  940SOL     OW 3757   2.327   0.181   2.639 -0.2783 -0.3884 -0.0045
  940SOL    HW1 3758   2.296   0.090   2.623 -1.0389  3.8380  0.7318
  940SOL    HW2 3759   2.334   0.189   2.735  1.5985  0.3287  1.1637
  940SOL     MW 3760   2.324   0.170   2.650 -0.1310  0.2639  0.2468
  941SOL     OW 3761   0.109   2.346   2.099 -0.1091 -0.2620 -0.2167
  941SOL    HW1 3762   0.177   2.291   2.108 -0.8459  3.1093  1.9692
  941SOL    HW2 3763   0.060   2.303   2.026  1.2807 -0.7713 -3.1523
  941SOL     MW 3764   0.111   2.333   2.090 -0.0230  0.1156 -0.3156
  942SOL     OW 3765   2.856   2.212   2.103  0.7024  0.3180 -0.4801
  942SOL    HW1 3766   2.798   2.270   2.056 -0.4658  1.6493 -1.3826
  942SOL    HW2 3767   2.802   2.158   2.163  0.0019  0.6822 -0.0575
  942SOL     MW 3768   2.841   2.213   2.105  0.4558  0.5417 -0.5434
  943SOL     OW 3769   0.177   2.040   2.328  0.7175 -0.1751 -0.1271
  943SOL    HW1 3770   0.127   2.097   2.386  0.4670 -2.2728 -1.1858
  943SOL    HW2 3771   0.257   2.025   2.374 -0.4726  2.2763 -0.7258
  943SOL     MW 3772   0.181   2.045   2.342  0.5275 -0.1284 -0.3458
  944SOL     OW 3773   2.175   2.637   2.032 -0.5169 -0.1747 -0.3918
  944SOL    HW1 3774   2.267   2.613   2.066 -1.3756  0.3093 -2.0454
  944SOL    HW2 3775   2.125   2.675   2.107  1.1933  0.3089 -0.1541
  944SOL     MW 3776   2.181   2.639   2.047 -0.4046 -0.0471 -0.5786
  945SOL     OW 3777   2.804   2.634   2.962 -0.7437 -0.3570 -0.4701
  945SOL    HW1 3778   2.713   2.601   2.961 -1.4497  1.0986 -0.2574
  945SOL    HW2 3779   2.833   2.649   2.866  2.0875 -2.4418  0.6633
  945SOL     MW 3780   2.796   2.631   2.949 -0.4633 -0.4400 -0.2925
  946SOL     OW 3781   2.550   2.732   2.276  0.2046 -0.3452  0.1312
  946SOL    HW1 3782   2.603   2.789   2.225 -0.3940 -1.8146  2.7608
  946SOL    HW2 3783   2.510   2.664   2.213 -0.7020  1.2280  1.2537
  946SOL     MW 3784   2.552   2.731   2.261  0.0060 -0.3315  0.6262
  947SOL     OW 3785   2.091   3.089   0.424  0.0504  0.0998  0.3777
  947SOL    HW1 3786   2.105   3.007   0.374 -0.1961  1.7585 -3.6470
  947SOL    HW2 3787   2.176   3.112   0.460 -3.5245  0.5787 -0.6650
  947SOL     MW 3788   2.104   3.081   0.422 -0.4538  0.3819 -0.2909
  948SOL     OW 3789   1.819   3.084   2.626  0.4786 -0.1981  0.1903
  948SOL    HW1 3790   1.872   3.008   2.641  1.6881 -2.3073 -2.3622
  948SOL    HW2 3791   1.845   3.139   2.551  0.9659 -0.3666 -0.9957
  948SOL     MW 3792   1.830   3.081   2.618  0.7025 -0.4986 -0.3030
  949SOL     OW 3793   2.469   2.019   2.256  0.1802 -0.6843  0.1183
  949SOL    HW1 3794   2.492   1.927   2.282 -0.1436 -2.2172  0.3330
  949SOL    HW2 3795   2.454   2.070   2.336  0.5178  0.5527  0.4331
  949SOL     MW 3796   2.470   2.013   2.270  0.1820 -0.7233  0.1881
  950SOL     OW 3797   2.285   2.614   3.004 -0.0791 -0.6142  0.0540
  950SOL    HW1 3798   2.314   2.534   2.968  0.8448  0.6134  1.1509
  950SOL    HW2 3799   2.201   2.649   2.965 -0.0898  1.1756  1.4498
  950SOL     MW 3800   2.277   2.608   2.994  0.0414 -0.2161  0.3829
  951SOL     OW 3801   2.881   2.056   2.879 -0.0098  0.3559  0.0662
  951SOL    HW1 3802   2.921   2.090   2.959 -0.0394 -1.0562 -2.2077
  951SOL    HW2 3803   2.955   2.025   2.813  0.3669 -0.8582 -0.8828
  951SOL     MW 3804   2.896   2.057   2.881  0.0360  0.0094 -0.3590
  952SOL     OW 3805   3.048   1.696   2.063  0.0916 -0.8576  0.7897
  952SOL    HW1 3806   2.958   1.721   2.084  0.6571  0.1629 -0.1555
  952SOL    HW2 3807   3.103   1.767   2.106 -1.4164 -1.3940  2.3992
  952SOL     MW 3808   3.043   1.709   2.071 -0.0328 -0.7937  0.8774
  953SOL     OW 3809   1.931   1.806   2.820 -0.0185  0.5175 -0.6760
  953SOL    HW1 3810   1.848   1.775   2.855 -1.2832  2.1606  0.6108
  953SOL    HW2 3811   1.928   1.762   2.738  1.0312 -1.0242 -1.1899
  953SOL     MW 3812   1.919   1.796   2.814 -0.0469  0.5309 -0.5741
  954SOL     OW 3813   2.412   2.051   2.892  0.2376  0.0688  0.8679
  954SOL    HW1 3814   2.324   2.029   2.850 -0.5639  0.5119  1.9771
  954SOL    HW2 3815   2.483   2.029   2.829  0.8633  0.4404  0.0873
  954SOL     MW 3816   2.410   2.045   2.878  0.2144  0.1763  0.9113
  955SOL     OW 3817   1.578   1.613   2.552  0.3647 -0.1701  0.1323
  955SOL    HW1 3818   1.518   1.593   2.479 -0.4787 -1.0779  0.3319
  955SOL    HW2 3819   1.637   1.693   2.529  1.5681 -3.3424 -0.1513
  955SOL     MW 3820   1.578   1.621   2.540  0.4122 -0.7084  0.1212
  956SOL     OW 3821   2.613   2.458   2.853  0.0188 -0.5868  0.0310
  956SOL    HW1 3822   2.627   2.414   2.934 -0.1758  2.2619 -4.9938
  956SOL    HW2 3823   2.685   2.417   2.800 -0.8866 -0.9662 -0.9039
  956SOL     MW 3824   2.624   2.447   2.857 -0.1263 -0.2610 -0.7553
  957SOL     OW 3825   2.332   2.800   0.341 -0.3606 -0.1126  0.7126
  957SOL    HW1 3826   2.256   2.823   0.294 -0.9968  3.9874  0.1788
  957SOL    HW2 3827   2.306   2.767   0.430  1.2036 -0.6711  0.1554
  957SOL     MW 3828   2.319   2.799   0.347 -0.2382  0.3546  0.5687
  958SOL     OW 3829   2.034   2.713   2.914 -0.3473 -0.0182  0.3406
  958SOL    HW1 3830   2.025   2.650   2.839 -2.6970  0.4090  0.6442
  958SOL    HW2 3831   1.946   2.733   2.938  1.2708  0.9943 -0.7968
  958SOL     MW 3832   2.021   2.707   2.907 -0.4439  0.1717  0.2306
  959SOL     OW 3833   2.480   2.580   0.342 -0.0421  0.2691  0.2736
  959SOL    HW1 3834   2.547   2.571   0.273 -1.5264  0.3304 -0.6997
  959SOL    HW2 3835   2.417   2.653   0.318 -1.0285  1.1134 -2.3389
  959SOL     MW 3836   2.481   2.589   0.330 -0.3681  0.3886 -0.1995
  960SOL     OW 3837   1.965   2.478   2.341  0.1469 -0.2186 -0.2685
  960SOL    HW1 3838   1.964   2.396   2.395 -1.4786  0.1704 -0.9030
  960SOL    HW2 3839   1.898   2.533   2.390  0.0846 -1.7524  1.2738
  960SOL     MW 3840   1.956   2.475   2.354 -0.0758 -0.3697 -0.1487
  961SOL     OW 3841   2.252   2.449   2.327 -0.3351  0.5655  0.0819
  961SOL    HW1 3842   2.160   2.473   2.325 -2.2723 -2.3004 -0.9928
  961SOL    HW2 3843   2.285   2.509   2.399  0.2537 -0.1073  2.2303
  961SOL     MW 3844   2.244   2.460   2.336 -0.5130  0.0986  0.2236
  962SOL     OW 3845   2.179   1.996   2.726 -0.0164  0.3610  0.4092
  962SOL    HW1 3846   2.115   1.966   2.784  1.5331  0.7019 -1.0368
  962SOL    HW2 3847   2.164   1.953   2.638 -2.3851  0.8298  0.3786
  962SOL     MW 3848   2.169   1.986   2.722 -0.1245  0.4678  0.2144
  963SOL     OW 3849   1.764   2.538   2.145 -0.8884 -0.1789  0.4613
  963SOL    HW1 3850   1.831   2.513   2.204  0.6765 -0.6386  0.0680
  963SOL    HW2 3851   1.786   2.477   2.064  2.3781 -1.6085  0.0241
  963SOL     MW 3852   1.776   2.526   2.142 -0.2510 -0.4282  0.3517
  964SOL     OW 3853   1.845   2.028   2.660  0.1294  0.0289  0.0409
  964SOL    HW1 3854   1.895   2.111   2.641 -0.9081  0.6456 -0.2075
  964SOL    HW2 3855   1.880   1.971   2.729  1.0767  4.1538 -1.1141
  964SOL     MW 3856   1.856   2.031   2.666  0.1175  0.6545 -0.1442
  965SOL     OW 3857   2.246   2.706   0.595 -0.0824  0.0933  0.2502
  965SOL    HW1 3858   2.226   2.614   0.567 -2.3910 -1.1055  0.6875
  965SOL    HW2 3859   2.326   2.695   0.650 -0.9230  0.9762 -0.4128
  965SOL     MW 3860   2.254   2.693   0.599 -0.4979  0.0516  0.2204
  966SOL     OW 3861   2.739   2.583   2.455 -0.4021  0.3091 -0.2421
  966SOL    HW1 3862   2.685   2.634   2.394 -1.3149 -1.3973 -3.3942
  966SOL    HW2 3863   2.729   2.492   2.438  2.7741 -0.4086  1.5397
  966SOL     MW 3864   2.730   2.577   2.445 -0.1034 -0.0107 -0.4229
  967SOL     OW 3865   2.810   3.100   3.004  0.4069 -0.5139 -0.2294
  967SOL    HW1 3866   2.769   3.042   3.068  2.8632 -1.0596  0.7170
  967SOL    HW2 3867   2.740   3.117   2.940 -0.8629  0.5370  1.4731
  967SOL     MW 3868   2.795   3.095   3.004  0.5635 -0.4472  0.1201
  968SOL     OW 3869   3.002   2.475   3.089  0.3728 -0.0581 -0.8033
  968SOL    HW1 3870   2.922   2.525   3.054  2.6265  0.4339  0.9680
  968SOL    HW2 3871   3.039   2.436   3.008  1.4671  1.3813 -0.3486
  968SOL     MW 3872   2.996   2.476   3.073  0.8145  0.1968 -0.5096
  969SOL     OW 3873   1.574   2.139   1.718 -0.6444  0.2731  0.1025
  969SOL    HW1 3874   1.635   2.072   1.724 -3.0269 -1.9037 -0.1228
  969SOL    HW2 3875   1.545   2.158   1.807 -1.7509  2.9574  1.2303
  969SOL     MW 3876   1.578   2.133   1.730 -1.1047  0.3400  0.2216
  970SOL     OW 3877   1.658   1.683   1.819  0.3399  0.1799 -0.1135
  970SOL    HW1 3878   1.718   1.676   1.894  1.0915 -0.0685  0.0646
  970SOL    HW2 3879   1.569   1.687   1.858 -1.3089 -0.6194 -3.7413
  970SOL     MW 3880   1.654   1.682   1.834  0.2215  0.0417 -0.5686
  971SOL     OW 3881   1.878   0.122   2.401  0.3128 -0.3920 -0.2778
  971SOL    HW1 3882   1.890   0.043   2.342  0.8827 -2.1922 -3.5344
  971SOL    HW2 3883   1.958   0.178   2.396  0.4562 -2.9152 -0.9299
  971SOL     MW 3884   1.890   0.119   2.393  0.4069 -0.9624 -0.7935
  972SOL     OW 3885   0.240   2.820   2.537  0.0078 -0.2931  0.0516
  972SOL    HW1 3886   0.309   2.746   2.543  2.9806  1.3539 -0.0198
  972SOL    HW2 3887   0.312   2.882   2.513  3.9465 -0.2358 -1.0598
  972SOL     MW 3888   0.259   2.818   2.535  0.9197 -0.0682 -0.1045
  973SOL     OW 3889   2.653   3.054   2.121  0.1642  0.1478  0.5159
  973SOL    HW1 3890   2.603   2.973   2.101 -2.6212  1.6419 -1.2098
  973SOL    HW2 3891   2.665   3.104   2.040  1.1764  0.1421 -2.7197
  973SOL     MW 3892   2.648   3.050   2.107 -0.0697  0.3442 -0.1387
  974SOL     OW 3893   1.974   0.316   2.692  0.4728  0.0340 -0.1137
  974SOL    HW1 3894   1.965   0.245   2.757 -1.8235  0.0200 -0.1663
  974SOL    HW2 3895   1.880   0.341   2.676  1.4259 -0.1060 -1.0454
  974SOL     MW 3896   1.960   0.310   2.699  0.2956  0.0137 -0.2435
  975SOL     OW 3897   2.341   2.567   2.556 -0.4116 -0.2132  0.2661
  975SOL    HW1 3898   2.408   2.592   2.624 -0.1373 -1.6490  2.2194
  975SOL    HW2 3899   2.262   2.626   2.573  0.6679  1.5821 -0.7779
  975SOL     MW 3900   2.339   2.578   2.567 -0.2330 -0.1657  0.3861
  976SOL     OW 3901   0.290   0.269   1.684 -0.3239 -0.2065  0.2587
  976SOL    HW1 3902   0.321   0.218   1.756  0.3255 -0.1633  0.8269
  976SOL    HW2 3903   0.207   0.218   1.668 -1.7087 -2.9353  0.2073
  976SOL     MW 3904   0.283   0.255   1.691 -0.4209 -0.5609  0.3269
  977SOL     OW 3905   1.728   2.830   2.454 -0.2106 -0.4310  0.2933
  977SOL    HW1 3906   1.744   2.736   2.457  1.6539  1.7577 -0.9000
  977SOL    HW2 3907   1.806   2.881   2.428  1.5192 -1.9283  1.3789
  977SOL     MW 3908   1.740   2.824   2.451  0.2636 -0.3397  0.2791
   3.10000   3.10000   3.10000
