977 TIP4P/2005f water molecules t=   1.41000 step= 1410
 3908
    1SOL     OW    1   0.368   0.871   0.030 -0.2659  0.4150  0.2280
    1SOL    HW1    2   0.382   0.878  -0.067 -0.5639 -4.0260  0.8609
    1SOL    HW2    3   0.322   0.788   0.024  0.6013  0.1479  4.3214
    1SOL     MW    4   0.364   0.861   0.016 -0.1908 -0.2062  0.8516
    2SOL     OW    5   0.329   3.051   1.135 -0.3645  0.2541 -0.2768
    2SOL    HW1    6   0.382   3.124   1.094 -1.4575  2.7016  0.5015
    2SOL    HW2    7   0.236   3.070   1.123  1.7935  2.7185 -1.7628
    2SOL     MW    8   0.324   3.063   1.128 -0.2240  0.9022 -0.3701
    3SOL     OW    9   2.641   0.335   0.965  0.6840 -0.1627  0.0719
    3SOL    HW1   10   2.699   0.399   0.918 -1.8743 -3.4876  1.2901
    3SOL    HW2   11   2.624   0.371   1.053 -0.5722  1.4788  4.3926
    3SOL     MW   12   2.646   0.348   0.970  0.1807 -0.3848  0.8027
    4SOL     OW   13   3.068   1.737   0.573  0.4066 -0.0507 -0.6775
    4SOL    HW1   14   2.986   1.761   0.535 -0.0539  1.3311  1.5201
    4SOL    HW2   15   3.126   1.710   0.502 -1.1369 -0.7499 -0.5004
    4SOL     MW   16   3.065   1.737   0.559  0.1422  0.0394 -0.3642
    5SOL     OW   17   1.635   1.497   0.629  0.4795 -0.5953  0.2047
    5SOL    HW1   18   1.645   1.452   0.711 -2.7522  3.0152  2.7722
    5SOL    HW2   19   1.535   1.482   0.615 -4.2506 -1.4079 -1.1445
    5SOL     MW   20   1.623   1.489   0.638 -0.5710 -0.2262  0.3655
    6SOL     OW   21   0.785   1.396   0.591 -0.2026  0.2898  0.2869
    6SOL    HW1   22   0.692   1.381   0.579  0.2450  0.3529  2.3255
    6SOL    HW2   23   0.806   1.315   0.639  2.5809  2.4738 -1.3000
    6SOL     MW   24   0.776   1.383   0.596  0.2237  0.5863  0.3465
    7SOL     OW   25   1.996   1.059   0.016 -0.3759  0.0014  0.0183
    7SOL    HW1   26   2.082   1.091  -0.004  2.8264  1.7960 -1.5313
    7SOL    HW2   27   2.003   1.051   0.112  1.5291  2.5207  0.9020
    7SOL     MW   28   2.008   1.062   0.026  0.2980  0.5706 -0.0696
    8SOL     OW   29   0.779   1.521   1.176 -0.1040 -0.4355 -0.1737
    8SOL    HW1   30   0.869   1.541   1.142  0.6152 -1.4569 -0.4444
    8SOL    HW2   31   0.795   1.429   1.202  2.0662  1.6544  1.2451
    8SOL     MW   32   0.793   1.511   1.175  0.2772 -0.2946 -0.0222
    9SOL     OW   33   1.041   0.486   1.356 -0.3390 -0.6524 -0.3037
    9SOL    HW1   34   0.983   0.416   1.319  1.7343 -1.5828  0.9905
    9SOL    HW2   35   1.067   0.449   1.444 -2.5984 -3.0953  0.5716
    9SOL     MW   36   1.037   0.472   1.363 -0.3635 -1.0975 -0.0175
   10SOL     OW   37   0.252   0.806   0.518  0.1707  0.5149  0.0104
   10SOL    HW1   38   0.320   0.870   0.495  2.1668 -2.1284 -2.9471
   10SOL    HW2   39   0.237   0.834   0.611  1.6352  1.2367 -0.6385
   10SOL     MW   40   0.259   0.818   0.527  0.6273  0.2614 -0.4654
   11SOL     OW   41   0.758   1.153   1.588  0.3644 -0.0977 -0.0647
   11SOL    HW1   42   0.837   1.155   1.651  3.1065 -3.1366 -0.5347
   11SOL    HW2   43   0.754   1.063   1.570 -0.8584 -0.2354  2.9924
   11SOL     MW   44   0.768   1.141   1.594  0.5649 -0.5168  0.2766
   12SOL     OW   45   3.039   1.135   0.861  0.2401 -0.3127  0.1168
   12SOL    HW1   46   3.096   1.197   0.901 -0.3830 -1.3157 -0.2345
   12SOL    HW2   47   3.003   1.187   0.790 -1.1211  0.8757 -2.9489
   12SOL     MW   48   3.042   1.150   0.857 -0.0217 -0.2882 -0.3341
   13SOL     OW   49   1.825   1.426   1.293 -0.2845 -0.2088 -0.3629
   13SOL    HW1   50   1.818   1.369   1.210  0.7334 -1.2741 -1.7004
   13SOL    HW2   51   1.823   1.521   1.267  2.7635  0.2999 -0.8080
   13SOL     MW   52   1.824   1.431   1.279  0.2519 -0.2822 -0.5981
   14SOL     OW   53   0.563   0.308   1.834  0.0152  0.3389  0.3891
   14SOL    HW1   54   0.506   0.240   1.804 -0.4648  0.6534 -3.5979
   14SOL    HW2   55   0.598   0.338   1.751  2.5432 -0.6313 -1.0433
   14SOL     MW   56   0.560   0.303   1.819  0.2854  0.2524 -0.3260
   15SOL     OW   57   1.992   0.337   1.057  0.3079  0.4967 -0.3772
   15SOL    HW1   58   1.988   0.408   1.123 -0.5682  0.7875  0.7761
   15SOL    HW2   59   2.053   0.377   0.993  0.9661  0.4677  0.8261
   15SOL     MW   60   2.000   0.352   1.057  0.2791  0.5312 -0.0663
   16SOL     OW   61   0.241   1.821   0.290 -0.1655 -0.4138 -0.3084
   16SOL    HW1   62   0.331   1.835   0.253 -0.1587  0.1830 -1.7513
   16SOL    HW2   63   0.207   1.908   0.311 -1.7071 -0.7001  0.1187
   16SOL     MW   64   0.248   1.835   0.288 -0.3680 -0.3728 -0.4424
   17SOL     OW   65   1.069   0.876   1.418  0.2268  0.1455 -0.2684
   17SOL    HW1   66   1.121   0.861   1.504  1.8229 -0.9566 -1.2705
   17SOL    HW2   67   0.976   0.857   1.433  1.6624 -0.7593  1.7176
   17SOL     MW   68   1.064   0.872   1.432  0.6268 -0.1193 -0.1386
   18SOL     OW   69   0.144   1.580   0.358  0.1668 -0.0248  0.0624
   18SOL    HW1   70   0.197   1.663   0.355  2.2611  0.9567 -0.0554
   18SOL    HW2   71   0.117   1.564   0.264 -0.8616 -2.4942 -2.2237
   18SOL     MW   72   0.147   1.589   0.345  0.3074 -0.2211 -0.2548
   19SOL     OW   73   0.092   1.388   0.948 -0.4518  0.2283 -0.2209
   19SOL    HW1   74   0.140   1.404   0.869 -0.4508  1.1145  0.2601
   19SOL    HW2   75   0.002   1.422   0.948  2.9557  1.2087  0.5827
   19SOL     MW   76   0.087   1.394   0.938 -0.0021  0.4746 -0.0514
   20SOL     OW   77   0.424   2.176   1.203  0.3595 -0.0555  0.8218
   20SOL    HW1   78   0.397   2.093   1.163  0.4633 -0.4580 -2.7023
   20SOL    HW2   79   0.398   2.173   1.296 -1.2461 -0.4816 -0.0897
   20SOL     MW   80   0.417   2.164   1.210  0.1614 -0.1648  0.2365
   21SOL     OW   81   0.502   0.894   0.402  0.6580  0.1900  0.2434
   21SOL    HW1   82   0.559   0.857   0.466 -1.5363  0.4466  0.7509
   21SOL    HW2   83   0.551   0.869   0.327 -2.4431 -1.0518  0.4367
   21SOL     MW   84   0.516   0.886   0.401 -0.0407  0.0600  0.3359
   22SOL     OW   85   1.553   0.713   0.946  0.5246  0.0833  0.4219
   22SOL    HW1   86   1.521   0.662   0.875  1.5618 -1.4655 -0.0858
   22SOL    HW2   87   1.472   0.749   0.980  3.1004  1.6557 -0.7548
   22SOL     MW   88   1.538   0.711   0.941  1.0013  0.0864  0.1997
   23SOL     OW   89   3.093   0.699   0.690 -0.0508 -0.2396  0.0808
   23SOL    HW1   90   3.163   0.637   0.717 -2.1754 -0.5491  0.2871
   23SOL    HW2   91   3.138   0.785   0.697 -0.2778  1.0338 -0.7545
   23SOL     MW   92   3.108   0.702   0.695 -0.3611 -0.1124 -0.0022
   24SOL     OW   93   2.068   2.188   3.076  0.3977 -0.4173  0.2466
   24SOL    HW1   94   2.033   2.196   3.167  0.7292 -1.2497 -0.3059
   24SOL    HW2   95   2.114   2.103   3.058 -0.0698 -0.4372  0.3162
   24SOL     MW   96   2.070   2.178   3.086  0.3798 -0.5298  0.1829
   25SOL     OW   97   0.241   1.342   0.416 -0.4996  0.2680 -0.0165
   25SOL    HW1   98   0.199   1.431   0.390  1.6080 -0.2634 -1.1401
   25SOL    HW2   99   0.337   1.352   0.395  1.4132 -0.8658 -1.4980
   25SOL     MW  100   0.248   1.355   0.410  0.0308  0.0483 -0.3602
   26SOL     OW  101   2.048   1.021   0.277 -0.2687 -0.4105  0.6545
   26SOL    HW1  102   1.990   1.058   0.341 -0.1863  1.4898 -1.5420
   26SOL    HW2  103   2.129   1.063   0.282 -2.9772 -2.8424 -2.8905
   26SOL     MW  104   2.051   1.031   0.286 -0.6152 -0.4806 -0.1030
   27SOL     OW  105   1.882   1.400   0.210 -0.8655 -0.8465 -0.7351
   27SOL    HW1  106   1.835   1.485   0.210  0.0986 -0.2566  0.4897
   27SOL    HW2  107   1.938   1.406   0.289 -0.3099 -2.5122  0.5812
   27SOL     MW  108   1.883   1.412   0.220 -0.6650 -0.9885 -0.3998
   28SOL     OW  109   0.476   0.987   2.010  0.3309 -0.6373  0.3963
   28SOL    HW1  110   0.514   0.996   2.096 -1.1914  0.9365 -1.7790
   28SOL    HW2  111   0.382   0.986   2.036 -0.2450 -2.1692 -1.7579
   28SOL     MW  112   0.469   0.988   2.025  0.0541 -0.6318 -0.1750
   29SOL     OW  113   0.254   1.403   0.700 -0.0131 -0.5102 -0.0817
   29SOL    HW1  114   0.265   1.500   0.710 -1.1262  1.6331  0.1928
   29SOL    HW2  115   0.244   1.386   0.600  5.2935 -2.1881 -1.6498
   29SOL     MW  116   0.254   1.413   0.688  0.5402 -0.4488 -0.2524
   30SOL     OW  117   0.813   1.255   1.222 -0.6328 -0.7009 -0.1746
   30SOL    HW1  118   0.721   1.259   1.254 -1.5785 -0.0403  0.7423
   30SOL    HW2  119   0.865   1.212   1.291 -2.5866  3.9079 -0.7200
   30SOL     MW  120   0.808   1.250   1.236 -1.0154 -0.0056 -0.1255
   31SOL     OW  121   0.448   0.291   0.174  0.5154  0.4545 -0.7511
   31SOL    HW1  122   0.468   0.225   0.241 -0.1700 -0.2184 -0.2167
   31SOL    HW2  123   0.470   0.244   0.092 -2.3216  1.2319 -0.8715
   31SOL     MW  124   0.453   0.276   0.172  0.0507  0.4683 -0.6965
   32SOL     OW  125   2.685   0.979   1.133  0.6917 -0.0381  0.4144
   32SOL    HW1  126   2.631   0.905   1.121 -3.2697 -0.3659  0.8714
   32SOL    HW2  127   2.772   0.955   1.100 -1.8953  0.0027 -3.0443
   32SOL     MW  128   2.690   0.966   1.127 -0.1723 -0.0759  0.0184
   33SOL     OW  129   1.627   1.323   0.388  0.3172 -0.0587  0.6272
   33SOL    HW1  130   1.699   1.265   0.395  0.2780 -0.9906  1.3362
   33SOL    HW2  131   1.634   1.391   0.457  0.2450 -0.3071  0.4449
   33SOL     MW  132   1.637   1.324   0.398  0.3025 -0.2145  0.6967
   34SOL     OW  133   1.233   1.949   1.122 -0.8490  0.0209 -0.3075
   34SOL    HW1  134   1.143   1.969   1.134 -0.6431  2.5077  0.9927
   34SOL    HW2  135   1.280   1.985   1.192  0.0227 -0.3642  1.0068
   34SOL     MW  136   1.227   1.956   1.132 -0.7068  0.2982  0.0374
   35SOL     OW  137   0.330   0.135   1.817 -0.3728  0.6273  0.3523
   35SOL    HW1  138   0.363   0.072   1.883  1.6243 -0.1160 -2.1311
   35SOL    HW2  139   0.340   0.096   1.728 -0.0018  0.2950  0.2892
   35SOL     MW  140   0.335   0.122   1.814 -0.0603  0.4854  0.0163
   36SOL     OW  141   1.941   1.918   0.587 -0.4691  0.1360  0.1591
   36SOL    HW1  142   1.916   1.926   0.497  0.8397 -1.2403 -1.1756
   36SOL    HW2  143   1.936   1.822   0.617  1.3191 -0.7966  1.8795
   36SOL     MW  144   1.937   1.906   0.579 -0.0605 -0.1687  0.2100
   37SOL     OW  145   1.813   2.001   1.014  0.3947  0.1883  0.8329
   37SOL    HW1  146   1.782   1.968   0.930 -0.0798  3.6164  1.4822
   37SOL    HW2  147   1.742   2.060   1.036 -1.2195 -2.0188 -2.8753
   37SOL     MW  148   1.800   2.004   1.005  0.1191  0.3494  0.4293
   38SOL     OW  149   2.804   0.900   0.132  0.4216 -0.4521  0.3036
   38SOL    HW1  150   2.827   0.912   0.227 -0.8113  2.1912 -2.1585
   38SOL    HW2  151   2.884   0.870   0.086 -1.2166 -2.5072 -0.1953
   38SOL     MW  152   2.818   0.898   0.138  0.0428 -0.3745 -0.0871
   39SOL     OW  153   1.455   0.551   0.753  0.0426  0.5557 -0.1293
   39SOL    HW1  154   1.413   0.467   0.773  2.0055 -0.6863  0.2249
   39SOL    HW2  155   1.383   0.605   0.723 -0.8816  1.2292  0.0394
   39SOL     MW  156   1.440   0.547   0.752  0.1796  0.4807 -0.0603
   40SOL     OW  157   1.258   1.877   0.243  0.3977  0.0387  0.8807
   40SOL    HW1  158   1.321   1.812   0.272 -0.6489  1.9150  1.4381
   40SOL    HW2  159   1.226   1.918   0.323 -1.1181  1.0116 -0.1093
   40SOL     MW  160   1.262   1.874   0.257  0.0596  0.4146  0.8236
   41SOL     OW  161   0.590   0.512   1.625 -0.1674  0.3881 -0.3358
   41SOL    HW1  162   0.670   0.553   1.587  2.6948  2.7163  0.7621
   41SOL    HW2  163   0.520   0.569   1.591  3.5783 -1.0595 -0.0268
   41SOL     MW  164   0.591   0.525   1.616  0.7044  0.5043 -0.1502
   42SOL     OW  165   1.283   3.002   1.943  0.2137 -0.0650  0.0102
   42SOL    HW1  166   1.195   2.998   1.986 -1.8487  1.3945 -0.5320
   42SOL    HW2  167   1.341   2.932   1.974 -1.5321 -0.9020  0.2040
   42SOL     MW  168   1.279   2.992   1.953 -0.2888  0.0171 -0.0358
   43SOL     OW  169   1.478   0.147   1.660  0.4458 -0.2347  0.1983
   43SOL    HW1  170   1.554   0.097   1.642  1.2788  1.4681  4.9718
   43SOL    HW2  171   1.409   0.082   1.664  2.0724  0.8353  0.1129
   43SOL     MW  172   1.479   0.132   1.658  0.7703  0.1311  0.8168
   44SOL     OW  173   1.296   0.739   1.069 -0.1509 -0.4280  0.3799
   44SOL    HW1  174   1.268   0.830   1.053 -0.3507  1.3006 -3.0614
   44SOL    HW2  175   1.293   0.719   1.165 -1.3209 -2.5413  1.7094
   44SOL     MW  176   1.292   0.748   1.080 -0.3317 -0.4787  0.1012
   45SOL     OW  177   1.274   0.758   0.774  0.2547  0.1243  0.1384
   45SOL    HW1  178   1.241   0.770   0.863  1.2984 -1.0173  0.8353
   45SOL    HW2  179   1.196   0.733   0.706  0.1307 -0.4260 -1.1224
   45SOL     MW  180   1.259   0.756   0.777  0.3761 -0.0989  0.0640
   46SOL     OW  181   0.525   1.101   0.631 -0.3278  0.2872  0.8168
   46SOL    HW1  182   0.530   1.104   0.537 -0.4334  0.0304 -0.1299
   46SOL    HW2  183   0.609   1.119   0.667 -1.6328  0.7766  1.8255
   46SOL     MW  184   0.537   1.104   0.623 -0.5140  0.3179  0.8250
   47SOL     OW  185   0.190   1.967   1.953 -0.4708  0.0760 -0.0068
   47SOL    HW1  186   0.133   1.912   1.900 -1.2277  2.3952  1.6473
   47SOL    HW2  187   0.179   1.952   2.047  1.4334 -0.4476 -1.4463
   47SOL     MW  188   0.182   1.958   1.958 -0.3194  0.3129  0.0215
   48SOL     OW  189   1.135   0.508   1.019  0.4287 -0.2607 -0.1323
   48SOL    HW1  190   1.072   0.533   1.081  1.2100 -0.9899 -0.3514
   48SOL    HW2  191   1.199   0.582   1.028  2.2577  1.7072 -1.9062
   48SOL     MW  192   1.135   0.521   1.029  0.7731 -0.0973 -0.3952
   49SOL     OW  193   1.700   0.627   1.519 -0.2091 -0.2867  0.0644
   49SOL    HW1  194   1.726   0.593   1.604 -1.4026  0.2037  0.1077
   49SOL    HW2  195   1.736   0.568   1.455 -0.4578  0.1257  0.1328
   49SOL     MW  196   1.708   0.615   1.522 -0.3994 -0.1676  0.0791
   50SOL     OW  197   1.267   1.168   0.576  0.4242  0.6397  0.2516
   50SOL    HW1  198   1.199   1.174   0.652 -3.6594  1.7675 -1.1374
   50SOL    HW2  199   1.337   1.116   0.619 -1.6119  2.3779  1.0561
   50SOL     MW  200   1.267   1.162   0.592 -0.3832  1.0179  0.1745
   51SOL     OW  201   0.335   2.915   0.895  0.0613 -0.7331  0.0994
   51SOL    HW1  202   0.421   2.863   0.889 -1.4861 -0.0013  0.3164
   51SOL    HW2  203   0.329   2.958   0.981 -1.2098  0.9158  0.6971
   51SOL     MW  204   0.346   2.914   0.905 -0.3106 -0.4190  0.2069
   52SOL     OW  205   0.803   1.820   0.469  0.3391  0.5253 -0.0306
   52SOL    HW1  206   0.768   1.910   0.477  0.0754  0.4734  1.1575
   52SOL    HW2  207   0.817   1.789   0.379  2.3705  1.4629  0.1706
   52SOL     MW  208   0.800   1.828   0.458  0.5724  0.6421  0.1527
   53SOL     OW  209   0.438   2.151   0.501 -0.0201  0.1110 -0.3435
   53SOL    HW1  210   0.353   2.146   0.466  0.8613 -1.1345 -2.0574
   53SOL    HW2  211   0.444   2.246   0.527  0.1098  0.3532 -1.6206
   53SOL     MW  212   0.427   2.163   0.500  0.1134 -0.0214 -0.7381
   54SOL     OW  213   2.072   0.926   0.774 -0.0231  0.1997  0.0484
   54SOL    HW1  214   2.144   0.903   0.718 -1.5988  0.3371 -0.4666
   54SOL    HW2  215   2.022   0.842   0.782 -0.1161  0.7895 -0.3021
   54SOL     MW  216   2.075   0.912   0.768 -0.2433  0.2956 -0.0658
   55SOL     OW  217   0.508   1.562   1.653 -0.6519 -0.1600 -0.1934
   55SOL    HW1  218   0.450   1.603   1.587 -0.1120 -2.7861 -0.2190
   55SOL    HW2  219   0.585   1.510   1.624  2.1364  0.3686  2.1196
   55SOL     MW  220   0.510   1.561   1.641 -0.2128 -0.4368  0.1084
   56SOL     OW  221   0.622   0.874   0.155  0.2113  0.2803  0.2091
   56SOL    HW1  222   0.640   0.963   0.129  3.1198  0.5430  0.9036
   56SOL    HW2  223   0.533   0.856   0.125 -0.2764  1.2718 -0.0757
   56SOL     MW  224   0.613   0.883   0.148  0.5307  0.4458  0.2631
   57SOL     OW  225   1.187   1.223   1.170 -0.6450  0.3844 -0.2294
   57SOL    HW1  226   1.274   1.257   1.177 -0.2318 -1.6206  1.5378
   57SOL    HW2  227   1.163   1.210   1.262  1.6027  0.6361  1.6047
   57SOL     MW  228   1.195   1.226   1.183 -0.2939  0.1531  0.2458
   58SOL     OW  229   0.535   1.249   1.278  0.6270  0.0343 -0.0527
   58SOL    HW1  230   0.519   1.337   1.245  1.7829  1.8100 -1.4531
   58SOL    HW2  231   0.520   1.270   1.369 -0.6233 -2.5105  0.2377
   58SOL     MW  232   0.531   1.264   1.286  0.6145 -0.0672 -0.1991
   59SOL     OW  233   1.502   1.683   0.331 -0.6764 -0.5647 -0.0553
   59SOL    HW1  234   1.552   1.740   0.386 -0.7360 -0.6510 -0.4503
   59SOL    HW2  235   1.430   1.661   0.389 -1.5689 -0.2987 -3.1744
   59SOL     MW  236   1.499   1.688   0.346 -0.8020 -0.5410 -0.5189
   60SOL     OW  237   3.074   0.169   1.710 -0.0084 -0.1530  0.0932
   60SOL    HW1  238   2.981   0.189   1.739 -3.8128 -3.9771  1.1135
   60SOL    HW2  239   3.119   0.127   1.781  0.1700 -2.5287  1.7491
   60SOL     MW  240   3.068   0.166   1.724 -0.4868 -0.9710  0.4463
   61SOL     OW  241   1.984   1.388   3.014  0.2605 -0.3288 -0.3871
   61SOL    HW1  242   1.918   1.386   3.092 -2.4548 -1.1703 -1.2185
   61SOL    HW2  243   2.023   1.305   3.022 -0.7641  1.3125  1.6846
   61SOL     MW  244   1.980   1.377   3.025 -0.2329 -0.2233 -0.2234
   62SOL     OW  245   0.540   1.725   0.538 -0.1912  0.2321  0.4045
   62SOL    HW1  246   0.629   1.746   0.537 -1.1382  0.9196 -2.5114
   62SOL    HW2  247   0.524   1.628   0.534 -1.6659  0.9988 -0.4187
   62SOL     MW  248   0.550   1.715   0.537 -0.5107  0.4239 -0.0888
   63SOL     OW  249   1.725   0.642   0.664  0.3156  0.2205 -0.4734
   63SOL    HW1  250   1.730   0.737   0.653  1.0197  0.4875  1.9438
   63SOL    HW2  251   1.629   0.625   0.678 -0.5396 -0.5971 -1.8187
   63SOL     MW  252   1.713   0.652   0.664  0.2957  0.1478 -0.3320
   64SOL     OW  253   0.276   1.678   0.764 -0.5746 -0.1993  0.0640
   64SOL    HW1  254   0.308   1.747   0.708  0.8819 -1.0066  0.2103
   64SOL    HW2  255   0.196   1.714   0.807 -1.5705 -2.5576 -1.4663
   64SOL     MW  256   0.270   1.692   0.762 -0.5138 -0.6170 -0.1186
   65SOL     OW  257   1.566   2.312   0.379 -0.1583 -0.3332 -0.6081
   65SOL    HW1  258   1.653   2.338   0.414 -0.2793 -1.7964  0.3313
   65SOL    HW2  259   1.502   2.359   0.437 -1.4731  2.0516  0.6357
   65SOL     MW  260   1.569   2.322   0.391 -0.3477 -0.2116 -0.3200
   66SOL     OW  261   0.349   0.556   0.470  0.4732  0.7453  0.6542
   66SOL    HW1  262   0.395   0.563   0.384 -3.3967  0.4330 -0.6099
   66SOL    HW2  263   0.310   0.648   0.479 -1.1944  0.2323 -1.0140
   66SOL     MW  264   0.350   0.569   0.460 -0.2574  0.6364  0.2673
   67SOL     OW  265   1.472   0.124   1.981  0.2172 -0.7457 -0.5381
   67SOL    HW1  266   1.504   0.127   1.889  0.0515  0.2836  0.2319
   67SOL    HW2  267   1.415   0.046   1.981  0.4237 -3.2659  1.1457
   67SOL     MW  268   1.469   0.114   1.969  0.2226 -0.9424 -0.2143
   68SOL     OW  269   0.776   0.014   2.964 -0.5950 -0.6126  0.5128
   68SOL    HW1  270   0.807   0.020   2.873  0.2329 -2.4586  0.9031
   68SOL    HW2  271   0.834   0.085   3.003 -1.1583  1.9826 -1.7961
   68SOL     MW  272   0.788   0.024   2.957 -0.5601 -0.5137  0.2597
   69SOL     OW  273   0.953   0.197   1.955 -0.0839 -0.2402  0.0199
   69SOL    HW1  274   1.049   0.190   1.978  0.3507 -2.2722  1.1239
   69SOL    HW2  275   0.921   0.110   1.955  1.0807  0.4245 -1.1844
   69SOL     MW  276   0.962   0.184   1.958  0.1271 -0.4206  0.0067
   70SOL     OW  277   0.482   1.698   1.083  0.1380 -0.5195 -0.3463
   70SOL    HW1  278   0.550   1.762   1.109  0.0647 -0.7328  0.9932
   70SOL    HW2  279   0.518   1.658   1.001 -1.7823 -0.8170 -1.1327
   70SOL     MW  280   0.495   1.702   1.075 -0.1251 -0.5869 -0.2733
   71SOL     OW  281   1.527   0.536   1.174 -0.8523  0.3247  0.3283
   71SOL    HW1  282   1.522   0.609   1.231  1.5227  1.5160 -0.7219
   71SOL    HW2  283   1.538   0.574   1.088 -2.3109  1.4442 -0.1039
   71SOL     MW  284   1.528   0.550   1.170 -0.7314  0.6296  0.1327
   72SOL     OW  285   0.777   1.871   1.000 -0.3238 -0.0102  0.2690
   72SOL    HW1  286   0.737   1.933   0.941 -0.3945  0.0706  2.0028
   72SOL    HW2  287   0.774   1.785   0.961 -1.4266  2.1637 -0.5923
   72SOL     MW  288   0.772   1.868   0.987 -0.4786  0.2873  0.3841
   73SOL     OW  289   1.229   0.680   1.322 -0.1489 -0.1400  0.1331
   73SOL    HW1  290   1.188   0.600   1.331  0.2265  0.8365  1.1825
   73SOL    HW2  291   1.160   0.749   1.343  1.5407  3.4078  2.1884
   73SOL     MW  292   1.215   0.679   1.326  0.1235  0.4569  0.5427
   74SOL     OW  293   2.874   0.249   1.065  0.3407 -0.1475 -0.2495
   74SOL    HW1  294   2.943   0.227   1.008 -2.3545 -3.6776 -2.7357
   74SOL    HW2  295   2.793   0.262   1.010 -1.8152 -0.6101 -0.6767
   74SOL     MW  296   2.872   0.248   1.050 -0.2993 -0.6743 -0.6339
   75SOL     OW  297   1.583   1.323   0.115  0.0919 -0.0997 -0.1576
   75SOL    HW1  298   1.639   1.248   0.079 -1.3574  0.2891 -1.4311
   75SOL    HW2  299   1.614   1.331   0.211  0.0892 -2.9542 -0.2169
   75SOL     MW  300   1.594   1.314   0.123 -0.0997 -0.4250 -0.3335
   76SOL     OW  301   2.972   0.597   0.460  0.5635  0.1943  0.1349
   76SOL    HW1  302   3.009   0.620   0.547 -1.3440  0.3382  1.4059
   76SOL    HW2  303   3.047   0.547   0.430  0.2897 -0.1703  0.1191
   76SOL     MW  304   2.987   0.593   0.468  0.2757  0.1652  0.3005
   77SOL     OW  305   0.901   0.543   0.428  0.6116  0.4628 -0.3919
   77SOL    HW1  306   0.884   0.579   0.342  0.9984  0.5390  0.3234
   77SOL    HW2  307   0.895   0.447   0.431 -1.9309  1.5893 -1.1598
   77SOL     MW  308   0.898   0.535   0.417  0.3272  0.6215 -0.3988
   78SOL     OW  309   0.768   0.868   1.145 -0.4143  0.6337 -0.4056
   78SOL    HW1  310   0.792   0.951   1.093  0.1860  3.2823 -0.8651
   78SOL    HW2  311   0.670   0.863   1.150  2.0386 -2.8670  0.6158
   78SOL     MW  312   0.758   0.878   1.139 -0.0115  0.5212 -0.3315
   79SOL     OW  313   1.899   1.653   0.636 -0.6562  0.1534 -0.0876
   79SOL    HW1  314   1.806   1.648   0.631  0.1550  0.3717 -0.2396
   79SOL    HW2  315   1.918   1.631   0.732  1.9282  0.3305 -1.5702
   79SOL     MW  316   1.889   1.649   0.648 -0.2082  0.2056 -0.3033
   80SOL     OW  317   0.082   0.952   0.370 -0.3423 -0.0042  0.2887
   80SOL    HW1  318   0.005   0.899   0.365 -0.8196  1.1631  1.1678
   80SOL    HW2  319   0.143   0.907   0.426  0.4992 -2.4782 -0.7030
   80SOL     MW  320   0.080   0.939   0.376 -0.2943 -0.1766  0.2739
   81SOL     OW  321   1.866   1.885   0.322 -0.0586  0.3976 -0.0293
   81SOL    HW1  322   1.847   1.797   0.292 -1.1692 -2.6973 -0.6617
   81SOL    HW2  323   1.811   1.947   0.263 -0.0715  0.2228 -0.6664
   81SOL     MW  324   1.856   1.882   0.311 -0.2069 -0.0338 -0.1968
   82SOL     OW  325   0.861   1.042   0.513  0.3023  0.1356 -0.0780
   82SOL    HW1  326   0.825   1.040   0.423 -1.0354  0.6257  0.4725
   82SOL    HW2  327   0.857   0.946   0.533  0.9136 -1.9494  0.7714
   82SOL     MW  328   0.856   1.029   0.504  0.2065 -0.0748  0.1067
   83SOL     OW  329   0.041   0.740   1.499  0.0376  0.0664 -0.4222
   83SOL    HW1  330   0.059   0.769   1.411 -0.8375  0.9061 -1.4727
   83SOL    HW2  331   0.115   0.684   1.529  0.6737 -1.8745  2.0251
   83SOL     MW  332   0.053   0.736   1.491  0.0061 -0.0789 -0.2379
   84SOL     OW  333   0.050   0.201   0.893 -0.0153  0.1974 -0.2119
   84SOL    HW1  334   0.025   0.278   0.951 -1.5042 -0.3445  3.2274
   84SOL    HW2  335   0.058   0.124   0.950 -1.4531 -1.8536 -0.0663
   84SOL     MW  336   0.048   0.201   0.908 -0.4015 -0.1447  0.2611
   85SOL     OW  337   0.401   0.437   0.712 -0.2644 -0.0714 -0.4510
   85SOL    HW1  338   0.401   0.467   0.625 -1.4368  0.2435 -0.3766
   85SOL    HW2  339   0.370   0.345   0.713 -0.3176  0.1486 -0.1390
   85SOL     MW  340   0.397   0.429   0.701 -0.4261 -0.0008 -0.4000
   86SOL     OW  341   1.179   0.242   1.127 -0.0581 -0.0383  0.1812
   86SOL    HW1  342   1.133   0.327   1.124  0.2870  0.9172  3.2980
   86SOL    HW2  343   1.268   0.255   1.115 -1.1869  1.2730  0.0150
   86SOL     MW  344   1.185   0.255   1.125 -0.1615  0.2608  0.5705
   87SOL     OW  345   1.067   1.487   1.209 -0.5761  0.4894  0.1307
   87SOL    HW1  346   1.114   1.558   1.168 -0.9719 -2.4257  0.2099
   87SOL    HW2  347   1.109   1.410   1.181 -1.2087 -1.1010 -0.9705
   87SOL     MW  348   1.079   1.486   1.200 -0.7118 -0.1051 -0.0041
   88SOL     OW  349   1.228   1.023   0.993  0.3133  0.2934 -0.1753
   88SOL    HW1  350   1.319   1.053   0.989 -0.3757  0.8255 -0.2844
   88SOL    HW2  351   1.190   1.084   1.061  0.0846  0.8385  2.9675
   88SOL     MW  352   1.235   1.035   1.001  0.1922  0.4355  0.2249
   89SOL     OW  353   1.729   0.735   0.382 -0.0046  0.0303  0.2802
   89SOL    HW1  354   1.719   0.669   0.451 -1.2122 -1.3420 -1.5673
   89SOL    HW2  355   1.811   0.716   0.336  1.2430 -1.0121 -2.2024
   89SOL     MW  356   1.739   0.724   0.385  0.0007 -0.2883 -0.2911
   90SOL     OW  357   0.838   1.162   2.890  0.5106 -0.4646 -0.1122
   90SOL    HW1  358   0.829   1.065   2.902  1.8253 -0.4830 -0.1757
   90SOL    HW2  359   0.871   1.208   2.972 -0.0015  0.9501 -0.6342
   90SOL     MW  360   0.841   1.155   2.902  0.6165 -0.2804 -0.1894
   91SOL     OW  361   2.188   0.656   0.467  0.5590  0.2224 -0.4743
   91SOL    HW1  362   2.265   0.683   0.409 -0.7532  0.9261 -1.5486
   91SOL    HW2  363   2.184   0.567   0.437  0.4688  0.0504 -1.9878
   91SOL     MW  364   2.197   0.648   0.455  0.3739  0.2925 -0.8157
   92SOL     OW  365   1.658   0.911   0.562 -0.4435  0.2118 -0.1772
   92SOL    HW1  366   1.566   0.921   0.599 -0.3240  1.6823  0.3562
   92SOL    HW2  367   1.662   0.854   0.481  0.4249 -1.5267  2.4731
   92SOL     MW  368   1.647   0.905   0.556 -0.3131  0.1764  0.2428
   93SOL     OW  369   1.129   0.186   0.426  0.1881  0.8024 -0.5782
   93SOL    HW1  370   1.039   0.212   0.439  0.7163 -1.8662 -0.8831
   93SOL    HW2  371   1.146   0.240   0.347  0.3527  1.1445 -0.8087
   93SOL     MW  372   1.120   0.196   0.417  0.2795  0.4955 -0.6488
   94SOL     OW  373   1.851   1.353   1.598 -0.1868 -0.1885 -0.0390
   94SOL    HW1  374   1.868   1.367   1.508  0.1306  2.5108  2.8092
   94SOL    HW2  375   1.845   1.258   1.615 -0.1999  0.8784 -0.1148
   94SOL     MW  376   1.853   1.342   1.588 -0.1466  0.3084  0.3268
   95SOL     OW  377   0.661   1.576   0.926 -0.8032 -0.8525 -0.2759
   95SOL    HW1  378   0.701   1.546   1.013 -3.9067  1.5482  1.3419
   95SOL    HW2  379   0.624   1.494   0.895 -0.7390 -0.8784  1.1003
   95SOL     MW  380   0.661   1.561   0.934 -1.2042 -0.5391  0.1191
   96SOL     OW  381   1.330   1.877   1.719 -0.0205 -0.0802 -0.0149
   96SOL    HW1  382   1.242   1.882   1.747  2.9229 -0.3053  0.6775
   96SOL    HW2  383   1.339   1.786   1.698 -3.4000 -0.0921  0.6140
   96SOL     MW  384   1.319   1.865   1.720 -0.0781 -0.1114  0.1594
   97SOL     OW  385   1.119   1.460   0.849  0.0304  0.0078  0.2001
   97SOL    HW1  386   1.158   1.516   0.915  0.9705 -1.1451  1.1027
   97SOL    HW2  387   1.053   1.511   0.810  0.3233 -0.5782  1.9996
   97SOL     MW  388   1.115   1.474   0.852  0.1931 -0.2217  0.5566
   98SOL     OW  389   1.430   1.334   1.159 -0.4286  0.5974 -0.2131
   98SOL    HW1  390   1.485   1.376   1.225  1.7816  2.0087 -1.3530
   98SOL    HW2  391   1.441   1.387   1.077  0.1924 -0.1384  2.8456
   98SOL     MW  392   1.438   1.347   1.157 -0.0551  0.6865  0.0401
   99SOL     OW  393   1.466   0.288   1.253 -0.0920 -0.0272  0.3253
   99SOL    HW1  394   1.487   0.379   1.225  0.4849 -0.3861  2.5532
   99SOL    HW2  395   1.444   0.291   1.344 -3.7783 -0.0388 -3.9011
   99SOL     MW  396   1.466   0.300   1.262 -0.5023 -0.0761  0.0616
  100SOL     OW  397   1.023   1.165   1.404 -0.3493 -0.0222 -0.3874
  100SOL    HW1  398   1.069   1.198   1.482  0.3491  0.8773  0.0836
  100SOL    HW2  399   1.035   1.072   1.405 -0.2882 -0.8246  0.8421
  100SOL     MW  400   1.030   1.157   1.415 -0.2490 -0.0094 -0.1631
  101SOL     OW  401   0.527   1.192   0.359  0.8067 -0.7290 -0.2441
  101SOL    HW1  402   0.442   1.152   0.346  0.6868  2.8703 -0.3526
  101SOL    HW2  403   0.602   1.150   0.309  0.8261 -0.7107  0.6165
  101SOL     MW  404   0.526   1.181   0.351  0.7935 -0.2517 -0.1449
  102SOL     OW  405   2.901   0.636   1.022 -0.3004 -0.1537  0.7949
  102SOL    HW1  406   2.907   0.731   1.020 -0.1057  1.0224  0.8042
  102SOL    HW2  407   2.863   0.623   1.115  2.3520  1.2191 -0.5822
  102SOL     MW  408   2.896   0.647   1.034  0.0752  0.1826  0.6144
  103SOL     OW  409   1.832   0.230   1.836  0.2006 -0.3608 -0.9349
  103SOL    HW1  410   1.827   0.139   1.819 -1.5635 -0.2742 -0.9460
  103SOL    HW2  411   1.822   0.233   1.929 -1.7995 -0.9643 -1.5092
  103SOL     MW  412   1.830   0.219   1.846 -0.2960 -0.4290 -1.0122
  104SOL     OW  413   0.095   1.518   1.583  0.3019  0.1001  0.2789
  104SOL    HW1  414   0.161   1.477   1.632  3.1240  1.0799 -1.7149
  104SOL    HW2  415   0.012   1.469   1.594 -2.4288  0.9324 -0.9346
  104SOL     MW  416   0.093   1.506   1.591  0.3140  0.3392 -0.1443
  105SOL     OW  417  -0.001   1.222   0.419 -0.0386  0.3606 -0.1837
  105SOL    HW1  418   0.014   1.129   0.392 -1.6541 -1.4200  1.5188
  105SOL    HW2  419   0.081   1.265   0.418 -2.5416  1.0183 -2.5365
  105SOL     MW  420   0.012   1.215   0.415 -0.5820  0.2124 -0.2695
  106SOL     OW  421   0.774   0.419   0.904 -0.4216 -0.2195 -0.2437
  106SOL    HW1  422   0.700   0.480   0.890  0.0644  2.1499  0.4934
  106SOL    HW2  423   0.840   0.437   0.841 -0.8139  1.3900  1.9029
  106SOL     MW  424   0.773   0.429   0.894 -0.4092  0.3055  0.1368
  107SOL     OW  425   0.826   2.115   2.905  0.4050 -0.1447 -0.1679
  107SOL    HW1  426   0.732   2.117   2.886  2.1408 -1.2586 -0.7519
  107SOL    HW2  427   0.829   2.076   2.990  0.8715 -0.0141 -2.7021
  107SOL     MW  428   0.814   2.110   2.914  0.6956 -0.2745 -0.5793
  108SOL     OW  429   1.360   1.607   1.640  0.2969 -0.3314  0.2529
  108SOL    HW1  430   1.324   1.586   1.551 -0.6080 -0.8006 -3.8969
  108SOL    HW2  431   1.445   1.568   1.634 -2.1945  0.6461  0.1808
  108SOL     MW  432   1.367   1.599   1.627 -0.1512 -0.2643 -0.3041
  109SOL     OW  433   2.010   0.733   0.243  0.3955 -0.4980  0.1592
  109SOL    HW1  434   2.032   0.824   0.244  0.3357 -0.8129 -1.7521
  109SOL    HW2  435   2.053   0.704   0.323  1.0893 -2.2633 -0.5524
  109SOL     MW  436   2.018   0.741   0.254  0.4792 -0.7724 -0.1869
  110SOL     OW  437   0.411   1.929   0.697  0.1780  0.0279  0.4445
  110SOL    HW1  438   0.473   1.884   0.642 -1.3446  0.5092  3.6060
  110SOL    HW2  439   0.381   2.009   0.645 -2.8173 -0.8459  0.6739
  110SOL     MW  440   0.415   1.934   0.683 -0.4181 -0.0239  0.8919
  111SOL     OW  441   0.784   0.895   1.438  0.3170  0.1103 -0.6100
  111SOL    HW1  442   0.781   0.902   1.343  1.7688  1.1136  1.2084
  111SOL    HW2  443   0.778   0.799   1.460 -1.2648 -0.3247  1.1007
  111SOL     MW  444   0.783   0.883   1.428  0.2999  0.1853 -0.1444
  112SOL     OW  445   1.349   1.081   1.623  0.8776  0.1557  0.0941
  112SOL    HW1  446   1.289   1.152   1.621 -2.4070 -1.2181  1.6247
  112SOL    HW2  447   1.297   1.000   1.620  0.5530 -0.5659 -2.1783
  112SOL     MW  448   1.334   1.080   1.622  0.4014 -0.1208 -0.0038
  113SOL     OW  449   1.246   3.072   1.673 -0.2056 -0.1380 -0.4266
  113SOL    HW1  450   1.264   3.038   1.764 -0.6487 -0.7702  2.0864
  113SOL    HW2  451   1.218   2.990   1.628  0.1929 -1.2758  0.1645
  113SOL     MW  452   1.245   3.056   1.679 -0.2115 -0.3716 -0.0171
  114SOL     OW  453   0.262   2.867   1.867  0.1891  0.2046 -0.0398
  114SOL    HW1  454   0.305   2.910   1.944  0.1790 -0.9810 -0.8402
  114SOL    HW2  455   0.181   2.913   1.868 -2.6372  2.5209 -0.5640
  114SOL     MW  456   0.257   2.879   1.877 -0.1852  0.3538 -0.2145
  115SOL     OW  457   0.450   0.804   1.142  0.1559  0.0123 -0.2728
  115SOL    HW1  458   0.479   0.710   1.147 -2.2376 -1.6897  0.6568
  115SOL    HW2  459   0.398   0.827   1.227  0.9995 -2.3183  3.6216
  115SOL     MW  460   0.447   0.795   1.154 -0.0486 -0.5198  0.3637
  116SOL     OW  461   0.815   1.088   1.001  0.2158  0.3279  0.5551
  116SOL    HW1  462   0.843   1.122   0.916  0.8941 -0.8133 -0.2951
  116SOL    HW2  463   0.832   1.146   1.072 -2.2133  1.7772  1.7384
  116SOL     MW  464   0.821   1.100   0.999 -0.0152  0.3685  0.5990
  117SOL     OW  465   1.102   1.175   0.805  0.1412  0.0500  0.1043
  117SOL    HW1  466   1.125   1.116   0.875 -1.9942 -1.2026 -2.9606
  117SOL    HW2  467   1.115   1.271   0.837  1.7499 -0.9039 -1.1588
  117SOL     MW  468   1.107   1.179   0.818  0.0717 -0.2411 -0.4667
  118SOL     OW  469   3.040   2.980   1.696  0.0566 -0.0104  0.1338
  118SOL    HW1  470   3.071   3.049   1.760 -1.4263 -1.0339  0.7025
  118SOL    HW2  471   2.942   3.002   1.682  1.0175  2.1939 -2.7578
  118SOL     MW  472   3.031   2.992   1.702 -0.0123  0.1454 -0.1727
  119SOL     OW  473   0.410   1.498   1.262  0.0634  0.5866 -0.4114
  119SOL    HW1  474   0.430   1.528   1.175 -1.8965  1.2794  0.9439
  119SOL    HW2  475   0.316   1.471   1.257 -1.3075 -1.8164  1.2342
  119SOL     MW  476   0.400   1.498   1.250 -0.3761  0.3610 -0.0155
  120SOL     OW  477   0.202   0.767   1.027  0.6985  0.0421 -0.0882
  120SOL    HW1  478   0.130   0.772   1.089  1.5322  2.6307 -0.3407
  120SOL    HW2  479   0.276   0.806   1.071 -3.4554  1.7813 -0.0421
  120SOL     MW  480   0.202   0.773   1.041  0.2604  0.6131 -0.1154
  121SOL     OW  481   1.767   1.125   1.665  0.1433 -0.0492 -0.4101
  121SOL    HW1  482   1.696   1.177   1.622 -1.0873  2.9388 -1.5774
  121SOL    HW2  483   1.773   1.043   1.612 -3.5068  1.1574 -0.1222
  121SOL     MW  484   1.758   1.121   1.652 -0.5007  0.5042 -0.5262
  122SOL     OW  485   0.178   0.570   0.815 -0.1648 -0.0525 -0.4014
  122SOL    HW1  486   0.255   0.521   0.781 -0.8973 -0.9393  0.8160
  122SOL    HW2  487   0.212   0.638   0.871 -0.0733  0.4404 -0.0209
  122SOL     MW  488   0.193   0.572   0.818 -0.2494 -0.1044 -0.1906
  123SOL     OW  489   1.837   1.094   0.476  0.0326 -0.1263  0.4264
  123SOL    HW1  490   1.770   1.027   0.498  1.6005 -0.5223 -2.5896
  123SOL    HW2  491   1.856   1.137   0.558 -1.3962  2.6268  1.2868
  123SOL     MW  492   1.831   1.091   0.490  0.0509  0.1847  0.1420
  124SOL     OW  493   0.514   0.572   0.932 -0.1236 -0.0309  0.4163
  124SOL    HW1  494   0.476   0.531   0.854 -0.3612  1.5480 -2.0301
  124SOL    HW2  495   0.543   0.657   0.896 -0.6829 -0.7845 -0.0456
  124SOL     MW  496   0.513   0.578   0.917 -0.2288  0.0780  0.0325
  125SOL     OW  497   0.745   1.779   1.716 -0.0217  0.0333  0.0820
  125SOL    HW1  498   0.671   1.719   1.708 -0.6700  0.7847  3.0552
  125SOL    HW2  499   0.701   1.869   1.729  1.5826  1.7699  1.3212
  125SOL     MW  500   0.729   1.783   1.717  0.1044  0.3616  0.6378
  126SOL     OW  501   2.155   1.521   1.950  0.3622 -0.9490 -0.3107
  126SOL    HW1  502   2.218   1.598   1.943 -0.0840 -0.0420  0.6118
  126SOL    HW2  503   2.210   1.444   1.968 -0.2527  0.4300  2.1446
  126SOL     MW  504   2.171   1.521   1.952  0.2222 -0.6474  0.1350
  127SOL     OW  505   0.584   0.866   1.786  0.1664  0.1321 -0.3064
  127SOL    HW1  506   0.661   0.814   1.811  0.7041  0.1469  0.0230
  127SOL    HW2  507   0.557   0.920   1.868 -3.0219 -2.7078  0.7830
  127SOL     MW  508   0.590   0.866   1.800 -0.1833 -0.2406 -0.1192
  128SOL     OW  509   1.678   0.717   2.900 -0.0483 -0.0513 -0.0513
  128SOL    HW1  510   1.727   0.700   2.816  2.0519 -0.9022 -1.2141
  128SOL    HW2  511   1.662   0.812   2.903 -1.5365 -0.1721  0.8414
  128SOL     MW  512   1.682   0.727   2.889  0.0324 -0.1795 -0.0869
  129SOL     OW  513   1.615   0.938   0.166 -0.2091 -0.0656  0.7289
  129SOL    HW1  514   1.536   0.881   0.172 -1.0568 -2.4305  0.2856
  129SOL    HW2  515   1.663   0.891   0.238 -0.1840 -1.1641  0.6591
  129SOL     MW  516   1.611   0.924   0.176 -0.3177 -0.5226  0.6612
  130SOL     OW  517   0.795   1.382   0.308 -0.6428  0.7819 -0.2188
  130SOL    HW1  518   0.819   1.381   0.407  1.4985  0.8470  0.3682
  130SOL    HW2  519   0.824   1.466   0.277  1.5572 -1.1338  0.0051
  130SOL     MW  520   0.802   1.393   0.317 -0.0700  0.5377 -0.1118
  131SOL     OW  521   3.048   0.817   3.103 -0.0687  0.0470  0.6487
  131SOL    HW1  522   3.049   0.876   3.017  0.8633 -0.3464 -1.5119
  131SOL    HW2  523   3.134   0.835   3.134 -0.5353 -2.6494 -0.2239
  131SOL     MW  524   3.060   0.827   3.096 -0.0073 -0.3607  0.2485
  132SOL     OW  525   2.739   0.154   1.301  0.0282  0.7061 -0.2294
  132SOL    HW1  526   2.804   0.178   1.235  2.8478 -2.3487  0.9641
  132SOL    HW2  527   2.660   0.141   1.252 -1.9321 -0.7686 -2.6455
  132SOL     MW  528   2.737   0.156   1.286  0.1416  0.1085 -0.3907
  133SOL     OW  529   1.060   0.183   1.688 -0.2187  0.2994 -0.2000
  133SOL    HW1  530   1.129   0.114   1.684 -0.2177 -0.3282  0.1898
  133SOL    HW2  531   1.070   0.229   1.772  3.1768  0.6065 -0.8519
  133SOL     MW  532   1.071   0.180   1.698  0.2294  0.2571 -0.2346
  134SOL     OW  533   1.417   2.450   1.428  0.3001  0.1300  0.4377
  134SOL    HW1  534   1.349   2.513   1.398 -2.3430  0.9148 -0.9615
  134SOL    HW2  535   1.460   2.484   1.507  0.1695 -2.8449  0.5253
  134SOL     MW  536   1.414   2.463   1.435 -0.0659 -0.1589  0.2647
  135SOL     OW  537   3.052   0.987   2.870  0.0625  0.1502  0.2224
  135SOL    HW1  538   3.108   1.033   2.931 -0.8889 -2.3241 -1.4114
  135SOL    HW2  539   2.968   1.036   2.884  1.5601  1.3261  2.2661
  135SOL     MW  540   3.048   1.000   2.880  0.1345 -0.0211  0.2765
  136SOL     OW  541   0.218   2.056   0.864  0.2096 -0.3903  0.4434
  136SOL    HW1  542   0.160   1.977   0.843 -2.1023  0.4991 -0.1292
  136SOL    HW2  543   0.290   2.027   0.817 -0.0695  0.4524 -1.3506
  136SOL     MW  544   0.220   2.042   0.855 -0.1322 -0.1617  0.1311
  137SOL     OW  545   0.689   2.066   0.546 -0.3316  0.0681 -0.3243
  137SOL    HW1  546   0.679   2.082   0.644  0.3838  0.4375 -1.4580
  137SOL    HW2  547   0.607   2.105   0.508  0.7917 -1.0880 -2.4511
  137SOL     MW  548   0.677   2.073   0.554 -0.0890 -0.0357 -0.7545
  138SOL     OW  549   0.466   0.510   1.200 -0.7440 -0.4874  0.5004
  138SOL    HW1  550   0.374   0.495   1.211 -2.4671 -0.1887 -1.8624
  138SOL    HW2  551   0.489   0.501   1.103  0.2888  3.2054  1.1121
  138SOL     MW  552   0.457   0.507   1.189 -0.8351  0.0392  0.2694
  139SOL     OW  553   2.825   0.564   1.276 -0.8469  0.5549  0.2809
  139SOL    HW1  554   2.850   0.480   1.318 -0.0465 -2.1041  0.4386
  139SOL    HW2  555   2.837   0.627   1.350 -1.2514  0.1740  1.8740
  139SOL     MW  556   2.830   0.561   1.291 -0.7947  0.1538  0.5119
  140SOL     OW  557   0.898   0.471   2.000 -0.5210  0.1366 -0.3152
  140SOL    HW1  558   0.900   0.373   1.984 -2.6287  0.2714  2.0250
  140SOL    HW2  559   0.894   0.486   2.098 -2.1920 -0.0794  0.2832
  140SOL     MW  560   0.898   0.460   2.011 -1.0196  0.1259  0.0725
  141SOL     OW  561   0.987   0.646   1.678  0.3329  0.1085 -0.1675
  141SOL    HW1  562   1.037   0.566   1.676 -0.2747  2.9614  0.6284
  141SOL    HW2  563   1.049   0.718   1.668  0.5811  2.9489 -0.3362
  141SOL     MW  564   1.002   0.645   1.677  0.2854  0.8597 -0.0848
  142SOL     OW  565   0.845   1.169   0.741  0.4230 -0.0682  0.3556
  142SOL    HW1  566   0.854   1.133   0.651  2.1282  0.2738  1.0776
  142SOL    HW2  567   0.934   1.185   0.763  0.6436 -1.5042 -2.5612
  142SOL     MW  568   0.858   1.166   0.732  0.6771 -0.2126  0.0660
  143SOL     OW  569   1.823   0.682   1.091 -0.0511  0.2669  0.1494
  143SOL    HW1  570   1.889   0.667   1.023 -0.1482  0.6142  0.5455
  143SOL    HW2  571   1.742   0.668   1.041  2.1223  1.6687 -2.4778
  143SOL     MW  572   1.821   0.678   1.075  0.2229  0.4977 -0.1450
  144SOL     OW  573   0.292   1.363   1.728 -0.2476  0.1092 -0.0064
  144SOL    HW1  574   0.360   1.349   1.656  0.3817  0.6641 -2.8358
  144SOL    HW2  575   0.347   1.322   1.804 -2.1631 -2.7690  1.5243
  144SOL     MW  576   0.308   1.356   1.729 -0.4173 -0.1973 -0.1778
  145SOL     OW  577   0.166   0.481   1.252 -0.2150 -0.7020  0.4628
  145SOL    HW1  578   0.221   0.402   1.261 -0.2868  1.7471  0.5185
  145SOL    HW2  579   0.091   0.467   1.191  2.1062  1.3634  0.2159
  145SOL     MW  580   0.163   0.469   1.245  0.0818 -0.1063  0.4376
  146SOL     OW  581   0.901   1.927   1.380  0.1233 -0.7760 -0.3553
  146SOL    HW1  582   0.906   1.958   1.292 -0.0583  0.1660  1.7776
  146SOL    HW2  583   0.813   1.899   1.387  0.9360 -1.9395 -1.1060
  146SOL     MW  584   0.890   1.928   1.369  0.2066 -0.8053 -0.1729
  147SOL     OW  585   0.426   0.518   2.951  0.3810 -0.1953  0.0711
  147SOL    HW1  586   0.359   0.493   3.016 -0.0773 -0.7635  1.5639
  147SOL    HW2  587   0.387   0.588   2.900  0.2334 -0.9846 -0.3046
  147SOL     MW  588   0.412   0.524   2.953  0.3010 -0.3744  0.2185
  148SOL     OW  589   0.047   0.880   1.231 -0.4538  0.5383  0.7356
  148SOL    HW1  590   0.126   0.942   1.247  1.3728  2.2089 -1.2562
  148SOL    HW2  591  -0.011   0.935   1.291 -2.2501  1.8840  1.1703
  148SOL     MW  592   0.049   0.896   1.241 -0.4498  0.9363  0.5301
  149SOL     OW  593   1.579   1.164   1.444  0.1059  0.1370  0.9863
  149SOL    HW1  594   1.495   1.137   1.479  1.5296  0.8204  1.3395
  149SOL    HW2  595   1.580   1.255   1.414 -1.4983 -0.3163  1.7069
  149SOL     MW  596   1.568   1.172   1.444  0.0821  0.1674  1.1280
  150SOL     OW  597   1.709   1.373   0.858 -0.0760 -0.5220  0.0589
  150SOL    HW1  598   1.752   1.298   0.816  1.4377  0.7999  1.2051
  150SOL    HW2  599   1.781   1.433   0.883  1.8934  0.1732  2.8218
  150SOL     MW  600   1.724   1.371   0.856  0.3836 -0.2559  0.5746
  151SOL     OW  601   1.694   1.847   0.796 -0.0169 -0.2008 -0.1271
  151SOL    HW1  602   1.657   1.840   0.711  0.9309 -0.5960 -0.1020
  151SOL    HW2  603   1.622   1.832   0.852  0.7155  0.9296 -1.2497
  151SOL     MW  604   1.680   1.844   0.792  0.2048 -0.1038 -0.2719
  152SOL     OW  605   0.774   1.420   1.628 -0.0345  0.2327 -0.1502
  152SOL    HW1  606   0.816   1.490   1.578  0.5974 -0.2453 -0.0765
  152SOL    HW2  607   0.768   1.342   1.566  0.5194  2.1118 -1.5325
  152SOL     MW  608   0.779   1.419   1.614  0.1220  0.4176 -0.3229
  153SOL     OW  609   2.554   1.225   0.768 -0.2103 -0.2402 -0.1840
  153SOL    HW1  610   2.620   1.165   0.735  0.3585  0.5852  1.9549
  153SOL    HW2  611   2.479   1.158   0.778 -0.6155  0.0033  0.1844
  153SOL     MW  612   2.552   1.208   0.765 -0.1887 -0.0992  0.1468
  154SOL     OW  613   0.124   1.758   1.728  0.1149  0.1699  0.4931
  154SOL    HW1  614   0.100   1.671   1.692  0.2996  0.8591  0.3917
  154SOL    HW2  615   0.203   1.727   1.772 -0.2601 -1.6354  0.0011
  154SOL     MW  616   0.131   1.743   1.729  0.0898  0.0226  0.4148
  155SOL     OW  617   1.184   0.761   0.319  0.3187  0.6252 -0.1395
  155SOL    HW1  618   1.160   0.727   0.410 -0.6957 -0.3640  2.0312
  155SOL    HW2  619   1.180   0.860   0.328 -3.4232  0.4749 -0.9309
  155SOL     MW  620   1.181   0.770   0.332 -0.3089  0.4749  0.0425
  156SOL     OW  621   1.557   3.049   1.108 -0.7514  0.0707  0.1782
  156SOL    HW1  622   1.638   3.102   1.130  0.2512 -0.1942 -1.2946
  156SOL    HW2  623   1.595   2.965   1.084  0.5611  0.7916  2.9787
  156SOL     MW  624   1.572   3.045   1.108 -0.4459  0.1309  0.3534
  157SOL     OW  625   1.369   1.150   0.103 -0.1245  0.2161 -0.3413
  157SOL    HW1  626   1.390   1.107   0.190  3.8190  1.2942 -0.7725
  157SOL    HW2  627   1.428   1.221   0.079  1.2880  0.8398 -0.3841
  157SOL     MW  628   1.379   1.154   0.111  0.5822  0.4406 -0.4038
  158SOL     OW  629   0.441   1.666   2.312  0.3845  0.7589 -0.5467
  158SOL    HW1  630   0.464   1.709   2.230  1.7715 -0.3154 -0.9057
  158SOL    HW2  631   0.383   1.727   2.359  1.0770  1.0990 -0.6534
  158SOL     MW  632   0.437   1.680   2.307  0.6589  0.6620 -0.6081
  159SOL     OW  633   1.246   1.638   0.471  0.3371 -0.8503  0.2435
  159SOL    HW1  634   1.196   1.630   0.389  0.7014 -1.2211 -1.5351
  159SOL    HW2  635   1.208   1.709   0.523 -2.6544  0.2535  1.5144
  159SOL     MW  636   1.235   1.646   0.467 -0.0095 -0.7536  0.1765
  160SOL     OW  637   0.497   1.255   1.556  0.3448  0.2635 -0.3406
  160SOL    HW1  638   0.460   1.168   1.564 -0.2712  2.1051 -1.2696
  160SOL    HW2  639   0.592   1.229   1.573  2.0939  0.4646 -0.2857
  160SOL     MW  640   0.505   1.240   1.559  0.4943  0.5330 -0.4559
  161SOL     OW  641   0.460   2.181   2.573 -0.1697  0.4792  0.5153
  161SOL    HW1  642   0.373   2.220   2.544  1.3120 -1.2456 -0.7868
  161SOL    HW2  643   0.475   2.116   2.503 -0.2399  0.4351 -3.8420
  161SOL     MW  644   0.450   2.178   2.560  0.0165  0.2458 -0.2314
  162SOL     OW  645   1.047   1.830   1.845 -0.1812 -0.0575 -0.1814
  162SOL    HW1  646   1.066   1.925   1.848 -0.6929 -1.6480 -0.6302
  162SOL    HW2  647   0.977   1.799   1.908 -0.2405  1.4042  1.7145
  162SOL     MW  648   1.040   1.839   1.854 -0.2565 -0.0745  0.0096
  163SOL     OW  649   2.054   3.057   0.901  0.1602  0.3817 -0.1039
  163SOL    HW1  650   2.070   3.114   0.827  1.2971  0.4537 -2.8933
  163SOL    HW2  651   2.072   2.963   0.877  2.4967 -0.3317  0.1727
  163SOL     MW  652   2.058   3.052   0.888  0.6185  0.2971 -0.4354
  164SOL     OW  653   0.299   0.193   0.798  0.5764 -0.7213 -0.1798
  164SOL    HW1  654   0.202   0.204   0.815 -2.6671  0.6614 -2.5667
  164SOL    HW2  655   0.299   0.120   0.733  0.1836 -1.4588 -0.6685
  164SOL     MW  656   0.286   0.185   0.791  0.0966 -0.6362 -0.5592
  165SOL     OW  657   1.205   1.325   0.341 -0.1501 -0.1708  0.3657
  165SOL    HW1  658   1.196   1.277   0.419 -2.2606 -0.5700 -1.6668
  165SOL    HW2  659   1.286   1.291   0.311 -1.1496  0.6537 -0.0075
  165SOL     MW  660   1.215   1.314   0.347 -0.5605 -0.1147  0.0483
  166SOL     OW  661   0.554   1.122   1.020 -0.2004 -0.2072  0.0863
  166SOL    HW1  662   0.541   1.167   1.110 -2.6068  1.1146 -1.9612
  166SOL    HW2  663   0.652   1.100   1.008  2.0531 -1.7578  2.1385
  166SOL     MW  664   0.565   1.125   1.031 -0.2206 -0.2374  0.0869
  167SOL     OW  665   0.814   1.108   0.250 -0.2659 -0.0937  0.1322
  167SOL    HW1  666   0.826   1.210   0.247 -0.5164 -0.2066  1.5994
  167SOL    HW2  667   0.884   1.083   0.189  0.5297 -0.7157  2.3580
  167SOL     MW  668   0.825   1.118   0.242 -0.1940 -0.1907  0.6195
  168SOL     OW  669   1.740   1.652   3.034  0.4038  0.5691  0.6651
  168SOL    HW1  670   1.657   1.702   3.019 -1.2821  0.3868  0.1915
  168SOL    HW2  671   1.726   1.571   2.982 -2.2684  0.7360 -1.3733
  168SOL     MW  672   1.727   1.648   3.025 -0.1712  0.5671  0.3337
  169SOL     OW  673   0.306   0.968   1.329 -0.8302 -0.3617  0.1313
  169SOL    HW1  674   0.337   0.968   1.418  1.8830  0.3915  0.8890
  169SOL    HW2  675   0.354   1.041   1.293  1.1614 -2.4414  0.5107
  169SOL     MW  676   0.316   0.977   1.336 -0.2095 -0.5367  0.2813
  170SOL     OW  677   1.145   1.504   1.489  0.2131 -0.0012 -0.5767
  170SOL    HW1  678   1.082   1.566   1.511 -3.2464 -1.7027 -1.6168
  170SOL    HW2  679   1.121   1.484   1.402  0.3475  0.7465  1.4227
  170SOL     MW  680   1.133   1.509   1.481 -0.2256 -0.1270 -0.4502
  171SOL     OW  681   0.523   1.421   0.529 -1.1505  0.3543 -0.1582
  171SOL    HW1  682   0.499   1.372   0.606  0.3971 -3.2355  1.0466
  171SOL    HW2  683   0.530   1.351   0.464 -2.2769 -0.4741  1.2362
  171SOL     MW  684   0.520   1.405   0.531 -1.0949 -0.2286  0.1847
  172SOL     OW  685   0.860   0.298   1.255 -0.3604 -0.2072 -0.0425
  172SOL    HW1  686   0.792   0.277   1.187  1.6214  1.6216 -2.6324
  172SOL    HW2  687   0.855   0.231   1.320 -2.0104  2.2607 -1.6233
  172SOL     MW  688   0.850   0.286   1.254 -0.3166  0.3597 -0.5927
  173SOL     OW  689   0.518   1.813   0.263  0.4925 -0.2132  0.7225
  173SOL    HW1  690   0.510   1.723   0.228  1.8618  0.5216  0.7308
  173SOL    HW2  691   0.512   1.811   0.356 -0.5722  0.9226 -0.3371
  173SOL     MW  692   0.516   1.801   0.271  0.5327  0.0336  0.5838
  174SOL     OW  693   1.842   0.898   1.492  0.4949  0.1692 -0.0524
  174SOL    HW1  694   1.795   0.820   1.518  1.0574  0.5197  2.9549
  174SOL    HW2  695   1.812   0.929   1.406  0.2496 -1.0501 -0.3502
  174SOL     MW  696   1.832   0.892   1.484  0.5367  0.0546  0.3051
  175SOL     OW  697   0.518   1.516   0.199  0.7267 -0.2576 -0.2227
  175SOL    HW1  698   0.451   1.449   0.193 -1.5380 -1.1243 -0.6445
  175SOL    HW2  699   0.595   1.469   0.231 -1.1205  4.0013  1.3025
  175SOL     MW  700   0.519   1.501   0.203  0.1842  0.1899 -0.0771
  176SOL     OW  701   0.155   1.471   1.214 -0.0284 -0.2864 -0.1008
  176SOL    HW1  702   0.139   1.430   1.122 -3.9854 -1.0684  1.1232
  176SOL    HW2  703   0.069   1.444   1.255 -0.8543 -2.5788 -2.1054
  176SOL     MW  704   0.142   1.462   1.207 -0.6594 -0.6921 -0.2038
  177SOL     OW  705   0.559   0.316   1.437 -0.2392 -0.1965  0.6821
  177SOL    HW1  706   0.586   0.380   1.374  1.0365 -0.1589  2.7237
  177SOL    HW2  707   0.548   0.373   1.513  0.9769 -0.2259 -0.6650
  177SOL     MW  708   0.561   0.332   1.439  0.0896 -0.1954  0.7737
  178SOL     OW  709   3.094   0.519   2.995 -0.1534 -0.0350  0.4729
  178SOL    HW1  710   3.037   0.539   3.077 -1.0990  0.8515  2.2963
  178SOL    HW2  711   3.024   0.498   2.927  0.1328 -0.7420 -0.9044
  178SOL     MW  712   3.077   0.519   2.997 -0.2404 -0.0113  0.5317
  179SOL     OW  713   1.585   1.439   1.377  0.0730 -0.3051 -0.2036
  179SOL    HW1  714   1.580   1.463   1.467 -2.1046 -1.5082  0.7747
  179SOL    HW2  715   1.675   1.440   1.339 -0.1800  0.3183 -0.0051
  179SOL     MW  716   1.596   1.442   1.384 -0.2477 -0.3816 -0.0483
  180SOL     OW  717   2.987   0.270   0.499  0.0374  0.5741  0.4450
  180SOL    HW1  718   2.967   0.293   0.403  0.5910 -0.8910 -3.5843
  180SOL    HW2  719   3.074   0.305   0.511 -0.8735 -2.2514  1.5210
  180SOL     MW  720   2.996   0.277   0.488 -0.0097  0.0080  0.0553
  181SOL     OW  721   1.143   1.328   3.077 -0.5065 -0.2652  0.1142
  181SOL    HW1  722   1.214   1.391   3.093  0.3976 -2.0348  1.9191
  181SOL    HW2  723   1.185   1.258   3.021  1.2952 -2.7647  1.5924
  181SOL     MW  724   1.158   1.327   3.072 -0.1495 -0.8285  0.5474
  182SOL     OW  725   0.372   1.004   1.612 -0.2548  0.0440  0.2267
  182SOL    HW1  726   0.283   0.978   1.623 -0.3627 -1.8764  0.7450
  182SOL    HW2  727   0.426   0.948   1.672  1.5780  0.3863  0.2223
  182SOL     MW  728   0.368   0.993   1.622 -0.0272 -0.1642  0.2945
  183SOL     OW  729   1.534   1.706   1.267 -0.3235  0.4543  0.5808
  183SOL    HW1  730   1.629   1.724   1.285  0.1681 -0.7160  0.2659
  183SOL    HW2  731   1.514   1.615   1.289  1.3444 -1.6722  1.1153
  183SOL     MW  732   1.544   1.697   1.272 -0.0386  0.0193  0.6098
  184SOL     OW  733   0.801   0.714   1.886 -0.6594 -0.3424  0.0550
  184SOL    HW1  734   0.873   0.697   1.824  2.2116 -0.6719 -0.2338
  184SOL    HW2  735   0.801   0.633   1.935 -0.7190  0.5937  0.7402
  184SOL     MW  736   0.810   0.701   1.885 -0.2884 -0.2624  0.1073
  185SOL     OW  737   1.101   0.944   1.890 -0.7423 -0.0922  0.1605
  185SOL    HW1  738   1.080   0.862   1.934  2.3813  0.1567 -0.2695
  185SOL    HW2  739   1.147   0.992   1.954 -0.5213 -1.2921 -1.6948
  185SOL     MW  740   1.104   0.939   1.904 -0.3010 -0.2177 -0.1410
  186SOL     OW  741   0.328   1.662   1.468 -0.6706 -0.6895  0.5716
  186SOL    HW1  742   0.347   1.618   1.384  0.0863  0.1299  2.4614
  186SOL    HW2  743   0.259   1.610   1.522  0.0541 -1.8456  1.9852
  186SOL     MW  744   0.322   1.649   1.464 -0.4751 -0.7339  1.0074
  187SOL     OW  745   1.508   0.745   1.361  0.4693 -0.1096  0.0374
  187SOL    HW1  746   1.561   0.693   1.420  0.9761 -0.2201  0.4773
  187SOL    HW2  747   1.416   0.717   1.360 -1.2692  1.4927 -0.1982
  187SOL     MW  748   1.503   0.735   1.369  0.3068  0.0873  0.0643
  188SOL     OW  749   1.940   1.181   0.789  0.2967  0.3210  0.8687
  188SOL    HW1  750   1.925   1.161   0.879  1.0859  1.1516 -2.0926
  188SOL    HW2  751   1.981   1.097   0.759 -0.0151  0.6165  2.6403
  188SOL     MW  752   1.943   1.167   0.797  0.3597  0.4696  0.7117
  189SOL     OW  753   0.684   0.765   0.838 -0.1623 -0.1668 -0.0943
  189SOL    HW1  754   0.617   0.844   0.837  0.2467  0.3462  0.8810
  189SOL    HW2  755   0.729   0.775   0.925  1.5012  1.5440 -0.5904
  189SOL     MW  756   0.681   0.777   0.850  0.1112  0.1266 -0.0311
  190SOL     OW  757   1.846   0.317   2.143  0.2424  0.5297 -0.1577
  190SOL    HW1  758   1.876   0.239   2.190  1.7528  1.9700 -0.3014
  190SOL    HW2  759   1.922   0.378   2.134 -1.7754 -0.4751  2.0548
  190SOL     MW  760   1.860   0.315   2.148  0.1754  0.5872  0.1153
  191SOL     OW  761   1.518   0.977   1.229 -0.1812  0.6717  0.0346
  191SOL    HW1  762   1.519   1.049   1.293 -0.5927 -2.6511  1.9871
  191SOL    HW2  763   1.505   0.896   1.280  0.2791 -0.2153 -1.4634
  191SOL     MW  764   1.516   0.976   1.244 -0.1748  0.1162  0.0945
  192SOL     OW  765   0.542   2.118   2.819 -0.2983 -0.3238  0.6540
  192SOL    HW1  766   0.487   2.125   2.744 -1.2580  2.2364  0.4265
  192SOL    HW2  767   0.568   2.025   2.816 -1.6998  0.7853  0.1412
  192SOL     MW  768   0.538   2.107   2.809 -0.6099  0.1604  0.5563
  193SOL     OW  769   0.870   1.617   0.755 -0.0789  0.4161  0.6940
  193SOL    HW1  770   0.819   1.592   0.825  2.0603 -0.7182 -2.3623
  193SOL    HW2  771   0.841   1.562   0.678 -1.3920 -1.8950 -1.7327
  193SOL     MW  772   0.860   1.606   0.754  0.0301 -0.0385 -0.0294
  194SOL     OW  773   0.517   1.343   0.820  0.4170 -0.2654 -0.7753
  194SOL    HW1  774   0.540   1.266   0.874 -0.2600 -0.7373 -1.3917
  194SOL    HW2  775   0.418   1.358   0.816 -0.7213 -0.8574  0.3922
  194SOL     MW  776   0.507   1.335   0.826  0.1775 -0.4058 -0.7026
  195SOL     OW  777   1.285   1.113   2.942  0.4413 -0.0702 -0.6626
  195SOL    HW1  778   1.335   1.101   3.024  0.9303  2.2678 -1.2724
  195SOL    HW2  779   1.218   1.045   2.936 -1.8523 -0.4963  0.0961
  195SOL     MW  780   1.282   1.103   2.952  0.2032  0.1821 -0.6429
  196SOL     OW  781   2.238   0.973   0.523  0.6360  0.1344  0.1429
  196SOL    HW1  782   2.163   0.950   0.476  3.0022  1.3090  2.4956
  196SOL    HW2  783   2.232   1.072   0.519  1.1248  0.4480  1.7061
  196SOL     MW  784   2.227   0.983   0.517  1.0127  0.3308  0.6596
  197SOL     OW  785   0.617   1.286   2.234  0.1508 -0.6250  0.3932
  197SOL    HW1  786   0.660   1.212   2.180  1.9220 -0.8838  0.6895
  197SOL    HW2  787   0.650   1.361   2.186 -2.5611  0.7940 -1.3998
  197SOL     MW  788   0.627   1.286   2.221  0.0267 -0.4719  0.1958
  198SOL     OW  789   2.934   1.432   1.017  0.1733  0.9343 -0.3948
  198SOL    HW1  790   2.883   1.499   0.969 -1.7228 -1.9413 -1.3328
  198SOL    HW2  791   2.864   1.367   1.041 -0.9113 -2.2760  1.0090
  198SOL     MW  792   2.918   1.432   1.014 -0.2200  0.1314 -0.3334
  199SOL     OW  793   0.743   1.347   1.917 -0.3898 -0.4144 -0.7962
  199SOL    HW1  794   0.651   1.334   1.931 -0.0746  0.0027  0.1841
  199SOL    HW2  795   0.742   1.384   1.830 -1.5784  0.9879 -1.5041
  199SOL     MW  796   0.731   1.350   1.908 -0.5051 -0.1744 -0.7602
  200SOL     OW  797   1.857   2.907   1.362 -0.1287 -0.1186  0.2095
  200SOL    HW1  798   1.913   2.933   1.289  2.9274  2.8197  0.0705
  200SOL    HW2  799   1.779   2.965   1.373  2.4804 -2.5713 -1.4230
  200SOL     MW  800   1.854   2.918   1.354  0.6187 -0.0546 -0.0242
  201SOL     OW  801   1.030   0.350   0.726  0.6641 -0.4401 -0.2834
  201SOL    HW1  802   1.037   0.264   0.684  0.0969 -1.0577  0.8460
  201SOL    HW2  803   1.094   0.361   0.799  2.0773  0.1765  2.5908
  201SOL     MW  804   1.039   0.340   0.730  0.7757 -0.4402  0.2448
  202SOL     OW  805   1.476   1.762   0.963 -0.2468  1.0458  0.0277
  202SOL    HW1  806   1.483   1.667   0.935 -1.7393 -0.0108  1.0723
  202SOL    HW2  807   1.490   1.755   1.054  0.1246  1.7535  1.9096
  202SOL     MW  808   1.479   1.748   0.971 -0.3948  0.9997  0.4138
  203SOL     OW  809   2.982   0.395   1.473  0.4424  0.0270 -0.4711
  203SOL    HW1  810   3.048   0.340   1.427 -2.3846 -4.0887 -3.5566
  203SOL    HW2  811   3.025   0.448   1.543 -0.5353  0.2812  1.4794
  203SOL     MW  812   2.996   0.395   1.476 -0.0596 -0.4825 -0.6209
  204SOL     OW  813   1.021   1.815   0.637  0.1830  0.2302  0.0101
  204SOL    HW1  814   0.979   1.733   0.674 -0.9427 -2.0742 -1.9991
  204SOL    HW2  815   0.966   1.828   0.561  1.5006 -0.8988 -0.1050
  204SOL     MW  816   1.008   1.806   0.632  0.2083 -0.2228 -0.2702
  205SOL     OW  817   1.371   3.056   1.323  0.3670 -0.3149  0.0240
  205SOL    HW1  818   1.397   3.056   1.229  2.0498 -0.1359  0.6328
  205SOL    HW2  819   1.324   3.137   1.337  2.6397  1.5017  0.9972
  205SOL     MW  820   1.368   3.067   1.312  0.8889 -0.0516  0.2327
  206SOL     OW  821   0.475   3.073   1.360 -0.1431 -0.0794 -0.6900
  206SOL    HW1  822   0.443   3.044   1.274 -0.1130 -0.6316 -1.9026
  206SOL    HW2  823   0.543   3.010   1.392  1.0289  0.0060 -0.0073
  206SOL     MW  824   0.480   3.061   1.353  0.0155 -0.1410 -0.7599
  207SOL     OW  825   0.888   1.692   0.219 -0.2520  0.5198 -0.5551
  207SOL    HW1  826   0.915   1.771   0.178  1.2467 -0.3457 -1.6594
  207SOL    HW2  827   0.963   1.634   0.209 -2.5880  0.6663  0.3331
  207SOL     MW  828   0.902   1.695   0.212 -0.3624  0.4249 -0.5836
  208SOL     OW  829   0.722   1.635   1.422  0.3379 -0.8725  0.2805
  208SOL    HW1  830   0.813   1.662   1.449 -1.8823 -0.9626 -0.6676
  208SOL    HW2  831   0.732   1.613   1.327  0.7807 -1.3704 -1.7705
  208SOL     MW  832   0.736   1.636   1.413  0.1034 -0.9501 -0.1152
  209SOL     OW  833   1.524   0.492   2.795 -0.1728 -0.1614  0.6503
  209SOL    HW1  834   1.548   0.572   2.843  2.3686  2.4448  0.7116
  209SOL    HW2  835   1.603   0.437   2.791 -1.0585 -1.6272  0.5862
  209SOL     MW  836   1.538   0.495   2.801  0.0457 -0.0110  0.6500
  210SOL     OW  837   1.479   1.498   0.934 -0.2421 -0.2858 -0.0345
  210SOL    HW1  838   1.557   1.445   0.898  1.5520  1.0369 -0.5340
  210SOL    HW2  839   1.419   1.501   0.858 -0.3447  0.1280 -2.6787
  210SOL     MW  840   1.482   1.491   0.919 -0.0189 -0.0567 -0.4493
  211SOL     OW  841   1.726   0.305   0.997 -0.0612  0.0597 -0.2193
  211SOL    HW1  842   1.723   0.331   0.906 -1.1987  0.2776  0.4286
  211SOL    HW2  843   1.813   0.326   1.019 -0.8903  0.0673  0.3008
  211SOL     MW  844   1.737   0.311   0.988 -0.3207  0.0895 -0.0652
  212SOL     OW  845   0.269   1.090   0.217  0.0867  0.0563  0.1378
  212SOL    HW1  846   0.219   1.042   0.281  0.9138 -1.9548 -1.6670
  212SOL    HW2  847   0.323   1.026   0.160  1.8636  0.6498 -0.8787
  212SOL     MW  848   0.270   1.075   0.218  0.4302 -0.1308 -0.2344
  213SOL     OW  849   0.458   1.773   3.000 -0.7764  0.7715 -0.1367
  213SOL    HW1  850   0.479   1.848   3.053 -0.2376 -3.6324 -0.3969
  213SOL    HW2  851   0.492   1.798   2.914 -0.5129  1.3931  2.2950
  213SOL     MW  852   0.465   1.786   2.996 -0.6706  0.2725  0.1498
  214SOL     OW  853   0.613   0.326   2.136 -0.1253 -0.2124  0.1152
  214SOL    HW1  854   0.535   0.379   2.159 -2.5781  2.2690  0.9177
  214SOL    HW2  855   0.608   0.309   2.041 -1.0170  0.6501 -2.1795
  214SOL     MW  856   0.602   0.331   2.127 -0.5666  0.2288 -0.0817
  215SOL     OW  857   0.514   0.649   2.599 -0.3515 -0.9952 -1.2601
  215SOL    HW1  858   0.472   0.679   2.516 -0.0408  2.4938 -1.4969
  215SOL    HW2  859   0.439   0.612   2.642 -2.5661 -2.2359 -0.8182
  215SOL     MW  860   0.498   0.648   2.594 -0.6027 -0.6985 -1.2331
  216SOL     OW  861   2.985   3.054   2.705 -0.6216  0.0382 -0.0854
  216SOL    HW1  862   2.939   3.056   2.788  2.4765  0.2633  1.5648
  216SOL    HW2  863   3.004   3.147   2.686  0.2835  3.3240 -0.2532
  216SOL     MW  864   2.982   3.067   2.713 -0.0934  0.5014  0.1101
  217SOL     OW  865   1.062   1.081   0.101  0.1152 -0.4425  0.1855
  217SOL    HW1  866   1.092   1.025   0.022  0.0101  0.4064 -1.2102
  217SOL    HW2  867   1.082   1.168   0.070  1.3700 -2.5455  0.3451
  217SOL     MW  868   1.069   1.085   0.086  0.2669 -0.6080  0.0224
  218SOL     OW  869   0.850   1.361   2.694  0.0536  0.0449 -0.3276
  218SOL    HW1  870   0.863   1.309   2.772  1.2917 -1.0227 -0.2989
  218SOL    HW2  871   0.940   1.380   2.666  2.2246  2.3259 -0.9443
  218SOL     MW  872   0.864   1.357   2.701  0.5034  0.2050 -0.4052
  219SOL     OW  873   1.073   0.361   2.624 -0.6116  0.4103  0.3976
  219SOL    HW1  874   1.152   0.420   2.640 -3.1334 -1.4499  1.4841
  219SOL    HW2  875   0.999   0.419   2.603  0.5971  2.0298 -0.0246
  219SOL     MW  876   1.074   0.376   2.623 -0.7848  0.3786  0.4853
  220SOL     OW  877   1.651   0.502   2.239  0.1141 -0.3335 -0.2464
  220SOL    HW1  878   1.583   0.527   2.168 -0.5021  1.8267 -0.7984
  220SOL    HW2  879   1.692   0.423   2.198  1.1711 -0.7771 -1.0018
  220SOL     MW  880   1.647   0.495   2.224  0.1722 -0.1070 -0.4189
  221SOL     OW  881   0.334   1.282   2.901 -0.2732  0.1039  0.1138
  221SOL    HW1  882   0.413   1.230   2.889  0.6594  0.7294  0.7275
  221SOL    HW2  883   0.344   1.365   2.854 -1.6845 -2.9832  0.2257
  221SOL     MW  884   0.346   1.286   2.893 -0.3364 -0.2209  0.2095
  222SOL     OW  885   0.510   0.902   2.681 -0.0866  0.3696  0.9276
  222SOL    HW1  886   0.422   0.921   2.674  0.8299 -0.5490 -1.1455
  222SOL    HW2  887   0.526   0.810   2.666  0.0588 -0.7116 -1.8805
  222SOL     MW  888   0.500   0.892   2.678  0.0535  0.1058  0.2836
  223SOL     OW  889   0.031   1.995   2.574 -0.6940 -0.0004  0.2486
  223SOL    HW1  890  -0.013   1.988   2.662  0.8890 -0.4597  0.0709
  223SOL    HW2  891   0.054   2.087   2.561 -0.1139  2.6968 -4.1601
  223SOL     MW  892   0.028   2.006   2.584 -0.4086  0.2949 -0.3565
  224SOL     OW  893   1.460   0.733   2.496 -0.1688  0.4768  0.9231
  224SOL    HW1  894   1.459   0.742   2.593 -0.7722  0.0901  0.2043
  224SOL    HW2  895   1.472   0.822   2.472 -0.5374 -1.6477 -1.7224
  224SOL     MW  896   1.462   0.746   2.506 -0.2970  0.1455  0.4792
  225SOL     OW  897   2.944   1.439   2.292  0.0049 -0.0559  0.9758
  225SOL    HW1  898   2.979   1.514   2.240  0.6433  0.1929  1.2015
  225SOL    HW2  899   2.867   1.465   2.344 -3.5002 -1.6326  1.3445
  225SOL     MW  900   2.939   1.453   2.292 -0.3733 -0.2311  1.0542
  226SOL     OW  901   0.385   1.502   2.746  0.3605 -0.5708  0.8643
  226SOL    HW1  902   0.479   1.502   2.723  0.5827  0.1464 -1.1285
  226SOL    HW2  903   0.346   1.580   2.717 -0.9874  0.3485  1.1642
  226SOL     MW  904   0.392   1.512   2.739  0.2120 -0.3549  0.6409
  227SOL     OW  905   0.569   1.117   2.839  0.1354  0.1740  0.2461
  227SOL    HW1  906   0.655   1.145   2.812 -1.4409  1.9183  0.3475
  227SOL    HW2  907   0.544   1.038   2.794  1.4736  0.9947  1.9311
  227SOL     MW  908   0.577   1.111   2.829  0.1040  0.5125  0.4818
  228SOL     OW  909   0.741   1.091   2.059  0.4383 -0.0764  0.1365
  228SOL    HW1  910   0.768   1.165   1.999  1.6188  0.5863 -0.4151
  228SOL    HW2  911   0.821   1.080   2.111 -0.0707  0.0871  2.5711
  228SOL     MW  912   0.755   1.099   2.058  0.5269  0.0326  0.3849
  229SOL     OW  913   0.218   0.634   0.017  0.7325 -0.3265 -0.0920
  229SOL    HW1  914   0.145   0.625  -0.039  0.9396 -0.1965 -1.1810
  229SOL    HW2  915   0.215   0.558   0.082  0.8714 -2.8231  0.0509
  229SOL     MW  916   0.208   0.623   0.018  0.7782 -0.6387 -0.2169
  230SOL     OW  917   1.799   1.370   2.020  0.0772  0.0704 -0.3624
  230SOL    HW1  918   1.744   1.324   2.096 -0.6029  1.4261 -0.1887
  230SOL    HW2  919   1.856   1.303   1.976 -1.9425 -2.0619  1.1695
  230SOL     MW  920   1.799   1.355   2.024 -0.2790 -0.0321 -0.1374
  231SOL     OW  921   2.735   1.246   2.191 -0.4417  0.2706  0.3043
  231SOL    HW1  922   2.827   1.285   2.189 -0.0846  1.4265  1.6752
  231SOL    HW2  923   2.695   1.298   2.117  2.4114  0.3498  0.7353
  231SOL     MW  924   2.742   1.258   2.181 -0.0181  0.4336  0.5420
  232SOL     OW  925   2.279   0.802   2.000  0.0131 -0.5403 -0.0940
  232SOL    HW1  926   2.222   0.838   1.933  0.0871  0.4989 -2.2422
  232SOL    HW2  927   2.258   0.838   2.084 -1.8703 -3.6995  2.4222
  232SOL     MW  928   2.269   0.812   2.002 -0.2256 -0.8200 -0.0454
  233SOL     OW  929   2.073   0.464   2.085  0.5328  0.5727  0.1500
  233SOL    HW1  930   2.116   0.391   2.048 -2.8366  0.6488  0.8107
  233SOL    HW2  931   2.144   0.510   2.136 -0.7582 -3.1138  0.4815
  233SOL     MW  932   2.088   0.460   2.087 -0.0821  0.0963  0.2809
  234SOL     OW  933   0.262   1.039   2.645 -0.1740  0.0352 -0.3497
  234SOL    HW1  934   0.183   1.029   2.593  1.0496 -0.1276 -0.6745
  234SOL    HW2  935   0.291   1.129   2.621  1.7989  1.0094 -2.3621
  234SOL     MW  936   0.255   1.050   2.635  0.2478  0.1423 -0.6581
  235SOL     OW  937   1.023   3.037   2.799 -0.7232  0.3585 -0.3673
  235SOL    HW1  938   1.070   3.014   2.883  1.5365 -2.2637  0.8620
  235SOL    HW2  939   1.033   3.133   2.812 -0.8428 -0.7649 -2.7988
  235SOL     MW  940   1.031   3.047   2.812 -0.4408 -0.1357 -0.5259
  236SOL     OW  941   2.951   0.576   0.123 -0.0838 -0.2170 -0.2488
  236SOL    HW1  942   2.893   0.612   0.193  0.1314 -0.4890  0.4494
  236SOL    HW2  943   2.984   0.652   0.074 -0.9927 -0.3031  0.5912
  236SOL     MW  944   2.948   0.591   0.126 -0.1753 -0.2643 -0.0458
  237SOL     OW  945   1.946   1.081   2.189 -0.1459 -0.4455 -0.9181
  237SOL    HW1  946   1.877   1.075   2.128 -2.2476  0.7354  1.9765
  237SOL    HW2  947   1.998   0.996   2.176 -2.0291 -0.6300 -3.1161
  237SOL     MW  948   1.944   1.069   2.179 -0.6717 -0.3140 -0.8262
  238SOL     OW  949   1.102   1.789   2.963 -0.1700 -0.1158  0.2300
  238SOL    HW1  950   1.049   1.708   2.950 -1.3091  0.8650  1.0825
  238SOL    HW2  951   1.186   1.758   2.923 -0.5859 -1.7572 -2.4497
  238SOL     MW  952   1.106   1.774   2.956 -0.3752 -0.2029 -0.0111
  239SOL     OW  953   1.197   1.329   2.287 -0.2577 -0.6164 -0.4702
  239SOL    HW1  954   1.112   1.371   2.268  0.0815 -1.7540 -2.3428
  239SOL    HW2  955   1.173   1.275   2.368  0.3627 -1.6108  0.3330
  239SOL     MW  956   1.182   1.328   2.295 -0.1311 -0.8977 -0.6113
  240SOL     OW  957   0.606   0.906   2.246 -0.0832 -0.0494 -0.1965
  240SOL    HW1  958   0.652   0.930   2.336  1.0796 -1.6459  0.9432
  240SOL    HW2  959   0.683   0.916   2.188 -1.3716  0.2697 -0.2724
  240SOL     MW  960   0.622   0.911   2.250 -0.0998 -0.2180 -0.0562
  241SOL     OW  961   0.672   0.463   3.077  0.1793  0.7541 -0.4084
  241SOL    HW1  962   0.695   0.544   3.131  1.2653  0.5972 -0.4552
  241SOL    HW2  963   0.594   0.485   3.028  3.4053  0.1894 -0.9283
  241SOL     MW  964   0.665   0.477   3.078  0.7482  0.6589 -0.4832
  242SOL     OW  965   1.509   1.723   2.261  0.1871 -0.4325  0.2687
  242SOL    HW1  966   1.445   1.790   2.290  1.5060 -0.5477 -2.0135
  242SOL    HW2  967   1.452   1.654   2.230  1.6276  0.6789  1.8580
  242SOL     MW  968   1.493   1.723   2.260  0.5512 -0.3011  0.1773
  243SOL     OW  969   0.987   0.252   2.378  0.2365  0.3132 -0.6094
  243SOL    HW1  970   1.056   0.197   2.330 -0.1521  1.4123 -1.5180
  243SOL    HW2  971   1.032   0.293   2.452 -1.3613  1.6598  2.8042
  243SOL     MW  972   1.002   0.251   2.382 -0.0256  0.6359 -0.2789
  244SOL     OW  973   0.130   0.805   2.355 -0.0947  0.0680  0.3784
  244SOL    HW1  974   0.093   0.888   2.394  1.1516 -0.5158 -0.6187
  244SOL    HW2  975   0.224   0.819   2.360 -0.8590 -1.5021 -0.0312
  244SOL     MW  976   0.138   0.817   2.361 -0.0311 -0.2162  0.1928
  245SOL     OW  977   1.258   0.196   2.294 -0.1182  0.1770  0.0777
  245SOL    HW1  978   1.283   0.106   2.302 -3.7499 -0.0884  0.2675
  245SOL    HW2  979   1.269   0.222   2.381 -0.3485 -1.9825 -0.3062
  245SOL     MW  980   1.263   0.188   2.307 -0.6278 -0.1430  0.0521
  246SOL     OW  981   1.193   1.136   2.065  0.2330 -0.2115 -0.1433
  246SOL    HW1  982   1.129   1.147   2.141  0.8634  1.5822 -1.0213
  246SOL    HW2  983   1.286   1.131   2.105  0.8941  1.1092 -0.7856
  246SOL     MW  984   1.197   1.137   2.080  0.4034  0.1994 -0.3439
  247SOL     OW  985   0.767   0.644   0.167 -0.1727 -0.2980 -0.4344
  247SOL    HW1  986   0.754   0.735   0.146 -2.1257  1.2408  0.3084
  247SOL    HW2  987   0.863   0.628   0.142 -0.0586  1.9731 -1.4521
  247SOL     MW  988   0.778   0.654   0.161 -0.4153  0.2047 -0.4706
  248SOL     OW  989   0.347   1.294   2.563 -0.2296 -0.0321 -0.7144
  248SOL    HW1  990   0.303   1.322   2.482  1.4490 -0.3316  0.5672
  248SOL    HW2  991   0.354   1.367   2.619  0.5050 -2.6137  1.0756
  248SOL     MW  992   0.342   1.308   2.559  0.0888 -0.4123 -0.3091
  249SOL     OW  993   3.054   1.905   2.824 -0.6149 -0.2580  0.8755
  249SOL    HW1  994   2.979   1.850   2.810 -2.5742  1.9427 -0.4817
  249SOL    HW2  995   3.118   1.857   2.873 -1.4731 -1.7901 -1.5235
  249SOL     MW  996   3.053   1.891   2.829 -0.9867 -0.1698  0.3799
  250SOL     OW  997   2.143   0.878   2.222  0.5165 -0.9362 -0.3954
  250SOL    HW1  998   2.153   0.779   2.236 -5.0901  0.1594 -0.8993
  250SOL    HW2  999   2.194   0.925   2.290 -1.4110 -0.8452  1.4052
  250SOL     MW 1000   2.151   0.871   2.233 -0.4776 -0.7797 -0.2243
  251SOL     OW 1001   0.167   0.912   2.013 -0.6301 -0.0072  0.3716
  251SOL    HW1 1002   0.110   0.842   2.028  1.4889 -0.2784 -1.5879
  251SOL    HW2 1003   0.180   0.909   1.920 -1.5136 -2.1249  1.3195
  251SOL     MW 1004   0.161   0.902   2.003 -0.4671 -0.3224  0.2381
  252SOL     OW 1005   1.663   1.017   2.840 -0.1431 -0.2338 -0.5851
  252SOL    HW1 1006   1.671   1.052   2.930  0.5580  0.9464  0.0871
  252SOL    HW2 1007   1.742   1.045   2.797  0.9149 -2.9363 -3.7200
  252SOL     MW 1008   1.674   1.026   2.846  0.0890 -0.4346 -0.9100
  253SOL     OW 1009   1.120   1.706   2.429  0.1580  0.1611  0.0682
  253SOL    HW1 1010   1.149   1.705   2.328 -0.4739  0.7986 -3.2288
  253SOL    HW2 1011   1.037   1.758   2.435  0.5244 -2.1733  0.4914
  253SOL     MW 1012   1.113   1.713   2.417  0.1230 -0.0628 -0.3109
  254SOL     OW 1013   0.949   1.134   2.253  0.0567 -0.0076 -0.2562
  254SOL    HW1 1014   0.945   1.042   2.261 -0.6197  2.5314 -2.4658
  254SOL    HW2 1015   0.900   1.167   2.328 -2.0760 -0.9454 -0.3626
  254SOL     MW 1016   0.942   1.126   2.264 -0.3139  0.2037 -0.5618
  255SOL     OW 1017   0.884   2.538   2.140  0.6673  0.6478  0.3080
  255SOL    HW1 1018   0.794   2.496   2.146 -4.5787  0.1302  0.9450
  255SOL    HW2 1019   0.941   2.465   2.165 -1.2247  2.2080 -0.1647
  255SOL     MW 1020   0.880   2.523   2.144 -0.2745  0.7854  0.3296
  256SOL     OW 1021   1.213   2.747   2.969 -0.3975  0.1774  0.3842
  256SOL    HW1 1022   1.164   2.685   2.913 -0.5602  0.8494  1.7838
  256SOL    HW2 1023   1.305   2.739   2.940  1.2037 -2.6007 -0.5078
  256SOL     MW 1024   1.218   2.737   2.958 -0.2077 -0.1005  0.4511
  257SOL     OW 1025   0.037   1.909   0.012 -0.0592 -0.1520  0.7012
  257SOL    HW1 1026   0.059   1.893   0.107  0.7773  0.1624 -1.1689
  257SOL    HW2 1027   0.084   1.848  -0.043 -0.6666  0.2011  1.0786
  257SOL     MW 1028   0.046   1.899   0.017 -0.0290 -0.0639  0.5042
  258SOL     OW 1029   0.704   0.993   2.482 -0.2999 -0.5946 -1.0309
  258SOL    HW1 1030   0.731   1.079   2.455 -1.6268  1.1960  0.0875
  258SOL    HW2 1031   0.632   1.000   2.543  2.6066  0.4724 -2.4234
  258SOL     MW 1032   0.698   1.005   2.487 -0.0915 -0.2176 -1.0671
  259SOL     OW 1033   0.819   0.491   2.275 -0.3187  0.2917  0.3556
  259SOL    HW1 1034   0.738   0.460   2.234 -0.9861 -0.7169  0.8090
  259SOL    HW2 1035   0.864   0.411   2.304 -0.1553  1.0804 -0.8650
  259SOL     MW 1036   0.814   0.477   2.273 -0.3852  0.2627  0.2544
  260SOL     OW 1037   0.644   0.113   1.600 -0.5831 -0.3044 -0.7971
  260SOL    HW1 1038   0.610   0.179   1.533  1.1521  0.5710  0.5010
  260SOL    HW2 1039   0.730   0.100   1.557 -0.2818  0.2400  0.2721
  260SOL     MW 1040   0.651   0.120   1.585 -0.3144 -0.1171 -0.4848
  261SOL     OW 1041   1.114   0.673   1.973  0.0386 -0.1898 -0.4166
  261SOL    HW1 1042   1.132   0.689   2.061  1.1342 -0.4179  0.4961
  261SOL    HW2 1043   1.050   0.595   1.973 -2.4009  1.4261 -1.4262
  261SOL     MW 1044   1.108   0.665   1.985 -0.1387 -0.0067 -0.4294
  262SOL     OW 1045   1.101   0.332   0.186  0.6863 -0.2365  0.5325
  262SOL    HW1 1046   1.197   0.339   0.152 -1.7301  1.1709 -1.0774
  262SOL    HW2 1047   1.046   0.267   0.132  1.1234 -1.0685  2.5017
  262SOL     MW 1048   1.107   0.324   0.175  0.4252 -0.1606  0.5799
  263SOL     OW 1049   0.355   0.034   2.465  0.4284 -0.2984 -0.4586
  263SOL    HW1 1050   0.273   0.092   2.457 -1.2343 -0.2413  0.5981
  263SOL    HW2 1051   0.429   0.077   2.424  0.7110 -0.3782 -0.8930
  263SOL     MW 1052   0.354   0.048   2.458  0.2463 -0.3014 -0.3765
  264SOL     OW 1053   1.546   1.349   1.922 -0.5679  0.0045  0.8232
  264SOL    HW1 1054   1.525   1.258   1.897 -1.0944 -0.0994 -0.0660
  264SOL    HW2 1055   1.629   1.341   1.972  1.4861 -1.9633  0.7592
  264SOL     MW 1056   1.555   1.336   1.926 -0.3664 -0.2689  0.6974
  265SOL     OW 1057   0.741   2.771   2.305 -0.5847 -0.0042 -0.0666
  265SOL    HW1 1058   0.795   2.695   2.280  0.0895  0.2838 -0.7544
  265SOL    HW2 1059   0.754   2.764   2.403  0.3016 -0.4309  0.1196
  265SOL     MW 1060   0.750   2.760   2.315 -0.3788 -0.0225 -0.1328
  266SOL     OW 1061   0.902   0.842   2.158 -0.8953  0.2981 -0.3673
  266SOL    HW1 1062   0.866   0.802   2.077  3.8620 -0.8679 -2.7275
  266SOL    HW2 1063   0.989   0.806   2.174  2.8683  3.3360  2.1818
  266SOL     MW 1064   0.909   0.832   2.150  0.2290  0.5451 -0.3424
  267SOL     OW 1065   1.327   1.758   2.637 -0.0723 -0.3425 -0.1136
  267SOL    HW1 1066   1.400   1.736   2.577 -0.0317 -0.9322  2.5183
  267SOL    HW2 1067   1.250   1.723   2.593 -1.8217 -0.5328 -0.4620
  267SOL     MW 1068   1.327   1.750   2.623 -0.2978 -0.4454  0.1877
  268SOL     OW 1069   0.135   0.927   1.712 -0.3867  0.4459  0.9153
  268SOL    HW1 1070   0.091   1.015   1.697  0.6723 -1.1343  0.5290
  268SOL    HW2 1071   0.102   0.876   1.641  0.8331 -2.6881 -0.5626
  268SOL     MW 1072   0.125   0.932   1.701 -0.0860 -0.1761  0.6693
  269SOL     OW 1073   1.356   1.957   2.283 -0.1876 -0.0994  0.2108
  269SOL    HW1 1074   1.386   2.028   2.336  0.4581  1.5685 -0.0782
  269SOL    HW2 1075   1.271   1.933   2.312 -2.6475  0.6125 -2.2391
  269SOL     MW 1076   1.349   1.963   2.294 -0.4270  0.2146 -0.1506
  270SOL     OW 1077   1.131   0.401   1.584  0.0831 -0.2465  0.0080
  270SOL    HW1 1078   1.103   0.307   1.617 -0.2904 -1.3949 -0.6160
  270SOL    HW2 1079   1.220   0.381   1.553 -0.9962 -1.8798  0.1339
  270SOL     MW 1080   1.139   0.386   1.584 -0.1086 -0.6135 -0.0578
  271SOL     OW 1081   0.808   0.072   2.441  0.7296 -0.1521  0.1302
  271SOL    HW1 1082   0.856  -0.007   2.467 -0.4995 -2.2979 -1.0674
  271SOL    HW2 1083   0.872   0.151   2.424  0.6974  3.6922 -2.2139
  271SOL     MW 1084   0.823   0.072   2.442  0.5632  0.0720 -0.3371
  272SOL     OW 1085   1.453   2.829   2.861  0.1503  0.1102 -0.6519
  272SOL    HW1 1086   1.423   2.816   2.772  1.8319 -3.6858  1.8292
  272SOL    HW2 1087   1.491   2.922   2.856 -1.5895  0.9405 -0.9495
  272SOL     MW 1088   1.454   2.839   2.849  0.1426 -0.2811 -0.3638
  273SOL     OW 1089   1.424   0.878   2.751 -0.0630 -1.2070 -0.3430
  273SOL    HW1 1090   1.495   0.927   2.790 -0.1230  3.6312 -1.5689
  273SOL    HW2 1091   1.384   0.962   2.720 -0.3773 -2.0721  0.0381
  273SOL     MW 1092   1.428   0.896   2.752 -0.1124 -0.6828 -0.4545
  274SOL     OW 1093   1.415   0.762   0.177  0.1388 -0.7004  0.4877
  274SOL    HW1 1094   1.440   0.675   0.214  1.6549 -1.6593  1.1758
  274SOL    HW2 1095   1.334   0.775   0.229  2.0266 -0.3944  0.1589
  274SOL     MW 1096   1.407   0.752   0.189  0.5879 -0.7865  0.5351
  275SOL     OW 1097   1.737   0.517   1.789  0.7971  0.0797  0.3690
  275SOL    HW1 1098   1.812   0.552   1.837 -0.5993 -0.5972  0.7096
  275SOL    HW2 1099   1.758   0.426   1.789  0.3421 -1.1475  0.2214
  275SOL     MW 1100   1.750   0.509   1.795  0.5528 -0.1715  0.3945
  276SOL     OW 1101   0.458   1.259   1.915  1.1142 -0.0553 -0.1550
  276SOL    HW1 1102   0.478   1.161   1.918 -2.0958  1.6346  2.6895
  276SOL    HW2 1103   0.381   1.263   1.979 -0.2120  0.1078 -0.9221
  276SOL     MW 1104   0.450   1.246   1.924  0.5157  0.1892  0.1191
  277SOL     OW 1105   1.964   1.086   2.458 -0.0281 -0.4484 -0.0298
  277SOL    HW1 1106   2.013   1.167   2.464 -0.6893  0.0300 -0.7105
  277SOL    HW2 1107   1.930   1.081   2.367 -1.4951 -2.1764  1.3133
  277SOL     MW 1108   1.966   1.096   2.447 -0.3089 -0.6133  0.0576
  278SOL     OW 1109   1.376   0.678   1.758  0.5959  0.0145  0.0989
  278SOL    HW1 1110   1.334   0.616   1.820 -1.2684 -0.0107  3.3043
  278SOL    HW2 1111   1.473   0.664   1.773  3.1821  1.2153  0.1451
  278SOL     MW 1112   1.383   0.668   1.768  0.6912  0.1696  0.5279
  279SOL     OW 1113   0.545   0.099   2.278 -0.5047  0.3844  0.4530
  279SOL    HW1 1114   0.622   0.046   2.271 -2.1026 -2.2966  0.3664
  279SOL    HW2 1115   0.574   0.185   2.251  1.0545 -0.4744  1.8327
  279SOL     MW 1116   0.559   0.103   2.273 -0.5098 -0.0826  0.6236
  280SOL     OW 1117   1.457   1.102   2.150  0.5354  0.3463 -0.3314
  280SOL    HW1 1118   1.507   1.029   2.109 -1.9335  0.7580 -0.2776
  280SOL    HW2 1119   1.447   1.080   2.247 -1.2271  0.8263  2.1484
  280SOL     MW 1120   1.463   1.089   2.158 -0.0229  0.4640  0.0029
  281SOL     OW 1121   1.389   1.151   2.698 -0.9556 -0.3689 -0.1017
  281SOL    HW1 1122   1.459   1.214   2.698 -1.8148  2.1703  0.0316
  281SOL    HW2 1123   1.360   1.143   2.791  3.6883  0.7931 -0.0639
  281SOL     MW 1124   1.395   1.158   2.710 -0.4562  0.1195 -0.0791
  282SOL     OW 1125   1.164   1.277   1.622  0.1057  0.0203 -0.2222
  282SOL    HW1 1126   1.155   1.370   1.583  3.6069 -0.1459  2.3098
  282SOL    HW2 1127   1.090   1.254   1.678 -0.1416 -1.7993 -0.9744
  282SOL     MW 1128   1.153   1.286   1.625  0.5350 -0.2417  0.0126
  283SOL     OW 1129   0.871   1.309   0.011  0.4059  0.2928 -0.1290
  283SOL    HW1 1130   0.959   1.352  -0.003  1.6581  1.7577 -1.2479
  283SOL    HW2 1131   0.823   1.361  -0.046  2.9136  1.5007  0.3703
  283SOL     MW 1132   0.876   1.322   0.002  0.9020  0.6454 -0.2107
  284SOL     OW 1133   0.417   0.730   2.363  0.1258 -0.3774  0.0158
  284SOL    HW1 1134   0.497   0.781   2.342 -0.2459 -2.0772 -1.7939
  284SOL    HW2 1135   0.420   0.663   2.291 -1.8688  2.0301 -1.8840
  284SOL     MW 1136   0.428   0.728   2.351 -0.1864 -0.2841 -0.4736
  285SOL     OW 1137   0.877   0.882   2.815 -0.2201  0.4730  0.3899
  285SOL    HW1 1138   0.921   0.929   2.742 -0.4939  0.6956  1.6456
  285SOL    HW2 1139   0.828   0.806   2.787 -3.9084  1.9518  0.0126
  285SOL     MW 1140   0.876   0.879   2.802 -0.7429  0.6975  0.5058
  286SOL     OW 1141   1.125   1.486   2.620 -0.0782 -0.0913  0.3116
  286SOL    HW1 1142   1.203   1.432   2.606 -2.6327 -1.0931  0.1840
  286SOL    HW2 1143   1.118   1.549   2.542 -0.8220 -0.9782 -4.6794
  286SOL     MW 1144   1.134   1.487   2.608 -0.5134 -0.3405 -0.3637
  287SOL     OW 1145   1.207   1.009   0.317 -0.1982 -0.1661  0.5048
  287SOL    HW1 1146   1.182   1.068   0.382 -0.7672  1.2153 -0.5970
  287SOL    HW2 1147   1.164   1.024   0.234 -2.6134 -1.5636 -1.2001
  287SOL     MW 1148   1.198   1.019   0.315 -0.5919 -0.1682  0.1345
  288SOL     OW 1149   1.460   0.599   2.075  0.1927  0.1310  0.5097
  288SOL    HW1 1150   1.411   0.598   2.169 -0.3702 -0.4137 -1.6186
  288SOL    HW2 1151   1.515   0.670   2.057 -0.5228  1.0942 -0.6658
  288SOL     MW 1152   1.461   0.608   2.085  0.0240  0.1862  0.0738
  289SOL     OW 1153   0.976   1.009   2.587 -0.8177 -0.0020 -0.1127
  289SOL    HW1 1154   1.019   0.918   2.573  0.0171 -1.0863  0.4412
  289SOL    HW2 1155   0.885   1.006   2.568 -0.4271  0.6654 -2.2463
  289SOL     MW 1156   0.969   0.996   2.583 -0.6560 -0.0570 -0.3211
  290SOL     OW 1157   0.796   0.601   1.489 -0.2104  0.1404 -0.1400
  290SOL    HW1 1158   0.844   0.550   1.423 -1.7125  2.4878 -3.0050
  290SOL    HW2 1159   0.862   0.617   1.557 -1.5512  0.0440  0.5774
  290SOL     MW 1160   0.811   0.596   1.489 -0.5855  0.4374 -0.4234
  291SOL     OW 1161   0.187   0.385   0.132 -0.5437 -0.2114  0.3908
  291SOL    HW1 1162   0.284   0.371   0.148  1.6385  0.5470  2.4664
  291SOL    HW2 1163   0.164   0.295   0.116 -1.1962  0.8192 -0.9317
  291SOL     MW 1164   0.197   0.371   0.132 -0.3419  0.0246  0.4902
  292SOL     OW 1165   1.037   0.596   0.135  0.3674 -0.1930 -0.0526
  292SOL    HW1 1166   1.065   0.671   0.192 -0.3439  1.4020  2.0735
  292SOL    HW2 1167   1.074   0.515   0.172 -1.9151  1.6170 -0.1641
  292SOL     MW 1168   1.046   0.595   0.147 -0.0276  0.2562  0.2132
  293SOL     OW 1169   0.122   0.180   2.505  0.1018  0.0969 -0.0540
  293SOL    HW1 1170   0.068   0.124   2.444 -1.3104 -0.4318  0.7890
  293SOL    HW2 1171   0.064   0.202   2.577 -0.3757 -1.7005  1.8173
  293SOL     MW 1172   0.107   0.176   2.506 -0.1475 -0.2100  0.3041
  294SOL     OW 1173   1.351   0.563   2.306 -0.4866 -0.8918  0.0647
  294SOL    HW1 1174   1.406   0.604   2.377  1.2889 -2.3764 -1.5132
  294SOL    HW2 1175   1.366   0.472   2.317 -2.6089 -0.5402 -2.6699
  294SOL     MW 1176   1.360   0.557   2.317 -0.5324 -1.0413 -0.5043
  295SOL     OW 1177   0.897   0.532   2.549 -0.7387 -0.2689 -0.4900
  295SOL    HW1 1178   0.834   0.532   2.480  0.5493  2.2031  0.4953
  295SOL    HW2 1179   0.861   0.590   2.619  0.6542 -0.3961 -2.1536
  295SOL     MW 1180   0.884   0.540   2.549 -0.3850  0.0405 -0.5795
  296SOL     OW 1181   1.213   0.233   2.024  0.0763 -0.1138  0.2007
  296SOL    HW1 1182   1.306   0.207   2.008 -1.0551  0.7333  0.8850
  296SOL    HW2 1183   1.210   0.226   2.118  0.6489  1.1713 -0.1366
  296SOL     MW 1184   1.225   0.228   2.035  0.0026  0.1675  0.2465
  297SOL     OW 1185   1.396   0.373   1.535 -0.3950 -0.0979 -0.0841
  297SOL    HW1 1186   1.426   0.455   1.582 -2.0664  1.6973 -0.8738
  297SOL    HW2 1187   1.425   0.294   1.581  2.5295  0.1721 -2.9363
  297SOL     MW 1188   1.404   0.374   1.547 -0.2296  0.1746 -0.5646
  298SOL     OW 1189   1.609   0.870   2.076 -0.1794  0.7918  0.0465
  298SOL    HW1 1190   1.674   0.923   2.027  0.6662  0.5954 -0.0284
  298SOL    HW2 1191   1.659   0.845   2.152 -1.0610  0.9120 -0.6080
  298SOL     MW 1192   1.624   0.874   2.080 -0.1842  0.7817 -0.0498
  299SOL     OW 1193   0.582   1.127   0.032 -0.3108  0.0128  0.8925
  299SOL    HW1 1194   0.592   1.121  -0.071 -1.4309  1.5818  1.9569
  299SOL    HW2 1195   0.643   1.193   0.057 -1.9125  0.3637 -1.6312
  299SOL     MW 1196   0.591   1.135   0.022 -0.6699  0.2661  0.6999
  300SOL     OW 1197   1.195   1.135   2.488 -0.1407  0.1133  0.8407
  300SOL    HW1 1198   1.122   1.087   2.523 -1.6238  3.0412  0.9661
  300SOL    HW2 1199   1.246   1.158   2.565  1.1927 -1.6704  0.5893
  300SOL     MW 1200   1.192   1.131   2.503 -0.1604  0.2643  0.8240
  301SOL     OW 1201   1.431   0.976   0.691 -0.4102  0.3431  0.6072
  301SOL    HW1 1202   1.470   1.008   0.771  0.7376  0.2936 -0.1853
  301SOL    HW2 1203   1.374   0.906   0.713 -0.4308  0.6897  0.8917
  301SOL     MW 1204   1.429   0.971   0.704 -0.2615  0.3823  0.5402
  302SOL     OW 1205   0.217   1.535   2.043  0.0155 -0.4634  0.1988
  302SOL    HW1 1206   0.211   1.441   2.024 -1.1657 -0.0632 -0.0220
  302SOL    HW2 1207   0.126   1.552   2.066 -0.4933  1.5782 -1.3516
  302SOL     MW 1208   0.204   1.525   2.043 -0.2075 -0.1412 -0.0349
  303SOL     OW 1209   0.320   1.791   2.673 -0.6854  0.0742 -0.8371
  303SOL    HW1 1210   0.281   1.802   2.584 -2.0596 -1.2476 -2.9880
  303SOL    HW2 1211   0.251   1.774   2.733 -1.5716  0.6533 -1.3460
  303SOL     MW 1212   0.306   1.790   2.669 -0.9836 -0.0238 -1.1880
  304SOL     OW 1213   0.487   2.049   2.338  0.0220 -0.3839 -0.0546
  304SOL    HW1 1214   0.564   2.113   2.322  0.3656 -1.7122  0.7158
  304SOL    HW2 1215   0.542   1.967   2.330  0.0364  0.1172  2.5665
  304SOL     MW 1216   0.504   2.046   2.335  0.0693 -0.4930  0.3929
  305SOL     OW 1217   1.099   0.668   0.570 -0.1844  0.2718 -0.1469
  305SOL    HW1 1218   1.008   0.639   0.546 -2.4357  0.1011 -0.1873
  305SOL    HW2 1219   1.157   0.587   0.559  0.8164 -0.4384  0.5155
  305SOL     MW 1220   1.095   0.653   0.566 -0.3494  0.1556 -0.0649
  306SOL     OW 1221   1.138   1.552   0.210 -0.1302  0.1714 -0.2851
  306SOL    HW1 1222   1.143   1.463   0.257  0.9628 -2.9155 -0.7404
  306SOL    HW2 1223   1.210   1.557   0.148 -3.0640  1.0665 -1.4496
  306SOL     MW 1224   1.148   1.541   0.208 -0.3731 -0.1178 -0.4988
  307SOL     OW 1225   1.330   0.438   1.892  0.0152 -0.2959 -0.0064
  307SOL    HW1 1226   1.270   0.381   1.943 -1.0004 -2.9240 -0.1166
  307SOL    HW2 1227   1.386   0.484   1.956 -0.4072 -1.4708  2.2295
  307SOL     MW 1228   1.330   0.436   1.907 -0.1745 -0.7977  0.2741
  308SOL     OW 1229   2.228   0.495   2.676 -0.0170  0.1150 -0.2057
  308SOL    HW1 1230   2.313   0.535   2.685 -2.3731  0.4480  0.5587
  308SOL    HW2 1231   2.171   0.576   2.672 -0.2281 -1.7903  0.8756
  308SOL     MW 1232   2.231   0.511   2.676 -0.3558 -0.0924  0.0378
  309SOL     OW 1233   0.474   0.545   0.230  0.2635 -0.1597 -0.1407
  309SOL    HW1 1234   0.512   0.597   0.162 -1.9207  0.5804  0.5381
  309SOL    HW2 1235   0.486   0.453   0.209  2.7336  0.6918  0.3455
  309SOL     MW 1236   0.481   0.540   0.218  0.3012  0.0503  0.0130
  310SOL     OW 1237   0.488   0.624   1.919  0.0034  0.9274  0.2781
  310SOL    HW1 1238   0.520   0.555   1.865  1.1150 -1.0789 -3.0443
  310SOL    HW2 1239   0.521   0.700   1.869 -0.1642 -0.3276  0.8874
  310SOL     MW 1240   0.497   0.625   1.905  0.1279  0.4971 -0.0799
  311SOL     OW 1241   1.939   0.655   1.919  0.3096  0.1599 -0.4873
  311SOL    HW1 1242   1.882   0.677   1.992  4.3582 -0.4894  0.4335
  311SOL    HW2 1243   1.992   0.580   1.957 -2.4417 -1.6033  2.9422
  311SOL     MW 1244   1.938   0.648   1.934  0.4807 -0.1584  0.0867
  312SOL     OW 1245   1.801   2.458   0.169 -0.1789 -0.4083 -0.1802
  312SOL    HW1 1246   1.826   2.430   0.258  1.0248 -1.2772 -0.1473
  312SOL    HW2 1247   1.722   2.512   0.171  1.4985  0.8150  0.6635
  312SOL     MW 1248   1.794   2.462   0.181  0.2013 -0.3615 -0.0645
  313SOL     OW 1249   0.123   1.143   3.029  0.9632  0.7828  0.1124
  313SOL    HW1 1250   0.104   1.157   3.120  0.9858 -3.0676 -0.1514
  313SOL    HW2 1251   0.193   1.199   3.008 -2.8859  0.6678 -2.2108
  313SOL     MW 1252   0.130   1.152   3.039  0.4584  0.2596 -0.2290
  314SOL     OW 1253   2.173   2.964   3.032 -0.3391  0.3328  0.6398
  314SOL    HW1 1254   2.107   3.000   2.970  3.0535 -1.8668  3.6521
  314SOL    HW2 1255   2.201   3.035   3.085 -2.6649  0.0511 -0.5361
  314SOL     MW 1256   2.168   2.978   3.031 -0.1984  0.0054  0.8821
  315SOL     OW 1257   1.544   1.828   2.975 -0.2229  0.2515  0.1330
  315SOL    HW1 1258   1.516   1.873   3.060  3.2290 -2.2081 -0.9512
  315SOL    HW2 1259   1.567   1.911   2.922  0.6318 -0.8997  1.7860
  315SOL     MW 1260   1.544   1.845   2.979  0.3453 -0.2249  0.2080
  316SOL     OW 1261   1.246   0.562   2.716  0.1292  0.1374  0.0495
  316SOL    HW1 1262   1.343   0.555   2.733  0.0390 -1.4401  1.4712
  316SOL    HW2 1263   1.208   0.565   2.803  1.3894  0.2818  0.2958
  316SOL     MW 1264   1.254   0.561   2.729  0.2836 -0.0517  0.2695
  317SOL     OW 1265   0.701   1.563   2.632  0.2585  0.7731  0.1565
  317SOL    HW1 1266   0.762   1.493   2.653 -2.3870 -2.3986 -0.1133
  317SOL    HW2 1267   0.699   1.562   2.537 -1.0757 -2.1648  2.1924
  317SOL     MW 1268   0.709   1.554   2.622 -0.2665 -0.0330  0.3895
  318SOL     OW 1269   1.356   0.357   2.960  0.3509 -0.1123  0.0294
  318SOL    HW1 1270   1.266   0.392   2.956 -1.3631  2.1476 -1.0495
  318SOL    HW2 1271   1.415   0.411   2.908 -3.6121  0.8429  1.6342
  318SOL     MW 1272   1.352   0.369   2.953 -0.3982  0.3119  0.0988
  319SOL     OW 1273   0.860   0.352   2.933 -0.5085  0.3419 -0.0096
  319SOL    HW1 1274   0.829   0.318   2.849  3.4879 -0.7209 -3.0704
  319SOL    HW2 1275   0.779   0.388   2.984 -0.8559  0.3086  3.1649
  319SOL     MW 1276   0.845   0.352   2.929 -0.0270  0.1973  0.0054
  320SOL     OW 1277   1.076   1.384   1.999 -0.0963  0.5086 -0.3476
  320SOL    HW1 1278   1.141   1.312   2.010  0.3003  0.5466  0.9495
  320SOL    HW2 1279   1.129   1.446   1.948 -1.0596 -2.0673 -1.1081
  320SOL     MW 1280   1.092   1.382   1.994 -0.1711  0.1737 -0.2768
  321SOL     OW 1281   1.111   0.915   2.988  0.6570 -0.0425  0.3827
  321SOL    HW1 1282   1.040   0.863   2.939  2.5355 -0.7195  1.3879
  321SOL    HW2 1283   1.176   0.842   2.998 -0.0081 -1.4263 -0.1094
  321SOL     MW 1284   1.110   0.898   2.983  0.8171 -0.3144  0.4504
  322SOL     OW 1285   1.188   0.832   1.660  0.4396 -0.2596 -0.5582
  322SOL    HW1 1286   1.254   0.762   1.684 -1.7432 -0.1274  2.1888
  322SOL    HW2 1287   1.172   0.863   1.755  1.7342 -1.7235  2.2887
  322SOL     MW 1288   1.195   0.827   1.676  0.3224 -0.4353  0.1799
  323SOL     OW 1289   1.240   1.623   1.896  0.2956  0.3924 -0.0498
  323SOL    HW1 1290   1.265   1.606   1.804 -1.1204  0.8940 -0.9636
  323SOL    HW2 1291   1.197   1.707   1.899 -1.7931 -2.5800 -1.8720
  323SOL     MW 1292   1.237   1.632   1.884 -0.1668  0.0664 -0.4108
  324SOL     OW 1293   1.501   1.006   2.411  0.0056 -0.4071 -0.2428
  324SOL    HW1 1294   1.425   1.053   2.449 -0.1994  0.9321  3.3333
  324SOL    HW2 1295   1.566   1.057   2.455 -0.0216  0.7189  0.7646
  324SOL     MW 1296   1.500   1.019   2.422 -0.0251 -0.0818  0.3619
  325SOL     OW 1297   1.102   0.493   2.967  0.0962  0.3151  0.2617
  325SOL    HW1 1298   1.100   0.533   3.057  0.6407  1.0626  1.2907
  325SOL    HW2 1299   1.017   0.452   2.951  2.4361  0.1318  0.0502
  325SOL     MW 1300   1.091   0.493   2.977  0.4768  0.3895  0.3695
  326SOL     OW 1301   0.342   1.375   2.281 -0.3532 -0.1196 -0.1916
  326SOL    HW1 1302   0.441   1.352   2.273  2.9196 -1.4824 -1.2649
  326SOL    HW2 1303   0.341   1.467   2.254 -2.5654 -2.6679 -1.1169
  326SOL     MW 1304   0.354   1.384   2.276 -0.2133 -0.6356 -0.4553
  327SOL     OW 1305   1.926   0.782   2.458  0.2848  0.3566 -0.0772
  327SOL    HW1 1306   1.898   0.751   2.550  0.6578 -0.4195 -0.5664
  327SOL    HW2 1307   1.943   0.872   2.455  1.0716 -1.3504  0.0648
  327SOL     MW 1308   1.925   0.790   2.470  0.4378  0.0290 -0.1230
  328SOL     OW 1309   0.230   1.269   2.065  0.6419  0.2827 -0.4302
  328SOL    HW1 1310   0.160   1.207   2.089  0.5504 -1.6671 -1.4340
  328SOL    HW2 1311   0.260   1.310   2.150 -1.2824  3.4279  0.6167
  328SOL     MW 1312   0.224   1.266   2.079  0.3760  0.4404 -0.4245
  329SOL     OW 1313   0.065   0.172   1.355  0.4875  0.0826 -0.2338
  329SOL    HW1 1314   0.071   0.117   1.430  3.1221  1.0213 -2.2845
  329SOL    HW2 1315   0.159   0.184   1.340  0.8939 -1.4278  0.4545
  329SOL     MW 1316   0.078   0.166   1.363  0.8888  0.0072 -0.4135
  330SOL     OW 1317   0.392   3.079   2.037 -0.0540  0.2821  0.0667
  330SOL    HW1 1318   0.481   3.049   2.031 -0.9399  0.0044 -0.4426
  330SOL    HW2 1319   0.368   3.082   2.127  0.8323  3.4100 -2.3064
  330SOL     MW 1320   0.401   3.076   2.048 -0.0539  0.6582 -0.3136
  331SOL     OW 1321   0.772   1.236   2.452  0.1219  0.4229  0.4262
  331SOL    HW1 1322   0.727   1.282   2.381 -2.3984 -0.2788  2.0717
  331SOL    HW2 1323   0.774   1.302   2.524 -0.0630 -0.7318  2.0220
  331SOL     MW 1324   0.767   1.251   2.452 -0.2350  0.1780  0.8538
  332SOL     OW 1325   1.338   1.667   2.898 -0.0029  0.1143 -0.3343
  332SOL    HW1 1326   1.344   1.683   2.803 -2.6925 -1.4308 -0.7583
  332SOL    HW2 1327   1.414   1.718   2.930 -0.2773  1.3151  1.1121
  332SOL     MW 1328   1.348   1.676   2.889 -0.3940  0.0688 -0.1994
  333SOL     OW 1329   1.728   1.412   2.900 -0.1930 -0.2061  0.2290
  333SOL    HW1 1330   1.822   1.375   2.913  2.0585 -2.3768  1.2240
  333SOL    HW2 1331   1.674   1.376   2.975 -2.2583 -0.8022 -0.4832
  333SOL     MW 1332   1.733   1.402   2.911 -0.1685 -0.5712  0.2663
  334SOL     OW 1333   1.274   3.048   2.610 -0.3352 -0.5567  0.5709
  334SOL    HW1 1334   1.214   3.020   2.678  0.1617  1.5762 -0.5002
  334SOL    HW2 1335   1.333   3.120   2.650  1.2852  1.4707  1.3575
  334SOL     MW 1336   1.274   3.054   2.624 -0.0558 -0.0078  0.5333
  335SOL     OW 1337   1.312   0.733   2.988 -0.5582  0.0270 -0.2053
  335SOL    HW1 1338   1.348   0.738   3.082  2.2093  2.9547  2.6190
  335SOL    HW2 1339   1.373   0.774   2.917  0.0361  1.4901  0.3428
  335SOL     MW 1340   1.325   0.739   2.991 -0.1146  0.6063  0.2397
  336SOL     OW 1341   0.947   1.189   1.781 -0.0391  0.6475 -0.2924
  336SOL    HW1 1342   0.937   1.251   1.853 -1.1573 -2.7921 -2.4501
  336SOL    HW2 1343   0.952   1.101   1.819  1.8476 -0.5864 -2.7515
  336SOL     MW 1344   0.947   1.186   1.796  0.0623  0.0309 -0.9016
  337SOL     OW 1345   0.593   1.847   2.774 -0.1513  0.3662  0.4045
  337SOL    HW1 1346   0.536   1.825   2.700  0.6864  1.6113  1.9955
  337SOL    HW2 1347   0.676   1.793   2.772 -1.1104  1.3383  0.3142
  337SOL     MW 1348   0.596   1.837   2.764 -0.1673  0.6588  0.6025
  338SOL     OW 1349   1.072   0.738   2.565 -0.8997  0.4591 -0.2302
  338SOL    HW1 1350   1.028   0.656   2.531 -0.9643  2.4030 -0.6260
  338SOL    HW2 1351   1.143   0.704   2.610 -3.6388 -0.3350 -0.0317
  338SOL     MW 1352   1.076   0.723   2.566 -1.2696  0.6108 -0.2562
  339SOL     OW 1353   1.476   1.098   1.867 -0.3900  0.8493  0.2114
  339SOL    HW1 1354   1.433   1.077   1.784 -0.4585  1.2108 -0.4146
  339SOL    HW2 1355   1.413   1.078   1.936 -1.5565 -1.6902 -1.2864
  339SOL     MW 1356   1.462   1.093   1.865 -0.5530  0.5620 -0.0688
  340SOL     OW 1357   1.367   1.492   0.033 -0.4217 -0.0679  0.1297
  340SOL    HW1 1358   1.353   1.522  -0.059 -1.8930  1.4034  0.5842
  340SOL    HW2 1359   1.455   1.476   0.048 -1.0353  1.8517  2.2163
  340SOL     MW 1360   1.377   1.494   0.023 -0.6968  0.3795  0.4650
  341SOL     OW 1361   0.042   1.356   2.749 -0.5240  0.3716  0.1558
  341SOL    HW1 1362   0.122   1.307   2.747 -1.6226 -2.0546 -1.9156
  341SOL    HW2 1363   0.000   1.334   2.670 -2.3453  0.1381  3.2906
  341SOL     MW 1364   0.047   1.347   2.738 -0.9093  0.0207  0.2961
  342SOL     OW 1365   1.377   0.350   0.116 -0.0051 -0.5314 -0.4546
  342SOL    HW1 1366   1.448   0.398   0.169  2.0100  1.8355  0.4526
  342SOL    HW2 1367   1.383   0.357   0.021 -1.1260 -2.1424 -1.0579
  342SOL     MW 1368   1.387   0.357   0.110  0.1129 -0.4317 -0.4145
  343SOL     OW 1369   0.303   0.299   2.219 -0.0961 -0.2959 -0.1777
  343SOL    HW1 1370   0.363   0.235   2.244 -1.6318  1.8099  1.9509
  343SOL    HW2 1371   0.238   0.245   2.168  0.9313  0.2948 -2.5217
  343SOL     MW 1372   0.302   0.283   2.215 -0.1632  0.0599 -0.2061
  344SOL     OW 1373   1.700   2.036   0.181  0.6932 -0.4721 -0.2367
  344SOL    HW1 1374   1.734   2.095   0.113  2.6391 -0.9470 -0.2648
  344SOL    HW2 1375   1.602   2.063   0.174  1.1993  0.3548  0.5520
  344SOL     MW 1376   1.691   2.047   0.171  1.0167 -0.4256 -0.1363
  345SOL     OW 1377   0.681   1.569   2.372  0.1401 -0.1698  0.0652
  345SOL    HW1 1378   0.590   1.613   2.363 -2.1859 -0.3800  0.8967
  345SOL    HW2 1379   0.731   1.574   2.292 -2.1237  3.0799  0.2598
  345SOL     MW 1380   0.675   1.575   2.360 -0.4654  0.2312  0.2006
  346SOL     OW 1381   1.724   1.126  -0.001  0.0752 -0.1691 -0.8194
  346SOL    HW1 1382   1.819   1.115  -0.001 -2.2627  0.1530 -0.5532
  346SOL    HW2 1383   1.699   1.058   0.068 -1.6001 -1.0474 -0.0304
  346SOL     MW 1384   1.733   1.116   0.008 -0.4543 -0.2425 -0.6802
  347SOL     OW 1385   1.146   0.749   2.274 -0.0282  0.1952 -0.5231
  347SOL    HW1 1386   1.211   0.681   2.292  0.1013 -1.6687  0.1502
  347SOL    HW2 1387   1.114   0.779   2.357 -2.2683  0.8792  1.7065
  347SOL     MW 1388   1.150   0.744   2.287 -0.3067  0.0396 -0.1401
  348SOL     OW 1389   1.347   2.549   1.915  0.4747  0.1111  0.0675
  348SOL    HW1 1390   1.352   2.472   1.973  0.7488 -2.5814 -0.1571
  348SOL    HW2 1391   1.353   2.626   1.976 -0.7115 -0.2601 -0.1970
  348SOL     MW 1392   1.348   2.549   1.930  0.3544 -0.2931  0.0030
  349SOL     OW 1393   1.402   0.149   2.734  0.2582  0.4321  0.7207
  349SOL    HW1 1394   1.349   0.204   2.793  0.5247 -2.2643  1.4733
  349SOL    HW2 1395   1.471   0.099   2.785 -0.4385  0.3434  0.4031
  349SOL     MW 1396   1.404   0.149   2.748  0.2015  0.0647  0.7781
  350SOL     OW 1397   1.814   0.659   2.679  0.6345 -0.2141 -0.0417
  350SOL    HW1 1398   1.766   0.594   2.614  0.8690 -0.1540  2.1081
  350SOL    HW2 1399   1.876   0.602   2.720 -3.3794 -1.3127  0.9678
  350SOL     MW 1400   1.815   0.643   2.676  0.1359 -0.3511  0.3752
  351SOL     OW 1401   0.074   1.195   1.641 -0.0248 -0.3231 -0.0335
  351SOL    HW1 1402   0.003   1.190   1.704 -0.3918  0.6508  1.4175
  351SOL    HW2 1403   0.146   1.250   1.687 -0.5234 -1.7918 -0.1882
  351SOL     MW 1404   0.074   1.202   1.656 -0.1390 -0.3884  0.1375
  352SOL     OW 1405   0.843   1.744   2.799  0.0797  0.5616  0.1769
  352SOL    HW1 1406   0.821   1.682   2.877  0.2880 -0.4859 -2.2051
  352SOL    HW2 1407   0.815   1.694   2.718  0.0105  0.7699 -2.3884
  352SOL     MW 1408   0.837   1.729   2.798  0.0981  0.4509 -0.4758
  353SOL     OW 1409   0.035   2.547   2.757  0.0509 -0.0010 -0.6553
  353SOL    HW1 1410   0.122   2.530   2.717 -0.6184  0.0111  0.9370
  353SOL    HW2 1411   0.039   2.642   2.758  0.8494  0.1113 -2.2486
  353SOL     MW 1412   0.047   2.557   2.752  0.0680  0.0154 -0.6555
  354SOL     OW 1413   0.309   2.453   0.827  0.1505  0.2427  0.8664
  354SOL    HW1 1414   0.327   2.441   0.919 -0.2938  2.5507 -1.7138
  354SOL    HW2 1415   0.243   2.393   0.800 -0.7440  1.2806  0.3447
  354SOL     MW 1416   0.303   2.443   0.835 -0.0261  0.6842  0.4571
  355SOL     OW 1417   3.081   2.233   0.339 -0.5295 -0.3350 -0.7549
  355SOL    HW1 1418   2.984   2.209   0.337  0.6007 -1.2702 -1.2746
  355SOL    HW2 1419   3.084   2.266   0.432  0.9154 -2.5345  1.5236
  355SOL     MW 1420   3.069   2.234   0.351 -0.1898 -0.7486 -0.5228
  356SOL     OW 1421   0.814   2.757   0.931 -0.2314  0.4911  0.1452
  356SOL    HW1 1422   0.846   2.811   0.858  0.2825 -0.2937 -2.1081
  356SOL    HW2 1423   0.717   2.782   0.935  0.3913  2.0667 -1.2287
  356SOL     MW 1424   0.805   2.768   0.922 -0.0814  0.5954 -0.3334
  357SOL     OW 1425   1.787   2.824   0.472 -0.3874 -0.1371  0.5753
  357SOL    HW1 1426   1.757   2.768   0.545  1.8009 -2.0285  1.3559
  357SOL    HW2 1427   1.864   2.780   0.443  1.6258 -0.2699  1.6898
  357SOL     MW 1428   1.793   2.811   0.478  0.1669 -0.4041  0.8253
  358SOL     OW 1429   0.470   0.154   1.013 -0.8314  0.1455  0.3540
  358SOL    HW1 1430   0.561   0.135   0.981  1.0303 -0.1784 -1.0982
  358SOL    HW2 1431   0.428   0.181   0.930 -0.2562  0.2102 -0.0939
  358SOL     MW 1432   0.476   0.155   0.998 -0.5099  0.1113  0.1033
  359SOL     OW 1433   0.797   2.908   1.874 -0.4669  0.6326 -0.3908
  359SOL    HW1 1434   0.784   2.815   1.898 -2.0233  0.5057 -0.7637
  359SOL    HW2 1435   0.842   2.901   1.791 -0.6407  3.4029 -1.5840
  359SOL     MW 1436   0.801   2.895   1.866 -0.6952  0.9814 -0.5974
  360SOL     OW 1437   0.550   2.783   0.875  0.1411 -0.6709  0.1058
  360SOL    HW1 1438   0.576   2.757   0.786 -0.3996 -1.2252  0.7555
  360SOL    HW2 1439   0.532   2.698   0.927 -3.2294 -1.0722 -0.1605
  360SOL     MW 1440   0.551   2.768   0.870 -0.3750 -0.7970  0.1564
  361SOL     OW 1441   0.217   2.612   1.383 -0.2196 -0.1535  0.9053
  361SOL    HW1 1442   0.207   2.698   1.422 -0.4036  1.1153 -0.9286
  361SOL    HW2 1443   0.310   2.609   1.363 -3.4952 -0.5514  0.6363
  361SOL     MW 1444   0.228   2.623   1.385 -0.6761 -0.0386  0.6279
  362SOL     OW 1445   1.434   2.372   0.612 -0.3658  0.5145 -0.3787
  362SOL    HW1 1446   1.454   2.311   0.684  0.8276  2.4632 -2.1482
  362SOL    HW2 1447   1.488   2.452   0.636 -1.0300  0.0081 -1.4169
  362SOL     MW 1448   1.444   2.374   0.624 -0.2960  0.7048 -0.7491
  363SOL     OW 1449   0.307   3.078   0.669 -0.0754  0.5795 -0.3807
  363SOL    HW1 1450   0.304   3.021   0.743 -0.5555 -0.2492 -1.1713
  363SOL    HW2 1451   0.225   3.066   0.621  0.9546  0.0590 -0.7598
  363SOL     MW 1452   0.296   3.069   0.673 -0.0028  0.4015 -0.5350
  364SOL     OW 1453   0.753   0.245   0.179  0.8820  0.1988 -0.4172
  364SOL    HW1 1454   0.688   0.173   0.196  0.1748 -1.7371  0.8743
  364SOL    HW2 1455   0.710   0.317   0.127  1.0788 -0.0016 -0.4573
  364SOL     MW 1456   0.739   0.245   0.174  0.8147 -0.0831 -0.2521
  365SOL     OW 1457   0.965   2.029   1.121  0.1608  0.0659 -0.5907
  365SOL    HW1 1458   0.933   2.118   1.115  1.8839 -2.4561 -1.6723
  365SOL    HW2 1459   0.913   1.974   1.062  1.3961  1.2871  2.0729
  365SOL     MW 1460   0.954   2.033   1.113  0.5511 -0.1057 -0.3820
  366SOL     OW 1461   2.935   2.643   0.937  0.4231  0.2976  0.1808
  366SOL    HW1 1462   3.014   2.613   0.982 -0.7587  1.5303  0.5099
  366SOL    HW2 1463   2.973   2.676   0.849  1.6524  0.5040  0.6886
  366SOL     MW 1464   2.950   2.644   0.931  0.4294  0.4875  0.2912
  367SOL     OW 1465   1.232   2.951   0.885 -0.0214  0.6827  0.4242
  367SOL    HW1 1466   1.257   3.007   0.812 -0.5944 -2.1865  1.3555
  367SOL    HW2 1467   1.224   2.862   0.852 -1.5584 -1.1656  2.8488
  367SOL     MW 1468   1.234   2.946   0.871 -0.2998  0.0602  0.8670
  368SOL     OW 1469   1.706   0.371   0.731  0.7573  0.5809 -0.2085
  368SOL    HW1 1470   1.775   0.336   0.679 -0.3284  3.4226  1.3554
  368SOL    HW2 1471   1.711   0.466   0.731  0.4996 -0.4190  1.4078
  368SOL     MW 1472   1.716   0.379   0.724  0.5800  0.8239  0.2111
  369SOL     OW 1473   0.115   2.417   1.768  0.2713 -0.1928  0.3207
  369SOL    HW1 1474   0.211   2.420   1.767 -1.6477 -0.8988 -0.1641
  369SOL    HW2 1475   0.099   2.511   1.759 -0.5365 -0.9458  2.9298
  369SOL     MW 1476   0.126   2.430   1.767 -0.0885 -0.3853  0.6010
  370SOL     OW 1477   0.741   0.147   0.951  0.3468 -0.2225  0.4212
  370SOL    HW1 1478   0.758   0.242   0.950 -2.9383  2.0913 -0.3839
  370SOL    HW2 1479   0.815   0.098   0.989 -0.8266  2.2939 -2.3274
  370SOL     MW 1480   0.753   0.153   0.956 -0.2415  0.4148 -0.0477
  371SOL     OW 1481   1.286   2.846   1.509 -1.0967 -0.5208  0.4040
  371SOL    HW1 1482   1.258   2.769   1.456  1.7723 -1.0190 -2.2882
  371SOL    HW2 1483   1.322   2.917   1.449 -0.7534  0.6634  0.4510
  371SOL     MW 1484   1.287   2.845   1.494 -0.6729 -0.4303  0.0550
  372SOL     OW 1485   0.809   2.298   0.489  0.0414  0.0908 -0.0813
  372SOL    HW1 1486   0.772   2.209   0.497  0.2239  1.2787 -2.3129
  372SOL    HW2 1487   0.841   2.291   0.391 -0.3419  1.4984  1.2296
  372SOL     MW 1488   0.809   2.285   0.477  0.0149  0.4333 -0.2028
  373SOL     OW 1489   2.860   3.036   1.410  0.3853 -0.2811 -0.2246
  373SOL    HW1 1490   2.926   2.997   1.348  0.0498 -3.1414 -3.3530
  373SOL    HW2 1491   2.817   3.105   1.354  0.2958 -0.6412 -3.1592
  373SOL     MW 1492   2.863   3.040   1.394  0.3293 -0.7060 -1.0246
  374SOL     OW 1493   1.531   0.499   0.296  0.1730 -0.5541 -0.2924
  374SOL    HW1 1494   1.627   0.489   0.275  0.7254  1.5289 -0.6153
  374SOL    HW2 1495   1.523   0.452   0.382  1.2982 -1.0314  2.1923
  374SOL     MW 1496   1.542   0.491   0.305  0.3943 -0.3422 -0.0071
  375SOL     OW 1497   0.964   2.108   2.315 -0.3420  0.2769  0.3550
  375SOL    HW1 1498   1.035   2.105   2.372 -1.4112  4.6123 -0.2429
  375SOL    HW2 1499   0.929   2.021   2.283 -2.3781 -0.7162 -1.3064
  375SOL     MW 1500   0.969   2.096   2.318 -0.7517  0.7179  0.0569
  376SOL     OW 1501   0.698   2.487   0.075  0.0396 -0.2924  0.2692
  376SOL    HW1 1502   0.624   2.436   0.115  0.9216  0.2849 -0.3956
  376SOL    HW2 1503   0.720   2.423  -0.002 -0.7495 -1.4393 -3.2892
  376SOL     MW 1504   0.691   2.472   0.070  0.0519 -0.3676 -0.2880
  377SOL     OW 1505   1.261   2.091   0.892 -0.3406  0.4591  0.9458
  377SOL    HW1 1506   1.173   2.067   0.863  1.1137 -1.8677  0.9773
  377SOL    HW2 1507   1.276   2.027   0.968  1.5673 -0.8857  2.2161
  377SOL     MW 1508   1.251   2.079   0.898  0.1030 -0.0253  1.1176
  378SOL     OW 1509   0.918   2.865   1.614  0.2296  0.5081 -0.0735
  378SOL    HW1 1510   0.907   2.772   1.588 -1.7429 -1.1105  0.8929
  378SOL    HW2 1511   0.973   2.894   1.540  0.1587 -0.4631 -4.3835
  378SOL     MW 1512   0.924   2.857   1.600 -0.0400  0.1664 -0.5147
  379SOL     OW 1513   1.136   1.664   2.165 -0.1826 -0.1671  0.2228
  379SOL    HW1 1514   1.070   1.611   2.122 -0.7363 -1.0472  0.5664
  379SOL    HW2 1515   1.217   1.627   2.122 -0.3964  0.4487 -0.6013
  379SOL     MW 1516   1.138   1.652   2.154 -0.2839 -0.2020  0.1594
  380SOL     OW 1517   0.895   0.101   1.466  0.4945 -0.9483 -0.0314
  380SOL    HW1 1518   0.926   0.010   1.455 -0.9401  1.4232 -0.7358
  380SOL    HW2 1519   0.933   0.136   1.550 -1.7129  1.5294 -3.0069
  380SOL     MW 1520   0.904   0.093   1.475  0.0139 -0.3085 -0.5169
  381SOL     OW 1521   0.722   2.085   0.842  0.3931 -0.0223  0.3020
  381SOL    HW1 1522   0.812   2.057   0.824 -0.2865 -0.2861  0.2651
  381SOL    HW2 1523   0.732   2.136   0.922 -0.0339  2.6500  2.1518
  381SOL     MW 1524   0.735   2.088   0.850  0.2471  0.2955  0.5412
  382SOL     OW 1525   0.721   0.143   0.618  0.7583  0.2501 -0.0226
  382SOL    HW1 1526   0.703   0.165   0.708  0.5873 -2.2736 -1.2959
  382SOL    HW2 1527   0.718   0.048   0.607  0.1565  0.9964 -0.8847
  382SOL     MW 1528   0.718   0.133   0.628  0.6564  0.0156 -0.3043
  383SOL     OW 1529   0.560   0.046   0.276  0.1129 -0.2148  0.3811
  383SOL    HW1 1530   0.607  -0.029   0.239 -1.1320  1.0313 -1.6224
  383SOL    HW2 1531   0.490  -0.005   0.309 -2.8163  1.5452 -0.6590
  383SOL     MW 1532   0.557   0.030   0.275 -0.4378  0.1818 -0.0205
  384SOL     OW 1533   0.753   2.981   0.598  0.2284  0.0218  0.3275
  384SOL    HW1 1534   0.814   2.956   0.671  2.0689  0.3903  3.3458
  384SOL    HW2 1535   0.689   2.906   0.589  1.2781  3.0988  1.5738
  384SOL     MW 1536   0.752   2.968   0.607  0.6098  0.4764  0.8902
  385SOL     OW 1537   1.441   2.035   1.545  0.1533 -0.1587  0.4053
  385SOL    HW1 1538   1.504   2.091   1.592 -1.7365  0.5679 -2.7566
  385SOL    HW2 1539   1.416   1.974   1.621  1.1480  0.5725 -0.1802
  385SOL     MW 1540   1.446   2.034   1.561  0.0352  0.0336 -0.0891
  386SOL     OW 1541   1.308   0.350   0.840 -0.1770 -0.0052 -0.0472
  386SOL    HW1 1542   1.265   0.403   0.910 -0.3142  0.3693 -1.9149
  386SOL    HW2 1543   1.319   0.259   0.873 -0.2695 -1.4011 -1.1507
  386SOL     MW 1544   1.304   0.345   0.854 -0.2073 -0.1399 -0.4392
  387SOL     OW 1545   0.821   2.169   1.495 -0.3683 -0.4548 -0.4269
  387SOL    HW1 1546   0.890   2.232   1.478 -0.8947  1.0564  0.0720
  387SOL    HW2 1547   0.846   2.079   1.468  1.2055 -0.3156  0.8490
  387SOL     MW 1548   0.834   2.165   1.489 -0.2301 -0.2371 -0.1927
  388SOL     OW 1549   1.523   2.746   1.254  0.3795 -0.0729  0.1502
  388SOL    HW1 1550   1.452   2.809   1.234  2.3519 -0.8902 -1.5016
  388SOL    HW2 1551   1.484   2.664   1.216  0.0270 -4.2454  1.5410
  388SOL     MW 1552   1.508   2.743   1.246  0.5933 -0.7312  0.1157
  389SOL     OW 1553   0.552   0.161   3.044  0.4126 -0.2376 -0.0309
  389SOL    HW1 1554   0.620   0.093   3.041  2.8201  1.4631  1.7202
  389SOL    HW2 1555   0.553   0.191   2.948  1.8189 -2.8854  0.5033
  389SOL     MW 1556   0.561   0.156   3.031  0.9158 -0.3626  0.2706
  390SOL     OW 1557   1.318   0.030   0.711  0.4148  0.1608 -0.5379
  390SOL    HW1 1558   1.351   0.045   0.621 -0.3237 -0.4822  0.8861
  390SOL    HW2 1559   1.390   0.070   0.764 -0.3278  3.4097  1.0395
  390SOL     MW 1560   1.332   0.037   0.706  0.2194  0.5046 -0.1419
  391SOL     OW 1561   0.399   2.179   1.507  0.3849 -0.0057 -0.0083
  391SOL    HW1 1562   0.349   2.096   1.518  2.3191 -1.7280 -0.0090
  391SOL    HW2 1563   0.328   2.244   1.514 -2.9031 -1.1470 -1.9660
  391SOL     MW 1564   0.383   2.176   1.510  0.2063 -0.3835 -0.2667
  392SOL     OW 1565   2.086   2.227   0.312  0.1224 -0.2458 -0.1626
  392SOL    HW1 1566   2.175   2.224   0.343 -1.9150  2.2163 -1.8265
  392SOL    HW2 1567   2.034   2.223   0.395 -1.2969  0.3914 -0.0342
  392SOL     MW 1568   2.091   2.226   0.327 -0.3337  0.1631 -0.3652
  393SOL     OW 1569   0.304   2.913   2.812  0.6189  0.2197  0.2197
  393SOL    HW1 1570   0.376   2.916   2.748 -0.6838  0.5040  0.0131
  393SOL    HW2 1571   0.291   3.005   2.832 -1.5026  1.2284  0.5649
  393SOL     MW 1572   0.312   2.926   2.806  0.1671  0.3903  0.2380
  394SOL     OW 1573   0.957   1.693   1.524  0.9612 -0.0911  0.0288
  394SOL    HW1 1574   0.952   1.706   1.615  1.3570 -4.0845 -0.3752
  394SOL    HW2 1575   0.946   1.779   1.483 -1.2398 -2.7014  1.7202
  394SOL     MW 1576   0.955   1.706   1.530  0.7231 -0.9624  0.1986
  395SOL     OW 1577   0.969   2.976   2.542  0.2038  0.1198 -0.0032
  395SOL    HW1 1578   0.991   3.011   2.630  2.2592 -0.4377 -0.0472
  395SOL    HW2 1579   1.026   2.902   2.527 -1.0094  1.9611 -0.7808
  395SOL     MW 1580   0.980   2.971   2.552  0.3149  0.2891 -0.1116
  396SOL     OW 1581   0.701   1.833   2.430 -0.1099  0.7556  0.4090
  396SOL    HW1 1582   0.772   1.878   2.474  2.5531  0.5202  0.3406
  396SOL    HW2 1583   0.717   1.736   2.422 -1.1426 -0.3245 -1.7674
  396SOL     MW 1584   0.712   1.826   2.435  0.1052  0.5820  0.1128
  397SOL     OW 1585   1.025   2.320   1.438 -0.6081 -0.2391  0.2062
  397SOL    HW1 1586   1.046   2.324   1.342  0.6793 -1.0842 -2.2112
  397SOL    HW2 1587   1.108   2.289   1.482  1.6029  2.4196 -1.4366
  397SOL     MW 1588   1.038   2.316   1.431 -0.1465  0.0002 -0.3295
  398SOL     OW 1589   0.631   2.737   0.610 -0.0590 -0.1920 -0.0325
  398SOL    HW1 1590   0.542   2.705   0.591 -2.0068  0.8819 -1.5777
  398SOL    HW2 1591   0.690   2.664   0.638  1.7660 -0.3734 -0.0590
  398SOL     MW 1592   0.627   2.723   0.611 -0.0752 -0.0742 -0.2399
  399SOL     OW 1593   0.209   2.080   0.340  0.2542  0.1057  0.4234
  399SOL    HW1 1594   0.124   2.128   0.340  3.4185 -1.0372  1.2496
  399SOL    HW2 1595   0.244   2.111   0.254 -1.4057  2.0107 -1.1631
  399SOL     MW 1596   0.203   2.091   0.329  0.4527  0.2063  0.3231
  400SOL     OW 1597   0.562   1.984   0.076 -0.0350  0.4433  0.5316
  400SOL    HW1 1598   0.479   2.026   0.082 -1.7782  1.1680  3.5019
  400SOL    HW2 1599   0.562   1.916   0.143  3.0103  0.3556 -2.0964
  400SOL     MW 1600   0.551   1.981   0.086  0.1368  0.5273  0.5768
  401SOL     OW 1601   0.810   2.094   0.077 -0.0907 -0.0830 -0.1513
  401SOL    HW1 1602   0.884   2.039   0.101 -0.9113  0.2546  5.0859
  401SOL    HW2 1603   0.731   2.046   0.105  0.7848 -0.0170 -0.1833
  401SOL     MW 1604   0.809   2.080   0.084 -0.0835 -0.0297  0.5354
  402SOL     OW 1605   0.561   2.967   1.721  0.0511 -0.0919 -0.2239
  402SOL    HW1 1606   0.637   2.937   1.776 -2.0046  2.6579  0.7818
  402SOL    HW2 1607   0.588   3.048   1.678 -0.1941 -1.0403  0.3238
  402SOL     MW 1608   0.575   2.974   1.723 -0.2525  0.1458 -0.0190
  403SOL     OW 1609   0.097   0.451   0.378 -0.6432  0.8339 -0.7657
  403SOL    HW1 1610   0.184   0.468   0.408  1.3016  0.4367  0.1542
  403SOL    HW2 1611   0.114   0.448   0.284 -2.0282 -2.0704  0.8872
  403SOL     MW 1612   0.111   0.453   0.369 -0.5694  0.3983 -0.4262
  404SOL     OW 1613   0.961   2.905   0.751  0.0173 -0.0896 -0.2359
  404SOL    HW1 1614   1.025   2.839   0.723  1.1669 -2.3473 -0.1564
  404SOL    HW2 1615   0.994   2.996   0.751  0.4285 -0.0135 -0.2761
  404SOL     MW 1616   0.974   2.908   0.747  0.2232 -0.3775 -0.2307
  405SOL     OW 1617   0.512   2.452   1.530  0.2123  0.1488  0.0570
  405SOL    HW1 1618   0.494   2.525   1.467 -1.1482 -1.1430 -0.3634
  405SOL    HW2 1619   0.555   2.380   1.491 -3.8858  1.1180  1.5828
  405SOL     MW 1620   0.515   2.452   1.516 -0.5079  0.1062  0.2029
  406SOL     OW 1621   0.329   2.410   1.095  0.1849  0.0799 -0.1648
  406SOL    HW1 1622   0.232   2.395   1.103 -1.3911  0.4103  3.1129
  406SOL    HW2 1623   0.357   2.325   1.136  0.2953 -0.7841 -0.3605
  406SOL     MW 1624   0.320   2.396   1.102 -0.0085  0.0095  0.2419
  407SOL     OW 1625   0.079   2.684   1.153  0.0108 -0.3193 -0.1725
  407SOL    HW1 1626   0.138   2.675   1.231  1.2353 -0.6077  3.1875
  407SOL    HW2 1627   0.140   2.700   1.080 -1.3781  3.6000  2.0393
  407SOL     MW 1628   0.095   2.685   1.153 -0.0109  0.1597  0.5626
  408SOL     OW 1629   2.137   2.094   0.667  0.4130  0.3252  0.0772
  408SOL    HW1 1630   2.120   2.133   0.756  2.0882 -0.0359 -0.6992
  408SOL    HW2 1631   2.054   2.050   0.638  0.7461  2.0338  2.6810
  408SOL     MW 1632   2.124   2.094   0.675  0.6780  0.5030  0.3183
  409SOL     OW 1633   1.463   0.145   0.942  0.5560 -0.4649 -0.4350
  409SOL    HW1 1634   1.542   0.193   0.936  2.5443  0.2619 -0.1090
  409SOL    HW2 1635   1.488   0.071   0.998  1.7833  1.0771 -0.5993
  409SOL     MW 1636   1.477   0.141   0.948  0.9802 -0.1656 -0.4137
  410SOL     OW 1637   1.058   2.408   1.182 -0.2315  0.2503 -0.3685
  410SOL    HW1 1638   1.008   2.468   1.133 -2.6549  0.9680  2.9646
  410SOL    HW2 1639   1.128   2.368   1.123  2.0199  0.8758 -1.7749
  410SOL     MW 1640   1.061   2.411   1.168 -0.2542  0.4275 -0.1143
  411SOL     OW 1641   1.951   3.082   2.914  0.8128 -0.7132  0.1831
  411SOL    HW1 1642   1.905   3.049   2.837  0.4978 -0.5876  1.0084
  411SOL    HW2 1643   1.910   3.160   2.949  1.6963 -0.6777 -2.0012
  411SOL     MW 1644   1.940   3.088   2.908  0.8878 -0.6920  0.0038
  412SOL     OW 1645   1.041   2.226   0.623  0.7531  0.3483  0.0817
  412SOL    HW1 1646   1.083   2.295   0.666 -0.8495  0.6778 -0.4799
  412SOL    HW2 1647   0.963   2.266   0.589  0.7969 -0.5610  0.0371
  412SOL     MW 1648   1.036   2.241   0.624  0.5474  0.2718  0.0017
  413SOL     OW 1649   0.575   2.717   0.041  0.0677  0.5985  0.1054
  413SOL    HW1 1650   0.641   2.640   0.065 -0.7097 -6.6223  0.2684
  413SOL    HW2 1651   0.592   2.754  -0.043  0.9444  0.2644  2.4968
  413SOL     MW 1652   0.586   2.711   0.033  0.0808 -0.3983  0.4424
  414SOL     OW 1653   2.034   2.998   1.190 -0.3734  0.1047  0.5419
  414SOL    HW1 1654   2.065   3.095   1.178  0.1023 -0.5764 -1.4967
  414SOL    HW2 1655   1.995   2.977   1.105  2.2292  0.7572 -1.6112
  414SOL     MW 1656   2.033   3.008   1.177  0.0328  0.1009 -0.0112
  415SOL     OW 1657   1.735   2.797   1.081 -0.9622  0.0824  0.2498
  415SOL    HW1 1658   1.684   2.770   1.156 -0.3978  0.6723  1.0847
  415SOL    HW2 1659   1.827   2.798   1.101 -1.2750 -1.8340 -3.8784
  415SOL     MW 1660   1.741   2.793   1.094 -0.9290 -0.0926 -0.1847
  416SOL     OW 1661   0.557   1.887   1.402 -0.1133 -0.9797  0.5855
  416SOL    HW1 1662   0.460   1.870   1.413  1.6754 -3.3398  2.4079
  416SOL    HW2 1663   0.594   1.805   1.423 -1.5012  1.8057 -1.6486
  416SOL     MW 1664   0.549   1.874   1.406 -0.0604 -0.9236  0.5312
  417SOL     OW 1665   0.985   3.010   2.039  0.2127  0.5800 -0.0754
  417SOL    HW1 1666   0.928   3.023   2.110 -1.8147  1.4877 -1.1119
  417SOL    HW2 1667   0.913   2.981   1.976  1.8805  1.3732  1.7681
  417SOL     MW 1668   0.968   3.008   2.040  0.1652  0.8044  0.0311
  418SOL     OW 1669   0.710   2.936   0.152  0.7296  0.6358 -0.0425
  418SOL    HW1 1670   0.794   2.922   0.100  0.0291 -1.6954 -1.6628
  418SOL    HW2 1671   0.661   2.854   0.133 -0.4676  1.1292 -1.1008
  418SOL     MW 1672   0.715   2.923   0.142  0.4792  0.3933 -0.3959
  419SOL     OW 1673   0.511   2.662   1.360  0.0587  0.8695  0.5215
  419SOL    HW1 1674   0.523   2.748   1.399  0.9703 -0.2493  1.4083
  419SOL    HW2 1675   0.590   2.632   1.319  1.3390  3.7117 -0.0965
  419SOL     MW 1676   0.523   2.669   1.359  0.3479  1.0969  0.5570
  420SOL     OW 1677   0.795   2.231   1.064 -0.3772  0.9000 -0.3625
  420SOL    HW1 1678   0.732   2.236   1.138  0.0155  0.5011  0.0062
  420SOL    HW2 1679   0.797   2.319   1.016  0.2423 -0.9895  1.0546
  420SOL     MW 1680   0.787   2.243   1.068 -0.2437  0.5981 -0.1269
  421SOL     OW 1681   2.968   0.174   3.077 -0.4985 -0.1789  0.1343
  421SOL    HW1 1682   2.900   0.150   3.018 -0.1843  1.2448  2.9137
  421SOL    HW2 1683   3.024   0.097   3.091  1.9401  0.4148 -0.0763
  421SOL     MW 1684   2.967   0.161   3.071 -0.1353  0.0873  0.4732
  422SOL     OW 1685   0.806   2.460   0.953 -0.0663 -0.7802  0.5858
  422SOL    HW1 1686   0.810   2.553   0.957 -1.7878  0.2717  1.6444
  422SOL    HW2 1687   0.809   2.440   0.858 -0.4082 -0.1691 -0.0562
  422SOL     MW 1688   0.807   2.470   0.941 -0.3386 -0.5608  0.6408
  423SOL     OW 1689   1.504   0.061   0.470 -0.0655  0.5069  0.2510
  423SOL    HW1 1690   1.505   0.060   0.371  0.7966  1.5971 -1.5570
  423SOL    HW2 1691   1.520   0.158   0.493  1.5932  0.7342 -4.5516
  423SOL     MW 1692   1.506   0.074   0.460  0.2671  0.6807 -0.6212
  424SOL     OW 1693   0.657   2.295   1.301 -0.3519  0.0916  0.1197
  424SOL    HW1 1694   0.578   2.236   1.280 -1.1666 -0.2328 -0.2436
  424SOL    HW2 1695   0.703   2.242   1.366 -0.2866  0.5806 -0.4066
  424SOL     MW 1696   0.653   2.280   1.307 -0.4508  0.1133  0.0023
  425SOL     OW 1697   1.725   2.749   2.069 -0.2376  0.3172 -0.0364
  425SOL    HW1 1698   1.744   2.753   1.977  1.2460  0.1550  0.7800
  425SOL    HW2 1699   1.736   2.654   2.103 -1.0949 -3.1788  1.0381
  425SOL     MW 1700   1.729   2.737   2.061 -0.1550 -0.1654  0.2131
  426SOL     OW 1701   0.840   1.728   1.982  0.2049  0.2805 -0.0420
  426SOL    HW1 1702   0.773   1.756   1.923  1.2151 -0.5916  1.5484
  426SOL    HW2 1703   0.829   1.787   2.064 -2.5051  4.5628  1.6698
  426SOL     MW 1704   0.830   1.740   1.985 -0.0194  0.7305  0.3937
  427SOL     OW 1705   0.346   1.688   1.853 -0.2743  0.3825  0.1961
  427SOL    HW1 1706   0.400   1.638   1.800 -0.6601  0.6220 -1.4006
  427SOL    HW2 1707   0.307   1.622   1.912  1.0630 -0.3844 -2.7719
  427SOL     MW 1708   0.348   1.673   1.854 -0.1488  0.3129 -0.4062
  428SOL     OW 1709   0.579   2.584   1.064 -0.3242  0.2013  0.1489
  428SOL    HW1 1710   0.598   2.495   1.085 -1.8069 -1.3983  1.3659
  428SOL    HW2 1711   0.510   2.609   1.118  2.0532  1.3978 -3.6743
  428SOL     MW 1712   0.573   2.576   1.074 -0.2062  0.1481 -0.1950
  429SOL     OW 1713   1.217   2.808   1.144 -0.1584 -0.3187  0.3491
  429SOL    HW1 1714   1.123   2.805   1.156  0.1130 -1.9536  0.6001
  429SOL    HW2 1715   1.219   2.861   1.065 -1.1653 -1.8745 -0.9415
  429SOL     MW 1716   1.205   2.815   1.135 -0.2554 -0.7397  0.2119
  430SOL     OW 1717   1.150   2.722   0.688 -0.2819  0.0134 -0.2040
  430SOL    HW1 1718   1.189   2.639   0.714 -1.5526  1.7549 -0.8461
  430SOL    HW2 1719   1.087   2.678   0.622  0.4550  0.3628  2.2290
  430SOL     MW 1720   1.147   2.705   0.683 -0.3523  0.2892  0.0323
  431SOL     OW 1721   0.333   1.924   1.082 -0.3743  0.2890  0.5179
  431SOL    HW1 1722   0.387   1.844   1.081 -0.4016 -1.1542  4.0196
  431SOL    HW2 1723   0.312   1.953   0.993 -1.5481  1.0089  1.9230
  431SOL     MW 1724   0.337   1.917   1.070 -0.5328  0.1936  1.1653
  432SOL     OW 1725   0.048   0.017   1.106 -0.1267 -0.2234 -0.2067
  432SOL    HW1 1726   0.053   0.073   1.187  1.6824 -0.8582 -0.4915
  432SOL    HW2 1727  -0.011  -0.052   1.134 -0.4969 -0.7549  3.3602
  432SOL     MW 1728   0.041   0.015   1.121  0.0631 -0.3773  0.2263
  433SOL     OW 1729   0.650   2.867   1.483  0.3034 -0.1616 -0.1394
  433SOL    HW1 1730   0.611   2.906   1.566  0.4948  0.8940 -0.4084
  433SOL    HW2 1731   0.735   2.848   1.520 -2.0187  4.8002 -0.4282
  433SOL     MW 1732   0.656   2.870   1.499  0.0222  0.6323 -0.2130
  434SOL     OW 1733   1.533   2.809   1.586 -0.0227 -0.3352 -0.4633
  434SOL    HW1 1734   1.436   2.813   1.569  1.5783 -3.1229 -0.2510
  434SOL    HW2 1735   1.573   2.768   1.508  2.6400  2.8093 -1.1610
  434SOL     MW 1736   1.526   2.804   1.573  0.5398 -0.2881 -0.5273
  435SOL     OW 1737   2.740   1.766   0.206  0.3477 -0.1529  0.3538
  435SOL    HW1 1738   2.809   1.821   0.165  1.6255  2.2294 -0.7707
  435SOL    HW2 1739   2.660   1.789   0.151 -2.8759  2.1872  1.2229
  435SOL     MW 1740   2.738   1.776   0.193  0.0910  0.4701  0.3201
  436SOL     OW 1741   1.407   2.681   0.369  0.4417 -0.0929 -0.1067
  436SOL    HW1 1742   1.442   2.667   0.456  0.1848  2.3160  0.4580
  436SOL    HW2 1743   1.394   2.781   0.363  1.3207  1.8179  0.7511
  436SOL     MW 1744   1.410   2.693   0.380  0.5238  0.4770  0.0810
  437SOL     OW 1745   0.980   2.954   1.352  1.1546  0.0346 -0.5672
  437SOL    HW1 1746   1.032   2.986   1.278  1.1905 -1.5006 -0.5892
  437SOL    HW2 1747   0.958   2.869   1.313  1.4265  0.0024 -0.1991
  437SOL     MW 1748   0.984   2.947   1.337  1.1952 -0.1722 -0.5215
  438SOL     OW 1749   0.810   2.657   1.910  0.2497  0.0292 -0.2199
  438SOL    HW1 1750   0.858   2.614   1.980  0.6029  2.7178 -1.9277
  438SOL    HW2 1751   0.751   2.596   1.861 -1.0132  1.1356 -0.3928
  438SOL     MW 1752   0.808   2.643   1.913  0.1297  0.5299 -0.4681
  439SOL     OW 1753   1.158   2.097   0.408 -0.3721  0.4500 -0.2407
  439SOL    HW1 1754   1.110   2.139   0.479 -0.5280 -2.1146  1.8705
  439SOL    HW2 1755   1.159   2.160   0.336  2.1776 -0.4488  1.4546
  439SOL     MW 1756   1.151   2.111   0.408 -0.0563 -0.0070  0.2616
  440SOL     OW 1757   1.658   2.964   3.066  0.3728 -0.0120 -0.2684
  440SOL    HW1 1758   1.657   2.907   3.141  2.6107 -1.5088 -2.4112
  440SOL    HW2 1759   1.749   2.985   3.056 -1.1072 -0.3846 -0.6638
  440SOL     MW 1760   1.670   2.959   3.074  0.4728 -0.2587 -0.6033
  441SOL     OW 1761   0.362   2.668   0.520 -0.2447  0.2567 -0.2365
  441SOL    HW1 1762   0.339   2.631   0.429 -0.3117 -1.0082 -1.3723
  441SOL    HW2 1763   0.364   2.759   0.506 -0.2349 -0.6448  2.0605
  441SOL     MW 1764   0.359   2.675   0.506 -0.2522 -0.0292 -0.0833
  442SOL     OW 1765   3.077   2.349   0.580 -0.2432  0.2165  0.3729
  442SOL    HW1 1766   3.097   2.439   0.576  0.6171  0.7848 -2.1602
  442SOL    HW2 1767   2.982   2.339   0.606  0.8433  1.6941  1.8441
  442SOL     MW 1768   3.067   2.360   0.583  0.0137  0.4864  0.2328
  443SOL     OW 1769   1.519   1.741   1.973  0.3066  0.1797 -0.7948
  443SOL    HW1 1770   1.456   1.675   1.973  1.2404  0.8865 -0.2631
  443SOL    HW2 1771   1.528   1.746   2.070 -0.2277 -4.3641 -0.4315
  443SOL     MW 1772   1.512   1.733   1.986  0.3593 -0.3266 -0.6767
  444SOL     OW 1773   0.912   2.601   1.583  0.9123  0.0606 -0.1774
  444SOL    HW1 1774   0.996   2.568   1.620  2.2318  1.8347 -1.5151
  444SOL    HW2 1775   0.853   2.573   1.652 -1.5548 -0.3396  0.1576
  444SOL     MW 1776   0.915   2.593   1.597  0.7609  0.2419 -0.3097
  445SOL     OW 1777   1.179   0.150   1.393  0.4789  0.4710  0.6303
  445SOL    HW1 1778   1.088   0.140   1.422  0.5039  0.2808 -3.9061
  445SOL    HW2 1779   1.183   0.197   1.309 -1.0861  1.1911 -0.8256
  445SOL     MW 1780   1.168   0.155   1.386  0.2757  0.5409 -0.1604
  446SOL     OW 1781   2.790   2.863   1.038 -0.0705  0.1218 -0.0394
  446SOL    HW1 1782   2.722   2.901   0.973 -1.5955  0.3453 -1.7563
  446SOL    HW2 1783   2.834   2.782   1.003  1.2716  0.2402  1.7518
  446SOL     MW 1784   2.787   2.857   1.025 -0.0946  0.1669 -0.0296
  447SOL     OW 1785   0.023   1.987   1.636  0.3560 -0.0316  0.3146
  447SOL    HW1 1786   0.065   1.908   1.678  1.2893 -4.6871 -0.1836
  447SOL    HW2 1787  -0.043   1.953   1.569 -2.7618 -0.2709 -0.7844
  447SOL     MW 1788   0.019   1.972   1.633  0.0677 -0.6775  0.1038
  448SOL     OW 1789   1.769   2.417   1.691  0.2056  0.4501 -0.0049
  448SOL    HW1 1790   1.733   2.333   1.669 -0.6834 -1.1711  0.0200
  448SOL    HW2 1791   1.691   2.476   1.692 -0.8432 -1.4196 -0.9641
  448SOL     MW 1792   1.754   2.414   1.688 -0.0501 -0.0105 -0.1282
  449SOL     OW 1793   0.905   2.881   0.372  0.3048  0.3993  0.6786
  449SOL    HW1 1794   0.842   2.893   0.298  3.0609  1.8406  0.4999
  449SOL    HW2 1795   0.869   2.921   0.454 -1.3302 -2.6860 -1.5568
  449SOL     MW 1796   0.892   2.888   0.373  0.4527  0.1824  0.3601
  450SOL     OW 1797   1.207   2.458   0.735 -0.2705 -0.4072  0.0660
  450SOL    HW1 1798   1.228   2.436   0.825  0.1414  1.9316  0.4994
  450SOL    HW2 1799   1.288   2.438   0.687  1.8891 -0.0385 -1.0649
  450SOL     MW 1800   1.221   2.453   0.741  0.0688 -0.0499 -0.0260
  451SOL     OW 1801   0.605   2.024   1.678  0.5049 -0.2892  0.2066
  451SOL    HW1 1802   0.668   2.094   1.700  0.8865  0.2602  1.7088
  451SOL    HW2 1803   0.573   2.044   1.592 -0.5297 -0.4270  1.0043
  451SOL     MW 1804   0.609   2.036   1.669  0.4187 -0.2349  0.5101
  452SOL     OW 1805   0.317   2.634   0.051  0.1949 -0.1690  0.0181
  452SOL    HW1 1806   0.406   2.666   0.057 -1.7305 -4.4924  1.1199
  452SOL    HW2 1807   0.256   2.710   0.031  0.1835  1.8606  1.2985
  452SOL     MW 1808   0.321   2.648   0.049 -0.0606 -0.4717  0.3324
  453SOL     OW 1809   0.328   3.055   1.616 -0.0223 -0.0239  0.7432
  453SOL    HW1 1810   0.390   2.995   1.656  2.3726  1.3191 -0.1273
  453SOL    HW2 1811   0.376   3.082   1.536  2.7721  2.0165 -0.6534
  453SOL     MW 1812   0.342   3.051   1.610  0.6624  0.4225  0.4441
  454SOL     OW 1813   0.956   2.725   1.179 -0.3988  0.0608  0.8270
  454SOL    HW1 1814   0.904   2.654   1.206  1.8748 -1.3608  0.8376
  454SOL    HW2 1815   0.915   2.761   1.098 -0.6603 -0.4514 -2.4145
  454SOL     MW 1816   0.944   2.720   1.172 -0.1333 -0.1943  0.4007
  455SOL     OW 1817   1.638   2.869   0.239  0.2576  0.5453  0.4508
  455SOL    HW1 1818   1.696   2.863   0.311 -0.7268  0.0507 -2.0971
  455SOL    HW2 1819   1.629   2.780   0.208  2.3090  0.8711  2.4432
  455SOL     MW 1820   1.645   2.857   0.245  0.3984  0.5230  0.3775
  456SOL     OW 1821   2.716   0.305   1.530 -0.4994 -0.0482  0.0265
  456SOL    HW1 1822   2.700   0.234   1.463 -1.5278 -0.8258  1.6884
  456SOL    HW2 1823   2.808   0.342   1.511  0.1771 -0.6406 -3.2027
  456SOL     MW 1824   2.726   0.300   1.519 -0.5458 -0.2289 -0.1803
  457SOL     OW 1825   0.808   1.580   3.020 -0.4206 -0.1294  0.0834
  457SOL    HW1 1826   0.722   1.529   3.023  0.0542 -0.7107  3.3267
  457SOL    HW2 1827   0.802   1.646   3.088 -0.5998  2.4590 -0.5513
  457SOL     MW 1828   0.796   1.582   3.029 -0.3816  0.1354  0.4276
  458SOL     OW 1829   1.361   1.460   0.652 -0.4269  0.3071  0.8510
  458SOL    HW1 1830   1.319   1.532   0.601 -1.5411 -0.6179 -0.3922
  458SOL    HW2 1831   1.328   1.378   0.611 -2.4582  0.7963  1.4088
  458SOL     MW 1832   1.351   1.459   0.640 -0.8419  0.2496  0.7606
  459SOL     OW 1833   1.545   0.020   0.208 -0.1150  0.1068 -0.1062
  459SOL    HW1 1834   1.574  -0.073   0.206  0.7376 -1.2577  0.9472
  459SOL    HW2 1835   1.491   0.034   0.127  1.9328 -2.1218 -1.6543
  459SOL     MW 1836   1.542   0.009   0.197  0.2677 -0.3673 -0.1715
  460SOL     OW 1837   1.775   2.146   0.637  0.7435  0.2616 -0.1469
  460SOL    HW1 1838   1.686   2.148   0.672  0.7083  1.1843  1.8171
  460SOL    HW2 1839   1.791   2.052   0.629  0.4671  0.6455  1.2307
  460SOL     MW 1840   1.765   2.134   0.641  0.7024  0.4340  0.2940
  461SOL     OW 1841   0.458   2.402   0.601  0.4688  0.5936  0.6297
  461SOL    HW1 1842   0.435   2.493   0.571 -0.2937  0.0807  1.8874
  461SOL    HW2 1843   0.447   2.400   0.697 -2.5553  2.3372 -1.3231
  461SOL     MW 1844   0.454   2.414   0.610 -0.0308  0.7560  0.5380
  462SOL     OW 1845   0.320   0.249   1.231 -0.2684 -0.0703  0.2655
  462SOL    HW1 1846   0.364   0.215   1.148  0.7694 -0.6924  1.6724
  462SOL    HW2 1847   0.391   0.251   1.304 -0.9586  0.2587  0.3588
  462SOL     MW 1848   0.335   0.244   1.230 -0.2226 -0.1090  0.4634
  463SOL     OW 1849   1.002   0.080   0.675 -0.3699 -0.1571  0.4165
  463SOL    HW1 1850   1.064   0.055   0.605  1.1842  0.2403 -0.1049
  463SOL    HW2 1851   0.917   0.092   0.640  3.7447  0.0320  0.3600
  463SOL     MW 1852   0.999   0.078   0.661  0.3780 -0.0797  0.3403
  464SOL     OW 1853   0.781   3.022   2.232  0.3643  0.0058  0.5189
  464SOL    HW1 1854   0.748   2.940   2.268 -0.5854  1.0202  2.7521
  464SOL    HW2 1855   0.783   3.083   2.306  1.0481  1.8286  0.1522
  464SOL     MW 1856   0.777   3.019   2.246  0.3292  0.3801  0.7651
  465SOL     OW 1857   0.879   0.266   0.425 -0.1724  0.1628 -0.1176
  465SOL    HW1 1858   0.811   0.231   0.485 -0.3361  0.9115 -1.3388
  465SOL    HW2 1859   0.826   0.281   0.344 -3.7950 -0.4408 -1.6703
  465SOL     MW 1860   0.863   0.264   0.423 -0.6719  0.1819 -0.4836
  466SOL     OW 1861   1.000   2.028   0.803  0.7662  0.3022 -0.2020
  466SOL    HW1 1862   1.011   1.948   0.757  0.1685 -0.2870  0.2593
  466SOL    HW2 1863   1.008   2.086   0.724 -1.4482  0.7027 -0.8169
  466SOL     MW 1864   1.003   2.025   0.786  0.3951  0.2773 -0.2222
  467SOL     OW 1865   1.263   2.340   1.005 -0.3521 -0.2054  0.5199
  467SOL    HW1 1866   1.358   2.349   1.005 -0.3269 -0.3652  0.9851
  467SOL    HW2 1867   1.256   2.242   0.981 -0.0519 -0.7594 -0.3613
  467SOL     MW 1868   1.274   2.329   1.002 -0.3092 -0.2996  0.4650
  468SOL     OW 1869   0.491   2.660   1.921  0.2124 -0.1641 -0.0923
  468SOL    HW1 1870   0.474   2.581   1.872  0.4910  0.2645 -0.4955
  468SOL    HW2 1871   0.472   2.734   1.860 -1.2881  0.2205 -0.3188
  468SOL     MW 1872   0.486   2.659   1.906  0.0512 -0.0568 -0.1754
  469SOL     OW 1873   0.382   2.120   1.837 -0.1060 -0.0060  0.4632
  469SOL    HW1 1874   0.319   2.069   1.890 -1.8605 -1.0361 -0.9830
  469SOL    HW2 1875   0.441   2.055   1.789 -0.4101 -2.2550 -1.6026
  469SOL     MW 1876   0.382   2.104   1.837 -0.3776 -0.4386 -0.0001
  470SOL     OW 1877   3.077   2.576   0.168  0.7047  0.2859  0.8140
  470SOL    HW1 1878   2.999   2.594   0.229  1.1519 -0.9295 -0.1265
  470SOL    HW2 1879   3.043   2.584   0.079  0.3107 -0.9773 -1.2391
  470SOL     MW 1880   3.062   2.579   0.164  0.7117 -0.0412  0.4190
  471SOL     OW 1881   1.192   2.611   1.403  0.4420 -0.7828 -0.0210
  471SOL    HW1 1882   1.132   2.560   1.453  1.4633  0.1648  0.3790
  471SOL    HW2 1883   1.174   2.581   1.315  3.4944  1.0832 -0.1382
  471SOL     MW 1884   1.182   2.600   1.398  0.9795 -0.4116  0.0163
  472SOL     OW 1885   2.788   2.098   0.367 -0.3319 -0.1721  0.0184
  472SOL    HW1 1886   2.795   2.067   0.274 -0.4572 -1.8818 -2.4553
  472SOL    HW2 1887   2.794   2.012   0.413  1.6737 -1.3072 -0.2666
  472SOL     MW 1888   2.790   2.082   0.361 -0.0838 -0.5474 -0.3456
  473SOL     OW 1889   0.782   2.554   1.323  0.2959 -0.1245 -0.0471
  473SOL    HW1 1890   0.738   2.471   1.319  2.0509 -0.8991  3.8288
  473SOL    HW2 1891   0.846   2.547   1.392  0.7678  0.9935 -1.6899
  473SOL     MW 1892   0.784   2.542   1.332  0.5897 -0.0792  0.2475
  474SOL     OW 1893   0.749   2.216   1.778 -0.5570  0.3802  0.2962
  474SOL    HW1 1894   0.833   2.250   1.819  0.2919  1.4999 -0.3443
  474SOL    HW2 1895   0.782   2.192   1.692 -1.3088 -1.5494 -1.7707
  474SOL     MW 1896   0.765   2.218   1.772 -0.5442  0.2734 -0.0610
  475SOL     OW 1897   1.628   3.034   1.451 -0.4472  0.8080 -0.7532
  475SOL    HW1 1898   1.544   3.063   1.418 -2.9873 -0.0575 -1.6143
  475SOL    HW2 1899   1.604   2.958   1.508  1.1734  1.7130  1.3545
  475SOL     MW 1900   1.614   3.028   1.454 -0.5685  0.8132 -0.5888
  476SOL     OW 1901   1.397   2.625   1.046  0.5407  0.5851 -0.0003
  476SOL    HW1 1902   1.322   2.679   1.074 -0.7572 -0.4248 -0.8079
  476SOL    HW2 1903   1.443   2.669   0.973  0.3683  1.5687 -3.4406
  476SOL     MW 1904   1.393   2.638   1.040  0.3467  0.5817 -0.5608
  477SOL     OW 1905   0.790   2.511   0.678 -0.7154  0.0520 -0.4483
  477SOL    HW1 1906   0.882   2.535   0.662 -2.0435  0.0118  0.3042
  477SOL    HW2 1907   0.759   2.452   0.606 -1.1613 -0.4233 -2.9740
  477SOL     MW 1908   0.798   2.506   0.667 -0.9494 -0.0160 -0.6823
  478SOL     OW 1909   0.178   2.687   0.898  0.3954 -0.2893 -0.6595
  478SOL    HW1 1910   0.229   2.774   0.897  0.5519 -1.7130 -3.0396
  478SOL    HW2 1911   0.219   2.609   0.855 -0.0650 -1.0408  2.3198
  478SOL     MW 1912   0.190   2.688   0.892  0.3553 -0.5763 -0.5804
  479SOL     OW 1913   1.469   2.012   1.274  0.0626 -0.1376  0.1263
  479SOL    HW1 1914   1.454   2.020   1.372 -0.7136 -1.7450  1.3942
  479SOL    HW2 1915   1.486   1.917   1.270  0.0348 -3.3324  1.2797
  479SOL     MW 1916   1.470   2.000   1.286 -0.0435 -0.7712  0.4458
  480SOL     OW 1917   1.932   2.457   1.256  0.2072 -0.1384  0.1073
  480SOL    HW1 1918   1.870   2.388   1.272  1.3879 -0.5186  0.0086
  480SOL    HW2 1919   1.953   2.451   1.163 -2.2550  0.8809  1.4025
  480SOL     MW 1920   1.926   2.447   1.246  0.0381 -0.0541  0.2652
  481SOL     OW 1921   1.053   0.006   1.091 -0.2119 -0.2216  0.4139
  481SOL    HW1 1922   1.085  -0.034   1.012  0.5513  0.8962 -0.0917
  481SOL    HW2 1923   1.106   0.086   1.098  0.2042  0.9891 -1.0776
  481SOL     MW 1924   1.064   0.011   1.081 -0.0563  0.0856  0.1504
  482SOL     OW 1925   1.077   3.057   0.250 -0.0332  0.4546 -0.3634
  482SOL    HW1 1926   1.016   2.996   0.297 -3.5157 -1.1252 -0.7984
  482SOL    HW2 1927   1.099   3.124   0.315 -2.7068  2.2030 -2.2195
  482SOL     MW 1928   1.072   3.058   0.265 -0.8454  0.4768 -0.6657
  483SOL     OW 1929   0.389   2.937   0.450  0.1742 -0.8675  0.2491
  483SOL    HW1 1930   0.322   2.948   0.383 -0.1947  0.3418  0.5323
  483SOL    HW2 1931   0.373   3.004   0.518 -0.3716  0.3823 -2.2664
  483SOL     MW 1932   0.378   2.947   0.451  0.0535 -0.5431 -0.0455
  484SOL     OW 1933   1.862   1.889   1.501  0.4181 -0.2985 -0.1914
  484SOL    HW1 1934   1.877   1.973   1.448  3.4967 -1.2373  0.5935
  484SOL    HW2 1935   1.851   1.930   1.588  0.6854  1.3124 -1.1112
  484SOL     MW 1936   1.863   1.906   1.505  0.8596 -0.2098 -0.2092
  485SOL     OW 1937   0.502   2.346   0.183  0.2075 -0.3660 -0.1543
  485SOL    HW1 1938   0.567   2.301   0.246  2.7079  1.5188  0.7882
  485SOL    HW2 1939   0.446   2.406   0.238  0.2774  0.3961  2.1891
  485SOL     MW 1940   0.503   2.348   0.199  0.5466 -0.0167  0.2792
  486SOL     OW 1941   0.181   2.363   1.500 -0.1146  0.0856 -0.2016
  486SOL    HW1 1942   0.193   2.454   1.478  0.5203 -0.8011  3.2025
  486SOL    HW2 1943   0.141   2.365   1.587 -3.4721 -0.1071 -0.8795
  486SOL     MW 1944   0.178   2.375   1.508 -0.4738 -0.0568  0.1581
  487SOL     OW 1945   1.210   1.679   1.047  0.1168  0.2774  0.5588
  487SOL    HW1 1946   1.195   1.762   1.100 -1.3105  0.2010 -1.7664
  487SOL    HW2 1947   1.287   1.695   0.991  0.0195  0.5414  1.7958
  487SOL     MW 1948   1.218   1.692   1.047 -0.0844  0.3022  0.4153
  488SOL     OW 1949   1.610   1.866   0.491  0.0048  0.4651  0.2298
  488SOL    HW1 1950   1.681   1.891   0.440 -1.0659  1.2009  0.2946
  488SOL    HW2 1951   1.544   1.936   0.467 -0.8167  1.9354  0.0389
  488SOL     MW 1952   1.611   1.879   0.481 -0.2449  0.7562  0.2131
  489SOL     OW 1953   0.755   0.780   0.562 -0.0935  0.0281 -0.3891
  489SOL    HW1 1954   0.789   0.693   0.541 -0.9578  0.7276 -1.0147
  489SOL    HW2 1955   0.717   0.775   0.655  1.7487 -0.7693  3.6077
  489SOL     MW 1956   0.754   0.768   0.572  0.0355  0.0152  0.0557
  490SOL     OW 1957   1.446   2.078   0.467 -0.4111  0.1459 -0.2913
  490SOL    HW1 1958   1.505   2.160   0.441  2.2719 -0.6527 -3.2819
  490SOL    HW2 1959   1.363   2.111   0.439 -1.1910  0.6492  1.5700
  490SOL     MW 1960   1.443   2.094   0.460 -0.1600  0.1069 -0.4403
  491SOL     OW 1961   1.322   2.975   0.358 -0.6491  0.3053  0.1980
  491SOL    HW1 1962   1.370   3.047   0.405  0.3650 -1.1690  1.4355
  491SOL    HW2 1963   1.250   3.010   0.309 -1.7815 -1.6940  1.3480
  491SOL     MW 1964   1.319   2.989   0.358 -0.6647 -0.1530  0.5131
  492SOL     OW 1965   1.488   2.150   0.738  0.0366 -0.1455 -0.0326
  492SOL    HW1 1966   1.454   2.101   0.661 -0.6940  1.7616  1.1688
  492SOL    HW2 1967   1.432   2.121   0.816  0.1228  1.5667  1.8179
  492SOL     MW 1968   1.477   2.139   0.738 -0.0484  0.3320  0.3701
  493SOL     OW 1969   0.186   3.019   0.283 -0.2285  0.3265  0.5363
  493SOL    HW1 1970   0.140   3.053   0.361  0.2689 -0.0355  1.4119
  493SOL    HW2 1971   0.191   3.091   0.212  0.0339 -0.8647 -1.2126
  493SOL     MW 1972   0.181   3.033   0.284 -0.1282  0.1216  0.4211
  494SOL     OW 1973   0.383   2.410   1.771 -0.2367  0.4184 -0.4261
  494SOL    HW1 1974   0.400   2.314   1.790  0.2519  2.2041  2.2639
  494SOL    HW2 1975   0.423   2.434   1.687 -1.1959  2.0807  2.1090
  494SOL     MW 1976   0.391   2.401   1.763 -0.2988  0.8733  0.2633
  495SOL     OW 1977   2.933   1.640   2.648 -0.5214  0.1993  0.1200
  495SOL    HW1 1978   2.905   1.717   2.594 -0.0754 -0.3239 -0.7137
  495SOL    HW2 1979   2.890   1.644   2.734  1.0009 -2.3210 -0.9378
  495SOL     MW 1980   2.923   1.651   2.652 -0.2617 -0.2023 -0.1296
  496SOL     OW 1981   2.929   2.361   2.664 -0.1900  0.3635 -0.3845
  496SOL    HW1 1982   2.980   2.308   2.722  3.0893  0.9205  2.2103
  496SOL    HW2 1983   2.989   2.437   2.660 -1.9342  1.4395  1.9751
  496SOL     MW 1984   2.943   2.364   2.671  0.0125  0.5790  0.2692
  497SOL     OW 1985   1.583   2.263   2.661  0.8192 -0.7187 -0.5162
  497SOL    HW1 1986   1.524   2.234   2.589 -1.3378 -1.9407  1.9939
  497SOL    HW2 1987   1.574   2.185   2.716  3.4365 -0.6037 -1.0037
  497SOL     MW 1988   1.574   2.249   2.659  0.8799 -0.8647 -0.2493
  498SOL     OW 1989   1.471   2.716   2.325 -0.5851 -0.0615  0.4549
  498SOL    HW1 1990   1.453   2.624   2.318 -0.3666 -2.5880 -2.6941
  498SOL    HW2 1991   1.550   2.726   2.384  0.9814  0.6905 -0.9209
  498SOL     MW 1992   1.479   2.705   2.332 -0.3496 -0.2956 -0.1421
  499SOL     OW 1993   0.969   0.143   0.052 -0.0355 -0.1155 -0.5228
  499SOL    HW1 1994   0.891   0.175   0.106  2.8521  1.1141 -3.6107
  499SOL    HW2 1995   1.009   0.084   0.113  3.4970  0.3190 -0.1995
  499SOL     MW 1996   0.964   0.139   0.067  0.8115  0.1041 -0.8876
  500SOL     OW 1997   1.086   2.557   2.830  0.0901 -0.3138  0.4658
  500SOL    HW1 1998   1.122   2.498   2.904 -0.6861  0.2043 -0.5851
  500SOL    HW2 1999   1.000   2.584   2.861 -1.5932 -0.0567  0.1423
  500SOL     MW 2000   1.079   2.553   2.844 -0.2344 -0.2115  0.2845
  501SOL     OW 2001   1.787   2.180   3.066  0.7576 -0.0430  0.3852
  501SOL    HW1 2002   1.782   2.263   3.099 -1.7385 -0.0268 -0.2140
  501SOL    HW2 2003   1.868   2.177   3.015 -1.4644  1.1654  0.4773
  501SOL     MW 2004   1.797   2.191   3.064  0.1351  0.1186  0.3183
  502SOL     OW 2005   0.144   2.812   3.041 -0.4862 -0.3040  0.3288
  502SOL    HW1 2006   0.082   2.739   3.023  0.6995 -0.7614  1.3630
  502SOL    HW2 2007   0.199   2.813   2.961  0.9996 -1.5830 -1.2868
  502SOL     MW 2008   0.143   2.802   3.028 -0.1337 -0.5331  0.2521
  503SOL     OW 2009   1.137   2.778   2.135 -0.1522 -0.0012 -0.0514
  503SOL    HW1 2010   1.071   2.706   2.123 -0.8408 -0.7001  1.5494
  503SOL    HW2 2011   1.093   2.852   2.092  0.0000  2.7234  3.1932
  503SOL     MW 2012   1.122   2.778   2.128 -0.2230  0.2661  0.5879
  504SOL     OW 2013   0.112   2.689   2.143 -0.0142 -0.0957  0.2426
  504SOL    HW1 2014   0.142   2.602   2.116  2.0759  1.9939  0.6410
  504SOL    HW2 2015   0.034   2.702   2.084 -0.2516  1.3426 -1.1712
  504SOL     MW 2016   0.105   2.679   2.132  0.2303  0.3698  0.1086
  505SOL     OW 2017   1.690   2.720   2.767 -0.3229  0.3607 -0.7264
  505SOL    HW1 2018   1.670   2.705   2.673 -3.5416 -1.0347 -2.3916
  505SOL    HW2 2019   1.613   2.748   2.818 -1.5067 -2.3940  0.4590
  505SOL     MW 2020   1.677   2.722   2.761 -0.9037 -0.1869 -0.7897
  506SOL     OW 2021   1.584   3.082   2.847 -0.3150  0.4037 -0.0696
  506SOL    HW1 2022   1.593   3.044   2.938  0.3244 -0.2145  0.4219
  506SOL    HW2 2023   1.651   3.036   2.795 -0.2232 -1.1828  2.1797
  506SOL     MW 2024   1.594   3.071   2.852 -0.2185  0.1128  0.2920
  507SOL     OW 2025   0.879   2.789   2.862  0.2994  0.0201  0.1104
  507SOL    HW1 2026   0.872   2.887   2.830 -0.9890  4.0511 -1.3810
  507SOL    HW2 2027   0.788   2.778   2.893  0.7423  3.4188 -0.1986
  507SOL     MW 2028   0.866   2.801   2.862  0.1878  1.0004 -0.1272
  508SOL     OW 2029   1.150   2.091   2.524 -0.0085 -0.5231 -0.1378
  508SOL    HW1 2030   1.234   2.074   2.569 -0.2638  1.3898 -1.5100
  508SOL    HW2 2031   1.118   2.170   2.576  0.2045  1.1358  1.8328
  508SOL     MW 2032   1.157   2.099   2.537 -0.0141 -0.0518 -0.0588
  509SOL     OW 2033   0.654   2.586   2.755 -1.0248 -0.3012  0.3635
  509SOL    HW1 2034   0.643   2.527   2.687  0.3561 -0.5084  0.0130
  509SOL    HW2 2035   0.570   2.589   2.803 -2.4643  2.2655 -1.0054
  509SOL     MW 2036   0.642   2.579   2.752 -1.0326  0.0101  0.1367
  510SOL     OW 2037   1.523   2.558   1.686  0.0578 -0.4468  0.0461
  510SOL    HW1 2038   1.530   2.650   1.679 -3.2710  1.3303  0.3370
  510SOL    HW2 2039   1.468   2.558   1.770  0.5067  0.1096  0.4432
  510SOL     MW 2040   1.517   2.570   1.696 -0.3221 -0.1389  0.1369
  511SOL     OW 2041   0.447   2.645   2.429  0.8906 -0.0026 -0.0340
  511SOL    HW1 2042   0.518   2.585   2.423  2.6429 -3.6815 -2.2988
  511SOL    HW2 2043   0.444   2.660   2.333  0.6004  0.8161 -2.3210
  511SOL     MW 2044   0.456   2.639   2.415  1.0835 -0.3800 -0.6345
  512SOL     OW 2045   1.057   2.006   2.816 -0.5221 -0.0848  0.1094
  512SOL    HW1 2046   0.964   2.028   2.840 -1.2417 -2.5310 -1.3529
  512SOL    HW2 2047   1.073   1.915   2.850  1.9967 -1.1291 -0.3347
  512SOL     MW 2048   1.047   1.997   2.824 -0.2847 -0.5454 -0.1422
  513SOL     OW 2049   1.550   2.447   2.275  0.4394  0.3655  0.1668
  513SOL    HW1 2050   1.624   2.475   2.222 -0.1859 -2.0187  1.3240
  513SOL    HW2 2051   1.594   2.465   2.357  4.9906  1.2515 -2.6306
  513SOL     MW 2052   1.566   2.453   2.279  0.9574  0.1678 -0.0496
  514SOL     OW 2053   0.274   2.521   2.641 -0.0814  0.6068  1.0228
  514SOL    HW1 2054   0.318   2.559   2.565 -1.0914  1.4603 -1.4907
  514SOL    HW2 2055   0.337   2.532   2.715  1.2129  0.6624  0.7918
  514SOL     MW 2056   0.288   2.528   2.641 -0.0439  0.7267  0.6607
  515SOL     OW 2057   1.141   2.126   1.831 -0.4348  0.4376 -1.1048
  515SOL    HW1 2058   1.097   2.205   1.852  0.2627  0.0141 -0.1023
  515SOL    HW2 2059   1.197   2.106   1.908  0.8299  1.0165 -0.6373
  515SOL     MW 2060   1.143   2.134   1.844 -0.1759  0.4581 -0.9108
  516SOL     OW 2061   1.485   2.444   3.044  0.6436 -0.1421 -1.1195
  516SOL    HW1 2062   1.523   2.427   2.960  1.4676 -1.6881 -2.2698
  516SOL    HW2 2063   1.390   2.436   3.020  1.2718 -0.0776 -2.0482
  516SOL     MW 2064   1.477   2.441   3.029  0.8352 -0.3376 -1.3938
  517SOL     OW 2065   0.594   2.480   2.144  0.0407 -0.1828  0.0574
  517SOL    HW1 2066   0.550   2.562   2.134  1.2066  0.3770  1.3819
  517SOL    HW2 2067   0.521   2.415   2.113  0.3289 -0.7851 -0.3423
  517SOL     MW 2068   0.579   2.482   2.139  0.2326 -0.1884  0.1794
  518SOL     OW 2069   1.860   0.213   3.033  0.5026 -0.0832 -0.2243
  518SOL    HW1 2070   1.806   0.243   2.958  0.7522 -0.1048 -0.5983
  518SOL    HW2 2071   1.807   0.219   3.116 -1.4662 -1.7428  0.1272
  518SOL     MW 2072   1.846   0.218   3.034  0.2758 -0.3050 -0.2273
  519SOL     OW 2073   0.684   2.499   1.724 -0.3618  1.6015  0.2246
  519SOL    HW1 2074   0.710   2.403   1.741 -2.9741  1.2477  0.6341
  519SOL    HW2 2075   0.648   2.494   1.639 -0.6504  3.8939  0.5682
  519SOL     MW 2076   0.683   2.486   1.715 -0.7446  1.8573  0.3239
  520SOL     OW 2077   1.284   2.124   2.913  0.3543  0.1866 -0.1122
  520SOL    HW1 2078   1.197   2.075   2.893 -0.2350 -1.7006 -1.3860
  520SOL    HW2 2079   1.324   2.070   2.979 -0.1698  2.1907  0.7380
  520SOL     MW 2080   1.278   2.110   2.919  0.2074  0.2020 -0.1681
  521SOL     OW 2081   1.701   2.048   2.276 -0.3591 -0.1988  0.4526
  521SOL    HW1 2082   1.716   2.106   2.197 -0.3795  0.2302 -0.9854
  521SOL    HW2 2083   1.734   1.959   2.253 -1.7875 -0.9642  1.3165
  521SOL     MW 2084   1.707   2.044   2.263 -0.5503 -0.2432  0.3769
  522SOL     OW 2085   2.853   2.557   2.164  0.3262  0.1245 -0.1386
  522SOL    HW1 2086   2.932   2.510   2.190  0.8120 -0.4627 -0.1796
  522SOL    HW2 2087   2.824   2.591   2.243  0.9391  2.0702  0.1955
  522SOL     MW 2088   2.860   2.555   2.178  0.4712  0.3038 -0.0999
  523SOL     OW 2089   0.866   1.508   2.160  0.2420  0.2472  0.1211
  523SOL    HW1 2090   0.836   1.578   2.104 -0.3150  0.6357  0.6012
  523SOL    HW2 2091   0.880   1.438   2.091 -1.1684 -0.5521 -1.6097
  523SOL     MW 2092   0.864   1.508   2.143 -0.0176  0.1930 -0.0439
  524SOL     OW 2093   0.771   2.376   2.925  1.2044  0.2944  0.3554
  524SOL    HW1 2094   0.719   2.435   2.868 -1.7866 -0.9684  1.4353
  524SOL    HW2 2095   0.786   2.291   2.879  1.3939 -1.3410 -0.5668
  524SOL     MW 2096   0.766   2.372   2.912  0.8348 -0.0880  0.3762
  525SOL     OW 2097   0.415   2.264   2.084 -0.1333 -0.1846  0.6497
  525SOL    HW1 2098   0.364   2.227   2.153 -0.9726  1.6147 -2.6993
  525SOL    HW2 2099   0.442   2.192   2.027  2.0255 -1.5540 -0.2239
  525SOL     MW 2100   0.412   2.250   2.086  0.0408 -0.1278  0.0926
  526SOL     OW 2101   0.664   2.082   2.040  0.2500 -0.8883 -0.2699
  526SOL    HW1 2102   0.664   2.109   1.947 -1.0252 -1.4350  1.1588
  526SOL    HW2 2103   0.687   2.161   2.090  0.7396  0.6896  3.1727
  526SOL     MW 2104   0.667   2.096   2.034  0.1463 -0.7523  0.3728
  527SOL     OW 2105   1.362   2.005   2.021 -0.3574 -0.2019 -0.4395
  527SOL    HW1 2106   1.368   1.973   2.113 -1.3971  1.3497  0.8817
  527SOL    HW2 2107   1.402   1.936   1.972 -0.8384 -1.7925  0.3524
  527SOL     MW 2108   1.368   1.991   2.027 -0.5581 -0.2071 -0.1607
  528SOL     OW 2109   0.638   2.873   2.923 -0.0366  0.0213 -0.5261
  528SOL    HW1 2110   0.663   2.956   2.954 -0.5327  0.7586 -0.4767
  528SOL    HW2 2111   0.592   2.898   2.845  3.8838  0.1084 -0.0649
  528SOL     MW 2112   0.635   2.888   2.917  0.4152  0.1300 -0.4587
  529SOL     OW 2113   0.991   2.344   1.875 -0.9207  0.2287  0.0050
  529SOL    HW1 2114   1.005   2.350   1.971  0.3733 -0.2063  1.3053
  529SOL    HW2 2115   1.069   2.375   1.829  2.8472  0.5816 -1.6862
  529SOL     MW 2116   1.004   2.349   1.881 -0.2528  0.2179 -0.0465
  530SOL     OW 2117   1.203   2.427   3.025 -0.1796  0.5945 -0.3552
  530SOL    HW1 2118   1.126   2.469   3.075 -0.5180 -0.5688 -1.0529
  530SOL    HW2 2119   1.181   2.332   3.007 -1.1485 -0.3885  1.2853
  530SOL     MW 2120   1.190   2.420   3.029 -0.3521  0.3113 -0.2308
  531SOL     OW 2121   0.955   1.871   2.570  0.4860 -0.1827 -0.0043
  531SOL    HW1 2122   1.025   1.931   2.563 -2.3565 -0.2780  0.3517
  531SOL    HW2 2123   0.950   1.857   2.666 -0.6233 -1.5120 -4.2749
  531SOL     MW 2124   0.964   1.877   2.582 -0.0354 -0.3707 -0.5208
  532SOL     OW 2125   1.733   0.327   2.798  0.0056  0.1569  0.4307
  532SOL    HW1 2126   1.741   0.256   2.738  0.1469 -0.2871 -0.2525
  532SOL    HW2 2127   1.817   0.371   2.783  1.8413  2.8868  2.0271
  532SOL     MW 2128   1.745   0.323   2.788  0.2665  0.4585  0.5512
  533SOL     OW 2129   1.874   2.641   3.054 -0.3472  0.4789 -0.2743
  533SOL    HW1 2130   1.862   2.572   3.129 -0.2560  0.2889 -1.1010
  533SOL    HW2 2131   1.809   2.619   2.988  2.3077  1.2116 -0.4923
  533SOL     MW 2132   1.864   2.629   3.055  0.0151  0.5505 -0.4121
  534SOL     OW 2133   1.770   2.431   2.527 -0.0152 -0.2146  0.4480
  534SOL    HW1 2134   1.711   2.367   2.575  1.0335 -1.6178  2.7629
  534SOL    HW2 2135   1.842   2.450   2.591 -1.5930  0.4347  0.6927
  534SOL     MW 2136   1.772   2.425   2.542 -0.0850 -0.3140  0.7857
  535SOL     OW 2137   1.902   2.393   1.906 -0.4114  0.3745  0.4930
  535SOL    HW1 2138   1.855   2.402   1.824  1.0028  3.2238  0.5473
  535SOL    HW2 2139   1.994   2.417   1.890 -0.6644  2.2082  2.7276
  535SOL     MW 2140   1.908   2.397   1.893 -0.2582  0.9924  0.7950
  536SOL     OW 2141   0.475   1.823   2.069  0.6563 -0.2123 -0.0686
  536SOL    HW1 2142   0.431   1.790   1.988 -2.8919 -0.7354  1.4774
  536SOL    HW2 2143   0.507   1.910   2.058 -0.9204 -0.8955 -0.2504
  536SOL     MW 2144   0.473   1.830   2.057 -0.0199 -0.3714  0.1114
  537SOL     OW 2145   1.094   0.188   2.841  0.0042 -0.5156 -0.5573
  537SOL    HW1 2146   1.043   0.233   2.909  0.2691  0.6685  2.1265
  537SOL    HW2 2147   1.093   0.243   2.760 -1.6267 -2.6995 -1.5285
  537SOL     MW 2148   1.087   0.201   2.839 -0.1760 -0.6475 -0.3314
  538SOL     OW 2149   1.390   0.063   3.066  0.0230  0.5453  0.1621
  538SOL    HW1 2150   1.395   0.148   3.024  0.1782  2.3913 -1.1188
  538SOL    HW2 2151   1.310   0.025   3.035  1.4959  0.5805  1.4918
  538SOL     MW 2152   1.380   0.069   3.056  0.2378  0.7935  0.1685
  539SOL     OW 2153   0.765   2.792   2.580 -0.5583  0.6525  0.2610
  539SOL    HW1 2154   0.850   2.830   2.601 -0.5798  0.7711  1.4485
  539SOL    HW2 2155   0.739   2.749   2.659  2.5341  0.1598 -0.8422
  539SOL     MW 2156   0.773   2.791   2.593 -0.1532  0.6031  0.2721
  540SOL     OW 2157   0.371   2.532   2.905 -0.3120  0.1154 -0.3870
  540SOL    HW1 2158   0.351   2.577   2.987  0.0971  0.4433 -0.1866
  540SOL    HW2 2159   0.314   2.454   2.904 -1.9375 -2.6348 -3.7368
  540SOL     MW 2160   0.361   2.527   2.915 -0.4725 -0.2042 -0.8025
  541SOL     OW 2161   0.183   2.961   2.220 -0.4058 -0.2660  0.5506
  541SOL    HW1 2162   0.160   2.874   2.186  0.9346  3.1067 -2.0891
  541SOL    HW2 2163   0.225   2.938   2.303 -1.0191  2.5791 -1.3569
  541SOL     MW 2164   0.185   2.946   2.226 -0.3098  0.5544 -0.0494
  542SOL     OW 2165   1.078   2.317   2.684 -0.2319 -0.0392  0.0297
  542SOL    HW1 2166   1.097   2.248   2.746  0.6316  0.3890  0.5471
  542SOL    HW2 2167   1.095   2.399   2.727  1.2227 -0.9521 -1.8238
  542SOL     MW 2168   1.082   2.319   2.697  0.0740 -0.1032 -0.1466
  543SOL     OW 2169   1.667   2.442   2.852 -0.1022 -0.2510  0.7658
  543SOL    HW1 2170   1.637   2.387   2.783 -0.2904 -0.4484  1.4289
  543SOL    HW2 2171   1.673   2.531   2.820 -1.5400 -0.9057 -2.1337
  543SOL     MW 2172   1.664   2.447   2.839 -0.3167 -0.3634  0.4707
  544SOL     OW 2173   0.717   0.185   2.706  0.2921 -0.7630 -0.0907
  544SOL    HW1 2174   0.626   0.196   2.715  2.7432 -0.9694  0.4221
  544SOL    HW2 2175   0.750   0.168   2.618 -0.1122  0.0362 -0.5170
  544SOL     MW 2176   0.709   0.184   2.696  0.5622 -0.6848 -0.0793
  545SOL     OW 2177   1.481   2.171   2.405 -0.0098  0.0127  0.4866
  545SOL    HW1 2178   1.474   2.243   2.337 -2.0166 -1.2008 -1.1283
  545SOL    HW2 2179   1.566   2.117   2.382 -0.1830 -1.6014 -0.0174
  545SOL     MW 2180   1.492   2.173   2.393 -0.2974 -0.3604  0.2070
  546SOL     OW 2181   2.874   1.996   0.094 -0.5290 -0.2851  0.3202
  546SOL    HW1 2182   2.860   2.080   0.053 -1.1863  0.3496 -1.7501
  546SOL    HW2 2183   2.960   1.976   0.058 -0.3448  0.1094  2.5992
  546SOL     MW 2184   2.883   2.005   0.084 -0.5915 -0.1493  0.3477
  547SOL     OW 2185   0.155   0.098   0.095 -0.1757  0.5996  0.2551
  547SOL    HW1 2186   0.197   0.109   0.005  0.6867 -2.3723 -2.8166
  547SOL    HW2 2187   0.095   0.027   0.071  0.7118  1.0617  1.3240
  547SOL     MW 2188   0.153   0.090   0.080  0.0552  0.2685 -0.0091
  548SOL     OW 2189   0.309   2.517   0.294  0.1756  0.3374 -0.0794
  548SOL    HW1 2190   0.301   2.560   0.206  1.4424 -0.2009 -4.4919
  548SOL    HW2 2191   0.254   2.442   0.274 -1.0643 -3.3361  2.7949
  548SOL     MW 2192   0.300   2.512   0.279  0.1792 -0.2183 -0.2823
  549SOL     OW 2193   0.830   1.904   2.193  0.4519  0.7703  0.0123
  549SOL    HW1 2194   0.775   1.980   2.165  2.5416  3.0449  1.8986
  549SOL    HW2 2195   0.787   1.866   2.268 -0.8029 -0.9706 -0.0072
  549SOL     MW 2196   0.817   1.909   2.199  0.5620  0.8407  0.2586
  550SOL     OW 2197   1.809   1.714   2.536  0.2130  0.3082  0.1597
  550SOL    HW1 2198   1.832   1.737   2.449  1.5771  1.9633 -1.1970
  550SOL    HW2 2199   1.799   1.799   2.582  0.6903  0.3519 -0.5155
  550SOL     MW 2200   1.810   1.728   2.530  0.4560  0.5324 -0.1084
  551SOL     OW 2201   0.907   2.327   0.222 -0.2867 -0.2915  0.5984
  551SOL    HW1 2202   0.994   2.298   0.218 -2.6892  0.0363  0.7349
  551SOL    HW2 2203   0.865   2.284   0.150  1.5444 -1.7118  1.2996
  551SOL     MW 2204   0.913   2.317   0.212 -0.3621 -0.4357  0.7089
  552SOL     OW 2205   1.767   1.792   2.258  0.1991  0.5328  0.2582
  552SOL    HW1 2206   1.676   1.754   2.256 -0.6789  1.1056 -1.0853
  552SOL    HW2 2207   1.821   1.769   2.187  0.7379 -1.1337  0.9643
  552SOL     MW 2208   1.762   1.784   2.248  0.1544  0.3885  0.1741
  553SOL     OW 2209   1.271   2.254   1.539  0.0299 -0.6429 -0.0702
  553SOL    HW1 2210   1.329   2.178   1.555  0.1915 -0.6975  0.9573
  553SOL    HW2 2211   1.317   2.326   1.491 -3.1387 -2.5172  1.7594
  553SOL     MW 2212   1.284   2.254   1.535 -0.3668 -0.8974  0.3067
  554SOL     OW 2213   0.529   2.937   2.653 -0.3005 -0.5315  0.5306
  554SOL    HW1 2214   0.509   3.013   2.600  1.1862  0.6043 -1.9902
  554SOL    HW2 2215   0.594   2.882   2.604  1.1282  1.8506  0.8147
  554SOL     MW 2216   0.535   2.939   2.640  0.0842 -0.0673  0.2355
  555SOL     OW 2217   0.639   2.432   2.510  0.2088  0.2898  0.2673
  555SOL    HW1 2218   0.596   2.347   2.508 -0.3227 -0.7744 -0.3996
  555SOL    HW2 2219   0.740   2.419   2.510  2.0580 -1.9012  2.2196
  555SOL     MW 2220   0.647   2.419   2.510  0.3826 -0.1397  0.4369
  556SOL     OW 2221   1.011   1.889   0.095  0.4109  0.3341  0.1245
  556SOL    HW1 2222   1.047   1.867   0.005  1.1583  1.1399  0.9967
  556SOL    HW2 2223   1.087   1.888   0.146 -0.2483 -2.3032 -2.1997
  556SOL     MW 2224   1.026   1.886   0.090  0.4226  0.0925 -0.0671
  557SOL     OW 2225   0.978   2.640   0.490  0.4598  0.3815 -0.2698
  557SOL    HW1 2226   1.036   2.594   0.422 -0.3478  1.7463  1.0222
  557SOL    HW2 2227   0.935   2.705   0.434  3.6642  2.4979 -0.8196
  557SOL     MW 2228   0.980   2.643   0.474  0.7760  0.8408 -0.1719
  558SOL     OW 2229   0.203   2.297   2.978  0.2668 -0.2814 -0.4743
  558SOL    HW1 2230   0.137   2.248   2.934 -0.1460  1.4867 -0.2240
  558SOL    HW2 2231   0.177   2.301   3.071 -1.7257 -2.0811  3.1830
  558SOL     MW 2232   0.191   2.291   2.984 -0.0505 -0.2856  0.0413
  559SOL     OW 2233   1.049   2.321   2.152 -0.4090 -0.4800  0.7275
  559SOL    HW1 2234   1.135   2.355   2.177 -0.8987 -0.3656  2.5621
  559SOL    HW2 2235   1.036   2.233   2.185 -1.7338  0.1468 -1.1551
  559SOL     MW 2236   1.059   2.314   2.159 -0.6484 -0.3822  0.7212
  560SOL     OW 2237   1.933   2.883   0.078 -0.2188 -0.3922  0.3401
  560SOL    HW1 2238   2.014   2.899   0.029  0.1579 -2.2914  2.1826
  560SOL    HW2 2239   1.896   2.806   0.029 -0.1549 -1.2239 -1.8291
  560SOL     MW 2240   1.939   2.875   0.065 -0.1607 -0.7525  0.2970
  561SOL     OW 2241   0.338   2.142   0.094  0.5480  0.4161 -0.0005
  561SOL    HW1 2242   0.311   2.149   0.002 -0.0676 -1.2757  0.8966
  561SOL    HW2 2243   0.387   2.223   0.124 -0.3595  0.2257  1.7274
  561SOL     MW 2244   0.341   2.154   0.086  0.3471  0.1678  0.3459
  562SOL     OW 2245   0.705   2.216   2.282  0.4075 -0.2824 -0.2125
  562SOL    HW1 2246   0.687   2.313   2.282  0.1322  2.7899 -3.3939
  562SOL    HW2 2247   0.795   2.217   2.323 -1.7918 -0.6199  2.8100
  562SOL     MW 2248   0.715   2.229   2.288  0.0810  0.0784 -0.2335
  563SOL     OW 2249   1.238   0.429   0.555  0.0265 -0.0608 -0.5376
  563SOL    HW1 2250   1.194   0.376   0.488  0.5216  1.2325 -2.8252
  563SOL    HW2 2251   1.185   0.418   0.633 -2.0114  1.6067  1.0306
  563SOL     MW 2252   1.225   0.421   0.556 -0.1771  0.3299 -0.6325
  564SOL     OW 2253   1.138   2.632   2.387 -0.5296  0.2437  0.3817
  564SOL    HW1 2254   1.140   2.694   2.323 -0.1859 -2.7704  2.4700
  564SOL    HW2 2255   1.130   2.687   2.468 -0.5105  1.8882 -1.1111
  564SOL     MW 2256   1.138   2.647   2.389 -0.4817  0.0630  0.4602
  565SOL     OW 2257   2.735   2.751   2.605  0.1899  0.3888 -0.3418
  565SOL    HW1 2258   2.780   2.833   2.584 -0.6983  1.0484 -0.9011
  565SOL    HW2 2259   2.729   2.706   2.523  0.2521  0.1311 -1.8411
  565SOL     MW 2260   2.740   2.756   2.591  0.0809  0.4418 -0.6134
  566SOL     OW 2261   2.136   1.876   2.420  0.6125  0.1451 -0.3338
  566SOL    HW1 2262   2.150   1.829   2.339  1.6665  2.6572 -1.5055
  566SOL    HW2 2263   2.186   1.960   2.413 -0.3266  2.7754 -2.4154
  566SOL     MW 2264   2.144   1.881   2.409  0.6276  0.8236 -0.7630
  567SOL     OW 2265   1.158   3.017   3.051  0.8450  0.0882  0.5379
  567SOL    HW1 2266   1.161   3.043   3.146 -0.2989 -1.5524  1.7647
  567SOL    HW2 2267   1.186   2.922   3.040  1.8962  2.5023  1.4536
  567SOL     MW 2268   1.162   3.008   3.062  0.8328  0.1903  0.8206
  568SOL     OW 2269   1.604   2.050   2.858 -0.4516  0.1952 -1.3862
  568SOL    HW1 2270   1.640   2.095   2.932  0.3185 -0.6159  1.0572
  568SOL    HW2 2271   1.683   2.012   2.807 -0.1278 -0.0364 -5.2164
  568SOL     MW 2272   1.619   2.051   2.861 -0.3073  0.0576 -1.5692
  569SOL     OW 2273   0.160   2.297   2.489 -0.5373  0.1485 -0.6280
  569SOL    HW1 2274   0.087   2.315   2.429  0.1676  0.2328 -1.9412
  569SOL    HW2 2275   0.164   2.372   2.548 -0.8623 -0.6112  0.5817
  569SOL     MW 2276   0.151   2.309   2.489 -0.4872  0.0594 -0.6417
  570SOL     OW 2277   1.502   0.345   0.510 -0.2527 -0.3871 -0.7369
  570SOL    HW1 2278   1.408   0.372   0.513 -2.6735  1.1237  0.8418
  570SOL    HW2 2279   1.542   0.364   0.595 -0.6727 -1.1766  0.2668
  570SOL     MW 2280   1.495   0.351   0.522 -0.6275 -0.2920 -0.3961
  571SOL     OW 2281   1.333   2.362   2.112 -0.3600 -0.2442  0.6367
  571SOL    HW1 2282   1.407   2.404   2.159  1.5928 -1.1284 -2.9880
  571SOL    HW2 2283   1.388   2.302   2.060 -0.6735 -0.7864 -0.2136
  571SOL     MW 2284   1.350   2.359   2.111 -0.1437 -0.4324  0.0463
  572SOL     OW 2285   0.978   2.562   0.083 -0.9493 -0.1440 -0.0698
  572SOL    HW1 2286   0.947   2.655   0.081 -0.4941 -1.7613 -1.8058
  572SOL    HW2 2287   0.913   2.507   0.122  0.2601  0.3444 -2.1778
  572SOL     MW 2288   0.965   2.567   0.088 -0.7297 -0.2930 -0.5770
  573SOL     OW 2289   1.194   2.305   0.199 -0.3354 -0.8182  0.2578
  573SOL    HW1 2290   1.280   2.288   0.156  1.4536  1.2642  0.5356
  573SOL    HW2 2291   1.183   2.395   0.246 -0.3594 -2.0092 -0.7223
  573SOL     MW 2292   1.204   2.314   0.200 -0.1025 -0.7006  0.1652
  574SOL     OW 2293   1.134   2.541   0.304 -0.7367 -0.0954 -0.2231
  574SOL    HW1 2294   1.214   2.602   0.331  0.6270  0.5208  2.0926
  574SOL    HW2 2295   1.086   2.583   0.230 -1.0012  1.4881 -0.8342
  574SOL     MW 2296   1.138   2.554   0.298 -0.5917  0.1948  0.0018
  575SOL     OW 2297   3.031   2.224   1.748 -0.0844  0.2306  0.1371
  575SOL    HW1 2298   3.065   2.154   1.691 -0.3788  1.5917 -3.5617
  575SOL    HW2 2299   3.098   2.288   1.737 -0.7630 -0.8579 -2.2121
  575SOL     MW 2300   3.045   2.223   1.739 -0.2127  0.2665 -0.6609
  576SOL     OW 2301   2.850   1.830   2.020  0.1195  0.4988  0.1134
  576SOL    HW1 2302   2.873   1.916   1.980 -0.4780 -0.8410 -1.9515
  576SOL    HW2 2303   2.759   1.815   2.012  3.3984 -0.9057  0.6583
  576SOL     MW 2304   2.841   1.839   2.014  0.4733  0.1367 -0.0871
  577SOL     OW 2305   2.080   0.227   0.105 -0.2409 -0.2214 -0.3283
  577SOL    HW1 2306   2.007   0.219   0.048  0.0563  0.0182  0.9544
  577SOL    HW2 2307   2.053   0.157   0.167  0.9833  2.6989  1.0421
  577SOL     MW 2308   2.067   0.217   0.106 -0.0402  0.1955  0.0218
  578SOL     OW 2309   1.914   2.043   2.429 -0.0245  0.3751  0.8529
  578SOL    HW1 2310   1.830   2.020   2.379  1.7215  1.7121  2.1330
  578SOL    HW2 2311   1.975   1.971   2.417  0.1407  0.4567  1.0917
  578SOL     MW 2312   1.911   2.031   2.421  0.2276  0.5623  1.0533
  579SOL     OW 2313   0.903   2.420   2.471 -0.6640 -0.3862  0.5391
  579SOL    HW1 2314   0.950   2.380   2.550 -0.1088 -0.0239 -1.3734
  579SOL    HW2 2315   0.952   2.496   2.439  0.0165  4.3537 -1.0910
  579SOL     MW 2316   0.916   2.425   2.478 -0.5009  0.2870  0.0717
  580SOL     OW 2317   0.942   2.846   0.027 -0.0783 -0.0631  0.1879
  580SOL    HW1 2318   1.013   2.908   0.028  0.1106  0.1406 -1.8394
  580SOL    HW2 2319   0.936   2.826  -0.066 -0.9829  0.5357 -1.5372
  580SOL     MW 2320   0.950   2.852   0.015 -0.1727  0.0428 -0.3072
  581SOL     OW 2321   1.147   2.502   1.681  0.2229 -0.2005  0.1270
  581SOL    HW1 2322   1.195   2.552   1.743 -0.3430  3.0256  1.3067
  581SOL    HW2 2323   1.200   2.422   1.655 -0.9828 -0.3589  0.8894
  581SOL     MW 2324   1.160   2.498   1.686 -0.0109  0.2042  0.3832
  582SOL     OW 2325   0.049   2.809   2.750  0.1984  0.3295  0.4757
  582SOL    HW1 2326   0.007   2.898   2.751  0.6987  0.7044 -0.8615
  582SOL    HW2 2327   0.142   2.832   2.746  1.2417  0.1681  3.4039
  582SOL     MW 2328   0.056   2.824   2.750  0.4021  0.3577  0.6856
  583SOL     OW 2329   2.007   2.436   2.685  0.4190 -0.2114 -0.3864
  583SOL    HW1 2330   2.091   2.438   2.636 -0.9591 -1.0321  0.5208
  583SOL    HW2 2331   2.008   2.352   2.722  0.0006  3.6561  1.0418
  583SOL     MW 2332   2.018   2.425   2.684  0.1820  0.1906 -0.0783
  584SOL     OW 2333   0.057   1.900   2.226  0.1402  0.0140 -0.4735
  584SOL    HW1 2334   0.106   1.852   2.301  1.6426  2.7772  2.8151
  584SOL    HW2 2335   0.084   1.989   2.247 -0.8324  1.2381  0.2240
  584SOL     MW 2336   0.067   1.906   2.239  0.2101  0.5401  0.0524
  585SOL     OW 2337   1.574   2.616   0.168  0.1266  0.7023 -0.6167
  585SOL    HW1 2338   1.543   2.567   0.093 -0.1778 -0.7051 -2.2251
  585SOL    HW2 2339   1.506   2.636   0.233 -0.9363  0.9505  0.9636
  585SOL     MW 2340   1.561   2.612   0.166 -0.0538  0.5494 -0.6204
  586SOL     OW 2341   1.396   2.820   2.585 -0.1913  0.0573 -0.0830
  586SOL    HW1 2342   1.414   2.816   2.491 -0.1142  1.2901 -1.4746
  586SOL    HW2 2343   1.338   2.891   2.585 -0.4296 -4.2076 -0.1145
  586SOL     MW 2344   1.391   2.829   2.573 -0.2126 -0.3427 -0.2708
  587SOL     OW 2345   1.372   1.489   2.147  0.1762 -0.6244 -0.1707
  587SOL    HW1 2346   1.333   1.422   2.203 -1.9607 -0.3860  0.9699
  587SOL    HW2 2347   1.411   1.445   2.070  0.3027 -0.0044 -0.4834
  587SOL     MW 2348   1.372   1.475   2.145 -0.0891 -0.5112 -0.0615
  588SOL     OW 2349   1.372   2.026   2.664  0.4150  0.1280 -0.8230
  588SOL    HW1 2350   1.364   1.932   2.670 -2.6187 -0.7422  1.4255
  588SOL    HW2 2351   1.360   2.063   2.754  1.6075 -0.6999  0.9825
  588SOL     MW 2352   1.370   2.019   2.677  0.1721 -0.0960 -0.2881
  589SOL     OW 2353   1.421   2.003   0.032  0.4055 -0.4429 -0.2223
  589SOL    HW1 2354   1.431   2.095   0.053  0.4636  0.3202 -1.3076
  589SOL    HW2 2355   1.359   1.964   0.097  1.6673  1.2688 -0.2119
  589SOL     MW 2356   1.414   2.010   0.043  0.5796 -0.1164 -0.3641
  590SOL     OW 2357   0.489   2.762   2.182 -0.0911 -0.2852 -0.5854
  590SOL    HW1 2358   0.480   2.733   2.088 -0.6658 -1.3969  0.4081
  590SOL    HW2 2359   0.581   2.788   2.204  0.3632 -0.7650  2.6145
  590SOL     MW 2360   0.500   2.761   2.173 -0.1070 -0.4952 -0.0321
  591SOL     OW 2361   2.261   0.689   0.038  0.3128  0.2789  0.5360
  591SOL    HW1 2362   2.204   0.750  -0.003  1.9475  2.6481 -0.1674
  591SOL    HW2 2363   2.350   0.702  -0.004  0.4710  0.2923 -1.7581
  591SOL     MW 2364   2.265   0.699   0.027  0.5493  0.5933  0.1405
  592SOL     OW 2365   1.736   2.927   0.761  0.1181 -0.4866  0.7810
  592SOL    HW1 2366   1.752   2.991   0.690 -2.0100  1.6202 -1.1114
  592SOL    HW2 2367   1.818   2.904   0.806  0.4368 -2.5260 -1.9055
  592SOL     MW 2368   1.749   2.933   0.757 -0.1206 -0.4777  0.1769
  593SOL     OW 2369   1.962   0.689   0.826 -0.1397 -0.1032 -0.2634
  593SOL    HW1 2370   1.874   0.672   0.788 -0.0571 -0.9450 -2.7866
  593SOL    HW2 2371   2.012   0.620   0.781  0.7013 -0.4886  0.2113
  593SOL     MW 2372   1.957   0.678   0.815 -0.0179 -0.2651 -0.5337
  594SOL     OW 2373   2.779   1.080   1.402 -0.1807 -0.6481 -0.2924
  594SOL    HW1 2374   2.868   1.088   1.382 -1.5897  0.4613 -1.0119
  594SOL    HW2 2375   2.736   1.069   1.319 -0.3590 -1.0568  1.8473
  594SOL     MW 2376   2.785   1.080   1.388 -0.3901 -0.5556 -0.1050
  595SOL     OW 2377   0.466   0.923   0.822 -0.0268 -0.3050  0.3284
  595SOL    HW1 2378   0.475   1.002   0.763 -0.0311 -2.3629 -2.7074
  595SOL    HW2 2379   0.448   0.963   0.908 -0.8945  0.0321 -2.1807
  595SOL     MW 2380   0.465   0.938   0.825 -0.1418 -0.5321 -0.4032
  596SOL     OW 2381   2.470   1.330   0.514  0.0997  0.4622  0.2972
  596SOL    HW1 2382   2.520   1.406   0.496 -2.2287  2.2524 -0.7596
  596SOL    HW2 2383   2.492   1.312   0.601 -2.4592  0.3742  1.0100
  596SOL     MW 2384   2.479   1.338   0.523 -0.5451  0.6868  0.2518
  597SOL     OW 2385   2.184   0.668   1.619  0.8701  0.4560  0.2558
  597SOL    HW1 2386   2.222   0.611   1.686 -1.5025 -1.9693  2.7806
  597SOL    HW2 2387   2.111   0.610   1.584 -1.3275 -2.6049 -1.9442
  597SOL     MW 2388   2.179   0.653   1.623  0.2671 -0.2678  0.2986
  598SOL     OW 2389   2.575   1.057   2.867  0.0237  0.0319  0.3026
  598SOL    HW1 2390   2.614   1.002   2.798  1.0945  2.2623 -3.0287
  598SOL    HW2 2391   2.653   1.104   2.899  0.3429 -3.4255  4.1665
  598SOL     MW 2392   2.590   1.056   2.862  0.2071 -0.1300  0.3729
  599SOL     OW 2393   2.979   0.434   2.154 -0.4894  0.2042 -0.1587
  599SOL    HW1 2394   3.023   0.423   2.235 -0.2443  0.6723 -3.5265
  599SOL    HW2 2395   3.021   0.506   2.108 -1.2848  0.6820  1.2900
  599SOL     MW 2396   2.990   0.442   2.158 -0.5620  0.3290 -0.4119
  600SOL     OW 2397   1.854   1.621   0.897  0.3518 -0.1235 -0.0917
  600SOL    HW1 2398   1.932   1.655   0.941 -0.4275 -0.6403  0.6557
  600SOL    HW2 2399   1.809   1.696   0.862 -1.5542  0.7426  0.6798
  600SOL     MW 2400   1.858   1.635   0.898 -0.0025 -0.0774  0.1087
  601SOL     OW 2401   2.551   0.723   0.813  0.6696  0.2054 -0.0635
  601SOL    HW1 2402   2.531   0.729   0.909 -0.5517 -0.8917  1.1898
  601SOL    HW2 2403   2.476   0.673   0.779 -2.1655 -1.4365 -0.6208
  601SOL     MW 2404   2.538   0.717   0.821  0.1344 -0.1560  0.0284
  602SOL     OW 2405   2.311   1.923   0.771  0.1689 -0.1623  0.3273
  602SOL    HW1 2406   2.248   1.848   0.758 -0.1795 -1.4272 -1.5998
  602SOL    HW2 2407   2.259   1.989   0.727 -2.3576  0.4766  1.8352
  602SOL     MW 2408   2.296   1.922   0.763 -0.2104 -0.2449  0.2720
  603SOL     OW 2409   2.974   1.361   1.983 -0.4919 -0.4309  0.0224
  603SOL    HW1 2410   3.054   1.402   2.021  0.9045 -0.7477  3.6501
  603SOL    HW2 2411   2.972   1.270   1.999  0.3137 -1.5989  0.5658
  603SOL     MW 2412   2.984   1.354   1.990 -0.2013 -0.6268  0.5727
  604SOL     OW 2413   2.031   1.462   0.440  0.3173 -0.1337 -0.3551
  604SOL    HW1 2414   2.070   1.390   0.501 -0.1803 -0.5164  1.0960
  604SOL    HW2 2415   1.964   1.506   0.494 -0.9758  1.3502  1.4336
  604SOL     MW 2416   2.027   1.458   0.455  0.0811  0.0116  0.0724
  605SOL     OW 2417   2.496   1.489   0.896 -0.2349  0.1912 -0.2541
  605SOL    HW1 2418   2.495   1.551   0.818 -2.8085 -1.6529  0.6968
  605SOL    HW2 2419   2.532   1.402   0.871  0.5590 -0.8517 -2.2179
  605SOL     MW 2420   2.500   1.486   0.882 -0.4697 -0.1897 -0.3877
  606SOL     OW 2421   2.572   1.816   1.954  0.6011  0.1348 -0.7311
  606SOL    HW1 2422   2.478   1.814   1.950  0.1241 -0.6987 -0.0389
  606SOL    HW2 2423   2.595   1.729   1.918 -0.2264  2.1840 -0.3811
  606SOL     MW 2424   2.563   1.804   1.948  0.4290  0.2952 -0.5936
  607SOL     OW 2425   2.380   0.991   3.034  0.6329  0.3445  0.2995
  607SOL    HW1 2426   2.450   1.022   2.980  0.5625 -0.4568 -2.1412
  607SOL    HW2 2427   2.422   0.960   3.114  0.2818 -2.0546  0.4063
  607SOL     MW 2428   2.395   0.991   3.038  0.5772 -0.0777 -0.0085
  608SOL     OW 2429   1.849   0.257   0.532  0.3974 -0.0332 -0.1164
  608SOL    HW1 2430   1.819   0.317   0.467 -0.9798  1.8633  0.2332
  608SOL    HW2 2431   1.814   0.170   0.521 -1.2072 -2.0489  2.5525
  608SOL     MW 2432   1.840   0.253   0.522  0.0040 -0.0489  0.2818
  609SOL     OW 2433   2.136   1.933   3.037  0.1328  0.3171  0.3590
  609SOL    HW1 2434   2.046   1.925   2.995  1.3987 -0.3658  0.3066
  609SOL    HW2 2435   2.134   1.897   3.131 -0.7883  0.1445  1.6895
  609SOL     MW 2436   2.124   1.927   3.044  0.1783  0.2042  0.5276
  610SOL     OW 2437   1.790   0.944   1.219 -0.2686 -0.3752 -0.7490
  610SOL    HW1 2438   1.816   0.852   1.195  0.2803  0.4868 -0.0487
  610SOL    HW2 2439   1.690   0.943   1.217  1.4325  0.7467  1.5516
  610SOL     MW 2440   1.780   0.932   1.215  0.0283 -0.1134 -0.3531
  611SOL     OW 2441   2.458   1.661   0.691 -0.6151  0.0684 -0.2054
  611SOL    HW1 2442   2.480   1.695   0.603  0.7364 -0.7917  1.2188
  611SOL    HW2 2443   2.366   1.695   0.709 -0.1960  3.3220 -1.7410
  611SOL     MW 2444   2.448   1.670   0.682 -0.3815  0.3842 -0.2201
  612SOL     OW 2445   2.873   2.950   0.351  0.8094 -0.1419 -0.6052
  612SOL    HW1 2446   2.904   2.969   0.444  2.5938  0.3505 -0.5650
  612SOL    HW2 2447   2.946   2.895   0.335 -0.1345  0.6218 -0.5496
  612SOL     MW 2448   2.887   2.945   0.361  0.9203  0.0238 -0.5926
  613SOL     OW 2449   1.502   1.050   0.953  0.4741  0.2440  0.3307
  613SOL    HW1 2450   1.502   1.131   1.005 -0.4300  1.8508  0.2478
  613SOL    HW2 2451   1.540   0.993   1.016  2.5096  0.2949  0.8468
  613SOL     MW 2452   1.507   1.053   0.968  0.6233  0.4627  0.3878
  614SOL     OW 2453   2.011   0.505   1.428  0.2954 -0.5049 -0.5808
  614SOL    HW1 2454   2.004   0.433   1.492  0.5204  2.3909 -2.0173
  614SOL    HW2 2455   1.926   0.518   1.385  0.4979 -0.1128 -1.0074
  614SOL     MW 2456   1.999   0.497   1.431  0.3518 -0.0711 -0.8266
  615SOL     OW 2457   2.401   0.715   0.297 -0.2458 -0.0082  0.0033
  615SOL    HW1 2458   2.496   0.681   0.285  2.9110 -1.0475  0.6849
  615SOL    HW2 2459   2.348   0.691   0.217  0.1187 -3.5475  0.1494
  615SOL     MW 2460   2.407   0.707   0.285  0.2188 -0.6123  0.1125
  616SOL     OW 2461   2.495   0.450   1.618 -0.2114 -0.1262 -0.2356
  616SOL    HW1 2462   2.588   0.423   1.610 -1.0035  0.5791 -1.1928
  616SOL    HW2 2463   2.479   0.499   1.539  0.6942 -0.1173 -0.9631
  616SOL     MW 2464   2.505   0.453   1.606 -0.1964 -0.0320 -0.4579
  617SOL     OW 2465   2.860   0.626   1.757  0.2636  0.0706  1.0283
  617SOL    HW1 2466   2.780   0.626   1.814 -1.0774 -1.0103  0.7836
  617SOL    HW2 2467   2.863   0.534   1.734  0.5161 -0.5603  1.2472
  617SOL     MW 2468   2.850   0.614   1.761  0.1200 -0.1552  1.0249
  618SOL     OW 2469   2.728   0.345   2.020  0.2614 -0.6826 -0.1896
  618SOL    HW1 2470   2.701   0.434   1.979  0.9426 -1.2695  0.6764
  618SOL    HW2 2471   2.804   0.364   2.080  0.0357 -0.4090  2.5133
  618SOL     MW 2472   2.734   0.359   2.023  0.3215 -0.7239  0.2813
  619SOL     OW 2473   2.631   0.710   0.078  0.1388  0.0251  0.4337
  619SOL    HW1 2474   2.686   0.787   0.114 -0.9859  1.9468  0.3020
  619SOL    HW2 2475   2.633   0.640   0.144  0.1016  2.5252  1.4853
  619SOL     MW 2476   2.638   0.711   0.092 -0.0145  0.6085  0.5551
  620SOL     OW 2477   2.253   1.083   0.923 -0.1271 -0.2950  0.1056
  620SOL    HW1 2478   2.316   1.024   0.880 -0.2109  0.5454  0.2172
  620SOL    HW2 2479   2.165   1.056   0.890 -2.9914  3.4266  0.4294
  620SOL     MW 2480   2.250   1.072   0.913 -0.5161  0.3069  0.1630
  621SOL     OW 2481   1.491   2.222   1.942 -0.3526 -0.5287 -0.2204
  621SOL    HW1 2482   1.446   2.145   1.972  2.2419  0.2115 -1.6087
  621SOL    HW2 2483   1.587   2.216   1.964  0.4404  2.5517 -2.5972
  621SOL     MW 2484   1.498   2.211   1.949  0.0943 -0.0246 -0.7171
  622SOL     OW 2485   2.631   0.255   0.291  0.6219  0.2924  0.1214
  622SOL    HW1 2486   2.728   0.274   0.297  0.1271 -0.7560  0.0676
  622SOL    HW2 2487   2.625   0.169   0.325  0.8373  2.1687  0.6355
  622SOL     MW 2488   2.643   0.246   0.296  0.5850  0.4017  0.1822
  623SOL     OW 2489   2.422   2.740   0.883 -0.2575  0.7843  0.0647
  623SOL    HW1 2490   2.485   2.807   0.867 -1.6399 -1.9526  1.8230
  623SOL    HW2 2491   2.393   2.747   0.973 -2.2958  0.0925  1.9689
  623SOL     MW 2492   2.426   2.750   0.893 -0.7088  0.3319  0.5479
  624SOL     OW 2493   2.150   1.604   3.046  0.6595 -0.2077 -0.0755
  624SOL    HW1 2494   2.090   1.529   3.040  0.7145  2.9542 -0.2210
  624SOL    HW2 2495   2.115   1.672   2.984  0.1237 -1.4610  1.4593
  624SOL     MW 2496   2.138   1.603   3.037  0.5961  0.0441  0.1078
  625SOL     OW 2497   2.251   1.899   1.072  0.0549 -0.1313 -0.8282
  625SOL    HW1 2498   2.302   1.834   1.128  0.5491  0.0409 -1.4643
  625SOL    HW2 2499   2.297   1.888   0.992 -0.5420 -0.9294 -0.3163
  625SOL     MW 2500   2.264   1.889   1.069  0.0413 -0.2139 -0.8446
  626SOL     OW 2501   0.184   1.810   2.445 -0.5406 -0.2166  0.0355
  626SOL    HW1 2502   0.139   1.734   2.484 -0.7159  0.1724  3.3814
  626SOL    HW2 2503   0.127   1.886   2.479 -3.1499 -1.8256  0.5137
  626SOL     MW 2504   0.171   1.810   2.455 -0.9080 -0.3776  0.5401
  627SOL     OW 2505   2.533   0.805   2.558 -0.4218  0.4886 -0.3743
  627SOL    HW1 2506   2.452   0.852   2.577 -0.7970 -0.7356 -0.0481
  627SOL    HW2 2507   2.515   0.764   2.470  0.8397  1.9684  0.7196
  627SOL     MW 2508   2.520   0.806   2.549 -0.3049  0.5223 -0.1869
  628SOL     OW 2509   2.228   1.363   1.343 -0.0517 -0.0794 -0.2430
  628SOL    HW1 2510   2.195   1.288   1.293  0.7995 -2.2409 -0.2127
  628SOL    HW2 2511   2.298   1.395   1.288  2.4013 -0.0414 -0.5450
  628SOL     MW 2512   2.232   1.358   1.329  0.3842 -0.3596 -0.2788
  629SOL     OW 2513   1.774   0.484   1.300 -0.5792  0.6405  0.5072
  629SOL    HW1 2514   1.805   0.556   1.235  1.8628 -0.4090 -2.8031
  629SOL    HW2 2515   1.687   0.456   1.265  1.5739  0.8195 -2.8585
  629SOL     MW 2516   1.766   0.490   1.287  0.0271  0.5257 -0.3736
  630SOL     OW 2517   2.415   1.867   2.989 -0.5640  0.2215  0.1592
  630SOL    HW1 2518   2.443   1.962   2.964  1.5233  2.3993  0.2602
  630SOL    HW2 2519   2.325   1.868   3.023  0.3083 -0.0838 -0.5881
  630SOL     MW 2520   2.407   1.880   2.990 -0.1735  0.4685  0.0739
  631SOL     OW 2521   2.065   1.683   1.536 -0.0533  0.7173 -0.0946
  631SOL    HW1 2522   2.077   1.592   1.569  0.3205 -0.4108 -1.1855
  631SOL    HW2 2523   1.976   1.707   1.559  3.0886  2.0434 -0.5904
  631SOL     MW 2524   2.055   1.674   1.543  0.4105  0.7434 -0.3040
  632SOL     OW 2525   0.265   1.948   1.499  0.2946  0.0766  0.1037
  632SOL    HW1 2526   0.174   1.953   1.542  0.4125  0.5476 -0.1863
  632SOL    HW2 2527   0.278   1.853   1.514 -0.8212  0.5525 -1.8424
  632SOL     MW 2528   0.255   1.936   1.506  0.1629  0.2015 -0.1913
  633SOL     OW 2529   2.629   0.544   0.282  0.3727  0.0141 -0.1007
  633SOL    HW1 2530   2.656   0.558   0.374 -1.5143 -1.8623  0.0794
  633SOL    HW2 2531   2.602   0.447   0.294  1.2348  1.0374  1.9248
  633SOL     MW 2532   2.629   0.533   0.296  0.2375 -0.0985  0.1903
  634SOL     OW 2533   2.681   3.049   0.615 -0.4407 -0.1263  0.0273
  634SOL    HW1 2534   2.693   3.147   0.629 -1.4428 -1.8187  0.0825
  634SOL    HW2 2535   2.673   3.041   0.518  2.1287 -2.5631 -0.0567
  634SOL     MW 2536   2.681   3.061   0.604 -0.2339 -0.6711  0.0235
  635SOL     OW 2537   2.620   0.126   1.866  0.3664 -0.1919  0.4784
  635SOL    HW1 2538   2.685   0.078   1.811  1.9842 -2.6852  2.0101
  635SOL    HW2 2539   2.645   0.218   1.899  1.0131  0.1664  2.5799
  635SOL     MW 2540   2.632   0.131   1.863  0.6652 -0.4736  0.9578
  636SOL     OW 2541   2.764   1.597   0.875 -0.5896 -0.3184  0.4686
  636SOL    HW1 2542   2.683   1.554   0.856 -1.0449  0.1412 -3.1096
  636SOL    HW2 2543   2.746   1.690   0.899  1.3829 -0.4016  0.7725
  636SOL     MW 2544   2.751   1.604   0.876 -0.3894 -0.2688  0.0366
  637SOL     OW 2545   2.877   1.540   0.640 -0.1402 -0.0545  0.0413
  637SOL    HW1 2546   2.950   1.606   0.638  1.7209 -0.0414  1.0366
  637SOL    HW2 2547   2.832   1.562   0.722  0.2536 -4.4968  0.1665
  637SOL     MW 2548   2.881   1.552   0.650  0.1573 -0.6389  0.1891
  638SOL     OW 2549   2.736   0.507   0.528  0.6464  0.0184  0.2227
  638SOL    HW1 2550   2.830   0.511   0.507  0.7751 -1.3537  2.6716
  638SOL    HW2 2551   2.716   0.541   0.616  1.4353  0.1249 -1.3422
  638SOL     MW 2552   2.746   0.512   0.537  0.7675 -0.1486  0.3394
  639SOL     OW 2553   1.753   3.094   0.524 -0.1942 -0.0077 -0.2762
  639SOL    HW1 2554   1.654   3.095   0.506  1.3217 -1.7726 -0.6309
  639SOL    HW2 2555   1.773   3.001   0.495  2.6652 -0.1680  0.2078
  639SOL     MW 2556   1.743   3.082   0.518  0.3831 -0.2617 -0.2591
  640SOL     OW 2557   0.355   1.347   0.081  0.2887 -0.2000 -0.0056
  640SOL    HW1 2558   0.380   1.354  -0.014  0.0726  1.8436  1.2295
  640SOL    HW2 2559   0.368   1.252   0.108 -0.7249 -0.4881  2.4778
  640SOL     MW 2560   0.360   1.335   0.072  0.1265  0.0316  0.4850
  641SOL     OW 2561   2.212   0.410   0.349 -0.6852 -0.1344  0.0858
  641SOL    HW1 2562   2.261   0.416   0.266  1.1101  0.6672 -0.0484
  641SOL    HW2 2563   2.229   0.322   0.373 -2.7029 -2.5432  0.4844
  641SOL     MW 2564   2.221   0.399   0.341 -0.7145 -0.3465  0.1207
  642SOL     OW 2565   0.087   0.025   0.504  0.1131  0.3000  0.0654
  642SOL    HW1 2566   0.041   0.092   0.459  0.3124 -3.6052  3.5139
  642SOL    HW2 2567   0.006  -0.018   0.543 -1.4663 -2.1364 -0.6398
  642SOL     MW 2568   0.070   0.028   0.503 -0.0690 -0.5367  0.4274
  643SOL     OW 2569   2.057   0.325   1.702  0.2131 -0.0813 -0.4639
  643SOL    HW1 2570   1.980   0.283   1.737  1.6437  0.7287  0.2805
  643SOL    HW2 2571   2.101   0.250   1.661  1.2710  1.6378  2.0637
  643SOL     MW 2572   2.052   0.310   1.702  0.5414  0.2524 -0.0322
  644SOL     OW 2573   2.676   1.868   0.984 -0.0300  0.4505  0.1881
  644SOL    HW1 2574   2.676   1.801   1.047 -0.1919  2.1221 -0.5801
  644SOL    HW2 2575   2.596   1.919   1.006  0.5323  3.2904  0.0672
  644SOL     MW 2576   2.665   1.866   0.996  0.0229  1.0457  0.0708
  645SOL     OW 2577   2.840   0.816   0.738 -0.3059  0.5711 -0.7440
  645SOL    HW1 2578   2.906   0.753   0.733 -0.5350  1.3496 -0.1555
  645SOL    HW2 2579   2.764   0.766   0.743  0.8155 -0.2863  2.4155
  645SOL     MW 2580   2.839   0.801   0.738 -0.1882  0.5607 -0.2495
  646SOL     OW 2581   0.083   2.311   0.833  0.6219 -0.2936  0.4385
  646SOL    HW1 2582   0.101   2.223   0.863 -0.5983 -0.6192 -1.7554
  646SOL    HW2 2583   0.028   2.315   0.752 -0.5629  0.1094  1.0328
  646SOL     MW 2584   0.078   2.300   0.826  0.3046 -0.2834  0.2275
  647SOL     OW 2585   2.703   0.512   3.013  0.1174  0.1052  0.3574
  647SOL    HW1 2586   2.642   0.447   3.043 -0.5546  1.0294 -0.5437
  647SOL    HW2 2587   2.678   0.596   3.052 -2.1307 -0.1963 -0.1706
  647SOL     MW 2588   2.692   0.515   3.022 -0.2679  0.1874  0.1688
  648SOL     OW 2589   2.266   0.733   1.100  0.4160 -0.7201 -0.6522
  648SOL    HW1 2590   2.286   0.646   1.123  1.8729  1.3247 -0.5397
  648SOL    HW2 2591   2.237   0.776   1.179  1.5259  0.2976  1.1364
  648SOL     MW 2592   2.265   0.728   1.114  0.7546 -0.3160 -0.4014
  649SOL     OW 2593   2.426   2.734   1.261  0.0447  0.1667 -0.9527
  649SOL    HW1 2594   2.509   2.777   1.283  0.1896  1.5933  0.7047
  649SOL    HW2 2595   2.448   2.654   1.206  0.1471 -2.4902  1.0233
  649SOL     MW 2596   2.440   2.729   1.257  0.0774  0.0044 -0.4733
  650SOL     OW 2597   2.765   0.195   0.649  0.0187  0.3454  0.3505
  650SOL    HW1 2598   2.765   0.283   0.682  0.1930  0.8965  0.1220
  650SOL    HW2 2599   2.849   0.197   0.596  0.5869  0.0309  0.2933
  650SOL     MW 2600   2.776   0.207   0.646  0.1167  0.3766  0.3128
  651SOL     OW 2601   3.098   0.457   1.001  0.2457  0.2536  0.3260
  651SOL    HW1 2602   3.156   0.499   0.932 -0.9504 -3.8014 -2.0948
  651SOL    HW2 2603   3.028   0.521   1.015 -2.6076 -0.5905 -0.5795
  651SOL     MW 2604   3.097   0.471   0.993 -0.2886 -0.3928 -0.1129
  652SOL     OW 2605   2.364   1.421   3.000 -1.0895 -0.5728 -0.2153
  652SOL    HW1 2606   2.419   1.456   2.931  1.0109 -0.9307  1.1317
  652SOL    HW2 2607   2.298   1.484   3.011  1.5835 -0.6922 -0.7078
  652SOL     MW 2608   2.363   1.434   2.993 -0.4597 -0.6358 -0.1026
  653SOL     OW 2609   1.783   0.425   0.309 -0.2557 -0.2227 -0.3342
  653SOL    HW1 2610   1.787   0.342   0.261  1.5236 -2.2621 -0.2143
  653SOL    HW2 2611   1.875   0.444   0.314 -0.6174 -1.5495  1.3872
  653SOL     MW 2612   1.796   0.416   0.303 -0.0687 -0.6668 -0.0912
  654SOL     OW 2613   2.423   0.960   0.751 -0.1924 -0.2144 -0.1124
  654SOL    HW1 2614   2.373   0.950   0.665  0.0030 -2.6877  0.2887
  654SOL    HW2 2615   2.487   0.883   0.766 -0.7342 -0.1972 -0.3087
  654SOL     MW 2616   2.425   0.949   0.742 -0.2381 -0.5384 -0.0854
  655SOL     OW 2617   2.900   0.888   0.390  0.6030  0.1939 -0.0075
  655SOL    HW1 2618   2.842   0.929   0.451 -1.8903 -0.1124 -1.5742
  655SOL    HW2 2619   2.933   0.815   0.439 -0.8393  0.6783  1.8592
  655SOL     MW 2620   2.897   0.884   0.404  0.0837  0.2174  0.0321
  656SOL     OW 2621   1.774   2.657   1.379  0.0588  0.3627  0.2081
  656SOL    HW1 2622   1.795   2.750   1.361  0.5996  0.3755 -1.0782
  656SOL    HW2 2623   1.843   2.610   1.336 -0.5092  0.9352  1.2524
  656SOL     MW 2624   1.786   2.663   1.371  0.0552  0.4399  0.1762
  657SOL     OW 2625   0.124   1.774   1.178  0.1832  0.8923  0.6163
  657SOL    HW1 2626   0.207   1.812   1.159 -1.7484 -0.9973 -1.1825
  657SOL    HW2 2627   0.141   1.683   1.205  0.9435 -0.1568  0.7029
  657SOL     MW 2628   0.137   1.767   1.179  0.0287  0.5046  0.3904
  658SOL     OW 2629   2.707   1.330   0.248  0.7751 -0.3607  0.4054
  658SOL    HW1 2630   2.678   1.253   0.297  2.1118  1.2500 -3.4547
  658SOL    HW2 2631   2.720   1.394   0.319  0.7854  1.2660 -0.3467
  658SOL     MW 2632   2.705   1.328   0.264  0.9529  0.0664 -0.2031
  659SOL     OW 2633   2.191   1.548   0.998 -0.1220 -0.1017  0.0044
  659SOL    HW1 2634   2.280   1.523   1.002 -0.6269 -1.5261  0.5504
  659SOL    HW2 2635   2.149   1.526   1.079 -2.2131 -0.9046  2.0674
  659SOL     MW 2636   2.197   1.541   1.009 -0.4645 -0.3956  0.3486
  660SOL     OW 2637   2.096   1.455   1.698 -0.1051 -0.4001 -0.3920
  660SOL    HW1 2638   2.105   1.499   1.785 -0.0342 -0.1115  2.8890
  660SOL    HW2 2639   2.003   1.426   1.694 -2.4736  0.3468 -0.1667
  660SOL     MW 2640   2.085   1.457   1.709 -0.4083 -0.2635  0.0706
  661SOL     OW 2641   2.441   0.975   0.215 -0.7723  0.5766  0.2014
  661SOL    HW1 2642   2.522   1.012   0.254  1.8568  1.2938  0.0579
  661SOL    HW2 2643   2.421   0.893   0.264  0.1062 -2.5685  4.4537
  661SOL     MW 2644   2.449   0.969   0.227 -0.3095  0.2563  0.7435
  662SOL     OW 2645   2.596   2.956   0.867 -0.3989 -0.3666  0.5772
  662SOL    HW1 2646   2.547   3.032   0.896  1.6637 -0.9790 -1.3425
  662SOL    HW2 2647   2.610   2.966   0.770  0.2031  0.4834 -0.2224
  662SOL     MW 2648   2.591   2.968   0.858 -0.0473 -0.3353  0.2184
  663SOL     OW 2649   2.686   1.521   0.442 -0.3129  0.4791 -0.3296
  663SOL    HW1 2650   2.654   1.592   0.380  0.3168  2.7184 -0.2778
  663SOL    HW2 2651   2.759   1.555   0.496  1.5582  1.3760  0.5285
  663SOL     MW 2652   2.691   1.535   0.441  0.0170  0.8929 -0.2096
  664SOL     OW 2653   2.540   1.533   1.617 -0.4879  1.0123 -0.4957
  664SOL    HW1 2654   2.545   1.614   1.570  2.1503 -1.2721 -1.8519
  664SOL    HW2 2655   2.459   1.499   1.604  2.5615 -0.0353 -0.2087
  664SOL     MW 2656   2.530   1.539   1.609  0.2625  0.5727 -0.6368
  665SOL     OW 2657   2.783   0.771   2.086  0.1699 -0.0596 -0.4416
  665SOL    HW1 2658   2.753   0.844   2.025  0.5654  1.3915  1.7394
  665SOL    HW2 2659   2.868   0.745   2.053  1.1368  0.5509 -0.3432
  665SOL     MW 2660   2.790   0.778   2.073  0.3497  0.2124 -0.1409
  666SOL     OW 2661   2.771   3.044   1.710  0.0041 -0.2526 -0.1543
  666SOL    HW1 2662   2.753   3.055   1.619 -2.4772 -0.4792  0.3887
  666SOL    HW2 2663   2.739   2.960   1.740 -1.1571 -0.9291 -2.6451
  666SOL     MW 2664   2.764   3.035   1.702 -0.4765 -0.3718 -0.4113
  667SOL     OW 2665   2.002   2.694   1.752  0.3372 -0.3431  0.7170
  667SOL    HW1 2666   2.018   2.677   1.845  0.4034  0.7522  0.9698
  667SOL    HW2 2667   2.073   2.758   1.734  1.3326  0.0443 -0.0621
  667SOL     MW 2668   2.014   2.700   1.762  0.4772 -0.1475  0.6475
  668SOL     OW 2669   2.750   0.551   0.817  0.3472  0.2527 -0.0828
  668SOL    HW1 2670   2.815   0.580   0.893  0.0968  3.9826  1.9909
  668SOL    HW2 2671   2.673   0.612   0.810  1.5881 -0.4085  1.5091
  668SOL     MW 2672   2.748   0.563   0.826  0.4779  0.6576  0.4008
  669SOL     OW 2673   0.171   0.895   0.781  0.4370  1.0125 -0.3133
  669SOL    HW1 2674   0.162   0.990   0.791  0.0559 -1.2879  0.6716
  669SOL    HW2 2675   0.166   0.845   0.863 -0.3218 -1.4463 -2.6136
  669SOL     MW 2676   0.169   0.901   0.794  0.2866  0.3846 -0.4868
  670SOL     OW 2677   2.900   0.325   0.243 -0.2667  0.0422 -0.6083
  670SOL    HW1 2678   2.920   0.275   0.163 -0.5442  0.1181  0.9375
  670SOL    HW2 2679   2.930   0.416   0.217 -1.0584  0.9811 -2.1124
  670SOL     MW 2680   2.906   0.330   0.229 -0.4078  0.1761 -0.6028
  671SOL     OW 2681   2.003   3.019   1.566 -0.1283  0.2987  0.1305
  671SOL    HW1 2682   1.959   2.961   1.506 -0.4813 -0.9458 -0.0701
  671SOL    HW2 2683   1.947   3.020   1.645 -0.6831 -2.9314 -0.7972
  671SOL     MW 2684   1.990   3.011   1.569 -0.2481 -0.2916 -0.0184
  672SOL     OW 2685   1.804   1.715   1.275 -0.2753  0.9381 -0.0936
  672SOL    HW1 2686   1.802   1.787   1.334  1.4297 -1.1175  2.4577
  672SOL    HW2 2687   1.872   1.730   1.209  0.0969 -0.8915 -0.9979
  672SOL     MW 2688   1.813   1.726   1.274 -0.0012  0.4255  0.1237
  673SOL     OW 2689   2.751   1.050   0.632  0.7714  0.0163  0.1932
  673SOL    HW1 2690   2.797   0.978   0.679 -1.6292 -4.0684  0.2062
  673SOL    HW2 2691   2.813   1.122   0.625 -1.4178 -2.7948 -0.9441
  673SOL     MW 2692   2.766   1.050   0.637  0.1658 -0.8935  0.0449
  674SOL     OW 2693   2.459   3.088   1.270 -0.0198  0.3667 -0.3981
  674SOL    HW1 2694   2.397   3.088   1.194 -0.8915  0.1204  0.9203
  674SOL    HW2 2695   2.502   3.002   1.268  0.5792 -0.8743 -0.5097
  674SOL     MW 2696   2.456   3.076   1.259 -0.0558  0.1705 -0.2389
  675SOL     OW 2697   2.926   0.928   1.036  0.2691  0.3198  0.3113
  675SOL    HW1 2698   3.004   0.931   1.089 -1.2517  1.3528 -1.0725
  675SOL    HW2 2699   2.944   0.989   0.958  0.1218  1.8495  2.4353
  675SOL     MW 2700   2.939   0.937   1.033  0.0490  0.6579  0.4090
  676SOL     OW 2701   2.952   1.428   1.692 -0.1028  0.9789 -0.2454
  676SOL    HW1 2702   2.893   1.362   1.647  0.7069 -2.8566  0.5181
  676SOL    HW2 2703   2.953   1.414   1.784  1.3358 -4.8211 -0.2320
  676SOL     MW 2704   2.944   1.418   1.698  0.1938 -0.2924 -0.1429
  677SOL     OW 2705   2.370   0.547   2.042  0.5420  0.4105  0.0906
  677SOL    HW1 2706   2.341   0.503   1.956 -0.5339 -1.5860  0.6871
  677SOL    HW2 2707   2.353   0.642   2.018  1.0976  1.1825  1.5497
  677SOL     MW 2708   2.364   0.554   2.027  0.4734  0.2489  0.3618
  678SOL     OW 2709   2.478   1.652   0.310  0.1381  0.0597 -0.1129
  678SOL    HW1 2710   2.388   1.654   0.348 -0.3024 -2.2739 -0.3281
  678SOL    HW2 2711   2.465   1.559   0.281 -2.6249 -1.2680 -1.2403
  678SOL     MW 2712   2.464   1.640   0.311 -0.2845 -0.4234 -0.2900
  679SOL     OW 2713   2.221   0.457   1.278 -0.0181 -0.2169 -0.3954
  679SOL    HW1 2714   2.258   0.371   1.295  0.5100 -1.1273  0.0556
  679SOL    HW2 2715   2.128   0.456   1.310  0.3961 -2.2368  2.0910
  679SOL     MW 2716   2.214   0.446   1.284  0.1062 -0.6035 -0.0078
  680SOL     OW 2717   2.317   0.166   1.490 -0.3127  0.0284 -0.5542
  680SOL    HW1 2718   2.231   0.154   1.456  1.1418  0.9287  1.1020
  680SOL    HW2 2719   2.377   0.091   1.467  2.1838 -4.3860  1.0160
  680SOL     MW 2720   2.314   0.154   1.483  0.2086 -0.4353 -0.1285
  681SOL     OW 2721   0.233   0.551   1.519 -0.2777 -0.2843 -1.2046
  681SOL    HW1 2722   0.204   0.473   1.570 -0.5939  1.7480 -1.4737
  681SOL    HW2 2723   0.198   0.546   1.425  1.3389 -1.0045 -3.2273
  681SOL     MW 2724   0.224   0.540   1.513 -0.1061 -0.1112 -1.5070
  682SOL     OW 2725   0.162   2.857   1.536 -0.4793  0.4287 -0.6697
  682SOL    HW1 2726   0.224   2.919   1.573 -0.0548 -0.3097  1.8854
  682SOL    HW2 2727   0.081   2.909   1.531  0.3214  0.5275  2.3746
  682SOL     MW 2728   0.160   2.872   1.540 -0.3176  0.3443  0.0690
  683SOL     OW 2729   2.100   0.826   2.984 -0.0827 -0.3365  0.1967
  683SOL    HW1 2730   2.034   0.759   3.005  0.9731  0.3070 -1.2397
  683SOL    HW2 2731   2.069   0.914   3.010 -3.6017  0.6105 -1.1163
  683SOL     MW 2732   2.087   0.829   2.990 -0.4077 -0.1266 -0.1661
  684SOL     OW 2733   2.189   1.697   0.689  0.1891 -0.2004  0.0205
  684SOL    HW1 2734   2.180   1.685   0.588 -0.3963  0.7875 -0.1136
  684SOL    HW2 2735   2.172   1.608   0.717 -1.3488 -1.2402 -0.6165
  684SOL     MW 2736   2.186   1.684   0.679 -0.0910 -0.2072 -0.0813
  685SOL     OW 2737   2.714   1.658   1.200  0.2065 -0.1920 -0.0233
  685SOL    HW1 2738   2.806   1.675   1.226  2.6220 -1.4048  0.5772
  685SOL    HW2 2739   2.691   1.570   1.237 -2.6989 -0.9857 -1.4379
  685SOL     MW 2740   2.723   1.648   1.208  0.1418 -0.4567 -0.1307
  686SOL     OW 2741   2.872   0.725   1.498  0.0491 -0.2475  0.6357
  686SOL    HW1 2742   2.849   0.681   1.585  1.3849 -1.0159  1.7248
  686SOL    HW2 2743   2.971   0.734   1.497  3.8455  0.0766 -2.0701
  686SOL     MW 2744   2.882   0.721   1.510  0.7263 -0.3061  0.4224
  687SOL     OW 2745   2.133   0.146   1.178  0.3323 -0.4565 -0.2213
  687SOL    HW1 2746   2.197   0.105   1.116 -0.6901  0.9185 -1.3159
  687SOL    HW2 2747   2.075   0.210   1.124 -1.5649 -0.2073 -0.0037
  687SOL     MW 2748   2.134   0.149   1.163 -0.0529 -0.2422 -0.3370
  688SOL     OW 2749   2.404   0.624   1.437 -0.1402 -0.3176 -0.0969
  688SOL    HW1 2750   2.353   0.573   1.379  1.7654  0.8242  1.2820
  688SOL    HW2 2751   2.336   0.660   1.493 -0.5320 -1.4914 -1.5008
  688SOL     MW 2752   2.388   0.622   1.437  0.0595 -0.3218 -0.1002
  689SOL     OW 2753   2.494   0.718   2.968  0.0838  0.3202  0.7360
  689SOL    HW1 2754   2.439   0.795   2.948  0.4490 -0.9587 -0.4426
  689SOL    HW2 2755   2.553   0.738   3.043  1.1481  4.7785 -2.8834
  689SOL     MW 2756   2.494   0.730   2.976  0.2724  0.7397  0.1029
  690SOL     OW 2757   2.056   0.892   1.860 -0.3551 -0.4125  0.6056
  690SOL    HW1 2758   2.031   0.802   1.867  2.1957  0.3176  1.3599
  690SOL    HW2 2759   2.058   0.911   1.763  0.4921 -0.9255  1.0637
  690SOL     MW 2760   2.053   0.883   1.848  0.0932 -0.3838  0.7655
  691SOL     OW 2761   2.413   0.225   0.835 -0.1488 -0.1261  0.0733
  691SOL    HW1 2762   2.498   0.257   0.863 -2.0738 -1.5538  0.1511
  691SOL    HW2 2763   2.351   0.282   0.873  1.6593  0.3393  0.5666
  691SOL     MW 2764   2.416   0.236   0.843 -0.1642 -0.2531  0.1487
  692SOL     OW 2765   2.906   1.606   1.458 -0.7278  0.1427 -0.8941
  692SOL    HW1 2766   2.898   1.564   1.547 -1.2680 -0.1985  0.5368
  692SOL    HW2 2767   2.882   1.695   1.472  2.4390 -1.7080 -1.8835
  692SOL     MW 2768   2.901   1.612   1.471 -0.3812 -0.1465 -0.8358
  693SOL     OW 2769   2.315   0.438   0.119  0.5572  0.4897  0.0179
  693SOL    HW1 2770   2.245   0.376   0.103 -0.6018  1.0299 -0.6779
  693SOL    HW2 2771   2.283   0.522   0.083  0.8897 -0.7571  0.2885
  693SOL     MW 2772   2.302   0.441   0.112  0.4482  0.3965 -0.0382
  694SOL     OW 2773   1.912   1.121   1.054 -0.0409 -0.5141 -0.3195
  694SOL    HW1 2774   1.993   1.128   1.114 -2.2087  0.2662  0.7459
  694SOL    HW2 2775   1.849   1.072   1.107 -0.4971 -0.9569  0.5250
  694SOL     MW 2776   1.914   1.115   1.069 -0.3871 -0.4695 -0.0675
  695SOL     OW 2777   3.003   1.405   1.266  0.4801 -0.9943  0.1041
  695SOL    HW1 2778   2.985   1.427   1.173  0.4282  1.2114 -0.1153
  695SOL    HW2 2779   2.986   1.490   1.321  0.2875 -0.1754  0.8382
  695SOL     MW 2780   2.998   1.419   1.261  0.4478 -0.5952  0.1720
  696SOL     OW 2781   2.097   1.426   0.784  0.0009  0.5584 -0.2510
  696SOL    HW1 2782   2.126   1.470   0.863  0.3331  0.8764  1.8933
  696SOL    HW2 2783   2.073   1.331   0.802  1.5807 -0.4647 -0.9948
  696SOL     MW 2784   2.098   1.420   0.797  0.2532  0.4654 -0.0662
  697SOL     OW 2785   2.858   0.994   2.247  0.1016 -0.6001  0.6694
  697SOL    HW1 2786   2.801   1.071   2.216 -2.5573  3.0166  2.7812
  697SOL    HW2 2787   2.806   0.913   2.223 -1.3111  0.1832 -3.3629
  697SOL     MW 2788   2.843   0.993   2.240 -0.4356 -0.0196  0.4160
  698SOL     OW 2789   2.527   0.334   0.014  0.4318 -0.1182 -0.1875
  698SOL    HW1 2790   2.447   0.387   0.042 -0.0860 -0.9887 -0.8497
  698SOL    HW2 2791   2.558   0.289   0.095  1.9433 -5.2534  1.0513
  698SOL     MW 2792   2.521   0.335   0.029  0.5629 -0.9106 -0.1114
  699SOL     OW 2793   1.883   1.620   2.080  0.0926 -0.4150  0.2327
  699SOL    HW1 2794   1.840   1.535   2.066 -1.5139  1.6386  7.2708
  699SOL    HW2 2795   1.972   1.593   2.062 -0.5733  3.7045  0.6681
  699SOL     MW 2796   1.889   1.605   2.075 -0.2072  0.3995  1.2187
  700SOL     OW 2797   2.679   0.901   1.599 -0.3764 -0.1942 -0.1084
  700SOL    HW1 2798   2.695   0.985   1.550  3.9950  2.3136  1.1136
  700SOL    HW2 2799   2.739   0.840   1.549 -2.0204 -0.5478 -3.2024
  700SOL     MW 2800   2.689   0.904   1.586 -0.0165  0.0900 -0.3554
  701SOL     OW 2801   1.705   1.169   2.485  0.2595  0.0588  0.4605
  701SOL    HW1 2802   1.787   1.139   2.530 -0.9591 -3.7374  0.5650
  701SOL    HW2 2803   1.677   1.231   2.555 -0.6580 -1.4783  0.9110
  701SOL     MW 2804   1.712   1.173   2.500 -0.0223 -0.6449  0.5337
  702SOL     OW 2805   2.148   0.420   0.837 -0.3951 -0.1755  0.4183
  702SOL    HW1 2806   2.115   0.350   0.779 -0.8618 -3.1067  0.2186
  702SOL    HW2 2807   2.217   0.470   0.789 -2.6559 -1.2807 -0.7471
  702SOL     MW 2808   2.153   0.417   0.823 -0.7550 -0.7080  0.2382
  703SOL     OW 2809   2.721   1.256   1.022  0.3816  0.1336 -0.6265
  703SOL    HW1 2810   2.662   1.247   0.945 -1.5113  1.6397  0.6762
  703SOL    HW2 2811   2.706   1.167   1.064 -2.2634 -0.0609 -0.0136
  703SOL     MW 2812   2.711   1.243   1.018 -0.2172  0.3066 -0.3737
  704SOL     OW 2813   3.036   1.270   0.128 -0.1949  0.3603  0.1292
  704SOL    HW1 2814   2.949   1.244   0.101  1.6579  1.3335  1.7449
  704SOL    HW2 2815   3.040   1.273   0.226 -0.5048 -0.3909  1.9017
  704SOL     MW 2816   3.025   1.267   0.138  0.0087  0.3896  0.5762
  705SOL     OW 2817   2.189   1.633   1.289 -0.2247  0.0030 -0.7113
  705SOL    HW1 2818   2.132   1.671   1.361 -0.0085  0.4504  1.3036
  705SOL    HW2 2819   2.204   1.544   1.310  0.8688  0.6551 -1.5552
  705SOL     MW 2820   2.184   1.627   1.301 -0.0519  0.1481 -0.5568
  706SOL     OW 2821   2.932   1.266   0.640 -0.1332  0.2756 -0.4541
  706SOL    HW1 2822   3.001   1.241   0.582 -1.0486 -3.3021  1.4649
  706SOL    HW2 2823   2.915   1.365   0.640  0.6350 -2.0610  0.6095
  706SOL     MW 2824   2.939   1.276   0.632 -0.1526 -0.5047 -0.0606
  707SOL     OW 2825   2.332   0.039   1.033  0.0722  0.1722 -0.1194
  707SOL    HW1 2826   2.344   0.109   0.973  0.3935 -2.8263 -0.2002
  707SOL    HW2 2827   2.276  -0.031   0.989  1.9069 -0.6206 -2.6405
  707SOL     MW 2828   2.326   0.039   1.020  0.3566 -0.3280 -0.4627
  708SOL     OW 2829   2.428   1.402   0.192 -0.1233 -0.0378 -0.0986
  708SOL    HW1 2830   2.519   1.374   0.212  0.5855 -0.2302  0.8210
  708SOL    HW2 2831   2.431   1.443   0.103  2.8618 -1.2339  0.1174
  708SOL     MW 2832   2.441   1.403   0.183  0.3641 -0.2210  0.0512
  709SOL     OW 2833   1.753   1.637   0.223 -0.8088 -0.4067 -0.3624
  709SOL    HW1 2834   1.757   1.663   0.130 -0.5283 -0.4560 -1.5046
  709SOL    HW2 2835   1.666   1.637   0.255 -0.7575 -0.0277 -0.5246
  709SOL     MW 2836   1.742   1.640   0.215 -0.7651 -0.3632 -0.5345
  710SOL     OW 2837   2.157   1.138   1.195 -0.5179  1.1289 -0.9485
  710SOL    HW1 2838   2.187   1.145   1.103  0.8420 -1.5095  0.6966
  710SOL    HW2 2839   2.193   1.063   1.242  1.2520  0.1761  2.3198
  710SOL     MW 2840   2.166   1.129   1.189 -0.1049  0.6551 -0.3002
  711SOL     OW 2841   2.334   0.084   1.763  0.1138  0.1374  0.4546
  711SOL    HW1 2842   2.427   0.095   1.801 -0.4567  0.0854  1.2112
  711SOL    HW2 2843   2.336   0.128   1.679 -1.8197  0.1433  0.9443
  711SOL     MW 2844   2.347   0.091   1.757 -0.2166  0.1313  0.6191
  712SOL     OW 2845   1.942   0.634   3.069 -0.3535  0.0669 -0.3553
  712SOL    HW1 2846   1.849   0.638   3.052  1.3985  1.6782  2.0747
  712SOL    HW2 2847   1.951   0.647   3.167  1.2612  0.1315  0.4675
  712SOL     MW 2848   1.931   0.636   3.080  0.0907  0.2880  0.0738
  713SOL     OW 2849   2.547   0.725   1.087 -0.3500 -0.5147 -0.0603
  713SOL    HW1 2850   2.565   0.644   1.128 -1.1068  0.8457  0.0758
  713SOL    HW2 2851   2.453   0.738   1.086 -2.5602  1.0081  3.4487
  713SOL     MW 2852   2.537   0.716   1.092 -0.7415 -0.1343  0.4206
  714SOL     OW 2853   2.189   0.154   2.010 -0.0372  0.3587 -0.0436
  714SOL    HW1 2854   2.251   0.136   2.085  0.7805  1.3328  0.0881
  714SOL    HW2 2855   2.242   0.139   1.927  2.2027  0.9546 -0.6537
  714SOL     MW 2856   2.204   0.150   2.009  0.3662  0.5658 -0.1067
  715SOL     OW 2857   1.830   2.041   1.732  0.1050  0.3826 -0.0738
  715SOL    HW1 2858   1.919   2.074   1.724 -2.1915 -1.2461  0.8322
  715SOL    HW2 2859   1.834   1.968   1.799 -0.4718 -1.3682  0.3066
  715SOL     MW 2860   1.842   2.036   1.740 -0.2741 -0.0633  0.0959
  716SOL     OW 2861   2.333   0.551   0.695 -0.1543 -0.2551 -1.1062
  716SOL    HW1 2862   2.369   0.473   0.652 -0.7617 -0.6596  3.3886
  716SOL    HW2 2863   2.290   0.612   0.634 -1.2518  0.8402 -1.0505
  716SOL     MW 2864   2.332   0.549   0.681 -0.3792 -0.1639 -0.5058
  717SOL     OW 2865   2.807   1.650   2.884  0.0506 -0.2831 -0.1172
  717SOL    HW1 2866   2.866   1.633   2.952 -1.5423  0.0463 -0.5429
  717SOL    HW2 2867   2.776   1.736   2.928  1.9989  2.0702  0.3976
  717SOL     MW 2868   2.811   1.659   2.899  0.0975  0.0709 -0.1055
  718SOL     OW 2869   2.665   1.408   1.314 -0.4689 -0.1149 -0.4603
  718SOL    HW1 2870   2.667   1.421   1.406 -0.2514  1.8931 -1.4567
  718SOL    HW2 2871   2.746   1.355   1.302  0.7165  0.1278  0.9346
  718SOL     MW 2872   2.676   1.403   1.324 -0.2838  0.1821 -0.4077
  719SOL     OW 2873   2.171   1.236   0.565 -0.0848 -0.2962  0.0724
  719SOL    HW1 2874   2.236   1.275   0.503  0.0787 -1.5567  2.0295
  719SOL    HW2 2875   2.190   1.289   0.644  2.5494 -0.6446  4.2218
  719SOL     MW 2876   2.182   1.248   0.567  0.2843 -0.5085  0.8781
  720SOL     OW 2877   2.799   1.171   0.044 -0.5544 -0.6183  0.2752
  720SOL    HW1 2878   2.799   1.083   0.084  1.3099 -0.4871  0.2627
  720SOL    HW2 2879   2.774   1.241   0.110  0.9930 -0.5977 -0.1415
  720SOL     MW 2880   2.796   1.169   0.058 -0.1043 -0.5983  0.2186
  721SOL     OW 2881   2.491   0.882   1.425  0.3739 -0.2235  0.2327
  721SOL    HW1 2882   2.480   0.789   1.412  0.6322  0.3302  0.8303
  721SOL    HW2 2883   2.550   0.894   1.495 -1.6120 -0.4486 -0.0589
  721SOL     MW 2884   2.497   0.872   1.433  0.1460 -0.1802  0.2731
  722SOL     OW 2885   2.597   1.119   0.394 -0.0866 -0.1830 -1.1883
  722SOL    HW1 2886   2.540   1.179   0.430  1.1322 -1.2701 -1.7533
  722SOL    HW2 2887   2.655   1.093   0.466  2.0909 -0.0265 -1.5819
  722SOL     MW 2888   2.597   1.124   0.408  0.3615 -0.3058 -1.3148
  723SOL     OW 2889   2.327   1.356   1.599 -0.0207  0.2693  0.2545
  723SOL    HW1 2890   2.305   1.353   1.507 -1.7037  1.4528 -0.2406
  723SOL    HW2 2891   2.258   1.418   1.631  0.1986  1.8813 -3.6200
  723SOL     MW 2892   2.315   1.364   1.591 -0.2138  0.6381 -0.3220
  724SOL     OW 2893   2.461   0.333   0.572  0.1253 -0.5062  0.3797
  724SOL    HW1 2894   2.443   0.251   0.614  2.4579  1.2083  0.6164
  724SOL    HW2 2895   2.551   0.320   0.548 -1.3255  0.9213 -0.1893
  724SOL     MW 2896   2.471   0.321   0.574  0.2416 -0.0916  0.3359
  725SOL     OW 2897   2.596   0.409   1.228  0.2929 -0.2692 -0.0579
  725SOL    HW1 2898   2.684   0.442   1.242  0.5590 -0.0196  0.1808
  725SOL    HW2 2899   2.541   0.452   1.292 -0.1669 -0.8644  1.5033
  725SOL     MW 2900   2.600   0.419   1.238  0.2673 -0.3148  0.1796
  726SOL     OW 2901   2.521   2.502   0.515 -0.2324  0.2884  0.2279
  726SOL    HW1 2902   2.481   2.586   0.511 -0.6230  0.2398  1.6479
  726SOL    HW2 2903   2.522   2.464   0.606 -0.4292 -3.0692 -0.5894
  726SOL     MW 2904   2.516   2.508   0.526 -0.3099 -0.1610  0.3074
  727SOL     OW 2905   2.863   0.339   1.782 -0.2115 -0.1305 -0.1618
  727SOL    HW1 2906   2.806   0.296   1.719 -2.1661 -0.1797  1.0085
  727SOL    HW2 2907   2.810   0.337   1.870  1.3664  0.5733  0.8510
  727SOL     MW 2908   2.848   0.333   1.785 -0.2612 -0.0441  0.1262
  728SOL     OW 2909   2.835   1.143   2.870 -0.2210  0.1704 -0.4139
  728SOL    HW1 2910   2.839   1.211   2.795  1.7617 -1.6362 -0.7666
  728SOL    HW2 2911   2.823   1.184   2.954  2.4717 -0.7050 -1.4588
  728SOL     MW 2912   2.834   1.157   2.871  0.3959 -0.1835 -0.5983
  729SOL     OW 2913   2.458   1.467   1.155  0.3137 -0.0789  0.6033
  729SOL    HW1 2914   2.526   1.443   1.218  0.7053 -1.2721 -0.9198
  729SOL    HW2 2915   2.504   1.480   1.071  1.4501  2.9849  1.2416
  729SOL     MW 2916   2.473   1.466   1.152  0.5153  0.1679  0.4866
  730SOL     OW 2917   2.283   1.194   0.286 -0.3354 -0.1394  0.1478
  730SOL    HW1 2918   2.353   1.132   0.250  2.0983 -3.2315 -0.6952
  730SOL    HW2 2919   2.311   1.282   0.264  0.1810  1.7700  0.3250
  730SOL     MW 2920   2.296   1.197   0.278  0.0538 -0.2955  0.0600
  731SOL     OW 2921   2.795   2.064   2.884 -0.1178 -0.0137 -0.5367
  731SOL    HW1 2922   2.734   2.036   2.820 -1.2458  0.0906 -0.4937
  731SOL    HW2 2923   2.879   2.049   2.837 -0.5419 -0.5347 -0.3727
  731SOL     MW 2924   2.798   2.058   2.869 -0.3226 -0.0687 -0.5094
  732SOL     OW 2925   2.235   0.903   1.342  0.1131  0.4420 -0.0939
  732SOL    HW1 2926   2.190   0.935   1.418  1.7564  1.3146 -0.4182
  732SOL    HW2 2927   2.331   0.890   1.366  2.0794 -0.1010  2.0081
  732SOL     MW 2928   2.242   0.905   1.355  0.5894  0.4855  0.1406
  733SOL     OW 2929   2.427   2.822   3.016  0.4558  0.0206  0.3890
  733SOL    HW1 2930   2.339   2.866   3.003  0.6176  1.8396  2.6553
  733SOL    HW2 2931   2.397   2.731   3.032  2.0515 -0.2928 -0.5354
  733SOL     MW 2932   2.411   2.816   3.016  0.6877  0.2192  0.5660
  734SOL     OW 2933   1.496   0.302   2.530  0.4567 -0.1903  0.6089
  734SOL    HW1 2934   1.450   0.255   2.601 -0.3466 -0.2768  2.5209
  734SOL    HW2 2935   1.513   0.242   2.456 -2.5143 -2.2394 -1.1796
  734SOL     MW 2936   1.492   0.288   2.529 -0.0413 -0.4721  0.6252
  735SOL     OW 2937   2.935   0.899   2.613  0.3176  0.1926  0.3532
  735SOL    HW1 2938   2.932   0.805   2.630  0.6497  1.1436  1.8603
  735SOL    HW2 2939   2.968   0.925   2.699  1.5611 -2.5528  0.1629
  735SOL     MW 2940   2.939   0.890   2.626  0.5255 -0.0442  0.5269
  736SOL     OW 2941   0.085   0.621   2.555  0.0369  0.5267  0.4994
  736SOL    HW1 2942   0.111   0.681   2.483 -0.0957 -0.3105 -0.6531
  736SOL    HW2 2943   0.066   0.539   2.506 -0.5920  0.4537  4.4378
  736SOL     MW 2944   0.086   0.618   2.539 -0.0636  0.4066  0.8670
  737SOL     OW 2945   2.921   0.616   2.656 -0.1584  0.7581  0.0118
  737SOL    HW1 2946   2.884   0.577   2.575  0.5388 -1.1205 -1.9821
  737SOL    HW2 2947   3.015   0.607   2.655 -0.1494  0.0408 -1.4935
  737SOL     MW 2948   2.928   0.609   2.645 -0.0652  0.4156 -0.4499
  738SOL     OW 2949   0.204   0.594   1.928  0.0462  0.0824 -0.3426
  738SOL    HW1 2950   0.294   0.623   1.918  0.1153  2.6225  1.5031
  738SOL    HW2 2951   0.195   0.514   1.875  2.2258 -0.5000 -0.9453
  738SOL     MW 2952   0.215   0.588   1.920  0.3429  0.3407 -0.1786
  739SOL     OW 2953   2.487   1.012   2.065  0.0329  0.2930 -0.2500
  739SOL    HW1 2954   2.483   0.917   2.040  0.0675 -1.3757  0.0864
  739SOL    HW2 2955   2.480   1.065   1.981  1.9239  1.2255 -0.3725
  739SOL     MW 2956   2.485   1.007   2.051  0.2870  0.1958 -0.2218
  740SOL     OW 2957   0.178   1.759   2.914 -0.1383  0.8565  0.1610
  740SOL    HW1 2958   0.129   1.679   2.926 -2.0150  1.2405 -1.4451
  740SOL    HW2 2959   0.270   1.751   2.944 -1.0234  1.4109  1.1436
  740SOL     MW 2960   0.184   1.747   2.919 -0.5027  0.9803  0.0787
  741SOL     OW 2961   2.183   1.219   2.692  0.1951 -0.5368  0.4183
  741SOL    HW1 2962   2.135   1.276   2.628  1.5600 -0.5956  0.4353
  741SOL    HW2 2963   2.145   1.220   2.781  1.5338 -3.4259  1.8578
  741SOL     MW 2964   2.172   1.227   2.695  0.5518 -0.9257  0.6105
  742SOL     OW 2965   1.672   1.248   2.213  0.6719  0.2549 -0.4082
  742SOL    HW1 2966   1.587   1.203   2.190 -1.3015  1.4879 -0.6597
  742SOL    HW2 2967   1.691   1.204   2.297  1.1197  0.3130  0.6442
  742SOL     MW 2968   1.664   1.236   2.221  0.4706  0.4253 -0.3025
  743SOL     OW 2969   2.476   1.263   2.728  0.2704 -0.4443 -0.2686
  743SOL    HW1 2970   2.386   1.236   2.734  2.7715 -0.0997  2.2590
  743SOL    HW2 2971   2.511   1.187   2.773  2.2574 -2.5240  3.0228
  743SOL     MW 2972   2.469   1.250   2.735  0.8626 -0.6732  0.4991
  744SOL     OW 2973   2.759   0.930   1.865  0.5657 -0.1602 -0.4400
  744SOL    HW1 2974   2.709   1.010   1.867  2.6349 -1.9021  0.4656
  744SOL    HW2 2975   2.722   0.902   1.781  1.3665 -0.5414 -0.2527
  744SOL     MW 2976   2.748   0.937   1.854  0.9444 -0.4403 -0.2958
  745SOL     OW 2977   1.750   0.416   2.515 -0.1426  0.4554 -0.3531
  745SOL    HW1 2978   1.717   0.460   2.435  2.1401  1.8848  0.0237
  745SOL    HW2 2979   1.673   0.365   2.541 -0.4151  1.7165 -0.3015
  745SOL     MW 2980   1.735   0.415   2.508  0.1226  0.8104 -0.2966
  746SOL     OW 2981   1.600   1.480   1.652  0.2118 -0.2612 -0.2773
  746SOL    HW1 2982   1.690   1.438   1.643  2.6552  2.6696  0.7973
  746SOL    HW2 2983   1.578   1.451   1.739  3.3366 -1.2707 -0.5778
  746SOL     MW 2984   1.609   1.470   1.662  0.9464 -0.0077 -0.1752
  747SOL     OW 2985   2.585   1.137   1.805 -0.0017  0.1453 -0.0146
  747SOL    HW1 2986   2.494   1.124   1.771 -4.5261 -1.4587  4.0332
  747SOL    HW2 2987   2.593   1.227   1.847  1.2367  1.5828 -0.9604
  747SOL     MW 2988   2.574   1.147   1.806 -0.4352  0.1233  0.3947
  748SOL     OW 2989   0.090   0.012   1.889 -0.1640 -0.5387  0.3712
  748SOL    HW1 2990   0.173   0.049   1.856 -0.4774  1.0070  1.3429
  748SOL    HW2 2991   0.090   0.033   1.977 -1.4019 -1.5208 -1.4073
  748SOL     MW 2992   0.101   0.020   1.896 -0.3686 -0.4643  0.2647
  749SOL     OW 2993   2.500   0.596   2.720 -0.2731  0.8335  0.1928
  749SOL    HW1 2994   2.527   0.678   2.673 -1.2916  1.1366 -1.0256
  749SOL    HW2 2995   2.509   0.626   2.815 -1.4002  0.5669  0.3259
  749SOL     MW 2996   2.505   0.611   2.726 -0.5562  0.8383  0.0496
  750SOL     OW 2997   2.049   3.029   1.966  0.4347  0.2779 -0.1081
  750SOL    HW1 2998   2.103   3.108   1.982  1.6483  1.3858 -1.1035
  750SOL    HW2 2999   2.123   2.963   1.963  2.4291 -0.8241 -0.5997
  750SOL     MW 3000   2.066   3.031   1.968  0.8579  0.2787 -0.3043
  751SOL     OW 3001   0.049   0.422   2.358  0.3331 -0.6615  0.1469
  751SOL    HW1 3002   0.037   0.334   2.398  0.0780 -1.5143  0.6392
  751SOL    HW2 3003   0.123   0.413   2.302  1.4557  0.2127  1.4756
  751SOL     MW 3004   0.057   0.409   2.356  0.4476 -0.6587  0.3871
  752SOL     OW 3005   2.133   0.751   2.722  0.0548 -0.4376 -0.0201
  752SOL    HW1 3006   2.190   0.815   2.678 -0.8900  0.7064 -1.4614
  752SOL    HW2 3007   2.133   0.786   2.812 -2.0820  0.9021 -0.5472
  752SOL     MW 3008   2.140   0.764   2.728 -0.3518 -0.1099 -0.2798
  753SOL     OW 3009   2.908   0.250   2.449  0.0411 -0.6004  0.3009
  753SOL    HW1 3010   2.886   0.186   2.380 -0.1577 -3.4537 -2.4685
  753SOL    HW2 3011   2.863   0.333   2.446 -0.0581 -4.2138 -0.6412
  753SOL     MW 3012   2.899   0.253   2.440  0.0018 -1.4536 -0.1888
  754SOL     OW 3013   2.275   2.983   2.597 -0.1945  0.1267 -0.1897
  754SOL    HW1 3014   2.291   2.960   2.509  1.5312 -1.9564 -0.6695
  754SOL    HW2 3015   2.352   2.932   2.637  2.2364 -2.7911 -1.4111
  754SOL     MW 3016   2.287   2.974   2.591  0.3539 -0.5331 -0.4142
  755SOL     OW 3017   2.731   1.520   2.469  0.7325 -0.3413 -0.2999
  755SOL    HW1 3018   2.732   1.430   2.503 -0.4538 -2.2242 -0.3470
  755SOL    HW2 3019   2.793   1.573   2.526 -1.1775  0.3478 -1.6018
  755SOL     MW 3020   2.739   1.515   2.481  0.3240 -0.4988 -0.4779
  756SOL     OW 3021   2.204   1.191   2.998 -0.4836  0.3688 -0.5676
  756SOL    HW1 3022   2.265   1.267   2.988 -1.1150  0.1724  2.5958
  756SOL    HW2 3023   2.260   1.115   3.016  0.7213  1.0424  0.3090
  756SOL     MW 3024   2.220   1.191   2.999 -0.4079  0.4318 -0.0345
  757SOL     OW 3025   2.104   0.932   1.593 -0.7412 -0.6647  0.1868
  757SOL    HW1 3026   2.123   0.838   1.602  0.0624 -0.2447 -1.4472
  757SOL    HW2 3027   2.016   0.929   1.548  0.4775 -0.5584  1.1619
  757SOL     MW 3028   2.095   0.919   1.588 -0.4743 -0.5952  0.0998
  758SOL     OW 3029   2.218   1.769   2.658  0.6019  1.0001 -0.3514
  758SOL    HW1 3030   2.210   1.807   2.570  1.7376  3.8817  2.4768
  758SOL    HW2 3031   2.315   1.744   2.686 -2.1456  1.8076 -0.8255
  758SOL     MW 3032   2.230   1.771   2.650  0.3892  1.4869 -0.0408
  759SOL     OW 3033   1.589   1.352   2.666 -0.6669 -0.0252 -0.0916
  759SOL    HW1 3034   1.581   1.440   2.624  0.2675 -0.0720 -1.8000
  759SOL    HW2 3035   1.635   1.365   2.748 -0.9527  0.3921  0.5805
  759SOL     MW 3036   1.594   1.365   2.671 -0.5813  0.0237 -0.2283
  760SOL     OW 3037   2.601   1.991   2.709 -0.4951  0.6347 -0.0981
  760SOL    HW1 3038   2.565   1.911   2.675  0.8710  0.9875 -2.3511
  760SOL    HW2 3039   2.592   2.048   2.629  0.2671 -0.5486 -0.1292
  760SOL     MW 3040   2.595   1.988   2.694 -0.2143  0.5251 -0.3995
  761SOL     OW 3041   2.188   0.364   2.436 -0.2547  0.4933  0.0040
  761SOL    HW1 3042   2.113   0.306   2.424  2.9848  0.1211 -0.5631
  761SOL    HW2 3043   2.187   0.397   2.527 -1.3772 -2.5264 -0.1869
  761SOL     MW 3044   2.178   0.361   2.446  0.0246  0.0458 -0.0960
  762SOL     OW 3045   0.075   0.187   2.128  0.5108  0.3954  0.6972
  762SOL    HW1 3046   0.054   0.130   2.201  0.4176 -0.0318  3.5976
  762SOL    HW2 3047   0.012   0.258   2.120 -2.9644  0.5494  0.0111
  762SOL     MW 3048   0.064   0.189   2.137  0.0400  0.3593  0.9894
  763SOL     OW 3049   2.369   1.016   2.340 -0.4694 -0.4668  0.8575
  763SOL    HW1 3050   2.401   1.003   2.252 -2.4196  0.7403 -0.8356
  763SOL    HW2 3051   2.415   1.097   2.381 -2.1232  0.3614 -0.2688
  763SOL     MW 3052   2.379   1.025   2.334 -0.9449 -0.1983  0.4855
  764SOL     OW 3053   0.449   0.246   2.799  0.4335 -0.4473  0.7000
  764SOL    HW1 3054   0.377   0.200   2.765  3.0210  0.9244 -1.0721
  764SOL    HW2 3055   0.411   0.329   2.815 -1.1677  0.5943 -3.1105
  764SOL     MW 3056   0.434   0.251   2.797  0.5636 -0.1289 -0.0365
  765SOL     OW 3057   2.768   0.042   2.331  0.2678 -0.4668  0.2304
  765SOL    HW1 3058   2.703   0.030   2.252 -1.1424  1.1514  0.9006
  765SOL    HW2 3059   2.802  -0.047   2.350  1.1718  0.9947  2.5271
  765SOL     MW 3060   2.764   0.028   2.323  0.2010 -0.0605  0.6218
  766SOL     OW 3061   1.853   2.985   2.141  0.0227  0.2699  0.0249
  766SOL    HW1 3062   1.919   2.992   2.078  0.8588 -1.9282  2.4559
  766SOL    HW2 3063   1.787   2.922   2.110 -0.1512 -0.6823 -2.7931
  766SOL     MW 3064   1.853   2.977   2.129  0.1100 -0.1458 -0.0261
  767SOL     OW 3065   2.627   0.588   1.945 -0.6663 -0.4154  0.7911
  767SOL    HW1 3066   2.664   0.655   2.003  3.2127 -0.7872  0.4438
  767SOL    HW2 3067   2.536   0.583   1.983  0.4571 -0.5050  4.7613
  767SOL     MW 3068   2.620   0.596   1.958 -0.0063 -0.4763  1.2691
  768SOL     OW 3069   0.002   1.547   2.941 -0.3199 -0.6195 -0.1069
  768SOL    HW1 3070   0.031   1.516   3.026  0.4606 -0.6531  1.1289
  768SOL    HW2 3071   0.010   1.471   2.891  0.6204  3.3892 -0.2631
  768SOL     MW 3072   0.007   1.533   2.945 -0.0929 -0.0950  0.0355
  769SOL     OW 3073   2.458   0.668   2.347  0.0038  0.6671  0.2562
  769SOL    HW1 3074   2.372   0.645   2.310 -2.6340 -0.8268  0.9704
  769SOL    HW2 3075   2.521   0.606   2.315  0.2432  2.0449  3.6022
  769SOL     MW 3076   2.455   0.657   2.338 -0.3127  0.6518  0.7919
  770SOL     OW 3077   0.091   1.601   2.613 -0.1371  0.2328 -0.2470
  770SOL    HW1 3078  -0.009   1.617   2.610  1.3437  0.9650 -0.2300
  770SOL    HW2 3079   0.092   1.524   2.667  1.8402  0.5762  1.4914
  770SOL     MW 3080   0.078   1.593   2.620  0.3192  0.3747 -0.0154
  771SOL     OW 3081   3.052   0.655   2.006  0.2566  0.3119  0.4832
  771SOL    HW1 3082   3.023   0.663   1.920  0.9829 -0.2734  0.1679
  771SOL    HW2 3083   3.147   0.632   1.986 -1.4885  0.6901  2.6148
  771SOL     MW 3084   3.061   0.653   1.992  0.1222  0.2846  0.7229
  772SOL     OW 3085   3.093   0.023   2.333  0.4109 -0.0362 -0.6292
  772SOL    HW1 3086   3.027  -0.039   2.358  2.6357 -0.5431  0.6741
  772SOL    HW2 3087   3.159  -0.039   2.301 -1.5015 -0.1122  1.6748
  772SOL     MW 3088   3.093   0.007   2.332  0.4521 -0.1131 -0.1533
  773SOL     OW 3089   2.459   2.844   2.724 -0.5496 -0.4029 -0.1195
  773SOL    HW1 3090   2.444   2.767   2.673 -1.0440  1.3572  0.0349
  773SOL    HW2 3091   2.461   2.819   2.818  1.3940 -0.2201  0.2739
  773SOL     MW 3092   2.457   2.830   2.730 -0.3584 -0.1465 -0.0473
  774SOL     OW 3093   2.302   1.117   1.725 -0.3415 -0.8913  0.8686
  774SOL    HW1 3094   2.313   1.189   1.662  1.3474 -0.4800 -0.2331
  774SOL    HW2 3095   2.241   1.058   1.694 -0.1457 -0.1821  0.4543
  774SOL     MW 3096   2.296   1.119   1.713 -0.0928 -0.7435  0.6686
  775SOL     OW 3097   2.266   2.890   2.321 -0.2924 -0.4980  0.2561
  775SOL    HW1 3098   2.302   2.964   2.271  0.7552  0.8940  2.5812
  775SOL    HW2 3099   2.316   2.808   2.300 -0.4294  0.1186  1.6378
  775SOL     MW 3100   2.277   2.889   2.312 -0.1723 -0.2330  0.7452
  776SOL     OW 3101   0.108   1.469   0.104  0.2475 -0.0936 -0.0993
  776SOL    HW1 3102   0.196   1.428   0.113 -5.5485  1.6592  3.1259
  776SOL    HW2 3103   0.036   1.403   0.112  0.0224  1.2949 -0.2074
  776SOL     MW 3104   0.110   1.455   0.106 -0.5469  0.3209  0.3120
  777SOL     OW 3105   2.936   1.122   1.771 -0.4569  0.8687 -0.1634
  777SOL    HW1 3106   2.857   1.164   1.738 -2.7056  1.4782  2.9658
  777SOL    HW2 3107   2.911   1.033   1.809  0.3325 -1.6030 -0.4837
  777SOL     MW 3108   2.922   1.115   1.772 -0.6494  0.6230  0.2072
  778SOL     OW 3109   2.881   0.416   2.833 -0.1991  0.2214 -0.1515
  778SOL    HW1 3110   2.831   0.451   2.912  0.3342 -0.4164 -1.2892
  778SOL    HW2 3111   2.896   0.498   2.779 -0.6626  1.6116 -0.9424
  778SOL     MW 3112   2.876   0.431   2.837 -0.1899  0.3207 -0.4060
  779SOL     OW 3113   2.157   0.618   2.340 -0.1594  0.0450 -0.0413
  779SOL    HW1 3114   2.092   0.655   2.392  8.2094  1.4093 -0.1554
  779SOL    HW2 3115   2.171   0.530   2.372  0.3069 -0.0664 -2.2648
  779SOL     MW 3116   2.150   0.612   2.351  1.0063  0.2103 -0.3497
  780SOL     OW 3117   0.233   0.091   2.747 -0.3766  0.2493 -0.1882
  780SOL    HW1 3118   0.160   0.137   2.787  0.4851  0.0695 -0.2158
  780SOL    HW2 3119   0.209   0.078   2.658  0.7045 -0.7929 -1.5838
  780SOL     MW 3120   0.220   0.095   2.741 -0.1202  0.0881 -0.3759
  781SOL     OW 3121   3.052   1.288   2.497  0.3491  0.3092  0.5237
  781SOL    HW1 3122   3.042   1.354   2.427  1.6346 -0.3922 -1.8442
  781SOL    HW2 3123   3.060   1.201   2.457 -1.5986 -0.6213  0.0659
  781SOL     MW 3124   3.052   1.285   2.482  0.2617  0.0939  0.1509
  782SOL     OW 3125   0.545   1.503   3.040 -0.4440 -0.0636 -0.9473
  782SOL    HW1 3126   0.501   1.582   3.006 -3.0218  0.4610  0.0741
  782SOL    HW2 3127   0.535   1.514   3.131  1.4495  0.2031 -2.8237
  782SOL     MW 3128   0.538   1.515   3.047 -0.5343  0.0408 -1.0601
  783SOL     OW 3129   2.780   0.496   2.453 -0.0047  0.0952  0.1911
  783SOL    HW1 3130   2.743   0.493   2.364 -0.0400  0.5933  0.9572
  783SOL    HW2 3131   2.722   0.449   2.513 -0.7101  0.1499 -0.2207
  783SOL     MW 3132   2.767   0.489   2.449 -0.1024  0.1681  0.2379
  784SOL     OW 3133   0.281   0.937   2.883 -0.5974 -0.2589  0.5074
  784SOL    HW1 3134   0.255   0.997   2.954 -3.1854  1.3327  2.7306
  784SOL    HW2 3135   0.264   0.991   2.799 -1.3985  0.0310 -1.7003
  784SOL     MW 3136   0.275   0.952   2.882 -1.0446 -0.0107  0.5095
  785SOL     OW 3137   0.448   0.531   2.176 -0.0375 -0.9415  0.0467
  785SOL    HW1 3138   0.437   0.568   2.082  4.0503  1.0014  1.6463
  785SOL    HW2 3139   0.372   0.469   2.191 -0.5819 -0.7670 -0.0822
  785SOL     MW 3140   0.436   0.528   2.165  0.4301 -0.6621  0.2408
  786SOL     OW 3141   1.996   0.474   2.800 -0.5869  0.1018 -0.4423
  786SOL    HW1 3142   2.002   0.541   2.865  0.8086  2.2951  1.2622
  786SOL    HW2 3143   2.093   0.475   2.775  4.0495  0.1422  0.4347
  786SOL     MW 3144   2.009   0.483   2.806  0.2090  0.3965 -0.1017
  787SOL     OW 3145   2.440   0.128   2.951  0.1504 -0.2547 -0.3401
  787SOL    HW1 3146   2.499   0.068   2.900  2.2917 -0.2450  0.1653
  787SOL    HW2 3147   2.500   0.199   2.981  2.3912  0.6536 -0.5716
  787SOL     MW 3148   2.456   0.130   2.948  0.7286 -0.1336 -0.3040
  788SOL     OW 3149   2.856   2.879   2.355  0.0874 -0.6488 -0.3208
  788SOL    HW1 3150   2.817   2.846   2.280 -0.2752 -0.3452 -0.7300
  788SOL    HW2 3151   2.922   2.817   2.390 -2.0012  2.9550  0.8071
  788SOL     MW 3152   2.860   2.867   2.350 -0.2360 -0.1333 -0.2260
  789SOL     OW 3153   0.094   0.265   2.945 -0.3275 -0.4984 -0.1480
  789SOL    HW1 3154   0.011   0.253   2.981  2.1941 -0.7174 -1.4455
  789SOL    HW2 3155   0.098   0.357   2.966  0.2738 -3.2474  1.1072
  789SOL     MW 3156   0.084   0.276   2.952  0.0845 -0.8900 -0.1536
  790SOL     OW 3157   3.079   1.027   2.434  0.0367 -0.3810  0.0028
  790SOL    HW1 3158   3.014   0.976   2.496 -0.8079 -0.8079  1.3345
  790SOL    HW2 3159   3.030   1.027   2.353  6.8070 -0.7885 -1.4369
  790SOL     MW 3160   3.064   1.021   2.432  0.8186 -0.4911 -0.0115
  791SOL     OW 3161   2.655   0.363   2.688  0.2485 -0.1041 -0.2654
  791SOL    HW1 3162   2.598   0.441   2.697  0.2260  0.2201 -0.9319
  791SOL    HW2 3163   2.731   0.364   2.746 -0.3351 -1.0178 -0.7704
  791SOL     MW 3164   2.657   0.373   2.697  0.1685 -0.1819 -0.4200
  792SOL     OW 3165   2.432   0.222   2.362  0.4565 -0.3285  0.2123
  792SOL    HW1 3166   2.367   0.285   2.385  1.3893  0.1985 -3.0655
  792SOL    HW2 3167   2.488   0.198   2.440  3.1297  0.4867  2.2396
  792SOL     MW 3168   2.430   0.227   2.376  0.9323 -0.1514  0.0473
  793SOL     OW 3169   1.801   1.050   1.949 -0.4098 -0.4617  0.3496
  793SOL    HW1 3170   1.772   1.057   1.856  1.5847 -0.1588  1.5449
  793SOL    HW2 3171   1.881   1.001   1.942  1.5908 -1.1162  2.9147
  793SOL     MW 3172   1.808   1.045   1.936  0.1173 -0.5081  0.8458
  794SOL     OW 3173   1.477   2.259   0.130 -0.1886 -0.2788 -0.3387
  794SOL    HW1 3174   1.475   2.328   0.058 -1.0570 -0.3095 -0.2484
  794SOL    HW2 3175   1.526   2.298   0.207 -0.5919  0.5227  0.8024
  794SOL     MW 3176   1.483   2.273   0.131 -0.3564 -0.1771 -0.1762
  795SOL     OW 3177   2.294   0.953   2.609 -0.5712  0.1764 -0.1282
  795SOL    HW1 3178   2.270   1.029   2.661  0.2288  1.4248  1.3969
  795SOL    HW2 3179   2.299   0.974   2.512  2.1204  0.9502  0.1741
  795SOL     MW 3180   2.292   0.966   2.603 -0.1105  0.4432  0.1129
  796SOL     OW 3181   0.261   0.651   2.764  0.6227  0.3588 -0.2933
  796SOL    HW1 3182   0.239   0.739   2.799 -2.3843 -0.7123  0.7807
  796SOL    HW2 3183   0.191   0.646   2.695  1.6758  0.9154  0.3072
  796SOL     MW 3184   0.249   0.662   2.759  0.3649  0.2909 -0.0724
  797SOL     OW 3185   2.601   0.131   2.547  0.0090 -0.0663  0.6541
  797SOL    HW1 3186   2.627   0.208   2.585 -0.7246  0.1625  1.6733
  797SOL    HW2 3187   2.661   0.099   2.479 -2.6575  0.9362  1.2732
  797SOL     MW 3188   2.612   0.137   2.543 -0.4396  0.0961  0.8702
  798SOL     OW 3189   2.349   0.019   2.186 -0.1848  0.5536  0.2632
  798SOL    HW1 3190   2.373   0.081   2.251 -0.7176 -1.7070 -0.8620
  798SOL    HW2 3191   2.439   0.006   2.158  0.0504 -2.5109 -0.9809
  798SOL     MW 3192   2.364   0.025   2.191 -0.2240 -0.1490 -0.0494
  799SOL     OW 3193   2.453   2.941   0.182  0.1647  0.3635  0.3441
  799SOL    HW1 3194   2.483   2.909   0.095 -0.5419 -1.7153 -0.2578
  799SOL    HW2 3195   2.396   3.015   0.163 -3.5926  0.1445  0.1360
  799SOL     MW 3196   2.449   2.946   0.168 -0.4243  0.0603  0.2372
  800SOL     OW 3197   1.853   3.059   1.791 -0.0156 -0.4612 -0.6026
  800SOL    HW1 3198   1.798   2.981   1.804 -0.0476 -0.2173  0.5626
  800SOL    HW2 3199   1.932   3.054   1.848 -0.1064 -1.5574  0.2281
  800SOL     MW 3200   1.856   3.048   1.800 -0.0318 -0.5736 -0.3392
  801SOL     OW 3201   2.808   1.280   2.632  0.5100  0.5430 -0.4342
  801SOL    HW1 3202   2.768   1.195   2.606  0.5819  1.8167  0.1324
  801SOL    HW2 3203   2.897   1.278   2.588 -1.8480 -0.6651  0.5412
  801SOL     MW 3204   2.814   1.268   2.623  0.2084  0.5516 -0.2308
  802SOL     OW 3205   2.555   1.525   2.815  0.1028 -0.2142  0.2771
  802SOL    HW1 3206   2.547   1.438   2.767 -0.0825 -1.8156 -0.6397
  802SOL    HW2 3207   2.651   1.530   2.831 -3.0728 -0.6400 -3.6944
  802SOL     MW 3208   2.567   1.514   2.811 -0.3407 -0.4817 -0.3679
  803SOL     OW 3209   2.329   1.279   1.959  0.0460 -0.3812 -0.8576
  803SOL    HW1 3210   2.282   1.252   2.036 -0.2597  1.8074 -0.8344
  803SOL    HW2 3211   2.291   1.226   1.890  1.6524 -2.1423  0.4653
  803SOL     MW 3212   2.318   1.268   1.960  0.2176 -0.3248 -0.6800
  804SOL     OW 3213   2.288   0.082   0.057 -0.3578 -0.2132  0.0859
  804SOL    HW1 3214   2.203   0.130   0.070 -0.3297  1.4689 -1.9607
  804SOL    HW2 3215   2.343   0.117  -0.019 -2.0379  0.6429  0.4359
  804SOL     MW 3216   2.284   0.093   0.049 -0.5758  0.1217 -0.1379
  805SOL     OW 3217   2.663   1.026   2.557 -0.0363 -0.6894  0.4094
  805SOL    HW1 3218   2.604   0.948   2.548  0.1872  0.2649  0.4810
  805SOL    HW2 3219   2.750   0.991   2.581 -1.8563  0.6589  1.8066
  805SOL     MW 3220   2.667   1.011   2.559 -0.2469 -0.3856  0.6032
  806SOL     OW 3221   2.590   0.435   2.261  0.8391 -0.1765  0.3445
  806SOL    HW1 3222   2.549   0.350   2.297  1.1806 -0.1158 -0.8564
  806SOL    HW2 3223   2.627   0.412   2.173  0.1395  1.9449  1.0115
  806SOL     MW 3224   2.589   0.420   2.254  0.7918  0.1114  0.2741
  807SOL     OW 3225   3.097   1.097   2.110 -0.1256 -0.0841  0.2229
  807SOL    HW1 3226   3.164   1.036   2.084 -0.7820 -0.8976 -1.0227
  807SOL    HW2 3227   3.020   1.038   2.128  3.4575 -1.5038 -1.2601
  807SOL     MW 3228   3.096   1.081   2.109  0.2605 -0.3787 -0.1371
  808SOL     OW 3229   2.609   3.076   2.772  0.4386  0.1170 -0.6934
  808SOL    HW1 3230   2.560   2.994   2.760  2.7829  1.7366 -1.3112
  808SOL    HW2 3231   2.606   3.124   2.691  1.9615  3.0350  0.0345
  808SOL     MW 3232   2.602   3.072   2.760  0.9488  0.7157 -0.6789
  809SOL     OW 3233   2.546   1.232   2.402  0.0765  0.0081 -0.0627
  809SOL    HW1 3234   2.576   1.167   2.458 -0.3333  2.8646 -0.9723
  809SOL    HW2 3235   2.598   1.227   2.319  1.9125  1.8197  1.0062
  809SOL     MW 3236   2.557   1.223   2.399  0.2646  0.6240 -0.0417
  810SOL     OW 3237   2.192   1.233   2.198 -0.4233 -0.9515  0.3367
  810SOL    HW1 3238   2.240   1.160   2.234  0.2503  0.7807  0.3907
  810SOL    HW2 3239   2.101   1.210   2.202  2.7901  0.4891 -0.9524
  810SOL     MW 3240   2.186   1.221   2.204  0.0895 -0.5329  0.1737
  811SOL     OW 3241   1.552   0.074   2.287  0.0291  0.3620 -0.3678
  811SOL    HW1 3242   1.633   0.027   2.320  4.8511 -1.5144  2.3217
  811SOL    HW2 3243   1.558   0.077   2.190 -2.3763  0.9908  0.7932
  811SOL     MW 3244   1.563   0.068   2.279  0.3479  0.1974  0.1402
  812SOL     OW 3245   1.439   2.793   2.041 -0.2412  0.2325 -0.0688
  812SOL    HW1 3246   1.532   2.773   2.015  0.2474  1.8460 -2.5923
  812SOL    HW2 3247   1.440   2.774   2.135 -1.4986 -1.3956 -1.0442
  812SOL     MW 3248   1.452   2.788   2.050 -0.3427  0.2305 -0.5305
  813SOL     OW 3249   1.802   0.734   2.206  0.7594  0.3751 -0.0374
  813SOL    HW1 3250   1.753   0.654   2.243 -0.9988  0.2704 -0.3509
  813SOL    HW2 3251   1.857   0.764   2.278 -0.7542  3.1545 -0.7446
  813SOL     MW 3252   1.802   0.727   2.221  0.3277  0.7280 -0.1720
  814SOL     OW 3253   2.751   1.257   1.617  0.1206 -0.1035 -0.3943
  814SOL    HW1 3254   2.671   1.240   1.665  1.4394 -0.9348 -0.4558
  814SOL    HW2 3255   2.762   1.204   1.539 -1.9636 -0.1187 -1.9116
  814SOL     MW 3256   2.742   1.248   1.613  0.0196 -0.2152 -0.6026
  815SOL     OW 3257   2.497   1.654   2.401 -0.3197  0.3118  0.0309
  815SOL    HW1 3258   2.438   1.586   2.383 -0.6239  2.0998  2.1409
  815SOL    HW2 3259   2.583   1.612   2.423  0.1145 -3.7379 -2.5209
  815SOL     MW 3260   2.500   1.640   2.401 -0.3025  0.0134 -0.0274
  816SOL     OW 3261   0.751   0.668   2.734  0.2422 -0.0117  0.1498
  816SOL    HW1 3262   0.735   0.593   2.794 -3.1608 -2.2582 -0.8462
  816SOL    HW2 3263   0.673   0.672   2.679 -0.4176 -2.1465 -0.9471
  816SOL     MW 3264   0.739   0.659   2.734 -0.2939 -0.5897 -0.1264
  817SOL     OW 3265   3.049   1.151   1.377 -0.0450 -0.1949  0.1747
  817SOL    HW1 3266   3.107   1.169   1.450 -2.3924  0.8938 -1.2138
  817SOL    HW2 3267   3.061   1.230   1.326  1.2370 -1.8877  2.0078
  817SOL     MW 3268   3.058   1.164   1.380 -0.1855 -0.2746  0.2333
  818SOL     OW 3269   1.899   1.038   2.717 -0.2630  0.0636  0.0498
  818SOL    HW1 3270   1.943   1.053   2.633 -0.0194  0.0002  0.2913
  818SOL    HW2 3271   1.919   0.949   2.732  3.2220  0.4169  0.4585
  818SOL     MW 3272   1.908   1.028   2.708  0.2289  0.1019  0.1356
  819SOL     OW 3273   1.918   0.208   2.428 -1.1706 -0.4233 -0.5502
  819SOL    HW1 3274   1.861   0.282   2.441 -1.1506 -2.7084 -0.0770
  819SOL    HW2 3275   1.955   0.187   2.520  0.7437 -4.6749 -0.8779
  819SOL     MW 3276   1.916   0.215   2.442 -0.9154 -1.2858 -0.5310
  820SOL     OW 3277   2.484   1.748   2.657 -0.1088 -0.1231  0.0161
  820SOL    HW1 3278   2.514   1.690   2.727  0.2778 -2.7483 -0.6831
  820SOL    HW2 3279   2.496   1.701   2.577 -0.8210 -0.9894  4.2317
  820SOL     MW 3280   2.489   1.735   2.656 -0.1518 -0.5837  0.4800
  821SOL     OW 3281   2.590   1.356   1.940 -0.1805  0.2412 -0.0299
  821SOL    HW1 3282   2.597   1.452   1.925 -1.6938 -1.0090 -1.4301
  821SOL    HW2 3283   2.495   1.338   1.947 -0.1590  0.1650 -1.1956
  821SOL     MW 3284   2.579   1.366   1.939 -0.3773  0.0662 -0.3684
  822SOL     OW 3285   2.850   2.704   1.449  0.0871  0.1201 -0.4355
  822SOL    HW1 3286   2.827   2.727   1.540  1.4299  1.6554  2.5483
  822SOL    HW2 3287   2.793   2.759   1.394 -0.2441  2.4314  1.1270
  822SOL     MW 3288   2.839   2.714   1.454  0.2206  0.6276  0.1643
  823SOL     OW 3289   2.273   0.461   1.782 -0.0677  0.2905 -1.1435
  823SOL    HW1 3290   2.344   0.439   1.711  3.0346 -1.0011 -0.7560
  823SOL    HW2 3291   2.196   0.399   1.759  1.0923 -1.8878  2.2724
  823SOL     MW 3292   2.272   0.450   1.769  0.4947 -0.1673 -0.6417
  824SOL     OW 3293   2.083   1.408   2.512 -0.5413  0.2360 -0.1036
  824SOL    HW1 3294   2.169   1.441   2.493  1.9049  2.1001 -0.3494
  824SOL    HW2 3295   2.058   1.482   2.571  1.7632  1.8896 -1.2919
  824SOL     MW 3296   2.091   1.422   2.517  0.0855  0.7001 -0.2928
  825SOL     OW 3297   2.109   2.542   0.376  0.6251 -0.2207  0.5375
  825SOL    HW1 3298   2.055   2.470   0.340  1.7949 -2.6180 -2.7258
  825SOL    HW2 3299   2.195   2.499   0.379 -1.5473 -0.5001 -1.0265
  825SOL     MW 3300   2.113   2.527   0.372  0.4928 -0.5738 -0.0994
  826SOL     OW 3301   1.814   2.389   0.468 -0.8611  0.0496  0.1064
  826SOL    HW1 3302   1.801   2.302   0.505 -1.0879  0.8080 -1.3856
  826SOL    HW2 3303   1.808   2.458   0.532 -1.2142 -3.9150 -0.4666
  826SOL     MW 3304   1.812   2.387   0.482 -0.9376 -0.3735 -0.1660
  827SOL     OW 3305   1.950   2.199   0.860 -0.4343  0.7978  0.7099
  827SOL    HW1 3306   1.894   2.241   0.795 -0.1998 -0.0708  1.8680
  827SOL    HW2 3307   1.897   2.133   0.907 -0.7443  3.6180 -0.3999
  827SOL     MW 3308   1.936   2.196   0.858 -0.4442  1.0553  0.7162
  828SOL     OW 3309   0.082   2.599   0.519  0.3649  0.0241  0.1803
  828SOL    HW1 3310   0.178   2.591   0.522  2.5752 -0.8707  2.4773
  828SOL    HW2 3311   0.063   2.660   0.451  1.9278 -1.0453 -0.1572
  828SOL     MW 3312   0.092   2.606   0.511  0.8627 -0.2350  0.4388
  829SOL     OW 3313   3.004   2.899   1.210  0.2401 -0.4581 -0.1084
  829SOL    HW1 3314   2.935   2.885   1.150 -1.5078 -0.2536 -0.3593
  829SOL    HW2 3315   3.067   2.827   1.189  0.0218 -1.2364  0.2411
  829SOL     MW 3316   3.003   2.888   1.200 -0.0193 -0.5338 -0.0954
  830SOL     OW 3317   2.530   2.824   2.030  0.2677 -0.7340 -0.1297
  830SOL    HW1 3318   2.436   2.839   2.004 -1.6622 -0.9088 -3.7858
  830SOL    HW2 3319   2.567   2.797   1.948  2.0255 -1.2055  3.1643
  830SOL     MW 3320   2.522   2.823   2.016  0.2450 -0.8193 -0.1775
  831SOL     OW 3321   2.455   2.433   1.213  0.6706 -0.3642 -0.3534
  831SOL    HW1 3322   2.429   2.363   1.270  0.1778  1.7179  1.5512
  831SOL    HW2 3323   2.551   2.427   1.210  3.3324  2.7351 -1.2649
  831SOL     MW 3324   2.464   2.423   1.220  0.9567  0.3195 -0.2224
  832SOL     OW 3325   2.395   2.115   1.796  0.0465 -0.5562  0.3777
  832SOL    HW1 3326   2.399   2.198   1.851 -0.7301 -0.5736  1.9103
  832SOL    HW2 3327   2.486   2.088   1.779 -2.7736  0.6268  0.2934
  832SOL     MW 3328   2.408   2.122   1.801 -0.4281 -0.4024  0.5687
  833SOL     OW 3329   1.767   2.535   0.926 -0.0305  0.5791  0.0511
  833SOL    HW1 3330   1.687   2.489   0.929 -2.2173 -3.5799 -0.5938
  833SOL    HW2 3331   1.729   2.617   0.966 -0.0676  3.0919  0.0857
  833SOL     MW 3332   1.751   2.540   0.932 -0.3240  0.3619 -0.0294
  834SOL     OW 3333   2.273   2.355   0.592  0.6905 -0.5925  0.3610
  834SOL    HW1 3334   2.279   2.278   0.643 -1.6891 -1.1450 -1.4021
  834SOL    HW2 3335   2.357   2.369   0.565 -1.4162 -0.7848  2.0233
  834SOL     MW 3336   2.285   2.347   0.596  0.0986 -0.6907  0.3477
  835SOL     OW 3337   1.844   2.595   0.674  0.7517  0.1855 -0.1639
  835SOL    HW1 3338   1.830   2.561   0.763  1.2181 -1.0488 -0.6738
  835SOL    HW2 3339   1.920   2.648   0.687 -0.3359  2.6447  0.2315
  835SOL     MW 3340   1.853   2.598   0.688  0.6697  0.3471 -0.1790
  836SOL     OW 3341   2.063   2.203   1.623 -0.0943 -0.0902  0.1253
  836SOL    HW1 3342   2.138   2.153   1.580  0.9317  0.3777 -1.4863
  836SOL    HW2 3343   2.099   2.277   1.676 -2.4022 -1.9216  2.5923
  836SOL     MW 3344   2.078   2.206   1.624 -0.2635 -0.2701  0.2382
  837SOL     OW 3345   2.067   0.179   0.702  0.2071  0.6739 -0.0156
  837SOL    HW1 3346   1.997   0.217   0.652  4.4460  0.2815  1.0885
  837SOL    HW2 3347   2.114   0.131   0.633 -2.0692  1.1990  1.1648
  837SOL     MW 3348   2.064   0.178   0.686  0.4660  0.6914  0.2859
  838SOL     OW 3349   2.862   2.075   0.962 -0.1745  0.3084  0.0963
  838SOL    HW1 3350   2.806   2.001   0.950  1.2325  0.4871  0.0706
  838SOL    HW2 3351   2.901   2.060   1.049 -0.5809  1.7048  1.6761
  838SOL     MW 3352   2.860   2.063   0.972 -0.0424  0.5162  0.3013
  839SOL     OW 3353   1.530   2.390   0.967  0.2962 -0.2419  0.3079
  839SOL    HW1 3354   1.508   2.447   1.035 -0.5530 -0.5226  0.9835
  839SOL    HW2 3355   1.561   2.309   1.005 -0.7557  1.4030  2.2488
  839SOL     MW 3356   1.531   2.387   0.981  0.0454 -0.0619  0.6531
  840SOL     OW 3357   2.275   2.128   2.435  0.1128 -0.1671 -0.0507
  840SOL    HW1 3358   2.227   2.199   2.379  0.5487  1.7355 -3.1632
  840SOL    HW2 3359   2.337   2.166   2.497  1.0719  0.4444  1.8522
  840SOL     MW 3360   2.277   2.142   2.436  0.2969  0.1646 -0.2103
  841SOL     OW 3361   2.275   2.418   0.055 -0.1569 -0.2939 -0.4127
  841SOL    HW1 3362   2.266   2.484  -0.009 -0.1164 -1.1170  0.9971
  841SOL    HW2 3363   2.207   2.355   0.036  0.6601 -1.9742 -0.9320
  841SOL     MW 3364   2.265   2.419   0.044 -0.0438 -0.6242 -0.2952
  842SOL     OW 3365   2.665   1.985   1.443 -0.1091 -0.4695 -0.5265
  842SOL    HW1 3366   2.626   1.901   1.463  4.2265 -0.1739  1.5974
  842SOL    HW2 3367   2.616   2.021   1.371 -1.3730  0.5721 -3.8411
  842SOL     MW 3368   2.653   1.979   1.436  0.2962 -0.2931 -0.6836
  843SOL     OW 3369   2.654   2.767   1.783  0.6007 -0.3016 -0.0462
  843SOL    HW1 3370   2.744   2.732   1.802  1.5620 -1.2713 -2.0111
  843SOL    HW2 3371   2.603   2.690   1.749 -0.2370 -0.7636 -0.5382
  843SOL     MW 3372   2.659   2.752   1.781  0.6170 -0.4905 -0.3704
  844SOL     OW 3373   2.705   2.339   1.169  0.4357 -0.1510  0.0998
  844SOL    HW1 3374   2.758   2.369   1.097  0.8624 -1.4147 -0.7762
  844SOL    HW2 3375   2.749   2.373   1.251 -0.2327 -0.1726 -3.5241
  844SOL     MW 3376   2.718   2.347   1.170  0.4038 -0.3205 -0.4939
  845SOL     OW 3377   2.847   2.598   0.332 -0.2461 -0.1170 -0.5876
  845SOL    HW1 3378   2.798   2.515   0.339  2.1529  1.6016 -3.5064
  845SOL    HW2 3379   2.804   2.657   0.395 -0.7043  1.0474  0.4161
  845SOL     MW 3380   2.835   2.595   0.341  0.0100  0.2634 -0.8402
  846SOL     OW 3381   1.522   2.803   0.843 -0.3353 -0.2759  0.4567
  846SOL    HW1 3382   1.595   2.857   0.811  0.5077  0.2200 -0.8087
  846SOL    HW2 3383   1.475   2.871   0.893  1.3681 -1.5903  2.3833
  846SOL     MW 3384   1.526   2.819   0.845  0.0006 -0.3839  0.5439
  847SOL     OW 3385   2.479   1.891   0.155  0.3168 -0.3491 -0.6206
  847SOL    HW1 3386   2.496   1.808   0.205 -1.1936  1.1080 -1.6977
  847SOL    HW2 3387   2.457   1.877   0.060 -1.8520  0.2435  0.9107
  847SOL     MW 3388   2.478   1.878   0.149 -0.1687 -0.0787 -0.5607
  848SOL     OW 3389   2.547   2.114   1.191  0.3994  0.2274  0.6040
  848SOL    HW1 3390   2.613   2.187   1.179  0.1518  1.3997  0.7032
  848SOL    HW2 3391   2.532   2.090   1.100  1.2785 -0.6457  0.6300
  848SOL     MW 3392   2.554   2.121   1.177  0.4827  0.2668  0.6205
  849SOL     OW 3393   2.028   2.766   0.803 -0.7301 -0.8277  0.0130
  849SOL    HW1 3394   2.021   2.733   0.894  1.2940  1.7968  2.7335
  849SOL    HW2 3395   2.113   2.736   0.764 -3.6464 -1.5563 -1.3986
  849SOL     MW 3396   2.038   2.758   0.810 -0.8478 -0.5776  0.1857
  850SOL     OW 3397   2.313   1.794   1.644  0.4451  0.0872  0.4775
  850SOL    HW1 3398   2.239   1.743   1.612 -3.1363 -0.7449  0.4458
  850SOL    HW2 3399   2.303   1.883   1.600  2.4262 -0.7232 -1.2233
  850SOL     MW 3400   2.302   1.799   1.634  0.2340 -0.1295  0.2489
  851SOL     OW 3401   2.372   2.351   0.310  0.1796  0.0338  0.8100
  851SOL    HW1 3402   2.345   2.384   0.224 -0.8840  1.9096  1.5831
  851SOL    HW2 3403   2.433   2.413   0.345 -0.4618 -0.6426 -1.4709
  851SOL     MW 3404   2.377   2.364   0.304 -0.0454  0.1921  0.6111
  852SOL     OW 3405   2.330   2.084   0.319 -0.1840 -0.2147 -0.2219
  852SOL    HW1 3406   2.372   2.167   0.302  1.1058 -0.9153  1.7318
  852SOL    HW2 3407   2.374   2.033   0.250 -1.2227  1.7790  0.0859
  852SOL     MW 3408   2.341   2.088   0.307 -0.1509 -0.0441  0.0765
  853SOL     OW 3409   2.462   2.355   1.906  0.0002  0.2814  0.4475
  853SOL    HW1 3410   2.465   2.421   1.837 -0.1754 -0.7702  3.2766
  853SOL    HW2 3411   2.550   2.358   1.942 -1.9679 -1.1468  1.3682
  853SOL     MW 3412   2.474   2.364   1.902 -0.2826 -0.0458  0.9422
  854SOL     OW 3413   2.854   2.234   0.729  0.2609  0.0104 -0.0372
  854SOL    HW1 3414   2.768   2.199   0.704 -0.6613  1.6395 -1.6120
  854SOL    HW2 3415   2.889   2.170   0.794  0.1931  0.8936  0.0607
  854SOL     MW 3416   2.848   2.221   0.734  0.1303  0.3419 -0.2321
  855SOL     OW 3417   2.721   2.365   0.366  0.4762  0.1983  0.4612
  855SOL    HW1 3418   2.659   2.393   0.437  0.4720 -0.4126 -1.0894
  855SOL    HW2 3419   2.737   2.272   0.379  1.1188  1.1551  0.6923
  855SOL     MW 3420   2.715   2.356   0.377  0.5604  0.2439  0.2871
  856SOL     OW 3421   2.115   1.888   0.214 -0.9504 -0.1500 -0.6785
  856SOL    HW1 3422   2.023   1.879   0.240 -1.1126  0.2480 -1.5739
  856SOL    HW2 3423   2.165   1.950   0.270  2.5107 -1.4719 -1.8802
  856SOL     MW 3424   2.110   1.895   0.225 -0.5151 -0.2719 -0.9552
  857SOL     OW 3425   2.488   1.952   0.543  0.3217 -0.1799  0.2781
  857SOL    HW1 3426   2.433   1.999   0.480 -0.5833  0.6861 -0.5362
  857SOL    HW2 3427   2.426   1.938   0.614  3.2476  1.3090  2.0559
  857SOL     MW 3428   2.473   1.956   0.544  0.5883  0.1309  0.4052
  858SOL     OW 3429   2.891   2.658   1.792 -0.4521  0.2404  0.1558
  858SOL    HW1 3430   2.982   2.687   1.781 -0.9985 -1.9857  1.2181
  858SOL    HW2 3431   2.883   2.562   1.767 -0.0246  0.3619 -2.7422
  858SOL     MW 3432   2.902   2.649   1.787 -0.4678 -0.0373 -0.0864
  859SOL     OW 3433   1.986   2.696   1.071 -1.1012  1.3527 -0.0398
  859SOL    HW1 3434   1.988   2.602   1.042 -1.3080  0.8845 -1.2587
  859SOL    HW2 3435   2.080   2.727   1.085  0.7339 -1.4250 -0.9717
  859SOL     MW 3436   1.999   2.688   1.069 -0.8864  0.9244 -0.3236
  860SOL     OW 3437   2.661   2.653   0.154 -0.5826  0.2257  0.4930
  860SOL    HW1 3438   2.725   2.637   0.235 -0.5199 -0.5929 -0.1818
  860SOL    HW2 3439   2.680   2.746   0.126 -1.1143 -1.2815 -0.8763
  860SOL     MW 3440   2.672   2.663   0.161 -0.6444 -0.0811  0.2233
  861SOL     OW 3441   1.637   2.200   1.127  0.4129  0.4948  0.2239
  861SOL    HW1 3442   1.652   2.262   1.202 -3.2094 -0.1322  3.9043
  861SOL    HW2 3443   1.581   2.135   1.172 -1.3561  0.6755 -0.5546
  861SOL     MW 3444   1.631   2.200   1.143 -0.2985  0.4360  0.6068
  862SOL     OW 3445   2.519   1.770   1.478  0.5744 -0.2339 -0.0869
  862SOL    HW1 3446   2.449   1.785   1.541 -1.9589 -2.3570 -2.2304
  862SOL    HW2 3447   2.470   1.767   1.395  0.5757 -0.3881  1.3850
  862SOL     MW 3448   2.503   1.771   1.475  0.2403 -0.5344 -0.1755
  863SOL     OW 3449   2.984   1.783   1.021  0.4205 -0.2267 -0.1390
  863SOL    HW1 3450   3.067   1.766   1.064 -2.5594 -1.7719  0.7611
  863SOL    HW2 3451   2.952   1.853   1.072  1.3453  1.2325 -1.8789
  863SOL     MW 3452   2.990   1.790   1.033  0.1494 -0.2381 -0.2498
  864SOL     OW 3453   0.065   1.838   0.814 -0.4063 -0.0431 -0.3765
  864SOL    HW1 3454   0.007   1.825   0.887  2.2035  3.9867  0.7973
  864SOL    HW2 3455   0.022   1.809   0.737 -1.2293  0.7435  2.1559
  864SOL     MW 3456   0.052   1.832   0.814 -0.1705  0.5924  0.1125
  865SOL     OW 3457   2.621   2.153   0.050  0.5889 -0.1708  0.6220
  865SOL    HW1 3458   2.606   2.095   0.125 -0.5716  0.8011 -0.3334
  865SOL    HW2 3459   2.560   2.145  -0.023  0.4129 -0.2979  0.5209
  865SOL     MW 3460   2.611   2.145   0.051  0.4125 -0.0594  0.4826
  866SOL     OW 3461   2.624   2.350   1.594 -0.3220  0.7547 -0.2101
  866SOL    HW1 3462   2.615   2.255   1.621  0.1542  0.1197  1.0224
  866SOL    HW2 3463   2.673   2.355   1.516 -2.1689  1.4971  2.5497
  866SOL     MW 3464   2.629   2.338   1.588 -0.5029  0.7689  0.3167
  867SOL     OW 3465   0.079   2.694   1.751  0.2078  0.0073  0.0956
  867SOL    HW1 3466   0.130   2.743   1.815 -2.2422  0.2563 -0.1792
  867SOL    HW2 3467   0.112   2.749   1.673 -2.7771  1.9791 -0.1431
  867SOL     MW 3468   0.090   2.708   1.749 -0.5093  0.3003  0.0278
  868SOL     OW 3469   2.742   2.690   0.576 -0.3744 -0.2132 -0.1442
  868SOL    HW1 3470   2.697   2.608   0.593 -0.1393  1.9272 -0.8510
  868SOL    HW2 3471   2.669   2.740   0.542 -2.3755  1.6768  0.8670
  868SOL     MW 3472   2.727   2.685   0.573 -0.6074  0.3186 -0.1041
  869SOL     OW 3473   2.102   2.408   1.010 -0.0969  0.5012 -0.3341
  869SOL    HW1 3474   2.198   2.396   0.996  0.2652 -0.0126  0.4399
  869SOL    HW2 3475   2.067   2.353   0.942  0.0689  1.2037  0.1542
  869SOL     MW 3476   2.110   2.399   0.999 -0.0272  0.5261 -0.1675
  870SOL     OW 3477   2.177   0.090   0.469  0.1266 -0.0691 -0.1931
  870SOL    HW1 3478   2.253   0.123   0.408  2.1747  1.9337 -0.1888
  870SOL    HW2 3479   2.206  -0.002   0.470  0.8999  2.3967  1.2697
  870SOL     MW 3480   2.191   0.082   0.461  0.4988  0.5205  0.0005
  871SOL     OW 3481   2.472   2.093   0.911  0.3494  0.4692 -0.9519
  871SOL    HW1 3482   2.408   2.034   0.869 -1.7129  0.5665 -2.6075
  871SOL    HW2 3483   2.426   2.172   0.948  1.2945 -1.8332  0.5882
  871SOL     MW 3484   2.458   2.096   0.911  0.2020  0.1782 -0.9671
  872SOL     OW 3485   2.061   2.553   1.505  0.0614  0.6406 -0.4255
  872SOL    HW1 3486   1.999   2.603   1.557 -1.1890 -2.3276  2.9946
  872SOL    HW2 3487   2.011   2.518   1.433  1.5413 -2.6163  3.5585
  872SOL     MW 3488   2.047   2.555   1.502  0.0917 -0.1808  0.5514
  873SOL     OW 3489   2.851   2.117   1.901  0.0912 -0.4156 -0.7442
  873SOL    HW1 3490   2.837   2.207   1.941 -1.8886  1.8920 -1.5543
  873SOL    HW2 3491   2.924   2.139   1.843 -0.8838 -0.1758 -0.1277
  873SOL     MW 3492   2.859   2.132   1.899 -0.2987 -0.0795 -0.7697
  874SOL     OW 3493   2.339   1.430   2.354 -0.1163 -0.0113 -0.4214
  874SOL    HW1 3494   2.271   1.404   2.295  0.0669  0.3586 -0.0998
  874SOL    HW2 3495   2.395   1.350   2.360 -0.2208 -0.6521 -4.2411
  874SOL     MW 3496   2.338   1.416   2.347 -0.1059 -0.0471 -0.8829
  875SOL     OW 3497   2.364   2.330   0.976  0.1599 -0.0207 -0.0288
  875SOL    HW1 3498   2.408   2.371   0.901 -2.8406 -2.0825 -0.5000
  875SOL    HW2 3499   2.411   2.353   1.060  0.2803  1.6941  0.5612
  875SOL     MW 3500   2.376   2.339   0.978 -0.2201 -0.0665 -0.0131
  876SOL     OW 3501   3.063   2.247   1.290 -0.4811 -0.3247 -0.7387
  876SOL    HW1 3502   3.089   2.293   1.212  1.9924  0.7577 -1.4905
  876SOL    HW2 3503   3.133   2.275   1.347  1.6635  0.3880 -3.3863
  876SOL     MW 3504   3.076   2.257   1.287  0.1282 -0.0878 -1.1872
  877SOL     OW 3505   0.005   2.809   0.319 -0.0490 -0.4300 -0.1537
  877SOL    HW1 3506   0.065   2.879   0.304 -2.4826 -0.0502  1.8712
  877SOL    HW2 3507   0.012   2.742   0.251 -0.2497 -0.8861 -1.6897
  877SOL     MW 3508   0.013   2.809   0.308 -0.3966 -0.4400 -0.0892
  878SOL     OW 3509   2.415   1.736   1.233 -0.1917 -0.5583  0.2366
  878SOL    HW1 3510   2.331   1.687   1.248 -1.0044 -2.0177 -0.1979
  878SOL    HW2 3511   2.467   1.677   1.185 -2.1102  0.6696  0.0352
  878SOL     MW 3512   2.411   1.722   1.228 -0.5521 -0.5888  0.1527
  879SOL     OW 3513   2.774   2.414   0.905 -0.2283 -0.7825 -0.6332
  879SOL    HW1 3514   2.822   2.496   0.903 -0.4665  0.7721 -3.8994
  879SOL    HW2 3515   2.826   2.357   0.841  1.6977 -3.0569 -0.2187
  879SOL     MW 3516   2.787   2.417   0.896 -0.0056 -0.8775 -1.0094
  880SOL     OW 3517   2.570   2.196   0.650 -0.3658  0.1901 -0.1311
  880SOL    HW1 3518   2.541   2.179   0.745 -0.1444 -0.9287  2.4184
  880SOL    HW2 3519   2.538   2.109   0.605 -2.2778 -4.2480 -1.9314
  880SOL     MW 3520   2.562   2.182   0.657 -0.5889 -0.5431 -0.0322
  881SOL     OW 3521   3.004   2.742   0.693 -0.5670  0.1865  0.2748
  881SOL    HW1 3522   2.919   2.722   0.659  1.3896  0.2346 -2.2843
  881SOL    HW2 3523   3.056   2.690   0.624  2.3735 -0.4595 -0.4198
  881SOL     MW 3524   3.000   2.732   0.680  0.0791  0.1076 -0.1545
  882SOL     OW 3525   2.258   2.869   1.960  0.0661  0.2379  0.8011
  882SOL    HW1 3526   2.266   2.877   1.863 -1.5090  0.5152 -1.3651
  882SOL    HW2 3527   2.198   2.791   1.975  0.9868 -1.3987  1.4937
  882SOL     MW 3528   2.251   2.860   1.949 -0.0203  0.0585  0.6067
  883SOL     OW 3529   2.364   2.204   1.356  0.0147  0.2625  0.1661
  883SOL    HW1 3530   2.434   2.165   1.288  0.3321  0.6917 -0.3175
  883SOL    HW2 3531   2.278   2.206   1.301  1.0836  0.5361 -3.1464
  883SOL     MW 3532   2.362   2.199   1.340  0.1976  0.3553 -0.3348
  884SOL     OW 3533   2.002   1.796   1.067  0.4384 -0.1726  0.3524
  884SOL    HW1 3534   1.949   1.873   1.053  0.4299 -0.4978  2.8334
  884SOL    HW2 3535   2.091   1.829   1.070  0.2104  0.9037  2.0518
  884SOL     MW 3536   2.007   1.811   1.066  0.4072 -0.0735  0.9040
  885SOL     OW 3537   2.821   2.400   1.773 -0.5009 -0.2306 -0.1913
  885SOL    HW1 3538   2.899   2.337   1.752 -0.4191 -0.5924 -0.2461
  885SOL    HW2 3539   2.755   2.392   1.704  0.7529  2.5603  0.1743
  885SOL     MW 3540   2.823   2.390   1.761 -0.3247  0.0899 -0.1503
  886SOL     OW 3541   2.853   2.411   1.391  0.1348 -0.7129 -0.1008
  886SOL    HW1 3542   2.927   2.358   1.370  2.1646  0.0897 -0.9010
  886SOL    HW2 3543   2.896   2.494   1.405 -0.0490 -1.0670  2.0636
  886SOL     MW 3544   2.868   2.415   1.390  0.3783 -0.6537  0.0792
  887SOL     OW 3545   2.300   2.691   1.504  0.4800  0.2228 -0.2575
  887SOL    HW1 3546   2.320   2.703   1.411  0.1654  1.4169 -1.6621
  887SOL    HW2 3547   2.226   2.632   1.491 -0.4984  1.0866 -1.8318
  887SOL     MW 3548   2.293   2.685   1.490  0.3094  0.4943 -0.6505
  888SOL     OW 3549   1.914   2.193   1.384  0.0769  0.2763  0.0865
  888SOL    HW1 3550   1.985   2.199   1.316 -0.4646 -0.7259 -0.5984
  888SOL    HW2 3551   1.959   2.220   1.467 -1.2242 -0.1574  0.1863
  888SOL     MW 3552   1.929   2.197   1.386 -0.1662  0.0869  0.0093
  889SOL     OW 3553   2.346   1.999   2.038 -0.1808  0.5332 -0.3619
  889SOL    HW1 3554   2.429   1.991   2.091  1.0363  0.5893 -0.1061
  889SOL    HW2 3555   2.370   2.035   1.951  0.8294  0.4685 -0.6567
  889SOL     MW 3556   2.360   2.002   2.034  0.1131  0.5321 -0.3670
  890SOL     OW 3557   0.128   2.347   0.161 -0.1801 -0.3783 -0.1695
  890SOL    HW1 3558   0.088   2.436   0.142 -2.4640 -0.4259  0.7710
  890SOL    HW2 3559   0.068   2.315   0.234  1.4468 -1.4394 -1.7636
  890SOL     MW 3560   0.115   2.354   0.168 -0.2668 -0.5246 -0.2557
  891SOL     OW 3561   3.004   1.985   1.228 -0.4197  0.5423 -0.1017
  891SOL    HW1 3562   3.093   1.953   1.236 -3.8183 -2.9750  0.6261
  891SOL    HW2 3563   3.031   2.072   1.256 -1.2717  0.7436  0.5359
  891SOL     MW 3564   3.020   1.992   1.232 -0.9805  0.1048  0.0784
  892SOL     OW 3565   2.464   2.365   2.780  0.1328 -0.1829  0.6081
  892SOL    HW1 3566   2.454   2.301   2.845 -0.6544 -0.2650 -2.5568
  892SOL    HW2 3567   2.559   2.399   2.787 -2.6014  4.4741 -1.2669
  892SOL     MW 3568   2.475   2.361   2.789 -0.3318  0.4207 -0.0569
  893SOL     OW 3569   1.644   2.411   1.306 -0.0848 -0.5344  0.6213
  893SOL    HW1 3570   1.555   2.411   1.349  0.1747 -1.3817 -1.2121
  893SOL    HW2 3571   1.671   2.497   1.341 -1.1438 -1.0202  1.8750
  893SOL     MW 3572   1.636   2.422   1.316 -0.1903 -0.7103  0.5448
  894SOL     OW 3573   2.732   1.834   0.455  0.2661 -0.6716 -0.2374
  894SOL    HW1 3574   2.645   1.857   0.490 -2.8183  2.3952  0.7242
  894SOL    HW2 3575   2.717   1.802   0.372  0.4462  1.8467 -0.1435
  894SOL     MW 3576   2.718   1.833   0.448 -0.1171  0.0653 -0.0982
  895SOL     OW 3577   2.134   2.180   1.206  0.8108 -0.3097 -0.9248
  895SOL    HW1 3578   2.100   2.226   1.130 -1.6407  1.5950  0.1416
  895SOL    HW2 3579   2.123   2.091   1.177 -0.0914  0.7758 -0.0843
  895SOL     MW 3580   2.128   2.175   1.192  0.3683  0.0848 -0.6732
  896SOL     OW 3581   2.242   2.838   1.096  0.0581 -0.5511 -0.1701
  896SOL    HW1 3582   2.302   2.800   1.167  1.1526 -0.1802 -0.4621
  896SOL    HW2 3583   2.176   2.901   1.143  2.0450  0.9823 -0.5350
  896SOL     MW 3584   2.241   2.841   1.112  0.4647 -0.2998 -0.2568
  897SOL     OW 3585   3.092   3.030   3.057  0.3966  0.1046  0.3087
  897SOL    HW1 3586   3.151   2.952   3.046 -1.2223 -1.7593 -1.6390
  897SOL    HW2 3587   3.005   3.012   3.032  1.9687 -3.9705 -0.5537
  897SOL     MW 3588   3.089   3.017   3.052  0.3904 -0.6790 -0.0621
  898SOL     OW 3589   2.026   0.171   1.444 -0.1062 -0.1771 -0.1514
  898SOL    HW1 3590   2.011   0.084   1.483  1.1439 -1.2769 -1.2080
  898SOL    HW2 3591   2.048   0.155   1.351 -0.4992 -0.8224 -2.4248
  898SOL     MW 3592   2.027   0.158   1.437  0.0069 -0.4073 -0.5907
  899SOL     OW 3593   2.976   3.012   0.610 -0.1864  0.6875  0.0605
  899SOL    HW1 3594   3.001   2.923   0.642  0.8157 -2.0187  0.4050
  899SOL    HW2 3595   2.889   3.033   0.649 -1.4016 -1.5600  1.0159
  899SOL     MW 3596   2.968   3.003   0.619 -0.2145  0.0339  0.2320
  900SOL     OW 3597   0.057   2.416   1.103  0.5537 -0.0822  0.0322
  900SOL    HW1 3598   0.077   2.513   1.102  0.6162  0.1990 -0.6418
  900SOL    HW2 3599   0.062   2.391   1.009  0.2967  0.1513  0.2554
  900SOL     MW 3600   0.060   2.425   1.090  0.5280 -0.0143 -0.0273
  901SOL     OW 3601   1.747   2.791   1.782 -0.0050  0.3364  0.1409
  901SOL    HW1 3602   1.833   2.760   1.760 -3.8388  3.1549  0.1293
  901SOL    HW2 3603   1.689   2.791   1.707  1.2962  2.7010 -0.0967
  901SOL     MW 3604   1.751   2.787   1.769 -0.3392  1.0203  0.1080
  902SOL     OW 3605   2.651   2.098   1.708  0.2415  0.0220 -1.1272
  902SOL    HW1 3606   2.677   2.068   1.617  1.4947  0.9576  0.8014
  902SOL    HW2 3607   2.733   2.099   1.760  0.4151  0.8181 -1.6674
  902SOL     MW 3608   2.665   2.095   1.703  0.4298  0.2505 -0.9440
  903SOL     OW 3609   1.554   2.611   0.635 -0.7113 -0.0857 -0.1388
  903SOL    HW1 3610   1.642   2.626   0.664 -2.0193 -2.1154  3.2278
  903SOL    HW2 3611   1.526   2.670   0.704 -0.9529 -0.3203 -2.2695
  903SOL     MW 3612   1.562   2.621   0.648 -0.9158 -0.3845  0.0243
  904SOL     OW 3613   2.480   2.546   1.709  0.6614 -0.6023  0.1565
  904SOL    HW1 3614   2.427   2.592   1.642 -2.1101 -0.6042  1.0823
  904SOL    HW2 3615   2.522   2.480   1.657 -3.0486 -0.1212  1.2440
  904SOL     MW 3616   2.479   2.544   1.693 -0.1938 -0.5391  0.4222
  905SOL     OW 3617   2.318   2.491   2.091 -0.0075 -0.2181  0.2044
  905SOL    HW1 3618   2.364   2.431   2.034 -0.7988 -3.9523  0.3127
  905SOL    HW2 3619   2.276   2.418   2.145  1.7849  0.9992  0.0685
  905SOL     MW 3620   2.318   2.473   2.091  0.1246 -0.5502  0.2008
  906SOL     OW 3621   2.524   2.504   0.822 -0.1900  0.5774 -0.2938
  906SOL    HW1 3622   2.604   2.490   0.872  1.2602 -3.3153  0.0461
  906SOL    HW2 3623   2.491   2.592   0.838 -3.5447 -2.0633 -1.3742
  906SOL     MW 3624   2.530   2.514   0.831 -0.4413 -0.2846 -0.3915
  907SOL     OW 3625   2.654   2.875   1.273  0.3176  0.0275 -0.2889
  907SOL    HW1 3626   2.714   2.918   1.335  2.2064 -0.2875  0.1462
  907SOL    HW2 3627   2.711   2.889   1.195 -1.3304 -0.8858 -0.3879
  907SOL     MW 3628   2.669   2.883   1.271  0.3494 -0.1346 -0.2445
  908SOL     OW 3629   2.720   2.408   3.094  0.1806  0.4466 -0.3888
  908SOL    HW1 3630   2.675   2.324   3.119 -0.7429 -0.2514 -0.1735
  908SOL    HW2 3631   2.697   2.484   3.152  2.1382  0.4475 -1.0567
  908SOL     MW 3632   2.711   2.407   3.105  0.3170  0.3546 -0.4485
  909SOL     OW 3633   1.765   0.096   1.202 -0.0050  0.4272  0.7128
  909SOL    HW1 3634   1.749   0.163   1.141  1.6022 -0.9241  1.3684
  909SOL    HW2 3635   1.752   0.142   1.279  0.1637  1.9002  0.3222
  909SOL     MW 3636   1.761   0.111   1.204  0.2293  0.4432  0.7477
  910SOL     OW 3637   2.210   1.700   0.417 -0.1681 -0.5305  0.2451
  910SOL    HW1 3638   2.145   1.633   0.392 -0.4063  0.7328  0.7159
  910SOL    HW2 3639   2.198   1.764   0.344  1.3972 -0.8752 -0.2263
  910SOL     MW 3640   2.200   1.700   0.404  0.0070 -0.4093  0.2450
  911SOL     OW 3641   2.280   2.058   1.558  0.4454 -0.0278 -0.1130
  911SOL    HW1 3642   2.311   2.090   1.644  1.3901 -2.0315 -1.4355
  911SOL    HW2 3643   2.327   2.114   1.487 -0.3616  0.2939  0.0687
  911SOL     MW 3644   2.290   2.069   1.560  0.4636 -0.2497 -0.2635
  912SOL     OW 3645   2.916   1.897   1.473 -0.8371 -0.4357 -0.9079
  912SOL    HW1 3646   2.936   1.920   1.376  0.5257 -0.1520  0.0807
  912SOL    HW2 3647   2.833   1.946   1.478  1.9943 -0.7693 -0.7389
  912SOL     MW 3648   2.908   1.907   1.461 -0.2837 -0.4423 -0.7552
  913SOL     OW 3649   2.637   3.083   0.347  0.2454 -0.0869 -0.8484
  913SOL    HW1 3650   2.717   3.036   0.341 -0.3972  1.0459 -2.5667
  913SOL    HW2 3651   2.569   3.029   0.298  1.5138 -0.5538 -1.5943
  913SOL     MW 3652   2.639   3.070   0.340  0.3280  0.0009 -1.1735
  914SOL     OW 3653   2.685   1.857   3.042 -0.2373  0.3269  0.2942
  914SOL    HW1 3654   2.724   1.942   3.036 -0.4680  0.6580  0.7758
  914SOL    HW2 3655   2.603   1.856   2.997  2.6315 -0.5919 -0.7421
  914SOL     MW 3656   2.679   1.868   3.036  0.1108  0.2494  0.2210
  915SOL     OW 3657   1.775   0.161   0.212  0.3965 -0.0705 -0.6957
  915SOL    HW1 3658   1.836   0.092   0.254 -0.2628  0.9852 -0.9967
  915SOL    HW2 3659   1.691   0.111   0.199 -1.6834 -0.8011  0.1869
  915SOL     MW 3660   1.772   0.145   0.216  0.0351 -0.0276 -0.6190
  916SOL     OW 3661   1.757   2.172   1.998 -0.6542  0.1909  0.5691
  916SOL    HW1 3662   1.815   2.237   1.956  0.9241  0.3888  2.2780
  916SOL    HW2 3663   1.776   2.091   1.953 -2.5035  1.6517 -0.0289
  916SOL     MW 3664   1.767   2.170   1.986 -0.6900  0.4098  0.7157
  917SOL     OW 3665   2.509   2.206   2.546  0.3942  0.0969  0.2652
  917SOL    HW1 3666   2.482   2.248   2.627  0.3953  0.7928  1.0896
  917SOL    HW2 3667   2.581   2.253   2.505  0.5074  1.8668 -1.7964
  917SOL     MW 3668   2.515   2.218   2.551  0.4093  0.4222  0.1020
  918SOL     OW 3669   2.008   1.600   2.688  0.4151 -0.3363 -0.4001
  918SOL    HW1 3670   1.934   1.641   2.636  0.9511  1.4162  0.5828
  918SOL    HW2 3671   2.083   1.658   2.671 -0.5320 -0.8975  0.1940
  918SOL     MW 3672   2.008   1.613   2.679  0.3609 -0.1791 -0.1921
  919SOL     OW 3673   3.050   2.415   2.286 -0.0312 -0.1209 -0.8530
  919SOL    HW1 3674   2.990   2.343   2.263 -0.2127  0.4820  1.5867
  919SOL    HW2 3675   3.134   2.423   2.225  0.2064  1.6541 -2.2151
  919SOL     MW 3676   3.053   2.407   2.275 -0.0238  0.1928 -0.7108
  920SOL     OW 3677   2.690   2.855   3.063 -0.2343 -0.5402 -0.4580
  920SOL    HW1 3678   2.599   2.858   3.029 -1.5228  0.7357 -1.4537
  920SOL    HW2 3679   2.721   2.804   2.985  3.5716  0.6399 -3.7559
  920SOL     MW 3680   2.682   2.849   3.048  0.0978 -0.2161 -1.0245
  921SOL     OW 3681   2.434   2.597   2.602 -0.4502 -0.1735  0.2035
  921SOL    HW1 3682   2.517   2.626   2.564 -1.2640 -0.4993 -0.2360
  921SOL    HW2 3683   2.449   2.528   2.662 -1.4657 -0.8149  0.3031
  921SOL     MW 3684   2.447   2.592   2.605 -0.6915 -0.3011  0.1587
  922SOL     OW 3685   2.030   2.796   0.331  0.3395 -0.1826  0.1107
  922SOL    HW1 3686   1.993   2.802   0.242 -2.4728 -1.8469  1.4470
  922SOL    HW2 3687   2.067   2.703   0.335  1.6981 -1.9452  1.4943
  922SOL     MW 3688   2.030   2.784   0.320  0.1477 -0.6347  0.4695
  923SOL     OW 3689   2.207   2.876   1.689  0.0027 -0.1700 -0.6522
  923SOL    HW1 3690   2.251   2.812   1.633 -1.9835 -0.5411  0.3993
  923SOL    HW2 3691   2.156   2.934   1.635 -2.1282 -1.3306 -0.0199
  923SOL     MW 3692   2.206   2.876   1.675 -0.5405 -0.3721 -0.4301
  924SOL     OW 3693   1.136   2.763   2.631 -0.2952 -0.1859 -0.3434
  924SOL    HW1 3694   1.229   2.754   2.630 -1.1733  1.1053 -0.5857
  924SOL    HW2 3695   1.111   2.710   2.701 -2.4179  0.2401  0.2823
  924SOL     MW 3696   1.145   2.755   2.640 -0.6911  0.0406 -0.2928
  925SOL     OW 3697   3.039   0.223   2.689 -0.5465  0.2796  0.4076
  925SOL    HW1 3698   2.961   0.224   2.624 -0.4066  1.2223 -0.2973
  925SOL    HW2 3699   3.014   0.281   2.756 -0.9773 -0.4208 -2.1832
  925SOL     MW 3700   3.025   0.231   2.689 -0.5849  0.3116 -0.0273
  926SOL     OW 3701   2.702   2.368   2.025  0.0533 -0.7936 -0.1619
  926SOL    HW1 3702   2.754   2.444   2.064  2.7464  0.5811  0.2772
  926SOL    HW2 3703   2.736   2.378   1.931  1.9793 -1.0173 -1.8708
  926SOL     MW 3704   2.713   2.379   2.018  0.6627 -0.6417 -0.3294
  927SOL     OW 3705   2.353   0.192   0.299 -0.1144 -0.2418 -0.3057
  927SOL    HW1 3706   2.447   0.182   0.305  1.0449 -0.4967 -0.0101
  927SOL    HW2 3707   2.329   0.171   0.201 -0.5233  0.0893 -0.9138
  927SOL     MW 3708   2.362   0.188   0.287 -0.0154 -0.2317 -0.3469
  928SOL     OW 3709   2.167   2.443   1.755  0.1725 -0.1129 -0.1890
  928SOL    HW1 3710   2.148   2.508   1.689  2.7409  0.3568  1.8445
  928SOL    HW2 3711   2.250   2.458   1.802  0.6690 -0.3861  0.1279
  928SOL     MW 3712   2.176   2.454   1.753  0.5769 -0.0870  0.1211
  929SOL     OW 3713   2.732   2.351   2.474 -0.4747  0.4387  0.4254
  929SOL    HW1 3714   2.772   2.314   2.392  1.0455  0.7980  0.3946
  929SOL    HW2 3715   2.796   2.340   2.550  4.0349 -0.7660 -0.2269
  929SOL     MW 3716   2.746   2.345   2.473  0.3209  0.3271  0.3352
  930SOL     OW 3717   2.005   2.832   2.618 -0.5574  0.2080 -0.5312
  930SOL    HW1 3718   2.012   2.780   2.707 -0.5371  0.1537  0.3046
  930SOL    HW2 3719   2.084   2.882   2.613  0.7628 -0.3288  0.1448
  930SOL     MW 3720   2.017   2.832   2.629 -0.3805  0.1300 -0.3317
  931SOL     OW 3721   3.071   2.752   2.481  0.8026  0.1223 -0.1913
  931SOL    HW1 3722   3.116   2.753   2.566  1.4666 -0.2008  1.0833
  931SOL    HW2 3723   3.140   2.777   2.421 -2.2828  0.3005  2.5812
  931SOL     MW 3724   3.086   2.755   2.484  0.4831  0.1032  0.3427
  932SOL     OW 3725   2.905   1.854   2.486 -0.1763  0.0771 -0.0757
  932SOL    HW1 3726   2.992   1.890   2.491 -0.2514 -0.1136 -2.4706
  932SOL    HW2 3727   2.868   1.890   2.405 -0.2362  2.1318  0.0510
  932SOL     MW 3728   2.912   1.864   2.476 -0.1941  0.3231 -0.3749
  933SOL     OW 3729   2.034   2.783   2.209  0.2971 -0.5508  0.3816
  933SOL    HW1 3730   2.113   2.809   2.255 -2.7630 -1.0197 -2.3911
  933SOL    HW2 3731   1.986   2.861   2.192 -0.4968 -1.3395 -0.5655
  933SOL     MW 3732   2.038   2.797   2.213 -0.2114 -0.7168 -0.1092
  934SOL     OW 3733   1.991   2.644   2.422  0.0388 -0.3712 -0.1382
  934SOL    HW1 3734   1.982   2.727   2.476 -2.0369  2.5066  2.1340
  934SOL    HW2 3735   1.992   2.663   2.330  0.9218 -1.2031  1.8197
  934SOL     MW 3736   1.990   2.658   2.417 -0.1186 -0.1013  0.4199
  935SOL     OW 3737   2.677   1.588   1.842  0.1736 -0.5076 -0.4336
  935SOL    HW1 3738   2.764   1.568   1.807 -0.6466  0.3473 -2.8497
  935SOL    HW2 3739   2.632   1.569   1.760  1.8280  4.2155  3.1408
  935SOL     MW 3740   2.682   1.583   1.827  0.2836  0.2283 -0.2808
  936SOL     OW 3741   2.991   2.282   0.009  0.1414  0.0973  0.2194
  936SOL    HW1 3742   3.069   2.296   0.057  0.3751  1.3231  0.5907
  936SOL    HW2 3743   2.925   2.351   0.026 -1.1798 -0.5796 -1.3554
  936SOL     MW 3744   2.993   2.293   0.018 -0.0021  0.1697  0.0606
  937SOL     OW 3745   2.018   2.160   2.682 -0.0786 -0.3101  0.4918
  937SOL    HW1 3746   2.100   2.107   2.701  3.5161 -1.1229  1.3757
  937SOL    HW2 3747   1.992   2.129   2.593 -1.2916 -0.7340  2.7805
  937SOL     MW 3748   2.026   2.149   2.673  0.2356 -0.4733  0.9104
  938SOL     OW 3749   2.275   1.766   1.902  0.0192 -0.2659 -0.5590
  938SOL    HW1 3750   2.287   1.787   1.809  0.3280 -0.8060  0.0123
  938SOL    HW2 3751   2.265   1.849   1.949  1.6510 -2.0272  0.0942
  938SOL     MW 3752   2.276   1.780   1.896  0.2753 -0.5696 -0.3974
  939SOL     OW 3753   2.788   1.969   2.260  0.1426  0.0372 -0.0029
  939SOL    HW1 3754   2.809   1.930   2.175  0.2462  1.5077  1.0917
  939SOL    HW2 3755   2.689   1.967   2.266  3.3866 -1.9698 -0.6302
  939SOL     MW 3756   2.778   1.963   2.250  0.5843 -0.0336  0.0587
  940SOL     OW 3757   2.286   0.123   2.697 -0.3693  0.2778 -0.5454
  940SOL    HW1 3758   2.278   0.032   2.654 -0.5238  0.7931  1.9075
  940SOL    HW2 3759   2.320   0.115   2.785  0.8320 -1.7833 -1.6891
  940SOL     MW 3760   2.289   0.110   2.703 -0.2312  0.0739 -0.3726
  941SOL     OW 3761   0.147   2.422   2.066  0.3281 -0.3414 -0.4477
  941SOL    HW1 3762   0.227   2.384   2.049 -0.3326  0.4351  0.9734
  941SOL    HW2 3763   0.111   2.425   1.974 -1.6003  1.0655  1.7099
  941SOL     MW 3764   0.153   2.417   2.051 -0.0135 -0.0533  0.0245
  942SOL     OW 3765   2.841   2.236   2.265  0.4403 -0.1601 -0.0508
  942SOL    HW1 3766   2.794   2.249   2.184 -0.2621 -0.5175 -0.6211
  942SOL    HW2 3767   2.826   2.131   2.269  1.5856 -1.6182 -2.6418
  942SOL     MW 3768   2.833   2.224   2.255  0.4987 -0.3996 -0.4679
  943SOL     OW 3769   0.230   2.118   2.289 -0.0067 -0.3344  0.2172
  943SOL    HW1 3770   0.202   2.182   2.353  0.6828 -0.7149  1.1776
  943SOL    HW2 3771   0.312   2.072   2.330  0.1592 -2.3845  1.4645
  943SOL     MW 3772   0.237   2.120   2.303  0.1062 -0.6551  0.5085
  944SOL     OW 3773   2.104   2.632   2.012 -0.2114  0.2593 -0.0322
  944SOL    HW1 3774   2.188   2.584   2.027 -1.7038  1.1785 -2.3037
  944SOL    HW2 3775   2.081   2.680   2.093  0.4936  1.0729  2.3191
  944SOL     MW 3776   2.112   2.632   2.025 -0.3153  0.4879 -0.0217
  945SOL     OW 3777   2.793   2.696   2.857  0.0921  0.3265 -0.4544
  945SOL    HW1 3778   2.773   2.604   2.853  0.0059  4.1221 -0.8909
  945SOL    HW2 3779   2.778   2.722   2.764  0.9090 -0.2122 -2.3629
  945SOL     MW 3780   2.788   2.688   2.844  0.1885  0.7562 -0.7638
  946SOL     OW 3781   2.441   2.685   2.240 -0.2803 -0.2382 -0.7641
  946SOL    HW1 3782   2.485   2.723   2.168 -0.3666 -2.9989  5.7280
  946SOL    HW2 3783   2.402   2.612   2.191  1.4759 -1.1051 -3.6722
  946SOL     MW 3784   2.441   2.680   2.224 -0.0600 -0.7169 -0.2912
  947SOL     OW 3785   1.982   3.105   0.268  0.3412  0.2938 -0.1016
  947SOL    HW1 3786   1.967   3.020   0.225  0.5921 -3.6906  0.1417
  947SOL    HW2 3787   2.025   3.091   0.352  0.1464 -0.6462 -2.4454
  947SOL     MW 3788   1.986   3.092   0.273  0.3486 -0.3559 -0.3787
  948SOL     OW 3789   1.794   3.001   2.697  0.8192 -0.1499 -0.0797
  948SOL    HW1 3790   1.814   2.906   2.698 -0.8687 -3.3254 -1.0300
  948SOL    HW2 3791   1.786   3.031   2.610  0.0419 -1.2209  0.4326
  948SOL     MW 3792   1.796   2.993   2.686  0.4940 -0.7102 -0.1375
  949SOL     OW 3793   2.530   1.958   2.327 -0.3909  0.4879 -0.4659
  949SOL    HW1 3794   2.507   1.867   2.353 -0.1480 -0.7201  2.7360
  949SOL    HW2 3795   2.462   2.018   2.355  0.5359 -0.3097  0.6062
  949SOL     MW 3796   2.518   1.954   2.334 -0.2366  0.2232  0.0980
  950SOL     OW 3797   2.288   2.585   2.941 -0.2088 -0.0278 -0.1433
  950SOL    HW1 3798   2.324   2.521   2.883 -0.7649  0.4483  1.1623
  950SOL    HW2 3799   2.193   2.595   2.906  1.6795 -1.8976  0.2830
  950SOL     MW 3800   2.280   2.578   2.929 -0.0330 -0.2117  0.0852
  951SOL     OW 3801   3.071   2.197   2.840  0.0025  0.6232  0.1387
  951SOL    HW1 3802   3.031   2.229   2.925  0.1726 -0.1297 -1.6541
  951SOL    HW2 3803   3.093   2.105   2.860  0.9837  0.8697 -1.0365
  951SOL     MW 3804   3.069   2.189   2.854  0.1544  0.5564 -0.2529
  952SOL     OW 3805   3.061   1.649   2.097 -0.5988  0.0538 -0.2562
  952SOL    HW1 3806   2.987   1.687   2.047  0.1985  2.0495  0.5590
  952SOL    HW2 3807   3.103   1.718   2.149  1.2674 -1.1260  2.9071
  952SOL     MW 3808   3.057   1.663   2.097 -0.2474  0.1615  0.2687
  953SOL     OW 3809   1.942   1.785   2.869  0.2767  0.2349 -0.1609
  953SOL    HW1 3810   1.866   1.764   2.920  0.2550 -0.6656 -2.4320
  953SOL    HW2 3811   1.968   1.704   2.817 -0.6694  2.6580  2.9610
  953SOL     MW 3812   1.936   1.771   2.869  0.1490  0.4358 -0.0486
  954SOL     OW 3813   2.460   2.123   2.910  0.7434  0.0487  0.9748
  954SOL    HW1 3814   2.371   2.122   2.862 -2.3172  0.1955 -2.3350
  954SOL    HW2 3815   2.520   2.097   2.837  0.6699 -1.4790 -3.8996
  954SOL     MW 3816   2.456   2.119   2.894  0.3299 -0.1335 -0.1050
  955SOL     OW 3817   1.551   1.628   2.526 -0.2619 -0.2478 -0.0444
  955SOL    HW1 3818   1.533   1.617   2.434  0.3456  0.6680 -1.8678
  955SOL    HW2 3819   1.649   1.657   2.524  3.1105 -0.9621  1.7261
  955SOL     MW 3820   1.562   1.631   2.513  0.2632 -0.2212 -0.0514
  956SOL     OW 3821   2.717   2.444   2.828 -0.2364  0.4927  0.3800
  956SOL    HW1 3822   2.725   2.430   2.929  2.4061 -1.8132 -3.6011
  956SOL    HW2 3823   2.796   2.405   2.791 -0.6540  2.3793  2.5544
  956SOL     MW 3824   2.729   2.437   2.837  0.0572  0.4374  0.1416
  957SOL     OW 3825   2.237   2.925   0.455  0.4014  0.2526  0.3596
  957SOL    HW1 3826   2.166   2.888   0.397  0.9523 -3.1943 -2.6231
  957SOL    HW2 3827   2.241   2.866   0.531  5.8225 -0.9871 -2.2808
  957SOL     MW 3828   2.228   2.912   0.457  1.1894 -0.3658 -0.3823
  958SOL     OW 3829   2.035   2.666   2.834 -0.0282 -0.0080 -0.0407
  958SOL    HW1 3830   2.020   2.578   2.789 -2.0617  2.0886  0.2786
  958SOL    HW2 3831   1.991   2.660   2.921  1.3784  1.6645 -0.6762
  958SOL     MW 3832   2.027   2.654   2.840 -0.1109  0.4893 -0.0824
  959SOL     OW 3833   2.509   2.794   0.428  0.2349  0.2986  0.5196
  959SOL    HW1 3834   2.495   2.792   0.331 -0.4655 -1.5806 -1.2301
  959SOL    HW2 3835   2.433   2.844   0.454 -2.0815 -0.5545  3.3238
  959SOL     MW 3836   2.497   2.801   0.419 -0.1632 -0.0619  0.6587
  960SOL     OW 3837   1.933   2.287   2.331  0.5767 -0.4420  0.2488
  960SOL    HW1 3838   1.930   2.194   2.360 -0.9355  1.6482  0.7709
  960SOL    HW2 3839   1.893   2.339   2.402 -0.6813 -0.2280 -0.1000
  960SOL     MW 3840   1.927   2.282   2.344  0.2112 -0.1380  0.2717
  961SOL     OW 3841   2.198   2.330   2.274  0.6480  0.0351 -0.1180
  961SOL    HW1 3842   2.103   2.312   2.261  1.9138 -2.9695  0.7761
  961SOL    HW2 3843   2.194   2.374   2.355  1.4405 -1.4126  0.9749
  961SOL     MW 3844   2.185   2.333   2.283  0.9195 -0.5524  0.1442
  962SOL     OW 3845   2.237   2.008   2.752 -0.4186 -0.6011 -0.4381
  962SOL    HW1 3846   2.232   1.953   2.829 -1.8600  0.9385 -0.0093
  962SOL    HW2 3847   2.246   1.937   2.694  0.4714  2.6381  0.2968
  962SOL     MW 3848   2.237   1.991   2.754 -0.4913  0.0294 -0.2846
  963SOL     OW 3849   1.786   2.477   2.133 -0.1954 -0.0268 -0.2607
  963SOL    HW1 3850   1.848   2.440   2.191 -1.0092 -0.5799  0.4760
  963SOL    HW2 3851   1.829   2.479   2.047 -0.4768  0.4341  0.0549
  963SOL     MW 3852   1.800   2.473   2.129 -0.3399 -0.0390 -0.1219
  964SOL     OW 3853   1.828   1.975   2.732  0.4556  0.2389 -0.2353
  964SOL    HW1 3854   1.900   2.033   2.711  1.4647 -1.4009 -0.2275
  964SOL    HW2 3855   1.877   1.895   2.773 -1.7992  1.7276 -1.0138
  964SOL     MW 3856   1.844   1.972   2.735  0.2913  0.2190 -0.3370
  965SOL     OW 3857   2.256   2.720   0.661 -0.2278 -0.1673  0.6816
  965SOL    HW1 3858   2.245   2.629   0.635  0.2261  0.9027 -0.1738
  965SOL    HW2 3859   2.326   2.733   0.724 -1.6546  0.5755  0.6788
  965SOL     MW 3860   2.264   2.710   0.666 -0.3561  0.0718  0.5684
  966SOL     OW 3861   2.659   2.605   2.385  0.2197  0.2075 -0.1336
  966SOL    HW1 3862   2.582   2.635   2.334  0.0033 -2.0251 -0.8034
  966SOL    HW2 3863   2.659   2.510   2.408  0.5974 -1.2407  2.7563
  966SOL     MW 3864   2.649   2.597   2.381  0.2409 -0.2782  0.1593
  967SOL     OW 3865   2.819   3.068   2.929  0.1527 -0.0192 -0.0482
  967SOL    HW1 3866   2.766   3.006   2.983 -0.1188  1.4785 -1.1040
  967SOL    HW2 3867   2.746   3.089   2.869 -0.6800 -1.1587 -0.5189
  967SOL     MW 3868   2.803   3.063   2.928  0.0070  0.0280 -0.2496
  968SOL     OW 3869   3.036   2.622   2.995  0.1035  0.1830  0.3457
  968SOL    HW1 3870   2.969   2.673   2.950  2.1511  2.8977 -1.8696
  968SOL    HW2 3871   3.090   2.581   2.922 -1.6952  1.3989 -1.3660
  968SOL     MW 3872   3.035   2.623   2.979  0.1363  0.7016 -0.1725
  969SOL     OW 3873   1.608   2.194   1.687 -0.2759  0.2704  0.5156
  969SOL    HW1 3874   1.680   2.132   1.695  0.1785  0.8227 -1.6316
  969SOL    HW2 3875   1.552   2.200   1.767  2.8118  0.2096  0.8738
  969SOL     MW 3876   1.610   2.187   1.698  0.1915  0.3353  0.2796
  970SOL     OW 3877   1.780   1.825   1.913  0.0609 -0.0268 -0.1512
  970SOL    HW1 3878   1.845   1.761   1.932 -0.4478  1.8283  0.4904
  970SOL    HW2 3879   1.692   1.786   1.900 -0.8818  0.2281  0.6396
  970SOL     MW 3880   1.777   1.811   1.914 -0.1306  0.2516  0.0378
  971SOL     OW 3881   1.766   3.075   2.406  0.0787 -0.2185  0.1432
  971SOL    HW1 3882   1.818   3.036   2.331  4.2541 -1.0093  0.2814
  971SOL    HW2 3883   1.794   3.164   2.408 -1.4499 -0.6472 -1.7574
  971SOL     MW 3884   1.776   3.081   2.396  0.4279 -0.3794 -0.0893
  972SOL     OW 3885   0.261   2.874   2.473 -0.3026 -0.5449 -0.4671
  972SOL    HW1 3886   0.327   2.808   2.475  0.5264  1.0878 -0.4231
  972SOL    HW2 3887   0.309   2.964   2.478  1.7039  1.9518  1.2624
  972SOL     MW 3888   0.276   2.877   2.474  0.0715 -0.0000 -0.2331
  973SOL     OW 3889   2.616   3.068   2.112  0.1349  0.2147 -0.0690
  973SOL    HW1 3890   2.601   2.975   2.079  1.1821 -0.7203  0.4079
  973SOL    HW2 3891   2.619   3.122   2.036 -1.0792 -0.8970  1.1271
  973SOL     MW 3892   2.614   3.063   2.098  0.1129 -0.0554  0.1517
  974SOL     OW 3893   2.000   0.150   2.697 -0.8845 -0.1075 -0.7032
  974SOL    HW1 3894   2.098   0.166   2.692 -0.4312 -2.1005 -0.3987
  974SOL    HW2 3895   1.988   0.110   2.784 -0.3683  0.1651  1.4746
  974SOL     MW 3896   2.011   0.147   2.708 -0.7566 -0.3345 -0.3757
  975SOL     OW 3897   2.203   2.479   2.495  0.1498  0.3091  0.2884
  975SOL    HW1 3898   2.285   2.521   2.523  0.3966 -1.8911 -0.4357
  975SOL    HW2 3899   2.141   2.552   2.469 -0.0595  1.6718 -0.9031
  975SOL     MW 3900   2.206   2.494   2.496  0.1547  0.1986  0.0356
  976SOL     OW 3901   0.153   0.377   1.745  0.2153 -1.0334  0.1460
  976SOL    HW1 3902   0.228   0.323   1.768 -1.4511  2.4144 -0.2644
  976SOL    HW2 3903   0.082   0.319   1.705  0.0439 -2.3549 -4.0696
  976SOL     MW 3904   0.154   0.362   1.743 -0.0272 -0.7529 -0.4643
  977SOL     OW 3905   1.693   2.702   2.489  0.0896  0.3266 -0.3281
  977SOL    HW1 3906   1.735   2.613   2.489  0.7298  0.0370  0.6046
  977SOL    HW2 3907   1.747   2.775   2.462 -1.3650 -1.2547 -2.3801
  977SOL     MW 3908   1.706   2.700   2.485 -0.0179  0.0798 -0.4758
   3.10000   3.10000   3.10000
