977 TIP4P/2005f water molecules t=   1.18000 step= 1180
 3908
    1SOL     OW    1   0.416   0.789   3.081 -0.0557  0.0172  0.3592
    1SOL    HW1    2   0.373   0.819   3.001  2.4076 -1.2828  0.1495
    1SOL    HW2    3   0.362   0.716   3.111  2.7451  1.2091  0.6864
    1SOL     MW    4   0.403   0.783   3.074  0.6388  0.0029  0.3747
    2SOL     OW    5   0.333   3.051   1.158  0.3641 -0.0655  0.4757
    2SOL    HW1    6   0.393   3.119   1.121  1.7782  2.3606 -0.1783
    2SOL    HW2    7   0.241   3.085   1.154  0.0708  0.2418  1.4211
    2SOL     MW    8   0.329   3.064   1.152  0.5120  0.2951  0.5142
    3SOL     OW    9   2.572   0.374   0.996  0.1375 -0.6128  0.3602
    3SOL    HW1   10   2.582   0.428   0.924 -0.6611 -0.1767 -1.5679
    3SOL    HW2   11   2.554   0.430   1.075 -0.4753 -3.6300 -3.1960
    3SOL     MW   12   2.571   0.388   0.997 -0.0488 -0.9533 -0.3634
    4SOL     OW   13   2.988   1.723   0.543  1.1416  0.3156  0.3735
    4SOL    HW1   14   2.947   1.785   0.484  0.8665  2.0270 -0.3973
    4SOL    HW2   15   3.055   1.691   0.484  3.0051  0.2096  0.9434
    4SOL     MW   16   2.991   1.727   0.527  1.3512  0.5274  0.3470
    5SOL     OW   17   1.695   1.507   0.513 -0.6852  0.4291  0.1768
    5SOL    HW1   18   1.725   1.452   0.587  0.8182 -1.7147 -1.5906
    5SOL    HW2   19   1.603   1.527   0.517  1.1374 -0.7073 -1.9314
    5SOL     MW   20   1.687   1.503   0.524 -0.2464 -0.0037 -0.3346
    6SOL     OW   21   0.819   1.367   0.579  0.4806  0.8712 -0.1903
    6SOL    HW1   22   0.729   1.381   0.614 -1.1922 -0.3330 -0.2526
    6SOL    HW2   23   0.862   1.300   0.633 -0.6040 -1.7597 -0.0950
    6SOL     MW   24   0.813   1.360   0.591  0.1168  0.3652 -0.1860
    7SOL     OW   25   2.073   1.037   0.004 -0.1557  0.0455 -0.3042
    7SOL    HW1   26   2.154   1.077   0.030  0.9551 -0.4943  0.5022
    7SOL    HW2   27   2.033   1.018   0.091 -1.7474  0.8991 -2.2702
    7SOL     MW   28   2.078   1.040   0.019 -0.2192  0.0869 -0.4572
    8SOL     OW   29   0.911   1.458   1.193 -0.2010  0.0191  0.1500
    8SOL    HW1   30   1.003   1.473   1.209 -1.5068  2.0215  2.1755
    8SOL    HW2   31   0.890   1.371   1.218 -1.0686  0.0277  1.0123
    8SOL     MW   32   0.920   1.449   1.199 -0.4877  0.2844  0.5310
    9SOL     OW   33   0.997   0.518   1.398  0.0141 -0.2922 -0.0890
    9SOL    HW1   34   0.961   0.442   1.350  0.3591  1.0850  2.1370
    9SOL    HW2   35   1.051   0.493   1.472 -4.3751 -1.0786  2.7705
    9SOL     MW   36   1.000   0.504   1.401 -0.5195 -0.2142  0.5820
   10SOL     OW   37   0.230   0.794   0.488  0.1825  0.5568  0.2998
   10SOL    HW1   38   0.317   0.819   0.453  1.0324  0.5183  1.0231
   10SOL    HW2   39   0.224   0.810   0.581  0.1813 -0.0594 -1.6566
   10SOL     MW   40   0.241   0.799   0.496  0.2945  0.4704  0.1371
   11SOL     OW   41   0.780   1.125   1.608 -0.2485 -0.4194  0.0710
   11SOL    HW1   42   0.805   1.098   1.693  2.2520  1.7160  2.3644
   11SOL    HW2   43   0.761   1.054   1.552  0.0289 -0.5915  1.4276
   11SOL     MW   44   0.781   1.112   1.612  0.1180 -0.1603  0.5526
   12SOL     OW   45   3.095   1.064   0.887 -0.3994  0.3311 -0.2626
   12SOL    HW1   46   3.136   1.114   0.955 -0.2389  0.1598 -0.7198
   12SOL    HW2   47   3.076   1.142   0.829 -0.4785  2.2562  0.3136
   12SOL     MW   48   3.098   1.081   0.888 -0.3886  0.5625 -0.2469
   13SOL     OW   49   1.863   1.404   1.379 -0.1759 -0.7084 -0.2118
   13SOL    HW1   50   1.877   1.349   1.301  3.3112  1.6646 -2.8742
   13SOL    HW2   51   1.883   1.493   1.347  0.3315 -2.4737 -1.6328
   13SOL     MW   52   1.868   1.408   1.365  0.3511 -0.6282 -0.7505
   14SOL     OW   53   0.560   0.350   1.856  0.0594 -0.7237 -0.0259
   14SOL    HW1   54   0.498   0.280   1.872  0.7906 -3.5433 -1.9493
   14SOL    HW2   55   0.581   0.338   1.760  0.6313 -0.9746 -0.2192
   14SOL     MW   56   0.555   0.339   1.846  0.2313 -1.1288 -0.3052
   15SOL     OW   57   1.963   0.338   1.061  0.1550 -0.3580 -0.3584
   15SOL    HW1   58   1.937   0.404   1.130  0.2034 -2.3720  1.8762
   15SOL    HW2   59   2.024   0.376   1.000 -1.9415  1.1284  1.0982
   15SOL     MW   60   1.968   0.352   1.062 -0.1152 -0.4276  0.1286
   16SOL     OW   61   0.191   1.821   0.275  0.3812 -0.1586  0.2736
   16SOL    HW1   62   0.282   1.791   0.287 -0.4364  0.9408  1.5568
   16SOL    HW2   63   0.183   1.916   0.303  1.4776  2.2166 -0.0487
   16SOL     MW   64   0.202   1.829   0.281  0.4180  0.2999  0.4004
   17SOL     OW   65   1.036   0.936   1.456 -0.3665 -0.1982  0.1130
   17SOL    HW1   66   1.076   0.902   1.534 -0.3865  2.6377  1.7091
   17SOL    HW2   67   0.940   0.925   1.470 -0.5805  2.3159  0.3093
   17SOL     MW   68   1.029   0.930   1.468 -0.3974  0.5077  0.3495
   18SOL     OW   69   0.074   1.580   0.353  0.6427  0.3807  0.0906
   18SOL    HW1   70   0.112   1.661   0.321 -3.4366 -1.2507 -3.4543
   18SOL    HW2   71   0.044   1.541   0.268  2.1655  1.9025  1.5228
   18SOL     MW   72   0.075   1.585   0.338  0.3054  0.3662 -0.1882
   19SOL     OW   73   0.082   1.277   1.027  0.4811  0.5000 -0.3976
   19SOL    HW1   74   0.134   1.312   0.950  0.5053 -2.4415 -0.9380
   19SOL    HW2   75   0.001   1.332   1.031 -2.5117 -0.7057 -2.4404
   19SOL     MW   76   0.078   1.289   1.018  0.0895 -0.0471 -0.7384
   20SOL     OW   77   0.424   2.175   1.163 -0.0713  0.0987 -0.2419
   20SOL    HW1   78   0.389   2.108   1.107 -2.3430 -0.1511  0.4383
   20SOL    HW2   79   0.365   2.180   1.241  1.8190 -0.1642  0.2061
   20SOL     MW   80   0.412   2.167   1.166 -0.1216  0.0310 -0.0931
   21SOL     OW   81   0.485   0.885   0.420  0.1686  0.0119  0.0553
   21SOL    HW1   82   0.548   0.844   0.479 -1.2833  0.9012  1.6364
   21SOL    HW2   83   0.520   0.880   0.331 -1.0038  0.3457 -1.0372
   21SOL     MW   84   0.498   0.879   0.416 -0.1777  0.1733  0.1197
   22SOL     OW   85   1.549   0.686   1.025 -0.4418  0.2445 -0.3233
   22SOL    HW1   86   1.498   0.653   0.951 -0.7853  2.1591  2.2283
   22SOL    HW2   87   1.482   0.739   1.072 -0.3441  0.5341 -0.9546
   22SOL     MW   88   1.533   0.689   1.021 -0.4742  0.5353 -0.0699
   23SOL     OW   89   3.046   0.678   0.720  0.3882 -0.3994  0.0036
   23SOL    HW1   90   3.075   0.606   0.775 -1.5584  0.5779 -1.6912
   23SOL    HW2   91   3.107   0.748   0.741  1.5498 -0.6374 -0.8497
   23SOL     MW   92   3.058   0.678   0.730  0.2847 -0.3018 -0.3326
   24SOL     OW   93   2.034   2.225   0.038 -0.2108  0.3670 -0.2539
   24SOL    HW1   94   2.019   2.203   0.130 -2.5728 -2.4872 -0.6194
   24SOL    HW2   95   2.051   2.138  -0.007  0.0325 -0.5468 -1.4679
   24SOL     MW   96   2.034   2.211   0.044 -0.4903 -0.1301 -0.4623
   25SOL     OW   97   0.199   1.416   0.543 -0.2010  0.0244 -0.4070
   25SOL    HW1   98   0.141   1.466   0.490 -1.3228  1.0829 -1.5490
   25SOL    HW2   99   0.287   1.445   0.510 -1.8218 -1.5529 -0.7277
   25SOL     MW  100   0.203   1.426   0.531 -0.5628 -0.0441 -0.6000
   26SOL     OW  101   2.061   1.043   0.303 -0.1120  0.8268 -0.1482
   26SOL    HW1  102   2.006   1.099   0.362  2.6972  2.0928  0.2942
   26SOL    HW2  103   2.134   1.105   0.289 -2.2950 -2.3867 -0.2052
   26SOL     MW  104   2.064   1.059   0.309 -0.0294  0.5699 -0.0973
   27SOL     OW  105   1.980   1.463   0.220  0.0124 -0.0216 -0.2176
   27SOL    HW1  106   1.918   1.533   0.207  0.5550  0.0140 -1.0605
   27SOL    HW2  107   2.025   1.485   0.301 -2.5143  2.3231  0.5362
   27SOL     MW  108   1.977   1.475   0.229 -0.2494  0.2925 -0.2294
   28SOL     OW  109   0.449   0.999   1.958 -0.1934  0.2003 -0.0806
   28SOL    HW1  110   0.498   1.037   2.036  1.7482  2.1065  2.0700
   28SOL    HW2  111   0.366   0.965   1.984  0.4883  1.1640 -0.1966
   28SOL     MW  112   0.444   1.000   1.972  0.1527  0.5790  0.1879
   29SOL     OW  113   0.217   1.453   0.839  0.2594  0.1074 -0.6254
   29SOL    HW1  114   0.199   1.545   0.853 -1.2034 -1.3191 -2.3130
   29SOL    HW2  115   0.223   1.436   0.743 -1.5080 -0.7592  1.0089
   29SOL     MW  116   0.215   1.463   0.828 -0.1668 -0.1951 -0.6324
   30SOL     OW  117   0.793   1.225   1.239 -0.1857  0.5316 -0.9464
   30SOL    HW1  118   0.702   1.218   1.282 -1.0817  0.6742 -2.0181
   30SOL    HW2  119   0.854   1.194   1.310  0.2684  0.5777  3.7932
   30SOL     MW  120   0.789   1.220   1.254 -0.2440  0.5565 -0.4624
   31SOL     OW  121   0.411   0.246   0.160 -0.5552 -0.0510 -0.1417
   31SOL    HW1  122   0.443   0.176   0.220  0.0973 -1.3927  1.2752
   31SOL    HW2  123   0.426   0.210   0.071 -0.0205 -0.4802  0.4672
   31SOL     MW  124   0.417   0.232   0.156 -0.3986 -0.2847  0.1256
   32SOL     OW  125   2.779   0.982   1.176 -0.9097  0.6126 -0.2075
   32SOL    HW1  126   2.725   0.920   1.116  0.3449 -1.1326 -0.0220
   32SOL    HW2  127   2.871   0.955   1.159 -1.2628 -1.3338 -0.4279
   32SOL     MW  128   2.784   0.970   1.166 -0.7908  0.1255 -0.2121
   33SOL     OW  129   1.672   1.303   0.338 -0.3113 -0.3214  0.2906
   33SOL    HW1  130   1.724   1.244   0.393 -2.1504 -0.0267 -0.2226
   33SOL    HW2  131   1.692   1.388   0.384 -0.7905  0.9283  0.6211
   33SOL     MW  132   1.681   1.307   0.351 -0.6172 -0.1176  0.2665
   34SOL     OW  133   1.224   1.927   1.104 -0.0086  0.0858  0.3197
   34SOL    HW1  134   1.141   1.961   1.136 -0.0603  0.5121  0.0431
   34SOL    HW2  135   1.289   1.971   1.162  1.7642 -2.1337  0.4613
   34SOL     MW  136   1.222   1.937   1.116  0.2185 -0.1508  0.3019
   35SOL     OW  137   0.369   0.135   1.844 -0.4397 -0.1244  0.2649
   35SOL    HW1  138   0.376   0.067   1.911 -0.6110  0.8220 -0.5146
   35SOL    HW2  139   0.442   0.117   1.780 -1.3774 -1.9701  1.2956
   35SOL     MW  140   0.379   0.123   1.844 -0.5860 -0.2430  0.2981
   36SOL     OW  141   1.972   1.940   0.569 -0.1535 -0.5089 -0.7425
   36SOL    HW1  142   1.951   1.927   0.478 -1.5472  2.2191  0.5605
   36SOL    HW2  143   1.967   1.850   0.604  2.1630 -1.4244 -0.1340
   36SOL     MW  144   1.969   1.927   0.562 -0.0318 -0.2698 -0.4903
   37SOL     OW  145   1.779   2.020   0.976  0.0273  0.5716 -0.0815
   37SOL    HW1  146   1.730   1.958   0.927  1.2279  2.3270  1.6904
   37SOL    HW2  147   1.719   2.076   1.031 -1.4470  0.3001 -2.0412
   37SOL     MW  148   1.765   2.019   0.977 -0.0088  0.7674 -0.1063
   38SOL     OW  149   2.815   0.946   0.134  0.1525  0.4243 -0.7619
   38SOL    HW1  150   2.812   0.943   0.231  1.5686 -0.4591 -0.1571
   38SOL    HW2  151   2.905   0.924   0.106  2.3626  1.9902  1.7404
   38SOL     MW  152   2.827   0.942   0.143  0.6310  0.5144 -0.3519
   39SOL     OW  153   1.416   0.611   0.798 -0.0940 -0.0096 -0.3876
   39SOL    HW1  154   1.372   0.527   0.823 -0.3661  2.0279  1.6490
   39SOL    HW2  155   1.346   0.661   0.752 -0.9401  0.4332 -4.8399
   39SOL     MW  156   1.401   0.606   0.795 -0.2415  0.3177 -0.7063
   40SOL     OW  157   1.162   1.897   0.305 -0.2152 -0.1545 -0.5760
   40SOL    HW1  158   1.188   1.824   0.366 -1.6976 -1.9667 -0.1689
   40SOL    HW2  159   1.193   1.977   0.351 -1.0619  1.2694 -0.1798
   40SOL     MW  160   1.169   1.898   0.319 -0.5225 -0.2057 -0.4700
   41SOL     OW  161   0.546   0.503   1.571 -0.2483 -0.3612  0.1625
   41SOL    HW1  162   0.637   0.535   1.575 -1.4829  0.3122 -0.8300
   41SOL    HW2  163   0.507   0.547   1.642 -2.4992  2.5537  2.1593
   41SOL     MW  164   0.553   0.513   1.581 -0.7082  0.1122  0.2950
   42SOL     OW  165   1.252   3.007   2.013  0.3486  0.0237 -0.2069
   42SOL    HW1  166   1.155   3.009   2.011 -1.6176  1.3041 -0.8503
   42SOL    HW2  167   1.269   2.943   2.081 -0.2139 -0.6391  1.2240
   42SOL     MW  168   1.242   2.999   2.021  0.0150  0.1052 -0.1030
   43SOL     OW  169   1.485   0.121   1.697 -0.3537  0.0976 -0.6511
   43SOL    HW1  170   1.536   0.067   1.634 -1.4357  0.0948 -2.6807
   43SOL    HW2  171   1.396   0.087   1.704 -1.7030 -2.5837 -0.3900
   43SOL     MW  172   1.480   0.109   1.690 -0.6745 -0.2565 -0.8845
   44SOL     OW  173   1.149   0.770   0.991  0.8915 -0.3800  0.0006
   44SOL    HW1  174   1.164   0.865   0.980  0.3862  1.2093  1.0427
   44SOL    HW2  175   1.152   0.755   1.091 -2.6985 -1.7121  1.3975
   44SOL     MW  176   1.151   0.780   1.003  0.3512 -0.3461  0.3224
   45SOL     OW  177   1.228   0.749   0.657  0.1708 -0.1686  1.0092
   45SOL    HW1  178   1.163   0.753   0.727 -1.5861  0.6276  0.6915
   45SOL    HW2  179   1.185   0.675   0.610  0.2380 -0.3069 -0.6394
   45SOL     MW  180   1.214   0.740   0.660 -0.0522 -0.0818  0.7498
   46SOL     OW  181   0.566   1.122   0.578 -0.4875 -0.5074 -0.1710
   46SOL    HW1  182   0.543   1.119   0.488 -1.4440  2.0906  0.4736
   46SOL    HW2  183   0.657   1.095   0.569 -0.7515 -1.7928 -0.0504
   46SOL     MW  184   0.575   1.118   0.565 -0.6485 -0.3342 -0.0701
   47SOL     OW  185   0.225   1.991   1.966 -0.4894 -0.4073  0.0755
   47SOL    HW1  186   0.304   1.948   2.009  1.8974  0.8848 -0.3051
   47SOL    HW2  187   0.161   1.996   2.031 -0.7194 -1.5972 -1.1134
   47SOL     MW  188   0.227   1.986   1.980 -0.2049 -0.3939 -0.1316
   48SOL     OW  189   1.101   0.520   1.079  0.0922 -0.0794 -0.2760
   48SOL    HW1  190   1.005   0.521   1.111 -1.0491  0.5716 -0.0533
   48SOL    HW2  191   1.102   0.595   1.019 -0.1597  0.0947  0.8696
   48SOL     MW  192   1.088   0.530   1.075 -0.0916  0.0295 -0.0954
   49SOL     OW  193   1.709   0.684   1.546  0.5044 -0.5474 -0.6253
   49SOL    HW1  194   1.684   0.644   1.631  0.4054 -1.4702  1.0841
   49SOL    HW2  195   1.792   0.637   1.529 -0.0678  0.3221  1.0147
   49SOL     MW  196   1.717   0.673   1.555  0.4158 -0.5545 -0.1834
   50SOL     OW  197   1.298   1.108   0.520 -0.2502  0.1914  0.5666
   50SOL    HW1  198   1.246   1.153   0.588 -0.3203 -0.7381 -0.1584
   50SOL    HW2  199   1.380   1.106   0.569  0.4252  1.0776  0.9774
   50SOL     MW  200   1.302   1.114   0.536 -0.1703  0.1857  0.5251
   51SOL     OW  201   0.337   2.933   0.911 -0.6530 -0.5967 -0.1666
   51SOL    HW1  202   0.425   2.884   0.913  1.6053 -0.5691 -0.4836
   51SOL    HW2  203   0.322   2.973   1.000  0.9129  2.2053  0.7931
   51SOL     MW  204   0.346   2.932   0.923 -0.1484 -0.2233 -0.0818
   52SOL     OW  205   0.823   1.746   0.411  0.0537  0.6306  0.1960
   52SOL    HW1  206   0.799   1.841   0.404 -0.1024  2.4727  1.0195
   52SOL    HW2  207   0.851   1.715   0.320 -0.1748 -0.7338  0.4492
   52SOL     MW  208   0.824   1.754   0.398  0.0030  0.6936  0.3381
   53SOL     OW  209   0.429   2.136   0.466 -0.5969  0.1298  0.2545
   53SOL    HW1  210   0.362   2.133   0.392 -1.8546 -2.0818 -2.3908
   53SOL    HW2  211   0.410   2.226   0.504 -0.3762 -0.9697 -1.7600
   53SOL     MW  212   0.417   2.147   0.461 -0.7337 -0.3071 -0.3604
   54SOL     OW  213   1.999   0.908   0.790  0.5564  0.4101 -0.2623
   54SOL    HW1  214   2.029   0.920   0.702 -1.5601  0.0944 -0.9560
   54SOL    HW2  215   2.012   0.812   0.810  0.8797 -1.2340  0.1317
   54SOL     MW  216   2.005   0.897   0.781  0.3198  0.1516 -0.3019
   55SOL     OW  217   0.546   1.558   1.610  0.1482  0.2228  0.6180
   55SOL    HW1  218   0.495   1.590   1.533 -1.7593 -1.5827  0.5888
   55SOL    HW2  219   0.625   1.519   1.568  2.3929  0.3570  3.3959
   55SOL     MW  220   0.550   1.557   1.594  0.1927  0.0023  0.9806
   56SOL     OW  221   0.630   0.838   0.190  0.0472 -0.6391 -0.2759
   56SOL    HW1  222   0.652   0.926   0.163 -0.1146  0.6903  0.1888
   56SOL    HW2  223   0.564   0.810   0.130  0.7926  2.8278 -0.3121
   56SOL     MW  224   0.625   0.845   0.178  0.1242 -0.0063 -0.2194
   57SOL     OW  225   1.181   1.286   1.143  0.0617 -0.7054 -0.4744
   57SOL    HW1  226   1.276   1.269   1.147 -3.1434  2.3919  0.3098
   57SOL    HW2  227   1.132   1.252   1.223 -2.4919 -1.1520 -0.5338
   57SOL     MW  228   1.187   1.280   1.155 -0.6981 -0.3557 -0.3787
   58SOL     OW  229   0.546   1.227   1.337  0.2773 -0.2971 -0.8131
   58SOL    HW1  230   0.519   1.321   1.326  0.7023 -0.3513  2.6653
   58SOL    HW2  231   0.538   1.213   1.437  0.4975  2.7064 -0.6197
   58SOL     MW  232   0.541   1.238   1.349  0.3624  0.0920 -0.3286
   59SOL     OW  233   1.527   1.696   0.346 -0.4593  0.1851 -0.0599
   59SOL    HW1  234   1.572   1.728   0.426 -0.0828  0.1397 -1.5936
   59SOL    HW2  235   1.437   1.683   0.363 -2.0740  0.6789 -0.3775
   59SOL     MW  236   1.521   1.699   0.359 -0.6227  0.2443 -0.3042
   60SOL     OW  237   0.040   0.241   1.676  0.2642  0.1800  0.0761
   60SOL    HW1  238  -0.047   0.275   1.717  4.0275 -0.3217 -0.0233
   60SOL    HW2  239   0.048   0.152   1.713 -0.8152  0.7413  0.6538
   60SOL     MW  240   0.029   0.234   1.686  0.6183  0.1879  0.1392
   61SOL     OW  241   1.994   1.399   3.044  0.1709 -0.2579 -0.2442
   61SOL    HW1  242   1.987   1.418   3.139  1.8574 -1.7841  1.1435
   61SOL    HW2  243   2.058   1.332   3.035 -1.0740 -0.9445 -0.4570
   61SOL     MW  244   2.001   1.393   3.055  0.2291 -0.5499 -0.0892
   62SOL     OW  245   0.579   1.669   0.548 -0.7622  0.5620 -0.7857
   62SOL    HW1  246   0.668   1.673   0.511 -1.6318 -1.8943 -0.8011
   62SOL    HW2  247   0.575   1.572   0.553  3.7680 -3.4888 -3.4074
   62SOL     MW  248   0.590   1.656   0.544 -0.2793 -0.2965 -1.1336
   63SOL     OW  249   1.714   0.667   0.713  0.4385 -0.7170  0.0473
   63SOL    HW1  250   1.743   0.751   0.673 -0.7518 -0.1182  2.0860
   63SOL    HW2  251   1.620   0.674   0.710 -0.1380 -0.5531 -2.1014
   63SOL     MW  252   1.706   0.679   0.707  0.2054 -0.6164  0.0328
   64SOL     OW  253   0.224   1.717   0.856  0.3071 -0.5658 -0.2535
   64SOL    HW1  254   0.288   1.756   0.794  3.1769  0.7602  1.4111
   64SOL    HW2  255   0.140   1.766   0.850 -0.5503  1.7318  1.6541
   64SOL     MW  256   0.221   1.729   0.847  0.5726 -0.0877  0.2178
   65SOL     OW  257   1.585   2.299   0.431 -0.3395  0.2690  0.4359
   65SOL    HW1  258   1.648   2.248   0.479 -0.5270  2.1382  1.7634
   65SOL    HW2  259   1.546   2.345   0.504  3.4359 -0.8879 -0.6472
   65SOL     MW  260   1.588   2.299   0.447  0.1339  0.3630  0.4682
   66SOL     OW  261   0.311   0.531   0.520  0.1402  0.0879 -0.2210
   66SOL    HW1  262   0.372   0.520   0.452 -0.1889  4.3158  0.6423
   66SOL    HW2  263   0.293   0.623   0.514 -0.6712  0.0714 -0.7441
   66SOL     MW  264   0.317   0.541   0.510 -0.0103  0.6436 -0.1761
   67SOL     OW  265   1.477   0.129   1.977  0.0465  0.4254  0.4168
   67SOL    HW1  266   1.483   0.149   1.883 -0.9807  0.9637 -0.6980
   67SOL    HW2  267   1.432   0.040   1.988 -0.7280 -0.6679 -1.5642
   67SOL     MW  268   1.472   0.120   1.966 -0.1912  0.3522  0.0084
   68SOL     OW  269   0.713   0.072   2.997 -0.2293  0.5778  0.1544
   68SOL    HW1  270   0.723   0.108   2.907 -0.4417  0.6571 -1.3187
   68SOL    HW2  271   0.801   0.052   3.043 -0.8411  1.4663 -1.6879
   68SOL     MW  272   0.726   0.074   2.991 -0.3380  0.7055 -0.2830
   69SOL     OW  273   1.003   0.189   1.984 -0.2154  0.2121  0.5521
   69SOL    HW1  274   1.089   0.230   1.992 -0.2732 -1.6778 -0.0935
   69SOL    HW2  275   1.017   0.094   2.005 -1.8048 -2.1075  0.3000
   69SOL     MW  276   1.016   0.182   1.988 -0.4328 -0.3433  0.4336
   70SOL     OW  277   0.567   1.788   1.164 -0.1687 -0.0307 -0.3015
   70SOL    HW1  278   0.618   1.738   1.232 -0.3619  0.8463 -2.2932
   70SOL    HW2  279   0.631   1.838   1.109  1.3199  0.0051  0.0459
   70SOL     MW  280   0.582   1.788   1.166  0.0022  0.0897 -0.5185
   71SOL     OW  281   1.593   0.479   1.231  0.2747  0.1507 -0.5129
   71SOL    HW1  282   1.562   0.551   1.290  0.2896 -0.2968 -1.5797
   71SOL    HW2  283   1.611   0.532   1.152 -0.9996  0.0327 -0.5639
   71SOL     MW  284   1.591   0.496   1.228  0.1086  0.0761 -0.6604
   72SOL     OW  285   0.795   1.853   1.038 -0.1641 -0.5226 -0.1771
   72SOL    HW1  286   0.800   1.870   0.944  3.1237  1.2366  1.9245
   72SOL    HW2  287   0.814   1.756   1.048 -1.9913 -0.8598  0.2677
   72SOL     MW  288   0.798   1.843   1.027  0.0286 -0.3350  0.1589
   73SOL     OW  289   1.178   0.731   1.293  0.4715 -0.2228 -0.1729
   73SOL    HW1  290   1.126   0.646   1.299 -2.9338 -0.6445 -1.3476
   73SOL    HW2  291   1.128   0.807   1.327 -0.0497 -0.4956 -1.3145
   73SOL     MW  292   1.164   0.730   1.298 -0.0466 -0.3144 -0.4785
   74SOL     OW  293   2.779   0.219   1.122  0.1001  0.5626 -0.0630
   74SOL    HW1  294   2.805   0.150   1.066  1.4099  2.1709  2.4454
   74SOL    HW2  295   2.718   0.279   1.076  1.8857  0.8106  0.9394
   74SOL     MW  296   2.774   0.218   1.109  0.5085  0.8075  0.4002
   75SOL     OW  297   1.572   1.445   0.122  0.0994 -0.8267 -0.2894
   75SOL    HW1  298   1.637   1.510   0.108 -1.8966 -0.3947 -0.8314
   75SOL    HW2  299   1.607   1.391   0.190 -0.4879  1.8308 -0.4688
   75SOL     MW  300   1.585   1.446   0.129 -0.2415 -0.4191 -0.3846
   76SOL     OW  301   2.951   0.570   0.475  0.0797  1.0855 -0.1373
   76SOL    HW1  302   2.985   0.611   0.556  1.4921  0.4362 -0.5231
   76SOL    HW2  303   3.030   0.533   0.435  0.0617 -1.4155  1.3704
   76SOL     MW  304   2.966   0.570   0.480  0.2637  0.6698  0.0107
   77SOL     OW  305   0.822   0.560   0.478 -0.5481 -0.5126  0.1470
   77SOL    HW1  306   0.803   0.571   0.384  0.1519  0.1835  0.1104
   77SOL    HW2  307   0.791   0.472   0.501 -0.5011  0.7778 -2.6408
   77SOL     MW  308   0.815   0.550   0.468 -0.4495 -0.2505 -0.2257
   78SOL     OW  309   0.762   0.882   1.195 -0.0585 -0.8459 -0.0247
   78SOL    HW1  310   0.799   0.957   1.142  1.0496  2.3435 -1.9965
   78SOL    HW2  311   0.670   0.873   1.177 -0.6212 -0.7357 -0.8614
   78SOL     MW  312   0.755   0.891   1.186  0.0134 -0.4105 -0.3953
   79SOL     OW  313   1.906   1.663   0.620  0.4424 -0.0320  0.2045
   79SOL    HW1  314   1.835   1.626   0.569 -1.0837  0.2565  0.9851
   79SOL    HW2  315   1.890   1.627   0.707  0.1286 -1.5548 -0.0162
   79SOL     MW  316   1.894   1.653   0.624  0.1996 -0.1949  0.2784
   80SOL     OW  317   0.062   0.926   0.325  0.4307 -0.0049  0.4879
   80SOL    HW1  318  -0.030   0.899   0.348  0.6517  1.0423 -1.1262
   80SOL    HW2  319   0.109   0.863   0.377 -1.8911  0.4384  1.2660
   80SOL     MW  320   0.056   0.914   0.335  0.1535  0.1918  0.3776
   81SOL     OW  321   1.885   1.882   0.321 -0.2367  0.7347  0.0416
   81SOL    HW1  322   1.855   1.803   0.268 -1.8052  2.5130  0.8405
   81SOL    HW2  323   1.810   1.947   0.294 -1.3990 -0.0191  0.3237
   81SOL     MW  324   1.871   1.880   0.311 -0.5970  0.8699  0.1842
   82SOL     OW  325   0.820   0.985   0.543  0.3413 -0.3579 -0.4240
   82SOL    HW1  326   0.806   0.999   0.448  1.0542 -0.1885  0.5198
   82SOL    HW2  327   0.771   0.908   0.566  1.1981 -1.9317  1.4454
   82SOL     MW  328   0.812   0.977   0.534  0.5484 -0.5432 -0.0529
   83SOL     OW  329   0.082   0.704   1.456 -0.5054  0.8563  0.2570
   83SOL    HW1  330   0.112   0.746   1.376  0.3943  0.4093  1.1077
   83SOL    HW2  331   0.155   0.659   1.495 -2.2613 -0.2369 -3.1285
   83SOL     MW  332   0.095   0.704   1.450 -0.6184  0.6531 -0.0774
   84SOL     OW  333   0.093   0.182   0.963 -0.4225 -0.3230 -0.3431
   84SOL    HW1  334   0.048   0.268   0.984  0.9768  0.9104  0.5130
   84SOL    HW2  335   0.064   0.119   1.033 -2.1944 -2.6650 -1.3702
   84SOL     MW  336   0.083   0.185   0.975 -0.4717 -0.4693 -0.3656
   85SOL     OW  337   0.444   0.464   0.748 -0.4932 -0.1763 -0.2258
   85SOL    HW1  338   0.398   0.480   0.664  0.0413  0.0418 -0.7592
   85SOL    HW2  339   0.432   0.374   0.766 -1.8156 -2.6522  1.1095
   85SOL     MW  340   0.436   0.454   0.739 -0.5971 -0.4742 -0.1200
   86SOL     OW  341   1.161   0.265   1.124 -0.1322  0.0226  0.2938
   86SOL    HW1  342   1.105   0.343   1.132 -0.6984  2.8491  0.3050
   86SOL    HW2  343   1.214   0.265   1.201  0.0519 -0.3578  0.1614
   86SOL     MW  344   1.161   0.275   1.135 -0.1826  0.3453  0.2778
   87SOL     OW  345   1.174   1.516   1.258 -0.4371 -0.2639 -0.2284
   87SOL    HW1  346   1.188   1.570   1.182 -2.8684 -0.0210 -0.3487
   87SOL    HW2  347   1.183   1.428   1.221 -1.6558  2.6481  1.1065
   87SOL     MW  348   1.177   1.511   1.243 -0.9187  0.1524 -0.0681
   88SOL     OW  349   1.181   1.057   0.976 -0.4535  0.4302  0.1622
   88SOL    HW1  350   1.275   1.044   0.959  2.8627 -1.7703  0.5927
   88SOL    HW2  351   1.173   1.134   1.034 -0.6897 -1.1203 -0.0334
   88SOL     MW  352   1.192   1.065   0.981 -0.0472 -0.0647  0.1932
   89SOL     OW  353   1.757   0.756   0.337  0.1276  0.0711 -0.6231
   89SOL    HW1  354   1.736   0.663   0.345  0.8297 -0.0611 -0.0329
   89SOL    HW2  355   1.852   0.765   0.310  1.5923 -1.2235 -1.6993
   89SOL     MW  356   1.766   0.745   0.335  0.4135 -0.1172 -0.6872
   90SOL     OW  357   0.809   1.082   2.793  0.1445  0.3639  0.1339
   90SOL    HW1  358   0.852   0.999   2.792  0.4048  3.6960  0.5800
   90SOL    HW2  359   0.848   1.118   2.874  0.4781 -1.4899  0.9428
   90SOL     MW  360   0.820   1.076   2.803  0.2228  0.5589  0.2995
   91SOL     OW  361   2.162   0.675   0.505 -0.2517  0.4620 -0.1688
   91SOL    HW1  362   2.240   0.728   0.487 -2.0173 -0.2487 -1.1538
   91SOL    HW2  363   2.166   0.590   0.466  0.6705  1.8500  1.8819
   91SOL     MW  364   2.173   0.670   0.497 -0.3630  0.5513 -0.0282
   92SOL     OW  365   1.737   0.923   0.582 -0.2545  0.0035  0.2282
   92SOL    HW1  366   1.646   0.940   0.612  2.6524  1.9631 -0.4442
   92SOL    HW2  367   1.729   0.855   0.512 -0.8901 -0.8417  0.0996
   92SOL     MW  368   1.724   0.917   0.576  0.0452  0.1505  0.1225
   93SOL     OW  369   1.024   0.210   0.413  0.8793 -0.7039 -0.4079
   93SOL    HW1  370   0.939   0.242   0.440  0.3695 -0.0916 -0.5749
   93SOL    HW2  371   1.044   0.257   0.327  2.3376 -0.3521 -0.9726
   93SOL     MW  372   1.015   0.220   0.405  1.0045 -0.5767 -0.5045
   94SOL     OW  373   1.866   1.391   1.627  0.0405  0.0672 -0.2897
   94SOL    HW1  374   1.860   1.384   1.523 -3.3224  1.5353  2.1606
   94SOL    HW2  375   1.841   1.303   1.657  0.3097 -0.2197 -1.9814
   94SOL     MW  376   1.862   1.379   1.617 -0.3677  0.2231 -0.1896
   95SOL     OW  377   0.800   1.557   0.962 -0.5798  0.2360  0.7615
   95SOL    HW1  378   0.835   1.498   1.027 -0.4092 -1.9606 -1.8826
   95SOL    HW2  379   0.705   1.559   0.958  0.3305  0.4113  0.6499
   95SOL     MW  380   0.792   1.549   0.970 -0.4372 -0.0307  0.3979
   96SOL     OW  381   1.301   1.895   1.708  0.1907 -0.0108  0.5981
   96SOL    HW1  382   1.232   1.877   1.777 -1.9451 -0.1490  0.5528
   96SOL    HW2  383   1.302   1.810   1.660  2.2875  4.0515  2.9606
   96SOL     MW  384   1.292   1.881   1.711  0.1856  0.5070  0.9038
   97SOL     OW  385   1.146   1.441   0.873 -0.8194  0.2854 -0.0632
   97SOL    HW1  386   1.182   1.509   0.931  0.0572  0.3994  0.6762
   97SOL    HW2  387   1.084   1.494   0.823  1.3769 -2.0582  1.2856
   97SOL     MW  388   1.142   1.457   0.874 -0.4140 -0.0088  0.2123
   98SOL     OW  389   1.476   1.283   1.093  0.4999 -0.3125 -0.3080
   98SOL    HW1  390   1.508   1.331   1.170 -0.9075 -1.2939  1.5784
   98SOL    HW2  391   1.482   1.346   1.027  0.8985  2.2879 -0.2743
   98SOL     MW  392   1.481   1.298   1.095  0.3668 -0.0989 -0.0547
   99SOL     OW  393   1.400   0.276   1.288  0.7860  0.1901  0.5865
   99SOL    HW1  394   1.450   0.343   1.241 -2.4909 -0.4712  0.7542
   99SOL    HW2  395   1.366   0.318   1.368  0.1415 -1.5822 -0.2894
   99SOL     MW  396   1.402   0.291   1.292  0.2686 -0.1310  0.4931
  100SOL     OW  397   1.037   1.204   1.367  0.3695  0.1523 -0.2208
  100SOL    HW1  398   1.035   1.257   1.447  0.2622 -0.6390 -0.6100
  100SOL    HW2  399   1.026   1.113   1.404 -1.9351  0.1071 -0.0849
  100SOL     MW  400   1.035   1.199   1.382  0.0513  0.0419 -0.2542
  101SOL     OW  401   0.490   1.186   0.302 -0.4460  0.1098  0.0391
  101SOL    HW1  402   0.398   1.155   0.315  0.1791 -1.3539  3.2004
  101SOL    HW2  403   0.510   1.146   0.220 -1.9254  4.1369  0.3896
  101SOL     MW  404   0.480   1.177   0.293 -0.5587  0.4480  0.5025
  102SOL     OW  405   2.913   0.652   0.973  0.0158 -0.0523 -0.0374
  102SOL    HW1  406   2.962   0.737   0.984  0.1679  2.8337  0.7182
  102SOL    HW2  407   2.878   0.625   1.060 -2.1989 -2.4811 -2.2470
  102SOL     MW  408   2.915   0.660   0.986 -0.2563  0.0081 -0.2293
  103SOL     OW  409   1.688   0.273   1.873  0.3806 -0.7154  0.1601
  103SOL    HW1  410   1.735   0.199   1.830  1.1996 -0.7254  1.4266
  103SOL    HW2  411   1.635   0.230   1.932  2.8643 -0.1022  0.8019
  103SOL     MW  412   1.687   0.257   1.875  0.8164 -0.6358  0.4119
  104SOL     OW  413   0.150   1.507   1.597  0.2567  0.4244 -0.7173
  104SOL    HW1  414   0.197   1.431   1.613 -1.0282  1.2086 -1.2895
  104SOL    HW2  415   0.062   1.485   1.591  0.7838 -0.2440  0.1810
  104SOL     MW  416   0.144   1.494   1.598  0.1567  0.4397 -0.6743
  105SOL     OW  417   0.049   1.207   0.406 -0.1592 -0.4573  0.1192
  105SOL    HW1  418   0.054   1.103   0.413 -1.7005 -1.7198  0.0547
  105SOL    HW2  419   0.123   1.241   0.461  0.6192  0.2416  2.7753
  105SOL     MW  420   0.059   1.198   0.414 -0.2599 -0.5317  0.4611
  106SOL     OW  421   0.819   0.379   1.014 -0.1602  0.5324 -0.1924
  106SOL    HW1  422   0.748   0.445   1.004  1.1465  1.0986  1.1205
  106SOL    HW2  423   0.869   0.375   0.929  0.3119  2.2395  0.7619
  106SOL     MW  424   0.816   0.387   1.002  0.0745  0.8324  0.1067
  107SOL     OW  425   0.794   2.169   2.913 -0.0490 -0.7002 -0.0681
  107SOL    HW1  426   0.717   2.142   2.859  1.4148 -0.3828 -1.9177
  107SOL    HW2  427   0.788   2.137   3.007  0.6362 -2.2479  0.1979
  107SOL     MW  428   0.783   2.161   2.918  0.2345 -0.8625 -0.2770
  108SOL     OW  429   1.347   1.610   1.626 -0.1629  0.0118 -0.2069
  108SOL    HW1  430   1.265   1.592   1.566 -1.4693 -2.8370  1.4344
  108SOL    HW2  431   1.417   1.557   1.589  1.0519  0.6946  4.0923
  108SOL     MW  432   1.345   1.601   1.614 -0.1750 -0.2740  0.5769
  109SOL     OW  433   2.020   0.780   0.251  0.5044 -1.0916  0.1116
  109SOL    HW1  434   2.039   0.872   0.278  1.1500  0.7475 -0.0623
  109SOL    HW2  435   2.077   0.731   0.309  0.5391  2.6175  0.3801
  109SOL     MW  436   2.030   0.786   0.263  0.5941 -0.3596  0.1241
  110SOL     OW  437   0.397   1.905   0.619  0.3083  0.7658 -0.2248
  110SOL    HW1  438   0.465   1.846   0.609  0.7570  2.5450  0.4490
  110SOL    HW2  439   0.415   1.977   0.557  1.4045 -1.5327  0.6202
  110SOL     MW  440   0.408   1.907   0.610  0.5121  0.6973 -0.0244
  111SOL     OW  441   0.769   0.871   1.475 -0.6371 -0.4220 -0.3107
  111SOL    HW1  442   0.756   0.848   1.383 -2.4041 -2.6207  0.3575
  111SOL    HW2  443   0.773   0.783   1.509 -0.0427 -0.8519  0.1617
  111SOL     MW  444   0.768   0.857   1.467 -0.7918 -0.7688 -0.1602
  112SOL     OW  445   1.311   1.102   1.631  0.3440 -0.4188  0.1336
  112SOL    HW1  446   1.256   1.179   1.635  2.1576 -0.8118 -0.2535
  112SOL    HW2  447   1.259   1.023   1.646 -1.8232  0.3798 -0.3605
  112SOL     MW  448   1.297   1.102   1.633  0.2973 -0.3653  0.0173
  113SOL     OW  449   1.274   3.082   1.738 -0.1875  0.1835 -0.1557
  113SOL    HW1  450   1.284   3.005   1.796 -0.1930  1.0101  2.6207
  113SOL    HW2  451   1.275   3.040   1.651  0.0665 -2.5072 -1.3799
  113SOL     MW  452   1.276   3.066   1.734 -0.1547 -0.0624  0.0491
  114SOL     OW  453   0.261   2.846   1.895 -0.2267  0.7248 -0.8404
  114SOL    HW1  454   0.327   2.886   1.959  0.2777  0.0462  1.4204
  114SOL    HW2  455   0.193   2.913   1.897 -1.4979  2.2777  1.4848
  114SOL     MW  456   0.260   2.860   1.904 -0.3279  0.8402 -0.2353
  115SOL     OW  457   0.488   0.864   1.117 -0.2527 -0.0064 -0.5167
  115SOL    HW1  458   0.494   0.777   1.157  4.9117 -0.9639  0.2957
  115SOL    HW2  459   0.452   0.919   1.189 -1.4806 -0.0846  0.8499
  115SOL     MW  460   0.484   0.860   1.132  0.2666 -0.1431 -0.2292
  116SOL     OW  461   0.780   1.072   1.003 -0.1121  0.6385  0.4880
  116SOL    HW1  462   0.841   1.104   0.932  0.3181  0.4241  2.0471
  116SOL    HW2  463   0.784   1.136   1.082  0.6184  0.3492 -0.2937
  116SOL     MW  464   0.789   1.085   1.004  0.0410  0.5720  0.5906
  117SOL     OW  465   1.157   1.198   0.740 -0.7452 -0.2896  0.6562
  117SOL    HW1  466   1.161   1.151   0.827  1.5825 -1.4030 -0.8469
  117SOL    HW2  467   1.148   1.289   0.773 -2.1306  2.9309 -0.1715
  117SOL     MW  468   1.156   1.204   0.756 -0.6209 -0.0116  0.3487
  118SOL     OW  469   3.037   2.968   1.649 -0.2196  0.1811 -0.1891
  118SOL    HW1  470   3.084   3.035   1.708 -1.1121  1.0738  0.6484
  118SOL    HW2  471   2.945   2.983   1.659 -0.0146  0.5207  3.3184
  118SOL     MW  472   3.031   2.979   1.658 -0.3103  0.3437  0.3842
  119SOL     OW  473   0.464   1.496   1.212  0.4230 -0.0359  0.2479
  119SOL    HW1  474   0.506   1.562   1.161 -1.7905 -1.9398 -0.1052
  119SOL    HW2  475   0.371   1.486   1.179 -0.4243 -0.0442 -0.6466
  119SOL     MW  476   0.457   1.504   1.201  0.0192 -0.2882  0.0833
  120SOL     OW  477   0.283   0.760   0.944 -0.6569 -0.6999  0.1321
  120SOL    HW1  478   0.240   0.792   1.024 -0.4889 -0.9640  1.7607
  120SOL    HW2  479   0.367   0.805   0.947 -0.5112  2.0412 -1.3186
  120SOL     MW  480   0.288   0.770   0.955 -0.6155 -0.3731  0.1555
  121SOL     OW  481   1.782   1.100   1.698  0.4281 -0.5306 -0.2541
  121SOL    HW1  482   1.695   1.083   1.714  2.5948  3.2220  1.0517
  121SOL    HW2  483   1.805   1.050   1.617 -1.2999 -0.8208 -1.4253
  121SOL     MW  484   1.773   1.091   1.690  0.4860 -0.0738 -0.2363
  122SOL     OW  485   0.165   0.499   0.810  0.5793 -0.2267  0.4180
  122SOL    HW1  486   0.237   0.450   0.769  0.6929  0.3742  1.6544
  122SOL    HW2  487   0.209   0.575   0.851 -0.2806 -0.9968 -1.2904
  122SOL     MW  488   0.180   0.502   0.810  0.4808 -0.2491  0.3558
  123SOL     OW  489   1.877   1.147   0.498 -0.6931  0.1782 -0.4677
  123SOL    HW1  490   1.819   1.071   0.528  0.7258 -0.0447  1.9185
  123SOL    HW2  491   1.901   1.180   0.583  1.2001  0.6007  0.0902
  123SOL     MW  492   1.872   1.142   0.513 -0.2561  0.2045 -0.0793
  124SOL     OW  493   0.622   0.567   0.924  0.2822 -0.0729  0.3725
  124SOL    HW1  494   0.548   0.541   0.870  1.1429 -1.9034  1.5216
  124SOL    HW2  495   0.642   0.659   0.893 -0.3293 -0.9631  0.1354
  124SOL     MW  496   0.615   0.576   0.913  0.3151 -0.4319  0.4928
  125SOL     OW  497   0.684   1.779   1.729  0.3172 -0.0844  0.1862
  125SOL    HW1  498   0.642   1.709   1.678  1.4211 -1.2100  0.3882
  125SOL    HW2  499   0.614   1.850   1.736  1.4131 -1.5120  0.4428
  125SOL     MW  500   0.670   1.779   1.723  0.6075 -0.4213  0.2467
  126SOL     OW  501   2.109   1.606   1.971  0.0136  0.2214  0.3731
  126SOL    HW1  502   2.173   1.680   1.959  0.0924 -0.1371  0.8545
  126SOL    HW2  503   2.170   1.530   1.968 -1.0562  1.5546  0.1878
  126SOL     MW  504   2.126   1.606   1.969 -0.1171  0.3500  0.4122
  127SOL     OW  505   0.586   0.798   1.832 -0.5468  0.3106 -0.3842
  127SOL    HW1  506   0.672   0.769   1.870 -0.8840 -2.3362 -0.0247
  127SOL    HW2  507   0.553   0.859   1.900  2.7529 -0.3083  2.1939
  127SOL     MW  508   0.593   0.802   1.846 -0.1559 -0.1203  0.0034
  128SOL     OW  509   1.719   0.712   2.899  0.2746 -0.0925 -0.3754
  128SOL    HW1  510   1.761   0.686   2.820  0.7427  1.8822  0.6009
  128SOL    HW2  511   1.722   0.809   2.910  1.1619  0.5493 -0.7841
  128SOL     MW  512   1.725   0.721   2.890  0.4534  0.2527 -0.3005
  129SOL     OW  513   1.623   0.917   0.160  0.4180 -0.5487 -0.4783
  129SOL    HW1  514   1.544   0.865   0.132 -0.8014 -2.4002  1.3263
  129SOL    HW2  515   1.678   0.863   0.218 -0.6514  1.5996  1.3743
  129SOL     MW  516   1.620   0.903   0.164  0.1160 -0.5096  0.0042
  130SOL     OW  517   0.763   1.380   0.313  0.5540 -0.2945 -0.1514
  130SOL    HW1  518   0.776   1.372   0.406  1.7249 -0.9908 -2.3087
  130SOL    HW2  519   0.813   1.462   0.285  0.1853  0.7772 -1.3415
  130SOL     MW  520   0.771   1.390   0.321  0.6598 -0.2449 -0.5931
  131SOL     OW  521   3.048   0.856   0.035  0.1195 -0.1350  0.0402
  131SOL    HW1  522   3.036   0.881  -0.055 -3.4093  0.8829 -0.8816
  131SOL    HW2  523   3.132   0.818   0.050 -2.0839  2.2130 -1.7990
  131SOL     MW  524   3.058   0.854   0.025 -0.6368  0.3091 -0.3241
  132SOL     OW  525   2.673   0.120   1.358  0.1545 -0.5243  0.3876
  132SOL    HW1  526   2.687   0.152   1.269  0.9389 -0.4700 -1.7310
  132SOL    HW2  527   2.590   0.073   1.345 -0.7514 -1.4280  0.6411
  132SOL     MW  528   2.664   0.118   1.345  0.1385 -0.6364  0.1415
  133SOL     OW  529   1.070   0.157   1.720  0.2314  0.1895 -0.4206
  133SOL    HW1  530   1.137   0.087   1.737  2.0043  0.4471  1.0238
  133SOL    HW2  531   1.063   0.191   1.810  0.0203 -0.9378  0.0219
  133SOL     MW  532   1.078   0.152   1.734  0.4375  0.0747 -0.1717
  134SOL     OW  533   1.411   2.528   1.398 -0.4463 -0.5106 -0.1796
  134SOL    HW1  534   1.334   2.587   1.382 -1.2938  1.2232 -0.0939
  134SOL    HW2  535   1.436   2.558   1.483  1.0399  0.3126 -2.2104
  134SOL     MW  536   1.404   2.540   1.407 -0.3620 -0.1732 -0.4362
  135SOL     OW  537   3.014   0.992   2.878 -0.5804 -0.4456 -0.4311
  135SOL    HW1  538   3.103   1.042   2.890  3.7634  0.7085 -2.6079
  135SOL    HW2  539   2.944   1.048   2.913 -0.1306 -2.0086  0.3879
  135SOL     MW  540   3.016   1.006   2.884  0.0521 -0.4995 -0.6102
  136SOL     OW  541   0.187   2.029   0.788  0.6911  0.4316 -0.0163
  136SOL    HW1  542   0.106   1.977   0.766 -0.7790  0.3370  1.8735
  136SOL    HW2  543   0.257   1.996   0.731 -0.4227 -2.1191 -1.7997
  136SOL     MW  544   0.186   2.018   0.778  0.3502  0.0826 -0.0022
  137SOL     OW  545   0.690   2.008   0.511  0.3040 -0.1310 -0.2767
  137SOL    HW1  546   0.716   2.016   0.603 -2.9004  0.2834 -0.0062
  137SOL    HW2  547   0.604   2.047   0.493 -0.1803  1.7308 -1.8873
  137SOL     MW  548   0.682   2.014   0.521 -0.1827  0.1693 -0.4535
  138SOL     OW  549   0.510   0.593   1.173  0.2736  0.3158  0.0121
  138SOL    HW1  550   0.416   0.583   1.161 -0.8334 -1.1320 -1.1928
  138SOL    HW2  551   0.550   0.589   1.084 -0.7181  1.5260 -2.1643
  138SOL     MW  552   0.503   0.591   1.160 -0.0033  0.2845 -0.4340
  139SOL     OW  553   2.851   0.584   1.220  0.5481 -0.2681  0.0745
  139SOL    HW1  554   2.909   0.508   1.243  0.1278 -1.3120 -0.3952
  139SOL    HW2  555   2.872   0.641   1.294  3.9188  1.4118 -2.6768
  139SOL     MW  556   2.861   0.582   1.233  0.9374 -0.1842 -0.3505
  140SOL     OW  557   0.950   0.485   2.046  0.2274  0.5278  0.0305
  140SOL    HW1  558   0.963   0.390   2.042 -0.8047 -2.1951  0.3478
  140SOL    HW2  559   0.967   0.499   2.135  0.2492  0.7502 -0.6190
  140SOL     MW  560   0.954   0.474   2.057  0.0941  0.1979 -0.0134
  141SOL     OW  561   1.018   0.631   1.746  0.3316  0.5021 -0.6854
  141SOL    HW1  562   1.068   0.555   1.722 -2.1267 -0.0633 -1.5685
  141SOL    HW2  563   1.082   0.697   1.721 -0.8916 -1.8433  0.2222
  141SOL     MW  564   1.033   0.629   1.739 -0.1541  0.1180 -0.6821
  142SOL     OW  565   0.900   1.136   0.758  0.1265 -0.5237  0.5292
  142SOL    HW1  566   0.866   1.080   0.678 -0.9851  1.2513 -0.3224
  142SOL    HW2  567   0.996   1.131   0.749  0.1430 -0.9965 -1.4450
  142SOL     MW  568   0.908   1.128   0.746 -0.0180 -0.3519  0.1564
  143SOL     OW  569   1.822   0.753   1.065 -0.1080 -0.6658 -0.4272
  143SOL    HW1  570   1.876   0.727   0.988  2.1249  0.4473 -1.3846
  143SOL    HW2  571   1.733   0.739   1.032  0.2301  1.3459  1.1445
  143SOL     MW  572   1.818   0.748   1.051  0.2312 -0.2535 -0.3462
  144SOL     OW  573   0.308   1.287   1.674 -0.1768  0.1575  0.6316
  144SOL    HW1  574   0.376   1.220   1.647 -0.2552  0.7384  1.4664
  144SOL    HW2  575   0.313   1.278   1.773  2.2558 -2.3243  0.1452
  144SOL     MW  576   0.318   1.277   1.684  0.1338 -0.0933  0.6776
  145SOL     OW  577   0.243   0.498   1.181 -0.4058 -0.0227  0.0278
  145SOL    HW1  578   0.302   0.423   1.203 -3.9872 -2.1776  0.9035
  145SOL    HW2  579   0.164   0.463   1.163  3.5096  0.4564 -1.0712
  145SOL     MW  580   0.241   0.483   1.182 -0.3618 -0.2438 -0.0016
  146SOL     OW  581   0.826   1.984   1.412 -0.7445  0.1205  0.1451
  146SOL    HW1  582   0.863   1.999   1.323 -0.8109  1.1780 -2.2754
  146SOL    HW2  583   0.735   1.950   1.393  0.5194  0.6163  2.1864
  146SOL     MW  584   0.819   1.981   1.398 -0.5865  0.3255  0.0951
  147SOL     OW  585   0.366   0.468   3.016 -0.3561  0.3909 -0.0760
  147SOL    HW1  586   0.297   0.433   3.075 -0.8711  0.1987 -1.2519
  147SOL    HW2  587   0.327   0.541   2.971  0.5637  0.6313  0.1874
  147SOL     MW  588   0.352   0.473   3.018 -0.3027  0.3973 -0.1964
  148SOL     OW  589   0.104   0.953   1.313 -0.3912 -0.3713 -0.3528
  148SOL    HW1  590   0.196   0.961   1.324 -2.2715  2.3348  2.3810
  148SOL    HW2  591   0.062   1.021   1.369  0.6771  2.4896  1.1681
  148SOL     MW  592   0.111   0.963   1.322 -0.4983  0.3632  0.2085
  149SOL     OW  593   1.432   1.119   1.384  0.3922 -0.7349  0.3059
  149SOL    HW1  594   1.388   1.108   1.467  3.4337 -2.2921  0.2187
  149SOL    HW2  595   1.467   1.207   1.380  0.8824 -0.4302 -2.9503
  149SOL     MW  596   1.431   1.129   1.394  0.8582 -0.9002 -0.1352
  150SOL     OW  597   1.745   1.377   0.763  0.2520 -0.0455  0.2902
  150SOL    HW1  598   1.787   1.300   0.794 -2.4243  1.5188  1.9662
  150SOL    HW2  599   1.783   1.452   0.807 -0.9684 -1.9492 -1.4211
  150SOL     MW  600   1.755   1.377   0.773 -0.2622 -0.0903  0.2855
  151SOL     OW  601   1.667   1.785   0.792  0.0147  0.2108 -0.2175
  151SOL    HW1  602   1.667   1.796   0.696 -0.3380 -0.9419 -2.7924
  151SOL    HW2  603   1.605   1.712   0.814  2.0076  0.7263  0.5695
  151SOL     MW  604   1.659   1.777   0.782  0.2311  0.1267 -0.4534
  152SOL     OW  605   0.783   1.430   1.612  0.2834  0.3191  0.3969
  152SOL    HW1  606   0.783   1.334   1.609  1.6822 -0.2917  4.9877
  152SOL    HW2  607   0.840   1.468   1.551 -1.6802 -0.8931 -0.4793
  152SOL     MW  608   0.790   1.422   1.604  0.2089  0.0786  0.8870
  153SOL     OW  609   2.609   1.209   0.798 -0.8236  0.1073 -0.0249
  153SOL    HW1  610   2.683   1.181   0.741  1.4689 -1.8261  0.1040
  153SOL    HW2  611   2.561   1.130   0.794  0.0479 -0.9527 -0.1599
  153SOL     MW  612   2.612   1.195   0.790 -0.4061 -0.2876 -0.0257
  154SOL     OW  613   0.173   1.762   1.709 -0.2950 -0.0422 -0.1031
  154SOL    HW1  614   0.168   1.674   1.681 -0.8643  1.6106 -1.4185
  154SOL    HW2  615   0.162   1.758   1.804 -0.4009  1.5698  1.4930
  154SOL     MW  616   0.171   1.750   1.718 -0.3841  0.3886 -0.0660
  155SOL     OW  617   1.171   0.678   0.254 -0.2063  0.7196  0.9070
  155SOL    HW1  618   1.171   0.644   0.340 -0.9690  3.1818  0.9945
  155SOL    HW2  619   1.154   0.777   0.268  0.5660  1.7408 -1.9942
  155SOL     MW  620   1.169   0.687   0.267 -0.2051  1.1792  0.5358
  156SOL     OW  621   1.518   3.010   1.080  0.2635  0.3773 -0.1546
  156SOL    HW1  622   1.604   3.048   1.100  1.2029 -1.9379  0.9890
  156SOL    HW2  623   1.530   2.922   1.110 -1.7422 -0.0797  1.1571
  156SOL     MW  624   1.531   3.003   1.086  0.1228  0.0116  0.1694
  157SOL     OW  625   1.432   1.187   0.104 -0.1235  0.1675 -0.0412
  157SOL    HW1  626   1.482   1.099   0.118 -1.7922  1.0396 -1.0948
  157SOL    HW2  627   1.492   1.262   0.091 -2.1894  1.8269  1.1103
  157SOL     MW  628   1.446   1.186   0.104 -0.6162  0.5015 -0.0283
  158SOL     OW  629   0.423   1.628   2.239 -0.8467  0.3067  0.3870
  158SOL    HW1  630   0.454   1.693   2.175  3.5777 -0.3781  2.7263
  158SOL    HW2  631   0.380   1.679   2.307 -0.1605  0.9764 -2.6664
  158SOL     MW  632   0.421   1.644   2.240 -0.1724  0.3047  0.2928
  159SOL     OW  633   1.250   1.714   0.465 -0.2157  0.6635  0.6954
  159SOL    HW1  634   1.226   1.644   0.403  0.6667 -2.0396  0.6002
  159SOL    HW2  635   1.170   1.730   0.516  2.6156  1.7448  0.6287
  159SOL     MW  636   1.237   1.707   0.463  0.2743  0.4495  0.6740
  160SOL     OW  637   0.514   1.141   1.595 -0.3267  0.2927 -0.1832
  160SOL    HW1  638   0.514   1.043   1.599  1.8539  0.3087 -1.7189
  160SOL    HW2  639   0.588   1.164   1.648 -0.9902 -0.2264 -0.4728
  160SOL     MW  640   0.524   1.131   1.603 -0.1265  0.2263 -0.4241
  161SOL     OW  641   0.500   2.272   2.550 -0.4404 -0.5399  0.0949
  161SOL    HW1  642   0.413   2.300   2.555 -0.0237 -0.0481  0.2465
  161SOL    HW2  643   0.500   2.197   2.489 -1.1909 -1.8895 -0.5131
  161SOL     MW  644   0.488   2.266   2.543 -0.4845 -0.6531  0.0347
  162SOL     OW  645   1.113   1.779   1.886  0.0383  0.1738 -0.2847
  162SOL    HW1  646   1.121   1.862   1.947 -1.5600  1.5564 -0.3079
  162SOL    HW2  647   1.022   1.762   1.912  1.4151  2.6184 -1.6673
  162SOL     MW  648   1.102   1.788   1.897  0.0091  0.6787 -0.4701
  163SOL     OW  649   2.122   3.030   0.863  0.0151  0.0477  0.4403
  163SOL    HW1  650   2.095   3.110   0.803  1.0308  0.0866 -0.4242
  163SOL    HW2  651   2.092   2.950   0.821 -0.4369 -2.3189  2.1850
  163SOL     MW  652   2.114   3.030   0.850  0.0895 -0.2594  0.5564
  164SOL     OW  653   0.315   0.220   0.821 -0.3790  0.2862 -0.2552
  164SOL    HW1  654   0.230   0.217   0.876  0.7788  0.1206 -0.4163
  164SOL    HW2  655   0.309   0.141   0.772  1.6195 -0.4147 -0.9084
  164SOL     MW  656   0.303   0.209   0.822  0.0374  0.1719 -0.3627
  165SOL     OW  657   1.339   1.318   0.346 -0.6603  0.1014 -0.3624
  165SOL    HW1  658   1.323   1.229   0.391 -0.5279  0.3806 -2.2601
  165SOL    HW2  659   1.387   1.288   0.267  0.6418 -0.6324  1.1993
  165SOL     MW  660   1.344   1.302   0.342 -0.4710  0.0414 -0.4067
  166SOL     OW  661   0.532   1.199   0.984  0.2009  0.1496 -0.2794
  166SOL    HW1  662   0.506   1.154   1.065 -0.2757 -0.9066  2.2169
  166SOL    HW2  663   0.605   1.147   0.951  1.1467 -0.8227  2.8586
  166SOL     MW  664   0.538   1.186   0.990  0.2628 -0.1181  0.4640
  167SOL     OW  665   0.815   1.086   0.272  0.0303  0.2438 -0.0060
  167SOL    HW1  666   0.747   1.160   0.283 -2.0307  1.3065 -3.4507
  167SOL    HW2  667   0.902   1.118   0.252  1.6952  1.4450 -1.8620
  167SOL     MW  668   0.818   1.100   0.271 -0.0220  0.5425 -0.7054
  168SOL     OW  669   1.706   1.656   3.053  0.5973 -0.1797  0.1599
  168SOL    HW1  670   1.638   1.720   3.056  0.7985 -0.9665 -2.2106
  168SOL    HW2  671   1.687   1.572   3.016 -0.8692  1.7167 -3.9917
  168SOL     MW  672   1.694   1.654   3.048  0.4304 -0.0333 -0.7006
  169SOL     OW  673   0.382   0.995   1.325 -0.3671  0.3250  0.3616
  169SOL    HW1  674   0.439   0.955   1.392 -1.1675 -0.5122  0.9106
  169SOL    HW2  675   0.414   1.088   1.317  1.3746 -0.1330  0.5926
  169SOL     MW  676   0.393   1.002   1.333 -0.2429  0.1541  0.4645
  170SOL     OW  677   1.077   1.550   1.526  0.4305 -0.8065 -0.1292
  170SOL    HW1  678   1.036   1.633   1.551  2.3503 -2.5354  2.7353
  170SOL    HW2  679   1.101   1.558   1.433  1.1330  0.5839 -1.5583
  170SOL     MW  680   1.075   1.562   1.517  0.7765 -0.8512  0.0602
  171SOL     OW  681   0.550   1.390   0.650 -0.1707 -0.2237  0.3841
  171SOL    HW1  682   0.538   1.421   0.742  3.2601 -2.9189  1.9716
  171SOL    HW2  683   0.520   1.297   0.646  1.4464 -1.9399 -2.0643
  171SOL     MW  684   0.545   1.382   0.661  0.4953 -0.8057  0.2705
  172SOL     OW  685   0.883   0.292   1.274  0.1531  0.3007  0.1068
  172SOL    HW1  686   0.836   0.299   1.185 -0.6610  0.3560 -0.4171
  172SOL    HW2  687   0.815   0.275   1.338 -2.9098  0.2397 -0.7985
  172SOL     MW  688   0.867   0.291   1.271 -0.3584  0.3000 -0.0818
  173SOL     OW  689   0.463   1.757   0.288 -0.0855  0.3574 -0.4297
  173SOL    HW1  690   0.466   1.663   0.262 -0.9554  0.4304 -0.0604
  173SOL    HW2  691   0.495   1.757   0.384  4.6564 -1.2697 -0.3394
  173SOL     MW  692   0.468   1.745   0.298  0.4254  0.1523 -0.3691
  174SOL     OW  693   1.847   0.906   1.496  0.1755  0.2155  0.2928
  174SOL    HW1  694   1.792   0.829   1.516  0.9516 -1.5342 -0.7527
  174SOL    HW2  695   1.836   0.915   1.403 -1.4725  1.4344 -1.4155
  174SOL     MW  696   1.838   0.897   1.486  0.0605  0.1455 -0.0706
  175SOL     OW  697   0.493   1.485   0.208 -0.2652  0.6015 -0.4401
  175SOL    HW1  698   0.411   1.444   0.167  0.3711  4.0857 -0.1683
  175SOL    HW2  699   0.549   1.410   0.230  2.2151 -2.1948 -0.3120
  175SOL     MW  700   0.490   1.470   0.205  0.1460  0.6923 -0.3874
  176SOL     OW  701   0.189   1.483   1.180 -0.6952 -0.3388  0.4106
  176SOL    HW1  702   0.161   1.403   1.119  1.0914 -3.5272 -1.5709
  176SOL    HW2  703   0.106   1.503   1.232  0.5968  3.1666 -0.4841
  176SOL     MW  704   0.174   1.475   1.179 -0.2890 -0.2969  0.0311
  177SOL     OW  705   0.611   0.376   1.310 -0.6548 -0.7816 -0.3820
  177SOL    HW1  706   0.570   0.449   1.246  0.5088  0.2416  1.7857
  177SOL    HW2  707   0.581   0.406   1.396  0.9546 -2.2237  0.2915
  177SOL     MW  708   0.602   0.390   1.313 -0.2889 -0.8369 -0.0071
  178SOL     OW  709   3.069   0.573   2.943 -0.1100 -0.3229 -0.0001
  178SOL    HW1  710   3.012   0.577   3.022  1.0695 -1.2485  1.2152
  178SOL    HW2  711   3.016   0.536   2.875  2.3896 -0.0453  1.4277
  178SOL     MW  712   3.054   0.568   2.944  0.3754 -0.4084  0.3486
  179SOL     OW  713   1.573   1.397   1.327  0.0861  0.2930  0.3340
  179SOL    HW1  714   1.567   1.440   1.419  3.2118  1.5177 -3.1998
  179SOL    HW2  715   1.664   1.382   1.325 -1.0504 -0.9243 -0.1224
  179SOL     MW  716   1.584   1.401   1.339  0.3486  0.2940 -0.1925
  180SOL     OW  717   2.984   0.241   0.455 -0.3005 -0.7152 -0.3444
  180SOL    HW1  718   2.933   0.260   0.371 -1.3231  0.8042 -0.5237
  180SOL    HW2  719   3.064   0.304   0.443 -0.5959  3.1422  1.1332
  180SOL     MW  720   2.988   0.252   0.442 -0.4744 -0.0058 -0.1731
  181SOL     OW  721   1.107   1.347   3.067  0.4876 -0.2935 -0.1958
  181SOL    HW1  722   1.170   1.413   3.090 -1.5339 -0.2972  2.8802
  181SOL    HW2  723   1.156   1.292   3.008 -0.2713  2.2429 -1.4078
  181SOL     MW  724   1.122   1.348   3.062  0.1207  0.0406  0.0501
  182SOL     OW  725   0.460   0.844   1.572  0.4769  0.5465  0.0555
  182SOL    HW1  726   0.389   0.855   1.643 -2.3120  0.5744 -0.9864
  182SOL    HW2  727   0.537   0.822   1.628  1.8769 -0.9685  0.5713
  182SOL     MW  728   0.461   0.842   1.589  0.2936  0.3503 -0.0139
  183SOL     OW  729   1.588   1.670   1.190  0.1862  0.9231  0.6083
  183SOL    HW1  730   1.676   1.699   1.220  0.2045  2.5888 -0.9372
  183SOL    HW2  731   1.555   1.597   1.244 -0.6004  0.3559  0.8528
  183SOL     MW  732   1.595   1.664   1.201  0.0848  1.0681  0.4366
  184SOL     OW  733   0.831   0.708   1.943 -0.3489  0.4211  0.3308
  184SOL    HW1  734   0.897   0.714   1.877 -1.4436  1.7994 -0.5631
  184SOL    HW2  735   0.846   0.614   1.971  0.5346  2.6553 -0.2891
  184SOL     MW  736   0.842   0.696   1.938 -0.3768  0.8977  0.1311
  185SOL     OW  737   1.134   0.975   1.912 -0.1546  0.2821  0.2379
  185SOL    HW1  738   1.144   0.889   1.963 -1.6330 -1.9319 -0.7693
  185SOL    HW2  739   1.166   1.038   1.971  0.8435  0.6178 -0.6251
  185SOL     MW  740   1.140   0.972   1.926 -0.2179  0.0343 -0.0089
  186SOL     OW  741   0.368   1.637   1.415 -0.3782 -0.0491  0.2278
  186SOL    HW1  742   0.397   1.601   1.330 -3.4903  0.4200  1.2296
  186SOL    HW2  743   0.279   1.598   1.422 -0.9908  1.1063  0.1764
  186SOL     MW  744   0.360   1.627   1.405 -0.8696  0.1653  0.3532
  187SOL     OW  745   1.502   0.725   1.343  0.3018  0.5787  0.2937
  187SOL    HW1  746   1.539   0.720   1.433 -3.0021 -3.8436  2.5071
  187SOL    HW2  747   1.408   0.722   1.348  0.9767  0.6408  0.9764
  187SOL     MW  748   1.494   0.724   1.356 -0.0451  0.0034  0.6758
  188SOL     OW  749   1.887   1.153   0.909  0.1125  0.0812 -0.7290
  188SOL    HW1  750   1.882   1.150   1.002 -1.3239  0.9971 -1.2376
  188SOL    HW2  751   1.912   1.066   0.888 -0.8885 -0.2381 -2.3996
  188SOL     MW  752   1.890   1.141   0.919 -0.2091  0.1599 -1.0165
  189SOL     OW  753   0.681   0.832   0.883 -0.0387 -0.1921 -0.1240
  189SOL    HW1  754   0.587   0.869   0.898  3.6103  3.0941  1.6468
  189SOL    HW2  755   0.730   0.904   0.927 -1.1903 -1.5611 -0.1092
  189SOL     MW  756   0.675   0.847   0.891  0.2908  0.0609  0.1116
  190SOL     OW  757   1.902   0.243   2.165 -0.1217  0.2484  0.1009
  190SOL    HW1  758   1.930   0.258   2.258  0.6215  0.3660 -0.4200
  190SOL    HW2  759   1.975   0.291   2.117 -2.0666 -1.9949 -2.6863
  190SOL     MW  760   1.915   0.251   2.171 -0.2803 -0.0320 -0.3356
  191SOL     OW  761   1.539   0.951   1.162  0.6470  0.2476  0.1020
  191SOL    HW1  762   1.482   1.008   1.209 -0.8229 -1.0744 -2.5326
  191SOL    HW2  763   1.527   0.868   1.208  2.7304  1.1856 -1.0182
  191SOL     MW  764   1.530   0.948   1.174  0.7279  0.1970 -0.3934
  192SOL     OW  765   0.588   2.110   2.762 -0.2182  0.1372  0.3419
  192SOL    HW1  766   0.540   2.168   2.702 -1.7371  1.4793 -0.3102
  192SOL    HW2  767   0.600   2.028   2.713  1.9651  4.1924 -2.5733
  192SOL     MW  768   0.583   2.107   2.747 -0.1305  0.8493 -0.1288
  193SOL     OW  769   0.936   1.562   0.732  0.0754 -0.0109  0.3278
  193SOL    HW1  770   0.880   1.579   0.804  2.1347 -3.7785  0.2039
  193SOL    HW2  771   0.886   1.495   0.672 -2.2713  1.1223 -0.4620
  193SOL     MW  772   0.922   1.555   0.733  0.0375 -0.3585  0.2072
  194SOL     OW  773   0.521   1.470   0.890 -0.2409 -0.2617 -0.8384
  194SOL    HW1  774   0.508   1.403   0.962  2.3662 -2.1131 -1.0652
  194SOL    HW2  775   0.436   1.513   0.874 -2.1724 -0.7028  0.0150
  194SOL     MW  776   0.508   1.467   0.897 -0.1517 -0.5642 -0.7557
  195SOL     OW  777   1.299   1.161   2.962 -0.3043 -0.3212  0.2365
  195SOL    HW1  778   1.338   1.144   3.047  0.6602 -1.6209  0.4389
  195SOL    HW2  779   1.247   1.079   2.949  2.0798 -0.4015  1.8014
  195SOL     MW  780   1.297   1.148   2.971  0.1375 -0.5033  0.4697
  196SOL     OW  781   2.194   0.994   0.556  0.3100 -0.3006 -0.2072
  196SOL    HW1  782   2.147   0.991   0.471 -0.3263 -1.3678 -4.1804
  196SOL    HW2  783   2.204   1.087   0.570  0.1460  0.5049  1.1597
  196SOL     MW  784   2.189   1.006   0.547  0.2044 -0.3352 -0.5511
  197SOL     OW  785   0.676   1.376   2.128  0.3889  0.7312  0.9310
  197SOL    HW1  786   0.704   1.281   2.099 -1.0615 -0.7897 -0.1121
  197SOL    HW2  787   0.637   1.407   2.043  0.3400 -1.5984  0.8455
  197SOL     MW  788   0.675   1.368   2.113  0.1911  0.2232  0.7821
  198SOL     OW  789   2.923   1.408   1.061  0.0876  0.3782  0.7065
  198SOL    HW1  790   2.884   1.454   0.988  2.0999 -2.6159 -0.4484
  198SOL    HW2  791   2.861   1.340   1.082 -0.4323  1.8766 -0.0803
  198SOL     MW  792   2.909   1.405   1.054  0.2845  0.1809  0.4503
  199SOL     OW  793   0.548   1.405   1.878  0.5567  0.2919 -0.6845
  199SOL    HW1  794   0.465   1.361   1.887  0.3482 -0.5643 -0.6366
  199SOL    HW2  795   0.552   1.450   1.798  1.7765  0.3116  0.0977
  199SOL     MW  796   0.537   1.405   1.869  0.6901  0.1815 -0.5749
  200SOL     OW  797   1.879   2.894   1.391 -0.4965  0.0736 -0.1292
  200SOL    HW1  798   1.916   2.909   1.296 -0.0696 -0.8705 -1.7793
  200SOL    HW2  799   1.808   2.956   1.394 -1.5873 -0.8044  1.3238
  200SOL     MW  800   1.875   2.904   1.379 -0.5841 -0.1668 -0.1552
  201SOL     OW  801   0.997   0.358   0.798 -0.4103  0.9813  0.2050
  201SOL    HW1  802   0.988   0.268   0.762 -1.7755 -1.7628  0.2012
  201SOL    HW2  803   1.086   0.375   0.817 -1.2799 -2.8650 -1.6755
  201SOL     MW  804   1.008   0.349   0.796 -0.7051  0.1117 -0.0436
  202SOL     OW  805   1.512   1.576   0.902 -0.1133  0.1764 -0.1239
  202SOL    HW1  806   1.485   1.491   0.870 -1.3383  1.0116  3.2041
  202SOL    HW2  807   1.561   1.564   0.983  0.7927  0.8135 -0.1823
  202SOL     MW  808   1.515   1.563   0.909 -0.1554  0.3707  0.3075
  203SOL     OW  809   3.023   0.446   1.410  0.6593 -0.2215  0.4098
  203SOL    HW1  810   3.085   0.372   1.406 -3.2337 -0.0921 -1.1208
  203SOL    HW2  811   3.085   0.521   1.415  1.0630 -0.9084  0.9785
  203SOL     MW  812   3.040   0.446   1.410  0.1989 -0.2951  0.2829
  204SOL     OW  813   1.031   1.766   0.596  0.7947  0.0727 -0.1942
  204SOL    HW1  814   1.000   1.694   0.654 -2.3416 -1.6845 -2.0027
  204SOL    HW2  815   0.950   1.768   0.542  1.2714 -0.0346  0.0996
  204SOL     MW  816   1.016   1.757   0.597  0.4438 -0.1733 -0.3940
  205SOL     OW  817   1.405   3.093   1.329  0.7936 -0.2513 -0.3834
  205SOL    HW1  818   1.454   3.079   1.247  2.6962  0.2258 -2.0918
  205SOL    HW2  819   1.361   3.178   1.317 -2.1697 -0.9850 -0.0800
  205SOL     MW  820   1.405   3.102   1.317  0.6536 -0.2851 -0.5688
  206SOL     OW  821   0.491   3.067   1.400 -0.0341  0.4466  0.3557
  206SOL    HW1  822   0.432   3.067   1.323  1.1661  0.1493  1.0974
  206SOL    HW2  823   0.556   2.999   1.380 -0.2092  2.0182 -1.3960
  206SOL     MW  824   0.491   3.058   1.387  0.1011  0.6147  0.2224
  207SOL     OW  825   0.933   1.620   0.206  0.0389  0.4559  0.3008
  207SOL    HW1  826   0.953   1.694   0.144  3.2411  1.3838 -0.2028
  207SOL    HW2  827   1.018   1.582   0.237  0.6600  0.9203 -1.2767
  207SOL     MW  828   0.947   1.625   0.202  0.5434  0.6396  0.0262
  208SOL     OW  829   0.746   1.640   1.317 -0.0746  0.3330 -0.2137
  208SOL    HW1  830   0.810   1.668   1.381  1.7160  0.6791 -0.7806
  208SOL    HW2  831   0.799   1.574   1.274 -4.1416  1.1410 -0.0722
  208SOL     MW  832   0.761   1.635   1.320 -0.3749  0.4853 -0.2698
  209SOL     OW  833   1.565   0.498   2.907 -0.3158 -0.0058 -0.4778
  209SOL    HW1  834   1.608   0.589   2.908 -1.8424  1.9135 -3.0245
  209SOL    HW2  835   1.642   0.452   2.864 -0.4587  0.3312 -0.8855
  209SOL     MW  836   1.581   0.504   2.902 -0.5361  0.2919 -0.8676
  210SOL     OW  837   1.470   1.306   0.773 -0.6110  0.6134  0.6846
  210SOL    HW1  838   1.567   1.318   0.753  1.0977  0.6510  1.6586
  210SOL    HW2  839   1.423   1.355   0.709 -1.1358 -0.5071  0.3765
  210SOL     MW  840   1.477   1.314   0.762 -0.4548  0.4705  0.7725
  211SOL     OW  841   1.722   0.244   0.968 -0.2555 -0.0379  0.3004
  211SOL    HW1  842   1.702   0.286   0.883  0.2697  0.8301 -1.0744
  211SOL    HW2  843   1.805   0.284   1.001 -0.4303  1.7916  2.0185
  211SOL     MW  844   1.730   0.255   0.961 -0.2092  0.3180  0.3457
  212SOL     OW  845   0.266   1.048   0.184 -0.4508  0.1511  0.2587
  212SOL    HW1  846   0.196   0.988   0.217 -0.9002  1.8026  0.8239
  212SOL    HW2  847   0.310   1.002   0.111 -0.3060  1.5728 -0.1166
  212SOL     MW  848   0.262   1.034   0.178 -0.4910  0.5566  0.2837
  213SOL     OW  849   0.499   1.728   2.995  0.0537  0.5667 -0.8133
  213SOL    HW1  850   0.504   1.803   3.062  0.5966  2.3465  0.1368
  213SOL    HW2  851   0.547   1.760   2.916 -0.9122 -2.8707 -1.1492
  213SOL     MW  852   0.506   1.742   2.994 -0.0021  0.3480 -0.7323
  214SOL     OW  853   0.666   0.378   2.169 -0.2507  0.1259  0.4553
  214SOL    HW1  854   0.583   0.435   2.184 -0.3489  0.4798 -1.1554
  214SOL    HW2  855   0.697   0.375   2.075  0.3634  0.7268  0.4052
  214SOL     MW  856   0.659   0.385   2.159 -0.1826  0.2518  0.2361
  215SOL     OW  857   0.502   0.702   2.646  0.0052 -0.0309 -0.3165
  215SOL    HW1  858   0.489   0.678   2.561 -2.0973 -2.1896  3.0099
  215SOL    HW2  859   0.434   0.651   2.690 -0.0062  0.6854 -0.9548
  215SOL     MW  860   0.491   0.692   2.640 -0.2737 -0.2212  0.0382
  216SOL     OW  861   2.972   2.993   2.727  0.1172 -0.4881  0.4558
  216SOL    HW1  862   2.961   3.026   2.822  1.7209  0.9841  0.4684
  216SOL    HW2  863   2.952   3.066   2.668  0.9434  0.1737 -0.8631
  216SOL     MW  864   2.968   3.007   2.732  0.4378 -0.2065  0.2834
  217SOL     OW  865   1.064   1.120   0.125  0.2396  0.1431 -0.2059
  217SOL    HW1  866   1.077   1.051   0.060 -0.9557  0.7110 -0.6243
  217SOL    HW2  867   1.084   1.204   0.092  0.7857 -2.1536  1.6300
  217SOL     MW  868   1.068   1.122   0.112  0.1539 -0.0850 -0.0189
  218SOL     OW  869   0.920   1.358   2.612 -0.0791 -0.1081  0.3447
  218SOL    HW1  870   0.945   1.274   2.644 -2.3228 -1.8912  1.3276
  218SOL    HW2  871   0.998   1.412   2.631 -0.3799 -0.6313  0.0368
  218SOL     MW  872   0.934   1.354   2.619 -0.4148 -0.4124  0.4338
  219SOL     OW  873   1.123   0.370   2.609 -0.1143 -0.1696 -0.5289
  219SOL    HW1  874   1.197   0.433   2.633  3.2488  1.6135  1.3057
  219SOL    HW2  875   1.047   0.426   2.601  1.2943 -2.6409 -1.0725
  219SOL     MW  876   1.123   0.385   2.611  0.5153 -0.2604 -0.3586
  220SOL     OW  877   1.741   0.448   2.217 -0.6294 -0.3083 -0.2426
  220SOL    HW1  878   1.665   0.458   2.157  0.1300  0.5262  0.6000
  220SOL    HW2  879   1.800   0.384   2.179 -0.2000 -1.2097  1.3526
  220SOL     MW  880   1.738   0.441   2.204 -0.4725 -0.3171  0.0790
  221SOL     OW  881   0.345   1.313   2.932 -0.4212 -0.1261 -0.2972
  221SOL    HW1  882   0.411   1.244   2.937  1.6637  1.1986  0.0292
  221SOL    HW2  883   0.383   1.385   2.879  1.9576 -0.4141 -0.0834
  221SOL     MW  884   0.359   1.314   2.926  0.1677  0.0107 -0.2259
  222SOL     OW  885   0.432   0.983   2.672  0.3196 -0.3798 -0.1245
  222SOL    HW1  886   0.370   1.003   2.603 -1.2392  0.6158  1.7781
  222SOL    HW2  887   0.460   0.894   2.652  2.4938  2.9586  0.4499
  222SOL     MW  888   0.427   0.974   2.660  0.4008  0.1920  0.2023
  223SOL     OW  889   0.089   2.023   2.511  0.4308  0.0825  0.4248
  223SOL    HW1  890   0.099   1.981   2.597  0.2017  0.0210 -0.3980
  223SOL    HW2  891   0.098   2.118   2.520 -1.4253  0.8511  2.2100
  223SOL     MW  892   0.091   2.030   2.523  0.1557  0.1758  0.5518
  224SOL     OW  893   1.572   0.749   2.545 -0.1270 -0.5834 -0.6146
  224SOL    HW1  894   1.579   0.764   2.640 -2.0410 -1.5388  0.7616
  224SOL    HW2  895   1.527   0.830   2.514  0.5183  2.4631  0.3110
  224SOL     MW  896   1.567   0.762   2.554 -0.2944 -0.3075 -0.3109
  225SOL     OW  897   2.956   1.455   2.290  0.2126  0.1192  0.5821
  225SOL    HW1  898   2.982   1.543   2.264  1.5070 -0.2010  1.5057
  225SOL    HW2  899   2.883   1.469   2.344 -1.2760 -0.5524 -0.4634
  225SOL     MW  900   2.950   1.469   2.294  0.1870 -0.0116  0.5660
  226SOL     OW  901   0.414   1.511   2.765 -0.0100  0.6969  0.3452
  226SOL    HW1  902   0.494   1.481   2.714  0.9135 -0.7913  0.5919
  226SOL    HW2  903   0.396   1.608   2.748 -2.6129  0.0774 -2.2660
  226SOL     MW  904   0.422   1.520   2.756 -0.2315  0.4188  0.0332
  227SOL     OW  905   0.555   1.139   2.864 -0.1745 -0.1307 -0.4929
  227SOL    HW1  906   0.649   1.137   2.843 -1.5034  1.9753 -3.2165
  227SOL    HW2  907   0.522   1.083   2.797  1.3307  0.0499  1.0499
  227SOL     MW  908   0.563   1.131   2.852 -0.1513  0.1710 -0.6487
  228SOL     OW  909   0.731   1.098   2.029  0.3590  0.2821  0.1415
  228SOL    HW1  910   0.803   1.135   1.976 -0.9835  0.9246  0.1059
  228SOL    HW2  911   0.757   1.024   2.085  0.7395  0.7675 -0.7404
  228SOL     MW  912   0.744   1.093   2.029  0.2321  0.4309  0.0204
  229SOL     OW  913   0.142   0.654   0.056 -0.3852  0.2179  0.5102
  229SOL    HW1  914   0.096   0.640  -0.023  0.3564  2.5077  0.9991
  229SOL    HW2  915   0.160   0.562   0.086  0.2707 -1.3005 -1.7260
  229SOL     MW  916   0.138   0.640   0.050 -0.2008  0.3197  0.2796
  230SOL     OW  917   1.714   1.336   2.018  0.4398 -0.0465  0.0911
  230SOL    HW1  918   1.649   1.306   2.087 -2.7328  0.7125  0.9416
  230SOL    HW2  919   1.766   1.260   2.003  2.0043  1.5441  1.9860
  230SOL     MW  920   1.712   1.322   2.025  0.2276  0.2635  0.4533
  231SOL     OW  921   2.779   1.277   2.200  0.0631 -0.0045 -0.7384
  231SOL    HW1  922   2.845   1.342   2.206 -0.7946 -2.9093  1.2251
  231SOL    HW2  923   2.727   1.285   2.123  1.6447 -1.6567  0.1380
  231SOL     MW  924   2.781   1.287   2.191  0.1586 -0.6058 -0.3637
  232SOL     OW  925   2.241   0.847   2.001 -0.6011 -0.0598 -0.1660
  232SOL    HW1  926   2.155   0.830   1.960 -1.0694  0.8388  2.4506
  232SOL    HW2  927   2.218   0.898   2.079  2.0211  2.0493  2.9854
  232SOL     MW  928   2.226   0.851   2.006 -0.3170  0.3370  0.5951
  233SOL     OW  929   2.074   0.425   2.068 -0.8468 -0.1115 -0.6479
  233SOL    HW1  930   2.134   0.358   2.031  4.1816  0.1998  0.3665
  233SOL    HW2  931   2.120   0.476   2.131 -1.7508 -1.4768  0.5537
  233SOL     MW  932   2.088   0.423   2.071 -0.3026 -0.2506 -0.3555
  234SOL     OW  933   0.209   1.043   2.499 -0.1160 -0.8126 -0.1165
  234SOL    HW1  934   0.121   1.075   2.465 -0.3094  4.5016  2.2045
  234SOL    HW2  935   0.233   1.124   2.550 -0.5468 -2.6652  3.2372
  234SOL     MW  936   0.201   1.058   2.501 -0.1984 -0.3559  0.6323
  235SOL     OW  937   1.126   3.065   2.770  0.3566  0.3055  0.4761
  235SOL    HW1  938   1.122   2.994   2.833 -0.4037  2.5312 -0.5614
  235SOL    HW2  939   1.105   3.148   2.818 -0.5241  0.1968 -0.0233
  235SOL     MW  940   1.122   3.066   2.785  0.1401  0.5848  0.2733
  236SOL     OW  941   2.916   0.595   0.125 -0.0214 -0.3081 -0.3451
  236SOL    HW1  942   2.826   0.616   0.135 -0.2380 -0.5923 -0.6693
  236SOL    HW2  943   2.967   0.679   0.113 -0.0660 -1.5989 -0.4885
  236SOL     MW  944   2.911   0.609   0.125 -0.0559 -0.5159 -0.4068
  237SOL     OW  945   2.021   1.160   2.222  0.1924  0.0565  0.0835
  237SOL    HW1  946   1.956   1.186   2.153 -1.0745 -1.2789 -0.2878
  237SOL    HW2  947   2.046   1.066   2.213 -0.4237  2.0119 -0.0272
  237SOL     MW  948   2.016   1.151   2.212 -0.0560  0.1383  0.0199
  238SOL     OW  949   1.087   1.801   2.964  0.4406 -0.4969  0.3355
  238SOL    HW1  950   1.040   1.722   2.988  0.2011 -0.2241 -2.1742
  238SOL    HW2  951   1.176   1.770   2.946  0.6609  0.2638 -2.6062
  238SOL     MW  952   1.093   1.787   2.965  0.4381 -0.3605 -0.3837
  239SOL     OW  953   1.271   1.442   2.388 -0.3749  0.2601 -0.1964
  239SOL    HW1  954   1.257   1.467   2.477  0.5499 -1.5843 -1.8137
  239SOL    HW2  955   1.269   1.349   2.385 -1.7056  2.3152  2.5992
  239SOL     MW  956   1.269   1.433   2.399 -0.4285  0.2879 -0.0409
  240SOL     OW  957   0.627   0.915   2.316  0.0980  0.3972 -0.0984
  240SOL    HW1  958   0.653   0.958   2.398 -3.6500 -3.9962 -0.9372
  240SOL    HW2  959   0.705   0.868   2.288 -0.4747  0.3946 -0.0378
  240SOL     MW  960   0.640   0.914   2.323 -0.4720 -0.1828 -0.2011
  241SOL     OW  961   0.685   0.403   0.014  0.1164 -0.0240  0.3424
  241SOL    HW1  962   0.694   0.474   0.082  1.0106  2.4063  0.7809
  241SOL    HW2  963   0.588   0.379   0.010 -0.8163  2.1161 -3.7464
  241SOL     MW  964   0.673   0.410   0.022  0.1113  0.5790 -0.1392
  242SOL     OW  965   1.486   1.738   2.320  0.0818  0.0458 -0.4835
  242SOL    HW1  966   1.438   1.822   2.343 -0.8525 -1.7579  5.9456
  242SOL    HW2  967   1.437   1.700   2.247  1.1592 -1.7624  0.1069
  242SOL     MW  968   1.473   1.744   2.313  0.1007 -0.4308  0.4427
  243SOL     OW  969   0.988   0.167   2.465  0.0105  0.3414 -0.2112
  243SOL    HW1  970   1.054   0.140   2.400  0.2634 -0.9906  0.7533
  243SOL    HW2  971   1.049   0.224   2.521  1.6585 -0.5313 -2.1156
  243SOL     MW  972   1.004   0.171   2.464  0.2613  0.0505 -0.3352
  244SOL     OW  973   0.187   0.805   2.356 -0.3040  0.0491  0.0961
  244SOL    HW1  974   0.204   0.892   2.394  1.2497  1.6494  0.1360
  244SOL    HW2  975   0.272   0.762   2.356 -0.8417 -0.0443 -1.7034
  244SOL     MW  976   0.200   0.811   2.361 -0.1699  0.2479 -0.1361
  245SOL     OW  977   1.231   0.164   2.291  0.2297  0.2074  0.1125
  245SOL    HW1  978   1.266   0.076   2.316  0.5089  0.0590  0.6175
  245SOL    HW2  979   1.278   0.227   2.342  0.9831 -1.8066 -3.7358
  245SOL     MW  980   1.242   0.161   2.301  0.3659 -0.0779 -0.3286
  246SOL     OW  981   1.254   1.159   2.093 -0.1030 -0.1760  0.4592
  246SOL    HW1  982   1.194   1.132   2.164  1.6795 -1.6744  1.3012
  246SOL    HW2  983   1.332   1.147   2.135 -1.8634 -0.2212 -2.1637
  246SOL     MW  984   1.256   1.154   2.108 -0.1001 -0.3796  0.2243
  247SOL     OW  985   0.740   0.596   0.206 -0.4634  0.4176  0.3013
  247SOL    HW1  986   0.707   0.686   0.198  1.7975  2.3519 -2.3300
  247SOL    HW2  987   0.835   0.592   0.170  1.4671 -3.3263  0.7518
  247SOL     MW  988   0.748   0.607   0.200  0.0896  0.1788  0.0135
  248SOL     OW  989   0.310   1.282   2.596  0.1101  0.0097 -0.5047
  248SOL    HW1  990   0.365   1.299   2.517 -1.5202  0.3397 -0.4418
  248SOL    HW2  991   0.335   1.355   2.649  4.6194 -0.0784 -1.4307
  248SOL     MW  992   0.321   1.294   2.593  0.4899  0.0416 -0.6186
  249SOL     OW  993   0.128   1.855   2.744 -0.8922 -0.2475 -0.3495
  249SOL    HW1  994   0.083   1.777   2.709  0.4454  2.5521 -2.5547
  249SOL    HW2  995   0.157   1.823   2.827 -0.7950 -0.2162 -1.1629
  249SOL     MW  996   0.126   1.840   2.750 -0.7029  0.1260 -0.7478
  250SOL     OW  997   2.178   0.919   2.296  0.0583 -0.1550 -0.2916
  250SOL    HW1  998   2.168   0.850   2.362 -5.3513 -1.3908  0.7807
  250SOL    HW2  999   2.273   0.934   2.293  0.8214  1.9899  0.4320
  250SOL     MW 1000   2.189   0.912   2.304 -0.5547 -0.0350 -0.0546
  251SOL     OW 1001   0.171   0.911   1.930 -0.4709 -0.2468 -0.1413
  251SOL    HW1 1002   0.078   0.908   1.951  3.1195 -0.4652  0.7436
  251SOL    HW2 1003   0.182   0.890   1.835 -2.9123  0.8906  2.1865
  251SOL     MW 1004   0.161   0.908   1.920 -0.3193 -0.1255  0.2826
  252SOL     OW 1005   1.746   0.987   2.910 -0.2992 -0.5891  1.0511
  252SOL    HW1 1006   1.766   1.038   2.992 -0.9513  0.2974  0.6843
  252SOL    HW2 1007   1.811   1.013   2.842 -0.1140  0.2815 -0.9219
  252SOL     MW 1008   1.757   0.997   2.912 -0.3608 -0.3572  0.7424
  253SOL     OW 1009   1.132   1.753   2.533 -0.1731 -0.5352 -0.0586
  253SOL    HW1 1010   1.175   1.762   2.444 -2.7337 -2.1129  0.4273
  253SOL    HW2 1011   1.059   1.819   2.533 -0.3153 -0.2944 -0.4905
  253SOL     MW 1012   1.128   1.763   2.522 -0.5297 -0.7116 -0.0515
  254SOL     OW 1013   1.016   1.065   2.246 -0.2791  0.3453 -0.2794
  254SOL    HW1 1014   0.975   0.997   2.194 -1.5601  0.7846  0.7501
  254SOL    HW2 1015   0.952   1.142   2.258  0.7056  0.5206  0.0121
  254SOL     MW 1016   1.002   1.066   2.241 -0.3182  0.4264 -0.1052
  255SOL     OW 1017   0.830   2.551   2.144  0.4456 -0.8356  0.7352
  255SOL    HW1 1018   0.741   2.515   2.136  0.4808  0.7273  0.4382
  255SOL    HW2 1019   0.894   2.483   2.128  1.4855  2.4754 -2.3777
  255SOL     MW 1020   0.827   2.537   2.141  0.5874 -0.1926  0.2853
  256SOL     OW 1021   1.317   2.706   2.941 -0.7472 -0.1072  0.5262
  256SOL    HW1 1022   1.258   2.647   2.886 -0.0340  2.2077 -0.6437
  256SOL    HW2 1023   1.369   2.747   2.873  0.7056  0.9404 -1.0671
  256SOL     MW 1024   1.316   2.704   2.925 -0.4614  0.3365  0.1616
  257SOL     OW 1025   0.179   1.925   0.047 -0.4482  0.5232 -0.3693
  257SOL    HW1 1026   0.182   1.874   0.125  1.5968  0.7610 -0.2917
  257SOL    HW2 1027   0.210   1.869  -0.023  1.3149  0.3492  0.0878
  257SOL     MW 1028   0.183   1.911   0.048  0.0543  0.5316 -0.2988
  258SOL     OW 1029   0.814   1.010   2.536 -0.0278 -0.5058  0.5135
  258SOL    HW1 1030   0.816   1.079   2.471  1.8953 -0.5053 -2.6800
  258SOL    HW2 1031   0.793   1.058   2.621  0.0977 -1.9747 -1.2335
  258SOL     MW 1032   0.811   1.026   2.539  0.2425 -0.6995 -0.1384
  259SOL     OW 1033   0.911   0.387   2.302  0.2616  0.5860 -0.3456
  259SOL    HW1 1034   0.828   0.366   2.250  0.9015  0.4831 -2.2731
  259SOL    HW2 1035   0.937   0.303   2.345 -3.0577 -3.4267 -1.8071
  259SOL     MW 1036   0.904   0.373   2.301 -0.0919  0.0430 -0.7928
  260SOL     OW 1037   0.570   0.136   1.634  0.8174  0.4689 -0.2237
  260SOL    HW1 1038   0.514   0.113   1.556  2.2569  2.8292 -1.1932
  260SOL    HW2 1039   0.667   0.149   1.607  2.3570 -0.6816 -0.0146
  260SOL     MW 1040   0.575   0.134   1.620  1.2104  0.6285 -0.3240
  261SOL     OW 1041   1.176   0.739   2.035  0.0030  0.2107 -0.2788
  261SOL    HW1 1042   1.168   0.701   2.123  1.2518 -0.9271  2.3438
  261SOL    HW2 1043   1.179   0.659   1.979 -0.2306 -3.4290  0.0407
  261SOL     MW 1044   1.175   0.724   2.039  0.1369 -0.4196  0.1094
  262SOL     OW 1045   1.054   0.299   0.168 -0.2582 -0.0784  0.1560
  262SOL    HW1 1046   1.147   0.322   0.150  1.7119  0.4443  0.5728
  262SOL    HW2 1047   1.032   0.242   0.094  2.1633  0.0452  0.8906
  262SOL     MW 1048   1.063   0.295   0.156  0.3212  0.0069  0.3079
  263SOL     OW 1049   0.438   0.036   2.471 -0.1689  0.4248 -0.2599
  263SOL    HW1 1050   0.349   0.079   2.470  0.4285 -0.2789 -0.1784
  263SOL    HW2 1051   0.487   0.064   2.392 -0.5143  0.9312 -0.9715
  263SOL     MW 1052   0.433   0.046   2.461 -0.1357  0.3987 -0.3430
  264SOL     OW 1053   1.509   1.341   1.829  0.2370  0.0717  0.3739
  264SOL    HW1 1054   1.512   1.247   1.837  3.1863  0.9029  0.6860
  264SOL    HW2 1055   1.583   1.369   1.879  0.3248 -1.4902  0.5352
  264SOL     MW 1056   1.519   1.333   1.837  0.6377 -0.0247  0.4364
  265SOL     OW 1057   0.804   2.810   2.212  0.3453 -0.5302  0.1274
  265SOL    HW1 1058   0.816   2.717   2.181  0.8919  0.2793 -1.9125
  265SOL    HW2 1059   0.798   2.801   2.306 -1.8665  1.4092  0.2321
  265SOL     MW 1060   0.805   2.796   2.220  0.1256 -0.1675 -0.1279
  266SOL     OW 1061   0.834   0.770   2.216 -0.1046  0.4105 -0.1819
  266SOL    HW1 1062   0.846   0.745   2.123  1.0535 -1.1339 -0.5361
  266SOL    HW2 1063   0.911   0.730   2.260  0.4725 -0.8451 -0.5300
  266SOL     MW 1064   0.846   0.762   2.209  0.1243  0.0411 -0.2746
  267SOL     OW 1065   1.361   1.772   2.666 -0.5504  0.2343  0.0762
  267SOL    HW1 1066   1.442   1.720   2.638  0.4965 -2.6040 -1.7494
  267SOL    HW2 1067   1.290   1.774   2.600 -1.3826  1.5049 -3.4387
  267SOL     MW 1068   1.362   1.765   2.653 -0.5221  0.0275 -0.6284
  268SOL     OW 1069   0.189   0.887   1.666 -0.3657  0.4095 -0.0144
  268SOL    HW1 1070   0.170   0.966   1.611  0.7168  1.0031  1.6303
  268SOL    HW2 1071   0.171   0.806   1.625 -0.4054  0.0847  0.5638
  268SOL     MW 1072   0.184   0.887   1.653 -0.2281  0.4450  0.2789
  269SOL     OW 1073   1.374   2.003   2.343 -0.4898 -0.2092 -0.4539
  269SOL    HW1 1074   1.433   2.077   2.346 -0.6149 -1.0161  1.1637
  269SOL    HW2 1075   1.289   2.030   2.342  2.3782  1.8148  2.5713
  269SOL     MW 1076   1.371   2.016   2.344 -0.1279 -0.0486  0.1587
  270SOL     OW 1077   1.155   0.409   1.605  0.0400 -0.7613 -0.4756
  270SOL    HW1 1078   1.123   0.322   1.632  0.5844  1.2245  2.0332
  270SOL    HW2 1079   1.248   0.401   1.590  1.6624 -0.2476  0.6003
  270SOL     MW 1080   1.163   0.396   1.607  0.3259 -0.4315 -0.0027
  271SOL     OW 1081   0.793   0.004   2.577 -1.3358 -0.5795 -0.3620
  271SOL    HW1 1082   0.843  -0.073   2.616 -0.4060 -0.3668  0.9084
  271SOL    HW2 1083   0.865   0.072   2.557 -0.2121  0.3443 -2.1417
  271SOL     MW 1084   0.809   0.003   2.579 -1.0649 -0.4295 -0.4292
  272SOL     OW 1085   1.518   2.819   2.796  0.2675 -0.4196  0.6431
  272SOL    HW1 1086   1.475   2.848   2.712 -2.2312  2.1315 -0.6657
  272SOL    HW2 1087   1.538   2.906   2.831  1.6527 -2.6038  0.1165
  272SOL     MW 1088   1.515   2.834   2.790  0.1206 -0.3712  0.4009
  273SOL     OW 1089   1.496   0.913   2.796 -0.2688 -0.0952 -0.2233
  273SOL    HW1 1090   1.578   0.952   2.835 -1.2570  0.8322 -0.0477
  273SOL    HW2 1091   1.436   0.981   2.764  0.4228  1.0845  1.0685
  273SOL     MW 1092   1.499   0.927   2.796 -0.3080  0.1828 -0.0297
  274SOL     OW 1093   1.413   0.720   0.120  0.1634  0.1742 -0.2386
  274SOL    HW1 1094   1.429   0.640   0.172 -0.9245  0.7815  0.8155
  274SOL    HW2 1095   1.335   0.761   0.160  1.9929  0.8959 -0.6497
  274SOL     MW 1096   1.405   0.715   0.132  0.2613  0.3496 -0.1537
  275SOL     OW 1097   1.652   0.538   1.784  0.4070  0.0563 -0.4280
  275SOL    HW1 1098   1.732   0.556   1.836  0.0898  0.4679  0.8248
  275SOL    HW2 1099   1.643   0.443   1.787 -1.2748  1.2918  0.0062
  275SOL     MW 1100   1.662   0.528   1.791  0.1432  0.2736 -0.2054
  276SOL     OW 1101   0.314   1.252   1.934  0.4544  0.3002  0.6345
  276SOL    HW1 1102   0.367   1.179   1.957  0.0382 -1.4985 -1.1609
  276SOL    HW2 1103   0.274   1.287   2.012 -1.4350  0.5795 -2.4011
  276SOL     MW 1104   0.316   1.247   1.947  0.1502  0.0997 -0.0029
  277SOL     OW 1105   1.943   1.145   2.509  0.5593 -0.4580  0.8808
  277SOL    HW1 1106   1.979   1.233   2.536  2.3596  0.5419  1.8324
  277SOL    HW2 1107   1.991   1.129   2.427  1.7182  2.9091 -0.0983
  277SOL     MW 1108   1.954   1.155   2.502  0.9497  0.1182  0.8772
  278SOL     OW 1109   1.403   0.683   1.659 -0.7229 -0.5277 -0.0263
  278SOL    HW1 1110   1.389   0.621   1.737  0.1014  0.7724  0.4147
  278SOL    HW2 1111   1.474   0.738   1.693 -0.4915  1.6294  0.7729
  278SOL     MW 1112   1.411   0.682   1.674 -0.5836 -0.0716  0.1373
  279SOL     OW 1113   0.567   0.119   2.233 -0.4562 -0.1572  0.0672
  279SOL    HW1 1114   0.649   0.065   2.252  0.8821 -2.4669 -0.9914
  279SOL    HW2 1115   0.617   0.189   2.191 -0.2794  1.4280 -3.1978
  279SOL     MW 1116   0.584   0.121   2.230 -0.2563 -0.2528 -0.5033
  280SOL     OW 1117   1.464   0.973   2.156 -0.2649  0.3713 -0.3163
  280SOL    HW1 1118   1.516   0.907   2.106 -2.6602 -2.1016  2.5113
  280SOL    HW2 1119   1.456   0.937   2.243  0.0552 -0.2801 -3.1267
  280SOL     MW 1120   1.470   0.959   2.161 -0.5387 -0.0409 -0.3140
  281SOL     OW 1121   1.337   1.325   2.730  0.3695 -0.1838 -0.3864
  281SOL    HW1 1122   1.432   1.330   2.716 -0.2486 -0.6316 -2.7142
  281SOL    HW2 1123   1.315   1.267   2.807 -1.9995  0.2304 -0.1025
  281SOL     MW 1124   1.347   1.318   2.738 -0.0246 -0.1882 -0.6560
  282SOL     OW 1125   1.086   1.307   1.631  0.3315  0.4014 -0.1520
  282SOL    HW1 1126   1.083   1.401   1.601 -2.4958  0.5192  1.6472
  282SOL    HW2 1127   1.038   1.295   1.711 -0.5826 -0.1006 -0.7034
  282SOL     MW 1128   1.079   1.318   1.638 -0.1621  0.3507  0.0126
  283SOL     OW 1129   0.826   1.259   3.022 -0.1783 -0.0034  0.4416
  283SOL    HW1 1130   0.874   1.236   3.097  2.8467  2.6214 -1.7949
  283SOL    HW2 1131   0.800   1.347   3.031  1.8377 -0.0310  1.4546
  283SOL     MW 1132   0.829   1.268   3.033  0.4868  0.3393  0.2802
  284SOL     OW 1133   0.445   0.714   2.380 -0.4964  0.7309 -0.1706
  284SOL    HW1 1134   0.482   0.793   2.341 -0.5584 -1.7311 -1.2833
  284SOL    HW2 1135   0.435   0.640   2.315 -1.4984 -0.2098 -0.0861
  284SOL     MW 1136   0.448   0.715   2.366 -0.6368  0.2820 -0.3063
  285SOL     OW 1137   0.949   0.841   2.832 -0.6797  0.5704  0.2277
  285SOL    HW1 1138   1.024   0.832   2.775 -0.3355  0.2530 -0.5182
  285SOL    HW2 1139   0.892   0.767   2.803  1.6001 -0.0458  1.5686
  285SOL     MW 1140   0.952   0.830   2.820 -0.3335  0.4472  0.3062
  286SOL     OW 1141   1.153   1.497   2.666  0.5055  0.3442 -0.3311
  286SOL    HW1 1142   1.222   1.441   2.705 -0.6750  1.0450 -1.3499
  286SOL    HW2 1143   1.175   1.588   2.694 -1.4973 -1.2457 -1.2509
  286SOL     MW 1144   1.165   1.502   2.675  0.0855  0.2269 -0.5869
  287SOL     OW 1145   1.153   0.925   0.347  0.1328 -0.0328 -0.5093
  287SOL    HW1 1146   1.186   0.973   0.421 -0.8732  0.4622 -1.3443
  287SOL    HW2 1147   1.127   1.002   0.287  1.1023  0.1150 -1.7835
  287SOL     MW 1148   1.154   0.942   0.349  0.1280  0.0520 -0.7876
  288SOL     OW 1149   1.516   0.570   2.065 -0.5943 -0.0783  0.3356
  288SOL    HW1 1150   1.507   0.588   2.160 -3.0429  0.2983  1.5461
  288SOL    HW2 1151   1.559   0.651   2.036  1.2954  2.5888 -0.9453
  288SOL     MW 1152   1.521   0.583   2.074 -0.6680  0.3233  0.3263
  289SOL     OW 1153   1.084   0.979   2.589 -0.1729  0.1810 -0.3496
  289SOL    HW1 1154   1.121   0.895   2.567 -0.3621 -1.1081 -0.9628
  289SOL    HW2 1155   0.994   0.978   2.557  2.4278 -0.5328  0.5627
  289SOL     MW 1156   1.077   0.968   2.582  0.1453 -0.0833 -0.3101
  290SOL     OW 1157   0.799   0.611   1.566 -0.0979 -0.0706 -0.6216
  290SOL    HW1 1158   0.860   0.574   1.498  1.6451  0.4369 -2.5138
  290SOL    HW2 1159   0.855   0.601   1.641 -0.4828  3.8627  2.2685
  290SOL     MW 1160   0.814   0.605   1.567  0.0813  0.5153 -0.4900
  291SOL     OW 1161   0.181   0.381   0.121 -0.4326  0.1880 -0.5871
  291SOL    HW1 1162   0.255   0.330   0.154  1.2816  0.4295 -1.4588
  291SOL    HW2 1163   0.157   0.334   0.041  1.6287 -1.3652  1.9378
  291SOL     MW 1164   0.187   0.368   0.115  0.0655  0.0149 -0.3690
  292SOL     OW 1165   1.003   0.547   0.079 -0.1460  0.0072  0.0271
  292SOL    HW1 1166   1.053   0.604   0.135  0.7590 -0.2251  0.2227
  292SOL    HW2 1167   1.000   0.458   0.120 -1.5571  1.2553 -2.8871
  292SOL     MW 1168   1.010   0.542   0.092 -0.2128  0.1412 -0.3316
  293SOL     OW 1169   0.187   0.121   2.451  0.7586 -0.0309  0.2166
  293SOL    HW1 1170   0.126   0.065   2.405  2.5646  0.6390  0.4277
  293SOL    HW2 1171   0.139   0.155   2.525 -0.6166  0.5751  0.3637
  293SOL     MW 1172   0.172   0.118   2.455  0.8155  0.1375  0.2639
  294SOL     OW 1173   1.447   0.581   2.324 -0.4101  0.0463 -0.0034
  294SOL    HW1 1174   1.481   0.630   2.398  4.0226  2.1866 -0.5004
  294SOL    HW2 1175   1.436   0.489   2.347 -2.3809  0.8150 -3.2151
  294SOL     MW 1176   1.450   0.575   2.337 -0.0853  0.4301 -0.4927
  295SOL     OW 1177   0.922   0.541   2.544 -0.1826  0.1398 -0.0271
  295SOL    HW1 1178   0.904   0.524   2.452  0.5642  0.8446 -0.7867
  295SOL    HW2 1179   0.866   0.611   2.580 -1.6623  3.0691  1.6421
  295SOL     MW 1180   0.912   0.548   2.537 -0.2793  0.6193  0.0930
  296SOL     OW 1181   1.261   0.282   2.027 -0.5395 -0.0885 -0.0899
  296SOL    HW1 1182   1.332   0.219   2.009 -1.3525 -0.3930 -0.0589
  296SOL    HW2 1183   1.239   0.260   2.120 -1.6341  1.5649 -0.9482
  296SOL     MW 1184   1.267   0.271   2.037 -0.7912  0.0895 -0.1991
  297SOL     OW 1185   1.421   0.413   1.553  0.7180  0.0674 -0.5974
  297SOL    HW1 1186   1.436   0.506   1.568 -1.0839 -1.3061 -2.7070
  297SOL    HW2 1187   1.456   0.379   1.632 -1.3642 -0.9846 -0.4751
  297SOL     MW 1188   1.428   0.421   1.565  0.2055 -0.2526 -0.8596
  298SOL     OW 1189   1.639   0.839   2.005 -0.0029  0.7499  0.5515
  298SOL    HW1 1190   1.683   0.921   1.979  0.5109 -0.8887 -2.2223
  298SOL    HW2 1191   1.681   0.801   2.091 -0.6493 -4.5896  0.8565
  298SOL     MW 1192   1.650   0.845   2.013 -0.0204 -0.1708  0.2258
  299SOL     OW 1193   0.565   1.100   0.046  0.5079 -0.0602 -0.1660
  299SOL    HW1 1194   0.548   1.067  -0.048 -2.9781 -1.2897 -1.4632
  299SOL    HW2 1195   0.639   1.166   0.035  1.9046  0.4307  2.6512
  299SOL     MW 1196   0.573   1.105   0.032  0.2323 -0.1577  0.0345
  300SOL     OW 1197   1.302   1.163   2.490 -0.3932  0.1218 -0.4805
  300SOL    HW1 1198   1.217   1.118   2.499 -2.1069  2.7104 -2.3669
  300SOL    HW2 1199   1.314   1.201   2.576  0.1104 -0.9401 -0.9983
  300SOL     MW 1200   1.293   1.162   2.503 -0.5529  0.3233 -0.7977
  301SOL     OW 1201   1.493   0.946   0.659  0.0471  0.9151 -0.1507
  301SOL    HW1 1202   1.464   0.977   0.746  1.8522  1.9183 -1.5272
  301SOL    HW2 1203   1.415   0.896   0.631 -1.9340 -1.5529 -0.6796
  301SOL     MW 1204   1.479   0.943   0.667  0.0239  0.7219 -0.4021
  302SOL     OW 1205   0.125   1.603   2.006  0.0840  0.1778 -0.1595
  302SOL    HW1 1206   0.168   1.533   2.056  1.3133 -0.1063 -1.4843
  302SOL    HW2 1207   0.059   1.648   2.060 -0.1249  2.5452 -0.7019
  302SOL     MW 1208   0.122   1.600   2.020  0.2186  0.4526 -0.4058
  303SOL     OW 1209   0.411   1.798   2.664 -0.8588 -0.3118 -0.3284
  303SOL    HW1 1210   0.391   1.795   2.573  1.0984  0.0230  1.1940
  303SOL    HW2 1211   0.343   1.847   2.710 -1.5351 -1.8426  3.1727
  303SOL     MW 1212   0.400   1.804   2.658 -0.6898 -0.4696  0.3344
  304SOL     OW 1213   0.522   2.050   2.364  0.2388 -0.5443 -0.8420
  304SOL    HW1 1214   0.588   2.091   2.304  0.3021  0.3717  0.2235
  304SOL    HW2 1215   0.557   1.965   2.393 -3.6816  2.5186  2.9076
  304SOL     MW 1216   0.535   2.044   2.360 -0.2701 -0.0194 -0.2067
  305SOL     OW 1217   1.099   0.549   0.494 -0.2982  0.0829  0.1846
  305SOL    HW1 1218   1.003   0.551   0.506  0.2379 -2.0347 -0.8203
  305SOL    HW2 1219   1.125   0.465   0.531 -0.4054 -0.4201 -1.0204
  305SOL     MW 1220   1.090   0.538   0.500 -0.2416 -0.2628 -0.1070
  306SOL     OW 1221   1.181   1.527   0.290  0.0531  0.1347 -0.0977
  306SOL    HW1 1222   1.232   1.448   0.326  0.2352  1.2280 -0.5417
  306SOL    HW2 1223   1.224   1.542   0.209 -1.4522 -1.2699  0.0843
  306SOL     MW 1224   1.194   1.519   0.284 -0.1215  0.0937 -0.1323
  307SOL     OW 1225   1.341   0.484   1.860 -0.1048 -0.3054 -0.4336
  307SOL    HW1 1226   1.300   0.423   1.919 -1.7182  0.6093 -2.1985
  307SOL    HW2 1227   1.421   0.504   1.916  1.8963  1.4969 -0.3321
  307SOL     MW 1228   1.346   0.479   1.875 -0.0536  0.0531 -0.6530
  308SOL     OW 1229   2.193   0.554   2.714  0.9142 -0.7447  0.0640
  308SOL    HW1 1230   2.287   0.515   2.731  1.4319 -2.6163  0.9644
  308SOL    HW2 1231   2.191   0.642   2.749 -1.9193 -0.2408  0.7251
  308SOL     MW 1232   2.205   0.561   2.721  0.6086 -0.9252  0.2700
  309SOL     OW 1233   0.477   0.509   0.297  0.3550  0.1837 -0.9869
  309SOL    HW1 1234   0.570   0.520   0.303 -1.1087  0.7353 -1.8988
  309SOL    HW2 1235   0.463   0.421   0.263  0.4668 -1.0169  0.6289
  309SOL     MW 1236   0.487   0.499   0.293  0.1767  0.0981 -0.8940
  310SOL     OW 1237   0.428   0.599   1.924 -0.0411 -0.2685 -0.0898
  310SOL    HW1 1238   0.479   0.511   1.909 -0.1236 -1.7355 -3.4433
  310SOL    HW2 1239   0.483   0.670   1.891 -0.7539  0.8791  1.2724
  310SOL     MW 1240   0.442   0.597   1.918 -0.1460 -0.3106 -0.3525
  311SOL     OW 1241   1.884   0.582   1.932  1.0088  0.1249 -0.0222
  311SOL    HW1 1242   1.855   0.612   2.020 -2.0968 -1.4290  1.6019
  311SOL    HW2 1243   1.963   0.525   1.948  0.2613 -2.5797 -1.1008
  311SOL     MW 1244   1.890   0.579   1.946  0.5004 -0.4370  0.0498
  312SOL     OW 1245   1.803   2.491   0.156  0.0069 -0.5867  0.1230
  312SOL    HW1 1246   1.842   2.469   0.242 -0.3975 -2.5897  0.0175
  312SOL    HW2 1247   1.724   2.543   0.182  1.4751 -1.6574  2.0579
  312SOL     MW 1248   1.797   2.495   0.171  0.1472 -0.9922  0.3644
  313SOL     OW 1249   0.126   1.138   2.951  0.1074  0.9741  0.1419
  313SOL    HW1 1250   0.067   1.150   3.034 -2.4073 -1.5781  0.4760
  313SOL    HW2 1251   0.194   1.205   2.941  1.7140 -0.7798  0.7641
  313SOL     MW 1252   0.127   1.149   2.960 -0.0124  0.4059  0.2681
  314SOL     OW 1253   2.162   3.009   2.949  0.1807  0.0970 -0.1048
  314SOL    HW1 1254   2.116   3.072   2.892  1.3481  0.9512  0.7705
  314SOL    HW2 1255   2.206   3.069   3.007  1.2961 -0.3954 -1.6064
  314SOL     MW 1256   2.162   3.025   2.949  0.4819  0.1447 -0.1874
  315SOL     OW 1257   1.530   1.868   3.033 -0.2220  0.1700 -0.6231
  315SOL    HW1 1258   1.456   1.893   3.077  2.2907 -0.9505 -1.2015
  315SOL    HW2 1259   1.556   1.951   2.986 -0.1844 -0.7563 -1.2424
  315SOL     MW 1260   1.524   1.882   3.033  0.1145 -0.1001 -0.7811
  316SOL     OW 1261   1.327   0.523   2.709  0.2302 -0.3568  0.2712
  316SOL    HW1 1262   1.417   0.525   2.741 -2.0506 -0.9915 -1.6162
  316SOL    HW2 1263   1.288   0.547   2.798 -1.9198 -0.2443  1.2166
  316SOL     MW 1264   1.334   0.526   2.725 -0.3544 -0.4257  0.1469
  317SOL     OW 1265   0.663   1.463   2.609 -0.3588  0.4977  0.8015
  317SOL    HW1 1266   0.741   1.413   2.617  0.8190  0.0981  0.6118
  317SOL    HW2 1267   0.650   1.497   2.516 -1.1138  0.0922 -1.7765
  317SOL     MW 1268   0.671   1.461   2.598 -0.3030  0.3915  0.4363
  318SOL     OW 1269   1.327   0.355   2.972  0.6463  0.4121  0.1986
  318SOL    HW1 1270   1.242   0.410   2.961 -1.2026  0.2158 -0.8544
  318SOL    HW2 1271   1.403   0.410   2.951  1.3488 -2.5813 -1.1105
  318SOL     MW 1272   1.326   0.370   2.968  0.4950 -0.0088 -0.1130
  319SOL     OW 1273   0.841   0.427   2.874  0.0406 -0.2773  0.1498
  319SOL    HW1 1274   0.806   0.358   2.813  2.2771 -1.8627  1.0330
  319SOL    HW2 1275   0.805   0.413   2.958  1.7028 -1.1630 -0.9280
  319SOL     MW 1276   0.832   0.416   2.877  0.5550 -0.6034  0.1241
  320SOL     OW 1277   1.064   1.352   2.003  0.0590  0.1814 -0.2863
  320SOL    HW1 1278   1.134   1.289   2.027  0.7474 -0.8983 -2.0019
  320SOL    HW2 1279   1.110   1.428   1.968 -1.1771 -0.5959  1.2251
  320SOL     MW 1280   1.079   1.354   2.001 -0.0133 -0.0636 -0.3132
  321SOL     OW 1281   1.120   0.954   3.002 -0.2612  0.1380  0.4590
  321SOL    HW1 1282   1.044   0.911   2.963 -1.6260  0.6680  1.1101
  321SOL    HW2 1283   1.193   0.896   2.994 -1.1633  3.7218 -4.8009
  321SOL     MW 1284   1.120   0.940   2.996 -0.5603  0.6808 -0.1491
  322SOL     OW 1285   1.188   0.848   1.677 -0.2879  0.0421  0.2160
  322SOL    HW1 1286   1.265   0.789   1.672 -2.5055  1.3021 -2.0939
  322SOL    HW2 1287   1.171   0.891   1.762 -0.2037 -1.0358  0.6514
  322SOL     MW 1288   1.196   0.846   1.687 -0.5694  0.0661 -0.0313
  323SOL     OW 1289   1.229   1.553   1.877  0.4666  0.1095 -0.2498
  323SOL    HW1 1290   1.295   1.550   1.807  0.7143 -2.1695  0.0887
  323SOL    HW2 1291   1.186   1.644   1.885  1.1857 -1.6069  0.4250
  323SOL     MW 1292   1.232   1.564   1.869  0.5942 -0.4177 -0.1161
  324SOL     OW 1293   1.474   0.970   2.433 -0.0079  0.5609 -0.1029
  324SOL    HW1 1294   1.409   1.032   2.455 -3.2008 -0.9403  2.4304
  324SOL    HW2 1295   1.557   1.017   2.441  1.0615 -2.6340  1.4209
  324SOL     MW 1296   1.476   0.984   2.437 -0.2881 -0.0587  0.4324
  325SOL     OW 1297   1.120   0.513   2.915 -0.0196 -0.0690 -0.0100
  325SOL    HW1 1298   1.093   0.558   2.996  1.8731  1.2102  1.5110
  325SOL    HW2 1299   1.042   0.487   2.864  1.9158  1.7405  1.9303
  325SOL     MW 1300   1.106   0.515   2.919  0.4855  0.3386  0.4467
  326SOL     OW 1301   0.462   1.347   2.343 -0.1715  0.0467  0.1298
  326SOL    HW1 1302   0.526   1.334   2.279 -3.3892  0.0153  2.0546
  326SOL    HW2 1303   0.442   1.438   2.325  1.2504 -3.8703  0.0749
  326SOL     MW 1304   0.468   1.358   2.332 -0.4084 -0.4743  0.3765
  327SOL     OW 1305   1.908   0.791   2.431 -0.0405 -0.3760  0.0966
  327SOL    HW1 1306   1.863   0.745   2.506 -0.4879  0.9493 -0.9515
  327SOL    HW2 1307   1.975   0.828   2.482 -0.6438 -0.9114 -1.3914
  327SOL     MW 1308   1.911   0.790   2.448 -0.1791 -0.2718 -0.2380
  328SOL     OW 1309   0.192   1.385   2.177 -0.3917 -0.9386 -0.5023
  328SOL    HW1 1310   0.128   1.318   2.158  0.8155 -2.4108  1.4852
  328SOL    HW2 1311   0.206   1.382   2.273  0.5073 -0.6395  0.0485
  328SOL     MW 1312   0.185   1.375   2.187 -0.1138 -1.0934 -0.1674
  329SOL     OW 1313   0.101   0.255   1.408 -0.3508  0.3189 -0.2646
  329SOL    HW1 1314   0.092   0.242   1.507  2.3991  0.1289  0.8518
  329SOL    HW2 1315   0.192   0.256   1.381 -1.8314 -1.5682  1.5103
  329SOL     MW 1316   0.112   0.253   1.418 -0.1833  0.0449  0.1169
  330SOL     OW 1317   0.391   3.076   2.084  0.0170 -0.2345 -0.1289
  330SOL    HW1 1318   0.465   3.108   2.140 -1.0352 -2.0650  0.2397
  330SOL    HW2 1319   0.327   3.053   2.151  0.3371 -0.2665 -0.1372
  330SOL     MW 1320   0.392   3.077   2.100 -0.0796 -0.4802 -0.0813
  331SOL     OW 1321   0.826   1.254   2.340 -0.4103  0.3807  1.1083
  331SOL    HW1 1322   0.765   1.318   2.296 -1.4324  0.4887  0.3413
  331SOL    HW2 1323   0.873   1.303   2.406  1.4869  0.0421 -1.3825
  331SOL     MW 1324   0.824   1.269   2.343 -0.2948  0.3502  0.6785
  332SOL     OW 1325   1.350   1.700   2.930 -0.5108 -0.1785 -0.7038
  332SOL    HW1 1326   1.341   1.709   2.832 -0.4377  0.8476 -1.5686
  332SOL    HW2 1327   1.421   1.761   2.953 -1.3601 -0.2727 -0.9889
  332SOL     MW 1328   1.358   1.709   2.920 -0.6132 -0.0556 -0.8555
  333SOL     OW 1329   1.736   1.365   2.970 -0.1850 -0.4854 -0.3363
  333SOL    HW1 1330   1.829   1.377   2.986  2.2385 -1.3446  3.4306
  333SOL    HW2 1331   1.715   1.287   3.017 -0.3304 -0.4525 -0.3542
  333SOL     MW 1332   1.745   1.357   2.978  0.1156 -0.5944  0.1584
  334SOL     OW 1333   1.293   0.061   2.561 -0.6544 -0.0473  0.4699
  334SOL    HW1 1334   1.230   0.040   2.628  0.1223 -0.1526 -1.7521
  334SOL    HW2 1335   1.357   0.122   2.604  2.5325 -0.6057  0.0497
  334SOL     MW 1336   1.293   0.066   2.576 -0.1314 -0.1348  0.1213
  335SOL     OW 1337   1.332   0.753   2.956  0.3683 -0.6291  0.2591
  335SOL    HW1 1338   1.380   0.722   3.034 -3.4198  0.2519  0.5737
  335SOL    HW2 1339   1.393   0.806   2.895  0.0588 -0.2454 -1.4946
  335SOL     MW 1340   1.347   0.756   2.958 -0.1723 -0.4622  0.0692
  336SOL     OW 1341   0.939   1.168   1.860 -0.4694  0.1657 -0.3878
  336SOL    HW1 1342   0.970   1.242   1.915 -0.7921 -2.3379 -3.6860
  336SOL    HW2 1343   0.989   1.089   1.880 -0.3519  0.2010  0.0585
  336SOL     MW 1344   0.950   1.168   1.870 -0.4965 -0.1600 -0.7641
  337SOL     OW 1345   0.666   1.813   2.793  0.0208  0.0516  0.4848
  337SOL    HW1 1346   0.593   1.802   2.732  1.0630 -0.0954 -0.4311
  337SOL    HW2 1347   0.727   1.754   2.758 -0.2516 -0.0996  1.3530
  337SOL     MW 1348   0.664   1.804   2.780  0.1224  0.0123  0.4785
  338SOL     OW 1349   1.129   0.696   2.600 -0.2480 -0.5734  0.2048
  338SOL    HW1 1350   1.048   0.640   2.595 -0.1821 -0.7981  0.9885
  338SOL    HW2 1351   1.210   0.642   2.610  1.0374  1.8671 -1.2345
  338SOL     MW 1352   1.129   0.682   2.601 -0.0697 -0.2810  0.1183
  339SOL     OW 1353   1.489   1.067   1.845 -0.3041 -0.3873  0.0332
  339SOL    HW1 1354   1.434   1.076   1.767  0.6127  0.9413 -0.5894
  339SOL    HW2 1355   1.434   1.055   1.921  2.5506  0.7791  0.5970
  339SOL     MW 1356   1.475   1.067   1.845  0.1935 -0.0581  0.0255
  340SOL     OW 1357   1.299   1.519   0.051  0.3653 -0.4473 -0.3335
  340SOL    HW1 1358   1.313   1.567  -0.031  0.7148  1.7075  4.0793
  340SOL    HW2 1359   1.392   1.506   0.077  1.2113 -0.0708  1.6937
  340SOL     MW 1360   1.313   1.523   0.044  0.5231 -0.1133  0.5162
  341SOL     OW 1361   0.036   1.341   2.751  0.0152 -0.7527 -0.5603
  341SOL    HW1 1362   0.115   1.285   2.756 -0.5936  0.2316  0.2165
  341SOL    HW2 1363  -0.000   1.337   2.659 -2.1057  0.5596  0.0645
  341SOL     MW 1364   0.042   1.333   2.740 -0.3449 -0.4497 -0.3754
  342SOL     OW 1365   1.313   0.345   0.140  0.0961  0.3300 -0.0868
  342SOL    HW1 1366   1.386   0.395   0.162 -1.2139 -2.4659  0.4091
  342SOL    HW2 1367   1.317   0.349   0.040  2.6067  1.7913 -2.9731
  342SOL     MW 1368   1.323   0.352   0.130  0.2545  0.1539 -0.4022
  343SOL     OW 1369   0.271   0.303   2.106  0.4148  0.6278  0.7251
  343SOL    HW1 1370   0.353   0.263   2.100 -2.5592  0.6293  0.3850
  343SOL    HW2 1371   0.199   0.239   2.093  1.7370 -2.2712 -1.0229
  343SOL     MW 1372   0.272   0.289   2.104  0.1969  0.2455  0.4496
  344SOL     OW 1373   1.697   2.044   0.178  0.2245  0.1572  0.0292
  344SOL    HW1 1374   1.712   2.110   0.106  0.8924 -0.0493 -0.2167
  344SOL    HW2 1375   1.612   2.005   0.164  2.3585  2.5467  0.2014
  344SOL     MW 1376   1.688   2.048   0.167  0.5942  0.4452  0.0195
  345SOL     OW 1377   0.706   1.570   2.339  0.0925  0.4091 -0.1132
  345SOL    HW1 1378   0.645   1.559   2.271 -0.7894  0.6646  1.1010
  345SOL    HW2 1379   0.793   1.552   2.297  1.6771  0.9127 -0.1773
  345SOL     MW 1380   0.710   1.566   2.325  0.1852  0.5093  0.0385
  346SOL     OW 1381   1.766   1.158   0.050  0.0412  0.5525 -0.4285
  346SOL    HW1 1382   1.859   1.163   0.068 -1.4711 -1.2656  0.4934
  346SOL    HW2 1383   1.723   1.103   0.114  0.4196 -0.6943  1.6367
  346SOL     MW 1384   1.773   1.151   0.061 -0.1084  0.1481 -0.0344
  347SOL     OW 1385   1.164   0.635   2.299 -0.0671 -0.2487  0.0362
  347SOL    HW1 1386   1.257   0.623   2.298  0.1778  1.4229  0.6765
  347SOL    HW2 1387   1.134   0.649   2.395 -0.2320  0.5561  0.2919
  347SOL     MW 1388   1.173   0.635   2.312 -0.0565  0.0780  0.1544
  348SOL     OW 1389   1.309   2.639   1.884 -0.2879 -0.1964 -0.2722
  348SOL    HW1 1390   1.353   2.572   1.941  0.4516  1.2849  0.2957
  348SOL    HW2 1391   1.337   2.712   1.931 -1.8568  0.7536 -1.9022
  348SOL     MW 1392   1.319   2.640   1.897 -0.3973  0.1244 -0.4123
  349SOL     OW 1393   1.452   0.214   2.715 -0.1593 -0.3798 -0.4594
  349SOL    HW1 1394   1.392   0.264   2.772 -0.8007 -0.8393 -1.1343
  349SOL    HW2 1395   1.508   0.152   2.766 -0.8454  1.9292 -0.9494
  349SOL     MW 1396   1.451   0.212   2.729 -0.3345 -0.1358 -0.6131
  350SOL     OW 1397   1.849   0.615   2.666 -0.0949  0.4946  0.3010
  350SOL    HW1 1398   1.794   0.548   2.629  0.7356  0.5132  2.5643
  350SOL    HW2 1399   1.889   0.582   2.748  0.9982  0.6561 -3.5995
  350SOL     MW 1400   1.847   0.602   2.672  0.1589  0.5184  0.0850
  351SOL     OW 1401   0.107   1.123   1.562 -0.5071  0.4707 -0.1859
  351SOL    HW1 1402   0.052   1.105   1.640 -0.5187 -1.7619  2.9200
  351SOL    HW2 1403   0.160   1.205   1.588  0.0705  1.0263  1.2995
  351SOL     MW 1404   0.107   1.131   1.576 -0.4324  0.2494  0.4199
  352SOL     OW 1405   0.865   1.644   2.729  0.7443 -0.1279  0.1185
  352SOL    HW1 1406   0.918   1.611   2.796 -1.8243  0.2312  0.6911
  352SOL    HW2 1407   0.822   1.570   2.684  0.8534 -3.7172  1.6585
  352SOL     MW 1408   0.866   1.630   2.732  0.4198 -0.5541  0.3972
  353SOL     OW 1409   3.086   2.514   2.711  0.7232 -0.4771  0.5963
  353SOL    HW1 1410   3.178   2.482   2.690  0.5921  0.0004  0.8175
  353SOL    HW2 1411   3.083   2.607   2.680  0.6000  0.7161 -1.4755
  353SOL     MW 1412   3.098   2.522   2.704  0.6896 -0.2567  0.3521
  354SOL     OW 1413   0.272   2.453   0.811 -0.0145 -0.3824 -0.1366
  354SOL    HW1 1414   0.311   2.436   0.896 -0.4125  0.7862 -1.4043
  354SOL    HW2 1415   0.184   2.416   0.805  1.5797  0.4410 -1.6023
  354SOL     MW 1416   0.266   2.446   0.821  0.1433 -0.1196 -0.4973
  355SOL     OW 1417   0.010   2.234   0.375 -0.2025 -0.3018 -0.6269
  355SOL    HW1 1418  -0.067   2.182   0.358 -0.9043  2.0463 -0.2416
  355SOL    HW2 1419  -0.006   2.278   0.457  1.3087 -3.0499 -2.6427
  355SOL     MW 1420  -0.002   2.233   0.383 -0.0957 -0.3546 -0.8421
  356SOL     OW 1421   0.851   2.789   0.969  0.0565  0.4631 -0.5457
  356SOL    HW1 1422   0.888   2.835   0.885 -1.2489  0.7461 -0.4664
  356SOL    HW2 1423   0.756   2.804   0.967 -1.6138 -0.7607  0.9396
  356SOL     MW 1424   0.844   2.797   0.958 -0.3361  0.3390 -0.3392
  357SOL     OW 1425   1.774   2.907   0.368 -0.0577 -0.3557 -0.2095
  357SOL    HW1 1426   1.717   2.850   0.421 -0.5155  0.5093  0.6996
  357SOL    HW2 1427   1.857   2.859   0.340 -1.0385 -2.0775  2.4142
  357SOL     MW 1428   1.778   2.893   0.371 -0.2475 -0.4688  0.2566
  358SOL     OW 1429   0.454   0.156   1.043  0.2666 -0.2212 -0.1950
  358SOL    HW1 1430   0.547   0.164   1.030 -0.0896 -1.2723 -0.5613
  358SOL    HW2 1431   0.409   0.188   0.969  0.8111 -2.5745  1.5549
  358SOL     MW 1432   0.460   0.161   1.032  0.2915 -0.6704 -0.0124
  359SOL     OW 1433   0.858   2.881   1.843 -0.7395 -0.5943 -0.2034
  359SOL    HW1 1434   0.860   2.787   1.845  3.0974 -1.0135 -1.2786
  359SOL    HW2 1435   0.880   2.896   1.748  1.7811  1.2592 -1.8816
  359SOL     MW 1436   0.861   2.871   1.831  0.0993 -0.4050 -0.5667
  360SOL     OW 1437   0.572   2.804   0.927  0.2890  0.3285  0.1197
  360SOL    HW1 1438   0.565   2.759   0.843 -1.6284  0.3333  0.8521
  360SOL    HW2 1439   0.564   2.728   0.987  0.0153  1.9653 -0.8520
  360SOL     MW 1440   0.570   2.788   0.924 -0.0001  0.5451  0.0882
  361SOL     OW 1441   0.194   2.634   1.352  0.8268  0.1026 -0.0262
  361SOL    HW1 1442   0.171   2.695   1.421 -0.8527  2.0898 -1.4080
  361SOL    HW2 1443   0.292   2.628   1.346 -0.5439  0.4850 -1.1411
  361SOL     MW 1444   0.204   2.641   1.360  0.4244  0.4152 -0.3556
  362SOL     OW 1445   1.454   2.451   0.648 -0.0199  0.4832 -0.2539
  362SOL    HW1 1446   1.470   2.423   0.741  0.7518 -1.2690 -0.9697
  362SOL    HW2 1447   1.517   2.524   0.635  0.0595 -1.7390 -1.2165
  362SOL     MW 1448   1.464   2.457   0.658  0.0924 -0.0411 -0.4754
  363SOL     OW 1449   0.300   3.075   0.687  0.0466  0.5605  0.1552
  363SOL    HW1 1450   0.293   3.023   0.768  0.1259  1.7199 -2.5946
  363SOL    HW2 1451   0.217   3.073   0.646  1.3693  0.7569 -1.5897
  363SOL     MW 1452   0.288   3.068   0.692  0.2316  0.7394 -0.4378
  364SOL     OW 1453   0.753   0.205   0.226  0.5968  0.2622  0.1804
  364SOL    HW1 1454   0.680   0.139   0.232  0.4467  2.9541  0.7263
  364SOL    HW2 1455   0.725   0.281   0.174  0.3492 -1.3614 -0.2453
  364SOL     MW 1456   0.740   0.207   0.220  0.5443  0.4031  0.1962
  365SOL     OW 1457   0.968   2.032   1.175  0.4501 -0.1316 -0.1046
  365SOL    HW1 1458   0.950   2.109   1.124  2.9773  2.3319  0.2358
  365SOL    HW2 1459   0.921   1.956   1.130 -0.4582 -0.6957  1.4331
  365SOL     MW 1460   0.960   2.032   1.163  0.6637  0.1190  0.1432
  366SOL     OW 1461   2.880   2.691   0.995  0.4461 -0.1771 -0.0526
  366SOL    HW1 1462   2.963   2.684   1.045 -0.8758  1.2543 -1.9224
  366SOL    HW2 1463   2.917   2.687   0.903 -1.3332 -1.8983 -2.0285
  366SOL     MW 1464   2.895   2.689   0.989  0.0369 -0.2154 -0.5600
  367SOL     OW 1465   1.233   2.972   0.903  0.2264 -0.3138  0.1735
  367SOL    HW1 1466   1.255   3.041   0.834  1.1670  1.0887  0.5635
  367SOL    HW2 1467   1.183   2.912   0.848  1.3231 -2.4953 -0.7082
  367SOL     MW 1468   1.229   2.973   0.887  0.4952 -0.4165  0.1087
  368SOL     OW 1469   1.654   0.367   0.740  0.1540 -0.4839  0.1955
  368SOL    HW1 1470   1.733   0.373   0.684 -2.1051 -0.5043 -0.8273
  368SOL    HW2 1471   1.629   0.450   0.782 -1.7068 -1.2250  0.8497
  368SOL     MW 1472   1.662   0.379   0.738 -0.3896 -0.5844  0.1469
  369SOL     OW 1473   0.149   2.444   1.791 -0.4775 -0.4646  0.1948
  369SOL    HW1 1474   0.248   2.451   1.791 -1.5757 -1.8809  0.9621
  369SOL    HW2 1475   0.112   2.530   1.785  0.9601 -1.8830 -3.0747
  369SOL     MW 1476   0.157   2.457   1.790 -0.4327 -0.8386 -0.1354
  370SOL     OW 1477   0.721   0.111   0.969  0.0558  0.7631 -0.1865
  370SOL    HW1 1478   0.771   0.188   0.980 -1.4565 -2.9367  0.4520
  370SOL    HW2 1479   0.786   0.046   0.995  3.2538  0.5497  0.0649
  370SOL     MW 1480   0.736   0.113   0.974  0.2782  0.2468 -0.0691
  371SOL     OW 1481   1.349   2.919   1.520  0.3208 -0.4609  0.0385
  371SOL    HW1 1482   1.278   2.859   1.493 -0.4518 -0.4791  2.6797
  371SOL    HW2 1483   1.372   2.985   1.452  0.1957 -1.7367  0.8174
  371SOL     MW 1484   1.343   2.920   1.507  0.2024 -0.6316  0.4898
  372SOL     OW 1485   0.767   2.282   0.470  0.4521 -0.3577  0.7838
  372SOL    HW1 1486   0.758   2.189   0.491  2.5976 -2.0025  1.1265
  372SOL    HW2 1487   0.758   2.297   0.376  0.0329  1.0975 -3.4001
  372SOL     MW 1488   0.765   2.272   0.460  0.6798 -0.3827  0.2770
  373SOL     OW 1489   2.817   3.021   1.452  0.2712 -0.0663 -0.1944
  373SOL    HW1 1490   2.905   3.019   1.419  0.9207  1.7128  0.8774
  373SOL    HW2 1491   2.776   3.094   1.410 -0.0587 -0.0903  3.9544
  373SOL     MW 1492   2.823   3.030   1.442  0.3133  0.1653  0.4944
  374SOL     OW 1493   1.525   0.484   0.231 -0.5186  0.9617  0.4413
  374SOL    HW1 1494   1.589   0.425   0.193 -2.3150  1.6143 -0.9992
  374SOL    HW2 1495   1.512   0.443   0.316  0.6084 -0.1924  2.0815
  374SOL     MW 1496   1.532   0.471   0.237 -0.6069  0.8955  0.4677
  375SOL     OW 1497   0.966   2.121   2.253 -0.2134 -0.2696 -0.3484
  375SOL    HW1 1498   1.022   2.088   2.324 -2.1528  0.4439  2.2996
  375SOL    HW2 1499   0.949   2.036   2.209 -4.1206 -1.1828 -2.7641
  375SOL     MW 1500   0.971   2.105   2.256 -0.9848 -0.2959 -0.3177
  376SOL     OW 1501   0.778   2.554   0.084  0.9766  0.0411 -0.1938
  376SOL    HW1 1502   0.750   2.492   0.146 -1.5554  3.6649  1.2342
  376SOL    HW2 1503   0.781   2.508  -0.001 -0.7810 -3.5427 -3.5876
  376SOL     MW 1504   0.774   2.540   0.081  0.4106  0.0464 -0.4532
  377SOL     OW 1505   1.256   2.011   0.858 -0.4721 -0.3624 -0.3117
  377SOL    HW1 1506   1.167   1.998   0.809 -0.0863  1.5344  1.5322
  377SOL    HW2 1507   1.247   1.983   0.949  0.9527 -0.5887 -1.3634
  377SOL     MW 1508   1.243   2.005   0.864 -0.2332 -0.1420 -0.2072
  378SOL     OW 1509   0.872   2.841   1.575 -0.0574  0.0781  0.4387
  378SOL    HW1 1510   0.853   2.750   1.544 -1.3410 -1.7186  1.1344
  378SOL    HW2 1511   0.893   2.889   1.496 -2.6043 -0.4077  0.3466
  378SOL     MW 1512   0.872   2.836   1.561 -0.5628 -0.2231  0.5183
  379SOL     OW 1513   1.161   1.730   2.266 -0.3337 -0.3521 -0.2140
  379SOL    HW1 1514   1.076   1.689   2.261  0.3738 -1.3862  1.1663
  379SOL    HW2 1515   1.227   1.686   2.209 -0.5877 -2.4637 -2.8515
  379SOL     MW 1516   1.159   1.719   2.258 -0.2739 -0.7671 -0.3799
  380SOL     OW 1517   0.828   0.117   1.561  0.1949 -0.0209 -0.7458
  380SOL    HW1 1518   0.833   0.044   1.497  2.1627 -0.9638 -5.1005
  380SOL    HW2 1519   0.912   0.118   1.605  0.7075  1.0535 -1.6583
  380SOL     MW 1520   0.839   0.107   1.558  0.5222 -0.0035 -1.4407
  381SOL     OW 1521   0.779   2.006   0.810 -0.6971 -0.0192  0.3250
  381SOL    HW1 1522   0.857   2.027   0.760 -0.6216  1.9090 -0.7614
  381SOL    HW2 1523   0.784   2.080   0.875  2.7944  2.2244  0.9956
  381SOL     MW 1524   0.790   2.018   0.812 -0.2265  0.5313  0.2701
  382SOL     OW 1525   0.720   0.087   0.680 -0.0520 -0.1019 -1.1206
  382SOL    HW1 1526   0.711   0.093   0.777 -1.5499  1.4483 -1.8722
  382SOL    HW2 1527   0.694  -0.002   0.676  0.9942  3.4344 -1.2098
  382SOL     MW 1528   0.716   0.076   0.692 -0.1116  0.5692 -1.2316
  383SOL     OW 1529   0.549   0.035   0.260 -0.2669  0.3328  0.1520
  383SOL    HW1 1530   0.565  -0.036   0.197 -0.5158  0.8393  0.9080
  383SOL    HW2 1531   0.522  -0.014   0.341  0.1462 -0.8125  2.6077
  383SOL     MW 1532   0.547   0.019   0.262 -0.2452  0.2485  0.5758
  384SOL     OW 1533   0.701   2.916   0.621  0.4174  0.2125 -0.3369
  384SOL    HW1 1534   0.779   2.894   0.676 -0.0001  0.9590  0.6620
  384SOL    HW2 1535   0.651   2.834   0.626 -0.1676 -0.5467  1.2603
  384SOL     MW 1536   0.705   2.903   0.629  0.2851  0.2108  0.0056
  385SOL     OW 1537   1.395   2.086   1.501  0.4298 -0.0414 -0.1539
  385SOL    HW1 1538   1.462   2.134   1.553  0.6179  3.4254 -3.2130
  385SOL    HW2 1539   1.363   2.022   1.561  0.9566 -1.9196 -3.3555
  385SOL     MW 1540   1.400   2.084   1.516  0.5241  0.1682 -0.9799
  386SOL     OW 1541   1.277   0.383   0.877 -0.5631 -0.0394 -0.3351
  386SOL    HW1 1542   1.218   0.411   0.954 -0.3940  0.0657  0.6813
  386SOL    HW2 1543   1.321   0.308   0.916 -2.4806 -1.3062  2.2771
  386SOL     MW 1544   1.275   0.377   0.893 -0.7938 -0.1927  0.1436
  387SOL     OW 1545   0.848   2.221   1.535 -0.2922  0.0775  0.3360
  387SOL    HW1 1546   0.918   2.282   1.491  0.6320 -0.5785 -0.5216
  387SOL    HW2 1547   0.860   2.141   1.482  0.5642  0.2616  1.0900
  387SOL     MW 1548   0.859   2.218   1.522 -0.0573  0.0152  0.3223
  388SOL     OW 1549   1.532   2.763   1.206 -0.2159  0.0372  0.8150
  388SOL    HW1 1550   1.437   2.773   1.220  2.1273  2.5638  0.1564
  388SOL    HW2 1551   1.540   2.685   1.155  1.4888  0.8510 -0.5703
  388SOL     MW 1552   1.521   2.754   1.201  0.3182  0.4779  0.5453
  389SOL     OW 1553   0.433   0.137   3.013  0.2886 -0.0105  0.1941
  389SOL    HW1 1554   0.513   0.089   3.024 -0.0388  0.9260  1.4935
  389SOL    HW2 1555   0.460   0.190   2.932 -0.0926 -0.6264  2.4114
  389SOL     MW 1556   0.447   0.138   3.004  0.1951  0.0318  0.6581
  390SOL     OW 1557   1.320   0.078   0.726  0.3223 -0.2985 -0.0059
  390SOL    HW1 1558   1.373   0.085   0.646 -1.0228  0.0393  2.0131
  390SOL    HW2 1559   1.374   0.106   0.803  1.7568 -1.5752 -2.8496
  390SOL     MW 1560   1.334   0.083   0.726  0.3341 -0.4224 -0.1147
  391SOL     OW 1561   0.339   2.235   1.419  0.5345 -0.1788  0.0380
  391SOL    HW1 1562   0.327   2.144   1.448 -1.5496  2.0733 -1.3556
  391SOL    HW2 1563   0.260   2.280   1.434  0.3507  0.3652 -0.6023
  391SOL     MW 1564   0.327   2.229   1.425  0.2353  0.1901 -0.2303
  392SOL     OW 1565   2.021   2.191   0.326  0.4619 -0.0794  0.5387
  392SOL    HW1 1566   2.116   2.191   0.328  1.4262 -0.9734  2.0799
  392SOL    HW2 1567   1.992   2.261   0.383 -2.4774 -2.5014 -1.5913
  392SOL     MW 1568   2.030   2.200   0.334  0.2013 -0.5169  0.4611
  393SOL     OW 1569   0.282   2.947   2.789  0.4853 -0.6376 -0.3153
  393SOL    HW1 1570   0.357   2.928   2.726 -0.4660  0.3401  2.5181
  393SOL    HW2 1571   0.282   3.041   2.800  2.9152 -1.7964  0.7475
  393SOL     MW 1572   0.292   2.957   2.782  0.6804 -0.6615  0.1988
  394SOL     OW 1573   0.889   1.749   1.542 -0.0154  0.3897  0.1488
  394SOL    HW1 1574   0.821   1.751   1.615 -1.5465 -0.3560  0.5454
  394SOL    HW2 1575   0.882   1.842   1.501 -0.5670 -1.4225 -1.8169
  394SOL     MW 1576   0.879   1.761   1.546 -0.2902  0.0522 -0.0582
  395SOL     OW 1577   0.944   2.897   2.663 -0.2751  0.3566 -0.2962
  395SOL    HW1 1578   0.994   2.972   2.696 -0.0862 -0.7633 -1.3651
  395SOL    HW2 1579   1.007   2.844   2.613 -1.0086  0.4261 -0.4980
  395SOL     MW 1580   0.959   2.900   2.661 -0.3470  0.2180 -0.4638
  396SOL     OW 1581   0.706   1.841   2.383 -0.1018 -0.2122 -0.2059
  396SOL    HW1 1582   0.780   1.862   2.445  1.5328 -0.6462  1.3413
  396SOL    HW2 1583   0.698   1.749   2.376 -3.4514  1.8835  0.3802
  396SOL     MW 1584   0.715   1.831   2.390 -0.3281  0.0070  0.0756
  397SOL     OW 1585   1.024   2.353   1.385  0.6458  0.5724  0.6098
  397SOL    HW1 1586   1.036   2.394   1.298 -0.3862 -0.9028 -2.1261
  397SOL    HW2 1587   1.111   2.332   1.417 -2.6042 -2.2049 -0.0367
  397SOL     MW 1588   1.037   2.356   1.378  0.0809  0.0113  0.1635
  398SOL     OW 1589   0.569   2.673   0.665  0.4701  0.4623 -0.5287
  398SOL    HW1 1590   0.492   2.629   0.618 -0.7715 -1.7020  1.4807
  398SOL    HW2 1591   0.636   2.604   0.682 -1.7889  2.2983 -0.0819
  398SOL     MW 1592   0.567   2.658   0.661  0.0082  0.4189 -0.2046
  399SOL     OW 1593   0.224   2.088   0.287  0.3696 -0.0089  0.1590
  399SOL    HW1 1594   0.150   2.150   0.291 -0.9173  0.5415 -0.0998
  399SOL    HW2 1595   0.244   2.075   0.197 -0.9364 -0.6293  3.0021
  399SOL     MW 1596   0.217   2.095   0.276  0.0275 -0.0182  0.5000
  400SOL     OW 1597   0.529   1.926   0.093  0.5383 -0.2156 -0.1296
  400SOL    HW1 1598   0.459   1.993   0.074 -1.9652 -0.0690 -1.6382
  400SOL    HW2 1599   0.501   1.870   0.167  2.0503  1.9145  1.8283
  400SOL     MW 1600   0.516   1.928   0.100  0.4075  0.0848 -0.0703
  401SOL     OW 1601   0.781   2.043   0.054  0.1413 -0.1490  0.1976
  401SOL    HW1 1602   0.832   1.973   0.099 -0.9706  1.1464 -0.1650
  401SOL    HW2 1603   0.690   2.012   0.075 -1.1182  1.3354 -0.6566
  401SOL     MW 1604   0.776   2.030   0.063 -0.1716  0.2178  0.0371
  402SOL     OW 1605   0.613   2.951   1.737 -0.1756 -0.1999  0.1393
  402SOL    HW1 1606   0.687   2.910   1.776  0.5949 -0.3755  1.2216
  402SOL    HW2 1607   0.636   3.044   1.731  1.5301  0.6522 -0.0607
  402SOL     MW 1608   0.626   2.958   1.741  0.1511 -0.1106  0.2557
  403SOL     OW 1609   0.090   0.409   0.400 -0.1522 -0.0116  0.1061
  403SOL    HW1 1610   0.172   0.436   0.446 -0.7392  2.2484 -1.5313
  403SOL    HW2 1611   0.110   0.404   0.308 -0.2188 -2.7317  0.2461
  403SOL     MW 1612   0.103   0.412   0.394 -0.2384 -0.0723 -0.0915
  404SOL     OW 1613   0.950   2.899   0.752 -0.4267 -0.2579 -0.1832
  404SOL    HW1 1614   1.019   2.853   0.705  0.8185 -0.8081 -0.9782
  404SOL    HW2 1615   0.971   2.995   0.751 -0.1486  0.6964  1.2167
  404SOL     MW 1616   0.962   2.906   0.745 -0.2257 -0.2046 -0.1034
  405SOL     OW 1617   0.556   2.427   1.544  0.3187 -0.3608  0.0537
  405SOL    HW1 1618   0.531   2.495   1.484  1.8620  0.0831 -0.7170
  405SOL    HW2 1619   0.492   2.362   1.516 -0.2300  2.3180  0.1131
  405SOL     MW 1620   0.544   2.427   1.533  0.4499  0.0512 -0.0402
  406SOL     OW 1621   0.354   2.409   1.060 -0.2566 -0.0129  0.2121
  406SOL    HW1 1622   0.267   2.428   1.100 -1.6326  1.8356 -0.6536
  406SOL    HW2 1623   0.384   2.326   1.104 -1.2751  1.0595  2.4815
  406SOL     MW 1624   0.346   2.401   1.071 -0.5725  0.3725  0.3973
  407SOL     OW 1625   0.020   2.699   1.145 -0.4123  0.8223 -0.2864
  407SOL    HW1 1626   0.097   2.679   1.207  1.4394 -1.7183  0.3638
  407SOL    HW2 1627   0.066   2.717   1.059  1.9701 -1.1688  0.3954
  407SOL     MW 1628   0.036   2.699   1.142  0.1464  0.2244 -0.1107
  408SOL     OW 1629   2.155   2.160   0.616 -0.1025 -0.2699 -0.4603
  408SOL    HW1 1630   2.087   2.157   0.685  1.4754 -1.9373 -1.0165
  408SOL    HW2 1631   2.133   2.089   0.557 -1.1486 -2.1521  0.1293
  408SOL     MW 1632   2.143   2.150   0.617 -0.0323 -0.7382 -0.4559
  409SOL     OW 1633   1.452   0.139   0.946  1.1738  0.0470  0.6263
  409SOL    HW1 1634   1.539   0.175   0.934 -1.8944  2.2683 -0.6615
  409SOL    HW2 1635   1.470   0.050   0.982  0.1975 -0.6565  0.5798
  409SOL     MW 1636   1.466   0.132   0.949  0.6402  0.2473  0.4503
  410SOL     OW 1637   1.089   2.438   1.134 -0.0290 -0.1892  0.5030
  410SOL    HW1 1638   1.040   2.492   1.069 -0.9208  3.9382  0.0716
  410SOL    HW2 1639   1.127   2.369   1.075 -2.1366  1.1507 -0.7025
  410SOL     MW 1640   1.087   2.436   1.117 -0.4248  0.5322  0.2870
  411SOL     OW 1641   1.954   0.068   2.864 -0.0594  0.0992  0.0189
  411SOL    HW1 1642   1.908   0.022   2.798 -2.0438  2.7114  1.1446
  411SOL    HW2 1643   1.885   0.073   2.930  1.8879 -0.3873 -0.6963
  411SOL     MW 1644   1.939   0.063   2.864 -0.0643  0.3797  0.0731
  412SOL     OW 1645   1.058   2.267   0.562 -0.0584 -0.2678 -0.0844
  412SOL    HW1 1646   1.113   2.335   0.612  0.6221  0.6236 -2.3684
  412SOL    HW2 1647   0.997   2.322   0.528 -0.1531 -1.0541 -2.2653
  412SOL     MW 1648   1.057   2.284   0.564  0.0189 -0.2540 -0.6735
  413SOL     OW 1649   0.549   2.717   3.067 -0.7409  0.0935  0.0184
  413SOL    HW1 1650   0.625   2.666   3.102  1.8307 -2.6360 -0.1102
  413SOL    HW2 1651   0.576   2.742   2.980  0.7259  0.2758 -3.5998
  413SOL     MW 1652   0.562   2.714   3.060 -0.2080 -0.2425 -0.4760
  414SOL     OW 1653   1.935   2.971   1.116  1.0497  0.0963  0.6066
  414SOL    HW1 1654   1.883   3.049   1.126  0.7166  1.8280  0.0866
  414SOL    HW2 1655   1.974   2.976   1.028  2.3638  0.2683 -0.4572
  414SOL     MW 1656   1.933   2.982   1.105  1.1791  0.3475  0.3976
  415SOL     OW 1657   1.846   2.716   1.065 -0.4452 -0.3894  0.0686
  415SOL    HW1 1658   1.778   2.706   1.131 -0.3505 -0.4055 -1.2983
  415SOL    HW2 1659   1.878   2.801   1.089 -0.6708  0.1218 -1.2104
  415SOL     MW 1660   1.841   2.726   1.077 -0.4625 -0.3241 -0.2805
  416SOL     OW 1661   0.574   1.971   1.342  0.3591 -0.0227 -0.1049
  416SOL    HW1 1662   0.552   2.051   1.301  2.0012 -0.1910 -0.9460
  416SOL    HW2 1663   0.558   1.898   1.278 -0.1426 -2.8346 -1.4840
  416SOL     MW 1664   0.569   1.972   1.328  0.5096 -0.4159 -0.3978
  417SOL     OW 1665   0.983   3.006   2.053  0.4836 -0.2741  0.0524
  417SOL    HW1 1666   0.922   3.023   2.129 -2.6632  0.0567  2.3958
  417SOL    HW2 1667   0.940   2.953   1.982 -2.0496 -0.6995  1.4927
  417SOL     MW 1668   0.969   3.001   2.054 -0.2658 -0.2866  0.5516
  418SOL     OW 1669   0.657   2.931   0.109 -0.2096 -0.0371  0.4811
  418SOL    HW1 1670   0.745   2.935   0.066 -0.7944 -2.2850 -2.5880
  418SOL    HW2 1671   0.613   2.852   0.066 -0.0120 -1.3197  0.4831
  418SOL     MW 1672   0.663   2.921   0.097 -0.2607 -0.5029  0.0765
  419SOL     OW 1673   0.495   2.622   1.339 -0.1666  0.3479 -0.6817
  419SOL    HW1 1674   0.532   2.681   1.404 -1.7257 -3.9413  1.9977
  419SOL    HW2 1675   0.535   2.641   1.254 -1.9577  0.8659 -0.6552
  419SOL     MW 1676   0.505   2.632   1.336 -0.6086 -0.1497 -0.3247
  420SOL     OW 1677   0.857   2.224   1.028 -0.3249 -0.6772  0.6393
  420SOL    HW1 1678   0.818   2.244   1.111 -0.6377  1.1936 -0.5103
  420SOL    HW2 1679   0.895   2.308   1.004 -1.2614 -3.3440 -0.0994
  420SOL     MW 1680   0.857   2.238   1.036 -0.4897 -0.7822  0.3902
  421SOL     OW 1681   2.964   0.209   3.055  0.6894  0.3003  0.1593
  421SOL    HW1 1682   2.876   0.191   3.037 -0.1803  1.5361 -0.4529
  421SOL    HW2 1683   3.005   0.126   3.064  2.8522  3.1074  0.2285
  421SOL     MW 1684   2.958   0.196   3.054  0.8600  0.8337  0.0876
  422SOL     OW 1685   0.893   2.527   0.938 -0.1865 -0.4557 -0.2235
  422SOL    HW1 1686   0.871   2.618   0.959 -1.4835  0.9913 -0.2944
  422SOL    HW2 1687   0.860   2.522   0.847  0.4709 -1.3206  0.3034
  422SOL     MW 1688   0.886   2.539   0.929 -0.2709 -0.3789 -0.1634
  423SOL     OW 1689   1.444   0.099   0.462 -0.2575  0.3339  0.2625
  423SOL    HW1 1690   1.457   0.077   0.372  2.8797  0.3440  0.2167
  423SOL    HW2 1691   1.449   0.190   0.475 -2.3178  1.7544 -1.3657
  423SOL     MW 1692   1.447   0.108   0.452 -0.1154  0.5226  0.0416
  424SOL     OW 1693   0.677   2.314   1.232 -0.3694  0.0280  0.6869
  424SOL    HW1 1694   0.600   2.260   1.197  0.0100  1.0306  0.2558
  424SOL    HW2 1695   0.690   2.307   1.328  2.1421 -2.0515 -0.3499
  424SOL     MW 1696   0.668   2.306   1.240  0.0120 -0.1141  0.4932
  425SOL     OW 1697   1.718   2.797   2.030  0.1520 -0.2258  0.1919
  425SOL    HW1 1698   1.732   2.786   1.930 -2.4499 -2.1023  0.0734
  425SOL    HW2 1699   1.733   2.706   2.052  1.2426  0.2662 -3.5914
  425SOL     MW 1700   1.722   2.784   2.020 -0.0474 -0.4085 -0.3229
  426SOL     OW 1701   0.825   1.674   1.960 -0.1284 -0.5686 -0.3899
  426SOL    HW1 1702   0.776   1.693   1.877  1.8767 -0.4010 -0.0767
  426SOL    HW2 1703   0.794   1.736   2.024  1.6468  0.9626 -2.3682
  426SOL     MW 1704   0.814   1.685   1.957  0.3704 -0.3444 -0.6096
  427SOL     OW 1705   0.399   1.672   1.881  0.0629  0.1644  0.0208
  427SOL    HW1 1706   0.432   1.606   1.817  0.2844 -1.2244 -3.1500
  427SOL    HW2 1707   0.332   1.625   1.927 -0.5687  0.5043 -0.6229
  427SOL     MW 1708   0.394   1.657   1.878  0.0088  0.0260 -0.4825
  428SOL     OW 1709   0.575   2.555   1.042 -0.6278 -0.2969 -0.6567
  428SOL    HW1 1710   0.621   2.483   0.994 -2.0155 -4.4484  0.3334
  428SOL    HW2 1711   0.491   2.504   1.063 -1.9343  0.1814 -1.6696
  428SOL     MW 1712   0.570   2.539   1.038 -0.9833 -0.7816 -0.6597
  429SOL     OW 1713   1.249   2.798   1.138 -0.0938  0.3218 -0.2736
  429SOL    HW1 1714   1.156   2.791   1.155  1.7245  2.6241 -0.2691
  429SOL    HW2 1715   1.258   2.862   1.068 -0.8551  0.7889  0.0196
  429SOL     MW 1716   1.238   2.806   1.131  0.0457  0.6872 -0.2343
  430SOL     OW 1717   1.159   2.716   0.716  0.0218 -0.1049 -0.2029
  430SOL    HW1 1718   1.162   2.628   0.746 -1.7247  0.1810  2.4125
  430SOL    HW2 1719   1.107   2.723   0.637  2.5617 -1.9115  1.1725
  430SOL     MW 1720   1.152   2.705   0.710  0.1265 -0.3055  0.3236
  431SOL     OW 1721   0.356   1.951   1.023 -0.4627  0.1283 -0.5144
  431SOL    HW1 1722   0.380   1.859   1.017 -0.5566  2.2437  0.7384
  431SOL    HW2 1723   0.290   1.963   0.953  0.2249  0.1494  0.6413
  431SOL     MW 1724   0.351   1.941   1.013 -0.3844  0.4101 -0.1966
  432SOL     OW 1725   0.089   0.041   1.201 -0.2137  0.5912 -0.3457
  432SOL    HW1 1726   0.089   0.105   1.274  0.3407 -2.2324 -0.3824
  432SOL    HW2 1727   0.026  -0.027   1.223  1.8742  0.1716 -5.3081
  432SOL     MW 1728   0.080   0.040   1.214  0.1349  0.1633 -1.0053
  433SOL     OW 1729   0.604   2.805   1.511  0.3082  0.4174 -0.2829
  433SOL    HW1 1730   0.576   2.877   1.575  0.0342 -0.2638  1.1426
  433SOL    HW2 1731   0.698   2.805   1.533  1.8947 -2.1648  3.5808
  433SOL     MW 1732   0.613   2.814   1.522  0.4814 -0.0132  0.4150
  434SOL     OW 1733   1.603   2.808   1.528 -0.4129 -0.2323  0.1903
  434SOL    HW1 1734   1.515   2.812   1.488 -0.2329 -0.5826 -2.0548
  434SOL    HW2 1735   1.658   2.752   1.468  1.3634 -0.2984  2.9078
  434SOL     MW 1736   1.599   2.801   1.515 -0.1548 -0.2872  0.2526
  435SOL     OW 1737   2.837   1.791   0.180 -0.6144  0.0182 -0.2717
  435SOL    HW1 1738   2.915   1.843   0.160 -0.8860  0.2838 -1.4645
  435SOL    HW2 1739   2.812   1.764   0.084 -0.5065  1.5080  0.4352
  435SOL     MW 1740   2.844   1.794   0.165 -0.6360  0.2498 -0.3358
  436SOL     OW 1741   1.397   2.667   0.449  0.5333  0.0404 -0.3341
  436SOL    HW1 1742   1.457   2.677   0.520 -0.9863 -1.7414  1.4294
  436SOL    HW2 1743   1.358   2.751   0.455 -0.7911  2.2770 -1.6729
  436SOL     MW 1744   1.400   2.679   0.459  0.1581  0.1004 -0.2780
  437SOL     OW 1745   0.877   2.993   1.352  0.3062  0.2793 -0.1005
  437SOL    HW1 1746   0.948   3.059   1.340 -0.4882  1.0543  1.1522
  437SOL    HW2 1747   0.898   2.905   1.315 -0.3300 -0.7208 -2.3437
  437SOL     MW 1748   0.889   2.990   1.345  0.1174  0.2496 -0.2312
  438SOL     OW 1749   0.809   2.601   1.859 -0.2743 -0.2007 -0.4896
  438SOL    HW1 1750   0.811   2.600   1.954  0.8301 -1.0215  0.5662
  438SOL    HW2 1751   0.789   2.508   1.846  3.0612  1.8062  1.2699
  438SOL     MW 1752   0.807   2.588   1.870  0.3115 -0.0442 -0.1182
  439SOL     OW 1753   1.239   2.145   0.404 -0.2951 -0.2734 -0.1546
  439SOL    HW1 1754   1.186   2.194   0.467 -0.7373 -3.2440  0.0253
  439SOL    HW2 1755   1.202   2.174   0.319  0.4658 -0.0361 -0.6238
  439SOL     MW 1756   1.227   2.156   0.401 -0.2530 -0.6340 -0.1928
  440SOL     OW 1757   1.756   3.019   3.062  0.0552 -0.2294  0.0276
  440SOL    HW1 1758   1.705   2.957   3.118 -2.0946 -1.4387  0.1298
  440SOL    HW2 1759   1.841   2.980   3.061 -0.8221  1.6318 -2.1757
  440SOL     MW 1760   1.760   3.006   3.070 -0.3442 -0.1434 -0.2497
  441SOL     OW 1761   0.336   2.653   0.465  0.3772  0.4059  0.4611
  441SOL    HW1 1762   0.342   2.610   0.373  1.5076 -3.7435 -1.0889
  441SOL    HW2 1763   0.379   2.740   0.469  0.4169 -1.3268  1.5351
  441SOL     MW 1764   0.342   2.659   0.454  0.5316 -0.3702  0.3983
  442SOL     OW 1765   0.003   2.396   0.632 -0.4410 -0.5535  0.4465
  442SOL    HW1 1766   0.036   2.478   0.596 -0.1310  3.0416 -1.4421
  442SOL    HW2 1767  -0.083   2.411   0.669  0.0834 -1.3076 -0.6421
  442SOL     MW 1768  -0.004   2.409   0.632 -0.3309 -0.1787  0.0537
  443SOL     OW 1769   1.435   1.783   1.938  0.0687 -0.1298  0.1960
  443SOL    HW1 1770   1.405   1.807   1.848 -0.3330 -4.0504 -1.2406
  443SOL    HW2 1771   1.385   1.711   1.973  3.2252 -0.1625 -0.1305
  443SOL     MW 1772   1.424   1.776   1.931  0.4322 -0.6514 -0.0366
  444SOL     OW 1773   0.849   2.574   1.558  0.1669  0.2081  0.9689
  444SOL    HW1 1774   0.915   2.545   1.625 -1.5414  0.0288  0.1834
  444SOL    HW2 1775   0.768   2.554   1.602  0.2822 -1.9350  0.5753
  444SOL     MW 1776   0.847   2.567   1.573 -0.0433 -0.0983  0.8134
  445SOL     OW 1777   1.083   0.076   1.326  0.7203  0.3132 -0.3558
  445SOL    HW1 1778   1.037   0.159   1.328  1.1022  1.4423  1.1203
  445SOL    HW2 1779   1.114   0.076   1.233 -0.2720 -3.1903 -1.2663
  445SOL     MW 1780   1.081   0.087   1.314  0.6398 -0.0001 -0.2812
  446SOL     OW 1781   2.748   2.903   1.106  0.2673 -0.4201 -0.3613
  446SOL    HW1 1782   2.688   2.945   1.043  0.0670 -1.5031  0.9903
  446SOL    HW2 1783   2.795   2.833   1.059  2.4919 -1.1884 -1.7093
  446SOL     MW 1784   2.746   2.899   1.091  0.5344 -0.6644 -0.3609
  447SOL     OW 1785   0.061   2.000   1.639  0.3180 -0.2776  0.1687
  447SOL    HW1 1786   0.092   1.917   1.677  0.4596  0.0601 -0.3292
  447SOL    HW2 1787  -0.005   1.959   1.578 -2.2964 -1.5797  1.2417
  447SOL     MW 1788   0.056   1.983   1.636 -0.0083 -0.4048  0.2445
  448SOL     OW 1789   1.733   2.421   1.639 -0.8938 -0.0973  0.3672
  448SOL    HW1 1790   1.690   2.332   1.638  0.7617 -0.5211 -0.4018
  448SOL    HW2 1791   1.655   2.479   1.634  0.6645 -1.6896 -0.7564
  448SOL     MW 1792   1.717   2.417   1.638 -0.4698 -0.3633  0.1175
  449SOL     OW 1793   0.829   2.891   0.349 -0.0323  0.1943  0.0964
  449SOL    HW1 1794   0.765   2.919   0.288 -0.3242  0.0536  0.6545
  449SOL    HW2 1795   0.781   2.923   0.430  0.4635 -2.1770  1.5430
  449SOL     MW 1796   0.815   2.899   0.351 -0.0054 -0.1371  0.3609
  450SOL     OW 1797   1.189   2.447   0.711 -0.2445 -0.1629 -0.3307
  450SOL    HW1 1798   1.185   2.390   0.792  0.1232  0.4538  4.0892
  450SOL    HW2 1799   1.280   2.448   0.695  0.1046 -1.4725  1.7421
  450SOL     MW 1800   1.200   2.439   0.719 -0.1500 -0.2543  0.5260
  451SOL     OW 1801   0.545   2.056   1.626  0.0048 -0.6387  0.4573
  451SOL    HW1 1802   0.630   2.100   1.605 -0.7319  2.4074 -0.5923
  451SOL    HW2 1803   0.525   2.021   1.536  0.4049  0.6240 -0.8084
  451SOL     MW 1804   0.553   2.057   1.611 -0.0396 -0.0702  0.1518
  452SOL     OW 1805   0.285   2.684   0.036 -0.0801 -0.4631  0.4055
  452SOL    HW1 1806   0.369   2.682  -0.008 -0.3149  4.2446  0.6340
  452SOL    HW2 1807   0.223   2.744  -0.007  1.8944 -1.4181  1.8879
  452SOL     MW 1808   0.288   2.691   0.024  0.1494  0.0320  0.6312
  453SOL     OW 1809   0.339   2.985   1.627 -0.0791 -0.1417 -0.7157
  453SOL    HW1 1810   0.392   2.934   1.693 -0.0118 -2.4983  0.5791
  453SOL    HW2 1811   0.398   3.012   1.553 -1.8547  0.3796 -0.0876
  453SOL     MW 1812   0.354   2.982   1.626 -0.3045 -0.3838 -0.4620
  454SOL     OW 1813   0.973   2.763   1.221 -0.4346 -0.7689  0.5770
  454SOL    HW1 1814   0.918   2.678   1.216 -1.9491  1.1585 -3.6245
  454SOL    HW2 1815   0.952   2.801   1.136  2.0023 -0.8998 -0.9417
  454SOL     MW 1816   0.963   2.757   1.209 -0.3129 -0.5319 -0.1777
  455SOL     OW 1817   1.607   2.901   0.161  0.0042 -1.2671  0.0894
  455SOL    HW1 1818   1.673   2.882   0.232  1.0327 -0.5315  0.9080
  455SOL    HW2 1819   1.565   2.813   0.159 -0.9651 -0.4430  1.3582
  455SOL     MW 1820   1.610   2.887   0.170  0.0120 -1.0613  0.3648
  456SOL     OW 1821   2.737   0.357   1.487 -0.1252  0.5011  0.6799
  456SOL    HW1 1822   2.718   0.278   1.438  1.5387 -3.1486 -1.2777
  456SOL    HW2 1823   2.830   0.380   1.453 -2.2005  3.2996 -0.3890
  456SOL     MW 1824   2.747   0.350   1.476 -0.1795  0.3888  0.2806
  457SOL     OW 1825   0.944   1.552   2.973 -0.9925  0.5141  0.9329
  457SOL    HW1 1826   0.859   1.554   3.026 -3.4325 -1.6996  2.4770
  457SOL    HW2 1827   0.970   1.460   2.984  0.7977  2.0368 -0.4332
  457SOL     MW 1828   0.936   1.540   2.982 -1.0783  0.4229  0.9564
  458SOL     OW 1829   1.393   1.474   0.570 -0.6969  0.0385  0.0344
  458SOL    HW1 1830   1.320   1.538   0.575 -0.3072  1.7667 -0.3017
  458SOL    HW2 1831   1.375   1.411   0.498 -2.2639  0.4208 -1.1976
  458SOL     MW 1832   1.381   1.474   0.561 -0.8522  0.3170 -0.1725
  459SOL     OW 1833   1.487   0.035   0.196 -0.3304 -0.4032 -0.2043
  459SOL    HW1 1834   1.511  -0.061   0.192 -0.3062 -1.5596  3.2021
  459SOL    HW2 1835   1.411   0.044   0.140 -2.2662  0.2722  2.0839
  459SOL     MW 1836   1.480   0.024   0.188 -0.5826 -0.4667  0.5470
  460SOL     OW 1837   1.764   2.143   0.603  0.0564 -0.8398  0.0053
  460SOL    HW1 1838   1.693   2.116   0.665  0.0166  0.3154  0.7950
  460SOL    HW2 1839   1.798   2.055   0.581 -2.5208 -2.3822  2.3511
  460SOL     MW 1840   1.759   2.128   0.608 -0.2889 -0.8909  0.4190
  461SOL     OW 1841   0.375   2.376   0.570  0.2688  0.2697 -0.1091
  461SOL    HW1 1842   0.349   2.457   0.530  3.3654 -2.0156 -2.1721
  461SOL    HW2 1843   0.367   2.395   0.663 -3.1139  1.0324  1.7513
  461SOL     MW 1844   0.370   2.389   0.577  0.2311  0.0688 -0.1358
  462SOL     OW 1845   0.364   0.270   1.286 -1.1655 -0.1693  0.2647
  462SOL    HW1 1846   0.360   0.201   1.214 -2.4585 -1.8000  0.9246
  462SOL    HW2 1847   0.457   0.298   1.284 -0.4448 -1.6731 -2.1864
  462SOL     MW 1848   0.376   0.264   1.276 -1.2410 -0.5829  0.0284
  463SOL     OW 1849   1.000   0.081   0.678 -0.1596 -0.1642  0.4272
  463SOL    HW1 1850   1.038   0.080   0.589 -0.0086  1.1800  1.7296
  463SOL    HW2 1851   0.904   0.080   0.675  2.0138  2.5164  2.0678
  463SOL     MW 1852   0.992   0.081   0.666  0.1471  0.3669  0.8155
  464SOL     OW 1853   0.806   3.066   2.287 -0.5673  0.3479 -0.1522
  464SOL    HW1 1854   0.800   2.974   2.260  0.8370  1.4694  0.6759
  464SOL    HW2 1855   0.780   3.069   2.382  0.4112  0.7731 -2.9574
  464SOL     MW 1856   0.802   3.054   2.296 -0.2529  0.5520 -0.4131
  465SOL     OW 1857   0.752   0.296   0.498  0.9022  0.0220  0.1469
  465SOL    HW1 1858   0.738   0.218   0.557 -1.2002 -1.1040 -1.7617
  465SOL    HW2 1859   0.732   0.252   0.415  1.7963  2.1107  0.8321
  465SOL     MW 1860   0.747   0.280   0.495  0.7428  0.1490 -0.0145
  466SOL     OW 1861   1.033   2.004   0.705 -0.2235  0.4121  0.0879
  466SOL    HW1 1862   1.045   1.921   0.658 -2.0771  0.5489 -0.4176
  466SOL    HW2 1863   1.052   2.080   0.646  0.1317  0.3974 -0.8660
  466SOL     MW 1864   1.037   2.003   0.691 -0.4212  0.4282 -0.1046
  467SOL     OW 1865   1.219   2.263   0.932 -0.0906  0.2430  0.0637
  467SOL    HW1 1866   1.311   2.289   0.937  0.5260  0.7325 -0.0297
  467SOL    HW2 1867   1.226   2.171   0.901 -0.2227 -1.6597  1.7078
  467SOL     MW 1868   1.232   2.254   0.929 -0.0267  0.0566  0.2683
  468SOL     OW 1869   0.380   2.626   2.021  0.1837  0.3712 -0.7557
  468SOL    HW1 1870   0.396   2.589   1.933  1.9737  0.7564  1.8527
  468SOL    HW2 1871   0.296   2.680   2.012 -0.2067 -1.8772  2.5423
  468SOL     MW 1872   0.371   2.628   2.008  0.3684  0.1254  0.0236
  469SOL     OW 1873   0.368   2.170   1.818  0.2474 -0.4774  0.3229
  469SOL    HW1 1874   0.312   2.099   1.851 -0.0113 -0.5660  1.8826
  469SOL    HW2 1875   0.422   2.128   1.743  0.0595 -0.2757  0.1166
  469SOL     MW 1876   0.368   2.155   1.812  0.1885 -0.4625  0.5015
  470SOL     OW 1877   3.028   2.619   0.109  0.0350  0.7242  0.2674
  470SOL    HW1 1878   2.952   2.613   0.161  2.4845  0.9161  3.6918
  470SOL    HW2 1879   3.003   2.625   0.011 -1.6898  1.4450  0.2823
  470SOL     MW 1880   3.015   2.619   0.103  0.1306  0.8446  0.7212
  471SOL     OW 1881   1.188   2.685   1.452 -0.0345 -0.7030 -0.1745
  471SOL    HW1 1882   1.154   2.653   1.534  1.7901  2.4662 -1.5722
  471SOL    HW2 1883   1.123   2.740   1.413 -0.4058 -1.0282  0.1820
  471SOL     MW 1884   1.175   2.688   1.458  0.1572 -0.3278 -0.3119
  472SOL     OW 1885   2.853   2.094   0.328 -0.1884  0.3702 -0.4287
  472SOL    HW1 1886   2.927   2.046   0.281  1.7165 -1.7373  0.4606
  472SOL    HW2 1887   2.805   2.028   0.379 -1.4200  2.9588  0.7038
  472SOL     MW 1888   2.856   2.079   0.329 -0.0996  0.4337 -0.1619
  473SOL     OW 1889   0.843   2.527   1.264  0.2214  0.4174 -0.1053
  473SOL    HW1 1890   0.774   2.457   1.257  0.3735 -0.9973 -1.7175
  473SOL    HW2 1891   0.850   2.545   1.356  0.3665  0.3638 -0.7698
  473SOL     MW 1892   0.835   2.520   1.275  0.2606  0.2236 -0.4057
  474SOL     OW 1893   0.868   2.105   1.799  0.0958 -0.7524  0.1217
  474SOL    HW1 1894   0.950   2.139   1.831  0.3564  0.3041 -3.4763
  474SOL    HW2 1895   0.877   2.117   1.704  0.9881 -0.4207  1.2313
  474SOL     MW 1896   0.880   2.111   1.791  0.2479 -0.5693 -0.2066
  475SOL     OW 1897   1.636   3.057   1.467 -0.1258 -0.1787 -0.8052
  475SOL    HW1 1898   1.542   3.086   1.441 -0.4064  0.3082 -0.8053
  475SOL    HW2 1899   1.624   2.965   1.497 -1.0905 -0.3259  2.5154
  475SOL     MW 1900   1.622   3.049   1.467 -0.2901 -0.1338 -0.3671
  476SOL     OW 1901   1.433   2.601   1.001  0.2990 -0.3748  0.3799
  476SOL    HW1 1902   1.353   2.646   1.034 -0.7626  1.3617  1.5156
  476SOL    HW2 1903   1.461   2.663   0.936 -1.6175 -0.1279  3.1676
  476SOL     MW 1904   1.426   2.615   0.997 -0.0939 -0.1131  0.8976
  477SOL     OW 1905   0.788   2.514   0.681  0.6606  0.0371  0.1548
  477SOL    HW1 1906   0.836   2.549   0.605  2.0272  2.3486 -0.0906
  477SOL    HW2 1907   0.754   2.430   0.649  0.4112 -1.7062  2.0995
  477SOL     MW 1908   0.790   2.507   0.667  0.8080  0.1121  0.3790
  478SOL     OW 1909   0.178   2.718   0.926  0.1686 -0.4179  0.0667
  478SOL    HW1 1910   0.228   2.800   0.908  5.0272  1.3547 -1.8240
  478SOL    HW2 1911   0.224   2.648   0.887 -1.6281  2.4488 -0.7288
  478SOL     MW 1912   0.191   2.720   0.918  0.5726  0.1942 -0.2877
  479SOL     OW 1913   1.454   1.991   1.253  0.4031  0.2178 -0.3400
  479SOL    HW1 1914   1.440   2.029   1.344 -2.1536  1.7139  0.6856
  479SOL    HW2 1915   1.487   1.904   1.267  1.2504 -1.2535 -1.0631
  479SOL     MW 1916   1.457   1.985   1.267  0.1776  0.2211 -0.3001
  480SOL     OW 1917   1.874   2.415   1.269 -0.2452  0.3993 -0.4242
  480SOL    HW1 1918   1.866   2.320   1.276 -0.2848 -0.5371 -0.0110
  480SOL    HW2 1919   1.913   2.436   1.186  0.7287 -0.8278 -1.8443
  480SOL     MW 1920   1.878   2.405   1.259 -0.1219  0.1139 -0.5571
  481SOL     OW 1921   1.006   0.027   0.961  0.2228 -0.5444 -0.3195
  481SOL    HW1 1922   1.082  -0.025   0.940 -0.5432 -0.4586 -1.6504
  481SOL    HW2 1923   1.034   0.118   0.979  1.2693  0.9239 -0.8717
  481SOL     MW 1924   1.019   0.032   0.960  0.2598 -0.3393 -0.5679
  482SOL     OW 1925   1.058   3.036   0.265  0.3549  0.6747  0.0704
  482SOL    HW1 1926   0.985   2.979   0.284  2.2204 -1.2436 -0.5437
  482SOL    HW2 1927   1.032   3.126   0.277  2.4910  0.3551  1.6653
  482SOL     MW 1928   1.045   3.041   0.269  0.8829  0.3794  0.1998
  483SOL     OW 1929   0.424   2.910   0.456  0.2099  0.3170 -0.3290
  483SOL    HW1 1930   0.351   2.920   0.393  0.5682  1.4559  0.7389
  483SOL    HW2 1931   0.397   2.969   0.526 -0.9968  1.8806 -2.7173
  483SOL     MW 1932   0.411   2.919   0.457  0.0979  0.6735 -0.5032
  484SOL     OW 1933   1.728   1.882   1.402  1.0110  0.3062  0.6213
  484SOL    HW1 1934   1.730   1.977   1.398  0.4082 -0.2586 -1.6780
  484SOL    HW2 1935   1.720   1.861   1.495 -0.7409 -0.3059  1.0140
  484SOL     MW 1936   1.727   1.891   1.414  0.7003  0.1509  0.3697
  485SOL     OW 1937   0.526   2.339   0.230 -1.1704 -0.6398 -0.0095
  485SOL    HW1 1938   0.519   2.292   0.309  1.5781 -3.5465  0.7397
  485SOL    HW2 1939   0.463   2.412   0.232 -1.1194 -2.8927 -1.8366
  485SOL     MW 1940   0.517   2.342   0.241 -0.8010 -1.3205 -0.1517
  486SOL     OW 1941   0.151   2.384   1.539 -0.4654  0.0257  0.1199
  486SOL    HW1 1942   0.172   2.468   1.493  1.0726 -2.5249 -0.2029
  486SOL    HW2 1943   0.150   2.409   1.636 -1.0595 -2.3292  1.1900
  486SOL     MW 1944   0.154   2.398   1.546 -0.3408 -0.6215  0.2185
  487SOL     OW 1945   1.287   1.659   1.026 -0.9459  0.0972 -0.0863
  487SOL    HW1 1946   1.279   1.751   1.051  3.0257  2.1371  0.1170
  487SOL    HW2 1947   1.376   1.654   0.981  2.5823  0.5620 -2.0362
  487SOL     MW 1948   1.297   1.671   1.023  0.0436  0.4277 -0.3167
  488SOL     OW 1949   1.681   1.851   0.540 -0.1173  0.3011 -0.4327
  488SOL    HW1 1950   1.755   1.833   0.481  2.0953 -0.2677 -2.7891
  488SOL    HW2 1951   1.626   1.908   0.487  1.6048 -0.3361  0.8764
  488SOL     MW 1952   1.684   1.856   0.525  0.4019  0.1420 -0.5709
  489SOL     OW 1953   0.664   0.782   0.601  0.4697 -0.0037 -0.0112
  489SOL    HW1 1954   0.721   0.706   0.583  3.6733  0.4014 -1.1785
  489SOL    HW2 1955   0.675   0.794   0.696  0.5951 -4.4881 -0.8366
  489SOL     MW 1956   0.673   0.774   0.611  0.9089 -0.5419 -0.2741
  490SOL     OW 1957   1.505   2.046   0.437  0.2017 -0.0221  0.6385
  490SOL    HW1 1958   1.523   2.137   0.418 -1.0824  0.4798  0.0854
  490SOL    HW2 1959   1.407   2.051   0.423  1.7556  0.6532  2.3106
  490SOL     MW 1960   1.494   2.059   0.433  0.2373  0.1333  0.7861
  491SOL     OW 1961   1.256   2.933   0.436  0.8860 -0.4602 -0.7482
  491SOL    HW1 1962   1.285   3.006   0.490 -0.3057 -1.2552 -0.4319
  491SOL    HW2 1963   1.204   2.977   0.369  1.0835  3.4011  0.5249
  491SOL     MW 1964   1.253   2.948   0.434  0.7548 -0.0556 -0.5385
  492SOL     OW 1965   1.518   2.092   0.737  0.1993 -0.0101 -0.3451
  492SOL    HW1 1966   1.497   2.103   0.644  0.2879 -1.8248 -2.2167
  492SOL    HW2 1967   1.441   2.044   0.780  0.3157 -1.3429  0.4664
  492SOL     MW 1968   1.505   2.087   0.730  0.2263 -0.4254 -0.4849
  493SOL     OW 1969   0.209   2.988   0.296 -0.0932  0.1749 -0.5472
  493SOL    HW1 1970   0.182   3.055   0.358 -1.0367  0.9976 -2.8491
  493SOL    HW2 1971   0.224   3.029   0.208 -0.2693  0.2752 -0.1946
  493SOL     MW 1972   0.207   3.002   0.292 -0.2409  0.2967 -0.8044
  494SOL     OW 1973   0.420   2.452   1.795 -0.2453 -0.1724  0.3830
  494SOL    HW1 1974   0.439   2.358   1.798  1.1088  0.2852 -1.6403
  494SOL    HW2 1975   0.479   2.476   1.722  0.6097  2.8779 -3.1873
  494SOL     MW 1976   0.430   2.442   1.786  0.0462  0.2904 -0.3550
  495SOL     OW 1977   2.926   1.682   2.603  0.7671  0.0538  0.5113
  495SOL    HW1 1978   2.924   1.779   2.593 -0.3197 -1.3649 -0.7106
  495SOL    HW2 1979   2.898   1.664   2.697 -1.3303 -0.9496 -3.6005
  495SOL     MW 1980   2.922   1.692   2.614  0.3470 -0.2658 -0.1924
  496SOL     OW 1981   2.917   2.287   2.668 -0.0658 -0.1449 -0.0501
  496SOL    HW1 1982   2.959   2.220   2.727  0.4860 -0.9417  0.0687
  496SOL    HW2 1983   2.967   2.356   2.706 -1.8021 -0.0786 -1.7308
  496SOL     MW 1984   2.929   2.287   2.681 -0.2221 -0.2413 -0.2562
  497SOL     OW 1985   1.544   2.270   2.636 -0.5549  0.4366 -0.0016
  497SOL    HW1 1986   1.535   2.208   2.563  0.3084 -1.7904  0.8474
  497SOL    HW2 1987   1.539   2.213   2.716 -1.6015 -1.1225 -0.5868
  497SOL     MW 1988   1.542   2.254   2.637 -0.5791 -0.0629  0.0332
  498SOL     OW 1989   1.550   2.742   2.386 -0.3222  0.0753 -0.2342
  498SOL    HW1 1990   1.538   2.654   2.357  1.1543  1.4976  0.0724
  498SOL    HW2 1991   1.631   2.730   2.439  0.8284  2.5752  3.2884
  498SOL     MW 1992   1.559   2.729   2.389  0.0244  0.5928  0.2710
  499SOL     OW 1993   0.936   0.093   0.031 -0.1521  0.3025  0.8623
  499SOL    HW1 1994   0.852   0.122   0.075 -0.8821 -3.9280  1.9131
  499SOL    HW2 1995   0.972   0.020   0.072  0.9122  2.0198 -0.5212
  499SOL     MW 1996   0.930   0.087   0.042 -0.1080 -0.0291  0.8184
  500SOL     OW 1997   1.141   2.557   2.797 -0.4410  0.2280  0.3020
  500SOL    HW1 1998   1.157   2.481   2.858 -1.0878  0.4804  2.6373
  500SOL    HW2 1999   1.052   2.599   2.809 -0.6021  1.9796 -0.2439
  500SOL     MW 2000   1.131   2.552   2.807 -0.5476  0.4924  0.5381
  501SOL     OW 2001   1.760   2.233   3.092  0.0281  0.6373  1.2572
  501SOL    HW1 2002   1.753   2.298   3.167 -2.2785  0.2655 -1.8371
  501SOL    HW2 2003   1.856   2.217   3.103  1.7972 -0.7831  0.7557
  501SOL     MW 2004   1.772   2.239   3.103 -0.0428  0.4009  0.7828
  502SOL     OW 2005   0.089   2.810   2.959  0.4574  0.6229 -0.1526
  502SOL    HW1 2006   0.052   2.743   2.903 -0.5964 -0.9670 -3.0596
  502SOL    HW2 2007   0.163   2.846   2.911 -1.9121 -1.6599 -0.1623
  502SOL     MW 2008   0.094   2.806   2.945  0.0057  0.1119 -0.5374
  503SOL     OW 2009   1.120   2.697   2.104  0.1683  0.5677  0.7083
  503SOL    HW1 2010   1.156   2.672   2.016  0.2590 -1.7062 -0.4923
  503SOL    HW2 2011   1.088   2.787   2.097  0.9069 -1.0003 -3.2072
  503SOL     MW 2012   1.121   2.705   2.092  0.2777  0.0608  0.0333
  504SOL     OW 2013   3.099   2.705   2.098  0.2547  0.0349  0.5974
  504SOL    HW1 2014   3.129   2.614   2.099 -1.7303 -0.1104  1.4763
  504SOL    HW2 2015   3.008   2.686   2.098 -1.0227  2.0178 -1.1062
  504SOL     MW 2016   3.091   2.690   2.098 -0.1758  0.2774  0.4886
  505SOL     OW 2017   1.726   2.631   2.830  0.1772  0.6358 -0.6727
  505SOL    HW1 2018   1.752   2.612   2.738  0.5631 -0.3879 -1.9819
  505SOL    HW2 2019   1.663   2.707   2.817 -0.5102  1.8499 -0.1874
  505SOL     MW 2020   1.721   2.638   2.816  0.1374  0.6609 -0.7814
  506SOL     OW 2021   1.578   3.082   2.862  0.0550 -0.0069 -0.3809
  506SOL    HW1 2022   1.622   3.055   2.946 -2.3070 -0.6223  0.1241
  506SOL    HW2 2023   1.648   3.076   2.792  0.2031 -1.1967 -0.0291
  506SOL     MW 2024   1.593   3.077   2.864 -0.2371 -0.2451 -0.2678
  507SOL     OW 2025   0.896   2.682   2.827  0.1478  0.9685 -0.3255
  507SOL    HW1 2026   0.891   2.778   2.805  4.0717  4.3718 -0.7787
  507SOL    HW2 2027   0.809   2.640   2.798 -0.6398 -0.3806 -0.2114
  507SOL     MW 2028   0.884   2.689   2.820  0.5616  1.2395 -0.3703
  508SOL     OW 2029   1.127   2.092   2.475  0.0156  0.0823 -0.0500
  508SOL    HW1 2030   1.185   2.067   2.544  1.6645  0.1350  0.8655
  508SOL    HW2 2031   1.098   2.182   2.519 -0.1008 -0.9030  0.8941
  508SOL     MW 2032   1.131   2.100   2.490  0.2178 -0.0408  0.1953
  509SOL     OW 2033   0.649   2.605   2.724  0.4132 -0.0555 -0.5687
  509SOL    HW1 2034   0.651   2.567   2.637 -0.5383 -0.8713  0.4491
  509SOL    HW2 2035   0.557   2.622   2.748  3.0816  0.8604 -0.0238
  509SOL     MW 2036   0.637   2.602   2.716  0.6398 -0.0423 -0.3625
  510SOL     OW 2037   1.494   2.590   1.662  0.0589 -0.7762  0.7037
  510SOL    HW1 2038   1.524   2.678   1.647  1.9853  1.5750 -1.9005
  510SOL    HW2 2039   1.451   2.584   1.746  1.3565 -1.8565 -0.3077
  510SOL     MW 2040   1.492   2.601   1.671  0.4842 -0.6085  0.2267
  511SOL     OW 2041   0.436   2.630   2.455  0.0675  0.1968  0.2953
  511SOL    HW1 2042   0.515   2.562   2.464 -2.3229  1.6738 -0.5724
  511SOL    HW2 2043   0.452   2.669   2.363  1.9809  0.2683 -0.0521
  511SOL     MW 2044   0.448   2.626   2.444  0.0046  0.4011  0.1350
  512SOL     OW 2045   0.994   2.004   2.800  0.5617 -0.1681  0.5014
  512SOL    HW1 2046   0.921   2.054   2.836  0.2103  1.0999 -1.6364
  512SOL    HW2 2047   1.002   1.919   2.842  0.6168  1.2735  3.2771
  512SOL     MW 2048   0.986   2.000   2.811  0.5226  0.1894  0.5856
  513SOL     OW 2049   1.582   2.476   2.294  0.1034  0.0783 -0.1239
  513SOL    HW1 2050   1.669   2.458   2.251  2.4106  1.4338 -0.2584
  513SOL    HW2 2051   1.584   2.432   2.381  1.8633 -0.3768  1.0239
  513SOL     MW 2052   1.594   2.468   2.299  0.6400  0.1971  0.0098
  514SOL     OW 2053   0.287   2.480   2.636  0.3060 -0.1800  0.0353
  514SOL    HW1 2054   0.320   2.549   2.574 -1.5268 -1.6198  0.1529
  514SOL    HW2 2055   0.332   2.482   2.728  2.3246  0.3832  1.2094
  514SOL     MW 2056   0.297   2.489   2.640  0.3305 -0.2957  0.2057
  515SOL     OW 2057   1.159   2.016   2.016  0.3485 -0.2545 -0.1085
  515SOL    HW1 2058   1.153   2.092   1.953  1.3966  0.1694 -2.1005
  515SOL    HW2 2059   1.254   1.997   2.035  2.0513  0.5582 -0.8444
  515SOL     MW 2060   1.171   2.023   2.010  0.7114 -0.0913 -0.4684
  516SOL     OW 2061   1.452   2.532   3.098 -0.5232  0.0753 -0.4288
  516SOL    HW1 2062   1.493   2.493   3.021 -2.4740 -1.3520 -0.7946
  516SOL    HW2 2063   1.388   2.592   3.056  0.2558 -0.4248  0.5761
  516SOL     MW 2064   1.449   2.535   3.083 -0.6778 -0.1790 -0.3444
  517SOL     OW 2065   0.568   2.431   2.099 -0.0569  0.0322 -0.2084
  517SOL    HW1 2066   0.499   2.495   2.081  1.1152  0.4394  0.4818
  517SOL    HW2 2067   0.514   2.352   2.134 -1.4863 -2.6774  0.7787
  517SOL     MW 2068   0.552   2.429   2.101 -0.0909 -0.2716  0.0129
  518SOL     OW 2069   1.750   0.208   3.064  0.3933 -0.4023 -0.0383
  518SOL    HW1 2070   1.734   0.244   3.159 -0.4921  4.5920  1.0674
  518SOL    HW2 2071   1.712   0.121   3.078 -2.8393  1.3986  3.3919
  518SOL     MW 2072   1.743   0.201   3.078 -0.1500  0.4943  0.5601
  519SOL     OW 2073   0.736   2.338   1.778 -0.1774  0.7140 -0.2281
  519SOL    HW1 2074   0.765   2.249   1.808  1.3206 -1.6267 -2.5455
  519SOL    HW2 2075   0.747   2.339   1.686 -0.8296 -0.9597  0.5629
  519SOL     MW 2076   0.741   2.327   1.770 -0.0658  0.1843 -0.4295
  520SOL     OW 2077   1.262   2.112   2.971  0.7383 -0.0355 -0.0245
  520SOL    HW1 2078   1.187   2.059   2.980  1.4526 -0.5648 -0.0752
  520SOL    HW2 2079   1.308   2.077   3.044  2.0874 -1.4065 -0.4861
  520SOL     MW 2080   1.258   2.100   2.982  1.0106 -0.2863 -0.0921
  521SOL     OW 2081   1.738   2.029   2.177 -0.6186 -0.3988  0.0210
  521SOL    HW1 2082   1.784   2.052   2.090 -3.4301 -2.4559 -0.8946
  521SOL    HW2 2083   1.736   1.932   2.171 -1.2253 -0.8422  0.0510
  521SOL     MW 2084   1.744   2.019   2.165 -1.0696 -0.7287 -0.0959
  522SOL     OW 2085   2.894   2.541   2.230  0.4407 -0.1817 -0.3997
  522SOL    HW1 2086   2.955   2.465   2.243  0.1695 -0.5267  0.4929
  522SOL    HW2 2087   2.914   2.588   2.308 -2.7503  1.8414  2.5533
  522SOL     MW 2088   2.905   2.537   2.242 -0.0161  0.0397  0.1077
  523SOL     OW 2089   0.948   1.525   2.194 -1.0537 -0.2150  0.0858
  523SOL    HW1 2090   0.889   1.542   2.121  2.6394  1.6120 -1.8245
  523SOL    HW2 2091   1.007   1.455   2.165  2.7885 -0.4572  1.0370
  523SOL     MW 2092   0.948   1.518   2.181 -0.0595 -0.0059 -0.0407
  524SOL     OW 2093   0.687   2.424   2.959 -0.1166 -0.2952  0.5625
  524SOL    HW1 2094   0.691   2.458   2.867 -1.2308  2.8445 -2.6134
  524SOL    HW2 2095   0.690   2.325   2.950 -0.7227 -1.2743  0.2163
  524SOL     MW 2096   0.688   2.416   2.946 -0.3435 -0.0101  0.0978
  525SOL     OW 2097   0.323   2.288   2.096  0.0224 -0.1306 -0.0847
  525SOL    HW1 2098   0.303   2.215   2.151 -1.6023  0.0483  0.3708
  525SOL    HW2 2099   0.342   2.253   2.014  0.2056  0.9056  3.0231
  525SOL     MW 2100   0.323   2.274   2.093 -0.1678  0.0298  0.3854
  526SOL     OW 2101   0.644   2.047   2.000  0.1786  1.0438  0.3910
  526SOL    HW1 2102   0.717   2.061   1.940  1.2319 -0.0677  2.4277
  526SOL    HW2 2103   0.665   2.117   2.062  1.3362 -1.8489 -0.5164
  526SOL     MW 2104   0.656   2.058   2.001  0.4703  0.5155  0.5400
  527SOL     OW 2105   1.416   2.017   2.049 -0.7755 -0.1541  0.1643
  527SOL    HW1 2106   1.413   1.997   2.141 -0.5649  1.8749 -0.8897
  527SOL    HW2 2107   1.425   1.929   2.003 -1.1029  1.6776 -2.6307
  527SOL     MW 2108   1.417   2.002   2.055 -0.7909  0.3552 -0.3435
  528SOL     OW 2109   0.671   2.911   2.860 -0.3011 -0.3915  0.5269
  528SOL    HW1 2110   0.661   2.982   2.923 -1.8382  0.0814 -0.0234
  528SOL    HW2 2111   0.605   2.929   2.791  2.2931 -1.3260 -0.7465
  528SOL     MW 2112   0.661   2.923   2.859 -0.1617 -0.4524  0.2863
  529SOL     OW 2113   1.087   2.246   1.874 -0.2285  0.3543 -0.6229
  529SOL    HW1 2114   1.058   2.292   1.950 -1.3857  2.9811  0.1958
  529SOL    HW2 2115   1.074   2.308   1.810  0.2633 -0.0487 -0.1146
  529SOL     MW 2116   1.082   2.260   1.875 -0.3163  0.6477 -0.4478
  530SOL     OW 2117   1.166   2.418   3.006  0.5376  0.3178 -0.2335
  530SOL    HW1 2118   1.126   2.454   3.089 -0.2145 -0.7323  1.2662
  530SOL    HW2 2119   1.177   2.323   3.021 -1.4593 -0.2807 -0.9416
  530SOL     MW 2120   1.162   2.410   3.019  0.1749  0.1003 -0.1291
  531SOL     OW 2121   0.902   1.879   2.572  0.1671  0.1990 -0.5969
  531SOL    HW1 2122   0.945   1.949   2.623 -0.6420 -2.8828 -1.3328
  531SOL    HW2 2123   0.911   1.802   2.627 -0.1850 -0.6380  0.2706
  531SOL     MW 2124   0.909   1.878   2.586  0.0139 -0.3181 -0.5796
  532SOL     OW 2125   1.752   0.298   2.798 -0.6790  0.1761 -0.2146
  532SOL    HW1 2126   1.727   0.273   2.886  0.2840  0.4880 -0.4413
  532SOL    HW2 2127   1.830   0.345   2.808 -0.1355 -1.3023 -0.0097
  532SOL     MW 2128   1.759   0.301   2.811 -0.4802  0.0222 -0.2175
  533SOL     OW 2129   1.942   2.631   3.043  0.1172  0.0441  0.1221
  533SOL    HW1 2130   1.916   2.581   3.122 -0.1890 -0.1015  1.5897
  533SOL    HW2 2131   1.861   2.626   2.980  1.1028  1.0041  2.2994
  533SOL     MW 2132   1.928   2.623   3.045  0.2068  0.1515  0.6030
  534SOL     OW 2133   1.746   2.407   2.522 -0.2031 -0.3381  0.4236
  534SOL    HW1 2134   1.676   2.366   2.579  0.6716 -0.4312  1.6403
  534SOL    HW2 2135   1.834   2.404   2.571 -1.2804  0.4232  1.2632
  534SOL     MW 2136   1.748   2.401   2.536 -0.2298 -0.2499  0.6949
  535SOL     OW 2137   1.914   2.375   1.850  0.5917  0.3840  0.1509
  535SOL    HW1 2138   1.867   2.410   1.773  2.2103  0.4826 -1.4627
  535SOL    HW2 2139   2.005   2.413   1.843 -0.0068 -0.6086  0.3726
  535SOL     MW 2140   1.920   2.385   1.839  0.7263  0.2661 -0.0327
  536SOL     OW 2141   0.457   1.855   2.053 -0.0740 -0.8079  0.5265
  536SOL    HW1 2142   0.460   1.804   1.964  1.2943  0.0514 -0.7832
  536SOL    HW2 2143   0.533   1.912   2.046 -0.7686  2.3726 -0.0381
  536SOL     MW 2144   0.467   1.855   2.041  0.0149 -0.2749  0.2792
  537SOL     OW 2145   1.078   0.213   2.850  0.2168 -0.4155 -0.2559
  537SOL    HW1 2146   0.995   0.244   2.872  1.9076 -0.3605  1.7257
  537SOL    HW2 2147   1.092   0.263   2.767  2.0190  2.1648  2.2335
  537SOL     MW 2148   1.069   0.224   2.842  0.6777 -0.0678  0.3340
  538SOL     OW 2149   1.338   0.067   3.064  0.0499  0.0205  0.6657
  538SOL    HW1 2150   1.291   0.148   3.038 -1.6018 -0.9221  1.4563
  538SOL    HW2 2151   1.414   0.065   3.010 -2.3135  1.2697  1.4164
  538SOL     MW 2152   1.342   0.077   3.053 -0.4798  0.0610  0.8690
  539SOL     OW 2153   0.721   2.793   2.484 -0.5082  0.2321  0.0333
  539SOL    HW1 2154   0.776   2.782   2.558  0.3191  0.5079 -0.5390
  539SOL    HW2 2155   0.673   2.714   2.466  0.4118 -0.5671 -2.1990
  539SOL     MW 2156   0.722   2.781   2.492 -0.2777  0.1630 -0.3367
  540SOL     OW 2157   0.423   2.479   2.867 -0.0561  0.6260  0.6817
  540SOL    HW1 2158   0.507   2.458   2.909 -1.4160 -1.6824  1.4790
  540SOL    HW2 2159   0.348   2.476   2.929 -1.7611  0.4873 -0.9875
  540SOL     MW 2160   0.424   2.476   2.881 -0.4604  0.3031  0.5667
  541SOL     OW 2161   0.176   2.905   2.203 -0.0755  0.1619 -0.1587
  541SOL    HW1 2162   0.121   2.832   2.175 -2.6307 -2.7046  2.9098
  541SOL    HW2 2163   0.202   2.885   2.297  0.8234  2.7731  1.9971
  541SOL     MW 2164   0.172   2.893   2.212 -0.2941  0.1282  0.5306
  542SOL     OW 2165   1.020   2.288   2.653  0.2153  0.3747  0.1756
  542SOL    HW1 2166   1.006   2.219   2.716 -1.1958 -0.2727 -0.4738
  542SOL    HW2 2167   1.056   2.361   2.700  1.0876 -2.4109 -2.1270
  542SOL     MW 2168   1.023   2.289   2.667  0.1442 -0.0782 -0.2139
  543SOL     OW 2169   1.542   2.434   2.858  1.1797  0.3563  0.1910
  543SOL    HW1 2170   1.516   2.395   2.771 -0.4568 -1.8801  2.5940
  543SOL    HW2 2171   1.613   2.502   2.838  0.5937  1.3933  0.5359
  543SOL     MW 2172   1.548   2.438   2.844  0.8865  0.1980  0.5536
  544SOL     OW 2173   0.711   0.213   2.761  0.1071  0.4698 -0.3524
  544SOL    HW1 2174   0.614   0.229   2.770 -1.7256  0.5395 -1.1763
  544SOL    HW2 2175   0.705   0.144   2.696 -1.0995  2.2607 -1.9975
  544SOL     MW 2176   0.698   0.206   2.753 -0.2939  0.7153 -0.6782
  545SOL     OW 2177   1.572   2.193   2.343 -0.3699 -0.3048  0.3999
  545SOL    HW1 2178   1.583   2.265   2.285  1.1079 -1.3099 -0.6781
  545SOL    HW2 2179   1.626   2.129   2.293 -0.8166  0.6413 -1.7087
  545SOL     MW 2180   1.580   2.194   2.328 -0.2339 -0.3126 -0.0205
  546SOL     OW 2181   3.034   1.987   0.144 -0.1891  0.3259  0.1978
  546SOL    HW1 2182   3.013   2.071   0.096 -2.2362 -0.7168 -2.5219
  546SOL    HW2 2183   3.118   1.965   0.098 -1.0995  0.0056 -1.9091
  546SOL     MW 2184   3.042   1.996   0.131 -0.5793  0.1461 -0.4390
  547SOL     OW 2185   0.232   3.093   0.028  0.2962  0.7060  0.5154
  547SOL    HW1 2186   0.278   3.113  -0.054  4.4609  2.9223 -2.3953
  547SOL    HW2 2187   0.140   3.076   0.007  1.8759  0.3973  1.3074
  547SOL     MW 2188   0.226   3.093   0.015  1.0541  0.9577  0.2359
  548SOL     OW 2189   0.305   2.512   0.244  0.0809 -0.2333  0.7283
  548SOL    HW1 2190   0.293   2.571   0.168  2.0688  0.5122 -2.3464
  548SOL    HW2 2191   0.223   2.467   0.244 -1.9773  0.6917  0.7450
  548SOL     MW 2192   0.293   2.514   0.234  0.0716 -0.0129  0.3248
  549SOL     OW 2193   0.819   1.893   2.128 -0.8754  0.0444  0.1254
  549SOL    HW1 2194   0.765   1.959   2.084 -0.5364  2.8075 -1.4792
  549SOL    HW2 2195   0.773   1.872   2.214  0.9752 -0.5812  1.0285
  549SOL     MW 2196   0.806   1.899   2.134 -0.5865  0.3264  0.0329
  550SOL     OW 2197   1.781   1.741   2.558  0.0231  0.2362 -1.2552
  550SOL    HW1 2198   1.780   1.743   2.462  0.0510  0.8574 -0.7524
  550SOL    HW2 2199   1.750   1.833   2.576  0.4869  3.0073  0.5761
  550SOL     MW 2200   1.777   1.754   2.548  0.0880  0.6838 -0.9472
  551SOL     OW 2201   0.839   2.288   0.198  0.5092  0.0968 -0.4167
  551SOL    HW1 2202   0.934   2.273   0.200 -0.0703 -1.2171 -0.1782
  551SOL    HW2 2203   0.816   2.206   0.155  1.2041 -0.1697 -0.6726
  551SOL     MW 2204   0.849   2.275   0.193  0.5244 -0.1117 -0.4190
  552SOL     OW 2205   1.761   1.685   2.300  0.0533  0.3300 -0.2662
  552SOL    HW1 2206   1.668   1.676   2.305  2.6489 -1.4353 -3.7680
  552SOL    HW2 2207   1.796   1.636   2.220 -1.8257  1.2441  5.0398
  552SOL     MW 2208   1.754   1.677   2.290  0.1478  0.2177 -0.0282
  553SOL     OW 2209   1.260   2.320   1.514  0.6492  0.3325  0.3355
  553SOL    HW1 2210   1.300   2.231   1.524 -0.8412  1.6174 -1.1642
  553SOL    HW2 2211   1.320   2.359   1.448 -0.3733  0.7603 -0.2418
  553SOL     MW 2212   1.274   2.313   1.506  0.3176  0.5585  0.0614
  554SOL     OW 2213   0.505   2.934   2.633 -0.0337 -0.0974  0.1715
  554SOL    HW1 2214   0.489   3.028   2.598 -0.2564  0.0721  3.1467
  554SOL    HW2 2215   0.585   2.906   2.580 -1.8612  0.6764 -0.3269
  554SOL     MW 2216   0.513   2.943   2.621 -0.3042  0.0270  0.4983
  555SOL     OW 2217   0.645   2.488   2.479  0.0104  0.0491 -0.4906
  555SOL    HW1 2218   0.606   2.397   2.501  0.0819 -2.3308 -0.4145
  555SOL    HW2 2219   0.729   2.455   2.453  2.8920  0.6647 -0.4139
  555SOL     MW 2220   0.651   2.472   2.478  0.4000 -0.1837 -0.4704
  556SOL     OW 2221   0.981   1.856   0.103  0.2302 -0.2903 -0.2796
  556SOL    HW1 2222   1.024   1.839   0.017 -1.1681 -3.9895 -2.4400
  556SOL    HW2 2223   1.054   1.872   0.171  2.2126  0.3824  0.5505
  556SOL     MW 2224   0.997   1.856   0.101  0.3073 -0.6896 -0.4551
  557SOL     OW 2225   0.948   2.658   0.501  0.1173 -0.8048  0.0324
  557SOL    HW1 2226   1.007   2.614   0.445 -0.9905  0.1892  1.7979
  557SOL    HW2 2227   0.894   2.723   0.445  0.2625  0.9505  0.1002
  557SOL     MW 2228   0.949   2.661   0.486 -0.0097 -0.4420  0.2743
  558SOL     OW 2229   0.200   2.337   3.004 -0.1855 -0.1371 -0.0613
  558SOL    HW1 2230   0.150   2.261   2.978  2.4827  0.2235 -2.8959
  558SOL    HW2 2231   0.155   2.379   3.080  1.7371 -0.1446 -0.5899
  558SOL     MW 2232   0.187   2.332   3.010  0.4202 -0.0905 -0.5050
  559SOL     OW 2233   1.028   2.347   2.121  0.8358  0.5269  0.3690
  559SOL    HW1 2234   1.085   2.385   2.186  1.7051  1.6853  0.1637
  559SOL    HW2 2235   1.006   2.261   2.164 -2.2811 -0.3684  0.7022
  559SOL     MW 2236   1.033   2.341   2.135  0.5392  0.5616  0.3859
  560SOL     OW 2237   1.994   2.882   0.013 -0.2643 -0.2797 -0.1160
  560SOL    HW1 2238   2.051   2.929  -0.055 -1.0004 -0.0413  1.8605
  560SOL    HW2 2239   2.005   2.788  -0.017  1.6414 -1.4888  1.3951
  560SOL     MW 2240   2.003   2.876   0.000 -0.1100 -0.4078  0.3442
  561SOL     OW 2241   0.393   2.169   0.039 -0.4708 -0.1768  0.0348
  561SOL    HW1 2242   0.338   2.222  -0.017  1.5579 -0.8983  0.1835
  561SOL    HW2 2243   0.452   2.228   0.093  0.4885 -2.4506 -0.5050
  561SOL     MW 2244   0.394   2.184   0.039 -0.0766 -0.5720 -0.0168
  562SOL     OW 2245   0.713   2.199   2.220  0.6311 -0.0833  0.7968
  562SOL    HW1 2246   0.724   2.295   2.243 -0.9505  0.1039  0.5689
  562SOL    HW2 2247   0.800   2.164   2.259 -1.4309  1.9868  2.3438
  562SOL     MW 2248   0.726   2.207   2.228  0.1503  0.2146  0.9708
  563SOL     OW 2249   1.226   0.311   0.569  0.4438 -0.0109 -0.1738
  563SOL    HW1 2250   1.167   0.262   0.512  0.3556  1.5869  1.7241
  563SOL    HW2 2251   1.216   0.267   0.652 -2.7065 -0.9917  0.9604
  563SOL     MW 2252   1.217   0.299   0.572  0.0165  0.0705  0.2263
  564SOL     OW 2253   1.146   2.503   2.299  0.3837  0.0443  0.5133
  564SOL    HW1 2254   1.132   2.570   2.232  0.3621  0.4130  0.9213
  564SOL    HW2 2255   1.152   2.552   2.382  1.6038 -0.5649 -3.4123
  564SOL     MW 2256   1.145   2.518   2.301  0.5418  0.0125  0.0492
  565SOL     OW 2257   2.820   2.761   2.658 -0.1336  0.6912 -0.3289
  565SOL    HW1 2258   2.830   2.854   2.674 -0.6701  0.1002 -0.6674
  565SOL    HW2 2259   2.763   2.747   2.583  2.3217 -0.4322  1.7801
  565SOL     MW 2260   2.814   2.771   2.650  0.1196  0.4650 -0.0953
  566SOL     OW 2261   2.132   1.842   2.376 -0.0552 -0.2044  0.6508
  566SOL    HW1 2262   2.152   1.789   2.300 -3.5324 -0.8774  0.5521
  566SOL    HW2 2263   2.184   1.932   2.373 -1.2193 -0.9515 -0.1839
  566SOL     MW 2264   2.142   1.847   2.366 -0.6676 -0.3918  0.5277
  567SOL     OW 2265   1.186   2.942   3.037 -0.0496  0.1560  0.2088
  567SOL    HW1 2266   1.239   3.022   3.025 -1.2960  2.3300  1.1087
  567SOL    HW2 2267   1.241   2.866   2.992 -0.5036 -1.7988  0.9534
  567SOL     MW 2268   1.201   2.942   3.029 -0.2739  0.1849  0.4258
  568SOL     OW 2269   1.603   2.105   2.899  0.1155 -0.8699  0.0310
  568SOL    HW1 2270   1.645   2.157   2.963  0.7480 -0.6258 -2.0182
  568SOL    HW2 2271   1.673   2.083   2.842  1.7311  2.0847 -0.6547
  568SOL     MW 2272   1.618   2.109   2.900  0.4121 -0.4478 -0.3298
  569SOL     OW 2273   0.166   2.303   2.462 -0.2374 -0.4520 -0.2013
  569SOL    HW1 2274   0.106   2.351   2.404  1.0946 -0.3916  0.0811
  569SOL    HW2 2275   0.202   2.376   2.516 -2.0644 -1.6446 -1.2934
  569SOL     MW 2276   0.163   2.319   2.462 -0.3027 -0.6014 -0.3082
  570SOL     OW 2277   1.507   0.359   0.510  0.4529 -0.5103  0.0973
  570SOL    HW1 2278   1.414   0.375   0.540 -0.3507  1.1216  0.1411
  570SOL    HW2 2279   1.558   0.351   0.591  1.8628 -1.7062  0.0058
  570SOL     MW 2280   1.502   0.360   0.525  0.5329 -0.4528  0.0910
  571SOL     OW 2281   1.452   2.440   2.003 -1.0130 -0.1844 -0.0089
  571SOL    HW1 2282   1.453   2.455   2.097  0.5114  0.0882  0.0407
  571SOL    HW2 2283   1.499   2.357   1.986  2.7144 -1.7327  1.6059
  571SOL     MW 2284   1.458   2.431   2.013 -0.3201 -0.3527  0.2107
  572SOL     OW 2285   1.065   2.582   0.116 -0.5510 -0.2425  0.2994
  572SOL    HW1 2286   1.089   2.662   0.068 -0.9213 -0.8012 -1.0770
  572SOL    HW2 2287   0.963   2.571   0.099  0.3279  1.4983 -0.2479
  572SOL     MW 2288   1.055   2.591   0.108 -0.4839 -0.0865  0.0456
  573SOL     OW 2289   1.128   2.279   0.205  0.8325  0.0642  0.5014
  573SOL    HW1 2290   1.210   2.285   0.157  1.3553  1.6231 -1.5438
  573SOL    HW2 2291   1.117   2.356   0.269  0.2791  0.0368  1.6173
  573SOL     MW 2292   1.138   2.290   0.207  0.8284  0.2663  0.3788
  574SOL     OW 2293   1.130   2.509   0.366  0.2618 -0.1401 -0.3460
  574SOL    HW1 2294   1.213   2.551   0.395  0.0997  1.0558  1.9602
  574SOL    HW2 2295   1.108   2.550   0.275 -0.1680  2.1778  0.7131
  574SOL     MW 2296   1.138   2.520   0.358  0.1837  0.3235  0.0980
  575SOL     OW 2297   3.065   2.196   1.812  0.1856 -0.1331 -0.1909
  575SOL    HW1 2298   3.093   2.130   1.746  2.8611  1.1346 -0.3120
  575SOL    HW2 2299   3.142   2.256   1.812  1.8454  0.4476 -1.5855
  575SOL     MW 2300   3.079   2.195   1.803  0.7576  0.1108 -0.3909
  576SOL     OW 2301   2.786   1.789   2.098 -0.1323  0.8157 -0.4846
  576SOL    HW1 2302   2.817   1.806   2.012  0.3461  0.5129  1.3423
  576SOL    HW2 2303   2.693   1.763   2.087  1.1301  0.6071  1.4237
  576SOL     MW 2304   2.778   1.788   2.085  0.0974  0.7482  0.0082
  577SOL     OW 2305   2.038   0.206   0.083 -0.1811  0.1075 -0.5493
  577SOL    HW1 2306   1.974   0.217   0.014 -3.1578 -1.4945 -1.5561
  577SOL    HW2 2307   1.990   0.166   0.156  0.3856 -2.8419 -0.7913
  577SOL     MW 2308   2.023   0.202   0.084 -0.4991 -0.4930 -0.7141
  578SOL     OW 2309   1.950   2.045   2.361  0.6637  0.1718  0.6294
  578SOL    HW1 2310   1.862   2.022   2.320 -2.3254  2.1102  1.4951
  578SOL    HW2 2311   2.007   1.968   2.354  1.9943 -1.0046 -0.8700
  578SOL     MW 2312   1.946   2.032   2.354  0.4449  0.2723  0.5458
  579SOL     OW 2313   0.900   2.388   2.436 -0.6074  0.3841  0.3499
  579SOL    HW1 2314   0.940   2.352   2.515  2.4404  1.9067 -3.4284
  579SOL    HW2 2315   0.967   2.441   2.393  0.0277  0.5274  0.1632
  579SOL     MW 2316   0.914   2.390   2.441 -0.1215  0.6039 -0.1732
  580SOL     OW 2317   0.923   2.877   3.094 -0.1582 -0.4286  0.6778
  580SOL    HW1 2318   1.014   2.900   3.068 -0.3369  0.4282 -0.3348
  580SOL    HW2 2319   0.886   2.811   3.031  0.5885 -1.4119  1.6712
  580SOL     MW 2320   0.930   2.871   3.082 -0.0833 -0.4453  0.6752
  581SOL     OW 2321   1.130   2.489   1.686  0.0034  0.8925 -0.0391
  581SOL    HW1 2322   1.187   2.519   1.761 -3.6473  1.4529 -1.3419
  581SOL    HW2 2323   1.186   2.432   1.623  1.9147 -3.2116 -0.8527
  581SOL     MW 2324   1.145   2.486   1.687 -0.2261  0.4249 -0.3184
  582SOL     OW 2325   0.050   2.789   2.609 -0.5895  0.2815  0.2054
  582SOL    HW1 2326  -0.003   2.861   2.636  1.3444  0.9981  1.0783
  582SOL    HW2 2327   0.138   2.825   2.594  1.8454 -2.0533  0.1028
  582SOL     MW 2328   0.054   2.803   2.610 -0.0131  0.0680  0.3070
  583SOL     OW 2329   1.976   2.396   2.642 -0.2001  0.4769  0.1420
  583SOL    HW1 2330   2.057   2.420   2.592  0.4513 -0.6945 -2.6962
  583SOL    HW2 2331   1.968   2.297   2.645 -0.5138 -0.4525 -2.1975
  583SOL     MW 2332   1.985   2.386   2.636 -0.1555  0.1997 -0.5411
  584SOL     OW 2333   0.105   1.884   2.253  0.1309  0.1270  0.0751
  584SOL    HW1 2334   0.176   1.851   2.205 -0.2023  1.1769  2.6995
  584SOL    HW2 2335   0.153   1.963   2.286 -0.0935 -1.1480  1.9114
  584SOL     MW 2336   0.121   1.890   2.251  0.0573  0.0973  0.6636
  585SOL     OW 2337   1.598   2.646   0.242 -0.0408 -0.0358  0.3778
  585SOL    HW1 2338   1.557   2.607   0.163  0.0725 -3.4621  0.2885
  585SOL    HW2 2339   1.527   2.637   0.316 -0.8285  0.4403 -0.9501
  585SOL     MW 2340   1.583   2.639   0.241 -0.1298 -0.4250  0.1908
  586SOL     OW 2341   1.366   2.859   2.564  0.4467 -0.4331  0.0321
  586SOL    HW1 2342   1.436   2.807   2.514 -0.2803  1.7880 -0.3926
  586SOL    HW2 2343   1.379   2.950   2.547 -2.4845  0.7978 -1.3593
  586SOL     MW 2344   1.377   2.864   2.555 -0.0360  0.0224 -0.2075
  587SOL     OW 2345   1.342   1.591   2.120 -0.0883 -0.7892  0.5053
  587SOL    HW1 2346   1.318   1.522   2.188  1.6797 -0.0980  0.6634
  587SOL    HW2 2347   1.296   1.560   2.041 -0.8107  1.0402  2.4968
  587SOL     MW 2348   1.333   1.578   2.118  0.0497 -0.4566  0.7889
  588SOL     OW 2349   1.316   2.067   2.684  0.2062 -0.6082 -0.5791
  588SOL    HW1 2350   1.340   1.975   2.663 -1.3603 -1.1463  0.4773
  588SOL    HW2 2351   1.293   2.069   2.781  0.9370  0.6287  1.0050
  588SOL     MW 2352   1.316   2.055   2.694  0.0960 -0.5160 -0.2307
  589SOL     OW 2353   1.372   1.997   0.105  0.1851  0.2088  0.1848
  589SOL    HW1 2354   1.397   2.082   0.139 -0.1745  0.9626 -0.6891
  589SOL    HW2 2355   1.331   1.957   0.182 -2.1218 -0.3160  1.0050
  589SOL     MW 2356   1.370   2.003   0.120 -0.1668  0.2390  0.1777
  590SOL     OW 2357   0.482   2.770   2.244 -0.3502  0.1097  0.0697
  590SOL    HW1 2358   0.449   2.731   2.160  2.3048  1.8123 -1.4551
  590SOL    HW2 2359   0.566   2.797   2.213  1.3280  0.1085 -0.7379
  590SOL     MW 2360   0.489   2.769   2.229  0.2215  0.3342 -0.2380
  591SOL     OW 2361   2.252   0.649   3.095 -0.5438  0.4184 -0.1135
  591SOL    HW1 2362   2.185   0.694   3.052  1.6810 -0.6605  2.9111
  591SOL    HW2 2363   2.338   0.653   3.052  1.2699 -1.6203  0.8555
  591SOL     MW 2364   2.255   0.656   3.084 -0.0110  0.0071  0.4134
  592SOL     OW 2365   1.753   2.952   0.775 -0.2355 -0.1043  0.0538
  592SOL    HW1 2366   1.764   3.029   0.727 -1.5531 -0.2228  0.9001
  592SOL    HW2 2367   1.832   2.904   0.752  0.4503 -0.4910 -0.4134
  592SOL     MW 2368   1.765   2.956   0.765 -0.3188 -0.1709  0.1038
  593SOL     OW 2369   1.963   0.641   0.840 -0.0150 -0.3037  1.0864
  593SOL    HW1 2370   1.873   0.632   0.799  0.4264 -0.3827  0.6732
  593SOL    HW2 2371   2.016   0.561   0.835 -0.9005 -1.2777 -0.0594
  593SOL     MW 2372   1.958   0.629   0.834 -0.0736 -0.4426  0.8807
  594SOL     OW 2373   2.778   1.161   1.396  0.0352 -0.5773  0.0705
  594SOL    HW1 2374   2.865   1.193   1.386 -2.7223  0.2948 -0.7073
  594SOL    HW2 2375   2.774   1.104   1.317  0.6674 -0.1193  0.7575
  594SOL     MW 2376   2.789   1.158   1.384 -0.2452 -0.4018  0.0585
  595SOL     OW 2377   0.455   0.990   0.821  0.5196  0.1082  0.1270
  595SOL    HW1 2378   0.472   1.016   0.730 -2.0092  0.6028 -3.4643
  595SOL    HW2 2379   0.422   1.070   0.866  2.4129 -1.8703  0.8393
  595SOL     MW 2380   0.453   1.004   0.815  0.4358 -0.0876 -0.2529
  596SOL     OW 2381   2.483   1.308   0.567  0.1202 -0.2143  0.0171
  596SOL    HW1 2382   2.535   1.373   0.520 -2.9588  0.5587  0.9714
  596SOL    HW2 2383   2.527   1.294   0.654  0.7161 -2.1497  1.2375
  596SOL     MW 2384   2.496   1.315   0.572 -0.2074 -0.3677  0.3040
  597SOL     OW 2385   2.190   0.669   1.628 -0.2336 -0.2654 -0.0486
  597SOL    HW1 2386   2.219   0.614   1.703 -0.4759  2.9941 -0.4789
  597SOL    HW2 2387   2.122   0.618   1.590 -0.0680  3.4216  0.2497
  597SOL     MW 2388   2.185   0.655   1.633 -0.2437  0.6511 -0.0660
  598SOL     OW 2389   2.558   1.056   2.763 -0.1873 -0.1832 -0.2745
  598SOL    HW1 2390   2.581   0.993   2.695 -0.6111 -0.6346  0.5191
  598SOL    HW2 2391   2.644   1.075   2.808  0.3347  1.4287  1.2245
  598SOL     MW 2392   2.573   1.051   2.760 -0.1744 -0.0301  0.0279
  599SOL     OW 2393   2.991   0.395   2.072  0.2946  0.3326  0.8297
  599SOL    HW1 2394   3.055   0.419   2.140  0.6875 -3.1726  2.5232
  599SOL    HW2 2395   2.966   0.481   2.035 -1.4862  1.4324  0.6526
  599SOL     MW 2396   2.996   0.409   2.076  0.1115  0.0153  1.0298
  600SOL     OW 2397   1.845   1.604   0.888 -0.2492  0.5313  0.3430
  600SOL    HW1 2398   1.909   1.628   0.952  1.0827 -1.0399 -0.8842
  600SOL    HW2 2399   1.796   1.684   0.853 -3.1503  0.0068 -1.6634
  600SOL     MW 2400   1.847   1.618   0.892 -0.4562  0.2548 -0.0836
  601SOL     OW 2401   2.508   0.757   0.801 -0.1362 -0.2266 -0.0547
  601SOL    HW1 2402   2.509   0.789   0.892 -0.7306 -0.6169 -0.0391
  601SOL    HW2 2403   2.431   0.700   0.785 -3.3176 -0.7563 -0.9413
  601SOL     MW 2404   2.498   0.754   0.811 -0.6344 -0.3480 -0.1696
  602SOL     OW 2405   2.261   1.959   0.768 -0.1257  0.6394  0.0313
  602SOL    HW1 2406   2.240   1.873   0.732 -1.7377  2.1269 -1.5223
  602SOL    HW2 2407   2.246   2.033   0.705 -1.6729  1.5870  1.9434
  602SOL     MW 2408   2.256   1.958   0.755 -0.5425  0.9607  0.0786
  603SOL     OW 2409   0.007   1.353   1.860 -0.0982  0.4334  1.2763
  603SOL    HW1 2410   0.054   1.427   1.897  1.0477  1.3988 -0.6860
  603SOL    HW2 2411   0.017   1.284   1.924 -0.5287 -2.6257 -0.6042
  603SOL     MW 2412   0.014   1.354   1.873 -0.0038  0.1572  0.7692
  604SOL     OW 2413   2.094   1.553   0.462 -0.4975  0.3695  0.4034
  604SOL    HW1 2414   2.153   1.488   0.497  0.5623 -0.1707 -1.9900
  604SOL    HW2 2415   2.023   1.566   0.522  2.6790 -1.2636 -2.5329
  604SOL     MW 2416   2.092   1.546   0.474  0.0614  0.0827 -0.2998
  605SOL     OW 2417   2.519   1.493   0.892 -0.3292  0.2461  0.5553
  605SOL    HW1 2418   2.551   1.537   0.820 -2.2154 -0.2497  1.9540
  605SOL    HW2 2419   2.545   1.405   0.880  1.5172 -0.1893 -1.5005
  605SOL     MW 2420   2.527   1.488   0.881 -0.3345  0.1232  0.4686
  606SOL     OW 2421   2.539   1.699   2.026  0.2402  0.3699  0.0227
  606SOL    HW1 2422   2.452   1.717   1.986  1.1229 -1.5245 -0.0741
  606SOL    HW2 2423   2.588   1.647   1.962  0.0631  2.0900  1.8659
  606SOL     MW 2424   2.534   1.695   2.012  0.3333  0.3469  0.2531
  607SOL     OW 2425   2.433   1.049   3.017 -0.3028 -0.3726 -0.0643
  607SOL    HW1 2426   2.488   1.046   2.935 -0.8757 -1.6958  1.1536
  607SOL    HW2 2427   2.480   0.992   3.075  0.6158  1.0985 -2.8271
  607SOL     MW 2428   2.447   1.041   3.014 -0.2572 -0.3531 -0.2681
  608SOL     OW 2429   1.853   0.285   0.573 -0.0667 -0.0061  0.0425
  608SOL    HW1 2430   1.827   0.344   0.498 -1.5062  3.4434 -0.3138
  608SOL    HW2 2431   1.808   0.199   0.564  0.0785 -2.1270 -2.0087
  608SOL     MW 2432   1.844   0.282   0.562 -0.2375  0.1692 -0.2752
  609SOL     OW 2433   2.070   1.951   3.046  0.2783 -0.1302 -0.9570
  609SOL    HW1 2434   1.999   1.895   3.017  3.4310 -0.7730  0.5536
  609SOL    HW2 2435   2.089   1.941   3.143 -1.2047  0.2988 -0.4239
  609SOL     MW 2436   2.063   1.943   3.055  0.4986 -0.1584 -0.6874
  610SOL     OW 2437   1.814   0.961   1.228  0.3052 -0.1886 -0.1315
  610SOL    HW1 2438   1.824   0.876   1.178  0.2850  1.7024 -0.0459
  610SOL    HW2 2439   1.721   0.988   1.219 -0.6405 -0.1389 -2.0648
  610SOL     MW 2440   1.803   0.953   1.220  0.1778  0.0674 -0.3753
  611SOL     OW 2441   2.534   1.685   0.665 -0.2008 -0.3353 -0.1537
  611SOL    HW1 2442   2.565   1.755   0.604  2.9526  0.0915  0.3245
  611SOL    HW2 2443   2.439   1.682   0.654  2.0367  0.7784 -1.4916
  611SOL     MW 2444   2.526   1.694   0.656  0.5105 -0.1320 -0.2671
  612SOL     OW 2445   2.858   2.895   0.372  0.0768 -0.0792  0.3777
  612SOL    HW1 2446   2.884   2.935   0.458 -3.6003  0.3047  0.9509
  612SOL    HW2 2447   2.941   2.876   0.333  0.2530  1.3877  0.3961
  612SOL     MW 2448   2.872   2.898   0.378 -0.3852  0.1650  0.4557
  613SOL     OW 2449   1.453   1.040   0.909  0.0020  0.1888  0.5748
  613SOL    HW1 2450   1.499   1.123   0.901 -0.4961 -0.1924 -1.7199
  613SOL    HW2 2451   1.487   1.013   0.997  0.4844  2.3892  3.5068
  613SOL     MW 2452   1.464   1.047   0.920 -0.0001  0.4288  0.6589
  614SOL     OW 2453   1.984   0.532   1.488 -0.0032  0.1298  0.0666
  614SOL    HW1 2454   1.965   0.445   1.540  2.0002 -0.2815  1.4629
  614SOL    HW2 2455   1.951   0.511   1.399 -1.0245 -2.1683 -0.4707
  614SOL     MW 2456   1.977   0.518   1.483  0.1264 -0.2277  0.1799
  615SOL     OW 2457   2.308   0.772   0.264 -0.1281 -0.1861  0.2528
  615SOL    HW1 2458   2.379   0.709   0.279 -2.2668 -1.7801  1.4382
  615SOL    HW2 2459   2.268   0.755   0.184 -0.5462  2.7934  0.5900
  615SOL     MW 2460   2.312   0.761   0.255 -0.4655 -0.0033  0.4537
  616SOL     OW 2461   2.498   0.420   1.675  0.1069  0.2870  0.0043
  616SOL    HW1 2462   2.566   0.362   1.661  1.2712  1.1303  1.2891
  616SOL    HW2 2463   2.490   0.472   1.590  0.6280  2.9295  1.4590
  616SOL     MW 2464   2.506   0.419   1.662  0.3292  0.7469  0.3657
  617SOL     OW 2465   2.788   0.611   1.691 -0.0551 -0.4302 -0.0062
  617SOL    HW1 2466   2.719   0.613   1.760 -1.1047 -3.0777 -5.4482
  617SOL    HW2 2467   2.808   0.518   1.674  2.1494  0.2805 -1.3442
  617SOL     MW 2468   2.781   0.599   1.698  0.0973 -0.6857 -0.9007
  618SOL     OW 2469   2.698   0.363   1.964 -0.0381  0.0854 -0.1192
  618SOL    HW1 2470   2.683   0.452   1.925 -2.1659  0.7311  2.7943
  618SOL    HW2 2471   2.741   0.373   2.050 -0.2054  1.9037  0.4410
  618SOL     MW 2472   2.702   0.376   1.970 -0.3409  0.4105  0.3391
  619SOL     OW 2473   2.652   0.742   0.044  0.7858 -0.1745  0.3319
  619SOL    HW1 2474   2.690   0.822   0.079  0.2055 -1.3520 -0.0101
  619SOL    HW2 2475   2.596   0.716   0.115  0.3642  1.5764 -1.9115
  619SOL     MW 2476   2.649   0.749   0.058  0.6536 -0.0988 -0.0092
  620SOL     OW 2477   2.219   1.043   0.914  0.2671  0.2297  0.0455
  620SOL    HW1 2478   2.277   1.042   0.835  0.2139  0.9317  1.5440
  620SOL    HW2 2479   2.148   0.995   0.871  2.1374 -1.3815 -0.9242
  620SOL     MW 2480   2.218   1.036   0.898  0.5068  0.1097  0.1153
  621SOL     OW 2481   1.569   2.201   1.926  0.2602  0.4805 -0.2157
  621SOL    HW1 2482   1.520   2.126   1.974  1.2753 -0.5218  0.9360
  621SOL    HW2 2483   1.666   2.183   1.940  1.1714 -2.7986  1.2602
  621SOL     MW 2484   1.575   2.188   1.934  0.5143 -0.0844  0.1310
  622SOL     OW 2485   2.640   0.203   0.242  0.1567  0.0172  0.0421
  622SOL    HW1 2486   2.727   0.235   0.228  0.0117  1.4888  1.4031
  622SOL    HW2 2487   2.652   0.116   0.286 -0.0885 -0.2526 -0.6411
  622SOL     MW 2488   2.653   0.196   0.246  0.1052  0.1757  0.1315
  623SOL     OW 2489   2.463   2.753   0.843  0.3326  0.0773  0.1780
  623SOL    HW1 2490   2.515   2.835   0.844 -0.0907 -0.4216  0.5079
  623SOL    HW2 2491   2.410   2.774   0.918  0.6422 -1.2281 -0.2285
  623SOL     MW 2492   2.463   2.766   0.853  0.3176 -0.1608  0.1679
  624SOL     OW 2493   2.135   1.632   3.034 -0.7606  0.1701 -0.1298
  624SOL    HW1 2494   2.109   1.540   3.024 -3.3357 -4.2200  2.6039
  624SOL    HW2 2495   2.054   1.686   3.004 -2.1279  0.2586 -1.1049
  624SOL     MW 2496   2.121   1.627   3.028 -1.2808 -0.3974  0.1022
  625SOL     OW 2497   2.224   1.900   1.069 -0.1260  0.5718  0.2258
  625SOL    HW1 2498   2.291   1.876   1.135  1.0981  2.9915 -2.1350
  625SOL    HW2 2499   2.276   1.918   0.990  2.8440  3.2955  1.1693
  625SOL     MW 2500   2.240   1.899   1.067  0.4274  1.2504  0.0388
  626SOL     OW 2501   0.281   1.752   2.430 -0.2702  0.6507  0.2863
  626SOL    HW1 2502   0.219   1.698   2.477 -0.0054 -0.1324 -0.8936
  626SOL    HW2 2503   0.227   1.822   2.389  0.4517  0.0968  0.1931
  626SOL     MW 2504   0.266   1.754   2.431 -0.1400  0.4743  0.1183
  627SOL     OW 2505   2.507   0.724   2.554  0.0763 -0.1126  0.2410
  627SOL    HW1 2506   2.454   0.806   2.559  1.7651  1.2794 -0.5794
  627SOL    HW2 2507   2.523   0.713   2.459  4.6302  0.9664 -0.9325
  627SOL     MW 2508   2.502   0.733   2.542  0.9000  0.2134 -0.0221
  628SOL     OW 2509   2.265   1.367   1.290 -0.3202 -0.3305 -0.5208
  628SOL    HW1 2510   2.238   1.292   1.235  1.1948  2.0747 -2.4783
  628SOL    HW2 2511   2.356   1.398   1.255  3.1235 -1.2197  1.4040
  628SOL     MW 2512   2.274   1.361   1.279  0.3341 -0.1305 -0.5251
  629SOL     OW 2513   1.874   0.530   1.228  0.0455 -0.4117  0.2463
  629SOL    HW1 2514   1.885   0.620   1.208 -1.7156 -0.3190  0.9794
  629SOL    HW2 2515   1.778   0.523   1.236  0.2895  1.1370 -0.1517
  629SOL     MW 2516   1.863   0.541   1.227 -0.1547 -0.1952  0.2905
  630SOL     OW 2517   2.379   1.880   3.048  0.3229  0.2362 -0.4309
  630SOL    HW1 2518   2.387   1.939   2.969  3.1085 -1.3245 -0.0198
  630SOL    HW2 2519   2.281   1.867   3.044 -1.3988  0.4367  0.2958
  630SOL     MW 2520   2.367   1.886   3.037  0.4633  0.0567 -0.2808
  631SOL     OW 2521   2.045   1.706   1.548 -0.2915 -0.5305  0.0219
  631SOL    HW1 2522   2.055   1.628   1.609  0.6020 -3.2386  3.8690
  631SOL    HW2 2523   1.987   1.682   1.479 -0.0481 -0.3682  2.5162
  631SOL     MW 2524   2.039   1.692   1.547 -0.1415 -0.8664  0.8586
  632SOL     OW 2525   0.232   1.971   1.430 -0.2705 -0.4133  0.5803
  632SOL    HW1 2526   0.172   1.999   1.504 -0.9392 -0.4788 -2.6836
  632SOL    HW2 2527   0.265   1.882   1.451  0.4670 -2.9705  1.2159
  632SOL     MW 2528   0.229   1.963   1.443 -0.2614 -0.7594  0.2335
  633SOL     OW 2529   2.524   0.610   0.260 -0.5459 -0.5874  0.4700
  633SOL    HW1 2530   2.591   0.584   0.322  0.9989 -0.8945 -0.3478
  633SOL    HW2 2531   2.495   0.531   0.219 -2.2877  3.7294 -3.7975
  633SOL     MW 2532   2.529   0.596   0.263 -0.5719 -0.0583 -0.2009
  634SOL     OW 2533   2.679   0.014   0.658 -0.0355 -0.8094  0.3093
  634SOL    HW1 2534   2.728   0.094   0.659  0.2468  1.7577 -1.6434
  634SOL    HW2 2535   2.651  -0.001   0.566 -1.6019  0.3948 -0.1778
  634SOL     MW 2536   2.682   0.022   0.646 -0.2049 -0.3118 -0.0126
  635SOL     OW 2537   2.578   0.138   1.836 -0.1439 -0.0455  0.5264
  635SOL    HW1 2538   2.658   0.090   1.801  0.1701  0.1361 -0.9848
  635SOL    HW2 2539   2.610   0.231   1.849 -0.4908  4.0400  0.3532
  635SOL     MW 2540   2.593   0.144   1.833 -0.1482  0.5175  0.3041
  636SOL     OW 2541   2.819   1.580   0.872 -0.3819  0.0227 -0.5949
  636SOL    HW1 2542   2.729   1.607   0.886 -1.8658 -1.4537 -0.2414
  636SOL    HW2 2543   2.866   1.644   0.922 -0.6655  0.0526  1.4856
  636SOL     MW 2544   2.813   1.592   0.880 -0.6151 -0.1681 -0.2737
  637SOL     OW 2545   2.882   1.487   0.618  0.1643  0.2172 -0.3845
  637SOL    HW1 2546   2.925   1.561   0.573 -1.0105 -0.6284 -1.3979
  637SOL    HW2 2547   2.845   1.527   0.703  1.2852  3.6439 -0.5488
  637SOL     MW 2548   2.883   1.502   0.623  0.1572  0.5577 -0.5399
  638SOL     OW 2549   2.673   0.503   0.506  0.4294 -0.0517 -0.0532
  638SOL    HW1 2550   2.764   0.483   0.486  1.9397  0.5814  1.6165
  638SOL    HW2 2551   2.683   0.542   0.596  1.4858  1.5195 -1.7060
  638SOL     MW 2552   2.687   0.505   0.515  0.7680  0.2391 -0.0509
  639SOL     OW 2553   1.714   0.032   0.557  0.5373 -0.0437 -0.2993
  639SOL    HW1 2554   1.622   0.061   0.527 -0.4517  3.2206  0.6553
  639SOL    HW2 2555   1.743  -0.041   0.504 -0.7496  2.2526 -0.1127
  639SOL     MW 2556   1.706   0.026   0.546  0.2370  0.6900 -0.1488
  640SOL     OW 2557   0.270   1.332   0.086  0.1711  0.3109 -0.0214
  640SOL    HW1 2558   0.290   1.341  -0.011  0.7120  0.5053  0.2781
  640SOL    HW2 2559   0.284   1.242   0.113  1.2732  0.5901 -0.3715
  640SOL     MW 2560   0.275   1.321   0.077  0.3879  0.3734 -0.0281
  641SOL     OW 2561   2.243   0.432   0.405 -0.0663  0.3399  0.1506
  641SOL    HW1 2562   2.252   0.401   0.319  1.3869  0.4125  2.4841
  641SOL    HW2 2563   2.291   0.379   0.463 -0.1369 -0.3291  2.0784
  641SOL     MW 2564   2.250   0.421   0.401  0.1162  0.2612  0.7128
  642SOL     OW 2565   0.055   0.018   0.494  0.2682 -0.1816 -0.4207
  642SOL    HW1 2566  -0.004   0.081   0.460  1.1867  1.6868 -1.3393
  642SOL    HW2 2567   0.008  -0.027   0.568  0.6190  2.0997 -0.4623
  642SOL     MW 2568   0.041   0.020   0.499  0.4357  0.3659 -0.5474
  643SOL     OW 2569   2.002   0.347   1.708  0.0208 -0.0197  0.6996
  643SOL    HW1 2570   1.954   0.322   1.788 -1.7245 -1.2626  3.2661
  643SOL    HW2 2571   2.046   0.268   1.671 -3.0487 -1.3515 -0.6610
  643SOL     MW 2572   2.001   0.333   1.714 -0.6144 -0.3594  0.8587
  644SOL     OW 2573   2.671   1.887   1.032 -0.0591 -0.7266 -0.2121
  644SOL    HW1 2574   2.633   1.826   1.094 -1.3479 -0.4980 -2.4691
  644SOL    HW2 2575   2.594   1.935   0.998 -2.4050 -1.1363  0.2715
  644SOL     MW 2576   2.656   1.885   1.036 -0.5386 -0.7505 -0.4461
  645SOL     OW 2577   2.811   0.839   0.664 -0.3534 -0.5499  0.5313
  645SOL    HW1 2578   2.871   0.778   0.699  0.4984  0.7521  0.3205
  645SOL    HW2 2579   2.731   0.810   0.696  1.0623  0.5616  3.7733
  645SOL     MW 2580   2.808   0.827   0.673 -0.0542 -0.2315  0.9313
  646SOL     OW 2581   0.076   2.270   0.854  0.2176  0.3485 -0.2841
  646SOL    HW1 2582   0.116   2.190   0.821  0.2707 -0.7891 -0.9180
  646SOL    HW2 2583   0.047   2.299   0.770  0.7238  1.6363  0.4077
  646SOL     MW 2584   0.078   2.264   0.839  0.2914  0.3683 -0.2765
  647SOL     OW 2585   2.717   0.495   2.947  0.0135 -0.2694  0.4473
  647SOL    HW1 2586   2.655   0.426   2.975 -0.7815  0.5023  1.3651
  647SOL    HW2 2587   2.716   0.571   3.004  1.4552 -0.3089  0.6757
  647SOL     MW 2588   2.709   0.496   2.958  0.0989 -0.1728  0.5985
  648SOL     OW 2589   2.206   0.728   1.121  0.2935  0.1820 -1.0545
  648SOL    HW1 2590   2.175   0.642   1.155 -1.1476 -1.3261 -0.8908
  648SOL    HW2 2591   2.203   0.785   1.200 -0.9281  0.4587  1.4530
  648SOL     MW 2592   2.202   0.724   1.136 -0.0578  0.0195 -0.7021
  649SOL     OW 2593   2.399   2.694   1.340  0.6841  0.1808 -0.0929
  649SOL    HW1 2594   2.487   2.728   1.350 -1.2768  1.4747  1.2966
  649SOL    HW2 2595   2.387   2.599   1.317  0.7285  0.1254 -3.2909
  649SOL     MW 2596   2.409   2.686   1.338  0.4312  0.3442 -0.3315
  650SOL     OW 2597   2.837   0.244   0.691 -0.3850  0.3772  0.3079
  650SOL    HW1 2598   2.843   0.312   0.756  0.6126 -0.1822  0.5488
  650SOL    HW2 2599   2.892   0.267   0.613 -0.0402 -0.1656  2.5731
  650SOL     MW 2600   2.845   0.256   0.689 -0.2079  0.2318  0.6386
  651SOL     OW 2601   3.092   0.437   1.006  0.7234 -0.2181  0.3589
  651SOL    HW1 2602   3.160   0.453   0.933 -0.3249 -0.1421 -0.4896
  651SOL    HW2 2603   3.024   0.507   0.994 -0.3409  0.4563  1.1868
  651SOL     MW 2604   3.092   0.448   0.995  0.4447 -0.1191  0.3562
  652SOL     OW 2605   2.400   1.541   3.042  0.0935 -0.8248 -0.0943
  652SOL    HW1 2606   2.451   1.566   2.961  0.7442 -1.2739 -2.1792
  652SOL    HW2 2607   2.306   1.574   3.043  2.1036 -0.7675  0.4467
  652SOL     MW 2608   2.394   1.548   3.031  0.4445 -0.8765 -0.2980
  653SOL     OW 2609   1.805   0.462   0.329  0.1340 -0.1806 -0.1241
  653SOL    HW1 2610   1.754   0.381   0.312  3.1408  1.7485 -0.4111
  653SOL    HW2 2611   1.831   0.505   0.249  1.7644  2.7768  2.6238
  653SOL     MW 2612   1.802   0.457   0.316  0.7458  0.4641  0.2006
  654SOL     OW 2613   2.443   1.012   0.720 -0.1320  0.2151 -0.5727
  654SOL    HW1 2614   2.373   1.002   0.658  0.8536 -0.5876  1.9195
  654SOL    HW2 2615   2.469   0.920   0.739  1.3085  3.5230 -2.2483
  654SOL     MW 2616   2.437   0.998   0.714  0.1881  0.5456 -0.4649
  655SOL     OW 2617   2.901   0.839   0.390  0.0512 -0.9353  0.0870
  655SOL    HW1 2618   2.873   0.876   0.473  1.2544  1.3117  0.7135
  655SOL    HW2 2619   2.914   0.749   0.418  2.3259  2.3984  1.4596
  655SOL     MW 2620   2.899   0.832   0.405  0.5101 -0.1990  0.3508
  656SOL     OW 2621   1.758   2.655   1.354  0.2091 -0.3136 -0.4483
  656SOL    HW1 2622   1.809   2.741   1.357  0.0528 -1.4326 -0.5141
  656SOL    HW2 2623   1.818   2.580   1.352 -1.1329 -2.2000 -0.5480
  656SOL     MW 2624   1.773   2.657   1.354  0.0114 -0.7101 -0.4702
  657SOL     OW 2625   0.153   1.763   1.166  0.0583  0.5923 -0.1023
  657SOL    HW1 2626   0.204   1.841   1.154 -1.9077 -1.4319 -0.8885
  657SOL    HW2 2627   0.206   1.686   1.172  0.8520 -1.1671  1.0834
  657SOL     MW 2628   0.167   1.763   1.165 -0.0963  0.0931 -0.0496
  658SOL     OW 2629   2.647   1.298   0.247 -0.2165  0.1540 -0.3428
  658SOL    HW1 2630   2.624   1.223   0.297  2.3745 -3.0691 -1.0243
  658SOL    HW2 2631   2.669   1.374   0.306  1.0196  0.1797  1.2125
  658SOL     MW 2632   2.647   1.298   0.261  0.2884 -0.2679 -0.2275
  659SOL     OW 2633   2.240   1.541   0.970 -0.3630 -0.2888 -0.2275
  659SOL    HW1 2634   2.332   1.524   0.948 -2.1613  2.4192 -2.4134
  659SOL    HW2 2635   2.243   1.591   1.060 -1.9896 -0.7826  0.2069
  659SOL     MW 2636   2.253   1.545   0.979 -0.8149  0.0034 -0.4586
  660SOL     OW 2637   2.103   1.499   1.718 -0.5953 -0.3720  0.2285
  660SOL    HW1 2638   2.092   1.538   1.808  0.0471  2.8759 -1.8479
  660SOL    HW2 2639   2.029   1.438   1.705  0.4599 -1.2162 -1.5902
  660SOL     MW 2640   2.092   1.496   1.728 -0.3714 -0.0549 -0.2854
  661SOL     OW 2641   2.502   0.952   0.196  0.0598 -0.2917  1.2532
  661SOL    HW1 2642   2.524   0.993   0.279 -0.4907  1.8772  1.6630
  661SOL    HW2 2643   2.421   0.899   0.225 -0.7698  1.0143 -3.5606
  661SOL     MW 2644   2.494   0.950   0.211 -0.1223  0.1668  0.6722
  662SOL     OW 2645   2.595   3.004   0.902 -0.0745 -0.3078 -0.1548
  662SOL    HW1 2646   2.509   3.027   0.933  1.6356 -2.3732 -0.3233
  662SOL    HW2 2647   2.620   3.057   0.826  1.1272 -0.9460 -1.1305
  662SOL     MW 2648   2.587   3.014   0.896  0.3097 -0.6645 -0.3058
  663SOL     OW 2649   2.664   1.482   0.436 -0.1414  0.3753  0.1435
  663SOL    HW1 2650   2.639   1.573   0.411 -2.4719  0.7388 -0.3090
  663SOL    HW2 2651   2.745   1.492   0.483 -1.9047 -1.9677 -0.1020
  663SOL     MW 2652   2.672   1.495   0.439 -0.6815  0.1141  0.0514
  664SOL     OW 2653   2.561   1.536   1.602 -0.4140 -0.1528  0.1050
  664SOL    HW1 2654   2.527   1.621   1.577 -0.4399  0.2142 -0.4896
  664SOL    HW2 2655   2.479   1.481   1.595  3.4000  0.5339 -0.7638
  664SOL     MW 2656   2.546   1.540   1.598  0.0858 -0.0138 -0.0881
  665SOL     OW 2657   2.774   0.811   2.040  0.2666 -0.1097  0.6501
  665SOL    HW1 2658   2.761   0.850   1.953  1.9120 -0.4372 -0.2625
  665SOL    HW2 2659   2.842   0.747   2.017 -2.1725 -1.8429  1.9606
  665SOL     MW 2660   2.781   0.808   2.026  0.1618 -0.3816  0.7026
  666SOL     OW 2661   2.761   3.079   1.716  0.0597 -0.4691 -0.2215
  666SOL    HW1 2662   2.775   3.079   1.619  1.8955  0.8323  0.1997
  666SOL    HW2 2663   2.730   2.992   1.746 -0.8496 -0.1527  1.5330
  666SOL     MW 2664   2.759   3.068   1.707  0.1819 -0.2557  0.0655
  667SOL     OW 2665   1.959   2.699   1.747  0.4441  0.0486 -0.3142
  667SOL    HW1 2666   1.980   2.673   1.837  1.9972  1.3269 -0.1044
  667SOL    HW2 2667   2.029   2.763   1.732  0.4589 -0.6040 -0.8913
  667SOL     MW 2668   1.971   2.704   1.757  0.6510  0.1312 -0.3627
  668SOL     OW 2669   2.689   0.563   0.796 -0.3141 -0.8231  0.1668
  668SOL    HW1 2670   2.749   0.596   0.862 -0.0375  1.3506  0.1928
  668SOL    HW2 2671   2.611   0.638   0.789 -0.7805  2.1396 -1.0429
  668SOL     MW 2672   2.687   0.578   0.804 -0.3392 -0.1454  0.0106
  669SOL     OW 2673   0.140   0.861   0.760  0.0016 -0.0801  0.1403
  669SOL    HW1 2674   0.108   0.950   0.784 -0.1805  0.6707  0.2783
  669SOL    HW2 2675   0.208   0.850   0.833  0.3510 -1.1732 -0.3125
  669SOL     MW 2676   0.145   0.871   0.773  0.0236 -0.1253  0.0987
  670SOL     OW 2677   2.895   0.297   0.189  0.7803  0.5904  0.0521
  670SOL    HW1 2678   2.937   0.264   0.103  2.1633  0.0982 -0.2396
  670SOL    HW2 2679   2.916   0.396   0.188  0.5015  0.6535 -1.3552
  670SOL     MW 2680   2.904   0.306   0.178  0.9260  0.5338 -0.1720
  671SOL     OW 2681   2.001   3.066   1.578 -0.1444 -0.0419  0.1953
  671SOL    HW1 2682   1.965   3.016   1.504 -2.4321  0.2771  1.1860
  671SOL    HW2 2683   1.930   3.057   1.644 -0.1822  1.5914  1.2969
  671SOL     MW 2684   1.986   3.058   1.577 -0.4512  0.2157  0.4714
  672SOL     OW 2685   1.903   1.687   1.325 -0.3231 -0.2699  0.1768
  672SOL    HW1 2686   1.842   1.759   1.357 -1.7590  0.5285 -0.2791
  672SOL    HW2 2687   1.926   1.716   1.232  1.8166  2.0193 -1.3611
  672SOL     MW 2688   1.898   1.701   1.317 -0.2302  0.1375 -0.0863
  673SOL     OW 2689   2.797   1.103   0.634 -0.0340  0.0489 -0.1990
  673SOL    HW1 2690   2.817   1.012   0.653  0.7952  1.1945 -1.5478
  673SOL    HW2 2691   2.883   1.149   0.639  1.9467 -0.7605  2.1237
  673SOL     MW 2692   2.811   1.097   0.637  0.3367  0.0933 -0.0705
  674SOL     OW 2693   2.445   0.005   1.243 -0.2063  0.4170 -0.2315
  674SOL    HW1 2694   2.376   0.032   1.173  0.0141 -2.1187  1.6975
  674SOL    HW2 2695   2.474  -0.083   1.229  0.4334  1.1027  0.6267
  674SOL     MW 2696   2.440  -0.003   1.232 -0.0928  0.1729  0.1363
  675SOL     OW 2697   3.041   0.876   1.104 -0.2115  0.0751  0.3749
  675SOL    HW1 2698   3.099   0.915   1.173 -0.7764  1.8070 -0.9072
  675SOL    HW2 2699   3.051   0.931   1.032 -1.0728 -3.0546  1.5774
  675SOL     MW 2700   3.050   0.889   1.103 -0.3997 -0.1093  0.3644
  676SOL     OW 2701   2.954   1.482   1.649  0.6475 -0.3128  0.6600
  676SOL    HW1 2702   2.900   1.409   1.627 -1.1405  0.7947  0.8449
  676SOL    HW2 2703   2.993   1.475   1.734 -2.3895  0.9563  1.6282
  676SOL     MW 2704   2.952   1.471   1.658  0.0109  0.0008  0.8121
  677SOL     OW 2705   2.375   0.623   2.021  0.5500 -0.4391 -0.3426
  677SOL    HW1 2706   2.331   0.560   1.967 -1.6327  0.0045 -0.9566
  677SOL    HW2 2707   2.330   0.711   1.993 -0.2166  0.3523 -2.0660
  677SOL     MW 2708   2.363   0.626   2.010  0.1609 -0.2762 -0.6510
  678SOL     OW 2709   2.486   1.690   0.326 -0.3028  0.4540  0.2635
  678SOL    HW1 2710   2.399   1.724   0.336  0.3996  1.0833  1.6310
  678SOL    HW2 2711   2.471   1.604   0.287  1.8799  3.6570 -0.4055
  678SOL     MW 2712   2.473   1.683   0.322  0.0778  0.9597  0.3557
  679SOL     OW 2713   2.209   0.468   1.314 -0.2090  0.0558  0.7341
  679SOL    HW1 2714   2.210   0.379   1.278 -2.0866 -0.3747  0.8155
  679SOL    HW2 2715   2.141   0.455   1.381 -1.8255 -0.5244  1.0439
  679SOL     MW 2716   2.200   0.454   1.318 -0.6700 -0.0776  0.7857
  680SOL     OW 2717   2.378   0.179   1.452  0.0598  0.0565 -0.0442
  680SOL    HW1 2718   2.280   0.176   1.452  0.6676 -1.4559  0.5426
  680SOL    HW2 2719   2.392   0.109   1.397  1.6440  0.5258 -0.0155
  680SOL     MW 2720   2.367   0.169   1.445  0.3490 -0.0811  0.0370
  681SOL     OW 2721   0.278   0.567   1.576  0.3847  0.9761  0.0243
  681SOL    HW1 2722   0.270   0.504   1.652 -1.0864 -1.8723  1.4902
  681SOL    HW2 2723   0.357   0.537   1.526  1.7403  0.3953 -0.8125
  681SOL     MW 2724   0.287   0.555   1.580  0.3695  0.5236  0.1073
  682SOL     OW 2725   0.138   2.810   1.544  0.4080 -0.7685  0.3718
  682SOL    HW1 2726   0.198   2.882   1.572 -0.7626 -0.1736  0.3235
  682SOL    HW2 2727   0.052   2.844   1.546  1.4743 -0.5824  0.9289
  682SOL     MW 2728   0.135   2.824   1.548  0.3943 -0.6655  0.4390
  683SOL     OW 2729   2.067   0.796   2.945  0.2165  0.4261  0.3337
  683SOL    HW1 2730   1.976   0.779   2.944  0.6552 -1.0220  0.5993
  683SOL    HW2 2731   2.075   0.873   3.006 -0.7099 -0.5168 -0.8392
  683SOL     MW 2732   2.056   0.804   2.953  0.1522  0.1106  0.2140
  684SOL     OW 2733   2.255   1.669   0.722 -0.0855 -0.3617 -0.7321
  684SOL    HW1 2734   2.183   1.666   0.665 -0.8910  0.2493  2.1071
  684SOL    HW2 2735   2.225   1.613   0.795 -1.2021  0.2853 -0.8605
  684SOL     MW 2736   2.242   1.661   0.724 -0.3391 -0.1957 -0.3745
  685SOL     OW 2737   2.644   1.704   1.250  0.2083  0.1697  0.6302
  685SOL    HW1 2738   2.718   1.716   1.307 -0.4215  1.2190  1.3185
  685SOL    HW2 2739   2.628   1.613   1.250  2.0584 -1.1556  0.0662
  685SOL     MW 2740   2.652   1.694   1.258  0.3693  0.1333  0.6466
  686SOL     OW 2741   2.905   0.740   1.467 -0.0081  0.0250 -0.2785
  686SOL    HW1 2742   2.890   0.680   1.539 -2.3320 -1.5753  0.3109
  686SOL    HW2 2743   2.999   0.763   1.461 -2.1651 -0.9814 -2.2941
  686SOL     MW 2744   2.915   0.735   1.476 -0.5993 -0.3189 -0.4667
  687SOL     OW 2745   2.151   0.212   1.212 -0.1495 -0.0633 -0.0777
  687SOL    HW1 2746   2.186   0.154   1.148 -0.5252  0.5484  1.1689
  687SOL    HW2 2747   2.074   0.244   1.171  1.7210  0.5439  1.2464
  687SOL     MW 2748   2.146   0.209   1.199  0.0477  0.0975  0.2615
  688SOL     OW 2749   2.432   0.585   1.467  0.0366 -0.5829  0.0054
  688SOL    HW1 2750   2.364   0.544   1.411 -0.2933  0.6780 -0.6882
  688SOL    HW2 2751   2.366   0.624   1.526 -2.3284 -3.0210  1.1962
  688SOL     MW 2752   2.414   0.585   1.467 -0.3190 -0.7382  0.0710
  689SOL     OW 2753   2.472   0.699   2.943 -0.8363  0.2390 -0.7929
  689SOL    HW1 2754   2.461   0.761   2.874  0.2040 -2.2341 -0.3183
  689SOL    HW2 2755   2.539   0.730   3.011 -1.7545  1.7833 -1.4928
  689SOL     MW 2756   2.479   0.711   2.943 -0.8202  0.1165 -0.8226
  690SOL     OW 2757   1.995   0.836   1.892  0.3669  0.0532  0.3216
  690SOL    HW1 2758   1.946   0.754   1.897 -0.7966  1.4236 -0.3656
  690SOL    HW2 2759   2.035   0.847   1.803  0.6458  4.2323  2.7724
  690SOL     MW 2760   1.994   0.827   1.881  0.2502  0.7854  0.5543
  691SOL     OW 2761   2.378   0.231   0.850 -0.1418 -0.3303  0.1264
  691SOL    HW1 2762   2.440   0.289   0.885 -3.6041  0.2334  1.3867
  691SOL    HW2 2763   2.302   0.270   0.892 -0.8748 -1.9405 -1.9883
  691SOL     MW 2764   2.376   0.244   0.860 -0.6953 -0.4684  0.0137
  692SOL     OW 2765   2.891   1.650   1.458 -0.0853  0.1001 -0.1890
  692SOL    HW1 2766   2.921   1.596   1.529  0.1818 -1.0231  0.6104
  692SOL    HW2 2767   2.908   1.746   1.483 -0.7173  1.2743  1.6924
  692SOL     MW 2768   2.897   1.656   1.471 -0.1335  0.1068  0.1647
  693SOL     OW 2769   2.245   0.401   0.134  0.0526  0.7508 -0.7375
  693SOL    HW1 2770   2.159   0.362   0.116 -1.3112 -1.6648  0.2050
  693SOL    HW2 2771   2.246   0.478   0.082 -0.3308 -2.2409 -0.4378
  693SOL     MW 2772   2.234   0.406   0.125 -0.1780  0.0374 -0.5736
  694SOL     OW 2773   1.904   1.213   1.168 -0.4443  0.0111  0.2087
  694SOL    HW1 2774   2.000   1.226   1.171 -0.2518  2.7887 -1.3296
  694SOL    HW2 2775   1.891   1.122   1.203 -2.2845 -0.3948  0.3430
  694SOL     MW 2776   1.915   1.202   1.173 -0.6617  0.3240  0.0234
  695SOL     OW 2777   3.028   1.509   1.299 -0.5397 -0.8834 -0.4432
  695SOL    HW1 2778   2.975   1.486   1.223  0.3767  2.1812 -0.0648
  695SOL    HW2 2779   2.972   1.579   1.350 -0.1893  2.1312 -0.6934
  695SOL     MW 2780   3.014   1.515   1.295 -0.3725 -0.0813 -0.4263
  696SOL     OW 2781   2.070   1.360   0.806  0.0277  0.1881 -0.0202
  696SOL    HW1 2782   2.094   1.417   0.882  1.7043  1.6659  3.6044
  696SOL    HW2 2783   2.041   1.283   0.846  0.4727 -1.3417  0.0448
  696SOL     MW 2784   2.069   1.357   0.821  0.3076  0.1812  0.4666
  697SOL     OW 2785   2.892   1.023   2.174 -0.9709 -0.3018  0.3072
  697SOL    HW1 2786   2.832   1.089   2.179  1.7402 -0.3504  2.2940
  697SOL    HW2 2787   2.846   0.940   2.158  0.6691 -1.0755  0.4955
  697SOL     MW 2788   2.878   1.021   2.173 -0.3968 -0.4103  0.5942
  698SOL     OW 2789   2.523   0.339   0.041  1.0120 -0.0360  0.2099
  698SOL    HW1 2790   2.432   0.358   0.061 -1.6136  1.6470 -1.0967
  698SOL    HW2 2791   2.561   0.276   0.110  1.6712 -3.9349  1.1962
  698SOL     MW 2792   2.516   0.333   0.052  0.7525 -0.3284  0.1676
  699SOL     OW 2793   1.846   1.569   2.067 -0.0847  0.8555 -0.1141
  699SOL    HW1 2794   1.787   1.493   2.050  0.7866 -0.4691  0.3225
  699SOL    HW2 2795   1.939   1.556   2.041  4.0067  0.9210 -0.1504
  699SOL     MW 2796   1.850   1.557   2.062  0.5701  0.6893 -0.0613
  700SOL     OW 2797   2.714   0.922   1.542  0.7378  0.0920 -0.1219
  700SOL    HW1 2798   2.739   0.998   1.487 -1.4862  3.8887  0.8502
  700SOL    HW2 2799   2.779   0.856   1.516 -1.3345 -0.7572 -0.3162
  700SOL     MW 2800   2.726   0.924   1.531  0.1710  0.4809 -0.0193
  701SOL     OW 2801   1.660   1.205   2.466  0.3467  0.0776 -0.8696
  701SOL    HW1 2802   1.753   1.187   2.465 -1.4751  0.0796  1.6953
  701SOL    HW2 2803   1.635   1.244   2.554 -2.6426  0.1502  1.0749
  701SOL     MW 2804   1.669   1.208   2.478 -0.2881  0.0874 -0.2746
  702SOL     OW 2805   2.152   0.412   0.845 -0.4032 -0.0933  0.1398
  702SOL    HW1 2806   2.121   0.346   0.783 -0.4617  2.2342 -0.3383
  702SOL    HW2 2807   2.209   0.477   0.792  2.9922 -0.1810  1.4064
  702SOL     MW 2808   2.155   0.412   0.829  0.0371  0.2022  0.2439
  703SOL     OW 2809   2.718   1.218   1.071 -0.1508 -0.3919  0.0223
  703SOL    HW1 2810   2.681   1.207   0.987  0.8790  0.6405 -0.1940
  703SOL    HW2 2811   2.749   1.129   1.100 -1.3867  2.6537 -0.2713
  703SOL     MW 2812   2.717   1.205   1.064 -0.1780  0.1461 -0.0450
  704SOL     OW 2813   3.095   1.164   0.096  0.9704  0.0924  0.5439
  704SOL    HW1 2814   3.003   1.184   0.121  1.6531 -0.3283 -0.8989
  704SOL    HW2 2815   3.130   1.121   0.178 -1.1835  0.0230  0.4844
  704SOL     MW 2816   3.087   1.161   0.110  0.7763  0.0277  0.3457
  705SOL     OW 2817   2.178   1.639   1.250 -0.2906  0.4721  0.3845
  705SOL    HW1 2818   2.101   1.683   1.283  0.6023 -0.3134 -1.4377
  705SOL    HW2 2819   2.176   1.543   1.262  0.6669 -0.1437  1.8393
  705SOL     MW 2820   2.168   1.632   1.256 -0.0465  0.2872  0.3360
  706SOL     OW 2821   3.035   1.256   0.650  0.1881 -0.1331  0.0237
  706SOL    HW1 2822   3.066   1.256   0.554 -0.8297  1.5488  1.0551
  706SOL    HW2 2823   2.989   1.339   0.651  0.5212 -1.1429 -3.5160
  706SOL     MW 2824   3.033   1.267   0.638  0.0978 -0.0444 -0.3073
  707SOL     OW 2825   2.294   0.050   1.034 -0.5270  0.0674 -0.4871
  707SOL    HW1 2826   2.349   0.103   0.979  0.0319 -0.2408  0.3235
  707SOL    HW2 2827   2.234   0.003   0.977  1.3101 -0.8759 -0.1568
  707SOL     MW 2828   2.293   0.050   1.019 -0.2109 -0.0977 -0.3365
  708SOL     OW 2829   2.416   1.449   0.219 -0.2598  0.0845 -0.2869
  708SOL    HW1 2830   2.477   1.378   0.249 -2.2019 -1.5546  1.7958
  708SOL    HW2 2831   2.450   1.481   0.137 -0.7412  0.1149  1.5991
  708SOL     MW 2832   2.429   1.444   0.212 -0.5795 -0.1278  0.2367
  709SOL     OW 2833   1.749   1.634   0.204 -0.1162  0.0580  0.5323
  709SOL    HW1 2834   1.736   1.647   0.107 -0.3237  0.4554 -0.4660
  709SOL    HW2 2835   1.660   1.649   0.241  0.9687 -0.9439  3.1583
  709SOL     MW 2836   1.736   1.638   0.196 -0.0004 -0.0218  0.7470
  710SOL     OW 2837   2.169   1.153   1.168  0.1687 -0.5620  0.1815
  710SOL    HW1 2838   2.205   1.104   1.093 -1.7595 -0.8685  1.2510
  710SOL    HW2 2839   2.174   1.080   1.235 -2.8018 -0.7622 -1.1076
  710SOL     MW 2840   2.174   1.137   1.167 -0.4776 -0.6288  0.1525
  711SOL     OW 2841   2.331   0.168   1.742 -0.3036 -0.5914  0.8348
  711SOL    HW1 2842   2.417   0.140   1.781  0.2913 -0.8999  0.3981
  711SOL    HW2 2843   2.356   0.181   1.651 -1.2519 -1.4951 -1.6466
  711SOL     MW 2844   2.345   0.166   1.735 -0.3502 -0.7514  0.4498
  712SOL     OW 2845   1.910   0.603   0.082 -0.2609  1.1933 -0.5428
  712SOL    HW1 2846   1.843   0.664   0.081  0.3920 -1.5232 -0.6409
  712SOL    HW2 2847   1.980   0.646   0.128  1.8419 -0.5542 -0.3097
  712SOL     MW 2848   1.910   0.616   0.088  0.1027  0.6043 -0.5250
  713SOL     OW 2849   2.568   0.831   1.087 -0.0319 -0.1267  0.2808
  713SOL    HW1 2850   2.561   0.743   1.102  2.0452  0.3432 -0.4013
  713SOL    HW2 2851   2.498   0.858   1.149  1.2781 -1.0357 -2.8783
  713SOL     MW 2852   2.558   0.823   1.097  0.4150 -0.1846 -0.2260
  714SOL     OW 2853   2.199   0.192   1.995 -0.4699 -0.1267 -0.4830
  714SOL    HW1 2854   2.264   0.144   2.055  0.9956 -0.5895  1.8585
  714SOL    HW2 2855   2.245   0.168   1.914 -0.8390 -0.0481  2.1588
  714SOL     MW 2856   2.214   0.182   1.992 -0.3252 -0.1774  0.1745
  715SOL     OW 2857   1.753   1.930   1.724  0.5930  0.1669  0.1036
  715SOL    HW1 2858   1.843   1.929   1.704 -1.6626  1.9328  1.2260
  715SOL    HW2 2859   1.736   1.867   1.796 -0.0236  0.6446  2.5357
  715SOL     MW 2860   1.762   1.922   1.731  0.2140  0.4629  0.5726
  716SOL     OW 2861   2.308   0.595   0.711  0.6413  0.0962  0.4043
  716SOL    HW1 2862   2.355   0.519   0.676 -0.2452  1.0782 -0.8241
  716SOL    HW2 2863   2.250   0.622   0.638  3.2481  0.4896 -1.7053
  716SOL     MW 2864   2.306   0.588   0.697  0.8683  0.2777 -0.0361
  717SOL     OW 2865   2.868   1.603   2.851 -0.2945 -0.1253 -0.0096
  717SOL    HW1 2866   2.953   1.572   2.881  1.0360 -1.1189 -2.6513
  717SOL    HW2 2867   2.825   1.650   2.924 -2.9676 -3.0329 -0.8766
  717SOL     MW 2868   2.874   1.605   2.865 -0.4716 -0.6400 -0.4725
  718SOL     OW 2869   2.699   1.419   1.333  0.0769 -0.3368  0.3973
  718SOL    HW1 2870   2.692   1.461   1.422  0.4034 -1.2900  1.6768
  718SOL    HW2 2871   2.723   1.326   1.342  1.1970  0.2311 -2.3564
  718SOL     MW 2872   2.701   1.412   1.346  0.2677 -0.3877  0.2028
  719SOL     OW 2873   2.219   1.254   0.610  0.2312 -0.0924 -0.4062
  719SOL    HW1 2874   2.307   1.287   0.603 -1.7775 -1.5954  0.8506
  719SOL    HW2 2875   2.187   1.300   0.689  0.0285  0.0458 -0.2200
  719SOL     MW 2876   2.226   1.265   0.620 -0.0606 -0.2725 -0.2158
  720SOL     OW 2877   2.820   1.212   0.062  0.5667  0.0990 -0.1305
  720SOL    HW1 2878   2.824   1.114   0.086 -1.0068  0.3743 -0.0291
  720SOL    HW2 2879   2.740   1.249   0.108 -0.6809 -0.2137 -2.2646
  720SOL     MW 2880   2.810   1.204   0.071  0.1945  0.0940 -0.3987
  721SOL     OW 2881   2.505   0.861   1.401  0.2547  0.8546  0.3438
  721SOL    HW1 2882   2.495   0.764   1.412 -0.6367  2.2167 -3.1123
  721SOL    HW2 2883   2.577   0.888   1.463 -1.1819  0.5709  1.5764
  721SOL     MW 2884   2.513   0.852   1.411 -0.0525  0.9969  0.0504
  722SOL     OW 2885   2.564   1.100   0.413 -0.6541 -1.0231 -0.2350
  722SOL    HW1 2886   2.498   1.154   0.455  1.5184  1.6000  2.5980
  722SOL    HW2 2887   2.637   1.101   0.470 -0.5261  2.1567  1.0695
  722SOL     MW 2888   2.565   1.107   0.426 -0.3506 -0.2575  0.3109
  723SOL     OW 2889   2.320   1.413   1.581  0.7005 -0.0017  0.1685
  723SOL    HW1 2890   2.296   1.409   1.490 -0.2460  0.2711  1.4509
  723SOL    HW2 2891   2.249   1.460   1.623  1.0301  1.5818  0.7942
  723SOL     MW 2892   2.308   1.419   1.574  0.6191  0.2432  0.4202
  724SOL     OW 2893   2.437   0.391   0.607  0.0563 -0.0240 -0.4379
  724SOL    HW1 2894   2.458   0.307   0.644  2.5601 -0.0128 -1.3129
  724SOL    HW2 2895   2.508   0.423   0.552 -1.2942 -0.0318  0.3526
  724SOL     MW 2896   2.449   0.384   0.604  0.2084 -0.0236 -0.4490
  725SOL     OW 2897   2.566   0.555   1.204  0.7605 -0.6999 -0.4226
  725SOL    HW1 2898   2.660   0.559   1.216 -2.0631 -1.0651 -1.8231
  725SOL    HW2 2899   2.537   0.509   1.281 -1.7758 -1.9511 -0.4959
  725SOL     MW 2900   2.575   0.550   1.216  0.0533 -0.9131 -0.6171
  726SOL     OW 2901   2.566   2.467   0.570  0.4582 -0.1029 -0.2207
  726SOL    HW1 2902   2.513   2.516   0.507 -1.8986  2.3183  2.0030
  726SOL    HW2 2903   2.515   2.479   0.652  2.5543 -0.4249 -2.4627
  726SOL     MW 2904   2.553   2.475   0.572  0.4238  0.1740 -0.2231
  727SOL     OW 2905   2.885   0.323   1.737 -0.8264 -0.0192  0.8572
  727SOL    HW1 2906   2.825   0.302   1.665  1.8902 -0.6861  2.5675
  727SOL    HW2 2907   2.844   0.302   1.817  0.7537 -1.6479 -2.7439
  727SOL     MW 2908   2.872   0.318   1.738 -0.2595 -0.3221  0.6077
  728SOL     OW 2909   2.765   1.136   2.895 -0.1027 -0.5193  0.1056
  728SOL    HW1 2910   2.786   1.201   2.827  2.5315  0.8821  0.8839
  728SOL    HW2 2911   2.774   1.179   2.979 -0.2053  0.3058 -0.4736
  728SOL     MW 2912   2.769   1.150   2.897  0.2313 -0.2255  0.1319
  729SOL     OW 2913   2.502   1.468   1.168 -0.0349 -0.5173  0.3665
  729SOL    HW1 2914   2.594   1.444   1.205  0.5328  1.2558 -0.2088
  729SOL    HW2 2915   2.503   1.437   1.077 -1.7917 -2.0479  0.0999
  729SOL     MW 2916   2.515   1.461   1.161 -0.1918 -0.4853  0.2554
  730SOL     OW 2917   2.290   1.194   0.179 -0.1175 -0.3344  0.1754
  730SOL    HW1 2918   2.365   1.139   0.166  4.0093  2.0756  2.3851
  730SOL    HW2 2919   2.330   1.284   0.173  1.5717  0.1877  2.0479
  730SOL     MW 2920   2.305   1.198   0.176  0.6498  0.0525  0.7140
  731SOL     OW 2921   2.776   1.977   2.897 -0.0346  0.5193  0.5476
  731SOL    HW1 2922   2.717   2.018   2.837  1.8439 -0.3830  1.9872
  731SOL    HW2 2923   2.863   2.002   2.875  0.0855  0.2768 -1.0412
  731SOL     MW 2924   2.780   1.986   2.886  0.2291  0.3682  0.5279
  732SOL     OW 2925   2.223   0.890   1.349  0.4150 -0.4850  0.2802
  732SOL    HW1 2926   2.161   0.903   1.423  1.6569 -2.1229  1.4466
  732SOL    HW2 2927   2.306   0.872   1.391 -2.5970  0.1354 -0.8331
  732SOL     MW 2928   2.225   0.889   1.365  0.1814 -0.6192  0.2872
  733SOL     OW 2929   2.356   2.798   3.007  0.1286  1.0541 -0.1586
  733SOL    HW1 2930   2.286   2.844   2.958 -0.2963  0.4918  0.2077
  733SOL    HW2 2931   2.338   2.706   3.016  0.0478  0.6419  0.8231
  733SOL     MW 2932   2.345   2.792   3.002  0.0619  0.9255  0.0193
  734SOL     OW 2933   1.445   0.329   2.439  0.6576 -0.8459 -0.4175
  734SOL    HW1 2934   1.423   0.287   2.521 -2.7969 -1.7086 -0.6960
  734SOL    HW2 2935   1.494   0.263   2.383  3.8003  0.7650 -0.0785
  734SOL     MW 2936   1.448   0.315   2.442  0.6165 -0.7472 -0.4095
  735SOL     OW 2937   2.916   0.908   2.636  0.0158  0.0538 -0.4484
  735SOL    HW1 2938   2.900   0.813   2.647 -1.1180 -2.3870  0.7237
  735SOL    HW2 2939   2.961   0.919   2.718 -0.2120 -1.6372 -1.3504
  735SOL     MW 2940   2.920   0.897   2.648 -0.1638 -0.4914 -0.4128
  736SOL     OW 2941   0.101   0.607   2.502 -0.1150  0.5348 -0.0198
  736SOL    HW1 2942   0.134   0.685   2.460 -0.2502 -1.5534 -2.1950
  736SOL    HW2 2943   0.089   0.545   2.428 -0.6918 -0.6672  2.0045
  736SOL     MW 2944   0.104   0.609   2.487 -0.2089  0.1007 -0.0397
  737SOL     OW 2945   2.933   0.621   2.598  0.1527 -0.1193  0.0260
  737SOL    HW1 2946   2.864   0.601   2.535 -1.6881 -0.6944 -0.9380
  737SOL    HW2 2947   3.020   0.608   2.557  0.8201 -2.0389 -0.0169
  737SOL     MW 2948   2.935   0.617   2.584 -0.0021 -0.4484 -0.1069
  738SOL     OW 2949   0.118   0.587   1.938 -0.2175  0.5159  0.6762
  738SOL    HW1 2950   0.189   0.647   1.910  0.4839 -1.2432 -1.2848
  738SOL    HW2 2951   0.157   0.500   1.935  1.2842  0.9728  1.7619
  738SOL     MW 2952   0.132   0.584   1.934  0.0731  0.3441  0.5607
  739SOL     OW 2953   2.494   0.984   2.030 -0.0681 -0.3115  0.3447
  739SOL    HW1 2954   2.426   0.920   2.014 -0.2744 -0.2593 -0.6602
  739SOL    HW2 2955   2.506   1.049   1.962  0.4812 -0.8391 -0.0350
  739SOL     MW 2956   2.486   0.984   2.019 -0.0229 -0.3742  0.1620
  740SOL     OW 2957   0.240   1.746   2.967 -0.4666  0.0325 -0.0177
  740SOL    HW1 2958   0.186   1.665   2.965  0.5569  0.9031  2.2642
  740SOL    HW2 2959   0.333   1.716   2.962  1.1983 -1.1772 -0.3554
  740SOL     MW 2960   0.245   1.731   2.966 -0.1119 -0.0122  0.2389
  741SOL     OW 2961   2.207   1.097   2.766  0.0999  0.5540  0.2379
  741SOL    HW1 2962   2.112   1.113   2.756  0.0367 -2.4790  1.1991
  741SOL    HW2 2963   2.237   1.171   2.817 -3.7794 -0.1780  0.0250
  741SOL     MW 2964   2.198   1.109   2.771 -0.4202  0.0573  0.3366
  742SOL     OW 2965   1.551   1.207   2.214  0.5208 -0.0694 -0.0010
  742SOL    HW1 2966   1.528   1.115   2.191  1.5307 -1.3981  1.4258
  742SOL    HW2 2967   1.590   1.211   2.303 -0.7313 -1.9442 -0.8757
  742SOL     MW 2968   1.553   1.196   2.223  0.4889 -0.4921  0.0718
  743SOL     OW 2969   2.483   1.303   2.720  0.6023  0.4725  0.1477
  743SOL    HW1 2970   2.400   1.309   2.685 -0.5390  0.0549 -0.1077
  743SOL    HW2 2971   2.505   1.211   2.733  0.6224 -1.4125 -1.0589
  743SOL     MW 2972   2.475   1.291   2.717  0.4544  0.1687 -0.0452
  744SOL     OW 2973   2.759   0.924   1.793  0.4177 -0.5281  0.4428
  744SOL    HW1 2974   2.669   0.962   1.820  0.6313  1.0992  0.1309
  744SOL    HW2 2975   2.757   0.940   1.697 -0.2213  1.6644  1.9080
  744SOL     MW 2976   2.747   0.931   1.784  0.3616 -0.0241  0.5950
  745SOL     OW 2977   1.687   0.448   2.488 -0.0672 -0.7648  0.4050
  745SOL    HW1 2978   1.686   0.470   2.395  0.0098 -0.5202 -1.0187
  745SOL    HW2 2979   1.606   0.398   2.503 -1.3486  0.0259  1.1269
  745SOL     MW 2980   1.676   0.444   2.478 -0.2261 -0.6282  0.3124
  746SOL     OW 2981   1.554   1.469   1.579  0.3019  0.3428  0.5447
  746SOL    HW1 2982   1.644   1.489   1.604  0.8858  0.6127  1.0285
  746SOL    HW2 2983   1.531   1.418   1.660 -1.3309  2.2211  2.3728
  746SOL     MW 2984   1.563   1.465   1.593  0.1635  0.6263  0.8498
  747SOL     OW 2985   2.554   1.141   1.814  0.3165  0.2977 -0.1364
  747SOL    HW1 2986   2.461   1.163   1.796 -1.3474  1.1500  1.5955
  747SOL    HW2 2987   2.569   1.228   1.858  0.3269 -0.0145  1.4962
  747SOL     MW 2988   2.544   1.156   1.817  0.0983  0.3690  0.3075
  748SOL     OW 2989   0.098   3.087   1.832 -0.2293 -0.6223 -0.3457
  748SOL    HW1 2990   0.181   3.116   1.784  3.1027 -0.9409  0.2393
  748SOL    HW2 2991   0.090   3.153   1.907 -0.1320 -0.1005  1.7985
  748SOL     MW 2992   0.108   3.100   1.835  0.2231 -0.5955  0.0144
  749SOL     OW 2993   2.452   0.518   2.728 -0.3502  0.0643 -0.7327
  749SOL    HW1 2994   2.452   0.578   2.648  3.0264  2.0149  0.3083
  749SOL    HW2 2995   2.470   0.569   2.807  0.1213 -1.3182 -1.8190
  749SOL     MW 2996   2.454   0.533   2.728  0.1575  0.1393 -0.7387
  750SOL     OW 2997   2.022   3.063   2.002  0.0191 -0.2615 -0.1468
  750SOL    HW1 2998   2.072   3.141   2.003  0.6361 -1.6803  1.3554
  750SOL    HW2 2999   2.092   3.001   2.001 -1.4221 -2.5645  0.5270
  750SOL     MW 3000   2.038   3.065   2.002 -0.0896 -0.7525  0.1403
  751SOL     OW 3001   0.052   0.411   2.308 -0.5823  0.1713 -0.0704
  751SOL    HW1 3002  -0.028   0.374   2.337  1.7782 -0.7510 -0.5684
  751SOL    HW2 3003   0.108   0.342   2.268  0.2172 -0.4738  1.8101
  751SOL     MW 3004   0.049   0.397   2.307 -0.1653 -0.0355  0.1120
  752SOL     OW 3005   2.145   0.823   2.683  0.2897  0.0893  0.2672
  752SOL    HW1 3006   2.205   0.898   2.671 -0.0404  0.6849 -1.1637
  752SOL    HW2 3007   2.115   0.828   2.778 -1.2557  0.7245 -1.0411
  752SOL     MW 3008   2.149   0.833   2.694  0.0422  0.2517 -0.0943
  753SOL     OW 3009   2.914   0.293   2.403  0.1712  1.1279  0.0092
  753SOL    HW1 3010   2.856   0.229   2.365 -1.2742 -1.1822 -0.2870
  753SOL    HW2 3011   2.849   0.368   2.407 -0.8369  3.5311  0.4845
  753SOL     MW 3012   2.898   0.294   2.398 -0.1525  1.1402  0.0329
  754SOL     OW 3013   2.261   2.985   2.615 -0.2176  0.4591  0.2744
  754SOL    HW1 3014   2.277   2.982   2.519 -2.6169 -2.1361 -1.7721
  754SOL    HW2 3015   2.339   2.951   2.660 -2.7679  2.4264  1.0449
  754SOL     MW 3016   2.273   2.980   2.608 -0.8706  0.3762  0.1061
  755SOL     OW 3017   2.718   1.514   2.505  0.1607 -0.1528 -0.2786
  755SOL    HW1 3018   2.696   1.459   2.578  0.1987 -0.5857  2.6144
  755SOL    HW2 3019   2.787   1.574   2.539 -0.7518  1.2114 -0.9741
  755SOL     MW 3020   2.724   1.515   2.519  0.0453 -0.0299  0.0114
  756SOL     OW 3021   2.264   1.282   2.987 -0.4254 -0.1186  0.1228
  756SOL    HW1 3022   2.317   1.362   3.001 -0.9045  1.4752 -1.0433
  756SOL    HW2 3023   2.328   1.207   2.993  1.0959 -1.7569  1.4900
  756SOL     MW 3024   2.279   1.282   2.990 -0.2879 -0.1245  0.1493
  757SOL     OW 3025   2.095   0.951   1.607 -0.3786  0.3879 -0.2059
  757SOL    HW1 3026   2.133   0.864   1.613 -0.6260 -0.4414 -0.3361
  757SOL    HW2 3027   1.999   0.934   1.601 -1.6657  0.1967  1.8363
  757SOL     MW 3028   2.088   0.938   1.607 -0.5811  0.2533  0.0464
  758SOL     OW 3029   2.191   1.754   2.633  0.2294 -0.0155  0.5120
  758SOL    HW1 3030   2.168   1.782   2.540  1.7394 -1.5013 -1.0492
  758SOL    HW2 3031   2.287   1.761   2.633 -0.3793  0.1524 -0.4865
  758SOL     MW 3032   2.200   1.759   2.621  0.3483 -0.1894  0.1743
  759SOL     OW 3033   1.618   1.356   2.708  0.0626 -0.2382  0.2893
  759SOL    HW1 3034   1.629   1.439   2.651  0.3177 -0.2799 -0.3174
  759SOL    HW2 3035   1.667   1.362   2.792  1.1095 -1.3924 -1.3158
  759SOL     MW 3036   1.626   1.368   2.712  0.2344 -0.3960 -0.0025
  760SOL     OW 3037   2.574   2.008   2.680  0.0682 -0.1575  0.2223
  760SOL    HW1 3038   2.532   1.922   2.650  0.0165  0.2930  2.5210
  760SOL    HW2 3039   2.561   2.067   2.606  1.7443  2.9292 -0.1774
  760SOL     MW 3040   2.567   2.005   2.666  0.2826  0.3092  0.4729
  761SOL     OW 3041   2.167   0.416   2.479  0.6992 -0.1218 -0.6748
  761SOL    HW1 3042   2.079   0.379   2.478 -1.4622  1.0026 -1.8740
  761SOL    HW2 3043   2.180   0.438   2.572  0.4583 -1.3344  1.2514
  761SOL     MW 3044   2.157   0.414   2.491  0.3822 -0.1334 -0.5789
  762SOL     OW 3045   0.033   0.161   2.046  0.2915 -0.0813  0.2132
  762SOL    HW1 3046   0.009   0.119   2.129  0.3247  0.4456  0.2002
  762SOL    HW2 3047  -0.028   0.235   2.047  2.3435  0.1903  0.5014
  762SOL     MW 3048   0.022   0.165   2.057  0.5666  0.0241  0.2495
  763SOL     OW 3049   2.396   1.077   2.291 -0.1050  0.1100 -0.1134
  763SOL    HW1 3050   2.448   1.042   2.215 -0.9884 -0.7382 -1.6340
  763SOL    HW2 3051   2.450   1.147   2.334 -1.7132 -1.8461 -1.2467
  763SOL     MW 3052   2.410   1.081   2.286 -0.4337 -0.2600 -0.4635
  764SOL     OW 3053   0.458   0.295   2.795  0.0230  0.1834  0.0990
  764SOL    HW1 3054   0.381   0.252   2.770  1.1649  0.5763 -2.6595
  764SOL    HW2 3055   0.440   0.378   2.837 -0.8300  0.3630  0.1737
  764SOL     MW 3056   0.445   0.300   2.797  0.0611  0.2590 -0.2551
  765SOL     OW 3057   2.781   0.090   2.298  0.0887 -0.2004  0.3757
  765SOL    HW1 3058   2.727   0.097   2.219  1.0199 -0.1479  0.5125
  765SOL    HW2 3059   2.815  -0.004   2.299 -0.0727 -0.7396  0.4694
  765SOL     MW 3060   2.779   0.078   2.288  0.1902 -0.2646  0.4061
  766SOL     OW 3061   1.876   3.002   2.234  0.0230  0.1138  0.2105
  766SOL    HW1 3062   1.906   3.048   2.155 -1.4724 -0.2151 -1.2162
  766SOL    HW2 3063   1.824   2.932   2.197  0.6894 -3.9485 -0.5775
  766SOL     MW 3064   1.873   2.999   2.219 -0.0864 -0.4655 -0.0817
  767SOL     OW 3065   2.621   0.619   1.922 -0.4868 -0.1628 -0.3425
  767SOL    HW1 3066   2.675   0.687   1.967 -0.3117  1.4899 -2.3779
  767SOL    HW2 3067   2.529   0.629   1.955 -0.1048 -0.6133 -0.3733
  767SOL     MW 3068   2.616   0.629   1.932 -0.4133 -0.0042 -0.6151
  768SOL     OW 3069   0.044   1.527   2.955  0.2072 -0.1129  0.4200
  768SOL    HW1 3070   0.042   1.506   3.051  2.4993  2.7749  0.1910
  768SOL    HW2 3071   0.028   1.443   2.896 -1.3244 -0.0040 -1.6678
  768SOL     MW 3072   0.041   1.513   2.960  0.3075  0.2825  0.1143
  769SOL     OW 3073   2.364   0.687   2.283  0.0979 -0.2029  0.7601
  769SOL    HW1 3074   2.275   0.666   2.278  1.5585  1.8518  2.0449
  769SOL    HW2 3075   2.399   0.647   2.207 -0.6404  1.4221  1.7625
  769SOL     MW 3076   2.357   0.679   2.272  0.1932  0.2826  1.0619
  770SOL     OW 3077   0.076   1.605   2.599 -0.1463  0.3076  0.2110
  770SOL    HW1 3078  -0.022   1.617   2.588  1.2337 -0.3349  0.3929
  770SOL    HW2 3079   0.091   1.536   2.658 -2.1638 -0.1864 -0.4275
  770SOL     MW 3080   0.065   1.597   2.605 -0.2304  0.1576  0.1508
  771SOL     OW 3081   2.951   0.641   1.928  0.2795  0.0329 -0.3398
  771SOL    HW1 3082   2.920   0.607   1.848  1.4151  2.5770 -0.9018
  771SOL    HW2 3083   3.047   0.634   1.935 -0.6211  1.0894  0.4935
  771SOL     MW 3084   2.960   0.636   1.918  0.3105  0.5080 -0.3040
  772SOL     OW 3085   0.003   3.092   2.260  0.0279 -0.3541  0.2407
  772SOL    HW1 3086  -0.082   3.052   2.278 -0.4829 -3.4073 -0.8275
  772SOL    HW2 3087   0.072   3.013   2.247 -0.3677  0.9741  1.2382
  772SOL     MW 3088   0.001   3.076   2.261 -0.0917 -0.5817  0.2314
  773SOL     OW 3089   2.459   2.852   2.742  0.3692 -0.1114  0.6075
  773SOL    HW1 3090   2.450   2.764   2.706  0.8144 -0.7050  0.4079
  773SOL    HW2 3091   2.451   2.845   2.837  0.9495  0.0603  1.2086
  773SOL     MW 3092   2.457   2.839   2.750  0.5045 -0.1671  0.6605
  774SOL     OW 3093   2.282   1.171   1.739 -0.5686  0.2785  0.1345
  774SOL    HW1 3094   2.294   1.216   1.651 -0.0202 -1.6654 -1.5554
  774SOL    HW2 3095   2.218   1.104   1.718  1.2603  3.8314 -1.0303
  774SOL     MW 3096   2.275   1.168   1.724 -0.2549  0.4908 -0.2422
  775SOL     OW 3097   2.305   2.911   2.311 -0.3002 -0.2444 -0.1683
  775SOL    HW1 3098   2.324   2.982   2.251  0.2003 -3.6634 -0.8716
  775SOL    HW2 3099   2.377   2.848   2.289 -0.0522  3.0098 -2.9455
  775SOL     MW 3100   2.317   2.912   2.300 -0.2014 -0.2662 -0.6275
  776SOL     OW 3101   0.027   1.454   0.117  0.5024  0.0424 -0.3300
  776SOL    HW1 3102   0.114   1.409   0.109 -2.6557  2.2296 -0.1619
  776SOL    HW2 3103  -0.031   1.390   0.147 -0.1704 -1.5852 -3.4583
  776SOL     MW 3104   0.031   1.440   0.120 -0.0031  0.1163 -0.7205
  777SOL     OW 3105   3.005   1.069   1.763 -0.2528 -0.0701  0.1236
  777SOL    HW1 3106   2.989   1.164   1.750 -1.7309 -0.3949 -0.4392
  777SOL    HW2 3107   2.920   1.035   1.783 -0.8123 -2.7283  0.1310
  777SOL     MW 3108   2.991   1.077   1.764 -0.5216 -0.4636  0.0503
  778SOL     OW 3109   2.891   0.405   2.757 -0.4224 -0.1312  0.0839
  778SOL    HW1 3110   2.835   0.431   2.832  0.1252  0.5191 -2.0884
  778SOL    HW2 3111   2.899   0.481   2.702  0.4137  1.0869  2.5573
  778SOL     MW 3112   2.885   0.418   2.760 -0.2399  0.1153  0.1236
  779SOL     OW 3113   2.092   0.619   2.298  0.1816  0.0204  0.1500
  779SOL    HW1 3114   2.012   0.674   2.324 -0.0130  1.3449  0.6983
  779SOL    HW2 3115   2.085   0.551   2.356  0.6423  3.5223 -0.4378
  779SOL     MW 3116   2.081   0.617   2.309  0.2167  0.6572  0.1448
  780SOL     OW 3117   0.211   0.127   2.792  0.0812 -0.2329  0.6212
  780SOL    HW1 3118   0.179   0.170   2.870  0.3620  2.6120 -0.9741
  780SOL    HW2 3119   0.126   0.123   2.749 -0.9323  0.0099  1.9573
  780SOL     MW 3120   0.196   0.132   2.797 -0.0155  0.1745  0.5870
  781SOL     OW 3121   3.027   1.330   2.498 -0.5228 -0.3811 -0.0048
  781SOL    HW1 3122   3.007   1.386   2.423 -2.5312 -1.1783  1.4793
  781SOL    HW2 3123   3.027   1.245   2.457 -0.8433 -3.3604 -1.1408
  781SOL     MW 3124   3.024   1.326   2.483 -0.8301 -0.8793  0.0411
  782SOL     OW 3125   0.684   1.555   0.004 -0.7137 -0.0913  0.3428
  782SOL    HW1 3126   0.622   1.615  -0.038  0.0636 -0.0247 -0.4479
  782SOL    HW2 3127   0.642   1.546   0.091 -2.1738 -0.7481  3.3342
  782SOL     MW 3128   0.671   1.562   0.010 -0.8038 -0.1692  0.6332
  783SOL     OW 3129   2.716   0.471   2.430  0.3518  0.1760  0.2528
  783SOL    HW1 3130   2.675   0.449   2.343 -1.3200 -0.9301  1.6135
  783SOL    HW2 3131   2.667   0.409   2.484  1.9713 -2.7118 -1.7794
  783SOL     MW 3132   2.704   0.460   2.426  0.3449 -0.3510  0.1642
  784SOL     OW 3133   0.287   0.906   2.875  0.4677  0.5185 -0.7427
  784SOL    HW1 3134   0.247   0.983   2.915 -0.9022  0.1387 -1.0616
  784SOL    HW2 3135   0.327   0.942   2.793 -3.2640 -0.8831  2.6818
  784SOL     MW 3136   0.287   0.921   2.870 -0.2054  0.2834 -0.3330
  785SOL     OW 3137   0.422   0.504   2.188  0.3125  0.2513 -0.2428
  785SOL    HW1 3138   0.400   0.550   2.109 -3.1806  1.2740 -0.9257
  785SOL    HW2 3139   0.341   0.452   2.197  0.3390  2.4677  1.6232
  785SOL     MW 3140   0.409   0.504   2.179 -0.1449  0.6787 -0.0867
  786SOL     OW 3141   1.940   0.496   2.892  0.0551 -0.0827 -0.0953
  786SOL    HW1 3142   1.973   0.530   2.976 -1.1261 -0.5229 -5.0877
  786SOL    HW2 3143   2.015   0.466   2.834 -1.0147  3.2311  1.9788
  786SOL     MW 3144   1.955   0.496   2.895 -0.2419  0.2964 -0.4803
  787SOL     OW 3145   2.423   0.137   2.962  0.0691 -0.4877  0.3325
  787SOL    HW1 3146   2.487   0.084   2.914 -1.6765 -0.0464  0.8210
  787SOL    HW2 3147   2.468   0.223   2.981 -0.6015  2.0143 -0.8801
  787SOL     MW 3148   2.437   0.142   2.959 -0.2497 -0.0993  0.2370
  788SOL     OW 3149   2.869   2.941   2.367 -0.0313 -0.2784  0.3965
  788SOL    HW1 3150   2.817   2.928   2.440 -1.6429  1.8384 -0.8913
  788SOL    HW2 3151   2.919   2.857   2.374  1.0478 -0.6280 -1.8234
  788SOL     MW 3152   2.868   2.928   2.378 -0.1015 -0.0452 -0.0663
  789SOL     OW 3153   0.097   0.311   2.956  0.2396 -0.1304  0.3987
  789SOL    HW1 3154   0.008   0.296   2.991  0.2832 -0.3815  1.6223
  789SOL    HW2 3155   0.076   0.377   2.896  1.5588 -2.1146  0.7332
  789SOL     MW 3156   0.082   0.318   2.953  0.4194 -0.4253  0.6042
  790SOL     OW 3157   3.032   1.062   2.432 -0.2534  0.1593  0.1039
  790SOL    HW1 3158   3.016   1.002   2.502 -1.4106 -2.2283 -1.7012
  790SOL    HW2 3159   3.005   1.023   2.347  1.4506  1.0573 -0.7159
  790SOL     MW 3160   3.027   1.049   2.430 -0.1813 -0.0372 -0.2424
  791SOL     OW 3161   2.648   0.312   2.654  0.7795 -0.3673  0.5507
  791SOL    HW1 3162   2.578   0.373   2.679  2.8519  1.1533 -3.1211
  791SOL    HW2 3163   2.717   0.341   2.707  0.1124  0.1243  0.1229
  791SOL     MW 3164   2.648   0.324   2.664  0.9649 -0.1018  0.0098
  792SOL     OW 3165   2.361   0.266   2.363 -0.1169 -0.3196 -0.0981
  792SOL    HW1 3166   2.300   0.326   2.415  0.0185 -0.9377  1.5576
  792SOL    HW2 3167   2.393   0.200   2.423  1.4999  0.8107 -2.8105
  792SOL     MW 3168   2.358   0.265   2.378  0.1143 -0.2520 -0.2375
  793SOL     OW 3169   1.854   1.079   1.958  0.1937 -0.0460 -0.6874
  793SOL    HW1 3170   1.853   1.083   1.867  0.7966 -1.4673 -1.1105
  793SOL    HW2 3171   1.886   0.989   1.973 -0.4643  0.7634 -0.6297
  793SOL     MW 3172   1.858   1.068   1.948  0.1864 -0.1267 -0.7356
  794SOL     OW 3173   1.449   2.267   0.175 -0.1820  0.1259 -0.2159
  794SOL    HW1 3174   1.469   2.336   0.119  0.1286  0.2721 -1.0477
  794SOL    HW2 3175   1.513   2.276   0.246  2.4658  1.2564 -1.9348
  794SOL     MW 3176   1.460   2.277   0.177  0.2083  0.2944 -0.5524
  795SOL     OW 3177   2.353   0.971   2.562  0.0427  0.0432  0.0516
  795SOL    HW1 3178   2.342   1.038   2.631  0.6722 -0.7967 -0.5940
  795SOL    HW2 3179   2.359   1.019   2.485 -0.4202 -0.2360 -0.1525
  795SOL     MW 3180   2.352   0.986   2.561  0.0647 -0.1044 -0.0605
  796SOL     OW 3181   0.238   0.598   2.770 -0.7590  0.2366  0.7544
  796SOL    HW1 3182   0.221   0.692   2.795  3.0696 -0.7446  0.4270
  796SOL    HW2 3183   0.178   0.587   2.694 -0.3088 -0.6956  1.3152
  796SOL     MW 3184   0.228   0.609   2.763 -0.1945 -0.0159  0.7852
  797SOL     OW 3185   2.561   0.087   2.514 -0.0075 -0.2392  0.4204
  797SOL    HW1 3186   2.595   0.161   2.549 -0.4548 -0.0561 -0.8111
  797SOL    HW2 3187   2.630   0.068   2.447  2.3244 -0.5683  0.2535
  797SOL     MW 3188   2.575   0.094   2.510  0.2412 -0.2585  0.2359
  798SOL     OW 3189   2.343   0.050   2.165  0.3295 -0.1128 -0.2354
  798SOL    HW1 3190   2.349   0.110   2.240 -0.2270  1.4731 -2.5714
  798SOL    HW2 3191   2.429   0.036   2.137 -1.4111 -1.1042 -0.5593
  798SOL     MW 3192   2.355   0.056   2.171  0.0264 -0.0343 -0.5864
  799SOL     OW 3193   2.453   2.910   0.123 -0.2014 -0.0868 -0.3211
  799SOL    HW1 3194   2.407   2.862   0.050  0.0598 -0.2903  1.2373
  799SOL    HW2 3195   2.409   2.993   0.123  1.4296 -0.4980  0.0324
  799SOL     MW 3196   2.441   2.914   0.113  0.0483 -0.1679 -0.0688
  800SOL     OW 3197   1.831   3.092   1.794 -0.1163  0.6337  0.4858
  800SOL    HW1 3198   1.782   3.006   1.791  1.0444  0.0146 -1.0291
  800SOL    HW2 3199   1.898   3.073   1.855  0.5310 -0.7412 -1.0161
  800SOL     MW 3200   1.833   3.078   1.802  0.1223  0.3706  0.0878
  801SOL     OW 3201   2.802   1.270   2.644  0.2556  0.0716 -0.3697
  801SOL    HW1 3202   2.807   1.182   2.612 -0.0307 -2.6561 -2.0534
  801SOL    HW2 3203   2.880   1.308   2.612 -2.9757  1.3831  2.6038
  801SOL     MW 3204   2.813   1.264   2.635 -0.2085 -0.1152 -0.1995
  802SOL     OW 3205   2.569   1.540   2.807 -0.4633  0.0120  0.0407
  802SOL    HW1 3206   2.546   1.444   2.798 -0.0768  2.7954  0.8682
  802SOL    HW2 3207   2.662   1.544   2.825  1.4138  0.8877 -1.7075
  802SOL     MW 3208   2.578   1.527   2.809 -0.1646  0.4948 -0.0808
  803SOL     OW 3209   2.283   1.367   1.951  0.0104 -0.9972 -0.2674
  803SOL    HW1 3210   2.260   1.337   2.035  3.9572 -3.7854 -4.4574
  803SOL    HW2 3211   2.267   1.304   1.881 -0.1174  1.7343 -3.3316
  803SOL     MW 3212   2.278   1.355   1.953  0.5142 -1.0046 -1.2245
  804SOL     OW 3213   2.288   0.037   0.060  0.0017 -0.3099  0.5162
  804SOL    HW1 3214   2.212   0.099   0.069  0.8319  1.1811  0.8042
  804SOL    HW2 3215   2.335   0.077  -0.016  0.2724 -1.3501 -1.9186
  804SOL     MW 3216   2.284   0.050   0.051  0.1470 -0.2504  0.2330
  805SOL     OW 3217   2.702   1.021   2.507  0.2839  0.3922  0.3671
  805SOL    HW1 3218   2.741   1.029   2.422 -0.0339  3.5071  0.9730
  805SOL    HW2 3219   2.766   0.973   2.558  2.2180 -0.4313 -2.1430
  805SOL     MW 3220   2.715   1.016   2.503  0.4972  0.6946  0.1158
  806SOL     OW 3221   2.558   0.392   2.215  0.3764  0.1384  0.1045
  806SOL    HW1 3222   2.482   0.353   2.262 -1.3966 -0.9235  2.3341
  806SOL    HW2 3223   2.524   0.420   2.132  1.2561 -0.4140 -1.6191
  806SOL     MW 3224   2.544   0.390   2.210  0.2585 -0.0746  0.1713
  807SOL     OW 3225   0.054   1.149   2.077  0.1117 -0.0008 -0.8772
  807SOL    HW1 3226   0.103   1.075   2.029  1.1208  0.2402 -0.5652
  807SOL    HW2 3227  -0.035   1.115   2.108  1.6805  0.8297 -0.3987
  807SOL     MW 3228   0.049   1.135   2.075  0.4518  0.1406 -0.7729
  808SOL     OW 3229   2.581   3.098   2.776  0.1533  0.0554  0.2881
  808SOL    HW1 3230   2.549   3.007   2.766 -0.3103  0.1566 -0.2143
  808SOL    HW2 3231   2.575   3.138   2.688 -1.5977  4.2904 -2.9025
  808SOL     MW 3232   2.576   3.091   2.763 -0.1389  0.6275 -0.1992
  809SOL     OW 3233   2.560   1.267   2.414 -0.2438 -0.3318  0.2029
  809SOL    HW1 3234   2.597   1.242   2.497  0.4350 -0.7195 -4.0509
  809SOL    HW2 3235   2.633   1.270   2.357 -1.0599  0.8240  0.6894
  809SOL     MW 3236   2.575   1.264   2.418 -0.2619 -0.2304 -0.2942
  810SOL     OW 3237   2.259   1.295   2.234 -0.3533  0.1426 -0.0392
  810SOL    HW1 3238   2.323   1.218   2.232  1.0089 -0.8529 -2.4888
  810SOL    HW2 3239   2.168   1.258   2.239 -2.0117 -0.8567  0.2687
  810SOL     MW 3240   2.255   1.280   2.234 -0.3924 -0.1206 -0.3218
  811SOL     OW 3241   1.535   0.133   2.281 -0.2608 -0.0091  0.6450
  811SOL    HW1 3242   1.633   0.106   2.301  0.0882 -0.0947 -2.0184
  811SOL    HW2 3243   1.540   0.131   2.184 -3.0114  0.4126 -1.6140
  811SOL     MW 3244   1.549   0.129   2.270 -0.5776  0.0352 -0.0044
  812SOL     OW 3245   1.437   2.791   2.111 -0.3884 -0.5417 -0.3888
  812SOL    HW1 3246   1.527   2.802   2.072 -0.5215 -0.8537 -0.9363
  812SOL    HW2 3247   1.460   2.773   2.204 -0.1319 -2.3478 -0.6242
  812SOL     MW 3248   1.452   2.790   2.118 -0.3721 -0.8212 -0.4921
  813SOL     OW 3249   1.777   0.721   2.194 -0.3230  0.3982  0.3320
  813SOL    HW1 3250   1.777   0.626   2.218 -0.2269  0.3468 -2.6720
  813SOL    HW2 3251   1.821   0.767   2.269  1.2948 -0.5141  0.9568
  813SOL     MW 3252   1.783   0.714   2.207 -0.0969  0.2711  0.0181
  814SOL     OW 3253   2.792   1.257   1.673 -0.3047 -0.5053 -0.6240
  814SOL    HW1 3254   2.704   1.233   1.692  2.4699 -2.9708  3.6894
  814SOL    HW2 3255   2.809   1.224   1.586  1.2118 -2.2013  2.1407
  814SOL     MW 3256   2.783   1.250   1.664  0.2615 -1.0543  0.3099
  815SOL     OW 3257   2.489   1.653   2.426  0.1563  0.7057 -0.4241
  815SOL    HW1 3258   2.441   1.573   2.433  1.0375 -1.9704  1.0232
  815SOL    HW2 3259   2.576   1.615   2.432  2.6753 -2.3959  1.4002
  815SOL     MW 3260   2.494   1.637   2.428  0.6050 -0.0566  0.0076
  816SOL     OW 3261   0.773   0.667   2.718  0.4974 -1.0155  0.3847
  816SOL    HW1 3262   0.778   0.608   2.789 -0.6789 -0.5115 -1.8963
  816SOL    HW2 3263   0.678   0.679   2.697  0.0344 -1.8526 -1.8206
  816SOL     MW 3264   0.761   0.661   2.725  0.2811 -1.0595 -0.2072
  817SOL     OW 3265   3.031   1.241   1.394  0.1050 -0.9275  0.1256
  817SOL    HW1 3266   3.095   1.221   1.460 -1.2060  0.2253 -0.1718
  817SOL    HW2 3267   3.046   1.334   1.373  0.9087 -2.4955 -0.5898
  817SOL     MW 3268   3.041   1.251   1.400  0.0381 -0.9823 -0.0080
  818SOL     OW 3269   1.939   1.004   2.732 -0.4228  0.0355 -0.0466
  818SOL    HW1 3270   1.925   1.046   2.648  0.5076  3.2200  0.8572
  818SOL    HW2 3271   2.004   0.932   2.713  1.2494 -0.0127 -1.1850
  818SOL     MW 3272   1.945   1.000   2.719 -0.0794  0.4493 -0.0775
  819SOL     OW 3273   1.902   0.285   2.478  0.0045  0.4047  0.0792
  819SOL    HW1 3274   1.825   0.343   2.484  4.0099  0.9631  0.3179
  819SOL    HW2 3275   1.934   0.274   2.573  1.2456 -1.3513  2.0895
  819SOL     MW 3276   1.896   0.292   2.491  0.6967  0.2467  0.3760
  820SOL     OW 3277   2.457   1.764   2.673 -0.0097 -0.1804 -0.3028
  820SOL    HW1 3278   2.491   1.709   2.747  0.3213  2.0257 -0.2162
  820SOL    HW2 3279   2.486   1.717   2.598 -0.0338  1.8842 -0.3500
  820SOL     MW 3280   2.465   1.750   2.673  0.0308  0.3831 -0.2976
  821SOL     OW 3281   2.570   1.348   2.004 -0.0149 -0.0948 -0.0652
  821SOL    HW1 3282   2.620   1.419   1.963  0.0926  0.3515  1.1938
  821SOL    HW2 3283   2.476   1.366   1.986  1.2982 -1.0810  2.0463
  821SOL     MW 3284   2.564   1.360   1.996  0.1725 -0.1660  0.3795
  822SOL     OW 3285   2.816   2.632   1.484 -0.0999  0.9433 -0.3487
  822SOL    HW1 3286   2.823   2.667   1.575 -3.1576 -0.5161  1.3723
  822SOL    HW2 3287   2.742   2.672   1.447 -0.8834 -1.7293 -0.4462
  822SOL     MW 3288   2.807   2.642   1.491 -0.6067  0.3981 -0.1345
  823SOL     OW 3289   2.252   0.460   1.797  0.0015  0.0800  0.4205
  823SOL    HW1 3290   2.334   0.412   1.772  0.0748 -0.7609 -0.6053
  823SOL    HW2 3291   2.185   0.403   1.767  1.2764 -1.7595  3.1395
  823SOL     MW 3292   2.254   0.446   1.790  0.1794 -0.2737  0.6439
  824SOL     OW 3293   2.067   1.375   2.523 -0.2549  0.1372 -0.5543
  824SOL    HW1 3294   2.160   1.395   2.495  0.0181 -0.5250  0.2877
  824SOL    HW2 3295   2.041   1.459   2.569 -0.0061 -0.8334 -3.5559
  824SOL     MW 3296   2.076   1.389   2.525 -0.1861 -0.0782 -0.8392
  825SOL     OW 3297   2.099   2.565   0.294  0.0416  0.0732  0.0035
  825SOL    HW1 3298   2.147   2.536   0.372 -2.2532 -2.4838 -0.7512
  825SOL    HW2 3299   2.128   2.528   0.208 -1.8618  3.0972 -0.5099
  825SOL     MW 3300   2.109   2.556   0.293 -0.5123  0.1348 -0.1638
  826SOL     OW 3301   1.935   2.343   0.557  0.3559  1.2125  0.1841
  826SOL    HW1 3302   1.852   2.291   0.569 -0.4373 -0.5435 -0.7319
  826SOL    HW2 3303   1.917   2.437   0.587 -2.1486  1.1838 -0.9769
  826SOL     MW 3304   1.922   2.349   0.562 -0.0792  0.9770 -0.0900
  827SOL     OW 3305   1.973   2.183   0.833 -0.1684 -0.1084 -0.5204
  827SOL    HW1 3306   1.904   2.206   0.772  0.9986 -0.4333 -1.7836
  827SOL    HW2 3307   1.945   2.098   0.866 -2.6865 -1.6302  0.8012
  827SOL     MW 3308   1.960   2.175   0.830 -0.3467 -0.3520 -0.5127
  828SOL     OW 3309   0.053   2.665   0.533  0.3947 -0.5348 -0.4219
  828SOL    HW1 3310   0.144   2.656   0.501  1.4977 -0.1410 -3.0589
  828SOL    HW2 3311   0.014   2.727   0.468  0.1943 -0.0315 -2.6035
  828SOL     MW 3312   0.060   2.672   0.520  0.5138 -0.4164 -1.0577
  829SOL     OW 3313   2.992   2.934   1.247  0.0861  0.0197 -0.1446
  829SOL    HW1 3314   2.899   2.938   1.224 -1.8005  0.7153 -0.2010
  829SOL    HW2 3315   3.021   2.845   1.237 -0.2625  0.8902 -1.5650
  829SOL     MW 3316   2.983   2.923   1.243 -0.2088  0.2263 -0.3395
  830SOL     OW 3317   2.494   2.873   2.038  0.0711  0.0322 -0.1095
  830SOL    HW1 3318   2.405   2.908   2.009 -2.2980  0.9177  0.4003
  830SOL    HW2 3319   2.533   2.850   1.958 -0.4810  0.1286  0.6478
  830SOL     MW 3320   2.488   2.875   2.024 -0.3143  0.1617  0.0577
  831SOL     OW 3321   2.385   2.428   1.235  0.2383  0.4442 -0.1921
  831SOL    HW1 3322   2.378   2.374   1.316  0.0102 -0.8019  1.3896
  831SOL    HW2 3323   2.477   2.415   1.210 -1.2255 -0.1970 -1.4145
  831SOL     MW 3324   2.396   2.419   1.242  0.0151  0.1952 -0.1447
  832SOL     OW 3325   2.429   2.205   1.881 -0.3742 -0.4306 -0.5895
  832SOL    HW1 3326   2.456   2.294   1.922 -2.9959 -0.8925  1.7511
  832SOL    HW2 3327   2.513   2.152   1.869 -0.0227 -1.3676 -3.2179
  832SOL     MW 3328   2.444   2.210   1.885 -0.6737 -0.6151 -0.6275
  833SOL     OW 3329   1.796   2.484   0.916  0.5418  0.5325 -0.1740
  833SOL    HW1 3330   1.711   2.440   0.941 -0.4904  3.5422 -0.8666
  833SOL    HW2 3331   1.782   2.560   0.978 -0.6231  2.4202  4.9370
  833SOL     MW 3332   1.783   2.488   0.928  0.2519  1.1787  0.4089
  834SOL     OW 3333   2.216   2.447   0.507 -0.3971  0.0354 -0.0350
  834SOL    HW1 3334   2.195   2.364   0.550  3.3363 -1.7683 -0.0673
  834SOL    HW2 3335   2.284   2.419   0.436  0.8487 -1.4062 -1.3480
  834SOL     MW 3336   2.222   2.432   0.503  0.2598 -0.3928 -0.2125
  835SOL     OW 3337   1.872   2.591   0.691  0.5776  0.1847 -0.0006
  835SOL    HW1 3338   1.844   2.556   0.780 -1.6165 -0.3276 -1.6988
  835SOL    HW2 3339   1.914   2.660   0.738  1.0510  1.2164 -0.5561
  835SOL     MW 3340   1.874   2.595   0.709  0.3506  0.2532 -0.2980
  836SOL     OW 3341   1.984   2.152   1.659  0.1224  0.4123 -0.0572
  836SOL    HW1 3342   2.078   2.139   1.671  0.3574  0.4797  0.1910
  836SOL    HW2 3343   1.977   2.228   1.714  2.6011  1.3132 -2.3069
  836SOL     MW 3344   1.995   2.160   1.668  0.4804  0.5400 -0.3213
  837SOL     OW 3345   2.079   0.186   0.699 -0.2119 -0.3204 -0.4391
  837SOL    HW1 3346   1.999   0.237   0.661 -2.0931  0.2058  1.1578
  837SOL    HW2 3347   2.111   0.123   0.628 -0.3027  0.9505 -0.3022
  837SOL     MW 3348   2.073   0.184   0.684 -0.4721 -0.0833 -0.2103
  838SOL     OW 3349   2.911   2.027   0.915 -0.4401  0.3305  0.3268
  838SOL    HW1 3350   2.827   1.988   0.933  0.2259  0.6718 -0.5007
  838SOL    HW2 3351   2.949   1.973   0.846  1.0462 -1.0410 -0.7594
  838SOL     MW 3352   2.905   2.015   0.909 -0.1561  0.1946  0.0743
  839SOL     OW 3353   1.483   2.357   0.928  0.2930  0.1081  0.0559
  839SOL    HW1 3354   1.454   2.438   0.969  0.8150 -0.4128  0.9767
  839SOL    HW2 3355   1.517   2.293   0.992 -2.0123 -0.2925  1.5179
  839SOL     MW 3356   1.484   2.359   0.942  0.0577 -0.0135  0.3703
  840SOL     OW 3357   2.284   2.062   2.402 -0.5008 -0.2452 -0.2225
  840SOL    HW1 3358   2.244   2.124   2.341  3.2341 -2.6487  0.8272
  840SOL    HW2 3359   2.342   2.106   2.462  0.1281  3.7703 -1.1557
  840SOL     MW 3360   2.286   2.076   2.402  0.0750 -0.0325 -0.2072
  841SOL     OW 3361   2.190   2.440   0.042  0.5734  0.3660 -0.1845
  841SOL    HW1 3362   2.257   2.453  -0.031  2.0256  0.9685 -2.2070
  841SOL    HW2 3363   2.128   2.376   0.001  1.5436 -0.5481 -0.0108
  841SOL     MW 3364   2.191   2.433   0.027  0.8930  0.3249 -0.4284
  842SOL     OW 3365   2.682   1.993   1.576  0.3074 -0.3474  0.6636
  842SOL    HW1 3366   2.628   1.916   1.571  0.5514 -0.5025 -3.6668
  842SOL    HW2 3367   2.656   2.053   1.501 -4.2136  2.9248 -1.8036
  842SOL     MW 3368   2.672   1.991   1.566 -0.2569  0.0639 -0.2333
  843SOL     OW 3369   2.662   2.839   1.810 -0.3136 -0.8893 -0.2508
  843SOL    HW1 3370   2.747   2.798   1.805 -0.0800 -0.6789 -1.8352
  843SOL    HW2 3371   2.615   2.773   1.755 -2.6603  2.1722 -2.5783
  843SOL     MW 3372   2.667   2.825   1.802 -0.5924 -0.4576 -0.7669
  844SOL     OW 3373   2.648   2.346   1.211 -0.7240  0.3334 -0.2830
  844SOL    HW1 3374   2.681   2.365   1.122  4.3745 -2.3037  3.1968
  844SOL    HW2 3375   2.722   2.368   1.271 -1.6144  2.4100 -0.1785
  844SOL     MW 3376   2.662   2.351   1.207 -0.1688  0.2594  0.1899
  845SOL     OW 3377   2.827   2.523   0.344 -0.1802  0.2131  0.4003
  845SOL    HW1 3378   2.763   2.448   0.349  2.6336 -2.5783 -0.2219
  845SOL    HW2 3379   2.816   2.582   0.428 -0.0989  2.4222  3.2154
  845SOL     MW 3380   2.817   2.521   0.356  0.2018  0.1363  0.6896
  846SOL     OW 3381   1.501   2.809   0.845 -0.3462 -0.0611 -0.0614
  846SOL    HW1 3382   1.580   2.866   0.831 -1.7571  1.2997  3.7977
  846SOL    HW2 3383   1.445   2.868   0.893  0.8768  1.1354 -0.1547
  846SOL     MW 3384   1.504   2.824   0.850 -0.3710  0.2763  0.4355
  847SOL     OW 3385   2.507   1.933   0.177 -0.4023 -0.1563  0.0029
  847SOL    HW1 3386   2.504   1.848   0.231 -3.2352 -2.1096  0.5093
  847SOL    HW2 3387   2.473   1.907   0.089  0.2315 -3.4716  1.2152
  847SOL     MW 3388   2.502   1.918   0.173 -0.6925 -0.8515  0.2297
  848SOL     OW 3389   2.579   2.101   1.324  0.3401 -0.0086 -0.8160
  848SOL    HW1 3390   2.607   2.176   1.278 -1.0539 -1.8385  0.4807
  848SOL    HW2 3391   2.603   2.024   1.269  1.1946  2.8164 -4.7956
  848SOL     MW 3392   2.586   2.101   1.311  0.2689  0.1227 -1.1700
  849SOL     OW 3393   2.030   2.789   0.778 -0.7041 -0.1627 -0.1020
  849SOL    HW1 3394   2.061   2.733   0.850 -1.0504 -1.8339 -3.8849
  849SOL    HW2 3395   2.084   2.756   0.704  2.1594  1.4631 -1.1791
  849SOL     MW 3396   2.041   2.777   0.778 -0.3720 -0.1687 -0.7433
  850SOL     OW 3397   2.252   1.850   1.676 -0.0957 -0.5000 -1.4323
  850SOL    HW1 3398   2.179   1.807   1.628 -0.5291  2.7521  2.8245
  850SOL    HW2 3399   2.234   1.946   1.667 -1.8918 -0.9950 -0.8603
  850SOL     MW 3400   2.240   1.857   1.668 -0.3899 -0.1362 -0.7952
  851SOL     OW 3401   2.368   2.360   0.282  0.4100  0.1023 -0.3472
  851SOL    HW1 3402   2.364   2.375   0.185  0.2306  1.2761 -2.7851
  851SOL    HW2 3403   2.465   2.344   0.293  1.7600  2.0377 -1.6254
  851SOL     MW 3404   2.380   2.360   0.271  0.5644  0.5125 -0.8375
  852SOL     OW 3405   2.315   2.094   0.330  0.3180  0.1073  0.0326
  852SOL    HW1 3406   2.345   2.184   0.330 -1.1333 -0.2217 -3.0479
  852SOL    HW2 3407   2.380   2.046   0.274 -0.0267  0.8314  0.5641
  852SOL     MW 3408   2.328   2.100   0.322  0.0810  0.1595 -0.3037
  853SOL     OW 3409   2.468   2.479   1.929  0.4121 -0.7464 -0.4708
  853SOL    HW1 3410   2.467   2.521   1.842 -0.1613  0.1028 -1.4622
  853SOL    HW2 3411   2.556   2.485   1.972  0.2181 -2.2265  1.6810
  853SOL     MW 3412   2.480   2.486   1.923  0.3108 -0.8296 -0.3177
  854SOL     OW 3413   2.863   2.291   0.776 -0.2048  0.4587 -0.0440
  854SOL    HW1 3414   2.774   2.253   0.759 -1.4456  1.0089 -1.9213
  854SOL    HW2 3415   2.919   2.210   0.801  1.1039 -0.5515 -0.3496
  854SOL     MW 3416   2.859   2.276   0.778 -0.1959  0.3980 -0.3320
  855SOL     OW 3417   2.634   2.329   0.350 -0.4155  0.0302 -0.2106
  855SOL    HW1 3418   2.625   2.353   0.446 -1.4477  2.7516  1.7427
  855SOL    HW2 3419   2.680   2.242   0.331  1.6010 -1.7662 -0.9243
  855SOL     MW 3420   2.639   2.321   0.360 -0.2856  0.1523 -0.0470
  856SOL     OW 3421   2.126   1.955   0.203 -0.5080 -0.1177  0.8241
  856SOL    HW1 3422   2.046   1.953   0.254  0.9378  0.8838  0.5563
  856SOL    HW2 3423   2.186   2.009   0.261  0.3802 -0.3445  3.0517
  856SOL     MW 3424   2.124   1.962   0.218 -0.2000 -0.0155  1.0827
  857SOL     OW 3425   2.471   1.969   0.556  0.0124 -0.4317  0.0389
  857SOL    HW1 3426   2.421   2.020   0.482 -1.1102  0.0319  0.7746
  857SOL    HW2 3427   2.404   1.968   0.620 -3.4533 -0.8545 -2.0461
  857SOL     MW 3428   2.456   1.976   0.554 -0.5930 -0.4263 -0.1391
  858SOL     OW 3429   2.875   2.697   1.746  0.8104  0.7886  0.0265
  858SOL    HW1 3430   2.970   2.709   1.729 -1.1331 -1.9800  1.6280
  858SOL    HW2 3431   2.868   2.613   1.783  1.6783  1.2739 -0.4025
  858SOL     MW 3432   2.886   2.688   1.749  0.6685  0.4873  0.1812
  859SOL     OW 3433   2.146   2.582   0.913  0.2623 -0.0016  0.4632
  859SOL    HW1 3434   2.087   2.511   0.937 -0.8843 -1.1900  1.2375
  859SOL    HW2 3435   2.236   2.558   0.925  0.2933 -0.9929  1.0112
  859SOL     MW 3436   2.150   2.569   0.918  0.1151 -0.2892  0.6377
  860SOL     OW 3437   2.691   2.592   0.118 -0.2414  0.3878 -0.2065
  860SOL    HW1 3438   2.742   2.569   0.201  2.7337  1.5795 -1.7157
  860SOL    HW2 3439   2.719   2.683   0.096  4.9582  1.1968  3.0349
  860SOL     MW 3440   2.701   2.601   0.126  0.8372  0.6517  0.0220
  861SOL     OW 3441   1.617   2.168   1.114 -0.0206 -0.0376  0.2775
  861SOL    HW1 3442   1.601   2.257   1.151 -2.3066  0.6876  0.7751
  861SOL    HW2 3443   1.572   2.115   1.179 -0.6113 -0.5886 -0.0754
  861SOL     MW 3444   1.609   2.173   1.127 -0.4001 -0.0146  0.2966
  862SOL     OW 3445   2.472   1.806   1.530 -0.1460 -0.1493 -0.5078
  862SOL    HW1 3446   2.400   1.823   1.594 -0.9726 -0.7026  0.7994
  862SOL    HW2 3447   2.434   1.831   1.445  0.8259 -0.4452 -1.9709
  862SOL     MW 3448   2.458   1.811   1.527 -0.1268 -0.2614 -0.5284
  863SOL     OW 3449   3.000   1.753   1.038 -0.1586  0.2337  0.1626
  863SOL    HW1 3450   3.075   1.750   1.100 -1.2220 -1.6599 -0.6108
  863SOL    HW2 3451   2.982   1.845   1.038 -0.2098  0.2877 -0.2128
  863SOL     MW 3452   3.008   1.765   1.046 -0.3056 -0.0090  0.0110
  864SOL     OW 3453   3.078   1.835   0.792  0.6521 -0.4146  0.1853
  864SOL    HW1 3454   3.042   1.773   0.860  0.8518 -2.1675  1.7672
  864SOL    HW2 3455   3.056   1.781   0.712 -0.8814 -1.9012 -0.0982
  864SOL     MW 3456   3.071   1.819   0.790  0.4761 -0.8420  0.3566
  865SOL     OW 3457   2.471   2.203   0.061 -0.1689 -0.2693  0.6302
  865SOL    HW1 3458   2.526   2.136   0.100  2.2277  4.6609  1.6650
  865SOL    HW2 3459   2.394   2.159   0.035 -0.0462 -0.1209  0.6540
  865SOL     MW 3460   2.468   2.188   0.063  0.1635  0.4008  0.7699
  866SOL     OW 3461   2.680   2.336   1.653 -0.1608  0.1856 -0.4031
  866SOL    HW1 3462   2.681   2.245   1.687  0.5767 -0.4214 -3.1931
  866SOL    HW2 3463   2.714   2.337   1.559 -0.1744 -0.5531 -1.8677
  866SOL     MW 3464   2.685   2.324   1.645 -0.0653  0.0080 -0.9645
  867SOL     OW 3465   0.061   2.683   1.770 -0.0743 -0.0621 -0.7678
  867SOL    HW1 3466   0.086   2.739   1.846  2.2020  0.2396  2.9419
  867SOL    HW2 3467   0.117   2.710   1.700  0.4747  1.6260  1.3942
  867SOL     MW 3468   0.072   2.694   1.771  0.2984  0.2004  0.0069
  868SOL     OW 3469   2.770   2.684   0.558 -0.2396  0.7158  0.1970
  868SOL    HW1 3470   2.688   2.641   0.572 -0.9791  2.9608  2.3388
  868SOL    HW2 3471   2.752   2.754   0.497 -2.2535 -0.0750 -1.5901
  868SOL     MW 3472   2.757   2.688   0.552 -0.6029  0.9077  0.2438
  869SOL     OW 3473   2.072   2.315   1.060  0.5412  0.3650  0.0379
  869SOL    HW1 3474   2.162   2.304   1.024  2.1532 -0.2976 -0.9244
  869SOL    HW2 3475   2.006   2.278   0.996 -2.3653  0.5215  1.6162
  869SOL     MW 3476   2.075   2.309   1.047  0.3704  0.2982  0.1192
  870SOL     OW 3477   2.135   0.013   0.495  0.3175 -0.6085  0.6249
  870SOL    HW1 3478   2.208   0.033   0.430  0.9723  1.3471 -1.0203
  870SOL    HW2 3479   2.140  -0.080   0.503 -0.7761  0.0477 -1.9102
  870SOL     MW 3480   2.145   0.003   0.488  0.2596 -0.2639  0.0734
  871SOL     OW 3481   2.436   2.044   0.963 -0.2848  0.5811 -0.5428
  871SOL    HW1 3482   2.371   2.019   0.898 -0.4120 -3.0116  1.9214
  871SOL    HW2 3483   2.412   2.137   0.986  1.5886  2.2135 -0.6523
  871SOL     MW 3484   2.424   2.053   0.957 -0.0544  0.3224 -0.2321
  872SOL     OW 3485   2.046   2.495   1.548  0.2500 -0.2625 -0.3961
  872SOL    HW1 3486   1.960   2.522   1.574 -0.5020 -1.3319  1.5102
  872SOL    HW2 3487   2.026   2.446   1.472 -0.1763  1.6093 -1.5753
  872SOL     MW 3488   2.032   2.492   1.541  0.0946 -0.1566 -0.3001
  873SOL     OW 3489   2.895   2.045   1.974 -0.4514 -0.5328  0.5855
  873SOL    HW1 3490   2.878   2.107   2.046  0.3148  2.5941 -0.8080
  873SOL    HW2 3491   2.958   2.090   1.910 -1.9793  3.6674 -0.9980
  873SOL     MW 3492   2.901   2.059   1.975 -0.5519  0.4340  0.1927
  874SOL     OW 3493   2.334   1.428   2.470  0.0167 -0.2275  0.1136
  874SOL    HW1 3494   2.316   1.397   2.384  0.9704  0.3859 -0.6329
  874SOL    HW2 3495   2.419   1.390   2.496  0.0067 -0.8864 -1.2528
  874SOL     MW 3496   2.343   1.419   2.462  0.1412 -0.2335 -0.1652
  875SOL     OW 3497   2.340   2.301   0.993 -0.0412  0.2608 -0.1927
  875SOL    HW1 3498   2.388   2.339   0.921 -0.5862  0.0261 -0.2696
  875SOL    HW2 3499   2.354   2.358   1.070  1.9905  2.8914 -1.6631
  875SOL     MW 3500   2.348   2.313   0.993  0.1550  0.5769 -0.3968
  876SOL     OW 3501   3.079   2.276   1.367  0.9728 -0.6353  1.1889
  876SOL    HW1 3502   3.110   2.330   1.286 -0.0562 -1.0034 -0.6275
  876SOL    HW2 3503   3.119   2.317   1.447  0.5528 -2.6834  1.0478
  876SOL     MW 3504   3.089   2.288   1.367  0.7816 -0.9541  0.9306
  877SOL     OW 3505   0.011   2.798   0.292 -0.2531  0.3671 -0.4874
  877SOL    HW1 3506   0.095   2.840   0.267 -0.7044  0.0138 -1.8717
  877SOL    HW2 3507  -0.006   2.735   0.223 -0.9144  2.0237  0.3726
  877SOL     MW 3508   0.020   2.795   0.279 -0.3999  0.5390 -0.5566
  878SOL     OW 3509   2.398   1.803   1.259  0.6238 -0.5509  0.0645
  878SOL    HW1 3510   2.326   1.734   1.269  1.4421  0.9958  1.5562
  878SOL    HW2 3511   2.479   1.744   1.262  3.1603  1.8501 -1.5679
  878SOL     MW 3512   2.399   1.786   1.261  1.0664 -0.0300  0.0459
  879SOL     OW 3513   2.745   2.437   0.967 -0.4538  0.1906 -0.4219
  879SOL    HW1 3514   2.795   2.517   0.963  0.1335 -1.8653  2.9128
  879SOL    HW2 3515   2.787   2.384   0.896  1.2235 -0.7785 -0.6276
  879SOL     MW 3516   2.758   2.441   0.957 -0.1550 -0.2085 -0.0091
  880SOL     OW 3517   2.610   2.157   0.730  0.0366 -0.1146  0.2498
  880SOL    HW1 3518   2.566   2.115   0.799  1.4115  1.1593 -2.1998
  880SOL    HW2 3519   2.581   2.115   0.641 -2.7780  1.1872 -0.3503
  880SOL     MW 3520   2.601   2.146   0.727 -0.1534  0.2252 -0.1526
  881SOL     OW 3521   2.966   2.699   0.741  0.5822  0.0439 -0.0169
  881SOL    HW1 3522   2.901   2.684   0.676 -0.4078  0.2946  1.5666
  881SOL    HW2 3523   3.045   2.701   0.694 -0.9506 -0.7784  0.5814
  881SOL     MW 3524   2.968   2.698   0.726  0.2493 -0.0315  0.2710
  882SOL     OW 3525   2.234   2.890   1.968  0.2119  0.2301  0.4006
  882SOL    HW1 3526   2.222   2.892   1.869 -0.4899 -0.0943  2.4614
  882SOL    HW2 3527   2.196   2.800   1.988  0.4811 -4.7481  1.6067
  882SOL     MW 3528   2.227   2.879   1.958  0.1548 -0.4695  0.8316
  883SOL     OW 3529   2.332   2.206   1.398  0.0545  0.1506  0.0526
  883SOL    HW1 3530   2.421   2.171   1.367  1.6416 -0.4032  0.8877
  883SOL    HW2 3531   2.271   2.159   1.341 -1.6990 -1.7245 -0.8354
  883SOL     MW 3532   2.335   2.195   1.386  0.0326 -0.1699  0.0456
  884SOL     OW 3533   1.949   1.810   1.068 -0.0137  0.1571  0.3505
  884SOL    HW1 3534   1.888   1.882   1.044 -0.6223  2.9704 -2.4903
  884SOL    HW2 3535   2.041   1.840   1.035  3.0055 -0.5203 -0.6197
  884SOL     MW 3536   1.953   1.823   1.060  0.3044  0.4389 -0.1523
  885SOL     OW 3537   2.868   2.405   1.828 -0.3519  0.2513 -0.1997
  885SOL    HW1 3538   2.936   2.338   1.821 -0.1179  2.3930 -0.4987
  885SOL    HW2 3539   2.802   2.372   1.769  1.6922  1.4727 -0.4107
  885SOL     MW 3540   2.868   2.392   1.819 -0.0513  0.6950 -0.2670
  886SOL     OW 3541   2.818   2.360   1.413 -0.4740  0.3450 -0.4807
  886SOL    HW1 3542   2.900   2.324   1.392 -1.2735  3.0172 -2.3779
  886SOL    HW2 3543   2.832   2.451   1.444  0.9590  0.6230  0.8363
  886SOL     MW 3544   2.831   2.367   1.414 -0.3904  0.7343 -0.5573
  887SOL     OW 3545   2.274   2.626   1.577 -0.0985  0.1565  0.2263
  887SOL    HW1 3546   2.298   2.662   1.489  2.1486 -2.0636 -2.1195
  887SOL    HW2 3547   2.190   2.578   1.570  0.9472 -1.5007  1.9095
  887SOL     MW 3548   2.266   2.625   1.565  0.3360 -0.3550  0.1388
  888SOL     OW 3549   1.851   2.137   1.415 -0.6631  0.3046  0.3119
  888SOL    HW1 3550   1.929   2.094   1.381  0.7752  1.1753 -1.6584
  888SOL    HW2 3551   1.885   2.151   1.505  3.2816 -1.0297 -0.3936
  888SOL     MW 3552   1.866   2.133   1.423  0.0471  0.2434 -0.0411
  889SOL     OW 3553   2.342   2.042   2.079  0.2865  0.0366  0.1737
  889SOL    HW1 3554   2.412   1.993   2.120 -2.6326 -1.7103 -0.3802
  889SOL    HW2 3555   2.385   2.107   2.021  1.6095 -2.1611 -0.8933
  889SOL     MW 3556   2.357   2.044   2.077  0.0759 -0.4839 -0.0402
  890SOL     OW 3557   0.059   2.389   0.156  0.5818 -0.2474  0.5611
  890SOL    HW1 3558   0.022   2.479   0.140 -0.4801  2.1342  1.0525
  890SOL    HW2 3559   0.030   2.362   0.245 -0.6475  0.3177 -0.1991
  890SOL     MW 3560   0.050   2.397   0.166  0.2795  0.1414  0.5257
  891SOL     OW 3561   3.071   2.008   1.295  0.7020 -0.0577 -0.0578
  891SOL    HW1 3562   3.163   1.991   1.310 -0.8866  1.4840 -2.4989
  891SOL    HW2 3563   3.070   2.100   1.313  0.9708  1.7868  2.3962
  891SOL     MW 3564   3.083   2.018   1.299  0.5278  0.3891 -0.0561
  892SOL     OW 3565   2.449   2.328   2.766  0.2087  0.3283  0.1373
  892SOL    HW1 3566   2.432   2.240   2.797  1.2714  2.1349  0.0831
  892SOL    HW2 3567   2.536   2.361   2.792 -4.0682  1.5692  0.1776
  892SOL     MW 3568   2.458   2.321   2.774 -0.2154  0.7304  0.1355
  893SOL     OW 3569   1.598   2.422   1.207  0.0412  0.5640 -0.0527
  893SOL    HW1 3570   1.543   2.450   1.277  0.8556 -0.9554  0.4010
  893SOL    HW2 3571   1.687   2.417   1.242  0.4606  3.2460 -1.0591
  893SOL     MW 3572   1.603   2.425   1.221  0.2040  0.7174 -0.1256
  894SOL     OW 3573   2.741   1.876   0.446 -0.2333 -0.2565 -0.1889
  894SOL    HW1 3574   2.659   1.909   0.491 -2.1112  0.6751  0.1591
  894SOL    HW2 3575   2.729   1.814   0.371 -0.4931  0.6233 -1.1776
  894SOL     MW 3576   2.729   1.872   0.442 -0.5154 -0.0175 -0.2735
  895SOL     OW 3577   2.130   2.096   1.216 -0.0826 -0.0110 -0.1350
  895SOL    HW1 3578   2.102   2.174   1.159 -0.4012  1.6262  0.1775
  895SOL    HW2 3579   2.161   2.029   1.148 -0.9098 -1.5044 -2.5276
  895SOL     MW 3580   2.130   2.097   1.200 -0.2338  0.0080 -0.4095
  896SOL     OW 3581   2.316   2.817   1.114  0.3021 -0.2216  0.0866
  896SOL    HW1 3582   2.332   2.775   1.194 -1.8322  0.6598 -1.1540
  896SOL    HW2 3583   2.215   2.802   1.109 -3.3001  2.4790  0.7398
  896SOL     MW 3584   2.304   2.809   1.124 -0.4548  0.2510  0.0091
  897SOL     OW 3585   3.057   3.039   3.072 -0.7301  0.6002 -0.3656
  897SOL    HW1 3586   3.094   2.954   3.042  4.6313 -1.5962  0.5846
  897SOL    HW2 3587   3.009   2.997   3.143 -2.2200 -1.1777 -0.6086
  897SOL     MW 3588   3.055   3.023   3.078 -0.2193  0.0758 -0.2723
  898SOL     OW 3589   2.113   0.199   1.484  0.0666 -0.1881 -0.5778
  898SOL    HW1 3590   2.073   0.118   1.515 -0.3234  0.9600 -1.8308
  898SOL    HW2 3591   2.092   0.209   1.394  0.0127  1.2927  1.6137
  898SOL     MW 3592   2.105   0.189   1.476  0.0080  0.1587 -0.4540
  899SOL     OW 3593   2.909   2.972   0.633  0.0962 -0.0872 -0.4981
  899SOL    HW1 3594   2.935   2.892   0.684  1.1280 -2.4657 -0.5153
  899SOL    HW2 3595   2.829   3.015   0.663 -0.1043 -0.1751 -2.0797
  899SOL     MW 3596   2.902   2.967   0.644  0.2059 -0.4126 -0.7091
  900SOL     OW 3597   0.064   2.396   1.125  0.2624 -0.0049  0.1846
  900SOL    HW1 3598   0.029   2.484   1.137 -0.1140  2.4431  0.5406
  900SOL    HW2 3599   0.036   2.360   1.040  0.6492  0.1856  0.0866
  900SOL     MW 3600   0.056   2.403   1.115  0.2638  0.3432  0.2187
  901SOL     OW 3601   1.737   2.845   1.754 -0.6075 -0.1746  0.0090
  901SOL    HW1 3602   1.821   2.788   1.739  1.8393  0.6849  0.1886
  901SOL    HW2 3603   1.690   2.839   1.667  1.9693  0.4148 -0.2598
  901SOL     MW 3604   1.742   2.837   1.741  0.0553  0.0165 -0.0028
  902SOL     OW 3605   2.669   2.107   1.826 -0.2899 -0.6889 -0.0417
  902SOL    HW1 3606   2.654   2.057   1.746  2.3995 -0.3554  1.3183
  902SOL    HW2 3607   2.736   2.068   1.882 -2.5058 -0.5930  0.3275
  902SOL     MW 3608   2.676   2.095   1.823 -0.2274 -0.6322  0.1865
  903SOL     OW 3609   1.620   2.664   0.631  0.4261 -1.0151  0.3582
  903SOL    HW1 3610   1.710   2.644   0.645 -1.4762 -1.0466 -0.9319
  903SOL    HW2 3611   1.592   2.729   0.696 -1.0986  0.0167  0.3419
  903SOL     MW 3612   1.628   2.670   0.641 -0.0261 -0.8831  0.1859
  904SOL     OW 3613   2.525   2.596   1.694 -0.1299  0.5014 -0.6375
  904SOL    HW1 3614   2.440   2.589   1.650  0.9412  1.1335 -0.9925
  904SOL    HW2 3615   2.580   2.520   1.682  0.7082 -1.0826 -1.3541
  904SOL     MW 3616   2.521   2.585   1.687  0.1220  0.3758 -0.7789
  905SOL     OW 3617   2.268   2.514   2.139 -0.4745  0.0009  0.0207
  905SOL    HW1 3618   2.327   2.487   2.060 -1.9235  0.7797 -0.1565
  905SOL    HW2 3619   2.246   2.432   2.179  0.2750 -0.0420  0.2580
  905SOL     MW 3620   2.273   2.499   2.134 -0.5668  0.0980  0.0287
  906SOL     OW 3621   2.485   2.487   0.824  0.7653  0.1570  0.7750
  906SOL    HW1 3622   2.572   2.461   0.863  2.1221 -1.5897 -1.1192
  906SOL    HW2 3623   2.486   2.580   0.828  0.1661 -2.6375 -4.3976
  906SOL     MW 3624   2.497   2.496   0.830  0.8653 -0.4422 -0.1574
  907SOL     OW 3625   2.641   2.810   1.347  0.2818  0.2056  0.0151
  907SOL    HW1 3626   2.691   2.877   1.389  0.0057 -0.0843  1.3862
  907SOL    HW2 3627   2.673   2.820   1.257  1.4143  2.4724  2.0851
  907SOL     MW 3628   2.652   2.820   1.341  0.3948  0.4664  0.4691
  908SOL     OW 3629   2.724   2.349   0.010  0.3095 -0.3080  0.4369
  908SOL    HW1 3630   2.636   2.322   0.036  1.1645 -0.0649 -4.1813
  908SOL    HW2 3631   2.730   2.443   0.044  2.6764  0.9858 -0.6283
  908SOL     MW 3632   2.713   2.358   0.018  0.7346 -0.1052 -0.3129
  909SOL     OW 3633   1.723   0.067   1.197 -0.2700  0.0286 -0.4161
  909SOL    HW1 3634   1.712   0.152   1.151 -2.2971  1.5752  3.0006
  909SOL    HW2 3635   1.698   0.081   1.291 -0.8977  0.7913  3.0152
  909SOL     MW 3636   1.718   0.080   1.204 -0.6203  0.3333  0.4874
  910SOL     OW 3637   2.240   1.777   0.413 -0.2506 -1.0276 -0.0988
  910SOL    HW1 3638   2.207   1.686   0.430 -0.7617 -0.9969 -0.7756
  910SOL    HW2 3639   2.188   1.809   0.338 -3.3447  0.2390  2.4873
  910SOL     MW 3640   2.228   1.769   0.406 -0.7262 -0.8564  0.1531
  911SOL     OW 3641   2.252   2.112   1.641  0.3731 -0.7006 -0.4186
  911SOL    HW1 3642   2.313   2.130   1.715  0.6720  1.3591  1.7572
  911SOL    HW2 3643   2.287   2.151   1.558 -1.7881  0.6526 -0.4370
  911SOL     MW 3644   2.265   2.119   1.640  0.1274 -0.2503 -0.1339
  912SOL     OW 3645   2.932   1.907   1.499 -0.2129 -0.3184 -0.6847
  912SOL    HW1 3646   2.952   1.926   1.409  0.2853  0.0047 -3.0344
  912SOL    HW2 3647   2.843   1.948   1.511 -3.3502 -0.2996  2.5295
  912SOL     MW 3648   2.923   1.915   1.489 -0.5611 -0.2733 -0.5707
  913SOL     OW 3649   2.630   3.048   0.354 -0.1177  0.5170 -0.0900
  913SOL    HW1 3650   2.707   2.986   0.334 -0.3852 -0.9104 -1.0261
  913SOL    HW2 3651   2.563   3.009   0.287 -0.7411 -2.3238 -0.8268
  913SOL     MW 3652   2.632   3.035   0.342 -0.2353 -0.0462 -0.3107
  914SOL     OW 3653   2.726   1.752   3.031  0.0831  0.1921 -0.0140
  914SOL    HW1 3654   2.750   1.830   2.982  0.8510  1.8022 -0.6903
  914SOL    HW2 3655   2.646   1.782   3.084  1.3480  0.9582  0.5665
  914SOL     MW 3656   2.719   1.766   3.032  0.3513  0.5056 -0.0266
  915SOL     OW 3657   1.689   0.228   0.251  0.0087  0.2533  0.1467
  915SOL    HW1 3658   1.765   0.169   0.277  0.6195 -2.3062  0.0520
  915SOL    HW2 3659   1.617   0.161   0.247 -0.0916  0.8191  2.2579
  915SOL     MW 3660   1.689   0.211   0.254  0.0760 -0.0097  0.4128
  916SOL     OW 3661   1.839   2.134   1.938  0.2676  0.1050  0.3408
  916SOL    HW1 3662   1.878   2.218   1.912 -2.4963  1.1555  0.6717
  916SOL    HW2 3663   1.831   2.080   1.859 -0.6113 -0.5645  0.5718
  916SOL     MW 3664   1.843   2.138   1.924 -0.2130  0.1552  0.4149
  917SOL     OW 3665   2.494   2.206   2.512  0.1156  0.0012  0.1310
  917SOL    HW1 3666   2.460   2.249   2.593  0.8118 -0.3563 -0.0628
  917SOL    HW2 3667   2.578   2.247   2.486  0.6669 -2.0633  0.2319
  917SOL     MW 3668   2.500   2.217   2.520  0.2802 -0.3184  0.1187
  918SOL     OW 3669   1.989   1.608   2.705 -0.1181 -0.3242 -0.4648
  918SOL    HW1 3670   1.932   1.628   2.631  0.5694 -0.5304  2.4437
  918SOL    HW2 3671   2.074   1.651   2.687 -1.1057 -2.4416  1.2662
  918SOL     MW 3672   1.992   1.616   2.693 -0.1577 -0.6308  0.1473
  919SOL     OW 3673   3.080   2.356   2.267 -0.1156  0.3030  0.1565
  919SOL    HW1 3674   3.020   2.287   2.242  1.2550  1.7833 -1.3548
  919SOL    HW2 3675   3.126   2.387   2.177 -2.9824 -0.3606  0.5488
  919SOL     MW 3676   3.078   2.351   2.252 -0.3130  0.4108  0.0089
  920SOL     OW 3677   2.696   2.871   0.007 -0.0629 -0.3082 -0.1118
  920SOL    HW1 3678   2.603   2.887   0.034 -0.6017 -1.3251  2.7000
  920SOL    HW2 3679   2.695   2.817  -0.078 -1.4876  0.2508 -1.0857
  920SOL     MW 3680   2.684   2.866  -0.000 -0.3219 -0.3686  0.1307
  921SOL     OW 3681   2.424   2.597   2.625  0.0604  0.8027 -0.7327
  921SOL    HW1 3682   2.509   2.601   2.590 -2.0086  0.2552  0.7197
  921SOL    HW2 3683   2.429   2.521   2.681  0.0560 -2.5271 -0.0359
  921SOL     MW 3684   2.436   2.587   2.627 -0.2132  0.2911 -0.4491
  922SOL     OW 3685   2.020   2.830   0.282  0.4570 -0.7805 -0.3491
  922SOL    HW1 3686   2.042   2.851   0.189  0.0643 -2.2737 -1.1006
  922SOL    HW2 3687   2.035   2.734   0.291  1.7820  0.5653 -0.0239
  922SOL     MW 3688   2.025   2.820   0.271  0.5800 -0.7999 -0.4054
  923SOL     OW 3689   2.176   2.857   1.704  0.4208  0.0498 -0.2358
  923SOL    HW1 3690   2.201   2.786   1.646 -0.2286  0.7207 -0.9060
  923SOL    HW2 3691   2.153   2.934   1.649 -2.5421  0.7531 -0.2714
  923SOL     MW 3692   2.176   2.858   1.689 -0.0558  0.2311 -0.3289
  924SOL     OW 3693   1.130   2.707   2.518  0.2801  0.5812  0.4758
  924SOL    HW1 3694   1.203   2.778   2.514  1.2167  0.8783 -1.7289
  924SOL    HW2 3695   1.134   2.653   2.596 -1.6550 -2.3878 -0.9304
  924SOL     MW 3696   1.140   2.709   2.528  0.1483  0.2286 -0.0006
  925SOL     OW 3697   3.067   0.179   2.618 -0.2515  0.3545  0.1697
  925SOL    HW1 3698   3.044   0.197   2.528  1.3667 -2.5858  0.3175
  925SOL    HW2 3699   3.019   0.252   2.666 -0.3033 -0.2997 -0.1668
  925SOL     MW 3700   3.058   0.191   2.612 -0.0448 -0.1197  0.1448
  926SOL     OW 3701   2.709   2.420   2.051 -0.2232  0.7317  0.0457
  926SOL    HW1 3702   2.759   2.489   2.093 -0.4477  1.5478 -0.2398
  926SOL    HW2 3703   2.759   2.396   1.966 -0.5700 -4.3754 -0.6925
  926SOL     MW 3704   2.722   2.426   2.045 -0.2986  0.1655 -0.0894
  927SOL     OW 3705   2.322   0.123   0.320 -0.2795  0.0973 -0.0951
  927SOL    HW1 3706   2.419   0.136   0.335  1.7490 -0.1817  1.5389
  927SOL    HW2 3707   2.318   0.084   0.233 -0.0747 -0.3795  3.1853
  927SOL     MW 3708   2.334   0.120   0.310  0.0152 -0.0024  0.5533
  928SOL     OW 3709   2.182   2.382   1.766 -0.2071 -0.2309 -0.1720
  928SOL    HW1 3710   2.148   2.395   1.678  1.5777  1.6281 -3.6647
  928SOL    HW2 3711   2.251   2.318   1.764  2.7048  1.1603 -0.4168
  928SOL     MW 3712   2.187   2.376   1.755  0.4126  0.1980 -0.6652
  929SOL     OW 3713   2.749   2.320   2.456 -0.4037 -0.8223 -0.1023
  929SOL    HW1 3714   2.782   2.289   2.375 -2.0284 -0.8648  1.7593
  929SOL    HW2 3715   2.821   2.305   2.521  0.4962  1.7405  0.9228
  929SOL     MW 3716   2.763   2.314   2.454 -0.4993 -0.4898  0.2785
  930SOL     OW 3717   2.016   2.852   2.738  0.0810  0.2473  0.2104
  930SOL    HW1 3718   2.028   2.759   2.761  0.5581 -2.4249 -0.1444
  930SOL    HW2 3719   2.099   2.893   2.770  1.5047 -0.3841  0.2384
  930SOL     MW 3720   2.028   2.845   2.745  0.3318 -0.1886  0.1673
  931SOL     OW 3721   3.025   2.720   2.379  0.2462  0.4180  0.0283
  931SOL    HW1 3722   3.089   2.726   2.453 -1.2176 -2.0344  2.3767
  931SOL    HW2 3723   3.069   2.747   2.303 -0.3530 -2.7169  2.7172
  931SOL     MW 3724   3.039   2.724   2.378 -0.0260 -0.3192  0.6929
  932SOL     OW 3725   2.926   1.932   2.507  0.2006 -0.2957 -0.7611
  932SOL    HW1 3726   3.012   1.970   2.496 -1.4000 -0.0456 -1.3606
  932SOL    HW2 3727   2.869   1.964   2.435 -0.2334 -1.2340  0.3835
  932SOL     MW 3728   2.930   1.941   2.496 -0.0678 -0.3865 -0.6892
  933SOL     OW 3729   2.068   2.801   2.229 -0.1683 -0.6163 -1.1301
  933SOL    HW1 3730   2.149   2.847   2.250 -0.3358  2.0051  3.7887
  933SOL    HW2 3731   2.007   2.872   2.212  0.8514  3.8785 -0.3494
  933SOL     MW 3732   2.071   2.816   2.230 -0.0558  0.3226 -0.3781
  934SOL     OW 3733   2.006   2.748   2.483 -0.4543 -0.2262 -0.6251
  934SOL    HW1 3734   2.053   2.814   2.535  0.8263  1.0604  0.5454
  934SOL    HW2 3735   2.024   2.769   2.390  2.4301  2.5285  1.6360
  934SOL     MW 3736   2.014   2.760   2.477  0.0953  0.3070 -0.1724
  935SOL     OW 3737   2.696   1.548   1.855 -0.0862  0.6486  0.8083
  935SOL    HW1 3738   2.793   1.557   1.851  0.5238  1.9743 -4.2938
  935SOL    HW2 3739   2.678   1.550   1.765  0.4619 -1.3607  2.3786
  935SOL     MW 3740   2.706   1.550   1.843  0.0666  0.5584  0.3423
  936SOL     OW 3741   2.973   2.229   3.082 -0.6096  0.5124  0.4348
  936SOL    HW1 3742   3.019   2.284   3.143 -0.4849 -0.5149 -0.0770
  936SOL    HW2 3743   2.877   2.247   3.078 -0.3185 -0.9712  0.0337
  936SOL     MW 3744   2.967   2.238   3.089 -0.5547  0.1811  0.3143
  937SOL     OW 3745   1.980   2.126   2.610  0.3095 -0.3997  0.3755
  937SOL    HW1 3746   2.055   2.075   2.651  2.0179  0.3331 -0.6140
  937SOL    HW2 3747   1.966   2.098   2.517  2.1003 -3.1304 -2.4189
  937SOL     MW 3748   1.988   2.116   2.603  0.7712 -0.6633 -0.1237
  938SOL     OW 3749   2.293   1.802   1.938 -0.1375  0.2521  0.1632
  938SOL    HW1 3750   2.291   1.818   1.840  0.9405 -0.0740  0.8064
  938SOL    HW2 3751   2.283   1.882   1.986 -1.1706  1.0606  0.0554
  938SOL     MW 3752   2.291   1.815   1.931 -0.1316  0.3157  0.2338
  939SOL     OW 3753   2.762   1.979   2.288  0.2891 -0.4714 -0.4577
  939SOL    HW1 3754   2.790   1.922   2.217  0.9830 -0.8770 -0.3792
  939SOL    HW2 3755   2.657   1.965   2.297 -2.0667  0.5461  0.1545
  939SOL     MW 3756   2.752   1.969   2.279  0.0698 -0.3906 -0.3666
  940SOL     OW 3757   2.281   0.158   2.679  0.1925 -0.2750 -0.2163
  940SOL    HW1 3758   2.279   0.073   2.638 -0.5314 -0.9102  0.1361
  940SOL    HW2 3759   2.325   0.168   2.764 -0.8946 -0.7008 -1.8747
  940SOL     MW 3760   2.286   0.148   2.685 -0.0464 -0.4150 -0.3886
  941SOL     OW 3761   0.099   2.456   2.055 -0.2755 -0.1440  0.0162
  941SOL    HW1 3762   0.175   2.413   2.083 -1.1049 -1.4767 -0.1977
  941SOL    HW2 3763   0.105   2.443   1.958 -0.7926  0.0743 -0.8586
  941SOL     MW 3764   0.110   2.449   2.046 -0.4531 -0.2910 -0.1274
  942SOL     OW 3765   2.837   2.215   2.175  0.3250 -0.1840  0.4089
  942SOL    HW1 3766   2.770   2.263   2.126  0.6243 -1.3112  1.2531
  942SOL    HW2 3767   2.797   2.137   2.212  0.3699  3.0518  1.0930
  942SOL     MW 3768   2.823   2.211   2.173  0.3704  0.0942  0.6106
  943SOL     OW 3769   0.271   2.086   2.264 -0.0543  0.1820 -0.3542
  943SOL    HW1 3770   0.247   2.154   2.328 -2.0591  0.4013  2.5534
  943SOL    HW2 3771   0.365   2.064   2.281 -1.3168  2.3535 -1.1005
  943SOL     MW 3772   0.280   2.092   2.275 -0.4854  0.4974 -0.0690
  944SOL     OW 3773   2.091   2.676   2.000  0.0438  0.1820 -0.3799
  944SOL    HW1 3774   2.153   2.621   2.041 -2.5411 -0.2422 -0.0441
  944SOL    HW2 3775   2.062   2.718   2.083  0.8748 -0.2593 -0.0684
  944SOL     MW 3776   2.096   2.675   2.017 -0.1876  0.0678 -0.2945
  945SOL     OW 3777   2.701   2.693   2.880  0.4463 -0.2367  0.4073
  945SOL    HW1 3778   2.695   2.594   2.881 -0.0899 -2.4843 -0.8243
  945SOL    HW2 3779   2.732   2.717   2.790  5.5678  0.6836  1.7243
  945SOL     MW 3780   2.704   2.683   2.868  1.0513 -0.4118  0.4186
  946SOL     OW 3781   2.479   2.682   2.234  0.2545  0.2658 -0.2206
  946SOL    HW1 3782   2.504   2.741   2.162 -1.9852  1.5058  3.8359
  946SOL    HW2 3783   2.418   2.615   2.187 -2.0012 -1.3329 -1.4941
  946SOL     MW 3784   2.474   2.681   2.218 -0.3386  0.2185  0.1466
  947SOL     OW 3785   1.922   0.077   0.292 -0.1668 -0.0872  0.2635
  947SOL    HW1 3786   1.875  -0.013   0.297  0.5626 -0.6070 -1.1704
  947SOL    HW2 3787   2.000   0.062   0.348  3.2651 -1.6768 -0.6265
  947SOL     MW 3788   1.926   0.063   0.300  0.3822 -0.3655 -0.0431
  948SOL     OW 3789   1.788   3.027   2.693 -0.2130 -0.0019 -1.1399
  948SOL    HW1 3790   1.848   2.948   2.688 -0.7620 -1.3763 -0.2189
  948SOL    HW2 3791   1.785   3.059   2.598  0.3948 -0.2092  1.6966
  948SOL     MW 3792   1.795   3.021   2.680 -0.2053 -0.2106 -0.6442
  949SOL     OW 3793   2.507   1.908   2.279  0.5776 -0.1053  0.3002
  949SOL    HW1 3794   2.500   1.811   2.306  0.7254  0.0501  3.9509
  949SOL    HW2 3795   2.422   1.938   2.307 -0.4937 -0.7822  0.3373
  949SOL     MW 3796   2.495   1.899   2.287  0.4558 -0.1741  0.7868
  950SOL     OW 3797   2.323   2.506   2.923  0.0586  0.4116  0.4808
  950SOL    HW1 3798   2.352   2.434   2.865 -2.6157 -2.1369  1.9289
  950SOL    HW2 3799   2.229   2.527   2.895 -2.1557  0.2726  1.9009
  950SOL     MW 3800   2.315   2.499   2.912 -0.5864  0.0570  0.8592
  951SOL     OW 3801   3.032   2.100   2.833  0.7219  0.6066  0.2943
  951SOL    HW1 3802   3.032   2.128   2.927 -1.5605 -2.3852 -0.5835
  951SOL    HW2 3803   3.086   2.021   2.825 -1.1689 -2.3416  0.6468
  951SOL     MW 3804   3.039   2.094   2.845  0.1713 -0.1772  0.2250
  952SOL     OW 3805   3.033   1.677   2.173  0.0877  0.3257 -0.1692
  952SOL    HW1 3806   2.947   1.714   2.158  1.5398 -2.7112 -1.8880
  952SOL    HW2 3807   3.084   1.753   2.208  0.2898  0.4460 -2.5521
  952SOL     MW 3808   3.029   1.692   2.175  0.3059 -0.0591 -0.7104
  953SOL     OW 3809   1.916   1.775   2.912  0.3943  0.2200  0.0481
  953SOL    HW1 3810   1.844   1.732   2.958  0.3489  1.1333  1.1751
  953SOL    HW2 3811   1.935   1.722   2.839  1.6897  2.1612  0.4294
  953SOL     MW 3812   1.909   1.763   2.908  0.5592  0.5966  0.2471
  954SOL     OW 3813   2.382   2.076   2.847 -0.0157 -0.2706 -0.0998
  954SOL    HW1 3814   2.310   2.036   2.801  2.9274  3.1928 -1.9928
  954SOL    HW2 3815   2.468   2.047   2.795  2.8188 -2.1301 -3.6369
  954SOL     MW 3816   2.384   2.067   2.834  0.7466 -0.0590 -0.8162
  955SOL     OW 3817   1.550   1.596   2.566 -0.4619  0.8985 -0.0744
  955SOL    HW1 3818   1.511   1.586   2.480 -2.4145 -1.9565  0.0285
  955SOL    HW2 3819   1.626   1.659   2.564  0.3585  0.0538  1.2948
  955SOL     MW 3820   1.555   1.603   2.554 -0.6113  0.4104  0.1198
  956SOL     OW 3821   2.695   2.399   2.846  0.2349 -0.1981  0.3045
  956SOL    HW1 3822   2.723   2.386   2.942  0.7079 -0.5938 -1.1662
  956SOL    HW2 3823   2.768   2.345   2.806  4.0991 -0.8055 -1.1738
  956SOL     MW 3824   2.708   2.390   2.853  0.8072 -0.3305 -0.0846
  957SOL     OW 3825   2.279   2.849   0.417 -0.4911  0.5303  0.6147
  957SOL    HW1 3826   2.200   2.846   0.364 -0.9179 -1.5328  2.4205
  957SOL    HW2 3827   2.279   2.777   0.489 -1.4145 -2.1397  1.5074
  957SOL     MW 3828   2.268   2.839   0.419 -0.6692 -0.0942  0.9708
  958SOL     OW 3829   2.079   2.583   2.828 -0.2545 -0.0682  0.8286
  958SOL    HW1 3830   2.029   2.530   2.768 -1.5002 -1.9010 -2.2969
  958SOL    HW2 3831   2.034   2.584   2.920  1.1605  2.9058  1.1240
  958SOL     MW 3832   2.066   2.576   2.832 -0.2322  0.0823  0.4552
  959SOL     OW 3833   2.500   2.670   0.380 -0.5439  0.8434  0.1194
  959SOL    HW1 3834   2.524   2.650   0.285  0.3222  0.8535  0.5826
  959SOL    HW2 3835   2.432   2.735   0.367 -3.2317 -1.2478 -0.6142
  959SOL     MW 3836   2.494   2.676   0.366 -0.7843  0.5688  0.0837
  960SOL     OW 3837   1.904   2.310   2.314 -0.4678  0.3257  0.1043
  960SOL    HW1 3838   1.897   2.217   2.322 -2.6766  2.3826  1.2226
  960SOL    HW2 3839   1.835   2.330   2.376 -0.0746  0.8948  1.2402
  960SOL     MW 3840   1.894   2.301   2.323 -0.7073  0.6722  0.4017
  961SOL     OW 3841   2.177   2.307   2.304 -0.2404 -0.1902  0.2470
  961SOL    HW1 3842   2.084   2.318   2.296  1.3100  0.5588  2.3714
  961SOL    HW2 3843   2.200   2.362   2.382  0.6343 -1.6714  1.7712
  961SOL     MW 3844   2.168   2.316   2.314  0.0795 -0.2868  0.7284
  962SOL     OW 3845   2.133   1.992   2.774 -0.1780 -0.1708  0.2902
  962SOL    HW1 3846   2.104   1.973   2.867 -0.1605  0.1593  2.2458
  962SOL    HW2 3847   2.143   1.901   2.729 -1.0758 -0.6911 -0.8254
  962SOL     MW 3848   2.130   1.978   2.781 -0.2942 -0.1959  0.4011
  963SOL     OW 3849   1.798   2.493   2.085 -0.9182 -0.3216  0.4587
  963SOL    HW1 3850   1.889   2.472   2.114  1.4035 -1.7192  0.4497
  963SOL    HW2 3851   1.797   2.467   1.993 -0.7539  1.9503  0.9931
  963SOL     MW 3852   1.810   2.487   2.077 -0.5902 -0.2062  0.5281
  964SOL     OW 3853   1.777   1.980   2.728  0.6232 -1.1534  0.2705
  964SOL    HW1 3854   1.850   2.026   2.683 -1.2771  0.9740 -0.0204
  964SOL    HW2 3855   1.811   1.920   2.789 -2.4577 -0.0503  2.1669
  964SOL     MW 3856   1.791   1.979   2.730 -0.0340 -0.7272  0.4823
  965SOL     OW 3857   2.249   2.693   0.645  0.6043 -0.0998  0.0953
  965SOL    HW1 3858   2.232   2.603   0.617  0.3639 -1.3784  1.3738
  965SOL    HW2 3859   2.312   2.673   0.714 -0.6724 -0.8169  0.1746
  965SOL     MW 3860   2.255   2.679   0.651  0.4041 -0.3631  0.2744
  966SOL     OW 3861   2.642   2.617   2.475  0.1692 -0.2929 -0.1044
  966SOL    HW1 3862   2.618   2.632   2.378 -0.6227 -0.2803  2.3378
  966SOL    HW2 3863   2.678   2.531   2.474 -1.7666  0.1949 -0.6824
  966SOL     MW 3864   2.644   2.608   2.462 -0.1907 -0.2269  0.1415
  967SOL     OW 3865   2.775   3.095   2.950 -0.2896  0.1420 -0.3824
  967SOL    HW1 3866   2.738   3.026   3.007  2.9276 -0.6167  0.1310
  967SOL    HW2 3867   2.723   3.105   2.874  1.2597 -0.1621  2.8355
  967SOL     MW 3868   2.763   3.087   2.948  0.3393  0.0017  0.1099
  968SOL     OW 3869   2.973   2.623   2.950  0.0239  0.1999  0.2944
  968SOL    HW1 3870   2.884   2.656   2.918  0.0541 -0.2994  0.8069
  968SOL    HW2 3871   3.011   2.583   2.875  0.8406 -0.0219 -0.5355
  968SOL     MW 3872   2.966   2.622   2.936  0.1357  0.1047  0.2525
  969SOL     OW 3873   1.606   2.147   1.661 -0.1197  0.3378 -0.1634
  969SOL    HW1 3874   1.651   2.058   1.678 -0.7327 -0.3047  0.3547
  969SOL    HW2 3875   1.559   2.168   1.744  0.8264  1.2339  0.9874
  969SOL     MW 3876   1.606   2.138   1.674 -0.0758  0.3713  0.0568
  970SOL     OW 3877   1.699   1.778   1.945  0.8529 -0.1127 -0.1638
  970SOL    HW1 3878   1.758   1.710   1.968 -2.8645  0.9674 -1.9493
  970SOL    HW2 3879   1.608   1.756   1.960  3.9641  0.5781 -0.8598
  970SOL     MW 3880   1.695   1.766   1.950  0.7729  0.1210 -0.4912
  971SOL     OW 3881   1.772   0.053   2.435  0.3304 -0.4810  0.1806
  971SOL    HW1 3882   1.816  -0.004   2.371 -0.4091 -0.1819  0.0278
  971SOL    HW2 3883   1.815   0.137   2.427 -1.1697 -0.3176 -2.7123
  971SOL     MW 3884   1.783   0.056   2.425  0.0349 -0.4199 -0.2212
  972SOL     OW 3885   0.279   2.865   2.449  0.1343  0.0167 -0.2727
  972SOL    HW1 3886   0.329   2.784   2.462 -1.4151 -1.5902  0.0807
  972SOL    HW2 3887   0.350   2.930   2.466  2.3094  1.1019  0.2734
  972SOL     MW 3888   0.295   2.863   2.453  0.2168 -0.0522 -0.1540
  973SOL     OW 3889   2.597   0.026   2.089  0.2694  0.3916 -1.0022
  973SOL    HW1 3890   2.572  -0.066   2.085  0.3611  0.8214 -0.0332
  973SOL    HW2 3891   2.596   0.067   2.001  0.1347  0.1471 -0.9116
  973SOL     MW 3892   2.594   0.019   2.077  0.2637  0.4160 -0.8624
  974SOL     OW 3893   2.037   0.279   2.715  0.2870 -0.2376  0.9536
  974SOL    HW1 3894   2.119   0.234   2.704 -0.3570 -1.4697  0.7555
  974SOL    HW2 3895   1.989   0.213   2.763  2.2840  0.4702  0.4098
  974SOL     MW 3896   2.041   0.264   2.720  0.4655 -0.3068  0.8557
  975SOL     OW 3897   2.187   2.519   2.515  0.1852 -0.0861 -0.0655
  975SOL    HW1 3898   2.264   2.556   2.552  0.2409 -0.0931 -1.7276
  975SOL    HW2 3899   2.139   2.595   2.489  0.1010  0.7278 -0.2367
  975SOL     MW 3900   2.191   2.534   2.516  0.1815  0.0204 -0.3074
  976SOL     OW 3901   0.250   0.392   1.770 -0.5944 -0.3060  0.2069
  976SOL    HW1 3902   0.300   0.315   1.797  2.5963 -3.0897  0.3072
  976SOL    HW2 3903   0.164   0.352   1.753 -2.3491  0.0234 -2.1176
  976SOL     MW 3904   0.245   0.377   1.771 -0.4050 -0.6298 -0.0866
  977SOL     OW 3905   1.759   2.686   2.562 -0.0249 -0.4212  0.3429
  977SOL    HW1 3906   1.749   2.599   2.529 -2.7427  2.6280 -0.0300
  977SOL    HW2 3907   1.852   2.711   2.549  0.8806  0.8316  1.0130
  977SOL     MW 3908   1.770   2.678   2.556 -0.2640  0.1464  0.3821
   3.10000   3.10000   3.10000
