977 TIP4P/2005f water molecules t=   0.88000 step= 880
 3908
    1SOL     OW    1   0.342   0.816   3.057  0.7215 -0.5847  0.5759
    1SOL    HW1    2   0.270   0.833   2.991 -0.4065  0.0361  0.6342
    1SOL    HW2    3   0.321   0.739   3.104  1.7676  1.0005 -1.1770
    1SOL     MW    4   0.330   0.808   3.055  0.7107 -0.2937  0.3523
    2SOL     OW    5   0.315   2.996   1.169  0.2046  0.2565 -0.4879
    2SOL    HW1    6   0.385   3.060   1.156  0.0977  2.0726 -0.3929
    2SOL    HW2    7   0.224   3.032   1.169 -0.0809  2.0167 -0.3849
    2SOL     MW    8   0.312   3.009   1.167  0.1528  0.7284 -0.4617
    3SOL     OW    9   2.641   0.424   0.954  0.1141 -0.0423 -0.6650
    3SOL    HW1   10   2.707   0.483   0.906  0.5350 -4.1124 -0.8209
    3SOL    HW2   11   2.609   0.473   1.036  0.0913  2.0012  4.5783
    3SOL     MW   12   2.646   0.439   0.959  0.1666 -0.3097  0.0062
    4SOL     OW   13   3.000   1.691   0.624  0.1005 -0.5179  0.0751
    4SOL    HW1   14   2.934   1.734   0.565 -1.0439 -1.3211 -2.9840
    4SOL    HW2   15   3.054   1.651   0.556  0.5793 -1.1605 -2.4094
    4SOL     MW   16   2.998   1.691   0.607  0.0126 -0.7086 -0.6563
    5SOL     OW   17   1.742   1.507   0.513 -0.6313  0.2372 -0.1247
    5SOL    HW1   18   1.768   1.447   0.585  0.9186 -2.1123  0.2826
    5SOL    HW2   19   1.650   1.502   0.520  2.0999  1.3402 -1.6073
    5SOL     MW   20   1.734   1.498   0.523 -0.0664  0.0727 -0.2666
    6SOL     OW   21   0.821   1.455   0.605 -0.7479 -0.1335 -0.1356
    6SOL    HW1   22   0.734   1.452   0.646  0.4046 -1.5150  1.9553
    6SOL    HW2   23   0.853   1.370   0.636 -0.5801 -3.6023  0.6634
    6SOL     MW   24   0.814   1.443   0.614 -0.5737 -0.7734  0.2457
    7SOL     OW   25   2.049   1.144   3.058 -0.0773 -0.9626 -0.4533
    7SOL    HW1   26   2.112   1.196   3.005  0.8339  2.0744 -0.8430
    7SOL    HW2   27   2.077   1.160   3.150 -0.5133 -0.6654 -1.1998
    7SOL     MW   28   2.061   1.153   3.063 -0.0146 -0.5227 -0.6032
    8SOL     OW   29   0.915   1.398   1.033 -0.3132  0.8412  0.2771
    8SOL    HW1   30   1.001   1.359   1.038  1.2427 -2.8945 -0.2217
    8SOL    HW2   31   0.871   1.339   1.092 -0.6297 -1.9065 -0.1333
    8SOL     MW   32   0.921   1.385   1.041 -0.1496 -0.0142  0.1571
    9SOL     OW   33   1.017   0.517   1.396 -0.1197  0.1791  0.1677
    9SOL    HW1   34   0.987   0.444   1.342  1.0293 -1.7603 -0.2758
    9SOL    HW2   35   1.051   0.469   1.476  0.3399 -2.1065  2.0236
    9SOL     MW   36   1.018   0.501   1.399  0.0926 -0.3784  0.3540
   10SOL     OW   37   0.277   0.780   0.464 -0.0606 -0.1994 -0.2777
   10SOL    HW1   38   0.365   0.788   0.418 -0.6804 -1.6207 -2.6200
   10SOL    HW2   39   0.284   0.835   0.543 -2.5616 -0.8417  1.0089
   10SOL     MW   40   0.289   0.788   0.468 -0.4723 -0.4717 -0.4170
   11SOL     OW   41   0.802   1.129   1.728  0.1402  0.1553 -0.0287
   11SOL    HW1   42   0.853   1.104   1.808 -1.8687  1.8388  3.1078
   11SOL    HW2   43   0.863   1.087   1.662  0.3695 -0.7733  0.0489
   11SOL     MW   44   0.817   1.120   1.730 -0.0946  0.2549  0.3954
   12SOL     OW   45   0.041   1.088   0.877  0.5588  0.3813 -0.2164
   12SOL    HW1   46   0.094   1.161   0.932  3.6477  0.1287  2.2613
   12SOL    HW2   47  -0.029   1.139   0.831  0.5014  1.7686 -0.1807
   12SOL     MW   48   0.039   1.104   0.878  0.9588  0.5310  0.1153
   13SOL     OW   49   1.832   1.429   1.364  0.2538  0.3998 -0.3068
   13SOL    HW1   50   1.883   1.386   1.292  0.5613  1.7138 -2.1715
   13SOL    HW2   51   1.851   1.520   1.341 -0.5521 -0.2626 -2.0609
   13SOL     MW   52   1.841   1.435   1.351  0.1881  0.4858 -0.7843
   14SOL     OW   53   0.652   0.398   1.871  0.0485  0.3411  0.2868
   14SOL    HW1   54   0.602   0.319   1.872 -1.9792  0.3355 -0.0298
   14SOL    HW2   55   0.702   0.394   1.957 -0.6705 -3.0346  0.9713
   14SOL     MW   56   0.652   0.387   1.882 -0.3139 -0.1050  0.3353
   15SOL     OW   57   1.955   0.388   1.014  0.1994 -0.7895  0.3194
   15SOL    HW1   58   1.929   0.454   1.085  1.7477 -1.9214  1.7137
   15SOL    HW2   59   2.035   0.425   0.970  0.8996 -1.7730 -0.7123
   15SOL     MW   60   1.962   0.402   1.018  0.4961 -1.0687  0.3673
   16SOL     OW   61   0.163   1.823   0.333  0.1660 -0.1047 -0.0712
   16SOL    HW1   62   0.248   1.794   0.302 -1.3560  0.5186 -1.8627
   16SOL    HW2   63   0.178   1.916   0.361  0.6593 -0.9469  1.0405
   16SOL     MW   64   0.176   1.832   0.333  0.0303 -0.1336 -0.1609
   17SOL     OW   65   1.119   0.907   1.490  0.4856 -0.2011 -0.7229
   17SOL    HW1   66   1.158   0.851   1.553  0.4239  1.7199 -2.7366
   17SOL    HW2   67   1.022   0.909   1.518  1.9420 -0.0945 -2.4964
   17SOL     MW   68   1.111   0.900   1.502  0.6696  0.0664 -1.2226
   18SOL     OW   69   0.066   1.572   0.394 -0.5589 -0.1615  0.4101
   18SOL    HW1   70   0.100   1.665   0.380 -1.6681  0.7493  0.3478
   18SOL    HW2   71   0.059   1.527   0.314  0.7331  1.5469  0.5479
   18SOL     MW   72   0.070   1.578   0.381 -0.5348  0.1840  0.4201
   19SOL     OW   73   0.134   1.307   0.996 -0.1806  0.1556  0.0877
   19SOL    HW1   74   0.165   1.351   0.919  4.1212 -2.6710  0.1202
   19SOL    HW2   75   0.043   1.329   1.020 -2.0273 -0.2917  2.7064
   19SOL     MW   76   0.126   1.316   0.989  0.1433 -0.2764  0.4375
   20SOL     OW   77   0.450   2.145   1.160  0.0943 -0.1167  0.5842
   20SOL    HW1   78   0.407   2.073   1.104  0.9265 -1.7650  1.1848
   20SOL    HW2   79   0.396   2.154   1.234  1.2782 -0.3033 -2.9450
   20SOL     MW   80   0.437   2.137   1.163  0.3603 -0.3588  0.1978
   21SOL     OW   81   0.527   0.821   0.347 -0.7048  0.2072  0.1562
   21SOL    HW1   82   0.608   0.823   0.394  0.3025 -0.1209 -0.5955
   21SOL    HW2   83   0.550   0.820   0.253  1.0438 -0.4602  1.7330
   21SOL     MW   84   0.541   0.821   0.341 -0.3412  0.0759  0.2651
   22SOL     OW   85   1.524   0.707   1.060  0.5551  0.4030  0.1660
   22SOL    HW1   86   1.479   0.715   0.971 -2.1480  0.9675 -2.2239
   22SOL    HW2   87   1.496   0.782   1.109 -0.2441  0.5982 -0.6843
   22SOL     MW   88   1.514   0.718   1.055  0.0930  0.5032 -0.2615
   23SOL     OW   89   0.026   0.766   0.661 -0.4849  0.3226 -0.2188
   23SOL    HW1   90   0.049   0.695   0.723  0.0725  2.6021  1.7434
   23SOL    HW2   91   0.091   0.837   0.677 -0.0156 -2.8267  0.2017
   23SOL     MW   92   0.038   0.766   0.672 -0.3494  0.2078  0.0956
   24SOL     OW   93   1.981   2.229   0.106  0.5206  0.1319 -0.3331
   24SOL    HW1   94   2.004   2.210   0.201  0.9513 -0.8556  2.7434
   24SOL    HW2   95   2.016   2.156   0.052  0.3757 -0.1659 -2.4687
   24SOL     MW   96   1.989   2.216   0.111  0.5583 -0.0377 -0.2090
   25SOL     OW   97   0.248   1.412   0.498  0.5683  0.3498  0.1224
   25SOL    HW1   98   0.181   1.474   0.469  0.9922  0.5755  1.8869
   25SOL    HW2   99   0.321   1.419   0.431 -1.1956 -2.3800  1.1879
   25SOL     MW  100   0.249   1.421   0.485  0.3915  0.0194  0.4958
   26SOL     OW  101   2.030   0.981   0.352 -0.0406  0.1015 -0.3075
   26SOL    HW1  102   1.976   1.035   0.404  0.5279 -0.3165  1.4906
   26SOL    HW2  103   2.093   1.045   0.319  2.1099  2.2225  0.2479
   26SOL     MW  104   2.031   0.996   0.354  0.3182  0.3262  0.0030
   27SOL     OW  105   2.042   1.428   0.265  0.6482 -0.5698 -0.0051
   27SOL    HW1  106   1.974   1.385   0.317 -1.7000  1.2058 -2.1981
   27SOL    HW2  107   2.089   1.478   0.337 -2.8012  1.1911  0.7988
   27SOL     MW  108   2.039   1.429   0.281 -0.1167 -0.1032 -0.1884
   28SOL     OW  109   0.398   0.983   1.994  1.0179 -0.6882 -0.2442
   28SOL    HW1  110   0.460   0.948   2.055  2.7898  3.5084  2.7912
   28SOL    HW2  111   0.308   0.934   1.992  0.9676  3.9733  2.7056
   28SOL     MW  112   0.395   0.972   2.002  1.2451  0.4806  0.5455
   29SOL     OW  113   0.243   1.440   0.804  0.2260 -0.4824  0.3897
   29SOL    HW1  114   0.218   1.534   0.801  0.9225 -0.3746  1.8119
   29SOL    HW2  115   0.262   1.416   0.715  0.0795  1.6451  1.4532
   29SOL     MW  116   0.242   1.449   0.792  0.2986 -0.1875  0.7177
   30SOL     OW  117   0.830   1.172   1.216  0.1236  0.0908  0.1523
   30SOL    HW1  118   0.743   1.208   1.253 -0.3017  2.4043 -0.6526
   30SOL    HW2  119   0.893   1.177   1.291  3.8149  0.5704 -0.1307
   30SOL     MW  120   0.827   1.177   1.231  0.5545  0.4593  0.0088
   31SOL     OW  121   0.405   0.151   0.200  0.1479 -0.6956 -0.3020
   31SOL    HW1  122   0.410   0.081   0.263 -1.9607 -0.8919 -3.6832
   31SOL    HW2  123   0.425   0.118   0.112 -2.5992  3.2943  0.9893
   31SOL     MW  124   0.408   0.138   0.197 -0.4927 -0.1951 -0.5778
   32SOL     OW  125   2.794   0.986   1.114 -0.0530 -0.1791 -0.2486
   32SOL    HW1  126   2.728   0.920   1.113  0.3883  2.1299  0.3792
   32SOL    HW2  127   2.870   0.933   1.102  1.7350  1.3475  2.5564
   32SOL     MW  128   2.795   0.970   1.112  0.2412  0.3270  0.2043
   33SOL     OW  129   1.774   1.307   0.332 -0.5078 -0.2273 -0.2845
   33SOL    HW1  130   1.788   1.240   0.398  0.6080 -2.9247 -1.6551
   33SOL    HW2  131   1.746   1.380   0.389 -0.1677 -1.1492  2.2468
   33SOL     MW  132   1.772   1.308   0.348 -0.3157 -0.7048 -0.1314
   34SOL     OW  133   1.235   1.857   1.069  0.0277  0.0787 -0.2008
   34SOL    HW1  134   1.164   1.915   1.056  0.9071  1.8087  1.1545
   34SOL    HW2  135   1.289   1.897   1.138 -1.9067 -2.9852  0.1174
   34SOL     MW  136   1.233   1.870   1.077 -0.1115 -0.0973  0.0200
   35SOL     OW  137   0.462   0.223   1.839 -0.0568  0.4732 -0.3938
   35SOL    HW1  138   0.447   0.134   1.873 -1.2451 -1.1110 -1.8456
   35SOL    HW2  139   0.477   0.204   1.744  0.2472 -1.7467 -3.0055
   35SOL     MW  140   0.462   0.209   1.831 -0.1735 -0.0287 -0.9299
   36SOL     OW  141   1.942   1.959   0.533  0.2786  0.6556 -0.6670
   36SOL    HW1  142   1.944   1.982   0.437 -0.2477 -0.3911  0.8792
   36SOL    HW2  143   1.944   1.859   0.530  0.3996 -0.3055  0.5095
   36SOL     MW  144   1.943   1.949   0.520  0.2252  0.3907 -0.3077
   37SOL     OW  145   1.754   1.992   0.997  0.3323  0.3183 -0.2402
   37SOL    HW1  146   1.726   1.926   0.934  1.8718 -0.7317 -3.4158
   37SOL    HW2  147   1.683   2.018   1.053  0.6495 -0.6876 -0.0684
   37SOL     MW  148   1.741   1.987   0.996  0.5772  0.0471 -0.6365
   38SOL     OW  149   2.799   0.915   0.112  0.7855 -0.3825 -0.0651
   38SOL    HW1  150   2.816   0.903   0.203  0.9449  0.0396  0.3686
   38SOL    HW2  151   2.892   0.890   0.085  0.8360 -0.8449 -0.3687
   38SOL     MW  152   2.813   0.910   0.120  0.8132 -0.3878 -0.0480
   39SOL     OW  153   1.444   0.613   0.802  0.4505  0.2226 -0.3249
   39SOL    HW1  154   1.405   0.527   0.819 -0.1675  0.0336  0.4765
   39SOL    HW2  155   1.377   0.652   0.748 -1.3013  0.1418 -2.1833
   39SOL     MW  156   1.430   0.607   0.797  0.1378  0.1870 -0.4644
   40SOL     OW  157   1.154   1.897   0.286  0.0705  0.4011  1.1671
   40SOL    HW1  158   1.198   1.818   0.324  3.3188  0.0154 -0.3147
   40SOL    HW2  159   1.132   1.964   0.347  0.9921  0.8656 -1.2896
   40SOL     MW  160   1.157   1.896   0.299  0.6207  0.4115  0.6474
   41SOL     OW  161   0.585   0.551   1.607  0.0699  0.1970  0.2294
   41SOL    HW1  162   0.661   0.603   1.630  0.6515  0.4491  0.5640
   41SOL    HW2  163   0.584   0.493   1.688 -1.5426  3.3670  1.6438
   41SOL     MW  164   0.595   0.550   1.621 -0.0661  0.6485  0.4601
   42SOL     OW  165   1.292   3.011   1.979  0.0800 -0.4741  0.4603
   42SOL    HW1  166   1.206   3.001   2.026  0.6635  0.3630 -1.9701
   42SOL    HW2  167   1.355   2.961   2.027 -1.8491 -0.6712  3.4691
   42SOL     MW  168   1.289   3.003   1.991 -0.0975 -0.3897  0.5366
   43SOL     OW  169   1.587   0.103   1.709  0.0666  0.1772 -0.5840
   43SOL    HW1  170   1.609   0.064   1.624 -0.5643 -0.6555  1.7990
   43SOL    HW2  171   1.490   0.092   1.719 -0.1335 -0.3601  0.7255
   43SOL     MW  172   1.577   0.097   1.699 -0.0430 -0.0035 -0.0968
   44SOL     OW  173   1.050   0.777   1.017 -0.1804  0.8529 -0.2124
   44SOL    HW1  174   1.088   0.850   0.971 -0.5962 -0.3239 -1.4303
   44SOL    HW2  175   1.105   0.757   1.090 -2.6262 -0.4912  0.0064
   44SOL     MW  176   1.062   0.784   1.020 -0.5579  0.5203 -0.3442
   45SOL     OW  177   1.239   0.751   0.675 -0.3313  0.1310 -0.5525
   45SOL    HW1  178   1.173   0.779   0.740  1.3283  3.8486  0.0519
   45SOL    HW2  179   1.189   0.702   0.610  0.0510  0.8305 -3.4946
   45SOL     MW  180   1.224   0.749   0.675 -0.0619  0.7138 -0.8609
   46SOL     OW  181   0.553   1.165   0.616 -0.5638  0.2514  1.1337
   46SOL    HW1  182   0.519   1.156   0.527  0.4022 -1.9126  1.9312
   46SOL    HW2  183   0.643   1.130   0.585 -2.6767 -2.2295 -0.1687
   46SOL     MW  184   0.560   1.159   0.600 -0.7151 -0.3615  1.0670
   47SOL     OW  185   0.160   1.994   1.928 -0.0211 -0.5054  0.0797
   47SOL    HW1  186   0.213   1.918   1.900  1.2608 -0.2309  2.6526
   47SOL    HW2  187   0.186   1.996   2.021 -0.0905  0.7683  1.8995
   47SOL     MW  188   0.171   1.984   1.937  0.1389 -0.3011  0.6593
   48SOL     OW  189   1.097   0.491   0.957 -0.2497  0.2220  0.0825
   48SOL    HW1  190   1.003   0.484   0.962 -1.8586  0.4906  1.7465
   48SOL    HW2  191   1.106   0.583   0.962  1.7668 -3.6899 -0.7063
   48SOL     MW  192   1.086   0.502   0.958 -0.1960 -0.2587  0.1980
   49SOL     OW  193   1.829   0.733   1.577 -0.1970  0.0714 -0.2265
   49SOL    HW1  194   1.792   0.670   1.646 -2.2965 -2.2895 -2.1071
   49SOL    HW2  195   1.894   0.678   1.541 -0.5337  0.7692 -1.2672
   49SOL     MW  196   1.833   0.718   1.581 -0.5184 -0.1480 -0.6119
   50SOL     OW  197   1.239   1.074   0.514  0.4662 -0.5950  0.2388
   50SOL    HW1  198   1.205   1.124   0.590 -0.1848  3.9395  0.8740
   50SOL    HW2  199   1.314   1.031   0.555  1.9624  0.7288 -0.9262
   50SOL     MW  200   1.245   1.075   0.530  0.5777  0.1780  0.1689
   51SOL     OW  201   0.290   2.908   0.920  0.3687 -0.1011  0.3160
   51SOL    HW1  202   0.360   2.835   0.923 -3.0046 -0.7331 -0.0676
   51SOL    HW2  203   0.300   2.940   1.013 -0.8435  0.1227 -1.2473
   51SOL     MW  204   0.300   2.902   0.932 -0.2363 -0.1549  0.0592
   52SOL     OW  205   0.806   1.805   0.463 -0.4133 -0.1146  0.6311
   52SOL    HW1  206   0.752   1.885   0.464 -0.2619 -2.5040 -1.0454
   52SOL    HW2  207   0.840   1.798   0.374 -0.3040 -0.4289 -0.2801
   52SOL     MW  208   0.803   1.814   0.451 -0.3789 -0.4714  0.2897
   53SOL     OW  209   0.439   2.122   0.590  0.4623 -0.2966  0.1591
   53SOL    HW1  210   0.376   2.100   0.519  0.4498  0.7134 -0.9521
   53SOL    HW2  211   0.404   2.208   0.605  0.1529  0.2050 -1.9504
   53SOL     MW  212   0.426   2.131   0.582  0.4198 -0.0972 -0.2659
   54SOL     OW  213   2.072   0.951   0.823 -0.1330 -0.0207 -0.4878
   54SOL    HW1  214   2.123   0.966   0.741 -0.8652 -1.5445 -1.0592
   54SOL    HW2  215   2.016   0.874   0.815 -1.2183  0.6604  2.5527
   54SOL     MW  216   2.071   0.943   0.811 -0.3728 -0.1319 -0.1620
   55SOL     OW  217   0.549   1.535   1.660 -0.7003  0.2847 -0.4594
   55SOL    HW1  218   0.495   1.582   1.596 -2.1701 -0.5255 -0.6083
   55SOL    HW2  219   0.631   1.517   1.616 -2.0012  1.5192  0.9295
   55SOL     MW  220   0.553   1.539   1.646 -1.0658  0.3407 -0.2958
   56SOL     OW  221   0.595   0.791   0.088 -0.3016  0.0887  0.6978
   56SOL    HW1  222   0.654   0.863   0.081 -0.4395 -1.8147 -0.0300
   56SOL    HW2  223   0.525   0.813   0.024 -2.0467  1.3753 -0.2226
   56SOL     MW  224   0.593   0.803   0.079 -0.5501  0.0073  0.4803
   57SOL     OW  225   1.179   1.234   1.122 -0.3888  0.1977 -0.3366
   57SOL    HW1  226   1.268   1.268   1.097 -0.5279  2.5536  0.3123
   57SOL    HW2  227   1.203   1.200   1.209 -2.4453  0.8848 -2.3326
   57SOL     MW  228   1.194   1.234   1.130 -0.6785  0.5992 -0.5144
   58SOL     OW  229   0.540   1.170   1.336  0.3255 -0.4856 -0.0399
   58SOL    HW1  230   0.507   1.258   1.318  1.2331  2.6154 -0.8157
   58SOL    HW2  231   0.558   1.178   1.427  1.3439  0.6880 -1.1036
   58SOL     MW  232   0.538   1.183   1.346  0.5796  0.0784 -0.2826
   59SOL     OW  233   1.554   1.705   0.342  0.0534  0.3120  0.2700
   59SOL    HW1  234   1.580   1.763   0.412 -0.4332 -1.2428  2.4536
   59SOL    HW2  235   1.459   1.687   0.369  1.4358 -2.2994 -0.4431
   59SOL     MW  236   1.545   1.710   0.355  0.1716 -0.2377  0.4640
   60SOL     OW  237   0.020   0.197   1.574  0.7670  0.4050 -0.2275
   60SOL    HW1  238  -0.067   0.235   1.595  3.7955 -2.6470 -1.1938
   60SOL    HW2  239   0.034   0.131   1.638 -1.2562  1.3483  1.1197
   60SOL     MW  240   0.010   0.194   1.585  0.8996  0.1268 -0.1773
   61SOL     OW  241   2.025   1.511   3.093  0.2406  0.2153 -0.3175
   61SOL    HW1  242   1.999   1.520   3.186 -1.0090 -2.8259  1.2687
   61SOL    HW2  243   2.100   1.449   3.091  0.0065 -1.2751  0.2357
   61SOL     MW  244   2.031   1.504   3.105  0.0449 -0.3826 -0.0352
   62SOL     OW  245   0.589   1.737   0.638 -0.0091  0.1902 -0.1494
   62SOL    HW1  246   0.682   1.743   0.596  2.4258  0.1937 -1.5745
   62SOL    HW2  247   0.577   1.645   0.664  0.2346  0.5520 -2.0041
   62SOL     MW  248   0.600   1.726   0.636  0.3443  0.2384 -0.5821
   63SOL     OW  249   1.698   0.675   0.737  0.8663  0.1487 -0.2887
   63SOL    HW1  250   1.701   0.751   0.680 -1.1841  0.5895  1.1715
   63SOL    HW2  251   1.604   0.657   0.748  0.2127  0.3374  1.5268
   63SOL     MW  252   1.686   0.682   0.731  0.5095  0.2317  0.1435
   64SOL     OW  253   0.174   1.703   0.799 -0.3666 -0.1067  0.6169
   64SOL    HW1  254   0.243   1.756   0.757  0.1173  0.5608 -3.7606
   64SOL    HW2  255   0.087   1.753   0.785 -0.1074  0.3056  0.0316
   64SOL     MW  256   0.172   1.717   0.791 -0.2686  0.0357 -0.0379
   65SOL     OW  257   1.578   2.296   0.388  0.2154 -0.5583 -0.1430
   65SOL    HW1  258   1.670   2.318   0.373  0.0586 -1.9945 -0.9632
   65SOL    HW2  259   1.552   2.356   0.457  0.6753 -0.6355  2.7195
   65SOL     MW  260   1.587   2.307   0.395  0.2554 -0.7580  0.1264
   66SOL     OW  261   0.293   0.524   0.547  0.0322 -0.9944 -0.4293
   66SOL    HW1  262   0.363   0.492   0.489  0.2707  0.1922  1.9162
   66SOL    HW2  263   0.268   0.614   0.514 -4.2850  1.7511 -1.5401
   66SOL     MW  264   0.299   0.531   0.535 -0.5060 -0.4756 -0.2664
   67SOL     OW  265   1.557   0.059   2.054  0.3904 -0.0957  0.0076
   67SOL    HW1  266   1.569   0.055   1.958 -3.1749 -0.0221 -2.4580
   67SOL    HW2  267   1.522  -0.029   2.070 -2.3275 -0.6620 -1.5903
   67SOL     MW  268   1.554   0.047   2.043 -0.4386 -0.1607 -0.5286
   68SOL     OW  269   0.707   0.091   2.937  0.6296 -0.8175 -0.3776
   68SOL    HW1  270   0.711   0.126   2.850  1.0742 -1.1537 -0.1400
   68SOL    HW2  271   0.770   0.140   2.990 -1.6316 -3.2736  0.4621
   68SOL     MW  272   0.716   0.102   2.933  0.3899 -1.1859 -0.2355
   69SOL     OW  273   1.032   0.241   2.000  0.2117  0.8246 -0.3756
   69SOL    HW1  274   1.124   0.264   2.016 -1.7100 -0.5087 -0.3990
   69SOL    HW2  275   1.028   0.146   2.005 -0.0331 -1.3094  2.3942
   69SOL     MW  276   1.044   0.232   2.003 -0.0741  0.3672 -0.0133
   70SOL     OW  277   0.531   1.733   1.130 -0.1050  0.2562 -0.2066
   70SOL    HW1  278   0.588   1.703   1.201  0.2922  1.2187  0.7562
   70SOL    HW2  279   0.597   1.748   1.062  1.4008 -1.4520  2.5146
   70SOL     MW  280   0.547   1.731   1.130  0.1461  0.1578  0.2795
   71SOL     OW  281   1.570   0.514   1.254  0.0620 -0.4389 -0.3892
   71SOL    HW1  282   1.581   0.586   1.314  0.2046 -1.0648 -0.5964
   71SOL    HW2  283   1.540   0.559   1.175 -0.0402  0.1712  0.6380
   71SOL     MW  284   1.568   0.529   1.252  0.0673 -0.4410 -0.2810
   72SOL     OW  285   0.757   1.858   0.964  0.1471  0.2953  0.2749
   72SOL    HW1  286   0.744   1.898   0.876  0.7359 -1.4017 -1.4680
   72SOL    HW2  287   0.755   1.766   0.941 -1.1508 -1.0478 -3.0596
   72SOL     MW  288   0.755   1.851   0.949  0.0535 -0.1058 -0.3950
   73SOL     OW  289   1.168   0.725   1.291  0.3550 -0.1701 -0.3925
   73SOL    HW1  290   1.108   0.649   1.315  1.8189 -1.8179 -2.2298
   73SOL    HW2  291   1.144   0.796   1.356 -0.7620  1.8423 -0.9580
   73SOL     MW  292   1.157   0.724   1.303  0.4008 -0.1220 -0.7095
   74SOL     OW  293   2.721   0.141   0.976 -0.4252 -0.2550 -0.0193
   74SOL    HW1  294   2.790   0.099   0.922 -1.5452 -0.5337  0.8252
   74SOL    HW2  295   2.713   0.236   0.953  1.7344  0.1545  0.3425
   74SOL     MW  296   2.729   0.148   0.966 -0.2880 -0.2378  0.1399
   75SOL     OW  297   1.624   1.368   0.121 -0.7013 -0.6534 -0.3769
   75SOL    HW1  298   1.658   1.454   0.146 -0.4237  0.3172 -0.3206
   75SOL    HW2  299   1.681   1.318   0.181 -1.8741  2.0822 -0.2521
   75SOL     MW  300   1.636   1.373   0.132 -0.8194 -0.1644 -0.3530
   76SOL     OW  301   3.007   0.598   0.479 -0.3933 -0.3502  0.3008
   76SOL    HW1  302   3.061   0.657   0.534  0.6696  1.2308 -3.3340
   76SOL    HW2  303   3.068   0.535   0.438  1.4416 -3.8358  2.3221
   76SOL     MW  304   3.022   0.598   0.481 -0.0110 -0.6015  0.0879
   77SOL     OW  305   0.822   0.519   0.457 -0.5784 -0.1953  0.6613
   77SOL    HW1  306   0.793   0.542   0.365  1.0341 -1.7727 -2.2756
   77SOL    HW2  307   0.758   0.455   0.491  1.3702 -0.0822 -0.5790
   77SOL     MW  308   0.809   0.514   0.449 -0.1086 -0.3885  0.1102
   78SOL     OW  309   0.720   0.916   1.315  0.0599 -0.4703  0.0429
   78SOL    HW1  310   0.769   0.984   1.273 -1.0022 -0.5746  0.1575
   78SOL    HW2  311   0.677   0.874   1.246 -0.9357  0.3608 -1.2918
   78SOL     MW  312   0.721   0.919   1.300 -0.2116 -0.3744 -0.1180
   79SOL     OW  313   1.944   1.691   0.588  0.3549  0.1168  0.2196
   79SOL    HW1  314   1.872   1.636   0.550  2.2218 -0.1359  0.4056
   79SOL    HW2  315   1.953   1.670   0.684  1.5291 -3.1168 -0.9370
   79SOL     MW  316   1.935   1.681   0.595  0.7562 -0.3432  0.0915
   80SOL     OW  317   0.070   0.940   0.339  0.2266  0.1997 -0.0211
   80SOL    HW1  318  -0.022   0.903   0.348 -1.5668 -0.8149 -1.3363
   80SOL    HW2  319   0.128   0.889   0.396 -1.5778 -1.9337 -1.1813
   80SOL     MW  320   0.066   0.928   0.348 -0.2481 -0.2157 -0.3477
   81SOL     OW  321   1.928   1.908   0.255  0.4289 -0.3834  0.8257
   81SOL    HW1  322   1.911   1.820   0.222 -2.5894 -0.2698  0.5111
   81SOL    HW2  323   1.848   1.958   0.248 -0.8999 -1.1586 -0.0667
   81SOL     MW  324   1.915   1.903   0.250 -0.1447 -0.4707  0.6665
   82SOL     OW  325   0.805   1.021   0.533 -0.2327 -0.2795  0.4855
   82SOL    HW1  326   0.816   1.012   0.431  1.4624  0.3199 -0.3496
   82SOL    HW2  327   0.795   0.931   0.564  0.1889  1.7593 -0.4117
   82SOL     MW  328   0.805   1.008   0.524  0.0466  0.0685  0.2570
   83SOL     OW  329   0.057   0.656   1.470  0.6735 -0.4318 -0.0464
   83SOL    HW1  330   0.093   0.702   1.388  0.4410 -1.3131  0.9549
   83SOL    HW2  331   0.134   0.615   1.512  1.0321 -0.0420  2.3444
   83SOL     MW  332   0.072   0.657   1.465  0.6902 -0.4966  0.4011
   84SOL     OW  333   0.130   0.272   0.996  0.1379 -0.5910  0.8196
   84SOL    HW1  334   0.061   0.327   0.946  1.0792  0.2003  1.7753
   84SOL    HW2  335   0.077   0.206   1.042 -1.3246  1.5043  0.1501
   84SOL     MW  336   0.114   0.271   0.995  0.0692 -0.2102  0.8574
   85SOL     OW  337   0.464   0.437   0.716 -0.1452  0.5646 -0.4741
   85SOL    HW1  338   0.394   0.476   0.662 -1.4789  1.0613 -1.0171
   85SOL    HW2  339   0.422   0.369   0.768 -0.7341 -0.8576  0.9204
   85SOL     MW  340   0.449   0.433   0.716 -0.3989  0.4425 -0.3617
   86SOL     OW  341   1.161   0.276   1.125 -0.2664 -0.3673  0.0681
   86SOL    HW1  342   1.134   0.355   1.084  0.2595 -2.0082 -0.3901
   86SOL    HW2  343   1.236   0.309   1.174  1.2611 -1.2936 -0.2472
   86SOL     MW  344   1.167   0.291   1.126  0.0045 -0.7060 -0.0339
   87SOL     OW  345   1.247   1.468   1.348  0.9840  0.1595 -0.5272
   87SOL    HW1  346   1.244   1.493   1.255  0.3391 -1.1433 -0.8698
   87SOL    HW2  347   1.217   1.378   1.349 -0.5610 -1.0940 -2.3223
   87SOL     MW  348   1.243   1.460   1.336  0.6951 -0.1777 -0.8092
   88SOL     OW  349   1.201   1.019   0.961 -0.5301  0.2628  0.9566
   88SOL    HW1  350   1.294   1.004   0.979 -0.3260  1.0307 -0.1267
   88SOL    HW2  351   1.176   1.086   1.022 -0.3716  1.8947 -2.5031
   88SOL     MW  352   1.210   1.026   0.972 -0.4823  0.5795  0.3572
   89SOL     OW  353   1.771   0.694   0.376 -0.3925  0.4232  0.0767
   89SOL    HW1  354   1.776   0.598   0.378 -1.5943 -1.9291 -3.0396
   89SOL    HW2  355   1.825   0.715   0.302 -0.2297 -0.0319  1.3135
   89SOL     MW  356   1.779   0.684   0.367 -0.5296  0.0528 -0.1713
   90SOL     OW  357   0.719   1.148   2.734  0.3508 -0.0428  0.0844
   90SOL    HW1  358   0.762   1.069   2.766  1.4775  1.5768 -2.1833
   90SOL    HW2  359   0.731   1.192   2.820  3.5270  1.6863  4.1083
   90SOL     MW  360   0.726   1.144   2.749  0.9185  0.3990  0.3161
   91SOL     OW  361   2.177   0.662   0.438  0.0924 -0.0028 -0.2643
   91SOL    HW1  362   2.220   0.725   0.381  1.9758  0.0919  1.0585
   91SOL    HW2  363   2.177   0.577   0.397  0.0973  0.7882  1.0126
   91SOL     MW  364   2.183   0.659   0.425  0.3416  0.1140  0.0787
   92SOL     OW  365   1.714   0.899   0.535  0.3866  0.2016 -0.0366
   92SOL    HW1  366   1.619   0.926   0.536  0.4102 -0.2179  1.6702
   92SOL    HW2  367   1.722   0.820   0.484  3.2637  1.4753  0.7183
   92SOL     MW  368   1.702   0.892   0.528  0.7693  0.3143  0.2882
   93SOL     OW  369   0.942   0.243   0.406  0.6934 -0.5002 -0.3892
   93SOL    HW1  370   0.901   0.316   0.451 -0.6234  0.3341 -3.4833
   93SOL    HW2  371   0.975   0.285   0.327  1.2589  0.9813  0.3443
   93SOL     MW  372   0.941   0.258   0.402  0.5943 -0.1946 -0.7007
   94SOL     OW  373   1.793   1.456   1.633  0.3349 -0.9034  0.6015
   94SOL    HW1  374   1.822   1.438   1.547 -2.5406 -1.4231  1.0893
   94SOL    HW2  375   1.775   1.362   1.672 -2.5890 -1.4685 -0.2548
   94SOL     MW  376   1.794   1.441   1.627 -0.4303 -1.0465  0.5529
   95SOL     OW  377   0.736   1.561   0.905 -0.0160  0.1191  0.1169
   95SOL    HW1  378   0.789   1.495   0.948 -0.2927 -0.2730 -1.0397
   95SOL    HW2  379   0.653   1.522   0.933  0.3963 -1.6293  1.1170
   95SOL     MW  380   0.732   1.547   0.914  0.0019 -0.1633  0.0962
   96SOL     OW  381   1.279   1.860   1.693  0.4219  0.0562 -0.7374
   96SOL    HW1  382   1.185   1.868   1.720 -4.2346 -0.1024  1.0685
   96SOL    HW2  383   1.293   1.776   1.655  0.2077  5.0819  1.1903
   96SOL     MW  384   1.269   1.850   1.692 -0.2207  0.6984 -0.2448
   97SOL     OW  385   1.264   1.429   0.728  0.0270 -0.1843 -0.0574
   97SOL    HW1  386   1.317   1.480   0.785 -1.6012 -0.8015 -0.3479
   97SOL    HW2  387   1.182   1.479   0.735 -0.6888  0.9086  1.1533
   97SOL     MW  388   1.260   1.442   0.737 -0.2823 -0.1215  0.0640
   98SOL     OW  389   1.446   1.299   1.046  0.0785 -0.2592 -0.0555
   98SOL    HW1  390   1.483   1.380   1.088  1.9037  1.4310  2.1880
   98SOL    HW2  391   1.492   1.295   0.959 -1.9811  0.7578 -2.4146
   98SOL     MW  392   1.457   1.309   1.040  0.0476  0.0980 -0.0707
   99SOL     OW  393   1.366   0.353   1.335 -0.2145  0.0351  0.4788
   99SOL    HW1  394   1.435   0.420   1.315 -0.5321 -1.0246  0.1842
   99SOL    HW2  395   1.349   0.357   1.430 -3.8981  0.2076 -2.1735
   99SOL     MW  396   1.373   0.363   1.345 -0.7424 -0.0820  0.0900
  100SOL     OW  397   1.006   1.183   1.429 -0.2353  0.0891  0.4908
  100SOL    HW1  398   1.018   1.237   1.510 -0.6278 -1.0910  2.5850
  100SOL    HW2  399   1.066   1.107   1.441 -0.8236 -2.3198 -0.7520
  100SOL     MW  400   1.016   1.180   1.441 -0.3647 -0.3844  0.6031
  101SOL     OW  401   0.488   1.095   0.333 -0.3541  0.3184  0.1829
  101SOL    HW1  402   0.496   0.999   0.333 -0.3203 -3.2633 -0.0360
  101SOL    HW2  403   0.459   1.127   0.252  2.3227 -0.7100  0.5362
  101SOL     MW  404   0.486   1.086   0.323  0.0036 -0.2898  0.2007
  102SOL     OW  405   2.925   0.639   1.072  0.5213  0.5511  0.6329
  102SOL    HW1  406   2.990   0.712   1.069 -0.7887 -1.6014  0.8378
  102SOL    HW2  407   2.950   0.583   1.150 -2.3723 -1.5843  0.7227
  102SOL     MW  408   2.937   0.642   1.082 -0.0333 -0.0146  0.6717
  103SOL     OW  409   1.797   0.270   1.810  0.3767 -0.3637 -0.7063
  103SOL    HW1  410   1.760   0.190   1.759  1.0085 -3.4790 -2.0706
  103SOL    HW2  411   1.829   0.230   1.898  0.6349  0.4006 -1.4912
  103SOL     MW  412   1.796   0.254   1.815  0.4941 -0.6739 -0.9898
  104SOL     OW  413   0.087   1.652   1.497  1.0269 -1.0178 -0.2948
  104SOL    HW1  414   0.041   1.710   1.560 -1.0986  3.0105  1.5412
  104SOL    HW2  415   0.024   1.631   1.437 -0.1274 -0.3682  1.8037
  104SOL     MW  416   0.073   1.657   1.497  0.5942 -0.4006  0.2243
  105SOL     OW  417   0.014   1.199   0.431 -0.0912  0.2282  0.0057
  105SOL    HW1  418   0.045   1.107   0.405  1.8287 -1.2294  0.0963
  105SOL    HW2  419   0.095   1.257   0.444  2.2518  2.0338 -0.3479
  105SOL     MW  420   0.029   1.194   0.429  0.4712  0.2741 -0.0290
  106SOL     OW  421   0.850   0.372   1.010 -0.0436 -0.4295 -0.2807
  106SOL    HW1  422   0.783   0.407   0.947  0.2871 -0.5128 -0.6697
  106SOL    HW2  423   0.910   0.311   0.960  0.7752  0.2412  1.2015
  106SOL     MW  424   0.849   0.368   0.995  0.1080 -0.3520 -0.1365
  107SOL     OW  425   0.788   2.152   2.978  0.3227  0.3333  0.4320
  107SOL    HW1  426   0.710   2.135   2.919  1.9619  0.4427 -1.4422
  107SOL    HW2  427   0.755   2.120   3.065 -3.1240 -0.0070 -0.0928
  107SOL     MW  428   0.773   2.145   2.982  0.0842  0.3028  0.1155
  108SOL     OW  429   1.301   1.563   1.621  0.6692  0.0664  0.8044
  108SOL    HW1  430   1.277   1.560   1.527 -0.4072  2.9165 -2.8130
  108SOL    HW2  431   1.389   1.520   1.637  1.2968 -0.3611 -1.1339
  108SOL     MW  432   1.309   1.557   1.611  0.6100  0.3860  0.0714
  109SOL     OW  433   1.961   0.766   0.167  0.2084 -0.0363 -0.2469
  109SOL    HW1  434   1.972   0.811   0.085 -5.2802  3.5108  0.7585
  109SOL    HW2  435   2.018   0.812   0.228  2.4785 -4.6836  1.0919
  109SOL     MW  436   1.970   0.778   0.164 -0.2162 -0.1815  0.0624
  110SOL     OW  437   0.406   1.904   0.751 -0.6998  0.2289 -0.9598
  110SOL    HW1  438   0.471   1.836   0.738 -0.5192  0.4553 -0.5846
  110SOL    HW2  439   0.423   1.970   0.680  0.7741 -1.0372 -2.9905
  110SOL     MW  440   0.417   1.904   0.740 -0.4815  0.0917 -1.1782
  111SOL     OW  441   0.864   0.938   1.545 -0.0114 -0.1179 -0.3566
  111SOL    HW1  442   0.799   0.936   1.468 -1.5368  0.7183 -2.3648
  111SOL    HW2  443   0.833   0.865   1.603  1.4314  1.7975  2.7668
  111SOL     MW  444   0.851   0.928   1.542 -0.0223  0.2451 -0.2095
  112SOL     OW  445   1.338   1.098   1.614  0.1492  0.1184  0.0135
  112SOL    HW1  446   1.284   1.164   1.659 -0.1691  1.8709  1.7886
  112SOL    HW2  447   1.286   1.018   1.625  1.1080 -0.3511 -2.4274
  112SOL     MW  448   1.324   1.096   1.622  0.2337  0.2877 -0.0743
  113SOL     OW  449   1.293   0.042   1.731 -0.1545 -0.1759 -0.3657
  113SOL    HW1  450   1.264  -0.006   1.809 -3.2105  0.7800  0.2790
  113SOL    HW2  451   1.276  -0.020   1.663  2.0787 -2.3779 -0.0845
  113SOL     MW  452   1.287   0.027   1.733 -0.2630 -0.3403 -0.2435
  114SOL     OW  453   0.258   2.861   1.930 -0.0315 -0.0094  0.1735
  114SOL    HW1  454   0.304   2.930   1.974  1.2054 -0.7967  0.9066
  114SOL    HW2  455   0.281   2.876   1.833 -3.6388 -1.3922 -0.1209
  114SOL     MW  456   0.267   2.872   1.923 -0.3442 -0.2957  0.2314
  115SOL     OW  457   0.479   0.837   1.117  0.1750  0.3837 -0.6576
  115SOL    HW1  458   0.530   0.751   1.114  0.1919 -1.6775 -0.8379
  115SOL    HW2  459   0.461   0.856   1.207  4.1860  1.0992  0.1918
  115SOL     MW  460   0.484   0.828   1.129  0.7065  0.2062 -0.5693
  116SOL     OW  461   0.778   1.066   0.944 -0.6390  0.2022 -0.5244
  116SOL    HW1  462   0.823   1.109   0.870  2.7520  0.0073  1.2416
  116SOL    HW2  463   0.831   1.098   1.015  2.1207  0.1692  0.8339
  116SOL     MW  464   0.791   1.076   0.944  0.1725  0.1721 -0.1122
  117SOL     OW  465   1.152   1.186   0.755  0.9931  0.0485 -0.0083
  117SOL    HW1  466   1.176   1.128   0.828 -0.4862 -0.0079  1.3910
  117SOL    HW2  467   1.188   1.273   0.767 -1.7865  0.2938 -0.4833
  117SOL     MW  468   1.160   1.190   0.766  0.4312  0.0735  0.1137
  118SOL     OW  469   3.035   2.977   1.748  0.5449 -0.0091 -0.5321
  118SOL    HW1  470   3.084   3.050   1.790  1.2585  0.0376 -0.4249
  118SOL    HW2  471   2.945   3.007   1.734  0.1095  3.6333  0.6652
  118SOL     MW  472   3.029   2.991   1.752  0.5816  0.4776 -0.3600
  119SOL     OW  473   0.462   1.454   1.248 -0.7624  0.4199  0.2966
  119SOL    HW1  474   0.509   1.501   1.179  1.2287  3.1866  2.3428
  119SOL    HW2  475   0.380   1.425   1.201 -1.1679 -0.1564  0.8658
  119SOL     MW  476   0.457   1.456   1.233 -0.5532  0.7089  0.6417
  120SOL     OW  477   0.254   0.704   0.983 -0.3002 -0.3840 -0.1332
  120SOL    HW1  478   0.251   0.636   1.051 -0.4066 -0.9224 -1.1762
  120SOL    HW2  479   0.334   0.751   0.998 -0.1251  0.7216  0.2827
  120SOL     MW  480   0.264   0.701   0.994 -0.2912 -0.3092 -0.2159
  121SOL     OW  481   1.734   1.203   1.726  0.3371  0.1594  0.2700
  121SOL    HW1  482   1.652   1.159   1.735 -3.6149  0.1959  0.1600
  121SOL    HW2  483   1.781   1.147   1.665 -1.5549  2.1832 -0.5738
  121SOL     MW  484   1.729   1.190   1.719 -0.4340  0.4312  0.1442
  122SOL     OW  485   0.121   0.539   0.794  0.5522  0.1894  0.2463
  122SOL    HW1  486   0.185   0.503   0.732  1.7132  0.1200  1.7040
  122SOL    HW2  487   0.168   0.586   0.865 -1.6844  0.5050 -2.4838
  122SOL     MW  488   0.136   0.540   0.795  0.4103  0.2219  0.0784
  123SOL     OW  489   1.865   1.123   0.527  0.3551  0.3070 -0.0846
  123SOL    HW1  490   1.799   1.053   0.529 -0.6417 -1.9654  0.1624
  123SOL    HW2  491   1.880   1.143   0.622  2.6849 -0.1376 -1.1867
  123SOL     MW  492   1.859   1.117   0.540  0.5310 -0.0515 -0.1974
  124SOL     OW  493   0.686   0.530   0.851  0.1497  0.0505  0.0381
  124SOL    HW1  494   0.605   0.497   0.799 -0.4459  0.6198  1.4163
  124SOL    HW2  495   0.673   0.625   0.849 -0.3476 -1.1796  1.7704
  124SOL     MW  496   0.674   0.538   0.844  0.0055 -0.0367  0.4485
  125SOL     OW  497   0.686   1.793   1.733 -0.4134 -0.2821 -0.1084
  125SOL    HW1  498   0.632   1.716   1.709  0.9209  1.6920  0.7190
  125SOL    HW2  499   0.640   1.860   1.686  1.6079  2.2786 -1.4271
  125SOL     MW  500   0.673   1.792   1.724  0.0294  0.3162 -0.1732
  126SOL     OW  501   2.097   1.580   1.946 -0.3403 -0.1869 -0.7521
  126SOL    HW1  502   2.162   1.649   1.938 -0.7105 -0.8398 -1.2844
  126SOL    HW2  503   2.153   1.506   1.963 -2.3049  0.1398  1.6638
  126SOL     MW  504   2.113   1.579   1.947 -0.6483 -0.2299 -0.5036
  127SOL     OW  505   0.711   0.781   1.843 -0.5475  0.0034 -0.1827
  127SOL    HW1  506   0.791   0.735   1.874  1.9686 -1.0371  0.3527
  127SOL    HW2  507   0.696   0.848   1.916 -1.5180  3.2747 -1.1823
  127SOL     MW  508   0.719   0.784   1.857 -0.3436  0.2978 -0.2440
  128SOL     OW  509   1.789   0.732   2.943  0.2528 -0.3500  0.0225
  128SOL    HW1  510   1.795   0.698   2.852  3.1833  1.3677 -0.2847
  128SOL    HW2  511   1.747   0.820   2.935  1.0098  2.7582  1.8642
  128SOL     MW  512   1.784   0.739   2.930  0.7394  0.2867  0.2250
  129SOL     OW  513   1.624   0.950   0.207 -0.4508 -0.1098 -0.5113
  129SOL    HW1  514   1.575   0.881   0.174  0.1948  1.0307  0.4700
  129SOL    HW2  515   1.669   0.912   0.285  0.8938 -2.6394 -0.3582
  129SOL     MW  516   1.623   0.936   0.213 -0.1882 -0.2931 -0.3616
  130SOL     OW  517   0.752   1.349   0.362  0.2242  0.4578 -0.6012
  130SOL    HW1  518   0.792   1.396   0.438  1.1723 -0.3510  4.8728
  130SOL    HW2  519   0.820   1.374   0.296 -1.2757  2.4511  2.2637
  130SOL     MW  520   0.766   1.359   0.363  0.1514  0.6141  0.4990
  131SOL     OW  521   3.039   0.810   3.085 -0.1573  0.5309  0.0239
  131SOL    HW1  522   3.033   0.870   3.006 -0.0062 -1.0347  0.3211
  131SOL    HW2  523   3.135   0.805   3.095  2.1937 -1.9002 -0.6311
  131SOL     MW  524   3.051   0.817   3.076  0.1728  0.0036 -0.0233
  132SOL     OW  525   2.685   0.140   1.237 -0.1502 -0.0854  0.3655
  132SOL    HW1  526   2.709   0.133   1.140 -1.1150 -1.1922 -0.1623
  132SOL    HW2  527   2.604   0.086   1.236  1.7767  0.4174 -0.7718
  132SOL     MW  528   2.678   0.132   1.224 -0.0233 -0.1651  0.1458
  133SOL     OW  529   1.000   0.129   1.727  0.0102  0.2462  0.1732
  133SOL    HW1  530   1.092   0.117   1.701 -0.1894 -2.3823 -0.5340
  133SOL    HW2  531   1.008   0.172   1.815  1.9429  1.2871  0.3346
  133SOL     MW  532   1.014   0.133   1.735  0.2389  0.0367  0.1012
  134SOL     OW  533   1.378   2.515   1.454  0.0800  0.0874  0.4828
  134SOL    HW1  534   1.345   2.600   1.425 -2.9009  0.0439  2.2021
  134SOL    HW2  535   1.448   2.555   1.512 -0.0806 -0.3331  1.6123
  134SOL     MW  536   1.383   2.532   1.458 -0.3345  0.0262  0.8587
  135SOL     OW  537   3.016   0.970   2.864  0.1213 -0.1245  0.6832
  135SOL    HW1  538   3.098   0.997   2.891 -2.5705 -3.3442  2.7668
  135SOL    HW2  539   2.967   1.053   2.868 -1.6299 -1.8090 -1.3115
  135SOL     MW  540   3.021   0.984   2.868 -0.4649 -0.7716  0.6950
  136SOL     OW  541   0.189   2.032   0.867 -0.0410 -0.2481 -0.6105
  136SOL    HW1  542   0.111   1.988   0.827 -1.5821 -0.5244 -0.5502
  136SOL    HW2  543   0.264   2.002   0.819 -0.1745 -2.0345  1.6245
  136SOL     MW  544   0.188   2.022   0.856 -0.2620 -0.5203 -0.3077
  137SOL     OW  545   0.704   2.063   0.537  0.0552 -0.1592 -0.2196
  137SOL    HW1  546   0.743   2.054   0.624  0.3955  1.9762 -0.9507
  137SOL    HW2  547   0.617   2.065   0.560  4.6738 -0.1312 -1.9061
  137SOL     MW  548   0.698   2.062   0.552  0.7095  0.1263 -0.5386
  138SOL     OW  549   0.559   0.569   1.125  0.1592 -0.0444  0.4572
  138SOL    HW1  550   0.475   0.532   1.090 -0.7838 -0.5491  0.7677
  138SOL    HW2  551   0.623   0.547   1.053 -1.2931 -1.4329  0.6022
  138SOL     MW  552   0.557   0.561   1.111 -0.1569 -0.2942  0.5173
  139SOL     OW  553   2.792   0.587   1.351 -0.5905  0.7630 -0.3223
  139SOL    HW1  554   2.815   0.498   1.386 -0.8170 -2.0698 -0.0721
  139SOL    HW2  555   2.827   0.655   1.412 -0.1339 -2.7257  0.6130
  139SOL     MW  556   2.799   0.584   1.364 -0.5602 -0.0710 -0.1659
  140SOL     OW  557   0.826   0.390   2.094  0.4129 -0.1993 -0.5057
  140SOL    HW1  558   0.900   0.351   2.048 -0.1547  1.6939  2.0866
  140SOL    HW2  559   0.860   0.411   2.184  0.4582 -0.0091 -1.1018
  140SOL     MW  560   0.840   0.388   2.100  0.3440  0.0756 -0.2424
  141SOL     OW  561   1.070   0.663   1.736  0.0251  0.0623 -0.2071
  141SOL    HW1  562   1.082   0.570   1.715 -1.2203 -0.2088 -0.6739
  141SOL    HW2  563   1.158   0.710   1.725  1.3168 -0.7105 -0.6254
  141SOL     MW  564   1.083   0.657   1.732  0.0312 -0.0754 -0.3239
  142SOL     OW  565   0.874   1.202   0.716  0.3001  0.6470 -0.3432
  142SOL    HW1  566   0.860   1.130   0.648  2.8192 -0.9063  0.4728
  142SOL    HW2  567   0.969   1.209   0.738 -0.4070  2.1468  0.2986
  142SOL     MW  568   0.884   1.194   0.710  0.5392  0.6399 -0.1509
  143SOL     OW  569   1.801   0.758   1.096  0.8796  0.4917 -0.3907
  143SOL    HW1  570   1.861   0.769   1.021  0.4430 -2.2645 -0.1548
  143SOL    HW2  571   1.716   0.777   1.068  2.6287  0.6532 -1.1701
  143SOL     MW  572   1.798   0.762   1.083  1.0528  0.1493 -0.4624
  144SOL     OW  573   0.226   1.165   1.580  0.3514  0.1627  0.0449
  144SOL    HW1  574   0.318   1.189   1.572  0.0289 -1.2909 -2.1962
  144SOL    HW2  575   0.217   1.175   1.675  0.0191  1.4414  1.5084
  144SOL     MW  576   0.237   1.170   1.592  0.2650  0.1396 -0.0577
  145SOL     OW  577   0.234   0.477   1.131 -0.6242  0.0374  0.3906
  145SOL    HW1  578   0.259   0.423   1.198  0.3442  0.8890  0.1400
  145SOL    HW2  579   0.211   0.398   1.064 -0.1192  0.0888  1.6423
  145SOL     MW  580   0.234   0.460   1.131 -0.4298  0.1565  0.5227
  146SOL     OW  581   0.846   1.927   1.326  0.4835  0.1731 -0.2066
  146SOL    HW1  582   0.880   1.953   1.238  3.1692  0.1649  1.7644
  146SOL    HW2  583   0.751   1.925   1.332 -0.4772 -0.6112  1.4773
  146SOL     MW  584   0.838   1.930   1.315  0.7111  0.0686  0.2756
  147SOL     OW  585   0.393   0.418   2.975  1.2070  0.2560 -0.3413
  147SOL    HW1  586   0.311   0.401   3.018  0.9415  0.6660 -1.7341
  147SOL    HW2  587   0.367   0.476   2.900  2.3573  1.0706 -1.7291
  147SOL     MW  588   0.379   0.423   2.971  1.3237  0.4176 -0.7082
  148SOL     OW  589   0.143   0.833   1.265 -0.2693 -0.1617  0.0560
  148SOL    HW1  590   0.227   0.837   1.303 -1.2754 -0.2379  0.2622
  148SOL    HW2  591   0.091   0.888   1.326  1.0813 -2.0360  1.1733
  148SOL     MW  592   0.147   0.841   1.278 -0.2239 -0.4191  0.2306
  149SOL     OW  593   1.371   1.126   1.335 -0.4652 -0.8356 -0.0165
  149SOL    HW1  594   1.334   1.138   1.424 -1.5500 -0.3231  0.3282
  149SOL    HW2  595   1.455   1.171   1.336 -0.8083 -1.8418 -0.1851
  149SOL     MW  596   1.377   1.133   1.347 -0.6536 -0.9007  0.0068
  150SOL     OW  597   1.846   1.386   0.739 -0.0622 -1.2241 -0.3369
  150SOL    HW1  598   1.872   1.314   0.794 -0.8961 -3.5906 -1.6489
  150SOL    HW2  599   1.878   1.463   0.791 -0.2343 -1.6977 -0.1341
  150SOL     MW  600   1.854   1.387   0.753 -0.1950 -1.5988 -0.4832
  151SOL     OW  601   1.688   1.767   0.814  0.0769  0.4914 -0.2721
  151SOL    HW1  602   1.658   1.787   0.726  0.1013 -0.4790  0.0997
  151SOL    HW2  603   1.626   1.695   0.833 -4.1484 -1.8497 -2.6232
  151SOL     MW  604   1.676   1.760   0.805 -0.4774  0.0545 -0.5333
  152SOL     OW  605   0.745   1.409   1.493  0.0027 -0.8110  0.0511
  152SOL    HW1  606   0.742   1.348   1.567  0.7624 -3.6958 -1.2508
  152SOL    HW2  607   0.837   1.435   1.479 -1.0014  1.8329  1.0070
  152SOL     MW  608   0.757   1.404   1.501 -0.0295 -0.8428  0.0054
  153SOL     OW  609   2.600   1.200   0.778  0.6434  0.2647 -0.3116
  153SOL    HW1  610   2.664   1.166   0.711 -1.2009  0.1642  1.0488
  153SOL    HW2  611   2.530   1.132   0.796  0.3459 -0.3339  4.1371
  153SOL     MW  612   2.599   1.186   0.772  0.3608  0.1725  0.4549
  154SOL     OW  613   0.287   1.816   1.711 -1.1488  0.2233 -0.1958
  154SOL    HW1  614   0.304   1.809   1.621  1.4842  0.2234 -0.3058
  154SOL    HW2  615   0.299   1.729   1.758  0.6284 -0.9158  0.9372
  154SOL     MW  616   0.291   1.804   1.706 -0.5669  0.0730 -0.0609
  155SOL     OW  617   1.245   0.707   0.249  0.4804 -0.4897 -0.3073
  155SOL    HW1  618   1.228   0.669   0.334 -0.5825 -3.1191  0.6036
  155SOL    HW2  619   1.188   0.791   0.253  0.1985  0.2214 -1.8539
  155SOL     MW  620   1.235   0.713   0.261  0.3029 -0.7428 -0.3911
  156SOL     OW  621   1.510   3.077   1.133 -0.6372  0.3789  0.2542
  156SOL    HW1  622   1.589   3.139   1.127  0.5007  0.7490 -1.8199
  156SOL    HW2  623   1.534   2.994   1.176 -1.5448 -2.3256 -0.6226
  156SOL     MW  624   1.523   3.074   1.138 -0.6068  0.0709 -0.1351
  157SOL     OW  625   1.442   1.156   0.099  0.0930  0.4843 -0.0370
  157SOL    HW1  626   1.502   1.078   0.127  2.4140 -1.0111  0.2253
  157SOL    HW2  627   1.504   1.232   0.109 -0.2539  1.6407  0.9950
  157SOL     MW  628   1.458   1.156   0.104  0.3534  0.4396  0.1337
  158SOL     OW  629   0.543   1.659   2.203  0.2651 -0.0684  0.1314
  158SOL    HW1  630   0.563   1.744   2.160  0.1397  1.4941  2.8221
  158SOL    HW2  631   0.468   1.661   2.255  1.1720 -1.1025 -0.5883
  158SOL     MW  632   0.536   1.670   2.204  0.3682  0.0013  0.3915
  159SOL     OW  633   1.280   1.685   0.415 -0.2214 -0.4451 -0.4586
  159SOL    HW1  634   1.260   1.600   0.371 -1.4017  0.0432 -0.3710
  159SOL    HW2  635   1.212   1.685   0.480 -1.1096 -0.2923  0.2741
  159SOL     MW  636   1.269   1.673   0.418 -0.4943 -0.3605 -0.3504
  160SOL     OW  637   0.559   1.168   1.601 -0.1378 -0.4210  0.5761
  160SOL    HW1  638   0.508   1.086   1.606  1.1582 -1.0413  0.2555
  160SOL    HW2  639   0.634   1.147   1.653  2.1256  2.0331  0.7324
  160SOL     MW  640   0.562   1.154   1.609  0.3318 -0.1790  0.5544
  161SOL     OW  641   0.467   2.205   2.574  0.0515  0.6779 -0.1856
  161SOL    HW1  642   0.373   2.196   2.546 -0.5116 -0.7327  0.8341
  161SOL    HW2  643   0.518   2.156   2.515  3.9913  1.6957  0.3124
  161SOL     MW  644   0.461   2.197   2.563  0.4970  0.6261  0.0147
  162SOL     OW  645   1.069   1.783   1.846 -0.1336 -0.5066 -0.1342
  162SOL    HW1  646   1.080   1.862   1.903 -2.7291 -2.1460 -0.6139
  162SOL    HW2  647   0.980   1.750   1.869  0.8543  2.5296 -0.2694
  162SOL     MW  648   1.059   1.789   1.857 -0.3457 -0.3223 -0.2153
  163SOL     OW  649   2.169   3.096   0.937 -0.2308 -0.5378  0.0543
  163SOL    HW1  650   2.195   3.150   0.864 -1.1201  2.0002  2.3627
  163SOL    HW2  651   2.078   3.067   0.935  1.5782  0.4035 -0.9372
  163SOL     MW  652   2.160   3.100   0.927 -0.1094 -0.0787  0.2280
  164SOL     OW  653   0.361   0.194   0.880 -0.2282 -0.4965 -0.5289
  164SOL    HW1  654   0.279   0.212   0.919  1.0465 -1.0180  3.0710
  164SOL    HW2  655   0.344   0.126   0.817 -0.6545  0.1933  1.6634
  164SOL     MW  656   0.348   0.187   0.877 -0.1162 -0.4743  0.2353
  165SOL     OW  657   1.343   1.261   0.333 -0.0957  0.5267 -0.4891
  165SOL    HW1  658   1.296   1.195   0.385  0.9579 -3.1699 -2.6182
  165SOL    HW2  659   1.369   1.206   0.256 -2.3265  0.2973 -0.7341
  165SOL     MW  660   1.340   1.245   0.329 -0.2510  0.0087 -0.8023
  166SOL     OW  661   0.548   1.155   1.033  0.0761  0.4073  0.5941
  166SOL    HW1  662   0.510   1.092   1.097  0.6901 -0.7266 -1.3506
  166SOL    HW2  663   0.627   1.106   1.013 -0.0314 -0.6164  0.6647
  166SOL     MW  664   0.553   1.141   1.039  0.1429  0.1226  0.3469
  167SOL     OW  665   0.779   1.011   0.260  0.3786  0.0916 -0.0231
  167SOL    HW1  666   0.697   1.066   0.262  1.9913 -2.3975 -1.8560
  167SOL    HW2  667   0.808   1.001   0.175 -0.8932 -1.7980  1.6141
  167SOL     MW  668   0.772   1.017   0.249  0.4236 -0.4861 -0.0489
  168SOL     OW  669   1.716   1.666   3.011  0.4925 -0.0156  0.8409
  168SOL    HW1  670   1.625   1.684   3.030 -0.3240  1.9345 -0.8014
  168SOL    HW2  671   1.723   1.584   2.962  0.1934 -3.0431 -2.7957
  168SOL     MW  672   1.705   1.658   3.007  0.3453 -0.1578  0.1444
  169SOL     OW  673   0.403   0.904   1.376  0.1076  0.2834 -0.3556
  169SOL    HW1  674   0.438   0.876   1.467  1.2554  2.8456  0.0904
  169SOL    HW2  675   0.461   0.980   1.357 -0.2767 -1.4702 -3.5000
  169SOL     MW  676   0.415   0.910   1.386  0.2083  0.3901 -0.7116
  170SOL     OW  677   1.004   1.501   1.502  0.1115  0.0973  0.0055
  170SOL    HW1  678   0.965   1.594   1.511  1.7794  2.9039 -2.7949
  170SOL    HW2  679   1.063   1.505   1.428  1.0762  0.2224  3.5657
  170SOL     MW  680   1.007   1.513   1.493  0.4588  0.4841  0.1057
  171SOL     OW  681   0.549   1.450   0.681 -0.1175 -0.0212 -0.8018
  171SOL    HW1  682   0.548   1.450   0.772 -1.0304  0.7914 -2.4878
  171SOL    HW2  683   0.551   1.361   0.641  0.6705  1.9500 -2.7992
  171SOL     MW  684   0.549   1.438   0.688 -0.1340  0.3461 -1.2878
  172SOL     OW  685   0.857   0.343   1.287  0.0634 -0.4587 -0.1776
  172SOL    HW1  686   0.860   0.349   1.190  1.1364  1.2610 -1.8416
  172SOL    HW2  687   0.759   0.360   1.306  0.7447  0.8941  0.8747
  172SOL     MW  688   0.844   0.346   1.276  0.2948 -0.0533 -0.2583
  173SOL     OW  689   0.458   1.725   0.369 -0.1802  0.0382  0.0991
  173SOL    HW1  690   0.454   1.640   0.326  1.0277  0.8159 -1.3397
  173SOL    HW2  691   0.477   1.711   0.458  2.6113 -0.4772 -0.3195
  173SOL     MW  692   0.460   1.712   0.375  0.3475  0.0728 -0.1460
  174SOL     OW  693   1.825   1.001   1.569 -0.7373  0.1226 -0.1713
  174SOL    HW1  694   1.836   0.902   1.573  0.0118 -1.6673 -0.3816
  174SOL    HW2  695   1.806   1.011   1.477  0.8423  0.5679  0.6558
  174SOL     MW  696   1.824   0.989   1.557 -0.4301 -0.0548 -0.0899
  175SOL     OW  697   0.516   1.476   0.281  0.3417  0.2801 -0.4373
  175SOL    HW1  698   0.469   1.422   0.210  0.4859  0.6057  0.1159
  175SOL    HW2  699   0.592   1.430   0.312  0.6764 -0.3423 -0.0843
  175SOL     MW  700   0.520   1.463   0.276  0.4049  0.2409 -0.3177
  176SOL     OW  701   0.174   1.462   1.213 -0.3073  0.1389 -0.0104
  176SOL    HW1  702   0.170   1.426   1.123  0.7347 -2.3695 -0.0658
  176SOL    HW2  703   0.096   1.435   1.261 -3.4818 -2.2952  0.8634
  176SOL     MW  704   0.163   1.454   1.207 -0.5887 -0.5132  0.0976
  177SOL     OW  705   0.612   0.450   1.368  0.1614  0.3324  0.1013
  177SOL    HW1  706   0.576   0.518   1.311 -0.0038 -2.4284  1.6756
  177SOL    HW2  707   0.611   0.495   1.459 -1.5354  1.9300  0.7560
  177SOL     MW  708   0.607   0.465   1.373 -0.0843  0.1789  0.3954
  178SOL     OW  709   3.087   0.462   2.944 -0.8684  0.8067  0.0928
  178SOL    HW1  710   3.023   0.514   2.996  0.8917  2.7695  0.9679
  178SOL    HW2  711   3.043   0.431   2.866  0.0910  1.3981 -2.3075
  178SOL     MW  712   3.073   0.465   2.940 -0.5096  1.1437 -0.1084
  179SOL     OW  713   1.589   1.336   1.370  0.5434  0.5308 -0.7470
  179SOL    HW1  714   1.559   1.372   1.457 -0.1839  0.1326 -0.1805
  179SOL    HW2  715   1.686   1.347   1.370 -0.2166  0.0689  0.1771
  179SOL     MW  716   1.598   1.342   1.381  0.3471  0.4173 -0.5503
  180SOL     OW  717   3.075   0.186   0.441  0.2359  0.1510  0.2424
  180SOL    HW1  718   3.037   0.180   0.350  0.0088  0.9593 -1.5314
  180SOL    HW2  719   3.125   0.267   0.424 -1.1762 -0.1379 -2.2998
  180SOL     MW  720   3.076   0.196   0.427  0.0197  0.2195 -0.3270
  181SOL     OW  721   1.119   1.348   3.089 -0.0534 -0.7409  0.0144
  181SOL    HW1  722   1.185   1.414   3.131  3.6497 -1.0293 -0.4287
  181SOL    HW2  723   1.182   1.292   3.039  0.0438 -0.2411 -1.6637
  181SOL     MW  724   1.136   1.349   3.088  0.4480 -0.7130 -0.2655
  182SOL     OW  725   0.456   0.867   1.658 -0.0606 -0.0675  0.1784
  182SOL    HW1  726   0.378   0.874   1.715 -1.9968 -0.3652 -2.8675
  182SOL    HW2  727   0.523   0.807   1.691 -0.3971  2.5425 -0.2947
  182SOL     MW  728   0.454   0.860   1.670 -0.3605  0.2376 -0.2859
  183SOL     OW  729   1.576   1.507   1.170  0.1947 -0.5941 -0.1929
  183SOL    HW1  730   1.585   1.598   1.199 -0.7569 -0.7227 -0.9307
  183SOL    HW2  731   1.572   1.453   1.251  1.0083  1.9969 -2.3398
  183SOL     MW  732   1.577   1.512   1.184  0.1765 -0.2692 -0.5735
  184SOL     OW  733   0.926   0.634   1.964 -0.0597 -0.2081  0.0818
  184SOL    HW1  734   0.986   0.634   1.891 -1.0694  0.0649  1.5568
  184SOL    HW2  735   0.911   0.547   1.998 -1.2468 -1.6849 -3.6204
  184SOL     MW  736   0.932   0.622   1.959 -0.3496 -0.3669 -0.2121
  185SOL     OW  737   1.262   1.030   1.906 -0.1187 -0.0327  0.6419
  185SOL    HW1  738   1.291   0.956   1.966  0.4902 -3.1676 -0.6524
  185SOL    HW2  739   1.264   1.105   1.974 -0.5654  0.5223  1.4094
  185SOL     MW  740   1.266   1.030   1.923 -0.0973 -0.3731  0.5724
  186SOL     OW  741   0.375   1.683   1.428  0.3094  0.4224  0.0855
  186SOL    HW1  742   0.398   1.611   1.372 -2.0797  0.4462  0.6203
  186SOL    HW2  743   0.282   1.663   1.449  1.1289 -0.6384  0.2298
  186SOL     MW  744   0.366   1.671   1.424  0.1023  0.2856  0.1751
  187SOL     OW  745   1.444   0.706   1.406  0.1153 -0.3635  0.0774
  187SOL    HW1  746   1.438   0.711   1.500 -1.6680 -0.3977 -0.2324
  187SOL    HW2  747   1.356   0.697   1.376  0.5066  1.0374 -0.4406
  187SOL     MW  748   1.432   0.705   1.414 -0.0683 -0.1832 -0.0318
  188SOL     OW  749   1.905   1.156   0.872 -0.3170  0.4251  0.5961
  188SOL    HW1  750   1.901   1.169   0.974 -0.9147 -0.3781  0.1712
  188SOL    HW2  751   1.974   1.086   0.867 -1.4979 -1.8428  2.2196
  188SOL     MW  752   1.914   1.149   0.885 -0.5517  0.0199  0.7543
  189SOL     OW  753   0.666   0.817   0.866 -0.5484  0.4027  0.2169
  189SOL    HW1  754   0.586   0.867   0.844  0.2278  2.5921 -1.9153
  189SOL    HW2  755   0.739   0.877   0.874 -1.3050  3.3631 -0.4170
  189SOL     MW  756   0.665   0.831   0.864 -0.5458  1.0821 -0.1481
  190SOL     OW  757   1.850   0.264   2.092  0.2434 -0.1343  0.8621
  190SOL    HW1  758   1.871   0.215   2.173 -0.2285  1.4013  3.0380
  190SOL    HW2  759   1.933   0.306   2.064  0.7581 -0.3510  0.8707
  190SOL     MW  760   1.864   0.263   2.099  0.2490  0.0397  1.1503
  191SOL     OW  761   1.504   0.924   1.235  0.4967  0.7988  0.1315
  191SOL    HW1  762   1.437   0.991   1.258 -1.1867 -2.0734  0.8619
  191SOL    HW2  763   1.484   0.866   1.312 -0.4104  1.8833  0.5688
  191SOL     MW  764   1.493   0.925   1.248  0.1549  0.5629  0.2855
  192SOL     OW  765   0.607   2.092   2.803  0.2726  0.4761  0.3040
  192SOL    HW1  766   0.536   2.142   2.754 -1.6488  0.2581 -0.0056
  192SOL    HW2  767   0.611   2.004   2.771 -0.0721 -1.5596  0.4369
  192SOL     MW  768   0.598   2.087   2.792 -0.0264  0.1787  0.2807
  193SOL     OW  769   1.000   1.569   0.764 -0.4362  0.2870 -0.5537
  193SOL    HW1  770   0.961   1.587   0.843 -0.9160 -0.3633  0.1667
  193SOL    HW2  771   0.924   1.536   0.711 -0.5956 -0.0377  0.3313
  193SOL     MW  772   0.985   1.567   0.768 -0.5205  0.1584 -0.3419
  194SOL     OW  773   0.497   1.413   0.946  0.7868  0.5346  0.1623
  194SOL    HW1  774   0.530   1.328   0.980 -1.1148 -0.6037  1.9419
  194SOL    HW2  775   0.403   1.391   0.920 -0.1764  1.6093 -2.5920
  194SOL     MW  776   0.489   1.399   0.947  0.4088  0.5262  0.0337
  195SOL     OW  777   1.272   1.133   2.979  0.7569  0.8694 -0.2013
  195SOL    HW1  778   1.324   1.146   3.063  0.1012  1.5550 -2.1475
  195SOL    HW2  779   1.205   1.057   2.991 -0.0660 -3.5998  0.6756
  195SOL     MW  780   1.270   1.125   2.992  0.5618  0.3702 -0.3424
  196SOL     OW  781   2.195   1.015   0.579  0.3669 -0.2612  0.1110
  196SOL    HW1  782   2.146   0.977   0.502 -2.6912  0.3614 -1.1815
  196SOL    HW2  783   2.176   1.109   0.572 -1.6319  0.3716 -1.3653
  196SOL     MW  784   2.186   1.022   0.568 -0.3003 -0.0956 -0.2543
  197SOL     OW  785   0.696   1.232   2.068 -0.4118 -0.7181  0.5508
  197SOL    HW1  786   0.679   1.143   2.037 -0.2827  0.4466  1.9990
  197SOL    HW2  787   0.655   1.282   1.998 -3.7425  1.2166 -1.1849
  197SOL     MW  788   0.688   1.227   2.055 -0.8342 -0.3092  0.5128
  198SOL     OW  789   2.969   1.359   1.115 -0.7573  0.3531 -0.0404
  198SOL    HW1  790   2.936   1.450   1.090 -2.4808  3.0625  0.1400
  198SOL    HW2  791   2.893   1.299   1.102  2.3950 -0.7008  1.8698
  198SOL     MW  792   2.954   1.363   1.110 -0.5688  0.5715  0.2354
  199SOL     OW  793   0.525   1.368   1.886  0.3707  0.2531  0.1558
  199SOL    HW1  794   0.441   1.321   1.900  1.9844  0.7477  0.6083
  199SOL    HW2  795   0.528   1.383   1.796  0.7964  0.0496  2.5158
  199SOL     MW  796   0.514   1.364   1.876  0.6398  0.2915  0.5269
  200SOL     OW  797   1.861   3.048   1.296  0.1687 -0.4852  0.4451
  200SOL    HW1  798   1.873   2.989   1.218  0.5589 -1.5717  2.1220
  200SOL    HW2  799   1.766   3.076   1.299  2.5079  1.0955  0.4984
  200SOL     MW  800   1.850   3.044   1.286  0.5288 -0.4200  0.6734
  201SOL     OW  801   1.004   0.201   0.856  0.3164 -0.2727 -0.2287
  201SOL    HW1  802   0.980   0.143   0.780  0.2946 -1.1025 -1.2830
  201SOL    HW2  803   1.069   0.269   0.821  1.0476 -0.0009 -1.0017
  201SOL     MW  804   1.009   0.202   0.841  0.4100 -0.3463 -0.4698
  202SOL     OW  805   1.517   1.556   0.900 -0.1752 -0.0457 -0.4444
  202SOL    HW1  806   1.571   1.488   0.852  1.2952 -2.2112  0.0716
  202SOL    HW2  807   1.545   1.528   0.987  0.1251 -0.5799 -0.7985
  202SOL     MW  808   1.528   1.543   0.905  0.0584 -0.4019 -0.4230
  203SOL     OW  809   3.058   0.481   1.274  0.6174 -0.1835  0.0574
  203SOL    HW1  810   3.138   0.468   1.232 -3.7614 -3.1475 -0.7398
  203SOL    HW2  811   3.073   0.543   1.346  0.5145 -1.8806  0.4171
  203SOL     MW  812   3.070   0.487   1.278  0.0261 -0.7985 -0.0004
  204SOL     OW  813   1.063   1.747   0.565 -0.0914 -0.5321 -0.8628
  204SOL    HW1  814   1.050   1.690   0.645  0.0239  2.7473 -3.2573
  204SOL    HW2  815   0.973   1.781   0.542 -0.4374  2.9240  5.0114
  204SOL     MW  816   1.050   1.744   0.572 -0.1218  0.3566 -0.4037
  205SOL     OW  817   1.363   0.072   1.359 -0.1873 -0.9772  0.4041
  205SOL    HW1  818   1.315   0.049   1.281  2.0787 -1.5826 -0.1802
  205SOL    HW2  819   1.383   0.165   1.357  0.8289  0.0387  2.9424
  205SOL     MW  820   1.359   0.081   1.348  0.2458 -0.9230  0.6619
  206SOL     OW  821   0.406   3.014   1.439  0.3942  0.1316  0.3873
  206SOL    HW1  822   0.350   2.984   1.358  0.7737 -3.1371 -0.8611
  206SOL    HW2  823   0.479   2.958   1.433  0.7559 -1.0196  3.8154
  206SOL     MW  824   0.408   3.003   1.427  0.4920 -0.4516  0.6749
  207SOL     OW  825   0.915   1.521   0.189  0.1537  0.0792  0.1846
  207SOL    HW1  826   0.922   1.618   0.172 -0.8508  2.2544  1.5080
  207SOL    HW2  827   0.989   1.500   0.243  1.2398  2.1259  0.8696
  207SOL     MW  828   0.926   1.531   0.194  0.1645  0.6363  0.4496
  208SOL     OW  829   0.697   1.653   1.355 -0.0510  0.3222  0.4183
  208SOL    HW1  830   0.761   1.698   1.410 -1.6034  0.3396  2.1913
  208SOL    HW2  831   0.701   1.562   1.388  0.9356  1.0592 -2.1505
  208SOL     MW  832   0.706   1.647   1.367 -0.1256  0.4218  0.3133
  209SOL     OW  833   1.551   0.513   2.998 -0.3564 -0.1044  0.7074
  209SOL    HW1  834   1.604   0.588   3.005 -0.2761  0.3343 -0.1734
  209SOL    HW2  835   1.608   0.452   2.960 -1.0889  1.8657  0.2097
  209SOL     MW  836   1.565   0.515   2.994 -0.4424  0.2135  0.5255
  210SOL     OW  837   1.592   1.316   0.789 -0.4946 -0.4072  0.3215
  210SOL    HW1  838   1.687   1.341   0.766  0.4639  1.3172  1.4064
  210SOL    HW2  839   1.542   1.315   0.706 -0.0639 -0.6694  1.4458
  210SOL     MW  840   1.598   1.319   0.775 -0.3113 -0.2143  0.6130
  211SOL     OW  841   1.648   0.364   0.965 -0.0265 -0.3746 -0.1433
  211SOL    HW1  842   1.607   0.403   0.885 -0.6791  1.2965 -1.5967
  211SOL    HW2  843   1.740   0.388   0.963 -1.2420  0.1866 -1.5401
  211SOL     MW  844   1.655   0.372   0.954 -0.2730 -0.0801 -0.5194
  212SOL     OW  845   0.235   1.043   0.114  0.3881 -0.6219  0.1644
  212SOL    HW1  846   0.177   0.992   0.175  0.7284 -1.0422  0.7443
  212SOL    HW2  847   0.289   0.982   0.068  0.3432  2.8123 -1.3447
  212SOL     MW  848   0.235   1.028   0.116  0.4270 -0.2243  0.0418
  213SOL     OW  849   0.518   1.736   3.035  0.2284 -0.4980 -0.0149
  213SOL    HW1  850   0.533   1.804   3.101  3.6223  3.4775 -0.5838
  213SOL    HW2  851   0.556   1.767   2.950  1.1607 -1.1296  0.7163
  213SOL     MW  852   0.525   1.749   3.032  0.7992 -0.0568  0.0065
  214SOL     OW  853   0.557   0.282   2.253  0.2212  0.1266 -0.5256
  214SOL    HW1  854   0.505   0.366   2.231  0.8533  0.7306  0.9103
  214SOL    HW2  855   0.640   0.290   2.201  3.2852  0.1736  0.6337
  214SOL     MW  856   0.561   0.294   2.243  0.7089  0.2125 -0.1832
  215SOL     OW  857   0.527   0.695   2.652 -0.2878  0.5340  0.1696
  215SOL    HW1  858   0.504   0.656   2.571  0.8860 -1.3607  2.0033
  215SOL    HW2  859   0.456   0.655   2.703  3.0166 -1.4062  0.0323
  215SOL     MW  860   0.515   0.685   2.648  0.3031  0.0280  0.3934
  216SOL     OW  861   2.896   3.066   2.636 -0.0774 -0.1169  0.1901
  216SOL    HW1  862   2.837   3.039   2.712  2.6253  1.8900  0.6081
  216SOL    HW2  863   2.907   3.163   2.633 -0.4463 -3.1580  0.0918
  216SOL     MW  864   2.890   3.075   2.645  0.2305 -0.2533  0.2323
  217SOL     OW  865   0.950   1.104   0.061  0.4220 -0.6226  0.4028
  217SOL    HW1  866   1.003   1.035   0.011 -0.5157 -1.3010  0.4451
  217SOL    HW2  867   0.998   1.187   0.057  0.2323  0.8921 -1.9826
  217SOL     MW  868   0.963   1.105   0.054  0.2733 -0.5123  0.0936
  218SOL     OW  869   0.957   1.330   2.524  0.4414 -0.7415  0.4078
  218SOL    HW1  870   0.996   1.245   2.518  0.1696 -0.1350  1.6258
  218SOL    HW2  871   1.022   1.396   2.540 -0.1086 -0.7492 -0.7616
  218SOL     MW  872   0.971   1.327   2.525  0.3329 -0.6625  0.4142
  219SOL     OW  873   1.108   0.454   2.644  0.3331 -0.7019 -0.0976
  219SOL    HW1  874   1.179   0.513   2.653  3.2489 -2.2071  1.2742
  219SOL    HW2  875   1.049   0.512   2.601  0.8095 -0.5701 -1.9465
  219SOL     MW  876   1.109   0.470   2.640  0.7807 -0.8831 -0.1605
  220SOL     OW  877   1.755   0.497   2.236 -0.1789 -0.3805 -0.0498
  220SOL    HW1  878   1.661   0.520   2.207 -3.2610 -2.5031  0.5567
  220SOL    HW2  879   1.777   0.410   2.187  0.1997 -0.4603 -1.8408
  220SOL     MW  880   1.746   0.488   2.226 -0.5356 -0.6711 -0.2061
  221SOL     OW  881   0.400   1.363   2.943  0.2684 -0.2374 -0.5812
  221SOL    HW1  882   0.407   1.271   2.920  0.8949  2.9957  2.2909
  221SOL    HW2  883   0.433   1.413   2.867  1.1613 -1.0486  1.1204
  221SOL     MW  884   0.405   1.358   2.930  0.4688  0.0821  0.0222
  222SOL     OW  885   0.380   0.939   2.653 -0.6127 -0.1993 -0.1799
  222SOL    HW1  886   0.361   0.990   2.567 -0.1702 -1.9114 -0.2530
  222SOL    HW2  887   0.434   0.862   2.637  0.6022 -2.7531  1.3641
  222SOL     MW  888   0.385   0.936   2.639 -0.3940 -0.7621  0.0142
  223SOL     OW  889   0.006   2.037   2.551 -0.1082  0.0402 -0.5281
  223SOL    HW1  890   0.070   1.976   2.593  1.6254  0.5165 -1.6771
  223SOL    HW2  891   0.062   2.107   2.510  0.6967  0.0162 -0.6373
  223SOL     MW  892   0.022   2.038   2.551  0.2267  0.0999 -0.6942
  224SOL     OW  893   1.512   0.811   2.630 -0.6346 -0.0324  0.9326
  224SOL    HW1  894   1.510   0.877   2.699  2.5354  0.2561 -2.2444
  224SOL    HW2  895   1.523   0.868   2.550 -3.4601  1.5454 -2.5640
  224SOL     MW  896   1.513   0.827   2.629 -0.5891  0.2138  0.0521
  225SOL     OW  897   2.927   1.444   2.309 -0.5463 -0.0053 -0.0632
  225SOL    HW1  898   2.974   1.510   2.253 -2.4482 -1.4752 -0.7797
  225SOL    HW2  899   2.870   1.504   2.360 -3.3139 -0.2120  2.3759
  225SOL     MW  900   2.925   1.461   2.309 -1.1624 -0.2265  0.1641
  226SOL     OW  901   0.478   1.456   2.700  0.0220  0.2464 -0.0384
  226SOL    HW1  902   0.577   1.451   2.684 -0.7510  2.2951  2.7234
  226SOL    HW2  903   0.467   1.550   2.684  2.1545 -0.2854  1.7204
  226SOL     MW  904   0.490   1.468   2.696  0.2014  0.4465  0.5581
  227SOL     OW  905   0.478   1.111   2.858 -0.0364  0.3334 -0.2975
  227SOL    HW1  906   0.566   1.131   2.827  2.7402 -0.2940 -1.2204
  227SOL    HW2  907   0.449   1.047   2.789  1.6753  0.7056 -2.4678
  227SOL     MW  908   0.486   1.105   2.845  0.5558  0.2997 -0.7056
  228SOL     OW  909   0.701   0.962   2.055  0.0170  0.3263 -0.3936
  228SOL    HW1  910   0.794   0.978   2.025 -0.9027 -3.4445 -1.4791
  228SOL    HW2  911   0.705   0.897   2.134 -0.9385 -2.0481  0.7020
  228SOL     MW  912   0.714   0.956   2.062 -0.2304 -0.4845 -0.3923
  229SOL     OW  913   0.185   0.602   0.031  0.0574  0.6972 -0.0608
  229SOL    HW1  914   0.116   0.562  -0.024  1.8101 -0.7511  1.8442
  229SOL    HW2  915   0.195   0.549   0.110 -1.4052  0.1189 -0.2475
  229SOL     MW  916   0.177   0.590   0.034  0.0957  0.4298  0.1659
  230SOL     OW  917   1.735   1.357   2.026 -0.7406 -0.3982  0.0093
  230SOL    HW1  918   1.673   1.331   2.094 -0.7024  0.5984 -0.0995
  230SOL    HW2  919   1.786   1.276   2.004  0.6584  0.4824 -0.4642
  230SOL     MW  920   1.734   1.343   2.032 -0.5510 -0.1505 -0.0676
  231SOL     OW  921   2.746   1.263   2.198  0.2009 -0.6695 -0.4732
  231SOL    HW1  922   2.803   1.334   2.210 -1.2225 -0.0396  2.1857
  231SOL    HW2  923   2.703   1.294   2.126  0.4937 -0.7475  2.6305
  231SOL     MW  924   2.748   1.276   2.190  0.0517 -0.5967  0.2871
  232SOL     OW  925   2.295   0.821   2.036 -0.0619  0.2000 -0.4449
  232SOL    HW1  926   2.246   0.880   1.982  2.3077 -1.5024 -0.2602
  232SOL    HW2  927   2.238   0.818   2.113  1.0309  0.9273 -2.0795
  232SOL     MW  928   2.281   0.828   2.039  0.3949  0.0713 -0.6362
  233SOL     OW  929   2.070   0.459   2.005 -0.3276 -0.3370  0.8681
  233SOL    HW1  930   2.141   0.392   1.997  0.3990 -1.7591  0.1653
  233SOL    HW2  931   2.079   0.511   2.087  2.7768  1.0511 -0.1418
  233SOL     MW  932   2.081   0.457   2.015  0.1778 -0.3415  0.6421
  234SOL     OW  933   0.284   1.071   2.433  0.3568  0.2778 -0.2309
  234SOL    HW1  934   0.189   1.091   2.451 -1.1613  0.6124  0.5370
  234SOL    HW2  935   0.338   1.149   2.445 -0.6370 -1.0190  0.9302
  234SOL     MW  936   0.278   1.084   2.437  0.0254  0.1508  0.0236
  235SOL     OW  937   1.112   3.064   2.704 -0.5852  0.2009 -0.2816
  235SOL    HW1  938   1.124   3.005   2.775 -0.5278 -1.8653 -2.7171
  235SOL    HW2  939   1.086   3.143   2.755  1.6507  0.8729 -2.2357
  235SOL     MW  940   1.110   3.067   2.720 -0.2826  0.0170 -0.8608
  236SOL     OW  941   2.918   0.566   0.024 -0.1030  0.3407  0.4538
  236SOL    HW1  942   2.827   0.565   0.066 -0.8563 -0.7748  0.8476
  236SOL    HW2  943   2.935   0.655  -0.002  1.0215 -1.0466  1.8064
  236SOL     MW  944   2.908   0.578   0.026 -0.0541  0.0105  0.6842
  237SOL     OW  945   2.007   1.101   2.178 -0.4848  0.1763 -0.5305
  237SOL    HW1  946   1.937   1.090   2.111  2.5118 -4.7277 -0.0132
  237SOL    HW2  947   2.050   1.017   2.198  0.9340  1.7282  2.0641
  237SOL     MW  948   2.003   1.088   2.172  0.0978 -0.2659 -0.1199
  238SOL     OW  949   1.054   1.811   2.982 -0.3057  0.1217 -0.4934
  238SOL    HW1  950   1.031   1.720   2.959 -0.0820 -1.2124 -0.8889
  238SOL    HW2  951   1.149   1.821   2.995 -3.6574 -0.3835 -2.0200
  238SOL     MW  952   1.064   1.800   2.981 -0.7184 -0.1210 -0.7470
  239SOL     OW  953   1.246   1.356   2.363  0.1036  0.0167  0.3529
  239SOL    HW1  954   1.235   1.437   2.411  2.3532  1.0436  1.3123
  239SOL    HW2  955   1.250   1.286   2.435 -0.0797 -0.2340  1.0596
  239SOL     MW  956   1.245   1.357   2.379  0.3762  0.1191  0.5727
  240SOL     OW  957   0.716   0.817   2.284 -0.5673  0.4659  0.0736
  240SOL    HW1  958   0.731   0.896   2.332  1.5823 -0.1440 -1.8231
  240SOL    HW2  959   0.802   0.778   2.266 -0.5182  0.7881  1.9138
  240SOL     MW  960   0.730   0.822   2.288 -0.2772  0.4279  0.0662
  241SOL     OW  961   0.638   0.376  -0.001 -0.1106  0.1243  0.5562
  241SOL    HW1  962   0.672   0.436   0.067  1.0065  1.9619 -2.6722
  241SOL    HW2  963   0.554   0.411  -0.037 -2.2957 -0.7340 -1.2387
  241SOL     MW  964   0.631   0.388   0.003 -0.2515  0.2535 -0.1066
  242SOL     OW  965   1.511   1.677   2.343  0.2143 -0.2058  0.2029
  242SOL    HW1  966   1.484   1.769   2.344 -1.7503  2.3239 -0.2831
  242SOL    HW2  967   1.451   1.634   2.286  1.3424  1.2537 -3.8500
  242SOL     MW  968   1.500   1.684   2.335  0.1040  0.3205 -0.3960
  243SOL     OW  969   1.030   0.238   2.486 -0.2092  0.0021 -0.2517
  243SOL    HW1  970   1.116   0.229   2.433  0.9332 -1.6643  0.5851
  243SOL    HW2  971   1.057   0.304   2.553 -0.2082 -0.0625  1.5454
  243SOL     MW  972   1.045   0.245   2.488 -0.0583 -0.2263  0.0958
  244SOL     OW  973   0.280   0.774   2.407  0.2035  0.5184  0.6588
  244SOL    HW1  974   0.284   0.871   2.407  2.4564  0.6722  0.6673
  244SOL    HW2  975   0.370   0.744   2.399  0.5548 -0.7413 -2.0705
  244SOL     MW  976   0.293   0.783   2.406  0.5471  0.3725  0.2998
  245SOL     OW  977   1.264   0.231   2.328 -0.9526  0.0158  0.3460
  245SOL    HW1  978   1.335   0.167   2.312  1.0324  0.3187  0.2023
  245SOL    HW2  979   1.309   0.310   2.371 -2.6728 -0.3183 -3.3326
  245SOL     MW  980   1.279   0.233   2.332 -0.9177  0.0117 -0.1583
  246SOL     OW  981   1.208   1.199   2.138 -0.0888  0.3311 -0.1667
  246SOL    HW1  982   1.161   1.121   2.179  2.7737  0.9439 -0.8755
  246SOL    HW2  983   1.247   1.246   2.203  2.4809  1.6243 -1.7681
  246SOL     MW  984   1.207   1.195   2.152  0.6279  0.5826 -0.4715
  247SOL     OW  985   0.744   0.558   0.189 -0.1569  0.0640  0.5312
  247SOL    HW1  986   0.704   0.636   0.163  1.8534 -1.5995 -0.8252
  247SOL    HW2  987   0.832   0.567   0.146 -0.3835 -0.2009 -2.1924
  247SOL     MW  988   0.750   0.570   0.180  0.0784 -0.1904 -0.0071
  248SOL     OW  989   0.397   1.311   2.472 -1.2125  0.5994  0.0089
  248SOL    HW1  990   0.438   1.339   2.389 -1.8920  1.6029  0.3099
  248SOL    HW2  991   0.409   1.380   2.541  2.0779  1.2093  1.0510
  248SOL     MW  992   0.404   1.324   2.470 -0.8680  0.8123  0.1861
  249SOL     OW  993   0.176   1.893   2.735  0.4492  0.6630  0.3047
  249SOL    HW1  994   0.128   1.815   2.705 -1.4374  0.3298 -1.0254
  249SOL    HW2  995   0.211   1.865   2.829  0.6716 -0.3447  2.7569
  249SOL     MW  996   0.174   1.879   2.743  0.2296  0.4861  0.4527
  250SOL     OW  997   2.184   0.904   2.307 -0.2418 -0.5606 -0.3611
  250SOL    HW1  998   2.255   0.832   2.310 -1.5013 -0.4950 -1.0664
  250SOL    HW2  999   2.239   0.981   2.316  0.2574 -3.0989 -1.4881
  250SOL     MW 1000   2.200   0.904   2.309 -0.3421 -0.8868 -0.6029
  251SOL     OW 1001   0.163   0.874   1.969 -0.1278  0.5941  0.4495
  251SOL    HW1 1002   0.103   0.802   1.986 -2.2030 -1.4500  1.3893
  251SOL    HW2 1003   0.164   0.864   1.867  2.6859 -1.1439  0.0397
  251SOL     MW 1004   0.155   0.864   1.958 -0.0304  0.0951  0.5194
  252SOL     OW 1005   1.720   0.982   2.842 -0.4131  0.3428 -0.4268
  252SOL    HW1 1006   1.752   1.017   2.931  1.4385  1.1349  0.8549
  252SOL    HW2 1007   1.788   1.011   2.777  1.5944  0.1690  0.2420
  252SOL     MW 1008   1.733   0.990   2.845  0.0960  0.4244 -0.1694
  253SOL     OW 1009   1.249   1.781   2.550 -0.1431  0.1435 -0.2695
  253SOL    HW1 1010   1.270   1.770   2.458  5.3164  0.9796  0.8887
  253SOL    HW2 1011   1.160   1.826   2.556 -0.7320 -1.6437  2.7988
  253SOL     MW 1012   1.240   1.785   2.539  0.4995  0.0180  0.2881
  254SOL     OW 1013   1.062   0.999   2.258  0.0179  0.0782 -0.2593
  254SOL    HW1 1014   1.010   0.923   2.277  2.2334 -0.9658 -0.9171
  254SOL    HW2 1015   1.011   1.072   2.287 -0.3265 -2.5870  0.0291
  254SOL     MW 1016   1.049   0.999   2.265  0.2648 -0.4112 -0.3081
  255SOL     OW 1017   0.751   2.579   2.154  0.0181  0.4070 -0.3124
  255SOL    HW1 1018   0.688   2.512   2.181  1.0884 -2.0977 -0.5105
  255SOL    HW2 1019   0.822   2.565   2.212  1.0165  1.1500 -0.0338
  255SOL     MW 1020   0.752   2.568   2.165  0.2910  0.1746 -0.3018
  256SOL     OW 1021   1.304   2.685   2.923  0.2826 -0.9996  0.8187
  256SOL    HW1 1022   1.292   2.602   2.873 -0.0721 -4.0355 -0.7397
  256SOL    HW2 1023   1.384   2.732   2.896 -0.3035  0.8439  4.0907
  256SOL     MW 1024   1.313   2.680   2.913  0.1585 -1.1570  1.0448
  257SOL     OW 1025   0.123   1.923   0.063 -0.2754 -0.6793 -0.3478
  257SOL    HW1 1026   0.127   1.871   0.144 -0.3508  0.2672  2.9674
  257SOL    HW2 1027   0.154   1.872  -0.013 -0.1121 -0.0143  0.4022
  257SOL     MW 1028   0.128   1.910   0.064 -0.2638 -0.4666  0.1886
  258SOL     OW 1029   0.732   1.023   2.464  0.6304 -0.3774 -0.0092
  258SOL    HW1 1030   0.764   1.086   2.389  1.7916 -0.2427 -1.7669
  258SOL    HW2 1031   0.680   1.059   2.532  1.3500 -1.9039 -0.5806
  258SOL     MW 1032   0.730   1.036   2.463  0.8785 -0.5610 -0.3165
  259SOL     OW 1033   0.827   0.371   2.370  0.7313 -0.9758 -0.0142
  259SOL    HW1 1034   0.768   0.312   2.417  3.6783  0.8033  2.2600
  259SOL    HW2 1035   0.909   0.336   2.406  1.6912  0.4108  0.2926
  259SOL     MW 1036   0.830   0.359   2.381  1.2467 -0.5582  0.3264
  260SOL     OW 1037   0.481   0.132   1.587  0.1720 -0.2441 -0.5355
  260SOL    HW1 1038   0.428   0.071   1.531 -0.2937 -0.8017 -2.1476
  260SOL    HW2 1039   0.556   0.149   1.535 -2.2509  4.0208  2.0563
  260SOL     MW 1040   0.484   0.126   1.573 -0.2091  0.2451 -0.4062
  261SOL     OW 1041   1.277   0.768   2.012 -1.2893 -0.3151 -0.0404
  261SOL    HW1 1042   1.297   0.797   2.100  1.0421 -2.2140 -0.1404
  261SOL    HW2 1043   1.270   0.673   2.011 -2.1596  2.6497  0.7601
  261SOL     MW 1044   1.278   0.759   2.024 -1.0965 -0.1745  0.0520
  262SOL     OW 1045   1.034   0.337   0.172  0.3214 -0.1179  0.1072
  262SOL    HW1 1046   1.124   0.312   0.146 -0.7189  0.8465 -0.9281
  262SOL    HW2 1047   0.974   0.288   0.113 -2.0985  0.3738 -0.3456
  262SOL     MW 1048   1.038   0.328   0.161 -0.1352  0.0742 -0.0891
  263SOL     OW 1049   0.412   0.001   2.503 -0.2245 -0.4687 -0.1761
  263SOL    HW1 1050   0.327   0.049   2.482  0.3704  1.4594 -3.8619
  263SOL    HW2 1051   0.458   0.001   2.414 -1.2164 -1.2044 -1.7560
  263SOL     MW 1052   0.407   0.007   2.488 -0.2769 -0.3114 -0.8708
  264SOL     OW 1053   1.474   1.336   1.883 -0.2464  0.2120 -0.1689
  264SOL    HW1 1054   1.410   1.302   1.945 -1.1876  0.9178  1.7259
  264SOL    HW2 1055   1.542   1.370   1.939  2.0701 -0.8832  1.0830
  264SOL     MW 1056   1.474   1.336   1.899 -0.0650  0.1606  0.2462
  265SOL     OW 1057   0.692   2.802   2.290  0.3742 -0.2452 -0.0823
  265SOL    HW1 1058   0.724   2.716   2.251 -1.3916 -0.8032 -1.3650
  265SOL    HW2 1059   0.729   2.801   2.377  0.6671 -0.3630 -0.7472
  265SOL     MW 1060   0.701   2.791   2.297  0.1799 -0.3344 -0.3393
  266SOL     OW 1061   0.964   0.717   2.216  0.2229  0.1323  0.0461
  266SOL    HW1 1062   0.945   0.708   2.119  0.3701  1.8906  1.1473
  266SOL    HW2 1063   1.063   0.718   2.219  1.4639 -0.4427  1.7218
  266SOL     MW 1064   0.974   0.716   2.204  0.4061  0.2885  0.4125
  267SOL     OW 1065   1.435   1.764   2.789  0.2588  0.4232  0.1539
  267SOL    HW1 1066   1.489   1.696   2.747 -2.9864 -0.4565  0.0760
  267SOL    HW2 1067   1.380   1.805   2.717  0.1098  1.0688 -2.4790
  267SOL     MW 1068   1.435   1.761   2.774 -0.1890  0.3923 -0.2038
  268SOL     OW 1069   0.189   0.826   1.715 -0.1678 -0.3062 -0.9608
  268SOL    HW1 1070   0.154   0.846   1.629  0.0883 -1.7477  0.2457
  268SOL    HW2 1071   0.193   0.733   1.716 -2.4267  0.7662 -0.8191
  268SOL     MW 1072   0.185   0.816   1.703 -0.4321 -0.3549 -0.7830
  269SOL     OW 1073   1.425   1.945   2.361 -0.4565 -0.4138  0.6095
  269SOL    HW1 1074   1.466   2.032   2.341 -0.2012  0.9118 -1.4548
  269SOL    HW2 1075   1.359   1.961   2.424  1.1346 -0.7674 -2.2696
  269SOL     MW 1076   1.422   1.958   2.367 -0.2129 -0.2856 -0.0427
  270SOL     OW 1077   1.108   0.401   1.630 -0.1015  0.5507  0.3327
  270SOL    HW1 1078   1.060   0.324   1.649 -1.4781  0.6441  0.3742
  270SOL    HW2 1079   1.200   0.372   1.636  1.7200  0.2720 -2.3335
  270SOL     MW 1080   1.114   0.387   1.633 -0.0428  0.5263 -0.0136
  271SOL     OW 1081   0.888   0.008   2.541  0.1665 -0.0400  0.0971
  271SOL    HW1 1082   0.945  -0.032   2.611  0.7605 -0.9148  2.1830
  271SOL    HW2 1083   0.940   0.096   2.525  0.2039  1.5016  1.1852
  271SOL     MW 1084   0.902   0.014   2.548  0.2498  0.0480  0.5158
  272SOL     OW 1085   1.484   2.882   2.828  0.2335 -0.0111  0.3253
  272SOL    HW1 1086   1.433   2.911   2.748  1.9876  2.2625 -1.3771
  272SOL    HW2 1087   1.530   2.958   2.849  2.2175 -1.5692  0.5053
  272SOL     MW 1088   1.483   2.896   2.820  0.7267  0.0833  0.1245
  273SOL     OW 1089   1.445   0.993   2.825  0.2526 -0.0473 -0.7264
  273SOL    HW1 1090   1.538   1.016   2.836  1.1751  0.6187  0.5732
  273SOL    HW2 1091   1.394   1.050   2.881  0.7511  0.1493 -1.1495
  273SOL     MW 1092   1.451   1.004   2.834  0.4401  0.0665 -0.6107
  274SOL     OW 1093   1.477   0.733   0.116 -0.5751 -0.0760 -0.3319
  274SOL    HW1 1094   1.507   0.643   0.137  0.6782  1.4300  2.9881
  274SOL    HW2 1095   1.399   0.728   0.167  2.9422  0.0695 -2.0988
  274SOL     MW 1096   1.470   0.720   0.126  0.0544  0.1419 -0.1270
  275SOL     OW 1097   1.724   0.565   1.769  0.0389 -0.3870 -0.4445
  275SOL    HW1 1098   1.774   0.616   1.834  0.0434 -0.1234 -0.2417
  275SOL    HW2 1099   1.743   0.475   1.784  2.3049 -0.3609 -0.1811
  275SOL     MW 1100   1.733   0.560   1.779  0.3385 -0.3488 -0.3830
  276SOL     OW 1101   0.296   1.216   1.877  0.3074  0.1530  0.8575
  276SOL    HW1 1102   0.332   1.131   1.916  0.7716 -1.6753 -2.3590
  276SOL    HW2 1103   0.235   1.251   1.938  0.5022  0.9128 -0.8657
  276SOL     MW 1104   0.293   1.210   1.890  0.3943  0.0120  0.2058
  277SOL     OW 1105   1.882   1.296   2.429  0.0781 -0.4841 -0.2729
  277SOL    HW1 1106   1.962   1.332   2.471  1.3506  5.4530 -0.4395
  277SOL    HW2 1107   1.909   1.258   2.346 -0.0364  2.8217 -1.0337
  277SOL     MW 1108   1.896   1.295   2.424  0.2309  0.7354 -0.3952
  278SOL     OW 1109   1.451   0.624   1.727 -0.4096 -0.3836  0.1668
  278SOL    HW1 1110   1.408   0.585   1.804  1.8166  1.0655 -1.1427
  278SOL    HW2 1111   1.542   0.610   1.748  0.0034  1.6395  2.9996
  278SOL     MW 1112   1.457   0.617   1.740 -0.0614  0.0745  0.3678
  279SOL     OW 1113   0.555   0.013   2.285 -0.4143  0.8048  0.1532
  279SOL    HW1 1114   0.643  -0.010   2.273 -1.5298 -0.0727  1.6613
  279SOL    HW2 1115   0.555   0.109   2.284  3.5248  1.6319 -0.5370
  279SOL     MW 1116   0.566   0.022   2.283 -0.0417  0.7982  0.2611
  280SOL     OW 1117   1.445   0.975   2.119 -0.0662 -0.2614 -0.0775
  280SOL    HW1 1118   1.495   0.911   2.064  0.4719 -2.0435 -0.6521
  280SOL    HW2 1119   1.445   0.940   2.210 -0.1045 -1.9865 -1.0892
  280SOL     MW 1120   1.451   0.962   2.124 -0.0002 -0.7242 -0.2868
  281SOL     OW 1121   1.295   1.309   2.777  0.0999  0.1659  0.3696
  281SOL    HW1 1122   1.389   1.304   2.774 -2.6175  0.6798  1.3217
  281SOL    HW2 1123   1.270   1.264   2.857 -2.1452  2.7015  1.9616
  281SOL     MW 1124   1.304   1.302   2.787 -0.5549  0.5682  0.7053
  282SOL     OW 1125   1.114   1.277   1.665 -0.3728  0.2370  1.0160
  282SOL    HW1 1126   1.099   1.377   1.640 -1.7057  2.6898  1.2253
  282SOL    HW2 1127   1.085   1.265   1.755 -0.3830  1.2293  0.1610
  282SOL     MW 1128   1.108   1.289   1.674 -0.5500  0.6915  0.9308
  283SOL     OW 1129   0.763   1.207   2.983 -0.0874 -0.3106  0.2527
  283SOL    HW1 1130   0.834   1.158   3.028  0.9307 -2.2618  3.2241
  283SOL    HW2 1131   0.762   1.299   3.026  2.0875  1.4182  0.7978
  283SOL     MW 1132   0.773   1.213   2.995  0.3339 -0.3400  0.7167
  284SOL     OW 1133   0.507   0.641   2.392 -0.1789  0.1554 -0.4725
  284SOL    HW1 1134   0.582   0.693   2.356 -0.9341 -0.4667  1.4180
  284SOL    HW2 1135   0.475   0.582   2.325 -0.5812 -1.2723  3.5502
  284SOL     MW 1136   0.513   0.640   2.379 -0.3316 -0.1151  0.3077
  285SOL     OW 1137   0.919   0.929   2.808  1.0781  0.7057  0.6684
  285SOL    HW1 1138   0.944   0.962   2.717 -1.5525 -1.1239 -1.2263
  285SOL    HW2 1139   0.877   0.845   2.794 -0.0056 -2.3701  3.1148
  285SOL     MW 1140   0.916   0.922   2.794  0.5881  0.0585  0.7412
  286SOL     OW 1141   1.183   1.515   2.592 -0.1342 -0.2635 -0.1351
  286SOL    HW1 1142   1.225   1.473   2.664  1.4703 -1.8409 -0.0793
  286SOL    HW2 1143   1.191   1.603   2.625 -1.4295 -1.3877 -0.5836
  286SOL     MW 1144   1.189   1.521   2.606 -0.0934 -0.6199 -0.1869
  287SOL     OW 1145   1.098   0.948   0.287 -0.3036  0.1249 -0.2624
  287SOL    HW1 1146   1.119   0.986   0.378  3.9578 -1.0577  1.1695
  287SOL    HW2 1147   1.035   1.004   0.242 -1.4906 -0.1805 -0.3801
  287SOL     MW 1148   1.093   0.960   0.293  0.1020 -0.0714 -0.0890
  288SOL     OW 1149   1.534   0.583   2.102  0.0847 -0.6660 -0.0102
  288SOL    HW1 1150   1.512   0.614   2.191  0.9684 -0.0639  1.3799
  288SOL    HW2 1151   1.568   0.667   2.061 -0.7893 -2.2343 -0.7515
  288SOL     MW 1152   1.535   0.599   2.108  0.0860 -0.7935  0.0754
  289SOL     OW 1153   0.974   1.040   2.571 -0.2142  0.4155 -0.1336
  289SOL    HW1 1154   1.018   0.976   2.518  0.9481  0.9335  0.7952
  289SOL    HW2 1155   0.883   1.034   2.538  0.3751 -0.3139 -0.2746
  289SOL     MW 1156   0.968   1.031   2.560  0.0169  0.3876 -0.0297
  290SOL     OW 1157   0.844   0.641   1.590 -1.2432  0.0705  0.7694
  290SOL    HW1 1158   0.873   0.585   1.514 -2.1290 -0.5539 -0.2285
  290SOL    HW2 1159   0.922   0.660   1.642 -1.1276  0.3821 -1.6313
  290SOL     MW 1160   0.858   0.636   1.587 -1.3448  0.0293  0.3210
  291SOL     OW 1161   0.216   0.320   0.132  0.0432  0.2128 -0.7028
  291SOL    HW1 1162   0.287   0.252   0.147  0.2139 -3.1128 -0.1502
  291SOL    HW2 1163   0.149   0.281   0.069 -2.9842 -0.9909 -1.3653
  291SOL     MW 1164   0.217   0.306   0.125 -0.3337 -0.3848 -0.7173
  292SOL     OW 1165   1.010   0.600   0.097  0.1167  0.2734 -0.0400
  292SOL    HW1 1166   1.077   0.651   0.135 -0.6745  0.5140  0.0970
  292SOL    HW2 1167   1.019   0.504   0.126  1.1420  0.1425  0.5718
  292SOL     MW 1168   1.020   0.594   0.106  0.1476  0.2879  0.0588
  293SOL     OW 1169   0.182   0.127   2.437  0.2182 -0.1740 -0.2333
  293SOL    HW1 1170   0.118   0.074   2.391 -1.0436 -0.9564  1.0813
  293SOL    HW2 1171   0.136   0.156   2.517  1.9841  2.1620  2.2189
  293SOL     MW 1172   0.168   0.124   2.442  0.2847  0.0310  0.2637
  294SOL     OW 1173   1.515   0.651   2.370 -0.6933  0.3073  0.2349
  294SOL    HW1 1174   1.543   0.716   2.431  1.2138 -0.9608 -4.4493
  294SOL    HW2 1175   1.491   0.575   2.420 -0.5664 -4.4384 -2.0294
  294SOL     MW 1176   1.515   0.650   2.384 -0.4249 -0.4862 -0.6819
  295SOL     OW 1177   0.924   0.609   2.524  0.0687 -0.0040 -0.1295
  295SOL    HW1 1178   0.880   0.560   2.458 -0.7800  0.7216  2.2016
  295SOL    HW2 1179   0.868   0.632   2.605 -3.4622 -1.3866 -0.0086
  295SOL     MW 1180   0.911   0.606   2.526 -0.5091 -0.0907  0.1940
  296SOL     OW 1181   1.301   0.237   2.054  0.0704  0.4756 -0.0176
  296SOL    HW1 1182   1.365   0.164   2.043 -0.3709 -0.0302  1.2209
  296SOL    HW2 1183   1.272   0.216   2.146 -0.4382 -0.0322 -0.5031
  296SOL     MW 1184   1.305   0.224   2.065 -0.0549  0.3419  0.0817
  297SOL     OW 1185   1.407   0.364   1.628 -0.3693  0.1075  0.2477
  297SOL    HW1 1186   1.442   0.447   1.657  1.2787  1.2414 -0.1741
  297SOL    HW2 1187   1.472   0.297   1.648 -1.0619 -2.7151 -0.0680
  297SOL     MW 1188   1.420   0.366   1.635 -0.2432 -0.1153  0.1504
  298SOL     OW 1189   1.638   0.823   1.993  0.6712 -0.6984  0.1458
  298SOL    HW1 1190   1.609   0.874   1.913  0.7082 -0.7517 -0.0721
  298SOL    HW2 1191   1.730   0.846   2.007  0.7458  1.3804 -0.9530
  298SOL     MW 1192   1.646   0.833   1.984  0.6859 -0.4311 -0.0279
  299SOL     OW 1193   0.585   1.092   0.045  0.7402  0.7231 -0.4241
  299SOL    HW1 1194   0.658   1.132  -0.003 -2.1736  0.6433 -0.1934
  299SOL    HW2 1195   0.526   1.067  -0.026  2.0456 -1.2106 -0.3794
  299SOL     MW 1196   0.587   1.094   0.029  0.5280  0.4574 -0.3878
  300SOL     OW 1197   1.274   1.154   2.561  0.6382  0.0116 -0.0979
  300SOL    HW1 1198   1.197   1.099   2.588  0.7666  2.6076 -2.5215
  300SOL    HW2 1199   1.299   1.210   2.634  2.5676  1.1480 -1.7183
  300SOL     MW 1200   1.267   1.154   2.574  0.9097  0.5041 -0.6315
  301SOL     OW 1201   1.433   0.924   0.658  0.0329 -0.6238 -0.2297
  301SOL    HW1 1202   1.436   0.938   0.756 -1.1310 -1.7077  1.0623
  301SOL    HW2 1203   1.377   0.849   0.655  0.0635  2.5166 -1.4087
  301SOL     MW 1204   1.426   0.916   0.671 -0.1166 -0.3525 -0.2148
  302SOL     OW 1205   0.147   1.479   2.021 -0.2170 -0.3636  0.4753
  302SOL    HW1 1206   0.149   1.410   2.085  3.0423 -1.0752  1.4847
  302SOL    HW2 1207   0.073   1.539   2.056 -3.1956  0.2583  0.6019
  302SOL     MW 1208   0.138   1.478   2.034 -0.1800 -0.3754  0.6252
  303SOL     OW 1209   0.376   1.717   2.649 -0.1205  0.2988 -0.1390
  303SOL    HW1 1210   0.345   1.686   2.567  2.5882  0.3599 -1.3250
  303SOL    HW2 1211   0.315   1.781   2.679 -0.5989 -0.0754  0.3146
  303SOL     MW 1212   0.364   1.722   2.642  0.1738  0.2575 -0.2356
  304SOL     OW 1213   0.585   2.078   2.350 -0.5629 -0.4714 -0.2355
  304SOL    HW1 1214   0.649   2.147   2.313 -0.4025 -0.8447  1.4698
  304SOL    HW2 1215   0.648   2.010   2.382 -0.3018  1.5043  3.6697
  304SOL     MW 1216   0.602   2.078   2.349 -0.5073 -0.2600  0.5047
  305SOL     OW 1217   1.110   0.595   0.505  0.6889  0.0510  0.0124
  305SOL    HW1 1218   1.022   0.579   0.478  1.7717  0.0357 -1.1224
  305SOL    HW2 1219   1.140   0.502   0.517  0.5761 -3.4142  0.0802
  305SOL     MW 1220   1.102   0.581   0.503  0.8169 -0.4082 -0.1283
  306SOL     OW 1221   1.190   1.475   0.277 -0.2464  0.2420  0.1859
  306SOL    HW1 1222   1.246   1.396   0.300  1.9911  0.9667  0.4090
  306SOL    HW2 1223   1.226   1.489   0.195  1.3121 -0.0747 -0.2766
  306SOL     MW 1224   1.202   1.466   0.269  0.2544  0.2958  0.1543
  307SOL     OW 1225   1.326   0.504   1.939 -0.0004  0.3400  0.3962
  307SOL    HW1 1226   1.324   0.414   1.951  1.6250  0.4121  0.4285
  307SOL    HW2 1227   1.388   0.543   2.005 -1.4650  2.9620 -1.8454
  307SOL     MW 1228   1.334   0.497   1.949  0.0208  0.6954  0.1047
  308SOL     OW 1229   2.142   0.562   2.723 -0.1357 -0.4021  0.2593
  308SOL    HW1 1230   2.227   0.539   2.771 -3.2744 -2.2057  0.6518
  308SOL    HW2 1231   2.132   0.656   2.725  1.2370  0.1579  1.4231
  308SOL     MW 1232   2.152   0.572   2.729 -0.3687 -0.5662  0.4647
  309SOL     OW 1233   0.447   0.379   0.370 -0.0018  1.0647  0.1369
  309SOL    HW1 1234   0.539   0.370   0.393 -1.0462  0.8990  0.9822
  309SOL    HW2 1235   0.431   0.304   0.314 -0.6408 -0.2399  3.6695
  309SOL     MW 1236   0.457   0.368   0.366 -0.2239  0.8707  0.7145
  310SOL     OW 1237   0.506   0.633   1.940  0.2821  0.1163 -0.1897
  310SOL    HW1 1238   0.556   0.549   1.924 -2.6639  0.6629 -0.7372
  310SOL    HW2 1239   0.569   0.695   1.914 -1.8639  0.0551  1.8394
  310SOL     MW 1240   0.521   0.630   1.935 -0.3897  0.1803  0.0058
  311SOL     OW 1241   1.939   0.696   1.894 -0.3099  0.2289 -0.1765
  311SOL    HW1 1242   1.916   0.696   1.986 -0.5682  1.2945  0.3810
  311SOL    HW2 1243   2.000   0.620   1.896  1.2875 -2.0170 -0.2078
  311SOL     MW 1244   1.944   0.686   1.907 -0.1332  0.0732 -0.1071
  312SOL     OW 1245   1.745   2.560   0.117  1.2586  0.4868 -0.2649
  312SOL    HW1 1246   1.809   2.580   0.189  0.7663 -0.5306 -0.2025
  312SOL    HW2 1247   1.656   2.573   0.159 -0.9193  0.7581  2.8240
  312SOL     MW 1248   1.741   2.564   0.132  0.9063  0.3884  0.1509
  313SOL     OW 1249   0.085   1.168   2.981 -0.0732 -0.6788  0.0693
  313SOL    HW1 1250   0.093   1.172   3.077  0.3926 -2.2055 -0.4750
  313SOL    HW2 1251   0.161   1.210   2.951 -0.6933 -0.8731  2.3169
  313SOL     MW 1252   0.096   1.174   2.990 -0.0935 -0.9058  0.2940
  314SOL     OW 1253   2.136   2.947   2.995  0.5171 -0.1997 -0.2853
  314SOL    HW1 1254   2.075   2.986   2.931  0.1814 -1.1323  0.1258
  314SOL    HW2 1255   2.205   3.009   3.026  0.7910 -0.2855  0.9330
  314SOL     MW 1256   2.137   2.961   2.991  0.5089 -0.3340 -0.0703
  315SOL     OW 1257   1.516   1.976   3.087  0.0745  0.1022  0.1437
  315SOL    HW1 1258   1.452   2.027   3.135  1.1107  0.0006 -1.4356
  315SOL    HW2 1259   1.540   2.019   3.008  0.0174 -1.7394  2.5754
  315SOL     MW 1260   1.511   1.989   3.083  0.2037 -0.1542  0.2561
  316SOL     OW 1261   1.284   0.679   2.712  0.3076  0.1248  0.0859
  316SOL    HW1 1262   1.356   0.738   2.689 -0.1480  1.1307 -2.2185
  316SOL    HW2 1263   1.286   0.691   2.805 -0.7655 -0.5763  0.7786
  316SOL     MW 1264   1.294   0.688   2.721  0.1059  0.1650 -0.1268
  317SOL     OW 1265   0.734   1.470   2.588 -0.3475 -0.3715 -0.4478
  317SOL    HW1 1266   0.802   1.400   2.575 -0.3760 -0.8569 -0.4326
  317SOL    HW2 1267   0.732   1.503   2.495  1.1692 -2.5016 -1.8373
  317SOL     MW 1268   0.742   1.465   2.574 -0.1512 -0.7166 -0.6291
  318SOL     OW 1269   1.350   0.363   2.898 -0.9047 -0.2355  0.0342
  318SOL    HW1 1270   1.252   0.388   2.895  0.8157  0.5928  1.3513
  318SOL    HW2 1271   1.393   0.446   2.928 -2.5286 -0.2928 -0.7573
  318SOL     MW 1272   1.342   0.378   2.901 -0.8920 -0.1338  0.1036
  319SOL     OW 1273   0.775   0.411   2.857 -0.0467  0.0459 -0.0492
  319SOL    HW1 1274   0.727   0.355   2.797  0.0594  0.0980  2.8247
  319SOL    HW2 1275   0.739   0.397   2.949  2.3207  2.2824 -0.8109
  319SOL     MW 1276   0.764   0.402   2.861  0.2797  0.3479  0.2295
  320SOL     OW 1277   1.088   1.344   1.943  0.0827  0.1411  0.1136
  320SOL    HW1 1278   1.124   1.292   2.014  4.0834  1.0695 -0.6807
  320SOL    HW2 1279   1.157   1.408   1.930  0.9914  0.0351 -2.2853
  320SOL     MW 1280   1.102   1.346   1.950  0.7305  0.2496 -0.3077
  321SOL     OW 1281   1.103   0.915   3.017 -0.1577 -0.4013 -0.1936
  321SOL    HW1 1282   1.028   0.895   2.962  0.4184 -1.0085 -0.3414
  321SOL    HW2 1283   1.176   0.856   2.997  0.3074 -1.2118  2.4000
  321SOL     MW 1284   1.103   0.905   3.007 -0.0203 -0.5884  0.1291
  322SOL     OW 1285   1.291   0.834   1.702  0.1690  0.3524 -0.3677
  322SOL    HW1 1286   1.361   0.763   1.713 -0.8500  0.4997 -0.8412
  322SOL    HW2 1287   1.266   0.878   1.785 -1.8483  0.4464 -0.4012
  322SOL     MW 1288   1.297   0.830   1.714 -0.2316  0.3842 -0.4346
  323SOL     OW 1289   1.253   1.559   1.906 -0.3147 -0.4134  0.5696
  323SOL    HW1 1290   1.282   1.545   1.812  3.1881 -1.5935 -0.4667
  323SOL    HW2 1291   1.204   1.645   1.895 -1.0633 -1.2516 -2.0212
  323SOL     MW 1292   1.250   1.569   1.892  0.0487 -0.6797  0.0911
  324SOL     OW 1293   1.499   0.962   2.402 -0.1807 -0.0472  0.4562
  324SOL    HW1 1294   1.413   0.999   2.430  4.6315 -1.7978 -1.8012
  324SOL    HW2 1295   1.567   1.029   2.410 -0.0708 -2.0691  1.7408
  324SOL     MW 1296   1.497   0.975   2.407  0.4688 -0.5449  0.3278
  325SOL     OW 1297   1.070   0.425   2.946  0.4854 -0.6309  0.5414
  325SOL    HW1 1298   1.083   0.485   3.020 -0.4457 -1.6355  1.3503
  325SOL    HW2 1299   0.981   0.428   2.907 -2.7027  0.8372 -1.7751
  325SOL     MW 1300   1.060   0.433   2.951 -0.0580 -0.5698  0.3425
  326SOL     OW 1301   0.452   1.365   2.216  0.5849  0.1387  0.2065
  326SOL    HW1 1302   0.526   1.326   2.173  1.0792 -0.6979 -0.2448
  326SOL    HW2 1303   0.477   1.460   2.214  0.7827  2.4250  2.0108
  326SOL     MW 1304   0.465   1.372   2.210  0.6762  0.3300  0.3850
  327SOL     OW 1305   1.929   0.797   2.428 -0.0256 -0.1878 -0.0503
  327SOL    HW1 1306   1.912   0.766   2.518  0.4997 -0.3128 -1.6072
  327SOL    HW2 1307   2.018   0.838   2.431  1.4647  0.5737 -1.2181
  327SOL     MW 1308   1.939   0.798   2.440  0.2404 -0.1038 -0.4098
  328SOL     OW 1309   0.157   1.279   2.208 -0.2561  0.6419 -0.3409
  328SOL    HW1 1310   0.127   1.203   2.156  1.0011  0.9576 -0.5066
  328SOL    HW2 1311   0.252   1.266   2.225 -2.5800  1.9274 -0.5949
  328SOL     MW 1312   0.166   1.267   2.204 -0.3968  0.8531 -0.3962
  329SOL     OW 1313   0.137   0.151   1.319  0.8906  0.9786 -0.4356
  329SOL    HW1 1314   0.095   0.186   1.397  0.4973  2.0942 -1.8369
  329SOL    HW2 1315   0.212   0.201   1.323 -1.9902 -0.0786  0.4989
  329SOL     MW 1316   0.141   0.162   1.330  0.4586  0.9863 -0.4972
  330SOL     OW 1317   0.354   3.083   2.047  0.7097  0.3696 -0.1085
  330SOL    HW1 1318   0.440   3.094   2.089  3.6382 -0.3567  1.0673
  330SOL    HW2 1319   0.298   3.067   2.124 -0.2442 -2.2683  3.5018
  330SOL     MW 1320   0.358   3.082   2.063  0.9702 -0.0742  0.5229
  331SOL     OW 1321   0.870   1.198   2.291  0.2296  0.5192 -0.1737
  331SOL    HW1 1322   0.847   1.230   2.202  0.2707  2.5236 -2.0816
  331SOL    HW2 1323   0.868   1.276   2.343 -2.2333  3.6640 -1.4431
  331SOL     MW 1324   0.866   1.213   2.286 -0.0899  1.1986 -0.5929
  332SOL     OW 1325   1.325   1.772   3.046  0.0753  0.2025 -0.5462
  332SOL    HW1 1326   1.364   1.775   2.959  1.0080 -0.9151 -1.5334
  332SOL    HW2 1327   1.377   1.831   3.105  1.0097  0.3377  2.7704
  332SOL     MW 1328   1.337   1.780   3.042  0.3216  0.0729 -0.2389
  333SOL     OW 1329   1.742   1.394   2.935  0.1760 -0.2029  0.9644
  333SOL    HW1 1330   1.839   1.393   2.959  2.8583 -1.4999  0.2849
  333SOL    HW2 1331   1.703   1.353   3.007 -1.3498  1.6485 -0.3298
  333SOL     MW 1332   1.749   1.388   2.948  0.3286 -0.1297  0.7039
  334SOL     OW 1333   1.394  -0.004   2.629  0.2786  0.1482 -0.1117
  334SOL    HW1 1334   1.306  -0.001   2.666  1.1000 -2.2734 -2.8478
  334SOL    HW2 1335   1.432   0.081   2.650 -2.6151  0.7628 -1.2826
  334SOL     MW 1336   1.387   0.008   2.637  0.0052 -0.0902 -0.6272
  335SOL     OW 1337   1.344   0.780   2.989  0.7535 -0.4825  0.3746
  335SOL    HW1 1338   1.393   0.744   3.063  1.5746 -0.9962 -0.9169
  335SOL    HW2 1339   1.402   0.837   2.943 -1.2740  2.2582 -2.0495
  335SOL     MW 1340   1.358   0.783   2.993  0.5943 -0.1887 -0.1156
  336SOL     OW 1341   0.954   1.053   1.980  0.2735  0.2710  0.1661
  336SOL    HW1 1342   0.964   1.146   1.986 -2.8273 -1.7697 -1.4563
  336SOL    HW2 1343   1.040   1.014   1.991  0.4430 -0.8189  1.7929
  336SOL     MW 1344   0.967   1.060   1.982 -0.1133 -0.1421  0.1667
  337SOL     OW 1345   0.599   1.809   2.770  0.5458 -0.2760 -0.0334
  337SOL    HW1 1346   0.525   1.779   2.707 -1.7748  4.9912  1.7218
  337SOL    HW2 1347   0.686   1.774   2.748  2.1135 -0.8820 -2.4304
  337SOL     MW 1348   0.601   1.801   2.759  0.4464  0.3390 -0.1181
  338SOL     OW 1349   1.119   0.798   2.512  0.0930 -0.3502 -0.2994
  338SOL    HW1 1350   1.040   0.735   2.503 -2.6751  1.1582 -1.1403
  338SOL    HW2 1351   1.180   0.758   2.582  2.0187 -0.5193  1.0871
  338SOL     MW 1352   1.117   0.784   2.520 -0.0181 -0.1735 -0.2274
  339SOL     OW 1353   1.538   1.018   1.808 -0.3541  0.1411 -0.0915
  339SOL    HW1 1354   1.466   1.022   1.744 -0.7514  0.3629  2.1131
  339SOL    HW2 1355   1.503   1.063   1.887  0.9585  2.9395  0.7991
  339SOL     MW 1356   1.524   1.024   1.810 -0.2333  0.5396  0.3169
  340SOL     OW 1357   1.365   1.488   0.060 -0.3629  0.4182  0.5389
  340SOL    HW1 1358   1.378   1.574   0.031 -1.9946  0.4784  2.7421
  340SOL    HW2 1359   1.449   1.451   0.074 -0.2534  3.1015  0.1851
  340SOL     MW 1360   1.378   1.494   0.058 -0.5638  0.7802  0.7829
  341SOL     OW 1361   0.151   1.433   2.704 -0.1193 -0.3511  0.4228
  341SOL    HW1 1362   0.223   1.369   2.701  0.4066 -2.7005 -0.1427
  341SOL    HW2 1363   0.076   1.389   2.662  0.3854 -1.8556 -0.7119
  341SOL     MW 1364   0.151   1.419   2.698  0.0167 -0.8596  0.1984
  342SOL     OW 1365   1.294   0.339   0.088  0.0301  0.4427  0.2188
  342SOL    HW1 1366   1.356   0.398   0.127 -1.6564  1.6387  0.6735
  342SOL    HW2 1367   1.319   0.338  -0.005 -2.4817  0.4572 -0.5604
  342SOL     MW 1368   1.306   0.346   0.081 -0.5238  0.6024  0.1760
  343SOL     OW 1369   0.225   0.313   2.150  0.2272 -0.3959  0.1552
  343SOL    HW1 1370   0.303   0.278   2.117 -2.2453  0.8478 -0.7974
  343SOL    HW2 1371   0.150   0.280   2.096 -1.3773 -1.3678  0.0391
  343SOL     MW 1372   0.225   0.304   2.138 -0.3107 -0.3600  0.0142
  344SOL     OW 1373   1.700   2.071   0.191  0.0430  0.0623 -0.1543
  344SOL    HW1 1374   1.719   2.157   0.149 -0.1849  2.2692  1.2851
  344SOL    HW2 1375   1.654   2.020   0.119  1.2669 -0.4648 -1.2191
  344SOL     MW 1376   1.697   2.076   0.176  0.1744  0.2839 -0.1049
  345SOL     OW 1377   0.748   1.589   2.351  0.0161  0.0110  0.6671
  345SOL    HW1 1378   0.682   1.605   2.284  0.5922  2.4345  0.0286
  345SOL    HW2 1379   0.814   1.567   2.285 -0.2485 -0.6849  2.7857
  345SOL     MW 1380   0.748   1.588   2.333  0.0572  0.2389  0.8624
  346SOL     OW 1381   1.773   1.067   3.089 -0.0990 -0.4713  0.1757
  346SOL    HW1 1382   1.869   1.090   3.101 -0.6847  2.6969  3.7617
  346SOL    HW2 1383   1.739   1.041   3.173  0.2680 -0.1457 -0.6260
  346SOL     MW 1384   1.781   1.066   3.102 -0.1279 -0.0103  0.5430
  347SOL     OW 1385   1.279   0.745   2.297 -0.3249 -0.3297  0.0831
  347SOL    HW1 1386   1.359   0.706   2.332  1.7703 -1.3520 -0.8877
  347SOL    HW2 1387   1.221   0.751   2.376 -1.1110 -1.6075  0.5633
  347SOL     MW 1388   1.282   0.740   2.312 -0.1522 -0.6332  0.0184
  348SOL     OW 1389   1.430   2.666   1.890 -0.0460  0.1801  0.2866
  348SOL    HW1 1390   1.449   2.576   1.907  1.2324  1.7774 -0.5596
  348SOL    HW2 1391   1.483   2.717   1.952  0.8520 -0.0755  1.6492
  348SOL     MW 1392   1.439   2.661   1.900  0.2412  0.3571  0.3548
  349SOL     OW 1393   1.506   0.281   2.693 -0.2334  0.1431 -0.1984
  349SOL    HW1 1394   1.441   0.304   2.761  2.7682 -0.3866  0.9115
  349SOL    HW2 1395   1.583   0.306   2.736 -1.9758  1.2338  1.2242
  349SOL     MW 1396   1.508   0.287   2.707 -0.0673  0.2171  0.1357
  350SOL     OW 1397   1.888   0.622   2.679  0.1005  0.5856  0.5191
  350SOL    HW1 1398   1.837   0.568   2.619 -0.8683 -1.4104 -0.5127
  350SOL    HW2 1399   1.976   0.586   2.674 -2.7918 -0.3312 -0.4625
  350SOL     MW 1400   1.893   0.610   2.670 -0.4089  0.2013  0.2534
  351SOL     OW 1401   0.050   0.964   1.492  0.0484  0.8823 -0.3092
  351SOL    HW1 1402  -0.031   0.969   1.551  0.4776  4.1739 -0.2881
  351SOL    HW2 1403   0.106   1.034   1.525 -3.0755 -1.1675  1.3666
  351SOL     MW 1404   0.046   0.974   1.504 -0.3071  1.0461 -0.0853
  352SOL     OW 1405   0.828   1.690   2.725 -0.3870 -0.0980 -0.1356
  352SOL    HW1 1406   0.870   1.642   2.798  0.2180 -0.0950  2.5495
  352SOL    HW2 1407   0.810   1.614   2.669 -0.7836  2.7564  1.0892
  352SOL     MW 1408   0.831   1.674   2.727 -0.3595  0.2790  0.3803
  353SOL     OW 1409   3.072   2.491   2.650 -0.0549  0.0042 -0.2501
  353SOL    HW1 1410   3.169   2.501   2.642 -1.4175 -2.1470 -2.0284
  353SOL    HW2 1411   3.023   2.568   2.629 -0.7810 -0.1255 -1.3705
  353SOL     MW 1412   3.079   2.502   2.646 -0.3305 -0.2967 -0.6326
  354SOL     OW 1413   0.305   2.536   0.826 -0.8535 -0.1674 -0.4701
  354SOL    HW1 1414   0.345   2.508   0.907 -2.0101 -1.0282 -0.1865
  354SOL    HW2 1415   0.253   2.455   0.808 -3.5472  0.2624  0.6093
  354SOL     MW 1416   0.303   2.521   0.835 -1.3615 -0.2243 -0.2903
  355SOL     OW 1417   0.047   2.280   0.384  0.8980 -0.1918  0.4054
  355SOL    HW1 1418  -0.020   2.209   0.376 -0.3441  2.2423 -0.7508
  355SOL    HW2 1419   0.016   2.318   0.467 -1.4839  1.4782 -0.4619
  355SOL     MW 1420   0.034   2.275   0.394  0.4198  0.3497  0.1384
  356SOL     OW 1421   0.805   2.843   0.983 -0.1340 -0.7192 -0.1471
  356SOL    HW1 1422   0.821   2.845   0.888 -0.6588 -1.0447 -1.2343
  356SOL    HW2 1423   0.713   2.813   0.988  2.1184  0.0888  0.3125
  356SOL     MW 1424   0.795   2.839   0.971  0.0939 -0.6556 -0.2299
  357SOL     OW 1425   1.794   2.935   0.427 -0.0697 -0.4312 -0.2431
  357SOL    HW1 1426   1.738   2.860   0.463 -1.5084  0.6461  2.7378
  357SOL    HW2 1427   1.871   2.906   0.375  2.4095  1.7178 -3.8243
  357SOL     MW 1428   1.796   2.921   0.425  0.0676 -0.0055 -0.3223
  358SOL     OW 1429   0.497   0.119   1.104 -0.6090  0.3389  0.2159
  358SOL    HW1 1430   0.584   0.091   1.083 -1.4832 -2.0048  0.5763
  358SOL    HW2 1431   0.462   0.143   1.014  0.7609  1.0075  2.3905
  358SOL     MW 1432   0.503   0.119   1.089 -0.5436  0.1179  0.5504
  359SOL     OW 1433   0.887   2.939   1.852 -0.1485  0.4931 -0.1922
  359SOL    HW1 1434   0.868   2.845   1.877  0.5196  0.5580 -0.5417
  359SOL    HW2 1435   0.946   2.942   1.776 -1.9994  2.0098  1.2985
  359SOL     MW 1436   0.892   2.927   1.845 -0.3045  0.7018 -0.0416
  360SOL     OW 1437   0.534   2.741   0.985 -0.1812 -0.0333 -0.7153
  360SOL    HW1 1438   0.538   2.706   0.893 -0.3907 -1.6536 -3.2772
  360SOL    HW2 1439   0.561   2.672   1.048 -0.3949 -0.5239  2.0986
  360SOL     MW 1440   0.538   2.727   0.981 -0.2371 -0.3118 -0.6820
  361SOL     OW 1441   0.168   2.692   1.324 -0.5677 -0.0658 -0.0715
  361SOL    HW1 1442   0.143   2.759   1.390 -1.9515 -0.6571 -0.5897
  361SOL    HW2 1443   0.264   2.680   1.347 -1.0709  1.2682 -1.1348
  361SOL     MW 1444   0.177   2.699   1.335 -0.8167  0.0322 -0.2802
  362SOL     OW 1445   1.478   2.443   0.619 -0.0803  0.0452  0.0025
  362SOL    HW1 1446   1.506   2.366   0.672 -0.4065 -1.4101 -2.0529
  362SOL    HW2 1447   1.511   2.522   0.664  1.7099  2.6849 -1.0583
  362SOL     MW 1448   1.486   2.443   0.632  0.1128  0.2014 -0.4087
  363SOL     OW 1449   0.306   3.072   0.711  0.1165  0.0542 -0.4993
  363SOL    HW1 1450   0.297   3.008   0.788  2.0025 -0.9120 -0.0779
  363SOL    HW2 1451   0.222   3.074   0.671 -0.2740 -0.2908 -1.4333
  363SOL     MW 1452   0.294   3.064   0.716  0.3138 -0.1188 -0.5670
  364SOL     OW 1453   0.687   0.169   0.221 -0.4156 -0.1927 -0.3058
  364SOL    HW1 1454   0.624   0.101   0.257 -3.2677 -1.0858  0.9899
  364SOL    HW2 1455   0.628   0.224   0.166 -0.1958 -0.6036  0.4573
  364SOL     MW 1456   0.671   0.167   0.219 -0.7629 -0.3647 -0.0341
  365SOL     OW 1457   0.974   1.970   1.071 -0.5107  0.4070  0.3446
  365SOL    HW1 1458   0.948   2.056   1.048  0.8933 -2.7889  0.0343
  365SOL    HW2 1459   0.906   1.915   1.025 -0.2006 -0.7488 -0.2157
  365SOL     MW 1460   0.962   1.974   1.062 -0.2845 -0.1672  0.2298
  366SOL     OW 1461   2.830   2.628   1.016  0.1746  0.0482 -0.3510
  366SOL    HW1 1462   2.908   2.639   1.081 -0.5999  0.6552  2.6481
  366SOL    HW2 1463   2.850   2.648   0.926  2.1042  1.7446  0.4097
  366SOL     MW 1464   2.843   2.632   1.012  0.3270  0.3521  0.1451
  367SOL     OW 1465   1.251   2.935   0.900 -0.0200 -0.0105 -0.6029
  367SOL    HW1 1466   1.273   3.027   0.870  0.1069  1.4956 -1.0830
  367SOL    HW2 1467   1.203   2.888   0.829  2.3702  1.2095 -2.0459
  367SOL     MW 1468   1.248   2.941   0.886  0.3121  0.3492 -0.8566
  368SOL     OW 1469   1.636   0.403   0.686  0.4148  0.1845  0.4374
  368SOL    HW1 1470   1.723   0.356   0.683  1.7123  0.2371 -1.9926
  368SOL    HW2 1471   1.662   0.498   0.686 -1.4391 -1.9123  0.0130
  368SOL     MW 1472   1.651   0.409   0.685  0.3414 -0.0852  0.0608
  369SOL     OW 1473   0.137   2.529   1.652 -0.6742  0.0127  0.0527
  369SOL    HW1 1474   0.230   2.511   1.678  1.0595  0.5701 -1.8814
  369SOL    HW2 1475   0.121   2.604   1.701  2.0647 -4.7706 -0.4999
  369SOL     MW 1476   0.147   2.536   1.662 -0.0841 -0.5449 -0.2754
  370SOL     OW 1477   0.745   0.055   0.930 -0.1028  0.8837  0.5930
  370SOL    HW1 1478   0.823   0.110   0.923 -0.2642  0.1153  1.5654
  370SOL    HW2 1479   0.790  -0.031   0.931  0.1653 -1.5211 -1.7636
  370SOL     MW 1480   0.761   0.051   0.930 -0.0887  0.4650  0.4104
  371SOL     OW 1481   1.334   2.940   1.500 -0.2091  0.0456 -0.4941
  371SOL    HW1 1482   1.283   2.870   1.457 -0.1415  0.4684 -1.2320
  371SOL    HW2 1483   1.346   3.015   1.432 -0.1502  2.2623  0.2737
  371SOL     MW 1484   1.329   2.941   1.485 -0.1924  0.3939 -0.4901
  372SOL     OW 1485   0.771   2.334   0.466 -0.5139 -0.3476  0.6393
  372SOL    HW1 1486   0.766   2.241   0.487  1.6527  0.9972  3.1894
  372SOL    HW2 1487   0.804   2.331   0.377  1.2551  0.0529 -1.1678
  372SOL     MW 1488   0.774   2.321   0.457  0.0053 -0.1173  0.7373
  373SOL     OW 1489   2.749   3.045   1.443 -0.1079 -0.2767  0.1027
  373SOL    HW1 1490   2.824   3.013   1.400 -1.0810  1.1284  0.9189
  373SOL    HW2 1491   2.732   3.126   1.394 -1.0337 -0.6883  1.6015
  373SOL     MW 1492   2.756   3.051   1.431 -0.3585 -0.1456  0.4082
  374SOL     OW 1493   1.514   0.447   0.215 -0.6658 -0.0054 -0.3965
  374SOL    HW1 1494   1.568   0.379   0.174 -1.8528  1.9384 -1.2661
  374SOL    HW2 1495   1.508   0.414   0.304  0.6055  0.9529  1.4697
  374SOL     MW 1496   1.520   0.433   0.222 -0.6547  0.3775 -0.2650
  375SOL     OW 1497   1.044   2.079   2.290 -0.3842 -0.0658  0.8306
  375SOL    HW1 1498   1.101   2.052   2.355 -1.3498  1.5896 -1.7734
  375SOL    HW2 1499   1.065   2.028   2.214 -1.4006  1.1354  1.0255
  375SOL     MW 1500   1.054   2.069   2.289 -0.6457  0.3111  0.5127
  376SOL     OW 1501   0.624   2.577   0.062  0.2120  0.4757 -0.2837
  376SOL    HW1 1502   0.553   2.544   0.132  1.4917  0.2329 -0.0694
  376SOL    HW2 1503   0.609   2.509   0.001  1.6671  0.6085  2.9254
  376SOL     MW 1504   0.613   2.563   0.063  0.5729  0.4612  0.1680
  377SOL     OW 1505   1.302   2.008   0.840 -0.6556  0.1531  0.8025
  377SOL    HW1 1506   1.216   1.989   0.798 -0.0905 -1.3705  1.1711
  377SOL    HW2 1507   1.305   1.952   0.921  2.5120 -2.0888  0.1580
  377SOL     MW 1508   1.291   1.998   0.845 -0.1631 -0.3437  0.7661
  378SOL     OW 1509   1.016   2.806   1.636 -0.6109 -0.3583  0.2991
  378SOL    HW1 1510   0.970   2.724   1.663 -0.6533 -0.4577 -0.2282
  378SOL    HW2 1511   0.961   2.839   1.565  0.9729  2.5804 -1.4876
  378SOL     MW 1512   1.003   2.799   1.631 -0.4075  0.0163 -0.0062
  379SOL     OW 1513   1.152   1.778   2.262  0.2835 -0.1262  0.1437
  379SOL    HW1 1514   1.060   1.793   2.270 -0.2036  0.6691 -1.8977
  379SOL    HW2 1515   1.158   1.687   2.228 -2.1086 -0.5669 -0.0148
  379SOL     MW 1516   1.141   1.768   2.259 -0.0964 -0.0794 -0.1466
  380SOL     OW 1517   0.775   0.054   1.572 -0.5962 -0.1982  0.1942
  380SOL    HW1 1518   0.813   0.049   1.486 -2.1537  2.7738 -2.2534
  380SOL    HW2 1519   0.850   0.072   1.631  3.0671  0.2951 -1.6460
  380SOL     MW 1520   0.790   0.056   1.569 -0.3184  0.2590 -0.3715
  381SOL     OW 1521   0.821   2.049   0.764 -0.1982  0.3537 -0.2404
  381SOL    HW1 1522   0.916   2.027   0.756 -1.1730  1.0629 -1.0644
  381SOL    HW2 1523   0.833   2.130   0.812 -1.5734  1.2728 -0.7897
  381SOL     MW 1524   0.835   2.057   0.770 -0.5082  0.5685 -0.4216
  382SOL     OW 1525   0.614   0.108   0.689  0.2053  0.0331 -0.1546
  382SOL    HW1 1526   0.644   0.098   0.787  0.4758  2.3453  2.5268
  382SOL    HW2 1527   0.617   0.013   0.661  0.1573  1.3604  2.4196
  382SOL     MW 1528   0.618   0.094   0.698  0.2346  0.5133  0.5388
  383SOL     OW 1529   0.566   3.057   0.343  0.3758 -0.0303 -0.3622
  383SOL    HW1 1530   0.579   3.000   0.270 -0.9978  1.5023 -0.5308
  383SOL    HW2 1531   0.500   3.019   0.400 -0.1941  1.3830 -5.0294
  383SOL     MW 1532   0.559   3.044   0.341  0.1194  0.3584 -1.0002
  384SOL     OW 1533   0.617   2.950   0.631  0.5818 -0.1060 -0.5561
  384SOL    HW1 1534   0.677   2.901   0.686 -0.5617 -2.0698  1.0537
  384SOL    HW2 1535   0.537   2.904   0.649  0.8113 -2.0248  0.1386
  384SOL     MW 1536   0.615   2.937   0.641  0.4612 -0.6183 -0.2521
  385SOL     OW 1537   1.334   2.085   1.508  0.1561  0.3807  0.5168
  385SOL    HW1 1538   1.404   2.093   1.578  1.8843  1.8717  1.0555
  385SOL    HW2 1539   1.275   2.025   1.552  0.1686  1.7318 -1.2257
  385SOL     MW 1540   1.335   2.078   1.523  0.3858  0.7557  0.3580
  386SOL     OW 1541   1.296   0.363   0.834  0.0802 -0.3366  0.4197
  386SOL    HW1 1542   1.231   0.416   0.882 -0.4948  3.2033  0.4062
  386SOL    HW2 1543   1.317   0.301   0.899  0.8150  2.6906  4.0214
  386SOL     MW 1544   1.290   0.362   0.849  0.1013  0.5298  0.8931
  387SOL     OW 1545   0.877   2.164   1.484 -0.4984  0.1791  0.0627
  387SOL    HW1 1546   0.938   2.227   1.446  0.5104 -0.1236  0.9791
  387SOL    HW2 1547   0.873   2.092   1.422  0.8829  1.0685  2.1562
  387SOL     MW 1548   0.884   2.163   1.471 -0.1830  0.2565  0.4598
  388SOL     OW 1549   1.568   2.814   1.220 -0.1839 -0.1915  0.7632
  388SOL    HW1 1550   1.481   2.783   1.196  0.8328  2.5011  0.1517
  388SOL    HW2 1551   1.628   2.754   1.183 -0.5717  0.1010  2.2481
  388SOL     MW 1552   1.564   2.802   1.212 -0.1009  0.2024  0.8784
  389SOL     OW 1553   0.462   0.047   3.036  0.4531  0.2350  0.3669
  389SOL    HW1 1554   0.555   0.070   3.002 -0.3915 -2.1408 -1.0755
  389SOL    HW2 1555   0.416   0.046   2.952 -3.5755  0.5443  0.0852
  389SOL     MW 1556   0.468   0.050   3.021 -0.1899 -0.0377  0.1394
  390SOL     OW 1557   1.284   0.098   0.649 -0.3016 -0.0910  0.2648
  390SOL    HW1 1558   1.352   0.108   0.586  0.1060 -1.7910  0.8387
  390SOL    HW2 1559   1.330   0.107   0.736  1.2068  0.2107 -1.7297
  390SOL     MW 1560   1.299   0.101   0.652 -0.0488 -0.2755  0.0774
  391SOL     OW 1561   0.309   2.196   1.386  0.1036 -0.3110  0.4490
  391SOL    HW1 1562   0.273   2.100   1.407  1.1553 -1.4934 -1.2612
  391SOL    HW2 1563   0.236   2.257   1.361 -2.0839 -1.8706 -0.3529
  391SOL     MW 1564   0.295   2.191   1.386 -0.0462 -0.6728  0.1175
  392SOL     OW 1565   2.049   2.186   0.368  0.3627 -0.3733 -0.4408
  392SOL    HW1 1566   2.110   2.142   0.426  1.6601  2.3065  1.8668
  392SOL    HW2 1567   2.009   2.252   0.419  1.1046 -1.6359 -1.1337
  392SOL     MW 1568   2.052   2.189   0.382  0.6318 -0.1863 -0.2278
  393SOL     OW 1569   0.147   3.054   2.745 -0.2469 -0.6057  0.1047
  393SOL    HW1 1570   0.239   3.071   2.751  1.6427 -0.0232  0.0850
  393SOL    HW2 1571   0.109   3.138   2.777  3.1563 -0.5626  0.1074
  393SOL     MW 1572   0.154   3.067   2.750  0.4514 -0.5232  0.1025
  394SOL     OW 1573   0.915   1.737   1.530 -0.5308  0.1439  0.5908
  394SOL    HW1 1574   0.872   1.760   1.613  0.2765 -0.8413 -1.3357
  394SOL    HW2 1575   0.913   1.808   1.469  0.8027 -0.6305 -0.8079
  394SOL     MW 1576   0.909   1.749   1.533 -0.2483 -0.0882  0.1521
  395SOL     OW 1577   1.036   2.801   2.591 -0.2689  0.0116  0.1166
  395SOL    HW1 1578   1.091   2.856   2.542  1.0563 -1.5695  1.0342
  395SOL    HW2 1579   1.062   2.713   2.573 -0.5134  1.1919 -0.8267
  395SOL     MW 1580   1.046   2.797   2.582 -0.1263 -0.0413  0.1132
  396SOL     OW 1581   0.759   1.866   2.394 -0.7932 -0.1406 -0.0888
  396SOL    HW1 1582   0.826   1.866   2.467 -1.6478  1.2687  0.5087
  396SOL    HW2 1583   0.753   1.772   2.364 -1.0187 -2.1832 -2.4147
  396SOL     MW 1584   0.767   1.854   2.400 -0.9357 -0.2241 -0.3169
  397SOL     OW 1585   1.006   2.322   1.247  0.1484 -0.1831 -0.1134
  397SOL    HW1 1586   1.060   2.367   1.174 -2.1729  0.4565 -0.1780
  397SOL    HW2 1587   1.074   2.307   1.318  1.3998  0.9458 -0.9196
  397SOL     MW 1588   1.022   2.326   1.247  0.0072  0.0502 -0.2283
  398SOL     OW 1589   0.535   2.680   0.724 -0.2532 -0.2327  0.1999
  398SOL    HW1 1590   0.445   2.649   0.696  1.3272 -1.5152 -0.4384
  398SOL    HW2 1591   0.603   2.621   0.681  0.5574 -0.2823 -1.5114
  398SOL     MW 1592   0.532   2.668   0.715  0.0623 -0.4084 -0.1101
  399SOL     OW 1593   0.244   2.088   0.382 -0.1283 -0.0317 -0.1201
  399SOL    HW1 1594   0.175   2.151   0.391 -3.3599 -1.7627  0.6772
  399SOL    HW2 1595   0.302   2.121   0.312  4.9498 -0.2549 -0.2947
  399SOL     MW 1596   0.242   2.101   0.374  0.1154 -0.2896 -0.0380
  400SOL     OW 1597   0.549   1.901   0.172  0.1397  0.1943  0.3965
  400SOL    HW1 1598   0.506   1.983   0.202 -3.6294 -0.7585  2.0284
  400SOL    HW2 1599   0.534   1.823   0.230 -0.4018 -1.1198 -2.2011
  400SOL     MW 1600   0.542   1.902   0.183 -0.4291 -0.1048  0.2691
  401SOL     OW 1601   0.767   2.010   0.119 -0.4667 -0.4943  0.2154
  401SOL    HW1 1602   0.830   1.937   0.100  1.9589 -1.4803 -2.8908
  401SOL    HW2 1603   0.681   1.959   0.148 -1.9455 -0.3698 -2.7035
  401SOL     MW 1604   0.764   1.993   0.120 -0.3418 -0.6080 -0.5796
  402SOL     OW 1605   0.622   3.020   1.742  0.1024 -0.1152  0.6063
  402SOL    HW1 1606   0.692   2.991   1.800  0.2988  2.2148 -1.1712
  402SOL    HW2 1607   0.663   3.097   1.694 -2.7358 -1.1258 -2.3765
  402SOL     MW 1608   0.637   3.026   1.744 -0.2462  0.0589 -0.0218
  403SOL     OW 1609   0.104   0.418   0.372  0.1982  0.0205  0.2864
  403SOL    HW1 1610   0.171   0.446   0.432  3.0889  1.0928 -1.4415
  403SOL    HW2 1611   0.153   0.395   0.292  0.7890  1.8209  0.4432
  403SOL     MW 1612   0.119   0.418   0.369  0.6575  0.3996  0.0791
  404SOL     OW 1613   0.877   2.861   0.707  0.0363  0.4891 -0.4087
  404SOL    HW1 1614   0.939   2.807   0.656 -0.3149  2.5447 -0.8329
  404SOL    HW2 1615   0.895   2.952   0.681  3.0452  0.2637  1.8091
  404SOL     MW 1616   0.887   2.866   0.697  0.3869  0.7306 -0.1721
  405SOL     OW 1617   0.512   2.382   1.475  0.1972 -0.1506  0.0257
  405SOL    HW1 1618   0.489   2.468   1.435 -0.5544 -2.6535 -1.8710
  405SOL    HW2 1619   0.457   2.319   1.436  3.1586  0.6081 -0.4799
  405SOL     MW 1620   0.502   2.385   1.465  0.4888 -0.3807 -0.2912
  406SOL     OW 1621   0.389   2.377   1.067 -0.0466 -0.3068 -0.6400
  406SOL    HW1 1622   0.293   2.384   1.076  1.3999 -1.2547 -2.3629
  406SOL    HW2 1623   0.409   2.297   1.115 -0.9113 -1.6265 -0.0750
  406SOL     MW 1624   0.379   2.368   1.074  0.0302 -0.6060 -0.7928
  407SOL     OW 1625   3.044   2.710   1.140  0.5398 -0.1369 -0.0372
  407SOL    HW1 1626   3.112   2.709   1.213  0.6059 -0.0903 -0.7658
  407SOL    HW2 1627   3.101   2.703   1.061 -0.3584 -0.1530  1.3123
  407SOL     MW 1628   3.061   2.709   1.139  0.4300 -0.1329  0.0447
  408SOL     OW 1629   2.124   2.074   0.789  0.3573  0.0689 -0.0297
  408SOL    HW1 1630   2.086   2.154   0.816  1.8433  0.5642 -0.7297
  408SOL    HW2 1631   2.045   2.027   0.757 -2.1708  1.3331 -2.4158
  408SOL     MW 1632   2.109   2.078   0.788  0.2198  0.3010 -0.4369
  409SOL     OW 1633   1.423   0.124   0.889  0.2877  0.3969 -0.2188
  409SOL    HW1 1634   1.504   0.170   0.893  0.2552  0.5400 -0.9498
  409SOL    HW2 1635   1.423   0.081   0.972  2.1118 -0.3928 -1.7559
  409SOL     MW 1636   1.434   0.125   0.900  0.5241  0.3116 -0.5180
  410SOL     OW 1637   1.121   2.462   1.039 -0.3121  0.0222  0.5427
  410SOL    HW1 1638   1.076   2.508   0.971 -1.0598  1.3707  0.2032
  410SOL    HW2 1639   1.187   2.405   0.992 -2.3612 -1.6110 -0.7093
  410SOL     MW 1640   1.124   2.461   1.024 -0.6811 -0.0154  0.3327
  411SOL     OW 1641   1.971   0.034   2.869 -0.2597  0.4062  0.4861
  411SOL    HW1 1642   1.913  -0.032   2.837  4.4760  0.1301 -0.5316
  411SOL    HW2 1643   1.915   0.087   2.926 -0.1917 -1.7069  0.7764
  411SOL     MW 1644   1.956   0.032   2.872  0.3741  0.0910  0.3901
  412SOL     OW 1645   0.987   2.259   0.631  0.4736 -0.2441 -0.6520
  412SOL    HW1 1646   1.050   2.329   0.644  0.8409  1.6499 -0.2403
  412SOL    HW2 1647   0.922   2.315   0.577 -2.8173 -5.0785  0.4394
  412SOL     MW 1648   0.987   2.275   0.625  0.0879 -0.6321 -0.4537
  413SOL     OW 1649   0.521   2.802   3.061  0.0558  0.1986 -0.1175
  413SOL    HW1 1650   0.554   2.712   3.091  1.1445 -1.1482  2.3733
  413SOL    HW2 1651   0.571   2.814   2.985 -1.0671  2.9693 -2.4306
  413SOL     MW 1652   0.532   2.791   3.055  0.0513  0.3865 -0.0941
  414SOL     OW 1653   1.926   2.887   1.062  0.4376 -1.1860 -0.2484
  414SOL    HW1 1654   1.893   2.907   0.974  0.9471 -0.1274  1.1834
  414SOL    HW2 1655   2.022   2.851   1.056  0.2668  0.6839 -1.6199
  414SOL     MW 1656   1.935   2.885   1.049  0.4823 -0.7996 -0.2404
  415SOL     OW 1657   1.738   2.620   1.103  0.7692  0.2471 -0.4472
  415SOL    HW1 1658   1.721   2.552   1.172  2.8806  2.1560 -0.5052
  415SOL    HW2 1659   1.792   2.676   1.157 -0.8529 -0.1419  0.1091
  415SOL     MW 1660   1.743   2.619   1.119  0.8338  0.4476 -0.3814
  416SOL     OW 1661   0.508   1.948   1.355 -0.2449 -0.0095 -0.2655
  416SOL    HW1 1662   0.496   1.986   1.267  2.0007 -1.7995 -0.5903
  416SOL    HW2 1663   0.489   1.856   1.343 -2.5990 -2.1011 -2.7158
  416SOL     MW 1664   0.504   1.941   1.342 -0.2592 -0.5216 -0.6317
  417SOL     OW 1665   1.038   3.065   2.058  0.5736  0.3854  0.8589
  417SOL    HW1 1666   0.992   3.070   2.146  1.1325 -1.1876 -2.9643
  417SOL    HW2 1667   0.971   3.031   1.988 -2.7047 -2.5318 -0.0868
  417SOL     MW 1668   1.023   3.061   2.060  0.2148 -0.2070  0.2297
  418SOL     OW 1669   0.700   2.883   0.144  0.5333  0.0572 -0.0925
  418SOL    HW1 1670   0.776   2.896   0.088  0.8937 -1.1677  0.1402
  418SOL    HW2 1671   0.633   2.843   0.080  1.3385 -0.2012 -1.4635
  418SOL     MW 1672   0.701   2.879   0.128  0.6871 -0.1385 -0.2427
  419SOL     OW 1673   0.448   2.653   1.410 -0.1988  0.1918 -0.1261
  419SOL    HW1 1674   0.497   2.719   1.467 -0.1253  2.8317  0.3910
  419SOL    HW2 1675   0.516   2.635   1.341 -0.2014  0.0968  4.4613
  419SOL     MW 1676   0.464   2.659   1.409 -0.1894  0.5276  0.5474
  420SOL     OW 1677   0.878   2.215   0.962  0.4697  0.6209 -0.3321
  420SOL    HW1 1678   0.799   2.249   1.008 -0.6384 -0.8820  1.6747
  420SOL    HW2 1679   0.940   2.280   0.967 -0.6889  0.6710 -2.6290
  420SOL     MW 1680   0.876   2.228   0.969  0.1706  0.4293 -0.3704
  421SOL     OW 1681   2.950   0.040   0.028  0.2911  0.3694  0.1731
  421SOL    HW1 1682   2.906   0.005  -0.049 -0.9736 -1.0157  1.0421
  421SOL    HW2 1683   2.971  -0.036   0.080 -1.3344  0.9394 -1.9219
  421SOL     MW 1684   2.947   0.025   0.025 -0.0903  0.2619  0.0113
  422SOL     OW 1685   0.900   2.538   0.886 -0.1438  0.8555 -0.2211
  422SOL    HW1 1686   0.842   2.605   0.923  0.2495  0.2383  0.2867
  422SOL    HW2 1687   0.842   2.501   0.813 -1.8915 -0.6332  0.6268
  422SOL     MW 1688   0.885   2.542   0.881 -0.3225  0.5776 -0.0422
  423SOL     OW 1689   1.531   0.123   0.504 -0.7851 -0.4208 -0.1695
  423SOL    HW1 1690   1.521   0.123   0.406  0.1476 -2.5108 -0.8212
  423SOL    HW2 1691   1.532   0.223   0.517 -0.2056  2.2429 -2.1041
  423SOL     MW 1692   1.529   0.136   0.493 -0.5856 -0.3451 -0.5108
  424SOL     OW 1693   0.688   2.266   1.172 -0.1622  0.0830  0.3851
  424SOL    HW1 1694   0.616   2.209   1.155  0.9701  1.5287  0.5430
  424SOL    HW2 1695   0.676   2.300   1.258  0.7976 -3.1608 -1.1769
  424SOL     MW 1696   0.677   2.263   1.181  0.1138 -0.1542  0.1998
  425SOL     OW 1697   1.720   2.833   1.977 -0.0739 -0.2047  0.4201
  425SOL    HW1 1698   1.728   2.846   1.879  1.2476  0.2375  0.9549
  425SOL    HW2 1699   1.761   2.747   1.989 -1.4040 -1.4262  1.5867
  425SOL     MW 1700   1.727   2.823   1.966 -0.0750 -0.3075  0.6446
  426SOL     OW 1701   0.809   1.689   1.947 -0.7164  0.5871  0.0867
  426SOL    HW1 1702   0.766   1.729   1.865  0.7312 -0.7693 -0.3881
  426SOL    HW2 1703   0.808   1.761   2.006  0.7491 -3.8742  0.2794
  426SOL     MW 1704   0.803   1.704   1.944 -0.3320 -0.1805  0.0495
  427SOL     OW 1705   0.372   1.613   1.898  0.1804  0.3141  0.3220
  427SOL    HW1 1706   0.445   1.564   1.864  2.7499  1.1898  3.1720
  427SOL    HW2 1707   0.324   1.555   1.958 -1.2545 -2.2524 -2.7644
  427SOL     MW 1708   0.375   1.599   1.902  0.3301  0.0910  0.2908
  428SOL     OW 1709   0.590   2.544   1.188 -0.0854  0.2680 -0.4852
  428SOL    HW1 1710   0.685   2.537   1.224  2.8907  3.6946 -0.5276
  428SOL    HW2 1711   0.552   2.460   1.158 -2.1831  2.6129  1.4146
  428SOL     MW 1712   0.597   2.532   1.189  0.0305  1.0295 -0.2401
  429SOL     OW 1713   1.336   2.726   1.111  0.1392  0.4658 -0.0001
  429SOL    HW1 1714   1.242   2.709   1.123 -1.4649  1.7283  0.4192
  429SOL    HW2 1715   1.327   2.812   1.076 -0.4120 -0.0015  1.2340
  429SOL     MW 1716   1.322   2.735   1.108 -0.1452  0.5707  0.2180
  430SOL     OW 1717   1.157   2.702   0.724 -0.2978  0.2190  0.2763
  430SOL    HW1 1718   1.176   2.611   0.698 -0.6374  0.2990  0.7568
  430SOL    HW2 1719   1.140   2.739   0.643  0.6247 -0.6827 -0.4439
  430SOL     MW 1720   1.157   2.695   0.710 -0.2209  0.1105  0.2446
  431SOL     OW 1721   0.307   1.925   1.077  0.6142  0.2967  0.1589
  431SOL    HW1 1722   0.383   1.868   1.067 -0.0866 -2.2215  2.0725
  431SOL    HW2 1723   0.269   1.952   0.988  0.5186  0.5669 -2.8286
  431SOL     MW 1724   0.312   1.921   1.064  0.5091  0.0001  0.0172
  432SOL     OW 1725   0.049   3.087   1.140 -0.2856 -0.2178  0.7484
  432SOL    HW1 1726   0.066   3.158   1.204 -1.0437  0.1603 -0.3473
  432SOL    HW2 1727  -0.026   3.031   1.161  1.5546  0.1385  3.9982
  432SOL     MW 1728   0.042   3.089   1.151 -0.1428 -0.1209  1.0326
  433SOL     OW 1729   0.615   2.842   1.526 -0.3479  0.2042  0.6012
  433SOL    HW1 1730   0.620   2.921   1.590  1.6231  0.2252 -0.3744
  433SOL    HW2 1731   0.699   2.832   1.482 -0.2953  0.9152  0.5271
  433SOL     MW 1732   0.627   2.851   1.528 -0.0809  0.3008  0.4627
  434SOL     OW 1733   1.610   2.835   1.487  0.3378  0.6397  0.1299
  434SOL    HW1 1734   1.515   2.839   1.482  1.3033 -1.3266  0.5923
  434SOL    HW2 1735   1.616   2.817   1.391 -1.7699  0.1180 -2.2919
  434SOL     MW 1736   1.598   2.833   1.474  0.1871  0.3114 -0.1286
  435SOL     OW 1737   2.805   1.818   0.223  0.7562 -0.0866  0.3137
  435SOL    HW1 1738   2.848   1.894   0.173  0.3142  1.8670  0.8164
  435SOL    HW2 1739   2.754   1.772   0.157 -3.0495  1.3958 -1.6486
  435SOL     MW 1740   2.804   1.822   0.208  0.1958  0.3668  0.1211
  436SOL     OW 1741   1.328   2.790   0.356  0.5476 -0.1581  0.6516
  436SOL    HW1 1742   1.415   2.789   0.403  1.1492 -0.3218 -0.1260
  436SOL    HW2 1743   1.279   2.872   0.393 -0.0540 -0.9610  0.4679
  436SOL     MW 1744   1.333   2.801   0.367  0.5476 -0.2857  0.5248
  437SOL     OW 1745   0.893   2.873   1.408 -0.5146  0.3979 -0.5262
  437SOL    HW1 1746   0.915   2.960   1.374  1.9867  0.6590 -0.7035
  437SOL    HW2 1747   0.913   2.815   1.333  1.6359 -2.4523  1.9728
  437SOL     MW 1748   0.899   2.877   1.394  0.0991  0.0563 -0.2199
  438SOL     OW 1749   0.855   2.653   1.902 -0.0062  0.3407  0.4828
  438SOL    HW1 1750   0.825   2.632   1.986 -1.9709 -1.4452 -0.5400
  438SOL    HW2 1751   0.803   2.595   1.847  0.2238 -2.4981  1.4718
  438SOL     MW 1752   0.844   2.643   1.906 -0.2351 -0.2695  0.4784
  439SOL     OW 1753   1.132   2.143   0.429 -0.0287  0.3174  0.2816
  439SOL    HW1 1754   1.101   2.194   0.510 -1.5015 -1.4754 -0.2070
  439SOL    HW2 1755   1.147   2.216   0.367 -0.0711  0.0243  1.7946
  439SOL     MW 1756   1.130   2.160   0.432 -0.2286  0.0422  0.4167
  440SOL     OW 1757   1.715   2.990   0.003 -0.4442  0.0772 -0.3255
  440SOL    HW1 1758   1.653   2.965   0.064  2.5691  3.8534 -0.7213
  440SOL    HW2 1759   1.792   2.941   0.038  0.3876  1.2253  1.3352
  440SOL     MW 1760   1.717   2.980   0.016  0.0631  0.7269 -0.1586
  441SOL     OW 1761   0.314   2.661   0.501 -0.5687 -0.2243  0.2219
  441SOL    HW1 1762   0.291   2.637   0.415 -0.7959 -1.6666 -1.0277
  441SOL    HW2 1763   0.351   2.754   0.496 -1.3977  0.0715 -0.4251
  441SOL     MW 1764   0.316   2.670   0.489 -0.7081 -0.3756 -0.0283
  442SOL     OW 1765   3.063   2.379   0.611  0.1640  0.1714  0.1421
  442SOL    HW1 1766   3.093   2.472   0.597 -0.1118  5.3999 -1.8626
  442SOL    HW2 1767   2.974   2.387   0.639  1.0195 -0.5673  0.8784
  442SOL     MW 1768   3.055   2.392   0.613  0.2405  0.7638 -0.0252
  443SOL     OW 1769   1.412   1.811   1.902  0.0678 -0.1046  0.3589
  443SOL    HW1 1770   1.356   1.838   1.826 -0.8483  2.1239 -0.1212
  443SOL    HW2 1771   1.398   1.721   1.920  2.2606  1.7721 -0.4044
  443SOL     MW 1772   1.403   1.803   1.895  0.2363  0.4371  0.1948
  444SOL     OW 1773   0.884   2.556   1.600 -0.0288 -0.2932 -0.2320
  444SOL    HW1 1774   0.959   2.502   1.621  1.6526  0.4532  0.3831
  444SOL    HW2 1775   0.815   2.526   1.661 -2.4332 -2.0082  1.0121
  444SOL     MW 1776   0.885   2.545   1.611 -0.1242 -0.4210  0.0133
  445SOL     OW 1777   0.905   0.045   1.312  0.1064  0.8748  0.4540
  445SOL    HW1 1778   0.894   0.141   1.312  2.1526  1.5328  2.2364
  445SOL    HW2 1779   0.990   0.020   1.272 -1.5541 -1.5089  3.7976
  445SOL     MW 1780   0.915   0.054   1.307  0.1573  0.6471  1.1303
  446SOL     OW 1781   2.714   2.877   1.071  0.3805  0.6504  0.2970
  446SOL    HW1 1782   2.666   2.912   0.995 -0.3263 -1.8876  2.0034
  446SOL    HW2 1783   2.758   2.796   1.037  0.1977  0.9656 -0.0126
  446SOL     MW 1784   2.714   2.871   1.056  0.2631  0.3571  0.4813
  447SOL     OW 1785   0.022   2.047   1.685  0.2495 -0.2800 -0.4794
  447SOL    HW1 1786   0.062   1.994   1.754  2.3146 -2.9070  0.5339
  447SOL    HW2 1787  -0.053   1.999   1.647 -2.3286  1.0370 -0.6017
  447SOL     MW 1788   0.017   2.034   1.689  0.1818 -0.4529 -0.3618
  448SOL     OW 1789   1.716   2.365   1.685 -0.4208  0.1006 -0.2061
  448SOL    HW1 1790   1.659   2.288   1.672  2.4652  2.0263 -1.2053
  448SOL    HW2 1791   1.651   2.434   1.686 -1.2873  1.0332  2.8730
  448SOL     MW 1792   1.700   2.364   1.683 -0.1543  0.4777  0.0683
  449SOL     OW 1793   0.765   2.834   0.406  0.0755 -0.1915  0.5044
  449SOL    HW1 1794   0.732   2.818   0.318 -0.4868 -0.1128  0.9303
  449SOL    HW2 1795   0.700   2.877   0.460  0.0630 -0.4345 -0.0665
  449SOL     MW 1796   0.752   2.837   0.402 -0.0004 -0.2131  0.4853
  450SOL     OW 1797   1.199   2.438   0.662  0.5341  0.0613  0.5548
  450SOL    HW1 1798   1.238   2.388   0.727 -0.3378  1.3706 -2.0364
  450SOL    HW2 1799   1.279   2.446   0.607  1.4962  1.7393 -1.5401
  450SOL     MW 1800   1.214   2.432   0.664  0.5460  0.4555 -0.0635
  451SOL     OW 1801   0.528   2.012   1.626  0.0955  0.3506  0.1536
  451SOL    HW1 1802   0.589   2.079   1.617  0.3882  1.1203 -0.2356
  451SOL    HW2 1803   0.519   1.976   1.535  1.0766  1.1372 -0.9021
  451SOL     MW 1804   0.535   2.016   1.613  0.2636  0.5559 -0.0371
  452SOL     OW 1805   0.250   2.711   0.017 -0.1501  0.0412 -0.0520
  452SOL    HW1 1806   0.332   2.738  -0.017  0.4329 -1.6762 -0.2108
  452SOL    HW2 1807   0.186   2.767  -0.033  0.4140  0.1306  3.1085
  452SOL     MW 1808   0.252   2.722   0.006  0.0012 -0.1736  0.3440
  453SOL     OW 1809   0.358   2.904   1.687 -0.0312 -0.4492 -0.4755
  453SOL    HW1 1810   0.430   2.967   1.699  2.0976 -0.9312  1.8380
  453SOL    HW2 1811   0.351   2.921   1.594  2.5806  0.0564  1.3231
  453SOL     MW 1812   0.367   2.915   1.676  0.5943 -0.4461  0.0670
  454SOL     OW 1813   0.991   2.764   1.183  0.4444  0.0842  0.1251
  454SOL    HW1 1814   0.979   2.673   1.165 -0.6377 -0.0769  0.9923
  454SOL    HW2 1815   0.922   2.806   1.125 -0.5570  1.4827 -0.3976
  454SOL     MW 1816   0.981   2.757   1.173  0.1695  0.2474  0.1706
  455SOL     OW 1817   1.584   2.913   0.225  0.3132 -0.1573  0.6455
  455SOL    HW1 1818   1.642   2.917   0.302 -1.5551  0.9613 -0.8409
  455SOL    HW2 1819   1.549   2.820   0.220  0.9922 -0.6460 -0.7093
  455SOL     MW 1820   1.587   2.901   0.234  0.1563 -0.0742  0.2706
  456SOL     OW 1821   2.839   0.317   1.356 -0.6781 -0.2250 -0.0144
  456SOL    HW1 1822   2.789   0.270   1.284  3.2574 -0.2870  1.6197
  456SOL    HW2 1823   2.916   0.352   1.308  0.2798  1.2294  0.7121
  456SOL     MW 1824   2.842   0.315   1.340 -0.0324 -0.0413  0.2970
  457SOL     OW 1825   0.954   1.556   2.915 -0.1169  0.8471 -0.1342
  457SOL    HW1 1826   0.870   1.538   2.961 -1.7528  3.6066  0.8888
  457SOL    HW2 1827   1.022   1.487   2.933 -0.3347 -1.1719 -1.9322
  457SOL     MW 1828   0.952   1.544   2.923 -0.3615  0.9448 -0.2365
  458SOL     OW 1829   1.473   1.393   0.558  1.0554  0.4271  0.0052
  458SOL    HW1 1830   1.391   1.406   0.612  0.4760 -0.1334  0.6302
  458SOL    HW2 1831   1.439   1.378   0.472 -1.7014  0.1200  0.3295
  458SOL     MW 1832   1.458   1.393   0.554  0.6152  0.3126  0.1305
  459SOL     OW 1833   1.488   0.068   0.233  0.2013 -0.2420  0.2839
  459SOL    HW1 1834   1.512  -0.025   0.245 -1.4258 -0.4921 -0.2102
  459SOL    HW2 1835   1.426   0.079   0.159 -0.6627 -1.6373  1.4025
  459SOL     MW 1836   1.483   0.057   0.224 -0.1274 -0.4591  0.3663
  460SOL     OW 1837   1.797   2.190   0.609 -0.5640  0.0477 -0.0735
  460SOL    HW1 1838   1.706   2.161   0.615 -0.8890  2.8072 -1.3818
  460SOL    HW2 1839   1.851   2.109   0.613  0.1035 -0.8927  2.2319
  460SOL     MW 1840   1.792   2.175   0.610 -0.5188  0.2877  0.0581
  461SOL     OW 1841   0.417   2.389   0.590 -0.5471 -0.3531 -0.2226
  461SOL    HW1 1842   0.399   2.469   0.541  0.4999 -1.4607 -2.6790
  461SOL    HW2 1843   0.432   2.422   0.675 -0.1800 -1.5060 -1.6988
  461SOL     MW 1844   0.417   2.404   0.595 -0.3605 -0.6513 -0.7415
  462SOL     OW 1845   0.392   0.271   1.308 -0.0753  0.0659  0.1467
  462SOL    HW1 1846   0.428   0.216   1.243 -1.2208  3.6816 -0.8895
  462SOL    HW2 1847   0.474   0.313   1.348 -0.3301  0.0716  2.0827
  462SOL     MW 1848   0.408   0.269   1.305 -0.2600  0.5437  0.2654
  463SOL     OW 1849   0.903   0.042   0.649  0.4145  0.6185 -0.3410
  463SOL    HW1 1850   0.916   0.015   0.553 -1.1289  1.5931 -2.5664
  463SOL    HW2 1851   0.816   0.084   0.642  0.3417  0.3528  0.5959
  463SOL     MW 1852   0.893   0.044   0.635  0.2012  0.7121 -0.5110
  464SOL     OW 1853   0.857   3.046   2.270  0.0893 -0.3923 -0.3666
  464SOL    HW1 1854   0.828   2.954   2.262  1.9804 -0.7683  3.7797
  464SOL    HW2 1855   0.863   3.062   2.364 -0.3926  1.3697  2.4630
  464SOL     MW 1856   0.854   3.036   2.282  0.2753 -0.2095  0.5538
  465SOL     OW 1857   0.673   0.305   0.504 -0.2048  0.1479  0.1931
  465SOL    HW1 1858   0.623   0.245   0.562  0.4379  0.9724  1.4939
  465SOL    HW2 1859   0.676   0.256   0.424  1.0715  0.2245  0.5470
  465SOL     MW 1860   0.667   0.291   0.501  0.0484  0.2668  0.4115
  466SOL     OW 1861   1.075   1.984   0.692 -0.0701 -0.0229  0.1390
  466SOL    HW1 1862   1.072   1.900   0.645 -0.0979  0.6579 -1.9846
  466SOL    HW2 1863   1.032   2.043   0.635  0.7919 -0.9523 -1.4826
  466SOL     MW 1864   1.069   1.981   0.678  0.0400 -0.0557 -0.3552
  467SOL     OW 1865   1.288   2.296   0.895 -0.1663 -0.0954  0.0515
  467SOL    HW1 1866   1.381   2.305   0.890 -0.8401  3.8663  1.4323
  467SOL    HW2 1867   1.275   2.202   0.904  0.4890 -0.4502 -0.2635
  467SOL     MW 1868   1.299   2.285   0.895 -0.1688  0.3805  0.1922
  468SOL     OW 1869   0.379   2.603   1.963  0.3519  0.2158  0.3151
  468SOL    HW1 1870   0.389   2.544   1.887 -0.6449  1.9434  0.3906
  468SOL    HW2 1871   0.333   2.685   1.946  0.2530  0.5022  0.8956
  468SOL     MW 1872   0.374   2.606   1.951  0.2073  0.4815  0.4017
  469SOL     OW 1873   0.373   2.164   1.804  0.2985  0.4901 -0.0014
  469SOL    HW1 1874   0.312   2.098   1.845 -1.7822 -0.0331  1.0975
  469SOL    HW2 1875   0.416   2.112   1.736  0.5559  0.9302 -0.9074
  469SOL     MW 1876   0.371   2.148   1.801  0.0579  0.4791  0.0241
  470SOL     OW 1877   3.033   2.541   0.105  0.3603  0.5166 -0.0378
  470SOL    HW1 1878   2.964   2.500   0.162  2.0280 -0.3394 -0.8426
  470SOL    HW2 1879   2.990   2.583   0.031 -3.1571 -0.9655  1.3690
  470SOL     MW 1880   3.018   2.541   0.103  0.1163  0.2081  0.0416
  471SOL     OW 1881   1.172   2.746   1.418 -0.2185  0.0839  0.1056
  471SOL    HW1 1882   1.133   2.762   1.504 -1.2453 -0.1875 -0.0586
  471SOL    HW2 1883   1.097   2.727   1.357  0.7078 -2.4447 -0.9129
  471SOL     MW 1884   1.157   2.746   1.421 -0.2317 -0.2855 -0.0504
  472SOL     OW 1885   2.946   2.102   0.416  0.2413  0.3453  0.0326
  472SOL    HW1 1886   2.941   2.081   0.318 -2.7461 -0.2873 -1.4550
  472SOL    HW2 1887   2.910   2.021   0.457  0.7769 -1.0878 -0.6537
  472SOL     MW 1888   2.941   2.089   0.408 -0.0822  0.0727 -0.2542
  473SOL     OW 1889   0.835   2.523   1.298  0.6484  0.2717  0.1091
  473SOL    HW1 1890   0.886   2.442   1.274  0.1039  0.6102  2.1188
  473SOL    HW2 1891   0.841   2.535   1.396 -1.4498 -1.7364  0.5612
  473SOL     MW 1892   0.842   2.514   1.308  0.2997  0.0514  0.4339
  474SOL     OW 1893   0.799   2.175   1.746  0.9482 -0.4530  0.0439
  474SOL    HW1 1894   0.889   2.208   1.780  0.4682  2.5649  3.1206
  474SOL    HW2 1895   0.826   2.172   1.655  0.5860  2.7252  2.8852
  474SOL     MW 1896   0.814   2.179   1.738  0.8371  0.3645  0.8247
  475SOL     OW 1897   1.610   3.097   1.458 -0.0353 -0.1583  0.2931
  475SOL    HW1 1898   1.525   3.131   1.436  2.0580 -1.7853 -0.2640
  475SOL    HW2 1899   1.603   3.004   1.463 -0.1837  0.2829  3.5486
  475SOL     MW 1900   1.597   3.089   1.455  0.2214 -0.3147  0.6491
  476SOL     OW 1901   1.474   2.605   0.874 -0.2459  0.2689  0.0006
  476SOL    HW1 1902   1.398   2.625   0.922 -3.9193 -1.4365 -0.4083
  476SOL    HW2 1903   1.513   2.694   0.853  0.1751  0.5350 -0.5506
  476SOL     MW 1904   1.469   2.620   0.878 -0.6750  0.0790 -0.1260
  477SOL     OW 1905   0.756   2.538   0.635 -0.0226 -0.4326 -0.1238
  477SOL    HW1 1906   0.803   2.590   0.572 -1.3115 -3.2138  0.9225
  477SOL    HW2 1907   0.741   2.462   0.578 -0.7057 -0.3377 -1.7175
  477SOL     MW 1908   0.760   2.535   0.619 -0.2828 -0.7870 -0.1960
  478SOL     OW 1909   0.097   2.692   0.917  0.5131 -0.2462  0.6447
  478SOL    HW1 1910   0.152   2.766   0.942 -1.3516  5.1235 -2.1439
  478SOL    HW2 1911   0.160   2.630   0.860 -0.0403 -0.1898 -0.5285
  478SOL     MW 1912   0.113   2.693   0.913  0.1940  0.4697  0.1220
  479SOL     OW 1913   1.408   1.942   1.290 -0.0070  0.6190  0.0426
  479SOL    HW1 1914   1.381   1.991   1.370  2.1104  0.6971 -2.6948
  479SOL    HW2 1915   1.480   1.891   1.322  0.9662 -0.2574  1.7955
  479SOL     MW 1916   1.414   1.942   1.305  0.4008  0.5137 -0.0873
  480SOL     OW 1917   1.894   2.342   1.366 -0.1618 -0.1265 -0.2269
  480SOL    HW1 1918   1.927   2.263   1.409 -1.2361 -1.0039 -0.6663
  480SOL    HW2 1919   1.953   2.367   1.289  1.4337 -0.8605 -2.0091
  480SOL     MW 1920   1.906   2.335   1.361 -0.0931 -0.3391 -0.5200
  481SOL     OW 1921   1.204  -0.003   1.137 -0.8962 -0.5928 -0.4054
  481SOL    HW1 1922   1.178  -0.048   1.057 -1.8099 -0.4781 -0.8370
  481SOL    HW2 1923   1.174   0.094   1.131  3.2717  0.7036 -1.0792
  481SOL     MW 1924   1.196   0.004   1.125 -0.4668 -0.4066 -0.5513
  482SOL     OW 1925   0.928   3.060   0.400  0.2293  0.1370 -0.5987
  482SOL    HW1 1926   0.855   2.993   0.403 -1.2330 -0.7792 -0.2125
  482SOL    HW2 1927   0.891   3.140   0.358 -0.6755  0.6606 -1.4277
  482SOL     MW 1928   0.913   3.062   0.395 -0.0830  0.0852 -0.6571
  483SOL     OW 1929   0.368   2.930   0.466 -0.5127 -0.2013 -0.3006
  483SOL    HW1 1930   0.282   2.909   0.424  1.6852 -1.1492  1.0549
  483SOL    HW2 1931   0.348   2.993   0.539  0.8079  0.1019  0.8294
  483SOL     MW 1932   0.354   2.936   0.470 -0.0485 -0.2864  0.0274
  484SOL     OW 1933   1.679   1.822   1.379  0.3990 -0.2300  0.0916
  484SOL    HW1 1934   1.730   1.899   1.409  1.2481 -1.2817  1.5630
  484SOL    HW2 1935   1.665   1.764   1.455  1.6836 -1.5245  0.7826
  484SOL     MW 1936   1.684   1.824   1.393  0.6805 -0.5396  0.3769
  485SOL     OW 1937   0.534   2.420   0.305  0.0354  0.2000  0.1945
  485SOL    HW1 1938   0.569   2.400   0.386 -2.1685  0.7202  1.5477
  485SOL    HW2 1939   0.461   2.485   0.311  1.7761  3.2936  1.3821
  485SOL     MW 1940   0.529   2.426   0.316 -0.0258  0.6768  0.5297
  486SOL     OW 1941   0.129   2.416   1.389 -0.3623  0.0147  0.3790
  486SOL    HW1 1942   0.136   2.505   1.359 -0.3864 -0.6624  1.3423
  486SOL    HW2 1943   0.115   2.443   1.482  3.7414  1.8434 -0.5486
  486SOL     MW 1944   0.128   2.431   1.397  0.1760  0.1667  0.3837
  487SOL     OW 1945   1.276   1.577   1.069 -0.2271 -0.1627 -0.0316
  487SOL    HW1 1946   1.242   1.669   1.078  0.1141  1.2895 -1.1044
  487SOL    HW2 1947   1.344   1.580   1.009  2.4387  0.5084  0.6953
  487SOL     MW 1948   1.281   1.589   1.062  0.1696  0.1175 -0.0772
  488SOL     OW 1949   1.666   1.862   0.544  0.3454  0.2266  0.0153
  488SOL    HW1 1950   1.759   1.893   0.527  0.7590 -1.8630 -2.1142
  488SOL    HW2 1951   1.608   1.935   0.531  0.7242  1.4903  4.5345
  488SOL     MW 1952   1.670   1.876   0.540  0.4500  0.1176  0.3306
  489SOL     OW 1953   0.690   0.768   0.591 -0.2842 -0.3130 -0.0644
  489SOL    HW1 1954   0.721   0.681   0.579 -0.3388 -0.5622 -2.8862
  489SOL    HW2 1955   0.678   0.770   0.685  1.2879  1.1782 -0.7569
  489SOL     MW 1956   0.692   0.757   0.602 -0.0840 -0.1491 -0.5281
  490SOL     OW 1957   1.406   2.093   0.448  1.0167 -0.3532 -0.4140
  490SOL    HW1 1958   1.461   2.163   0.419 -0.2858  1.1111 -1.5031
  490SOL    HW2 1959   1.310   2.112   0.432  0.6273 -1.1096  0.1027
  490SOL     MW 1960   1.401   2.105   0.442  0.7935 -0.2598 -0.4895
  491SOL     OW 1961   1.195   3.002   0.476 -0.1107 -0.1552  0.2930
  491SOL    HW1 1962   1.228   3.064   0.542  0.3088  2.1136 -4.8993
  491SOL    HW2 1963   1.110   3.043   0.450  1.3993 -2.1968  0.4474
  491SOL     MW 1964   1.188   3.016   0.481  0.1439 -0.1252 -0.3717
  492SOL     OW 1965   1.525   2.106   0.670  0.7607 -0.5137 -0.4505
  492SOL    HW1 1966   1.467   2.101   0.595  0.4821  0.1070 -1.5129
  492SOL    HW2 1967   1.476   2.073   0.744 -4.3862  0.1590 -2.0840
  492SOL     MW 1968   1.511   2.101   0.670  0.0448 -0.3431 -0.8062
  493SOL     OW 1969   0.118   2.918   0.355  0.0446  0.1294 -0.2453
  493SOL    HW1 1970   0.097   2.991   0.415  2.8839 -0.3174  0.2446
  493SOL    HW2 1971   0.159   2.949   0.275 -0.5327 -1.7922  1.0285
  493SOL     MW 1972   0.121   2.931   0.353  0.3431 -0.1831 -0.0126
  494SOL     OW 1973   0.386   2.436   1.740 -0.4604  0.3728  0.0237
  494SOL    HW1 1974   0.396   2.343   1.780  2.8418 -0.6468  0.3770
  494SOL    HW2 1975   0.420   2.427   1.652 -1.9051 -0.4073 -2.9929
  494SOL     MW 1976   0.392   2.422   1.734 -0.2153  0.1353 -0.3277
  495SOL     OW 1977   2.904   1.697   2.714  0.1716  0.3479 -0.1657
  495SOL    HW1 1978   2.900   1.785   2.756  0.3105  0.6283 -0.0929
  495SOL    HW2 1979   2.916   1.628   2.785 -1.1588 -2.1106  0.1349
  495SOL     MW 1980   2.905   1.699   2.729  0.0144  0.0605 -0.1165
  496SOL     OW 1981   2.872   2.310   2.654 -0.2165  0.6520  0.5639
  496SOL    HW1 1982   2.927   2.231   2.668  1.5504  2.2295 -0.4716
  496SOL    HW2 1983   2.952   2.369   2.656 -0.0082 -1.9990 -0.4608
  496SOL     MW 1984   2.890   2.307   2.656  0.0441  0.5103  0.2920
  497SOL     OW 1985   1.555   2.283   2.595  0.2157  0.1884  0.3144
  497SOL    HW1 1986   1.562   2.251   2.504 -1.3031 -0.5703  1.0762
  497SOL    HW2 1987   1.538   2.209   2.651  2.2425 -0.1956  3.4810
  497SOL     MW 1988   1.554   2.269   2.590  0.2827  0.0376  0.8327
  498SOL     OW 1989   1.554   2.717   2.326 -0.2018  0.4916  0.4217
  498SOL    HW1 1990   1.542   2.630   2.276 -0.6573 -0.8036  2.9336
  498SOL    HW2 1991   1.612   2.677   2.393  2.9271 -2.6697  0.7841
  498SOL     MW 1992   1.560   2.700   2.328  0.1510 -0.0964  0.8009
  499SOL     OW 1993   0.895   0.152   0.031  0.0461 -0.7757 -0.2573
  499SOL    HW1 1994   0.820   0.145   0.091  0.1506 -1.1864  2.8232
  499SOL    HW2 1995   0.928   0.057   0.022 -0.1179  0.5548  0.5338
  499SOL     MW 1996   0.890   0.138   0.038  0.0383 -0.6543  0.2535
  500SOL     OW 1997   1.047   2.434   2.788  0.7801  0.2453  0.0437
  500SOL    HW1 1998   1.099   2.417   2.866  0.5391 -0.8386 -0.7579
  500SOL    HW2 1999   1.002   2.521   2.801  0.9317 -0.7661 -1.2850
  500SOL     MW 2000   1.048   2.443   2.800  0.7683 -0.0312 -0.2373
  501SOL     OW 2001   1.734   2.296   3.088 -0.4317  0.5987  0.3125
  501SOL    HW1 2002   1.705   2.377   3.124 -0.2673 -0.7096  1.0369
  501SOL    HW2 2003   1.829   2.290   3.089 -2.8669 -1.3257 -1.8698
  501SOL     MW 2004   1.743   2.306   3.093 -0.7313  0.1722  0.1201
  502SOL     OW 2005   0.069   2.876   2.980  0.2611 -0.1092 -0.8761
  502SOL    HW1 2006   0.012   2.800   2.954 -0.4562 -0.2373 -2.2202
  502SOL    HW2 2007   0.080   2.925   2.898  2.0770  0.2310 -2.2639
  502SOL     MW 2008   0.063   2.872   2.965  0.4061 -0.0812 -1.2366
  503SOL     OW 2009   1.174   2.609   1.992 -0.1841  0.5219 -0.5662
  503SOL    HW1 2010   1.249   2.638   1.946 -0.6147 -2.2018  2.2178
  503SOL    HW2 2011   1.106   2.636   1.931 -1.0738 -0.7785  1.4898
  503SOL     MW 2012   1.175   2.617   1.978 -0.3583 -0.0090  0.0724
  504SOL     OW 2013   0.094   2.609   2.072 -0.5655  0.4411  0.0989
  504SOL    HW1 2014   0.180   2.566   2.073  1.3365 -0.6836  3.5558
  504SOL    HW2 2015   0.028   2.538   2.069 -0.1909 -1.1646  0.2325
  504SOL     MW 2016   0.097   2.594   2.072 -0.2651  0.0809  0.5726
  505SOL     OW 2017   1.654   2.663   2.756  0.2143 -0.3387  0.3523
  505SOL    HW1 2018   1.669   2.667   2.663 -0.5307  0.3309  0.2740
  505SOL    HW2 2019   1.616   2.747   2.785 -1.1685 -0.6455  0.9893
  505SOL     MW 2020   1.651   2.675   2.747 -0.0665 -0.2908  0.4260
  506SOL     OW 2021   1.631   0.009   2.875  0.2576 -0.3341  0.3592
  506SOL    HW1 2022   1.647  -0.033   2.962  0.3511 -1.9093 -1.8446
  506SOL    HW2 2023   1.681  -0.045   2.802  1.9269 -0.3415 -1.4149
  506SOL     MW 2024   1.639  -0.004   2.877  0.4901 -0.5429 -0.1657
  507SOL     OW 2025   0.944   2.701   2.840 -0.0739  0.6443  0.0263
  507SOL    HW1 2026   1.001   2.736   2.776  0.8835 -1.6590  1.1974
  507SOL    HW2 2027   0.862   2.745   2.825 -0.3737  0.4421 -1.4702
  507SOL     MW 2028   0.941   2.711   2.830  0.0129  0.3137 -0.0166
  508SOL     OW 2029   1.251   2.114   2.513 -0.0539  0.1563 -0.1061
  508SOL    HW1 2030   1.296   2.108   2.605 -0.1344 -1.0597  0.3316
  508SOL    HW2 2031   1.164   2.143   2.537  2.4772 -3.0733 -2.7942
  508SOL     MW 2032   1.246   2.117   2.528  0.2695 -0.4302 -0.4030
  509SOL     OW 2033   0.670   2.601   2.800 -0.3864 -0.2137  0.3701
  509SOL    HW1 2034   0.669   2.532   2.733 -3.4505 -0.4937 -4.6865
  509SOL    HW2 2035   0.583   2.644   2.790 -0.5030 -1.9068 -0.3466
  509SOL     MW 2036   0.658   2.597   2.790 -0.8061 -0.4740 -0.3917
  510SOL     OW 2037   1.550   2.601   1.642 -0.9195 -0.1662  0.1615
  510SOL    HW1 2038   1.601   2.676   1.601  2.6907  2.3486  1.0316
  510SOL    HW2 2039   1.506   2.634   1.725 -1.2143 -0.0736 -4.2715
  510SOL     MW 2040   1.551   2.615   1.648 -0.4821  0.1778 -0.3086
  511SOL     OW 2041   0.423   2.613   2.468 -0.2176  0.5400 -0.2820
  511SOL    HW1 2042   0.501   2.561   2.493  2.1877 -2.7589  1.9771
  511SOL    HW2 2043   0.445   2.673   2.399 -1.2951 -0.9518  1.4367
  511SOL     MW 2044   0.436   2.614   2.462 -0.0424 -0.0921  0.2428
  512SOL     OW 2045   0.982   2.039   2.831 -0.2755 -0.2584 -0.3926
  512SOL    HW1 2046   0.905   2.090   2.875  0.8221 -1.1492  1.5497
  512SOL    HW2 2047   0.988   1.956   2.877  0.4696  1.1106 -0.3219
  512SOL     MW 2048   0.973   2.035   2.843 -0.0324 -0.1953 -0.1270
  513SOL     OW 2049   1.638   2.453   2.205  0.3079  0.5814  0.1944
  513SOL    HW1 2050   1.706   2.504   2.163  0.2884 -0.6280  0.7432
  513SOL    HW2 2051   1.669   2.392   2.273 -1.0884 -0.6292 -1.2321
  513SOL     MW 2052   1.651   2.452   2.208  0.1211  0.2621  0.0786
  514SOL     OW 2053   0.238   2.481   2.621 -0.0693  0.1083  0.0008
  514SOL    HW1 2054   0.292   2.512   2.552 -2.2755  1.4189 -1.7814
  514SOL    HW2 2055   0.300   2.457   2.691 -1.4551  2.6634 -3.5942
  514SOL     MW 2056   0.253   2.482   2.621 -0.5432  0.6184 -0.7086
  515SOL     OW 2057   1.110   2.013   1.982  0.5538  0.0497  0.2511
  515SOL    HW1 2058   1.073   2.091   1.942 -2.0062  0.4659  2.9709
  515SOL    HW2 2059   1.194   2.039   2.006 -0.0048  0.9723 -0.2623
  515SOL     MW 2060   1.116   2.027   1.980  0.1423  0.2263  0.5422
  516SOL     OW 2061   1.447   2.448   3.053  0.2554  0.2918  0.1191
  516SOL    HW1 2062   1.468   2.470   2.960 -0.5395  1.0284  0.1575
  516SOL    HW2 2063   1.352   2.454   3.062  0.8899 -0.0233  0.6724
  516SOL     MW 2064   1.438   2.452   3.042  0.2343  0.3474  0.1972
  517SOL     OW 2065   0.553   2.416   2.246 -0.0250  0.6151 -0.0254
  517SOL    HW1 2066   0.484   2.461   2.290 -0.2282  0.6914  2.0638
  517SOL    HW2 2067   0.521   2.352   2.171  1.2225 -2.7895  0.3050
  517SOL     MW 2068   0.540   2.414   2.242  0.1128  0.1759  0.2939
  518SOL     OW 2069   1.824   0.131   3.093 -0.8808  0.7004 -1.1230
  518SOL    HW1 2070   1.783   0.174   3.169 -0.4343  0.6049 -1.4110
  518SOL    HW2 2071   1.795   0.040   3.100  1.4788  0.0657 -0.9462
  518SOL     MW 2072   1.815   0.125   3.104 -0.5106  0.6040 -1.1377
  519SOL     OW 2073   0.684   2.470   1.779  0.2978 -0.8008 -0.1831
  519SOL    HW1 2074   0.682   2.375   1.793  0.6314  0.5799  0.1415
  519SOL    HW2 2075   0.598   2.482   1.733 -0.0971 -2.2429  0.2899
  519SOL     MW 2076   0.672   2.459   1.775  0.2897 -0.8089 -0.0779
  520SOL     OW 2077   1.164   2.169   2.965 -0.3121  0.2301  0.4182
  520SOL    HW1 2078   1.098   2.121   2.910  2.3166 -1.0292 -2.0358
  520SOL    HW2 2079   1.183   2.110   3.038  1.0440  1.5670 -0.1664
  520SOL     MW 2080   1.158   2.155   2.968  0.2137  0.2403  0.0173
  521SOL     OW 2081   1.746   1.997   2.183 -0.3703  0.5397 -0.2988
  521SOL    HW1 2082   1.788   2.029   2.108  1.9093  0.7412  1.2384
  521SOL    HW2 2083   1.744   1.899   2.187  0.0764  0.6693  1.8769
  521SOL     MW 2084   1.751   1.988   2.174 -0.0106  0.5834  0.1911
  522SOL     OW 2085   2.949   2.503   2.263 -0.2641  0.2394 -0.0454
  522SOL    HW1 2086   3.031   2.450   2.288  1.4552  0.2717 -0.0843
  522SOL    HW2 2087   2.991   2.590   2.272  0.9969 -3.9231 -2.7988
  522SOL     MW 2088   2.966   2.508   2.267  0.1292 -0.3055 -0.4138
  523SOL     OW 2089   0.917   1.504   2.122  0.3070  0.2589 -0.0046
  523SOL    HW1 2090   0.887   1.570   2.059  2.3783 -0.8420  2.2379
  523SOL    HW2 2091   0.973   1.452   2.069  2.0258 -0.3348  1.4564
  523SOL     MW 2092   0.920   1.506   2.107  0.8070  0.0353  0.4840
  524SOL     OW 2093   0.597   2.386   2.984  0.2094 -0.2174 -0.0999
  524SOL    HW1 2094   0.629   2.442   2.918 -1.4026 -0.9507 -0.7603
  524SOL    HW2 2095   0.658   2.313   3.009  1.3453 -0.9947 -0.3775
  524SOL     MW 2096   0.610   2.384   2.979  0.1466 -0.4167 -0.2236
  525SOL     OW 2097   0.433   2.254   2.078 -0.8083  0.7980 -0.7823
  525SOL    HW1 2098   0.379   2.195   2.143 -0.4750 -0.4230 -2.3411
  525SOL    HW2 2099   0.483   2.195   2.026  1.9252 -1.4352 -0.5914
  525SOL     MW 2100   0.432   2.238   2.080 -0.4037  0.3422 -0.9628
  526SOL     OW 2101   0.672   2.090   2.000 -0.2344 -0.5496 -0.4625
  526SOL    HW1 2102   0.709   2.118   1.912 -1.9597 -1.9579  1.8024
  526SOL    HW2 2103   0.710   2.151   2.062 -2.2541  0.7758  1.4029
  526SOL     MW 2104   0.682   2.102   1.996 -0.7285 -0.5605  0.0824
  527SOL     OW 2105   1.358   2.014   2.096  0.4670 -0.4485 -0.4432
  527SOL    HW1 2106   1.367   1.992   2.188  1.5143  1.2639  1.8762
  527SOL    HW2 2107   1.372   1.929   2.050  4.3961 -0.2013  0.8750
  527SOL     MW 2108   1.361   2.000   2.102  1.1236 -0.1899  0.0367
  528SOL     OW 2109   0.720   2.930   2.890  0.3595 -0.3149 -0.5770
  528SOL    HW1 2110   0.691   3.020   2.920 -0.1024  1.5659  1.1987
  528SOL    HW2 2111   0.678   2.907   2.803 -1.6208 -0.9309 -0.9862
  528SOL     MW 2112   0.710   2.939   2.883  0.0373 -0.1480 -0.3967
  529SOL     OW 2113   1.037   2.283   1.845  0.2143 -0.5142 -0.4177
  529SOL    HW1 2114   1.039   2.306   1.941 -1.5776  1.9458  0.1780
  529SOL    HW2 2115   1.094   2.339   1.802  0.8261  0.8288  4.6095
  529SOL     MW 2116   1.045   2.293   1.852  0.0586 -0.0124  0.3242
  530SOL     OW 2117   1.194   2.432   3.055  0.0269 -0.5293 -0.2070
  530SOL    HW1 2118   1.106   2.438   3.082  0.3342  1.5202  0.2349
  530SOL    HW2 2119   1.192   2.336   3.050 -2.6587 -1.5158  2.8327
  530SOL     MW 2120   1.182   2.420   3.058 -0.2869 -0.3890  0.2524
  531SOL     OW 2121   0.988   1.876   2.596 -0.4234 -0.3837 -0.3758
  531SOL    HW1 2122   0.997   1.940   2.664  2.0094 -2.6809 -1.2301
  531SOL    HW2 2123   0.949   1.800   2.642 -2.0457  1.4066 -0.1111
  531SOL     MW 2124   0.984   1.874   2.611 -0.3165 -0.4506 -0.4536
  532SOL     OW 2125   1.724   0.323   2.901 -0.1857 -0.5868  0.2461
  532SOL    HW1 2126   1.723   0.224   2.917  0.0026 -0.7926  0.7268
  532SOL    HW2 2127   1.816   0.351   2.921  4.2557  0.6064  2.1157
  532SOL     MW 2128   1.736   0.314   2.906  0.4252 -0.4565  0.5562
  533SOL     OW 2129   1.797   2.666   2.982 -0.4409 -0.1721  0.2000
  533SOL    HW1 2130   1.772   2.617   3.061 -0.2814 -1.9990  0.5906
  533SOL    HW2 2131   1.740   2.650   2.899 -5.4779 -0.5697  1.0676
  533SOL     MW 2132   1.786   2.657   2.982 -1.0845 -0.4656  0.3660
  534SOL     OW 2133   1.797   2.347   2.458  0.0323  0.1361 -0.0318
  534SOL    HW1 2134   1.714   2.329   2.510 -1.8622  0.2839  0.8392
  534SOL    HW2 2135   1.864   2.317   2.518  1.2525  1.2797  3.9928
  534SOL     MW 2136   1.795   2.341   2.473 -0.0567  0.3065  0.6141
  535SOL     OW 2137   1.829   2.352   1.920  0.4982 -0.1292 -0.9804
  535SOL    HW1 2138   1.771   2.359   1.840  1.9549  1.5136 -0.0608
  535SOL    HW2 2139   1.915   2.373   1.886 -2.4835 -0.9477 -2.8212
  535SOL     MW 2140   1.833   2.355   1.905  0.2970 -0.0204 -1.1020
  536SOL     OW 2141   0.442   1.883   2.019 -0.0167  0.1306 -0.0696
  536SOL    HW1 2142   0.442   1.805   1.966 -0.3755  0.7985  0.5630
  536SOL    HW2 2143   0.519   1.930   1.986  1.1299  3.3389 -0.0822
  536SOL     MW 2144   0.452   1.879   2.008  0.0873  0.6421  0.0122
  537SOL     OW 2145   1.051   0.153   2.880 -0.4404  0.5753  0.4732
  537SOL    HW1 2146   1.005   0.141   2.966 -2.3492  2.0051  3.2936
  537SOL    HW2 2147   1.081   0.240   2.881 -0.9639 -0.8618 -1.9966
  537SOL     MW 2148   1.049   0.163   2.891 -0.7613  0.5743  0.5194
  538SOL     OW 2149   1.371   0.070   2.967 -0.1548  0.2001  0.1261
  538SOL    HW1 2150   1.334   0.137   2.909  1.3305  2.8127  0.5964
  538SOL    HW2 2151   1.459   0.052   2.928  0.6512  0.4706  1.8712
  538SOL     MW 2152   1.378   0.077   2.954  0.1475  0.5805  0.4184
  539SOL     OW 2153   0.765   2.773   2.559  0.0453  0.2212 -0.3542
  539SOL    HW1 2154   0.861   2.810   2.573  0.3370  0.9480  0.1055
  539SOL    HW2 2155   0.772   2.685   2.589 -2.2070  1.2485  1.6196
  539SOL     MW 2156   0.779   2.767   2.565 -0.2134  0.4527 -0.0332
  540SOL     OW 2157   0.344   2.375   2.848  0.1860  0.4916 -0.5916
  540SOL    HW1 2158   0.427   2.371   2.903  2.2334  1.8657 -2.2324
  540SOL    HW2 2159   0.293   2.303   2.889 -0.2183  1.4661  2.1813
  540SOL     MW 2160   0.348   2.365   2.861  0.4028  0.8015 -0.4422
  541SOL     OW 2161   0.178   2.929   2.208  0.2892 -0.1392  0.3888
  541SOL    HW1 2162   0.210   2.859   2.153 -1.5132 -1.0707  1.6543
  541SOL    HW2 2163   0.226   2.919   2.289  1.5590  0.8666 -0.8812
  541SOL     MW 2164   0.189   2.918   2.211  0.2189 -0.1294  0.3882
  542SOL     OW 2165   1.019   2.265   2.573 -0.3582 -0.5184  0.1423
  542SOL    HW1 2166   0.948   2.207   2.605 -2.6109 -4.0907 -0.5837
  542SOL    HW2 2167   1.039   2.324   2.651 -0.8645  1.1571 -0.1790
  542SOL     MW 2168   1.012   2.265   2.588 -0.7222 -0.7687  0.0041
  543SOL     OW 2169   1.458   2.489   2.749  0.4116 -0.1619  0.0599
  543SOL    HW1 2170   1.482   2.416   2.693 -3.4927 -0.1950  1.2561
  543SOL    HW2 2171   1.535   2.552   2.753  2.3749  0.7490  0.1678
  543SOL     MW 2172   1.471   2.487   2.742  0.1555 -0.0461  0.2320
  544SOL     OW 2173   0.653   0.247   2.675  0.7940 -0.0817  0.0202
  544SOL    HW1 2174   0.561   0.226   2.692  5.1986 -1.5890 -0.1558
  544SOL    HW2 2175   0.681   0.195   2.602  1.7428  1.8141  1.0869
  544SOL     MW 2176   0.645   0.238   2.667  1.5003 -0.0305  0.1377
  545SOL     OW 2177   1.565   2.175   2.328  0.8892 -0.5104 -0.2849
  545SOL    HW1 2178   1.522   2.233   2.264  1.4417 -1.6490 -0.8733
  545SOL    HW2 2179   1.618   2.117   2.272 -0.5021 -0.5367  0.6361
  545SOL     MW 2180   1.566   2.175   2.312  0.7785 -0.6641 -0.2410
  546SOL     OW 2181   2.958   2.020   0.132  0.3998 -0.6235 -0.1305
  546SOL    HW1 2182   2.924   2.093   0.068  0.9243 -1.6155  0.7892
  546SOL    HW2 2183   3.049   1.990   0.106  1.9608  0.6936 -0.3217
  546SOL     MW 2184   2.965   2.026   0.120  0.6749 -0.5806 -0.0344
  547SOL     OW 2185   0.272   2.978   0.150  0.2252  0.4874 -0.0067
  547SOL    HW1 2186   0.296   3.027   0.069  1.6403  0.9129  5.0842
  547SOL    HW2 2187   0.264   2.885   0.115  1.9291 -2.2619 -1.7510
  547SOL     MW 2188   0.274   2.972   0.134  0.6367  0.1808  0.4348
  548SOL     OW 2189   0.278   2.563   0.239 -0.0214 -0.0132  0.1005
  548SOL    HW1 2190   0.264   2.600   0.150 -0.1399  0.0140 -0.1804
  548SOL    HW2 2191   0.205   2.503   0.241  1.9028  1.4583 -1.8726
  548SOL     MW 2192   0.266   2.560   0.227  0.2169  0.1846 -0.1969
  549SOL     OW 2193   0.822   1.901   2.126  0.3861 -0.3304  0.1068
  549SOL    HW1 2194   0.778   1.966   2.077  1.5154  0.6997 -0.1818
  549SOL    HW2 2195   0.782   1.901   2.211  2.4744 -4.1593  0.7135
  549SOL     MW 2196   0.811   1.910   2.131  0.8107 -0.6997  0.1488
  550SOL     OW 2197   1.793   1.709   2.534  0.2653 -0.2729  0.4217
  550SOL    HW1 2198   1.759   1.697   2.443  1.2078  0.3953 -1.2445
  550SOL    HW2 2199   1.738   1.786   2.558 -1.4323 -0.4879  0.3157
  550SOL     MW 2200   1.782   1.717   2.525  0.1657 -0.2131  0.1879
  551SOL     OW 2201   0.874   2.274   0.225  0.1226 -0.5509 -0.4959
  551SOL    HW1 2202   0.968   2.283   0.208  0.8825 -1.8867 -1.6584
  551SOL    HW2 2203   0.848   2.199   0.175 -0.4260 -2.4712  0.9369
  551SOL     MW 2204   0.883   2.265   0.216  0.1505 -0.9805 -0.4602
  552SOL     OW 2205   1.760   1.742   2.255 -0.1158 -0.4375 -0.1398
  552SOL    HW1 2206   1.671   1.727   2.262  4.8047  0.8947  0.9083
  552SOL    HW2 2207   1.787   1.694   2.170 -0.1485 -0.4270  0.1427
  552SOL     MW 2208   1.752   1.734   2.244  0.5291 -0.2603  0.0358
  553SOL     OW 2209   1.184   2.316   1.463 -0.0593 -0.2649 -0.1818
  553SOL    HW1 2210   1.242   2.243   1.487  1.2617  3.9851  1.6973
  553SOL    HW2 2211   1.253   2.374   1.436 -0.7658 -0.9095 -3.4045
  553SOL     MW 2212   1.201   2.314   1.463  0.0217  0.2108 -0.3591
  554SOL     OW 2213   0.553   2.916   2.670  0.1880  0.1656 -0.1845
  554SOL    HW1 2214   0.495   2.984   2.627 -0.6701 -0.1242  0.5609
  554SOL    HW2 2215   0.624   2.881   2.615 -0.8533  1.4875  1.0629
  554SOL     MW 2216   0.555   2.920   2.657 -0.0626  0.3018  0.0784
  555SOL     OW 2217   0.629   2.449   2.573  0.2478  0.2312  0.0148
  555SOL    HW1 2218   0.575   2.374   2.556  0.4426  1.4902  0.1362
  555SOL    HW2 2219   0.714   2.447   2.521 -1.0942 -1.5398  0.2902
  555SOL     MW 2220   0.633   2.439   2.564  0.0965  0.1636  0.0671
  556SOL     OW 2221   0.939   1.785   0.162 -0.1932  0.7863  0.2002
  556SOL    HW1 2222   0.962   1.783   0.072  1.0656 -0.7384  1.0936
  556SOL    HW2 2223   1.017   1.824   0.203 -1.0793  0.4961 -0.7576
  556SOL     MW 2224   0.952   1.790   0.156 -0.1440  0.5468  0.1917
  557SOL     OW 2225   0.975   2.683   0.501  0.1540 -0.0896  0.2497
  557SOL    HW1 2226   1.018   2.666   0.417 -0.8386 -1.1796 -0.7023
  557SOL    HW2 2227   0.904   2.741   0.467  1.6086 -1.6837 -2.0760
  557SOL     MW 2228   0.971   2.688   0.486  0.2149 -0.4437 -0.1827
  558SOL     OW 2229   0.257   2.152   3.085  0.1874  0.6432 -1.1158
  558SOL    HW1 2230   0.225   2.074   3.130  0.5765 -0.1489 -0.2067
  558SOL    HW2 2231   0.202   2.225   3.112 -0.8800  0.8238  1.2746
  558SOL     MW 2232   0.246   2.151   3.095  0.0979  0.5625 -0.6804
  559SOL     OW 2233   1.046   2.303   2.128 -0.7544 -0.0557  0.0845
  559SOL    HW1 2234   1.091   2.387   2.122  0.3207  1.0866 -2.3448
  559SOL    HW2 2235   1.064   2.267   2.214 -1.4102  0.8214  4.3666
  559SOL     MW 2236   1.054   2.309   2.138 -0.6991  0.2107  0.3290
  560SOL     OW 2237   1.931   2.853   0.065  0.8717 -0.0258 -0.3264
  560SOL    HW1 2238   1.986   2.896   0.002  1.1108  0.0278 -1.7294
  560SOL    HW2 2239   1.882   2.786   0.024 -0.7727  0.1462  0.7683
  560SOL     MW 2240   1.932   2.850   0.051  0.6863  0.0040 -0.3671
  561SOL     OW 2241   0.432   2.168   0.218 -0.2366  0.4892  0.2423
  561SOL    HW1 2242   0.406   2.174   0.131  1.0225  1.1752 -2.6264
  561SOL    HW2 2243   0.471   2.259   0.236 -2.9738  1.9400 -4.2048
  561SOL     MW 2244   0.434   2.181   0.209 -0.4316  0.7711 -0.7229
  562SOL     OW 2245   0.791   2.207   2.223 -0.3529  0.6472 -0.2581
  562SOL    HW1 2246   0.843   2.287   2.209  1.8722  1.4059 -0.0144
  562SOL    HW2 2247   0.859   2.148   2.248 -2.4003  0.0977 -1.9691
  562SOL     MW 2248   0.807   2.210   2.224 -0.3295  0.6748 -0.4517
  563SOL     OW 2249   1.142   0.329   0.578  0.4816  0.4673 -0.1726
  563SOL    HW1 2250   1.062   0.289   0.543  1.6052  0.6057 -3.4313
  563SOL    HW2 2251   1.191   0.251   0.612  2.6638  0.6113 -0.7657
  563SOL     MW 2252   1.138   0.314   0.578  0.9178  0.5045 -0.6808
  564SOL     OW 2253   1.027   2.617   2.244  0.2800  0.3729 -0.6486
  564SOL    HW1 2254   1.082   2.610   2.164 -3.2715  0.4598  0.5009
  564SOL    HW2 2255   1.092   2.642   2.312  1.3973 -0.3865 -2.8540
  564SOL     MW 2256   1.042   2.620   2.243 -0.0412  0.2842 -0.7879
  565SOL     OW 2257   2.907   2.692   2.655 -0.3090  0.7009  0.1495
  565SOL    HW1 2258   2.977   2.759   2.638  0.5983  1.7300 -1.6519
  565SOL    HW2 2259   2.837   2.700   2.593  0.6540 -1.2183  1.2092
  565SOL     MW 2260   2.907   2.702   2.644 -0.0623  0.5835  0.0517
  566SOL     OW 2261   2.151   1.875   2.386  0.2910  0.5022 -0.5480
  566SOL    HW1 2262   2.193   1.847   2.307 -1.4490  1.7739 -1.5046
  566SOL    HW2 2263   2.192   1.962   2.401  1.0620 -3.1553 -1.6287
  566SOL     MW 2264   2.162   1.883   2.378  0.1632  0.1874 -0.8168
  567SOL     OW 2265   1.170   2.930   2.963  0.0530 -1.0016 -0.3467
  567SOL    HW1 2266   1.254   2.988   2.963  1.3150  2.3293  0.3704
  567SOL    HW2 2267   1.211   2.845   2.965  0.3286 -3.6149  0.4870
  567SOL     MW 2268   1.187   2.927   2.963  0.2559 -0.9070 -0.1420
  568SOL     OW 2269   1.619   2.121   2.890 -0.7462  0.3820  0.0473
  568SOL    HW1 2270   1.673   2.173   2.949 -1.0194  0.1973  0.5242
  568SOL    HW2 2271   1.681   2.064   2.833  1.7100  2.2399 -1.2411
  568SOL     MW 2272   1.634   2.120   2.890 -0.4582  0.6028 -0.0598
  569SOL     OW 2273   0.181   2.240   2.472 -0.5223  0.0708 -0.1023
  569SOL    HW1 2274   0.115   2.289   2.412 -2.1899  0.1739  0.4638
  569SOL    HW2 2275   0.192   2.291   2.555 -1.1851 -0.2443  1.5803
  569SOL     MW 2276   0.174   2.253   2.475 -0.8298  0.0429  0.1944
  570SOL     OW 2277   1.447   0.384   0.476 -1.1259 -0.0911  0.2970
  570SOL    HW1 2278   1.357   0.368   0.493 -1.2425 -0.4039 -0.5026
  570SOL    HW2 2279   1.493   0.436   0.545  3.1998 -0.5369 -0.2258
  570SOL     MW 2280   1.441   0.389   0.488 -0.5705 -0.1912  0.1225
  571SOL     OW 2281   1.474   2.412   1.978  0.0400  0.0812 -0.0984
  571SOL    HW1 2282   1.526   2.435   2.055  1.6107  0.5736  1.3748
  571SOL    HW2 2283   1.492   2.318   1.948 -0.5761  0.0028  0.3970
  571SOL     MW 2284   1.483   2.403   1.984  0.1659  0.1358  0.1613
  572SOL     OW 2285   0.924   2.620   0.035  0.5015  0.6802 -0.0431
  572SOL    HW1 2286   0.908   2.659  -0.052 -1.1774  0.6964  0.9799
  572SOL    HW2 2287   0.841   2.573   0.057 -0.4333  0.9262  1.5174
  572SOL     MW 2288   0.911   2.619   0.026  0.1567  0.7148  0.2978
  573SOL     OW 2289   1.176   2.356   0.264 -0.1983 -0.8733 -0.2534
  573SOL    HW1 2290   1.257   2.344   0.222 -3.8379 -0.9044  0.9010
  573SOL    HW2 2291   1.154   2.455   0.261  0.5927  1.8361  0.1684
  573SOL     MW 2292   1.184   2.367   0.258 -0.5741 -0.5199 -0.0454
  574SOL     OW 2293   1.136   2.619   0.255 -0.0779 -0.0579  0.2356
  574SOL    HW1 2294   1.188   2.689   0.292  0.4157 -3.8521  1.1689
  574SOL    HW2 2295   1.102   2.646   0.175  0.2475 -1.1926 -0.0433
  574SOL     MW 2296   1.139   2.632   0.249  0.0302 -0.7082  0.3219
  575SOL     OW 2297   0.028   2.290   1.795 -0.0055  0.1331 -0.1674
  575SOL    HW1 2298   0.031   2.220   1.729  0.1675  1.2635  0.4321
  575SOL    HW2 2299   0.061   2.371   1.757  0.7214  1.7645  0.9800
  575SOL     MW 2300   0.033   2.292   1.781  0.1132  0.4975  0.0631
  576SOL     OW 2301   2.849   1.815   2.061 -0.5295  0.5418  0.2209
  576SOL    HW1 2302   2.879   1.895   2.011  0.7499 -0.7493 -0.0422
  576SOL    HW2 2303   2.761   1.814   2.025 -0.6020  0.3135  0.0915
  576SOL     MW 2304   2.841   1.825   2.050 -0.3703  0.3413  0.1691
  577SOL     OW 2305   2.104   0.203   0.074 -0.3294 -0.3767  0.7049
  577SOL    HW1 2306   2.026   0.230   0.018 -0.2464  1.2314 -0.6262
  577SOL    HW2 2307   2.080   0.209   0.165  0.6658  2.2705 -2.2722
  577SOL     MW 2308   2.091   0.207   0.078 -0.1871  0.1847  0.1364
  578SOL     OW 2309   1.904   2.035   2.406  0.0997 -0.0507 -0.6137
  578SOL    HW1 2310   1.831   2.040   2.342  0.8686  0.8757 -1.1328
  578SOL    HW2 2311   1.941   1.952   2.374  0.1272 -1.2488 -0.4850
  578SOL     MW 2312   1.899   2.025   2.393  0.2048 -0.0865 -0.6652
  579SOL     OW 2313   0.883   2.470   2.447 -0.2023 -0.2776 -0.7432
  579SOL    HW1 2314   0.926   2.398   2.504  1.0741 -0.3183  1.4666
  579SOL    HW2 2315   0.950   2.507   2.387 -0.7308  0.0487 -0.3008
  579SOL     MW 2316   0.898   2.465   2.447 -0.1037 -0.2399 -0.3933
  580SOL     OW 2317   0.928   2.977   3.049 -0.2288 -0.3489 -0.5198
  580SOL    HW1 2318   1.018   2.950   3.018  1.2183 -0.0622  2.6728
  580SOL    HW2 2319   0.869   2.979   2.969  1.1918  2.0164 -1.0134
  580SOL     MW 2320   0.932   2.974   3.034  0.1496  0.0010 -0.1637
  581SOL     OW 2321   1.201   2.474   1.699 -0.0301 -0.1295 -0.4569
  581SOL    HW1 2322   1.215   2.565   1.669 -0.3974  3.6282  0.9811
  581SOL    HW2 2323   1.232   2.415   1.630  1.4278  0.6236  3.2523
  581SOL     MW 2324   1.207   2.478   1.686  0.1138  0.4657  0.2222
  582SOL     OW 2325   3.093   2.864   2.531  0.2128 -0.3441  0.5059
  582SOL    HW1 2326   3.073   2.950   2.561  0.2636  0.5326 -1.6783
  582SOL    HW2 2327   3.187   2.857   2.516  1.5333  1.4659 -1.9816
  582SOL     MW 2328   3.102   2.874   2.533  0.3938  0.0104 -0.1105
  583SOL     OW 2329   2.039   2.359   2.690  0.2667  0.2391 -0.4978
  583SOL    HW1 2330   2.088   2.387   2.610  1.8597  0.3105  0.7355
  583SOL    HW2 2331   2.022   2.261   2.683 -0.7954 -0.8282 -1.5222
  583SOL     MW 2332   2.043   2.350   2.679  0.3367  0.1077 -0.4703
  584SOL     OW 2333   0.225   1.825   2.196  0.4358 -0.4256  0.5330
  584SOL    HW1 2334   0.290   1.848   2.133 -0.0038  3.3246  0.2328
  584SOL    HW2 2335   0.238   1.891   2.265 -0.0593 -0.6411  0.0957
  584SOL     MW 2336   0.235   1.836   2.197  0.3125  0.0408  0.4357
  585SOL     OW 2337   1.470   2.657   0.157  0.9653  0.2993  0.0696
  585SOL    HW1 2338   1.443   2.610   0.078  2.0235  0.4300  1.8005
  585SOL    HW2 2339   1.381   2.695   0.183  0.0481 -1.2653  1.2227
  585SOL     MW 2340   1.454   2.656   0.150  0.9839  0.1101  0.4501
  586SOL     OW 2341   1.373   2.841   2.520 -0.6764  0.3748  0.2614
  586SOL    HW1 2342   1.446   2.798   2.476  1.4389 -0.1868 -1.8102
  586SOL    HW2 2343   1.408   2.934   2.526  0.0179  0.0883  2.3073
  586SOL     MW 2344   1.387   2.848   2.515 -0.3057  0.2629  0.2580
  587SOL     OW 2345   1.314   1.557   2.173  0.2115 -0.1919  0.3048
  587SOL    HW1 2346   1.317   1.469   2.216  0.1068 -1.8114 -2.0588
  587SOL    HW2 2347   1.261   1.548   2.091 -1.3562  0.7568  0.1544
  587SOL     MW 2348   1.308   1.544   2.168 -0.0092 -0.2804 -0.0269
  588SOL     OW 2349   1.375   2.120   2.759  0.2566 -0.2144 -0.3338
  588SOL    HW1 2350   1.454   2.136   2.819 -1.1617 -1.4289 -3.0754
  588SOL    HW2 2351   1.301   2.161   2.809 -1.6774  0.8304 -0.1528
  588SOL     MW 2352   1.376   2.127   2.773 -0.1857 -0.2368 -0.6716
  589SOL     OW 2353   1.262   2.047   0.093 -0.4794 -0.1938  0.5192
  589SOL    HW1 2354   1.302   2.113   0.151  0.7451 -2.4819  2.2789
  589SOL    HW2 2355   1.212   1.995   0.157  2.2849 -0.7050  0.7770
  589SOL     MW 2356   1.260   2.049   0.109  0.0469 -0.5631  0.7854
  590SOL     OW 2357   0.420   2.755   2.208  0.5830  0.5789 -0.4373
  590SOL    HW1 2358   0.424   2.696   2.138 -1.6227  0.2694  2.4382
  590SOL    HW2 2359   0.511   2.785   2.207 -1.8807  2.9594 -1.6472
  590SOL     MW 2360   0.433   2.751   2.199 -0.0331  0.8522 -0.2176
  591SOL     OW 2361   2.289   0.694   0.005 -0.2783 -0.5141 -0.1531
  591SOL    HW1 2362   2.209   0.752   0.000 -2.0412  0.5839 -0.6511
  591SOL    HW2 2363   2.363   0.729  -0.065  1.4162  1.6148 -3.0894
  591SOL     MW 2364   2.288   0.706  -0.005 -0.2873 -0.0883 -0.6062
  592SOL     OW 2365   1.797   2.951   0.836 -0.3171 -0.3350 -0.5585
  592SOL    HW1 2366   1.779   3.020   0.767 -2.7172  0.4926 -2.9079
  592SOL    HW2 2367   1.854   2.883   0.790  1.4222 -0.9847  2.7789
  592SOL     MW 2368   1.802   2.951   0.821 -0.4043 -0.3115 -0.4281
  593SOL     OW 2369   1.930   0.706   0.874 -0.1951  0.0026 -0.3808
  593SOL    HW1 2370   1.861   0.707   0.806 -2.3769  0.0024 -0.4266
  593SOL    HW2 2371   1.917   0.621   0.915 -3.4956  0.2626 -0.8643
  593SOL     MW 2372   1.919   0.695   0.871 -0.9184  0.0369 -0.4507
  594SOL     OW 2373   2.823   1.147   1.344 -0.1534 -0.1223  0.3313
  594SOL    HW1 2374   2.918   1.160   1.346  0.4233 -0.1575 -0.6484
  594SOL    HW2 2375   2.827   1.094   1.262 -0.9863  0.6452  0.3336
  594SOL     MW 2376   2.836   1.141   1.333 -0.1872 -0.0257  0.2023
  595SOL     OW 2377   0.466   0.996   0.803 -0.0416  0.4044 -0.0606
  595SOL    HW1 2378   0.510   1.039   0.725  2.2088 -0.5686 -2.3881
  595SOL    HW2 2379   0.488   1.035   0.888 -0.5801  2.0115  3.7788
  595SOL     MW 2380   0.475   1.007   0.804  0.1843  0.4881  0.1389
  596SOL     OW 2381   2.448   1.337   0.579 -0.4483  0.0202  0.5982
  596SOL    HW1 2382   2.510   1.408   0.557  3.1553 -0.9962 -0.0031
  596SOL    HW2 2383   2.492   1.275   0.636  1.2316 -1.6412 -1.1717
  596SOL     MW 2384   2.462   1.338   0.584  0.2488 -0.3331  0.2853
  597SOL     OW 2385   2.178   0.729   1.605  0.2756  0.5659  0.3812
  597SOL    HW1 2386   2.210   0.661   1.668 -0.5022 -0.1189  0.8457
  597SOL    HW2 2387   2.129   0.683   1.531  1.3691  0.1153 -1.5649
  597SOL     MW 2388   2.175   0.714   1.604  0.3173  0.4161  0.1857
  598SOL     OW 2389   2.594   1.009   2.868  0.0971  0.2559  0.1190
  598SOL    HW1 2390   2.569   1.006   2.776 -0.0224 -1.8199  1.3517
  598SOL    HW2 2391   2.686   1.035   2.871  1.6186 -0.8680  0.5950
  598SOL     MW 2392   2.603   1.012   2.856  0.2821 -0.1663  0.3444
  599SOL     OW 2393   2.975   0.438   2.046  0.0398 -0.4613  0.2004
  599SOL    HW1 2394   2.996   0.460   2.137  1.5473  1.0209  0.8794
  599SOL    HW2 2395   2.999   0.523   1.999 -1.6635 -1.0667 -0.3645
  599SOL     MW 2396   2.981   0.452   2.052  0.0140 -0.3456  0.2154
  600SOL     OW 2397   1.901   1.618   0.863 -0.3367  0.1817  0.0645
  600SOL    HW1 2398   1.958   1.673   0.920 -0.3379  0.4625 -1.3729
  600SOL    HW2 2399   1.831   1.686   0.857 -1.2348 -1.2698 -1.5021
  600SOL     MW 2400   1.900   1.634   0.870 -0.4554  0.0272 -0.3318
  601SOL     OW 2401   2.507   0.784   0.830 -1.1991 -0.1339 -0.1576
  601SOL    HW1 2402   2.515   0.780   0.922 -2.7820 -0.9078  2.7544
  601SOL    HW2 2403   2.433   0.730   0.804  0.3571 -0.4624  0.8343
  601SOL     MW 2404   2.498   0.776   0.838 -1.2026 -0.2793  0.3575
  602SOL     OW 2405   2.354   1.904   0.866 -0.1311  0.2025 -0.3778
  602SOL    HW1 2406   2.298   1.823   0.868  0.8419 -0.7968 -0.1049
  602SOL    HW2 2407   2.304   1.966   0.813 -0.5087  0.0522 -1.3599
  602SOL     MW 2408   2.340   1.902   0.859 -0.0525  0.0509 -0.4714
  603SOL     OW 2409   3.078   1.379   1.800  0.1884 -0.3369  0.1833
  603SOL    HW1 2410   3.120   1.433   1.867  0.9496  0.2614 -1.2119
  603SOL    HW2 2411   3.064   1.286   1.824 -0.2118 -1.0372  0.2485
  603SOL     MW 2412   3.082   1.374   1.812  0.2360 -0.3504  0.0078
  604SOL     OW 2413   2.173   1.579   0.457 -0.1125 -0.0161 -0.2849
  604SOL    HW1 2414   2.212   1.505   0.503  0.7142  1.0356  0.0482
  604SOL    HW2 2415   2.084   1.598   0.504  0.4065  1.5899  0.0336
  604SOL     MW 2416   2.166   1.572   0.469  0.0651  0.3345 -0.1989
  605SOL     OW 2417   2.620   1.525   0.828 -0.0313 -0.1433 -0.1088
  605SOL    HW1 2418   2.602   1.616   0.785  0.4075  0.6349 -2.5152
  605SOL    HW2 2419   2.567   1.470   0.774  1.2596 -1.7421  1.9565
  605SOL     MW 2420   2.610   1.530   0.815  0.1969 -0.2515 -0.1538
  606SOL     OW 2421   2.529   1.803   1.977  0.3734 -0.7031  0.6069
  606SOL    HW1 2422   2.437   1.811   1.963  0.4726 -0.9077  2.1065
  606SOL    HW2 2423   2.568   1.764   1.901 -0.3766 -2.0946  1.4377
  606SOL     MW 2424   2.522   1.799   1.965  0.2875 -0.9137  0.9144
  607SOL     OW 2425   2.397   1.096   3.040 -0.2287  1.0384 -0.0062
  607SOL    HW1 2426   2.475   1.080   2.986  0.3474  1.8275  0.2336
  607SOL    HW2 2427   2.405   1.047   3.126  1.0721 -1.5154  0.8212
  607SOL     MW 2428   2.409   1.087   3.044  0.0189  0.8056  0.1346
  608SOL     OW 2429   1.873   0.270   0.625 -0.0210 -0.2520  0.0194
  608SOL    HW1 2430   1.856   0.324   0.540  1.9433 -1.1384  0.8070
  608SOL    HW2 2431   1.830   0.181   0.608 -2.1309 -0.9864  1.6805
  608SOL     MW 2432   1.865   0.265   0.612 -0.0402 -0.4658  0.3425
  609SOL     OW 2433   2.031   2.007   3.043  0.3773 -0.5953  0.0159
  609SOL    HW1 2434   1.996   1.929   2.997 -2.0522  0.9309  2.9189
  609SOL    HW2 2435   2.092   1.969   3.109 -2.4139  1.7475 -0.6849
  609SOL     MW 2436   2.034   1.992   3.046 -0.3115 -0.0848  0.3064
  610SOL     OW 2437   1.763   1.011   1.302 -0.2646 -0.1605 -0.1385
  610SOL    HW1 2438   1.803   0.930   1.279 -0.6295  2.6936 -0.2387
  610SOL    HW2 2439   1.671   1.002   1.283  0.7310  0.4795  2.9694
  610SOL     MW 2440   1.756   0.999   1.297 -0.1814  0.3005  0.2583
  611SOL     OW 2441   2.517   1.766   0.684  0.3463 -0.2189  0.2042
  611SOL    HW1 2442   2.466   1.796   0.760 -0.9759 -3.0329 -0.5257
  611SOL    HW2 2443   2.496   1.812   0.605 -0.5957 -4.7535  1.2172
  611SOL     MW 2444   2.508   1.776   0.684  0.0476 -1.1885  0.2416
  612SOL     OW 2445   2.794   2.821   0.414 -0.1223  0.4872 -0.0365
  612SOL    HW1 2446   2.823   2.887   0.475 -0.9798 -3.2764  2.3088
  612SOL    HW2 2447   2.879   2.779   0.385 -0.5917 -0.8876 -2.6152
  612SOL     MW 2448   2.809   2.824   0.418 -0.2974 -0.1907 -0.0673
  613SOL     OW 2449   1.476   0.978   0.955 -0.0125  0.0573 -0.5136
  613SOL    HW1 2450   1.555   1.028   0.924  1.9426 -0.3937 -1.7215
  613SOL    HW2 2451   1.481   0.958   1.050 -3.5817  0.4703  0.6051
  613SOL     MW 2452   1.487   0.982   0.964 -0.2255  0.0523 -0.5254
  614SOL     OW 2453   2.009   0.556   1.468  0.0552 -0.2369  0.0606
  614SOL    HW1 2454   2.013   0.481   1.530  0.5557  1.2582  0.5743
  614SOL    HW2 2455   1.948   0.546   1.397  0.3196 -2.5829  3.1241
  614SOL     MW 2456   2.001   0.545   1.467  0.1561 -0.3492  0.5326
  615SOL     OW 2457   2.400   0.733   0.252  0.0246  0.2361 -0.0998
  615SOL    HW1 2458   2.424   0.659   0.305 -1.5324  1.4250  1.2599
  615SOL    HW2 2459   2.381   0.710   0.162  0.1293  1.4104 -2.0183
  615SOL     MW 2460   2.400   0.720   0.247 -0.1670  0.5479 -0.1736
  616SOL     OW 2461   2.488   0.404   1.634  0.8808  0.2079  0.7489
  616SOL    HW1 2462   2.454   0.331   1.578 -0.1512 -0.1876 -1.0437
  616SOL    HW2 2463   2.495   0.478   1.572  0.2557 -1.3478 -0.2830
  616SOL     MW 2464   2.484   0.404   1.618  0.6622 -0.0496  0.3762
  617SOL     OW 2465   2.876   0.631   1.730 -0.5766  0.9943  0.4994
  617SOL    HW1 2466   2.802   0.646   1.784 -1.6075 -1.6386  0.0725
  617SOL    HW2 2467   2.891   0.538   1.705 -1.4560  0.2051 -3.5705
  617SOL     MW 2468   2.868   0.621   1.734 -0.8286  0.5428 -0.0939
  618SOL     OW 2469   2.724   0.388   1.887 -0.8015 -0.0874  0.4867
  618SOL    HW1 2470   2.703   0.480   1.877  0.8814  0.6026 -1.6230
  618SOL    HW2 2471   2.780   0.388   1.964  1.0465 -0.6814  0.5911
  618SOL     MW 2472   2.729   0.400   1.896 -0.3356 -0.0747  0.2221
  619SOL     OW 2473   2.661   0.636   0.105  0.6628 -0.1066 -0.9599
  619SOL    HW1 2474   2.684   0.714   0.155 -0.8909  0.7459 -1.0852
  619SOL    HW2 2475   2.609   0.593   0.174 -0.4029 -0.0629 -0.8381
  619SOL     MW 2476   2.657   0.640   0.121  0.3172  0.0116 -0.9604
  620SOL     OW 2477   2.253   1.045   1.002 -0.5053  0.2241 -0.0215
  620SOL    HW1 2478   2.322   1.050   0.931 -2.8760 -1.6901 -2.3980
  620SOL    HW2 2479   2.184   0.994   0.949 -2.2465  1.7376  0.6896
  620SOL     MW 2480   2.253   1.039   0.986 -1.0478  0.1712 -0.2412
  621SOL     OW 2481   1.538   2.145   1.926  0.3021  0.8501 -0.5455
  621SOL    HW1 2482   1.477   2.108   1.999  1.1497 -1.1350  1.1363
  621SOL    HW2 2483   1.621   2.101   1.937  0.2612 -1.2950  2.9317
  621SOL     MW 2484   1.541   2.134   1.937  0.4086  0.3052  0.1352
  622SOL     OW 2485   2.626   0.159   0.248 -0.2324  0.0419 -0.2162
  622SOL    HW1 2486   2.721   0.168   0.239 -0.5804  1.2540  0.3112
  622SOL    HW2 2487   2.621   0.070   0.285  2.6528 -0.3834  0.3040
  622SOL     MW 2488   2.638   0.149   0.252  0.1024  0.1457 -0.0780
  623SOL     OW 2489   2.345   2.824   0.857 -0.0387 -0.5184 -0.1874
  623SOL    HW1 2490   2.429   2.872   0.861 -0.8449 -3.6548 -0.0027
  623SOL    HW2 2491   2.295   2.848   0.938  4.9930  0.7705 -1.3832
  623SOL     MW 2492   2.349   2.834   0.868  0.5188 -0.7622 -0.3208
  624SOL     OW 2493   2.186   1.723   2.997 -0.1306 -0.1290 -0.1092
  624SOL    HW1 2494   2.132   1.652   3.036  0.9534 -0.2868 -1.9963
  624SOL    HW2 2495   2.100   1.764   2.971 -2.2539  2.0846 -0.2737
  624SOL     MW 2496   2.168   1.719   2.999 -0.2677  0.1422 -0.3799
  625SOL     OW 2497   2.191   1.941   1.064  0.2226 -0.3513  0.1637
  625SOL    HW1 2498   2.254   1.914   1.132 -1.4969  1.7566 -2.0619
  625SOL    HW2 2499   2.239   1.947   0.978 -0.3400  0.0530  0.1940
  625SOL     MW 2500   2.206   1.938   1.062 -0.0785 -0.0199 -0.1259
  626SOL     OW 2501   0.302   1.610   2.356 -0.1738 -0.4579 -0.3090
  626SOL    HW1 2502   0.271   1.520   2.326 -0.5972 -0.0768 -0.4239
  626SOL    HW2 2503   0.267   1.667   2.285  4.7413  2.0379 -0.6352
  626SOL     MW 2504   0.293   1.605   2.343  0.4188 -0.0784 -0.3672
  627SOL     OW 2505   2.467   0.717   2.590 -0.2096 -0.2474 -1.0343
  627SOL    HW1 2506   2.479   0.810   2.593 -2.1833 -0.2202 -0.1546
  627SOL    HW2 2507   2.421   0.695   2.510 -1.1107 -0.2414  0.5761
  627SOL     MW 2508   2.462   0.726   2.580 -0.5889 -0.2430 -0.7057
  628SOL     OW 2509   2.337   1.417   1.371 -0.0054  0.1036  0.2108
  628SOL    HW1 2510   2.309   1.368   1.295 -2.0594 -0.4515  2.8000
  628SOL    HW2 2511   2.429   1.429   1.364  1.0902 -2.1905 -2.3921
  628SOL     MW 2512   2.346   1.412   1.360 -0.1318 -0.2723  0.2090
  629SOL     OW 2513   1.860   0.519   1.222  0.3229 -0.4267  0.2430
  629SOL    HW1 2514   1.853   0.614   1.204 -1.6169 -0.2750  0.6154
  629SOL    HW2 2515   1.768   0.488   1.237 -3.3530 -0.2770  1.1311
  629SOL     MW 2516   1.847   0.527   1.222 -0.4181 -0.3869  0.4093
  630SOL     OW 2517   2.446   1.837   2.970 -0.4287  0.4867 -0.1050
  630SOL    HW1 2518   2.444   1.935   2.950 -1.8831  0.3802  1.3369
  630SOL    HW2 2519   2.354   1.813   2.988 -0.7294 -0.4953  0.5081
  630SOL     MW 2520   2.434   1.846   2.969 -0.6602  0.3431  0.1661
  631SOL     OW 2521   1.984   1.815   1.564  0.2955 -0.3082  0.4903
  631SOL    HW1 2522   1.985   1.733   1.614  0.4604 -0.6267  3.3970
  631SOL    HW2 2523   1.965   1.781   1.479 -0.5854 -0.1330 -1.0384
  631SOL     MW 2524   1.982   1.800   1.559  0.2010 -0.3271  0.6721
  632SOL     OW 2525   0.171   1.964   1.436  0.3500  0.2938 -0.3010
  632SOL    HW1 2526   0.139   1.975   1.526  3.4523  0.7320 -0.5269
  632SOL    HW2 2527   0.200   1.871   1.416  0.1560 -3.4300 -2.0758
  632SOL     MW 2528   0.171   1.953   1.446  0.7337 -0.1397 -0.5649
  633SOL     OW 2529   2.571   0.497   0.329 -0.3611 -0.2988 -0.1661
  633SOL    HW1 2530   2.616   0.533   0.403 -1.2533 -0.6850 -0.6657
  633SOL    HW2 2531   2.581   0.403   0.328  0.4978 -1.1161  1.5840
  633SOL     MW 2532   2.578   0.489   0.338 -0.3655 -0.4576 -0.0011
  634SOL     OW 2533   2.667  -0.000   0.635 -0.6639  0.7634  0.8842
  634SOL    HW1 2534   2.716   0.080   0.615  1.3204 -0.7195 -1.3899
  634SOL    HW2 2535   2.654  -0.036   0.548 -0.1086 -0.0527  2.7040
  634SOL     MW 2536   2.671   0.006   0.621 -0.3288  0.4601  0.8243
  635SOL     OW 2537   2.615   0.137   1.830 -0.3721 -0.4775  0.3725
  635SOL    HW1 2538   2.648   0.073   1.764 -1.6058  1.5795 -0.3272
  635SOL    HW2 2539   2.675   0.212   1.841 -0.2408  4.5600  2.5981
  635SOL     MW 2540   2.627   0.138   1.823 -0.5175  0.4586  0.5738
  636SOL     OW 2541   2.846   1.607   1.087 -0.3989 -0.2975 -0.5635
  636SOL    HW1 2542   2.774   1.669   1.106 -0.1485 -0.2243 -2.6531
  636SOL    HW2 2543   2.925   1.670   1.092 -0.4324 -1.7472  4.0001
  636SOL     MW 2544   2.847   1.623   1.090 -0.3703 -0.4791 -0.2371
  637SOL     OW 2545   2.873   1.448   0.755 -0.1276 -0.5440  0.0233
  637SOL    HW1 2546   2.910   1.521   0.703 -1.4311 -0.2430  1.2406
  637SOL    HW2 2547   2.805   1.486   0.810  1.5035 -0.2582  2.9988
  637SOL     MW 2548   2.869   1.462   0.756 -0.0844 -0.4666  0.5765
  638SOL     OW 2549   2.737   0.509   0.569 -0.8117  0.2844  0.3303
  638SOL    HW1 2550   2.822   0.539   0.533  0.0463  1.3725 -0.9167
  638SOL    HW2 2551   2.744   0.542   0.663  1.7913 -1.0446  0.7635
  638SOL     MW 2552   2.749   0.517   0.576 -0.3551  0.2526  0.2230
  639SOL     OW 2553   1.754   0.033   0.617  0.2326 -0.1162  0.0112
  639SOL    HW1 2554   1.676   0.063   0.574  2.5299  0.8393 -0.9867
  639SOL    HW2 2555   1.788  -0.034   0.551  1.2343 -2.2191 -0.3303
  639SOL     MW 2556   1.748   0.028   0.602  0.6679 -0.2676 -0.1656
  640SOL     OW 2557   0.353   1.298   0.128 -0.1195 -0.2636  0.3716
  640SOL    HW1 2558   0.378   1.317   0.035 -0.6914 -0.1494 -1.0050
  640SOL    HW2 2559   0.315   1.208   0.129 -2.4280 -1.2006  3.6250
  640SOL     MW 2560   0.351   1.289   0.116 -0.4996 -0.3721  0.6192
  641SOL     OW 2561   2.163   0.402   0.360 -0.1521 -0.3318  0.3612
  641SOL    HW1 2562   2.216   0.393   0.277  0.2418 -1.3875 -2.0293
  641SOL    HW2 2563   2.220   0.375   0.431  1.7494  0.1592  2.3144
  641SOL     MW 2564   2.178   0.398   0.359  0.1507 -0.4063  0.3035
  642SOL     OW 2565   0.082   3.071   0.572  0.5049  0.2869 -0.0603
  642SOL    HW1 2566   0.052   3.154   0.526  2.8343  0.8806 -2.1700
  642SOL    HW2 2567   0.003   3.025   0.611 -0.0195 -0.9037  0.2310
  642SOL     MW 2568   0.068   3.076   0.571  0.7430  0.2082 -0.3002
  643SOL     OW 2569   1.994   0.338   1.621 -0.8344  0.2790  0.0260
  643SOL    HW1 2570   1.942   0.281   1.675  0.3937 -3.8196 -2.7000
  643SOL    HW2 2571   2.022   0.276   1.546 -0.8492 -0.3953 -1.0161
  643SOL     MW 2572   1.991   0.322   1.618 -0.6743 -0.3508 -0.4712
  644SOL     OW 2573   2.748   2.033   1.046  0.3010 -0.2140 -0.0724
  644SOL    HW1 2574   2.737   1.942   1.076 -2.0809  1.2220  1.3794
  644SOL    HW2 2575   2.662   2.074   1.034 -1.6335  0.6379 -1.0659
  644SOL     MW 2576   2.735   2.026   1.048 -0.2685  0.0879 -0.0119
  645SOL     OW 2577   2.852   0.830   0.650 -0.0284 -0.3099 -0.2645
  645SOL    HW1 2578   2.945   0.824   0.665  1.8285 -1.2114 -0.8897
  645SOL    HW2 2579   2.816   0.771   0.714 -1.9563  0.3084  1.0488
  645SOL     MW 2580   2.859   0.821   0.660 -0.0378 -0.3473 -0.1737
  646SOL     OW 2581   0.154   2.310   0.816 -0.6652  0.6674 -0.4186
  646SOL    HW1 2582   0.177   2.214   0.841 -0.6783  0.6365  3.7019
  646SOL    HW2 2583   0.092   2.305   0.741  2.6976  1.5241  0.0616
  646SOL     MW 2584   0.149   2.297   0.809 -0.2233  0.7764  0.1884
  647SOL     OW 2585   2.663   0.472   2.952  0.0103 -0.0074 -0.6392
  647SOL    HW1 2586   2.615   0.417   3.017  1.7493 -0.0223  0.2034
  647SOL    HW2 2587   2.650   0.554   2.994 -1.4205 -1.2675 -0.7514
  647SOL     MW 2588   2.655   0.475   2.966  0.0510 -0.1756 -0.5428
  648SOL     OW 2589   2.084   0.742   1.204 -0.3867  0.2925 -0.2364
  648SOL    HW1 2590   2.158   0.706   1.159 -0.4032 -3.5788 -1.2202
  648SOL    HW2 2591   2.103   0.830   1.224  0.2176 -3.4666 -2.6327
  648SOL     MW 2592   2.096   0.749   1.201 -0.3091 -0.7142 -0.6824
  649SOL     OW 2593   2.382   2.671   1.266  0.2635 -0.2726 -0.0935
  649SOL    HW1 2594   2.443   2.725   1.315  0.6902  1.5658  3.3729
  649SOL    HW2 2595   2.421   2.588   1.274  3.2836 -0.0258 -0.2100
  649SOL     MW 2596   2.395   2.667   1.273  0.7183  0.0026  0.3485
  650SOL     OW 2597   2.843   0.211   0.632 -0.0108 -0.1348  0.0410
  650SOL    HW1 2598   2.802   0.290   0.599  4.0887  2.0365  0.0126
  650SOL    HW2 2599   2.924   0.218   0.588 -1.1432  0.5621 -2.7861
  650SOL     MW 2600   2.848   0.222   0.622  0.3807  0.2436 -0.3358
  651SOL     OW 2601   2.989   0.420   0.898  0.6367  0.2040  0.4083
  651SOL    HW1 2602   3.043   0.460   0.834 -0.9033 -1.4492 -0.5084
  651SOL    HW2 2603   2.986   0.483   0.968  1.8384 -0.3368  0.2849
  651SOL     MW 2604   2.995   0.434   0.899  0.5921 -0.0855  0.2710
  652SOL     OW 2605   2.458   1.495   2.983 -0.0061 -0.6398  0.2655
  652SOL    HW1 2606   2.546   1.488   2.938  1.8106  3.0367 -0.5224
  652SOL    HW2 2607   2.442   1.586   3.002  2.3690  3.6899 -0.0281
  652SOL     MW 2608   2.467   1.506   2.980  0.5470  0.4165  0.1228
  653SOL     OW 2609   1.822   0.412   0.406 -0.9473 -0.1681  0.2845
  653SOL    HW1 2610   1.773   0.343   0.364  2.3314  0.6417 -1.3825
  653SOL    HW2 2611   1.899   0.416   0.352 -0.4228  0.9866 -0.6644
  653SOL     MW 2612   1.825   0.404   0.393 -0.4455  0.0911 -0.0607
  654SOL     OW 2613   2.392   1.032   0.778  0.2129 -0.2368  0.3421
  654SOL    HW1 2614   2.332   1.022   0.701  1.8387 -1.7175 -0.7864
  654SOL    HW2 2615   2.431   0.947   0.775 -0.6481  2.3487  0.3479
  654SOL     MW 2616   2.389   1.020   0.767  0.3138 -0.0910  0.1940
  655SOL     OW 2617   2.909   0.824   0.353  0.1600  0.4013  0.1230
  655SOL    HW1 2618   2.890   0.859   0.439  1.7253  0.2969  1.2095
  655SOL    HW2 2619   2.962   0.741   0.367 -1.0770  1.3601 -0.2974
  655SOL     MW 2620   2.913   0.818   0.366  0.2034  0.5140  0.2109
  656SOL     OW 2621   1.878   2.719   1.344  0.3575  0.1398  0.1001
  656SOL    HW1 2622   1.915   2.807   1.352  0.2320  0.1708 -1.2379
  656SOL    HW2 2623   1.906   2.666   1.416 -1.6613  2.6584 -2.7903
  656SOL     MW 2624   1.887   2.724   1.354  0.0746  0.4762 -0.4578
  657SOL     OW 2625   0.133   1.737   1.176  0.6285  0.5027 -0.4045
  657SOL    HW1 2626   0.202   1.777   1.122  0.6092  0.0923  0.7214
  657SOL    HW2 2627   0.154   1.649   1.204  2.4992  2.2038 -1.8598
  657SOL     MW 2628   0.145   1.731   1.173  0.8728  0.6730 -0.4480
  658SOL     OW 2629   2.704   1.363   0.239 -0.3590  0.2557  0.4560
  658SOL    HW1 2630   2.669   1.275   0.283 -0.2508  1.9235 -0.7458
  658SOL    HW2 2631   2.703   1.427   0.310 -0.1101 -0.5944 -0.1224
  658SOL     MW 2632   2.699   1.359   0.254 -0.3119  0.3636  0.2211
  659SOL     OW 2633   2.288   1.528   1.074  0.1914  0.2817  0.3171
  659SOL    HW1 2634   2.388   1.521   1.085  2.5456  0.8308  2.6566
  659SOL    HW2 2635   2.238   1.546   1.160 -2.5293  0.4592 -1.8355
  659SOL     MW 2636   2.294   1.529   1.087  0.1430  0.3776  0.3417
  660SOL     OW 2637   2.020   1.576   1.695 -0.2329 -0.0395  0.2092
  660SOL    HW1 2638   2.040   1.584   1.789 -1.2039  1.3442 -0.3675
  660SOL    HW2 2639   1.928   1.540   1.688  2.1306 -0.9679 -2.5571
  660SOL     MW 2640   2.011   1.572   1.707 -0.0492  0.0206 -0.2319
  661SOL     OW 2641   2.429   1.002   0.195  0.3457  0.4689 -0.2630
  661SOL    HW1 2642   2.500   1.052   0.240  1.3607  0.0874 -1.7069
  661SOL    HW2 2643   2.439   0.904   0.219  0.2084 -1.6316  0.7724
  661SOL     MW 2644   2.440   0.996   0.204  0.4615  0.1414 -0.3169
  662SOL     OW 2645   2.566   2.957   0.856 -0.5464  0.3616  0.1249
  662SOL    HW1 2646   2.527   3.026   0.913  0.6122 -0.3546 -0.1615
  662SOL    HW2 2647   2.600   3.003   0.778  1.3242 -0.6143  1.0903
  662SOL     MW 2648   2.565   2.972   0.853 -0.1467  0.1383  0.2145
  663SOL     OW 2649   2.676   1.489   0.505 -0.6183 -0.0181  0.0897
  663SOL    HW1 2650   2.646   1.560   0.452 -0.0986 -1.3030  2.5006
  663SOL    HW2 2651   2.740   1.514   0.569  0.1437 -0.0731  0.0832
  663SOL     MW 2652   2.681   1.502   0.507 -0.4492 -0.1949  0.4069
  664SOL     OW 2653   2.530   1.523   1.573  0.3208 -0.0715 -0.2610
  664SOL    HW1 2654   2.498   1.614   1.569  0.0043 -2.4875  1.7470
  664SOL    HW2 2655   2.465   1.473   1.625  0.0010 -1.6035 -1.3069
  664SOL     MW 2656   2.517   1.528   1.580  0.2369 -0.5924 -0.1340
  665SOL     OW 2657   2.855   0.857   2.026  0.0288  0.2919 -0.0992
  665SOL    HW1 2658   2.838   0.876   1.931 -0.8011  0.8481  2.7250
  665SOL    HW2 2659   2.944   0.822   2.034 -1.4732 -1.0349 -1.3304
  665SOL     MW 2660   2.864   0.855   2.014 -0.2788  0.1902  0.1110
  666SOL     OW 2661   2.757   3.008   1.706 -0.1259  0.4405  0.0448
  666SOL    HW1 2662   2.752   3.002   1.612  1.4316  0.3524 -0.3775
  666SOL    HW2 2663   2.728   2.923   1.738  1.5667  2.1659 -2.5327
  666SOL     MW 2664   2.752   2.996   1.698  0.3030  0.6565 -0.3510
  667SOL     OW 2665   1.939   2.708   1.756  0.2736 -0.3745  0.3442
  667SOL    HW1 2666   1.941   2.687   1.851  1.1071  0.6591 -0.2045
  667SOL    HW2 2667   2.029   2.743   1.737  0.3092  2.1174 -0.7616
  667SOL     MW 2668   1.951   2.710   1.766  0.3883  0.0906  0.1259
  668SOL     OW 2669   2.753   0.655   0.835  0.1208  0.1273 -0.3427
  668SOL    HW1 2670   2.792   0.661   0.924  0.7950 -1.0091  0.0764
  668SOL    HW2 2671   2.666   0.693   0.828  3.3111 -2.9585  0.7116
  668SOL     MW 2672   2.746   0.661   0.845  0.6307 -0.4298 -0.1483
  669SOL     OW 2673   0.225   0.967   0.680 -0.6411 -0.1730  0.0455
  669SOL    HW1 2674   0.160   1.005   0.740 -0.4377  1.7962  3.6780
  669SOL    HW2 2675   0.315   0.985   0.723 -1.3975  1.0625 -2.4647
  669SOL     MW 2676   0.229   0.974   0.694 -0.7141  0.2498  0.1936
  670SOL     OW 2677   2.901   0.223   0.207 -0.2221 -0.4829 -0.5241
  670SOL    HW1 2678   2.927   0.156   0.138 -2.0412  2.4331 -1.6357
  670SOL    HW2 2679   2.884   0.307   0.166 -0.4142  0.0676 -2.1416
  670SOL     MW 2680   2.902   0.226   0.193 -0.4874 -0.0255 -0.8842
  671SOL     OW 2681   2.017   2.983   1.503  0.4835  0.4182  0.6364
  671SOL    HW1 2682   1.964   2.999   1.425 -1.6000 -0.6587  1.3007
  671SOL    HW2 2683   1.972   3.036   1.572 -1.7516 -0.2023 -2.4565
  671SOL     MW 2684   2.004   2.992   1.502 -0.0863  0.1942  0.3159
  672SOL     OW 2685   1.908   1.680   1.303 -0.1673  0.6220 -0.0037
  672SOL    HW1 2686   1.838   1.737   1.337 -0.6753  1.2421 -0.1713
  672SOL    HW2 2687   1.927   1.718   1.211  0.9927  1.8186 -1.1449
  672SOL     MW 2688   1.902   1.693   1.296 -0.0813  0.8617 -0.1764
  673SOL     OW 2689   2.777   1.097   0.576 -0.2800  0.4573 -0.3782
  673SOL    HW1 2690   2.779   1.006   0.607 -1.4428  1.3543 -1.1275
  673SOL    HW2 2691   2.857   1.136   0.625  1.9459  2.9806  1.7504
  673SOL     MW 2692   2.788   1.090   0.587 -0.1398  0.9086 -0.1962
  674SOL     OW 2693   2.435   0.038   1.296  0.2872 -0.6103 -0.8109
  674SOL    HW1 2694   2.413   0.021   1.206  1.1351 -0.2824  1.2985
  674SOL    HW2 2695   2.418  -0.044   1.339 -0.4071 -0.8839 -2.6369
  674SOL     MW 2696   2.430   0.025   1.290  0.3075 -0.6031 -0.7735
  675SOL     OW 2697   3.057   0.879   1.072  0.4250  0.1500  0.2857
  675SOL    HW1 2698   3.132   0.865   1.133 -2.0076 -0.8007 -1.9428
  675SOL    HW2 2699   3.094   0.933   1.002 -1.1709 -0.2131  0.0235
  675SOL     MW 2700   3.072   0.884   1.071 -0.1065 -0.0233 -0.0429
  676SOL     OW 2701   2.877   1.520   1.641  0.4505 -0.0696  0.4237
  676SOL    HW1 2702   2.831   1.436   1.619 -0.1139 -2.2157 -0.6413
  676SOL    HW2 2703   2.961   1.512   1.682 -0.0442  1.4404 -1.9057
  676SOL     MW 2704   2.882   1.508   1.644  0.3107 -0.1536 -0.0242
  677SOL     OW 2705   2.411   0.568   1.987  0.3065 -0.5977  0.3386
  677SOL    HW1 2706   2.361   0.511   1.928  0.2973 -3.2021 -0.1042
  677SOL    HW2 2707   2.363   0.647   1.994  2.8863 -0.8412  2.9240
  677SOL     MW 2708   2.398   0.571   1.980  0.6456 -0.9735  0.6213
  678SOL     OW 2709   2.576   1.666   0.313  0.6998  0.5941 -0.4336
  678SOL    HW1 2710   2.507   1.712   0.368 -1.0994  1.8386  1.2800
  678SOL    HW2 2711   2.533   1.593   0.264 -1.6803 -1.8267 -0.6055
  678SOL     MW 2712   2.561   1.662   0.314  0.1483  0.4389 -0.2302
  679SOL     OW 2713   2.242   0.477   1.236 -0.5076 -0.4142  0.3379
  679SOL    HW1 2714   2.225   0.384   1.222  1.1986 -1.5045 -0.0137
  679SOL    HW2 2715   2.161   0.523   1.263 -1.7070  0.2993 -2.0650
  679SOL     MW 2716   2.229   0.471   1.238 -0.4408 -0.4639 -0.0255
  680SOL     OW 2717   2.340   0.182   1.517 -0.8609 -0.3756 -0.1986
  680SOL    HW1 2718   2.252   0.170   1.486  3.2986  0.6326  2.2818
  680SOL    HW2 2719   2.396   0.147   1.450 -2.2302  0.5995  2.6494
  680SOL     MW 2720   2.336   0.176   1.504 -0.4928 -0.1139  0.5045
  681SOL     OW 2721   0.288   0.563   1.553  0.0849 -0.2904 -0.4455
  681SOL    HW1 2722   0.277   0.489   1.612 -0.7303  2.8313 -3.3899
  681SOL    HW2 2723   0.381   0.568   1.540  0.0303  1.2707  0.8848
  681SOL     MW 2724   0.299   0.554   1.559 -0.0299  0.3275 -0.6584
  682SOL     OW 2725   0.072   2.887   1.494 -0.0869 -0.1341  0.2128
  682SOL    HW1 2726   0.123   2.968   1.487  1.3240  0.2310  1.1614
  682SOL    HW2 2727   0.009   2.922   1.557 -1.9645  2.3712 -1.0387
  682SOL     MW 2728   0.070   2.902   1.502 -0.1485  0.2446  0.1729
  683SOL     OW 2729   2.039   0.830   2.987  0.0278 -0.2727  0.3367
  683SOL    HW1 2730   1.952   0.798   2.957 -1.3324 -2.0653  2.0991
  683SOL    HW2 2731   2.024   0.918   3.015 -2.0222 -1.6267  1.1198
  683SOL     MW 2732   2.025   0.837   2.987 -0.4221 -0.6879  0.6726
  684SOL     OW 2733   2.218   1.679   0.843  0.0075  0.3271 -0.8036
  684SOL    HW1 2734   2.168   1.629   0.778 -1.8817 -0.1701 -1.9920
  684SOL    HW2 2735   2.239   1.616   0.915  1.7485 -0.4912 -0.9477
  684SOL     MW 2736   2.214   1.664   0.844 -0.0121  0.1535 -0.9794
  685SOL     OW 2737   2.639   1.745   1.204 -0.2261 -0.4872 -0.2165
  685SOL    HW1 2738   2.695   1.716   1.275  0.2306 -2.0104 -1.5718
  685SOL    HW2 2739   2.610   1.661   1.167 -0.0746  0.0243 -0.9710
  685SOL     MW 2740   2.642   1.730   1.208 -0.1459 -0.6207 -0.4949
  686SOL     OW 2741   2.896   0.779   1.512  0.0043  0.1139 -0.0553
  686SOL    HW1 2742   2.893   0.722   1.590 -2.1258  2.4676  0.7564
  686SOL    HW2 2743   2.981   0.761   1.473  0.3048  2.5181  1.4390
  686SOL     MW 2744   2.907   0.769   1.517 -0.2371  0.7417  0.2489
  687SOL     OW 2745   2.121   0.232   1.140  0.2963  0.1680 -0.1274
  687SOL    HW1 2746   2.137   0.151   1.087  2.3527 -1.3762  1.4500
  687SOL    HW2 2747   2.050   0.285   1.100 -0.9489  0.4116  1.6898
  687SOL     MW 2748   2.114   0.228   1.128  0.4033 -0.0036  0.3205
  688SOL     OW 2749   2.389   0.584   1.443  0.4946  0.1077  0.4272
  688SOL    HW1 2750   2.341   0.516   1.389 -2.5291 -3.7064  1.9927
  688SOL    HW2 2751   2.315   0.617   1.495 -3.2421 -1.4355 -0.5344
  688SOL     MW 2752   2.373   0.579   1.443 -0.3974 -0.5992  0.5069
  689SOL     OW 2753   2.527   0.747   2.990 -0.0460  0.2879  0.7821
  689SOL    HW1 2754   2.545   0.840   2.975  0.1688 -0.4259  0.3164
  689SOL    HW2 2755   2.577   0.737   3.067 -3.6751  1.6246 -2.3577
  689SOL     MW 2756   2.536   0.758   2.998 -0.4965  0.3701  0.3064
  690SOL     OW 2757   2.042   0.951   1.899 -0.1324 -0.4084 -0.2401
  690SOL    HW1 2758   2.024   0.852   1.895  0.3106 -2.0559  2.9594
  690SOL    HW2 2759   2.051   0.976   1.804 -0.1979 -1.4605 -3.0909
  690SOL     MW 2760   2.041   0.941   1.886 -0.0826 -0.7646 -0.1941
  691SOL     OW 2761   2.391   0.282   0.898 -0.2785  0.6623  0.0876
  691SOL    HW1 2762   2.466   0.339   0.909  1.7779 -1.0931  0.6209
  691SOL    HW2 2763   2.314   0.340   0.891 -1.3731  0.6053 -0.2646
  691SOL     MW 2764   2.391   0.297   0.899 -0.1516  0.4232  0.1115
  692SOL     OW 2765   2.816   1.695   1.447  0.7284  0.2769 -0.9871
  692SOL    HW1 2766   2.803   1.626   1.515  0.7907  0.8183  1.4484
  692SOL    HW2 2767   2.871   1.761   1.494  0.9911  0.9422  1.8627
  692SOL     MW 2768   2.821   1.695   1.462  0.7713  0.4361 -0.2898
  693SOL     OW 2769   2.283   0.415   0.101  0.7236 -0.2662  0.2417
  693SOL    HW1 2770   2.205   0.353   0.084 -1.2959  0.6586  2.6394
  693SOL    HW2 2771   2.268   0.504   0.082  2.8169 -2.7140  1.5090
  693SOL     MW 2772   2.271   0.418   0.096  0.7333 -0.4672  0.7253
  694SOL     OW 2773   1.937   1.192   1.140  0.4050 -0.6465  0.8640
  694SOL    HW1 2774   2.029   1.208   1.156 -1.3111  0.7796 -1.8907
  694SOL    HW2 2775   1.905   1.142   1.212  3.7273  1.8829  2.1722
  694SOL     MW 2776   1.945   1.188   1.152  0.6170 -0.1246  0.6731
  695SOL     OW 2777   3.013   1.484   1.341 -0.2090  0.2372 -0.2597
  695SOL    HW1 2778   2.996   1.445   1.255  0.8050 -1.4477 -0.6217
  695SOL    HW2 2779   2.939   1.537   1.374  1.4114  0.1399 -1.2762
  695SOL     MW 2780   3.001   1.486   1.334  0.1385  0.0020 -0.4416
  696SOL     OW 2781   2.156   1.366   0.867  0.1323 -0.8080 -0.2156
  696SOL    HW1 2782   2.195   1.383   0.948 -0.7960 -0.1217 -4.2418
  696SOL    HW2 2783   2.095   1.294   0.886 -3.1823 -0.6877 -3.9162
  696SOL     MW 2784   2.153   1.359   0.880 -0.4275 -0.7016 -1.2351
  697SOL     OW 2785   2.928   1.061   2.180  0.1951 -0.0548 -0.0494
  697SOL    HW1 2786   2.853   1.111   2.223 -2.4172  0.0023  0.8706
  697SOL    HW2 2787   2.884   0.993   2.132  0.8164  0.6565  2.3000
  697SOL     MW 2788   2.912   1.058   2.179 -0.0676  0.0466  0.3820
  698SOL     OW 2789   2.523   0.293   0.021 -0.6418  0.1010 -0.0767
  698SOL    HW1 2790   2.435   0.324   0.049 -0.9016 -1.2343 -1.6098
  698SOL    HW2 2791   2.553   0.238   0.099 -0.3087  1.2061 -1.5808
  698SOL     MW 2792   2.515   0.290   0.035 -0.6321  0.0706 -0.4774
  699SOL     OW 2793   1.823   1.632   2.016  0.2656  0.3917  0.5239
  699SOL    HW1 2794   1.807   1.538   2.050 -0.8212 -0.7323  2.5838
  699SOL    HW2 2795   1.914   1.641   1.972 -1.6355  1.0950 -2.9782
  699SOL     MW 2796   1.833   1.621   2.015 -0.1286  0.3362  0.3336
  700SOL     OW 2797   2.675   0.954   1.487 -0.8702  0.7607 -0.2198
  700SOL    HW1 2798   2.727   1.016   1.434  1.0593 -1.1882 -0.1815
  700SOL    HW2 2799   2.737   0.875   1.493 -3.5001 -2.5217  0.9547
  700SOL     MW 2800   2.690   0.952   1.481 -0.9626  0.0705 -0.0598
  701SOL     OW 2801   1.626   1.199   2.489  0.3453 -0.2932 -0.1570
  701SOL    HW1 2802   1.709   1.242   2.497 -0.4483 -2.0024 -1.4683
  701SOL    HW2 2803   1.583   1.228   2.570 -0.7422  4.1012  0.2869
  701SOL     MW 2804   1.632   1.208   2.501  0.0971  0.0611 -0.2715
  702SOL     OW 2805   2.163   0.422   0.834  0.2754  0.5223 -0.7801
  702SOL    HW1 2806   2.175   0.343   0.771 -1.4838  0.1937  0.2718
  702SOL    HW2 2807   2.189   0.490   0.772  0.2708 -0.7401 -1.0625
  702SOL     MW 2808   2.168   0.421   0.817  0.0427  0.3124 -0.6786
  703SOL     OW 2809   2.752   1.239   1.010  0.2617 -0.2481  0.4037
  703SOL    HW1 2810   2.712   1.232   0.925 -1.1911 -0.5633  0.5342
  703SOL    HW2 2811   2.744   1.144   1.047  0.8437 -1.4750  1.7020
  703SOL     MW 2812   2.746   1.225   1.003  0.1468 -0.4516  0.5922
  704SOL     OW 2813   3.055   1.233   0.166 -0.2829 -0.6603 -0.9101
  704SOL    HW1 2814   2.985   1.208   0.111  3.9182  1.0814 -2.7173
  704SOL    HW2 2815   3.064   1.204   0.257 -0.6483  0.3489  3.2332
  704SOL     MW 2816   3.047   1.226   0.171  0.2232 -0.2974 -0.6019
  705SOL     OW 2817   2.201   1.645   1.316 -0.6959  0.6951 -0.6776
  705SOL    HW1 2818   2.112   1.632   1.324 -0.6636 -2.5030 -0.7897
  705SOL    HW2 2819   2.248   1.574   1.366  2.1662 -0.3397  2.3470
  705SOL     MW 2820   2.195   1.634   1.324 -0.3140  0.1366 -0.2933
  706SOL     OW 2821   2.985   1.213   0.678 -0.3202  0.4714 -0.2244
  706SOL    HW1 2822   3.057   1.221   0.609  1.4708  1.8862 -2.2142
  706SOL    HW2 2823   2.948   1.299   0.698 -1.7226 -1.8101  1.2407
  706SOL     MW 2824   2.989   1.225   0.672 -0.2689  0.3570 -0.2936
  707SOL     OW 2825   2.429   0.036   1.004  0.2087  0.3626  0.4071
  707SOL    HW1 2826   2.430   0.128   0.997 -3.4567 -1.0709  2.5415
  707SOL    HW2 2827   2.334   0.014   0.984 -0.7037 -1.0238 -1.8836
  707SOL     MW 2828   2.417   0.045   1.001 -0.3953 -0.0095  0.3865
  708SOL     OW 2829   2.459   1.451   0.160 -0.9892 -0.2975  0.2116
  708SOL    HW1 2830   2.535   1.398   0.191  1.8507  0.6607  1.1302
  708SOL    HW2 2831   2.468   1.466   0.064  1.1870  0.1748 -0.5196
  708SOL     MW 2832   2.470   1.446   0.152 -0.3274 -0.1088  0.2363
  709SOL     OW 2833   1.768   1.623   0.189  0.0493  0.5692  0.3443
  709SOL    HW1 2834   1.750   1.633   0.089  0.5726 -3.9410 -0.4447
  709SOL    HW2 2835   1.704   1.660   0.250  0.6074  2.5424 -0.6408
  709SOL     MW 2836   1.757   1.629   0.184  0.1920  0.2345  0.1102
  710SOL     OW 2837   2.204   1.244   1.207 -0.2881  0.4386 -0.4644
  710SOL    HW1 2838   2.242   1.187   1.138 -0.1442 -1.5327 -0.5363
  710SOL    HW2 2839   2.204   1.182   1.283  0.4577 -0.1777  0.6697
  710SOL     MW 2840   2.209   1.228   1.208 -0.1707  0.0972 -0.3242
  711SOL     OW 2841   2.353   0.117   1.792  0.0591 -0.0930 -0.0691
  711SOL    HW1 2842   2.448   0.120   1.790  0.8072  1.3337 -2.1844
  711SOL    HW2 2843   2.338   0.155   1.706  1.3865  1.1335 -1.5865
  711SOL     MW 2844   2.363   0.123   1.780  0.3329  0.2571 -0.5484
  712SOL     OW 2845   1.943   0.522   0.064 -0.0025  0.2621  1.1736
  712SOL    HW1 2846   1.864   0.531   0.009 -0.3906 -0.1642 -3.2079
  712SOL    HW2 2847   1.954   0.614   0.108 -0.0290  4.1452 -0.4662
  712SOL     MW 2848   1.934   0.536   0.062 -0.0572  0.7182  0.3792
  713SOL     OW 2849   2.552   0.841   1.101 -0.1161  0.0355 -0.8655
  713SOL    HW1 2850   2.543   0.758   1.151 -0.5715  2.1257  0.7442
  713SOL    HW2 2851   2.534   0.916   1.159  3.2023  2.9801  1.0504
  713SOL     MW 2852   2.548   0.840   1.115  0.2617  0.6998 -0.4003
  714SOL     OW 2853   2.215   0.232   2.008  0.0496 -0.2681  0.1614
  714SOL    HW1 2854   2.249   0.184   2.083 -1.7127  1.3918 -1.3816
  714SOL    HW2 2855   2.280   0.231   1.936  1.5205  3.3708  1.0579
  714SOL     MW 2856   2.228   0.226   2.008  0.0111  0.4310  0.0761
  715SOL     OW 2857   1.731   1.946   1.657  0.2566 -0.0806 -0.5348
  715SOL    HW1 2858   1.819   1.918   1.630  1.6561 -2.6581 -1.7455
  715SOL    HW2 2859   1.706   1.869   1.714  0.7328 -1.2641  1.4171
  715SOL     MW 2860   1.740   1.932   1.661  0.5041 -0.5768 -0.4370
  716SOL     OW 2861   2.324   0.630   0.686  0.0628 -0.3973  0.4220
  716SOL    HW1 2862   2.365   0.549   0.654 -0.7130 -0.4460  0.2283
  716SOL    HW2 2863   2.264   0.648   0.613 -0.6595  0.8781  0.8481
  716SOL     MW 2864   2.321   0.622   0.672 -0.1348 -0.2355  0.4527
  717SOL     OW 2865   2.877   1.542   2.933 -0.1431  0.2580 -0.0779
  717SOL    HW1 2866   2.951   1.546   2.991 -0.2406  1.3251  1.0146
  717SOL    HW2 2867   2.821   1.608   2.979 -0.5157 -1.4624  1.2542
  717SOL     MW 2868   2.879   1.551   2.947 -0.2051  0.1718  0.2420
  718SOL     OW 2869   2.678   1.392   1.328  0.5711 -0.2075  0.2470
  718SOL    HW1 2870   2.671   1.410   1.423  1.5458 -0.0269 -0.4461
  718SOL    HW2 2871   2.727   1.304   1.314  0.9458 -1.1536 -1.0725
  718SOL     MW 2872   2.683   1.383   1.338  0.7491 -0.3085 -0.0186
  719SOL     OW 2873   2.180   1.279   0.594 -0.2568  0.0268 -0.3598
  719SOL    HW1 2874   2.269   1.306   0.574  2.1106  0.7487  0.6542
  719SOL    HW2 2875   2.169   1.292   0.691 -1.2236 -2.7325  0.4807
  719SOL     MW 2876   2.190   1.284   0.604 -0.0720 -0.2420 -0.1151
  720SOL     OW 2877   2.792   1.200   0.024 -1.0109  0.4127 -0.6141
  720SOL    HW1 2878   2.808   1.114   0.057 -0.6896  0.0205  0.2762
  720SOL    HW2 2879   2.759   1.258   0.094 -0.7048  1.6148  2.1692
  720SOL     MW 2880   2.790   1.196   0.038 -0.9281  0.5196 -0.1294
  721SOL     OW 2881   2.451   0.868   1.360  0.2920 -0.0751  0.5115
  721SOL    HW1 2882   2.433   0.775   1.377  1.1341  0.6484 -1.0413
  721SOL    HW2 2883   2.518   0.892   1.430  0.8333 -0.3495  0.6372
  721SOL     MW 2884   2.457   0.859   1.371  0.4745 -0.0159  0.3232
  722SOL     OW 2885   2.594   1.160   0.381  0.6204 -0.3198  0.3973
  722SOL    HW1 2886   2.540   1.194   0.455 -2.1325 -2.6784  2.0557
  722SOL    HW2 2887   2.679   1.132   0.424 -1.5884 -0.3585 -2.1350
  722SOL     MW 2888   2.598   1.161   0.397 -0.0343 -0.6361  0.2820
  723SOL     OW 2889   2.248   1.402   1.620 -0.2295 -0.2850 -0.4028
  723SOL    HW1 2890   2.265   1.400   1.520 -0.1773 -3.0379 -0.6824
  723SOL    HW2 2891   2.167   1.451   1.646  0.3058  3.5569  0.8552
  723SOL     MW 2892   2.239   1.408   1.610 -0.1520 -0.1413 -0.2737
  724SOL     OW 2893   2.443   0.395   0.642 -0.1781 -0.1309  0.1198
  724SOL    HW1 2894   2.434   0.325   0.703  0.1939  0.0853 -1.3190
  724SOL    HW2 2895   2.534   0.422   0.645  0.7334 -0.2813  1.3951
  724SOL     MW 2896   2.454   0.389   0.651 -0.0088 -0.1222  0.0983
  725SOL     OW 2897   2.577   0.560   1.200 -0.0623  0.4916  0.6716
  725SOL    HW1 2898   2.657   0.560   1.263  1.8576  1.3423  2.9678
  725SOL    HW2 2899   2.511   0.565   1.265 -0.6007  4.0283 -0.8987
  725SOL     MW 2900   2.579   0.561   1.217  0.1200  1.0705  0.7674
  726SOL     OW 2901   2.593   2.439   0.544 -0.6589  0.2573  0.2303
  726SOL    HW1 2902   2.539   2.494   0.487 -0.7802 -1.1234 -2.2219
  726SOL    HW2 2903   2.548   2.425   0.631  3.1698 -0.4496 -0.7394
  726SOL     MW 2904   2.580   2.444   0.548 -0.1697 -0.0181 -0.2212
  727SOL     OW 2905   2.874   0.301   1.633 -0.1855  0.4570  0.3328
  727SOL    HW1 2906   2.852   0.288   1.540  1.5061 -4.0228 -0.0844
  727SOL    HW2 2907   2.798   0.319   1.688 -0.5745  1.7232 -0.4360
  727SOL     MW 2908   2.861   0.301   1.628 -0.0136  0.0330  0.1763
  728SOL     OW 2909   2.820   1.163   2.851 -0.0665  0.3114 -0.0667
  728SOL    HW1 2910   2.804   1.246   2.801 -0.9518  1.2766 -0.0667
  728SOL    HW2 2911   2.808   1.197   2.946 -0.4903  0.4513 -1.2465
  728SOL     MW 2912   2.816   1.178   2.857 -0.2392  0.4572 -0.2224
  729SOL     OW 2913   2.556   1.519   1.106  0.0556  0.0749 -0.2784
  729SOL    HW1 2914   2.618   1.468   1.161  2.8884  0.0749 -0.2516
  729SOL    HW2 2915   2.593   1.512   1.014 -0.5582 -0.4258  0.7897
  729SOL     MW 2916   2.569   1.511   1.101  0.3484  0.0089 -0.1339
  730SOL     OW 2917   2.150   1.181   0.208  0.3768  0.1023  0.0575
  730SOL    HW1 2918   2.241   1.185   0.198 -0.4300  0.6045  3.9662
  730SOL    HW2 2919   2.121   1.273   0.217  0.5613  1.2570  3.3759
  730SOL     MW 2920   2.158   1.194   0.208  0.2947  0.3209  1.0110
  731SOL     OW 2921   2.824   1.907   2.869 -0.2561 -0.3299  0.4279
  731SOL    HW1 2922   2.737   1.939   2.837 -2.7961  1.4023 -0.5233
  731SOL    HW2 2923   2.891   1.978   2.858  1.5903  1.0977  0.4021
  731SOL     MW 2924   2.822   1.921   2.863 -0.3476  0.0870  0.2990
  732SOL     OW 2925   2.199   0.964   1.341  0.3982  0.4549 -0.3005
  732SOL    HW1 2926   2.175   0.965   1.434  0.4226  0.8594 -1.0612
  732SOL    HW2 2927   2.293   0.954   1.345  1.3594  0.2338 -1.6799
  732SOL     MW 2928   2.208   0.963   1.354  0.5283  0.4791 -0.5828
  733SOL     OW 2929   2.349   2.769   3.062  0.4553 -0.3040 -0.0819
  733SOL    HW1 2930   2.260   2.803   3.042 -1.8656 -1.6088 -2.1779
  733SOL    HW2 2931   2.347   2.675   3.040  1.2737  0.6445 -0.5779
  733SOL     MW 2932   2.337   2.761   3.056  0.2570 -0.3510 -0.4239
  734SOL     OW 2933   1.454   0.374   2.442 -0.2171  0.2711  0.2813
  734SOL    HW1 2934   1.443   0.349   2.533 -0.2976 -2.1065 -0.8920
  734SOL    HW2 2935   1.505   0.301   2.396  1.5623  1.1998 -2.6082
  734SOL     MW 2936   1.460   0.361   2.448  0.0071  0.0799 -0.2547
  735SOL     OW 2937   2.921   0.906   2.600 -0.1601 -0.9727 -0.0592
  735SOL    HW1 2938   2.954   0.820   2.573 -0.3258  0.3066  0.0444
  735SOL    HW2 2939   2.937   0.916   2.697  1.8021  0.9705  1.1568
  735SOL     MW 2940   2.927   0.896   2.609  0.0769 -0.5475  0.1149
  736SOL     OW 2941   0.124   0.569   2.521  0.0541 -0.2985  0.0380
  736SOL    HW1 2942   0.160   0.642   2.476  1.4275  1.3728  1.6934
  736SOL    HW2 2943   0.096   0.510   2.451 -0.8915  1.2116 -0.4640
  736SOL     MW 2944   0.125   0.571   2.506  0.1106  0.1213  0.1901
  737SOL     OW 2945   2.964   0.630   2.543 -0.4740 -0.2601 -0.1458
  737SOL    HW1 2946   2.917   0.582   2.474  0.2110 -1.9273  0.7078
  737SOL    HW2 2947   3.055   0.601   2.525  0.4425  2.6183 -1.6055
  737SOL     MW 2948   2.970   0.620   2.532 -0.2627 -0.1003 -0.2258
  738SOL     OW 2949   0.208   0.585   1.885 -0.7720  0.6150  0.0253
  738SOL    HW1 2950   0.298   0.613   1.911 -1.7816 -1.1035  2.4029
  738SOL    HW2 2951   0.224   0.498   1.848 -1.5207  1.6564  2.4111
  738SOL     MW 2952   0.222   0.577   1.884 -1.0040  0.5257  0.6538
  739SOL     OW 2953   2.429   1.077   2.097  0.4336  0.1579 -0.4416
  739SOL    HW1 2954   2.390   0.989   2.074  0.2343 -1.5803 -0.4400
  739SOL    HW2 2955   2.483   1.100   2.020 -2.3050  2.3782 -2.2988
  739SOL     MW 2956   2.431   1.069   2.084  0.0460  0.2215 -0.6864
  740SOL     OW 2957   0.242   1.773   2.956 -0.2323 -0.3723  0.2358
  740SOL    HW1 2958   0.208   1.683   2.949  0.7112 -0.0027 -1.0596
  740SOL    HW2 2959   0.336   1.751   2.961  0.6709 -0.6182 -0.6567
  740SOL     MW 2960   0.250   1.758   2.956  0.0113 -0.3560 -0.0529
  741SOL     OW 2961   2.272   1.254   2.715 -0.0570 -0.6821  0.0775
  741SOL    HW1 2962   2.209   1.302   2.665  1.0370 -0.4156 -1.2170
  741SOL    HW2 2963   2.253   1.284   2.803  0.6627  0.9120 -0.5663
  741SOL     MW 2964   2.261   1.264   2.720  0.1823 -0.4366 -0.1782
  742SOL     OW 2965   1.534   1.265   2.209 -0.6215  0.2070  0.0921
  742SOL    HW1 2966   1.519   1.171   2.193  2.3255 -1.3170  0.2377
  742SOL    HW2 2967   1.533   1.273   2.306  0.7096 -0.0619  0.3265
  742SOL     MW 2968   1.532   1.254   2.219 -0.0570 -0.0296  0.1422
  743SOL     OW 2969   2.531   1.269   2.792  0.2390  0.1144 -0.0933
  743SOL    HW1 2970   2.460   1.264   2.728  0.1153  1.2203 -2.5360
  743SOL    HW2 2971   2.554   1.171   2.826  0.0359  0.0233 -0.3700
  743SOL     MW 2972   2.525   1.256   2.788  0.1959  0.2483 -0.4521
  744SOL     OW 2973   2.726   0.953   1.759  0.6345  0.0133 -0.3192
  744SOL    HW1 2974   2.648   1.001   1.801  0.3679 -1.7368  2.0736
  744SOL    HW2 2975   2.701   0.952   1.663  0.8847  1.8595 -2.2247
  744SOL     MW 2976   2.713   0.959   1.752  0.6324  0.0260 -0.2549
  745SOL     OW 2977   1.737   0.438   2.512 -0.0929  0.1877 -0.7325
  745SOL    HW1 2978   1.757   0.465   2.421 -5.2593  2.0294  1.3588
  745SOL    HW2 2979   1.646   0.406   2.510 -2.4181  1.6991  1.9863
  745SOL     MW 2980   1.728   0.437   2.500 -1.0814  0.6301 -0.0978
  746SOL     OW 2981   1.531   1.430   1.632  0.5395  0.3142 -0.5756
  746SOL    HW1 2982   1.627   1.427   1.635  2.0172  1.1138  0.7676
  746SOL    HW2 2983   1.514   1.383   1.717 -2.3282  0.6042  0.6893
  746SOL     MW 2984   1.541   1.423   1.643  0.3561  0.4580 -0.2315
  747SOL     OW 2985   2.534   1.111   1.840  0.3560 -0.1846 -0.1503
  747SOL    HW1 2986   2.462   1.097   1.783 -2.1984  2.0360  0.7626
  747SOL    HW2 2987   2.540   1.204   1.853 -0.4234 -0.7735 -0.9229
  747SOL     MW 2988   2.525   1.122   1.834 -0.0839  0.0307 -0.1318
  748SOL     OW 2989   0.122   0.068   1.819 -0.0437 -0.1614  0.1488
  748SOL    HW1 2990   0.196   0.027   1.854  0.2561  0.2204  1.3885
  748SOL    HW2 2991   0.081   0.121   1.888 -0.6543  3.1895 -0.5498
  748SOL     MW 2992   0.126   0.070   1.833 -0.0847  0.3311  0.2202
  749SOL     OW 2993   2.402   0.561   2.807  0.4919  0.0274  0.2463
  749SOL    HW1 2994   2.405   0.623   2.733  0.0745 -2.2012 -1.5589
  749SOL    HW2 2995   2.446   0.615   2.866  0.0093  3.4521  0.1105
  749SOL     MW 2996   2.408   0.576   2.805  0.3732  0.1852 -0.0098
  750SOL     OW 2997   2.065   3.098   1.958  0.0341  0.8168 -0.1762
  750SOL    HW1 2998   2.121   3.173   1.966  0.3067 -0.6893 -2.3338
  750SOL    HW2 2999   2.119   3.018   1.964  0.4630 -0.9891  1.6785
  750SOL     MW 3000   2.080   3.098   1.960  0.1266  0.3798 -0.2161
  751SOL     OW 3001   0.017   0.431   2.323 -0.1425 -0.4215 -0.1831
  751SOL    HW1 3002  -0.041   0.358   2.353 -0.7673 -0.3708 -0.4675
  751SOL    HW2 3003   0.096   0.387   2.291 -0.3866  0.3954  1.0495
  751SOL     MW 3004   0.020   0.416   2.323 -0.2572 -0.3070 -0.0580
  752SOL     OW 3005   2.110   0.851   2.714 -0.1700  0.1401  0.0938
  752SOL    HW1 3006   2.199   0.884   2.700  0.9462 -0.0351 -0.2102
  752SOL    HW2 3007   2.087   0.857   2.805 -0.8823 -1.4190 -0.5970
  752SOL     MW 3008   2.118   0.856   2.725 -0.1167 -0.0887 -0.0375
  753SOL     OW 3009   2.886   0.266   2.342  0.3008 -1.0880  0.4173
  753SOL    HW1 3010   2.823   0.209   2.294 -0.7032  0.4567  0.7486
  753SOL    HW2 3011   2.834   0.347   2.360  1.7151  1.7955  1.9578
  753SOL     MW 3012   2.871   0.269   2.338  0.3550 -0.5038  0.6643
  754SOL     OW 3013   2.237   3.005   2.674  0.0194  0.2438 -0.3122
  754SOL    HW1 3014   2.213   2.977   2.580 -0.0261  0.7245 -0.9399
  754SOL    HW2 3015   2.300   2.937   2.706 -1.7837 -0.4143  0.3671
  754SOL     MW 3016   2.242   2.992   2.666 -0.2245  0.2204 -0.3054
  755SOL     OW 3017   2.724   1.583   2.466 -0.0529  0.2037 -0.6724
  755SOL    HW1 3018   2.714   1.506   2.523 -0.1574 -1.4786 -0.9377
  755SOL    HW2 3019   2.763   1.658   2.514  3.1457 -2.1494 -1.2258
  755SOL     MW 3020   2.728   1.582   2.480  0.3554 -0.3288 -0.7804
  756SOL     OW 3021   2.254   1.327   3.011  0.1292  0.3300  0.7758
  756SOL    HW1 3022   2.329   1.387   3.003  0.5203  0.0911  1.1254
  756SOL    HW2 3023   2.289   1.234   3.024 -2.9940 -0.5037 -0.5260
  756SOL     MW 3024   2.269   1.323   3.012 -0.2313  0.1885  0.6502
  757SOL     OW 3025   2.105   0.992   1.645 -0.3076 -0.2412 -0.1970
  757SOL    HW1 3026   2.132   0.900   1.632  1.6538 -0.1639 -3.6367
  757SOL    HW2 3027   2.018   1.007   1.609 -0.3199 -1.0285  1.8256
  757SOL     MW 3028   2.097   0.982   1.638 -0.0504 -0.3349 -0.3840
  758SOL     OW 3029   2.188   1.800   2.665 -0.3470 -0.2210  0.0808
  758SOL    HW1 3030   2.158   1.825   2.577  0.8774  2.5195  0.3735
  758SOL    HW2 3031   2.277   1.763   2.666 -1.4863  1.4509 -0.7985
  758SOL     MW 3032   2.196   1.798   2.654 -0.3357  0.3611  0.0034
  759SOL     OW 3033   1.550   1.313   2.722 -0.2299 -0.2379 -0.3626
  759SOL    HW1 3034   1.575   1.401   2.696 -1.6127 -0.4791  1.1929
  759SOL    HW2 3035   1.623   1.283   2.771  2.1762  0.4746  0.2618
  759SOL     MW 3036   1.563   1.321   2.725 -0.0949 -0.1757 -0.0750
  760SOL     OW 3037   2.587   1.963   2.721 -0.3384  0.1948 -0.2838
  760SOL    HW1 3038   2.547   1.881   2.707 -3.1164 -3.3204 -1.4358
  760SOL    HW2 3039   2.663   1.965   2.664 -1.0691  1.2243 -3.1642
  760SOL     MW 3040   2.592   1.952   2.712 -0.8013 -0.1332 -0.8158
  761SOL     OW 3041   2.078   0.421   2.472 -0.1634 -0.2151 -0.3621
  761SOL    HW1 3042   2.057   0.333   2.476 -2.1602 -0.4889  3.0826
  761SOL    HW2 3043   2.086   0.456   2.563 -0.3311 -0.8198 -1.4302
  761SOL     MW 3044   2.077   0.414   2.484 -0.4490 -0.3310 -0.0485
  762SOL     OW 3045   3.099   0.189   2.044 -0.2957 -0.3109 -0.5200
  762SOL    HW1 3046   3.070   0.129   2.114  0.1939 -1.2671 -1.2222
  762SOL    HW2 3047   3.021   0.247   2.041  0.0750  0.8306 -2.8891
  762SOL     MW 3048   3.085   0.189   2.053 -0.1822 -0.2865 -0.9252
  763SOL     OW 3049   2.383   1.098   2.358  1.2201 -0.1911 -0.5301
  763SOL    HW1 3050   2.412   1.083   2.265 -2.3707  0.2210 -0.4785
  763SOL    HW2 3051   2.440   1.167   2.394 -0.8216  0.8290  0.6991
  763SOL     MW 3052   2.394   1.105   2.351  0.4769 -0.0021 -0.3611
  764SOL     OW 3053   0.375   0.210   2.789 -0.2344  0.4511 -0.4536
  764SOL    HW1 3054   0.294   0.229   2.741  1.3330  1.7763 -0.8862
  764SOL    HW2 3055   0.383   0.282   2.857 -3.0388  0.3071  1.5290
  764SOL     MW 3056   0.365   0.222   2.792 -0.3976  0.6069 -0.2491
  765SOL     OW 3057   2.668   0.087   2.284  0.8107  0.1660  0.4387
  765SOL    HW1 3058   2.622   0.068   2.200 -0.4860  1.8741  0.9885
  765SOL    HW2 3059   2.735   0.020   2.301 -0.0119 -0.0647 -1.1516
  765SOL     MW 3060   2.671   0.076   2.275  0.5311  0.3609  0.3015
  766SOL     OW 3061   1.855   3.035   2.120 -0.5763 -0.0147  0.1982
  766SOL    HW1 3062   1.915   3.052   2.047  0.8964  0.2689  0.4208
  766SOL    HW2 3063   1.789   2.975   2.084 -0.1053 -3.1049  2.9175
  766SOL     MW 3064   1.854   3.029   2.105 -0.3199 -0.3850  0.5863
  767SOL     OW 3065   2.677   0.642   1.938 -0.3653 -0.4246  0.1760
  767SOL    HW1 3066   2.731   0.719   1.967  0.6712 -0.5004  2.8754
  767SOL    HW2 3067   2.589   0.637   1.978 -3.6048  0.5309  1.1187
  767SOL     MW 3068   2.673   0.651   1.947 -0.6560 -0.3085  0.6565
  768SOL     OW 3069   0.089   1.536   2.992  0.1365  0.5295 -0.1729
  768SOL    HW1 3070   0.090   1.488   3.075 -0.1355  1.5270  0.1345
  768SOL    HW2 3071   0.096   1.473   2.917  1.2120  0.2460 -3.1193
  768SOL     MW 3072   0.090   1.521   2.993  0.2425  0.6237 -0.5211
  769SOL     OW 3073   2.329   0.666   2.313 -0.0387  0.1696 -0.2646
  769SOL    HW1 3074   2.249   0.628   2.282  0.6588 -2.4134  3.0887
  769SOL    HW2 3075   2.402   0.606   2.309  1.3302  2.9722  0.0858
  769SOL     MW 3076   2.328   0.653   2.309  0.2340  0.1986  0.2241
  770SOL     OW 3077   0.058   1.692   2.599  0.7904  0.0930 -0.5227
  770SOL    HW1 3078  -0.039   1.702   2.615 -1.5052  2.9745  0.1927
  770SOL    HW2 3079   0.085   1.600   2.625 -0.5074  1.3671  0.2574
  770SOL     MW 3080   0.048   1.681   2.605  0.3163  0.6413 -0.3254
  771SOL     OW 3081   3.065   0.669   1.941  0.1440 -0.9216 -0.4351
  771SOL    HW1 3082   3.012   0.668   1.853 -0.8745 -0.6146 -1.0658
  771SOL    HW2 3083   3.151   0.643   1.915 -1.3821 -1.2458 -0.9280
  771SOL     MW 3084   3.070   0.665   1.926 -0.1917 -0.9238 -0.5833
  772SOL     OW 3085   3.092   0.019   2.259 -0.1062 -0.0330 -0.6320
  772SOL    HW1 3086   3.012  -0.021   2.297 -2.4089  0.5711  2.3308
  772SOL    HW2 3087   3.136  -0.058   2.224 -1.0677  0.0423 -1.2686
  772SOL     MW 3088   3.087   0.004   2.259 -0.5369  0.0566 -0.3251
  773SOL     OW 3089   2.412   2.804   2.758  0.0337 -0.7043  0.1339
  773SOL    HW1 3090   2.403   2.722   2.706  0.4043  0.9406  1.4570
  773SOL    HW2 3091   2.433   2.790   2.852 -1.1796 -0.5038  0.6887
  773SOL     MW 3092   2.413   2.791   2.764 -0.0775 -0.4608  0.3816
  774SOL     OW 3093   2.271   1.166   1.753  0.3618  0.4643  0.8349
  774SOL    HW1 3094   2.262   1.247   1.703 -2.0125  1.0546  0.4234
  774SOL    HW2 3095   2.207   1.112   1.713 -1.7806  1.8407 -0.5139
  774SOL     MW 3096   2.261   1.170   1.741 -0.2342  0.7238  0.6026
  775SOL     OW 3097   2.232   2.999   2.407  0.3140 -0.6160  0.2080
  775SOL    HW1 3098   2.263   3.066   2.347  3.7640 -1.5459 -1.4204
  775SOL    HW2 3099   2.282   2.919   2.393  1.1731  0.8707 -0.1150
  775SOL     MW 3100   2.243   2.997   2.397  0.8825 -0.5425 -0.0494
  776SOL     OW 3101   0.110   1.442   0.142 -0.5210 -0.3138  0.8124
  776SOL    HW1 3102   0.194   1.388   0.131 -1.0348  0.7443 -1.4331
  776SOL    HW2 3103   0.043   1.370   0.139 -1.0202  2.9141 -2.3535
  776SOL     MW 3104   0.112   1.425   0.140 -0.6547  0.2517  0.0984
  777SOL     OW 3105   3.004   1.058   1.691 -0.4291  0.0776 -0.2509
  777SOL    HW1 3106   3.015   1.141   1.640 -1.5948 -0.7152 -0.5057
  777SOL    HW2 3107   2.914   1.062   1.711  1.1133 -1.2597  0.7458
  777SOL     MW 3108   2.993   1.070   1.687 -0.3794 -0.2035 -0.1530
  778SOL     OW 3109   2.873   0.447   2.754  0.3626  0.2099  0.0632
  778SOL    HW1 3110   2.811   0.477   2.821  2.2596  0.2924 -2.7404
  778SOL    HW2 3111   2.905   0.533   2.711  0.9744 -1.4377 -0.6226
  778SOL     MW 3112   2.869   0.462   2.757  0.6936  0.0034 -0.3972
  779SOL     OW 3113   2.102   0.583   2.234  0.2310  0.4055  0.5371
  779SOL    HW1 3114   2.029   0.637   2.244 -0.1473  1.4741 -1.1305
  779SOL    HW2 3115   2.093   0.523   2.303  0.6190  2.6528  2.0655
  779SOL     MW 3116   2.091   0.582   2.245  0.2323  0.8430  0.5188
  780SOL     OW 3117   0.084   0.209   2.777 -0.1476  0.0198  0.0967
  780SOL    HW1 3118   0.078   0.231   2.870  0.3596  2.7624  0.4718
  780SOL    HW2 3119  -0.002   0.225   2.741  0.1291  0.4959  1.3478
  780SOL     MW 3120   0.072   0.214   2.785 -0.0442  0.4445  0.3113
  781SOL     OW 3121   3.059   1.321   2.557  0.0994  0.1956  0.6825
  781SOL    HW1 3122   3.069   1.363   2.470  2.6525  0.1168  0.3433
  781SOL    HW2 3123   3.085   1.234   2.535  0.8090  0.9219  0.4312
  781SOL     MW 3124   3.064   1.315   2.543  0.5299  0.2810  0.6046
  782SOL     OW 3125   0.755   1.462   3.064  0.2749 -0.7155 -0.6264
  782SOL    HW1 3126   0.670   1.477   3.104  2.6495 -0.2156 -2.1149
  782SOL    HW2 3127   0.821   1.478   3.139  1.3448  0.0785  1.0212
  782SOL     MW 3128   0.753   1.466   3.080  0.7294 -0.5447 -0.6054
  783SOL     OW 3129   2.735   0.493   2.387  0.0580 -0.2535  0.0163
  783SOL    HW1 3130   2.666   0.487   2.321  0.1601  1.3877  1.0495
  783SOL    HW2 3131   2.692   0.486   2.473  0.9432 -1.8393 -1.1578
  783SOL     MW 3132   2.720   0.491   2.390  0.1883 -0.2462 -0.0023
  784SOL     OW 3133   0.183   0.832   2.823  0.3429 -0.3210  0.5666
  784SOL    HW1 3134   0.101   0.858   2.782  2.1376  1.2985  1.8131
  784SOL    HW2 3135   0.255   0.854   2.752  1.9037  0.7202 -3.5010
  784SOL     MW 3136   0.182   0.839   2.808  0.7856  0.0301  0.1944
  785SOL     OW 3137   0.419   0.504   2.181  0.1697  0.2387 -0.0538
  785SOL    HW1 3138   0.449   0.557   2.105  3.5418 -0.9119 -0.4312
  785SOL    HW2 3139   0.339   0.464   2.154 -0.3926 -1.4564  0.7919
  785SOL     MW 3140   0.413   0.506   2.168  0.5404 -0.1367  0.0080
  786SOL     OW 3141   1.986   0.375   2.952  0.4853  0.5169 -0.1674
  786SOL    HW1 3142   1.999   0.423   3.028 -0.1038 -0.9415 -4.2288
  786SOL    HW2 3143   2.066   0.340   2.915  0.5200  0.1352  0.1388
  786SOL     MW 3144   1.998   0.377   2.957  0.4121  0.2741 -0.6629
  787SOL     OW 3145   2.422   0.212   2.875 -0.0178  0.1690 -0.2007
  787SOL    HW1 3146   2.481   0.146   2.843  0.1237  2.9613  0.3860
  787SOL    HW2 3147   2.468   0.257   2.950  1.8426  2.5809  2.8863
  787SOL     MW 3148   2.436   0.209   2.881  0.2463  0.8556  0.2840
  788SOL     OW 3149   2.846   3.006   2.381 -0.3874  0.3648  0.2774
  788SOL    HW1 3150   2.866   3.035   2.466 -2.3299 -3.9081 -2.3559
  788SOL    HW2 3151   2.849   2.912   2.363  3.3294 -1.5872  1.1285
  788SOL     MW 3152   2.849   2.997   2.390 -0.1533 -0.4565  0.0423
  789SOL     OW 3153   0.067   0.215   3.038 -0.4835  0.1335  0.5610
  789SOL    HW1 3154  -0.015   0.164   3.055  0.5989 -0.8482 -0.8337
  789SOL    HW2 3155   0.040   0.304   3.042 -4.6223 -0.5327 -2.0370
  789SOL     MW 3156   0.053   0.220   3.041 -0.8867 -0.0839  0.0342
  790SOL     OW 3157   3.100   1.075   2.434 -0.2523 -0.0825  0.0067
  790SOL    HW1 3158   3.030   1.020   2.481 -3.5974 -2.4585 -0.4023
  790SOL    HW2 3159   3.061   1.079   2.347 -1.2512 -0.0325  0.4924
  790SOL     MW 3160   3.085   1.068   2.429 -0.8254 -0.3894  0.0168
  791SOL     OW 3161   2.612   0.395   2.628  0.4524 -0.4764 -0.3902
  791SOL    HW1 3162   2.544   0.418   2.689 -2.0611  0.6771 -0.7492
  791SOL    HW2 3163   2.682   0.357   2.677 -0.4770  0.7376 -1.7173
  791SOL     MW 3164   2.613   0.393   2.642 -0.0019 -0.1640 -0.6127
  792SOL     OW 3165   2.341   0.342   2.399 -0.5139 -0.8770  0.5232
  792SOL    HW1 3166   2.270   0.396   2.435 -2.4193 -1.6793 -0.2758
  792SOL    HW2 3167   2.370   0.284   2.468  3.4365 -1.2711  0.6144
  792SOL     MW 3168   2.335   0.341   2.413 -0.2441 -1.0349  0.4298
  793SOL     OW 3169   1.818   1.106   1.962 -0.9664 -0.4044  0.0664
  793SOL    HW1 3170   1.774   1.138   1.880 -2.6335 -0.1253  1.1370
  793SOL    HW2 3171   1.899   1.069   1.930  1.9631 -0.6607 -1.7499
  793SOL     MW 3172   1.823   1.106   1.947 -0.7998 -0.4014 -0.0320
  794SOL     OW 3173   1.422   2.250   0.158  0.0668 -0.4218  1.0301
  794SOL    HW1 3174   1.428   2.317   0.088  0.6558  0.4019 -1.5550
  794SOL    HW2 3175   1.493   2.263   0.216 -1.3812  0.6885 -0.6833
  794SOL     MW 3176   1.432   2.261   0.157 -0.0465 -0.1666  0.4629
  795SOL     OW 3177   2.341   0.994   2.632  0.1399 -1.1869  0.1476
  795SOL    HW1 3178   2.291   1.064   2.681 -0.0362  0.4595  0.0471
  795SOL    HW2 3179   2.349   1.024   2.539 -1.1265 -0.4868  0.7727
  795SOL     MW 3180   2.335   1.007   2.626 -0.0504 -0.8773  0.2168
  796SOL     OW 3181   0.289   0.580   2.748 -0.5390  0.1444 -0.5421
  796SOL    HW1 3182   0.237   0.646   2.789  0.2454 -1.5867  0.7426
  796SOL    HW2 3183   0.250   0.569   2.658 -2.7165 -3.0570 -1.3142
  796SOL     MW 3184   0.277   0.587   2.742 -0.7228 -0.5064 -0.4745
  797SOL     OW 3185   2.610   0.114   2.534 -0.1942  0.1724 -0.4452
  797SOL    HW1 3186   2.580   0.200   2.545 -2.2037  1.9811  2.7871
  797SOL    HW2 3187   2.643   0.093   2.438 -0.0695 -0.9065  0.2163
  797SOL     MW 3188   2.611   0.122   2.523 -0.4429  0.2687  0.0685
  798SOL     OW 3189   2.296   0.116   2.234  0.2350 -0.4463  0.0060
  798SOL    HW1 3190   2.322   0.195   2.288  1.0904  1.9298 -3.4039
  798SOL    HW2 3191   2.377   0.076   2.194  1.3342 -0.8562  0.5256
  798SOL     MW 3192   2.310   0.121   2.236  0.4929 -0.1869 -0.3754
  799SOL     OW 3193   2.521   2.961   3.088 -0.3757  0.3656  0.3629
  799SOL    HW1 3194   2.462   2.880   3.077 -1.6492  0.2538  1.2711
  799SOL    HW2 3195   2.460   3.028   3.069  0.1643 -2.4854 -0.2334
  799SOL     MW 3196   2.505   2.959   3.084 -0.4725 -0.0253  0.4040
  800SOL     OW 3197   1.938   0.028   1.712 -0.2960  0.8631  0.2807
  800SOL    HW1 3198   1.863  -0.028   1.734  0.0297 -0.6547  0.9678
  800SOL    HW2 3199   1.988   0.045   1.790  0.5439  0.9933  2.7961
  800SOL     MW 3200   1.934   0.023   1.725 -0.1422  0.6800  0.7032
  801SOL     OW 3201   2.779   1.308   2.600  0.0698 -0.0407 -0.6625
  801SOL    HW1 3202   2.772   1.216   2.598 -0.0297  0.8179 -5.1733
  801SOL    HW2 3203   2.873   1.322   2.570 -0.2486 -0.2038  0.7058
  801SOL     MW 3204   2.790   1.298   2.596  0.0147  0.0511 -1.0771
  802SOL     OW 3205   2.619   1.511   2.758 -0.2138 -0.0394  0.5698
  802SOL    HW1 3206   2.596   1.412   2.760 -1.0605 -0.3917 -0.7978
  802SOL    HW2 3207   2.715   1.507   2.778  0.5229 -0.1380 -0.4568
  802SOL     MW 3208   2.629   1.497   2.761 -0.2283 -0.0989  0.2539
  803SOL     OW 3209   2.249   1.366   1.968 -0.3408  0.6046 -0.5274
  803SOL    HW1 3210   2.229   1.323   2.055  0.9730 -2.9595  0.9832
  803SOL    HW2 3211   2.247   1.296   1.902 -2.3398  2.7139 -3.9528
  803SOL     MW 3212   2.246   1.351   1.971 -0.4312  0.4127 -0.7801
  804SOL     OW 3213   2.292   0.047   3.078  0.5214 -0.2445 -0.0563
  804SOL    HW1 3214   2.214   0.096   3.113 -2.2225  1.1332  0.5809
  804SOL    HW2 3215   2.324   0.103   3.010 -2.2473 -0.8897 -2.0569
  804SOL     MW 3216   2.286   0.061   3.073 -0.2060 -0.1478 -0.2362
  805SOL     OW 3217   2.664   1.041   2.576 -0.2597  0.2046 -0.2638
  805SOL    HW1 3218   2.621   0.986   2.512  1.4671 -1.5746  0.1182
  805SOL    HW2 3219   2.752   0.998   2.595 -0.1901 -0.9368  1.1769
  805SOL     MW 3220   2.670   1.028   2.570 -0.0227 -0.1807 -0.0233
  806SOL     OW 3221   2.518   0.480   2.229 -0.1664  0.4856 -0.4859
  806SOL    HW1 3222   2.465   0.415   2.280 -0.5355  1.9913  3.5061
  806SOL    HW2 3223   2.478   0.496   2.144  0.1262  1.8865  1.0233
  806SOL     MW 3224   2.505   0.474   2.224 -0.1765  0.8691  0.2399
  807SOL     OW 3225   0.048   1.103   2.038  0.3778 -0.3492  1.0380
  807SOL    HW1 3226   0.086   1.021   2.006 -1.6311  1.0206 -4.0925
  807SOL    HW2 3227  -0.040   1.089   2.091 -2.4222 -1.6400  2.4372
  807SOL     MW 3228   0.041   1.090   2.041 -0.2567 -0.3388  0.5457
  808SOL     OW 3229   2.546   3.101   2.777  0.1119 -0.3449 -0.4933
  808SOL    HW1 3230   2.498   3.022   2.763  0.9927  0.5168 -0.4133
  808SOL    HW2 3231   2.572   3.134   2.688  2.5868  0.6377 -0.7601
  808SOL     MW 3232   2.543   3.095   2.764  0.5547 -0.1016 -0.5179
  809SOL     OW 3233   2.564   1.286   2.402 -0.5816 -0.1787  0.0930
  809SOL    HW1 3234   2.644   1.283   2.455  1.0557  1.7201  1.5445
  809SOL    HW2 3235   2.607   1.300   2.317 -1.4216  0.6694  0.9015
  809SOL     MW 3236   2.580   1.287   2.398 -0.4764  0.1837  0.3912
  810SOL     OW 3237   2.211   1.275   2.247  0.2159  0.3441  0.3286
  810SOL    HW1 3238   2.283   1.218   2.289  0.0681 -0.7120  2.1694
  810SOL    HW2 3239   2.142   1.213   2.224 -2.1080  0.0577  1.4558
  810SOL     MW 3240   2.211   1.259   2.249 -0.1102  0.1670  0.7202
  811SOL     OW 3241   1.552   0.147   2.316  0.0394  0.0726  0.0185
  811SOL    HW1 3242   1.612   0.090   2.362  2.3826 -2.6347  0.6942
  811SOL    HW2 3243   1.569   0.125   2.221  3.0611 -1.6662  0.8360
  811SOL     MW 3244   1.562   0.136   2.309  0.7473 -0.5140  0.2155
  812SOL     OW 3245   1.505   2.879   2.108  0.4419 -0.0678 -0.0404
  812SOL    HW1 3246   1.598   2.856   2.065 -0.5032  1.8603  0.9909
  812SOL    HW2 3247   1.510   2.836   2.192  0.1023  0.5362 -0.0395
  812SOL     MW 3248   1.518   2.870   2.113  0.2724  0.2663  0.0958
  813SOL     OW 3249   1.873   0.721   2.158  0.0254  0.6661 -0.3599
  813SOL    HW1 3250   1.829   0.628   2.186 -1.7332  1.1947 -2.4747
  813SOL    HW2 3251   1.886   0.764   2.245  0.0222 -0.4434  0.8283
  813SOL     MW 3252   1.869   0.714   2.173 -0.2071  0.5895 -0.4822
  814SOL     OW 3253   2.732   1.274   1.599  0.2110  0.1081  0.0538
  814SOL    HW1 3254   2.701   1.208   1.662 -0.4251  0.3003 -0.4152
  814SOL    HW2 3255   2.761   1.221   1.516 -0.3773 -1.9576 -2.6593
  814SOL     MW 3256   2.732   1.258   1.596  0.0494 -0.1391 -0.3660
  815SOL     OW 3257   2.475   1.668   2.319 -0.3592  0.1680  0.0652
  815SOL    HW1 3258   2.419   1.592   2.285  1.3280 -0.5088  2.7313
  815SOL    HW2 3259   2.559   1.640   2.345  1.1148  0.7631 -2.9802
  815SOL     MW 3260   2.479   1.654   2.318  0.0579  0.1572  0.0152
  816SOL     OW 3261   0.781   0.673   2.779 -0.0803 -0.0450 -0.5365
  816SOL    HW1 3262   0.773   0.589   2.824 -1.8548 -0.8708  2.3253
  816SOL    HW2 3263   0.699   0.668   2.730  1.4648 -2.0584 -0.6828
  816SOL     MW 3264   0.769   0.661   2.778 -0.1106 -0.4196 -0.1782
  817SOL     OW 3265   3.077   1.265   1.498 -0.1752  0.3476 -0.1747
  817SOL    HW1 3266   3.171   1.247   1.511  0.3392  0.8863 -0.0749
  817SOL    HW2 3267   3.079   1.354   1.477 -0.2061 -2.2410  1.7901
  817SOL     MW 3268   3.090   1.274   1.497 -0.1114  0.0771  0.0977
  818SOL     OW 3269   1.921   1.048   2.676  0.2751  0.1212  0.1464
  818SOL    HW1 3270   1.902   1.041   2.585 -1.8698  1.1438  0.7068
  818SOL    HW2 3271   1.974   0.968   2.695 -1.1688 -1.8052 -0.7406
  818SOL     MW 3272   1.925   1.036   2.667 -0.1984  0.0019  0.1033
  819SOL     OW 3273   1.902   0.198   2.465 -0.2504 -0.4565 -0.2227
  819SOL    HW1 3274   1.861   0.289   2.477  1.0082 -2.7116  1.8961
  819SOL    HW2 3275   1.950   0.189   2.554 -1.4775  1.6622  0.5495
  819SOL     MW 3276   1.903   0.209   2.478 -0.2463 -0.4745  0.1588
  820SOL     OW 3277   2.464   1.701   2.607 -0.4655  0.3582  0.0242
  820SOL    HW1 3278   2.504   1.624   2.654 -0.0337  1.1038 -1.6000
  820SOL    HW2 3279   2.441   1.668   2.520  0.7713 -1.3135 -0.0531
  820SOL     MW 3280   2.466   1.687   2.602 -0.2454  0.2360 -0.2003
  821SOL     OW 3281   2.574   1.373   1.964  0.1621 -0.7799 -0.0741
  821SOL    HW1 3282   2.585   1.459   1.909  2.3588  0.0061  0.9643
  821SOL    HW2 3283   2.483   1.346   1.975 -0.6339 -3.3384 -0.4360
  821SOL     MW 3284   2.564   1.381   1.958  0.3469 -1.0137  0.0151
  822SOL     OW 3285   2.746   2.608   1.482  0.3029 -0.6692  0.0794
  822SOL    HW1 3286   2.809   2.631   1.549 -0.8929 -2.3068 -1.9842
  822SOL    HW2 3287   2.702   2.691   1.461 -0.7838  1.6348  2.1791
  822SOL     MW 3288   2.748   2.622   1.488  0.0017 -0.5813  0.0842
  823SOL     OW 3289   2.281   0.508   1.742 -0.1152  0.0026  0.4850
  823SOL    HW1 3290   2.365   0.471   1.701  0.6090  2.7344 -0.4985
  823SOL    HW2 3291   2.217   0.441   1.711  1.4020 -3.3310 -1.0199
  823SOL     MW 3292   2.284   0.494   1.733  0.1806 -0.0768  0.1567
  824SOL     OW 3293   2.088   1.406   2.581 -0.3051 -0.4013  0.0173
  824SOL    HW1 3294   2.148   1.457   2.524 -1.0495  0.5226  0.4116
  824SOL    HW2 3295   2.032   1.473   2.626  0.9161 -2.3405  0.6188
  824SOL     MW 3296   2.088   1.422   2.580 -0.2422 -0.5353  0.1487
  825SOL     OW 3297   1.970   2.555   0.280 -0.4451 -0.1862 -0.1833
  825SOL    HW1 3298   1.954   2.486   0.346  1.2352  1.7060  2.2015
  825SOL    HW2 3299   2.054   2.541   0.231  1.2164 -1.6450 -0.6237
  825SOL     MW 3300   1.979   2.544   0.282 -0.0042 -0.1290  0.0733
  826SOL     OW 3301   1.902   2.402   0.483 -0.0328  0.7598 -0.3711
  826SOL    HW1 3302   1.874   2.345   0.554 -0.4057  0.6265  1.6996
  826SOL    HW2 3303   1.882   2.491   0.510  0.6092  1.8373  1.0878
  826SOL     MW 3304   1.896   2.406   0.496  0.0027  0.8843  0.0946
  827SOL     OW 3305   1.942   2.220   0.970  0.3444 -0.2316  0.7034
  827SOL    HW1 3306   1.898   2.305   0.944  2.1695  0.7300 -0.1029
  827SOL    HW2 3307   1.882   2.147   0.992  0.6968 -2.4225  3.1125
  827SOL     MW 3308   1.928   2.221   0.969  0.6317 -0.3938  0.9148
  828SOL     OW 3309   0.067   2.622   0.570  0.2575  0.4601  0.3165
  828SOL    HW1 3310   0.163   2.631   0.573  1.4912  1.2192 -0.9797
  828SOL    HW2 3311   0.048   2.646   0.483  3.4307 -3.5772 -0.5778
  828SOL     MW 3312   0.077   2.627   0.559  0.8390  0.0276  0.0275
  829SOL     OW 3313   2.929   2.936   1.235  0.3637  0.1894  0.3792
  829SOL    HW1 3314   2.854   2.928   1.173  1.0025 -0.6130 -1.4488
  829SOL    HW2 3315   2.971   2.849   1.232 -0.7001 -1.1116 -1.9193
  829SOL     MW 3316   2.925   2.924   1.226  0.3076 -0.0881 -0.1653
  830SOL     OW 3317   2.496   2.861   2.004  0.2762 -0.3229 -0.2268
  830SOL    HW1 3318   2.409   2.865   1.960  0.9406  4.1152  0.7739
  830SOL    HW2 3319   2.553   2.832   1.932 -0.0731  1.6658  1.9237
  830SOL     MW 3320   2.492   2.857   1.989  0.3178  0.5251  0.1890
  831SOL     OW 3321   2.414   2.401   1.308 -0.1945 -0.6078 -0.2028
  831SOL    HW1 3322   2.388   2.360   1.390  2.9089 -0.5168 -0.8885
  831SOL    HW2 3323   2.508   2.366   1.294  0.8755  1.6419  1.1611
  831SOL     MW 3324   2.423   2.391   1.317  0.3561 -0.2989 -0.1133
  832SOL     OW 3325   2.423   2.192   1.913  0.2821  0.2591  0.0107
  832SOL    HW1 3326   2.452   2.281   1.950  1.5762 -1.2628 -0.0455
  832SOL    HW2 3327   2.501   2.159   1.863  0.9740  1.3231 -1.1790
  832SOL     MW 3328   2.437   2.199   1.911  0.5441  0.1987 -0.1537
  833SOL     OW 3329   1.783   2.472   0.885 -0.0582  0.0894  0.1905
  833SOL    HW1 3330   1.693   2.428   0.881  1.6705  0.5060 -3.1002
  833SOL    HW2 3331   1.780   2.528   0.971  3.7997  0.3409 -2.2524
  833SOL     MW 3332   1.771   2.473   0.896  0.6789  0.1776 -0.5660
  834SOL     OW 3333   2.234   2.488   0.610  0.1515 -0.1942  0.4714
  834SOL    HW1 3334   2.177   2.417   0.640 -0.4059  0.3795  0.3182
  834SOL    HW2 3335   2.277   2.460   0.528  4.3051  1.7622 -2.3739
  834SOL     MW 3336   2.232   2.475   0.604  0.6260  0.1396  0.0758
  835SOL     OW 3337   1.748   2.608   0.656 -0.7114  0.5883  0.0817
  835SOL    HW1 3338   1.763   2.555   0.735 -1.8719  0.7728 -1.4004
  835SOL    HW2 3339   1.819   2.680   0.678  1.0417  0.8467  2.5074
  835SOL     MW 3340   1.759   2.611   0.669 -0.6332  0.6467  0.2062
  836SOL     OW 3341   1.933   2.203   1.620  0.6715 -0.3797  0.1977
  836SOL    HW1 3342   2.016   2.226   1.660 -0.3357  2.0583 -1.9200
  836SOL    HW2 3343   1.867   2.272   1.634 -0.4016 -1.9084  0.8547
  836SOL     MW 3344   1.935   2.215   1.627  0.3970 -0.2597  0.0049
  837SOL     OW 3345   2.141   0.204   0.679 -0.5885  0.4591  0.1197
  837SOL    HW1 3346   2.057   0.236   0.660 -0.6158 -0.0317  1.1482
  837SOL    HW2 3347   2.144   0.122   0.622  1.1221 -1.3687  0.3889
  837SOL     MW 3348   2.130   0.197   0.669 -0.3664  0.1532  0.2909
  838SOL     OW 3349   2.933   2.145   0.870 -0.2956 -0.1869  0.4059
  838SOL    HW1 3350   2.854   2.108   0.917  1.6475 -0.4574  1.5686
  838SOL    HW2 3351   2.980   2.072   0.830  0.3805  0.2697 -2.1651
  838SOL     MW 3352   2.929   2.130   0.871  0.0500 -0.1624  0.2201
  839SOL     OW 3353   1.546   2.348   0.928  0.0954  0.0740 -0.0563
  839SOL    HW1 3354   1.508   2.439   0.942 -1.3505  1.3011 -1.3786
  839SOL    HW2 3355   1.540   2.304   1.012 -0.6756 -0.9197 -2.5749
  839SOL     MW 3356   1.540   2.354   0.941 -0.1971  0.1048 -0.5631
  840SOL     OW 3357   2.306   2.101   2.393  0.6388 -0.4248  0.1115
  840SOL    HW1 3358   2.291   2.182   2.338 -1.2353 -0.6805 -0.8813
  840SOL    HW2 3359   2.362   2.144   2.456  0.0615  0.4904  0.1523
  840SOL     MW 3360   2.311   2.117   2.394  0.3154 -0.3378 -0.0141
  841SOL     OW 3361   2.173   2.435   0.102  0.2314 -0.4011  0.0965
  841SOL    HW1 3362   2.178   2.449   0.010  0.0704  0.8694 -0.3432
  841SOL    HW2 3363   2.101   2.370   0.108 -1.0533  0.3134  1.0493
  841SOL     MW 3364   2.164   2.428   0.090  0.0407 -0.1392  0.1642
  842SOL     OW 3365   2.682   1.957   1.590 -0.0702  0.4408 -0.2775
  842SOL    HW1 3366   2.610   1.897   1.601 -1.9257  0.2524 -0.7108
  842SOL    HW2 3367   2.648   2.009   1.524  1.2419  1.2911  0.4158
  842SOL     MW 3368   2.668   1.956   1.583 -0.1419  0.5282 -0.2432
  843SOL     OW 3369   2.642   2.767   1.793  0.4528  0.0115  0.2976
  843SOL    HW1 3370   2.726   2.734   1.823  0.4888 -2.2836 -1.5797
  843SOL    HW2 3371   2.604   2.701   1.735 -0.2290  3.0241  0.6704
  843SOL     MW 3372   2.648   2.754   1.790  0.3676  0.1061  0.0991
  844SOL     OW 3373   2.617   2.258   1.224  0.1234 -0.4802  0.2570
  844SOL    HW1 3374   2.654   2.292   1.133  2.4282 -0.7613 -1.6393
  844SOL    HW2 3375   2.681   2.293   1.295  1.9921 -0.2951  1.3575
  844SOL     MW 3376   2.631   2.267   1.221  0.6741 -0.4929  0.1520
  845SOL     OW 3377   2.853   2.459   0.304  0.4254  0.6449 -0.7392
  845SOL    HW1 3378   2.807   2.375   0.314 -0.5760  2.5474 -1.0335
  845SOL    HW2 3379   2.872   2.479   0.394 -0.3818  1.9239  0.3436
  845SOL     MW 3380   2.849   2.450   0.317  0.1868  1.0647 -0.6352
  846SOL     OW 3381   1.523   2.855   0.766 -0.2964 -0.3983  0.3534
  846SOL    HW1 3382   1.591   2.904   0.813  2.2714  0.9147 -1.9049
  846SOL    HW2 3383   1.437   2.858   0.810  1.7911  1.4218  0.2238
  846SOL     MW 3384   1.521   2.862   0.778  0.3178  0.0151  0.0384
  847SOL     OW 3385   2.501   1.885   0.156 -0.3432  0.3076 -0.1396
  847SOL    HW1 3386   2.564   1.819   0.186 -0.9866  3.3701 -0.9140
  847SOL    HW2 3387   2.486   1.852   0.067  2.0260  3.7467  0.9597
  847SOL     MW 3388   2.508   1.872   0.148 -0.1155  1.1654 -0.0967
  848SOL     OW 3389   2.519   2.061   1.383 -0.5548  0.0934 -0.7167
  848SOL    HW1 3390   2.561   2.102   1.301 -0.6073  0.9275 -1.4401
  848SOL    HW2 3391   2.469   1.981   1.353  0.3738 -1.7853  3.5812
  848SOL     MW 3392   2.518   2.055   1.368 -0.4392 -0.0444 -0.2451
  849SOL     OW 3393   1.945   2.764   0.740 -0.5448  0.2211 -0.0283
  849SOL    HW1 3394   1.982   2.708   0.814 -0.6169  1.7271  0.5419
  849SOL    HW2 3395   2.018   2.798   0.686 -1.2962 -1.8740  1.5555
  849SOL     MW 3396   1.960   2.761   0.743 -0.6535  0.1433  0.2559
  850SOL     OW 3397   2.230   1.930   1.675 -0.1620  0.1984  0.6558
  850SOL    HW1 3398   2.153   1.879   1.647 -0.8585 -2.5193  1.7828
  850SOL    HW2 3399   2.213   2.024   1.677  1.6221 -0.1983 -0.7570
  850SOL     MW 3400   2.218   1.936   1.671 -0.0185 -0.2125  0.6181
  851SOL     OW 3401   2.297   2.391   0.344  0.6736 -0.4211  0.2267
  851SOL    HW1 3402   2.260   2.379   0.254  0.5579  1.9208  0.5305
  851SOL    HW2 3403   2.369   2.465   0.329  0.1661 -0.3861 -0.1202
  851SOL     MW 3404   2.301   2.399   0.330  0.5913 -0.1075  0.2210
  852SOL     OW 3405   2.353   2.100   0.310 -0.3618 -0.4744  0.1067
  852SOL    HW1 3406   2.376   2.192   0.312  0.5183 -2.3152  1.8934
  852SOL    HW2 3407   2.424   2.062   0.268 -0.2867  0.3855 -3.4338
  852SOL     MW 3408   2.365   2.107   0.304 -0.2358 -0.6038 -0.1247
  853SOL     OW 3409   2.496   2.447   1.996 -0.0656  0.1288  0.0288
  853SOL    HW1 3410   2.508   2.492   1.906  1.1028 -1.5523  1.0613
  853SOL    HW2 3411   2.586   2.422   2.023 -0.9688  3.6077 -1.3574
  853SOL     MW 3412   2.510   2.450   1.988 -0.0306  0.3660 -0.0179
  854SOL     OW 3413   2.825   2.360   0.755  0.2103 -0.0399  0.0436
  854SOL    HW1 3414   2.753   2.309   0.717 -0.8091 -1.1900 -0.6824
  854SOL    HW2 3415   2.888   2.293   0.787  1.9225  1.3927 -1.8661
  854SOL     MW 3416   2.824   2.344   0.754  0.3017 -0.0027 -0.3042
  855SOL     OW 3417   2.718   2.230   0.376 -0.3955 -0.3790 -0.1546
  855SOL    HW1 3418   2.688   2.281   0.457  3.1585 -0.4862 -0.8376
  855SOL    HW2 3419   2.790   2.185   0.418 -0.6075  0.1045  1.2987
  855SOL     MW 3420   2.724   2.231   0.392  0.0454 -0.3293 -0.0530
  856SOL     OW 3421   2.187   1.944   0.153 -0.5098  0.0697 -0.2544
  856SOL    HW1 3422   2.096   1.925   0.183 -0.5621  0.5803  1.5637
  856SOL    HW2 3423   2.225   2.016   0.206  0.6966 -0.8385 -0.2018
  856SOL     MW 3424   2.180   1.951   0.164 -0.3575  0.0172 -0.0076
  857SOL     OW 3425   2.565   1.991   0.497 -1.4217  0.1761  0.1016
  857SOL    HW1 3426   2.595   2.051   0.423 -0.3222 -1.4859 -0.0717
  857SOL    HW2 3427   2.485   1.963   0.468  1.0350 -3.9824  2.7838
  857SOL     MW 3428   2.558   1.995   0.484 -0.9525 -0.5919  0.4326
  858SOL     OW 3429   2.895   2.638   1.732  0.4176  0.0425  0.6268
  858SOL    HW1 3430   2.984   2.663   1.742 -0.6909  0.3834  0.5766
  858SOL    HW2 3431   2.900   2.545   1.760  1.9109 -0.5222  3.4834
  858SOL     MW 3432   2.907   2.629   1.737  0.4684  0.0130  0.9970
  859SOL     OW 3433   2.105   2.566   0.949 -0.5172 -0.1584  0.7430
  859SOL    HW1 3434   2.072   2.508   1.016 -0.4184  1.5761 -0.2373
  859SOL    HW2 3435   2.190   2.528   0.920 -0.5053 -1.2073 -1.3764
  859SOL     MW 3436   2.112   2.554   0.954 -0.5026 -0.0679  0.3340
  860SOL     OW 3437   2.684   2.597   0.162  0.3869  0.4362 -0.1096
  860SOL    HW1 3438   2.753   2.552   0.225 -1.0359 -1.1341 -1.1493
  860SOL    HW2 3439   2.728   2.664   0.107 -0.5587  1.9732 -2.4308
  860SOL     MW 3440   2.699   2.600   0.163  0.0744  0.4318 -0.5531
  861SOL     OW 3441   1.571   2.140   1.172  0.2909 -0.3776  0.1675
  861SOL    HW1 3442   1.586   2.215   1.228 -0.5167  0.3853 -1.0566
  861SOL    HW2 3443   1.504   2.090   1.216  0.3821  0.0197  0.8275
  861SOL     MW 3444   1.564   2.143   1.185  0.1964 -0.2245  0.0931
  862SOL     OW 3445   2.454   1.776   1.540  0.4413  0.3048 -0.3056
  862SOL    HW1 3446   2.365   1.804   1.576 -0.7243  0.4778  2.9227
  862SOL    HW2 3447   2.448   1.798   1.444  1.8263  0.8195 -1.5188
  862SOL     MW 3448   2.442   1.783   1.532  0.4703  0.3955 -0.0398
  863SOL     OW 3449   3.024   1.819   1.061 -0.6020  0.3363 -0.3947
  863SOL    HW1 3450   3.103   1.774   1.095 -2.5668  0.6145 -2.3408
  863SOL    HW2 3451   3.008   1.886   1.131  1.8663  1.0926 -0.4518
  863SOL     MW 3452   3.033   1.822   1.074 -0.5355  0.4728 -0.6590
  864SOL     OW 3453   3.059   1.897   0.808  0.0904 -1.3744  0.2848
  864SOL    HW1 3454   3.048   1.865   0.896 -0.1924  2.1881  0.7515
  864SOL    HW2 3455   3.019   1.833   0.745 -1.9353  0.7578 -1.8608
  864SOL     MW 3456   3.052   1.885   0.811 -0.2142 -0.6230  0.0633
  865SOL     OW 3457   2.606   2.153   0.015 -0.5961  0.0016  0.1804
  865SOL    HW1 3458   2.593   2.079   0.076  0.9625 -1.1181  1.3635
  865SOL    HW2 3459   2.552   2.132  -0.060 -1.7298 -1.7040  1.5713
  865SOL     MW 3460   2.597   2.140   0.013 -0.5400 -0.3712  0.5200
  866SOL     OW 3461   2.683   2.341   1.673 -0.0194  0.7624  0.5370
  866SOL    HW1 3462   2.698   2.249   1.695  0.5875  0.8190 -0.5662
  866SOL    HW2 3463   2.731   2.365   1.591 -4.3348  2.0852  0.4055
  866SOL     MW 3464   2.691   2.332   1.665 -0.5087  0.9444  0.3741
  867SOL     OW 3465   0.040   2.730   1.816  0.0727  0.4729  0.1742
  867SOL    HW1 3466   0.067   2.721   1.911  0.4401  0.3768  1.6229
  867SOL    HW2 3467   0.018   2.821   1.805  0.3003 -1.5371  0.1792
  867SOL     MW 3468   0.040   2.741   1.827  0.1512  0.1950  0.3660
  868SOL     OW 3469   2.851   2.588   0.550  0.5738  0.3169  0.1376
  868SOL    HW1 3470   2.775   2.532   0.569  0.2263 -0.4289  0.3304
  868SOL    HW2 3471   2.813   2.668   0.510  1.3033 -0.1399  2.0566
  868SOL     MW 3472   2.836   2.591   0.547  0.6242  0.1582  0.4162
  869SOL     OW 3473   2.082   2.359   1.141 -1.1404 -0.4004 -0.6341
  869SOL    HW1 3474   2.179   2.348   1.123 -0.6491 -1.4508  0.8550
  869SOL    HW2 3475   2.037   2.297   1.081  1.7955 -0.1813 -1.6029
  869SOL     MW 3476   2.089   2.349   1.130 -0.6882 -0.5101 -0.5655
  870SOL     OW 3477   2.162   0.026   0.479  0.4097  0.1616 -0.3525
  870SOL    HW1 3478   2.238   0.066   0.445 -0.3397 -0.4151  0.0812
  870SOL    HW2 3479   2.155  -0.067   0.461 -0.6994 -0.8697 -0.9353
  870SOL     MW 3480   2.171   0.019   0.472  0.1645 -0.0505 -0.3722
  871SOL     OW 3481   2.510   2.146   0.934  0.5077 -0.3857 -0.1636
  871SOL    HW1 3482   2.462   2.070   0.956  1.7522  1.1766  2.2392
  871SOL    HW2 3483   2.463   2.219   0.982  1.3454  1.1581 -0.5041
  871SOL     MW 3484   2.497   2.146   0.943  0.7825  0.0241  0.1085
  872SOL     OW 3485   1.979   2.557   1.514 -0.3283 -0.1670  0.2112
  872SOL    HW1 3486   1.949   2.598   1.597 -0.9301 -0.3164 -0.4434
  872SOL    HW2 3487   1.930   2.475   1.494  2.7200 -2.5413 -0.9198
  872SOL     MW 3488   1.968   2.552   1.522 -0.0055 -0.5000 -0.0244
  873SOL     OW 3489   2.925   2.045   1.927  0.1534 -0.8554  0.5932
  873SOL    HW1 3490   2.924   2.101   2.005 -0.9738  1.6398 -0.3981
  873SOL    HW2 3491   3.009   2.075   1.880  0.1147  2.4087  1.4141
  873SOL     MW 3492   2.936   2.056   1.931 -0.0004 -0.0955  0.5707
  874SOL     OW 3493   2.276   1.503   2.401  0.0818  0.0759  0.2722
  874SOL    HW1 3494   2.250   1.431   2.331 -0.9830  0.0323 -0.9510
  874SOL    HW2 3495   2.351   1.470   2.454 -0.9129 -0.9317  2.4915
  874SOL     MW 3496   2.282   1.489   2.399 -0.1899 -0.0628  0.4036
  875SOL     OW 3497   2.340   2.319   1.066  0.4777  0.0439 -0.0105
  875SOL    HW1 3498   2.358   2.396   1.007  1.9233 -0.4063 -0.5904
  875SOL    HW2 3499   2.383   2.328   1.153  0.8936  0.5568  0.1226
  875SOL     MW 3500   2.348   2.330   1.070  0.7233  0.0522 -0.0695
  876SOL     OW 3501   3.034   2.283   1.253  0.2519 -0.9355  0.2228
  876SOL    HW1 3502   3.071   2.305   1.164  1.5532  0.6669  2.3394
  876SOL    HW2 3503   3.081   2.343   1.312  2.3848 -3.1216  0.7962
  876SOL     MW 3504   3.045   2.294   1.249  0.7050 -1.0125  0.5777
  877SOL     OW 3505   3.025   2.718   0.322  0.1355  0.3328 -0.4404
  877SOL    HW1 3506   3.081   2.795   0.324 -1.7940  0.1953  0.1865
  877SOL    HW2 3507   3.014   2.697   0.229 -0.3349  1.1226 -2.0341
  877SOL     MW 3508   3.031   2.725   0.310 -0.1812  0.4188 -0.5680
  878SOL     OW 3509   2.398   1.832   1.284 -0.7014  0.3936  0.6055
  878SOL    HW1 3510   2.325   1.774   1.285  1.1179 -3.2337 -0.8904
  878SOL    HW2 3511   2.466   1.791   1.235  0.8173  0.9594 -1.5966
  878SOL     MW 3512   2.397   1.819   1.277 -0.2610 -0.0104  0.1176
  879SOL     OW 3513   2.672   2.401   0.992 -0.0734 -0.4937  0.6673
  879SOL    HW1 3514   2.724   2.480   1.009 -0.5272  0.4916  1.4847
  879SOL    HW2 3515   2.723   2.363   0.924 -1.4868  1.2477  2.6295
  879SOL     MW 3516   2.686   2.407   0.985 -0.3198 -0.1340  1.0341
  880SOL     OW 3517   2.615   2.194   0.698  0.2138 -0.3782 -0.1482
  880SOL    HW1 3518   2.559   2.182   0.787  0.3599 -1.3249  3.3004
  880SOL    HW2 3519   2.608   2.117   0.643 -2.5611 -1.3514  1.5863
  880SOL     MW 3520   2.607   2.182   0.702 -0.1331 -0.6315  0.5357
  881SOL     OW 3521   2.947   2.737   0.786 -0.7649 -0.0756 -0.4271
  881SOL    HW1 3522   2.939   2.689   0.697 -2.3144 -0.6794 -0.8812
  881SOL    HW2 3523   3.028   2.704   0.824 -2.3343  0.8190  0.4312
  881SOL     MW 3524   2.957   2.726   0.779 -1.1764 -0.0372 -0.3738
  882SOL     OW 3525   2.244   2.883   1.925 -0.3291 -0.8580  0.1463
  882SOL    HW1 3526   2.222   2.875   1.829 -2.2126  0.5241  0.5717
  882SOL    HW2 3527   2.183   2.829   1.966  0.6114  0.6836 -0.3864
  882SOL     MW 3528   2.233   2.875   1.917 -0.4535 -0.4722  0.1322
  883SOL     OW 3529   2.310   2.196   1.480  0.4524 -0.7313 -0.1901
  883SOL    HW1 3530   2.397   2.171   1.444 -1.2085  2.7055 -0.5337
  883SOL    HW2 3531   2.251   2.151   1.418  2.0243 -2.3641  1.5893
  883SOL     MW 3532   2.313   2.187   1.467  0.4406 -0.4933 -0.0007
  884SOL     OW 3533   1.965   1.788   1.062 -0.3449 -0.3136 -0.3622
  884SOL    HW1 3534   1.903   1.863   1.053  1.0349 -0.2471  2.2072
  884SOL    HW2 3535   2.061   1.827   1.059  2.0315  0.8033  3.4355
  884SOL     MW 3536   1.969   1.803   1.060  0.1507 -0.1574  0.4779
  885SOL     OW 3537   2.887   2.401   1.832  0.2835 -0.2672 -0.0724
  885SOL    HW1 3538   2.968   2.347   1.815 -1.4954 -1.5463  0.2461
  885SOL    HW2 3539   2.805   2.375   1.784  0.4415  3.2120  0.3331
  885SOL     MW 3540   2.887   2.391   1.823  0.0696  0.0231  0.0231
  886SOL     OW 3541   2.802   2.355   1.399 -0.1940  0.2936  0.1583
  886SOL    HW1 3542   2.878   2.342   1.342  0.9548 -0.4951 -0.5832
  886SOL    HW2 3543   2.783   2.450   1.416 -0.9016  1.3558  1.2725
  886SOL     MW 3544   2.809   2.366   1.394 -0.1358  0.3297  0.2075
  887SOL     OW 3545   2.242   2.640   1.506 -0.4657  0.2426 -0.0155
  887SOL    HW1 3546   2.264   2.654   1.417  1.0081 -1.4085 -0.4742
  887SOL    HW2 3547   2.161   2.588   1.490 -0.3305 -1.5859  0.6437
  887SOL     MW 3548   2.234   2.635   1.492 -0.2534 -0.2165  0.0110
  888SOL     OW 3549   1.890   2.024   1.399 -0.5036 -0.6481  0.3591
  888SOL    HW1 3550   1.968   2.060   1.357 -1.0463  0.9270 -1.8055
  888SOL    HW2 3551   1.902   2.049   1.491 -0.3045 -1.3599 -0.8687
  888SOL     MW 3552   1.902   2.032   1.406 -0.5490 -0.5342 -0.0885
  889SOL     OW 3553   2.290   2.028   2.085 -0.0079 -0.0088 -0.0766
  889SOL    HW1 3554   2.357   1.988   2.138 -2.2520 -0.2548 -1.6705
  889SOL    HW2 3555   2.328   2.096   2.030 -2.7272 -2.1039 -2.6923
  889SOL     MW 3556   2.304   2.032   2.085 -0.6628 -0.3177 -0.6320
  890SOL     OW 3557   0.113   2.348   0.102 -0.6613  0.2006 -0.4023
  890SOL    HW1 3558   0.056   2.427   0.095 -0.9689 -0.0354 -1.1322
  890SOL    HW2 3559   0.090   2.299   0.184 -1.1440  1.5920  2.5342
  890SOL     MW 3560   0.102   2.352   0.112 -0.7656  0.3531 -0.1112
  891SOL     OW 3561   3.018   1.992   1.263 -0.3672 -0.3514 -0.5182
  891SOL    HW1 3562   3.106   1.988   1.298 -0.1483 -0.3163  0.3404
  891SOL    HW2 3563   3.013   2.092   1.258  1.8471 -0.8363  0.1701
  891SOL     MW 3564   3.029   2.005   1.267 -0.0461 -0.4108 -0.3141
  892SOL     OW 3565   2.422   2.354   2.797  0.3911 -0.7328 -0.1270
  892SOL    HW1 3566   2.415   2.265   2.835 -2.3159 -2.0915  2.2346
  892SOL    HW2 3567   2.510   2.382   2.805  0.2971  1.8435 -1.5236
  892SOL     MW 3568   2.433   2.346   2.803  0.0215 -0.5721  0.0004
  893SOL     OW 3569   1.613   2.371   1.311  0.7198 -0.2624 -0.2963
  893SOL    HW1 3570   1.570   2.411   1.383  1.2130  1.9470  1.1809
  893SOL    HW2 3571   1.699   2.351   1.345  0.2608 -0.7523  0.7369
  893SOL     MW 3572   1.618   2.373   1.325  0.7243 -0.0356  0.0349
  894SOL     OW 3573   2.812   1.879   0.490 -0.9105  0.2720 -0.0432
  894SOL    HW1 3574   2.724   1.900   0.508  3.5504  2.5265  0.5422
  894SOL    HW2 3575   2.808   1.846   0.405  0.1819  1.5872  0.0098
  894SOL     MW 3576   2.800   1.878   0.481 -0.1778  0.7430  0.0410
  895SOL     OW 3577   2.135   2.106   1.278  0.4292 -0.1762 -0.9592
  895SOL    HW1 3578   2.140   2.201   1.255  0.7792  1.3971  0.6378
  895SOL    HW2 3579   2.135   2.055   1.197  0.5826 -0.3838  3.4871
  895SOL     MW 3580   2.135   2.112   1.264  0.4956  0.0040 -0.1618
  896SOL     OW 3581   2.179   2.785   1.081 -0.0622  0.2140 -0.5730
  896SOL    HW1 3582   2.264   2.763   1.123  2.4739 -1.2953  1.6096
  896SOL    HW2 3583   2.154   2.695   1.034 -0.9033 -1.2478  1.0532
  896SOL     MW 3584   2.187   2.770   1.080  0.1614 -0.1780 -0.0705
  897SOL     OW 3585   3.009   2.899   0.108 -0.7484  0.4392  0.8221
  897SOL    HW1 3586   3.068   2.881   0.025  1.7031 -1.7693  0.6039
  897SOL    HW2 3587   2.923   2.859   0.098  3.9901  1.0953 -0.3382
  897SOL     MW 3588   3.005   2.892   0.096  0.2003  0.2344  0.6402
  898SOL     OW 3589   2.095   0.158   1.424  0.1719 -0.0331  0.8395
  898SOL    HW1 3590   2.056   0.070   1.439  0.5134  1.8714 -1.5504
  898SOL    HW2 3591   2.097   0.172   1.329  0.9608  0.7948  1.4171
  898SOL     MW 3592   2.090   0.148   1.413  0.3210  0.3274  0.6004
  899SOL     OW 3593   2.902   2.972   0.628 -0.3980 -0.2247  0.0480
  899SOL    HW1 3594   2.921   2.895   0.681  1.3308  0.8226 -0.2351
  899SOL    HW2 3595   2.825   3.018   0.656  1.9782  0.8293 -1.7404
  899SOL     MW 3596   2.894   2.968   0.639  0.1436  0.0525 -0.2253
  900SOL     OW 3597   0.101   2.413   1.080  0.1704 -0.3884  0.4355
  900SOL    HW1 3598   0.107   2.510   1.097  0.9912  1.1755 -1.1150
  900SOL    HW2 3599   0.095   2.395   0.986  0.7246  0.1519  2.1172
  900SOL     MW 3600   0.101   2.423   1.070  0.3518 -0.1108  0.4528
  901SOL     OW 3601   1.760   2.890   1.725 -0.8341  0.1584  0.2917
  901SOL    HW1 3602   1.842   2.831   1.728  0.7425  0.0808 -0.0712
  901SOL    HW2 3603   1.711   2.871   1.643 -1.8468  0.8886  1.4867
  901SOL     MW 3604   1.764   2.880   1.714 -0.7597  0.2445  0.4015
  902SOL     OW 3605   2.687   2.117   1.804 -0.3866  0.0799  0.3927
  902SOL    HW1 3606   2.687   2.055   1.735 -1.8484  1.4525 -1.1301
  902SOL    HW2 3607   2.768   2.092   1.848 -0.7279  0.3966 -0.1589
  902SOL     MW 3608   2.697   2.106   1.801 -0.6245  0.3028  0.1190
  903SOL     OW 3609   1.590   2.780   0.509 -0.2326 -0.0042  0.2229
  903SOL    HW1 3610   1.632   2.699   0.556  0.5584  0.4200  0.1733
  903SOL    HW2 3611   1.560   2.822   0.594  2.4191 -0.2310 -0.6489
  903SOL     MW 3612   1.591   2.775   0.527  0.2216  0.0218  0.1014
  904SOL     OW 3613   2.492   2.533   1.725  0.1856  0.6311 -0.0203
  904SOL    HW1 3614   2.429   2.576   1.664 -1.2785  1.6482 -1.9612
  904SOL    HW2 3615   2.534   2.456   1.688 -1.4705 -1.9499  1.9611
  904SOL     MW 3616   2.490   2.528   1.712 -0.2261  0.4247 -0.0150
  905SOL     OW 3617   2.332   2.569   2.179  0.3590  0.2136  0.0438
  905SOL    HW1 3618   2.386   2.527   2.112 -0.0323  0.7643 -1.6493
  905SOL    HW2 3619   2.291   2.499   2.229  1.0088 -2.0541 -1.0595
  905SOL     MW 3620   2.334   2.554   2.177  0.3931 -0.0129 -0.3251
  906SOL     OW 3621   2.426   2.518   0.876 -0.2144  0.0466 -0.4327
  906SOL    HW1 3622   2.520   2.495   0.907  0.7726  1.2469  1.1754
  906SOL    HW2 3623   2.416   2.619   0.875 -1.3036  1.3277 -0.6289
  906SOL     MW 3624   2.437   2.528   0.880 -0.2279  0.3740 -0.2464
  907SOL     OW 3625   2.606   2.833   1.344  0.2921 -0.7026  0.1310
  907SOL    HW1 3626   2.636   2.912   1.386  1.2979 -1.5853  0.2907
  907SOL    HW2 3627   2.617   2.854   1.254  0.1831  0.1659 -0.2198
  907SOL     MW 3628   2.611   2.846   1.338  0.4104 -0.7045  0.1058
  908SOL     OW 3629   2.735   2.392   3.095  0.6749 -0.0308 -0.4940
  908SOL    HW1 3630   2.677   2.309   3.116 -0.4858 -0.9323  2.9389
  908SOL    HW2 3631   2.696   2.465   3.153  1.1107 -1.6489  1.1167
  908SOL     MW 3632   2.722   2.391   3.106  0.5793 -0.3632  0.1714
  909SOL     OW 3633   1.719   0.138   1.140  0.0448  0.0804 -0.3338
  909SOL    HW1 3634   1.685   0.220   1.107  0.5207 -1.2293 -1.5767
  909SOL    HW2 3635   1.814   0.160   1.166 -0.0780  0.5963  2.0893
  909SOL     MW 3636   1.727   0.152   1.139  0.0914 -0.0244 -0.1781
  910SOL     OW 3637   2.339   1.812   0.403  0.3980 -0.2641  0.5726
  910SOL    HW1 3638   2.277   1.737   0.408  0.0005  1.1076  2.9818
  910SOL    HW2 3639   2.327   1.853   0.318  1.6230 -1.5719 -0.4955
  910SOL     MW 3640   2.329   1.808   0.393  0.5072 -0.2556  0.7496
  911SOL     OW 3641   2.213   2.240   1.737  0.1993  0.2075  0.0665
  911SOL    HW1 3642   2.268   2.206   1.807  2.0540 -0.0042 -2.6594
  911SOL    HW2 3643   2.276   2.249   1.667 -1.5124 -0.9781 -2.4639
  911SOL     MW 3644   2.228   2.237   1.737  0.2182  0.0232 -0.6271
  912SOL     OW 3645   2.949   1.930   1.521 -0.1344  0.1719 -0.0066
  912SOL    HW1 3646   2.973   1.967   1.429  1.3939  0.3303  0.7556
  912SOL    HW2 3647   2.850   1.941   1.530 -1.6321  2.8368 -1.6656
  912SOL     MW 3648   2.939   1.936   1.510 -0.1303  0.5444 -0.1250
  913SOL     OW 3649   2.569   3.018   0.377  0.4370  0.1760 -0.4250
  913SOL    HW1 3650   2.622   2.944   0.356  0.1961  0.4415 -0.4453
  913SOL    HW2 3651   2.487   2.964   0.389  0.5724  1.9565  0.3206
  913SOL     MW 3652   2.565   3.001   0.376  0.4231  0.4460 -0.3293
  914SOL     OW 3653   2.708   1.738   3.055 -0.4338  0.3591 -0.4974
  914SOL    HW1 3654   2.774   1.811   3.029  2.7975 -1.6000  2.9322
  914SOL    HW2 3655   2.628   1.755   3.008 -2.2813 -0.1039 -1.8832
  914SOL     MW 3656   2.706   1.750   3.045 -0.2512  0.0395 -0.2278
  915SOL     OW 3657   1.707   0.223   0.227 -0.4504 -0.0242 -0.1717
  915SOL    HW1 3658   1.782   0.175   0.250 -1.4708  1.4838  1.4290
  915SOL    HW2 3659   1.632   0.160   0.222  1.7461  0.0264  1.2398
  915SOL     MW 3660   1.707   0.208   0.229 -0.2953  0.1814  0.2257
  916SOL     OW 3661   1.819   2.073   1.934 -0.1339  0.4041  0.2741
  916SOL    HW1 3662   1.845   2.167   1.919  0.3835  0.4163  0.2607
  916SOL    HW2 3663   1.847   2.023   1.858  0.2117  0.1538  0.5153
  916SOL     MW 3664   1.826   2.079   1.922 -0.0200  0.3727  0.3041
  917SOL     OW 3665   2.511   2.198   2.557  0.3632 -0.6811 -0.3486
  917SOL    HW1 3666   2.511   2.239   2.642  1.8457  0.3245 -0.2411
  917SOL    HW2 3667   2.570   2.245   2.503 -0.9095 -2.8526  0.4655
  917SOL     MW 3668   2.519   2.210   2.561  0.3909 -0.8349 -0.2270
  918SOL     OW 3669   1.972   1.599   2.704  0.0503  0.3446 -0.0815
  918SOL    HW1 3670   1.916   1.641   2.638  1.5413 -1.4115 -0.4819
  918SOL    HW2 3671   2.052   1.646   2.699  0.7734 -1.4112  1.8971
  918SOL     MW 3672   1.975   1.610   2.694  0.3424 -0.1188  0.1267
  919SOL     OW 3673   0.036   2.321   2.263  0.6800 -0.0197  0.4814
  919SOL    HW1 3674  -0.037   2.259   2.239 -1.4774  1.4425 -0.6613
  919SOL    HW2 3675   0.094   2.330   2.182 -0.4359 -0.1252 -0.8578
  919SOL     MW 3676   0.034   2.314   2.249  0.2481  0.1593  0.1540
  920SOL     OW 3677   2.759   2.817   3.098 -0.4043  0.2248  0.2689
  920SOL    HW1 3678   2.703   2.895   3.115  0.6613  1.9142 -1.6614
  920SOL    HW2 3679   2.723   2.766   3.019 -0.3265 -0.9084  1.2436
  920SOL     MW 3680   2.747   2.820   3.090 -0.2534  0.2982  0.1428
  921SOL     OW 3681   2.434   2.576   2.602  0.2851  0.0879 -0.1279
  921SOL    HW1 3682   2.523   2.607   2.577 -2.3700  0.8833 -0.8668
  921SOL    HW2 3683   2.447   2.499   2.649 -0.8068 -1.3123 -0.6454
  921SOL     MW 3684   2.448   2.570   2.605 -0.2093  0.0081 -0.2937
  922SOL     OW 3685   2.026   2.839   0.307 -0.1589  0.3186  0.5485
  922SOL    HW1 3686   1.986   2.840   0.216 -0.7767  2.2092  0.9293
  922SOL    HW2 3687   2.035   2.742   0.325 -0.5365  0.3541 -0.2385
  922SOL     MW 3688   2.022   2.827   0.297 -0.2902  0.5727  0.4949
  923SOL     OW 3689   2.178   2.835   1.669 -0.3962  0.1044 -0.0195
  923SOL    HW1 3690   2.212   2.767   1.609  1.5624  2.4669  0.0454
  923SOL    HW2 3691   2.131   2.895   1.613 -1.1836  1.2328 -0.1163
  923SOL     MW 3692   2.177   2.834   1.654 -0.2417  0.5650 -0.0237
  924SOL     OW 3693   1.222   2.596   2.494  0.0904  0.0733  0.1800
  924SOL    HW1 3694   1.267   2.675   2.520 -1.7701 -0.6799 -2.0690
  924SOL    HW2 3695   1.239   2.530   2.556 -2.5330  1.4208 -1.4297
  924SOL     MW 3696   1.230   2.598   2.505 -0.5012  0.1517 -0.3291
  925SOL     OW 3697   2.969   0.225   2.602 -0.1148 -0.2546 -0.1214
  925SOL    HW1 3698   2.952   0.242   2.502  0.3957  1.9009  1.8160
  925SOL    HW2 3699   2.951   0.304   2.645  0.3786 -2.8998 -2.7269
  925SOL     MW 3700   2.964   0.237   2.595  0.0176 -0.3192 -0.2096
  926SOL     OW 3701   2.758   2.392   2.096  0.2264 -0.3731  0.0487
  926SOL    HW1 3702   2.821   2.441   2.152 -2.4935 -0.7716  2.2784
  926SOL    HW2 3703   2.807   2.380   2.012 -1.1020 -1.0252 -2.7619
  926SOL     MW 3704   2.773   2.397   2.092 -0.3077 -0.5117 -0.0280
  927SOL     OW 3705   2.358   0.142   0.313  0.5898 -0.1436 -0.1647
  927SOL    HW1 3706   2.449   0.162   0.317  2.3177  2.3230  0.7687
  927SOL    HW2 3707   2.342   0.115   0.226 -1.7335  0.1718  0.6651
  927SOL     MW 3708   2.368   0.141   0.302  0.5113  0.2235  0.0679
  928SOL     OW 3709   2.109   2.447   1.927 -0.2518 -0.0862  0.2922
  928SOL    HW1 3710   2.170   2.394   1.869  3.0777  3.0948  0.6412
  928SOL    HW2 3711   2.101   2.406   2.012 -0.1577 -3.9813 -3.3359
  928SOL     MW 3712   2.116   2.434   1.931  0.1999 -0.1804 -0.1404
  929SOL     OW 3713   2.704   2.375   2.447  0.3074  0.3541 -0.0102
  929SOL    HW1 3714   2.728   2.357   2.360  1.8263 -2.6373  0.0856
  929SOL    HW2 3715   2.773   2.358   2.508 -0.3209  1.9342  0.5843
  929SOL     MW 3716   2.716   2.370   2.443  0.4249  0.1679  0.0809
  930SOL     OW 3717   2.023   2.817   2.707 -0.4410 -0.1753 -0.5792
  930SOL    HW1 3718   2.036   2.739   2.763  0.4957  0.5179  0.2076
  930SOL    HW2 3719   2.104   2.878   2.725 -0.0980  0.6665 -0.4201
  930SOL     MW 3720   2.035   2.814   2.717 -0.2721  0.0273 -0.4544
  931SOL     OW 3721   3.017   2.769   2.295  0.0617 -0.0465  0.4869
  931SOL    HW1 3722   3.033   2.809   2.378 -2.0584  0.8641 -1.9272
  931SOL    HW2 3723   3.108   2.782   2.256  0.2527  0.9800 -0.9913
  931SOL     MW 3724   3.031   2.776   2.301 -0.1928  0.2091 -0.0266
  932SOL     OW 3725   2.825   2.007   2.560  0.0929 -0.2432 -0.3409
  932SOL    HW1 3726   2.921   2.022   2.558  1.2649 -1.7818  0.0843
  932SOL    HW2 3727   2.803   1.983   2.468 -2.5644 -0.6534  1.3463
  932SOL     MW 3728   2.835   2.006   2.547 -0.1030 -0.5003 -0.0622
  933SOL     OW 3729   2.025   2.876   2.286 -0.4834 -0.0642  0.0463
  933SOL    HW1 3730   2.099   2.918   2.324 -1.3053  1.2392 -0.7397
  933SOL    HW2 3731   1.997   2.937   2.215  3.0181  1.1358  1.0105
  933SOL     MW 3732   2.031   2.890   2.282 -0.1298  0.2661  0.0698
  934SOL     OW 3733   1.990   2.680   2.476  0.2783  0.0791  0.2858
  934SOL    HW1 3734   2.004   2.726   2.563 -1.1038  1.4151  0.4813
  934SOL    HW2 3735   2.013   2.748   2.411  2.6533  0.4757  0.3111
  934SOL     MW 3736   1.995   2.695   2.479  0.4093  0.3077  0.3150
  935SOL     OW 3737   2.654   1.589   1.799 -0.0337 -0.2377 -0.2603
  935SOL    HW1 3738   2.745   1.578   1.763  4.9281  1.4211 -1.6036
  935SOL    HW2 3739   2.607   1.573   1.713  1.0420  0.4232 -0.7912
  935SOL     MW 3740   2.660   1.586   1.783  0.7629  0.0684 -0.5076
  936SOL     OW 3741   2.975   2.243   3.070 -0.3210 -0.6344 -0.1377
  936SOL    HW1 3742   3.052   2.289   3.112  0.4615  1.1767 -1.0089
  936SOL    HW2 3743   2.892   2.298   3.078 -0.9092  1.6793 -0.9417
  936SOL     MW 3744   2.975   2.256   3.077 -0.2953 -0.0902 -0.3588
  937SOL     OW 3745   1.952   2.110   2.673  0.0594 -0.0729 -0.3287
  937SOL    HW1 3746   2.040   2.076   2.710 -1.8994  2.4437 -0.3670
  937SOL    HW2 3747   1.942   2.071   2.581 -0.8552 -0.7637 -0.6560
  937SOL     MW 3748   1.962   2.100   2.666 -0.3197  0.1680 -0.3769
  938SOL     OW 3749   2.258   1.818   1.909 -0.6042 -0.5869  0.4719
  938SOL    HW1 3750   2.244   1.864   1.823 -0.7247 -0.2719 -1.3913
  938SOL    HW2 3751   2.249   1.887   1.974  0.4801  3.1690 -0.9138
  938SOL     MW 3752   2.255   1.833   1.906 -0.4770 -0.0498  0.0432
  939SOL     OW 3753   2.776   1.983   2.277 -0.5778 -0.2171  0.6186
  939SOL    HW1 3754   2.798   1.904   2.229  0.3170  2.1435  1.4411
  939SOL    HW2 3755   2.679   1.975   2.287 -2.4110  0.9620  3.1711
  939SOL     MW 3756   2.766   1.971   2.272 -0.7016  0.2500  1.0639
  940SOL     OW 3757   2.327   0.194   2.628 -0.1930 -0.1125 -0.1676
  940SOL    HW1 3758   2.316   0.102   2.629  1.7153  0.8300 -0.9084
  940SOL    HW2 3759   2.360   0.214   2.714  1.7742  2.8839  0.7896
  940SOL     MW 3760   2.330   0.184   2.639  0.3183  0.4072 -0.1390
  941SOL     OW 3761   0.175   2.357   2.044  0.1800  0.4089  0.7384
  941SOL    HW1 3762   0.274   2.343   2.048  3.4189  1.3994 -0.3273
  941SOL    HW2 3763   0.135   2.333   1.953  0.3831  3.4394 -1.5827
  941SOL     MW 3764   0.183   2.352   2.032  0.6341  0.9394  0.2916
  942SOL     OW 3765   2.914   2.178   2.168 -0.7623 -0.5013  0.0819
  942SOL    HW1 3766   2.855   2.255   2.165 -2.9076 -1.5587 -2.2251
  942SOL    HW2 3767   2.867   2.110   2.214 -2.8333  1.6251  1.3867
  942SOL     MW 3768   2.900   2.179   2.174 -1.3186 -0.3602 -0.0503
  943SOL     OW 3769   0.299   2.106   2.244  0.6010  0.0907  0.1288
  943SOL    HW1 3770   0.262   2.163   2.312 -0.9948  1.2198  0.7319
  943SOL    HW2 3771   0.386   2.078   2.277 -1.6129 -0.1080  0.6857
  943SOL     MW 3772   0.305   2.110   2.258  0.0984  0.2134  0.2819
  944SOL     OW 3773   2.084   2.699   2.089 -0.1252  0.4660  0.1388
  944SOL    HW1 3774   2.165   2.655   2.113 -1.0295  1.7186  2.6063
  944SOL    HW2 3775   2.070   2.761   2.166  0.1440 -2.1689 -0.0006
  944SOL     MW 3776   2.093   2.702   2.102 -0.2090  0.2836  0.4460
  945SOL     OW 3777   2.674   2.669   2.871 -0.4714 -0.5553 -0.3592
  945SOL    HW1 3778   2.673   2.573   2.858  0.3786  1.8706 -0.0952
  945SOL    HW2 3779   2.655   2.706   2.786 -1.4617  0.0920  0.1324
  945SOL     MW 3780   2.672   2.661   2.858 -0.4899 -0.1498 -0.2595
  946SOL     OW 3781   2.448   2.780   2.315 -0.4119  0.2819 -0.2336
  946SOL    HW1 3782   2.461   2.833   2.240 -0.2864  2.0575 -0.6032
  946SOL    HW2 3783   2.421   2.701   2.271  0.9905  3.2711  1.5481
  946SOL     MW 3784   2.446   2.777   2.300 -0.2103  0.9106 -0.0473
  947SOL     OW 3785   1.958   0.110   0.312 -0.5910 -0.3985  0.4719
  947SOL    HW1 3786   1.946   0.018   0.276  1.3205 -0.7817  0.7421
  947SOL    HW2 3787   2.026   0.086   0.372  0.5722 -1.1762 -1.2265
  947SOL     MW 3788   1.965   0.095   0.315 -0.1853 -0.5517  0.2835
  948SOL     OW 3789   1.790   2.983   2.682  0.6782  0.4951 -0.0128
  948SOL    HW1 3790   1.867   2.923   2.687  1.0208  1.2415  0.2149
  948SOL    HW2 3791   1.769   2.985   2.592  0.9068 -0.2889  0.8555
  948SOL     MW 3792   1.798   2.976   2.671  0.7536  0.4901  0.1318
  949SOL     OW 3793   2.510   1.942   2.289 -0.2970 -0.6580  0.2487
  949SOL    HW1 3794   2.510   1.844   2.298 -0.8849  1.4995 -1.9864
  949SOL    HW2 3795   2.460   1.973   2.360  0.1827 -3.5824  1.4270
  949SOL     MW 3796   2.503   1.933   2.299 -0.3113 -0.7592  0.1093
  950SOL     OW 3797   2.261   2.506   2.955 -0.1312  0.0865 -0.1856
  950SOL    HW1 3798   2.317   2.459   2.891 -1.7066 -2.2410 -2.5882
  950SOL    HW2 3799   2.180   2.534   2.914  0.8657  1.5699 -1.1206
  950SOL     MW 3800   2.258   2.504   2.941 -0.2075 -0.0249 -0.6260
  951SOL     OW 3801   3.011   2.120   2.820 -0.4508 -0.5256  0.1511
  951SOL    HW1 3802   3.035   2.199   2.872  2.3996  1.3975  0.6119
  951SOL    HW2 3803   3.096   2.076   2.798  0.6684  1.3526  1.0782
  951SOL     MW 3804   3.025   2.124   2.824  0.0729 -0.0240  0.3342
  952SOL     OW 3805   3.079   1.670   2.161 -0.4349 -0.0493 -0.2648
  952SOL    HW1 3806   3.004   1.724   2.135 -1.0230 -0.3973  1.6615
  952SOL    HW2 3807   3.149   1.726   2.198 -1.0615 -0.1360  0.5057
  952SOL     MW 3808   3.078   1.685   2.162 -0.5952 -0.1066  0.0910
  953SOL     OW 3809   1.918   1.798   2.911 -0.0273  0.2005  0.0697
  953SOL    HW1 3810   1.846   1.750   2.953  0.4492 -1.2947  0.2689
  953SOL    HW2 3811   1.929   1.739   2.836  0.1579 -1.5402  1.6361
  953SOL     MW 3812   1.910   1.784   2.906  0.0600 -0.2265  0.3026
  954SOL     OW 3813   2.417   2.101   2.884 -1.0461 -0.2420  0.1678
  954SOL    HW1 3814   2.333   2.063   2.847 -3.8824 -0.2951 -2.8091
  954SOL    HW2 3815   2.477   2.064   2.810 -1.4290 -0.1630 -0.6501
  954SOL     MW 3816   2.414   2.091   2.869 -1.4708 -0.2386 -0.3329
  955SOL     OW 3817   1.564   1.580   2.610 -0.8540  0.1065 -0.9300
  955SOL    HW1 3818   1.544   1.623   2.531  0.8633 -1.1776  0.9755
  955SOL    HW2 3819   1.661   1.590   2.621  0.5796  1.7344  2.2357
  955SOL     MW 3820   1.574   1.587   2.601 -0.4382  0.1518 -0.2609
  956SOL     OW 3821   2.692   2.400   2.826  0.1109  0.2712 -0.4970
  956SOL    HW1 3822   2.734   2.400   2.912 -0.3425 -0.4585  1.3123
  956SOL    HW2 3823   2.763   2.368   2.767  2.5080  0.5030 -1.4371
  956SOL     MW 3824   2.707   2.396   2.830  0.3673  0.2055 -0.3823
  957SOL     OW 3825   2.356   2.853   0.387  0.3535 -0.0848 -0.8427
  957SOL    HW1 3826   2.299   2.827   0.314  1.3705 -0.4891  0.8273
  957SOL    HW2 3827   2.311   2.800   0.457  0.0761 -1.2868  1.2753
  957SOL     MW 3828   2.342   2.842   0.387  0.4511 -0.2967 -0.3429
  958SOL     OW 3829   2.029   2.587   2.847  0.3022  0.4647 -0.2668
  958SOL    HW1 3830   2.020   2.517   2.774  2.3051 -1.8577 -0.3778
  958SOL    HW2 3831   1.942   2.596   2.885  0.2357 -1.8451  0.0221
  958SOL     MW 3832   2.016   2.579   2.842  0.5577 -0.1465 -0.2433
  959SOL     OW 3833   2.478   2.601   0.337 -0.0105 -0.3533  0.2532
  959SOL    HW1 3834   2.542   2.603   0.265 -1.2272  0.5554 -0.1927
  959SOL    HW2 3835   2.463   2.693   0.356  1.6730  2.0870 -4.4043
  959SOL     MW 3836   2.484   2.614   0.330  0.0511  0.0886 -0.4201
  960SOL     OW 3837   1.951   2.274   2.210 -0.1254 -0.4678  0.1596
  960SOL    HW1 3838   1.951   2.177   2.204 -0.0623 -0.8677 -0.7310
  960SOL    HW2 3839   1.890   2.302   2.275 -1.4545 -1.7300 -0.4716
  960SOL     MW 3840   1.943   2.265   2.218 -0.2925 -0.6871 -0.0412
  961SOL     OW 3841   2.208   2.341   2.249 -0.7091 -0.1825  0.1441
  961SOL    HW1 3842   2.129   2.289   2.225 -1.5757 -0.5742  1.4107
  961SOL    HW2 3843   2.185   2.375   2.340  1.7456 -0.8941 -3.2112
  961SOL     MW 3844   2.195   2.339   2.258 -0.4995 -0.3281 -0.1315
  962SOL     OW 3845   2.164   2.027   2.802 -0.2580  0.3266 -0.1089
  962SOL    HW1 3846   2.117   2.034   2.883 -2.8058 -0.3481 -1.1467
  962SOL    HW2 3847   2.168   1.929   2.773  1.5460 -1.1413 -2.5612
  962SOL     MW 3848   2.158   2.015   2.809 -0.3562  0.0439 -0.5694
  963SOL     OW 3849   1.832   2.595   2.074 -0.2945 -0.1722  0.1278
  963SOL    HW1 3850   1.924   2.622   2.107 -0.9854  0.8295  0.1770
  963SOL    HW2 3851   1.847   2.512   2.028  1.6473  1.5686 -0.0849
  963SOL     MW 3852   1.846   2.587   2.073 -0.1295  0.1897  0.1062
  964SOL     OW 3853   1.765   1.932   2.721  0.8166 -0.1275  0.0616
  964SOL    HW1 3854   1.831   2.002   2.697  2.5955  1.1358 -4.0246
  964SOL    HW2 3855   1.799   1.891   2.805 -2.6035  0.1232  1.3329
  964SOL     MW 3856   1.778   1.936   2.729  0.6000  0.0722 -0.3098
  965SOL     OW 3857   2.221   2.766   0.606  0.3273 -0.0701  0.4051
  965SOL    HW1 3858   2.226   2.670   0.624 -1.0321  1.9350 -1.6230
  965SOL    HW2 3859   2.257   2.807   0.686 -0.7664  2.8569  0.9044
  965SOL     MW 3860   2.227   2.759   0.619  0.0037  0.5806  0.2034
  966SOL     OW 3861   2.663   2.669   2.494  0.2616  0.1267 -0.3807
  966SOL    HW1 3862   2.617   2.697   2.416  2.2456 -0.8210  0.0528
  966SOL    HW2 3863   2.727   2.608   2.460  1.4791  2.4746 -0.8240
  966SOL     MW 3864   2.665   2.665   2.479  0.6840  0.3115 -0.3820
  967SOL     OW 3865   2.781   3.021   2.903 -0.3914  0.3645 -0.2287
  967SOL    HW1 3866   2.772   2.938   2.947 -1.0289  1.1081  1.2216
  967SOL    HW2 3867   2.690   3.049   2.876 -1.1157  2.1296 -1.9863
  967SOL     MW 3868   2.768   3.014   2.905 -0.5711  0.6955 -0.2693
  968SOL     OW 3869   3.042   2.644   2.916 -0.4268 -0.4567  0.1825
  968SOL    HW1 3870   2.968   2.650   2.844  1.1748  1.7432  0.2088
  968SOL    HW2 3871   3.113   2.602   2.866  2.7885 -0.6518  1.1341
  968SOL     MW 3872   3.042   2.639   2.900  0.2088 -0.1922  0.3115
  969SOL     OW 3873   1.558   2.165   1.665  0.5696 -0.8775 -0.5959
  969SOL    HW1 3874   1.628   2.099   1.647 -0.6028  0.3998 -0.4062
  969SOL    HW2 3875   1.522   2.162   1.757  0.8946  0.1306 -0.1578
  969SOL     MW 3876   1.563   2.156   1.675  0.4578 -0.5760 -0.5131
  970SOL     OW 3877   1.658   1.741   1.818 -0.0794  0.6362  0.9979
  970SOL    HW1 3878   1.706   1.708   1.891  3.0445  0.2569 -2.8088
  970SOL    HW2 3879   1.579   1.779   1.854 -0.6500  1.9836  1.4941
  970SOL     MW 3880   1.654   1.742   1.833  0.2575  0.7639  0.5611
  971SOL     OW 3881   1.749   3.074   2.394  0.2624  0.6062 -0.0641
  971SOL    HW1 3882   1.778   3.060   2.301  1.2981  0.7587  1.3067
  971SOL    HW2 3883   1.799   3.149   2.420 -0.0582  1.6250 -0.2646
  971SOL     MW 3884   1.759   3.082   2.385  0.3568  0.7607  0.0903
  972SOL     OW 3885   0.261   2.882   2.461  0.1140 -0.2157  0.2917
  972SOL    HW1 3886   0.313   2.804   2.476  1.7741 -0.1072 -0.9899
  972SOL    HW2 3887   0.330   2.956   2.478  0.1629  2.9426 -0.9027
  972SOL     MW 3888   0.277   2.882   2.466  0.3395  0.2153 -0.0349
  973SOL     OW 3889   2.530   0.023   2.068 -0.1728  0.0710 -0.2803
  973SOL    HW1 3890   2.513  -0.068   2.046 -0.1606 -2.6531 -0.4641
  973SOL    HW2 3891   2.571   0.055   1.984  3.3497 -2.2749 -0.2893
  973SOL     MW 3892   2.533   0.015   2.054  0.2935 -0.5979 -0.3058
  974SOL     OW 3893   2.056   0.220   2.687  0.0781 -0.3363  0.1477
  974SOL    HW1 3894   2.149   0.208   2.674  0.5529  1.1879  0.3142
  974SOL    HW2 3895   2.022   0.150   2.746 -1.4982  0.3109 -1.4817
  974SOL     MW 3896   2.064   0.209   2.693 -0.0672 -0.0498 -0.0453
  975SOL     OW 3897   2.197   2.451   2.493 -0.0444  0.1035  0.3524
  975SOL    HW1 3898   2.287   2.485   2.494  0.3536  2.4877 -0.6801
  975SOL    HW2 3899   2.134   2.528   2.485 -2.6706 -2.5100  2.1409
  975SOL     MW 3900   2.200   2.466   2.492 -0.3384  0.0733  0.4522
  976SOL     OW 3901   0.228   0.363   1.726 -0.8031 -0.5639  0.0993
  976SOL    HW1 3902   0.288   0.306   1.778 -0.9177 -1.9038  0.9450
  976SOL    HW2 3903   0.158   0.303   1.695  2.4741  2.7051  1.7323
  976SOL     MW 3904   0.226   0.347   1.729 -0.3858 -0.3094  0.4264
  977SOL     OW 3905   1.737   2.610   2.501 -0.1522 -0.0579  0.5127
  977SOL    HW1 3906   1.746   2.519   2.472  1.7988  0.7908 -0.6594
  977SOL    HW2 3907   1.825   2.641   2.486 -0.6148 -1.9620  0.9788
  977SOL     MW 3908   1.749   2.602   2.495  0.0442 -0.1972  0.4196
   3.10000   3.10000   3.10000
